/*--------------------------------*- C++ -*----------------------------------*\
| =========                 |                                                 |
| \\      /  F ield         | OpenFOAM: The Open Source CFD Toolbox           |
|  \\    /   O peration     | Version:  2212                                  |
|   \\  /    A nd           | Website:  www.openfoam.com                      |
|    \\/     M anipulation  |                                                 |
\*---------------------------------------------------------------------------*/
FoamFile
{
    version     2.0;
    format      ascii;
    arch        "LSB;label=32;scalar=64";
    class       surfaceScalarField;
    location    "1.3";
    object      phi;
}
// * * * * * * * * * * * * * * * * * * * * * * * * * * * * * * * * * * * * * //

dimensions      [0 3 -1 0 0 0 0];

oriented        oriented;

internalField   nonuniform List<scalar> 
19019
(
3.32249e-07
1.09684e-09
1.09683e-09
2.7919e-07
2.65297e-08
2.65294e-08
2.49217e-07
1.49868e-08
1.49862e-08
2.29253e-07
9.98269e-09
9.98173e-09
2.14832e-07
7.21146e-09
7.20907e-09
2.03195e-07
5.82059e-09
5.81691e-09
1.93765e-07
4.71888e-09
4.71134e-09
1.85992e-07
3.89291e-09
3.87932e-09
1.79336e-07
3.34015e-09
3.31645e-09
1.73495e-07
2.94116e-09
2.90014e-09
1.68303e-07
2.6298e-09
2.56209e-09
1.6365e-07
2.3827e-09
2.27036e-09
1.59434e-07
2.20474e-09
2.01142e-09
1.55577e-07
2.10135e-09
1.75569e-09
1.5207e-07
2.05439e-09
1.45203e-09
1.48936e-07
2.05309e-09
1.081e-09
1.46253e-07
2.10407e-09
5.79849e-10
1.44418e-07
2.17462e-09
-3.39559e-10
1.44465e-07
2.67667e-09
-2.7236e-09
-4.91559e-09
-1.78016e-08
6.3138e-07
3.58767e-09
7.40284e-09
6.14563e-07
2.26463e-08
2.07002e-08
5.86444e-07
2.43766e-08
1.8729e-08
5.61724e-07
1.88559e-08
1.58468e-08
5.39615e-07
1.55716e-08
1.37489e-08
5.20634e-07
1.35138e-08
1.12882e-08
5.04688e-07
1.19578e-08
8.70749e-09
4.90933e-07
1.08094e-08
6.83761e-09
4.78711e-07
9.96334e-09
5.59946e-09
4.67628e-07
9.26449e-09
4.75905e-09
4.57456e-07
8.65811e-09
4.14366e-09
4.48055e-07
8.12249e-09
3.66175e-09
4.39314e-07
7.65313e-09
3.29305e-09
4.31148e-07
7.25313e-09
3.01418e-09
4.23543e-07
6.91384e-09
2.74599e-09
4.16699e-07
6.57235e-09
2.32416e-09
4.11064e-07
6.0922e-09
1.64758e-09
4.082e-07
4.85734e-09
1.80889e-10
4.11165e-07
2.60216e-09
-2.88981e-09
-4.19704e-09
-1.34162e-08
8.90375e-07
2.85271e-09
6.3323e-09
8.82486e-07
1.3409e-08
1.71255e-08
8.7036e-07
1.78679e-08
1.86352e-08
8.55114e-07
1.69562e-08
1.7146e-08
8.39986e-07
1.5341e-08
1.53585e-08
8.25542e-07
1.41703e-08
1.37872e-08
8.11782e-07
1.33797e-08
1.23384e-08
7.98801e-07
1.26753e-08
1.11147e-08
7.86752e-07
1.18858e-08
1.01272e-08
7.75649e-07
1.1039e-08
9.32819e-09
7.65365e-07
1.02282e-08
8.7141e-09
7.55766e-07
9.47103e-09
8.2501e-09
7.46763e-07
8.77123e-09
7.88514e-09
7.38338e-07
8.10911e-09
7.56865e-09
7.30573e-07
7.43345e-09
7.24599e-09
7.23724e-07
6.61242e-09
6.80888e-09
7.18254e-07
5.47238e-09
6.08993e-09
7.14583e-07
3.73521e-09
4.79356e-09
7.13233e-07
1.25068e-09
2.70137e-09
-4.21001e-09
-1.55978e-09
1.07432e-06
1.06482e-09
5.56886e-09
1.06824e-06
5.58663e-09
1.39001e-08
1.06138e-06
8.46414e-09
1.62613e-08
1.05339e-06
9.03993e-09
1.59075e-08
1.04511e-06
8.61748e-09
1.49992e-08
1.03724e-06
8.11909e-09
1.39287e-08
1.02986e-06
7.7832e-09
1.29705e-08
1.02289e-06
7.54753e-09
1.21045e-08
1.01609e-06
7.35561e-09
1.13287e-08
1.0094e-06
7.06117e-09
1.06647e-08
1.00287e-06
6.60569e-09
1.01528e-08
9.96498e-07
6.08226e-09
9.7601e-09
9.90274e-07
5.5441e-09
9.45208e-09
9.84202e-07
4.979e-09
9.20134e-09
9.78305e-07
4.36564e-09
8.96554e-09
9.72634e-07
3.60201e-09
8.68082e-09
9.67279e-07
2.56051e-09
8.26674e-09
9.62299e-07
1.07776e-09
7.63813e-09
9.57663e-07
-9.1662e-10
6.80375e-09
-3.69763e-09
6.05406e-09
1.16914e-06
-1.17829e-13
4.90652e-09
1.16312e-06
-5.70567e-13
1.16083e-08
1.15731e-06
-1.34773e-12
1.42753e-08
1.15202e-06
-2.4334e-12
1.43329e-08
1.14692e-06
-4.20688e-12
1.37285e-08
1.14208e-06
-7.40346e-12
1.29659e-08
1.13778e-06
-1.31652e-11
1.20955e-08
1.13405e-06
-2.2634e-11
1.12997e-08
1.13081e-06
-3.85937e-11
1.06363e-08
1.12776e-06
-6.48804e-11
1.01676e-08
1.12462e-06
-1.08025e-10
9.85987e-09
1.12125e-06
-1.78554e-10
9.63244e-09
1.11761e-06
-2.94514e-10
9.47905e-09
1.11366e-06
-4.83636e-10
9.40849e-09
1.10938e-06
-7.75591e-10
9.41967e-09
1.10474e-06
-1.24034e-09
9.4802e-09
1.09971e-06
-1.97864e-09
9.57274e-09
1.09423e-06
-3.13975e-09
9.69839e-09
1.08816e-06
-4.67088e-09
9.82628e-09
-7.55482e-09
1.01946e-08
1.16914e-06
-1.06509e-09
4.90655e-09
1.16312e-06
-5.58758e-09
1.16085e-08
1.15731e-06
-8.46592e-09
1.42753e-08
1.15202e-06
-9.04297e-09
1.43334e-08
1.14691e-06
-8.62326e-09
1.37303e-08
1.14206e-06
-8.13005e-09
1.29696e-08
1.13775e-06
-7.80314e-09
1.21012e-08
1.134e-06
-7.58222e-09
1.13092e-08
1.13072e-06
-7.41635e-09
1.06528e-08
1.12763e-06
-7.16272e-09
1.01957e-08
1.12438e-06
-6.77218e-09
9.90606e-09
1.12085e-06
-6.35387e-09
9.70988e-09
1.11694e-06
-5.99234e-09
9.61135e-09
1.11255e-06
-5.72583e-09
9.63129e-09
1.10758e-06
-5.59575e-09
9.78745e-09
1.1019e-06
-5.65014e-09
1.00866e-08
1.09535e-06
-5.98457e-09
1.05623e-08
1.08771e-06
-6.74754e-09
1.12498e-08
1.07898e-06
-8.01504e-09
1.20644e-08
-1.11566e-08
1.25477e-08
1.07432e-06
-2.85268e-09
5.56885e-09
1.06824e-06
-1.34089e-08
1.39001e-08
1.06138e-06
-1.78678e-08
1.6262e-08
1.05338e-06
-1.69561e-08
1.59097e-08
1.04509e-06
-1.53416e-08
1.50035e-08
1.0372e-06
-1.41723e-08
1.39355e-08
1.0298e-06
-1.33837e-08
1.29806e-08
1.02278e-06
-1.26818e-08
1.21211e-08
1.0159e-06
-1.18978e-08
1.13567e-08
1.00909e-06
-1.10595e-08
1.07128e-08
1.00234e-06
-1.02619e-08
1.0236e-08
9.95613e-07
-9.52935e-09
9.90489e-09
9.888e-07
-8.879e-09
9.69964e-09
9.81766e-07
-8.3158e-09
9.62367e-09
9.74309e-07
-7.83096e-09
9.69252e-09
9.66124e-07
-7.41413e-09
9.94951e-09
9.56773e-07
-7.12091e-09
1.04865e-08
9.45663e-07
-7.03253e-09
1.13953e-08
9.32386e-07
-7.40232e-09
1.26646e-08
-1.00858e-08
1.38639e-08
8.90375e-07
-3.58756e-09
6.33239e-09
8.82485e-07
-2.26457e-08
1.71262e-08
8.70356e-07
-2.43758e-08
1.86368e-08
8.55106e-07
-1.88546e-08
1.71488e-08
8.3997e-07
-1.55686e-08
1.53625e-08
8.25514e-07
-1.35087e-08
1.37927e-08
8.11732e-07
-1.19489e-08
1.23474e-08
7.98714e-07
-1.07947e-08
1.11305e-08
7.86602e-07
-9.93851e-09
1.01528e-08
7.75394e-07
-9.22181e-09
9.37034e-09
7.64932e-07
-8.58488e-09
8.78493e-09
7.55034e-07
-8.0043e-09
8.37328e-09
7.45527e-07
-7.47064e-09
8.09877e-09
7.3625e-07
-6.97132e-09
7.93276e-09
7.27017e-07
-6.47656e-09
7.87786e-09
7.17529e-07
-5.90173e-09
7.97567e-09
7.07334e-07
-5.22087e-09
8.29533e-09
6.95643e-07
-4.28909e-09
8.94735e-09
6.81319e-07
-2.8655e-09
9.78718e-09
-1.93071e-09
1.27568e-08
6.3138e-07
-1.09684e-09
7.40293e-09
6.14563e-07
-2.65294e-08
2.07007e-08
5.86444e-07
-1.49862e-08
1.87299e-08
5.61722e-07
-9.98176e-09
1.58485e-08
5.39611e-07
-7.20913e-09
1.37514e-08
5.20627e-07
-5.81697e-09
1.12929e-08
5.04674e-07
-4.71143e-09
8.71514e-09
4.90909e-07
-3.87944e-09
6.85013e-09
4.78666e-07
-3.31659e-09
5.62062e-09
4.67549e-07
-2.90031e-09
4.79564e-09
4.57312e-07
-2.56232e-09
4.21473e-09
4.47793e-07
-2.27063e-09
3.78555e-09
4.38851e-07
-2.01166e-09
3.48328e-09
4.30354e-07
-1.75611e-09
3.28112e-09
4.22175e-07
-1.45264e-09
3.15576e-09
4.14276e-07
-1.08167e-09
3.07877e-09
4.06529e-07
-5.80733e-10
3.10697e-09
3.98741e-07
3.38222e-10
3.1603e-09
3.9052e-07
2.7216e-09
2.63465e-09
1.77979e-08
1.05265e-09
3.32249e-07
1.09684e-09
2.7919e-07
2.65297e-08
2.49217e-07
1.49867e-08
2.29253e-07
9.98266e-09
2.14832e-07
7.21142e-09
2.03195e-07
5.82052e-09
1.93765e-07
4.7188e-09
1.85992e-07
3.8928e-09
1.79336e-07
3.34002e-09
1.73495e-07
2.94099e-09
1.68303e-07
2.62959e-09
1.6365e-07
2.38246e-09
1.59434e-07
2.20435e-09
1.55577e-07
2.1009e-09
1.5207e-07
2.0539e-09
1.48936e-07
2.05243e-09
1.46252e-07
2.10335e-09
1.44417e-07
2.17377e-09
1.44463e-07
2.67546e-09
-4.91728e-09
6.3138e-07
7.40293e-09
3.58756e-09
6.14563e-07
2.07007e-08
2.26457e-08
5.86444e-07
1.87299e-08
2.43758e-08
5.61722e-07
1.58486e-08
1.88545e-08
5.39611e-07
1.37514e-08
1.55685e-08
5.20627e-07
1.12929e-08
1.35086e-08
5.04674e-07
8.71517e-09
1.19488e-08
4.90909e-07
6.85017e-09
1.07946e-08
4.78666e-07
5.62067e-09
9.93832e-09
4.67549e-07
4.79571e-09
9.22157e-09
4.57312e-07
4.21481e-09
8.58458e-09
4.47793e-07
3.78566e-09
8.00393e-09
4.3885e-07
3.48362e-09
7.47013e-09
4.30354e-07
3.28134e-09
6.97089e-09
4.22174e-07
3.15575e-09
6.47607e-09
4.14275e-07
3.07895e-09
5.90088e-09
4.06529e-07
3.10705e-09
5.21956e-09
3.98743e-07
3.15996e-09
4.28693e-09
3.90524e-07
2.63372e-09
2.86171e-09
1.05093e-09
1.92396e-09
9.23616e-07
7.03403e-09
7.03385e-09
9.25317e-07
1.98504e-08
1.98498e-08
9.17181e-07
2.27979e-08
2.27967e-08
9.0427e-07
2.23044e-08
2.23021e-08
8.90526e-07
2.06244e-08
2.06205e-08
8.77395e-07
1.78594e-08
1.78521e-08
8.65416e-07
1.4707e-08
1.4695e-08
8.54721e-07
1.22007e-08
1.21815e-08
8.45254e-07
1.03604e-08
1.03268e-08
8.36865e-07
9.00155e-09
8.94267e-09
8.2936e-07
7.98197e-09
7.88102e-09
8.22548e-07
7.21347e-09
7.04671e-09
8.1631e-07
6.64019e-09
6.37368e-09
8.1062e-07
6.20514e-09
5.78115e-09
8.05468e-07
5.86709e-09
5.18608e-09
8.008e-07
5.58389e-09
4.48782e-09
7.96633e-07
5.31611e-09
3.60505e-09
7.92656e-07
4.97072e-09
2.34731e-09
7.88197e-07
4.04836e-09
1.55145e-10
1.05128e-09
-3.4882e-09
1.1589e-06
5.28157e-09
6.10249e-09
1.1657e-06
1.39993e-08
1.61825e-08
1.16844e-06
1.79791e-08
2.07056e-08
1.16661e-06
1.91807e-08
2.21033e-08
1.16221e-06
1.88788e-08
2.15033e-08
1.15654e-06
1.75497e-08
1.97665e-08
1.15048e-06
1.56915e-08
1.742e-08
1.14458e-06
1.38946e-08
1.53204e-08
1.13915e-06
1.2298e-08
1.36142e-08
1.13433e-06
1.09062e-08
1.22436e-08
1.13012e-06
9.75828e-09
1.11464e-08
1.1265e-06
8.82265e-09
1.02679e-08
1.12343e-06
8.0487e-09
9.54317e-09
1.12091e-06
7.38384e-09
8.90583e-09
1.11896e-06
6.76786e-09
8.2967e-09
1.11757e-06
6.14431e-09
7.63614e-09
1.11674e-06
5.42486e-09
6.81236e-09
1.11624e-06
4.51909e-09
5.74365e-09
1.11548e-06
3.19795e-09
4.31308e-09
1.13182e-09
2.78233e-09
1.32763e-06
2.71829e-09
4.93102e-09
1.33539e-06
7.12106e-09
1.30087e-08
1.34287e-06
9.55379e-09
1.72152e-08
1.34848e-06
1.05783e-08
1.8898e-08
1.35198e-06
1.08751e-08
1.94988e-08
1.35377e-06
1.05799e-08
1.91116e-08
1.35445e-06
9.89022e-09
1.80955e-08
1.3546e-06
9.04281e-09
1.68034e-08
1.35459e-06
8.18739e-09
1.54521e-08
1.35456e-06
7.37973e-09
1.42142e-08
1.35461e-06
6.6519e-09
1.32141e-08
1.35478e-06
5.99469e-09
1.2416e-08
1.35511e-06
5.39912e-09
1.17714e-08
1.35563e-06
4.83245e-09
1.12367e-08
1.35636e-06
4.22963e-09
1.07666e-08
1.35733e-06
3.54435e-09
1.03109e-08
1.35849e-06
2.71571e-09
9.81944e-09
1.35971e-06
1.67359e-09
9.26343e-09
1.36067e-06
3.4326e-10
8.69673e-09
-1.18629e-09
8.43487e-09
1.41518e-06
-2.34011e-13
4.19283e-09
1.42279e-06
-6.76732e-13
1.11158e-08
1.43152e-06
-1.16751e-12
1.50984e-08
1.43981e-06
-2.17421e-12
1.66289e-08
1.44714e-06
-4.08815e-12
1.7274e-08
1.45319e-06
-7.21249e-12
1.75073e-08
1.45804e-06
-1.19286e-11
1.71491e-08
1.46197e-06
-1.95694e-11
1.64308e-08
1.46528e-06
-3.2986e-11
1.55399e-08
1.46824e-06
-5.73179e-11
1.46516e-08
1.47102e-06
-9.8325e-11
1.38281e-08
1.4737e-06
-1.64068e-10
1.31091e-08
1.47627e-06
-2.62049e-10
1.25676e-08
1.47872e-06
-4.12489e-10
1.22099e-08
1.48103e-06
-6.46842e-10
1.19796e-08
1.48323e-06
-1.00439e-09
1.18339e-08
1.48528e-06
-1.53037e-09
1.17718e-08
1.48712e-06
-2.27822e-09
1.18051e-08
1.48861e-06
-3.26234e-09
1.19407e-08
-4.29979e-09
1.22419e-08
1.41518e-06
-2.71857e-09
4.19295e-09
1.42279e-06
-7.1218e-09
1.11161e-08
1.43152e-06
-9.55513e-09
1.50989e-08
1.4398e-06
-1.05808e-08
1.66301e-08
1.44713e-06
-1.08801e-08
1.7277e-08
1.45317e-06
-1.05884e-08
1.75125e-08
1.45801e-06
-9.90466e-09
1.71575e-08
1.46192e-06
-9.06702e-09
1.64439e-08
1.46521e-06
-8.22854e-09
1.556e-08
1.46812e-06
-7.45502e-09
1.46846e-08
1.47082e-06
-6.78484e-09
1.3884e-08
1.47338e-06
-6.21479e-09
1.32061e-08
1.47573e-06
-5.73544e-09
1.27339e-08
1.47782e-06
-5.35359e-09
1.24834e-08
1.47963e-06
-5.07381e-09
1.24058e-08
1.48115e-06
-4.91142e-09
1.24743e-08
1.48233e-06
-4.89979e-09
1.27485e-08
1.48315e-06
-5.09292e-09
1.32464e-08
1.48354e-06
-5.46294e-09
1.3875e-08
-5.78507e-09
1.42947e-08
1.32762e-06
-5.28144e-09
4.93127e-09
1.33539e-06
-1.39991e-08
1.30095e-08
1.34286e-06
-1.79788e-08
1.7217e-08
1.34847e-06
-1.91802e-08
1.89022e-08
1.35196e-06
-1.8878e-08
1.95064e-08
1.35373e-06
-1.75479e-08
1.91235e-08
1.35439e-06
-1.56894e-08
1.81139e-08
1.3545e-06
-1.38933e-08
1.68326e-08
1.35443e-06
-1.22948e-08
1.54971e-08
1.3543e-06
-1.08998e-08
1.42877e-08
1.35415e-06
-9.74684e-09
1.33412e-08
1.35402e-06
-8.80042e-09
1.2629e-08
1.35387e-06
-8.00831e-09
1.21194e-08
1.35366e-06
-7.32437e-09
1.18018e-08
1.3533e-06
-6.70265e-09
1.16862e-08
1.35264e-06
-6.11514e-09
1.18079e-08
1.35157e-06
-5.54914e-09
1.22064e-08
1.34997e-06
-4.99372e-09
1.28992e-08
1.34766e-06
-4.28416e-09
1.37974e-08
-3.4929e-09
1.43181e-08
1.1589e-06
-7.03386e-09
6.10281e-09
1.16569e-06
-1.98498e-08
1.61838e-08
1.16844e-06
-2.27967e-08
2.07084e-08
1.1666e-06
-2.23021e-08
2.21079e-08
1.1622e-06
-2.06206e-08
2.15101e-08
1.15652e-06
-1.78523e-08
1.97761e-08
1.15044e-06
-1.46952e-08
1.74357e-08
1.14451e-06
-1.21817e-08
1.53478e-08
1.13903e-06
-1.0327e-08
1.36611e-08
1.13412e-06
-8.94296e-09
1.23215e-08
1.12977e-06
-7.88137e-09
1.12756e-08
1.12591e-06
-7.0471e-09
1.04796e-08
1.12248e-06
-6.37389e-09
9.89106e-09
1.1194e-06
-5.78191e-09
9.47503e-09
1.11653e-06
-5.18747e-09
9.22592e-09
1.11371e-06
-4.48917e-09
9.16912e-09
1.11073e-06
-3.60703e-09
9.33862e-09
1.10726e-06
-2.35071e-09
9.77467e-09
1.10261e-06
-1.6051e-10
1.03091e-08
3.48242e-09
1.07543e-08
9.23616e-07
-7.40284e-09
7.03402e-09
9.25317e-07
-2.07002e-08
1.98504e-08
9.17181e-07
-1.8729e-08
2.27979e-08
9.0427e-07
-1.58468e-08
2.23044e-08
8.90526e-07
-1.3749e-08
2.06243e-08
8.77395e-07
-1.12882e-08
1.78593e-08
8.65416e-07
-8.70756e-09
1.47069e-08
8.54721e-07
-6.8377e-09
1.22006e-08
8.45254e-07
-5.59956e-09
1.03603e-08
8.36865e-07
-4.75917e-09
9.00135e-09
8.2936e-07
-4.14384e-09
7.98173e-09
8.22547e-07
-3.66195e-09
7.21315e-09
8.1631e-07
-3.29308e-09
6.63956e-09
8.10619e-07
-3.01429e-09
6.20475e-09
8.05467e-07
-2.74649e-09
5.86697e-09
8.00798e-07
-2.32467e-09
5.5835e-09
7.9663e-07
-1.64845e-09
5.31602e-09
7.92651e-07
-1.82583e-10
4.97135e-09
7.88189e-07
2.88707e-09
4.04978e-09
1.34129e-08
1.05009e-09
6.3138e-07
3.58766e-09
6.14563e-07
2.26463e-08
5.86444e-07
2.43765e-08
5.61724e-07
1.88559e-08
5.39615e-07
1.55715e-08
5.20634e-07
1.35137e-08
5.04688e-07
1.19576e-08
4.90933e-07
1.08093e-08
4.78711e-07
9.96314e-09
4.67628e-07
9.26424e-09
4.57456e-07
8.65781e-09
4.48055e-07
8.12214e-09
4.39313e-07
7.65277e-09
4.31147e-07
7.25243e-09
4.23542e-07
6.91286e-09
4.16698e-07
6.57147e-09
4.11062e-07
6.0915e-09
4.08196e-07
4.85694e-09
4.11157e-07
2.60245e-09
-4.19369e-09
8.90374e-07
6.33239e-09
2.85267e-09
8.82485e-07
1.71262e-08
1.34088e-08
8.70356e-07
1.86369e-08
1.78678e-08
8.55106e-07
1.71488e-08
1.69561e-08
8.3997e-07
1.53626e-08
1.53415e-08
8.25514e-07
1.37928e-08
1.41722e-08
8.11732e-07
1.23474e-08
1.33836e-08
7.98714e-07
1.11306e-08
1.26817e-08
7.86602e-07
1.01529e-08
1.18975e-08
7.75394e-07
9.37044e-09
1.10592e-08
7.64932e-07
8.78506e-09
1.02615e-08
7.55033e-07
8.37346e-09
9.52887e-09
7.45526e-07
8.09901e-09
8.87839e-09
7.36249e-07
7.93301e-09
8.31516e-09
7.27017e-07
7.87819e-09
7.83023e-09
7.17528e-07
7.97601e-09
7.41305e-09
7.07333e-07
8.29548e-09
7.11933e-09
6.95643e-07
8.94682e-09
7.0303e-09
6.81321e-07
9.78519e-09
7.39865e-09
1.27537e-08
1.00796e-08
1.1589e-06
6.10282e-09
5.28143e-09
1.16569e-06
1.61838e-08
1.39991e-08
1.16844e-06
2.07085e-08
1.79787e-08
1.1666e-06
2.21079e-08
1.91802e-08
1.1622e-06
2.15101e-08
1.88779e-08
1.15652e-06
1.97762e-08
1.75478e-08
1.15044e-06
1.74358e-08
1.56892e-08
1.14451e-06
1.53479e-08
1.38931e-08
1.13903e-06
1.36613e-08
1.22945e-08
1.13412e-06
1.23217e-08
1.08994e-08
1.12977e-06
1.12758e-08
9.74639e-09
1.12591e-06
1.048e-08
8.79991e-09
1.12248e-06
9.89158e-09
8.00774e-09
1.1194e-06
9.47531e-09
7.32333e-09
1.11653e-06
9.22607e-09
6.70118e-09
1.11371e-06
9.16943e-09
6.11353e-09
1.11073e-06
9.3387e-09
5.547e-09
1.10726e-06
9.7739e-09
4.99047e-09
1.10261e-06
1.03073e-08
4.27929e-09
1.07525e-08
3.48585e-09
1.37712e-06
4.57762e-09
4.5773e-09
1.38565e-06
1.1918e-08
1.19171e-08
1.39417e-06
1.64486e-08
1.64469e-08
1.40126e-06
1.85632e-08
1.85604e-08
1.40641e-06
1.8934e-08
1.89293e-08
1.4095e-06
1.82273e-08
1.822e-08
1.41092e-06
1.67244e-08
1.67125e-08
1.4115e-06
1.50562e-08
1.50374e-08
1.41176e-06
1.35206e-08
1.349e-08
1.41198e-06
1.2196e-08
1.21468e-08
1.41233e-06
1.1077e-08
1.09978e-08
1.4129e-06
1.01512e-08
1.00239e-08
1.41375e-06
9.39807e-09
9.1918e-09
1.41488e-06
8.79225e-09
8.4615e-09
1.41629e-06
8.31486e-09
7.79831e-09
1.41797e-06
7.9586e-09
7.16636e-09
1.4199e-06
7.70869e-09
6.50877e-09
1.42211e-06
7.53259e-09
5.77898e-09
1.42455e-06
7.29654e-09
4.88146e-09
6.68079e-09
3.98173e-09
1.53312e-06
2.36618e-09
3.64921e-09
1.54218e-06
6.23925e-09
9.63359e-09
1.55328e-06
8.87412e-09
1.36913e-08
1.56445e-06
1.03484e-08
1.59358e-08
1.57507e-06
1.0902e-08
1.69105e-08
1.58471e-06
1.07583e-08
1.69434e-08
1.59301e-06
1.01492e-08
1.63737e-08
1.60009e-06
9.3401e-09
1.54416e-08
1.60625e-06
8.47363e-09
1.4338e-08
1.61176e-06
7.65892e-09
1.32411e-08
1.61686e-06
6.94206e-09
1.22437e-08
1.62173e-06
6.32406e-09
1.1372e-08
1.62649e-06
5.78774e-09
1.06215e-08
1.63124e-06
5.3125e-09
9.97521e-09
1.63603e-06
4.87148e-09
9.41159e-09
1.64095e-06
4.44956e-09
8.90221e-09
1.64605e-06
4.01754e-09
8.41499e-09
1.65139e-06
3.54121e-09
7.91311e-09
1.65704e-06
2.94845e-09
7.3935e-09
2.22488e-09
7.03376e-09
1.61424e-06
-1.72823e-13
3.09275e-09
1.62332e-06
-4.18128e-13
8.27379e-09
1.63534e-06
-7.39026e-13
1.19567e-08
1.6482e-06
-1.32415e-12
1.41137e-08
1.66118e-06
-2.37743e-12
1.51988e-08
1.67387e-06
-3.91512e-12
1.55806e-08
1.68575e-06
-6.47167e-12
1.54263e-08
1.69658e-06
-1.03575e-11
1.4953e-08
1.70633e-06
-1.71099e-11
1.42767e-08
1.71517e-06
-2.87409e-11
1.34985e-08
1.72328e-06
-4.74726e-11
1.27073e-08
1.73082e-06
-7.58884e-11
1.19688e-08
1.73797e-06
-1.16721e-10
1.13289e-08
1.74486e-06
-1.77675e-10
1.08071e-08
1.75158e-06
-2.72941e-10
1.04021e-08
1.75817e-06
-4.15166e-10
1.01112e-08
1.76466e-06
-6.24235e-10
9.91912e-09
1.77111e-06
-9.09447e-10
9.80881e-09
1.77753e-06
-1.28705e-09
9.75138e-09
-1.65759e-09
9.75202e-09
1.61424e-06
-2.3663e-09
3.09292e-09
1.62332e-06
-6.23953e-09
8.27428e-09
1.63533e-06
-8.87462e-09
1.19577e-08
1.6482e-06
-1.03494e-08
1.41156e-08
1.66117e-06
-1.09033e-08
1.52024e-08
1.67386e-06
-1.07602e-08
1.55862e-08
1.68572e-06
-1.01525e-08
1.54344e-08
1.69654e-06
-9.3459e-09
1.4965e-08
1.70627e-06
-8.48352e-09
1.42952e-08
1.71508e-06
-7.67759e-09
1.3528e-08
1.72313e-06
-6.97608e-09
1.27551e-08
1.7306e-06
-6.38087e-09
1.20466e-08
1.73763e-06
-5.87362e-09
1.14542e-08
1.74437e-06
-5.43976e-09
1.10061e-08
1.75087e-06
-5.07041e-09
1.07104e-08
1.75712e-06
-4.76457e-09
1.05664e-08
1.76319e-06
-4.51741e-09
1.0579e-08
1.76909e-06
-4.31252e-09
1.07422e-08
1.77481e-06
-4.11387e-09
1.09844e-08
-3.88841e-09
1.11298e-08
1.53312e-06
-4.57731e-09
3.64961e-09
1.54218e-06
-1.19171e-08
9.63474e-09
1.55327e-06
-1.64469e-08
1.36935e-08
1.56445e-06
-1.85605e-08
1.59399e-08
1.57506e-06
-1.89294e-08
1.69172e-08
1.58469e-06
-1.82202e-08
1.6954e-08
1.59297e-06
-1.67127e-08
1.63899e-08
1.60003e-06
-1.50376e-08
1.54675e-08
1.60616e-06
-1.34903e-08
1.43781e-08
1.61161e-06
-1.21472e-08
1.33037e-08
1.61663e-06
-1.09983e-08
1.23442e-08
1.62137e-06
-1.00245e-08
1.15337e-08
1.62592e-06
-9.19259e-09
1.08841e-08
1.63035e-06
-8.46265e-09
1.03969e-08
1.63469e-06
-7.79985e-09
1.00721e-08
1.63899e-06
-7.16824e-09
9.9124e-09
1.64326e-06
-6.51119e-09
9.92852e-09
1.64752e-06
-5.78213e-09
1.01088e-08
1.65172e-06
-4.88503e-09
1.03694e-08
-3.98473e-09
1.04233e-08
1.37712e-06
-6.1025e-09
4.57761e-09
1.38565e-06
-1.61825e-08
1.19179e-08
1.39417e-06
-2.07057e-08
1.64486e-08
1.40126e-06
-2.21034e-08
1.85632e-08
1.40641e-06
-2.15034e-08
1.89339e-08
1.4095e-06
-1.97666e-08
1.82272e-08
1.41092e-06
-1.74201e-08
1.67243e-08
1.4115e-06
-1.53206e-08
1.5056e-08
1.41176e-06
-1.36145e-08
1.35204e-08
1.41198e-06
-1.22439e-08
1.21957e-08
1.41233e-06
-1.11468e-08
1.10766e-08
1.4129e-06
-1.02683e-08
1.01508e-08
1.41375e-06
-9.54374e-09
9.39757e-09
1.41488e-06
-8.90675e-09
8.79182e-09
1.41629e-06
-8.29798e-09
8.31446e-09
1.41797e-06
-7.63779e-09
7.9581e-09
1.4199e-06
-6.81475e-09
7.70821e-09
1.42211e-06
-5.7471e-09
7.5322e-09
1.42455e-06
-4.31723e-09
7.29583e-09
-2.78447e-09
6.67847e-09
1.1589e-06
-6.3323e-09
5.28156e-09
1.1657e-06
-1.71256e-08
1.39993e-08
1.16844e-06
-1.86352e-08
1.7979e-08
1.16661e-06
-1.7146e-08
1.91807e-08
1.16221e-06
-1.53585e-08
1.88787e-08
1.15654e-06
-1.37873e-08
1.75496e-08
1.15048e-06
-1.23385e-08
1.56913e-08
1.14458e-06
-1.11148e-08
1.38945e-08
1.13915e-06
-1.01273e-08
1.22978e-08
1.13433e-06
-9.32837e-09
1.0906e-08
1.13012e-06
-8.71431e-09
9.75795e-09
1.1265e-06
-8.25038e-09
8.82225e-09
1.12343e-06
-7.88551e-09
8.04818e-09
1.12091e-06
-7.56903e-09
7.38334e-09
1.11896e-06
-7.2464e-09
6.76739e-09
1.11757e-06
-6.80963e-09
6.1438e-09
1.11674e-06
-6.09124e-09
5.42453e-09
1.11624e-06
-4.7958e-09
4.51913e-09
1.11548e-06
-2.7047e-09
3.1981e-09
1.5561e-09
1.13007e-09
8.90375e-07
2.8527e-09
8.82486e-07
1.34089e-08
8.7036e-07
1.78678e-08
8.55114e-07
1.69561e-08
8.39986e-07
1.53409e-08
8.25542e-07
1.41702e-08
8.11782e-07
1.33795e-08
7.98801e-07
1.26751e-08
7.86751e-07
1.18856e-08
7.75648e-07
1.10387e-08
7.65364e-07
1.02278e-08
7.55765e-07
9.47057e-09
7.46762e-07
8.77069e-09
7.38337e-07
8.10837e-09
7.30571e-07
7.43251e-09
7.23721e-07
6.61151e-09
7.1825e-07
5.47161e-09
7.14577e-07
3.73481e-09
7.13224e-07
1.25108e-09
-4.2069e-09
1.07432e-06
5.56885e-09
1.06509e-09
1.06824e-06
1.39002e-08
5.58757e-09
1.06138e-06
1.6262e-08
8.46591e-09
1.05338e-06
1.59097e-08
9.04294e-09
1.04509e-06
1.50036e-08
8.62321e-09
1.0372e-06
1.39356e-08
8.12996e-09
1.0298e-06
1.29807e-08
7.80301e-09
1.02278e-06
1.21211e-08
7.58205e-09
1.0159e-06
1.13568e-08
7.41612e-09
1.00909e-06
1.07129e-08
7.16243e-09
1.00234e-06
1.02361e-08
6.7718e-09
9.95612e-07
9.90502e-09
6.35339e-09
9.88799e-07
9.69981e-09
5.99176e-09
9.81765e-07
9.62386e-09
5.72517e-09
9.74307e-07
9.69271e-09
5.59498e-09
9.66122e-07
9.94964e-09
5.64914e-09
9.56771e-07
1.04865e-08
5.98323e-09
9.4566e-07
1.1395e-08
6.7459e-09
9.32383e-07
1.26633e-08
8.0129e-09
1.38593e-08
1.11529e-08
1.32762e-06
4.93128e-09
2.71856e-09
1.33539e-06
1.30095e-08
7.12178e-09
1.34286e-06
1.72171e-08
9.55509e-09
1.34847e-06
1.89023e-08
1.05808e-08
1.35196e-06
1.95065e-08
1.088e-08
1.35373e-06
1.91235e-08
1.05883e-08
1.35439e-06
1.8114e-08
9.90446e-09
1.3545e-06
1.68327e-08
9.06676e-09
1.35443e-06
1.54972e-08
8.22822e-09
1.3543e-06
1.42879e-08
7.45462e-09
1.35415e-06
1.33414e-08
6.78435e-09
1.35401e-06
1.26293e-08
6.21421e-09
1.35387e-06
1.21198e-08
5.73471e-09
1.35366e-06
1.1802e-08
5.35257e-09
1.3533e-06
1.16864e-08
5.0725e-09
1.35264e-06
1.18082e-08
4.9099e-09
1.35157e-06
1.22066e-08
4.89794e-09
1.34996e-06
1.28989e-08
5.09054e-09
1.34765e-06
1.37964e-08
5.45977e-09
1.43148e-08
5.7804e-09
1.53312e-06
3.64962e-09
2.36629e-09
1.54218e-06
9.63477e-09
6.23949e-09
1.55327e-06
1.36935e-08
8.87455e-09
1.56445e-06
1.59399e-08
1.03493e-08
1.57506e-06
1.69173e-08
1.09031e-08
1.58469e-06
1.69542e-08
1.07601e-08
1.59297e-06
1.639e-08
1.01522e-08
1.60003e-06
1.54677e-08
9.3456e-09
1.60616e-06
1.43784e-08
8.48315e-09
1.61161e-06
1.3304e-08
7.67714e-09
1.61663e-06
1.23446e-08
6.97552e-09
1.62137e-06
1.15341e-08
6.38019e-09
1.62592e-06
1.08846e-08
5.87276e-09
1.63035e-06
1.03974e-08
5.43861e-09
1.63469e-06
1.00725e-08
5.06896e-09
1.63899e-06
9.91301e-09
4.76287e-09
1.64326e-06
9.92923e-09
4.51544e-09
1.64752e-06
1.01096e-08
4.3102e-09
1.65172e-06
1.03703e-08
4.11133e-09
1.04244e-08
3.88566e-09
1.68027e-06
1.89126e-09
1.89108e-09
1.68934e-06
5.09993e-09
5.09939e-09
1.70179e-06
7.46531e-09
7.46428e-09
1.71578e-06
8.94784e-09
8.94613e-09
1.73022e-06
9.69586e-09
9.69308e-09
1.74439e-06
9.8654e-09
9.86095e-09
1.75784e-06
9.65911e-09
9.6523e-09
1.77034e-06
9.20948e-09
9.19928e-09
1.78181e-06
8.62887e-09
8.61391e-09
1.79236e-06
8.0117e-09
7.9895e-09
1.80213e-06
7.4242e-09
7.3902e-09
1.81129e-06
6.90088e-09
6.84711e-09
1.81997e-06
6.45576e-09
6.36873e-09
1.8283e-06
6.0914e-09
5.95149e-09
1.83639e-06
5.80322e-09
5.58673e-09
1.84436e-06
5.58091e-09
5.26751e-09
1.8523e-06
5.41682e-09
4.98482e-09
1.86032e-06
5.29595e-09
4.712e-09
1.86846e-06
5.17801e-09
4.44698e-09
4.98434e-09
4.23725e-09
1.7569e-06
-3.19426e-14
1.6132e-09
1.76589e-06
-2.35435e-14
4.38401e-09
1.77878e-06
-3.22721e-15
6.53156e-09
1.79389e-06
2.32739e-14
7.95068e-09
1.81003e-06
7.80211e-14
8.75506e-09
1.82639e-06
1.79146e-13
9.08468e-09
1.84241e-06
2.72628e-13
9.07067e-09
1.85774e-06
8.28828e-14
8.83391e-09
1.87218e-06
-4.99793e-13
8.45928e-09
1.88568e-06
-1.5217e-12
8.01267e-09
1.89827e-06
-2.72378e-12
7.54501e-09
1.91005e-06
-3.5296e-12
7.09295e-09
1.92116e-06
-2.88043e-12
6.6801e-09
1.93174e-06
-6.86156e-13
6.31943e-09
1.94192e-06
1.23757e-12
6.01681e-09
1.95185e-06
-3.37897e-12
5.77469e-09
1.96162e-06
-2.07045e-11
5.58558e-09
1.97135e-06
-5.70728e-11
5.43028e-09
1.98112e-06
-1.171e-10
5.2771e-09
-2.01114e-10
5.1414e-09
1.7569e-06
-1.8911e-09
1.61333e-09
1.76589e-06
-5.09943e-09
4.38439e-09
1.77878e-06
-7.46435e-09
6.53231e-09
1.79389e-06
-8.94624e-09
7.952e-09
1.81003e-06
-9.69323e-09
8.75721e-09
1.82639e-06
-9.86114e-09
9.088e-09
1.8424e-06
-9.65254e-09
9.07554e-09
1.85772e-06
-9.19959e-09
8.84103e-09
1.87216e-06
-8.61429e-09
8.46989e-09
1.88565e-06
-7.98997e-09
8.02876e-09
1.89822e-06
-7.39078e-09
7.56976e-09
1.90998e-06
-6.84782e-09
7.13133e-09
1.92106e-06
-6.36962e-09
6.7398e-09
1.93161e-06
-5.9526e-09
6.41203e-09
1.94175e-06
-5.58808e-09
6.15867e-09
1.9516e-06
-5.26909e-09
5.98338e-09
1.96126e-06
-4.98662e-09
5.88047e-09
1.97083e-06
-4.71401e-09
5.83118e-09
1.98036e-06
-4.44908e-09
5.78872e-09
-4.23911e-09
5.69055e-09
1.68027e-06
-3.64923e-09
1.89124e-09
1.68934e-06
-9.63363e-09
5.09989e-09
1.70179e-06
-1.36913e-08
7.46525e-09
1.71578e-06
-1.59359e-08
8.94776e-09
1.73022e-06
-1.69106e-08
9.69575e-09
1.74439e-06
-1.69436e-08
9.86525e-09
1.75784e-06
-1.6374e-08
9.65892e-09
1.77034e-06
-1.54419e-08
9.20925e-09
1.78181e-06
-1.43384e-08
8.6286e-09
1.79236e-06
-1.32415e-08
8.01138e-09
1.80213e-06
-1.22443e-08
7.42381e-09
1.81129e-06
-1.13727e-08
6.90042e-09
1.81997e-06
-1.06224e-08
6.45522e-09
1.8283e-06
-9.97629e-09
6.09079e-09
1.8364e-06
-9.41296e-09
5.80248e-09
1.84436e-06
-8.90392e-09
5.57996e-09
1.85231e-06
-8.41713e-09
5.41557e-09
1.86032e-06
-7.91573e-09
5.29428e-09
1.86846e-06
-7.39645e-09
5.17567e-09
-7.03676e-09
4.98099e-09
1.53312e-06
-4.93103e-09
2.36617e-09
1.54218e-06
-1.30087e-08
6.23922e-09
1.55328e-06
-1.72153e-08
8.87407e-09
1.56445e-06
-1.88981e-08
1.03484e-08
1.57507e-06
-1.94988e-08
1.09019e-08
1.58471e-06
-1.91117e-08
1.07582e-08
1.59301e-06
-1.80956e-08
1.0149e-08
1.60009e-06
-1.68036e-08
9.33991e-09
1.60625e-06
-1.54524e-08
8.47339e-09
1.61176e-06
-1.42145e-08
7.65862e-09
1.61686e-06
-1.32145e-08
6.94171e-09
1.62173e-06
-1.24165e-08
6.32364e-09
1.62649e-06
-1.1772e-08
5.78726e-09
1.63123e-06
-1.12375e-08
5.31197e-09
1.63603e-06
-1.07677e-08
4.87088e-09
1.64095e-06
-1.03124e-08
4.44883e-09
1.64605e-06
-9.82148e-09
4.0166e-09
1.65139e-06
-9.26616e-09
3.53993e-09
1.65704e-06
-8.70013e-09
2.94657e-09
-8.43895e-09
2.22198e-09
1.32763e-06
-5.56886e-09
2.71828e-09
1.33539e-06
-1.39001e-08
7.12103e-09
1.34287e-06
-1.62613e-08
9.55374e-09
1.34848e-06
-1.59075e-08
1.05782e-08
1.35198e-06
-1.49992e-08
1.08751e-08
1.35377e-06
-1.39288e-08
1.05798e-08
1.35445e-06
-1.29705e-08
9.89007e-09
1.3546e-06
-1.21046e-08
9.04263e-09
1.35459e-06
-1.13288e-08
8.18716e-09
1.35456e-06
-1.06648e-08
7.37945e-09
1.35461e-06
-1.0153e-08
6.65157e-09
1.35478e-06
-9.76037e-09
5.9943e-09
1.35511e-06
-9.45243e-09
5.39867e-09
1.35562e-06
-9.20175e-09
4.83194e-09
1.35636e-06
-8.96605e-09
4.22904e-09
1.35733e-06
-8.68166e-09
3.5437e-09
1.35849e-06
-8.26809e-09
2.71499e-09
1.35971e-06
-7.64023e-09
1.67277e-09
1.36067e-06
-6.80693e-09
3.4232e-10
-6.05886e-09
-1.18737e-09
1.07432e-06
1.06481e-09
1.06824e-06
5.5866e-09
1.06138e-06
8.46409e-09
1.05339e-06
9.03985e-09
1.04511e-06
8.61737e-09
1.03724e-06
8.11895e-09
1.02986e-06
7.78302e-09
1.02288e-06
7.54731e-09
1.01609e-06
7.35535e-09
1.0094e-06
7.06086e-09
1.00287e-06
6.60531e-09
9.96497e-07
6.08181e-09
9.90272e-07
5.54356e-09
9.842e-07
4.97836e-09
9.78302e-07
4.36485e-09
9.72631e-07
3.60112e-09
9.67275e-07
2.55952e-09
9.62293e-07
1.0767e-09
9.57655e-07
-9.17782e-10
-3.69902e-09
1.16914e-06
4.90656e-09
1.18291e-13
1.16312e-06
1.16085e-08
5.71448e-13
1.15731e-06
1.42753e-08
1.351e-12
1.15202e-06
1.43335e-08
2.42155e-12
1.14691e-06
1.37303e-08
4.17395e-12
1.14206e-06
1.29696e-08
7.34629e-12
1.13775e-06
1.21012e-08
1.30793e-11
1.134e-06
1.13093e-08
2.2513e-11
1.13072e-06
1.06529e-08
3.84289e-11
1.12763e-06
1.01957e-08
6.46607e-11
1.12438e-06
9.90615e-09
1.07737e-10
1.12085e-06
9.70997e-09
1.78178e-10
1.11694e-06
9.61145e-09
2.94035e-10
1.11255e-06
9.63141e-09
4.8305e-10
1.10758e-06
9.78755e-09
7.74891e-10
1.1019e-06
1.00867e-08
1.23948e-09
1.09534e-06
1.05622e-08
1.97756e-09
1.0877e-06
1.12495e-08
3.13837e-09
1.07898e-06
1.20638e-08
4.6694e-09
1.25452e-08
7.55298e-09
1.41518e-06
4.19296e-09
2.27795e-13
1.42279e-06
1.11162e-08
6.55616e-13
1.43152e-06
1.50989e-08
1.12208e-12
1.4398e-06
1.66302e-08
2.09696e-12
1.44713e-06
1.72771e-08
3.974e-12
1.45317e-06
1.75126e-08
7.05654e-12
1.45801e-06
1.71577e-08
1.1726e-11
1.46192e-06
1.64441e-08
1.93137e-11
1.46521e-06
1.55602e-08
3.26702e-11
1.46812e-06
1.46848e-08
5.69296e-11
1.47082e-06
1.38842e-08
9.78497e-11
1.47338e-06
1.32064e-08
1.63485e-10
1.47573e-06
1.27342e-08
2.61329e-10
1.47782e-06
1.24837e-08
4.11574e-10
1.47963e-06
1.24061e-08
6.457e-10
1.48114e-06
1.24746e-08
1.00302e-09
1.48233e-06
1.27488e-08
1.52873e-09
1.48314e-06
1.32465e-08
2.27623e-09
1.48353e-06
1.38746e-08
3.25988e-09
1.42928e-08
4.29656e-09
1.61424e-06
3.09293e-09
1.61281e-13
1.62332e-06
8.27432e-09
3.81151e-13
1.63533e-06
1.19577e-08
6.70792e-13
1.6482e-06
1.41157e-08
1.21878e-12
1.66117e-06