/*--------------------------------*- C++ -*----------------------------------*\
| =========                 |                                                 |
| \\      /  F ield         | OpenFOAM: The Open Source CFD Toolbox           |
|  \\    /   O peration     | Version:  2212                                  |
|   \\  /    A nd           | Website:  www.openfoam.com                      |
|    \\/     M anipulation  |                                                 |
\*---------------------------------------------------------------------------*/
FoamFile
{
    version     2.0;
    format      ascii;
    arch        "LSB;label=32;scalar=64";
    class       volVectorField;
    location    "1.3";
    object      U;
}
// * * * * * * * * * * * * * * * * * * * * * * * * * * * * * * * * * * * * * //

dimensions      [0 1 -1 0 0 0 0];

internalField   nonuniform List<vector> 
6840
(
(0.0956456 -0.00836005 -0.00836005)
(0.0904939 0.00152207 0.00152199)
(0.0790683 0.00242983 0.00242967)
(0.0713011 0.00148791 0.00148757)
(0.0661793 0.000830792 0.000830126)
(0.0623224 0.000564182 0.000563094)
(0.0592204 0.000427425 0.000424987)
(0.0566842 0.000325847 0.00032161)
(0.0545487 0.000256205 0.00024924)
(0.0526955 0.000207849 0.000196388)
(0.0510561 0.000175273 0.000155738)
(0.0495929 0.000155067 0.000122491)
(0.0482734 0.000143641 9.16985e-05)
(0.0470692 0.00014031 5.94036e-05)
(0.0459667 0.000146323 2.15524e-05)
(0.044971 0.000167459 -6.77476e-06)
(0.0440991 0.000220367 -8.93547e-05)
(0.0434031 0.000299653 -0.000243568)
(0.0432191 0.000381925 -0.000551033)
(0.0418004 -0.000840968 -0.00251276)
(0.0999088 0.00129701 0.000712546)
(0.0969668 0.00365598 0.00274719)
(0.0935345 0.00264036 0.00211801)
(0.0895892 0.00182071 0.00162036)
(0.085832 0.00152934 0.00139023)
(0.0825898 0.00135216 0.00116051)
(0.0798648 0.00118094 0.000896036)
(0.0775664 0.00104329 0.000690458)
(0.0755567 0.000947558 0.000557707)
(0.0737494 0.000873869 0.000475136)
(0.072099 0.000807104 0.000423708)
(0.0705772 0.000743097 0.000389773)
(0.0691651 0.000689078 0.000366958)
(0.0678487 0.000651188 0.000354162)
(0.0666189 0.000629986 0.000341699)
(0.0654879 0.000620391 0.000297489)
(0.0645098 0.000616712 0.000215075)
(0.0638029 0.000575853 1.89096e-06)
(0.0637305 0.000622774 -0.000235778)
(0.0617927 0.00032706 -0.000740188)
(0.099413 0.00034525 0.000270225)
(0.0988664 0.00201914 0.00187483)
(0.0979216 0.00257331 0.00218881)
(0.0963662 0.0023802 0.00190806)
(0.0946341 0.00211467 0.00162618)
(0.0929736 0.0019277 0.00141786)
(0.0913665 0.00180299 0.00126993)
(0.0898581 0.00170798 0.00115791)
(0.0884618 0.00160911 0.00106652)
(0.0871701 0.00150142 0.000992818)
(0.0859772 0.00139537 0.000941797)
(0.0848705 0.00129824 0.000909196)
(0.0838348 0.00121013 0.000889075)
(0.082863 0.00112736 0.000875116)
(0.0819569 0.00104563 0.000860282)
(0.0811334 0.000956578 0.00083076)
(0.0804329 0.000841614 0.000772233)
(0.0799096 0.000664499 0.000639975)
(0.0796204 0.00034557 0.000418549)
(0.0789805 -0.000653671 -7.4196e-05)
(0.0995405 0.000245038 0.000321897)
(0.0992576 0.00105559 0.00154091)
(0.0988491 0.0015023 0.00211436)
(0.0981252 0.00157935 0.00209147)
(0.0973379 0.00151458 0.00188589)
(0.0965868 0.00144586 0.00166551)
(0.0958687 0.00140906 0.00149752)
(0.0952032 0.00137712 0.0013708)
(0.0945783 0.00132992 0.0012835)
(0.0939393 0.00125659 0.00122683)
(0.0933207 0.00116341 0.00118779)
(0.0927227 0.00106189 0.00116172)
(0.0921395 0.000959529 0.00114583)
(0.0915696 0.000856731 0.00113693)
(0.091014 0.000749539 0.00112873)
(0.0904756 0.000620403 0.00111369)
(0.0899601 0.000449204 0.00108281)
(0.0894763 0.00020102 0.00102887)
(0.0890382 -0.000157818 0.000959813)
(0.088536 -0.000674448 0.000944735)
(0.0993802 3.37593e-05 5.89544e-05)
(0.0992678 0.0002743 0.00120001)
(0.0989806 0.000432167 0.00188841)
(0.098475 0.000483081 0.0020063)
(0.0979963 0.000478144 0.00191435)
(0.0975724 0.000464212 0.0017342)
(0.0971836 0.000450431 0.00154647)
(0.0968354 0.000438091 0.00138727)
(0.0965378 0.000428881 0.00126789)
(0.0962873 0.000416004 0.00119597)
(0.0960196 0.000390664 0.0011667)
(0.0957362 0.00035363 0.00116169)
(0.0954381 0.000307275 0.00116607)
(0.0951165 0.000250416 0.00117524)
(0.0947665 0.000183758 0.00119222)
(0.0943871 9.69155e-05 0.00121739)
(0.0939767 -2.73948e-05 0.00124859)
(0.0935325 -0.000208047 0.00128757)
(0.0930269 -0.000452871 0.00133461)
(0.0924203 -0.000812685 0.00143948)
(0.0993802 -3.37919e-05 5.90055e-05)
(0.0992678 -0.000274465 0.00120004)
(0.0989805 -0.000432524 0.00188843)
(0.0984748 -0.000483709 0.00200636)
(0.0979959 -0.00047924 0.00191452)
(0.0975714 -0.000466175 0.00173456)
(0.0971819 -0.00045397 0.00154701)
(0.0968324 -0.000444217 0.00138819)
(0.0965326 -0.000439331 0.00126966)
(0.0962785 -0.000433593 0.00119918)
(0.0960046 -0.000419965 0.00117217)
(0.0957109 -0.000401926 0.00117081)
(0.0953951 -0.000386666 0.00118137)
(0.095044 -0.000380815 0.00120102)
(0.094647 -0.000393647 0.00123591)
(0.094197 -0.000434539 0.00129182)
(0.0936804 -0.000515762 0.00137009)
(0.0930896 -0.000661848 0.00147645)
(0.0923622 -0.000860125 0.0016082)
(0.0914667 -0.00135359 0.00166615)
(0.0995405 -0.000245051 0.000321897)
(0.0992576 -0.00105565 0.00154091)
(0.0988489 -0.00150241 0.00211446)
(0.0981247 -0.00157955 0.00209166)
(0.0973366 -0.00151508 0.0018862)
(0.0965845 -0.00144692 0.00166598)
(0.0958645 -0.00141098 0.00149807)
(0.095196 -0.00138034 0.00137174)
(0.0945657 -0.00133567 0.00128563)
(0.0939176 -0.00126591 0.00123164)
(0.0932838 -0.00117807 0.00119719)
(0.0926603 -0.00108526 0.00117917)
(0.0920351 -0.000998999 0.0011745)
(0.0913961 -0.000925058 0.00118353)
(0.0907281 -0.000865906 0.00120914)
(0.09001 -0.000823183 0.00125787)
(0.0892085 -0.000807243 0.00134397)
(0.0882762 -0.000829222 0.00148216)
(0.0871374 -0.000917179 0.00168413)
(0.0858536 -0.00125259 0.00187962)
(0.099413 -0.000345233 0.000270232)
(0.0988664 -0.00201905 0.00187491)
(0.0979214 -0.00257314 0.00218904)
(0.0963656 -0.00237988 0.00190846)
(0.0946329 -0.00211418 0.00162674)
(0.0929713 -0.0019269 0.00141867)
(0.0913624 -0.00180182 0.00127125)
(0.0898509 -0.00170607 0.00116015)
(0.0884491 -0.00160592 0.00107013)
(0.0871487 -0.00149615 0.000998772)
(0.0859409 -0.00138666 0.000951177)
(0.0848085 -0.00128432 0.000925548)
(0.08373 -0.00118904 0.000917584)
(0.0826858 -0.00109737 0.00092417)
(0.0816573 -0.00100603 0.000945841)
(0.0806199 -0.000911965 0.000988813)
(0.0795359 -0.000809947 0.00106601)
(0.0783186 -0.000696744 0.00119987)
(0.0768989 -0.000584904 0.00136688)
(0.0754878 -0.000691921 0.00210666)
(0.0999088 -0.00129699 0.000712564)
(0.0969668 -0.00365585 0.00274728)
(0.0935345 -0.00264016 0.0021182)
(0.089589 -0.00182034 0.00162074)
(0.0858315 -0.00152855 0.00139077)
(0.082589 -0.00135093 0.0011615)
(0.0798633 -0.00117868 0.000897674)
(0.0775636 -0.00103941 0.000693116)
(0.0755516 -0.00094085 0.000562168)
(0.0737405 -0.000862216 0.000482712)
(0.0720825 -0.000786872 0.00043844)
(0.0705469 -0.000709231 0.000415549)
(0.0691108 -0.000634319 0.000405118)
(0.0677546 -0.000562225 0.00040279)
(0.0664591 -0.000479724 0.000410684)
(0.0652097 -0.000354288 0.000429289)
(0.0639932 -0.000190801 0.000474069)
(0.0627709 4.69728e-05 0.000546758)
(0.0614789 0.000463705 0.000637953)
(0.0602812 0.00142075 0.000950615)
(0.0956456 0.00836005 -0.00836005)
(0.0904939 -0.00152199 0.00152206)
(0.0790683 -0.00242967 0.00242982)
(0.0713011 -0.00148758 0.0014879)
(0.0661793 -0.000830139 0.00083078)
(0.0623224 -0.000563111 0.000564166)
(0.0592204 -0.000425013 0.0004274)
(0.0566842 -0.000321643 0.000325815)
(0.0545487 -0.00024928 0.000256166)
(0.0526955 -0.000196434 0.000207801)
(0.0510561 -0.000155797 0.000175215)
(0.0495929 -0.00012256 0.000154995)
(0.0482734 -9.17695e-05 0.000143542)
(0.0470691 -5.9503e-05 0.000140207)
(0.0459667 -2.16449e-05 0.000146209)
(0.0449709 6.63964e-06 0.00016731)
(0.044099 8.91843e-05 0.000220189)
(0.0434029 0.000243344 0.000299445)
(0.0432187 0.000550747 0.000381738)
(0.0417998 0.00251225 -0.00084116)
(0.0999088 0.000712564 0.00129699)
(0.0969668 0.00274728 0.00365584)
(0.0935345 0.0021182 0.00264015)
(0.089589 0.00162074 0.00182033)
(0.0858315 0.00139078 0.00152854)
(0.082589 0.00116151 0.00135091)
(0.0798633 0.000897686 0.00117866)
(0.0775636 0.000693131 0.00103937)
(0.0755516 0.000562188 0.000940803)
(0.0737404 0.000482738 0.000862156)
(0.0720825 0.000438475 0.000786796)
(0.0705469 0.000415596 0.000709135)
(0.0691107 0.000405173 0.000634211)
(0.0677547 0.00040286 0.000562107)
(0.066459 0.000410769 0.000479537)
(0.0652096 0.000429389 0.000354047)
(0.0639931 0.000474169 0.00019049)
(0.062771 0.000546839 -4.74204e-05)
(0.0614792 0.000638013 -0.000464336)
(0.0602822 0.000950406 -0.00142229)
(0.100226 0.000720832 0.000720802)
(0.09996 0.00198281 0.00198267)
(0.0997822 0.00245206 0.00245172)
(0.098788 0.00242001 0.00241942)
(0.0972752 0.00220142 0.00220049)
(0.0957742 0.00181243 0.00181078)
(0.0943918 0.00138392 0.0013812)
(0.0931622 0.00107273 0.00106815)
(0.092074 0.000858453 0.000850542)
(0.0911099 0.000709391 0.000695625)
(0.0902543 0.000603227 0.000578229)
(0.089483 0.000527343 0.000485877)
(0.0887762 0.000477435 0.000412884)
(0.0881297 0.000447414 0.000349043)
(0.0875436 0.000435035 0.000277596)
(0.0870129 0.000444553 0.000175825)
(0.0865329 0.00048052 2.75655e-05)
(0.0860915 0.000540979 -0.000214241)
(0.0856434 0.000537484 -0.000678513)
(0.0854811 0.000251369 -0.00161533)
(0.10014 0.000775043 0.000869228)
(0.100454 0.00196249 0.00196348)
(0.100911 0.00242769 0.0023343)
(0.100978 0.0025269 0.00244092)
(0.100694 0.00242678 0.00233623)
(0.100225 0.00219835 0.00211173)
(0.0997093 0.00191808 0.0018221)
(0.0991844 0.00166797 0.00157353)
(0.0986904 0.00146645 0.00138649)
(0.0982446 0.00130232 0.00124465)
(0.0978539 0.00116834 0.00113796)
(0.0975159 0.00106036 0.00105815)
(0.0972271 0.000973754 0.000994357)
(0.0969856 0.000904222 0.000936819)
(0.0967923 0.000848026 0.000878054)
(0.0966476 0.000798904 0.000806268)
(0.0965516 0.000748313 0.000699658)
(0.0965001 0.000689901 0.000538106)
(0.0964472 0.000587071 0.000300575)
(0.0965217 0.000332289 6.62664e-06)
(0.100093 0.000445938 0.000763191)
(0.100504 0.00119452 0.00174899)
(0.101105 0.00158687 0.00212947)
(0.101635 0.0017405 0.00223443)
(0.10198 0.00178239 0.00228658)
(0.102172 0.00172925 0.00223522)
(0.102254 0.00160842 0.00211488)
(0.102279 0.00146081 0.00196311)
(0.102283 0.00130596 0.00180004)
(0.102278 0.00115762 0.00164951)
(0.102276 0.00102986 0.00153848)
(0.102283 0.000920878 0.00145815)
(0.102302 0.000825269 0.00139816)
(0.102333 0.00073703 0.00135166)
(0.10238 0.000647136 0.00131263)
(0.102444 0.000550911 0.0012737)
(0.102524 0.000438788 0.00122652)
(0.102616 0.000298683 0.00116438)
(0.102704 0.000115965 0.00109393)
(0.102902 -0.000109623 0.00105139)
(0.100087 0.00014437 0.000707008)
(0.100477 0.000390444 0.00161776)
(0.101066 0.000541026 0.00203461)
(0.101695 0.000609987 0.00211752)
(0.102269 0.000635671 0.00214985)
(0.102743 0.000626166 0.00217922)
(0.103125 0.000593711 0.00213328)
(0.10343 0.000547472 0.00204316)
(0.103683 0.000500701 0.00193354)
(0.103903 0.000455401 0.00182727)
(0.104103 0.00040779 0.00172845)
(0.104296 0.000357867 0.00164092)
(0.104483 0.000308093 0.00157928)
(0.10466 0.000255626 0.00154567)
(0.104827 0.00019334 0.00153093)
(0.104988 0.000116204 0.0015257)
(0.105139 1.89939e-05 0.00152992)
(0.105276 -0.00010638 0.00154508)
(0.105402 -0.000266588 0.00157099)
(0.105636 -0.000439106 0.00161851)
(0.100087 -0.000144426 0.000707014)
(0.100477 -0.000390612 0.00161777)
(0.101066 -0.000541317 0.00203461)
(0.101694 -0.000610507 0.00211759)
(0.102269 -0.000636654 0.00215016)
(0.102742 -0.000627923 0.0021798)
(0.103124 -0.000596618 0.0021342)
(0.103427 -0.000552274 0.0020446)
(0.103679 -0.000508923 0.00193572)
(0.103897 -0.000469814 0.0018308)
(0.104092 -0.000432595 0.0017343)
(0.104279 -0.000399084 0.00165118)
(0.104454 -0.000373387 0.00159736)
(0.104612 -0.00035779 0.00157602)
(0.104748 -0.00035412 0.00157863)
(0.104867 -0.000368241 0.00159895)
(0.104964 -0.000405877 0.00164651)
(0.105035 -0.000472679 0.00172434)
(0.105089 -0.000569146 0.00181862)
(0.105286 -0.000677751 0.00187163)
(0.100093 -0.000445943 0.000763203)
(0.100504 -0.00119453 0.00174903)
(0.101105 -0.0015869 0.00212962)
(0.101634 -0.00174061 0.00223495)
(0.101979 -0.0017826 0.00228761)
(0.10217 -0.00172958 0.00223672)
(0.102251 -0.00160911 0.00211715)
(0.102274 -0.00146205 0.00196658)
(0.102274 -0.00130793 0.00180525)
(0.102263 -0.00116156 0.00165785)
(0.102251 -0.00103686 0.00155307)
(0.10224 -0.000932156 0.00148299)
(0.102229 -0.000840923 0.00143982)
(0.102217 -0.000761674 0.00142099)
(0.102197 -0.000691428 0.00142783)
(0.102161 -0.000627632 0.00146562)
(0.102097 -0.0005732 0.00154135)
(0.101998 -0.000534234 0.00166212)
(0.101866 -0.000502501 0.00181372)
(0.101994 -0.000464347 0.00188979)
(0.10014 -0.000775009 0.000869271)
(0.100454 -0.00196239 0.00196367)
(0.100911 -0.0024275 0.00233476)
(0.100978 -0.00252649 0.00244168)
(0.100693 -0.00242607 0.00233735)
(0.100223 -0.00219712 0.00211323)
(0.0997069 -0.00191615 0.00182445)
(0.0991802 -0.00166509 0.00157771)
(0.0986829 -0.00146148 0.00139368)
(0.0982313 -0.00129353 0.00125669)
(0.097831 -0.0011539 0.00115824)
(0.0974769 -0.00103619 0.00109184)
(0.0971634 -0.000933727 0.00105022)
(0.0968838 -0.000837717 0.00102857)
(0.0966294 -0.000740992 0.0010286)
(0.0963869 -0.000636923 0.00105794)
(0.09614 -0.000514462 0.001125)
(0.0958641 -0.000358515 0.00124208)
(0.0955179 -0.000139124 0.00138138)
(0.0954734 0.000110058 0.00145401)
(0.100226 -0.000720803 0.000720832)
(0.09996 -0.00198267 0.0019828)
(0.0997822 -0.00245173 0.00245206)
(0.098788 -0.00241943 0.00242)
(0.0972752 -0.00220051 0.00220141)
(0.0957742 -0.0018108 0.00181242)
(0.0943918 -0.00138123 0.0013839)
(0.0931622 -0.00106818 0.0010727)
(0.092074 -0.000850587 0.000858416)
(0.0911099 -0.000695682 0.000709344)
(0.0902542 -0.000578303 0.000603165)
(0.089483 -0.000485965 0.000527263)
(0.0887762 -0.000412935 0.000477284)
(0.0881297 -0.000349172 0.000447307)
(0.0875435 -0.000277845 0.000434964)
(0.0870128 -0.000176068 0.000444392)
(0.0865326 -2.78942e-05 0.000480351)
(0.086091 0.000213742 0.000540864)
(0.0856427 0.000677802 0.000537446)
(0.0854804 0.00161475 0.00025103)
(0.0999088 -0.000712545 0.001297)
(0.0969668 -0.00274719 0.00365598)
(0.0935345 -0.00211801 0.00264035)
(0.0895892 -0.00162037 0.0018207)
(0.085832 -0.00139024 0.00152932)
(0.0825898 -0.00116052 0.00135214)
(0.0798648 -0.000896053 0.00118091)
(0.0775664 -0.00069048 0.00104325)
(0.0755567 -0.000557733 0.00094751)
(0.0737494 -0.000475167 0.000873807)
(0.072099 -0.000423751 0.000807027)
(0.0705771 -0.000389824 0.000743003)
(0.0691651 -0.000367018 0.000688956)
(0.0678485 -0.000354198 0.000651012)
(0.0666188 -0.000341761 0.000629773)
(0.0654878 -0.000297586 0.000620153)
(0.0645097 -0.00021522 0.000616476)
(0.0638025 -2.12238e-06 0.000575583)
(0.0637296 0.000235518 0.000622462)
(0.0617918 0.000739755 0.000326791)
(0.099413 0.000270232 0.000345232)
(0.0988664 0.00187491 0.00201905)
(0.0979214 0.00218905 0.00257314)
(0.0963656 0.00190846 0.00237988)
(0.0946329 0.00162675 0.00211416)
(0.0929713 0.00141868 0.00192688)
(0.0913624 0.00127127 0.00180179)
(0.0898508 0.00116017 0.00170604)
(0.0884491 0.00107015 0.00160587)
(0.0871487 0.000998801 0.00149609)
(0.0859408 0.000951211 0.00138659)
(0.0848085 0.000925592 0.00128424)
(0.0837299 0.000917635 0.00118893)
(0.0826858 0.00092425 0.00109725)
(0.0816572 0.000945954 0.0010059)
(0.0806198 0.000988926 0.000911781)
(0.0795358 0.00106611 0.000809697)
(0.0783186 0.00119992 0.000696375)
(0.0768989 0.00136679 0.000584312)
(0.0754881 0.00210662 0.000691047)
(0.10014 0.000869272 0.000775008)
(0.100454 0.00196367 0.00196238)
(0.100911 0.00233476 0.00242749)
(0.100978 0.00244169 0.00252648)
(0.100693 0.00233736 0.00242605)
(0.100223 0.00211324 0.0021971)
(0.0997069 0.00182447 0.00191612)
(0.0991801 0.00157774 0.00166505)
(0.0986829 0.00139371 0.00146143)
(0.0982313 0.00125672 0.00129347)
(0.097831 0.00115829 0.00115383)
(0.0974768 0.00109191 0.00103611)
(0.0971634 0.00105032 0.000933638)
(0.0968838 0.00102864 0.000837556)
(0.0966294 0.00102867 0.000740772)
(0.0963869 0.00105806 0.000636676)
(0.09614 0.00112511 0.000514129)
(0.0958641 0.00124209 0.000357998)
(0.095518 0.00138122 0.000138354)
(0.0954734 0.0014537 -0.000111078)
(0.10006 0.000641441 0.000641381)
(0.100501 0.0016452 0.001645)
(0.101149 0.00221272 0.00221234)
(0.101738 0.00244053 0.00243987)
(0.102204 0.00244279 0.00244173)
(0.102501 0.00231478 0.00231313)
(0.102645 0.00209463 0.00209188)
(0.102713 0.00187239 0.001868)
(0.102738 0.00167657 0.00166935)
(0.102751 0.00151374 0.00150188)
(0.10277 0.00138097 0.00136156)
(0.102802 0.00127493 0.00124342)
(0.102853 0.00119309 0.00114218)
(0.102924 0.00113337 0.00105142)
(0.103017 0.00109499 0.000964146)
(0.103129 0.00107906 0.000872061)
(0.10326 0.00108787 0.000765853)
(0.103411 0.00111998 0.000640185)
(0.103585 0.00115867 0.000484279)
(0.103891 0.0011483 0.000346581)
(0.100046 0.000395746 0.000540226)
(0.10048 0.00104495 0.00138404)
(0.101154 0.00147552 0.00192286)
(0.101913 0.0017055 0.00219236)
(0.102632 0.00178053 0.00229371)
(0.103302 0.00174556 0.00227768)
(0.103894 0.00163538 0.00218471)
(0.104391 0.00149339 0.00205108)
(0.104819 0.00134798 0.00190279)
(0.105197 0.00121425 0.00176235)
(0.105542 0.00109718 0.0016381)
(0.105865 0.00099733 0.00153138)
(0.106178 0.000912558 0.00144083)
(0.106487 0.00084006 0.00136353)
(0.106798 0.000777125 0.00129586)
(0.107115 0.000722522 0.00123268)
(0.107441 0.000672742 0.00116963)
(0.107782 0.00062285 0.00110473)
(0.108141 0.000560281 0.00104147)
(0.108566 0.000469584 0.00101548)
(0.100039 0.000131327 0.000478758)
(0.100448 0.000350481 0.00123475)
(0.101114 0.000505053 0.00174641)
(0.101909 0.000597148 0.0020267)
(0.102729 0.000638504 0.00215186)
(0.10353 0.000638117 0.00218605)
(0.104299 0.000604272 0.00215267)
(0.105008 0.000558824 0.00207851)
(0.105645 0.000509358 0.00197954)
(0.106219 0.000460573 0.00187185)
(0.106743 0.00041503 0.00176713)
(0.107226 0.000373211 0.00167288)
(0.10768 0.000334473 0.00159455)
(0.108113 0.000297012 0.00153412)
(0.108535 0.000257633 0.00148946)
(0.108949 0.000215201 0.00145914)
(0.109354 0.00016668 0.00144137)
(0.109754 0.000108324 0.00143591)
(0.110159 3.61382e-05 0.0014407)
(0.110629 -3.88717e-05 0.00145754)
(0.100039 -0.000131365 0.000478778)
(0.100448 -0.00035058 0.00123481)
(0.101114 -0.000505229 0.00174653)
(0.101909 -0.000597444 0.00202691)
(0.102728 -0.000639013 0.00215229)
(0.103529 -0.000638953 0.00218674)
(0.104297 -0.000605701 0.00215374)
(0.105007 -0.00056116 0.00208012)
(0.105642 -0.000513254 0.00198202)
(0.106214 -0.000467159 0.00187585)
(0.106735 -0.00042599 0.00177378)
(0.107215 -0.000390838 0.0016841)
(0.107663 -0.000361729 0.00161331)
(0.108089 -0.000338516 0.00156459)
(0.1085 -0.000321271 0.00153695)
(0.108895 -0.000312237 0.00152915)
(0.109276 -0.000313558 0.00154369)
(0.109647 -0.000323044 0.00158116)
(0.11002 -0.000339487 0.00163057)
(0.110485 -0.000352635 0.00166644)
(0.100046 -0.000395727 0.000540278)
(0.10048 -0.00104489 0.00138421)
(0.101154 -0.00147542 0.00192318)
(0.101913 -0.00170537 0.00219294)
(0.102631 -0.00178027 0.0022947)
(0.103301 -0.00174511 0.00227929)
(0.103893 -0.00163461 0.00218723)
(0.104388 -0.00149218 0.00205521)
(0.104814 -0.00134602 0.00190919)
(0.10519 -0.00121142 0.00177239)
(0.10553 -0.00109302 0.0016544)
(0.105847 -0.000990917 0.00155787)
(0.106149 -0.000901669 0.0014844)
(0.106442 -0.000822072 0.00143428)
(0.106728 -0.00075026 0.00140818)
(0.107009 -0.000684277 0.00140852)
(0.107289 -0.000619416 0.0014386)
(0.107568 -0.000552165 0.00149544)
(0.107858 -0.000476449 0.00156794)
(0.108279 -0.000401766 0.00161011)
(0.10006 -0.000641383 0.00064144)
(0.100501 -0.00164501 0.00164519)
(0.101149 -0.00221235 0.00221272)
(0.101738 -0.00243989 0.00244052)
(0.102204 -0.00244175 0.00244278)
(0.102501 -0.00231315 0.00231477)
(0.102645 -0.00209191 0.00209461)
(0.102713 -0.00186804 0.00187237)
(0.102738 -0.0016694 0.00167653)
(0.102751 -0.00150194 0.0015137)
(0.10277 -0.00136163 0.00138092)
(0.102802 -0.00124351 0.00127486)
(0.102853 -0.00114228 0.00119301)
(0.102924 -0.00105157 0.0011333)
(0.103016 -0.000964355 0.00109492)
(0.103129 -0.000872322 0.00107897)
(0.10326 -0.000766205 0.00108779)
(0.103411 -0.000640662 0.00111994)
(0.103585 -0.00048485 0.00115863)
(0.103892 -0.00034704 0.00114807)
(0.10014 -0.000869229 0.000775041)
(0.100454 -0.00196348 0.00196248)
(0.100911 -0.00233431 0.00242768)
(0.100978 -0.00244093 0.00252689)
(0.100694 -0.00233624 0.00242676)
(0.100225 -0.00211175 0.00219834)
(0.0997093 -0.00182212 0.00191806)
(0.0991844 -0.00157356 0.00166794)
(0.0986904 -0.00138653 0.00146642)
(0.0982445 -0.0012447 0.00130227)
(0.0978539 -0.00113802 0.00116828)
(0.0975159 -0.00105823 0.00106029)
(0.097227 -0.000994453 0.000973659)
(0.0969855 -0.000936957 0.000904119)
(0.0967921 -0.000878234 0.000847917)
(0.0966474 -0.0008065 0.000798784)
(0.0965513 -0.000699993 0.000748213)
(0.0964997 -0.00053858 0.000689841)
(0.0964468 -0.000301122 0.000586995)
(0.0965215 -6.79256e-06 0.000331789)
(0.099413 -0.000270225 0.000345249)
(0.0988664 -0.00187484 0.00201913)
(0.0979216 -0.00218881 0.0025733)
(0.0963662 -0.00190807 0.00238019)
(0.0946341 -0.00162619 0.00211465)
(0.0929736 -0.00141787 0.00192768)
(0.0913665 -0.00126994 0.00180296)
(0.0898581 -0.00115794 0.00170794)
(0.0884618 -0.00106655 0.00160906)
(0.0871701 -0.000992852 0.00150136)
(0.0859771 -0.000941838 0.0013953)
(0.0848704 -0.000909248 0.00129815)
(0.0838347 -0.000889144 0.00121003)
(0.0828628 -0.000875179 0.00112723)
(0.0819568 -0.000860341 0.00104545)
(0.0811331 -0.000830861 0.00095639)
(0.0804326 -0.000772387 0.000841429)
(0.0799091 -0.000640245 0.000664336)
(0.0796195 -0.000419012 0.000345547)
(0.0789793 7.34623e-05 -0.000653184)
(0.0995405 0.000321897 0.00024505)
(0.0992576 0.00154091 0.00105565)
(0.0988489 0.00211447 0.00150241)
(0.0981247 0.00209166 0.00157955)
(0.0973366 0.0018862 0.00151507)
(0.0965844 0.00166599 0.00144691)
(0.0958645 0.00149808 0.00141096)
(0.095196 0.00137175 0.00138031)
(0.0945656 0.00128564 0.00133563)
(0.0939175 0.00123165 0.00126586)
(0.0932838 0.00119722 0.001178)
(0.0926603 0.00117919 0.00108517)
(0.092035 0.00117453 0.000998896)
(0.091396 0.00118357 0.000924942)
(0.090728 0.00120919 0.00086577)
(0.0900098 0.00125792 0.000823001)
(0.0892083 0.001344 0.000806991)
(0.088276 0.00148217 0.000828917)
(0.0871371 0.00168401 0.000916741)
(0.0858534 0.00187921 0.00125183)
(0.100093 0.000763204 0.000445942)
(0.100504 0.00174903 0.00119453)
(0.101105 0.00212962 0.00158689)
(0.101634 0.00223496 0.0017406)
(0.101979 0.00228762 0.00178258)
(0.10217 0.00223674 0.00172956)
(0.102251 0.00211717 0.00160908)
(0.102273 0.0019666 0.00146201)
(0.102274 0.00180527 0.00130788)
(0.102263 0.00165787 0.0011615)
(0.102251 0.0015531 0.00103679)
(0.10224 0.00148304 0.000932072)
(0.102229 0.00143988 0.000840821)
(0.102217 0.00142104 0.000761526)
(0.102197 0.00142787 0.000691234)
(0.102161 0.00146568 0.000627406)
(0.102097 0.0015414 0.000572917)
(0.101997 0.00166213 0.00053386)
(0.101866 0.00181361 0.00050197)
(0.101993 0.00188914 0.000463543)
(0.100046 0.000540279 0.000395726)
(0.10048 0.00138421 0.00104489)
(0.101154 0.00192318 0.00147541)
(0.101913 0.00219295 0.00170536)
(0.102631 0.00229471 0.00178025)
(0.103301 0.0022793 0.00174508)
(0.103893 0.00218725 0.00163458)
(0.104388 0.00205523 0.00149214)
(0.104814 0.00190922 0.00134597)
(0.10519 0.00177242 0.00121136)
(0.10553 0.00165444 0.00109295)
(0.105847 0.00155792 0.000990826)
(0.106149 0.00148446 0.000901554)
(0.106442 0.00143434 0.000821916)
(0.106728 0.00140824 0.000750059)
(0.107009 0.00140859 0.000684037)
(0.107289 0.00143866 0.000619129)
(0.107567 0.00149549 0.000551816)
(0.107858 0.00156796 0.000476057)
(0.108279 0.00161008 0.000401305)
(0.100036 0.000323177 0.000323135)
(0.100429 0.000868771 0.000868647)
(0.10108 0.00126257 0.00126234)
(0.101891 0.00150468 0.00150428)
(0.102756 0.00162207 0.00162142)
(0.103616 0.0016435 0.0016425)
(0.104446 0.00160579 0.00160428)
(0.105223 0.00152811 0.00152576)
(0.105937 0.00142956 0.00142592)
(0.106593 0.00132621 0.00132054)
(0.107196 0.00122886 0.00121991)
(0.107759 0.00114291 0.00112877)
(0.108289 0.00107057 0.00104822)
(0.108794 0.00101249 0.000977561)
(0.109282 0.000968723 0.000915345)
(0.10976 0.000938815 0.000860071)
(0.110233 0.000922461 0.000809144)
(0.110706 0.000918784 0.000756951)
(0.111195 0.000919107 0.000704461)
(0.111747 0.00090566 0.000663871)
(0.100031 0.000107086 0.000281374)
(0.100395 0.000293075 0.000768608)
(0.101024 0.000434135 0.00113303)
(0.101844 0.000526323 0.00136913)
(0.102751 0.000576505 0.00150132)
(0.103689 0.00059199 0.00155406)
(0.104618 0.000582713 0.00154901)
(0.105516 0.000558229 0.001508)
(0.106367 0.000524758 0.00144422)
(0.107164 0.00048784 0.00136788)
(0.107907 0.000451782 0.00128759)
(0.108601 0.000419032 0.00120988)
(0.109251 0.000390656 0.00113918)
(0.109868 0.000366662 0.00107796)
(0.110458 0.000346057 0.00102757)
(0.11103 0.00032703 0.000988803)
(0.11159 0.000308495 0.000960505)
(0.112144 0.000288927 0.000939747)
(0.112706 0.0002676 0.000921945)
(0.113311 0.000242311 0.000907508)
(0.100031 -0.000107088 0.000281393)
(0.100395 -0.000293071 0.000768667)
(0.101024 -0.000434122 0.00113315)
(0.101843 -0.0005263 0.00136936)
(0.102751 -0.00057646 0.0015017)
(0.103688 -0.000591902 0.00155463)
(0.104617 -0.000582571 0.00154982)
(0.105515 -0.000558094 0.00150918)
(0.106366 -0.00052471 0.00144601)
(0.107163 -0.000487953 0.00137066)
(0.107905 -0.000452066 0.00129196)
(0.108597 -0.000419347 0.00121672)
(0.109247 -0.000390589 0.00114981)
(0.109862 -0.000365634 0.0010944)
(0.11045 -0.000343854 0.00105281)
(0.111018 -0.000325043 0.00102623)
(0.111573 -0.000309446 0.00101416)
(0.112119 -0.00029668 0.00101422)
(0.112673 -0.00028619 0.00101871)
(0.113278 -0.000277702 0.00101325)
(0.100036 -0.000323137 0.000323175)
(0.100429 -0.000868652 0.000868766)
(0.10108 -0.00126235 0.00126257)
(0.101891 -0.00150429 0.00150467)
(0.102756 -0.00162144 0.00162205)
(0.103616 -0.00164252 0.00164348)
(0.104446 -0.00160431 0.00160577)
(0.105223 -0.0015258 0.00152808)
(0.105937 -0.00142596 0.00142952)
(0.106593 -0.0013206 0.00132617)
(0.107196 -0.00121998 0.00122881)
(0.107759 -0.00112886 0.00114285)
(0.108289 -0.00104834 0.0010705)
(0.108794 -0.000977703 0.00101242)
(0.109282 -0.00091552 0.000968633)
(0.10976 -0.000860282 0.000938701)
(0.110233 -0.000809395 0.000922316)
(0.110706 -0.000757242 0.000918598)
(0.111196 -0.000704777 0.000918851)
(0.111748 -0.000664168 0.000905286)
(0.100046 -0.000540228 0.000395744)
(0.10048 -0.00138405 0.00104494)
(0.101154 -0.00192287 0.00147551)
(0.101913 -0.00219237 0.00170549)
(0.102632 -0.00229372 0.00178052)
(0.103302 -0.0022777 0.00174554)
(0.103894 -0.00218474 0.00163535)
(0.104391 -0.00205111 0.00149336)
(0.104819 -0.00190283 0.00134795)
(0.105197 -0.0017624 0.00121421)
(0.105542 -0.00163817 0.00109713)
(0.105865 -0.00153146 0.000997267)
(0.106178 -0.00144094 0.000912484)
(0.106487 -0.00136366 0.00083998)
(0.106798 -0.00129603 0.000777038)
(0.107115 -0.0012329 0.000722415)
(0.107441 -0.00116992 0.000672611)
(0.107782 -0.0011051 0.000622684)
(0.108141 -0.0010419 0.000560041)
(0.108566 -0.00101595 0.000469194)
(0.100093 -0.000763192 0.000445937)
(0.100504 -0.00174899 0.00119452)
(0.101105 -0.00212947 0.00158686)
(0.101635 -0.00223444 0.00174049)
(0.10198 -0.00228659 0.00178237)
(0.102172 -0.00223523 0.00172923)
(0.102254 -0.0021149 0.0016084)
(0.102279 -0.00196313 0.00146078)
(0.102283 -0.00180007 0.00130593)
(0.102278 -0.00164955 0.00115758)
(0.102276 -0.00153853 0.0010298)
(0.102283 -0.00145822 0.000920812)
(0.102302 -0.00139824 0.00082519)
(0.102333 -0.00135176 0.000736941)
(0.102379 -0.00131276 0.000647038)
(0.102444 -0.00127388 0.000550801)
(0.102524 -0.00122679 0.000438671)
(0.102616 -0.00116476 0.000298567)
(0.102704 -0.00109445 0.000115856)
(0.102902 -0.00105209 -0.000109733)
(0.0995405 -0.000321897 0.000245037)
(0.0992576 -0.00154091 0.00105559)
(0.0988491 -0.00211436 0.00150229)
(0.0981252 -0.00209147 0.00157933)
(0.0973379 -0.0018859 0.00151456)
(0.0965868 -0.00166552 0.00144584)
(0.0958687 -0.00149754 0.00140903)
(0.0952032 -0.00137081 0.00137708)
(0.0945783 -0.00128352 0.00132987)
(0.0939393 -0.00122685 0.00125654)
(0.0933206 -0.00118782 0.00116335)
(0.0927226 -0.00116176 0.00106181)
(0.0921394 -0.00114588 0.000959431)
(0.0915694 -0.00113699 0.000856608)
(0.0910137 -0.0011288 0.00074939)
(0.0904753 -0.00111379 0.00062024)
(0.0899598 -0.00108297 0.000449034)
(0.0894758 -0.00102913 0.000200857)
(0.0890375 -0.000960195 -0.00015794)
(0.0885352 -0.000945325 -0.000674501)
(0.0993802 5.9005e-05 3.37919e-05)
(0.0992678 0.00120004 0.000274465)
(0.0989805 0.00188843 0.000432523)
(0.0984748 0.00200636 0.000483706)
(0.0979959 0.00191453 0.000479233)
(0.0975714 0.00173457 0.000466165)
(0.0971818 0.00154702 0.000453955)
(0.0968324 0.0013882 0.000444196)
(0.0965326 0.00126967 0.000439303)
(0.0962785 0.00119919 0.000433557)
(0.0960045 0.00117218 0.000419918)
(0.0957108 0.00117082 0.000401866)
(0.095395 0.00118138 0.000386591)
(0.0950439 0.00120103 0.000380728)
(0.0946468 0.00123592 0.000393543)
(0.0941968 0.00129182 0.000434411)
(0.0936802 0.00137008 0.000515604)
(0.0930894 0.00147642 0.000661643)
(0.0923619 0.0016081 0.000859918)
(0.0914666 0.00166581 0.00135329)
(0.100087 0.000707015 0.000144425)
(0.100477 0.00161777 0.000390608)
(0.101066 0.00203461 0.000541311)
(0.101694 0.0021176 0.000610496)
(0.102269 0.00215017 0.000636638)
(0.102742 0.00217981 0.000627902)
(0.103124 0.00213422 0.00059659)
(0.103427 0.00204462 0.000552239)
(0.103679 0.00193574 0.00050888)
(0.103897 0.00183083 0.000469761)
(0.104092 0.00173433 0.00043253)
(0.104279 0.00165121 0.000399004)
(0.104454 0.00159739 0.000373289)
(0.104612 0.00157605 0.000357663)
(0.104748 0.00157866 0.000353959)
(0.104867 0.00159898 0.00036805)
(0.104964 0.00164653 0.000405651)
(0.105035 0.00172433 0.000472407)
(0.105089 0.00181853 0.00056882)
(0.105285 0.00187123 0.00067731)
(0.100039 0.000478779 0.000131363)
(0.100448 0.00123481 0.000350576)