/*--------------------------------*- C++ -*----------------------------------*\
| =========                 |                                                 |
| \\      /  F ield         | OpenFOAM: The Open Source CFD Toolbox           |
|  \\    /   O peration     | Version:  2212                                  |
|   \\  /    A nd           | Website:  www.openfoam.com                      |
|    \\/     M anipulation  |                                                 |
\*---------------------------------------------------------------------------*/
FoamFile
{
    version     2.0;
    format      ascii;
    arch        "LSB;label=32;scalar=64";
    class       surfaceVectorField;
    location    "1.3";
    object      Uf;
}
// * * * * * * * * * * * * * * * * * * * * * * * * * * * * * * * * * * * * * //

dimensions      [0 1 -1 0 0 0 0];

internalField   nonuniform List<vector> 
19019
(
(0.0993441 -0.00341899 -0.00341903)
(0.0973536 0.00106248 -0.00148428)
(0.0973536 -0.00148427 0.00106247)
(0.0834792 0.00197595 0.00197583)
(0.0930872 0.00326905 0.00253343)
(0.0930872 0.00253352 0.00326894)
(0.0745171 0.00195887 0.00195862)
(0.084864 0.00163594 0.00179229)
(0.084864 0.00179245 0.00163575)
(0.0685477 0.00115935 0.00115885)
(0.0786281 0.00107371 0.00122124)
(0.078628 0.00122159 0.00107334)
(0.0642359 0.000697487 0.00069661)
(0.0740529 0.000785747 0.000864915)
(0.0740528 0.000865504 0.000784975)
(0.0607562 0.000495803 0.000494041)
(0.0704423 0.00065119 0.000668984)
(0.070442 0.000669985 0.000649949)
(0.0579365 0.000376636 0.000373299)
(0.0674914 0.000548036 0.000507918)
(0.0674908 0.000509948 0.000545501)
(0.0556126 0.000291026 0.000285425)
(0.0650504 0.000471126 0.000386426)
(0.0650493 0.00038985 0.000466698)
(0.0536222 0.000232027 0.000222814)
(0.0629653 0.000419028 0.000306202)
(0.0629633 0.000311804 0.000411516)
(0.0518757 0.000191561 0.000176063)
(0.0611305 0.000379095 0.000252282)
(0.0611269 0.000261516 0.000366365)
(0.0503233 0.00016517 0.000139114)
(0.0594867 0.000345351 0.000214627)
(0.0594801 0.000231139 0.0003236)
(0.048932 0.000149354 0.000107094)
(0.0580001 0.000317369 0.000186806)
(0.0579879 0.00021476 0.000280952)
(0.0476714 0.000141975 7.5551e-05)
(0.0566435 0.000298388 0.00016476)
(0.0566217 0.000207466 0.000238872)
(0.0465181 0.000143316 4.0478e-05)
(0.0553942 0.000290882 0.00014592)
(0.0553566 0.000206365 0.00019375)
(0.0454697 0.000156891 7.3888e-06)
(0.0542408 0.00029542 0.000123743)
(0.0541767 0.000212039 0.0001361)
(0.0445327 0.000193913 -4.80647e-05)
(0.0531909 0.00031259 9.39233e-05)
(0.0530794 0.000227427 6.07234e-05)
(0.0437302 0.00026001 -0.000166461)
(0.0522765 0.000362996 2.318e-05)
(0.0520694 0.000275497 -5.70101e-05)
(0.0431816 0.000340789 -0.0003973)
(0.0515761 0.000457746 -0.000117544)
(0.0511626 0.00034277 -0.000260798)
(0.0431957 -0.000229522 -0.00153189)
(0.0514368 0.00066374 -0.00031658)
(0.0505349 0.000374018 -0.000705658)
(0.0498101 3.37752e-05 -0.0015652)
(0.0492049 -0.000575051 -0.00285002)
(0.0984572 0.00247649 0.00172987)
(0.0996871 0.000439247 0.000345477)
(0.100049 0.00105639 0.000750959)
(0.0958348 0.00314817 0.0024326)
(0.0978161 0.00273288 0.00228224)
(0.0982936 0.00280928 0.00216141)
(0.09145 0.00223053 0.00186918)
(0.095496 0.00300186 0.00230301)
(0.0963039 0.00244278 0.0019977)
(0.0875951 0.00167502 0.0015053)
(0.0926192 0.00229963 0.0018386)
(0.0936667 0.00198096 0.00172682)
(0.0841474 0.00144075 0.00127537)
(0.0897674 0.00189239 0.00153542)
(0.0909044 0.00172013 0.00149761)
(0.0811875 0.00126655 0.00102827)
(0.0872324 0.00165728 0.00129429)
(0.088434 0.00145517 0.00121132)
(0.0787008 0.00111211 0.000793247)
(0.0850072 0.00149334 0.00107663)
(0.0863042 0.00118451 0.000908004)
(0.076556 0.000995423 0.000624083)
(0.083062 0.00137373 0.000912484)
(0.0844795 0.000984817 0.000689757)
(0.07465 0.000910714 0.000516421)
(0.0813266 0.00128213 0.000800394)
(0.0828783 0.00084831 0.000547063)
(0.0729218 0.000840487 0.000449422)
(0.0797498 0.00119997 0.000724422)
(0.0814447 0.000749831 0.000452686)
(0.0713356 0.0007751 0.000406741)
(0.0783039 0.00112196 0.000675652)
(0.0801466 0.000671623 0.000386171)
(0.0698695 0.000716087 0.000378365)
(0.0769677 0.00104843 0.000644383)
(0.0789575 0.000606371 0.000335789)
(0.0685064 0.000670133 0.00036056)
(0.0757239 0.00098138 0.000623641)
(0.0778581 0.000556868 0.000297064)
(0.067233 0.000640587 0.00034793)
(0.0745616 0.000922655 0.000610023)
(0.0768386 0.000524209 0.000265739)
(0.0660471 0.000625188 0.000319594)
(0.0734765 0.000873717 0.000596236)
(0.0758941 0.00050781 0.000229228)
(0.0649799 0.000618551 0.000256282)
(0.072483 0.000833083 0.00056035)
(0.0750292 0.000507337 0.000161029)
(0.0641011 0.000596282 0.000108483)
(0.0716291 0.000783668 0.000490191)
(0.0742719 0.000519784 4.60249e-05)
(0.0636546 0.000599313 -0.000116944)
(0.0710042 0.000658781 0.000304137)
(0.0736827 0.000518908 -0.000191428)
(0.0641169 0.000474917 -0.000487983)
(0.0708349 0.000408382 2.13403e-05)
(0.0734437 0.000482149 -0.000673708)
(0.0694774 -0.000447327 -0.000573998)
(0.072293 -0.000128761 -0.00212068)
(0.0993753 0.00118219 0.00107253)
(0.099473 0.000349773 0.000307055)
(0.0997475 0.000611002 0.000779865)
(0.0984949 0.00229622 0.00203182)
(0.0990504 0.00157688 0.00172043)
(0.0995971 0.0020184 0.0020028)
(0.0971414 0.00247676 0.00204843)
(0.0983579 0.00213127 0.00216875)
(0.0992973 0.00246171 0.00210225)
(0.0954398 0.00224744 0.00176712)
(0.0971936 0.00203607 0.00200222)
(0.0984884 0.00237481 0.00190235)
(0.0937513 0.00202119 0.00152202)
(0.0959058 0.00185605 0.00175407)
(0.0974225 0.0021814 0.00168828)
(0.0921393 0.00186535 0.00134389)
(0.0946731 0.00173334 0.00154217)
(0.0963101 0.00198556 0.00150763)
(0.0906035 0.00175548 0.00121392)
(0.0934841 0.00165369 0.0013857)
(0.0952054 0.00180296 0.00134163)
(0.0891547 0.00165854 0.00111222)
(0.0923722 0.00157837 0.00126435)
(0.0941495 0.00164681 0.00120198)
(0.0878098 0.00155526 0.00102967)
(0.0913387 0.00148384 0.00117005)
(0.0931684 0.00150836 0.0010929)
(0.0865707 0.0014484 0.000967307)
(0.090354 0.00137486 0.00110012)
(0.0922659 0.00138088 0.00100914)
(0.0854228 0.00134681 0.000925497)
(0.0894312 0.00126582 0.00105254)
(0.0914421 0.00126689 0.000949414)
(0.0843515 0.00125418 0.000899136)
(0.0885638 0.00116073 0.00102159)
(0.0906892 0.00116848 0.000907854)
(0.0833467 0.00116874 0.000882096)
(0.087741 0.00106133 0.00100234)
(0.0899972 0.00108386 0.000877261)
(0.0824064 0.0010865 0.000867699)
(0.0869582 0.000965863 0.000989967)
(0.0893614 0.00100944 0.000851032)
(0.0815397 0.0010011 0.000845521)
(0.086217 0.000868443 0.000977353)
(0.0887833 0.000941227 0.000822067)
(0.0807753 0.000899096 0.000801496)
(0.0855275 0.000752337 0.000952653)
(0.0882721 0.000871463 0.000776248)
(0.0801648 0.000753056 0.000706104)
(0.0849141 0.000594788 0.000903217)
(0.0878498 0.000785248 0.000692598)
(0.079755 0.000505034 0.000529262)
(0.0844094 0.000360959 0.00080215)
(0.0875436 0.000658823 0.000533331)
(0.0796044 -0.000154051 0.000172177)
(0.0840501 2.75441e-05 0.000653433)
(0.0873631 0.000432977 0.000282628)
(0.083475 -0.000720915 0.000391128)
(0.0870519 -0.000237689 -0.000166767)
(0.0996493 0.000650316 0.000931404)
(0.0994625 0.000129373 0.000192501)
(0.0997993 0.000375136 0.000741353)
(0.0990855 0.00127895 0.00182763)
(0.0992626 0.000636865 0.0013706)
(0.0998409 0.00115041 0.00181418)
(0.0984495 0.00154082 0.00210291)
(0.098913 0.000973385 0.00200348)
(0.0999049 0.00153656 0.00209004)
(0.0977082 0.00154696 0.00198868)
(0.0982954 0.00104997 0.00205049)
(0.0997677 0.00163179 0.00202276)
(0.0969406 0.00148022 0.0017757)
(0.0976581 0.00100733 0.00189937)
(0.0995102 0.00160972 0.00189522)
(0.0962099 0.00142746 0.00158152)
(0.0970662 0.000959715 0.00169791)
(0.0992009 0.00154779 0.00175099)
(0.095526 0.00139309 0.00143416)
(0.0965083 0.000932503 0.00152014)
(0.098857 0.00147498 0.00162482)
(0.0948788 0.00135352 0.00132715)
(0.0959972 0.000915407 0.00137823)
(0.0985148 0.00139349 0.00151346)
(0.0942482 0.00129325 0.00125517)
(0.0955314 0.000899836 0.00127686)
(0.098184 0.00130039 0.0014171)
(0.093628 0.00121 0.00120731)
(0.0950814 0.000865198 0.00121385)
(0.0978419 0.00119574 0.00133886)
(0.0930223 0.00111265 0.00117476)
(0.0946334 0.000804285 0.00117948)
(0.0975117 0.00108922 0.00128292)
(0.0924313 0.00101071 0.00115378)
(0.0941885 0.00073157 0.00116335)
(0.097197 0.000986266 0.0012436)
(0.0918539 0.00090813 0.00114138)
(0.093744 0.000655594 0.00115722)
(0.0968956 0.000888517 0.00121564)
(0.0912907 0.000803135 0.00113283)
(0.0932948 0.000575081 0.00115711)
(0.096607 0.000793606 0.00119549)
(0.0907437 0.000684971 0.00112121)
(0.0928392 0.000487211 0.00116111)
(0.096333 0.000695388 0.00117804)
(0.0902177 0.000534803 0.00109825)
(0.0923782 0.000377879 0.00116553)
(0.0960768 0.00058237 0.00115604)
(0.089721 0.000325112 0.00105584)
(0.0919139 0.000229543 0.00116485)
(0.0958401 0.000439308 0.00112043)
(0.0892591 2.1601e-05 0.00099434)
(0.0914493 1.91994e-05 0.0011567)
(0.0956256 0.00024177 0.00106304)
(0.088829 -0.000416133 0.000952274)
(0.0909784 -0.000263815 0.00114648)
(0.0954339 -3.53132e-05 0.000989385)
(0.0904254 -0.000665656 0.00119421)
(0.0952592 -0.000418367 0.000945927)
(0.0996725 0.00015403 0.000629481)
(0.0993802 -1.65583e-08 5.89799e-05)
(0.0997132 0.000103909 0.000687942)
(0.0991592 0.000353234 0.00154421)
(0.0992678 -8.01808e-08 0.00120002)
(0.0998377 0.000341588 0.00162227)
(0.0986639 0.000457624 0.00194736)
(0.0989805 -1.89394e-07 0.00188842)
(0.0999632 0.000485361 0.00199133)
(0.0982128 0.000480613 0.00196033)
(0.0984749 -3.41962e-07 0.00200633)
(0.0999922 0.000539418 0.00199648)
(0.0977775 0.000471178 0.00182427)
(0.0979961 -5.91186e-07 0.00191444)
(0.10001 0.000545989 0.00191065)
(0.0973649 0.000457322 0.00164034)
(0.0975719 -1.04039e-06 0.00173438)
(0.100009 0.000532714 0.00180357)
(0.0969984 0.000444261 0.00146687)
(0.0971828 -1.85008e-06 0.00154674)
(0.0999835 0.000510083 0.00168176)
(0.0966804 0.000433486 0.00132758)
(0.0968339 -3.18072e-06 0.00138773)
(0.099943 0.000482641 0.00157078)
(0.096404 0.000422442 0.00123193)
(0.0965352 -5.4235e-06 0.00126877)
(0.0999051 0.000456978 0.0014784)
(0.0961447 0.000403334 0.00118134)
(0.0962829 -9.11753e-06 0.00119758)
(0.0998763 0.000430122 0.00141363)
(0.0958765 0.000372147 0.0011642)
(0.0960121 -1.51806e-05 0.00116944)
(0.0998288 0.000395428 0.00137206)
(0.0955891 0.000330452 0.00116388)
(0.0957236 -2.50919e-05 0.00116625)
(0.0997698 0.000353105 0.00134226)
(0.0952787 0.000278845 0.00117065)
(0.0954166 -4.13875e-05 0.00117372)
(0.0997005 0.000305567 0.00132322)
(0.0949423 0.000217087 0.00118373)
(0.0950803 -6.79645e-05 0.00118813)
(0.0996139 0.000251004 0.00131628)
(0.0945776 0.000140337 0.00120481)
(0.0947067 -0.000108993 0.00121407)
(0.0995075 0.000186581 0.00132145)
(0.0941822 3.47604e-05 0.00123299)
(0.094292 -0.000174303 0.0012546)
(0.0993827 0.00010444 0.00133458)
(0.0937531 -0.000117721 0.00126808)
(0.0938285 -0.000278055 0.00130934)
(0.0992367 -7.05418e-06 0.00135388)
(0.0932858 -0.000330459 0.00131109)
(0.0933111 -0.000441224 0.00138201)
(0.0990666 -0.000161734 0.00138026)
(0.0927682 -0.000632778 0.00138704)
(0.0926946 -0.00065639 0.0014714)
(0.0988585 -0.000367105 0.00140978)
(0.0919435 -0.00106167 0.00155282)
(0.0986481 -0.000639248 0.00147701)
(0.0996725 -0.000154129 0.000629524)
(0.0994625 -0.000129409 0.000192527)
(0.0997132 -0.000103951 0.000687945)
(0.0991591 -0.000353495 0.00154424)
(0.0992625 -0.000636997 0.00137062)
(0.0998377 -0.000341753 0.00162228)
(0.0986638 -0.000458116 0.00194739)
(0.0989129 -0.000973631 0.00200354)
(0.0999631 -0.000485686 0.00199133)
(0.0982125 -0.000481474 0.00196044)
(0.098295 -0.00105039 0.00205062)
(0.099992 -0.000539993 0.00199652)
(0.0977768 -0.000472707 0.00182454)
(0.0976573 -0.00100813 0.00189961)
(0.100009 -0.000547029 0.00191084)
(0.0973636 -0.000460072 0.00164079)
(0.0970645 -0.000961227 0.00169833)
(0.100008 -0.000534577 0.00180398)
(0.096996 -0.000449093 0.0014676)
(0.0965053 -0.000935281 0.00152069)
(0.0999819 -0.000513318 0.00168238)
(0.0966764 -0.000441774 0.00132892)
(0.095992 -0.00092024 0.00137919)
(0.0999401 -0.000488136 0.00157181)
(0.0963972 -0.000436462 0.00123442)
(0.0955224 -0.000908259 0.00127885)
(0.0999004 -0.00046637 0.00148021)
(0.0961331 -0.000426779 0.00118568)
(0.095066 -0.000879193 0.00121796)
(0.0998685 -0.000446199 0.0014167)
(0.0958567 -0.000410946 0.00117149)
(0.0946072 -0.000827125 0.00118709)
(0.0998159 -0.000422575 0.00137707)
(0.0955554 -0.000394296 0.00117609)
(0.0941442 -0.000768696 0.00117694)
(0.0997484 -0.000397998 0.00135071)
(0.0952217 -0.000383741 0.00119119)
(0.0936695 -0.000716861 0.00117966)
(0.0996641 -0.000378207 0.00133788)
(0.0948475 -0.000387231 0.00121846)
(0.0931705 -0.000677218 0.001194)
(0.0995528 -0.000367934 0.00134127)
(0.0944241 -0.000414093 0.00126386)
(0.0926343 -0.000655154 0.00122436)
(0.099407 -0.000373106 0.00136306)
(0.0939401 -0.00047515 0.00133095)
(0.0920466 -0.000656788 0.00127701)
(0.099225 -0.000401472 0.00140378)
(0.0933811 -0.000588805 0.00142327)
(0.0913836 -0.000694792 0.00136009)
(0.0989977 -0.000462158 0.00146765)
(0.0927296 -0.000760986 0.00154232)
(0.0906175 -0.000789099 0.00148418)
(0.0987188 -0.000570784 0.0015588)
(0.0919862 -0.00110686 0.00163718)
(0.0896788 -0.000949963 0.00165423)
(0.0983596 -0.00072068 0.00166564)
(0.0885838 -0.00138242 0.00178517)
(0.0979787 -0.00103252 0.0017166)
(0.0996493 -0.000650352 0.000931403)
(0.099473 -0.000349768 0.000307058)
(0.0997993 -0.000375143 0.000741351)
(0.0990854 -0.00127903 0.00182769)
(0.0990504 -0.00157686 0.00172046)
(0.0998409 -0.00115045 0.00181418)
(0.0984491 -0.00154098 0.00210306)
(0.0983576 -0.00213122 0.00216892)
(0.0999047 -0.00153663 0.00209013)
(0.0977074 -0.00154732 0.00198893)
(0.097193 -0.00203598 0.00200252)
(0.0997671 -0.00163194 0.00202306)
(0.0969389 -0.001481 0.00177609)
(0.0959046 -0.00185602 0.00175451)
(0.0995091 -0.00161007 0.00189579)
(0.0962067 -0.00142895 0.00158203)
(0.0946708 -0.00173347 0.00154283)
(0.0991987 -0.0015485 0.00175186)
(0.0955203 -0.00139566 0.0014349)
(0.09348 -0.00165406 0.00138669)
(0.0988532 -0.0014763 0.00162607)
(0.094869 -0.00135801 0.00132868)
(0.092365 -0.00157895 0.001266)
(0.0985083 -0.00139577 0.00151547)
(0.0942313 -0.00130079 0.00125863)
(0.0913261 -0.0014849 0.00117297)
(0.0981729 -0.00130433 0.00142048)
(0.0935991 -0.00122199 0.00121442)
(0.0903325 -0.00137658 0.00110557)
(0.0978233 -0.00120243 0.00134468)
(0.0929733 -0.00113166 0.00118818)
(0.0893947 -0.00126853 0.00106204)
(0.0974804 -0.00110002 0.00129311)
(0.0923491 -0.00104213 0.00117683)
(0.0885017 -0.00116526 0.00103867)
(0.0971435 -0.00100348 0.00126162)
(0.0917172 -0.000962028 0.00117901)
(0.0876364 -0.00107033 0.00103131)
(0.0968057 -0.000916222 0.00124673)
(0.0910648 -0.000895482 0.00119633)
(0.0867827 -0.000984826 0.00103852)
(0.09646 -0.00084078 0.00124853)
(0.0903731 -0.000844544 0.0012335)
(0.0859238 -0.00090711 0.00106168)
(0.0960956 -0.0007771 0.00126928)
(0.0896138 -0.000815213 0.00130092)
(0.0850366 -0.000834221 0.00110664)
(0.0956966 -0.000724917 0.00131526)
(0.0887465 -0.000818233 0.00141307)
(0.0840854 -0.000770982 0.00118761)
(0.0952401 -0.000691313 0.00139858)
(0.087716 -0.000873201 0.00158314)
(0.0830022 -0.000724691 0.00132431)
(0.0946977 -0.000685169 0.00153097)
(0.0864844 -0.00108488 0.00178187)
(0.0817146 -0.000733623 0.00151427)
(0.0940304 -0.000717055 0.00170903)
(0.0803634 -0.00101164 0.00201345)
(0.093407 -0.000878715 0.00185498)
(0.0993753 -0.00118214 0.00107257)
(0.0996871 -0.000439226 0.000345487)
(0.0997475 -0.000610977 0.000779885)
(0.0984947 -0.0022961 0.00203197)
(0.0978161 -0.00273276 0.00228232)
(0.099597 -0.0020183 0.00200293)
(0.097141 -0.00247651 0.00204875)
(0.0954958 -0.00300165 0.00230321)
(0.0992971 -0.00246152 0.00210256)
(0.0954389 -0.00224703 0.0017676)
(0.0926188 -0.00229926 0.00183898)
(0.0984879 -0.00237444 0.00190288)
(0.0937496 -0.00202054 0.0015227)
(0.0897666 -0.0018917 0.00153596)
(0.0974215 -0.0021808 0.00168907)
(0.0921361 -0.00186436 0.00134496)
(0.0872309 -0.00165612 0.00129515)
(0.0963082 -0.00198456 0.00150875)
(0.0905979 -0.00175394 0.0012157)
(0.0850046 -0.00149136 0.00107805)
(0.095202 -0.00180144 0.00134342)
(0.089145 -0.00165599 0.00111514)
(0.0830572 -0.00137045 0.000914843)
(0.0941437 -0.00164444 0.00120506)
(0.0877932 -0.00155103 0.00103445)
(0.0813181 -0.00127661 0.000804325)
(0.0931581 -0.00150429 0.00109797)
(0.0865422 -0.0014414 0.000974974)
(0.0797353 -0.00119054 0.000731029)
(0.0922483 -0.00137389 0.00101755)
(0.0853746 -0.00133549 0.000938363)
(0.0782786 -0.00110559 0.000687488)
(0.091412 -0.00125544 0.00096345)
(0.0842698 -0.00123668 0.000921566)
(0.0769233 -0.00102137 0.000665122)
(0.0906377 -0.00114976 0.000931916)
(0.0832087 -0.00114321 0.000920877)
(0.075647 -0.000939267 0.000656542)
(0.0899112 -0.00105402 0.000918229)
(0.0821733 -0.0010517 0.000935006)
(0.0744304 -0.00085862 0.000658278)
(0.0892189 -0.000962632 0.000919679)
(0.0811429 -0.000958998 0.000967327)
(0.0732542 -0.00077365 0.000672912)
(0.0885466 -0.000870755 0.000938072)
(0.0800839 -0.000860956 0.00102741)
(0.0720996 -0.000668999 0.00070506)
(0.0878749 -0.000773896 0.000981)
(0.078946 -0.000753346 0.00113294)
(0.0709423 -0.000536241 0.000765605)
(0.0871761 -0.000664659 0.00106107)
(0.0776412 -0.000640824 0.00128338)
(0.0697223 -0.00034867 0.000863492)
(0.086392 -0.000534746 0.00119739)
(0.0760425 -0.000638413 0.00173677)
(0.0683732 -7.12234e-05 0.000989749)
(0.0854663 -0.000378664 0.00136971)
(0.0670801 0.000293626 0.00153899)
(0.084684 -0.000330543 0.00183266)
(0.0984572 -0.00247642 0.00172992)
(0.0973536 -0.00106247 -0.00148427)
(0.100049 -0.00105637 0.000750983)
(0.0958348 -0.003148 0.00243274)
(0.0930872 -0.00326894 0.00253351)
(0.0982936 -0.00280916 0.00216154)
(0.0914498 -0.00223025 0.00186947)
(0.084864 -0.00163575 0.00179245)
(0.0963039 -0.00244252 0.00199796)
(0.0875948 -0.00167445 0.00150575)
(0.078628 -0.00107335 0.00122158)
(0.0936666 -0.0019805 0.00172729)
(0.0841468 -0.00143974 0.00127613)
(0.0740528 -0.00078499 0.000865495)
(0.0909041 -0.00171931 0.00149836)
(0.0811864 -0.00126481 0.00102959)
(0.070442 -0.000649968 0.000669972)
(0.0884336 -0.0014538 0.00121267)
(0.0786987 -0.00110905 0.000795395)
(0.0674908 -0.000545528 0.000509929)
(0.0863033 -0.00118213 0.000910258)
(0.0765522 -0.000990128 0.000627642)
(0.0650493 -0.000466733 0.000389825)
(0.0844779 -0.00098075 0.000693517)
(0.0746431 -0.000901533 0.00052244)
(0.0629633 -0.00041156 0.000311773)
(0.0828754 -0.000841279 0.000553485)
(0.0729095 -0.000824544 0.000460576)
(0.0611269 -0.000366419 0.000261477)
(0.0814397 -0.000737619 0.000463814)
(0.0713131 -0.000748051 0.000426995)
(0.0594801 -0.000323668 0.000231091)
(0.0801374 -0.000649946 0.000406918)
(0.0698286 -0.000671775 0.000410334)
(0.0579879 -0.000281035 0.000214699)
(0.0789406 -0.000570329 0.000371197)
(0.0684342 -0.000598272 0.000403954)
(0.0566217 -0.00023896 0.000207386)
(0.0778278 -0.00050002 0.000352095)
(0.0671093 -0.000520975 0.000406737)
(0.0553566 -0.000193872 0.000206284)
(0.0767862 -0.000435547 0.000346743)
(0.0658338 -0.000417006 0.000419986)
(0.0541768 -0.000136258 0.000211953)
(0.0758051 -0.000362948 0.000357301)
(0.064602 -0.000272545 0.000451679)
(0.0530794 -6.09147e-05 0.000227306)
(0.0748743 -0.000255882 0.000390366)
(0.063394 -7.19143e-05 0.000510413)
(0.0520694 5.67706e-05 0.000275357)
(0.0739842 -0.000110123 0.000456951)
(0.0621796 0.000255339 0.000592355)
(0.0511625 0.000260471 0.00034262)
(0.0731079 0.000113786 0.000560857)
(0.0608975 0.000942228 0.000794284)
(0.0505344 0.000705224 0.000373887)
(0.0721899 0.000532865 0.00065391)
(0.0492042 0.00284928 -0.000575185)
(0.0714512 0.00144508 0.00078547)
(0.0993441 0.00341903 -0.00341899)
(0.0973536 0.00148428 0.00106248)
(0.0834792 -0.00197583 0.00197594)
(0.0930872 -0.00253343 0.00326904)
(0.0745171 -0.00195862 0.00195886)
(0.084864 -0.00179229 0.00163594)
(0.0685477 -0.00115886 0.00115934)
(0.0786281 -0.00122125 0.0010737)
(0.0642359 -0.000696625 0.000697473)
(0.0740529 -0.000864926 0.000785732)
(0.0607562 -0.000494062 0.000495783)
(0.0704423 -0.000668999 0.00065117)
(0.0579365 -0.000373328 0.000376608)
(0.0674914 -0.00050794 0.000548008)
(0.0556126 -0.000285462 0.000290991)
(0.0650504 -0.000386454 0.000471091)
(0.0536222 -0.000222857 0.000231984)
(0.0629653 -0.000306236 0.000418984)
(0.0518757 -0.000176116 0.000191508)
(0.0611305 -0.000252322 0.00037904)
(0.0503233 -0.000139178 0.000165105)
(0.0594867 -0.000214678 0.000345285)
(0.048932 -0.000107165 0.000149268)
(0.058 -0.000186869 0.000317289)
(0.0476714 -7.56363e-05 0.000141875)
(0.0566435 -0.000164827 0.00029828)
(0.0465181 -4.05739e-05 0.000143208)
(0.0553942 -0.000145998 0.000290756)
(0.0454697 -7.50262e-06 0.00015676)
(0.0542408 -0.000123831 0.00029528)
(0.0445326 4.7912e-05 0.00019375)
(0.0531908 -9.40411e-05 0.000312403)
(0.04373 0.000166264 0.000259817)
(0.0522763 -2.33313e-05 0.000362779)
(0.0431812 0.000397045 0.000340592)
(0.0515757 0.00011734 0.000457475)
(0.0431951 0.0015315 -0.000229711)
(0.0514361 0.000316365 0.000663399)
(0.0498094 0.00156488 3.32859e-05)
(0.0984572 0.00172992 0.00247642)
(0.100049 0.000750983 0.00105637)
(0.0996871 0.000345488 0.000439225)
(0.0958348 0.00243274 0.003148)
(0.0982936 0.00216155 0.00280915)
(0.0978161 0.00228232 0.00273275)
(0.0914498 0.00186947 0.00223024)
(0.0963039 0.00199796 0.00244251)
(0.0954958 0.00230322 0.00300165)
(0.0875948 0.00150576 0.00167443)
(0.0936666 0.0017273 0.00198049)
(0.0926188 0.00183898 0.00229925)
(0.0841468 0.00127614 0.00143972)
(0.0909041 0.00149837 0.00171929)
(0.0897666 0.00153597 0.00189168)
(0.0811864 0.0010296 0.00126478)
(0.0884336 0.00121269 0.00145378)
(0.0872309 0.00129516 0.00165611)
(0.0786987 0.000795409 0.00110901)
(0.0863033 0.000910275 0.0011821)
(0.0850046 0.00107806 0.00149134)
(0.0765521 0.00062766 0.000990086)
(0.0844779 0.000693539 0.000980714)
(0.0830572 0.000914862 0.00137042)
(0.074643 0.000522463 0.000901479)
(0.0828754 0.000553513 0.000841233)
(0.0813181 0.000804349 0.00127658)
(0.0729094 0.000460606 0.000824476)
(0.0814397 0.00046385 0.000737561)
(0.0797353 0.000731059 0.00119049)
(0.071313 0.000427036 0.000747965)
(0.0801374 0.000406963 0.00064987)
(0.0782786 0.000687526 0.00110553)
(0.0698286 0.000410385 0.000671673)
(0.0789406 0.000371255 0.000570235)
(0.0769232 0.000665172 0.00102129)
(0.0684342 0.000404016 0.000598159)
(0.0778278 0.000352186 0.000499935)
(0.075647 0.000656597 0.000939164)
(0.0671092 0.000406814 0.000520822)
(0.0767862 0.000346831 0.000435424)
(0.0744304 0.00065836 0.000858519)
(0.0658337 0.000420079 0.000416792)
(0.0758051 0.000357389 0.000362738)
(0.0732541 0.000673026 0.000773527)
(0.064602 0.000451779 0.000272269)
(0.0748743 0.000390499 0.000255643)
(0.0720995 0.000705178 0.000668815)
(0.063394 0.000510504 7.15349e-05)
(0.0739842 0.000457097 0.00010981)
(0.0709422 0.000765717 0.000535987)
(0.0621798 0.000592426 -0.000255878)
(0.0731082 0.000560993 -0.000114239)
(0.0697223 0.000863574 0.000348293)
(0.0608982 0.00079421 -0.000943313)
(0.0721904 0.00065403 -0.000533502)
(0.0683734 0.000989743 7.06188e-05)
(0.071452 0.00078564 -0.00144613)
(0.0670808 0.00153893 -0.000294684)
(0.10008 0.00135182 0.00135174)
(0.100186 0.000798787 0.000804935)
(0.100186 0.000804971 0.000798752)
(0.100264 0.00221743 0.0022172)
(0.10019 0.00231195 0.00207141)
(0.100189 0.00207157 0.00231181)
(0.0993827 0.00243604 0.00243557)
(0.100306 0.00263391 0.00245292)
(0.100306 0.00245331 0.00263362)
(0.0979837 0.00231072 0.00230995)
(0.0998048 0.00256079 0.00245569)
(0.0998047 0.00245636 0.00256026)
(0.0964944 0.00200693 0.00200563)
(0.0988625 0.00236507 0.00228053)
(0.0988621 0.00228155 0.00236421)
(0.0950716 0.00159818 0.00159599)
(0.0978404 0.00205014 0.00196738)
(0.0978397 0.00196896 0.00204862)
(0.0937735 0.00122832 0.00122467)
(0.0968606 0.00169305 0.00160353)
(0.0968595 0.00160605 0.00169057)
(0.0926147 0.000965592 0.000959344)
(0.0959581 0.00140759 0.00131965)
(0.0959561 0.00132399 0.00140353)
(0.0915889 0.000783922 0.000773083)
(0.0951458 0.00119674 0.00111552)
(0.0951423 0.00112297 0.00118966)
(0.0906799 0.000656309 0.000636927)
(0.0944223 0.00104052 0.000966628)
(0.0944162 0.000979372 0.00102822)
(0.0898667 0.000565285 0.000532053)
(0.0937825 0.000923353 0.000854753)
(0.0937719 0.00087725 0.00090207)
(0.0891285 0.000502389 0.000449381)
(0.0932124 0.000835436 0.00076905)
(0.0931943 0.000806435 0.000800213)
(0.0884527 0.000462424 0.000380964)
(0.0926997 0.000771023 0.00070106)
(0.0926701 0.000760738 0.000714751)
(0.087836 0.000441224 0.000313319)
(0.0922412 0.000724662 0.000640723)
(0.092194 0.000734461 0.000635486)
(0.0872778 0.000439794 0.00022671)
(0.0918375 0.000693864 0.000575719)
(0.0917619 0.000727285 0.00055034)
(0.086772 0.000462537 0.000101695)
(0.091486 0.000677574 0.000488278)
(0.091365 0.000744724 0.000442971)
(0.0863205 0.00051075 -9.33377e-05)
(0.0911843 0.000675344 0.000359929)
(0.0909932 0.000793103 0.000299638)
(0.0858896 0.000539232 -0.000446377)
(0.0909239 0.000683475 0.000156207)
(0.0906286 0.000877853 9.08572e-05)
(0.0854064 0.000394426 -0.00114692)
(0.0906593 0.000650448 -0.000198013)
(0.0902279 0.00094359 -0.000249393)
(0.090607 0.000394027 -0.000831997)
(0.0901202 0.000855432 -0.000757949)
(0.100171 0.00136876 0.00141635)
(0.100118 0.000577444 0.000811285)
(0.100102 0.000699804 0.000700665)
(0.100759 0.00219509 0.00214889)
(0.100478 0.00158297 0.00185869)
(0.100477 0.00182268 0.00186457)
(0.100996 0.0024773 0.00238761)
(0.101004 0.00205898 0.00224233)
(0.101024 0.00234707 0.00238277)
(0.100838 0.00247684 0.00238857)
(0.101292 0.00220387 0.00235168)
(0.101337 0.00250647 0.00254341)
(0.100457 0.00231256 0.00222398)
(0.101309 0.00216798 0.00232137)
(0.101408 0.00245134 0.00247181)
(0.0999673 0.00205822 0.00196691)
(0.101157 0.00201181 0.00217762)
(0.101301 0.00226585 0.00226969)
(0.099443 0.00179302 0.00169781)
(0.100927 0.00179525 0.00196673)
(0.101098 0.00201104 0.00199744)
(0.0989331 0.00156721 0.00148001)
(0.100665 0.00158583 0.00176298)
(0.100853 0.00177317 0.0017558)
(0.0984642 0.00138439 0.00131557)
(0.100409 0.00139899 0.00158603)
(0.100605 0.00157383 0.00156064)
(0.0980476 0.00123533 0.0011913)
(0.100175 0.0012349 0.00143868)
(0.100376 0.0014099 0.0014046)
(0.0976838 0.00111435 0.00109805)
(0.0999697 0.00109746 0.00132876)
(0.100179 0.00127613 0.0012802)
(0.0973703 0.00101706 0.00102625)
(0.0997969 0.000983894 0.00124779)
(0.100016 0.00116875 0.00118064)
(0.0971052 0.000938988 0.000965588)
(0.0996553 0.000889178 0.00118513)
(0.0998876 0.00108412 0.00109774)
(0.0968878 0.000876124 0.000907437)
(0.0995443 0.000807628 0.00113232)
(0.0997941 0.00101894 0.001023)
(0.0967191 0.000823465 0.000842161)
(0.0994656 0.000732244 0.00108245)
(0.0997359 0.000970771 0.000948761)
(0.0965991 0.000773608 0.000752963)
(0.099421 0.000657052 0.00102575)
(0.0997129 0.000936801 0.000864636)
(0.0965273 0.000719107 0.000618882)
(0.0994093 0.000572723 0.000946804)
(0.0997244 0.000913838 0.000755878)
(0.0964842 0.000638486 0.000419341)
(0.0994263 0.000469365 0.000831764)
(0.0997685 0.000898368 0.000611945)
(0.0964184 0.00045968 0.000153601)
(0.099441 0.000317137 0.000672169)
(0.0998228 0.000864234 0.000421938)
(0.0995745 6.57708e-05 0.000496611)
(0.100007 0.00073212 0.000237575)
(0.100242 0.000820231 0.00125609)
(0.10009 0.000294345 0.000735338)
(0.100071 0.000415708 0.000602752)
(0.100828 0.0013907 0.00193923)
(0.100491 0.000792018 0.00168397)
(0.100493 0.00112452 0.00158691)
(0.101392 0.00166369 0.00218195)
(0.101086 0.00107778 0.00208328)
(0.101129 0.00154103 0.00209392)
(0.101816 0.00176145 0.0022605)
(0.101664 0.00120441 0.00217869)
(0.101768 0.00173301 0.0022938)
(0.102081 0.00175582 0.0022609)
(0.102121 0.00123981 0.00222126)
(0.102291 0.00179038 0.00236646)
(0.102216 0.00166883 0.00217505)
(0.102452 0.00120201 0.00220891)
(0.102712 0.0017446 0.00232066)
(0.102267 0.00153462 0.00203899)
(0.102681 0.00111851 0.0021245)
(0.103037 0.00162731 0.00220012)
(0.102278 0.00138339 0.00188157)
(0.102843 0.00101748 0.00200266)
(0.103287 0.00148117 0.0020465)
(0.102277 0.00123179 0.00172477)
(0.102969 0.000916683 0.00186587)
(0.103494 0.00133026 0.00188561)
(0.102276 0.00109374 0.00159399)
(0.103074 0.000821469 0.00173725)
(0.103672 0.00118875 0.0017386)
(0.102279 0.000975369 0.00149831)
(0.103171 0.000734715 0.00163235)
(0.103835 0.00106604 0.00162082)
(0.102292 0.000873073 0.00142815)
(0.103269 0.000655434 0.00154856)
(0.103993 0.000961382 0.0015276)
(0.102317 0.000781149 0.00137491)
(0.10337 0.000582283 0.00148776)
(0.104153 0.000870944 0.00145299)
(0.102356 0.000692083 0.00133214)
(0.103473 0.000511159 0.00144754)
(0.104317 0.000790219 0.00139177)
(0.102412 0.000599024 0.00129316)
(0.103578 0.00043415 0.00142035)
(0.104489 0.000713148 0.00133865)
(0.102485 0.000494849 0.00125011)
(0.10369 0.000345886 0.00139781)
(0.104674 0.000636704 0.00128736)
(0.102572 0.000368735 0.00119545)
(0.103805 0.000238722 0.0013756)
(0.104872 0.000554282 0.00123205)
(0.102664 0.000207324 0.00112916)
(0.103919 0.000103649 0.00135114)
(0.105082 0.000457399 0.00116989)
(0.102737 3.17136e-06 0.00107266)
(0.104026 -6.94586e-05 0.00132776)
(0.1053 0.000332818 0.00110953)
(0.104241 -0.000270931 0.00132917)
(0.105606 0.000173784 0.00109342)
(0.100243 0.000267407 0.00116238)
(0.100087 -3.04111e-08 0.000707011)
(0.100064 0.000135813 0.000537317)
(0.100782 0.000465735 0.00182619)
(0.100477 -8.79452e-08 0.00161776)
(0.100463 0.000370901 0.00142409)
(0.101401 0.000575507 0.00207607)
(0.101066 -1.51725e-07 0.00203461)
(0.101089 0.000525196 0.0019335)
(0.101988 0.000622829 0.00213369)
(0.101694 -2.8255e-07 0.00211756)
(0.101798 0.000605914 0.00212844)
(0.102507 0.000630918 0.00216453)
(0.102269 -5.31278e-07 0.00215001)
(0.10249 0.000639317 0.00221064)
(0.102936 0.000609938 0.00215625)
(0.102742 -9.37303e-07 0.00217951)
(0.10312 0.000634133 0.00224102)
(0.103279 0.000570591 0.00208822)
(0.103124 -1.55019e-06 0.00213374)
(0.103688 0.000600814 0.00219595)
(0.103557 0.000524086 0.00198835)
(0.103429 -2.54316e-06 0.00204388)
(0.104187 0.000554622 0.00210477)
(0.103792 0.000478051 0.00188041)
(0.103681 -4.28672e-06 0.00193463)