/*--------------------------------*- C++ -*----------------------------------*\
| =========                 |                                                 |
| \\      /  F ield         | OpenFOAM: The Open Source CFD Toolbox           |
|  \\    /   O peration     | Version:  2212                                  |
|   \\  /    A nd           | Website:  www.openfoam.com                      |
|    \\/     M anipulation  |                                                 |
\*---------------------------------------------------------------------------*/
FoamFile
{
    version     2.0;
    format      ascii;
    arch        "LSB;label=32;scalar=64";
    class       volScalarField;
    location    "0.85";
    object      epsilon;
}
// * * * * * * * * * * * * * * * * * * * * * * * * * * * * * * * * * * * * * //

dimensions      [0 2 -3 0 0 0 0];

internalField   nonuniform List<scalar> 
6840
(
90.5034
12.1248
4.3887
2.46659
1.63316
1.18308
0.902024
0.720676
0.594606
0.50253
0.432716
0.379339
0.3364
0.300032
0.270447
0.246549
0.227145
0.211903
0.202932
0.195586
58.5856
14.5696
6.08947
3.33296
2.08218
1.40267
0.998659
0.740295
0.565916
0.44394
0.356042
0.290958
0.241457
0.203053
0.173191
0.149968
0.1316
0.117062
0.106248
0.0993651
45.0226
13.4729
5.73075
3.07323
1.86023
1.227
0.873578
0.649782
0.497017
0.389484
0.311295
0.252985
0.208992
0.175235
0.148856
0.127947
0.11123
0.09776
0.0869237
0.0787245
38.7028
13.0541
5.74336
3.08733
1.88066
1.2275
0.869476
0.645382
0.492589
0.384776
0.307017
0.249036
0.204965
0.17097
0.144376
0.123297
0.10638
0.0926497
0.0814506
0.0730893
36.0571
12.8529
5.76645
3.10211
1.89476
1.22669
0.866498
0.64398
0.492247
0.383959
0.305789
0.24791
0.203907
0.169928
0.143306
0.12216
0.10514
0.0912617
0.0798863
0.0713376
36.0571
12.8529
5.76645
3.10211
1.89475
1.22669
0.866498
0.64398
0.492247
0.38396
0.30579
0.247912
0.20391
0.169933
0.143313
0.12217
0.105152
0.0912769
0.0798923
0.0712269
38.7028
13.0541
5.74336
3.08733
1.88066
1.2275
0.869476
0.645382
0.492589
0.384777
0.30702
0.249039
0.204971
0.170979
0.144388
0.123315
0.106407
0.0926878
0.0815093
0.0732842
45.0226
13.4729
5.73075
3.07323
1.86023
1.227
0.873578
0.649782
0.497017
0.389486
0.311299
0.25299
0.208999
0.175244
0.148869
0.127967
0.111259
0.0978021
0.0869772
0.0787117
58.5856
14.5696
6.08947
3.33296
2.08218
1.40267
0.998659
0.740295
0.565916
0.443942
0.356044
0.290961
0.241462
0.203064
0.173205
0.149984
0.131618
0.117085
0.106283
0.0994062
90.5034
12.1248
4.3887
2.46659
1.63316
1.18308
0.902024
0.720676
0.594606
0.502531
0.432717
0.379339
0.3364
0.300032
0.270448
0.24655
0.227146
0.211905
0.202934
0.195589
58.5856
14.5696
6.08947
3.33296
2.08218
1.40267
0.998659
0.740295
0.565916
0.443942
0.356044
0.290961
0.241461
0.203064
0.173205
0.149983
0.131617
0.117084
0.106282
0.0994054
16.5373
9.49239
5.01271
2.86061
1.75746
1.1476
0.786936
0.562055
0.415374
0.315956
0.246343
0.196237
0.159239
0.131274
0.109806
0.0932413
0.0802026
0.0696948
0.0607279
0.0566667
13.6679
8.73671
5.07741
3.05388
1.92224
1.2661
0.869294
0.618637
0.453967
0.342044
0.263662
0.207327
0.165921
0.134868
0.111166
0.0927113
0.078191
0.0666466
0.0571604
0.0500962
12.9054
8.33993
5.07879
3.15547
2.02775
1.35121
0.93354
0.666461
0.489549
0.368599
0.283609
0.222393
0.177334
0.143534
0.117748
0.0977711
0.0820819
0.0696106
0.0595791
0.0513519
12.6882
8.1544
5.07113
3.20038
2.07939
1.39506
0.967829
0.69272
0.509635
0.384013
0.295499
0.231641
0.184583
0.149249
0.122272
0.101364
0.084942
0.0718855
0.0613942
0.052937
12.6882
8.1544
5.07113
3.20038
2.07939
1.39506
0.967829
0.692719
0.509634
0.384012
0.295499
0.231641
0.184584
0.14925
0.122275
0.101369
0.0849489
0.0718979
0.0614162
0.052972
12.9054
8.33993
5.07879
3.15547
2.02775
1.3512
0.933539
0.666461
0.489549
0.368599
0.283609
0.222393
0.177336
0.143538
0.117754
0.0977791
0.0820951
0.0696332
0.0596152
0.0513804
13.6679
8.73671
5.07741
3.05388
1.92224
1.2661
0.869294
0.618637
0.453967
0.342044
0.263663
0.207327
0.165922
0.134872
0.111172
0.09272
0.0782057
0.0666729
0.0572108
0.0499398
16.5373
9.49239
5.01271
2.86061
1.75746
1.1476
0.786936
0.562055
0.415374
0.315956
0.246343
0.196237
0.159239
0.131274
0.109806
0.0932413
0.0802026
0.0696947
0.0607279
0.0566671
58.5856
14.5696
6.08947
3.33296
2.08218
1.40267
0.998659
0.740295
0.565916
0.443941
0.356042
0.290958
0.241458
0.203053
0.173192
0.149969
0.1316
0.117062
0.106249
0.0993662
45.0226
13.4729
5.73075
3.07323
1.86023
1.227
0.873578
0.649782
0.497017
0.389486
0.311299
0.252989
0.208999
0.175244
0.148869
0.127967
0.111258
0.0978018
0.0869769
0.0787116
13.6679
8.73671
5.07741
3.05388
1.92224
1.2661
0.869294
0.618637
0.453967
0.342044
0.263663
0.207327
0.165922
0.134872
0.111173
0.0927204
0.078206
0.0666732
0.0572112
0.0499383
11.8601
7.76395
4.99734
3.24076
2.1442
1.455
1.01411
0.72564
0.532162
0.399157
0.305556
0.238234
0.18884
0.151933
0.123896
0.102267
0.0853552
0.0719688
0.0612343
0.0526406
11.6229
7.60535
5.0103
3.34209
2.26848
1.57142
1.11236
0.80459
0.594207
0.447521
0.343215
0.267638
0.211905
0.170126
0.138331
0.113793
0.0946108
0.0794386
0.0673081
0.0575377
11.5726
7.56718
5.02065
3.38344
2.32103
1.62326
1.15828
0.843153
0.625688
0.472846
0.36348
0.283848
0.224899
0.180581
0.14678
0.120653
0.100209
0.0840271
0.0710864
0.0606291
11.5726
7.56718
5.02065
3.38344
2.32103
1.62326
1.15828
0.843153
0.625688
0.472846
0.36348
0.283848
0.2249
0.180582
0.146782
0.120655
0.100211
0.084031
0.0710926
0.0606408
11.6229
7.60535
5.0103
3.34209
2.26848
1.57142
1.11236
0.80459
0.594207
0.44752
0.343215
0.267638
0.211905
0.170128
0.138333
0.113795
0.0946136
0.0794435
0.0673164
0.0575486
11.8601
7.76395
4.99734
3.24076
2.1442
1.455
1.01411
0.72564
0.532162
0.399157
0.305556
0.238234
0.18884
0.151933
0.123896
0.102267
0.0853549
0.0719685
0.0612338
0.0526404
13.6679
8.73671
5.07741
3.05388
1.92224
1.2661
0.869294
0.618637
0.453967
0.342044
0.263662
0.207327
0.165921
0.134868
0.111166
0.0927114
0.078191
0.0666465
0.0571603
0.0500971
45.0226
13.4729
5.73075
3.07323
1.86023
1.227
0.873578
0.649782
0.497017
0.389484
0.311295
0.252985
0.208993
0.175236
0.148856
0.127948
0.11123
0.0977604
0.0869243
0.0787251
38.7028
13.0541
5.74336
3.08733
1.88066
1.2275
0.869476
0.645382
0.492589
0.384777
0.30702
0.249039
0.204971
0.170979
0.144388
0.123315
0.106407
0.0926877
0.0815092
0.0732838
12.9054
8.33993
5.07879
3.15547
2.02775
1.3512
0.933539
0.666461
0.489549
0.368599
0.283609
0.222393
0.177335
0.143537
0.117755
0.0977795
0.0820953
0.0696332
0.0596152
0.0513808
11.6229
7.60535
5.0103
3.34209
2.26848
1.57142
1.11236
0.80459
0.594207
0.44752
0.343215
0.267638
0.211905
0.170127
0.138334
0.113795
0.0946139
0.0794437
0.0673166
0.0575486
11.4933
7.5119
5.02843
3.434
2.3892
1.6928
1.22111
0.896488
0.669458
0.508124
0.391659
0.306289
0.242789
0.194893
0.158289
0.129964
0.107791
0.0902453
0.0762128
0.064832
11.4757
7.50136
5.04297
3.47002
2.43665
1.74299
1.26863
0.938711
0.705583
0.538335
0.416592
0.326728
0.259499
0.208558
0.169486
0.13917
0.115392
0.0965485
0.081453
0.0691179
11.4757
7.50136
5.04297
3.47002
2.43665
1.74299
1.26863
0.938711
0.705583
0.538335
0.416592
0.326728
0.259499
0.208558
0.169486
0.139171
0.115393
0.09655
0.0814561
0.0691367
11.4933
7.5119
5.02843
3.434
2.3892
1.6928
1.22111
0.896488
0.669458
0.508124
0.391659
0.306289
0.242789
0.194893
0.158288
0.129964
0.107791
0.0902451
0.0762125
0.0648316
11.6229
7.60535
5.0103
3.34209
2.26848
1.57142
1.11236
0.80459
0.594207
0.447521
0.343215
0.267638
0.211905
0.170126
0.138331
0.113793
0.0946106
0.0794384
0.0673079
0.0575371
12.9054
8.33993
5.07879
3.15547
2.02775
1.35121
0.93354
0.666461
0.489549
0.368599
0.283609
0.222393
0.177334
0.143533
0.117749
0.0977714
0.082082
0.0696107
0.0595791
0.051352
38.7028
13.0541
5.74336
3.08733
1.88066
1.2275
0.869476
0.645382
0.492589
0.384777
0.307018
0.249036
0.204965
0.17097
0.144376
0.123297
0.106381
0.09265
0.0814508
0.0730896
36.0571
12.8529
5.76645
3.10211
1.89475
1.22669
0.866498
0.64398
0.492247
0.38396
0.30579
0.247912
0.20391
0.169933
0.143313
0.12217
0.105152
0.091277
0.0798924
0.071227
12.6882
8.1544
5.07113
3.20038
2.07939
1.39506
0.967829
0.692719
0.509634
0.384012
0.295499
0.231641
0.184583
0.14925
0.122275
0.101368
0.0849487
0.0718976
0.0614159
0.0529718
11.5726
7.56718
5.02065
3.38344
2.32103
1.62326
1.15828
0.843153
0.625688
0.472846
0.36348
0.283848
0.224899
0.180582
0.146781
0.120655
0.100211
0.0840307
0.0710923
0.0606405
11.4757
7.50136
5.04297
3.47002
2.43665
1.74299
1.26863
0.938711
0.705583
0.538335
0.416592
0.326728
0.259499
0.208558
0.169486
0.139171
0.115393
0.0965499
0.0814561
0.0691368
11.4647
7.49683
5.0577
3.50272
2.48038
1.79068
1.31522
0.981304
0.742923
0.570209
0.44335
0.348967
0.277889
0.223737
0.182022
0.149548
0.124013
0.103738
0.0874669
0.0741434
11.4647
7.49683
5.0577
3.50272
2.48038
1.79068
1.31522
0.981304
0.742923
0.570209
0.44335
0.348967
0.277889
0.223737
0.182022
0.149548
0.124013
0.103738
0.0874668
0.0741433
11.4757
7.50136
5.04297
3.47002
2.43665
1.74299
1.26863
0.938711
0.705583
0.538335
0.416592
0.326728
0.259499
0.208558
0.169485
0.13917
0.115392
0.0965484
0.0814529
0.069118
11.5726
7.56718
5.02065
3.38344
2.32103
1.62326
1.15828
0.843153
0.625688
0.472846
0.36348
0.283848
0.224899
0.180581
0.14678
0.120653
0.100208
0.0840271
0.0710864
0.0606291
12.6882
8.1544
5.07113
3.20038
2.07939
1.39506
0.96783
0.69272
0.509635
0.384013
0.295499
0.231641
0.184583
0.149249
0.122272
0.101364
0.0849419
0.0718855
0.0613943
0.052937
36.0571
12.8529
5.76645
3.10211
1.89476
1.22669
0.866498
0.64398
0.492247
0.383959
0.305789
0.24791
0.203907
0.169928
0.143306
0.12216
0.10514
0.0912618
0.0798864
0.0713377
36.0571
12.8529
5.76645
3.10211
1.89476
1.22669
0.866498
0.64398
0.492247
0.38396
0.305789
0.24791
0.203907
0.169929
0.143306
0.12216
0.10514
0.0912619
0.0798866
0.0713379
12.6882
8.1544
5.07113
3.20038
2.07939
1.39506
0.96783
0.69272
0.509635
0.384013
0.295499
0.231641
0.184583
0.149249
0.122272
0.101364
0.0849417
0.0718852
0.0613938
0.0529365
11.5726
7.56718
5.02065
3.38344
2.32103
1.62326
1.15828
0.843153
0.625688
0.472846
0.36348
0.283848
0.224899
0.180581
0.14678
0.120653
0.100208
0.0840269
0.0710861
0.0606287
11.4757
7.50136
5.04297
3.47002
2.43665
1.74299
1.26863
0.938711
0.705583
0.538335
0.416592
0.326728
0.259499
0.208557
0.169486
0.13917
0.115392
0.0965485
0.081453
0.0691181
11.4647
7.49683
5.0577
3.50272
2.48038
1.79068
1.31522
0.981304
0.742923
0.570209
0.44335
0.348967
0.277889
0.223737
0.182022
0.149548
0.124013
0.103738
0.087467
0.0741436
11.4647
7.49683
5.0577
3.50272
2.48038
1.79068
1.31522
0.981304
0.742923
0.570209
0.44335
0.348967
0.277889
0.223737
0.182022
0.149548
0.124013
0.103738
0.087467
0.0741436
11.4757
7.50136
5.04297
3.47002
2.43665
1.74299
1.26863
0.938711
0.705583
0.538335
0.416592
0.326728
0.259499
0.208558
0.169486
0.139171
0.115393
0.0965501
0.0814563
0.0691372
11.5726
7.56718
5.02065
3.38344
2.32103
1.62326
1.15828
0.843153
0.625688
0.472846
0.36348
0.283848
0.2249
0.180582
0.146781
0.120655
0.100211
0.0840311
0.0710928
0.0606412
12.6882
8.1544
5.07113
3.20038
2.07939
1.39506
0.967829
0.692719
0.509634
0.384012
0.295499
0.231641
0.184584
0.149251
0.122274
0.101368
0.0849486
0.0718977
0.0614161
0.052972
36.0571
12.8529
5.76645
3.10211
1.89475
1.22669
0.866498
0.64398
0.492247
0.38396
0.30579
0.247912
0.20391
0.169933
0.143313
0.122169
0.105152
0.0912769
0.0798922
0.0712268
38.7028
13.0541
5.74336
3.08733
1.88066
1.2275
0.869476
0.645382
0.492589
0.384777
0.307018
0.249036
0.204965
0.170971
0.144376
0.123297
0.106381
0.0926501
0.0814511
0.0730899
12.9054
8.33993
5.07879
3.15547
2.02775
1.35121
0.93354
0.666461
0.489549
0.368599
0.283609
0.222393
0.177334
0.143534
0.117748
0.0977711
0.0820819
0.0696106
0.059579
0.0513519
11.6229
7.60535
5.0103
3.34209
2.26848
1.57142
1.11236
0.80459
0.594207
0.447521
0.343215
0.267639
0.211905
0.170127
0.138331
0.113793
0.0946109
0.0794388
0.0673083
0.0575376
11.4933
7.5119
5.02843
3.434
2.3892
1.6928
1.22111
0.896488
0.669458
0.508124
0.391659
0.306289
0.242789
0.194893
0.158289
0.129964
0.107792
0.0902456
0.0762132
0.0648323
11.4757
7.50136
5.04297
3.47002
2.43665
1.74299
1.26863
0.938711
0.705583
0.538335
0.416592
0.326728
0.259499
0.208558
0.169486
0.139171
0.115394
0.0965503
0.0814565
0.0691372
11.4757
7.50136
5.04297
3.47002
2.43665
1.74299
1.26863
0.938711
0.705583
0.538335
0.416592
0.326728
0.259499
0.208558
0.169486
0.13917
0.115393
0.0965486
0.0814532
0.0691185
11.4933
7.5119
5.02843
3.434
2.3892
1.6928
1.22111
0.896488
0.669458
0.508124
0.391659
0.306289
0.242789
0.194894
0.158288
0.129964
0.107791
0.0902454
0.076213
0.0648325
11.6229
7.60535
5.0103
3.34209
2.26848
1.57142
1.11236
0.80459
0.594207
0.44752
0.343215
0.267638
0.211906
0.170128
0.138333
0.113795
0.0946139
0.0794439
0.0673169
0.057549
12.9054
8.33993
5.07879
3.15547
2.02775
1.3512
0.933539
0.66646
0.489549
0.368599
0.283609
0.222393
0.177336
0.143538
0.117754
0.0977789
0.0820949
0.069633
0.059615
0.0513805
38.7028
13.0541
5.74336
3.08733
1.88066
1.2275
0.869476
0.645382
0.492589
0.384777
0.30702
0.249039
0.204971
0.170979
0.144388
0.123315
0.106407
0.0926877
0.0815091
0.0732837
45.0226
13.4729
5.73075
3.07323
1.86023
1.227
0.873578
0.649782
0.497017
0.389484
0.311295
0.252985
0.208993
0.175236
0.148856
0.127948
0.111231
0.0977604
0.0869244
0.0787252
13.6679
8.73671
5.07741
3.05388
1.92224
1.2661
0.869294
0.618637
0.453967
0.342044
0.263662
0.207327
0.165921
0.134869
0.111166
0.0927115
0.0781913
0.0666469
0.0571607
0.0500977
11.8601
7.76395
4.99734
3.24076
2.1442
1.455
1.01411
0.72564
0.532162
0.399158
0.305556
0.238234
0.18884
0.151933
0.123896
0.102267
0.0853556
0.0719693
0.0612349
0.0526412
11.6229
7.60535
5.0103
3.34209
2.26848
1.57142
1.11236
0.80459
0.594207
0.44752
0.343215
0.267638
0.211905
0.170128
0.138334
0.113796
0.0946144
0.0794443
0.0673173
0.0575494
11.5726
7.56718
5.02065
3.38344
2.32103
1.62326
1.15828
0.843153
0.625688
0.472846
0.36348
0.283848
0.2249
0.180582
0.146782
0.120655
0.100211
0.0840312
0.0710929
0.0606411
11.5726
7.56718
5.02065
3.38344
2.32103
1.62326
1.15828
0.843153
0.625688
0.472846
0.36348
0.283848
0.224899
0.180581
0.14678
0.120653
0.100209
0.0840271
0.0710864
0.0606292
11.6229
7.60535
5.0103
3.34209
2.26848
1.57142
1.11236
0.80459
0.594207
0.447521
0.343215
0.267638
0.211905
0.170126
0.138332
0.113793
0.0946108
0.0794386
0.0673082
0.0575378
11.8601
7.76395
4.99734
3.24076
2.1442
1.455
1.01411
0.72564
0.532162
0.399157
0.305556
0.238234
0.18884
0.151933
0.123896
0.102267
0.0853552
0.0719689
0.0612344
0.052641
13.6679
8.73671
5.07741
3.05388
1.92224
1.2661
0.869294
0.618637
0.453967
0.342044
0.263663
0.207327
0.165922
0.134872
0.111172
0.0927199
0.0782056
0.0666729
0.0572107
0.0499383
45.0226
13.4729
5.73075
3.07323
1.86023
1.227
0.873578
0.649782
0.497017
0.389486
0.311299
0.25299
0.208999
0.175244
0.148869
0.127967
0.111258
0.0978019
0.086977
0.0787116
58.5856
14.5696
6.08947
3.33296
2.08218
1.40267
0.998659
0.740295
0.565916
0.443941
0.356042
0.290958
0.241458
0.203053
0.173192
0.149969
0.1316
0.117062
0.106249
0.0993664
16.5373
9.49239
5.01271
2.86061
1.75746
1.1476
0.786936
0.562055
0.415374
0.315956
0.246343
0.196237
0.159239
0.131274
0.109806
0.0932416
0.080203
0.0696951
0.0607284
0.0566673
13.6679
8.73671
5.07741
3.05388
1.92224
1.2661
0.869294
0.618637
0.453967
0.342044
0.263663
0.207327
0.165922
0.134872
0.111173
0.0927206
0.0782062
0.0666734
0.0572115
0.0499389
12.9054
8.33993
5.07879
3.15547
2.02775
1.3512
0.933539
0.666461
0.489549
0.368599
0.283609
0.222393
0.177335
0.143537
0.117755
0.0977797
0.0820954
0.0696333
0.0596152
0.0513808
12.6882
8.1544
5.07113
3.20038
2.07939
1.39506
0.967829
0.692719
0.509634
0.384012
0.295499
0.231641
0.184583
0.14925
0.122275
0.101368
0.0849487
0.0718976
0.0614159
0.0529717
12.6882
8.1544
5.07113
3.20038
2.07939
1.39506
0.967829
0.69272
0.509635
0.384013
0.295499
0.231641
0.184583
0.149248
0.122272
0.101364
0.0849417
0.0718852
0.0613938
0.0529364
12.9054
8.33993
5.07879
3.15547
2.02775
1.35121
0.933539
0.666461
0.489549
0.368599
0.283609
0.222393
0.177334
0.143533
0.117749
0.0977713
0.082082
0.0696106
0.0595789
0.0513518
13.6679
8.73671
5.07741
3.05388
1.92224
1.2661
0.869294
0.618637
0.453967
0.342044
0.263662
0.207327
0.165921
0.134868
0.111166
0.0927116
0.0781912
0.0666468
0.0571605
0.050098
16.5373
9.49239
5.01271
2.86061
1.75746
1.1476
0.786936
0.562055
0.415374
0.315956
0.246343
0.196237
0.159239
0.131274
0.109806
0.0932412
0.0802026
0.0696947
0.0607278
0.0566668
58.5856
14.5696
6.08947
3.33296
2.08218
1.40267
0.998659
0.740295
0.565916
0.443942
0.356044
0.290961
0.241462
0.203064
0.173205
0.149983
0.131618
0.117084
0.106282
0.0994057
90.5034
12.1248
4.3887
2.46659
1.63316
1.18308
0.902024
0.720676
0.594606
0.502531
0.432717
0.379339
0.3364
0.300032
0.270448
0.24655
0.227146
0.211905
0.202935
0.19559
58.5856
14.5696
6.08947
3.33296
2.08218
1.40267
0.998659
0.740295
0.565916
0.443942
0.356044
0.290961
0.241462
0.203064
0.173205
0.149984
0.131618
0.117085
0.106283
0.0994066
45.0226
13.4729
5.73075
3.07323
1.86023
1.227
0.873578
0.649782
0.497017
0.389486
0.311299
0.25299
0.208999
0.175244
0.148869
0.127967
0.111259
0.0978021
0.0869772
0.0787119
38.7028
13.0541
5.74336
3.08733
1.88066
1.2275
0.869476
0.645382
0.492589
0.384777
0.30702
0.249039
0.204971
0.170979
0.144388
0.123315
0.106407
0.0926877
0.0815092
0.0732838
36.0571
12.8529
5.76645
3.10211
1.89475
1.22669
0.866498
0.64398
0.492247
0.38396
0.30579
0.247912
0.20391
0.169933
0.143313
0.12217
0.105152
0.091277
0.0798923
0.071227
36.0571
12.8529
5.76645
3.10211
1.89476
1.22669
0.866498
0.64398
0.492247
0.383959
0.305789
0.24791
0.203907
0.169928
0.143306
0.12216
0.10514
0.0912618
0.0798864
0.0713377
38.7028
13.0541
5.74336
3.08733
1.88066
1.2275
0.869476
0.645382
0.492589
0.384777
0.307018
0.249036
0.204965
0.17097
0.144376
0.123297
0.106381
0.0926499
0.0814508
0.0730895
45.0226
13.4729
5.73075
3.07323
1.86023
1.227
0.873578
0.649782
0.497017
0.389484
0.311295
0.252985
0.208993
0.175236
0.148856
0.127948
0.11123
0.0977601
0.0869239
0.0787245
58.5856
14.5696
6.08947
3.33296
2.08218
1.40267
0.998659
0.740295
0.565916
0.443941
0.356042
0.290958
0.241458
0.203053
0.173192
0.149969
0.1316
0.117062
0.106248
0.0993655
90.5034
12.1248
4.3887
2.46659
1.63316
1.18308
0.902024
0.720676
0.594606
0.50253
0.432717
0.379338
0.3364
0.300032
0.270447
0.246549
0.227145
0.211904
0.202933
0.195587
0.38615
0.302083
0.23574
0.200625
0.180363
0.167975
0.159022
0.151827
0.146031
0.141366
0.137481
0.134059
0.130905
0.128066
0.125585
0.123392
0.121464
0.119761
0.118257
0.116941
0.115785
0.114763
0.113955
0.113186
0.112581
0.111997
0.111407
0.110885
0.110501
0.110182
0.109944
0.109659
0.109347
0.1091
0.108996
0.108932
0.10894
0.108874
0.108772
0.108622
0.135437
0.112455
0.0940662
0.0820726
0.0745791
0.06937
0.065284
0.0618576
0.0589567
0.0565465
0.0544573
0.0526611
0.0510903
0.049689
0.0484532
0.0473657
0.0463998
0.0455563
0.0448197
0.0441863
0.0436343
0.0431598
0.0427602
0.0423945
0.0420856
0.0418352
0.0416129
0.0414109
0.0412269
0.0410614
0.0409257
0.0408183
0.0407228
0.0406323
0.0405573
0.0405161
0.0404887
0.0404751
0.0404639
0.0404512
0.0880676
0.0768039
0.0677022
0.0609522
0.0559553
0.0518166
0.0483468
0.045458
0.0430332
0.0409481
0.0391546
0.0375958
0.0362406
0.0350605
0.0340428
0.0331298
0.0323058
0.0316071
0.031005
0.0304946
0.0300615
0.0296494
0.0293173
0.0290289
0.0287751
0.0285516
0.0283525
0.0281849
0.0280458
0.0279099
0.0277812
0.0276782
0.0275984
0.0275428
0.0275027
0.0274549
0.0274165
0.0273943
0.0273829
0.0273812
0.0703856
0.0634029
0.0574086
0.052373
0.0481536
0.0445812
0.0415153
0.0388797
0.0365993
0.0346191
0.0328934
0.0313865
0.0300601
0.0288959
0.0278784
0.0269909
0.026219
0.0255509
0.0249752
0.0244764
0.0240456
0.023674
0.023355
0.023088
0.0228049
0.0225662
0.0223615
0.0221913
0.0220628
0.0219158
0.0218117
0.0217219
0.0216475
0.0215904
0.0215525
0.0215095
0.0214936
0.0214716
0.0214559
0.0214536
0.0720417
0.0609041
0.0539393
0.04872
0.0445279
0.0410654
0.0381721
0.0356954
0.0335339
0.0316411
0.0299785
0.028516
0.0272237
0.0260836
0.0250815
0.0242042
0.0234392
0.0227751
0.0221976
0.0216971
0.0212657
0.0208949
0.0205789
0.0203008
0.0200495
0.0198238
0.0196308
0.0194649
0.0193323
0.0191885
0.0190936
0.0190054
0.0189283
0.0188705
0.0188173
0.0188113
0.0187903
0.0187649
0.0187479
0.0187362
0.0704455
0.0598641
0.052988
0.0476603
0.0433917
0.0398838
0.0369634
0.0345005
0.032353
0.0304624
0.0287978
0.0273315
0.0260357
0.024896
0.0239032
0.0230388
0.0222871
0.0216334
0.0210667
0.0205766
0.0201536
0.0197892
0.0194773
0.0192007
0.0189487
0.0187282
0.0185387
0.0183781
0.0182415
0.0181174
0.0180126
0.0179206
0.0178399
0.0177805
0.0177329
0.0177033
0.0177225
0.0177018
0.0176759
0.0176578
0.070595
0.060351
0.0534194
0.0481533
0.0438813
0.0403346
0.0373611
0.0348237
0.0326096
0.0306741
0.02898
0.0274979
0.026196
0.0250568
0.0240664
0.0232063
0.0224607
0.0218156
0.0212586
0.0207783
0.0203648
0.0200084
0.0197017
0.0194229
0.0191694
0.0189472
0.0187587
0.018601
0.0184675
0.0183469
0.0182364
0.0181402
0.0180623
0.0180051
0.0179651
0.0179321
0.0179459
0.0179214
0.0178997
0.0178847
0.0705134
0.0631295
0.0566231
0.0511023
0.0465042
0.0427157
0.0395377
0.0368373
0.0345235
0.0325284
0.0308021
0.029301
0.0279885
0.0268411
0.0258472
0.0249873
0.024244
0.0236016
0.0230503
0.0225747
0.0221661
0.0218131
0.0215066
0.0212205
0.0209587
0.0207362
0.0205496
0.0203966
0.0202681
0.0201471
0.0200306
0.0199352
0.0198596
0.0198077
0.0197717
0.0197481
0.0197383
0.0197161
0.0196986
0.0196852
0.0915328
0.0773456
0.0665102
0.058341
0.052662
0.0483499
0.0449241
0.0421167
0.0397349
0.0376851
0.0359267
0.0344131
0.0330906
0.0319189
0.0308971
0.0300141
0.0292451
0.0285773
0.028002
0.027477
0.0270407
0.0266721
0.0263407
0.0260047
0.0257171
0.0254738
0.0252713
0.0251106
0.0249703
0.0248201
0.0246853
0.0245784
0.0245046
0.0244565
0.0244197
0.0243973
0.0243727
0.0243534
0.0243291
0.0243149
0.141311
0.116694
0.095066
0.0808701
0.0721493
0.0664132
0.0621698
0.0587247
0.0559299
0.0535117
0.0515991
0.0499496
0.0482802
0.0467553
0.0454881
0.0443945
0.0434392
0.042604
0.0418762
0.0412438
0.0406953
0.0402368
0.0398234
0.0394304
0.0391125
0.0388536
0.038625
0.038415
0.0382089
0.0380138
0.0378753
0.0377755
0.0376915
0.0376202
0.0375597
0.0375318
0.0374929
0.0374508
0.0374199
0.0373818
0.386151
0.302087
0.235747
0.20063
0.180378
0.167997
0.159044
0.151844
0.146051
0.141347
0.137517
0.134057
0.130869
0.128022
0.125552
0.123377
0.121461
0.119763
0.118262
0.116949
0.115792
0.114779
0.113977
0.113215
0.112607
0.112015
0.111418
0.110891
0.110498
0.110171
0.109933
0.109654
0.109368
0.109156
0.109043
0.109051
0.108997
0.108869
0.108703
0.108462
0.14131
0.116692
0.0950644
0.0808709
0.0721361
0.0663983
0.0621561
0.0587146
0.0559174
0.0535214
0.0515802
0.0499416
0.0483151
0.046791
0.0455072
0.0444015
0.0434445
0.0426099
0.0418834
0.0412515
0.0407041
0.040242
0.0398277
0.039436
0.039118
0.038861
0.0386345
0.0384269
0.0382237
0.0380343
0.0378978
0.0377977
0.0377051
0.0376072
0.0375376
0.0375096
0.0374726
0.0374575
0.037449
0.0374349
0.0638427
0.0553647
0.0469894
0.0400958
0.0359055
0.0329271
0.0305708
0.0285554
0.0268551
0.0254168
0.0241595
0.0230366
0.0220977
0.0212985
0.0204551
0.0197801
0.0191696
0.018669
0.0182138
0.0178272
0.0174864
0.0171821
0.0169478
0.0169427
0.0166779
0.0163898
0.0162059
0.0160559
0.0160347
0.0161508
0.0159421
0.0157433
0.0156304
0.0156522
0.0158835
0.0156835
0.0155489
0.0154958
0.0154709
0.0154675
0.0537371
0.0440653
0.0374681
0.0322193
0.0288975
0.026292
0.0240934
0.0222455
0.0206594
0.0193065
0.018038
0.0170852
0.0159772
0.0153849
0.0144988
0.0140313
0.0133643
0.0130057
0.0125304
0.0121732
0.0119165
0.0115811
0.0114208
0.0114293
0.0112102
0.0110073
0.0107608
0.0106287
0.0106114
0.0107592
0.0105857
0.0104445
0.0102623
0.0102224
0.010297
0.0104914
0.0103459
0.0102366
0.0101053
0.010094
0.0468771
0.0406897
0.0355419
0.0312735
0.0275327
0.0245342
0.0224222
0.0205714
0.0189641
0.0175639
0.0163435
0.0153018
0.0144155
0.0135698
0.0128371
0.0121982
0.0116575
0.0111115
0.0107675
0.0102539
0.0100282
0.00966982
0.0095153
0.00950162
0.00930952
0.00905888
0.00892737
0.00871904
0.00865671
0.00884779
0.00869114
0.00857675
0.00837838
0.00832939
0.00836174
0.00857787
0.00846195
0.00837857
0.00822773
0.00820747
0.046429
0.0403431
0.035323
0.0311596
0.0276701
0.0247338
0.0220225
0.0198812
0.0183164
0.016925
0.0156986
0.0146438
0.0137587
0.0128996
0.0121466
0.0114874
0.0109113
0.0104083
0.00997206
0.00959712
0.00926822
0.00903851
0.00864719
0.00865108
0.00846533
0.00828433
0.00808467
0.00794405
0.00790041
0.00802835
0.0078746
0.00775767
0.00758868
0.0075223
0.00754857
0.00776044
0.0076485
0.00757292
0.00742507
0.00739552
0.0463335
0.0403842
0.0353731
0.0311742
0.0276478
0.0246907
0.0221187
0.0197218
0.0179948
0.0166458
0.015432
0.014376
0.0134785
0.0126133
0.011854
0.0111886
0.0106078
0.0101022
0.00966282
0.00928247
0.00895651
0.00869301
0.0083913
0.00835701
0.00816481
0.00797366
0.00780472
0.0076651
0.00758209
0.00772506
0.00757472
0.00744654
0.00733379
0.00725475
0.0072727
0.00748535
0.00736627
0.00726718
0.00719987
0.00713322
0.0457134
0.0399886
0.0350617
0.0308903
0.0273819
0.0244164
0.0217442
0.0195208
0.0179598
0.0165935
0.015381
0.0143396
0.0134565
0.0126008
0.0118526
0.0111999
0.0106325
0.0101399
0.00971062
0.00934251
0.00902099
0.0087852
0.00850857
0.0085382
0.00831349
0.00812502
0.00794185
0.00780483
0.00776983
0.0079075
0.00775317
0.00764357
0.00745313
0.00739343
0.00742532
0.00767177
0.00755662
0.00745312
0.00740426
0.00727047
0.0475489
0.0407471
0.035239
0.0307372
0.0270497
0.0238619
0.0215642
0.0198072
0.0182628
0.0169127
0.0157395
0.0147459
0.0138944
0.0130606
0.0123392
0.0117009
0.0111619
0.0107065
0.0102498
0.00994889
0.00951354
0.00932724
0.00909915
0.00914758
0.00893413
0.00877509
0.00849967
0.00839318
0.0083727
0.00852594
0.00836931
0.00825293
0.0080455
0.00800335
0.00790516
0.0080555
0.00829976
0.00817741
0.00807348
0.00790696
0.0542097
0.0438758
0.0369623
0.031475
0.0277032
0.0252381
0.0231404
0.021346
0.0198057
0.0184829
0.017354
0.0163794
0.0154689
0.0146263
0.0140226
0.013223
0.0128169
0.0122379
0.0119505
0.0115021
0.0112785
0.010956
0.010793
0.0108182
0.0105912
0.0103991
0.0101284
0.0100166
0.00999923
0.0101578
0.00998016
0.00982836
0.00964094
0.00958603
0.00959436
0.00971181
0.00992665
0.00977322
0.00963579
0.00949247
0.0638435
0.0553667
0.0469913
0.0401102
0.0358816
0.0329257
0.0305756
0.0285603
0.0268619
0.0254179
0.0241359
0.0231382
0.0220947
0.0212367
0.0204333
0.0197706
0.0191684
0.0186686
0.0182069
0.0178341
0.0174725
0.0171895
0.016947
0.0169504
0.0166807
0.01639
0.0162041
0.0160645
0.0159944
0.0161473
0.0159358
0.0157304
0.0156316
0.0155713
0.0155863
0.0156103
0.0158324
0.015663
0.0155143
0.0154551
0.135437
0.112457
0.0940653
0.0820751
0.0745862
0.0693828
0.0652963
0.0618669
0.0589686
0.0565369
0.0544763
0.0526654
0.0510717
0.0496632
0.0484393
0.0473625
0.046402
0.0455608
0.0448272
0.044195
0.0436422
0.0431737
0.0427769
0.0424116
0.0421033
0.0418536
0.0416323
0.0414317
0.0412456
0.0410752
0.0409354
0.0408257
0.0407329
0.0406575
0.0406001
0.0405752
0.0405414
0.0404932
0.040453
0.0404143
0.0915322
0.077345
0.0665081
0.0583438
0.0526582
0.0483431
0.0449175
0.042112
0.0397321
0.0376868
0.0359261
0.0344227
0.0331054
0.0319339
0.0309138
0.0300278
0.0292573
0.0285908
0.0280212
0.0274968
0.027062
0.0266928
0.0263621
0.0260333
0.0257481
0.0255079
0.0253076
0.0251468
0.0250056
0.0248533
0.0247169
0.0246105
0.0245371
0.0244868
0.0244447
0.0244228
0.0244241
0.024385
0.0243586
0.0243498
0.0542115
0.0438706
0.0369538
0.0314571
0.0276939
0.0252291
0.0231316
0.0213378
0.019797
0.018471
0.0173294
0.0163683
0.0153917
0.0147531
0.0138249
0.0133542
0.0127048
0.0122636
0.0119436
0.0114842
0.011272
0.0109345
0.0107864
0.0108103
0.0105771
0.0103784
0.0101145
0.0100042
0.00999076
0.0101561
0.00997301
0.00980627
0.0096389
0.00955599
0.00967291
0.00990791
0.00976019
0.00959369
0.00949436
0.00950515
0.046606
0.0403011
0.0348722
0.0302973
0.0265938
0.023628
0.0211931
0.019166
0.0174543
0.0159943
0.0147373
0.0136258
0.0127335
0.0119086
0.0111398
0.0104117
0.00994367
0.00955562
0.00910565
0.00875326
0.00839004
0.00810357
0.00791962
0.00797616
0.00780479
0.0076213
0.00736832
0.00722412
0.00722814
0.00739478
0.00726176
0.00711959
0.00691267
0.00682672
0.00689614
0.0071456
0.00704434
0.00693814
0.00677539
0.00673226
0.0478004
0.0414678
0.0361494
0.0316725
0.0278948
0.0247236
0.0220801
0.0198419
0.0179339
0.0162971
0.0148879
0.0136477
0.0126481
0.0117215
0.0109036
0.0101796
0.00955915
0.00901949
0.00854181
0.00804106
0.00775242
0.00751981
0.00733625
0.00732336
0.00712604
0.00693906
0.00677213
0.00657536
0.00656276
0.00670697
0.00656687
0.00644786
0.00625156
0.00615786
0.00620956
0.00643702
0.00634241
0.00624385
0.00610064
0.00604361
0.0496302
0.0430677
0.0375634
0.0329393
0.0290389
0.0257387
0.0229194
0.0205196
0.0184893
0.0167511
0.0152519
0.0139414
0.0128864
0.011906
0.0110459
0.0102905
0.00962814
0.00904784
0.00853729
0.00808332
0.00769791
0.0073125
0.00721067
0.00720406
0.00700047
0.00677014
0.00658835
0.00645142
0.00636687
0.00653479
0.00638412
0.00624862
0.00613059
0.0059975
0.00604626
0.00626514
0.00616071
0.006064
0.00597679
0.00588603
0.050313
0.043644
0.0380729
0.0333908
0.0294371
0.0260852
0.0232238
0.0207619
0.018671
0.0168917
0.0153624
0.0140304
0.0129519
0.0119561
0.0110824
0.0103153
0.00964077
0.00905114
0.00853536
0.00807905
0.00768518
0.0073031
0.00714884
0.00717748
0.00702375
0.00673878
0.00644818
0.0063472
0.00634177
0.0064869
0.00634108
0.00620915
0.00609519
0.00597506
0.00602401
0.00624138
0.00613509
0.00603659
0.00594845
0.0058428
0.0497669
0.0430959
0.0375351
0.032873
0.0289476
0.0256275
0.0228015
0.0203955
0.0183586
0.0166186
0.0151246
0.0138274
0.0127752
0.0118003
0.010945
0.010193
0.00953716
0.00896451
0.0084613
0.00801432
0.00762172
0.00724648
0.00714185
0.00715597
0.00696456
0.00674566
0.00658008
0.00644345
0.00636341
0.00653368
0.00638793
0.00626142
0.00612366
0.00600165
0.00609517
0.00630885
0.00621039
0.00606801
0.00595169
0.00579309
0.0477944
0.0413965