/*--------------------------------*- C++ -*----------------------------------*\
| =========                 |                                                 |
| \\      /  F ield         | OpenFOAM: The Open Source CFD Toolbox           |
|  \\    /   O peration     | Version:  2212                                  |
|   \\  /    A nd           | Website:  www.openfoam.com                      |
|    \\/     M anipulation  |                                                 |
\*---------------------------------------------------------------------------*/
FoamFile
{
    version     2.0;
    format      ascii;
    arch        "LSB;label=32;scalar=64";
    class       volScalarField;
    location    "0.85";
    object      k;
}
// * * * * * * * * * * * * * * * * * * * * * * * * * * * * * * * * * * * * * //

dimensions      [0 2 -2 0 0 0 0];

internalField   nonuniform List<scalar> 
6840
(
0.213564
0.055916
0.0283994
0.0193412
0.0146928
0.0118512
0.00989079
0.0085162
0.00749155
0.0066967
0.00606116
0.00555185
0.00512458
0.00474824
0.00443076
0.00416577
0.00394427
0.00376584
0.00365891
0.0035685
0.264759
0.104702
0.0585298
0.0391631
0.02862
0.0219936
0.0175362
0.0143635
0.0120086
0.0102143
0.00881711
0.0077069
0.00680593
0.0060637
0.00545365
0.00495464
0.00454154
0.00420098
0.00393909
0.00376558
0.283364
0.126774
0.071702
0.0473282
0.0338663
0.0256617
0.0204609
0.0167972
0.0140488
0.0119413
0.0102843
0.00895622
0.0078853
0.0070116
0.00628909
0.00568563
0.00517923
0.00475271
0.00439585
0.00411535
0.292299
0.141633
0.0819301
0.0541654
0.0389231
0.0292874
0.0232722
0.0190785
0.015934
0.0135147
0.0116264
0.0101122
0.00888097
0.00786971
0.00703098
0.006329
0.00573633
0.005232
0.00480207
0.00446696
0.295943
0.148782
0.0871941
0.0576749
0.0415193
0.0310721
0.0246449
0.0202207
0.0169046
0.0143243
0.0123073
0.0107007
0.00939376
0.00831886
0.00742563
0.006676
0.00604068
0.00549695
0.0050307
0.00466688
0.295943
0.148782
0.0871941
0.0576749
0.0415193
0.0310721
0.0246449
0.0202207
0.0169045
0.0143242
0.0123073
0.0107007
0.00939368
0.00831876
0.00742548
0.00667573
0.00604018
0.005496
0.00502848
0.00465875
0.292299
0.141633
0.0819301
0.0541654
0.038923
0.0292874
0.0232722
0.0190785
0.0159339
0.0135146
0.0116263
0.0101121
0.00888081
0.00786949
0.00703064
0.00632845
0.00573542
0.00523044
0.00479993
0.00447135
0.283364
0.126774
0.071702
0.0473282
0.0338663
0.0256617
0.0204609
0.0167971
0.0140487
0.0119413
0.0102842
0.00895613
0.00788517
0.00701138
0.00628878
0.00568514
0.0051784
0.00475122
0.00439267
0.00411006
0.264759
0.104702
0.0585298
0.0391631
0.02862
0.0219936
0.0175362
0.0143635
0.0120086
0.0102143
0.0088171
0.00770688
0.00680588
0.00606367
0.00545355
0.00495435
0.00454085
0.0041994
0.00393555
0.00376202
0.213564
0.055916
0.0283994
0.0193412
0.0146928
0.0118512
0.00989079
0.0085162
0.00749155
0.0066967
0.00606116
0.00555185
0.00512458
0.00474825
0.00443076
0.00416577
0.00394428
0.00376586
0.00365893
0.00356853
0.264759
0.104702
0.0585298
0.0391631
0.02862
0.0219936
0.0175362
0.0143635
0.0120086
0.0102143
0.00881709
0.00770687
0.00680588
0.00606367
0.00545354
0.00495434
0.00454084
0.0041994
0.00393554
0.00376198
0.311746
0.197541
0.130357
0.0911458
0.0668024
0.0508112
0.0397946
0.0319124
0.0260946
0.0216879
0.0182774
0.0155896
0.0134426
0.0117004
0.0102704
0.00908433
0.00809094
0.0072545
0.00655901
0.00588338
0.31754
0.217754
0.151086
0.108549
0.0807156
0.0618727
0.0486774
0.0391418
0.0320587
0.0266716
0.0224902
0.0191874
0.016539
0.0143868
0.0126175
0.0111491
0.00991993
0.0088825
0.00800445
0.00725303
0.319723
0.227073
0.162232
0.118772
0.0893611
0.0689927
0.0545305
0.0439843
0.0360995
0.0300744
0.0253816
0.0216644
0.0186765
0.0162435
0.0142394
0.0125717
0.011171
0.00998422
0.00897038
0.0081002
0.320484
0.23086
0.167176
0.123531
0.0935158
0.0724823
0.0574404
0.0464208
0.0381532
0.0318163
0.0268696
0.0229447
0.0197852
0.0172087
0.0150837
0.0133126
0.0118221
0.0105559
0.00947076
0.00852701
0.320484
0.23086
0.167176
0.123531
0.0935158
0.0724823
0.0574404
0.0464208
0.0381531
0.0318163
0.0268695
0.0229447
0.0197851
0.0172087
0.0150836
0.0133124
0.0118217
0.0105553
0.00946942
0.00852543
0.319723
0.227073
0.162232
0.118772
0.089361
0.0689927
0.0545304
0.0439842
0.0360995
0.0300743
0.0253815
0.0216643
0.0186764
0.0162434
0.0142392
0.0125714
0.0111704
0.00998326
0.00896828
0.00809136
0.31754
0.217754
0.151086
0.108549
0.0807156
0.0618726
0.0486774
0.0391418
0.0320587
0.0266716
0.0224901
0.0191873
0.0165389
0.0143867
0.0126173
0.0111489
0.00991958
0.00888193
0.00800321
0.00725506
0.311746
0.197541
0.130357
0.0911458
0.0668024
0.0508112
0.0397946
0.0319124
0.0260946
0.0216879
0.0182774
0.0155896
0.0134426
0.0117004
0.0102704
0.00908434
0.00809094
0.00725451
0.00655903
0.00588339
0.264759
0.104702
0.0585298
0.0391631
0.02862
0.0219936
0.0175362
0.0143635
0.0120086
0.0102143
0.00881711
0.00770691
0.00680594
0.00606371
0.00545365
0.00495465
0.00454155
0.00420099
0.00393911
0.00376565
0.283364
0.126774
0.071702
0.0473282
0.0338663
0.0256617
0.0204609
0.0167971
0.0140487
0.0119413
0.0102842
0.00895612
0.00788516
0.00701138
0.00628879
0.00568514
0.0051784
0.00475122
0.00439267
0.00411009
0.31754
0.217754
0.151086
0.108549
0.0807156
0.0618726
0.0486774
0.0391418
0.0320587
0.0266716
0.0224901
0.0191873
0.0165389
0.0143867
0.0126174
0.0111489
0.00991958
0.00888192
0.0080032
0.00725507
0.322005
0.239026
0.177588
0.133616
0.102323
0.079867
0.0635107
0.0513823
0.0422219
0.0351798
0.0296762
0.02531
0.021799
0.018941
0.0165887
0.0146334
0.0129936
0.011607
0.0104222
0.00936583
0.323293
0.245617
0.187499
0.144537
0.112864
0.0894039
0.0718633
0.0585865
0.0483996
0.0404744
0.0342248
0.0292335
0.0251994
0.0219031
0.0191825
0.016916
0.0150116
0.0133981
0.0120175
0.0108122
0.323714
0.247819
0.191099
0.14881
0.117249
0.0935707
0.0756572
0.0619604
0.0513624
0.0430609
0.0364787
0.0311988
0.0269167
0.0234081
0.0205058
0.0180836
0.0160451
0.014315
0.0128306
0.0115225
0.323714
0.247819
0.191099
0.14881
0.117249
0.0935707
0.0756572
0.0619604
0.0513624
0.0430608
0.0364787
0.0311987
0.0269167
0.0234081
0.0205058
0.0180837
0.0160452
0.0143153
0.0128318
0.01153
0.323293
0.245617
0.187499
0.144537
0.112864
0.0894039
0.0718633
0.0585865
0.0483996
0.0404743
0.0342248
0.0292335
0.0251994
0.0219031
0.0191824
0.016916
0.0150117
0.0133982
0.0120174
0.0108098
0.322005
0.239026
0.177588
0.133616
0.102323
0.079867
0.0635107
0.0513823
0.0422219
0.0351798
0.0296762
0.02531
0.021799
0.018941
0.0165887
0.0146333
0.0129936
0.011607
0.0104222
0.0093658
0.31754
0.217754
0.151086
0.108549
0.0807156
0.0618727
0.0486774
0.0391418
0.0320587
0.0266716
0.0224902
0.0191874
0.016539
0.0143868
0.0126175
0.0111492
0.00991994
0.00888251
0.00800446
0.00725304
0.283364
0.126774
0.071702
0.0473282
0.0338663
0.0256617
0.0204609
0.0167972
0.0140488
0.0119413
0.0102843
0.00895622
0.0078853
0.0070116
0.00628911
0.00568565
0.00517924
0.00475272
0.00439587
0.0041154
0.292299
0.141633
0.0819301
0.0541654
0.038923
0.0292874
0.0232722
0.0190785
0.0159339
0.0135146
0.0116263
0.0101121
0.0088808
0.00786949
0.00703065
0.00632845
0.00573542
0.00523044
0.00479992
0.00447134
0.319723
0.227073
0.162232
0.118772
0.089361
0.0689927
0.0545304
0.0439842
0.0360995
0.0300743
0.0253815
0.0216643
0.0186764
0.0162433
0.0142393
0.0125714
0.0111704
0.00998326
0.00896828
0.00809137
0.323293
0.245617
0.187499
0.144537
0.112864
0.0894039
0.0718633
0.0585865
0.0483996
0.0404743
0.0342248
0.0292335
0.0251994
0.0219031
0.0191825
0.016916
0.0150117
0.0133982
0.0120174
0.0108098
0.324288
0.250862
0.19613
0.154888
0.123591
0.09968
0.0812742
0.0669838
0.0557849
0.0469225
0.0398397
0.034124
0.0294678
0.0256406
0.0224679
0.0198162
0.0175828
0.0156865
0.0140583
0.0126245
0.32459
0.252403
0.19891
0.158543
0.12769
0.103871
0.08532
0.0707498
0.0592098
0.0499926
0.0425683
0.0365382
0.0316003
0.0275247
0.024135
0.0212949
0.0188978
0.0168583
0.0151011
0.0135331
0.32459
0.252403
0.19891
0.158543
0.12769
0.103871
0.08532
0.0707498
0.0592098
0.0499926
0.0425683
0.0365382
0.0316003
0.0275248
0.024135
0.0212949
0.0188979
0.0168587
0.0151029
0.0135436
0.324288
0.250862
0.19613
0.154888
0.123591
0.09968
0.0812742
0.0669838
0.0557849
0.0469225
0.0398397
0.034124
0.0294678
0.0256406
0.0224678
0.0198162
0.0175828
0.0156864
0.0140583
0.0126245
0.323293
0.245617
0.187499
0.144537
0.112864
0.0894039
0.0718633
0.0585865
0.0483996
0.0404744
0.0342248
0.0292335
0.0251994
0.0219031
0.0191825
0.016916
0.0150116
0.0133981
0.0120174
0.010812
0.319723
0.227073
0.162232
0.118772
0.0893611
0.0689927
0.0545305
0.0439843
0.0360995
0.0300744
0.0253816
0.0216644
0.0186765
0.0162435
0.0142395
0.0125717
0.011171
0.00998422
0.00897039
0.00810017
0.292299
0.141633
0.0819301
0.0541654
0.0389231
0.0292874
0.0232722
0.0190785
0.015934
0.0135147
0.0116264
0.0101122
0.00888097
0.00786971
0.00703099
0.00632901
0.00573634
0.00523202
0.00480208
0.00446696
0.295943
0.148782
0.0871941
0.0576749
0.0415193
0.0310721
0.0246449
0.0202207
0.0169045
0.0143242
0.0123073
0.0107007
0.00939369
0.00831876
0.00742548
0.00667573
0.00604018
0.00549601
0.00502848
0.00465878
0.320484
0.23086
0.167176
0.123531
0.0935158
0.0724823
0.0574404
0.0464208
0.0381531
0.0318163
0.0268695
0.0229447
0.0197851
0.0172087
0.0150836
0.0133124
0.0118217
0.0105553
0.00946942
0.00852542
0.323714
0.247819
0.191099
0.14881
0.117249
0.0935707
0.0756572
0.0619604
0.0513624
0.0430608
0.0364787
0.0311987
0.0269167
0.0234081
0.0205058
0.0180837
0.0160452
0.0143153
0.0128318
0.0115299
0.32459
0.252403
0.19891
0.158543
0.12769
0.103871
0.08532
0.0707498
0.0592098
0.0499926
0.0425683
0.0365382
0.0316003
0.0275247
0.024135
0.0212949
0.0188979
0.0168587
0.0151029
0.0135436
0.324844
0.253685
0.20131
0.161836
0.131535
0.107943
0.08937
0.0746125
0.062792
0.0532534
0.0455013
0.0391574
0.0339303
0.0295946
0.0259744
0.022932
0.0203581
0.0181642
0.0162716
0.0145901
0.324844
0.253685
0.20131
0.161836
0.131535
0.107943
0.08937
0.0746125
0.062792
0.0532534
0.0455013
0.0391574
0.0339303
0.0295946
0.0259744
0.022932
0.0203581
0.0181642
0.0162716
0.0145901
0.32459
0.252403
0.19891
0.158543
0.12769
0.103871
0.08532
0.0707498
0.0592098
0.0499926
0.0425683
0.0365382
0.0316003
0.0275247
0.024135
0.0212949
0.0188978
0.0168583
0.0151011
0.0135331
0.323714
0.247819
0.191099
0.14881
0.117249
0.0935707
0.0756572
0.0619604
0.0513624
0.0430609
0.0364787
0.0311988
0.0269167
0.0234081
0.0205058
0.0180836
0.0160451
0.014315
0.0128306
0.0115224
0.320484
0.23086
0.167176
0.123531
0.0935158
0.0724823
0.0574404
0.0464208
0.0381532
0.0318163
0.0268696
0.0229447
0.0197852
0.0172087
0.0150837
0.0133126
0.0118221
0.0105559
0.00947077
0.008527
0.295943
0.148782
0.0871941
0.0576749
0.0415193
0.0310721
0.0246449
0.0202207
0.0169046
0.0143243
0.0123073
0.0107007
0.00939376
0.00831886
0.00742564
0.00667601
0.00604069
0.00549696
0.00503071
0.00466688
0.295943
0.148782
0.0871941
0.0576749
0.0415193
0.0310721
0.0246449
0.0202207
0.0169046
0.0143243
0.0123073
0.0107007
0.00939376
0.00831887
0.00742563
0.00667601
0.00604069
0.00549696
0.00503071
0.00466688
0.320484
0.23086
0.167176
0.123531
0.0935158
0.0724823
0.0574404
0.0464208
0.0381532
0.0318163
0.0268696
0.0229447
0.0197852
0.0172087
0.0150837
0.0133126
0.0118221
0.0105559
0.00947077
0.00852701
0.323714
0.247819
0.191099
0.14881
0.117249
0.0935707
0.0756572
0.0619604
0.0513625
0.0430609
0.0364787
0.0311988
0.0269167
0.0234081
0.0205058
0.0180836
0.0160451
0.014315
0.0128306
0.0115225
0.32459
0.252403
0.19891
0.158543
0.12769
0.103871
0.08532
0.0707498
0.0592098
0.0499926
0.0425683
0.0365382
0.0316003
0.0275247
0.024135
0.0212949
0.0188978
0.0168583
0.0151011
0.0135331
0.324844
0.253685
0.20131
0.161836
0.131535
0.107943
0.08937
0.0746125
0.062792
0.0532534
0.0455013
0.0391574
0.0339303
0.0295946
0.0259744
0.022932
0.0203581
0.0181642
0.0162716
0.0145901
0.324844
0.253685
0.20131
0.161836
0.131535
0.107943
0.08937
0.0746125
0.062792
0.0532534
0.0455013
0.0391574
0.0339303
0.0295946
0.0259744
0.022932
0.0203581
0.0181642
0.0162716
0.0145901
0.32459
0.252403
0.19891
0.158543
0.12769
0.103871
0.08532
0.0707498
0.0592098
0.0499926
0.0425683
0.0365382
0.0316003
0.0275247
0.024135
0.0212949
0.0188979
0.0168587
0.0151029
0.0135436
0.323714
0.247819
0.191099
0.14881
0.117249
0.0935707
0.0756572
0.0619604
0.0513624
0.0430608
0.0364787
0.0311988
0.0269167
0.0234081
0.0205058
0.0180837
0.0160452
0.0143153
0.0128318
0.01153
0.320484
0.23086
0.167176
0.123531
0.0935158
0.0724823
0.0574404
0.0464208
0.0381531
0.0318163
0.0268695
0.0229447
0.0197851
0.0172086
0.0150836
0.0133124
0.0118217
0.0105553
0.00946942
0.00852542
0.295943
0.148782
0.0871941
0.0576749
0.0415193
0.0310721
0.0246449
0.0202207
0.0169045
0.0143242
0.0123073
0.0107007
0.00939369
0.00831876
0.00742547
0.00667572
0.00604017
0.005496
0.00502847
0.00465876
0.292299
0.141633
0.0819301
0.0541654
0.0389231
0.0292874
0.0232722
0.0190785
0.015934
0.0135147
0.0116264
0.0101122
0.00888098
0.00786971
0.00703098
0.006329
0.00573634
0.00523202
0.00480209
0.00446697
0.319723
0.227073
0.162232
0.118772
0.0893611
0.0689927
0.0545305
0.0439843
0.0360995
0.0300744
0.0253816
0.0216644
0.0186765
0.0162435
0.0142395
0.0125717
0.011171
0.00998424
0.00897041
0.0081002
0.323293
0.245617
0.187499
0.144537
0.112864
0.0894039
0.0718633
0.0585865
0.0483996
0.0404744
0.0342249
0.0292335
0.0251994
0.0219031
0.0191825
0.016916
0.0150117
0.0133981
0.0120175
0.0108121
0.324288
0.250862
0.19613
0.154888
0.123591
0.09968
0.0812742
0.0669838
0.0557849
0.0469225
0.0398397
0.034124
0.0294678
0.0256406
0.0224679
0.0198162
0.0175828
0.0156865
0.0140584
0.0126245
0.32459
0.252403
0.19891
0.158543
0.12769
0.103871
0.08532
0.0707498
0.0592098
0.0499926
0.0425683
0.0365382
0.0316003
0.0275248
0.0241351
0.0212949
0.0188979
0.0168587
0.0151029
0.0135436
0.32459
0.252403
0.19891
0.158543
0.12769
0.103871
0.08532
0.0707498
0.0592098
0.0499926
0.0425683
0.0365382
0.0316003
0.0275247
0.024135
0.0212949
0.0188978
0.0168583
0.0151011
0.0135331
0.324288
0.250862
0.19613
0.154888
0.123591
0.09968
0.0812742
0.0669838
0.0557849
0.0469225
0.0398397
0.034124
0.0294678
0.0256406
0.0224678
0.0198162
0.0175828
0.0156865
0.0140583
0.0126246
0.323293
0.245617
0.187499
0.144537
0.112864
0.0894039
0.0718633
0.0585865
0.0483996
0.0404743
0.0342248
0.0292335
0.0251994
0.0219031
0.0191824
0.016916
0.0150117
0.0133982
0.0120174
0.0108098
0.319723
0.227073
0.162232
0.118772
0.089361
0.0689927
0.0545304
0.0439842
0.0360995
0.0300743
0.0253815
0.0216643
0.0186764
0.0162433
0.0142392
0.0125714
0.0111704
0.00998326
0.00896828
0.00809136
0.292299
0.141633
0.0819301
0.0541654
0.038923
0.0292874
0.0232722
0.0190785
0.0159339
0.0135146
0.0116263
0.0101121
0.00888081
0.00786949
0.00703064
0.00632844
0.00573541
0.00523043
0.00479992
0.00447134
0.283364
0.126774
0.071702
0.0473282
0.0338663
0.0256617
0.0204609
0.0167972
0.0140488
0.0119413
0.0102843
0.00895622
0.0078853
0.0070116
0.0062891
0.00568564
0.00517924
0.00475272
0.00439587
0.00411539
0.31754
0.217754
0.151086
0.108549
0.0807156
0.0618727
0.0486774
0.0391418
0.0320587
0.0266716
0.0224902
0.0191874
0.016539
0.0143868
0.0126175
0.0111492
0.00991995
0.00888253
0.00800448
0.00725307
0.322005
0.239026
0.177588
0.133616
0.102323
0.079867
0.0635107
0.0513823
0.0422219
0.0351798
0.0296762
0.02531
0.021799
0.018941
0.0165887
0.0146334
0.0129936
0.011607
0.0104222
0.00936585
0.323293
0.245617
0.187499
0.144537
0.112864
0.0894039
0.0718633
0.0585865
0.0483996
0.0404743
0.0342248
0.0292335
0.0251994
0.0219031
0.0191825
0.016916
0.0150117
0.0133982
0.0120175
0.0108098
0.323714
0.247819
0.191099
0.14881
0.117249
0.0935707
0.0756572
0.0619604
0.0513624
0.0430608
0.0364787
0.0311987
0.0269167
0.0234081
0.0205058
0.0180837
0.0160453
0.0143153
0.0128318
0.01153
0.323714
0.247819
0.191099
0.14881
0.117249
0.0935707
0.0756572
0.0619604
0.0513625
0.0430609
0.0364787
0.0311988
0.0269167
0.0234081
0.0205058
0.0180836
0.0160451
0.014315
0.0128306
0.0115224
0.323293
0.245617
0.187499
0.144537
0.112864
0.0894039
0.0718633
0.0585865
0.0483996
0.0404744
0.0342248
0.0292335
0.0251994
0.0219031
0.0191825
0.016916
0.0150116
0.0133981
0.0120174
0.010812
0.322005
0.239026
0.177588
0.133616
0.102323
0.079867
0.0635107
0.0513823
0.0422219
0.0351798
0.0296762
0.02531
0.021799
0.018941
0.0165887
0.0146333
0.0129936
0.011607
0.0104222
0.00936578
0.31754
0.217754
0.151086
0.108549
0.0807156
0.0618726
0.0486774
0.0391418
0.0320587
0.0266716
0.0224901
0.0191873
0.0165389
0.0143867
0.0126173
0.0111489
0.00991957
0.00888192
0.0080032
0.00725506
0.283364
0.126774
0.071702
0.0473282
0.0338663
0.0256617
0.0204609
0.0167971
0.0140487
0.0119413
0.0102842
0.00895612
0.00788516
0.00701138
0.00628878
0.00568514
0.0051784
0.00475122
0.00439266
0.00411007
0.264759
0.104702
0.0585298
0.0391631
0.02862
0.0219936
0.0175362
0.0143635
0.0120086
0.0102143
0.00881711
0.00770691
0.00680594
0.00606371
0.00545366
0.00495465
0.00454155
0.00420099
0.00393911
0.00376566
0.311746
0.197541
0.130357
0.0911458
0.0668024
0.0508113
0.0397946
0.0319124
0.0260947
0.0216879
0.0182774
0.0155897
0.0134426
0.0117004
0.0102705
0.00908435
0.00809095
0.00725452
0.00655904
0.00588342
0.31754
0.217754
0.151086
0.108549
0.0807156
0.0618726
0.0486774
0.0391418
0.0320587
0.0266716
0.0224901
0.0191873
0.0165389
0.0143867
0.0126174
0.011149
0.00991959
0.00888194
0.00800322
0.00725509
0.319723
0.227073
0.162232
0.118772
0.089361
0.0689927
0.0545304
0.0439842
0.0360995
0.0300743
0.0253815
0.0216643
0.0186764
0.0162433
0.0142393
0.0125714
0.0111704
0.00998327
0.00896829
0.00809137
0.320484
0.23086
0.167176
0.123531
0.0935158
0.0724823
0.0574404
0.0464208
0.0381531
0.0318163
0.0268695
0.0229447
0.0197851
0.0172087
0.0150836
0.0133124
0.0118217
0.0105553
0.00946941
0.00852542
0.320484
0.23086
0.167176
0.123531
0.0935158
0.0724823
0.0574404
0.0464208
0.0381532
0.0318163
0.0268696
0.0229447
0.0197852
0.0172087
0.0150837
0.0133126
0.0118221
0.0105559
0.00947076
0.00852699
0.319723
0.227073
0.162232
0.118772
0.0893611
0.0689927
0.0545305
0.0439843
0.0360995
0.0300744
0.0253816
0.0216644
0.0186765
0.0162435
0.0142395
0.0125717
0.011171
0.00998422
0.00897039
0.00810019
0.31754
0.217754
0.151086
0.108549
0.0807156
0.0618727
0.0486774
0.0391418
0.0320587
0.0266716
0.0224902
0.0191874
0.016539
0.0143868
0.0126175
0.0111492
0.00991993
0.0088825
0.00800446
0.00725303
0.311746
0.197541
0.130357
0.0911458
0.0668024
0.0508112
0.0397946
0.0319124
0.0260946
0.0216879
0.0182774
0.0155896
0.0134426
0.0117004
0.0102704
0.00908434
0.00809094
0.0072545
0.00655902
0.0058834
0.264759
0.104702
0.0585298
0.0391631
0.02862
0.0219936
0.0175362
0.0143635
0.0120086
0.0102143
0.00881709
0.00770688
0.00680588
0.00606367
0.00545354
0.00495434
0.00454084
0.0041994
0.00393554
0.00376199
0.213564
0.055916
0.0283994
0.0193412
0.0146928
0.0118512
0.00989079
0.0085162
0.00749155
0.0066967
0.00606116
0.00555185
0.00512458
0.00474825
0.00443076
0.00416578
0.00394428
0.00376586
0.00365894
0.00356854
0.264759
0.104702
0.0585298
0.0391631
0.02862
0.0219936
0.0175362
0.0143635
0.0120086
0.0102143
0.0088171
0.00770688
0.00680589
0.00606367
0.00545355
0.00495435
0.00454085
0.00419941
0.00393555
0.003762
0.283364
0.126774
0.071702
0.0473282
0.0338663
0.0256617
0.0204609
0.0167971
0.0140487
0.0119413
0.0102842
0.00895613
0.00788516
0.00701138
0.00628879
0.00568515
0.00517841
0.00475123
0.00439267
0.00411009
0.292299
0.141633
0.0819301
0.0541654
0.038923
0.0292874
0.0232722
0.0190785
0.0159339
0.0135146
0.0116263
0.0101121
0.0088808
0.00786949
0.00703065
0.00632845
0.00573542
0.00523044
0.00479992
0.00447134
0.295943
0.148782
0.0871941
0.0576749
0.0415193
0.0310721
0.0246449
0.0202207
0.0169045
0.0143242
0.0123073
0.0107007
0.00939368
0.00831876
0.00742547
0.00667573
0.00604017
0.005496
0.00502847
0.00465875
0.295943
0.148782
0.0871941
0.0576749
0.0415193
0.0310721
0.0246449
0.0202207
0.0169046
0.0143243
0.0123073
0.0107007
0.00939376
0.00831886
0.00742563
0.006676
0.00604068
0.00549696
0.00503071
0.00466687
0.292299
0.141633
0.0819301
0.0541654
0.0389231
0.0292874
0.0232722
0.0190785
0.015934
0.0135147
0.0116264
0.0101122
0.00888097
0.00786971
0.00703099
0.00632901
0.00573634
0.00523201
0.00480208
0.00446695
0.283364
0.126774
0.071702
0.0473282
0.0338663
0.0256617
0.0204609
0.0167972
0.0140488
0.0119413
0.0102843
0.00895622
0.0078853
0.0070116
0.0062891
0.00568564
0.00517924
0.00475272
0.00439586
0.00411538
0.264759
0.104702
0.0585298
0.0391631
0.02862
0.0219936
0.0175362
0.0143635
0.0120086
0.0102143
0.00881711
0.00770691
0.00680594
0.00606371
0.00545365
0.00495465
0.00454154
0.00420098
0.0039391
0.00376568
0.213564
0.055916
0.0283994
0.0193412
0.0146928
0.0118512
0.00989079
0.0085162
0.00749155
0.0066967
0.00606116
0.00555185
0.00512458
0.00474824
0.00443076
0.00416577
0.00394427
0.00376584
0.00365891
0.00356856
0.00495257
0.004207
0.00356471
0.00320076
0.00298089
0.00284345
0.00274153
0.00265743
0.00258877
0.00253218
0.00248434
0.00244134
0.0024014
0.00236496
0.00233221
0.00230277
0.0022766
0.00225324
0.00223228
0.00221371
0.0021971
0.00218246
0.00217064
0.00215969
0.00215079
0.00214194
0.00213321
0.00212543
0.0021194
0.00211455
0.00211078
0.00210622
0.00210149
0.00209768
0.00209628
0.00209471
0.00209441
0.00209318
0.0020916
0.00208925
0.00407485
0.00360241
0.0032025
0.00292521
0.00274638
0.00261882
0.00251595
0.00242715
0.00235106
0.00228619
0.00222865
0.00217796
0.00213341
0.00209279
0.00205599
0.00202264
0.00199284
0.00196657
0.00194339
0.00192319
0.00190544
0.00189019
0.00187679
0.00186581
0.00185582
0.00184692
0.00183911
0.00183208
0.00182511
0.00182016
0.00181559
0.00181135
0.00180775
0.00180392
0.00180206
0.00180049
0.00179914
0.00179816
0.00179753
0.00179686
0.0039165
0.00358932
0.00330828
0.00308746
0.00291825
0.0027725
0.00264752
0.00254124
0.00244952
0.00236908
0.0022984
0.00223582
0.00218053
0.0021323
0.00208902
0.00204784
0.00201206
0.00198104
0.00195396
0.00193063
0.00191007
0.00189108
0.00187543
0.00186268
0.00185026
0.00183849
0.00182817
0.00181954
0.0018125
0.00180642
0.0018002
0.00179425
0.00178961
0.00178705
0.00178525
0.00178169
0.00178014
0.00177834
0.00177736
0.00177662
0.003941
0.0036663
0.00342833
0.00322413
0.00304846
0.00289597
0.00276163
0.00264324
0.00253835
0.00244516
0.00236215
0.00228825
0.00222206
0.00216248
0.00210925
0.00206203
0.00202043
0.00198387
0.00195173
0.00192351
0.00189864
0.00187696
0.00185683
0.00183992
0.00182488
0.00181068
0.00179808
0.00178793
0.00177697
0.00176912
0.00176415
0.00175843
0.00175331
0.0017496
0.00174461
0.0017422
0.00174226
0.00174115
0.00173976
0.0017391
0.00431442
0.00385439
0.00355416
0.00332119
0.00312773
0.00296299
0.00282141
0.00269732
0.00258642
0.002487
0.00239774
0.00231773
0.00224585
0.00218063
0.00212217
0.00207006
0.0020238
0.00198292
0.00194681
0.00191506
0.00188731
0.0018632
0.00184284
0.00182616
0.00180864
0.00179265
0.00177791
0.00176659
0.00175427
0.00174523
0.0017401
0.00173407
0.00172834
0.0017243
0.0017172
0.00171563
0.00171639
0.00171539
0.00171401
0.00171287
0.00436029
0.00391081
0.00360439
0.003358
0.0031537
0.00298056
0.00283197
0.00270339
0.00258879
0.00248553
0.0023925
0.00230891
0.00223362
0.0021657
0.0021052
0.00205156
0.00200413
0.00196222
0.00192527
0.00189282
0.00186439
0.00183962
0.00181864
0.0018008
0.00178286
0.00176645
0.00175214
0.00174018
0.00172725
0.0017187
0.00171282
0.00170627
0.00170026
0.00169552
0.0016913
0.00169159
0.00169097
0.00168945
0.00168667
0.00168469
0.00422781
0.00383199
0.0035391
0.00330281
0.00310362
0.00293274
0.00278512
0.00265598
0.00254058
0.00243734
0.00234494
0.00226249
0.0021887
0.00212245
0.00206354
0.00201144
0.00196548
0.00192504
0.00188955
0.0018585
0.00183137
0.0018078
0.00178769
0.00177007
0.00175264
0.00173666
0.00172279
0.0017112
0.00170037
0.00169266
0.00168547
0.00167769
0.00167142
0.00166682
0.00166288
0.00166344
0.00166239
0.00166102
0.00165824
0.00165651
0.00396125
0.00367582
0.00341729
0.00318847
0.00299134
0.00282403
0.00268007
0.0025547
0.00244476
0.00234778
0.00226201
0.00218622
0.00211849
0.00205773
0.00200403
0.00195676
0.00191522
0.00187875
0.00184682
0.00181913
0.00179493
0.00177388
0.00175563
0.00173918
0.00172327
0.00170883
0.0016966
0.0016865
0.00167827
0.00167188
0.0016641
0.00165651
0.00165098
0.00164705
0.00164447
0.00164097
0.00164025
0.00164054
0.00163832
0.0016372
0.00409317
0.00365361
0.00330667
0.00301811
0.00281331
0.00265598
0.00252724
0.00241902
0.00232573
0.00224349
0.0021714
0.00210877
0.00205231
0.00200122
0.00195585
0.00191606
0.00188124
0.00184975
0.00182144
0.00179688
0.00177581
0.00175742
0.00173972
0.0017244
0.00171081
0.00169811
0.00168733
0.00167888
0.00166987
0.00166331
0.00165738
0.00165132
0.00164679
0.00164375
0.0016414
0.00163981
0.00163888
0.00163738
0.0016359
0.00163498
0.00423676
0.00372791
0.00325322
0.00291544
0.00269881
0.00255261
0.00244152
0.00234878
0.00227328
0.00220566
0.00215072
0.00210364
0.0020542
0.00200893
0.00197007
0.00193605
0.001906
0.00187928
0.00185547
0.00183456
0.00181633
0.00180093
0.00178655
0.00177402
0.00176321
0.0017538
0.00174556
0.00173814
0.00173039
0.00172429
0.00171945
0.00171535
0.00171199
0.00170922
0.00170596
0.00170612
0.00170417
0.00170272
0.00170131
0.00169981
0.00495257
0.00420704
0.00356478
0.00320082
0.00298106
0.00284365
0.00274177
0.00265762
0.00258899
0.00253197
0.00248464
0.00244146
0.00240096
0.00236429
0.00233171
0.00230254
0.0022765
0.0022532
0.00223228
0.00221373
0.00219708
0.00218257
0.00217082
0.00216013
0.00215099
0.00214208
0.00213329
0.00212547
0.00211937
0.00211466
0.0021106
0.00210614
0.00210176
0.00209838
0.00209631
0.00209641
0.00209542
0.00209329
0.00209076
0.00208708
0.00423674
0.00372788
0.00325324
0.00291514
0.00269854
0.00255231
0.0024412
0.00234854
0.002273
0.00220588
0.0021504
0.00210318
0.00205482
0.00200998
0.00197079
0.00193646
0.00190625
0.00187954
0.00185576
0.00183489
0.00181669
0.00180124
0.00178682
0.00177447
0.00176359
0.0017542
0.00174602
0.00173866
0.00173089
0.0017251
0.00172024
0.00171613
0.00171253
0.00170881
0.00170906
0.00170585
0.00170373
0.00170275
0.00170216
0.00170147
0.00422625
0.00375267
0.00335807
0.0031151
0.00295576
0.00279963
0.00264214
0.00248749
0.00235479
0.00223514
0.00212243
0.00202331
0.00193387
0.00184562
0.00176733
0.00169956
0.00164
0.0015875
0.00154179
0.00150236
0.00146487
0.00143582
0.00141199
0.00138195
0.00135594
0.00133666
0.00132196
0.00131079
0.00129839
0.00128198
0.00126908
0.00126132
0.00125715
0.00125387
0.00124694
0.00123989
0.00123839
0.00123849
0.00124053
0.00124334
0.00555533
0.00506015
0.00462968
0.00427394
0.0039637
0.00369199
0.00345124
0.00323664
0.00304328
0.00286874
0.00271169
0.00257045
0.00244258
0.00232676
0.00222518
0.00213336
0.00205215
0.00197899
0.00191546
0.00186016
0.00181054
0.00176742
0.00172335
0.00168176
0.00164361
0.00161146
0.00158577
0.00156773
0.00154456
0.00152291
0.00150439
0.00149002
0.00148141
0.00147625
0.00146924
0.00146025
0.00145044
0.00144983
0.00145095
0.00145517
0.00685495
0.00615396
0.00557664
0.00509267
0.004685
0.00433581
0.00402774
0.00375519
0.00351254
0.00329611
0.00310275
0.00292929
0.00277256
0.00263254
0.00250746
0.00239591
0.00229686
0.00220924
0.00213169
0.00206487
0.00200432
0.00195258
0.00190011
0.00185275
0.00181082
0.00177404
0.00174284
0.0017199
0.00169211
0.00166795
0.00164841
0.0016316
0.00161956
0.00161192
0.00160096
0.00159164
0.00158419
0.00158096
0.00158218
0.0015847
0.00727547
0.00662966
0.00605138
0.00554186
0.00509514
0.00470299
0.00436203
0.00406332
0.00379577
0.00355577
0.00334064
0.00314756
0.0029743
0.00281831
0.00267898
0.00255489
0.00244458
0.00234676
0.00226012
0.00218373
0.00211618
0.00205777
0.00200103
0.00195169
0.00190371
0.00186271
0.00182999
0.0018021
0.00177584
0.00175314
0.00173107
0.00170986
0.0016944
0.00168375
0.00167097
0.00166279
0.00165795
0.00165359
0.00165424
0.00165517
0.00756202
0.00684941
0.00623531
0.00570332
0.00524055
0.0048354
0.00448017
0.00417244
0.00389948
0.00365354
0.00343246
0.00323358
0.00305473
0.0028941
0.00275029
0.00262209
0.00250806
0.00240681
0.00231708
0.00223784
0.0021678
0.00210711
0.00204822
0.0019961
0.00194812
0.00190616
0.00187057
0.00184165
0.00181076
0.00178443
0.00176114
0.00174221
0.0017279
0.00171625
0.00170925
0.00170302
0.00169722
0.0016882
0.00168747
0.00168798
0.00725256
0.00660874
0.00603285
0.00552654
0.00508398
0.00469706
0.00436112
0.00406874
0.00380688
0.00357144
0.00336013
0.00316989
0.00299796
0.00284371
0.00270553
0.00258231
0.00247264
0.00237516
0.00228881
0.0022126
0.00214543
0.00208704
0.00202997
0.00197699
0.00193081
0.00188918
0.0018532
0.00182556
0.00179319
0.00176527
0.00174324
0.00172472
0.00171057
0.00170046
0.00169032
0.00168337
0.00167498
0.0016719
0.00167237
0.00167345
0.00681349
0.00610422
0.00552537
0.00504489
0.00464162
0.00430235
0.00400782
0.0037463
0.00351231
0.00330229
0.00311347
0.00294282
0.00278725
0.00264742
0.00252232
0.00241129
0.00231213
0.00222392
0.00214581
0.00207775
0.00201799
0.00196517
0.00191205
0.00186207
0.00181774
0.00177787
0.00174537
0.00172165
0.00169266
0.00166638
0.00164507
0.00162724
0.00161521
0.00160836
0.00160326
0.00159885
0.00159004
0.00158212
0.00158038
0.00158381
0.00543013
0.00495336
0.00451624
0.00416523
0.00387827
0.00362791
0.00340094
0.00319576
0.00300889
0.00283749
0.00268028
0.00253587
0.00240515
0.0022866
0.00218081
0.00208896
0.00200498
0.00193043
0.00186346
0.00180649
0.00175452
0.00171141
0.00166688
0.00162361
0.00158343
0.00155038
0.00152516
0.00150779
0.00148551
0.00146285
0.00144346
0.00142921
0.00142138
0.00141806
0.0014145
0.0014104
0.00140173
0.0013932
0.00139424
0.0013986
0.00422627
0.00375283
0.00335802
0.00311511
0.0029565
0.00280054
0.00264295
0.00248814
0.00235545
0.00223425
0.00212384
0.00202378
0.00193159
0.00184263
0.00176608
0.00169939
0.00164024
0.00158767
0.00154184
0.00150221
0.00146411
0.00143549
0.00141154
0.00138114
0.00135489
0.00133571
0.00132118
0.00131014
0.0012981
0.0012811
0.00126777
0.00125998
0.00125593
0.00125416
0.00125159
0.00124985
0.00124265
0.00123686
0.00123699
0.00123978
0.00407483
0.00360244
0.00320252
0.00292493
0.00274647
0.00261905
0.00251622
0.00242737
0.00235138
0.00228599
0.00222878
0.00217837
0.00213313
0.00209205