/*--------------------------------*- C++ -*----------------------------------*\
| =========                 |                                                 |
| \\      /  F ield         | OpenFOAM: The Open Source CFD Toolbox           |
|  \\    /   O peration     | Version:  2212                                  |
|   \\  /    A nd           | Website:  www.openfoam.com                      |
|    \\/     M anipulation  |                                                 |
\*---------------------------------------------------------------------------*/
FoamFile
{
    version     2.0;
    format      ascii;
    arch        "LSB;label=32;scalar=64";
    class       volScalarField;
    location    "0.85";
    object      nut;
}
// * * * * * * * * * * * * * * * * * * * * * * * * * * * * * * * * * * * * * //

dimensions      [0 2 -1 0 0 0 0];

internalField   nonuniform List<scalar> 
6840
(
4.5356e-05
2.3208e-05
1.65396e-05
1.36494e-05
1.18966e-05
1.06844e-05
9.76082e-06
9.05719e-06
8.49487e-06
8.03159e-06
7.641e-06
7.31293e-06
7.02592e-06
6.76302e-06
6.53305e-06
6.33476e-06
6.16414e-06
6.02322e-06
5.93738e-06
5.8597e-06
0.000107685
6.77183e-05
5.06311e-05
4.14159e-05
3.54049e-05
3.10368e-05
2.77138e-05
2.50818e-05
2.29338e-05
2.11511e-05
1.96514e-05
1.83727e-05
1.72654e-05
1.62971e-05
1.54558e-05
1.47322e-05
1.41057e-05
1.35684e-05
1.31436e-05
1.28432e-05
0.000160509
0.00010736
8.07409e-05
6.55976e-05
5.54896e-05
4.83026e-05
4.31311e-05
3.90793e-05
3.57395e-05
3.29501e-05
3.05787e-05
2.85363e-05
2.67762e-05
2.52496e-05
2.3914e-05
2.27389e-05
2.17045e-05
2.07952e-05
2.00074e-05
1.93618e-05
0.000198681
0.0001383
0.000105187
8.55269e-05
7.25012e-05
6.28901e-05
5.60611e-05
5.07592e-05
4.6388e-05
4.27216e-05
3.96249e-05
3.69548e-05
3.46325e-05
3.26016e-05
3.08162e-05
2.92389e-05
2.78387e-05
2.6591e-05
2.54804e-05
2.45705e-05
0.000218609
0.000155003
0.000118661
9.65068e-05
8.18823e-05
7.08354e-05
6.30853e-05
5.71431e-05
5.22477e-05
4.80953e-05
4.45809e-05
4.15695e-05
3.89484e-05
3.66526e-05
3.46293e-05
3.28356e-05
3.12355e-05
2.97988e-05
2.8512e-05
2.74774e-05
0.000218609
0.000155003
0.000118661
9.65068e-05
8.18822e-05
7.08354e-05
6.30853e-05
5.7143e-05
5.22475e-05
4.8095e-05
4.45804e-05
4.15687e-05
3.89472e-05
3.66507e-05
3.46264e-05
3.28305e-05
3.12265e-05
2.97835e-05
2.84846e-05
2.74244e-05
0.000198681
0.0001383
0.000105187
8.55269e-05
7.25012e-05
6.289e-05
5.60609e-05
5.0759e-05
4.63876e-05
4.27211e-05
3.9624e-05
3.69534e-05
3.46303e-05
3.25982e-05
3.08106e-05
2.92295e-05
2.78229e-05
2.65642e-05
2.54393e-05
2.45533e-05
0.000160509
0.00010736
8.07409e-05
6.55976e-05
5.54896e-05
4.83026e-05
4.3131e-05
3.90791e-05
3.57392e-05
3.29496e-05
3.0578e-05
2.85352e-05
2.67744e-05
2.52469e-05
2.39095e-05
2.27315e-05
2.16921e-05
2.07733e-05
1.99662e-05
1.93152e-05
0.000107685
6.77183e-05
5.06311e-05
4.14159e-05
3.54049e-05
3.10368e-05
2.77138e-05
2.50818e-05
2.29337e-05
2.1151e-05
1.96512e-05
1.83723e-05
1.72649e-05
1.6296e-05
1.5454e-05
1.47289e-05
1.40994e-05
1.35556e-05
1.31156e-05
1.28136e-05
4.5356e-05
2.3208e-05
1.65396e-05
1.36494e-05
1.18966e-05
1.06844e-05
9.76082e-06
9.05719e-06
8.49487e-06
8.03159e-06
7.64101e-06
7.31293e-06
7.02592e-06
6.76303e-06
6.53305e-06
6.33476e-06
6.16414e-06
6.02321e-06
5.93738e-06
5.85973e-06
0.000107685
6.77183e-05
5.06311e-05
4.14159e-05
3.54049e-05
3.10368e-05
2.77138e-05
2.50818e-05
2.29337e-05
2.1151e-05
1.96512e-05
1.83723e-05
1.72649e-05
1.6296e-05
1.5454e-05
1.4729e-05
1.40994e-05
1.35556e-05
1.31157e-05
1.28135e-05
0.000528907
0.000369984
0.000305097
0.000261371
0.000228528
0.000202476
0.000181114
0.000163073
0.000147539
0.000133983
0.000122048
0.000111464
0.000102131
9.38559e-05
8.6456e-05
7.96564e-05
7.34601e-05
6.79605e-05
6.37575e-05
5.49754e-05
0.000663952
0.000488459
0.000404619
0.000347248
0.000305036
0.000272128
0.000245319
0.000222889
0.000203756
0.00018718
0.000172655
0.000159815
0.000148374
0.000138121
0.000128888
0.000120668
0.000113267
0.000106546
0.000100881
9.45099e-05
0.00071288
0.000556432
0.000466397
0.000402355
0.000354425
0.00031705
0.000286674
0.000261254
0.000239579
0.000220841
0.000204437
0.000189939
0.000177027
0.000165442
0.000154979
0.000145486
0.000136829
0.000128883
0.000121554
0.000114994
0.000728543
0.000588231
0.000496002
0.000429131
0.000378509
0.000338933
0.000306816
0.00027997
0.000257066
0.000237245
0.000219891
0.000204547
0.000190866
0.000178578
0.000167468
0.000157356
0.000148083
0.000139507
0.000131488
0.000123617
0.000728543
0.000588231
0.000496002
0.000429131
0.000378509
0.000338933
0.000306816
0.000279969
0.000257066
0.000237244
0.000219891
0.000204546
0.000190865
0.000178575
0.000167462
0.000157345
0.000148063
0.000139466
0.000131403
0.000123489
0.00071288
0.000556432
0.000466397
0.000402355
0.000354425
0.00031705
0.000286674
0.000261254
0.000239579
0.000220841
0.000204435
0.000189937
0.000177024
0.000165435
0.000154967
0.000145466
0.000136793
0.000128816
0.000121424
0.00011468
0.000663952
0.000488458
0.000404619
0.000347248
0.000305036
0.000272128
0.000245319
0.000222889
0.000203756
0.00018718
0.000172654
0.000159814
0.000148372
0.000138116
0.000128879
0.000120652
0.000113238
0.00010649
0.000100761
9.48587e-05
0.000528907
0.000369984
0.000305097
0.000261371
0.000228528
0.000202476
0.000181114
0.000163073
0.000147539
0.000133983
0.000122048
0.000111464
0.000102131
9.38558e-05
8.64562e-05
7.96565e-05
7.34602e-05
6.79608e-05
6.37578e-05
5.49753e-05
0.000107685
6.77183e-05
5.06311e-05
4.14159e-05
3.54049e-05
3.10368e-05
2.77138e-05
2.50818e-05
2.29338e-05
2.11511e-05
1.96514e-05
1.83727e-05
1.72654e-05
1.62971e-05
1.54558e-05
1.47322e-05
1.41057e-05
1.35684e-05
1.31436e-05
1.28435e-05
0.000160509
0.00010736
8.07409e-05
6.55976e-05
5.54896e-05
4.83026e-05
4.3131e-05
3.90791e-05
3.57392e-05
3.29496e-05
3.0578e-05
2.85352e-05
2.67744e-05
2.52469e-05
2.39096e-05
2.27315e-05
2.16921e-05
2.07733e-05
1.99662e-05
1.93155e-05
0.000663952
0.000488458
0.000404619
0.000347248
0.000305036
0.000272128
0.000245319
0.000222889
0.000203756
0.00018718
0.000172654
0.000159814
0.000148372
0.000138117
0.000128879
0.000120652
0.000113237
0.000106489
0.00010076
9.48618e-05
0.000786828
0.000662293
0.000567975
0.000495805
0.000439464
0.000394562
0.000357975
0.000327452
0.000301491
0.000279051
0.000259399
0.000242005
0.000226476
0.000212517
0.000199897
0.000188449
0.000178021
0.000168475
0.000159649
0.000149973
0.000809324
0.000713906
0.000631505
0.000562574
0.000505377
0.000457786
0.000417841
0.00038394
0.000354804
0.00032945
0.000307156
0.000287379
0.000269701
0.000253795
0.000239404
0.00022632
0.000214367
0.000203375
0.000193108
0.000182859
0.000814958
0.000730426
0.000654634
0.000589043
0.000533067
0.000485438
0.000444763
0.000409792
0.000379469
0.00035293
0.000329489
0.000308625
0.000289932
0.000273088
0.000257828
0.000243935
0.00023122
0.000219486
0.000208424
0.000197087
0.000814958
0.000730426
0.000654634
0.000589043
0.000533067
0.000485438
0.000444763
0.000409792
0.000379469
0.00035293
0.000329489
0.000308625
0.000289932
0.000273086
0.000257826
0.000243933
0.000231217
0.000219485
0.000208447
0.000197305
0.000809324
0.000713906
0.000631505
0.000562574
0.000505377
0.000457786
0.000417841
0.00038394
0.000354804
0.00032945
0.000307156
0.000287379
0.0002697
0.000253793
0.0002394
0.000226316
0.000214361
0.000203365
0.000193083
0.000182744
0.000786828
0.000662293
0.000567975
0.000495805
0.000439464
0.000394562
0.000357975
0.000327452
0.000301491
0.000279051
0.000259399
0.000242005
0.000226476
0.000212517
0.000199898
0.00018845
0.000178022
0.000168475
0.00015965
0.000149973
0.000663952
0.000488459
0.000404619
0.000347248
0.000305036
0.000272128
0.000245319
0.000222889
0.000203756
0.00018718
0.000172655
0.000159815
0.000148375
0.000138122
0.000128888
0.000120668
0.000113267
0.000106546
0.000100882
9.45084e-05
0.000160509
0.00010736
8.07409e-05
6.55976e-05
5.54896e-05
4.83026e-05
4.31311e-05
3.90793e-05
3.57395e-05
3.29501e-05
3.05787e-05
2.85363e-05
2.67761e-05
2.52496e-05
2.3914e-05
2.27389e-05
2.17045e-05
2.07953e-05
2.00074e-05
1.93622e-05
0.000198681
0.0001383
0.000105187
8.55269e-05
7.25012e-05
6.289e-05
5.60609e-05
5.0759e-05
4.63876e-05
4.27211e-05
3.9624e-05
3.69534e-05
3.46302e-05
3.25982e-05
3.08107e-05
2.92295e-05
2.78229e-05
2.65642e-05
2.54393e-05
2.45533e-05
0.00071288
0.000556432
0.000466397
0.000402355
0.000354425
0.00031705
0.000286674
0.000261254
0.000239579
0.000220841
0.000204435
0.000189937
0.000177024
0.000165436
0.000154967
0.000145466
0.000136792
0.000128816
0.000121424
0.000114679
0.000809324
0.000713906
0.000631505
0.000562574
0.000505377
0.000457786
0.000417841
0.00038394
0.000354804
0.00032945
0.000307156
0.000287379
0.0002697
0.000253794
0.0002394
0.000226315
0.000214361
0.000203364
0.000193083
0.000182744
0.000823497
0.000753987
0.000688491
0.000628748
0.000575387
0.000528266
0.000486845
0.000450441
0.000418362
0.000389973
0.000364726
0.000342161
0.000321892
0.000303601
0.000287023
0.000271932
0.000258128
0.000245396
0.00023339
0.000221248
0.000826292
0.000764347
0.000706102
0.000651936
0.00060223
0.000557103
0.000516427
0.000479911
0.00044718
0.000417831
0.000391474
0.000367748
0.00034633
0.000326936
0.000309318
0.000293255
0.000278539
0.000264926
0.000251973
0.000238478
0.000826292
0.000764347
0.000706102
0.000651936
0.00060223
0.000557103
0.000516427
0.000479911
0.00044718
0.000417831
0.000391474
0.000367748
0.00034633
0.000326936
0.000309317
0.000293255
0.00027854
0.000264934
0.000252024
0.000238783
0.000823497
0.000753987
0.000688491
0.000628748
0.000575387
0.000528266
0.000486845
0.000450441
0.000418362
0.000389973
0.000364726
0.000342161
0.000321892
0.000303601
0.000287023
0.000271932
0.000258129
0.000245396
0.000233391
0.00022125
0.000809324
0.000713906
0.000631505
0.000562574
0.000505377
0.000457786
0.000417841
0.00038394
0.000354804
0.00032945
0.000307156
0.000287379
0.000269701
0.000253795
0.000239404
0.00022632
0.000214367
0.000203375
0.000193108
0.000182855
0.00071288
0.000556432
0.000466397
0.000402355
0.000354425
0.00031705
0.000286674
0.000261254
0.000239579
0.000220841
0.000204437
0.000189939
0.000177027
0.000165443
0.000154979
0.000145486
0.000136829
0.000128883
0.000121554
0.000114994
0.000198681
0.0001383
0.000105187
8.55269e-05
7.25012e-05
6.28901e-05
5.60611e-05
5.07592e-05
4.6388e-05
4.27216e-05
3.96249e-05
3.69548e-05
3.46324e-05
3.26016e-05
3.08163e-05
2.9239e-05
2.78388e-05
2.65911e-05
2.54804e-05
2.45703e-05
0.000218609
0.000155003
0.000118661
9.65068e-05
8.18822e-05
7.08354e-05
6.30853e-05
5.7143e-05
5.22475e-05
4.8095e-05
4.45804e-05
4.15687e-05
3.89472e-05
3.66507e-05
3.46263e-05
3.28305e-05
3.12266e-05
2.97835e-05
2.84847e-05
2.74247e-05
0.000728543
0.000588231
0.000496002
0.000429131
0.000378509
0.000338933
0.000306816
0.000279969
0.000257066
0.000237244
0.000219891
0.000204546
0.000190865
0.000178576
0.000167462
0.000157345
0.000148063
0.000139467
0.000131404
0.000123489
0.000814958
0.000730426
0.000654634
0.000589043
0.000533067
0.000485438
0.000444763
0.000409792
0.000379469
0.00035293
0.000329489
0.000308625
0.000289932
0.000273087
0.000257826
0.000243933
0.000231217
0.000219486
0.000208447
0.000197303
0.000826292
0.000764347
0.000706102
0.000651936
0.00060223
0.000557103
0.000516427
0.000479911
0.00044718
0.000417831
0.000391474
0.000367748
0.00034633
0.000326936
0.000309317
0.000293255
0.00027854
0.000264934
0.000252024
0.000238782
0.000828382
0.0007726
0.000721137
0.00067296
0.000627781
0.00058562
0.000546547
0.000510578
0.000477647
0.000447614
0.000420285
0.000395444
0.000372862
0.000352314
0.000333587
0.000316478
0.000300781
0.000286244
0.000272432
0.000258396
0.000828382
0.0007726
0.000721137
0.00067296
0.000627781
0.00058562
0.000546547
0.000510578
0.000477647
0.000447614
0.000420285
0.000395444
0.000372862
0.000352314
0.000333587
0.000316478
0.000300781
0.000286244
0.000272432
0.000258397
0.000826292
0.000764347
0.000706102
0.000651936
0.00060223
0.000557103
0.000516427
0.000479911
0.00044718
0.000417831
0.000391474
0.000367748
0.00034633
0.000326936
0.000309318
0.000293255
0.000278539
0.000264926
0.000251972
0.000238477
0.000814958
0.000730426
0.000654634
0.000589043
0.000533067
0.000485438
0.000444763
0.000409792
0.000379469
0.00035293
0.000329489
0.000308625
0.000289932
0.000273088
0.000257828
0.000243935
0.00023122
0.000219486
0.000208423
0.000197084
0.000728543
0.000588231
0.000496002
0.000429131
0.000378509
0.000338933
0.000306816
0.00027997
0.000257066
0.000237245
0.000219891
0.000204547
0.000190866
0.000178578
0.000167468
0.000157356
0.000148083
0.000139507
0.000131488
0.000123616
0.000218609
0.000155003
0.000118661
9.65068e-05
8.18823e-05
7.08354e-05
6.30853e-05
5.71431e-05
5.22477e-05
4.80953e-05
4.45809e-05
4.15695e-05
3.89484e-05
3.66526e-05
3.46294e-05
3.28357e-05
3.12355e-05
2.97988e-05
2.85121e-05
2.74775e-05
0.000218609
0.000155003
0.000118661
9.65068e-05
8.18823e-05
7.08354e-05
6.30853e-05
5.71431e-05
5.22477e-05
4.80953e-05
4.45809e-05
4.15695e-05
3.89484e-05
3.66526e-05
3.46293e-05
3.28357e-05
3.12355e-05
2.97988e-05
2.8512e-05
2.74774e-05
0.000728543
0.000588231
0.000496002
0.000429131
0.000378509
0.000338933
0.000306816
0.00027997
0.000257066
0.000237245
0.000219891
0.000204547
0.000190867
0.000178579
0.000167468
0.000157356
0.000148084
0.000139507
0.000131489
0.000123618
0.000814958
0.000730426
0.000654634
0.000589043
0.000533067
0.000485438
0.000444763
0.000409792
0.000379469
0.00035293
0.000329489
0.000308625
0.000289933
0.000273088
0.000257828
0.000243936
0.00023122
0.000219486
0.000208424
0.000197086
0.000826292
0.000764347
0.000706102
0.000651936
0.00060223
0.000557103
0.000516427
0.000479911
0.00044718
0.000417831
0.000391474
0.000367748
0.00034633
0.000326936
0.000309318
0.000293255
0.000278539
0.000264926
0.000251973
0.000238478
0.000828382
0.0007726
0.000721137
0.00067296
0.000627781
0.00058562
0.000546547
0.000510578
0.000477647
0.000447614
0.000420285
0.000395444
0.000372862
0.000352314
0.000333587
0.000316478
0.000300781
0.000286244
0.000272432
0.000258396
0.000828382
0.0007726
0.000721137
0.00067296
0.000627781
0.00058562
0.000546547
0.000510578
0.000477647
0.000447614
0.000420285
0.000395444
0.000372862
0.000352314
0.000333587
0.000316478
0.000300781
0.000286244
0.000272432
0.000258396
0.000826292
0.000764347
0.000706102
0.000651936
0.00060223
0.000557103
0.000516427
0.000479911
0.00044718
0.000417831
0.000391474
0.000367748
0.00034633
0.000326936
0.000309318
0.000293255
0.00027854
0.000264934
0.000252024
0.000238782
0.000814958
0.000730426
0.000654634
0.000589043
0.000533067
0.000485438
0.000444763
0.000409792
0.000379469
0.00035293
0.000329489
0.000308625
0.000289932
0.000273086
0.000257826
0.000243933
0.000231217
0.000219485
0.000208446
0.000197302
0.000728543
0.000588231
0.000496002
0.000429131
0.000378509
0.000338933
0.000306816
0.000279969
0.000257066
0.000237244
0.000219891
0.000204546
0.000190865
0.000178575
0.000167462
0.000157345
0.000148063
0.000139466
0.000131403
0.000123489
0.000218609
0.000155003
0.000118661
9.65068e-05
8.18822e-05
7.08354e-05
6.30853e-05
5.7143e-05
5.22475e-05
4.8095e-05
4.45804e-05
4.15687e-05
3.89472e-05
3.66507e-05
3.46263e-05
3.28304e-05
3.12265e-05
2.97835e-05
2.84846e-05
2.74245e-05
0.000198681
0.0001383
0.000105187
8.55269e-05
7.25012e-05
6.28901e-05
5.60611e-05
5.07592e-05
4.6388e-05
4.27216e-05
3.96249e-05
3.69548e-05
3.46325e-05
3.26016e-05
3.08162e-05
2.92389e-05
2.78387e-05
2.6591e-05
2.54804e-05
2.45703e-05
0.00071288
0.000556432
0.000466397
0.000402355
0.000354426
0.00031705
0.000286674
0.000261254
0.000239579
0.000220842
0.000204437
0.000189939
0.000177027
0.000165442
0.000154979
0.000145487
0.000136829
0.000128883
0.000121555
0.000114995
0.000809324
0.000713906
0.000631505
0.000562574
0.000505377
0.000457786
0.000417841
0.00038394
0.000354804
0.00032945
0.000307156
0.000287379
0.000269701
0.000253795
0.000239404
0.00022632
0.000214367
0.000203375
0.000193108
0.000182855
0.000823497
0.000753987
0.000688491
0.000628748
0.000575387
0.000528266
0.000486845
0.000450441
0.000418362
0.000389973
0.000364726
0.000342161
0.000321892
0.000303601
0.000287023
0.000271932
0.000258128
0.000245396
0.00023339
0.000221249
0.000826292
0.000764347
0.000706102
0.000651936
0.00060223
0.000557103
0.000516427
0.000479911
0.00044718
0.000417831
0.000391474
0.000367748
0.00034633
0.000326936
0.000309317
0.000293255
0.00027854
0.000264934
0.000252023
0.000238782
0.000826292
0.000764347
0.000706102
0.000651936
0.00060223
0.000557103
0.000516427
0.000479911
0.00044718
0.000417831
0.000391474
0.000367748
0.00034633
0.000326936
0.000309318
0.000293255
0.000278539
0.000264926
0.000251972
0.000238476
0.000823497
0.000753987
0.000688491
0.000628748
0.000575387
0.000528266
0.000486845
0.000450441
0.000418362
0.000389973
0.000364726
0.000342161
0.000321892
0.000303601
0.000287023
0.000271932
0.000258128
0.000245396
0.00023339
0.00022125
0.000809324
0.000713906
0.000631505
0.000562574
0.000505377
0.000457786
0.000417841
0.00038394
0.000354804
0.00032945
0.000307156
0.000287379
0.0002697
0.000253793
0.0002394
0.000226315
0.000214361
0.000203364
0.000193082
0.000182743
0.00071288
0.000556432
0.000466397
0.000402355
0.000354425
0.00031705
0.000286674
0.000261254
0.000239579
0.000220841
0.000204436
0.000189937
0.000177024
0.000165435
0.000154967
0.000145466
0.000136793
0.000128817
0.000121424
0.00011468
0.000198681
0.0001383
0.000105187
8.55269e-05
7.25012e-05
6.289e-05
5.60609e-05
5.0759e-05
4.63876e-05
4.27211e-05
3.9624e-05
3.69534e-05
3.46303e-05
3.25982e-05
3.08106e-05
2.92295e-05
2.78228e-05
2.65641e-05
2.54392e-05
2.45534e-05
0.000160509
0.00010736
8.07409e-05
6.55976e-05
5.54896e-05
4.83026e-05
4.31311e-05
3.90793e-05
3.57395e-05
3.29501e-05
3.05787e-05
2.85363e-05
2.67762e-05
2.52496e-05
2.3914e-05
2.27389e-05
2.17045e-05
2.07953e-05
2.00074e-05
1.9362e-05
0.000663952
0.000488459
0.000404619
0.000347248
0.000305036
0.000272128
0.000245319
0.000222889
0.000203756
0.00018718
0.000172655
0.000159815
0.000148375
0.000138121
0.000128889
0.000120668
0.000113267
0.000106546
0.000100881
9.45079e-05
0.000786828
0.000662293
0.000567975
0.000495805
0.000439464
0.000394562
0.000357975
0.000327452
0.000301491
0.000279051
0.000259399
0.000242005
0.000226476
0.000212517
0.000199897
0.000188449
0.000178021
0.000168474
0.000159649
0.000149972
0.000809324
0.000713906
0.000631505
0.000562574
0.000505377
0.000457786
0.000417841
0.00038394
0.000354804
0.00032945
0.000307156
0.000287379
0.0002697
0.000253793
0.0002394
0.000226315
0.00021436
0.000203363
0.000193082
0.000182742
0.000814958
0.000730426
0.000654634
0.000589043
0.000533067
0.000485438
0.000444763
0.000409792
0.000379469
0.00035293
0.000329489
0.000308625
0.000289932
0.000273087
0.000257826
0.000243933
0.000231217
0.000219485
0.000208446
0.000197302
0.000814958
0.000730426
0.000654634
0.000589043
0.000533067
0.000485438
0.000444763
0.000409792
0.000379469
0.00035293
0.000329489
0.000308625
0.000289933
0.000273088
0.000257828
0.000243935
0.00023122
0.000219486
0.000208423
0.000197083
0.000809324
0.000713906
0.000631505
0.000562574
0.000505377
0.000457786
0.000417841
0.00038394
0.000354804
0.00032945
0.000307156
0.000287379
0.000269701
0.000253795
0.000239403
0.00022632
0.000214367
0.000203375
0.000193107
0.000182853
0.000786828
0.000662293
0.000567975
0.000495805
0.000439464
0.000394562
0.000357975
0.000327452
0.000301491
0.000279051
0.000259399
0.000242005
0.000226476
0.000212517
0.000199898
0.000188449
0.000178021
0.000168474
0.000159649
0.000149971
0.000663952
0.000488458
0.000404619
0.000347248
0.000305036
0.000272128
0.000245319
0.000222889
0.000203756
0.00018718
0.000172654
0.000159814
0.000148372
0.000138116
0.000128879
0.000120652
0.000113238
0.00010649
0.000100761
9.48615e-05
0.000160509
0.00010736
8.07409e-05
6.55976e-05
5.54896e-05
4.83026e-05
4.3131e-05
3.90791e-05
3.57392e-05
3.29496e-05
3.0578e-05
2.85352e-05
2.67744e-05
2.52469e-05
2.39095e-05
2.27315e-05
2.1692e-05
2.07733e-05
1.99661e-05
1.93154e-05
0.000107685
6.77183e-05
5.06311e-05
4.14159e-05
3.54049e-05
3.10368e-05
2.77138e-05
2.50818e-05
2.29338e-05
2.11511e-05
1.96514e-05
1.83727e-05
1.72654e-05
1.62971e-05
1.54558e-05
1.47322e-05
1.41057e-05
1.35684e-05
1.31436e-05
1.28435e-05
0.000528907
0.000369984
0.000305097
0.000261371
0.000228528
0.000202476
0.000181114
0.000163073
0.000147539
0.000133983
0.000122048
0.000111464
0.000102131
9.38559e-05
8.64561e-05
7.96564e-05
7.34601e-05
6.79606e-05
6.37575e-05
5.49754e-05
0.000663952
0.000488458
0.000404619
0.000347248
0.000305036
0.000272128
0.000245319
0.000222889
0.000203756
0.00018718
0.000172654
0.000159814
0.000148372
0.000138117
0.000128879
0.000120652
0.000113237
0.000106489
0.00010076
9.48612e-05
0.00071288
0.000556432
0.000466397
0.000402355
0.000354425
0.00031705
0.000286674
0.000261254
0.000239579
0.000220841
0.000204436
0.000189937
0.000177024
0.000165436
0.000154967
0.000145466
0.000136792
0.000128816
0.000121424
0.000114679
0.000728543
0.000588231
0.000496002
0.000429131
0.000378509
0.000338933
0.000306816
0.000279969
0.000257066
0.000237244
0.000219891
0.000204546
0.000190865
0.000178576
0.000167462
0.000157345
0.000148063
0.000139467
0.000131404
0.00012349
0.000728543
0.000588231
0.000496002
0.000429131
0.000378509
0.000338933
0.000306816
0.00027997
0.000257066
0.000237245
0.000219891
0.000204547
0.000190867
0.000178579
0.000167468
0.000157356
0.000148084
0.000139507
0.000131488
0.000123617
0.00071288
0.000556432
0.000466397
0.000402355
0.000354425
0.00031705
0.000286674
0.000261254
0.000239579
0.000220841
0.000204437
0.000189939
0.000177027
0.000165443
0.000154979
0.000145486
0.000136829
0.000128883
0.000121555
0.000114994
0.000663952
0.000488459
0.000404619
0.000347248
0.000305036
0.000272128
0.000245319
0.000222889
0.000203756
0.00018718
0.000172655
0.000159815
0.000148374
0.000138122
0.000128888
0.000120668
0.000113267
0.000106545
0.000100881
9.45064e-05
0.000528907
0.000369984
0.000305097
0.000261371
0.000228528
0.000202476
0.000181114
0.000163073
0.000147539
0.000133983
0.000122048
0.000111464
0.000102131
9.38558e-05
8.64561e-05
7.96565e-05
7.34602e-05
6.79606e-05
6.37576e-05
5.49756e-05
0.000107685
6.77183e-05
5.06311e-05
4.14159e-05
3.54049e-05
3.10368e-05
2.77138e-05
2.50818e-05
2.29337e-05
2.1151e-05
1.96512e-05
1.83723e-05
1.72649e-05
1.6296e-05
1.5454e-05
1.47289e-05
1.40994e-05
1.35556e-05
1.31156e-05
1.28135e-05
4.5356e-05
2.3208e-05
1.65396e-05
1.36494e-05
1.18966e-05
1.06844e-05
9.76082e-06
9.05719e-06
8.49487e-06
8.03159e-06
7.641e-06
7.31293e-06
7.02592e-06
6.76303e-06
6.53305e-06
6.33476e-06
6.16414e-06
6.02322e-06
5.9374e-06
5.85973e-06
0.000107685
6.77183e-05
5.06311e-05
4.14159e-05
3.54049e-05
3.10368e-05
2.77138e-05
2.50818e-05
2.29337e-05
2.1151e-05
1.96512e-05
1.83723e-05
1.72649e-05
1.6296e-05
1.5454e-05
1.4729e-05
1.40994e-05
1.35556e-05
1.31157e-05
1.28134e-05
0.000160509
0.00010736
8.07409e-05
6.55976e-05
5.54896e-05
4.83026e-05
4.3131e-05
3.90791e-05
3.57392e-05
3.29496e-05
3.0578e-05
2.85352e-05
2.67744e-05
2.52469e-05
2.39096e-05
2.27315e-05
2.16921e-05
2.07733e-05
1.99662e-05
1.93154e-05
0.000198681
0.0001383
0.000105187
8.55269e-05
7.25012e-05
6.289e-05
5.60609e-05
5.0759e-05
4.63876e-05
4.27211e-05
3.9624e-05
3.69534e-05
3.46302e-05
3.25982e-05
3.08107e-05
2.92295e-05
2.78229e-05
2.65642e-05
2.54392e-05
2.45533e-05
0.000218609
0.000155003
0.000118661
9.65068e-05
8.18822e-05
7.08354e-05
6.30853e-05
5.7143e-05
5.22475e-05
4.8095e-05
4.45804e-05
4.15687e-05
3.89472e-05
3.66507e-05
3.46263e-05
3.28304e-05
3.12265e-05
2.97834e-05
2.84846e-05
2.74244e-05
0.000218609
0.000155003
0.000118661
9.65068e-05
8.18823e-05
7.08354e-05
6.30853e-05
5.71431e-05
5.22477e-05
4.80953e-05
4.45809e-05
4.15695e-05
3.89484e-05
3.66525e-05
3.46293e-05
3.28356e-05
3.12355e-05
2.97988e-05
2.8512e-05
2.74774e-05
0.000198681
0.0001383
0.000105187
8.55269e-05
7.25012e-05
6.28901e-05
5.60611e-05
5.07592e-05
4.6388e-05
4.27216e-05
3.96249e-05
3.69548e-05
3.46324e-05
3.26016e-05
3.08163e-05
2.9239e-05
2.78387e-05
2.6591e-05
2.54804e-05
2.45703e-05
0.000160509
0.00010736
8.07409e-05
6.55976e-05
5.54896e-05
4.83026e-05
4.31311e-05
3.90793e-05
3.57395e-05
3.29501e-05
3.05787e-05
2.85363e-05
2.67761e-05
2.52496e-05
2.3914e-05
2.27389e-05
2.17046e-05
2.07953e-05
2.00074e-05
1.93621e-05
0.000107685
6.77183e-05
5.06311e-05
4.14159e-05
3.54049e-05
3.10368e-05
2.77138e-05
2.50818e-05
2.29338e-05
2.11511e-05
1.96514e-05
1.83727e-05
1.72654e-05
1.62971e-05
1.54558e-05
1.47322e-05
1.41057e-05
1.35684e-05
1.31436e-05
1.28438e-05
4.5356e-05
2.3208e-05
1.65396e-05
1.36494e-05
1.18966e-05
1.06844e-05
9.76082e-06
9.0572e-06
8.49487e-06
8.03159e-06
7.64101e-06
7.31293e-06
7.02592e-06
6.76303e-06
6.53305e-06
6.33475e-06
6.16414e-06
6.02321e-06
5.93737e-06
5.85989e-06
5.71673e-06
5.27304e-06
4.85129e-06
4.59584e-06
4.43393e-06
4.33201e-06
4.25374e-06
4.18619e-06
4.13032e-06
4.08213e-06
4.04039e-06
4.00132e-06
3.96477e-06
3.93057e-06
3.89797e-06
3.86773e-06
3.84031e-06
3.81541e-06
3.79241e-06
3.77154e-06
3.75224e-06
3.73537e-06
3.72121e-06
3.70878e-06
3.69806e-06
3.6868e-06
3.67617e-06
3.66659e-06
3.6585e-06
3.65233e-06
3.64721e-06
3.64087e-06
3.63488e-06
3.62994e-06
3.62855e-06
3.62523e-06
3.62392e-06
3.62185e-06
3.61977e-06
3.61665e-06
1.10339e-05
1.03861e-05
9.81264e-06
9.38338e-06
9.10218e-06
8.89782e-06
8.72652e-06
8.57125e-06
8.43796e-06
8.31882e-06
8.20864e-06
8.10683e-06
8.01778e-06
7.93296e-06
7.8517e-06
7.77348e-06
7.70319e-06
7.64035e-06
7.58389e-06
7.53352e-06
7.4887e-06
7.45027e-06
7.41371e-06
7.39038e-06
7.36516e-06
7.33833e-06
7.31525e-06
7.29483e-06
7.27178e-06
7.2615e-06
7.24908e-06
7.23421e-06
7.22241e-06
7.20786e-06
7.20627e-06
7.20107e-06
7.19509e-06
7.18975e-06
7.18666e-06
7.18353e-06
1.56756e-05
1.50968e-05
1.45494e-05
1.40752e-05
1.36977e-05
1.33511e-05
1.30483e-05
1.27856e-05
1.25488e-05
1.23359e-05
1.21426e-05
1.19668e-05
1.18079e-05
1.16714e-05
1.15372e-05
1.13925e-05
1.12783e-05
1.11749e-05
1.10827e-05
1.10006e-05
1.09227e-05
1.08554e-05
1.07974e-05
1.0757e-05
1.07076e-05
1.06546e-05
1.06092e-05
1.05718e-05
1.05422e-05
1.05225e-05
1.04986e-05
1.04682e-05
1.04442e-05
1.04353e-05
1.04296e-05
1.0406e-05
1.04026e-05
1.03899e-05
1.03827e-05
1.03748e-05
1.98597e-05
1.90805e-05
1.8426e-05
1.78633e-05
1.7369e-05
1.69309e-05
1.65336e-05
1.61731e-05
1.58443e-05
1.55432e-05
1.52668e-05
1.50144e-05
1.47831e-05
1.4565e-05
1.43625e-05
1.4178e-05
1.40124e-05
1.38631e-05
1.37269e-05
1.36046e-05
1.34925e-05
1.3393e-05
1.32863e-05
1.31964e-05
1.31427e-05
1.30758e-05
1.30125e-05
1.29646e-05
1.28808e-05
1.28529e-05
1.28417e-05
1.28113e-05
1.27807e-05
1.27602e-05
1.27099e-05
1.27001e-05
1.27104e-05
1.27071e-05
1.26962e-05
1.2688e-05
2.32543e-05
2.19536e-05
2.10771e-05
2.03762e-05
1.97728e-05
1.92409e-05
1.87685e-05
1.83441e-05
1.79538e-05
1.75931e-05
1.72599e-05
1.69543e-05
1.66747e-05
1.64073e-05
1.61604e-05
1.59336e-05
1.57266e-05
1.55378e-05
1.53668e-05
1.52126e-05
1.50747e-05
1.49528e-05
1.48524e-05
1.47846e-05
1.46839e-05
1.45896e-05
1.44918e-05
1.44299e-05
1.43268e-05
1.42858e-05
1.42727e-05
1.42396e-05
1.42033e-05
1.41804e-05
1.41035e-05
1.40823e-05
1.41105e-05
1.41131e-05
1.41032e-05
1.40932e-05
2.42895e-05
2.29937e-05
2.20663e-05
2.12935e-05
2.06289e-05
2.00466e-05
1.95275e-05
1.90648e-05
1.86432e-05
1.82522e-05
1.7889e-05
1.75547e-05
1.72461e-05
1.69555e-05
1.66867e-05
1.64418e-05
1.62195e-05
1.60182e-05
1.58355e-05
1.56707e-05
1.55226e-05
1.53912e-05
1.5283e-05
1.52004e-05
1.50972e-05
1.4995e-05
1.49039e-05
1.48297e-05
1.47195e-05
1.46739e-05
1.46585e-05
1.46212e-05
1.45841e-05
1.45513e-05
1.45178e-05
1.45471e-05
1.45207e-05
1.45117e-05
1.44851e-05
1.44659e-05
2.27877e-05
2.18981e-05
2.11023e-05
2.03884e-05
1.97561e-05
1.91916e-05
1.86858e-05
1.82313e-05
1.78141e-05
1.74303e-05
1.70768e-05
1.67539e-05
1.64582e-05
1.61804e-05
1.59243e-05
1.5691e-05
1.54794e-05
1.52881e-05
1.51156e-05
1.49609e-05
1.48223e-05
1.47004e-05
1.4599e-05
1.4518e-05
1.44219e-05
1.4326e-05
1.42399e-05
1.4168e-05
1.40904e-05
1.40546e-05
1.40199e-05
1.39645e-05
1.39201e-05
1.38876e-05
1.38527e-05
1.38875e-05
1.38593e-05
1.38554e-05
1.38258e-05
1.38086e-05
2.0028e-05
1.92627e-05
1.85615e-05
1.79047e-05
1.73174e-05
1.68032e-05
1.63502e-05
1.59453e-05
1.55812e-05
1.52509e-05
1.49504e-05
1.46807e-05
1.44316e-05
1.41978e-05
1.39843e-05
1.37911e-05
1.36168e-05
1.34598e-05
1.33173e-05
1.3193e-05
1.30812e-05
1.2983e-05
1.28985e-05
1.28286e-05
1.27521e-05
1.26739e-05
1.26066e-05
1.25503e-05
1.2507e-05
1.24865e-05
1.24425e-05
1.23883e-05
1.23525e-05
1.2326e-05
1.23097e-05
1.22721e-05
1.22674e-05
1.22856e-05
1.22632e-05
1.22548e-05
1.64735e-05
1.55329e-05
1.47957e-05
1.40521e-05
1.35263e-05
1.31309e-05
1.27954e-05
1.25046e-05
1.22515e-05
1.20205e-05
1.18115e-05
1.163e-05
1.14558e-05
1.12924e-05
1.11429e-05
1.10087e-05
1.08913e-05
1.07758e-05
1.06631e-05
1.05757e-05
1.04959e-05
1.04216e-05
1.03413e-05
1.02912e-05
1.02429e-05
1.01878e-05
1.01395e-05
1.01024e-05
1.00504e-05
1.00319e-05
1.0015e-05
9.98507e-06
9.96028e-06
9.94301e-06
9.92956e-06
9.9194e-06
9.91818e-06
9.90786e-06
9.89985e-06
9.89447e-06
1.14323e-05
1.07183e-05
1.00194e-05
9.45938e-06
9.08564e-06
8.82993e-06
8.62943e-06
8.45486e-06
8.31584e-06
8.18219e-06
8.06806e-06
7.97362e-06
7.86605e-06
7.76858e-06
7.67905e-06
7.59884e-06
7.52676e-06
7.46065e-06
7.39919e-06
7.34426e-06
7.29604e-06
7.25457e-06
7.21335e-06
7.1834e-06
7.15378e-06
7.12475e-06
7.09979e-06
7.07799e-06
7.05291e-06
7.03916e-06
7.02534e-06
7.01036e-06
6.99846e-06
6.98903e-06
6.97361e-06
6.98011e-06
6.97142e-06
6.96737e-06
6.96161e-06
6.95639e-06
5.71673e-06
5.27308e-06
4.85135e-06
4.5959e-06
4.43405e-06
4.33206e-06
4.25389e-06
4.18631e-06
4.13048e-06
4.082e-06
4.0403e-06
4.00179e-06
3.96436e-06
3.92969e-06
3.89735e-06
3.86741e-06
3.84009e-06
3.81522e-06
3.79223e-06
3.77133e-06
3.75195e-06
3.73523e-06
3.72112e-06
3.70937e-06
3.69789e-06
3.68668e-06
3.67611e-06
3.66653e-06
3.65848e-06
3.65302e-06
3.64693e-06
3.64077e-06
3.63509e-06
3.63045e-06
3.62708e-06
3.62716e-06
3.62552e-06
3.62243e-06
3.61916e-06
3.61447e-06
1.14323e-05
1.07183e-05
1.00197e-05
9.45735e-06
9.0855e-06
8.82982e-06
8.6291e-06
8.45457e-06