/*--------------------------------*- C++ -*----------------------------------*\
| =========                 |                                                 |
| \\      /  F ield         | OpenFOAM: The Open Source CFD Toolbox           |
|  \\    /   O peration     | Version:  2212                                  |
|   \\  /    A nd           | Website:  www.openfoam.com                      |
|    \\/     M anipulation  |                                                 |
\*---------------------------------------------------------------------------*/
FoamFile
{
    version     2.0;
    format      ascii;
    arch        "LSB;label=32;scalar=64";
    class       volScalarField;
    location    "0.85";
    object      p;
}
// * * * * * * * * * * * * * * * * * * * * * * * * * * * * * * * * * * * * * //

dimensions      [0 2 -2 0 0 0 0];

internalField   nonuniform List<scalar> 
6840
(
0.0177847
0.0106703
0.00837887
0.00784103
0.00756664
0.00734437
0.00715762
0.00699105
0.00682968
0.00666989
0.00651173
0.00635494
0.00619812
0.00603933
0.0058787
0.0057151
0.00554501
0.00536289
0.00510953
0.0046342
0.0106059
0.00987209
0.00877918
0.00811319
0.00771055
0.00743673
0.00722543
0.00703903
0.00686434
0.00669655
0.00653308
0.00637203
0.00621152
0.00605003
0.00588705
0.00572057
0.00554559
0.00534955
0.00509125
0.00466513
0.0102577
0.00940617
0.00864189
0.00808272
0.00770653
0.00743846
0.00722273
0.00702969
0.00685108
0.00668224
0.0065182
0.00635669
0.006197
0.00603853
0.00587986
0.00571899
0.00555248
0.00537561
0.00518737
0.00498338
0.00984843
0.00908569
0.00846692
0.00801559
0.00767162
0.00740259
0.00718298
0.00699421
0.00682643
0.00666906
0.00651349
0.00635836
0.00620447
0.00605248
0.00590301
0.00575703
0.00561575
0.00548142
0.00535961
0.00526426
0.00971425
0.00897306
0.00838488
0.00797677
0.00765485
0.00738817
0.0071667
0.00697619
0.00680566
0.00664937
0.00650019
0.00635146
0.00620271
0.00605635
0.00591561
0.00578398
0.00566595
0.00556658
0.00549761
0.00547696
0.00971426
0.00897307
0.0083849
0.0079768
0.00765488
0.00738822
0.00716679
0.00697633
0.00680589
0.00664974
0.00650081
0.00635249
0.00620443
0.00605924
0.0059206
0.0057928
0.00568155
0.00559499
0.00555065
0.00557694
0.00984846
0.00908572
0.00846696
0.00801564
0.00767169
0.00740271
0.00718319
0.00699454
0.00682697
0.00666994
0.00651493
0.00636072
0.00620834
0.00605889
0.00591374
0.0057752
0.00564681
0.00553497
0.00545422
0.00542673
0.0102577
0.0094062
0.00864192
0.00808277
0.00770661
0.00743859
0.00722293
0.00703003
0.00685162
0.00668312
0.00651963
0.006359
0.00620075
0.00604464
0.00588985
0.00573537
0.00557974
0.00542139
0.00526812
0.00513323
0.010606
0.00987211
0.0087792
0.00811322
0.0077106
0.00743681
0.00722556
0.00703924
0.00686468
0.0066971
0.00653398
0.0063735
0.00621393
0.00605394
0.00589337
0.00573085
0.00556287
0.0053804
0.0051488
0.00477841
0.0177847
0.0106703
0.00837887
0.00784102
0.00756663
0.00734436
0.00715762
0.00699105
0.00682967
0.00666988
0.00651173
0.00635494
0.00619812
0.00603934
0.00587871
0.00571511
0.00554503
0.00536291
0.00510955
0.00463423
0.010606
0.00987211
0.0087792
0.00811322
0.0077106
0.00743681
0.00722556
0.00703924
0.00686468
0.00669711
0.00653398
0.0063735
0.00621393
0.00605393
0.00589336
0.00573083
0.00556284
0.00538037
0.00514875
0.00477834
0.00988936
0.00985764
0.0091294
0.00841887
0.00797247
0.00765643
0.0073974
0.00716956
0.00696466
0.00677578
0.00659732
0.00642539
0.00625648
0.00608835
0.0059197
0.00574839
0.00556952
0.00537784
0.00518761
0.00507702
0.00896388
0.00909005
0.00878715
0.0083709
0.00800371
0.00768502
0.00740636
0.00716572
0.00695284
0.00675778
0.0065737
0.00639716
0.0062259
0.00605773
0.00589037
0.00572181
0.00555009
0.00537354
0.00519751
0.00504139
0.00854553
0.00858903
0.00842345
0.00816051
0.00788012
0.00760876
0.00735776
0.00713138
0.00692836
0.00674178
0.00656462
0.00639384
0.00622804
0.00606604
0.00590689
0.00575012
0.0055957
0.00544477
0.00530065
0.00516792
0.00832959
0.00835142
0.00822423
0.00800673
0.00777434
0.00754524
0.00732252
0.00710954
0.00690909
0.00672236
0.0065469
0.00637975
0.00621931
0.00606407
0.00591401
0.00577139
0.00563721
0.00551135
0.0053976
0.00530368
0.00832961
0.00835144
0.00822425
0.00800676
0.00777438
0.0075453
0.00732262
0.0071097
0.00690934
0.00672276
0.00654754
0.00638077
0.00622091
0.00606652
0.00591781
0.00577717
0.00564571
0.00552319
0.00541266
0.00531553
0.00854556
0.00858906
0.00842349
0.00816057
0.0078802
0.00760889
0.00735797
0.00713171
0.00692889
0.00674263
0.00656599
0.00639602
0.00623139
0.00607124
0.00591503
0.0057627
0.0056148
0.00547331
0.00534437
0.00522937
0.00896389
0.00909007
0.00878718
0.00837094
0.00800377
0.0076851
0.0074065
0.00716595
0.00695322
0.00675839
0.00657466
0.00639865
0.00622822
0.00606129
0.00589571
0.00572953
0.00556064
0.00538625
0.0052069
0.00502586
0.00988935
0.00985764
0.0091294
0.00841886
0.00797246
0.00765642
0.0073974
0.00716955
0.00696465
0.00677578
0.00659732
0.00642539
0.00625648
0.00608835
0.0059197
0.0057484
0.00556953
0.00537785
0.00518762
0.00507704
0.0106059
0.00987209
0.00877918
0.00811318
0.00771055
0.00743672
0.00722543
0.00703903
0.00686433
0.00669654
0.00653307
0.00637203
0.00621151
0.00605003
0.00588705
0.00572057
0.0055456
0.00534955
0.00509125
0.00466513
0.0102577
0.0094062
0.00864192
0.00808278
0.00770661
0.00743859
0.00722293
0.00703003
0.00685162
0.00668311
0.00651962
0.00635899
0.00620074
0.00604463
0.00588983
0.00573535
0.00557971
0.00542134
0.00526806
0.00513313
0.0089639
0.00909008
0.00878718
0.00837094
0.00800377
0.00768511
0.0074065
0.00716595
0.00695322
0.00675839
0.00657466
0.00639865
0.00622821
0.00606128
0.0058957
0.00572952
0.00556062
0.00538623
0.00520688
0.00502584
0.0083944
0.00849537
0.00838379
0.00815829
0.0079025
0.00764406
0.00738559
0.00714383
0.00692572
0.00672513
0.00653704
0.00635819
0.00618573
0.00601715
0.00585087
0.00568562
0.0055207
0.0053583
0.00520574
0.00506295
0.00802643
0.00809449
0.00804211
0.00789512
0.00771023
0.00750508
0.0072944
0.00708748
0.00688629
0.00669374
0.00651097
0.00633608
0.00616704
0.00600248
0.00584131
0.00568246
0.00552499
0.00536882
0.00521505
0.00505838
0.00784342
0.00790785
0.00787838
0.00775355
0.00759457
0.00742094
0.00723473
0.00704682
0.00686082
0.00667757
0.00649858
0.00632488
0.0061569
0.00599502
0.00583949
0.00568936
0.0055423
0.00539745
0.0052564
0.00511151
0.00784343
0.00790786
0.0078784
0.00775357
0.0075946
0.00742099
0.0072348
0.00704692
0.00686097
0.0066778
0.00649892
0.00632539
0.00615764
0.00599606
0.00584091
0.00569111
0.00554408
0.00539839
0.00525376
0.00509939
0.00802645
0.00809451
0.00804213
0.00789515
0.00771028
0.00750516
0.00729451
0.00708765
0.00688655
0.00669415
0.00651161
0.00633706
0.00616851
0.00600468
0.00584454
0.00568705
0.00553132
0.00537701
0.00522451
0.00506504
0.00839439
0.00849536
0.00838379
0.00815829
0.0079025
0.00764406
0.00738558
0.00714382
0.00692572
0.00672512
0.00653704
0.00635819
0.00618573
0.00601714
0.00585086
0.00568561
0.00552069
0.00535828
0.00520571
0.0050629
0.00896387
0.00909005
0.00878714
0.00837089
0.00800371
0.00768501
0.00740635
0.00716571
0.00695283
0.00675777
0.00657369
0.00639714
0.00622588
0.00605771
0.00589036
0.0057218
0.00555008
0.00537352
0.00519748
0.00504136
0.0102577
0.00940616
0.00864188
0.00808272
0.00770652
0.00743845
0.00722272
0.00702968
0.00685107
0.00668222
0.00651819
0.00635667
0.00619699
0.00603852
0.00587985
0.00571898
0.00555247
0.00537559
0.00518735
0.00498336
0.00984846
0.00908572
0.00846696
0.00801564
0.00767169
0.00740271
0.00718318
0.00699454
0.00682696
0.00666993
0.00651492
0.00636071
0.00620833
0.00605887
0.00591371
0.00577517
0.00564677
0.00553491
0.00545414
0.00542663
0.00854556
0.00858906
0.00842349
0.00816057
0.0078802
0.00760889
0.00735796
0.0071317
0.00692888
0.00674262
0.00656599
0.00639601
0.00623138
0.00607123
0.00591501
0.00576268
0.00561477
0.00547328
0.00534434
0.00522935
0.00802645
0.00809451
0.00804213
0.00789515
0.00771028
0.00750516
0.00729451
0.00708765
0.00688655
0.00669415
0.00651161
0.00633706
0.00616851
0.00600467
0.00584453
0.00568705
0.00553131
0.00537701
0.00522452
0.00506507
0.00772855
0.00778769
0.00777575
0.00768035
0.00754072
0.00737523
0.00719501
0.00701051
0.00682647
0.00664601
0.00647077
0.00630053
0.00613466
0.0059725
0.0058135
0.00565675
0.0055013
0.0053469
0.00519436
0.00503449
0.00757747
0.00764036
0.00764411
0.00757046
0.00745035
0.00730399
0.00714113
0.00696974
0.00679563
0.00662209
0.00645096
0.00628312
0.00611894
0.00595848
0.00580158
0.00564751
0.00549518
0.0053446
0.00519748
0.00504386
0.00757747
0.00764036
0.00764411
0.00757047
0.00745036
0.007304
0.00714115
0.00696977
0.00679567
0.00662214
0.00645102
0.00628321
0.00611904
0.00595858
0.00580163
0.00564739
0.00549464
0.00534315
0.005194
0.00503713
0.00772855
0.00778769
0.00777575
0.00768035
0.00754072
0.00737522
0.00719501
0.0070105
0.00682647
0.00664601
0.00647077
0.00630053
0.00613465
0.0059725
0.00581349
0.00565674
0.00550129
0.00534688
0.00519435
0.00503447
0.00802642
0.00809449
0.0080421
0.00789511
0.00771022
0.00750507
0.00729439
0.00708747
0.00688628
0.00669373
0.00651096
0.00633606
0.00616702
0.00600246
0.0058413
0.00568243
0.00552496
0.00536879
0.00521501
0.00505832
0.00854552
0.00858902
0.00842344
0.0081605
0.00788011
0.00760875
0.00735775
0.00713137
0.00692835
0.00674176
0.00656461
0.00639383
0.00622802
0.00606602
0.00590687
0.00575009
0.00559567
0.00544473
0.0053006
0.00516785
0.00984842
0.00908568
0.00846691
0.00801558
0.0076716
0.00740258
0.00718297
0.0069942
0.00682641
0.00666904
0.00651347
0.00635835
0.00620445
0.00605246
0.00590298
0.005757
0.00561572
0.00548139
0.00535957
0.00526421
0.00971426
0.00897307
0.0083849
0.00797679
0.00765488
0.00738821
0.00716678
0.00697632
0.00680588
0.00664973
0.00650079
0.00635247
0.0062044
0.00605922
0.00592056
0.00579276
0.0056815
0.00559493
0.00555057
0.00557684
0.00832961
0.00835144
0.00822424
0.00800676
0.00777438
0.0075453
0.00732262
0.00710969
0.00690933
0.00672275
0.00654753
0.00638075
0.00622089
0.0060665
0.00591779
0.00577714
0.00564567
0.00552314
0.00541261
0.00531549
0.00784342
0.00790786
0.0078784
0.00775356
0.00759459
0.00742099
0.0072348
0.00704692
0.00686096
0.00667779
0.00649892
0.00632538
0.00615763
0.00599605
0.00584089
0.00569109
0.00554407
0.00539837
0.00525375
0.00509938
0.00757747
0.00764036
0.00764411
0.00757047
0.00745036
0.007304
0.00714114
0.00696977
0.00679567
0.00662214
0.00645102
0.00628321
0.00611904
0.00595858
0.00580163
0.00564739
0.00549463
0.00534315
0.00519399
0.00503712
0.00743469
0.0075042
0.00752632
0.00747377
0.00737253
0.00724162
0.00709172
0.00693075
0.00676427
0.00659594
0.00642815
0.00626232
0.00609922
0.00593918
0.00578214
0.00562734
0.00547358
0.00532029
0.00516778
0.00500583
0.00743469
0.00750419
0.00752631
0.00747377
0.00737253
0.00724162
0.00709172
0.00693075
0.00676427
0.00659594
0.00642815
0.00626232
0.00609922
0.00593918
0.00578214
0.00562734
0.00547358
0.00532029
0.00516778
0.00500583
0.00757746
0.00764035
0.00764411
0.00757046
0.00745035
0.00730398
0.00714112
0.00696974
0.00679563
0.00662209
0.00645095
0.00628312
0.00611893
0.00595847
0.00580157
0.0056475
0.00549516
0.00534459
0.00519746
0.00504384
0.00784341
0.00790784
0.00787838
0.00775354
0.00759456
0.00742093
0.00723473
0.00704681
0.00686081
0.00667755
0.00649857
0.00632487
0.00615688
0.005995
0.00583947
0.00568933
0.00554227
0.00539742
0.00525637
0.00511148
0.00832959
0.00835141
0.00822422
0.00800672
0.00777433
0.00754522
0.00732251
0.00710953
0.00690907
0.00672234
0.00654689
0.00637973
0.00621929
0.00606404
0.00591397
0.00577135
0.00563717
0.00551131
0.00539756
0.00530363
0.00971424
0.00897305
0.00838487
0.00797676
0.00765484
0.00738815
0.00716669
0.00697618
0.00680565
0.00664935
0.00650017
0.00635144
0.00620269
0.00605632
0.00591558
0.00578395
0.00566591
0.00556654
0.00549756
0.00547691
0.00971424
0.00897305
0.00838488
0.00797677
0.00765484
0.00738816
0.0071667
0.00697618
0.00680565
0.00664935
0.00650017
0.00635144
0.00620269
0.00605632
0.00591557
0.00578394
0.0056659
0.00556652
0.00549753
0.00547687
0.00832959
0.00835142
0.00822422
0.00800672
0.00777433
0.00754523
0.00732251
0.00710953
0.00690907
0.00672234
0.00654689
0.00637973
0.00621929
0.00606404
0.00591397
0.00577135
0.00563716
0.00551129
0.00539754
0.00530361
0.00784341
0.00790784
0.00787838
0.00775354
0.00759456
0.00742094
0.00723473
0.00704681
0.00686081
0.00667755
0.00649856
0.00632486
0.00615688
0.005995
0.00583947
0.00568933
0.00554226
0.00539741
0.00525636
0.00511147
0.00757746
0.00764035
0.00764411
0.00757046
0.00745035
0.00730398
0.00714112
0.00696974
0.00679563
0.00662208
0.00645095
0.00628311
0.00611893
0.00595847
0.00580157
0.0056475
0.00549516
0.00534458
0.00519746
0.00504384
0.00743468
0.00750419
0.00752631
0.00747377
0.00737253
0.00724161
0.00709171
0.00693075
0.00676426
0.00659594
0.00642815
0.00626232
0.00609921
0.00593917
0.00578214
0.00562733
0.00547358
0.00532028
0.00516777
0.00500583
0.00743468
0.00750419
0.00752631
0.00747377
0.00737253
0.00724161
0.00709171
0.00693075
0.00676426
0.00659594
0.00642815
0.00626232
0.00609921
0.00593917
0.00578214
0.00562734
0.00547358
0.00532029
0.00516777
0.00500583
0.00757746
0.00764035
0.00764411
0.00757046
0.00745036
0.00730399
0.00714114
0.00696976
0.00679566
0.00662213
0.00645102
0.0062832
0.00611904
0.00595857
0.00580162
0.00564738
0.00549463
0.00534314
0.00519399
0.00503712
0.00784342
0.00790785
0.00787839
0.00775356
0.00759459
0.00742098
0.00723479
0.00704691
0.00686096
0.00667778
0.00649891
0.00632538
0.00615763
0.00599605
0.00584089
0.00569109
0.00554406
0.00539838
0.00525375
0.00509938
0.0083296
0.00835143
0.00822424
0.00800675
0.00777437
0.00754529
0.00732261
0.00710969
0.00690933
0.00672274
0.00654753
0.00638075
0.00622088
0.0060665
0.00591779
0.00577714
0.00564568
0.00552316
0.00541263
0.00531551
0.00971425
0.00897306
0.00838489
0.00797679
0.00765487
0.00738821
0.00716678
0.00697632
0.00680588
0.00664973
0.00650079
0.00635247
0.0062044
0.00605921
0.00592056
0.00579277
0.00568151
0.00559495
0.0055506
0.00557689
0.00984842
0.00908569
0.00846691
0.00801559
0.00767161
0.00740258
0.00718297
0.0069942
0.00682641
0.00666904
0.00651347
0.00635834
0.00620445
0.00605245
0.00590297
0.00575699
0.0056157
0.00548137
0.00535954
0.00526417
0.00854552
0.00858902
0.00842344
0.0081605
0.00788011
0.00760875
0.00735775
0.00713137
0.00692835
0.00674176
0.0065646
0.00639382
0.00622802
0.00606601
0.00590686
0.00575008
0.00559566
0.00544471
0.00530057
0.00516782
0.00802642
0.00809448
0.0080421
0.00789511
0.00771022
0.00750507
0.00729439
0.00708746
0.00688627
0.00669373
0.00651095
0.00633606
0.00616702
0.00600246
0.00584129
0.00568242
0.00552495
0.00536878
0.005215
0.0050583
0.00772854
0.00778768
0.00777574
0.00768034
0.00754071
0.00737522
0.007195
0.0070105
0.00682646
0.006646
0.00647076
0.00630052
0.00613465
0.00597249
0.00581348
0.00565674
0.00550128
0.00534688
0.00519434
0.00503446
0.00757746
0.00764035
0.00764411
0.00757046
0.00745035
0.00730399
0.00714114
0.00696976
0.00679566
0.00662213
0.00645102
0.0062832
0.00611904
0.00595857
0.00580163
0.00564738
0.00549463
0.00534314
0.00519399
0.00503712
0.00757746
0.00764035
0.0076441
0.00757046
0.00745035
0.00730398
0.00714112
0.00696974
0.00679562
0.00662208
0.00645095
0.00628311
0.00611893
0.00595847
0.00580157
0.0056475
0.00549517
0.00534459
0.00519747
0.00504385
0.00772854
0.00778768
0.00777574
0.00768034
0.00754072
0.00737522
0.007195
0.0070105
0.00682646
0.00664601
0.00647076
0.00630052
0.00613465
0.00597249
0.00581349
0.00565674
0.00550129
0.00534689
0.00519435
0.00503448
0.00802644
0.0080945
0.00804212
0.00789514
0.00771027
0.00750515
0.0072945
0.00708764
0.00688654
0.00669414
0.0065116
0.00633705
0.0061685
0.00600466
0.00584452
0.00568704
0.00553131
0.00537701
0.00522452
0.00506506
0.00854555
0.00858905
0.00842348
0.00816056
0.00788019
0.00760888
0.00735795
0.00713169
0.00692887
0.00674261
0.00656598
0.006396
0.00623138
0.00607122
0.00591501
0.00576267
0.00561478
0.00547329
0.00534436
0.00522937
0.00984845
0.00908571
0.00846695
0.00801563
0.00767168
0.0074027
0.00718317
0.00699453
0.00682696
0.00666993
0.00651492
0.0063607
0.00620832
0.00605886
0.0059137
0.00577517
0.00564677
0.00553492
0.00545417
0.00542667
0.0102577
0.00940616
0.00864188
0.00808272
0.00770652
0.00743845
0.00722272
0.00702968
0.00685107
0.00668222
0.00651818
0.00635667
0.00619698
0.00603851
0.00587983
0.00571896
0.00555245
0.00537557
0.00518732
0.00498333
0.00896387
0.00909005
0.00878714
0.00837089
0.0080037
0.00768501
0.00740634
0.0071657
0.00695282
0.00675777
0.00657369
0.00639714
0.00622587
0.0060577
0.00589035
0.00572178
0.00555006
0.0053735
0.00519745
0.00504133
0.00839439
0.00849536
0.00838378
0.00815828
0.00790249
0.00764405
0.00738557
0.00714381
0.00692571
0.00672511
0.00653703
0.00635818
0.00618572
0.00601713
0.00585085
0.0056856
0.00552067
0.00535826
0.00520569
0.00506289
0.00802644
0.0080945
0.00804212
0.00789514
0.00771027
0.00750514
0.0072945
0.00708763
0.00688654
0.00669414
0.0065116
0.00633705
0.0061685
0.00600466
0.00584452
0.00568704
0.0055313
0.005377
0.00522451
0.00506505
0.00784342
0.00790785
0.00787839
0.00775356
0.00759459
0.00742098
0.00723479
0.00704691
0.00686096
0.00667778
0.00649891
0.00632538
0.00615763
0.00599605
0.0058409
0.0056911
0.00554407
0.00539838
0.00525376
0.00509939
0.0078434
0.00790784
0.00787837
0.00775354
0.00759456
0.00742093
0.00723472
0.00704681
0.0068608
0.00667755
0.00649857
0.00632487
0.00615689
0.00599501
0.00583948
0.00568935
0.00554228
0.00539743
0.00525639
0.00511149
0.00802642
0.00809448
0.0080421
0.0078951
0.00771022
0.00750507
0.00729439
0.00708746
0.00688627
0.00669373
0.00651095
0.00633606
0.00616702
0.00600247
0.0058413
0.00568244
0.00552497
0.0053688
0.00521503
0.00505833
0.00839439
0.00849536
0.00838378
0.00815828
0.00790249
0.00764405
0.00738557
0.00714381
0.00692571
0.00672512
0.00653703
0.00635818
0.00618572
0.00601714
0.00585086
0.00568561
0.00552069
0.00535828
0.00520572
0.00506292
0.00896389
0.00909007
0.00878717
0.00837093
0.00800376
0.00768509
0.00740649
0.00716594
0.00695321
0.00675838
0.00657465
0.00639864
0.0062282
0.00606127
0.00589569
0.00572951
0.00556062
0.00538623
0.00520689
0.00502585
0.0102577
0.00940619
0.00864191
0.00808276
0.0077066
0.00743858
0.00722292
0.00703001
0.00685161
0.0066831
0.00651961
0.00635898
0.00620073
0.00604462
0.00588982
0.00573534
0.00557971
0.00542135
0.00526807
0.00513316
0.0106059
0.00987208
0.00877917
0.00811318
0.00771054
0.00743672
0.00722542
0.00703902
0.00686432
0.00669653
0.00653306
0.00637202
0.0062115
0.00605002
0.00588703
0.00572054
0.00554557
0.00534952
0.00509121
0.00466509
0.00988934
0.00985763
0.00912939
0.00841886
0.00797245
0.00765641
0.00739739
0.00716954
0.00696465
0.00677577
0.00659731
0.00642538
0.00625646
0.00608833
0.00591968
0.00574837
0.0055695
0.00537781
0.00518757
0.00507698
0.00896388
0.00909006
0.00878716
0.00837093
0.00800376
0.00768509
0.00740649
0.00716594
0.00695321
0.00675838
0.00657465
0.00639864
0.0062282
0.00606127
0.00589569
0.0057295
0.00556061
0.00538621
0.00520686
0.00502581
0.00854555
0.00858905
0.00842348
0.00816055
0.00788019
0.00760888
0.00735795
0.00713169
0.00692887
0.00674261
0.00656598
0.00639601
0.00623138
0.00607123
0.00591501
0.00576268
0.00561478
0.00547328
0.00534434
0.00522935
0.0083296
0.00835143
0.00822423
0.00800675
0.00777437
0.00754529
0.00732261
0.00710969
0.00690932
0.00672274
0.00654753
0.00638076
0.00622089
0.00606651
0.0059178
0.00577716
0.00564569
0.00552317
0.00541264
0.00531552
0.00832958
0.00835141
0.00822421
0.00800672
0.00777432
0.00754522
0.00732251
0.00710952
0.00690907
0.00672234
0.00654689
0.00637973
0.0062193
0.00606405
0.00591399
0.00577137
0.00563719
0.00551132
0.00539758
0.00530365
0.00854551
0.00858902
0.00842344
0.00816049
0.0078801
0.00760875
0.00735775
0.00713136
0.00692834
0.00674176
0.00656461
0.00639383
0.00622803
0.00606602
0.00590688
0.00575011
0.00559569
0.00544475
0.00530062
0.00516788
0.00896386
0.00909004
0.00878714
0.00837089
0.0080037
0.007685
0.00740634
0.0071657
0.00695282
0.00675777
0.00657369
0.00639714
0.00622588
0.00605771
0.00589036
0.0057218
0.00555008
0.00537353
0.0051975
0.00504139
0.00988934
0.00985763
0.00912939
0.00841886
0.00797245
0.00765641
0.00739739
0.00716954
0.00696464
0.00677577
0.00659731
0.00642538
0.00625647
0.00608834
0.00591968
0.00574838
0.00556952
0.00537784
0.00518762
0.00507705
0.0106059
0.0098721
0.00877919
0.00811321
0.00771059
0.00743679
0.00722555
0.00703923
0.00686467
0.00669709
0.00653397
0.00637349
0.00621392
0.00605392
0.00589335
0.00573083
0.00556284
0.00538037
0.00514877
0.00477837
0.0177847
0.0106703
0.00837886
0.00784102
0.00756662
0.00734436
0.00715761
0.00699104
0.00682966
0.00666987
0.00651172
0.00635492
0.00619811
0.00603932
0.00587868
0.00571508
0.00554499
0.00536287
0.00510951
0.00463418
0.0106059
0.0098721
0.00877919
0.0081132
0.00771059
0.00743679
0.00722555
0.00703923
0.00686466
0.00669709
0.00653397
0.00637349
0.00621391
0.00605391
0.00589334
0.00573082
0.00556283
0.00538035
0.00514874
0.00477833
0.0102577
0.00940618
0.00864191
0.00808276
0.0077066
0.00743857
0.00722292
0.00703001
0.00685161
0.0066831
0.00651961
0.00635898
0.00620073
0.00604462
0.00588983
0.00573534
0.0055797
0.00542134
0.00526806
0.00513313
0.00984844
0.00908571
0.00846694
0.00801563
0.00767168
0.0074027
0.00718317
0.00699453
0.00682695
0.00666993
0.00651492
0.00636071
0.00620833
0.00605887
0.00591371
0.00577518
0.00564678
0.00553492
0.00545416
0.00542666
0.00971424
0.00897306
0.00838489
0.00797678
0.00765487
0.00738821
0.00716678
0.00697632
0.00680588
0.00664973
0.00650079
0.00635248
0.00620441
0.00605923
0.00592058
0.00579278
0.00568153
0.00559496
0.0055506
0.00557689
0.00971423
0.00897305
0.00838487
0.00797676
0.00765483
0.00738815
0.00716669
0.00697617
0.00680565
0.00664935
0.00650017
0.00635145
0.0062027
0.00605633
0.00591559
0.00578396
0.00566593
0.00556655
0.00549758
0.00547692
0.00984842
0.00908568
0.00846691
0.00801558
0.0076716
0.00740257
0.00718297
0.00699419
0.00682641
0.00666904
0.00651347
0.00635835
0.00620446
0.00605246
0.00590299
0.00575701
0.00561573
0.0054814
0.00535958
0.00526423
0.0102577
0.00940616
0.00864187
0.00808271
0.00770652
0.00743844
0.00722271
0.00702967
0.00685106
0.00668222
0.00651818
0.00635667
0.00619698
0.00603852
0.00587985
0.00571898
0.00555247
0.0053756
0.00518736
0.00498338
0.0106059
0.00987208
0.00877917
0.00811317
0.00771054
0.00743671
0.00722542
0.00703901
0.00686432
0.00669653
0.00653306
0.00637202
0.0062115
0.00605002
0.00588704
0.00572056
0.00554558
0.00534954
0.00509125
0.00466516
0.0177847
0.0106703
0.00837886
0.00784101
0.00756662
0.00734435
0.00715761
0.00699103
0.00682966
0.00666987
0.00651171
0.00635493
0.00619811
0.00603932
0.00587869
0.00571509
0.005545
0.00536289
0.00510954
0.00463423
0.00557602
0.00485294
0.00434233
0.00423192
0.00414151
0.00401435
0.00388563
0.00375877
0.00363097
0.00350288
0.00337459
0.00324715
0.00312003
0.00299301
0.00286743
0.00274347
0.00262077
0.00249881
0.00237833
0.00225969
0.00214316
0.00202827
0.0019155
0.00180208
0.00168546
0.00156961
0.00145647
0.00134601
0.00123782
0.0011279
0.001015
0.000903281
0.000794507
0.000688607
0.00058374
0.000476697
0.000367813
0.000259807
0.000154212
5.05082e-05
0.00560995
0.00492624
0.00443627
0.00425757
0.0041433
0.00401626
0.00388824
0.00376118
0.00363271
0.00350362
0.00337443
0.00324605
0.003118
0.00299033
0.00286402
0.00273932
0.00261628
0.00249422
0.00237383
0.00225529
0.00213898
0.00202427
0.00191144
0.00179801
0.00168167
0.00156617
0.0014534
0.0013433
0.00123528
0.00112549
0.00101293
0.000901628
0.000793333
0.00068782
0.000583023
0.000475894
0.000367081
0.000259433
0.000154023
5.05385e-05
0.00530469
0.00493854
0.00459019
0.00436791
0.00420605
0.00405922
0.00391764
0.00378053
0.00364581
0.00351241
0.00338004
0.00324947
0.00311938
0.00299018
0.002863
0.00273773
0.00261431
0.00249206
0.00237179
0.00225309
0.00213684
0.00202231
0.00190925
0.00179554
0.00167932
0.00156418
0.00145177
0.00134188
0.00123375
0.00112382
0.00101143
0.000900622
0.000792603
0.000686915
0.000582555
0.000475716
0.000366492
0.000258973
0.000153892
5.05454e-05
0.00498613
0.0048461
0.00463878
0.00444159
0.00426979
0.00411273
0.00396229
0.00381651
0.00367471
0.00353586
0.00339952
0.00326561
0.00313335
0.00300255
0.00287369
0.00274681
0.00262199
0.00249871
0.00237756
0.00225844
0.00214123
0.00202594
0.00191217
0.00179768
0.00168132
0.00156589
0.00145328
0.00134336
0.00123483
0.00112463
0.00101222
0.000901457
0.000793276
0.000687409
0.000582899
0.000475924
0.000366526
0.000259055
0.000154023
5.05708e-05
0.00482639
0.00476533
0.00463006
0.00445836
0.00429005
0.0041304
0.00397706
0.00382962
0.00368653
0.00354612
0.00340817
0.00327298
0.00314003
0.0030087
0.0028793
0.002752
0.00262672
0.00250331
0.00238181
0.00226219
0.00214428
0.00202845
0.00191427
0.00179912
0.00168267
0.00156761
0.00145486
0.00134456
0.00123593
0.00112554
0.00101322
0.000902465
0.000794008
0.000687866
0.000583057
0.000476024
0.000366983
0.000259509
0.000154247
5.06313e-05
0.0047878
0.00473258
0.0046158
0.00445502
0.00428979
0.00413021
0.00397625
0.00382842
0.003686
0.00354659
0.00340968
0.00327533
0.00314286
0.00301161
0.00288213
0.00275472
0.00262933
0.00250586
0.00238425
0.00226453
0.00214667
0.00203081
0.00191652
0.00180134
0.00168476
0.00156942
0.00145655
0.0013461
0.00123752
0.00112717
0.00101448
0.000903356
0.000794791
0.000688601
0.000583684
0.000476665
0.000367448
0.00025969
0.000154497
5.08296e-05
0.0048551
0.00477135
0.00461177
0.00443803
0.00427268
0.0041149
0.00396301
0.00381783
0.0036778
0.00354053
0.0034057
0.00327299
0.00314129
0.00301041
0.00288128
0.00275424
0.00262923
0.00250607
0.00238466
0.00226516
0.00214752
0.00203208
0.00191849
0.00180369
0.00168699
0.00157132
0.00145799
0.00134758
0.00123927
0.00112863
0.00101537
0.000903779
0.000794907
0.000688879
0.000584642
0.000477861
0.000368312
0.000259791
0.000154172
5.06683e-05
0.00504649
0.00485816
0.00462226
0.00441999
0.00424721
0.0040901
0.00394215
0.00380083
0.00366368
0.00352931
0.00339688
0.00326577
0.00313508
0.00300502
0.00287649
0.00274997
0.00262553
0.00250295
0.00238161
0.00226269
0.00214612
0.00203134
0.00191852
0.0018041
0.00168713
0.0015712
0.00145772
0.00134736
0.00123935
0.00112872
0.00101518
0.000903418
0.000794413
0.000687932
0.000583894
0.000479028
0.00037049
0.000260691
0.000153972
5.04177e-05
0.00532634
0.00494329
0.00458351
0.00435427
0.00418797
0.00403995
0.00390158
0.00376912
0.003639
0.00350969
0.00338069
0.00325195
0.00312347
0.00299562
0.00287007
0.00274627
0.00262362
0.00250194
0.00238124
0.00226263
0.00214599
0.00203124
0.00191851
0.00180465
0.00168748
0.00157128
0.00145784
0.00134732
0.00123916
0.00112872
0.00101536
0.000903484
0.000794438
0.000688141
0.000584036
0.000479122
0.000370592
0.000260557
0.00015361
5.01749e-05
0.00558473
0.00492505
0.00444648
0.00426865
0.00414789
0.00401358
0.00388297
0.00375655
0.00363017
0.00350315
0.00337583
0.00324908
0.00312221
0.00299565
0.00287113
0.00274823
0.00262599
0.00250438
0.00238375
0.00226503
0.00214816
0.002033
0.00192039
0.00180671
0.00168948
0.00157289
0.00145914
0.00134839
0.00124019
0.00113001
0.00101664
0.000904375
0.000794971
0.000688443
0.000584
0.000479425
0.000371396
0.000261411
0.000154152
5.0268e-05
0.00557596
0.0048529
0.0043423
0.00423179
0.00414143
0.00401443
0.0038858
0.00375896
0.00363126
0.00350298
0.00337478
0.00324741
0.00311994
0.00299276
0.0028673
0.00274349
0.00262087
0.00249915
0.00237866
0.00226016
0.00214357
0.00202851
0.00191587
0.0018024
0.00168568
0.00156972
0.00145642
0.00134584
0.00123771
0.00112792
0.00101504
0.000903241
0.000794201
0.000687895
0.00058334
0.000478442
0.000370314
0.000260689
0.000153892
5.01316e-05
0.00558478
0.00492508
0.00444652
0.00426877
0.00414799
0.00401352
0.0038828
0.00375633
0.00362984
0.00350294
0.00337546
0.00324861
0.00312193
0.00299553
0.00287088
0.00274781
0.00262563
0.00250367
0.00238308
0.00226428
0.00214753
0.00203261
0.00191994
0.00180637
0.00168929
0.00157292
0.00145947
0.00134892
0.00124069
0.00113044
0.00101697
0.000904741
0.000795726
0.000689821
0.000584736
0.000477216
0.000368092
0.000259888
0.000154131
5.04929e-05
0.00535442
0.00491768
0.00455759
0.00434025
0.00418031
0.00403434
0.00389627
0.00376438
0.00363479
0.00350595
0.00337749
0.00325032
0.00312285
0.00299578
0.00287011
0.00274609
0.00262382
0.00250171
0.00238127
0.00226233
0.00214583
0.00203132
0.00191873
0.00180529
0.00168824
0.00157198
0.00145844
0.00134787
0.00124002
0.00113001
0.0010165
0.000904233
0.000794953
0.000688978
0.000585392
0.000478807
0.000368467
0.000259467
0.000153665
5.02954e-05
0.00509041
0.00484153
0.00460795
0.00439814
0.00421946
0.00406018
0.00391193
0.00377153
0.00363623
0.00350343
0.00337262
0.00324337
0.00311517
0.00298769
0.00286172
0.00273809
0.00261584
0.00249427
0.00237404
0.0022557
0.00213931
0.00202459
0.00191092
0.00179675
0.00168162
0.00156729
0.0014547
0.00134413
0.00123491
0.00112464
0.00101318
0.000902918
0.000794237
0.000687481
0.000582973
0.000476932
0.000368231
0.000260577
0.000154985
5.0856e-05
0.00493024
0.00475633
0.00458021
0.00439648
0.00422737
0.0040727
0.00392609
0.00378486
0.00364766
0.00351302
0.00338053
0.00324955
0.0031203
0.00299232
0.00286564
0.00274068
0.00261719
0.00249531
0.00237489
0.00225671
0.0021398
0.0020238
0.00190874
0.00179383
0.00167955
0.00156629
0.00145408
0.00134303
0.00123279
0.00112254
0.00101255
0.000903352
0.000795026
0.000687883
0.000581563
0.000474996
0.000368352
0.000262104
0.000156484
5.1624e-05
0.00470991
0.00458642
0.00448882
0.00435241
0.00420568
0.00406399
0.00392499
0.00378684
0.0036503
0.00351592
0.00338335
0.0032523
0.00312282
0.00299469
0.00286788
0.00274261
0.00261887
0.00249677
0.00237614
0.0022571
0.00213963
0.0020238
0.00190878
0.00179372
0.00167938
0.00156622
0.0014543
0.00134317
0.00123241
0.00112212
0.00101257
0.000903666
0.00079563
0.000688279
0.000581113
0.000474406
0.000368385
0.000262671
0.000157312
5.21075e-05
0.00470439
0.00456863
0.00447868
0.00435195
0.00420913
0.00406892
0.00393101
0.00379299
0.00365578
0.00352068
0.00338768
0.00325628
0.00312638
0.0029979
0.00287081
0.00274522
0.0026212
0.00249878