/*--------------------------------*- C++ -*----------------------------------*\
| =========                 |                                                 |
| \\      /  F ield         | OpenFOAM: The Open Source CFD Toolbox           |
|  \\    /   O peration     | Version:  2212                                  |
|   \\  /    A nd           | Website:  www.openfoam.com                      |
|    \\/     M anipulation  |                                                 |
\*---------------------------------------------------------------------------*/
FoamFile
{
    version     2.0;
    format      ascii;
    arch        "LSB;label=32;scalar=64";
    class       surfaceScalarField;
    location    "0.85";
    object      phi;
}
// * * * * * * * * * * * * * * * * * * * * * * * * * * * * * * * * * * * * * //

dimensions      [0 3 -1 0 0 0 0];

oriented        oriented;

internalField   nonuniform List<scalar> 
19019
(
3.3225e-07
1.09686e-09
1.09678e-09
2.79191e-07
2.65296e-08
2.65294e-08
2.49218e-07
1.49864e-08
1.4986e-08
2.29255e-07
9.98195e-09
9.98138e-09
2.14836e-07
7.20993e-09
7.20897e-09
2.03201e-07
5.81817e-09
5.81668e-09
1.93774e-07
4.71476e-09
4.71213e-09
1.86008e-07
3.88539e-09
3.88086e-09
1.79362e-07
3.327e-09
3.3194e-09
1.73536e-07
2.91913e-09
2.90655e-09
1.68368e-07
2.59418e-09
2.57368e-09
1.63755e-07
2.32355e-09
2.2899e-09
1.59613e-07
2.0993e-09
2.04267e-09
1.55871e-07
1.91719e-09
1.82465e-09
1.52547e-07
1.73824e-09
1.58578e-09
1.49706e-07
1.54672e-09
1.29419e-09
1.47484e-07
1.32928e-09
8.93023e-10
1.4717e-07
5.33724e-10
-2.202e-10
1.51076e-07
-1.16825e-09
-2.73741e-09
-1.86603e-08
-2.51592e-08
6.3138e-07
3.58753e-09
7.40287e-09
6.14564e-07
2.26454e-08
2.07002e-08
5.86446e-07
2.43752e-08
1.8729e-08
5.61728e-07
1.88533e-08
1.58465e-08
5.39623e-07
1.55665e-08
1.37488e-08
5.20646e-07
1.35051e-08
1.12902e-08
5.04706e-07
1.19432e-08
8.7113e-09
4.90964e-07
1.0785e-08
6.84283e-09
4.7876e-07
9.92249e-09
5.60793e-09
4.67708e-07
9.19713e-09
4.77459e-09
4.5758e-07
8.54718e-09
4.17515e-09
4.48246e-07
7.9422e-09
3.71473e-09
4.39621e-07
7.35805e-09
3.36666e-09
4.31644e-07
6.78175e-09
3.11282e-09
4.24368e-07
6.15092e-09
2.86346e-09
4.17956e-07
5.38657e-09
2.57187e-09
4.13008e-07
4.2214e-09
2.05609e-09
4.11503e-07
1.59836e-09
4.39622e-10
4.18155e-07
-3.7031e-09
-4.11627e-09
-1.99171e-08
-2.19369e-08
8.90375e-07
2.85248e-09
6.33234e-09
8.82487e-07
1.34078e-08
1.71258e-08
8.7036e-07
1.78656e-08
1.86358e-08
8.55115e-07
1.69522e-08
1.71469e-08
8.39986e-07
1.53347e-08
1.53603e-08
8.2554e-07
1.41604e-08
1.37905e-08
8.11777e-07
1.33628e-08
1.23439e-08
7.98791e-07
1.26468e-08
1.11243e-08
7.86731e-07
1.18391e-08
1.01427e-08
7.75612e-07
1.09623e-08
9.35433e-09
7.65297e-07
1.01024e-08
8.75939e-09
7.55645e-07
9.26656e-09
8.32772e-09
7.46546e-07
8.44293e-09
8.01465e-09
7.37972e-07
7.59064e-09
7.76519e-09
7.2996e-07
6.61555e-09
7.54684e-09
7.22735e-07
5.34062e-09
7.27099e-09
7.16694e-07
3.48627e-09
6.77629e-09
7.12046e-07
5.4548e-10
5.70109e-09
7.09193e-07
-4.6229e-09
3.77257e-09
-1.31356e-08
-6.50161e-10
1.07432e-06
1.06466e-09
5.56888e-09
1.06824e-06
5.58595e-09
1.39002e-08
1.06138e-06
8.46283e-09
1.62618e-08
1.05338e-06
9.03781e-09
1.59091e-08
1.0451e-06
8.61435e-09
1.5003e-08
1.03721e-06
8.11439e-09
1.39353e-08
1.02982e-06
7.77592e-09
1.29808e-08
1.02281e-06
7.53623e-09
1.21214e-08
1.01595e-06
7.33872e-09
1.13564e-08
1.00917e-06
7.03245e-09
1.07128e-08
1.00248e-06
6.55728e-09
1.0232e-08
9.95853e-07
5.99949e-09
9.89515e-09
9.89211e-07
5.40788e-09
9.67765e-09
9.8245e-07
4.77006e-09
9.58088e-09
9.75431e-07
4.04063e-09
9.59397e-09
9.67995e-07
3.05635e-09
9.72006e-09
9.59887e-07
1.61834e-09
9.97654e-09
9.50503e-07
-4.98113e-10
1.04273e-08
9.38883e-07
-4.12374e-09
1.11206e-08
-8.57089e-09
1.28321e-08
1.16914e-06
-5.65366e-14
4.90655e-09
1.16312e-06
-2.44867e-13
1.16084e-08
1.15731e-06
-4.87544e-13
1.42757e-08
1.15201e-06
-8.05594e-13
1.43344e-08
1.1469e-06
-1.29465e-12
1.37328e-08
1.14204e-06
-2.08363e-12
1.2974e-08
1.13771e-06
-3.33051e-12
1.21084e-08
1.13393e-06
-5.3262e-12
1.13211e-08
1.1306e-06
-8.56831e-12
1.06728e-08
1.12742e-06
-1.39126e-11
1.02295e-08
1.12404e-06
-2.27813e-11
9.9612e-09
1.12028e-06
-3.76135e-11
9.80081e-09
1.11598e-06
-6.28211e-11
9.77189e-09
1.11093e-06
-1.05411e-10
9.92284e-09
1.10486e-06
-1.80601e-10
1.02844e-08
1.09728e-06
-3.16466e-10
1.09526e-08
1.08735e-06
-5.60783e-10
1.21115e-08
1.07394e-06
-1.02626e-09
1.39454e-08
1.05551e-06
-1.92694e-09
1.62333e-08
-3.71644e-09
2.19381e-08
1.16914e-06
-1.06476e-09
4.90656e-09
1.16312e-06
-5.58631e-09
1.16085e-08
1.15731e-06
-8.46353e-09
1.42758e-08
1.15201e-06
-9.03897e-09
1.43346e-08
1.14689e-06
-8.61626e-09
1.37331e-08
1.14203e-06
-8.11746e-09
1.29745e-08
1.1377e-06
-7.78081e-09
1.21091e-08
1.13392e-06
-7.544e-09
1.13223e-08
1.13059e-06
-7.35107e-09
1.06746e-08
1.12739e-06
-7.05217e-09
1.02323e-08
1.12399e-06
-6.58913e-09
9.96558e-09
1.1202e-06
-6.05153e-09
9.80865e-09
1.11584e-06
-5.49399e-09
9.78694e-09
1.1107e-06
-4.91201e-09
9.95166e-09
1.10445e-06
-4.2774e-09
1.0342e-08
1.09653e-06
-3.46167e-09
1.10736e-08
1.0859e-06
-2.30165e-09
1.23689e-08
1.07104e-06
-6.69791e-10
1.45046e-08
1.04951e-06
2.00293e-09
1.7594e-08
5.29948e-09
2.6067e-08
1.07432e-06
-2.85248e-09
5.5689e-09
1.06824e-06
-1.34079e-08
1.39003e-08
1.06138e-06
-1.78658e-08
1.6262e-08
1.05338e-06
-1.69524e-08
1.59095e-08
1.0451e-06
-1.53351e-08
1.50036e-08
1.0372e-06
-1.41611e-08
1.39361e-08
1.0298e-06
-1.33638e-08
1.29821e-08
1.02279e-06
-1.26481e-08
1.21235e-08
1.01592e-06
-1.18409e-08
1.13596e-08
1.00911e-06
-1.09648e-08
1.07181e-08
1.00239e-06
-1.0106e-08
1.02411e-08
9.95695e-07
-9.27225e-09
9.91128e-09
9.88946e-07
-8.45214e-09
9.70712e-09
9.82003e-07
-7.60502e-09
9.63612e-09
9.74662e-07
-6.63778e-09
9.70133e-09
9.6665e-07
-5.38171e-09
9.93208e-09
9.57503e-07
-3.54687e-09
1.03925e-08
9.46277e-07
-6.63547e-10
1.122e-08
9.31379e-07
4.30368e-09
1.25975e-08
1.29966e-08
1.5401e-08
8.90375e-07
-3.58746e-09
6.33236e-09
8.82486e-07
-2.26452e-08
1.71259e-08
8.70359e-07
-2.43749e-08
1.8636e-08
8.55112e-07
-1.88528e-08
1.71472e-08
8.39982e-07
-1.55657e-08
1.53607e-08
8.25534e-07
-1.35038e-08
1.37912e-08
8.11766e-07
-1.1941e-08
1.2345e-08
7.98773e-07
-1.07813e-08
1.11261e-08
7.86703e-07
-9.91636e-09
1.01456e-08
7.75566e-07
-9.18705e-09
9.35928e-09
7.65223e-07
-8.53071e-09
8.76806e-09
7.55523e-07
-7.91557e-09
8.34324e-09
7.46343e-07
-7.31469e-09
8.0425e-09
7.37632e-07
-6.71158e-09
7.8177e-09
7.29383e-07
-6.03655e-09
7.64838e-09
7.21733e-07
-5.20488e-09
7.4735e-09
7.14963e-07
-3.95735e-09
7.18012e-09
7.08985e-07
-1.20402e-09
6.51831e-09
7.03429e-07
4.43094e-09
5.42954e-09
2.3954e-08
1.32049e-09
6.3138e-07
-1.09677e-09
7.40289e-09
6.14564e-07
-2.65293e-08
2.07003e-08
5.86446e-07
-1.4986e-08
1.87291e-08
5.61728e-07
-9.98137e-09
1.58468e-08
5.39622e-07
-7.20896e-09
1.37492e-08
5.20644e-07
-5.81667e-09
1.1291e-08
5.04702e-07
-4.71212e-09
8.71253e-09
4.90957e-07
-3.88085e-09
6.84468e-09
4.78749e-07
-3.31938e-09
5.61088e-09
4.67689e-07
-2.90653e-09
4.77939e-09
4.57549e-07
-2.57364e-09
4.18321e-09
4.48196e-07
-2.28984e-09
3.72746e-09
4.39538e-07
-2.04258e-09
3.38557e-09
4.31503e-07
-1.82452e-09
3.14884e-09
4.24123e-07
-1.58562e-09
2.92839e-09
4.17521e-07
-1.29396e-09
2.69151e-09
4.12179e-07
-8.92673e-10
2.27776e-09
4.09952e-07
2.20628e-10
8.02624e-10
4.15305e-07
2.73806e-09
-3.65974e-09
2.51619e-08
-2.355e-08
3.3225e-07
1.09686e-09
2.79191e-07
2.65296e-08
2.49218e-07
1.49864e-08
2.29255e-07
9.98196e-09
2.14836e-07
7.20993e-09
2.03201e-07
5.81817e-09
1.93774e-07
4.71476e-09
1.86008e-07
3.88538e-09
1.79362e-07
3.32699e-09
1.73536e-07
2.91912e-09
1.68368e-07
2.59418e-09
1.63755e-07
2.32356e-09
1.59613e-07
2.09932e-09
1.55871e-07
1.91723e-09
1.52547e-07
1.73832e-09
1.49707e-07
1.54687e-09
1.47485e-07
1.32951e-09
1.47171e-07
5.3404e-10
1.51077e-07
-1.16782e-09
-1.86583e-08
6.3138e-07
7.40289e-09
3.58747e-09
6.14564e-07
2.07003e-08
2.26452e-08
5.86446e-07
1.87291e-08
2.43749e-08
5.61728e-07
1.58468e-08
1.88528e-08
5.39622e-07
1.37492e-08
1.55657e-08
5.20644e-07
1.1291e-08
1.35038e-08
5.04702e-07
8.71253e-09
1.1941e-08
4.90957e-07
6.84469e-09
1.07813e-08
4.78749e-07
5.61089e-09
9.9164e-09
4.67689e-07
4.77939e-09
9.18712e-09
4.57549e-07
4.18321e-09
8.53081e-09
4.48196e-07
3.72745e-09
7.91573e-09
4.39538e-07
3.38556e-09
7.31489e-09
4.31502e-07
3.14882e-09
6.71187e-09
4.24123e-07
2.92829e-09
6.03692e-09
4.1752e-07
2.69133e-09
5.20539e-09
4.12178e-07
2.27743e-09
3.95814e-09
4.0995e-07
8.02046e-10
1.20502e-09
4.15303e-07
-3.66057e-09
-4.42964e-09
-2.35502e-08
-2.39515e-08
9.23617e-07
7.03378e-09
7.03373e-09
9.25318e-07
1.98494e-08
1.98492e-08
9.17185e-07
2.27958e-08
2.27956e-08
9.04277e-07
2.23007e-08
2.23003e-08
8.90538e-07
2.0619e-08
2.06183e-08
8.77417e-07
1.78518e-08
1.78506e-08
8.65453e-07
1.46946e-08
1.46927e-08
8.54786e-07
1.21791e-08
1.21759e-08
8.45364e-07
1.03229e-08
1.03177e-08
8.37049e-07
8.93889e-09
8.93047e-09
8.29662e-07
7.87916e-09
7.86584e-09
8.23029e-07
7.04798e-09
7.02728e-09
8.17071e-07
6.37104e-09
6.33873e-09
8.11845e-07
5.76973e-09
5.71841e-09
8.07437e-07
5.13935e-09
5.06065e-09
8.04017e-07
4.39935e-09
4.28353e-09
8.01797e-07
3.35424e-09
3.19935e-09
8.00141e-07
1.53265e-09
1.36515e-09
7.95979e-07
-1.77266e-09
-1.84218e-09
-7.70934e-09
-7.26892e-09
1.1589e-06
5.28116e-09
6.10243e-09
1.1657e-06
1.3998e-08
1.61823e-08
1.16845e-06
1.79765e-08
2.07053e-08
1.16661e-06
1.91766e-08
2.21029e-08
1.16222e-06
1.88726e-08
2.15038e-08
1.15655e-06
1.75395e-08
1.97681e-08
1.15049e-06
1.56745e-08
1.74226e-08
1.14461e-06
1.38668e-08
1.53254e-08
1.1392e-06
1.22508e-08
1.36237e-08
1.1344e-06
1.08291e-08
1.22603e-08
1.13023e-06
9.63412e-09
1.1177e-08
1.12665e-06
8.62838e-09
1.03208e-08
1.12367e-06
7.7379e-09
9.63122e-09
1.12129e-06
6.87987e-09
9.03426e-09
1.11955e-06
5.95367e-09
8.47793e-09
1.11848e-06
4.8645e-09
7.87422e-09
1.11808e-06
3.43527e-09
7.09292e-09
1.11789e-06
1.45266e-09
5.96999e-09
1.11695e-06
-1.36792e-09
4.31198e-09
-5.12323e-09
2.4836e-09
1.32763e-06
2.71801e-09
4.93102e-09
1.33539e-06
7.12017e-09
1.30087e-08
1.34287e-06
9.55215e-09
1.72155e-08
1.34848e-06
1.05759e-08
1.88995e-08
1.35198e-06
1.08717e-08
1.95027e-08
1.35376e-06
1.05746e-08
1.91185e-08
1.35442e-06
9.8819e-09
1.81069e-08
1.35456e-06
9.02947e-09
1.68221e-08
1.35452e-06
8.16641e-09
1.54821e-08
1.35445e-06
7.34898e-09
1.42643e-08
1.35441e-06
6.59941e-09
1.33009e-08
1.35446e-06
5.91253e-09
1.25619e-08
1.35461e-06
5.26181e-09
1.20102e-08
1.35484e-06
4.61049e-09
1.1617e-08
1.35515e-06
3.87577e-09
1.13591e-08
1.3555e-06
3.00617e-09
1.12296e-08
1.35578e-06
1.89369e-09
1.12421e-08
1.35578e-06
4.47402e-10
1.14289e-08
1.35513e-06
-1.43413e-09
1.18427e-08
-3.44926e-09
1.27942e-08
1.41518e-06
-8.51074e-14
4.19285e-09
1.42279e-06
-2.37709e-13
1.11159e-08
1.43152e-06
-4.09453e-13
1.50987e-08
1.4398e-06
-6.74672e-13
1.66302e-08
1.44713e-06
-1.1019e-12
1.72783e-08
1.45316e-06
-1.7321e-12
1.75159e-08
1.45799e-06
-2.67566e-12
1.71633e-08
1.46189e-06
-4.19061e-12
1.64542e-08
1.46516e-06
-6.61889e-12
1.55793e-08
1.46803e-06
-1.05171e-11
1.47196e-08
1.47066e-06
-1.65799e-11
1.3942e-08
1.4731e-06
-2.63043e-11
1.33063e-08
1.47526e-06
-4.1782e-11
1.29085e-08
1.47711e-06
-6.6422e-11
1.27536e-08
1.47858e-06
-1.06013e-10
1.2792e-08
1.47959e-06
-1.66783e-10
1.31143e-08
1.48003e-06
-2.56372e-10
1.38297e-08
1.47977e-06
-3.78768e-10
1.50317e-08
1.47843e-06
-5.20415e-10
1.66591e-08
-4.87784e-10
1.86164e-08
1.41518e-06
-2.71811e-09
4.19289e-09
1.42279e-06
-7.12046e-09
1.1116e-08
1.43152e-06
-9.55268e-09
1.50989e-08
1.4398e-06
-1.05768e-08
1.66305e-08
1.44712e-06
-1.08731e-08
1.72788e-08
1.45316e-06
-1.05768e-08
1.75166e-08
1.45798e-06
-9.88534e-09
1.71643e-08
1.46188e-06
-9.03486e-09
1.64558e-08
1.46514e-06
-8.17491e-09
1.55819e-08
1.468e-06
-7.3626e-09
1.47239e-08
1.47062e-06
-6.62107e-09
1.39487e-08
1.47304e-06
-5.94721e-09
1.33173e-08
1.47517e-06
-5.3167e-09
1.29273e-08
1.47697e-06
-4.69895e-09
1.27862e-08
1.47838e-06
-4.02097e-09
1.28499e-08
1.47931e-06
-3.2391e-09
1.32168e-08
1.47967e-06
-2.26216e-09
1.40095e-08
1.47947e-06
-1.01583e-09
1.53423e-08
1.47881e-06
5.6243e-10
1.71692e-08
2.3887e-09
1.90071e-08
1.32762e-06
-5.28113e-09
4.93109e-09
1.33539e-06
-1.3998e-08
1.30089e-08
1.34286e-06
-1.79765e-08
1.72158e-08
1.34847e-06
-1.91766e-08
1.89001e-08
1.35197e-06
-1.88726e-08
1.95037e-08
1.35375e-06
-1.75394e-08
1.91198e-08
1.35441e-06
-1.56744e-08
1.8109e-08
1.35454e-06
-1.38666e-08
1.68255e-08
1.35449e-06
-1.22503e-08
1.54875e-08
1.3544e-06
-1.08283e-08
1.42732e-08
1.35434e-06
-9.63293e-09
1.33158e-08
1.35434e-06
-8.62679e-09
1.25866e-08
1.35442e-06
-7.735e-09
1.20513e-08
1.35454e-06
-6.877e-09
1.16865e-08
1.3547e-06
-5.95145e-09
1.14772e-08
1.35483e-06
-4.86226e-09
1.14286e-08
1.35481e-06
-3.43011e-09
1.15715e-08
1.3545e-06
-1.4264e-09
1.19476e-08
1.35356e-06
1.52446e-09
1.25709e-08
5.91332e-09
1.32161e-08
1.1589e-06
-7.03373e-09
6.1025e-09
1.1657e-06
-1.98492e-08
1.61825e-08
1.16845e-06
-2.27956e-08
2.07056e-08
1.16661e-06
-2.23003e-08
2.21034e-08
1.16222e-06
-2.06183e-08
2.15046e-08
1.15655e-06
-1.78506e-08
1.97694e-08
1.15049e-06
-1.46927e-08
1.74246e-08
1.14459e-06
-1.21759e-08
1.53288e-08
1.13918e-06
-1.03177e-08
1.36293e-08
1.13437e-06
-8.9304e-09
1.22693e-08
1.13018e-06
-7.86573e-09
1.11917e-08
1.12658e-06
-7.02712e-09
1.03448e-08
1.12355e-06
-6.33849e-09
9.67065e-09
1.12111e-06
-5.71815e-09
9.0992e-09
1.11929e-06
-5.06038e-09
8.58359e-09
1.11814e-06
-4.28315e-09
8.04432e-09
1.11773e-06
-3.19889e-09
7.35453e-09
1.11785e-06
-1.36461e-09
6.33466e-09
1.11829e-06
1.84281e-09
4.6756e-09
7.27022e-09
2.13238e-09
9.23617e-07
-7.40287e-09
7.03379e-09
9.25318e-07
-2.07002e-08
1.98494e-08
9.17185e-07
-1.8729e-08
2.27958e-08
9.04277e-07
-1.58465e-08
2.23007e-08
8.90538e-07
-1.37488e-08
2.0619e-08
8.77417e-07
-1.12902e-08
1.78518e-08
8.65453e-07
-8.71128e-09
1.46946e-08
8.54786e-07
-6.8428e-09
1.21791e-08
8.45364e-07
-5.60789e-09
1.03229e-08
8.37049e-07
-4.77454e-09
8.93885e-09
8.29662e-07
-4.17508e-09
7.87911e-09
8.23029e-07
-3.71463e-09
7.04793e-09
8.17072e-07
-3.36655e-09
6.37098e-09
8.11846e-07
-3.11269e-09
5.76968e-09
8.07438e-07
-2.86335e-09
5.13936e-09
8.04019e-07
-2.57174e-09
4.39942e-09
8.01799e-07
-2.05594e-09
3.35443e-09
8.00144e-07
-4.39459e-10
1.53298e-09
7.95982e-07
4.11661e-09
-1.77224e-09
2.19362e-08
-7.70955e-09
6.3138e-07
3.58753e-09
6.14564e-07
2.26454e-08
5.86446e-07
2.43752e-08
5.61728e-07
1.88533e-08
5.39623e-07
1.55665e-08
5.20646e-07
1.35051e-08
5.04706e-07
1.19432e-08
4.90964e-07
1.0785e-08
4.7876e-07
9.92248e-09
4.67708e-07
9.19712e-09
4.5758e-07
8.54716e-09
4.48247e-07
7.94217e-09
4.39621e-07
7.35803e-09
4.31644e-07
6.7817e-09
4.24368e-07
6.15085e-09
4.17957e-07
5.38652e-09
4.13009e-07
4.22135e-09
4.11506e-07
1.59827e-09
4.18158e-07
-3.70322e-09
-1.99162e-08
8.90375e-07
6.33236e-09
2.85249e-09
8.82486e-07
1.71259e-08
1.34079e-08
8.70359e-07
1.8636e-08
1.78658e-08
8.55112e-07
1.71472e-08
1.69524e-08
8.39982e-07
1.53607e-08
1.53351e-08
8.25534e-07
1.37912e-08
1.41611e-08
8.11766e-07
1.2345e-08
1.33638e-08
7.98773e-07
1.11261e-08
1.26481e-08
7.86703e-07
1.01456e-08
1.18409e-08
7.75566e-07
9.3593e-09
1.09648e-08
7.65223e-07
8.76807e-09
1.01061e-08
7.55523e-07
8.34324e-09
9.27244e-09
7.46343e-07
8.04251e-09
8.45244e-09
7.37632e-07
7.81766e-09
7.60545e-09
7.29382e-07
7.64829e-09
6.63837e-09
7.21732e-07
7.47334e-09
5.38251e-09
7.14962e-07
7.17982e-09
3.54793e-09
7.08985e-07
6.51764e-09
6.6477e-10
7.03429e-07
5.42839e-09
-4.30244e-09
1.31935e-09
-1.2995e-08
1.1589e-06
6.1025e-09
5.28114e-09
1.1657e-06
1.61825e-08
1.3998e-08
1.16845e-06
2.07056e-08
1.79765e-08
1.16661e-06
2.21034e-08
1.91766e-08
1.16222e-06
2.15046e-08
1.88726e-08
1.15655e-06
1.97694e-08
1.75394e-08
1.15049e-06
1.74246e-08
1.56744e-08
1.14459e-06
1.53288e-08
1.38666e-08
1.13918e-06
1.36293e-08
1.22504e-08
1.13437e-06
1.22694e-08
1.08283e-08
1.13018e-06
1.11918e-08
9.63308e-09
1.12658e-06
1.03449e-08
8.62701e-09
1.12355e-06
9.67068e-09
7.73534e-09
1.12111e-06
9.09917e-09
6.8774e-09
1.11929e-06
8.58347e-09
5.95194e-09
1.11814e-06
8.04413e-09
4.86295e-09
1.11773e-06
7.35422e-09
3.431e-09
1.11785e-06
6.33413e-09
1.42746e-09
1.11828e-06
4.67497e-09
-1.523e-09
2.13247e-09
-5.9104e-09
1.37712e-06
4.57706e-09
4.57701e-09
1.38565e-06
1.19163e-08
1.19161e-08
1.39417e-06
1.64453e-08
1.64451e-08
1.40126e-06
1.85576e-08
1.85574e-08
1.40642e-06
1.8926e-08
1.89256e-08
1.40953e-06
1.8216e-08
1.82154e-08
1.41096e-06
1.67061e-08
1.67051e-08
1.41157e-06
1.50271e-08
1.50254e-08
1.41187e-06
1.34739e-08
1.34713e-08
1.41216e-06
1.21223e-08
1.21181e-08
1.41262e-06
1.09607e-08
1.0954e-08
1.41336e-06
9.96859e-09
9.95813e-09
1.41446e-06
9.10784e-09
9.09156e-09
1.41596e-06
8.32801e-09
8.3032e-09
1.41789e-06
7.58543e-09
7.5487e-09
1.42023e-06
6.81573e-09
6.76336e-09
1.42285e-06
5.94454e-09
5.87599e-09
1.42541e-06
4.91158e-09
4.83981e-09
1.427e-06
3.71421e-09
3.68163e-09
2.68749e-09
2.81127e-09
1.53312e-06
2.36577e-09
3.64916e-09
1.54218e-06
6.23811e-09
9.63343e-09
1.55328e-06
8.87209e-09
1.36911e-08
1.56445e-06
1.03451e-08
1.59358e-08
1.57507e-06
1.08966e-08
1.69108e-08
1.58471e-06
1.07501e-08
1.69446e-08
1.59301e-06
1.01366e-08
1.63764e-08
1.60009e-06
9.32065e-09
1.54472e-08
1.60626e-06
8.44332e-09
1.43473e-08
1.61178e-06
7.61316e-09
1.32566e-08
1.61689e-06
6.87285e-09
1.22724e-08
1.62178e-06
6.22009e-09
1.1422e-08
1.62656e-06
5.62817e-09
1.07071e-08
1.63134e-06
5.06079e-09
1.01134e-08
1.63616e-06
4.4916e-09
9.62485e-09
1.6411e-06
3.8875e-09
9.2251e-09
1.64617e-06
3.21094e-09
8.90603e-09
1.65141e-06
2.42888e-09
8.66639e-09
1.65693e-06
1.5329e-09
8.50784e-09
6.6151e-10
8.5701e-09
1.61424e-06
-5.88254e-14
3.09281e-09
1.62332e-06
-1.50019e-13
8.27392e-09
1.63533e-06
-2.56833e-13
1.1957e-08
1.64819e-06
-4.14427e-13
1.41146e-08
1.66117e-06
-6.52086e-13
1.52008e-08
1.67385e-06
-9.97042e-13
1.55845e-08
1.68572e-06
-1.51212e-12
1.54331e-08
1.69653e-06
-2.3055e-12
1.49645e-08
1.70626e-06
-3.53178e-12
1.4296e-08
1.71507e-06
-5.39234e-12
1.35317e-08
1.72313e-06
-8.18967e-12
1.27641e-08
1.7306e-06
-1.24418e-11
1.20658e-08
1.73766e-06
-1.88387e-11
1.14919e-08
1.74443e-06
-2.82491e-11
1.10762e-08
1.75091e-06
-4.11759e-11
1.08412e-08
1.75717e-06
-5.67171e-11
1.07989e-08
1.76332e-06
-7.2552e-11
1.09682e-08
1.7695e-06
-7.845e-11
1.13591e-08
1.77583e-06
-4.45214e-11
1.19095e-08
9.10122e-11
1.25067e-08
1.61424e-06
-2.36582e-09
3.09285e-09
1.62332e-06
-6.23825e-09
8.27401e-09
1.63533e-06
-8.87236e-09
1.19572e-08
1.64819e-06
-1.03456e-08
1.41148e-08
1.66117e-06
-1.08973e-08
1.52011e-08
1.67385e-06
-1.07512e-08
1.5585e-08
1.68572e-06
-1.01382e-08
1.54338e-08
1.69653e-06
-9.32311e-09
1.49656e-08
1.70625e-06
-8.44712e-09
1.4298e-08
1.71506e-06
-7.6191e-09
1.35348e-08
1.72311e-06
-6.88211e-09
1.27689e-08
1.73058e-06
-6.23455e-09
1.20733e-08
1.73763e-06
-5.65081e-09
1.15035e-08
1.74439e-06
-5.09644e-09
1.10943e-08
1.75088e-06
-4.54726e-09
1.08692e-08
1.75717e-06
-3.9723e-09
1.08401e-08
1.76342e-06
-3.33789e-09
1.10246e-08
1.76987e-06
-2.6135e-09
1.14252e-08
1.77684e-06
-1.79376e-09
1.19576e-08
-9.53278e-10
1.24321e-08
1.53312e-06
-4.57701e-09
3.64924e-09
1.54218e-06
-1.19161e-08
9.6336e-09
1.55327e-06
-1.64451e-08
1.36913e-08
1.56445e-06
-1.85574e-08
1.59362e-08
1.57507e-06
-1.89256e-08
1.69114e-08
1.58471e-06
-1.82154e-08
1.69456e-08
1.59301e-06
-1.6705e-08
1.63779e-08
1.60009e-06
-1.50254e-08
1.54496e-08
1.60625e-06
-1.34712e-08
1.43512e-08
1.61176e-06
-1.2118e-08
1.32627e-08
1.61686e-06
-1.09539e-08
1.22823e-08
1.62173e-06
-9.95794e-09
1.14376e-08
1.62649e-06
-9.09128e-09
1.07318e-08
1.63123e-06
-8.30284e-09
1.01524e-08
1.63603e-06
-7.54823e-09
9.68472e-09
1.64093e-06
-6.76272e-09
9.31482e-09
1.64601e-06
-5.87514e-09
9.03381e-09
1.65135e-06
-4.83869e-09
8.82765e-09
1.65715e-06
-3.68007e-09
8.6537e-09
-2.80897e-09
8.45861e-09
1.37712e-06
-6.10242e-09
4.57706e-09
1.38565e-06
-1.61823e-08
1.19163e-08
1.39417e-06
-2.07053e-08
1.64453e-08
1.40126e-06
-2.21028e-08
1.85576e-08
1.40642e-06
-2.15038e-08
1.8926e-08
1.40953e-06
-1.97681e-08
1.8216e-08
1.41096e-06
-1.74226e-08
1.67061e-08
1.41157e-06
-1.53254e-08
1.5027e-08
1.41187e-06
-1.36237e-08
1.34739e-08
1.41216e-06
-1.22602e-08
1.21222e-08
1.41262e-06
-1.11769e-08
1.09607e-08
1.41336e-06
-1.03206e-08
9.96855e-09
1.41446e-06
-9.63104e-09
9.10779e-09
1.41596e-06
-9.03402e-09
8.32796e-09
1.41789e-06
-8.47761e-09
7.5854e-09
1.42023e-06
-7.87382e-09
6.81568e-09
1.42286e-06
-7.09242e-09
5.94445e-09
1.42541e-06
-5.96934e-09
4.91136e-09
1.427e-06
-4.31103e-09
3.71367e-09
-2.4816e-09
2.6862e-09
1.1589e-06
-6.33234e-09
5.28116e-09
1.1657e-06
-1.71258e-08
1.3998e-08
1.16845e-06
-1.86358e-08
1.79765e-08
1.16661e-06
-1.71469e-08
1.91766e-08
1.16222e-06
-1.53603e-08
1.88726e-08
1.15655e-06
-1.37905e-08
1.75394e-08
1.15049e-06
-1.23439e-08
1.56745e-08
1.14461e-06
-1.11243e-08
1.38668e-08
1.1392e-06
-1.01426e-08
1.22508e-08
1.1344e-06
-9.35429e-09
1.0829e-08
1.13023e-06
-8.75933e-09
9.63405e-09
1.12665e-06
-8.32765e-09
8.62828e-09
1.12367e-06
-8.01457e-09
7.73778e-09
1.12129e-06
-7.76507e-09
6.87971e-09
1.11955e-06
-7.54665e-09
5.95346e-09
1.11848e-06
-7.27076e-09
4.86425e-09
1.11808e-06
-6.776e-09
3.43494e-09
1.11789e-06
-5.70071e-09
1.45219e-09
1.11695e-06
-3.77204e-09
-1.36879e-09
6.51356e-10
-5.1254e-09
8.90375e-07
2.85248e-09
8.82487e-07
1.34079e-08
8.7036e-07
1.78657e-08
8.55115e-07
1.69522e-08
8.39986e-07
1.53347e-08
8.2554e-07
1.41604e-08
8.11777e-07
1.33628e-08
7.98791e-07
1.26467e-08
7.86731e-07
1.18391e-08
7.75612e-07
1.09622e-08
7.65298e-07
1.01023e-08
7.55646e-07
9.26645e-09
7.46546e-07
8.44279e-09
7.37972e-07
7.59044e-09
7.29961e-07
6.61528e-09
7.22737e-07
5.34023e-09
7.16696e-07
3.48574e-09
7.12049e-07
5.44961e-10
7.09197e-07
-4.62372e-09
-1.3137e-08
1.07432e-06
5.5689e-09
1.06476e-09
1.06824e-06
1.39003e-08
5.58632e-09
1.06138e-06
1.6262e-08
8.46352e-09
1.05338e-06
1.59095e-08
9.03896e-09
1.0451e-06
1.50036e-08
8.61624e-09
1.0372e-06
1.39361e-08
8.11745e-09
1.0298e-06
1.29821e-08
7.78081e-09
1.02279e-06
1.21235e-08
7.54401e-09
1.01592e-06
1.13596e-08
7.3511e-09
1.00911e-06
1.07181e-08
7.05224e-09
1.00239e-06
1.02411e-08
6.58924e-09
9.95695e-07
9.91127e-09
6.05173e-09
9.88946e-07
9.7071e-09
5.4943e-09
9.82003e-07
9.63606e-09
4.91246e-09
9.74662e-07
9.7012e-09
4.27805e-09
9.66651e-07
9.93184e-09
3.46257e-09
9.57504e-07
1.0392e-08
2.30281e-09
9.46278e-07
1.12191e-08
6.7106e-10
9.31381e-07
1.25959e-08
-2.00141e-09
1.53999e-08
-5.29722e-09
1.32762e-06
4.93109e-09
2.71811e-09
1.33539e-06
1.30089e-08
7.12046e-09
1.34286e-06
1.72158e-08
9.55267e-09
1.34847e-06
1.89001e-08
1.05768e-08
1.35197e-06
1.95037e-08
1.08731e-08
1.35375e-06
1.91198e-08
1.05768e-08
1.35441e-06
1.8109e-08
9.88536e-09
1.35454e-06
1.68255e-08
9.03489e-09
1.35449e-06
1.54875e-08
8.17497e-09
1.3544e-06
1.42732e-08
7.3627e-09
1.35434e-06
1.33158e-08
6.62123e-09
1.35434e-06
1.25866e-08
5.94745e-09
1.35442e-06
1.20513e-08
5.31706e-09
1.35454e-06
1.16863e-08
4.69944e-09
1.3547e-06
1.1477e-08
4.02165e-09
1.35483e-06
1.14283e-08
3.24004e-09
1.35481e-06
1.15711e-08
2.26342e-09
1.3545e-06
1.1947e-08
1.01749e-09
1.35356e-06
1.25702e-08
-5.60139e-10
1.32166e-08
-2.38497e-09
1.53312e-06
3.64924e-09
2.36582e-09
1.54218e-06
9.63359e-09
6.23825e-09
1.55327e-06
1.36913e-08
8.87236e-09
1.56445e-06
1.59362e-08
1.03456e-08
1.57507e-06
1.69114e-08
1.08973e-08
1.58471e-06
1.69456e-08
1.07512e-08
1.59301e-06
1.63779e-08
1.01382e-08
1.60009e-06
1.54496e-08
9.32316e-09
1.60625e-06
1.43511e-08
8.4472e-09
1.61176e-06
1.32627e-08
7.61921e-09
1.61686e-06
1.22823e-08
6.88227e-09
1.62173e-06
1.14376e-08
6.23479e-09
1.62649e-06
1.07318e-08
5.65115e-09
1.63123e-06
1.01523e-08
5.09689e-09
1.63603e-06
9.68456e-09
4.54787e-09
1.64093e-06
9.31463e-09
3.97315e-09
1.64601e-06
9.03362e-09
3.33904e-09
1.65135e-06
8.82754e-09
2.61507e-09
1.65715e-06
8.6538e-09
1.79586e-09
8.4592e-09
9.55979e-10
1.68027e-06
1.89088e-09
1.89088e-09
1.68934e-06
5.09889e-09
5.09889e-09
1.7018e-06
7.46344e-09
7.46346e-09
1.71578e-06
8.94476e-09
8.94481e-09
1.73022e-06
9.69095e-09
9.69104e-09
1.74439e-06
9.85807e-09
9.8582e-09
1.75785e-06
9.64829e-09
9.64848e-09
1.77036e-06
9.19345e-09
9.19369e-09
1.78185e-06
8.60522e-09
8.6055e-09
1.79241e-06
7.97683e-09
7.97714e-09
1.80222e-06
7.37261e-09
7.37297e-09
1.81143e-06
6.82335e-09
6.82391e-09
1.8202e-06
6.33721e-09
6.33832e-09
1.82864e-06
5.90798e-09
5.91027e-09
1.83691e-06
5.5209e-09
5.52518e-09
1.84511e-06
5.1662e-09
5.1741e-09
1.85336e-06
4.83505e-09
4.85098e-09
1.86179e-06
4.51447e-09
4.5496e-09
1.8705e-06
4.18641e-09
4.26862e-09
3.88682e-09
4.07438e-09
1.7569e-06
-1.70008e-14
1.61311e-09
1.76589e-06
-4.8524e-14
4.38382e-09
1.77878e-06
-8.83367e-14
6.53132e-09
1.79389e-06
-1.44069e-13
7.95044e-09
1.81002e-06
-2.25852e-13
8.75497e-09
1.82638e-06
-3.44305e-13
9.08499e-09
1.84239e-06
-5.13613e-13
9.07166e-09
1.85772e-06
-7.49292e-13
8.83607e-09
1.87215e-06
-1.07913e-12
8.46337e-09
1.88564e-06
-1.55033e-12
8.02002e-09
1.89823e-06
-2.2426e-12
7.55803e-09
1.91e-06
-3.28199e-12
7.11597e-09
1.92111e-06
-4.82653e-12
6.72124e-09
1.93171e-06
-6.94811e-12
6.39408e-09
1.94193e-06
-9.24164e-12
6.1533e-09
1.9519e-06
-1.09932e-11
6.00608e-09
1.96176e-06
-1.12186e-11
5.95404e-09
1.97165e-06
-7.80051e-12
5.99437e-09
1.98163e-06
3.45499e-12
6.11297e-09
2.05733e-11
6.25742e-09
1.7569e-06
-1.89087e-09
1.61313e-09
1.76589e-06
-5.09889e-09
4.38385e-09
1.77878e-06
-7.46347e-09
6.53135e-09
1.79389e-06
-8.94481e-09
7.95049e-09
1.81002e-06
-9.69103e-09
8.75502e-09
1.82638e-06
-9.85819e-09
9.08506e-09
1.84239e-06
-9.64846e-09
9.0718e-09
1.85771e-06
-9.19365e-09
8.8363e-09
1.87215e-06
-8.60544e-09
8.46375e-09
1.88564e-06
-7.97705e-09
8.02062e-09
1.89822e-06
-7.37285e-09
7.55893e-09
1.91e-06
-6.82374e-09
7.11723e-09
1.92111e-06
-6.33809e-09
6.72279e-09
1.93172e-06
-5.90995e-09
6.3956e-09
1.94195e-06
-5.52473e-09
6.15396e-09
1.95195e-06
-5.17349e-09
6.00361e-09
1.96187e-06
-4.85015e-09
5.94306e-09
1.97187e-06
-4.54851e-09
5.9636e-09
1.98206e-06
-4.2672e-09
6.0406e-09
-4.07268e-09
6.11477e-09
1.68027e-06
-3.64916e-09
1.89088e-09
1.68934e-06
-9.63343e-09
5.09889e-09
1.7018e-06
-1.36911e-08
7.46345e-09
1.71578e-06
-1.59358e-08
8.94477e-09
1.73022e-06
-1.69107e-08
9.69097e-09
1.74439e-06
-1.69446e-08
9.85809e-09
1.75785e-06
-1.63764e-08
9.64831e-09
1.77036e-06
-1.54472e-08
9.19349e-09
1.78185e-06
-1.43472e-08
8.60526e-09
1.79241e-06
-1.32565e-08
7.97688e-09
1.80222e-06
-1.22723e-08
7.37267e-09
1.81143e-06
-1.14218e-08
6.82341e-09
1.8202e-06
-1.07069e-08
6.33727e-09
1.82864e-06
-1.01131e-08
5.90804e-09
1.83691e-06
-9.62446e-09
5.52097e-09
1.84511e-06
-9.22457e-09
5.16624e-09
1.85336e-06
-8.90532e-09
4.83503e-09
1.86179e-06
-8.66543e-09
4.51434e-09
1.8705e-06
-8.50651e-09
4.18608e-09
-8.56829e-09
3.88621e-09
1.53312e-06
-4.93102e-09
2.36577e-09
1.54218e-06
-1.30087e-08
6.2381e-09
1.55328e-06
-1.72155e-08
8.87209e-09
1.56445e-06
-1.88995e-08
1.03451e-08
1.57507e-06
-1.95027e-08
1.08966e-08
1.58471e-06
-1.91185e-08
1.07501e-08
1.59301e-06
-1.81068e-08
1.01366e-08
1.60009e-06
-1.68221e-08
9.32065e-09
1.60626e-06
-1.54821e-08
8.44331e-09
1.61178e-06
-1.42643e-08
7.61314e-09
1.61689e-06
-1.33008e-08
6.87282e-09
1.62178e-06
-1.25617e-08
6.22004e-09
1.62656e-06
-1.20101e-08
5.62809e-09
1.63134e-06
-1.16168e-08
5.06067e-09
1.63616e-06
-1.13588e-08
4.49142e-09
1.6411e-06
-1.12292e-08
3.88722e-09
1.64617e-06
-1.12415e-08
3.2105e-09
1.65141e-06
-1.14282e-08
2.42815e-09
1.65693e-06
-1.18416e-08
1.53171e-09
-1.27923e-08
6.59677e-10
1.32763e-06
-5.56888e-09
2.71801e-09
1.33539e-06
-1.39002e-08
7.12017e-09
1.34287e-06
-1.62618e-08
9.55215e-09
1.34848e-06
-1.59091e-08
1.05759e-08
1.35198e-06
-1.5003e-08
1.08717e-08
1.35376e-06
-1.39353e-08
1.05745e-08
1.35442e-06
-1.29808e-08
9.88188e-09
1.35456e-06
-1.21213e-08
9.02944e-09
1.35452e-06
-1.13564e-08
8.16637e-09
1.35445e-06
-1.07127e-08
7.34892e-09
1.35441e-06
-1.02319e-08
6.59932e-09
1.35446e-06
-9.89507e-09
5.9124e-09
1.35461e-06
-9.67754e-09
5.26163e-09
1.35484e-06
-9.58073e-09
4.61023e-09
1.35515e-06
-9.59377e-09
3.8754e-09
1.3555e-06
-9.71978e-09
3.00564e-09
1.35578e-06
-9.97618e-09
1.89294e-09
1.35578e-06
-1.04268e-08
4.46302e-10
1.35513e-06
-1.11199e-08
-1.43588e-09
-1.2831e-08
-3.45216e-09
1.07432e-06
1.06466e-09
1.06824e-06
5.58595e-09
1.06138e-06
8.46283e-09
1.05338e-06
9.03781e-09
1.0451e-06
8.61434e-09
1.03721e-06
8.11438e-09
1.02982e-06
7.77591e-09
1.02281e-06
7.5362e-09
1.01595e-06
7.33868e-09
1.00917e-06
7.03239e-09
1.00248e-06
6.55719e-09
9.95853e-07
5.99935e-09
9.89211e-07
5.40768e-09
9.82451e-07
4.76978e-09
9.75432e-07
4.04026e-09
9.67997e-07
3.05578e-09
9.59888e-07
1.61757e-09
9.50506e-07
-4.99216e-10
9.38887e-07
-4.12516e-09
-8.57289e-09
1.16914e-06
4.90657e-09
6.11486e-14
1.16312e-06
1.16085e-08
2.50313e-13
1.15731e-06
1.42758e-08
4.79446e-13
1.15201e-06
1.43346e-08
7.90966e-13
1.14689e-06
1.37331e-08
1.276e-12
1.14203e-06
1.29745e-08
2.06367e-12
1.1377e-06
1.21091e-08
3.31364e-12
1.13392e-06
1.13222e-08
5.31797e-12
1.13059e-06
1.06746e-08
8.57581e-12
1.12739e-06
1.02323e-08
1.39469e-11
1.12399e-06
9.96554e-09
2.28562e-11
1.1202e-06
9.80859e-09
3.77488e-11
1.11584e-06
9.78684e-09
6.30486e-11
1.1107e-06
9.95151e-09
1.0577e-10
1.10445e-06
1.03418e-08
1.81134e-10
1.09653e-06
1.10732e-08
3.1722e-10
1.0859e-06
1.23682e-08
5.61802e-10
1.07104e-06
1.45034e-08
1.02761e-09
1.04952e-06
1.75922e-08
1.92887e-09
2.60655e-08
3.71899e-09
1.41518e-06
4.19289e-09
8.72332e-14
1.42279e-06
1.1116e-08
2.34879e-13
1.43152e-06
1.50989e-08
4.02814e-13
1.4398e-06
1.66305e-08
6.68659e-13
1.44712e-06
1.72788e-08
1.09957e-12
1.45316e-06
1.75166e-08
1.73692e-12
1.45798e-06
1.71643e-08
2.69301e-12
1.46188e-06
1.64557e-08
4.22651e-12
1.46514e-06
1.55818e-08
6.68118e-12
1.468e-06
1.47238e-08
1.06173e-11
1.47063e-06
1.39486e-08
1.6735e-11
1.47304e-06
1.33172e-08
2.65401e-11
1.47517e-06
1.29271e-08
4.21349e-11
1.47697e-06
1.2786e-08
6.69294e-11
1.47838e-06
1.28495e-08
1.0673e-10
1.47931e-06
1.32163e-08
1.67788e-10
1.47967e-06
1.40088e-08
2.57776e-10
1.47947e-06
1.53414e-08
3.80728e-10
1.47881e-06
1.71679e-08
5.23156e-10
1.90062e-08
4.9213e-10
1.61424e-06
3.09284e-09
6.1797e-14
1.62332e-06
8.274e-09
1.49812e-13
1.63533e-06
1.19572e-08
2.54812e-13
1.64819e-06
1.41147e-08