/*--------------------------------*- C++ -*----------------------------------*\
| =========                 |                                                 |
| \\      /  F ield         | OpenFOAM: The Open Source CFD Toolbox           |
|  \\    /   O peration     | Version:  2212                                  |
|   \\  /    A nd           | Website:  www.openfoam.com                      |
|    \\/     M anipulation  |                                                 |
\*---------------------------------------------------------------------------*/
FoamFile
{
    version     2.0;
    format      ascii;
    arch        "LSB;label=32;scalar=64";
    class       volVectorField;
    location    "0.85";
    object      U;
}
// * * * * * * * * * * * * * * * * * * * * * * * * * * * * * * * * * * * * * //

dimensions      [0 1 -1 0 0 0 0];

internalField   nonuniform List<vector> 
6840
(
(0.0956456 -0.00836005 -0.00836005)
(0.090494 0.00152203 0.00152201)
(0.0790685 0.00242971 0.00242966)
(0.0713015 0.00148775 0.00148766)
(0.0661801 0.000830464 0.000830351)
(0.0623238 0.000563521 0.000563352)
(0.0592227 0.000426105 0.00042587)
(0.0566878 0.00032354 0.000323239)
(0.0545546 0.000252371 0.000251908)
(0.0527051 0.000201575 0.000200827)
(0.0510715 0.000164725 0.000163609)
(0.0496174 0.000137541 0.000135897)
(0.0483141 0.00011564 0.000112701)
(0.0471355 9.67929e-05 9.10527e-05)
(0.0460796 7.86303e-05 6.84666e-05)
(0.0451537 5.97359e-05 4.15775e-05)
(0.0443864 5.28277e-05 1.1014e-05)
(0.0439632 -1.07897e-05 -7.73153e-05)
(0.0444288 -0.00012536 -0.00024279)
(0.0431226 -0.00225346 -0.00248414)
(0.0999088 0.001297 0.000712559)
(0.0969669 0.00365586 0.00274724)
(0.0935347 0.00264019 0.00211812)
(0.0895896 0.00182033 0.0016205)
(0.0858329 0.00152857 0.00139049)
(0.0825913 0.0013509 0.00116117)
(0.0798671 0.00117894 0.000897082)
(0.07757 0.00103982 0.000692281)
(0.0755627 0.000941621 0.000560762)
(0.0737591 0.000863884 0.000480371)
(0.0721142 0.000790007 0.000433711)
(0.0706007 0.000714595 0.000406619)
(0.0692025 0.000641331 0.000391596)
(0.0679079 0.000576355 0.000386291)
(0.0667192 0.000506993 0.000387001)
(0.0656484 0.000425336 0.000390203)
(0.0647455 0.000297374 0.000373105)
(0.0642043 2.9348e-05 0.000228192)
(0.0644964 -0.000484581 -6.84839e-05)
(0.0628791 -0.00187178 -0.00110398)
(0.099413 0.000345216 0.000270231)
(0.0988664 0.00201895 0.00187489)
(0.0979216 0.00257294 0.00218899)
(0.0963663 0.00237953 0.00190834)
(0.0946342 0.00211354 0.00162662)
(0.0929735 0.00192584 0.00141869)
(0.0913662 0.00179981 0.00127135)
(0.0898573 0.00170266 0.00116027)
(0.0884602 0.00160026 0.00107034)
(0.0871671 0.00148686 0.000999116)
(0.0859718 0.00137152 0.000952002)
(0.0848606 0.00125956 0.000925988)
(0.083817 0.00114796 0.000916572)
(0.0828319 0.0010279 0.000918856)
(0.081905 0.000888252 0.000929205)
(0.0810482 0.00071135 0.000938962)
(0.0802965 0.000463481 0.000935826)
(0.0796871 1.11736e-05 0.000882169)
(0.0792685 -0.000781366 0.000770933)
(0.0783049 -0.00253656 0.00041058)
(0.0995405 0.000245008 0.000321899)
(0.0992576 0.00105544 0.00154094)
(0.098849 0.00150197 0.00211449)
(0.0981249 0.00157879 0.00209173)
(0.0973371 0.00151372 0.00188639)
(0.0965852 0.00144447 0.00166636)
(0.0958657 0.00140672 0.00149888)
(0.0951979 0.00137323 0.00137306)
(0.0945689 0.00132379 0.0012875)
(0.093923 0.00124629 0.00123433)
(0.0932933 0.00114659 0.00119965)
(0.0926769 0.00103424 0.00118172)
(0.0920639 0.000915266 0.0011782)
(0.0914446 0.000786802 0.00119057)
(0.0908086 0.000638364 0.00121763)
(0.0901415 0.000443214 0.00126138)
(0.0894258 0.000159439 0.00132772)
(0.0886257 -0.000268208 0.00143473)
(0.0876577 -0.000955289 0.0016)
(0.0865071 -0.0019322 0.00197111)
(0.0993801 3.37538e-05 5.89246e-05)
(0.0992677 0.000274273 0.00120001)
(0.0989804 0.000432131 0.0018885)
(0.0984745 0.00048304 0.00200655)
(0.0979952 0.000478108 0.00191486)
(0.0975701 0.000464236 0.00173506)
(0.0971794 0.000450606 0.00154784)
(0.0968279 0.000438517 0.00138956)
(0.0965249 0.000429721 0.0012719)
(0.0962653 0.000417368 0.0012029)
(0.0959822 0.000392767 0.00117842)
(0.0956736 0.000356589 0.00118131)
(0.0953327 0.000311333 0.00119974)
(0.0949376 0.000258605 0.00123637)
(0.0944709 0.000199383 0.00130197)
(0.0939006 0.000114741 0.00140736)
(0.0931757 -1.35739e-05 0.00158096)
(0.0921853 -0.00021601 0.00184342)
(0.0908678 -0.000579575 0.00212527)
(0.0896299 -0.00103527 0.00321266)
(0.0993801 -3.37661e-05 5.89429e-05)
(0.0992677 -0.000274336 0.00120002)
(0.0989803 -0.000432257 0.00188851)
(0.0984744 -0.00048325 0.00200657)
(0.0979951 -0.000478449 0.00191488)
(0.0975698 -0.000464784 0.00173509)
(0.097179 -0.000451479 0.00154789)
(0.0968273 -0.000439911 0.00138965)
(0.0965238 -0.000431961 0.00127202)
(0.0962634 -0.000420995 0.00120307)
(0.0959791 -0.000398673 0.00117868)
(0.0956686 -0.000366283 0.00118181)
(0.0953241 -0.000327426 0.00120078)
(0.0949228 -0.000285369 0.00123838)
(0.0944446 -0.000244696 0.00130611)
(0.0938534 -0.000192837 0.00141681)
(0.0930848 -0.000122719 0.00160339)
(0.0920132 -2.8262e-05 0.00189674)
(0.0905136 0.00012997 0.00229343)
(0.0888184 0.000117164 0.00360804)
(0.0995405 -0.000245014 0.000321901)
(0.0992576 -0.00105547 0.00154094)
(0.0988489 -0.00150204 0.00211451)
(0.0981248 -0.0015789 0.00209175)
(0.0973367 -0.00151391 0.00188642)
(0.0965846 -0.00144476 0.00166641)
(0.0958647 -0.00140717 0.00149896)
(0.0951963 -0.00137392 0.00137321)
(0.0945664 -0.00132483 0.00128773)
(0.0939188 -0.00124789 0.00123473)
(0.0932864 -0.00114912 0.00120028)
(0.0926655 -0.00103831 0.00118287)
(0.092045 -0.000921951 0.00118029)
(0.0914127 -0.000797596 0.00119463)
(0.0907542 -0.000655821 0.0012262)
(0.0900473 -0.000473276 0.00127944)
(0.0892592 -0.000206596 0.00136563)
(0.0883245 0.000194895 0.00151149)
(0.0871523 0.000819328 0.00175907)
(0.0860103 0.00175649 0.0023546)
(0.099413 -0.000345211 0.000270233)
(0.0988664 -0.00201893 0.00187491)
(0.0979216 -0.00257291 0.00218901)
(0.0963661 -0.00237948 0.00190837)
(0.0946339 -0.00211348 0.00162667)
(0.092973 -0.00192573 0.00141876)
(0.0913653 -0.00179963 0.00127147)
(0.0898558 -0.00170237 0.00116047)
(0.0884577 -0.00159978 0.00107067)
(0.0871631 -0.00148606 0.000999675)
(0.0859653 -0.0013702 0.000952946)
(0.08485 -0.0012574 0.000927623)
(0.0837995 -0.00114442 0.000919373)
(0.0828027 -0.00102194 0.000923981)
(0.0818557 -0.000878046 0.000939149)
(0.0809632 -0.0006941 0.000959031)
(0.0801488 -0.000433946 0.000976418)
(0.0794227 3.41761e-05 0.00096889)
(0.0787996 0.000834133 0.000947733)
(0.077829 0.0027165 0.000518753)
(0.0999088 -0.001297 0.000712559)
(0.0969669 -0.00365581 0.00274725)
(0.0935347 -0.00264011 0.00211814)
(0.0895895 -0.0018202 0.00162054)
(0.0858327 -0.00152836 0.00139054)
(0.082591 -0.00135057 0.00116126)
(0.0798667 -0.0011783 0.000897263)
(0.0775692 -0.00103871 0.000692539)
(0.0755613 -0.000939771 0.000561155)
(0.0737569 -0.000860842 0.000480974)
(0.0721105 -0.000784999 0.000434695)
(0.0705946 -0.000706447 0.000407986)
(0.0691925 -0.000628117 0.000393124)
(0.067891 -0.00055465 0.000389685)
(0.0666903 -0.000470897 0.00039345)
(0.0655971 -0.000365683 0.000402224)
(0.0646504 -0.000205357 0.000391343)
(0.0640216 0.000132332 0.000251784)
(0.064157 0.000821202 -8.57456e-05)
(0.0631922 0.00333562 -0.00225295)
(0.0956456 0.00836005 -0.00836005)
(0.090494 -0.00152201 0.00152203)
(0.0790685 -0.00242966 0.0024297)
(0.0713015 -0.00148766 0.00148774)
(0.0661801 -0.000830355 0.000830459)
(0.0623238 -0.000563356 0.000563516)
(0.0592227 -0.000425875 0.000426098)
(0.0566878 -0.000323244 0.000323533)
(0.0545546 -0.000251913 0.000252365)
(0.0527052 -0.000200832 0.00020157)
(0.0510715 -0.000163613 0.000164722)
(0.0496175 -0.0001359 0.000137541)
(0.0483142 -0.000112701 0.000115642)
(0.0471356 -9.10522e-05 9.68014e-05)
(0.0460797 -6.84656e-05 7.8649e-05)
(0.0451538 -4.15648e-05 5.97642e-05)
(0.0443866 -1.10053e-05 5.28482e-05)
(0.0439634 7.73626e-05 -1.07326e-05)
(0.0444291 0.000242854 -0.000125284)
(0.0431229 0.00248439 -0.00225341)
(0.0999088 0.000712559 0.001297)
(0.0969669 0.00274725 0.00365582)
(0.0935347 0.00211815 0.00264011)
(0.0895895 0.00162054 0.0018202)
(0.0858327 0.00139054 0.00152836)
(0.082591 0.00116126 0.00135056)
(0.0798667 0.000897269 0.0011783)
(0.0775692 0.000692545 0.0010387)
(0.0755613 0.00056116 0.000939767)
(0.0737569 0.000480978 0.00086084)
(0.0721104 0.000434697 0.000785)
(0.0705945 0.000407987 0.000706454)
(0.0691924 0.000393121 0.000628128)
(0.0678909 0.000389682 0.000554674)
(0.0666902 0.00039344 0.000470929)
(0.065597 0.000402201 0.000365735)
(0.0646502 0.000391294 0.000205456)
(0.0640214 0.000251701 -0.000132184)
(0.0641568 -8.58783e-05 -0.000820985)
(0.0631919 -0.00225303 -0.00333509)
(0.100226 0.000720807 0.000720797)
(0.0999601 0.00198269 0.00198266)
(0.0997825 0.00245178 0.00245172)
(0.0987886 0.00241951 0.00241941)
(0.0972763 0.00220071 0.00220054)
(0.0957759 0.00181158 0.0018113)
(0.0943949 0.00138259 0.00138215)
(0.0931674 0.00107018 0.00106946)
(0.0920829 0.000853934 0.000852758)
(0.091125 0.000701654 0.000699735)
(0.0902793 0.000589383 0.000586218)
(0.0895243 0.000504397 0.000499357)
(0.0888404 0.000440733 0.000432907)
(0.088232 0.000392159 0.000378798)
(0.0877094 0.000342594 0.000320534)
(0.0872821 0.000287905 0.000251339)
(0.0869698 0.000213279 0.0001552)
(0.0867625 4.61333e-05 -4.27054e-05)
(0.0864737 -0.000407731 -0.000534655)
(0.0865828 -0.00170998 -0.00184599)
(0.10014 0.000774992 0.000869245)
(0.100454 0.0019623 0.00196354)
(0.100911 0.00242732 0.00233447)
(0.100979 0.00252625 0.00244122)
(0.100695 0.00242577 0.0023368)
(0.100225 0.00219665 0.00211265)
(0.0997106 0.00191523 0.00182359)
(0.0991864 0.00166332 0.00157612)
(0.0986936 0.00145859 0.00139092)
(0.0982492 0.00128917 0.00125209)
(0.0978613 0.0011475 0.00115062)
(0.0975269 0.00102705 0.00107926)
(0.0972438 0.000920126 0.00102899)
(0.0970115 0.000815488 0.000989746)
(0.0968324 0.000703621 0.000959034)
(0.0967099 0.000568976 0.000927495)
(0.0966475 0.000385207 0.000878431)
(0.0966299 0.000118785 0.000793723)
(0.0965903 -0.000280283 0.000644384)
(0.0967035 -0.000862142 0.00040646)
(0.100093 0.000445883 0.000763203)
(0.100504 0.00119434 0.00174903)
(0.101105 0.00158652 0.00212958)
(0.101635 0.00173996 0.0022348)
(0.101979 0.00178151 0.00228746)
(0.102172 0.0017278 0.00223667)
(0.102253 0.00160611 0.00211718)
(0.102277 0.00145702 0.00196672)
(0.102279 0.00129966 0.00180567)
(0.102272 0.00114777 0.0016587)
(0.102265 0.00101346 0.0015541)
(0.102265 0.000895385 0.00148424)
(0.102272 0.000783656 0.0014412)
(0.102287 0.000670834 0.00142167)
(0.102307 0.000541527 0.00142439)
(0.102333 0.000387468 0.00145072)
(0.102358 0.000188083 0.00150633)
(0.102371 -7.91984e-05 0.00159998)
(0.102356 -0.000429637 0.00174438)
(0.102493 -0.000798959 0.00198413)
(0.100087 0.000144358 0.000707014)
(0.100477 0.000390408 0.00161778)
(0.101066 0.000540956 0.00203464)
(0.101694 0.000609902 0.0021177)
(0.102269 0.000635595 0.00215058)
(0.102741 0.000626126 0.00218068)
(0.103123 0.000593681 0.0021356)
(0.103426 0.000547482 0.0020469)
(0.103677 0.000500947 0.00193975)
(0.103892 0.000456196 0.00183773)
(0.104084 0.00040896 0.0017452)
(0.104264 0.000359847 0.00166914)
(0.104429 0.000310875 0.00162852)
(0.104569 0.00025899 0.00162629)
(0.104687 0.000199329 0.00165232)
(0.10478 0.000128073 0.00172356)
(0.104832 3.56555e-05 0.0018583)
(0.104835 -8.68877e-05 0.00207739)
(0.104789 -0.000246266 0.00237741)
(0.105039 -0.000405761 0.00273401)
(0.100087 -0.000144378 0.000707017)
(0.100477 -0.000390465 0.00161779)
(0.101065 -0.000541055 0.00203465)
(0.101694 -0.000610066 0.00211772)
(0.102268 -0.000635864 0.00215063)
(0.102741 -0.000626549 0.00218076)
(0.103123 -0.000594334 0.0021357)
(0.103425 -0.000548502 0.00204705)
(0.103676 -0.000502559 0.00193999)
(0.103891 -0.000458755 0.00183813)
(0.104082 -0.000412987 0.00174578)
(0.104261 -0.000366216 0.00167015)
(0.104424 -0.000320959 0.00163042)
(0.104561 -0.000275028 0.00162992)
(0.104676 -0.000224989 0.00165946)
(0.104762 -0.000168644 0.00173778)
(0.104809 -9.86079e-05 0.00188635)
(0.104809 -7.87183e-06 0.00213312)
(0.104783 0.000109315 0.00248315)
(0.105068 0.000255371 0.00284775)
(0.100093 -0.000445886 0.000763208)
(0.100504 -0.00119435 0.00174904)
(0.101105 -0.00158655 0.0021296)
(0.101635 -0.00174002 0.00223488)
(0.101979 -0.00178161 0.00228758)
(0.102171 -0.00172793 0.00223682)
(0.102252 -0.00160631 0.00211741)
(0.102276 -0.00145733 0.00196708)
(0.102278 -0.00130013 0.00180623)
(0.102269 -0.00114852 0.00165963)
(0.102261 -0.00101463 0.00155572)
(0.102258 -0.000897288 0.00148702)
(0.102261 -0.00078662 0.00144603)
(0.102269 -0.000675627 0.00143029)
(0.10228 -0.000549604 0.00144001)
(0.102291 -0.000399914 0.00147907)
(0.102297 -0.000206589 0.00155751)
(0.102283 5.40171e-05 0.00168838)
(0.102256 0.000402749 0.00187963)
(0.102472 0.000809078 0.00208413)
(0.10014 -0.000774983 0.000869255)
(0.100454 -0.00196228 0.00196357)
(0.100911 -0.00242728 0.00233451)
(0.100978 -0.00252618 0.00244131)
(0.100694 -0.00242566 0.00233693)
(0.100225 -0.00219647 0.00211285)
(0.0997101 -0.00191495 0.0018239)
(0.0991857 -0.00166286 0.00157663)
(0.0986923 -0.00145785 0.00139176)
(0.0982472 -0.00128797 0.00125348)
(0.097858 -0.00114567 0.00115292)
(0.0975215 -0.00102417 0.0010831)
(0.0972356 -0.000915362 0.00103551)
(0.096999 -0.000808158 0.00100096)
(0.0968137 -0.000692172 0.000978422)
(0.0966838 -0.000551723 0.000961373)
(0.0966162 -0.000359825 0.000936727)
(0.0966081 -8.35167e-05 0.000890486)
(0.096632 0.000324591 0.000791759)
(0.0967944 0.00090285 0.000536352)
(0.100226 -0.000720797 0.000720806)
(0.0999601 -0.00198267 0.00198269)
(0.0997825 -0.00245172 0.00245178)
(0.0987886 -0.00241941 0.00241951)
(0.0972763 -0.00220054 0.0022007)
(0.0957759 -0.0018113 0.00181158)
(0.0943949 -0.00138215 0.00138259)
(0.0931674 -0.00106946 0.00107017)
(0.0920829 -0.000852758 0.000853927)
(0.091125 -0.000699734 0.000701648)
(0.0902793 -0.000586214 0.000589377)
(0.0895243 -0.000499349 0.000504392)
(0.0888404 -0.000432894 0.000440728)
(0.0882321 -0.000378783 0.00039216)
(0.0877095 -0.000320524 0.000342615)
(0.0872823 -0.000251319 0.000287941)
(0.08697 -0.000155169 0.000213347)
(0.0867627 4.2755e-05 4.62409e-05)
(0.086474 0.00053473 -0.00040758)
(0.0865833 0.00184616 -0.00170984)
(0.0999088 -0.000712559 0.001297)
(0.0969669 -0.00274724 0.00365586)
(0.0935347 -0.00211813 0.00264019)
(0.0895896 -0.0016205 0.00182033)
(0.0858329 -0.0013905 0.00152857)
(0.0825913 -0.00116117 0.00135089)
(0.0798671 -0.000897084 0.00117893)
(0.07757 -0.000692282 0.00103981)
(0.0755627 -0.000560763 0.000941613)
(0.0737592 -0.000480372 0.000863876)
(0.0721142 -0.000433713 0.000789997)
(0.0706008 -0.000406621 0.000714585)
(0.0692026 -0.0003916 0.000641323)
(0.067908 -0.000386296 0.000576343)
(0.0667193 -0.000387007 0.000506986)
(0.0656486 -0.000390213 0.00042534)
(0.0647457 -0.000373112 0.000297398)
(0.0642046 -0.000228187 2.93819e-05)
(0.0644969 6.85277e-05 -0.000484506)
(0.0628793 0.00110344 -0.00187119)
(0.099413 0.000270233 0.000345212)
(0.0988664 0.00187491 0.00201893)
(0.0979216 0.00218901 0.0025729)
(0.0963661 0.00190838 0.00237948)
(0.0946339 0.00162667 0.00211347)
(0.092973 0.00141876 0.00192573)
(0.0913653 0.00127147 0.00179963)
(0.0898558 0.00116048 0.00170238)
(0.0884577 0.00107067 0.00159979)
(0.0871631 0.000999678 0.00148607)
(0.0859652 0.000952948 0.00137021)
(0.08485 0.000927622 0.00125742)
(0.0837994 0.000919368 0.00114446)
(0.0828027 0.00092397 0.00102199)
(0.0818556 0.000939131 0.00087812)
(0.0809631 0.000959003 0.000694202)
(0.0801487 0.000976365 0.000434103)
(0.0794226 0.000968785 -3.39766e-05)
(0.0787995 0.000947541 -0.000833885)
(0.077829 0.000518492 -0.00271617)
(0.10014 0.000869255 0.000774983)
(0.100454 0.00196357 0.00196228)
(0.100911 0.00233452 0.00242728)
(0.100978 0.00244131 0.00252618)
(0.100694 0.00233693 0.00242566)
(0.100225 0.00211285 0.00219647)
(0.0997101 0.0018239 0.00191495)
(0.0991857 0.00157664 0.00166287)
(0.0986923 0.00139177 0.00145785)
(0.0982471 0.00125348 0.00128798)
(0.097858 0.00115292 0.00114568)
(0.0975215 0.0010831 0.0010242)
(0.0972356 0.00103551 0.000915401)
(0.096999 0.00100094 0.000808205)
(0.0968137 0.000978385 0.00069223)
(0.0966837 0.000961321 0.000551807)
(0.0966161 0.000936643 0.000359935)
(0.096608 0.00089035 8.36522e-05)
(0.0966317 0.000791583 -0.000324406)
(0.096794 0.000536257 -0.000902527)
(0.10006 0.000641379 0.000641367)
(0.100502 0.00164498 0.00164496)
(0.101149 0.00221228 0.00221224)
(0.101738 0.00243977 0.0024397)
(0.102205 0.00244179 0.00244167)
(0.102502 0.00231342 0.00231323)
(0.102647 0.00209232 0.00209202)
(0.102717 0.00186869 0.00186821)
(0.102745 0.00167058 0.0016698)
(0.102761 0.00150409 0.00150284)
(0.102786 0.00136553 0.00136354)
(0.102827 0.00125021 0.00124706)
(0.102893 0.00115323 0.00114823)
(0.102987 0.00106834 0.00106047)
(0.103112 0.000988646 0.00097652)
(0.103267 0.000905606 0.000887529)
(0.103449 0.000808052 0.00078282)
(0.103643 0.000680978 0.000650561)
(0.103829 0.000509161 0.000485393)
(0.104153 0.000343142 0.000372626)
(0.100046 0.000395674 0.000540232)
(0.10048 0.00104474 0.00138406)
(0.101154 0.00147513 0.00192292)
(0.101913 0.00170487 0.00219251)
(0.102632 0.0017795 0.00229406)
(0.103302 0.00174398 0.00227834)
(0.103894 0.0016329 0.00218586)
(0.104391 0.00148949 0.00205314)
(0.104819 0.00134176 0.00190612)
(0.105198 0.0012046 0.00176775)
(0.105543 0.00108205 0.00164748)
(0.105868 0.000973875 0.00154693)
(0.106182 0.000875791 0.00146636)
(0.106493 0.000782695 0.00140356)
(0.106806 0.000690838 0.0013566)
(0.107124 0.00059303 0.00132425)
(0.10745 0.000481948 0.00130715)
(0.107786 0.000352037 0.00130731)
(0.108143 0.000203945 0.00132612)
(0.108608 5.47323e-05 0.00138686)
(0.100039 0.000131306 0.000478766)
(0.100448 0.000350419 0.00123478)
(0.101114 0.000504943 0.00174649)
(0.101909 0.000596965 0.00202688)
(0.102728 0.000638253 0.00215226)
(0.103529 0.000637737 0.0021868)
(0.104297 0.000603714 0.00215399)
(0.105006 0.000557969 0.00208071)
(0.105641 0.000508133 0.00198324)
(0.106214 0.000458919 0.00187823)
(0.106735 0.000412817 0.00177823)
(0.107215 0.00037021 0.00169219)
(0.107663 0.000330042 0.00162725)
(0.108092 0.000289529 0.00158627)
(0.108504 0.000247242 0.00156999)
(0.108899 0.000202477 0.00158165)
(0.10928 0.000151766 0.00162908)
(0.109659 9.29897e-05 0.0017179)
(0.110058 2.94234e-05 0.0018389)
(0.110578 -2.13737e-05 0.00197819)
(0.100039 -0.000131318 0.000478771)
(0.100448 -0.000350452 0.00123479)
(0.101114 -0.000505001 0.00174651)
(0.101909 -0.000597061 0.00202691)
(0.102728 -0.000638402 0.0021523)
(0.103529 -0.000637965 0.00218687)
(0.104297 -0.000604059 0.0021541)
(0.105006 -0.000558494 0.00208088)
(0.105641 -0.000508937 0.00198352)
(0.106213 -0.000460147 0.00187869)
(0.106734 -0.000414686 0.00177897)
(0.107214 -0.000373056 0.00169337)
(0.107661 -0.00033438 0.00162914)
(0.10809 -0.000296106 0.00158939)
(0.108502 -0.000256975 0.00157518)
(0.108897 -0.000216261 0.00159006)
(0.109282 -0.000170237 0.00164228)
(0.109672 -0.000115112 0.00173719)
(0.110095 -4.99314e-05 0.00186429)
(0.110639 1.94713e-05 0.00199687)
(0.100046 -0.000395673 0.000540243)
(0.10048 -0.00104473 0.00138409)
(0.101154 -0.00147514 0.00192296)
(0.101913 -0.00170487 0.00219258)
(0.102632 -0.00177951 0.00229417)
(0.103301 -0.00174399 0.0022785)
(0.103894 -0.00163291 0.00218612)
(0.104391 -0.00148951 0.00205355)
(0.104819 -0.00134179 0.00190679)
(0.105197 -0.00120465 0.00176883)
(0.105542 -0.00108212 0.00164922)
(0.105865 -0.000974032 0.00154972)
(0.106178 -0.000876087 0.00147087)
(0.106487 -0.000783291 0.00141089)
(0.106798 -0.000692089 0.00136829)
(0.107114 -0.000595459 0.00134262)
(0.107439 -0.000486661 0.00133503)
(0.107777 -0.000361572 0.00134644)
(0.108148 -0.000223257 0.00137298)
(0.108633 -8.74491e-05 0.00140265)
(0.10006 -0.000641367 0.000641379)
(0.100502 -0.00164496 0.00164498)
(0.101149 -0.00221224 0.00221228)
(0.101738 -0.0024397 0.00243977)
(0.102205 -0.00244167 0.00244179)
(0.102502 -0.00231323 0.00231341)
(0.102647 -0.00209202 0.00209232)
(0.102717 -0.0018682 0.00186869)
(0.102745 -0.0016698 0.00167058)
(0.102761 -0.00150283 0.00150408)
(0.102786 -0.00136353 0.00136552)
(0.102827 -0.00124704 0.00125021)
(0.102893 -0.0011482 0.00115323)
(0.102987 -0.00106043 0.00106834)
(0.103112 -0.000976469 0.000988657)
(0.103267 -0.00088746 0.000905624)
(0.103449 -0.00078273 0.000808079)
(0.103643 -0.000650444 0.00068101)
(0.10383 -0.000485231 0.000509184)
(0.104153 -0.000372368 0.000343098)
(0.10014 -0.000869245 0.000774992)
(0.100454 -0.00196354 0.0019623)
(0.100911 -0.00233447 0.00242732)
(0.100979 -0.00244122 0.00252624)
(0.100695 -0.0023368 0.00242576)
(0.100225 -0.00211265 0.00219665)
(0.0997106 -0.00182359 0.00191523)
(0.0991864 -0.00157612 0.00166331)
(0.0986936 -0.00139092 0.00145858)
(0.0982492 -0.00125209 0.00128916)
(0.0978613 -0.00115062 0.00114749)
(0.0975269 -0.00107925 0.00102704)
(0.0972438 -0.00102898 0.000920116)
(0.0970115 -0.000989732 0.000815476)
(0.0968325 -0.000959011 0.000703607)
(0.09671 -0.000927469 0.000568968)
(0.0966477 -0.000878398 0.000385201)
(0.0966301 -0.000793676 0.000118777)
(0.0965906 -0.000644298 -0.000280311)
(0.096704 -0.000406214 -0.000862309)
(0.099413 -0.000270231 0.000345217)
(0.0988664 -0.0018749 0.00201895)
(0.0979216 -0.002189 0.00257294)
(0.0963663 -0.00190834 0.00237953)
(0.0946342 -0.00162662 0.00211354)
(0.0929735 -0.00141869 0.00192584)
(0.0913662 -0.00127135 0.00179981)
(0.0898573 -0.00116027 0.00170265)
(0.0884602 -0.00107034 0.00160026)
(0.0871671 -0.000999116 0.00148686)
(0.0859718 -0.000952002 0.00137151)
(0.0848607 -0.000925988 0.00125955)
(0.0838171 -0.000916573 0.00114795)
(0.082832 -0.000918857 0.00102788)
(0.0819051 -0.000929201 0.000888226)
(0.0810483 -0.000938951 0.000711314)
(0.0802967 -0.000935809 0.000463428)
(0.0796874 -0.000882143 1.11004e-05)
(0.0792689 -0.000770886 -0.000781444)
(0.0783056 -0.000410545 -0.00253679)
(0.0995405 0.000321901 0.000245014)
(0.0992576 0.00154095 0.00105547)
(0.0988489 0.00211452 0.00150204)
(0.0981248 0.00209176 0.0015789)
(0.0973368 0.00188642 0.0015139)
(0.0965846 0.00166641 0.00144476)
(0.0958647 0.00149896 0.00140717)
(0.0951963 0.00137321 0.00137392)
(0.0945664 0.00128773 0.00132483)
(0.0939188 0.00123473 0.0012479)
(0.0932864 0.00120028 0.00114913)
(0.0926655 0.00118287 0.00103834)
(0.092045 0.00118029 0.000921997)
(0.0914127 0.00119462 0.000797665)
(0.0907542 0.00122618 0.000655918)
(0.0900473 0.00127941 0.00047342)
(0.0892592 0.00136556 0.00020678)
(0.0883246 0.00151135 -0.000194671)
(0.0871525 0.00175882 -0.000819093)
(0.0860105 0.00235436 -0.00175615)
(0.100093 0.000763209 0.000445887)
(0.100504 0.00174904 0.00119435)
(0.101105 0.00212961 0.00158655)
(0.101635 0.00223488 0.00174002)
(0.101979 0.00228758 0.00178161)
(0.102171 0.00223682 0.00172793)
(0.102252 0.00211741 0.00160631)
(0.102276 0.00196708 0.00145734)
(0.102278 0.00180623 0.00130014)
(0.102269 0.00165963 0.00114853)
(0.102261 0.00155571 0.00101465)
(0.102258 0.00148701 0.000897319)
(0.102261 0.00144603 0.000786667)
(0.102269 0.00143027 0.000675688)
(0.10228 0.00143997 0.000549687)
(0.102291 0.00147901 0.000400032)
(0.102297 0.00155741 0.000206747)
(0.102283 0.00168823 -5.38118e-05)
(0.102256 0.00187944 -0.000402474)
(0.102472 0.00208415 -0.000808584)
(0.100046 0.000540243 0.000395673)
(0.10048 0.00138409 0.00104473)
(0.101154 0.00192296 0.00147514)
(0.101913 0.00219258 0.00170488)
(0.102632 0.00229417 0.00177951)
(0.103301 0.0022785 0.00174399)
(0.103894 0.00218612 0.00163291)
(0.104391 0.00205355 0.00148951)
(0.104819 0.00190678 0.0013418)
(0.105197 0.00176883 0.00120466)
(0.105542 0.00164922 0.00108214)
(0.105865 0.00154971 0.000974061)
(0.106178 0.00147086 0.000876126)
(0.106487 0.00141088 0.000783343)
(0.106798 0.00136826 0.00069216)
(0.107114 0.00134258 0.000595557)
(0.107439 0.00133498 0.000486793)
(0.107777 0.00134638 0.00036175)
(0.108148 0.00137293 0.000223492)
(0.108633 0.00140266 8.77538e-05)
(0.100036 0.000323123 0.000323118)
(0.100429 0.000868611 0.0008686)
(0.10108 0.00126228 0.00126226)
(0.101891 0.00150418 0.00150416)
(0.102756 0.00162126 0.00162123)
(0.103616 0.00164232 0.00164227)
(0.104446 0.0016041 0.00160402)
(0.105224 0.00152558 0.00152545)
(0.105939 0.00142573 0.00142552)
(0.106595 0.00132039 0.00132005)
(0.1072 0.00121996 0.00121942)
(0.107765 0.00112928 0.00112844)
(0.108299 0.00104962 0.00104837)
(0.108811 0.000980368 0.00097856)
(0.109307 0.000920123 0.000917607)
(0.109796 0.000867014 0.000863769)
(0.110285 0.000819048 0.000815568)
(0.11078 0.000773628 0.000771919)
(0.111301 0.000727925 0.000733441)
(0.111906 0.000686474 0.000712755)
(0.100031 0.000107062 0.00028137)
(0.100395 0.000293005 0.000768597)
(0.101024 0.000434007 0.00113302)
(0.101843 0.000526114 0.00136914)
(0.102751 0.000576178 0.00150137)
(0.103688 0.000591492 0.0015542)
(0.104617 0.000581971 0.00154929)
(0.105515 0.000557164 0.00150853)
(0.106366 0.000523267 0.00144518)
(0.107163 0.000485763 0.00136957)
(0.107905 0.000448846 0.0012905)
(0.108598 0.00041473 0.00121487)
(0.109248 0.000384059 0.00114775)
(0.109866 0.000356146 0.00109316)
(0.110458 0.000328983 0.00105514)
(0.111031 0.000302298 0.00103487)
(0.111594 0.000276111 0.00103197)
(0.112154 0.000250428 0.00104487)
(0.112733 0.000224854 0.0010702)
(0.113387 0.000203174 0.00110203)
(0.100031 -0.000107065 0.000281373)
(0.100395 -0.000293014 0.000768604)
(0.101024 -0.000434026 0.00113303)
(0.101843 -0.000526144 0.00136915)
(0.102751 -0.000576225 0.00150139)
(0.103688 -0.000591565 0.00155423)
(0.104617 -0.000582079 0.00154934)
(0.105515 -0.000557321 0.00150861)
(0.106366 -0.000523491 0.00144531)
(0.107163 -0.000486085 0.00136977)
(0.107905 -0.000449312 0.00129081)
(0.108598 -0.00041542 0.00121534)
(0.109248 -0.000385096 0.00114843)
(0.109866 -0.000357689 0.00109411)
(0.110458 -0.000331135 0.00105638)
(0.111033 -0.000305085 0.00103625)
(0.111598 -0.000279485 0.00103284)
(0.112163 -0.000254108 0.00104363)
(0.11275 -0.000228382 0.00106305)
(0.113409 -0.000206944 0.0010811)
(0.100036 -0.000323117 0.000323123)
(0.100429 -0.0008686 0.000868612)
(0.10108 -0.00126226 0.00126228)
(0.101891 -0.00150416 0.00150418)
(0.102756 -0.00162123 0.00162126)
(0.103616 -0.00164227 0.00164232)
(0.104446 -0.00160402 0.0016041)
(0.105224 -0.00152544 0.00152558)
(0.105939 -0.00142551 0.00142573)
(0.106595 -0.00132004 0.0013204)
(0.1072 -0.0012194 0.00121997)
(0.107765 -0.00112842 0.00112929)
(0.108299 -0.00104834 0.00104963)
(0.108811 -0.000978522 0.00098038)
(0.109307 -0.000917555 0.000920137)
(0.109796 -0.000863699 0.000867029)
(0.110285 -0.000815474 0.000819057)
(0.11078 -0.000771794 0.000773624)
(0.111301 -0.000733277 0.000727893)
(0.111906 -0.000712553 0.000686399)
(0.100046 -0.000540232 0.000395674)
(0.10048 -0.00138406 0.00104474)
(0.101154 -0.00192292 0.00147513)
(0.101913 -0.00219251 0.00170487)
(0.102632 -0.00229407 0.0017795)
(0.103302 -0.00227834 0.00174398)
(0.103894 -0.00218586 0.0016329)
(0.104391 -0.00205314 0.00148949)
(0.104819 -0.00190611 0.00134176)
(0.105198 -0.00176775 0.0012046)
(0.105543 -0.00164747 0.00108204)
(0.105868 -0.00154692 0.000973871)
(0.106182 -0.00146634 0.000875784)
(0.106493 -0.00140353 0.000782685)
(0.106806 -0.00135656 0.000690824)
(0.107124 -0.00132419 0.000593009)
(0.10745 -0.00130707 0.000481912)
(0.107786 -0.00130721 0.000351972)
(0.108144 -0.00132598 0.000203826)
(0.108608 -0.00138665 5.45238e-05)
(0.100093 -0.000763203 0.000445883)
(0.100504 -0.00174903 0.00119434)
(0.101105 -0.00212958 0.00158652)
(0.101635 -0.0022348 0.00173996)
(0.101979 -0.00228746 0.00178151)
(0.102172 -0.00223667 0.00172779)
(0.102253 -0.00211718 0.0016061)
(0.102277 -0.00196671 0.00145702)
(0.102279 -0.00180567 0.00129966)
(0.102272 -0.0016587 0.00114777)
(0.102265 -0.00155409 0.00101344)
(0.102265 -0.00148423 0.000895369)
(0.102272 -0.00144118 0.000783636)
(0.102287 -0.00142165 0.000670805)
(0.102307 -0.00142436 0.000541487)
(0.102333 -0.00145069 0.000387414)
(0.102358 -0.00150628 0.000188006)
(0.102372 -0.00159991 -7.93124e-05)
(0.102356 -0.00174428 -0.00042982)
(0.102493 -0.00198391 -0.000799313)
(0.0995405 -0.000321899 0.000245008)
(0.0992576 -0.00154094 0.00105544)
(0.098849 -0.00211449 0.00150197)
(0.0981249 -0.00209173 0.00157879)
(0.0973371 -0.00188639 0.00151372)
(0.0965852 -0.00166636 0.00144447)
(0.0958657 -0.00149888 0.00140672)
(0.0951979 -0.00137306 0.00137323)
(0.0945689 -0.0012875 0.00132378)
(0.093923 -0.00123433 0.00124628)
(0.0932933 -0.00119964 0.00114658)
(0.0926769 -0.00118172 0.00103422)
(0.092064 -0.00117819 0.000915238)
(0.0914446 -0.00119056 0.000786763)
(0.0908087 -0.00121762 0.000638314)
(0.0901416 -0.00126135 0.000443137)
(0.0894259 -0.00132768 0.000159339)
(0.0886258 -0.00143469 -0.000268338)
(0.087658 -0.00159994 -0.000955456)
(0.0865075 -0.00197105 -0.00193243)
(0.0993801 5.89449e-05 3.37663e-05)
(0.0992677 0.00120002 0.000274337)
(0.0989803 0.00188851 0.000432256)
(0.0984744 0.00200657 0.000483248)
(0.0979951 0.00191488 0.000478446)
(0.0975698 0.00173509 0.000464782)
(0.097179 0.00154789 0.000451477)
(0.0968273 0.00138965 0.00043991)
(0.0965238 0.00127202 0.000431963)
(0.0962634 0.00120307 0.000421001)
(0.0959791 0.00117868 0.000398686)
(0.0956686 0.0011818 0.000366306)
(0.0953241 0.00120077 0.000327463)
(0.0949229 0.00123836 0.000285426)
(0.0944447 0.00130609 0.00024478)
(0.0938535 0.00141676 0.000192953)
(0.0930849 0.0016033 0.000122877)
(0.0920134 0.0018966 2.84694e-05)
(0.0905139 0.00229316 -0.000129717)
(0.0888187 0.00360796 -0.000116825)
(0.100087 0.000707017 0.000144378)
(0.100477 0.00161779 0.000390464)
(0.101065 0.00203465 0.000541055)
(0.101694 0.00211772 0.000610066)
(0.102268 0.00215063 0.000635864)
(0.102741 0.00218076 0.00062655)
(0.103123 0.00213569 0.000594337)
(0.103425 0.00204704 0.000548507)
(0.103676 0.00193998 0.000502567)
(0.103891 0.00183812 0.000458769)
(0.104082 0.00174577 0.000413009)
(0.104261 0.00167013 0.000366249)
(0.104424 0.0016304 0.000321008)
(0.104562 0.00162989 0.000275099)
(0.104676 0.00165941 0.000225087)
(0.104762 0.0017377 0.00016878)
(0.104809 0.00188623 9.87945e-05)
(0.104809 0.00213296 8.12597e-06)
(0.104783 0.00248293 -0.000108969)
(0.105068 0.00284758 -0.000254898)