/*--------------------------------*- C++ -*----------------------------------*\
| =========                 |                                                 |
| \\      /  F ield         | OpenFOAM: The Open Source CFD Toolbox           |
|  \\    /   O peration     | Version:  2212                                  |
|   \\  /    A nd           | Website:  www.openfoam.com                      |
|    \\/     M anipulation  |                                                 |
\*---------------------------------------------------------------------------*/
FoamFile
{
    version     2.0;
    format      ascii;
    arch        "LSB;label=32;scalar=64";
    class       surfaceVectorField;
    location    "0.85";
    object      Uf;
}
// * * * * * * * * * * * * * * * * * * * * * * * * * * * * * * * * * * * * * //

dimensions      [0 1 -1 0 0 0 0];

internalField   nonuniform List<vector> 
19019
(
(0.0993441 -0.00341901 -0.00341902)
(0.0973536 0.00106248 -0.00148428)
(0.0973536 -0.00148428 0.00106247)
(0.0834792 0.00197587 0.00197583)
(0.0930873 0.00326899 0.00253347)
(0.0930873 0.00253348 0.00326895)
(0.0745174 0.00195873 0.00195866)
(0.0848642 0.00163584 0.00179235)
(0.0848642 0.00179238 0.00163576)
(0.0685482 0.00115911 0.00115901)
(0.0786284 0.0010735 0.00122138)
(0.0786284 0.00122143 0.00107337)
(0.0642369 0.000696993 0.000696852)
(0.0740538 0.000785309 0.000865194)
(0.0740537 0.000865251 0.000785105)
(0.0607581 0.000494813 0.000494611)
(0.0704437 0.000650456 0.000669501)
(0.0704436 0.000669592 0.000650136)
(0.0579394 0.000374822 0.000374554)
(0.0674937 0.000546667 0.000508998)
(0.0674935 0.000509127 0.000546121)
(0.0556172 0.000287956 0.000287573)
(0.065054 0.000468676 0.000388321)
(0.0650537 0.000388454 0.000467787)
(0.0536299 0.000226973 0.000226367)
(0.0629713 0.000414855 0.000309319)
(0.0629707 0.000309498 0.000413391)
(0.051888 0.00018315 0.000182218)
(0.0611402 0.000372111 0.000257493)
(0.0611393 0.000257756 0.000369708)
(0.0503428 0.000151133 0.000149753)
(0.0595021 0.000333453 0.000224094)
(0.0595005 0.000224455 0.000329573)
(0.0489634 0.00012659 0.000124299)
(0.0580242 0.000297468 0.000202771)
(0.0580217 0.000203142 0.000291229)
(0.0477249 0.000106216 0.000101877)
(0.0566828 0.000265413 0.000188933)
(0.0566788 0.00018936 0.000255029)
(0.0466061 8.77116e-05 7.97597e-05)
(0.0554578 0.000238194 0.000179732)
(0.055451 0.000181382 0.000220671)
(0.0456122 6.91831e-05 5.50221e-05)
(0.0543486 0.00021025 0.000172741)
(0.054337 0.000176275 0.000180905)
(0.0447628 5.62818e-05 2.62957e-05)
(0.0533647 0.000179954 0.000165928)
(0.0533441 0.000173093 0.000130583)
(0.0440983 2.1019e-05 -3.31507e-05)
(0.052543 0.000147808 0.000154334)
(0.0525049 0.000171422 5.97686e-05)
(0.0440046 -6.80747e-05 -0.000160053)
(0.0520726 5.29646e-05 7.29042e-05)
(0.0519993 9.64719e-05 -9.5704e-05)
(0.0451724 -0.00118941 -0.00136346)
(0.0524687 -0.000149065 -0.000102802)
(0.0523326 -8.84272e-05 -0.000438256)
(0.0510378 -0.00218388 -0.00197982)
(0.0511631 -0.00241097 -0.00309525)
(0.0984572 0.00247643 0.0017299)
(0.0996871 0.000439222 0.000345483)
(0.100049 0.00105638 0.000750968)
(0.0958349 0.00314802 0.00243268)
(0.0978162 0.00273273 0.00228229)
(0.0982937 0.00280917 0.00216146)
(0.0914502 0.00223026 0.00186931)
(0.0954961 0.00300159 0.00230315)
(0.0963041 0.00244257 0.00199779)
(0.0875957 0.00167445 0.0015055)
(0.0926195 0.00229913 0.00183881)
(0.0936672 0.00198056 0.00172695)
(0.0841486 0.00143973 0.00127583)
(0.0897679 0.00189145 0.00153576)
(0.0909053 0.00171943 0.00149788)
(0.0811894 0.00126492 0.00102912)
(0.0872332 0.00165562 0.00129498)
(0.0884356 0.00145416 0.00121208)
(0.0787037 0.00110938 0.000794681)
(0.0850083 0.00149056 0.00107775)
(0.0863068 0.00118293 0.000909294)
(0.0765607 0.000990719 0.000626521)
(0.0830637 0.00136906 0.000914403)
(0.0844838 0.000981952 0.000691822)
(0.0746577 0.000902752 0.000520566)
(0.0813292 0.00127434 0.000803573)
(0.0828855 0.000843343 0.000550549)
(0.0729342 0.000826945 0.000457041)
(0.0797539 0.00118708 0.000729795)
(0.0814568 0.000741421 0.000458783)
(0.0713548 0.000752301 0.000420165)
(0.0783099 0.00110045 0.0006852)
(0.0801662 0.000656925 0.00039753)
(0.0698994 0.000677963 0.000399107)
(0.0769763 0.00101328 0.000660387)
(0.0789889 0.000581886 0.000354796)
(0.0685544 0.000608843 0.000388943)
(0.0757367 0.0009244 0.000648465)
(0.0779073 0.000516745 0.00032607)
(0.0673104 0.000541674 0.000386646)
(0.0745804 0.000833111 0.000645894)
(0.0769169 0.00046276 0.000307876)
(0.0661757 0.000466165 0.000388602)
(0.0735088 0.000730409 0.000650163)
(0.0760235 0.000406054 0.000291566)
(0.0651759 0.000361355 0.000381654)
(0.0725337 0.000605671 0.000656102)
(0.0752379 0.000340407 0.000272212)
(0.0644043 0.000163361 0.000300648)
(0.0716984 0.000423423 0.000644981)
(0.0745968 0.000240727 0.000230985)
(0.0641697 -0.000227616 7.98539e-05)
(0.0711267 4.79613e-05 0.000531059)
(0.0742036 1.78842e-05 6.36769e-05)
(0.0652069 -0.00117818 -0.000586234)
(0.071101 -0.000700477 0.000274228)
(0.0742382 -0.000522805 -0.000445042)
(0.069776 -0.00290903 -0.000716696)
(0.0733861 -0.0022894 -0.00258312)
(0.0993753 0.00118208 0.00107256)
(0.099473 0.000349738 0.000307059)
(0.0997475 0.000610963 0.000779882)
(0.0984949 0.00229595 0.00203194)
(0.0990504 0.00157671 0.00172047)
(0.0995971 0.00201822 0.00200289)
(0.0971415 0.00247623 0.00204867)
(0.0983578 0.00213089 0.00216891)
(0.0992974 0.00246135 0.00210246)
(0.0954399 0.00224654 0.00176748)
(0.0971935 0.0020354 0.00200248)
(0.0984886 0.00237416 0.00190268)
(0.0937514 0.00201969 0.00152266)
(0.0959055 0.00185499 0.00175452)
(0.0974228 0.00218035 0.00168886)
(0.0921391 0.00186283 0.00134502)
(0.0946723 0.00173166 0.001543)
(0.0963104 0.00198381 0.00150863)
(0.0906029 0.00175123 0.00121581)
(0.0934825 0.00165085 0.00138708)
(0.0952058 0.00180001 0.00134332)
(0.0891535 0.00165146 0.0011153)
(0.0923693 0.00157358 0.00126663)
(0.09415 0.00164192 0.00120485)
(0.0878076 0.00154356 0.00103473)
(0.0913335 0.00147596 0.00117387)
(0.093169 0.00150014 0.00109763)
(0.0865665 0.00142919 0.000975559)
(0.0903448 0.00136182 0.00110687)
(0.0922665 0.00136728 0.00101705)
(0.0854153 0.00131554 0.000938995)
(0.0894155 0.0012445 0.00106334)
(0.0914426 0.00124497 0.00096263)
(0.084338 0.00120376 0.00092128)
(0.0885371 0.00112596 0.00103958)
(0.0906889 0.0011332 0.000929839)
(0.0833224 0.00108793 0.000917714)
(0.087696 0.00100541 0.00103161)
(0.0899952 0.00102715 0.000913317)
(0.0823655 0.000958075 0.000924031)
(0.0868829 0.000877206 0.00103762)
(0.0893565 0.000917381 0.000907491)
(0.0814713 0.000799801 0.000934084)
(0.0860929 0.000728098 0.00105453)
(0.0887737 0.000793836 0.000910372)
(0.0806649 0.000587415 0.000937394)
(0.0853253 0.000532834 0.00107791)
(0.0882548 0.000639938 0.000913378)
(0.0799907 0.000237327 0.000908998)
(0.0845905 0.000250918 0.00110329)
(0.0878203 0.000425026 0.000901023)
(0.0794719 -0.000385096 0.000826551)
(0.0838914 -0.000191616 0.00112476)
(0.0874832 6.14509e-05 0.00084409)
(0.0791535 -0.00165896 0.000590757)
(0.0832144 -0.000963095 0.00113666)
(0.0872389 -0.000546057 0.000729017)
(0.0821628 -0.00223214 0.00114947)
(0.0867709 -0.00176445 0.000414321)
(0.0996493 0.000650225 0.000931417)
(0.0994625 0.000129351 0.000192487)
(0.0997993 0.000375094 0.000741364)
(0.0990855 0.00127871 0.00182771)
(0.0992625 0.000636766 0.00137061)
(0.0998409 0.00115025 0.00181422)
(0.0984493 0.00154038 0.00210311)
(0.0989129 0.000973185 0.00200359)
(0.0999048 0.00153622 0.00209017)
(0.0977077 0.00154626 0.00198906)
(0.098295 0.00104964 0.00205074)
(0.0997675 0.00163124 0.00202309)
(0.0969394 0.0014791 0.00177637)
(0.0976572 0.00100683 0.00189987)
(0.0995096 0.00160886 0.00189592)
(0.0962077 0.0014256 0.00158262)
(0.0970643 0.000958946 0.00169876)
(0.0991997 0.00154639 0.00175218)
(0.0955218 0.00138998 0.00143597)
(0.0965047 0.00093131 0.00152149)
(0.0988549 0.00147267 0.00162671)
(0.0948715 0.00134851 0.00133028)
(0.0959908 0.000913533 0.0013805)
(0.0985109 0.00138968 0.00151655)
(0.0942356 0.00128504 0.00126092)
(0.0955203 0.000896966 0.00128085)
(0.0981774 0.00129422 0.00142215)
(0.0936065 0.00119644 0.00121699)
(0.0950623 0.000860271 0.00122104)
(0.0978302 0.00118571 0.00134751)
(0.0929862 0.00109041 0.00119069)
(0.0946012 0.000796026 0.00119119)
(0.097492 0.0010727 0.00129716)
(0.0923714 0.000974752 0.00117996)
(0.0941345 0.00071749 0.00118302)
(0.0971641 0.000959819 0.00126761)
(0.0917553 0.000851034 0.00118439)
(0.0936539 0.000632381 0.00118994)
(0.0968414 0.000845911 0.00125547)
(0.0911282 0.000712583 0.0012041)
(0.0931436 0.000538711 0.00121387)
(0.0965186 0.000726265 0.00126175)
(0.0904772 0.000540789 0.00123951)
(0.09259 0.000429502 0.0012592)
(0.0961898 0.000588403 0.001287)
(0.0897875 0.000301326 0.00129455)
(0.09197 0.000280773 0.00133207)
(0.0958472 0.000414532 0.00133469)
(0.0890353 -5.43848e-05 0.00138123)
(0.0912498 6.22274e-05 0.00144938)
(0.095478 0.000173074 0.00141267)
(0.0881649 -0.000611748 0.00151737)
(0.0903571 -0.000260522 0.00163146)
(0.0950586 -0.000175548 0.00153688)
(0.0870871 -0.00144374 0.00178556)
(0.0892191 -0.000802795 0.00185198)
(0.0945365 -0.000699411 0.00172585)
(0.088026 -0.00152019 0.00257219)
(0.0939884 -0.0013829 0.00208904)
(0.0996725 0.000154013 0.000629466)
(0.0993801 -7.94499e-09 5.89337e-05)
(0.0997132 0.000103902 0.000687946)
(0.0991591 0.000353202 0.00154425)
(0.0992677 -3.44108e-08 0.00120002)
(0.0998376 0.000341556 0.00162229)
(0.0986635 0.000457585 0.00194753)
(0.0989804 -6.85137e-08 0.00188851)
(0.099963 0.000485309 0.00199139)
(0.0982121 0.000480574 0.00196071)
(0.0984745 -1.13209e-07 0.00200656)
(0.0999917 0.000539355 0.0019967)
(0.0977758 0.000471172 0.00182496)
(0.0979951 -1.81934e-07 0.00191487)
(0.100009 0.000545934 0.00191126)
(0.0973617 0.000457421 0.00164145)
(0.09757 -2.92809e-07 0.00173508)
(0.100007 0.000532708 0.00180472)
(0.0969926 0.000444561 0.0014687)
(0.0971792 -4.6803e-07 0.00154787)
(0.0999802 0.000510162 0.00168358)
(0.0966704 0.000434119 0.00133073)
(0.0968276 -7.48482e-07 0.00138961)
(0.0999371 0.000482873 0.00157379)
(0.0963869 0.000423545 0.0012374)
(0.0965244 -1.20409e-06 0.00127196)
(0.0998951 0.000457544 0.00148354)
(0.0961155 0.000405068 0.00119066)
(0.0962644 -1.95511e-06 0.00120298)
(0.0998594 0.000431224 0.00142233)
(0.0958273 0.000374678 0.00117987)
(0.0959807 -3.20142e-06 0.00117855)
(0.0998001 0.000397099 0.00138629)
(0.0955064 0.000333961 0.00119052)
(0.0956711 -5.28576e-06 0.00118156)
(0.0997219 0.000355603 0.00136592)
(0.0951397 0.000284969 0.00121805)
(0.0953284 -8.82814e-06 0.00120026)
(0.0996192 0.000309035 0.00136443)
(0.0947094 0.000228994 0.00126917)
(0.0949302 -1.48133e-05 0.00123737)
(0.0994765 0.000257035 0.00138867)
(0.0941925 0.000157062 0.00135467)
(0.0944577 -2.53796e-05 0.00130404)
(0.0992854 0.000198021 0.00144308)
(0.0935463 5.05838e-05 0.00149416)
(0.093877 -4.44724e-05 0.00141208)
(0.0990273 0.000120217 0.00154188)
(0.0926996 -0.000114792 0.00171219)
(0.0931302 -7.88059e-05 0.00159217)
(0.0986687 9.63847e-06 0.0017119)
(0.0915557 -0.000397793 0.00198434)
(0.0920992 -0.000144219 0.00187008)
(0.0981464 -0.000153679 0.0019803)
(0.0899845 -0.000807423 0.00266897)
(0.0906907 -0.00027079 0.00220935)
(0.0974282 -0.00041836 0.00231852)
(0.0892241 -0.000522265 0.00341035)
(0.0968911 -0.000729965 0.00314248)
(0.0996725 -0.000154051 0.000629483)
(0.0994625 -0.000129365 0.000192498)
(0.0997132 -0.000103917 0.000687948)
(0.099159 -0.000353296 0.00154427)
(0.0992625 -0.000636817 0.00137062)
(0.0998376 -0.000341616 0.0016223)
(0.0986635 -0.000457753 0.00194754)
(0.0989128 -0.000973283 0.00200361)
(0.0999629 -0.000485422 0.0019914)
(0.098212 -0.000480849 0.00196072)
(0.0982948 -0.00104981 0.00205076)
(0.0999917 -0.000539544 0.00199671)
(0.0977756 -0.000471617 0.00182499)
(0.097657 -0.0010071 0.0018999)
(0.100009 -0.00054624 0.00191128)
(0.0973614 -0.000458132 0.00164149)
(0.0970638 -0.000959379 0.00169881)
(0.100007 -0.000533197 0.00180476)
(0.0969921 -0.000445695 0.00146877)
(0.096504 -0.000931998 0.00152156)
(0.0999798 -0.00051093 0.00168364)
(0.0966695 -0.000435936 0.00133084)
(0.0959896 -0.000914627 0.00138063)
(0.0999365 -0.00048409 0.00157388)
(0.0963855 -0.000426478 0.00123755)
(0.0955185 -0.000898703 0.00128104)
(0.0998941 -0.000459486 0.00148369)
(0.0961132 -0.000409834 0.00119088)
(0.0950593 -0.000863045 0.00122135)
(0.0998578 -0.000434345 0.00142255)
(0.0958234 -0.000382478 0.00118025)
(0.0945962 -0.000800507 0.00119168)
(0.0997975 -0.000402116 0.00138663)
(0.0954999 -0.000346855 0.00119129)
(0.0941262 -0.000724803 0.00118391)
(0.0997176 -0.000363725 0.00136658)
(0.0951285 -0.000306398 0.00121958)
(0.09364 -0.000644458 0.00119162)
(0.0996122 -0.000322294 0.00136582)
(0.0946899 -0.000265033 0.00127224)
(0.09312 -0.000558566 0.00121708)
(0.0994649 -0.00027875 0.00139153)
(0.0941575 -0.000218767 0.00136146)
(0.0925492 -0.000462469 0.00126584)
(0.0992658 -0.000234105 0.00144921)
(0.0934816 -0.000157778 0.0015101)
(0.0918986 -0.000336883 0.00134626)
(0.0989941 -0.000180743 0.00155563)
(0.0925755 -7.54903e-05 0.00175006)
(0.09112 -0.000156027 0.00148014)
(0.0986096 -0.000111685 0.00174262)
(0.0913086 5.08539e-05 0.00209508)
(0.0901187 0.00010172 0.00169709)
(0.0980432 -2.09645e-05 0.00204962)
(0.0894736 0.000123567 0.00295073)
(0.0887872 0.000519502 0.00201486)
(0.097238 0.000114047 0.00249396)
(0.0873762 0.00109769 0.00294818)
(0.0964758 0.000157526 0.00369437)
(0.0996493 -0.000650243 0.000931423)
(0.099473 -0.000349738 0.000307061)
(0.0997993 -0.000375099 0.000741366)
(0.0990854 -0.00127875 0.00182773)
(0.0990504 -0.00157671 0.00172048)
(0.0998409 -0.00115027 0.00181423)
(0.0984492 -0.00154047 0.00210313)
(0.0983577 -0.0021309 0.00216893)
(0.0999047 -0.00153627 0.00209019)
(0.0977075 -0.0015464 0.00198909)
(0.0971933 -0.00203543 0.00200251)
(0.0997673 -0.00163133 0.00202313)
(0.096939 -0.00147933 0.00177642)
(0.0959052 -0.00185505 0.00175456)
(0.0995093 -0.001609 0.00189598)
(0.0962069 -0.00142597 0.00158269)
(0.0946717 -0.00173174 0.00154306)
(0.0991992 -0.0015466 0.00175226)
(0.0955206 -0.00139055 0.00143609)
(0.0934816 -0.00165097 0.00138718)
(0.0988541 -0.00147299 0.00162684)
(0.0948695 -0.00134937 0.00133047)
(0.0923677 -0.00157373 0.0012668)
(0.0985096 -0.00139019 0.00151677)
(0.0942323 -0.00128636 0.00126123)
(0.091331 -0.00147616 0.00117415)
(0.0981752 -0.00129499 0.00142249)
(0.0936011 -0.0011985 0.00121751)
(0.0903407 -0.00136207 0.00110733)
(0.0978267 -0.0011869 0.00134809)
(0.0929773 -0.00109371 0.00119158)
(0.0894088 -0.00124484 0.0010641)
(0.0974863 -0.00107458 0.00129816)
(0.0923568 -0.000980132 0.00118158)
(0.0885261 -0.00112648 0.00104092)
(0.0971547 -0.000962861 0.00126942)
(0.0917308 -0.000859774 0.00118746)
(0.0876778 -0.00100621 0.00103396)
(0.096826 -0.000850862 0.00125889)
(0.0910868 -0.000726709 0.00121041)
(0.0868525 -0.000878274 0.00104203)
(0.0964933 -0.000734323 0.00126837)
(0.0904058 -0.000564549 0.00125282)
(0.0860411 -0.000729247 0.00106343)
(0.096148 -0.000601708 0.00130027)
(0.0896627 -0.000339936 0.00132254)
(0.085236 -0.000534503 0.00109622)
(0.0957774 -0.000437021 0.00136152)
(0.0888142 -5.85064e-06 0.00143856)
(0.084434 -0.000250785 0.001141)
(0.0953607 -0.000208515 0.00146678)
(0.0877729 0.000507112 0.00163528)
(0.0836097 0.00019324 0.00120387)
(0.0948572 0.000120845 0.0016422)
(0.0863911 0.00128791 0.00205683)
(0.0827283 0.000954841 0.00129839)
(0.0942206 0.00060607 0.00192351)
(0.0816771 0.00226775 0.00138157)
(0.0937142 0.00127679 0.00244235)
(0.0993753 -0.00118207 0.00107257)
(0.0996871 -0.000439212 0.000345483)
(0.0997475 -0.000610956 0.000779888)
(0.0984948 -0.00229592 0.00203196)
(0.0978162 -0.00273269 0.0022823)
(0.0995971 -0.0020182 0.00200291)
(0.0971413 -0.0024762 0.00204869)
(0.095496 -0.00300153 0.00230317)
(0.0992973 -0.00246131 0.00210249)
(0.0954396 -0.00224648 0.00176752)
(0.0926193 -0.00229903 0.00183884)
(0.0984884 -0.0023741 0.00190274)
(0.093751 -0.0020196 0.00152271)
(0.0897677 -0.0018913 0.00153581)
(0.0974226 -0.00218027 0.00168895)
(0.0921384 -0.00186268 0.00134511)
(0.0872328 -0.00165538 0.00129506)
(0.0963099 -0.00198367 0.00150877)
(0.0906017 -0.001751 0.00121597)
(0.0850077 -0.00149015 0.00107791)
(0.0952051 -0.00179978 0.00134355)
(0.0891516 -0.00165108 0.00111557)
(0.0830625 -0.00136837 0.000914656)
(0.0941488 -0.00164156 0.00120523)
(0.0878044 -0.00154292 0.00103517)
(0.0813273 -0.0012732 0.000803977)
(0.0931671 -0.00149956 0.00109824)
(0.0865614 -0.00142813 0.000976311)
(0.0797508 -0.00118521 0.000730445)
(0.0922633 -0.00136633 0.00101807)
(0.085407 -0.0013138 0.000940284)
(0.0783049 -0.00109739 0.000686284)
(0.0914376 -0.00124347 0.000964377)
(0.0843244 -0.00120091 0.000923498)
(0.0769682 -0.00100835 0.000662085)
(0.0906807 -0.00113082 0.000932876)
(0.0832998 -0.00108318 0.000921677)
(0.0757233 -0.000916484 0.000650943)
(0.089982 -0.00102329 0.000918649)
(0.0823276 -0.000949994 0.000931565)
(0.074558 -0.000820002 0.000650671)
(0.089335 -0.000911309 0.000917195)
(0.0814069 -0.000786073 0.00094909)
(0.0734707 -0.000708546 0.000659216)
(0.0887385 -0.000784182 0.000928528)
(0.080553 -0.000564023 0.000967725)
(0.0724673 -0.000569726 0.000673581)
(0.0881969 -0.000625153 0.00094829)
(0.0797975 -0.000199885 0.000972654)
(0.0715797 -0.000368647 0.000676859)
(0.0877262 -0.000402851 0.00096852)
(0.0791303 0.000434155 0.000958312)
(0.0709074 3.89778e-05 0.00059178)
(0.0873304 -3.25394e-05 0.000976046)
(0.0785101 0.00177532 0.000733243)
(0.0707037 0.000853037 0.000366118)
(0.087005 0.000567751 0.000985836)
(0.0697363 0.00338861 -0.00114291)
(0.0865558 0.00182314 0.000729315)
(0.0984572 -0.00247641 0.0017299)
(0.0973536 -0.00106247 -0.00148428)
(0.100049 -0.00105637 0.000750975)
(0.0958349 -0.00314796 0.0024327)
(0.0930873 -0.00326895 0.00253348)
(0.0982937 -0.00280915 0.00216149)
(0.0914502 -0.00223016 0.00186934)
(0.0848642 -0.00163576 0.00179237)
(0.0963041 -0.00244251 0.00199784)
(0.0875956 -0.00167428 0.00150554)
(0.0786284 -0.00107337 0.00122142)
(0.0936672 -0.00198045 0.00172704)
(0.0841484 -0.00143946 0.0012759)
(0.0740537 -0.000785106 0.000865245)
(0.0909053 -0.00171926 0.00149802)
(0.081189 -0.00126443 0.00102926)
(0.0704436 -0.000650138 0.000669585)
(0.0884354 -0.00145388 0.00121232)
(0.0787031 -0.0011085 0.000794901)
(0.0674935 -0.000546123 0.000509119)
(0.0863065 -0.00118243 0.000909706)
(0.0765597 -0.000989239 0.000626847)
(0.0650537 -0.00046779 0.000388446)
(0.0844834 -0.000981101 0.000692484)
(0.074656 -0.000900306 0.000521065)
(0.0629707 -0.000413393 0.00030949)
(0.0828848 -0.000841936 0.000551627)
(0.0729313 -0.00082292 0.000457835)
(0.0611393 -0.000369707 0.000257749)
(0.0814556 -0.00073912 0.00046054)
(0.0713501 -0.000745723 0.00042134)
(0.0595006 -0.000329569 0.000224449)
(0.0801641 -0.000653144 0.000400447)
(0.0698915 -0.000667282 0.000400555)
(0.0580217 -0.000291221 0.000203137)
(0.0789855 -0.000575815 0.000359443)
(0.0685415 -0.000591383 0.000391404)
(0.0566788 -0.000255015 0.000189357)
(0.0779018 -0.000507123 0.00033323)
(0.0672884 -0.000512773 0.000391567)
(0.055451 -0.000220649 0.000181381)
(0.0769075 -0.000446797 0.000320508)
(0.0661377 -0.00041829 0.000397837)
(0.0543371 -0.000180875 0.00017628)
(0.0760074 -0.000379728 0.000313295)
(0.0651081 -0.00028552 0.000396784)
(0.0533442 -0.000130533 0.000173107)
(0.0752094 -0.000297287 0.000309957)
(0.064275 -3.65125e-05 0.000321564)
(0.052505 -5.96967e-05 0.000171437)
(0.0745439 -0.000175545 0.00029466)
(0.0639277 0.000476767 8.30193e-05)
(0.0519995 9.58127e-05 9.6527e-05)
(0.074102 8.94272e-05 0.000168192)
(0.0647625 0.00207841 -0.00116935)
(0.0523329 0.000438418 -8.83499e-05)
(0.0740494 0.000719322 -0.000287411)
(0.0511635 0.00309573 -0.00241097)
(0.0735607 0.00291612 -0.00257806)
(0.0993441 0.00341902 -0.00341901)
(0.0973536 0.00148428 0.00106248)
(0.0834792 -0.00197583 0.00197587)
(0.0930873 -0.00253347 0.00326899)
(0.0745174 -0.00195866 0.00195872)
(0.0848642 -0.00179235 0.00163584)
(0.0685482 -0.00115901 0.0011591)
(0.0786284 -0.00122138 0.0010735)
(0.0642369 -0.000696855 0.000696988)
(0.0740538 -0.000865198 0.000785307)
(0.0607581 -0.000494616 0.000494807)
(0.0704437 -0.000669506 0.000650453)
(0.0579394 -0.00037456 0.000374816)
(0.0674937 -0.000509003 0.000546664)
(0.0556173 -0.000287579 0.000287949)
(0.065054 -0.000388326 0.000468671)
(0.05363 -0.000226372 0.000226968)
(0.0629713 -0.000309324 0.000414851)
(0.0518881 -0.000182223 0.000183146)
(0.0611402 -0.000257498 0.000372107)
(0.0503429 -0.000149756 0.000151131)
(0.0595021 -0.000224099 0.00033345)
(0.0489634 -0.0001243 0.000126591)
(0.0580242 -0.000202775 0.000297467)
(0.047725 -0.000101876 0.000106222)
(0.0566829 -0.000188936 0.000265415)
(0.0466062 -7.97589e-05 8.77252e-05)
(0.0554578 -0.000179736 0.000238199)
(0.0456124 -5.50152e-05 6.92066e-05)
(0.0543488 -0.000172746 0.000210262)
(0.044763 -2.6285e-05 5.63062e-05)
(0.0533648 -0.000165929 0.00017998)
(0.0440985 3.31787e-05 2.10578e-05)
(0.0525432 -0.000154341 0.000147846)
(0.0440048 0.000160108 -6.80084e-05)
(0.0520728 -7.28855e-05 5.30321e-05)
(0.0451727 0.00136362 -0.00118935)
(0.0524691 0.000102843 -0.000148964)
(0.0510381 0.00197974 -0.00218358)
(0.0984572 0.0017299 0.00247641)
(0.100049 0.000750975 0.00105637)
(0.0996871 0.000345483 0.000439213)
(0.0958349 0.0024327 0.00314796)
(0.0982937 0.00216149 0.00280914)
(0.0978162 0.0022823 0.00273269)
(0.0914502 0.00186934 0.00223015)
(0.0963041 0.00199784 0.0024425)
(0.095496 0.00230317 0.00300153)
(0.0875956 0.00150554 0.00167428)
(0.0936672 0.00172704 0.00198045)
(0.0926193 0.00183884 0.00229903)
(0.0841484 0.0012759 0.00143946)
(0.0909052 0.00149802 0.00171926)
(0.0897677 0.00153581 0.0018913)
(0.081189 0.00102927 0.00126443)
(0.0884354 0.00121233 0.00145388)
(0.0872328 0.00129506 0.00165538)
(0.0787031 0.000794907 0.0011085)
(0.0863065 0.000909709 0.00118243)
(0.0850077 0.00107791 0.00149015)
(0.0765597 0.000626852 0.000989236)
(0.0844834 0.000692487 0.000981097)
(0.0830625 0.000914662 0.00136838)
(0.074656 0.000521069 0.000900303)
(0.0828848 0.000551629 0.000841933)
(0.0813273 0.000803983 0.00127321)
(0.0729313 0.000457838 0.00082292)
(0.0814556 0.000460541 0.000739118)
(0.0797508 0.000730451 0.00118521)
(0.07135 0.000421342 0.000745727)
(0.0801641 0.000400446 0.000653144)
(0.0783049 0.000686289 0.0010974)
(0.0698915 0.000400554 0.000667291)
(0.0789854 0.00035944 0.00057582)
(0.0769681 0.000662088 0.00100838)
(0.0685414 0.000391402 0.000591401)
(0.0779017 0.000333224 0.000507132)
(0.0757232 0.000650943 0.000916517)
(0.0672883 0.000391561 0.000512801)
(0.0769074 0.000320498 0.000446814)
(0.074558 0.000650669 0.000820049)
(0.0661375 0.00039782 0.000418332)
(0.0760073 0.00031327 0.000379746)
(0.0734707 0.000659208 0.00070861)
(0.0651079 0.000396748 0.000285595)
(0.0752093 0.000309914 0.000297319)
(0.0724672 0.000673562 0.000569816)
(0.0642748 0.000321498 3.66355e-05)
(0.0745437 0.000294581 0.000175604)
(0.0715796 0.000676816 0.000368791)
(0.0639275 8.29114e-05 -0.000476585)
(0.0741018 0.00016806 -8.93389e-05)
(0.0709073 0.000591695 -3.87852e-05)
(0.0647622 -0.00116946 -0.00207804)
(0.0740491 -0.000287602 -0.000719189)
(0.0707036 0.000365972 -0.00085277)
(0.0735603 -0.00257824 -0.00291578)
(0.0697362 -0.00114306 -0.00338814)
(0.10008 0.00135175 0.00135173)
(0.100186 0.00079875 0.000804941)
(0.100186 0.00080495 0.00079874)
(0.100264 0.00221724 0.00221719)
(0.10019 0.0023118 0.00207143)
(0.10019 0.00207145 0.00231176)
(0.0993831 0.00243565 0.00243557)
(0.100307 0.00263359 0.00245299)
(0.100307 0.00245305 0.00263354)
(0.0979845 0.00231011 0.00230998)
(0.0998053 0.00256021 0.00245582)
(0.0998053 0.00245592 0.00256012)
(0.0964957 0.00200614 0.00200592)
(0.0988633 0.0023642 0.00228082)
(0.0988632 0.00228097 0.00236406)
(0.0950739 0.00159709 0.00159672)
(0.0978416 0.00204884 0.00196807)
(0.0978415 0.00196831 0.00204858)
(0.0937776 0.00122638 0.0012258)
(0.0968628 0.0016909 0.00160469)
(0.0968626 0.00160507 0.0016905)
(0.0926217 0.000962055 0.000961107)
(0.0959619 0.00140389 0.00132151)
(0.0959615 0.00132212 0.00140324)
(0.0916008 0.000777794 0.000776247)
(0.095152 0.00119034 0.00111867)
(0.0951514 0.00111967 0.00118929)
(0.0906998 0.000645519 0.000642976)
(0.0944326 0.00102975 0.000972135)
(0.0944316 0.000973771 0.00102804)
(0.0898994 0.00054689 0.000542787)
(0.0937994 0.000905425 0.000864671)
(0.0937978 0.000867379 0.000902691)
(0.0891807 0.000472565 0.000466132)
(0.0932396 0.00080638 0.000785699)
(0.0932372 0.000790104 0.000802076)
(0.0885351 0.000416446 0.000405852)
(0.0927418 0.000724046 0.000727168)
(0.092738 0.000734274 0.000717261)
(0.0879688 0.000367377 0.000349666)
(0.092308 0.000649523 0.000679985)
(0.0923022 0.000692194 0.000638481)
(0.0874911 0.00031525 0.000285936)
(0.0919449 0.000570308 0.000634303)
(0.0919362 0.000654992 0.000552806)
(0.0871206 0.000250592 0.00020327)
(0.0916592 0.000476897 0.000582129)
(0.091647 0.000617532 0.000449713)
(0.08688 0.000129706 5.62475e-05)
(0.0914629 0.000345641 0.000506128)
(0.0914483 0.000565168 0.000305913)
(0.0867006 -0.000180799 -0.00028868)
(0.0913436 0.00012149 0.000357628)
(0.0913334 0.000453462 6.93022e-05)
(0.0862496 -0.00105885 -0.00119032)
(0.0911705 -0.000270013 3.53902e-05)
(0.0911898 0.000182104 -0.000322515)
(0.0912815 -0.000931155 -0.000689155)
(0.0913235 -0.000524669 -0.000914043)
(0.100171 0.00136865 0.00141639)
(0.100118 0.000577385 0.000811298)
(0.100102 0.000699748 0.000700667)
(0.100759 0.00219481 0.002149)
(0.100478 0.00158278 0.00185873)
(0.100477 0.00182248 0.00186458)
(0.100996 0.00247678 0.00238784)
(0.101004 0.0020586 0.00224246)
(0.101024 0.00234666 0.0023828)
(0.100838 0.00247601 0.00238901)
(0.101292 0.00220324 0.00235202)
(0.101338 0.00250577 0.00254349)
(0.100458 0.00231121 0.00222472)
(0.101309 0.00216699 0.00232208)
(0.101409 0.00245033 0.00247208)
(0.0999683 0.00205594 0.00196812)
(0.101157 0.0020102 0.00217879)
(0.101302 0.0022643 0.00227022)
(0.0994446 0.00178928 0.00169985)
(0.100927 0.00179259 0.0019686)
(0.101099 0.00200845 0.00199831)
(0.0989356 0.00156095 0.00148352)
(0.100665 0.00158147 0.00176603)
(0.100856 0.00176898 0.00175732)
(0.0984681 0.00137388 0.00132151)
(0.100409 0.00139164 0.001591)
(0.100609 0.00156688 0.00156332)
(0.0980535 0.00121833 0.00120136)
(0.100174 0.00122286 0.00144688)
(0.100383 0.00139844 0.00140917)
(0.0976929 0.00108727 0.00111494)
(0.0999683 0.00107796 0.0013427)
(0.10019 0.00125789 0.00128803)
(0.097384 0.000973588 0.00105412)
(0.0997939 0.000953114 0.00127106)
(0.100034 0.00113955 0.00119371)
(0.0971261 0.000867807 0.00100937)
(0.0996497 0.000839729 0.0012235)
(0.0999155 0.00103707 0.00111918)
(0.0969205 0.000759555 0.00097439)
(0.0995354 0.000727712 0.00119307)
(0.0998375 0.000941572 0.001056)
(0.0967696 0.000636298 0.000943264)
(0.0994518 0.000603661 0.00117767)
(0.099802 0.000844641 0.000998693)
(0.0966773 0.000477092 0.000902963)
(0.0994005 0.000455361 0.00117303)
(0.099811 0.00073393 0.0009376)
(0.0966429 0.000251996 0.000836077)
(0.0993798 0.000259629 0.00117324)
(0.099864 0.000590222 0.000858621)
(0.0966266 -8.07488e-05 0.000719053)
(0.099377 -1.17999e-05 0.00117304)
(0.0999464 0.000388269 0.000744198)
(0.096545 -0.000571212 0.000525422)
(0.099349 -0.000396146 0.00116271)
(0.100014 9.41151e-05 0.000574452)
(0.0994736 -0.000907638 0.00114771)
(0.100226 -0.000290392 0.000399183)
(0.100242 0.00082011 0.00125611)
(0.10009 0.000294307 0.000735346)
(0.100071 0.000415645 0.000602759)
(0.100828 0.00139043 0.0019393)
(0.100491 0.000791898 0.00168399)
(0.100492 0.00112432 0.00158694)
(0.101392 0.00166324 0.00218219)
(0.101086 0.00107756 0.00208335)
(0.101128 0.00154066 0.002094)
(0.101816 0.00176074 0.00226113)
(0.101664 0.00120407 0.00217897)
(0.101767 0.00173243 0.00229407)
(0.10208 0.00175465 0.00226207)
(0.102121 0.00123929 0.00222206)
(0.102291 0.00178943 0.00236709)
(0.102215 0.00166695 0.00217692)
(0.102451 0.00120119 0.00221037)
(0.102711 0.00174309 0.00232174)
(0.102265 0.00153156 0.00204195)
(0.102679 0.00111722 0.0021268)
(0.103037 0.00162493 0.0022019)
(0.102276 0.00137834 0.0018862)
(0.10284 0.00101541 0.00200632)
(0.103286 0.00147733 0.00204942)
(0.102272 0.00122372 0.00173219)
(0.102964 0.000913413 0.00187177)
(0.103492 0.00132402 0.0018903)
(0.102267 0.00108061 0.0016064)
(0.103065 0.000816575 0.00174704)
(0.103669 0.00117904 0.00174636)
(0.102264 0.000954421 0.00151917)
(0.103156 0.000726412 0.00164848)
(0.10383 0.00105031 0.0016341)
(0.102268 0.000839521 0.00146272)
(0.103244 0.000642284 0.0015756)
(0.103985 0.000936982 0.00154969)
(0.102279 0.000727245 0.00143143)
(0.103329 0.000560244 0.00153365)
(0.104139 0.000831807 0.00148907)
(0.102297 0.00060618 0.00142303)
(0.103405 0.000475472 0.00152244)
(0.104295 0.000728434 0.00144915)
(0.10232 0.000464497 0.00143756)
(0.103473 0.000377553 0.00153634)
(0.104455 0.000616994 0.00142803)
(0.102347 0.000287775 0.00147852)
(0.103532 0.000258943 0.00158423)
(0.104621 0.000489719 0.00142572)
(0.102367 5.4442e-05 0.00155315)
(0.10357 0.000104404 0.00167794)
(0.104789 0.000332378 0.00144562)
(0.102368 -0.000254418 0.00167218)
(0.103578 -9.93222e-05 0.00183239)
(0.104956 0.000130577 0.00149371)
(0.102318 -0.000614298 0.00186425)
(0.103548 -0.000365985 0.00205217)
(0.105119 -0.000123292 0.00157781)
(0.10374 -0.00065672 0.00234707)
(0.105413 -0.000387295 0.00173406)
(0.100243 0.000267383 0.0011624)
(0.100087 -1.10602e-08 0.000707015)
(0.100064 0.000135796 0.000537321)
(0.100782 0.000465682 0.00182621)
(0.100477 -3.08916e-08 0.00161778)
(0.100463 0.000370852 0.00142411)
(0.101401 0.000575429 0.00207617)
(0.101065 -5.32107e-08 0.00203465)
(0.101089 0.000525107 0.00193355)
(0.101987 0.000622749 0.00213414)
(0.101694 -8.76774e-08 0.00211771)
(0.101797 0.000605782 0.00212863)
(0.102506 0.000630861 0.00216563)
(0.102268 -1.43198e-07 0.0021506)
(0.102489 0.000639157 0.00221121)
(0.102934 0.000609904 0.00215814)
(0.102741 -2.25096e-07 0.00218072)
(0.103119 0.00063393 0.00224214)
(0.103276 0.000570581 0.00209125)
(0.103123 -3.47717e-07 0.00213565)
(0.103686 0.000600532 0.0021978)
(0.103552 0.000524214 0.00199332)
(0.103426 -5.44593e-07 0.00204697)
(0.104183 0.000554219 0.00210782)
(0.103784 0.000478572 0.00188874)
(0.103676 -8.60161e-07 0.00193987)