/*--------------------------------*- C++ -*----------------------------------*\
| =========                 |                                                 |
| \\      /  F ield         | OpenFOAM: The Open Source CFD Toolbox           |
|  \\    /   O peration     | Version:  2212                                  |
|   \\  /    A nd           | Website:  www.openfoam.com                      |
|    \\/     M anipulation  |                                                 |
\*---------------------------------------------------------------------------*/
FoamFile
{
    version     2.0;
    format      ascii;
    arch        "LSB;label=32;scalar=64";
    class       volScalarField;
    location    "2.15";
    object      nut;
}
// * * * * * * * * * * * * * * * * * * * * * * * * * * * * * * * * * * * * * //

dimensions      [0 2 -1 0 0 0 0];

internalField   nonuniform List<scalar> 
678
(
3.40519e-06
3.38758e-06
3.3719e-06
3.35688e-06
3.34445e-06
3.31999e-06
6.73678e-06
6.69878e-06
6.66264e-06
6.6282e-06
6.59612e-06
6.56044e-06
9.67263e-06
9.61156e-06
9.55228e-06
9.49286e-06
9.4336e-06
9.37438e-06
1.16826e-05
1.16111e-05
1.15314e-05
1.14596e-05
1.13833e-05
1.29701e-05
1.28833e-05
1.27943e-05
1.27112e-05
1.2631e-05
1.3269e-05
1.31743e-05
1.3086e-05
1.30045e-05
1.27228e-05
1.26378e-05
1.25541e-05
1.24749e-05
1.13172e-05
1.12428e-05
1.11708e-05
1.11015e-05
9.19116e-06
9.13931e-06
9.08892e-06
9.03682e-06
6.52858e-06
6.49252e-06
6.46003e-06
6.43179e-06
6.39986e-06
3.38752e-06
3.37166e-06
3.35562e-06
3.34266e-06
3.31725e-06
6.52692e-06
6.49243e-06
6.46187e-06
6.43555e-06
6.40579e-06
6.50082e-06
6.28842e-06
6.13561e-06
6.05642e-06
6.01629e-06
6.04389e-06
1.31038e-05
1.24981e-05
1.20522e-05
1.14942e-05
1.12978e-05
1.94496e-05
1.8547e-05
1.80031e-05
1.7198e-05
1.65688e-05
2.37308e-05
2.26429e-05
2.18372e-05
2.09031e-05
2.00327e-05
2.56766e-05
2.45169e-05
2.34101e-05
2.27119e-05
2.14672e-05
2.45723e-05
2.34422e-05
2.23725e-05
2.15284e-05
2.03258e-05
1.85038e-05
1.75634e-05
1.68533e-05
1.60773e-05
1.19079e-05
1.14591e-05
1.1164e-05
1.10248e-05
6.27054e-06
6.07435e-06
5.98123e-06
5.99332e-06
6.70169e-06
6.66378e-06
6.62817e-06
6.59508e-06
6.55775e-06
9.19746e-06
9.14412e-06
9.09538e-06
9.04518e-06
1.2357e-05
1.18039e-05
1.14949e-05
1.12667e-05
1.11201e-05
2.43683e-05
2.29992e-05
2.22076e-05
2.10679e-05
2.02145e-05
3.4892e-05
3.31202e-05
3.15062e-05
2.99665e-05
2.81107e-05
4.14845e-05
3.94241e-05
3.75521e-05
3.56867e-05
3.31652e-05
4.42479e-05
4.20353e-05
4.00176e-05
3.80225e-05
3.53712e-05
4.2502e-05
4.0316e-05
3.82114e-05
3.65168e-05
3.43583e-05
3.56777e-05
3.36969e-05
3.18667e-05
3.03188e-05
2.82711e-05
2.42617e-05
2.29856e-05
2.17177e-05
2.12053e-05
1.99447e-05
1.25886e-05
1.19836e-05
1.15339e-05
1.11918e-05
9.61292e-06
9.55256e-06
9.49427e-06
9.4346e-06
9.375e-06
1.13238e-05
1.12492e-05
1.11782e-05
1.11095e-05
1.84872e-05
1.75758e-05
1.69954e-05
1.61834e-05
3.56526e-05
3.37232e-05
3.20012e-05
3.03655e-05
2.83899e-05
4.93939e-05
4.61058e-05
4.41738e-05
4.20483e-05
4.03542e-05
5.75279e-05
5.37917e-05
5.15144e-05
4.91223e-05
4.7229e-05
6.00343e-05
5.63584e-05
5.42033e-05
5.18208e-05
4.98978e-05
6.13555e-05
5.75387e-05
5.49836e-05
5.29012e-05
5.03549e-05
4.83266e-05
4.92963e-05
4.61845e-05
4.41664e-05
4.21397e-05
4.04166e-05
3.46106e-05
3.28036e-05
3.09045e-05
3.01441e-05
2.81762e-05
1.93706e-05
1.85469e-05
1.77289e-05
1.74168e-05
1.65459e-05
1.16883e-05
1.16129e-05
1.15349e-05
1.14608e-05
1.13866e-05
1.28202e-05
1.27317e-05
1.26453e-05
1.25617e-05
1.24826e-05
2.46119e-05
2.3479e-05
2.24541e-05
2.16131e-05
2.04479e-05
4.52832e-05
4.28437e-05
4.06736e-05
3.86736e-05
3.6687e-05
3.44894e-05
6.1326e-05
5.74478e-05
5.49915e-05
5.30354e-05
5.05646e-05
4.85958e-05
7.07834e-05
6.63703e-05
6.36e-05
6.13522e-05
5.85903e-05
5.63791e-05
7.42022e-05
6.95962e-05
6.65153e-05
6.41748e-05
6.13231e-05
5.90429e-05
7.10898e-05
6.66147e-05
6.3772e-05
6.15e-05
5.87032e-05
5.64637e-05
6.09998e-05
5.71045e-05
5.45846e-05
5.25732e-05
5.0081e-05
4.80216e-05
4.40021e-05
4.16268e-05
3.95475e-05
3.75335e-05
3.59255e-05
3.35953e-05
2.48877e-05
2.36912e-05
2.2796e-05
2.17448e-05
2.13401e-05
2.02052e-05
1.29802e-05
1.2888e-05
1.27998e-05
1.27157e-05
1.26371e-05
1.3321e-05
1.32646e-05
1.31791e-05
1.30937e-05
1.30116e-05
2.5898e-05
2.46625e-05
2.36577e-05
2.27293e-05
2.16849e-05
4.92153e-05
4.65021e-05
4.46169e-05
4.24342e-05
4.04272e-05
3.84693e-05
3.59879e-05
6.70121e-05
6.29206e-05
6.0391e-05
5.79656e-05
5.59109e-05
5.33305e-05
5.1245e-05
7.75946e-05
7.30372e-05
7.01139e-05
6.7343e-05
6.49823e-05
6.21147e-05
5.97807e-05
7.73239e-05
7.2652e-05
6.96225e-05
6.73048e-05
6.44443e-05
6.21488e-05
7.43571e-05
6.97559e-05
6.67033e-05
6.43988e-05
6.15706e-05
5.93051e-05
6.42529e-05
6.02103e-05
5.75465e-05
5.55124e-05
5.29693e-05
5.08677e-05
4.71691e-05
4.46194e-05
4.23941e-05
4.03615e-05
3.84054e-05
3.58651e-05
2.7091e-05
2.57615e-05
2.46884e-05
2.3533e-05
2.30993e-05
2.18632e-05
1.35438e-05
1.33397e-05
1.32698e-05
1.31794e-05
1.30926e-05
1.30121e-05
1.30813e-05
1.29778e-05
1.28906e-05
1.28019e-05
1.27181e-05
1.26395e-05
2.47738e-05
2.36826e-05
2.28465e-05
2.18343e-05
2.13993e-05
2.02672e-05
4.40219e-05
4.17326e-05
3.96982e-05
3.77625e-05
3.61215e-05
3.38621e-05
6.08938e-05
5.71004e-05
5.46136e-05
5.2758e-05
5.03836e-05
4.84672e-05
7.12367e-05
6.68663e-05
6.40837e-05
6.19293e-05
5.92512e-05
5.70958e-05
7.44717e-05
6.98618e-05
6.68882e-05
6.45962e-05
6.17966e-05
5.95624e-05
7.12465e-05
6.68116e-05
6.3896e-05
6.16901e-05
5.89652e-05
5.67929e-05
6.16252e-05
5.76816e-05
5.51844e-05
5.32128e-05
5.07565e-05
4.87864e-05
4.54922e-05
4.30192e-05
4.08343e-05
3.87802e-05
3.68511e-05
3.47532e-05
2.59112e-05
2.4673e-05
2.35539e-05
2.24437e-05
2.20194e-05
2.08557e-05
1.29401e-05
1.28168e-05
1.27306e-05
1.26451e-05
1.25622e-05
1.24849e-05
1.17746e-05
1.16958e-05
1.16155e-05
1.15402e-05
1.14654e-05
1.13922e-05
2.04332e-05
1.94723e-05
1.88369e-05
1.8039e-05
1.76792e-05
1.68163e-05
3.68706e-05
3.5047e-05
3.33877e-05
3.15472e-05
3.08219e-05
2.89014e-05
5.28436e-05
4.94318e-05
4.71872e-05
4.5433e-05
4.3337e-05
4.15769e-05
6.22695e-05
5.83001e-05
5.58173e-05
5.38439e-05
5.13942e-05
4.93907e-05
6.46063e-05
6.05425e-05
5.80025e-05
5.5978e-05
5.34725e-05
5.13908e-05
6.12567e-05
5.7405e-05
5.49153e-05
5.29978e-05
5.06055e-05
4.86173e-05
5.24157e-05
4.9023e-05
4.69195e-05
4.51555e-05
4.3143e-05
4.13535e-05
3.79809e-05
3.57924e-05
3.39132e-05
3.19868e-05
3.12467e-05
2.92544e-05
2.04683e-05
1.94364e-05
1.84912e-05
1.76705e-05
1.74188e-05
1.67144e-05
1.14809e-05
1.14026e-05
1.13252e-05
1.12499e-05
1.11795e-05
1.11137e-05
9.6779e-06
9.61783e-06
9.55821e-06
9.49944e-06
9.4407e-06
9.38288e-06
1.36557e-05
1.30823e-05
1.25942e-05
1.21688e-05
1.17814e-05
1.1479e-05
2.57172e-05
2.43196e-05
2.34793e-05
2.23469e-05
2.1895e-05
2.0717e-05
3.80889e-05
3.61494e-05
3.43185e-05
3.24051e-05
3.15126e-05
2.96289e-05
4.60305e-05
4.35813e-05
4.14178e-05
3.94509e-05
3.74994e-05
3.52661e-05
4.74608e-05
4.49845e-05
4.28029e-05
4.08358e-05
3.89047e-05
3.6366e-05
4.42766e-05
4.19719e-05
3.99398e-05
3.79912e-05
3.64003e-05
3.40899e-05
3.70605e-05
3.50437e-05
3.33669e-05
3.15309e-05
3.08218e-05
2.88918e-05
2.57567e-05
2.42895e-05
2.33702e-05
2.2217e-05
2.17602e-05
2.05912e-05
1.29257e-05
1.23067e-05
1.18536e-05
1.16093e-05
1.14367e-05
1.1299e-05
9.31453e-06
9.25663e-06
9.19929e-06
9.14634e-06
9.09807e-06
9.04806e-06
6.74008e-06
6.70261e-06
6.66723e-06
6.63285e-06
6.60076e-06
6.56585e-06
6.5093e-06
6.29412e-06
6.14456e-06
6.06926e-06
6.0343e-06
6.05802e-06
1.30217e-05
1.23753e-05
1.1872e-05
1.16189e-05
1.14153e-05
1.12913e-05
2.07144e-05
1.96703e-05
1.87212e-05
1.78861e-05
1.75958e-05
1.6864e-05
2.61659e-05
2.49701e-05
2.38606e-05
2.2845e-05
2.23048e-05
2.11695e-05
2.7259e-05
2.60089e-05
2.48845e-05
2.40612e-05
2.32095e-05
2.21432e-05
2.50494e-05
2.39016e-05
2.30309e-05
2.2039e-05
2.16288e-05
2.05235e-05
2.04716e-05
1.95329e-05
1.88994e-05
1.81158e-05
1.77672e-05
1.69184e-05
1.36482e-05
1.30847e-05
1.25688e-05
1.22124e-05
1.17761e-05
1.14918e-05
6.49926e-06
6.28556e-06
6.13837e-06
6.06681e-06
6.03023e-06
6.05409e-06
6.56402e-06
6.52796e-06
6.49498e-06
6.46439e-06
6.43736e-06
6.40706e-06
3.40705e-06
3.39017e-06
3.3747e-06
3.35937e-06
3.34671e-06
3.32245e-06
6.56634e-06
6.53031e-06
6.49735e-06
6.46677e-06
6.43976e-06
6.40968e-06
9.43891e-06
9.37885e-06
9.32034e-06
9.26224e-06
9.20464e-06
9.15123e-06
9.10259e-06
9.05265e-06
1.15668e-05
1.14885e-05
1.14111e-05
1.13348e-05
1.12601e-05
1.11899e-05
1.11242e-05
1.29662e-05
1.29254e-05
1.28246e-05
1.27409e-05
1.26572e-05
1.25755e-05
1.2499e-05
1.339e-05
1.33845e-05
1.32738e-05
1.31895e-05
1.31058e-05
1.30258e-05
1.3072e-05
1.29913e-05
1.28967e-05
1.28108e-05
1.27279e-05
1.26503e-05
1.17786e-05
1.16997e-05
1.16208e-05
1.15458e-05
1.14722e-05
1.13993e-05
9.67952e-06
9.61968e-06
9.56079e-06
9.50198e-06
9.44394e-06
9.38619e-06
6.74e-06
6.70255e-06
6.6673e-06
6.63303e-06
6.60087e-06
6.56553e-06
3.40645e-06
3.38953e-06
3.37401e-06
3.35863e-06
3.34589e-06
3.32165e-06
)
;

boundaryField
{
    inlet
    {
        type            calculated;
        value           nonuniform List<scalar> 0();
    }
    ami1
    {
        type            cyclicAMI;
        value           nonuniform List<scalar> 0();
    }
    walls
    {
        type            nutkWallFunction;
        blending        stepwise;
        value           uniform 0;
    }
    ami2
    {
        type            cyclicAMI;
        value           nonuniform List<scalar> 0();
    }
    outlet
    {
        type            calculated;
        value           nonuniform List<scalar> 
121
(
3.31999e-06
6.56044e-06
9.37438e-06
1.13833e-05
1.2631e-05
1.30045e-05
1.24749e-05
1.11015e-05
9.03682e-06
6.39986e-06
3.31725e-06
6.40579e-06
6.04389e-06
1.12978e-05
1.65688e-05
2.00327e-05
2.14672e-05
2.03258e-05
1.60773e-05
1.10248e-05
5.99332e-06
6.55775e-06
9.04518e-06
1.11201e-05
2.02145e-05
2.81107e-05
3.31652e-05
3.53712e-05
3.43583e-05
2.82711e-05
1.99447e-05
1.11918e-05
9.375e-06
1.11095e-05
1.61834e-05
2.83899e-05
4.03542e-05
4.7229e-05
4.98978e-05
4.83266e-05
4.04166e-05
2.81762e-05
1.65459e-05
1.13866e-05
1.24826e-05
2.04479e-05
3.44894e-05
4.85958e-05
5.63791e-05
5.90429e-05
5.64637e-05
4.80216e-05
3.35953e-05
2.02052e-05
1.26371e-05
1.30116e-05
2.16849e-05
3.59879e-05
5.1245e-05
5.97807e-05
6.21488e-05
5.93051e-05
5.08677e-05
3.58651e-05
2.18632e-05
1.30121e-05
1.26395e-05
2.02672e-05
3.38621e-05
4.84672e-05
5.70958e-05
5.95624e-05
5.67929e-05
4.87864e-05
3.47532e-05
2.08557e-05
1.24849e-05
1.13922e-05
1.68163e-05
2.89014e-05
4.15769e-05
4.93907e-05
5.13908e-05
4.86173e-05
4.13535e-05
2.92544e-05
1.67144e-05
1.11137e-05
9.38288e-06
1.1479e-05
2.0717e-05
2.96289e-05
3.52661e-05
3.6366e-05
3.40899e-05
2.88918e-05
2.05912e-05
1.1299e-05
9.04806e-06
6.56585e-06
6.05802e-06
1.12913e-05
1.6864e-05
2.11695e-05
2.21432e-05
2.05235e-05
1.69184e-05
1.14918e-05
6.05409e-06
6.40706e-06
3.32245e-06
6.40968e-06
9.05265e-06
1.11242e-05
1.2499e-05
1.30258e-05
1.26503e-05
1.13993e-05
9.38619e-06
6.56553e-06
3.32165e-06
)
;
    }
    procBoundary6to5
    {
        type            processor;
        value           nonuniform List<scalar> 
177
(
3.42244e-06
6.56562e-06
6.77593e-06
9.73802e-06
1.17764e-05
1.35542e-05
1.17764e-05
1.30827e-05
1.3334e-05
1.3334e-05
1.3334e-05
1.28077e-05
1.28077e-05
1.13972e-05
9.25209e-06
9.25209e-06
6.55796e-06
6.16818e-06
3.40401e-06
6.56562e-06
6.56562e-06
9.25544e-06
6.45005e-06
1.35542e-05
1.27542e-05
1.35542e-05
2.0457e-05
2.5107e-05
2.72322e-05
2.60631e-05
1.96099e-05
1.96099e-05
1.96099e-05
1.21467e-05
1.21467e-05
6.16818e-06
6.16818e-06
6.73562e-06
9.25544e-06
9.25544e-06
1.27542e-05
1.96705e-05
2.59961e-05
3.75578e-05
4.47056e-05
4.78874e-05
4.59252e-05
4.59252e-05
3.86082e-05
2.59227e-05
1.3038e-05
1.3038e-05
1.3038e-05
1.3038e-05
9.67646e-06
1.14018e-05
1.14018e-05
1.96705e-05
1.96705e-05
1.96705e-05
3.86136e-05
3.86136e-05
5.41647e-05
5.41647e-05
6.31383e-05
6.31383e-05
6.59978e-05
6.59978e-05
6.59978e-05
6.70291e-05
5.3886e-05
5.3886e-05
5.3886e-05
3.73954e-05
3.73954e-05
2.04142e-05
2.04142e-05
1.1778e-05
1.28975e-05
2.60674e-05
2.60674e-05
4.88039e-05
4.88039e-05
6.69321e-05
6.69321e-05
7.73415e-05
7.73415e-05
8.11176e-05
7.76197e-05
6.65701e-05
4.73574e-05
2.62386e-05
1.30727e-05
1.30727e-05
1.30727e-05
1.35031e-05
1.35031e-05
2.82547e-05
2.74736e-05
2.74736e-05
2.74736e-05
5.29291e-05
4.72311e-05
7.3065e-05
6.64747e-05
8.46056e-05
8.43817e-05
7.76993e-05
8.43817e-05
8.12032e-05
7.01311e-05
5.07142e-05
2.85387e-05
1.35112e-05
1.31758e-05
2.61634e-05
4.72311e-05
6.64747e-05
7.76993e-05
8.13132e-05
7.78136e-05
6.72998e-05
4.90838e-05
2.73365e-05
1.29687e-05
1.18644e-05
2.1434e-05
3.9601e-05
5.75917e-05
6.7915e-05
7.04953e-05
6.68689e-05
5.72133e-05
4.12083e-05
2.15383e-05
1.15637e-05
9.74351e-06
1.40629e-05
2.73922e-05
4.10505e-05
4.94909e-05
5.10076e-05
4.76314e-05
3.99937e-05
2.75263e-05
1.32284e-05
9.37461e-06
6.77875e-06
6.46978e-06
1.38164e-05
1.3223e-05
1.3223e-05
2.16228e-05
2.16228e-05
2.74868e-05
2.74868e-05
2.87163e-05
2.63763e-05
2.14612e-05
1.40609e-05
6.45863e-06
6.59896e-06
3.42411e-06
6.63878e-06
6.60042e-06
6.60042e-06
9.50177e-06
1.16516e-05
1.16516e-05
1.3135e-05
1.36299e-05
1.36299e-05
1.31923e-05
1.18664e-05
9.74551e-06
6.77892e-06
3.42366e-06
)
;
    }
}


// ************************************************************************* //
