/*--------------------------------*- C++ -*----------------------------------*\
| =========                 |                                                 |
| \\      /  F ield         | OpenFOAM: The Open Source CFD Toolbox           |
|  \\    /   O peration     | Version:  2212                                  |
|   \\  /    A nd           | Website:  www.openfoam.com                      |
|    \\/     M anipulation  |                                                 |
\*---------------------------------------------------------------------------*/
FoamFile
{
    version     2.0;
    format      ascii;
    arch        "LSB;label=32;scalar=64";
    class       volScalarField;
    location    "0.9";
    object      k;
}
// * * * * * * * * * * * * * * * * * * * * * * * * * * * * * * * * * * * * * //

dimensions      [0 2 -2 0 0 0 0];

internalField   nonuniform List<scalar> 
693
(
0.00210944
0.00209795
0.00208646
0.00207551
0.00206565
0.00205748
0.00182134
0.00180934
0.00179809
0.00178796
0.00177882
0.00176983
0.00181557
0.00180071
0.00178653
0.00177371
0.00176255
0.00175299
0.00178741
0.00177089
0.00175483
0.00173989
0.00172712
0.00171325
0.00177573
0.00175444
0.00173572
0.00171858
0.00170405
0.00168852
0.00174799
0.00172813
0.00170937
0.00169114
0.00167585
0.00165942
0.00171661
0.00169716
0.00167888
0.00166188
0.00164634
0.00163016
0.00168802
0.00167035
0.00165245
0.00163642
0.00162342
0.00160926
0.00167279
0.00165739
0.00164233
0.00162875
0.00161746
0.00160548
0.00172541
0.00171227
0.00170028
0.00168961
0.00168003
0.00167029
0.00210964
0.00209774
0.00208633
0.00207542
0.00206558
0.00205742
0.00172624
0.00171301
0.00170102
0.00169032
0.00168071
0.0016709
0.00131117
0.00128205
0.0012577
0.00123786
0.00122184
0.00120679
0.00160066
0.0015602
0.00152352
0.0014918
0.00146602
0.00143842
0.00177303
0.00172726
0.00168536
0.00164789
0.00161697
0.00158302
0.00186474
0.00181687
0.00177361
0.00173356
0.00169695
0.00166154
0.00191034
0.00185896
0.00180963
0.00176606
0.0017283
0.00169584
0.00188763
0.00183689
0.00179017
0.00174616
0.00170975
0.00167258
0.00177032
0.00172186
0.00167665
0.00163699
0.00160361
0.00156934
0.00153023
0.00148836
0.00145125
0.00141999
0.00139494
0.00136839
0.00130914
0.00127979
0.00125601
0.00123657
0.00122092
0.00120619
0.0018216
0.00180941
0.00179825
0.00178827
0.00177926
0.00177029
0.00167406
0.00165877
0.00164393
0.00163053
0.00161928
0.00160737
0.00153345
0.00149194
0.00145529
0.00142449
0.00139941
0.00137251
0.0018826
0.00182591
0.0017738
0.00172767
0.00168843
0.00164733
0.00214878
0.00208113
0.00201864
0.00196188
0.00191323
0.00186283
0.00231174
0.00223687
0.00216809
0.00210621
0.002052
0.00199665
0.00237605
0.00229868
0.00222782
0.00216501
0.00210964
0.00205299
0.002332
0.00225794
0.00218995
0.00212822
0.00207368
0.00201831
0.00216521
0.00209773
0.002035
0.00197826
0.00192933
0.00187938
0.00188065
0.0018238
0.00177139
0.00172528
0.00168618
0.00164534
0.00160189
0.00156056
0.00152412
0.00149286
0.00146764
0.00144037
0.00181643
0.00180135
0.00178734
0.00177474
0.00176381
0.00175425
0.00168939
0.00167163
0.00165434
0.00163837
0.00162563
0.00161159
0.00177323
0.0017252
0.00168166
0.00164266
0.00161049
0.00157607
0.00216814
0.00210087
0.00203874
0.00198218
0.00193362
0.00188355
0.0024824
0.00240142
0.00232676
0.00225901
0.00220033
0.0021408
0.00268065
0.00259157
0.00250848
0.00243307
0.00236713
0.00230253
0.00275288
0.00266098
0.00257479
0.00249652
0.00242802
0.00236175
0.00268607
0.00259778
0.00251508
0.00243993
0.00237412
0.0023096
0.00248103
0.00240006
0.00232534
0.00225754
0.00219867
0.00213901
0.00214787
0.00208044
0.00201839
0.00196204
0.00191352
0.00186325
0.00177474
0.00172891
0.00168792
0.00165119
0.00162064
0.00158706
0.00178874
0.00177198
0.0017562
0.00174158
0.00172908
0.00171534
0.00171798
0.00169846
0.00168042
0.00166369
0.00164887
0.00163271
0.00189116
0.00184066
0.00179513
0.00175244
0.00171646
0.00168077
0.00233423
0.00226077
0.00219351
0.00213241
0.00207838
0.00202372
0.00268631
0.00259838
0.00251633
0.00244185
0.00237639
0.0023126
0.00290839
0.00281119
0.00272034
0.00263736
0.00256371
0.00249436
0.00298922
0.00288772
0.00279292
0.00270628
0.0026294
0.00255752
0.00290997
0.00281211
0.00272035
0.00263679
0.00256284
0.00249281
0.00267755
0.00258945
0.00250707
0.0024322
0.00236653
0.00230193
0.00231001
0.00223636
0.00216882
0.00210772
0.00205369
0.00199851
0.00186801
0.00181993
0.00177716
0.00173792
0.00170156
0.00166631
0.00177634
0.00175562
0.00173697
0.00172023
0.00170592
0.00169054
0.00174918
0.00172926
0.00171101
0.00169312
0.00167829
0.00166193
0.00191366
0.00186312
0.00181624
0.00177312
0.00173596
0.00170314
0.00237606
0.00230049
0.00223144
0.00216993
0.00211429
0.00206001
0.00274884
0.00265846
0.00257409
0.00249753
0.0024294
0.00236768
0.00298444
0.00288421
0.0027907
0.00270535
0.00262896
0.00256168
0.00306818
0.00296398
0.00286683
0.00277781
0.00269834
0.00262529
0.00298701
0.00288602
0.00279155
0.00270517
0.00262844
0.00255658
0.00274789
0.00265726
0.00257237
0.00249512
0.00242722
0.00236104
0.0023742
0.00229814
0.00222844
0.00216653
0.00211102
0.00205423
0.00191279
0.00186167
0.00181399
0.0017705
0.00173294
0.00169954
0.00174884
0.00172878
0.00171013
0.0016923
0.00167725
0.00166087
0.00177587
0.0017554
0.00173693
0.00172064
0.00170355
0.00186779
0.00181857
0.00177728
0.00173853
0.00169974
0.00231168
0.0022382
0.00217072
0.00211059
0.00204999
0.00267816
0.00259024
0.0025082
0.00243477
0.0023642
0.0029071
0.0028101
0.00271945
0.00263738
0.00256082
0.0029861
0.00288537
0.00279123
0.00270526
0.00262842
0.00256082
0.00290962
0.00281167
0.00271969
0.00263602
0.00256198
0.00249222
0.00268456
0.00259619
0.00251363
0.00243862
0.002373
0.00230776
0.00233145
0.00225738
0.00218964
0.00212809
0.00207344
0.00201799
0.00188907
0.00183789
0.00179162
0.00174829
0.00171183
0.00167522
0.00171703
0.00169725
0.00167898
0.0016622
0.00164706
0.00163109
0.00177154
0.00175612
0.00174188
0.00172655
0.00173259
0.00168835
0.00165174
0.00161375
0.00214994
0.00208276
0.00202025
0.00196503
0.00190876
0.0024819
0.00240109
0.00232645
0.00226059
0.00219495
0.00268575
0.00259758
0.00251528
0.00244172
0.00237089
0.00275004
0.00265862
0.00257326
0.00249594
0.00242717
0.00236539
0.0026798
0.00259049
0.00250702
0.00243149
0.00236555
0.0023006
0.00247978
0.0023983
0.00232328
0.00225536
0.00219628
0.00213626
0.00216385
0.00209593
0.00203327
0.00197662
0.00192772
0.00187757
0.00177061
0.00172154
0.00167713
0.00163771
0.00160481
0.00157043
0.00168809
0.00166994
0.00165231
0.0016366
0.00162389
0.00160998
0.00180252
0.00178829
0.00177523
0.00176355
0.0015663
0.00152535
0.00149354
0.00146136
0.00188297
0.00182641
0.00177362
0.00172901
0.0016826
0.00216714
0.00209963
0.00203723
0.00198229
0.00192649
0.00233349
0.00225925
0.00219156
0.0021312
0.00207037
0.002376
0.00229872
0.00222828
0.00216647
0.00211067
0.00205736
0.00231145
0.00223558
0.00216704
0.00210589
0.00205183
0.00199696
0.0021454
0.00207709
0.00201468
0.00195836
0.00191006
0.00186011
0.0018786
0.0018209
0.00176833
0.00172238
0.00168365
0.0016432
0.00153056
0.00148766
0.00145085
0.00142012
0.00139573
0.00136952
0.00167297
0.00165702
0.00164226
0.001629
0.00161797
0.0016062
0.00181053
0.00179918
0.00178855
0.00177787
0.001287
0.00125859
0.00123756
0.00121944
0.0015351
0.00149332
0.0014553
0.00142604
0.00139454
0.00177382
0.00172528
0.00168132
0.00164455
0.00160499
0.00189104
0.00183955
0.00179386
0.00175076
0.00171181
0.00191234
0.00185999
0.00181217
0.00176957
0.00173272
0.00170133
0.00186523
0.00181746
0.0017742
0.00173484
0.00169878
0.00166426
0.00177091
0.0017243
0.0016832
0.00164684
0.00161708
0.00158397
0.00160002
0.0015573
0.0015208
0.00148996
0.00146544
0.0014388
0.00130847
0.0012787
0.00125529
0.00123627
0.00122104
0.00120629
0.00172549
0.00171198
0.00170014
0.0016896
0.00168009
0.00167024
0.00209895
0.00208668
0.0020751
0.00206515
0.00171411
0.00170132
0.00168998
0.00167848
0.00167422
0.00165853
0.00164362
0.00163082
0.00161723
0.00168914
0.00167083
0.00165388
0.00163881
0.00162351
0.00171791
0.00169774
0.00167968
0.0016632
0.00164656
0.00174883
0.00172833
0.00170968
0.00169214
0.00167725
0.00166314
0.00177626
0.00175491
0.00173575
0.0017191
0.00170516
0.00169042
0.00178703
0.00177004
0.00175433
0.00173997
0.00172787
0.00171467
0.0018147
0.00179947
0.00178566
0.0017733
0.00176262
0.00175315
0.00182089
0.0018085
0.00179746
0.00178755
0.00177861
0.00176968
0.00210926
0.00209736
0.00208611
0.00207519
0.00206528
0.002057
)
;

boundaryField
{
    inlet
    {
        type            fixedValue;
        value           nonuniform List<scalar> 0();
    }
    ami1
    {
        type            cyclicAMI;
        value           nonuniform List<scalar> 0();
    }
    walls
    {
        type            kqRWallFunction;
        value           nonuniform List<scalar> 
248
(
0.00210944
0.00182134
0.00181557
0.00178741
0.00177573
0.00174799
0.00171661
0.00168802
0.00167279
0.00172541
0.00210964
0.00209795
0.00180934
0.00180071
0.00177089
0.00175444
0.00172813
0.00169716
0.00167035
0.00165739
0.00171227
0.00209774
0.00208646
0.00179809
0.00178653
0.00175483
0.00173572
0.00170937
0.00167888
0.00165245
0.00164233
0.00170028
0.00208633
0.00207551
0.00178796
0.00177371
0.00173989
0.00171858
0.00169114
0.00166188
0.00163642
0.00162875
0.00168961
0.00207542
0.00206565
0.00177882
0.00176255
0.00172712
0.00170405
0.00167585
0.00164634
0.00162342
0.00161746
0.00168003
0.00206558
0.00205748
0.00176983
0.00175299
0.00171325
0.00168852
0.00165942
0.00163016
0.00160926
0.00160548
0.00167029
0.00205742
0.00210964
0.0018216
0.00181643
0.00178874
0.00177634
0.00174884
0.00171703
0.00168809
0.00167297
0.00172549
0.00210926
0.00209774
0.00180941
0.00180135
0.00177198
0.00175562
0.00172878
0.00169725
0.00166994
0.00165702
0.00171198
0.00209736
0.00208633
0.00179825
0.00178734
0.0017562
0.00173697
0.00171013
0.00167898
0.00165231
0.00164226
0.00170014
0.00208611
0.00207542
0.00178827
0.00177474
0.00174158
0.00172023
0.0016923
0.0016622
0.0016366
0.001629
0.0016896
0.00207519
0.00206558
0.00177926
0.00176381
0.00172908
0.00170592
0.00167725
0.00164706
0.00162389
0.00161797
0.00168009
0.00206528
0.00205742
0.00177029
0.00175425
0.00171534
0.00169054
0.00166087
0.00163109
0.00160998
0.0016062
0.00167024
0.002057
0.00167422
0.00168914
0.00171791
0.00174883
0.00177626
0.00178703
0.0018147
0.00182089
0.00210926
0.00209895
0.00171411
0.00165853
0.00167083
0.00169774
0.00172833
0.00175491
0.00177004
0.00179947
0.0018085
0.00209736
0.00208668
0.00170132
0.00164362
0.00165388
0.00167968
0.00170968
0.00173575
0.00175433
0.00178566
0.00179746
0.00208611
0.0020751
0.00168998
0.00163082
0.00163881
0.0016632
0.00169214
0.0017191
0.00173997
0.0017733
0.00178755
0.00207519
0.00206515
0.00167848
0.00161723
0.00162351
0.00164656
0.00167725
0.00170516
0.00172787
0.00176262
0.00177861
0.00206528
0.00166314
0.00169042
0.00171467
0.00175315
0.00176968
0.002057
0.00210944
0.00172624
0.00167406
0.00168939
0.00171798
0.00174918
0.00177587
0.00209795
0.00171301
0.00165877
0.00167163
0.00169846
0.00172926
0.0017554
0.00177154
0.00180252
0.00181053
0.00209895
0.00208646
0.00170102
0.00164393
0.00165434
0.00168042
0.00171101
0.00173693
0.00175612
0.00178829
0.00179918
0.00208668
0.00207551
0.00169032
0.00163053
0.00163837
0.00166369
0.00169312
0.00172064
0.00174188
0.00177523
0.00178855
0.0020751
0.00206565
0.00168071
0.00161928
0.00162563
0.00164887
0.00167829
0.00170355
0.00172655
0.00176355
0.00177787
0.00206515
0.00205748
0.0016709
0.00160737
0.00161159
0.00163271
0.00166193
)
;
    }
    ami2
    {
        type            cyclicAMI;
        value           nonuniform List<scalar> 0();
    }
    outlet
    {
        type            zeroGradient;
    }
    procBoundary7to5
    {
        type            processor;
        value           nonuniform List<scalar> 
131
(
0.00205098
0.0017633
0.00174473
0.00170207
0.00167556
0.00164658
0.00161798
0.00159828
0.00159589
0.00166249
0.00205116
0.00166343
0.00118815
0.00140819
0.0015495
0.00162939
0.00166552
0.00163734
0.00153268
0.00133815
0.00118745
0.00176381
0.00159773
0.00134189
0.00160614
0.001818
0.00195055
0.00200616
0.00197176
0.00183493
0.00160487
0.00141007
0.00174569
0.00160086
0.0015383
0.00183787
0.00209121
0.00225062
0.00230871
0.0022578
0.00209006
0.00181881
0.00155295
0.00170371
0.00162071
0.0016438
0.00197617
0.00226069
0.00243893
0.00250025
0.00243712
0.00225033
0.00195225
0.00163314
0.00167731
0.00164877
0.00168807
0.00167063
0.00166422
0.00201248
0.00199841
0.00231478
0.00230626
0.00250437
0.002499
0.00256683
0.00249944
0.00230818
0.00200691
0.00166742
0.0016477
0.00168807
0.00166422
0.00199841
0.00230626
0.002499
0.002499
0.00250311
0.00243652
0.00225555
0.0019708
0.00163852
0.00161839
0.0017129
0.00157631
0.0018582
0.00213887
0.00231271
0.00231271
0.00231214
0.00224853
0.0020867
0.0018324
0.00153314
0.00159831
0.00175313
0.00142644
0.00163579
0.00187515
0.00201789
0.00201789
0.00200933
0.00194972
0.00181453
0.00160151
0.00133804
0.00159565
0.00176981
0.00119774
0.00135965
0.00156326
0.00167217
0.00167217
0.0016689
0.00163072
0.0015495
0.00140723
0.00118552
0.00166202
0.00205738
0.00166944
0.00160483
0.00160952
0.0016315
0.0016315
0.00164967
0.00167603
0.00170156
0.00174341
0.00176244
0.00205005
)
;
    }
    procBoundary7to8
    {
        type            processor;
        value           nonuniform List<scalar> 
68
(
0.00212262
0.00183425
0.00183159
0.00180792
0.00179495
0.00174078
0.00134182
0.00164934
0.00182651
0.00192232
0.00169225
0.00158371
0.00194761
0.00222236
0.00238957
0.00170791
0.00183104
0.00224176
0.00256712
0.00277174
0.00173855
0.00195091
0.00241307
0.00277787
0.00300907
0.00309191
0.0017702
0.00197263
0.00245677
0.00284293
0.00308842
0.00317495
0.00179537
0.00179014
0.00192777
0.00178284
0.00239133
0.00276961
0.00300764
0.00308933
0.00179014
0.00178284
0.00178284
0.00222365
0.00256636
0.00277703
0.00284337
0.0018171
0.00161137
0.00161137
0.00194851
0.00224144
0.00241246
0.00245586
0.00182198
0.00131729
0.00131729
0.00158583
0.00183291
0.00195261
0.00197206
0.00211078
0.00172748
0.00172748
0.00169331
0.00170889
0.00173932
0.00177051
)
;
    }
    procBoundary7to9
    {
        type            processor;
        value           nonuniform List<scalar> 
59
(
0.00176918
0.00173732
0.00170669
0.00169105
0.00174029
0.00212258
0.00196712
0.0019466
0.00182756
0.00158063
0.0013408
0.00183447
0.00245491
0.00241061
0.00223895
0.00194594
0.00165128
0.00183256
0.00284552
0.00277711
0.00256538
0.00222195
0.00182978
0.00180935
0.00300975
0.00276865
0.00238936
0.00192758
0.00179588
0.00308969
0.0028414
0.00245441
0.00197169
0.00177021
0.00300889
0.00277535
0.00240982
0.00194869
0.00173799
0.00276964
0.00256375
0.00223758
0.0018286
0.00170713
0.00238819
0.00221916
0.00194413
0.00158138
0.00169171
0.00192295
0.00182599
0.00164994
0.00134161
0.00174067
0.00179521
0.00180805
0.00183174
0.00183441
0.00212274
)
;
    }
}


// ************************************************************************* //
