/*--------------------------------*- C++ -*----------------------------------*\
| =========                 |                                                 |
| \\      /  F ield         | OpenFOAM: The Open Source CFD Toolbox           |
|  \\    /   O peration     | Version:  2212                                  |
|   \\  /    A nd           | Website:  www.openfoam.com                      |
|    \\/     M anipulation  |                                                 |
\*---------------------------------------------------------------------------*/
FoamFile
{
    version     2.0;
    format      ascii;
    arch        "LSB;label=32;scalar=64";
    class       volVectorField;
    location    "2.75";
    object      U;
}
// * * * * * * * * * * * * * * * * * * * * * * * * * * * * * * * * * * * * * //

dimensions      [0 1 -1 0 0 0 0];

internalField   nonuniform List<vector> 
680
(
(0.0956456 -0.00836005 -0.00836006)
(0.0904939 0.00152208 0.00152198)
(0.0790683 0.00242983 0.00242964)
(0.0713012 0.00148793 0.00148754)
(0.0661795 0.000830813 0.000830079)
(0.0623227 0.000564179 0.000562985)
(0.059221 0.000427449 0.00042484)
(0.0999088 0.00129701 0.000712549)
(0.0969668 0.00365597 0.00274719)
(0.0935346 0.00264036 0.00211802)
(0.0895893 0.00182067 0.00162034)
(0.0858323 0.00152927 0.00139022)
(0.0825903 0.00135204 0.00116054)
(0.0798656 0.00118079 0.000896057)
(0.099413 0.000345245 0.000270227)
(0.0988664 0.00201911 0.00187484)
(0.0979217 0.00257324 0.00218882)
(0.0963663 0.00238007 0.00190807)
(0.0946343 0.00211445 0.00162621)
(0.0929739 0.00192734 0.00141797)
(0.091367 0.00180234 0.00127014)
(0.0995405 0.000245029 0.000321899)
(0.0992576 0.00105555 0.00154092)
(0.0988491 0.0015022 0.00211438)
(0.0981252 0.00157916 0.00209151)
(0.0973378 0.00151426 0.00188599)
(0.0965868 0.00144529 0.00166569)
(0.0958685 0.00140807 0.00149785)
(0.0993801 3.37527e-05 5.89384e-05)
(0.0992677 0.000274265 0.00120001)
(0.0989805 0.000432096 0.00188845)
(0.0984749 0.000482958 0.00200638)
(0.0979961 0.000477934 0.00191449)
(0.0975719 0.000463856 0.00173442)
(0.0971827 0.000449823 0.00154683)
(0.0993802 -3.37897e-05 5.89975e-05)
(0.0992677 -0.000274457 0.00120005)
(0.0989804 -0.00043251 0.00188847)
(0.0984746 -0.000483693 0.00200645)
(0.0979955 -0.000479218 0.00191468)
(0.0975707 -0.000466146 0.00173482)
(0.0971806 -0.00045392 0.00154743)
(0.0995405 -0.000245041 0.000321899)
(0.0992576 -0.00105561 0.00154093)
(0.0988488 -0.00150233 0.00211451)
(0.0981246 -0.0015794 0.00209173)
(0.0973364 -0.00151484 0.00188634)
(0.096584 -0.00144649 0.00166623)
(0.0958637 -0.00141021 0.00149851)
(0.099413 -0.000345222 0.000270235)
(0.0988664 -0.002019 0.00187492)
(0.0979214 -0.00257303 0.00218908)
(0.0963656 -0.0023797 0.00190851)
(0.0946329 -0.00211388 0.00162682)
(0.0929713 -0.00192642 0.00141885)
(0.0913624 -0.00180098 0.00127159)
(0.0999088 -0.00129699 0.000712568)
(0.0969668 -0.0036558 0.00274729)
(0.0935345 -0.00264009 0.00211823)
(0.0895891 -0.00182021 0.00162075)
(0.0858317 -0.00152833 0.00139081)
(0.0825893 -0.00135057 0.00116161)
(0.0798639 -0.00117812 0.000897845)
(0.0956456 0.00836005 -0.00836005)
(0.0904939 -0.00152198 0.00152208)
(0.0790683 -0.00242964 0.00242983)
(0.0713012 -0.00148754 0.00148793)
(0.0661795 -0.000830074 0.000830819)
(0.0623228 -0.000562978 0.000564184)
(0.0592211 -0.000424833 0.000427456)
(0.0999088 0.000712568 0.00129699)
(0.0969668 0.00274729 0.00365581)
(0.0935345 0.00211823 0.0026401)
(0.0895891 0.00162075 0.00182022)
(0.0858317 0.0013908 0.00152834)
(0.0825893 0.00116161 0.00135059)
(0.0798639 0.000897842 0.00117814)
(0.100226 0.000720831 0.000720795)
(0.09996 0.00198281 0.00198266)
(0.0997823 0.00245205 0.00245167)
(0.0987881 0.00241999 0.00241934)
(0.0972755 0.0022014 0.00220037)
(0.0957747 0.00181247 0.00181064)
(0.0943926 0.00138399 0.00138099)
(0.10014 0.000775038 0.000869228)
(0.100454 0.00196246 0.00196347)
(0.100911 0.00242763 0.00233428)
(0.100978 0.0025268 0.00244089)
(0.100694 0.00242663 0.00233621)
(0.100225 0.00219811 0.00211176)
(0.09971 0.00191763 0.00182215)
(0.100093 0.000445925 0.000763196)
(0.100504 0.00119448 0.001749)
(0.101105 0.00158677 0.00212949)
(0.101635 0.00174034 0.00223446)
(0.10198 0.00178212 0.00228668)
(0.102173 0.0017288 0.00223542)
(0.102254 0.00160768 0.00211521)
(0.100087 0.000144358 0.000707013)
(0.100477 0.000390407 0.00161777)
(0.101066 0.000540957 0.00203464)
(0.101694 0.000609872 0.00211758)
(0.102269 0.000635473 0.00215004)
(0.102743 0.000625836 0.00217958)
(0.103125 0.00059317 0.00213387)
(0.100087 -0.000144422 0.000707021)
(0.100477 -0.0003906 0.00161779)
(0.101066 -0.000541296 0.00203464)
(0.101694 -0.000610477 0.00211767)
(0.102269 -0.000636608 0.00215038)
(0.102742 -0.000627852 0.00218024)
(0.103123 -0.000596502 0.0021349)
(0.100093 -0.000445928 0.000763212)
(0.100504 -0.00119449 0.00174905)
(0.101105 -0.00158681 0.00212965)
(0.101634 -0.00174046 0.00223504)
(0.101979 -0.00178235 0.00228781)
(0.10217 -0.00172917 0.00223706)
(0.102251 -0.00160842 0.0021177)
(0.10014 -0.000774995 0.000869278)
(0.100454 -0.00196234 0.00196368)
(0.100911 -0.0024274 0.00233478)
(0.100978 -0.00252633 0.00244173)
(0.100693 -0.00242583 0.00233744)
(0.100223 -0.00219672 0.00211341)
(0.0997073 -0.00191546 0.00182474)
(0.100226 -0.000720795 0.000720832)
(0.09996 -0.00198265 0.00198281)
(0.0997823 -0.00245167 0.00245205)
(0.0987881 -0.00241933 0.00242)
(0.0972755 -0.00220036 0.0022014)
(0.0957747 -0.00181063 0.00181248)
(0.0943926 -0.00138098 0.00138399)
(0.0999088 -0.000712548 0.00129701)
(0.0969668 -0.00274719 0.00365597)
(0.0935346 -0.00211801 0.00264036)
(0.0895893 -0.00162034 0.00182068)
(0.0858323 -0.00139022 0.00152928)
(0.0825903 -0.00116054 0.00135204)
(0.0798656 -0.000896055 0.0011808)
(0.099413 0.000270235 0.000345223)
(0.0988664 0.00187493 0.002019)
(0.0979214 0.00218908 0.00257304)
(0.0963656 0.00190851 0.00237971)
(0.0946329 0.00162682 0.00211389)
(0.0929713 0.00141885 0.00192643)
(0.0913624 0.00127159 0.001801)
(0.10014 0.000869278 0.000774997)
(0.100454 0.00196368 0.00196234)
(0.100911 0.00233478 0.00242741)
(0.100978 0.00244172 0.00252634)
(0.100693 0.00233744 0.00242584)
(0.100223 0.00211341 0.00219673)
(0.0997073 0.00182473 0.00191547)
(0.10006 0.000641438 0.000641371)
(0.100501 0.00164518 0.00164497)
(0.101149 0.00221268 0.00221226)
(0.101738 0.00244045 0.00243974)
(0.102205 0.00244271 0.00244156)
(0.102501 0.00231468 0.0023129)
(0.102645 0.00209446 0.00209149)
(0.100046 0.000395733 0.000540224)
(0.10048 0.00104491 0.00138404)
(0.101154 0.00147544 0.00192284)
(0.101913 0.00170536 0.00219233)
(0.102632 0.0017803 0.00229368)
(0.103302 0.0017452 0.00227764)
(0.103895 0.00163482 0.00218469)
(0.100039 0.000131316 0.000478764)
(0.100448 0.000350451 0.00123476)
(0.101114 0.000504995 0.00174644)
(0.101909 0.000597046 0.00202675)
(0.102729 0.000638343 0.00215195)
(0.103529 0.000637856 0.00218622)
(0.104298 0.000603847 0.00215298)
(0.100039 -0.000131358 0.000478786)
(0.100448 -0.000350561 0.00123483)
(0.101114 -0.000505196 0.00174657)
(0.101909 -0.000597389 0.00202698)
(0.102728 -0.000638932 0.00215242)
(0.103529 -0.000638823 0.00218698)
(0.104297 -0.000605493 0.00215415)
(0.100046 -0.000395709 0.000540284)
(0.10048 -0.00104484 0.00138422)
(0.101154 -0.00147533 0.00192319)
(0.101913 -0.00170521 0.00219297)
(0.102631 -0.00178001 0.00229476)
(0.103301 -0.00174471 0.0022794)
(0.103893 -0.00163399 0.00218744)
(0.10006 -0.000641369 0.000641438)
(0.100502 -0.00164496 0.00164518)
(0.101149 -0.00221226 0.00221268)
(0.101738 -0.00243974 0.00244045)
(0.102205 -0.00244155 0.00244271)
(0.102501 -0.00231289 0.00231469)
(0.102645 -0.00209148 0.00209446)
(0.10014 -0.000869227 0.000775038)
(0.100454 -0.00196347 0.00196246)
(0.100911 -0.00233428 0.00242763)
(0.100978 -0.00244089 0.0025268)
(0.100694 -0.00233621 0.00242664)
(0.100225 -0.00211175 0.00219811)
(0.09971 -0.00182214 0.00191764)
(0.099413 -0.000270226 0.000345245)
(0.0988664 -0.00187484 0.00201911)
(0.0979217 -0.00218882 0.00257325)
(0.0963663 -0.00190807 0.00238008)
(0.0946343 -0.00162621 0.00211445)
(0.0929739 -0.00141797 0.00192735)
(0.0913671 -0.00127014 0.00180234)
(0.0995405 0.0003219 0.000245043)
(0.0992576 0.00154093 0.00105562)
(0.0988488 0.00211451 0.00150234)
(0.0981246 0.00209173 0.00157942)
(0.0973364 0.00188634 0.00151485)
(0.096584 0.00166623 0.00144651)
(0.0958637 0.00149851 0.00141024)
(0.100093 0.000763212 0.00044593)
(0.100504 0.00174905 0.00119449)
(0.101105 0.00212966 0.00158681)
(0.101634 0.00223504 0.00174047)
(0.101979 0.00228781 0.00178236)
(0.10217 0.00223706 0.00172918)
(0.102251 0.00211769 0.00160843)
(0.100046 0.000540284 0.000395711)
(0.10048 0.00138422 0.00104484)
(0.101154 0.00192319 0.00147533)
(0.101913 0.00219297 0.00170522)
(0.102631 0.00229476 0.00178002)
(0.103301 0.0022794 0.00174472)
(0.103893 0.00218743 0.001634)
(0.100036 0.000323175 0.000323129)
(0.100429 0.000868761 0.000868628)
(0.10108 0.00126255 0.0012623)
(0.101891 0.00150462 0.00150421)
(0.102756 0.00162197 0.0016213)
(0.103616 0.00164337 0.00164232)
(0.104446 0.00160562 0.00160404)
(0.100031 0.000107083 0.000281377)
(0.100395 0.000293063 0.000768614)
(0.101024 0.000434109 0.00113303)
(0.101844 0.000526276 0.00136914)
(0.102751 0.000576429 0.00150133)
(0.103689 0.000591874 0.00155408)
(0.104618 0.00058254 0.00154908)
(0.100031 -0.000107081 0.000281399)
(0.100395 -0.000293055 0.00076868)
(0.101024 -0.000434095 0.00113316)
(0.101843 -0.000526256 0.00136938)
(0.102751 -0.000576393 0.00150173)
(0.103688 -0.000591804 0.0015547)
(0.104617 -0.00058243 0.00154995)
(0.100036 -0.000323126 0.000323174)
(0.100429 -0.000868623 0.00086876)
(0.10108 -0.0012623 0.00126255)
(0.101891 -0.0015042 0.00150463)
(0.102756 -0.00162129 0.00162198)
(0.103616 -0.00164231 0.00164338)
(0.104446 -0.00160403 0.00160563)
(0.100046 -0.000540222 0.000395733)
(0.10048 -0.00138403 0.00104491)
(0.101154 -0.00192284 0.00147544)
(0.101913 -0.00219233 0.00170536)
(0.102632 -0.00229367 0.0017803)
(0.103302 -0.00227764 0.00174521)
(0.103895 -0.00218468 0.00163483)
(0.100093 -0.000763195 0.000445925)
(0.100504 -0.001749 0.00119448)
(0.101105 -0.00212948 0.00158678)
(0.101635 -0.00223446 0.00174034)
(0.10198 -0.00228667 0.00178212)
(0.102173 -0.00223541 0.0017288)
(0.102254 -0.00211521 0.00160769)
(0.0995405 -0.000321899 0.000245029)
(0.0992576 -0.00154092 0.00105555)
(0.0988491 -0.00211438 0.0015022)
(0.0981252 -0.00209151 0.00157916)
(0.0973378 -0.00188599 0.00151426)
(0.0965868 -0.00166569 0.0014453)
(0.0958686 -0.00149785 0.00140808)
(0.0993802 5.8998e-05 3.37913e-05)
(0.0992677 0.00120005 0.000274463)
(0.0989804 0.00188847 0.000432524)
(0.0984746 0.00200645 0.00048371)
(0.0979955 0.00191468 0.000479238)
(0.0975707 0.00173483 0.000466168)
(0.0971806 0.00154743 0.000453945)
(0.100087 0.000707021 0.000144424)
(0.100477 0.00161779 0.000390606)
(0.101066 0.00203464 0.000541305)
(0.101694 0.00211767 0.000610488)
(0.102269 0.00215039 0.000636621)
(0.102742 0.00218024 0.000627866)
(0.103123 0.0021349 0.000596518)
(0.100039 0.000478787 0.000131361)
(0.100448 0.00123483 0.000350567)
(0.101114 0.00174658 0.000505204)
(0.101909 0.00202699 0.000597398)
(0.102728 0.00215242 0.000638943)
(0.103529 0.00218698 0.000638835)
(0.104297 0.00215415 0.000605507)
(0.100031 0.0002814 0.000107084)
(0.100395 0.000768681 0.000293061)
(0.101024 0.00113316 0.000434103)
(0.101843 0.00136938 0.000526265)
(0.102751 0.00150173 0.000576404)
(0.103688 0.0015547 0.000591817)
(0.104617 0.00154995 0.000582445)
(0.100048 7.31498e-05 7.3142e-05)
(0.100365 0.000251058 0.000251029)
(0.100961 0.000386382 0.000386327)
(0.101771 0.00047795 0.000477859)
(0.102702 0.000532179 0.000532033)
(0.10369 0.000556764 0.000556539)
(0.104692 0.000559138 0.000558801)
(0.100048 -7.31381e-05 7.31478e-05)
(0.100365 -0.000251022 0.000251056)
(0.100961 -0.000386318 0.000386381)
(0.101771 -0.000477847 0.00047795)
(0.102702 -0.00053202 0.00053218)
(0.10369 -0.000556522 0.000556767)
(0.104692 -0.000558782 0.000559145)
(0.100031 -0.000281374 0.000107082)
(0.100395 -0.000768608 0.000293062)
(0.101024 -0.00113303 0.000434109)
(0.101844 -0.00136913 0.000526278)
(0.102751 -0.00150132 0.000576432)
(0.103689 -0.00155407 0.000591881)
(0.104618 -0.00154906 0.000582551)
(0.100039 -0.000478762 0.000131316)
(0.100448 -0.00123476 0.00035045)
(0.101114 -0.00174643 0.000504995)
(0.101909 -0.00202674 0.000597048)
(0.102729 -0.00215194 0.000638347)
(0.103529 -0.00218621 0.000637864)
(0.104298 -0.00215297 0.00060386)
(0.100087 -0.000707012 0.000144357)
(0.100477 -0.00161777 0.000390406)
(0.101066 -0.00203464 0.000540956)
(0.101694 -0.00211758 0.000609872)
(0.102269 -0.00215003 0.000635476)
(0.102743 -0.00217958 0.000625842)
(0.103125 -0.00213386 0.000593182)
(0.0993801 -5.89383e-05 3.37522e-05)
(0.0992677 -0.00120001 0.000274263)
(0.0989805 -0.00188844 0.000432093)
(0.0984749 -0.00200637 0.000482955)
(0.0979961 -0.00191449 0.000477932)
(0.0975719 -0.00173442 0.000463856)
(0.0971827 -0.00154683 0.000449828)
(0.0993801 5.89383e-05 -3.37509e-05)
(0.0992677 0.00120001 -0.000274258)
(0.0989805 0.00188845 -0.000432081)
(0.0984749 0.00200638 -0.000482939)
(0.0979961 0.0019145 -0.000477912)
(0.0975718 0.00173442 -0.000463831)
(0.0971827 0.00154683 -0.000449795)
(0.100087 0.000707014 -0.000144355)
(0.100477 0.00161778 -0.0003904)
(0.101066 0.00203464 -0.000540947)
(0.101694 0.00211758 -0.000609859)
(0.102269 0.00215004 -0.000635458)
(0.102743 0.00217959 -0.000625819)
(0.103125 0.00213387 -0.000593151)
(0.100039 0.000478765 -0.000131313)
(0.100448 0.00123476 -0.000350444)
(0.101114 0.00174644 -0.000504986)
(0.101909 0.00202675 -0.000597036)
(0.102729 0.00215196 -0.000638331)
(0.103529 0.00218622 -0.000637842)
(0.104298 0.00215299 -0.000603832)
(0.100031 0.000281378 -0.00010708)
(0.100395 0.000768616 -0.000293056)
(0.101024 0.00113304 -0.0004341)
(0.101844 0.00136914 -0.000526266)
(0.102751 0.00150133 -0.000576416)
(0.103689 0.00155409 -0.000591859)
(0.104618 0.00154908 -0.000582522)
(0.100048 7.31432e-05 -7.31474e-05)
(0.100365 0.000251031 -0.000251052)
(0.100961 0.00038633 -0.000386372)
(0.101771 0.000477861 -0.000477938)
(0.102702 0.000532036 -0.000532164)
(0.10369 0.00055654 -0.000556745)
(0.104692 0.000558801 -0.000559116)
(0.100048 -7.31448e-05 -7.31382e-05)
(0.100365 -0.000251048 -0.000251022)
(0.100961 -0.000386371 -0.000386318)
(0.101771 -0.000477937 -0.000477846)
(0.102702 -0.000532163 -0.000532017)
(0.10369 -0.000556746 -0.000556516)
(0.104692 -0.000559119 -0.000558772)
(0.100031 -0.000281396 -0.000107082)
(0.100395 -0.000768673 -0.000293056)
(0.101024 -0.00113315 -0.000434095)
(0.101843 -0.00136936 -0.000526253)
(0.102751 -0.00150172 -0.000576388)
(0.103688 -0.00155468 -0.000591796)
(0.104617 -0.00154993 -0.000582416)
(0.100039 -0.000478784 -0.000131359)
(0.100448 -0.00123483 -0.000350562)
(0.101114 -0.00174657 -0.000505196)
(0.101909 -0.00202698 -0.000597387)
(0.102728 -0.00215241 -0.000638927)
(0.103529 -0.00218697 -0.000638814)
(0.104297 -0.00215414 -0.000605479)
(0.100087 -0.00070702 -0.000144423)
(0.100477 -0.00161779 -0.000390602)
(0.101066 -0.00203463 -0.000541298)
(0.101694 -0.00211766 -0.000610477)
(0.102269 -0.00215038 -0.000636606)
(0.102742 -0.00218023 -0.000627845)
(0.103123 -0.00213489 -0.000596491)
(0.0993802 -5.89986e-05 -3.37909e-05)
(0.0992677 -0.00120005 -0.00027446)
(0.0989804 -0.00188847 -0.000432516)
(0.0984747 -0.00200645 -0.000483698)
(0.0979955 -0.00191468 -0.000479222)
(0.0975707 -0.00173482 -0.000466148)
(0.0971806 -0.00154742 -0.000453918)
(0.0995405 0.000321899 -0.000245027)
(0.0992576 0.00154093 -0.00105554)
(0.0988491 0.00211439 -0.00150218)
(0.0981252 0.00209152 -0.00157914)
(0.0973378 0.001886 -0.00151423)
(0.0965868 0.0016657 -0.00144527)
(0.0958685 0.00149786 -0.00140804)
(0.100093 0.000763198 -0.000445923)
(0.100504 0.00174901 -0.00119447)
(0.101105 0.00212949 -0.00158676)
(0.101635 0.00223447 -0.00174033)
(0.10198 0.00228669 -0.0017821)
(0.102173 0.00223543 -0.00172878)
(0.102254 0.00211522 -0.00160766)
(0.100046 0.000540226 -0.000395731)
(0.10048 0.00138404 -0.0010449)
(0.101154 0.00192285 -0.00147543)
(0.101913 0.00219234 -0.00170535)
(0.102632 0.00229369 -0.00178029)
(0.103302 0.00227766 -0.00174519)
(0.103895 0.0021847 -0.0016348)
(0.100036 0.000323131 -0.000323172)
(0.100429 0.000868632 -0.000868754)
(0.10108 0.00126231 -0.00126254)
(0.101891 0.00150422 -0.00150461)
(0.102756 0.00162131 -0.00162196)
(0.103616 0.00164233 -0.00164336)
(0.104446 0.00160405 -0.00160561)
(0.100031 0.000107086 -0.000281397)
(0.100395 0.000293064 -0.000768674)
(0.101024 0.000434107 -0.00113315)
(0.101843 0.00052627 -0.00136936)
(0.102751 0.00057641 -0.00150172)
(0.103688 0.000591824 -0.00155468)
(0.104617 0.000582452 -0.00154993)
(0.100031 -0.000107078 -0.000281375)
(0.100395 -0.000293054 -0.000768609)
(0.101024 -0.000434098 -0.00113303)
(0.101844 -0.000526263 -0.00136913)
(0.102751 -0.000576413 -0.00150131)
(0.103689 -0.000591856 -0.00155406)
(0.100036 -0.000323171 -0.000323127)
(0.100429 -0.000868753 -0.000868624)
(0.10108 -0.00126254 -0.0012623)
(0.101891 -0.00150461 -0.0015042)
(0.102756 -0.00162196 -0.00162128)
(0.103616 -0.00164336 -0.0016423)
(0.100046 -0.000540282 -0.000395711)
(0.10048 -0.00138421 -0.00104484)
(0.101154 -0.00192319 -0.00147532)
(0.101913 -0.00219296 -0.00170521)
(0.102631 -0.00229475 -0.00178001)
(0.103301 -0.00227938 -0.0017447)
(0.100093 -0.000763211 -0.000445929)
(0.100504 -0.00174905 -0.00119449)
(0.101105 -0.00212965 -0.00158681)
(0.101634 -0.00223504 -0.00174046)
(0.101979 -0.0022878 -0.00178235)
(0.10217 -0.00223705 -0.00172917)
(0.0995405 -0.000321899 -0.000245043)
(0.0992576 -0.00154093 -0.00105562)
(0.0988488 -0.00211451 -0.00150233)
(0.0981246 -0.00209173 -0.00157941)
(0.0973364 -0.00188633 -0.00151484)
(0.096584 -0.00166623 -0.00144649)
(0.099413 0.000270227 -0.000345242)
(0.0988664 0.00187484 -0.00201909)
(0.0979217 0.00218883 -0.00257323)
(0.0963663 0.00190808 -0.00238005)
(0.0946343 0.00162622 -0.00211442)
(0.0929739 0.00141799 -0.00192731)
(0.091367 0.00127015 -0.0018023)
(0.10014 0.00086923 -0.000775036)
(0.100454 0.00196347 -0.00196245)
(0.100911 0.00233429 -0.00242762)
(0.100978 0.0024409 -0.00252679)
(0.100694 0.00233623 -0.00242662)
(0.100225 0.00211177 -0.00219809)
(0.09971 0.00182217 -0.00191761)
(0.10006 0.000641373 -0.000641436)
(0.100501 0.00164497 -0.00164518)
(0.101149 0.00221227 -0.00221267)
(0.101738 0.00243975 -0.00244044)
(0.102205 0.00244157 -0.00244269)
(0.102501 0.00231291 -0.00231467)
(0.102645 0.00209151 -0.00209444)
(0.100046 0.000395713 -0.000540282)
(0.10048 0.00104485 -0.00138421)
(0.101154 0.00147534 -0.00192319)
(0.101913 0.00170522 -0.00219296)
(0.102631 0.00178003 -0.00229475)
(0.103301 0.00174473 -0.00227938)
(0.103893 0.00163402 -0.00218742)
(0.100039 0.000131362 -0.000478785)
(0.100448 0.00035057 -0.00123483)
(0.101114 0.000505208 -0.00174657)
(0.101909 0.000597404 -0.00202698)
(0.102728 0.00063895 -0.00215241)
(0.103529 0.000638845 -0.00218696)
(0.104297 0.000605518 -0.00215413)
(0.100039 -0.000131312 -0.000478763)
(0.100448 -0.000350442 -0.00123476)
(0.101114 -0.000504983 -0.00174643)
(0.101909 -0.000597032 -0.00202674)
(0.102729 -0.000638327 -0.00215194)
(0.103529 -0.000637837 -0.0021862)
(0.100046 -0.00039573 -0.000540224)
(0.10048 -0.0010449 -0.00138403)
(0.101154 -0.00147543 -0.00192284)
(0.101913 -0.00170535 -0.00219232)
(0.102632 -0.00178028 -0.00229367)
(0.103302 -0.00174519 -0.00227763)
(0.10006 -0.000641436 -0.00064137)
(0.100502 -0.00164518 -0.00164497)
(0.101149 -0.00221267 -0.00221226)
(0.101738 -0.00244044 -0.00243973)
(0.102205 -0.0024427 -0.00244155)
(0.102501 -0.00231467 -0.00231288)
(0.10014 -0.000869277 -0.000774997)
(0.100454 -0.00196368 -0.00196234)
(0.100911 -0.00233477 -0.0024274)
(0.100978 -0.00244172 -0.00252633)
(0.100693 -0.00233744 -0.00242583)
(0.100223 -0.0021134 -0.00219672)
(0.099413 -0.000270234 -0.000345224)
(0.0988664 -0.00187492 -0.002019)
(0.0979214 -0.00218908 -0.00257304)
(0.0963656 -0.0019085 -0.00237971)
(0.0946329 -0.00162682 -0.00211389)
(0.0929713 -0.00141885 -0.00192643)
(0.0999088 0.000712548 -0.00129701)
(0.0969668 0.00274719 -0.00365596)
(0.0935346 0.00211802 -0.00264034)
(0.0895893 0.00162035 -0.00182065)
(0.0858323 0.00139023 -0.00152924)
(0.0825903 0.00116055 -0.00135201)
(0.0798656 0.00089607 -0.00118076)
(0.100226 0.000720797 -0.00072083)
(0.09996 0.00198266 -0.00198281)
(0.0997823 0.00245168 -0.00245205)
(0.0987881 0.00241935 -0.00241998)
(0.0972755 0.00220038 -0.00220139)
(0.0957747 0.00181066 -0.00181246)
(0.0943926 0.00138101 -0.00138397)
(0.10014 0.000774999 -0.000869276)
(0.100454 0.00196235 -0.00196368)
(0.100911 0.00242741 -0.00233477)
(0.100978 0.00252635 -0.00244172)
(0.100693 0.00242585 -0.00233743)
(0.100223 0.00219674 -0.0021134)
(0.0997073 0.00191549 -0.00182472)
(0.100093 0.000445932 -0.00076321)
(0.100504 0.00119449 -0.00174905)
(0.101105 0.00158682 -0.00212965)
(0.101634 0.00174048 -0.00223503)
(0.101979 0.00178237 -0.0022878)
(0.10217 0.0017292 -0.00223705)
(0.102251 0.00160845 -0.00211768)
(0.100087 0.000144426 -0.00070702)
(0.100477 0.000390609 -0.00161779)
(0.101066 0.000541309 -0.00203463)
(0.101694 0.000610493 -0.00211766)
(0.102269 0.000636628 -0.00215038)
(0.102742 0.000627876 -0.00218023)
(0.103123 0.00059653 -0.00213488)
(0.100087 -0.000144355 -0.000707013)
(0.100477 -0.000390399 -0.00161777)
(0.101066 -0.000540945 -0.00203464)
(0.101694 -0.000609857 -0.00211758)
(0.102269 -0.000635455 -0.00215003)
(0.102743 -0.000625815 -0.00217957)
(0.100093 -0.000445922 -0.000763196)
(0.100504 -0.00119447 -0.001749)
(0.101105 -0.00158677 -0.00212948)
(0.101635 -0.00174033 -0.00223445)
(0.10198 -0.0017821 -0.00228667)
(0.102173 -0.00172878 -0.00223541)
(0.10014 -0.000775036 -0.000869228)
(0.100454 -0.00196245 -0.00196347)
(0.100911 -0.00242762 -0.00233428)
(0.100978 -0.00252679 -0.00244088)
(0.100694 -0.00242662 -0.00233621)
(0.100225 -0.00219809 -0.00211175)
(0.100226 -0.00072083 -0.000720795)
(0.09996 -0.00198281 -0.00198266)
(0.0997823 -0.00245205 -0.00245167)
(0.0987881 -0.00241999 -0.00241933)
(0.0972755 -0.00220139 -0.00220036)
(0.0957747 -0.00181247 -0.00181063)
(0.0999088 -0.000712568 -0.00129699)
(0.0969668 -0.00274729 -0.00365581)
(0.0935345 -0.00211822 -0.0026401)
(0.0895891 -0.00162075 -0.00182022)
(0.0858317 -0.0013908 -0.00152834)
(0.0825894 -0.00116161 -0.00135059)
(0.0956456 -0.00836005 0.00836005)
(0.0904939 0.00152198 -0.00152207)
(0.0790683 0.00242965 -0.00242982)
(0.0713012 0.00148755 -0.00148792)
(0.0661795 0.000830093 -0.000830802)
(0.0623228 0.000563 -0.000564164)
(0.059221 0.000424862 -0.00042743)
(0.0999088 0.00129699 -0.000712568)
(0.0969668 0.00365581 -0.00274729)
(0.0935345 0.00264011 -0.00211822)
(0.0895891 0.00182024 -0.00162075)
(0.0858317 0.00152836 -0.0013908)
(0.0825893 0.00135061 -0.0011616)
(0.0798639 0.00117817 -0.000897838)
(0.099413 0.000345225 -0.000270234)
(0.0988664 0.00201901 -0.00187492)
(0.0979214 0.00257305 -0.00218907)
(0.0963656 0.00237973 -0.0019085)
(0.0946329 0.00211391 -0.00162682)
(0.0929713 0.00192645 -0.00141885)
(0.0913624 0.00180102 -0.00127158)
(0.0995405 0.000245044 -0.000321899)
(0.0992576 0.00105562 -0.00154093)
(0.0988488 0.00150234 -0.00211451)
(0.0981246 0.00157943 -0.00209173)
(0.0973364 0.00151486 -0.00188633)
(0.096584 0.00144652 -0.00166622)
(0.0958637 0.00141025 -0.0014985)
(0.0993802 3.37921e-05 -5.90003e-05)
(0.0992677 0.000274466 -0.00120005)
(0.0989804 0.000432526 -0.00188847)
(0.0984746 0.000483712 -0.00200645)
(0.0979955 0.000479242 -0.00191468)
(0.0975707 0.000466174 -0.00173482)
(0.0971806 0.000453952 -0.00154742)
(0.0993801 -3.37503e-05 -5.89344e-05)
(0.0992677 -0.000274256 -0.0012)
(0.0989805 -0.000432081 -0.00188844)
(0.0984749 -0.000482939 -0.00200637)
(0.0979961 -0.000477912 -0.00191449)
(0.0975719 -0.000463831 -0.00173441)
(0.0995405 -0.000245026 -0.000321899)
(0.0992576 -0.00105554 -0.00154092)
(0.0988491 -0.00150218 -0.00211438)
(0.0981252 -0.00157915 -0.00209151)
(0.0973378 -0.00151424 -0.00188599)
(0.0965868 -0.00144527 -0.00166569)
(0.099413 -0.000345242 -0.000270226)
(0.0988664 -0.00201909 -0.00187484)
(0.0979217 -0.00257323 -0.00218882)
(0.0963663 -0.00238006 -0.00190807)
(0.0946343 -0.00211443 -0.00162621)
(0.0929739 -0.00192732 -0.00141797)
(0.0999088 -0.00129701 -0.000712548)
(0.0969668 -0.00365596 -0.00274718)
(0.0935346 -0.00264034 -0.00211801)
(0.0895893 -0.00182066 -0.00162034)
(0.0858323 -0.00152925 -0.00139021)
(0.0825903 -0.00135202 -0.00116053)
(0.0956456 0.00836005 0.00836005)
(0.0904939 -0.00152207 -0.00152198)
(0.0790683 -0.00242983 -0.00242964)
(0.0713012 -0.00148793 -0.00148754)
(0.0661795 -0.000830812 -0.000830078)
(0.0623228 -0.000564178 -0.000562982)
)
;

boundaryField
{
    inlet
    {
        type            fixedValue;
        value           uniform (0.1 0 0);
    }
    ami1
    {
        type            cyclicAMI;
        value           nonuniform List<vector> 0();
    }
    walls
    {
        type            noSlip;
    }
    ami2
    {
        type            cyclicAMI;
        value           nonuniform List<vector> 0();
    }
    outlet
    {
        type            zeroGradient;
    }
    procBoundary4to3
    {
        type            processor;
        value           nonuniform List<vector> 
109
(
(0.0566853 0.000325882 0.000321398)
(0.0775677 0.00104301 0.000690545)
(0.089859 0.00170685 0.00115827)
(0.095203 0.00137546 0.00137135)
(0.0968338 0.00043707 0.00138786)
(0.0968302 -0.000444136 0.00138889)
(0.0951946 -0.00137902 0.00137246)
(0.0898509 -0.00170465 0.0011607)
(0.0775645 -0.00103842 0.000693419)
(0.0566853 -0.00032139 0.000325889)
(0.0775645 0.000693416 0.00103844)
(0.0931636 0.00107278 0.00106773)
(0.0991856 0.00166719 0.00157361)
(0.10228 0.00145957 0.00196365)
(0.103429 0.00054659 0.00204411)
(0.103426 -0.0005521 0.00204573)
(0.102273 -0.00146091 0.00196746)
(0.0991809 -0.00166391 0.00157818)
(0.0931636 -0.00106772 0.00107279)
(0.0775678 -0.000690542 0.00104302)
(0.0898508 0.0011607 0.00170468)
(0.0991809 0.00157818 0.00166392)
(0.102714 0.00187212 0.00186737)
(0.104391 0.00149251 0.0020511)
(0.105008 0.000558144 0.00207903)
(0.105006 -0.000560821 0.00208082)
(0.104388 -0.00149121 0.00205559)
(0.102714 -0.00186736 0.00187213)
(0.0991857 -0.0015736 0.0016672)
(0.089859 -0.00115826 0.00170686)
(0.0951946 0.00137246 0.00137905)
(0.102273 0.00196746 0.00146092)
(0.104388 0.00205558 0.00149122)
(0.105223 0.00152788 0.0015254)
(0.105516 0.000557971 0.00150814)
(0.105515 -0.00055789 0.00150943)
(0.105223 -0.00152538 0.00152789)
(0.104391 -0.00205109 0.00149252)
(0.10228 -0.00196365 0.00145959)
(0.095203 -0.00137135 0.00137548)
(0.0968301 0.00138889 0.000444164)
(0.103426 0.00204573 0.000552117)
(0.105006 0.00208082 0.000560836)
(0.105515 0.00150942 0.000557907)
(0.105677 0.000546355 0.000545866)
(0.105677 -0.000545843 0.000546367)
(0.105516 -0.00150812 0.000557988)
(0.105008 -0.00207902 0.000558163)
(0.103429 -0.00204411 0.000546608)
(0.0968338 -0.00138786 0.00043708)
(0.0968338 0.00138787 -0.000437039)
(0.103429 0.00204412 -0.000546569)
(0.105008 0.00207904 -0.000558127)
(0.105516 0.00150814 -0.000557951)
(0.105677 0.000545863 -0.000546329)
(0.105677 -0.000546336 -0.000545828)
(0.104618 -0.000582521 -0.00154905)
(0.105515 -0.0015094 -0.00055787)
(0.104446 -0.00160561 -0.00160401)
(0.105006 -0.0020808 -0.000560799)
(0.103893 -0.00218742 -0.00163398)
(0.103426 -0.00204572 -0.000552081)
(0.102251 -0.00211769 -0.00160841)
(0.0968302 -0.00138888 -0.000444128)
(0.0958637 -0.0014985 -0.00141021)
(0.0952029 0.00137136 -0.00137543)
(0.10228 0.00196367 -0.00145955)
(0.104391 0.00205111 -0.00149249)
(0.105223 0.00152541 -0.00152786)
(0.105515 0.000557913 -0.00150939)
(0.104618 -0.000582521 -0.00154905)
(0.104618 -0.000582521 -0.00154905)
(0.104446 -0.00160561 -0.00160401)
(0.103893 -0.00218742 -0.00163398)
(0.102251 -0.00211769 -0.00160841)
(0.0958637 -0.0014985 -0.00141021)
(0.089859 0.00115828 -0.00170682)
(0.0991857 0.00157363 -0.00166716)
(0.102714 0.00186739 -0.0018721)
(0.104388 0.00149124 -0.00205556)
(0.105006 0.000560848 -0.00208079)
(0.104298 -0.000603826 -0.00215296)
(0.104298 -0.000603826 -0.00215296)
(0.103895 -0.0016348 -0.00218467)
(0.102645 -0.00209445 -0.00209147)
(0.0997073 -0.00182473 -0.00191546)
(0.0913624 -0.00127159 -0.00180099)
(0.0775677 0.00069056 -0.00104297)
(0.0931636 0.00106776 -0.00107276)
(0.0991809 0.00166395 -0.00157816)
(0.102273 0.00146094 -0.00196745)
(0.103426 0.000552131 -0.00204571)
(0.103125 -0.000593146 -0.00213385)
(0.103125 -0.000593146 -0.00213385)
(0.102254 -0.00160766 -0.0021152)
(0.0997101 -0.00191762 -0.00182214)
(0.0943927 -0.00138398 -0.00138098)
(0.0798639 -0.000897843 -0.00117814)
(0.0566853 0.000321424 -0.00032586)
(0.0775645 0.00103848 -0.000693411)
(0.0898509 0.0017047 -0.00116069)
(0.0951947 0.00137906 -0.00137245)
(0.0968302 0.000444173 -0.00138888)
(0.0971827 -0.000449795 -0.00154682)
(0.0971827 -0.000449795 -0.00154682)
(0.0958686 -0.00140805 -0.00149785)
(0.0913671 -0.00180232 -0.00127013)
(0.0798657 -0.00118078 -0.000896048)
(0.0592211 -0.000427453 -0.000424833)
)
;
    }
}


// ************************************************************************* //
