/*--------------------------------*- C++ -*----------------------------------*\
| =========                 |                                                 |
| \\      /  F ield         | OpenFOAM: The Open Source CFD Toolbox           |
|  \\    /   O peration     | Version:  2212                                  |
|   \\  /    A nd           | Website:  www.openfoam.com                      |
|    \\/     M anipulation  |                                                 |
\*---------------------------------------------------------------------------*/
FoamFile
{
    version     2.0;
    format      ascii;
    arch        "LSB;label=32;scalar=64";
    class       volScalarField;
    location    "1.85";
    object      epsilon;
}
// * * * * * * * * * * * * * * * * * * * * * * * * * * * * * * * * * * * * * //

dimensions      [0 2 -3 0 0 0 0];

internalField   nonuniform List<scalar> 
690
(
0.12895
0.125132
0.121675
0.118351
0.115315
0.112366
0.10964
0.107077
0.104573
0.102237
0.100009
0.0506973
0.0488501
0.0471536
0.0455623
0.0441324
0.0428047
0.0415797
0.0404436
0.0393574
0.0383407
0.0373967
0.0359949
0.034523
0.0331212
0.0318731
0.0307562
0.0297459
0.0287897
0.0278973
0.0270632
0.0262313
0.0254544
0.0298845
0.0284652
0.0271919
0.0260469
0.0249997
0.0240749
0.0231262
0.0222576
0.0214884
0.0207712
0.0200932
0.0270567
0.0256727
0.024438
0.0233208
0.0223025
0.02137
0.0205211
0.0197322
0.0190498
0.018335
0.0176729
0.0479687
0.0459821
0.0442897
0.0426819
0.0412364
0.0398733
0.0386275
0.0374816
0.0364002
0.0354153
0.0345183
0.0216076
0.020745
0.0197103
0.0189289
0.0180711
0.017385
0.0166981
0.0161065
0.0155286
0.0149493
0.014501
0.0156455
0.0150116
0.014029
0.0134968
0.0126948
0.0122495
0.0116127
0.0112053
0.010766
0.0102666
0.00994785
0.0140533
0.0131872
0.0124008
0.0116983
0.0110733
0.0105049
0.0100226
0.00948341
0.00913903
0.00861038
0.00832031
0.013398
0.0125054
0.011705
0.0109875
0.0103442
0.00976594
0.00924529
0.00877324
0.00834924
0.00796306
0.00761878
0.0328185
0.0313628
0.0300943
0.0288476
0.0276935
0.0266591
0.0257472
0.0249036
0.0241093
0.0233865
0.0226916
0.0150493
0.0142717
0.0133748
0.0127982
0.0119334
0.0114802
0.0107876
0.0103735
0.0099566
0.00945376
0.00914664
0.0124683
0.0116033
0.0108077
0.0101179
0.00942291
0.00881429
0.00833098
0.00793955
0.00754278
0.00714563
0.0068193
0.0124072
0.0114393
0.0105805
0.00981732
0.00913422
0.00851546
0.00796928
0.0074795
0.00704329
0.00664674
0.00620955
0.0126228
0.0115971
0.0106908
0.00988689
0.00917127
0.00853125
0.00795809
0.00744332
0.00698025
0.00656743
0.00616589
0.0276391
0.026264
0.0250275
0.0239098
0.0229084
0.0220013
0.0211773
0.0204268
0.0197485
0.0191087
0.0184725
0.0134383
0.0125812
0.0118047
0.0111079
0.0104716
0.0099036
0.00938448
0.0089213
0.0085084
0.0081056
0.00779651
0.0122439
0.0112916
0.0104446
0.00969088
0.00901331
0.00839937
0.00785592
0.00737471
0.00694071
0.00654851
0.00618085
0.01285
0.0117698
0.0108163
0.00997207
0.0092213
0.0085499
0.0079504
0.00741221
0.00692807
0.00649499
0.0060782
0.0135029
0.0123329
0.0113024
0.0103912
0.00958243
0.008862
0.00821851
0.00764222
0.00712463
0.00666193
0.00622742
0.0258446
0.024497
0.0232832
0.0221867
0.0211951
0.0202985
0.0194897
0.0187578
0.0180916
0.0174797
0.0169036
0.0130412
0.0121443
0.0113432
0.0106274
0.00998725
0.00941348
0.00889767
0.00843315
0.00801404
0.00763481
0.00730328
0.0124931
0.0114765
0.0105783
0.00978177
0.00907257
0.00843859
0.00787115
0.00736226
0.00690312
0.00649352
0.00610132
0.0134853
0.0123156
0.0112851
0.0103732
0.00956282
0.00884034
0.00819464
0.00761701
0.00709836
0.0066342
0.00619988
0.0143755
0.0131005
0.0119779
0.0109856
0.0101053
0.00932188
0.00862256
0.00799674
0.00743519
0.00693143
0.00646588
0.0147081
0.0133975
0.0122436
0.0112238
0.0103196
0.00951524
0.00879767
0.00815587
0.00758038
0.00706459
0.00658876
0.0257907
0.0244267
0.0231984
0.0220908
0.0210899
0.020191
0.0193709
0.0186207
0.0179368
0.0173075
0.0167384
0.0131319
0.0122216
0.0114063
0.0106777
0.0100259
0.00944186
0.00891737
0.00844532
0.00801999
0.00763676
0.00730011
0.0126842
0.0116383
0.0107148
0.00989605
0.00916746
0.00851653
0.0079336
0.00741107
0.0069406
0.00652149
0.0061225
0.0137476
0.0125447
0.0114855
0.010549
0.00971774
0.00897739
0.00831601
0.00772371
0.00719171
0.00671518
0.00627199
0.0147079
0.0133955
0.01224
0.0112185
0.0103126
0.00950638
0.00878685
0.00814293
0.00756518
0.00704676
0.00656994
0.0150724
0.0137218
0.0125326
0.0114816
0.0105496
0.00972044
0.00898072
0.00831902
0.00772563
0.00719328
0.00670468
0.0270563
0.0256728
0.0244386
0.0233229
0.0223062
0.0213756
0.0205286
0.0197407
0.019063
0.0183512
0.0176903
0.0134012
0.0125071
0.0117046
0.0109852
0.0103397
0.00975999
0.00923741
0.00876391
0.0083396
0.00795006
0.0076069
0.0126238
0.0115965
0.0106884
0.00988252
0.00916485
0.00852314
0.00794812
0.0074317
0.00696663
0.00655131
0.00614878
0.0135047
0.0123329
0.0113008
0.0103878
0.00957715
0.00885471
0.00820917
0.00763075
0.00711101
0.00664563
0.00621034
0.0143774
0.0131017
0.0119783
0.0109852
0.0101042
0.00931991
0.0086197
0.00799294
0.00743035
0.00692538
0.00645918
0.0147089
0.0133971
0.0122421
0.0112213
0.010316
0.00951053
0.00879174
0.0081486
0.00757166
0.00705418
0.00657757
0.0298842
0.0284649
0.027192
0.0260477
0.0250013
0.0240791
0.0231326
0.0222656
0.021498
0.0207846
0.0201049
0.0194781
0.0140564
0.0131927
0.0124011
0.0116998
0.0110686
0.0105081
0.0100088
0.00948516
0.0091371
0.00861125
0.00833963
0.00792372
0.0124084
0.0114395
0.0105794
0.00981531
0.00913075
0.00851166
0.00796297
0.0074736
0.00703676
0.0066397
0.00620274
0.0128506
0.0117698
0.0108158
0.00997068
0.00921941
0.00854708
0.00794695
0.00740814
0.00692334
0.00648956
0.0060728
0.0134847
0.0123151
0.0112847
0.010373
0.00956272
0.00884035
0.00819464
0.00761699
0.00709833
0.00663409
0.00619957
0.0137451
0.0125437
0.0114859
0.0105508
0.00972088
0.00898187
0.0083218
0.00773081
0.00720013
0.00672507
0.0062821
0.0360006
0.0345263
0.0331239
0.0318749
0.0307592
0.0297487
0.0287968
0.0279023
0.0270732
0.0262437
0.0254669
0.0247725
0.0156474
0.0150132
0.0140274
0.0134958
0.0126911
0.0122482
0.0116035
0.0112208
0.0107077
0.0103015
0.00995758
0.00954173
0.012471
0.0116057
0.0108071
0.0101196
0.00942064
0.00881562
0.00832541
0.00793652
0.00754111
0.0071366
0.00681655
0.0122446
0.0112916
0.0104445
0.00968983
0.00901255
0.00839813
0.00785422
0.00737287
0.00693836
0.00654599
0.00617839
0.0124906
0.0114744
0.0105766
0.00978032
0.00907156
0.00843786
0.00787067
0.007362
0.00690292
0.0064934
0.0061019
0.0126798
0.0116353
0.0107131
0.0098957
0.00916811
0.00851803
0.0079361
0.0074145
0.00694491
0.00652684
0.00612935
0.0507118
0.0488693
0.0471674
0.0455738
0.0441412
0.0428112
0.04159
0.0404511
0.0393705
0.0383547
0.0374081
0.0365435
0.0216294
0.0207286
0.0197329
0.018913
0.0180845
0.0173781
0.0167005
0.0161106
0.0155237
0.0149692
0.0144833
0.0140651
0.0150597
0.0142755
0.0133825
0.0128001
0.0119406
0.0114841
0.0107915
0.0103707
0.00996246
0.00945128
0.00914765
0.0134431
0.0125857
0.0118086
0.0111109
0.0104738
0.00990507
0.00938488
0.00892043
0.00850667
0.00810327
0.0077879
0.0130414
0.012145
0.0113438
0.0106277
0.00998727
0.00941319
0.00889706
0.00843211
0.00801255
0.00763298
0.0073008
0.0131298
0.01222
0.0114053
0.0106771
0.0100259
0.00944227
0.00891819
0.00844654
0.00802156
0.00763883
0.00730293
0.128979
0.125178
0.121708
0.118385
0.115341
0.112394
0.109673
0.107102
0.104609
0.102264
0.100048
0.0979871
0.0479965
0.046018
0.0443195
0.0427095
0.0412564
0.0398901
0.0386439
0.0374962
0.0364147
0.0354285
0.0345271
0.0337061
0.0328487
0.0313973
0.0301295
0.0288771
0.027719
0.0266807
0.0257651
0.0249198
0.024123
0.0233987
0.0227039
0.0276699
0.0262971
0.0250605
0.023941
0.0229373
0.0220267
0.0211992
0.0204456
0.0197647
0.0191225
0.0184853
0.0258697
0.0245243
0.0233111
0.022214
0.0212208
0.0203223
0.0195115
0.018777
0.0181083
0.0174941
0.0169162
0.0258069
0.024446
0.0232193
0.0221115
0.0211097
0.0202097
0.0193881
0.018636
0.0179501
0.0173184
0.0167495
)
;

boundaryField
{
    inlet
    {
        type            fixedValue;
        value           nonuniform List<scalar> 0();
    }
    ami1
    {
        type            cyclicAMI;
        value           nonuniform List<scalar> 0();
    }
    walls
    {
        type            epsilonWallFunction;
        blending        stepwise;
        value           nonuniform List<scalar> 
248
(
0.12895
0.0506973
0.0359949
0.0298845
0.0270567
0.125132
0.0488501
0.034523
0.0284652
0.0256727
0.121675
0.0471536
0.0331212
0.0271919
0.024438
0.118351
0.0455623
0.0318731
0.0260469
0.0233208
0.115315
0.0441324
0.0307562
0.0249997
0.0223025
0.112366
0.0428047
0.0297459
0.0240749
0.02137
0.10964
0.0415797
0.0287897
0.0231262
0.0205211
0.107077
0.0404436
0.0278973
0.0222576
0.0197322
0.104573
0.0393574
0.0270632
0.0214884
0.0190498
0.102237
0.0383407
0.0262313
0.0207712
0.018335
0.100009
0.0373967
0.0254544
0.0200932
0.0176729
0.128979
0.0479965
0.0328487
0.0276699
0.0258697
0.0258069
0.125178
0.046018
0.0313973
0.0262971
0.0245243
0.024446
0.121708
0.0443195
0.0301295
0.0250605
0.0233111
0.0232193
0.118385
0.0427095
0.0288771
0.023941
0.022214
0.0221115
0.115341
0.0412564
0.027719
0.0229373
0.0212208
0.0211097
0.112394
0.0398901
0.0266807
0.0220267
0.0203223
0.0202097
0.109673
0.0386439
0.0257651
0.0211992
0.0195115
0.0193881
0.107102
0.0374962
0.0249198
0.0204456
0.018777
0.018636
0.104609
0.0364147
0.024123
0.0197647
0.0181083
0.0179501
0.102264
0.0354285
0.0233987
0.0191225
0.0174941
0.0173184
0.100048
0.0345271
0.0227039
0.0184853
0.0169162
0.0167495
0.0979871
0.0337061
0.12895
0.0479687
0.0328185
0.0276391
0.0258446
0.0257907
0.0270563
0.0298842
0.0360006
0.0507118
0.128979
0.125132
0.0459821
0.0313628
0.026264
0.024497
0.0244267
0.0256728
0.0284649
0.0345263
0.0488693
0.125178
0.121675
0.0442897
0.0300943
0.0250275
0.0232832
0.0231984
0.0244386
0.027192
0.0331239
0.0471674
0.121708
0.118351
0.0426819
0.0288476
0.0239098
0.0221867
0.0220908
0.0233229
0.0260477
0.0318749
0.0455738
0.118385
0.115315
0.0412364
0.0276935
0.0229084
0.0211951
0.0210899
0.0223062
0.0250013
0.0307592
0.0441412
0.115341
0.112366
0.0398733
0.0266591
0.0220013
0.0202985
0.020191
0.0213756
0.0240791
0.0297487
0.0428112
0.112394
0.10964
0.0386275
0.0257472
0.0211773
0.0194897
0.0193709
0.0205286
0.0231326
0.0287968
0.04159
0.109673
0.107077
0.0374816
0.0249036
0.0204268
0.0187578
0.0186207
0.0197407
0.0222656
0.0279023
0.0404511
0.107102
0.104573
0.0364002
0.0241093
0.0197485
0.0180916
0.0179368
0.019063
0.021498
0.0270732
0.0393705
0.104609
0.102237
0.0354153
0.0233865
0.0191087
0.0174797
0.0173075
0.0183512
0.0207846
0.0262437
0.0383547
0.102264
0.100009
0.0345183
0.0226916
0.0184725
0.0169036
0.0167384
0.0176903
0.0201049
0.0254669
0.0374081
0.100048
0.0194781
0.0247725
0.0365435
0.0979871
)
;
    }
    ami2
    {
        type            cyclicAMI;
        value           nonuniform List<scalar> 0();
    }
    outlet
    {
        type            zeroGradient;
    }
    procBoundary8to0
    {
        type            processor;
        value           nonuniform List<scalar> 
29
(
0.132946
0.052738
0.0376387
0.0314892
0.0285952
0.0498499
0.0229004
0.0169327
0.0150798
0.0144442
0.0344252
0.0161165
0.0135087
0.0135133
0.0137878
0.0291808
0.0144379
0.0133408
0.0140787
0.0148264
0.0273332
0.0140739
0.0136541
0.014811
0.0158168
0.0161881
0.0151069
0.0161903
0.0165972
)
;
    }
    procBoundary8to1
    {
        type            processor;
        value           nonuniform List<scalar> 
33
(
0.027286
0.0141824
0.0138698
0.0285947
0.0144474
0.0137892
0.0148296
0.0158195
0.0161909
0.0314861
0.0150845
0.0135124
0.0140768
0.0148084
0.0151018
0.0376343
0.0169335
0.0135077
0.0133386
0.0136492
0.0138626
0.0527376
0.0229137
0.0161366
0.0144519
0.0140815
0.0141892
0.132962
0.0498657
0.0344327
0.0291958
0.0273494
0.0272957
)
;
    }
    procBoundary8to7
    {
        type            processor;
        value           nonuniform List<scalar> 
68
(
0.0979574
0.0365273
0.0247582
0.0194603
0.0170719
0.0336958
0.0139959
0.00951125
0.00791552
0.00731678
0.0220472
0.0086751
0.00648114
0.00592452
0.00585511
0.017905
0.00738312
0.00581806
0.005745
0.00587806
0.0163816
0.00701432
0.00578919
0.0058475
0.00608457
0.00619732
0.0162018
0.00700955
0.00581029
0.0059115
0.00617618
0.00630072
0.0170897
0.0170897
0.00731799
0.00731799
0.00583546
0.00585777
0.00607548
0.00618497
0.0188905
0.00774053
0.00591795
0.00591795
0.00573804
0.00584724
0.00592391
0.0241414
0.00926081
0.00647858
0.00647858
0.00581814
0.00579033
0.00581897
0.0357368
0.0136137
0.00866888
0.00866888
0.00738824
0.00701231
0.00701232
0.0960339
0.0329369
0.0220553
0.0220553
0.0179135
0.0163918
0.0162087
)
;
    }
    procBoundary8to9
    {
        type            processor;
        value           nonuniform List<scalar> 
132
(
0.0257831
0.0244212
0.0231938
0.0220864
0.0210854
0.0201854
0.0193642
0.0186126
0.0179273
0.0172957
0.0167291
0.013129
0.0122192
0.0114052
0.0106781
0.010028
0.00944565
0.00892276
0.00845227
0.00802841
0.00764682
0.00731197
0.0126811
0.0116372
0.0107155
0.00989883
0.00917234
0.00852317
0.00794219
0.0074219
0.00695374
0.00653671
0.00613808
0.0137458
0.0125451
0.0114881
0.0105538
0.00972493
0.00898707
0.00832831
0.00773882
0.00720976
0.00673663
0.00629431
0.0137458
0.0125451
0.0114881
0.0105538
0.00972493
0.00898707
0.00832831
0.00773882
0.00720976
0.00673663
0.00629431
0.014377
0.0131028
0.0119808
0.0109891
0.0101094
0.00932652
0.00862786
0.00800276
0.00744199
0.00693913
0.0064738
0.0147092
0.013398
0.0122434
0.011223
0.0103181
0.00951296
0.00879458
0.00815194
0.00757558
0.00705877
0.00658262
0.0143788
0.0131043
0.0119821
0.0109902
0.0101104
0.00932739
0.00862857
0.00800333
0.00744247
0.00693952
0.00647402
0.0135035
0.0123338
0.0113034
0.0103923
0.00958349
0.00886288
0.00821926
0.00764287
0.00712514
0.00666224
0.00622732
0.0126217
0.0115959
0.0106893
0.00988506
0.00916893
0.00852861
0.00795547
0.00744042
0.00697714
0.0065639
0.00616239
0.0133987
0.0125049
0.0117037
0.0109853
0.0103414
0.00976262
0.00924102
0.00877068
0.00834426
0.0079642
0.00760658
0.0270651
0.0256833
0.0244494
0.0233345
0.0223179
0.0213868
0.0205384
0.0197499
0.0190685
0.0183542
0.0176911
)
;
    }
}


// ************************************************************************* //
