/*--------------------------------*- C++ -*----------------------------------*\
| =========                 |                                                 |
| \\      /  F ield         | OpenFOAM: The Open Source CFD Toolbox           |
|  \\    /   O peration     | Version:  2212                                  |
|   \\  /    A nd           | Website:  www.openfoam.com                      |
|    \\/     M anipulation  |                                                 |
\*---------------------------------------------------------------------------*/
FoamFile
{
    version     2.0;
    format      ascii;
    arch        "LSB;label=32;scalar=64";
    class       volVectorField;
    location    "1.85";
    object      U;
}
// * * * * * * * * * * * * * * * * * * * * * * * * * * * * * * * * * * * * * //

dimensions      [0 1 -1 0 0 0 0];

internalField   nonuniform List<vector> 
690
(
(0.0283989 3.0946e-06 8.798e-05)
(0.0279735 2.2502e-06 8.2173e-05)
(0.0275821 2.90673e-06 7.83836e-05)
(0.0271968 3.50756e-06 7.57225e-05)
(0.0268329 2.36663e-06 7.25221e-05)
(0.0264754 1.27193e-06 6.77752e-05)
(0.0261329 -6.0617e-07 6.3176e-05)
(0.0258061 -1.09207e-06 5.82217e-05)
(0.0254869 -2.56846e-06 5.40699e-05)
(0.0251777 -4.46672e-06 5.02147e-05)
(0.0248722 -7.30112e-06 4.6235e-05)
(0.0467127 -0.000342432 0.000177932)
(0.046101 -0.0003304 0.000164988)
(0.0455477 -0.000322144 0.000153717)
(0.0449971 -0.000316776 0.000142933)
(0.044485 -0.000312532 0.000130876)
(0.0439783 -0.000307034 0.00011822)
(0.0434938 -0.000301161 0.000106453)
(0.0430252 -0.000294276 9.80301e-05)
(0.0425554 -0.000290765 9.45725e-05)
(0.0420953 -0.000285192 9.18126e-05)
(0.041634 -0.000270584 8.56611e-05)
(0.0641002 -0.000939959 1.48582e-05)
(0.0633844 -0.000913493 -5.53113e-06)
(0.0627208 -0.000890719 -2.51165e-05)
(0.0620442 -0.000870616 -4.38528e-05)
(0.061402 -0.000851231 -6.16217e-05)
(0.0607467 -0.000833416 -7.57357e-05)
(0.0601115 -0.000814415 -8.52765e-05)
(0.0594738 -0.000801206 -8.74863e-05)
(0.0588308 -0.000788637 -8.40734e-05)
(0.0582063 -0.000759599 -8.00555e-05)
(0.0575776 -0.000692512 -8.14169e-05)
(0.07545 -0.001237 -0.000276927)
(0.074602 -0.0012118 -0.000295043)
(0.0737699 -0.00119268 -0.000305208)
(0.0729452 -0.00117709 -0.000309487)
(0.0721245 -0.00116297 -0.000309785)
(0.0713076 -0.00114892 -0.000306375)
(0.0704889 -0.00113197 -0.000300777)
(0.0696852 -0.00111723 -0.000292432)
(0.0688752 -0.00109861 -0.000284977)
(0.068095 -0.00107547 -0.000277164)
(0.0673155 -0.00104746 -0.000266641)
(0.0808262 -0.00143437 -0.00037953)
(0.0799756 -0.00142044 -0.000397982)
(0.0791263 -0.00140826 -0.000405624)
(0.0782781 -0.00139589 -0.000405755)
(0.0774317 -0.00138214 -0.000400734)
(0.0765882 -0.00136678 -0.000392146)
(0.0757489 -0.0013488 -0.000382029)
(0.0749153 -0.00132975 -0.000371278)
(0.0740903 -0.00130804 -0.000361207)
(0.0732706 -0.00128333 -0.000353582)
(0.0724585 -0.00125595 -0.00035005)
(0.0438658 7.7779e-06 0.000139087)
(0.0432971 2.38461e-06 0.000130752)
(0.0427735 -2.55515e-06 0.00012455)
(0.0422296 -6.32843e-06 0.000117908)
(0.0417233 -7.61612e-06 0.000110358)
(0.0412188 -6.96455e-06 0.00010078)
(0.0407379 -8.35199e-06 9.28073e-05)
(0.0402777 -7.85413e-06 8.32529e-05)
(0.0398263 -9.91128e-06 7.56132e-05)
(0.0394012 -1.19317e-05 6.87975e-05)
(0.0389841 -1.62987e-05 6.31234e-05)
(0.0759078 -0.00015752 0.000166567)
(0.0754821 -0.000154081 0.00016258)
(0.0750846 -0.000167217 0.000163958)
(0.0746566 -0.000182011 0.000164907)
(0.0742626 -0.000200246 0.000165974)
(0.0738372 -0.000207948 0.000159015)
(0.073433 -0.000215867 0.00015169)
(0.0730162 -0.000214214 0.00013886)
(0.0725896 -0.000214392 0.000127931)
(0.0721823 -0.000222122 0.000123208)
(0.0717422 -0.000241774 0.000126972)
(0.0929884 -0.000931278 8.478e-05)
(0.0928668 -0.000904984 7.14518e-05)
(0.0927333 -0.000889077 5.8335e-05)
(0.0926166 -0.000874723 4.30096e-05)
(0.0924853 -0.000865953 2.91761e-05)
(0.0923618 -0.000855222 1.48243e-05)
(0.0922164 -0.000852312 4.48016e-06)
(0.092067 -0.00084065 -7.2123e-06)
(0.0919064 -0.000843917 -1.01186e-05)
(0.0917362 -0.000843184 -1.06108e-05)
(0.0915511 -0.000838256 -8.51309e-06)
(0.101471 -0.0013641 -0.000215064)
(0.101402 -0.00133341 -0.000239781)
(0.101329 -0.00131094 -0.000257188)
(0.101262 -0.00129311 -0.000268868)
(0.101186 -0.00127912 -0.000275406)
(0.101109 -0.00126617 -0.000278064)
(0.101024 -0.0012626 -0.000275567)
(0.100926 -0.00125538 -0.000271273)
(0.100826 -0.00125204 -0.000263987)
(0.100703 -0.00124455 -0.000254163)
(0.100586 -0.00122698 -0.000243205)
(0.10511 -0.00158098 -0.000308579)
(0.105063 -0.00156241 -0.00033599)
(0.105012 -0.00154819 -0.000352572)
(0.104956 -0.00153581 -0.000360336)
(0.104894 -0.00152435 -0.00036146)
(0.104824 -0.00151301 -0.000357952)
(0.104748 -0.00150172 -0.000350755)
(0.104663 -0.00148993 -0.000341383)
(0.104574 -0.00147388 -0.000329632)
(0.104479 -0.001453 -0.000317012)
(0.104385 -0.00143516 -0.000304621)
(0.0577577 -0.00039363 0.000593885)
(0.0570721 -0.000376603 0.000566743)
(0.05644 -0.000333951 0.000500875)
(0.0558117 -0.000290949 0.00042725)
(0.055256 -0.000268427 0.000379727)
(0.0546883 -0.000256869 0.000348507)
(0.0541634 -0.000249403 0.000324767)
(0.0536461 -0.000243998 0.000304464)
(0.0531357 -0.000239091 0.000287037)
(0.052663 -0.000230552 0.000270204)
(0.0521832 -0.000218326 0.000252453)
(0.0898443 -0.00036677 0.00050758)
(0.0897496 -0.000362001 0.000506935)
(0.0896431 -0.000360294 0.000499973)
(0.0895467 -0.000370254 0.000495961)
(0.0894284 -0.000382747 0.000488706)
(0.089318 -0.000390588 0.000473909)
(0.0891869 -0.000404149 0.000464073)
(0.0890516 -0.000401371 0.000440407)
(0.088914 -0.000410866 0.000428881)
(0.0887643 -0.000417372 0.000416536)
(0.0886062 -0.000428064 0.000409077)
(0.103815 -0.000934281 0.000406959)
(0.10401 -0.000914993 0.000401827)
(0.104197 -0.000903311 0.000391954)
(0.104395 -0.000900966 0.000381546)
(0.104579 -0.00090648 0.000372949)
(0.104768 -0.000908662 0.000360619)
(0.104948 -0.000906056 0.000344518)
(0.105131 -0.000905537 0.000329708)
(0.105309 -0.000913737 0.000321589)
(0.10547 -0.000923232 0.000316522)
(0.105633 -0.000933918 0.000315478)
(0.110795 -0.00131618 4.81151e-05)
(0.111059 -0.00129004 3.28231e-05)
(0.111323 -0.00127135 1.95898e-05)
(0.111589 -0.00125867 8.99974e-06)
(0.111853 -0.00125122 1.48287e-06)
(0.112115 -0.00124631 -4.51234e-06)
(0.112375 -0.00124355 -9.29854e-06)
(0.112628 -0.00124115 -1.36796e-05)
(0.112878 -0.00124094 -1.4915e-05)
(0.113118 -0.00124767 -1.08771e-05)
(0.113354 -0.0012495 -4.91541e-06)
(0.113945 -0.00150429 -0.000156157)
(0.114234 -0.0014862 -0.000172703)
(0.114521 -0.00147164 -0.000184912)
(0.114804 -0.00145993 -0.000192633)
(0.115084 -0.00145041 -0.000196319)
(0.115359 -0.00144219 -0.000197266)
(0.115631 -0.00143499 -0.000196091)
(0.115898 -0.00142819 -0.000192968)
(0.11616 -0.00142075 -0.000187433)
(0.116419 -0.00141402 -0.000179641)
(0.116673 -0.00140519 -0.0001699)
(0.0685592 -0.000482397 0.000984153)
(0.0677923 -0.000471722 0.000969764)
(0.0670452 -0.0004578 0.000938999)
(0.0663212 -0.000440056 0.000894223)
(0.0656287 -0.000421602 0.000845341)
(0.0649627 -0.000406078 0.000798417)
(0.0643273 -0.000391803 0.000753684)
(0.0637172 -0.000381973 0.00071599)
(0.0631245 -0.000369835 0.000683178)
(0.0625588 -0.000355423 0.000653296)
(0.0619976 -0.000338792 0.000624639)
(0.0973897 -0.000343032 0.000982904)
(0.0973755 -0.000328151 0.000977429)
(0.0973538 -0.000313141 0.000963773)
(0.0973347 -0.000299005 0.00094354)
(0.097305 -0.000288433 0.000918999)
(0.0972808 -0.0002827 0.000893046)
(0.0972512 -0.000282578 0.000868354)
(0.0972224 -0.000282968 0.000842726)
(0.0971949 -0.000286249 0.000820081)
(0.0971597 -0.000288754 0.000794331)
(0.0971308 -0.000298748 0.00077554)
(0.109282 -0.000669814 0.000844017)
(0.109567 -0.000650455 0.000841791)
(0.109851 -0.000636169 0.000834499)
(0.110135 -0.000627181 0.000823636)
(0.110416 -0.000623577 0.000810971)
(0.110696 -0.000622406 0.000796636)
(0.110975 -0.000622201 0.000780767)
(0.111253 -0.000622062 0.00076367)
(0.111529 -0.000625592 0.000747149)
(0.1118 -0.00063318 0.000732583)
(0.112071 -0.000647028 0.000723116)
(0.115332 -0.000922463 0.000419793)
(0.115718 -0.000898761 0.000411197)
(0.116103 -0.00088059 0.000401975)
(0.116486 -0.000867484 0.000392593)
(0.116868 -0.000858736 0.000383462)
(0.117248 -0.000852521 0.000374273)
(0.117625 -0.000848054 0.000364939)
(0.117999 -0.000845216 0.00035588)
(0.118369 -0.000845168 0.000348279)
(0.118736 -0.000849152 0.000343393)
(0.119101 -0.000854124 0.000340334)
(0.118238 -0.0010449 8.0735e-05)
(0.118666 -0.0010269 7.30669e-05)
(0.119089 -0.00101199 6.65369e-05)
(0.119508 -0.000999819 6.12291e-05)
(0.119924 -0.000989954 5.7149e-05)
(0.120336 -0.000981759 5.40099e-05)
(0.120744 -0.000974809 5.16434e-05)
(0.121148 -0.000968858 5.01633e-05)
(0.121548 -0.000963707 5.00254e-05)
(0.121946 -0.000960188 5.16074e-05)
(0.122339 -0.000956617 5.41363e-05)
(0.0765342 -0.000547481 0.00124864)
(0.0757356 -0.000542025 0.00124475)
(0.074936 -0.000527421 0.00123398)
(0.0741413 -0.000506982 0.00121694)
(0.0733572 -0.000485187 0.00119482)
(0.0725895 -0.000464896 0.00116878)
(0.0718418 -0.000446245 0.0011391)
(0.0711158 -0.000430058 0.00110748)
(0.0704111 -0.000414806 0.00107538)
(0.0697269 -0.000400557 0.00104383)
(0.0690617 -0.000386327 0.00101277)
(0.102301 -0.000369802 0.00136285)
(0.10228 -0.000363547 0.00136235)
(0.10225 -0.000352697 0.00135583)
(0.102214 -0.000338822 0.00134374)
(0.102172 -0.0003241 0.00132708)
(0.102128 -0.00031005 0.00130717)
(0.102083 -0.000297877 0.00128481)
(0.102039 -0.000287814 0.00126067)
(0.101996 -0.00027916 0.00123474)
(0.101953 -0.000272355 0.00120726)
(0.101915 -0.000264403 0.00117508)
(0.112637 -0.000483995 0.00123306)
(0.112938 -0.000473094 0.00123263)
(0.113234 -0.000462689 0.00122798)
(0.113526 -0.000453249 0.00121962)
(0.113815 -0.000445078 0.00120837)
(0.114102 -0.000437691 0.00119504)
(0.114386 -0.000430972 0.00118024)
(0.114669 -0.000425249 0.00116435)
(0.11495 -0.000421829 0.0011474)
(0.115229 -0.000421839 0.00113127)
(0.115507 -0.000423864 0.00111359)
(0.117886 -0.000572568 0.00076227)
(0.118316 -0.000558585 0.000756503)
(0.118741 -0.000546708 0.000749455)
(0.119162 -0.000536963 0.000741352)
(0.119579 -0.00052919 0.000732454)
(0.119993 -0.000522877 0.000722936)
(0.120404 -0.000517697 0.000712928)
(0.120811 -0.000513742 0.000702671)
(0.121215 -0.000511539 0.000692506)
(0.121617 -0.000511906 0.000683334)
(0.122016 -0.000513313 0.000673996)
(0.120503 -0.000588308 0.000312605)
(0.120989 -0.000576947 0.000308056)
(0.121469 -0.000567112 0.000303472)
(0.121944 -0.000558755 0.000298931)
(0.122414 -0.000551752 0.000294509)
(0.122878 -0.000545894 0.00029023)
(0.123339 -0.000541016 0.000286128)
(0.123795 -0.000537124 0.000282342)
(0.124247 -0.000534275 0.000279057)
(0.124696 -0.00053275 0.000276524)
(0.125141 -0.000531594 0.000274161)
(0.121263 -0.000492176 -0.00013774)
(0.121766 -0.000485752 -0.000135627)
(0.122261 -0.000479685 -0.000133661)
(0.122751 -0.000473965 -0.000131869)
(0.123235 -0.000468586 -0.000130257)
(0.123714 -0.00046353 -0.000128838)
(0.124188 -0.000458771 -0.00012761)
(0.124658 -0.000454337 -0.000126579)
(0.125123 -0.000450277 -0.000125735)
(0.125585 -0.000446844 -0.000125124)
(0.126043 -0.000443334 -0.00012452)
(0.0808309 -0.000496073 0.00140847)
(0.0800096 -0.000503179 0.00140425)
(0.0791832 -0.000500131 0.00139589)
(0.0783558 -0.0004897 0.0013837)
(0.0775311 -0.000475025 0.00136813)
(0.076713 -0.000458066 0.0013493)
(0.0759048 -0.000440213 0.0013271)
(0.075109 -0.000422698 0.00130246)
(0.0743278 -0.000406171 0.00127651)
(0.0735608 -0.000391708 0.00125046)
(0.0728104 -0.00038104 0.00122422)
(0.105093 -0.000363381 0.00157254)
(0.105064 -0.000376246 0.00156792)
(0.105023 -0.000380682 0.00156163)
(0.104974 -0.000377985 0.00155305)
(0.104917 -0.000369867 0.00154202)
(0.104854 -0.00035805 0.00152865)
(0.104786 -0.00034388 0.00151312)
(0.104715 -0.000328863 0.0014959)
(0.104641 -0.000313881 0.00147654)
(0.104566 -0.0002996 0.00145448)
(0.104492 -0.000283136 0.00142459)
(0.114332 -0.000329433 0.00146407)
(0.114632 -0.000334564 0.001458)
(0.114926 -0.000336249 0.00145095)
(0.115214 -0.000335049 0.00144286)
(0.115498 -0.000331502 0.00143373)
(0.115777 -0.000326167 0.00142363)
(0.116052 -0.000319532 0.00141262)
(0.116324 -0.000312213 0.00140075)
(0.116593 -0.000304674 0.00138771)
(0.116859 -0.000297585 0.00137473)
(0.117123 -0.000289664 0.00135811)
(0.118924 -0.000247192 0.000979896)
(0.119364 -0.000246087 0.0009704)
(0.119799 -0.000244514 0.000961148)
(0.120228 -0.000242604 0.000952095)
(0.120652 -0.000240431 0.000943189)
(0.121072 -0.000238073 0.000934351)
(0.121487 -0.000235605 0.000925499)
(0.121899 -0.000233148 0.000916631)
(0.122307 -0.000230835 0.000907722)
(0.122712 -0.000228949 0.000899305)
(0.123114 -0.000226985 0.000889696)
(0.121264 -0.00013542 0.000491335)
(0.121767 -0.000133193 0.000484771)
(0.122263 -0.000131289 0.000478582)
(0.122753 -0.000129711 0.000472792)
(0.123237 -0.000128424 0.000467406)
(0.123715 -0.000127394 0.000462408)
(0.124189 -0.000126592 0.000457771)
(0.124658 -0.000126005 0.000453508)
(0.125123 -0.000125636 0.000449661)
(0.125584 -0.000125523 0.000446426)
(0.126041 -0.000125447 0.000443107)
(0.121991 1.14936e-07 -1.1078e-06)
(0.122512 1.12472e-07 -1.18829e-06)
(0.123026 5.47256e-08 -1.22909e-06)
(0.123533 -4.63418e-08 -1.21383e-06)
(0.124034 -1.79797e-07 -1.14526e-06)
(0.12453 -3.36613e-07 -1.03095e-06)
(0.12502 -5.08808e-07 -8.78929e-07)
(0.125505 -6.91433e-07 -6.97376e-07)
(0.125985 -8.79756e-07 -4.90042e-07)
(0.126462 -1.06989e-06 -2.6293e-07)
(0.126935 -1.26061e-06 -1.88158e-08)
(0.0808317 -0.000380276 0.00143267)
(0.0799825 -0.000397429 0.00141911)
(0.0791346 -0.000404166 0.00140685)
(0.0782881 -0.000403776 0.00139406)
(0.0774439 -0.000398486 0.00137967)
(0.0766028 -0.000389934 0.00136353)
(0.0757665 -0.000379932 0.00134487)
(0.0749362 -0.000369254 0.00132539)
(0.0741148 -0.000359048 0.00130354)
(0.0732993 -0.000350853 0.00127921)
(0.0724918 -0.000346713 0.00125244)
(0.105115 -0.000306895 0.00157902)
(0.105069 -0.000333488 0.00156072)
(0.105018 -0.000349675 0.00154651)
(0.104962 -0.000357281 0.00153401)
(0.1049 -0.00035843 0.00152224)
(0.10483 -0.000355032 0.00151058)
(0.104754 -0.000348075 0.00149891)
(0.10467 -0.000338878 0.0014869)
(0.104582 -0.000327473 0.00147102)
(0.104487 -0.000315458 0.00144983)
(0.104393 -0.000303556 0.00143031)
(0.113949 -0.000151984 0.0015032)
(0.114238 -0.000168428 0.00148492)
(0.114524 -0.000180793 0.00147013)
(0.114807 -0.000188856 0.00145819)
(0.115086 -0.000193005 0.00144841)
(0.115361 -0.000194422 0.00143996)
(0.115632 -0.000193747 0.00143252)
(0.115899 -0.000191154 0.00142551)
(0.11616 -0.000186215 0.00141793)
(0.116419 -0.000179195 0.00141077)
(0.116672 -0.00017036 0.00140135)
(0.11824 8.44982e-05 0.00104487)
(0.118668 7.68431e-05 0.00102658)
(0.119091 7.00783e-05 0.00101136)
(0.11951 6.43544e-05 0.000998901)
(0.119925 5.97436e-05 0.000988811)
(0.120336 5.60257e-05 0.000980476)
(0.120744 5.3054e-05 0.000973445)
(0.121147 5.09497e-05 0.000967452)
(0.121547 5.01695e-05 0.000962319)
(0.121943 5.10779e-05 0.000958707)
(0.122336 5.29321e-05 0.000954987)
(0.120503 0.000314928 0.000588521)
(0.120989 0.000310495 0.000576989)
(0.121469 0.000305831 0.000566925)
(0.121944 0.000301035 0.000558341)
(0.122413 0.000296224 0.000551155)
(0.122878 0.000291461 0.000545184)
(0.123338 0.000286805 0.000540261)
(0.123794 0.000282381 0.000536326)
(0.124245 0.00027838 0.000533413)
(0.124694 0.000275118 0.000531839)
(0.125139 0.000272109 0.00053074)
(0.121263 0.000492405 0.000135404)
(0.121766 0.000485944 0.00013311)
(0.122261 0.000479746 0.000131042)
(0.122751 0.00047382 0.000129261)
(0.123235 0.000468175 0.000127769)
(0.123714 0.000462808 0.00012655)
(0.124188 0.000457711 0.000125583)
(0.124657 0.00045292 0.00012485)
(0.125122 0.000448492 0.000124345)
(0.125584 0.000444659 0.00012411)
(0.126041 0.000440727 0.000123949)
(0.0754521 -0.000276503 0.00123389)
(0.0746054 -0.000293546 0.0012097)
(0.0737751 -0.000302983 0.00119107)
(0.0729519 -0.000306845 0.00117543)
(0.0721338 -0.000306921 0.00116104)
(0.0713182 -0.00030356 0.0011463)
(0.0705034 -0.000297912 0.00112899)
(0.0697012 -0.000289934 0.00111361)
(0.0688937 -0.000282388 0.00109534)
(0.0681159 -0.000273705 0.00107425)
(0.0673364 -0.000262955 0.00104726)
(0.0665953 -0.000250123 0.00101752)
(0.101478 -0.000212549 0.0013606)
(0.101408 -0.000236794 0.00133066)
(0.101335 -0.0002539 0.00130877)
(0.101268 -0.000265371 0.00129141)
(0.101192 -0.000271925 0.00127701)
(0.101116 -0.000274481 0.00126451)
(0.10103 -0.000272113 0.00126064)
(0.100933 -0.000267972 0.00125221)
(0.100833 -0.000260787 0.00124936)
(0.100713 -0.000251695 0.0012405)
(0.100598 -0.000241331 0.00122262)
(0.10046 -0.000230118 0.00119923)
(0.110802 5.29499e-05 0.00131469)
(0.111065 3.74646e-05 0.00128838)
(0.111328 2.37919e-05 0.00126949)
(0.111593 1.26924e-05 0.00125663)
(0.111856 4.63407e-06 0.00124894)
(0.112118 -1.75385e-06 0.001244)
(0.112376 -6.90412e-06 0.00124109)
(0.11263 -1.15489e-05 0.00123861)
(0.11288 -1.31375e-05 0.00123827)
(0.11312 -9.73071e-06 0.00124426)
(0.113356 -4.43147e-06 0.00124548)
(0.115336 0.000423742 0.000923383)
(0.115721 0.000415113 0.000899133)
(0.116105 0.000405563 0.000880359)
(0.116487 0.000395685 0.000866695)
(0.116868 0.000385976 0.000857473)
(0.117247 0.000376212 0.000850973)
(0.117624 0.000366329 0.000846301)
(0.117997 0.000356758 0.000843278)
(0.118367 0.000348665 0.00084307)
(0.118734 0.000343282 0.000846719)
(0.119099 0.000339668 0.000851365)
(0.117885 0.000764377 0.00057396)
(0.118315 0.000758845 0.000559639)
(0.11874 0.00075178 0.000547271)
(0.11916 0.000743463 0.000536988)
(0.119577 0.000734201 0.000528706)
(0.119991 0.00072422 0.000521979)
(0.120401 0.000713689 0.000516481)
(0.120808 0.000702873 0.000512271)
(0.121212 0.000692129 0.000509867)
(0.121614 0.000682374 0.000510045)
(0.122013 0.000672421 0.000511267)
(0.118921 0.000980649 0.000247973)
(0.119361 0.000971425 0.000246807)
(0.119795 0.000962301 0.000244969)
(0.120224 0.000953229 0.000242694)
(0.120648 0.000944157 0.000240125)
(0.121068 0.000935034 0.000237373)
(0.121484 0.000925794 0.000234542)
(0.121896 0.000916479 0.000231738)
(0.122304 0.00090706 0.000229099)
(0.12271 0.000898127 0.000226907)
(0.123112 0.000887905 0.000224672)
(0.064103 1.2622e-05 0.000934908)
(0.0633883 -5.15671e-06 0.000910607)
(0.0627256 -2.26873e-05 0.000889363)
(0.0620493 -4.02894e-05 0.000869806)
(0.0614085 -5.75089e-05 0.000850489)
(0.0607533 -7.17718e-05 0.000831928)
(0.0601219 -8.14198e-05 0.00081282)
(0.0594815 -8.44395e-05 0.000798039)
(0.0588483 -8.12924e-05 0.000785836)
(0.0582189 -7.72033e-05 0.000759737)
(0.0575908 -7.83046e-05 0.000694421)
(0.0569998 -7.80155e-05 0.000615496)
(0.0929975 8.36353e-05 0.000925925)
(0.092873 7.16244e-05 0.00090065)
(0.092739 5.98656e-05 0.000885796)
(0.092621 4.56845e-05 0.000872279)
(0.0924903 3.25775e-05 0.000863706)
(0.0923665 1.90092e-05 0.000853828)
(0.0922215 8.06927e-06 0.000849006)
(0.0920743 -1.986e-06 0.000841326)
(0.0919091 -5.08796e-06 0.000844085)
(0.0917442 -8.16346e-06 0.000837512)
(0.0915599 -6.26778e-06 0.000833213)
(0.0913553 -1.96627e-06 0.000825012)
(0.103828 0.000408812 0.000932832)
(0.104019 0.000403793 0.000912913)
(0.104203 0.000393928 0.000900656)
(0.1044 0.000383602 0.000898033)
(0.104582 0.00037496 0.000903232)
(0.10477 0.000362838 0.000905601)
(0.10495 0.000346913 0.00090307)
(0.105133 0.000332006 0.000902578)
(0.10531 0.00032425 0.00091148)
(0.105472 0.000319272 0.00092073)
(0.105636 0.000317531 0.000930274)
(0.109291 0.000845492 0.000671695)
(0.109573 0.000843533 0.000651344)
(0.109854 0.000836331 0.000636024)
(0.110136 0.000825415 0.000626091)
(0.110415 0.000812571 0.000621677)
(0.110694 0.000798094 0.000620035)
(0.110973 0.000782099 0.000619551)
(0.11125 0.000764843 0.000619368)
(0.111525 0.000748189 0.000622791)
(0.111796 0.000733596 0.000630053)
(0.112068 0.000723734 0.000643357)
(0.112638 0.00123302 0.000485953)
(0.112937 0.00123316 0.000474622)
(0.113232 0.0012289 0.000463522)
(0.113523 0.00122075 0.000453295)
(0.113811 0.00120954 0.000444362)
(0.114096 0.00119615 0.000436349)
(0.11438 0.00118119 0.000429159)
(0.114663 0.00116509 0.000423085)
(0.114943 0.00114787 0.000419391)
(0.115223 0.00113143 0.000419132)
(0.115501 0.0011133 0.000420788)
(0.114327 0.00146331 0.000330174)
(0.114627 0.00145775 0.000335382)
(0.114921 0.00145113 0.000336798)
(0.115208 0.00144335 0.000335162)
(0.115491 0.00143441 0.000331122)
(0.11577 0.00142438 0.000325271)
(0.116045 0.00141327 0.000318193)
(0.116317 0.00140126 0.000310404)
(0.116586 0.00138793 0.000302418)
(0.116853 0.00137457 0.000294861)
(0.117117 0.00135746 0.000286515)
(0.0467112 0.000173998 0.000339708)
(0.0461065 0.000163207 0.000328662)
(0.0455519 0.000153933 0.000321034)
(0.0450039 0.000144636 0.000315956)
(0.0444901 0.000133581 0.000311654)
(0.0439839 0.00012145 0.000306065)
(0.0435004 0.000109704 0.000300025)
(0.0430305 0.000101377 0.000293389)
(0.0425635 9.74556e-05 0.000289993)
(0.0421014 9.3339e-05 0.000284075)
(0.0416441 8.70283e-05 0.000270246)
(0.0412031 7.98097e-05 0.000249422)
(0.0759081 0.000165083 0.000157326)
(0.0754832 0.000161109 0.000152285)
(0.0750884 0.000162996 0.000164219)
(0.0746611 0.000165314 0.000179243)
(0.074269 0.000167154 0.000196894)
(0.0738433 0.000161898 0.000205839)
(0.0734411 0.000154957 0.000213344)
(0.0730224 0.00014283 0.00021261)
(0.0726009 0.000131739 0.000212871)
(0.0721908 0.000127199 0.000221081)
(0.0717514 0.000128867 0.000237936)
(0.071323 0.000134967 0.000260027)
(0.0898544 0.000508406 0.000367724)
(0.0897549 0.000507125 0.000361405)
(0.0896471 0.000500001 0.000358534)
(0.0895491 0.000496234 0.000367581)
(0.0894318 0.000489204 0.000379191)
(0.0893213 0.000474974 0.000386665)
(0.0891914 0.000466063 0.000400707)
(0.0890563 0.000442406 0.000397315)
(0.0889196 0.000430943 0.000406635)
(0.0887716 0.000419835 0.000414887)
(0.088614 0.000412481 0.000425852)
(0.0973992 0.000982219 0.000343985)
(0.0973812 0.000976963 0.000328254)
(0.0973568 0.000963732 0.000312527)
(0.0973357 0.000943942 0.000297647)
(0.0973051 0.000919744 0.000286288)
(0.0972802 0.000894025 0.000279925)
(0.0972506 0.000869572 0.000279374)
(0.0972218 0.000844129 0.000279428)
(0.0971947 0.000821467 0.000282304)
(0.0971599 0.000796628 0.000285182)
(0.097131 0.000776891 0.000294224)
(0.102304 0.00136112 0.000369755)
(0.102281 0.00136101 0.000363465)
(0.102249 0.00135501 0.00035235)
(0.102211 0.00134347 0.000338049)
(0.102169 0.0013273 0.000322783)
(0.102124 0.00130778 0.000308182)
(0.102079 0.00128571 0.000295544)
(0.102034 0.0012618 0.000285003)
(0.101991 0.00123595 0.000275892)
(0.101948 0.00120852 0.000268778)
(0.10191 0.00117611 0.000260385)
(0.105091 0.00157085 0.000361783)
(0.10506 0.00156654 0.000375027)
(0.105019 0.00156068 0.000379587)
(0.104969 0.00155253 0.00037681)
(0.104911 0.00154189 0.000368498)
(0.104848 0.00152887 0.000356342)
(0.10478 0.00151358 0.000341967)
(0.104709 0.00149655 0.000326505)
(0.104635 0.00147719 0.000311169)
(0.104561 0.00145501 0.000296529)
(0.104486 0.00142489 0.000279624)
(0.0283975 8.65198e-05 -2.78429e-06)
(0.0279763 8.13928e-05 -2.1332e-06)
(0.0275855 7.83143e-05 -2.99965e-06)
(0.0272017 7.63326e-05 -3.86166e-06)
(0.0268374 7.35837e-05 -3.00497e-06)
(0.0264799 6.92433e-05 -1.97451e-06)
(0.0261378 6.47268e-05 -2.23487e-07)
(0.0258104 5.99032e-05 2.91461e-07)
(0.0254919 5.56026e-05 1.723e-06)
(0.0251817 5.14191e-05 3.77053e-06)
(0.0248782 4.70289e-05 6.70309e-06)
(0.0245865 4.35941e-05 9.64787e-06)
(0.0438617 0.000137466 -7.38498e-06)
(0.0433014 0.000129634 -2.02907e-06)
(0.0427781 0.000124032 2.54062e-06)
(0.042238 0.000118179 5.86439e-06)
(0.0417303 0.000111209 6.62639e-06)
(0.0412266 0.000102149 5.33037e-06)
(0.0407459 9.43977e-05 6.32352e-06)
(0.0402845 8.52248e-05 5.60777e-06)
(0.0398348 7.76999e-05 7.89662e-06)
(0.0394067 7.05677e-05 1.05553e-05)
(0.038993 6.47864e-05 1.56488e-05)
(0.0385968 6.15563e-05 2.27194e-05)
(0.0577553 0.000588502 0.000387254)
(0.0570766 0.000563951 0.000373591)
(0.056447 0.000500638 0.000333293)
(0.055821 0.000427976 0.00029071)
(0.0552653 0.000380972 0.000267912)
(0.0546981 0.000350035 0.000255421)
(0.0541728 0.000326599 0.000247397)
(0.0536562 0.000306514 0.000241406)
(0.053145 0.000289327 0.000236411)
(0.0526728 0.000272631 0.00022845)
(0.0521944 0.000254916 0.000217019)
(0.068564 0.000977632 0.000473574)
(0.0678016 0.000965149 0.000465742)
(0.0670576 0.000936676 0.00045437)
(0.0663356 0.000893765 0.00043827)
(0.065644 0.000846228 0.000420596)
(0.0649781 0.000800144 0.000405046)
(0.0643423 0.000755935 0.000390313)
(0.0637319 0.000718425 0.000379981)
(0.0631391 0.00068571 0.000367416)
(0.0625729 0.000655594 0.000352348)
(0.0620139 0.000626812 0.000335368)
(0.0765443 0.00124371 0.000539496)
(0.0757482 0.0012407 0.000535871)
(0.0749509 0.0012312 0.000523205)
(0.074158 0.00121546 0.000504296)
(0.0733751 0.0011945 0.000483433)
(0.0726079 0.0011695 0.000463499)
(0.0718602 0.00114068 0.000444764)
(0.0711338 0.00110965 0.000428187)
(0.0704287 0.00107785 0.000412403)
(0.069744 0.00104624 0.000397448)
(0.0690791 0.00101496 0.000382766)
(0.0808398 0.00140511 0.000489442)
(0.0800201 0.00140136 0.000497492)
(0.0791954 0.0013937 0.000495693)
(0.0783694 0.00138229 0.000486433)
(0.0775457 0.00136757 0.000472628)
(0.076728 0.00134959 0.000456255)
(0.0759197 0.00132831 0.000438544)
(0.0751233 0.00130436 0.000420894)
(0.0743413 0.00127901 0.000403926)
(0.0735735 0.00125327 0.00038896)
(0.0728223 0.00122692 0.000377838)
)
;

boundaryField
{
    inlet
    {
        type            fixedValue;
        value           nonuniform List<vector> 0();
    }
    ami1
    {
        type            cyclicAMI;
        value           nonuniform List<vector> 0();
    }
    walls
    {
        type            noSlip;
    }
    ami2
    {
        type            cyclicAMI;
        value           nonuniform List<vector> 0();
    }
    outlet
    {
        type            zeroGradient;
    }
    procBoundary8to0
    {
        type            processor;
        value           nonuniform List<vector> 
29
(
(0.0288332 4.06224e-06 9.42647e-05)
(0.0473257 -0.000359523 0.000189802)
(0.0648102 -0.000975722 3.57649e-05)
(0.0763172 -0.00127361 -0.000248391)
(0.0816769 -0.00145201 -0.000346001)
(0.0444241 1.26658e-05 0.000146838)
(0.0763116 -0.000170485 0.000169391)
(0.0931402 -0.000960893 9.22411e-05)
(0.101555 -0.00140313 -0.000184102)
(0.105153 -0.00160439 -0.000270252)
(0.0584385 -0.000403314 0.000604941)
(0.0899476 -0.000386418 0.000508785)
(0.103637 -0.000962569 0.000407156)
(0.110536 -0.00135106 6.54255e-05)
(0.113652 -0.00152675 -0.000135024)
(0.0693302 -0.000489731 0.000988068)
(0.097404 -0.000360694 0.000981384)
(0.108999 -0.000695134 0.000840925)
(0.114944 -0.000952444 0.000427669)
(0.117806 -0.00106659 8.95993e-05)
(0.0773241 -0.000542342 0.00124454)
(0.102313 -0.000371036 0.00135652)
(0.112332 -0.000495305 0.00122893)
(0.117451 -0.000588746 0.000766693)
(0.12001 -0.000601298 0.000317103)
(0.120753 -0.000499038 -0.000139983)
(0.118477 -0.000247681 0.000989872)
(0.120754 -0.000137952 0.000498315)
(0.121463 6.07966e-08 -1.00214e-06)
)
;
    }
    procBoundary8to1
    {
        type            processor;
        value           nonuniform List<vector> 
33
(
(0.0816413 -0.000477117 0.00140745)
(0.105112 -0.000340603 0.00157481)
(0.114025 -0.00032006 0.00146952)
(0.0816812 -0.000348211 0.00144963)
(0.105158 -0.000269522 0.00160201)
(0.113657 -0.00013126 0.00152576)
(0.117808 9.30527e-05 0.00106676)
(0.120011 0.000319097 0.000601566)
(0.120753 0.000499182 0.000137871)
(0.0763175 -0.00024949 0.00126899)
(0.101563 -0.000182166 0.00139896)
(0.110545 7.01128e-05 0.00134978)
(0.114949 0.000431268 0.000953793)
(0.117451 0.000768288 0.00059025)
(0.118474 0.000990251 0.00024828)
(0.0648107 3.05002e-05 0.000967805)
(0.0931522 9.00221e-05 0.000954713)
(0.103655 0.000408929 0.000962029)
(0.10901 0.000841825 0.000697706)
(0.112334 0.00122814 0.000497263)
(0.114021 0.00146826 0.000320316)
(0.0473187 0.000183862 0.000355282)
(0.0763091 0.000167833 0.000171026)
(0.0899629 0.000508884 0.000387021)
(0.0974185 0.00097939 0.000361056)
(0.102318 0.00135384 0.000370153)
(0.10511 0.00157264 0.000338183)
(0.0288269 9.2195e-05 -3.67621e-06)
(0.0444127 0.000144764 -1.31446e-05)
(0.0584264 0.000597854 0.000393139)
(0.0693289 0.000980384 0.000478313)
(0.0773313 0.00123939 0.00053307)
(0.0816484 0.00140412 0.000470217)
)
;
    }
    procBoundary8to7
    {
        type            processor;
        value           nonuniform List<vector> 
68
(
(0.0245817 -1.0205e-05 4.30598e-05)
(0.0411984 -0.000249395 7.81391e-05)
(0.0569884 -0.000614343 -8.08337e-05)
(0.0665719 -0.00101814 -0.00025324)
(0.0716601 -0.00122511 -0.000347896)
(0.0385934 -2.33473e-05 6.02187e-05)
(0.0713116 -0.000265709 0.000134872)
(0.0913413 -0.000828579 -4.21714e-06)
(0.100446 -0.00120405 -0.000231393)
(0.104278 -0.00142436 -0.00029148)
(0.0517388 -0.000205901 0.000236783)
(0.0884309 -0.00044502 0.00040827)
(0.105775 -0.000948678 0.000321533)
(0.113581 -0.00124062 9.54792e-09)
(0.116923 -0.00139711 -0.00015967)
(0.0614702 -0.000324447 0.000599701)
(0.0970887 -0.00030882 0.000754308)
(0.112333 -0.000663923 0.000716202)
(0.119463 -0.000858575 0.000338691)
(0.122731 -0.000953856 5.66024e-05)
(0.0684131 -0.000373998 0.000980802)
(0.101876 -0.000260767 0.00114238)
(0.115785 -0.000427869 0.00109604)
(0.122414 -0.000515149 0.000665567)
(0.125584 -0.000531029 0.000272031)
(0.126498 -0.00044026 -0.000124074)
(0.0720684 -0.000373062 0.00119441)
(0.104419 -0.000267933 0.00139212)
(0.117386 -0.000282049 0.00134147)
(0.123513 -0.000225273 0.000880408)
(0.126496 -0.000125513 0.000440137)
(0.127404 -1.45088e-06 2.20235e-07)
(0.071696 -0.000344649 0.00122152)
(0.071696 -0.000344649 0.00122152)
(0.104289 -0.000291301 0.00141953)
(0.104289 -0.000291301 0.00141953)
(0.116921 -0.000160936 0.00139283)
(0.122726 5.47473e-05 0.000952098)
(0.125581 0.000269422 0.000530291)
(0.126496 0.000437204 0.00012397)
(0.0658557 -0.000234707 0.000988341)
(0.100322 -0.000217654 0.00117515)
(0.113583 -1.60499e-08 0.00123632)
(0.113583 -1.60499e-08 0.00123632)