/*--------------------------------*- C++ -*----------------------------------*\
| =========                 |                                                 |
| \\      /  F ield         | OpenFOAM: The Open Source CFD Toolbox           |
|  \\    /   O peration     | Version:  2212                                  |
|   \\  /    A nd           | Website:  www.openfoam.com                      |
|    \\/     M anipulation  |                                                 |
\*---------------------------------------------------------------------------*/
FoamFile
{
    version     2.0;
    format      ascii;
    arch        "LSB;label=32;scalar=64";
    class       surfaceVectorField;
    location    "1.85";
    object      Uf;
}
// * * * * * * * * * * * * * * * * * * * * * * * * * * * * * * * * * * * * * //

dimensions      [0 1 -1 0 0 0 0];

internalField   nonuniform List<vector> 
1815
(
(0.0281858 2.6724e-06 8.50765e-05)
(0.0357226 -0.000152824 0.000140219)
(0.0345842 4.9563e-05 9.60597e-05)
(0.0277778 2.57847e-06 8.02783e-05)
(0.0352227 -0.000147914 0.000131003)
(0.0341014 4.70933e-05 8.91882e-05)
(0.0273892 3.20715e-06 7.7053e-05)
(0.0347666 -0.000145318 0.00012523)
(0.0336571 4.81432e-05 8.37047e-05)
(0.0270162 2.93709e-06 7.41223e-05)
(0.0343152 -0.000144198 0.000120592)
(0.0332085 4.9659e-05 7.87133e-05)
(0.0266535 1.81928e-06 7.01487e-05)
(0.033892 -0.000143988 0.000114586)
(0.0327876 4.85157e-05 7.37576e-05)
(0.026305 3.32879e-07 6.54756e-05)
(0.0334748 -0.000142774 0.000106977)
(0.0323713 4.68871e-05 6.74204e-05)
(0.025968 -8.49119e-07 6.06988e-05)
(0.0330755 -0.000141154 9.91459e-05)
(0.0319734 4.37486e-05 6.18758e-05)
(0.0256469 -1.83026e-06 5.61458e-05)
(0.0326921 -0.000138278 9.24242e-05)
(0.0315933 4.2166e-05 5.54948e-05)
(0.0253327 -3.51759e-06 5.21423e-05)
(0.0323126 -0.000136613 8.74984e-05)
(0.0312212 3.9101e-05 5.03241e-05)
(0.0250248 -5.88392e-06 4.82249e-05)
(0.0319431 -0.000133507 8.22329e-05)
(0.0308657 3.46427e-05 4.59809e-05)
(0.0315753 -0.000125986 7.42854e-05)
(0.0305156 2.69609e-05 4.24971e-05)
(0.0464058 -0.000336416 0.00017146)
(0.0544584 -0.000628087 0.000129178)
(0.0596365 -0.000175731 0.000159866)
(0.0458255 -0.000326272 0.000159352)
(0.0538003 -0.000608602 0.00011166)
(0.0591071 -0.000167489 0.000150884)
(0.0452726 -0.00031946 0.000148325)
(0.0531979 -0.000591279 9.34963e-05)
(0.0586228 -0.000165762 0.000144761)
(0.0447429 -0.000314654 0.000136905)
(0.0525912 -0.000576499 7.56766e-05)
(0.0581264 -0.000167306 0.000138861)
(0.0442306 -0.000309783 0.000124548)
(0.0520211 -0.000563048 5.80531e-05)
(0.0576666 -0.000172288 0.000132503)
(0.043737 -0.000304097 0.000112337)
(0.0514482 -0.000550294 4.25779e-05)
(0.0571959 -0.000172999 0.000122425)
(0.0432575 -0.000297718 0.000102241)
(0.0508966 -0.000537368 3.03234e-05)
(0.056747 -0.000174561 0.000112828)
(0.0427916 -0.00029252 9.63013e-05)
(0.0503527 -0.000526882 2.37065e-05)
(0.0563013 -0.000170338 0.000102508)
(0.0423265 -0.000287979 9.31926e-05)
(0.0498057 -0.000519746 2.38127e-05)
(0.0558506 -0.000170657 9.60802e-05)
(0.0418636 -0.000277888 8.87369e-05)
(0.0492724 -0.000503673 2.40151e-05)
(0.0554139 -0.000173777 9.28819e-05)
(0.0487365 -0.000465474 1.97364e-05)
(0.054962 -0.000179341 9.18891e-05)
(0.063741 -0.000926726 4.66356e-06)
(0.0694086 -0.00104873 -0.00017016)
(0.0773857 -0.00086714 4.42667e-05)
(0.0630533 -0.000902106 -1.53238e-05)
(0.068631 -0.00102432 -0.000187136)
(0.0769432 -0.00084112 2.71393e-05)
(0.0623826 -0.000880668 -3.44847e-05)
(0.0678885 -0.00100459 -0.000200171)
(0.0765234 -0.000820101 1.04728e-05)
(0.0617241 -0.000860923 -5.27372e-05)
(0.0671426 -0.000987859 -0.000210113)
(0.0761042 -0.000801922 -6.72358e-06)
(0.0610736 -0.000842324 -6.86787e-05)
(0.066417 -0.00097212 -0.000217801)
(0.075697 -0.000786881 -2.27041e-05)
(0.0604299 -0.000823916 -8.05061e-05)
(0.0656861 -0.000957241 -0.000221826)
(0.0752863 -0.000771629 -3.69552e-05)
(0.0597907 -0.000807811 -8.63814e-05)
(0.0649651 -0.000940572 -0.000222081)
(0.0748764 -0.000758843 -4.69128e-05)
(0.0591544 -0.000794922 -8.57798e-05)
(0.0642497 -0.000928028 -0.000217129)
(0.0744632 -0.000746719 -5.34687e-05)
(0.0585194 -0.000774118 -8.20645e-05)
(0.0635286 -0.000913757 -0.000210007)
(0.0740421 -0.000742486 -5.29199e-05)
(0.057891 -0.000726055 -8.07362e-05)
(0.0628313 -0.000890279 -0.000199704)
(0.0736265 -0.000728916 -5.08783e-05)
(0.062132 -0.000846014 -0.000188187)
(0.0732018 -0.000694682 -5.04785e-05)
(0.0750254 -0.0012244 -0.000285985)
(0.0780441 -0.00133786 -0.000314495)
(0.087635 -0.00124895 -0.000244687)
(0.0741861 -0.00120224 -0.000300126)
(0.0771948 -0.0013178 -0.000333395)
(0.0871516 -0.00122145 -0.000265913)
(0.0733576 -0.00118488 -0.000307347)
(0.0763544 -0.00130174 -0.000342959)
(0.0866752 -0.00120044 -0.000279447)
(0.0725351 -0.00117003 -0.000309636)
(0.0755183 -0.00128742 -0.000345843)
(0.0862051 -0.00118363 -0.000287179)
(0.0717154 -0.00115594 -0.00030808)
(0.0746853 -0.00127323 -0.000344101)
(0.0857335 -0.00116934 -0.000290385)
(0.0708989 -0.00114045 -0.000303576)
(0.0738555 -0.00125826 -0.000338804)
(0.0852631 -0.0011557 -0.000289808)
(0.070086 -0.0011246 -0.000296605)
(0.0730269 -0.00124023 -0.000332251)
(0.0847877 -0.00114394 -0.000285588)
(0.0692801 -0.00110792 -0.000288705)
(0.0722088 -0.00122277 -0.000324112)
(0.0843144 -0.00113267 -0.000279137)
(0.0684853 -0.00108704 -0.000281071)
(0.0713915 -0.00120155 -0.000317738)
(0.083837 -0.00112019 -0.000271691)
(0.0677064 -0.00106146 -0.000271902)
(0.0705922 -0.00117564 -0.0003143)
(0.0833648 -0.0011038 -0.000262897)
(0.069797 -0.00114566 -0.000311981)
(0.0828952 -0.00107922 -0.00025207)
(0.0804004 -0.00142741 -0.000388756)
(0.0922954 -0.0014557 -0.000337569)
(0.0795509 -0.00141435 -0.000401803)
(0.0918247 -0.00143979 -0.000360289)
(0.0787022 -0.00140207 -0.000405689)
(0.0913524 -0.00142682 -0.000372184)
(0.0778549 -0.00138902 -0.000403244)
(0.0908782 -0.00141454 -0.000375938)
(0.0770099 -0.00137446 -0.00039644)
(0.0904021 -0.00140199 -0.000373839)
(0.0761686 -0.00135779 -0.000387088)
(0.089924 -0.00138865 -0.000367672)
(0.0753322 -0.00133928 -0.000376654)
(0.0894451 -0.00137365 -0.000358903)
(0.0745024 -0.0013189 -0.000366242)
(0.0889653 -0.00135822 -0.000348836)
(0.0736796 -0.00129569 -0.000357395)
(0.0884879 -0.00133993 -0.000338104)
(0.0728646 -0.00126964 -0.000351816)
(0.0880106 -0.00131846 -0.000328372)
(0.0875374 -0.00129592 -0.000320715)
(0.0435813 5.08126e-06 0.00013492)
(0.0580498 -5.80921e-05 0.000142771)
(0.0500543 -0.000244641 0.000350968)
(0.0430333 -8.52685e-08 0.000127651)
(0.0575444 -5.91199e-05 0.000135832)
(0.0494335 -0.00023966 0.000334206)
(0.0424998 -4.44179e-06 0.000121229)
(0.0570766 -7.01035e-05 0.00013579)
(0.0488616 -0.000222413 0.0003013)
(0.0419793 -6.97227e-06 0.000114133)
(0.056584 -8.22716e-05 0.000136592)
(0.0482801 -0.000205122 0.00026479)
(0.0414704 -7.29034e-06 0.000105569)
(0.0561274 -9.23388e-05 0.00013434)
(0.0477518 -0.000193829 0.000239184)
(0.0409802 -7.65827e-06 9.67936e-05)
(0.0556579 -9.52046e-05 0.000125712)
(0.0472192 -0.000185713 0.000219636)
(0.0405049 -8.10306e-06 8.80301e-05)
(0.055211 -9.89702e-05 0.00011743)
(0.0467186 -0.000180834 0.000204347)
(0.0400524 -8.8827e-06 7.9433e-05)
(0.05477 -9.63447e-05 0.000104548)
(0.046233 -0.000175585 0.000189681)
(0.0396141 -1.09215e-05 7.22053e-05)
(0.0543296 -9.74343e-05 9.52951e-05)
(0.0457553 -0.000173439 0.000177543)
(0.0391935 -1.41152e-05 6.59604e-05)
(0.0539124 -0.000100267 8.74138e-05)
(0.045309 -0.000167736 0.000165884)
(0.0534851 -0.000108725 8.281e-05)
(0.044864 -0.00015918 0.000154132)
(0.0756946 -0.0001558 0.000164574)
(0.0838159 -0.000548666 0.000177486)
(0.0823602 -0.00032093 0.000326782)
(0.0752826 -0.000160649 0.000163269)
(0.083531 -0.00053471 0.00016927)
(0.0820877 -0.000319364 0.00032443)
(0.0748712 -0.000174614 0.000164432)
(0.0832557 -0.000533062 0.000161955)
(0.0818249 -0.000330126 0.000322104)
(0.0744611 -0.000191129 0.00016544)
(0.0829718 -0.000532321 0.000152344)
(0.0815505 -0.000345767 0.000320864)
(0.074049 -0.000204097 0.000162495)
(0.0826995 -0.000536302 0.000143917)
(0.0812842 -0.000361236 0.000318074)
(0.0736366 -0.000211907 0.000155352)
(0.0824138 -0.000534437 0.000132004)
(0.0810046 -0.000367733 0.000307442)
(0.0732213 -0.000215041 0.000145275)
(0.0821295 -0.000536192 0.000121576)
(0.0807269 -0.000375281 0.00029885)
(0.072805 -0.000214303 0.000133396)
(0.0818364 -0.000530527 0.000110194)
(0.0804403 -0.000373301 0.00028101)
(0.0723859 -0.000218257 0.000125569)
(0.081533 -0.000531782 0.000102456)
(0.0801476 -0.000375841 0.000269736)
(0.071962 -0.000231948 0.00012509)
(0.0812355 -0.000535667 9.98009e-05)
(0.0798596 -0.00038011 0.000261382)
(0.0809134 -0.000544033 0.000102933)
(0.07955 -0.000391177 0.000259795)
(0.0929276 -0.000918131 7.81159e-05)
(0.097029 -0.00112407 -8.29898e-05)
(0.0980989 -0.000986645 0.000234219)
(0.0927993 -0.00089703 6.48934e-05)
(0.0969323 -0.00109618 -0.000100812)
(0.0981266 -0.000964344 0.000224725)
(0.0926752 -0.0008819 5.06723e-05)
(0.0968279 -0.00107797 -0.000114432)
(0.0981443 -0.000951761 0.000213075)
(0.0925512 -0.000870338 3.60929e-05)
(0.0967347 -0.00106279 -0.000126468)
(0.0981763 -0.000943122 0.000200068)
(0.0924236 -0.000860587 2.20002e-05)
(0.0966301 -0.00105246 -0.000135109)
(0.0981936 -0.000940666 0.000188728)
(0.0922883 -0.000853767 9.65223e-06)
(0.0965287 -0.00104161 -0.000142144)
(0.0982177 -0.000936498 0.000175307)
(0.0921418 -0.000846481 -1.36607e-06)
(0.0964118 -0.00103939 -0.000144512)
(0.0982261 -0.000934341 0.000162216)
(0.0919872 -0.000842284 -8.66546e-06)
(0.0962868 -0.00103006 -0.000148169)
(0.0982332 -0.000928546 0.000149022)
(0.0918217 -0.00084355 -1.03647e-05)
(0.0961553 -0.00103 -0.000146568)
(0.0982325 -0.000932204 0.00014375)
(0.0916436 -0.00084072 -9.56195e-06)
(0.0960078 -0.0010262 -0.000141862)
(0.0982189 -0.000933919 0.000141215)
(0.0958548 -0.00101574 -0.000134629)
(0.0981981 -0.000933352 0.000141977)
(0.101436 -0.00134876 -0.000227422)
(0.103242 -0.00147135 -0.000256614)
(0.105918 -0.00138998 -9.58128e-05)
(0.101365 -0.00132217 -0.000248484)
(0.103184 -0.00144643 -0.000282926)
(0.106008 -0.00136161 -0.000116054)
(0.101295 -0.00130202 -0.000263028)
(0.103122 -0.00142787 -0.000300172)
(0.106096 -0.00134113 -0.000131494)
(0.101224 -0.00128612 -0.000272137)
(0.10306 -0.00141258 -0.000310217)
(0.106187 -0.00132546 -0.000142616)
(0.101148 -0.00127265 -0.000276735)
(0.102991 -0.00139972 -0.00031436)
(0.106274 -0.00131427 -0.000149579)
(0.101066 -0.00126439 -0.000276816)
(0.102917 -0.0013873 -0.000314608)
(0.106359 -0.00130523 -0.000153839)
(0.100975 -0.00125899 -0.00027342)
(0.102836 -0.00137973 -0.000310388)
(0.106438 -0.00130269 -0.000154899)
(0.100875 -0.00125371 -0.00026763)
(0.102745 -0.00137003 -0.000304228)
(0.106507 -0.00129763 -0.000154725)
(0.100765 -0.0012483 -0.000259075)
(0.10265 -0.00136076 -0.000294174)
(0.106574 -0.00129546 -0.000151461)
(0.100645 -0.00123577 -0.000248684)
(0.102541 -0.00134677 -0.000282953)
(0.106625 -0.00129376 -0.000144269)
(0.102435 -0.00132878 -0.000271981)
(0.106676 -0.00128489 -0.000135623)
(0.105087 -0.0015717 -0.000322285)
(0.109346 -0.00159172 -0.000245339)
(0.105038 -0.0015553 -0.000344281)
(0.109461 -0.00157352 -0.00026757)
(0.104984 -0.001542 -0.000356454)
(0.109572 -0.00155914 -0.000282057)
(0.104925 -0.00153008 -0.000360898)
(0.109678 -0.00154702 -0.000289788)
(0.104859 -0.00151868 -0.000359706)
(0.109779 -0.0015364 -0.000292121)
(0.104785 -0.00150736 -0.000354353)
(0.109875 -0.00152653 -0.000290745)
(0.104705 -0.00149583 -0.000346069)
(0.109966 -0.00151745 -0.000286486)
(0.104618 -0.00148191 -0.000335508)
(0.11005 -0.00150813 -0.000280127)
(0.104527 -0.00146344 -0.000323322)
(0.110129 -0.00149611 -0.000271335)
(0.104432 -0.00144408 -0.000310816)
(0.110204 -0.0014814 -0.000260904)
(0.110277 -0.00146746 -0.000249696)
(0.057416 -0.000385116 0.000580314)
(0.0725141 -0.000362839 0.000527145)
(0.0628096 -0.000397769 0.000776514)
(0.0567534 -0.000355277 0.000533809)
(0.0721003 -0.000351985 0.000512975)
(0.062086 -0.000387852 0.000755326)
(0.0561256 -0.00031245 0.000464063)
(0.0717099 -0.000331662 0.00047933)
(0.0614001 -0.000367632 0.000705852)
(0.0555355 -0.000279688 0.000403489)
(0.0713262 -0.000316299 0.000442534)
(0.0607271 -0.000343474 0.000645702)
(0.0549713 -0.000262648 0.000364117)
(0.0709717 -0.000310939 0.000415083)
(0.0601074 -0.000326356 0.000597534)
(0.0544276 -0.000253136 0.000336637)
(0.0706143 -0.000307936 0.000390878)
(0.0594937 -0.000314914 0.000558964)
(0.0539014 -0.0002467 0.000314615)
(0.0702705 -0.000308523 0.00037116)
(0.0589171 -0.000304701 0.000525404)
(0.0533927 -0.000241544 0.00029575)
(0.0699289 -0.000304371 0.000349377)
(0.0583564 -0.000298721 0.000496963)
(0.0528994 -0.000234822 0.000278621)
(0.0695899 -0.000305934 0.000334438)
(0.0578075 -0.000289498 0.000472343)
(0.0524234 -0.000224439 0.000261329)
(0.0692658 -0.000303553 0.000318552)
(0.0572913 -0.000277746 0.000449409)
(0.0689339 -0.000300709 0.000303836)
(0.0567735 -0.000264759 0.000426553)
(0.0897964 -0.000364385 0.000507257)
(0.0964388 -0.000659625 0.000504786)
(0.0934385 -0.000338003 0.000735151)
(0.0896974 -0.000361148 0.000503454)
(0.0964807 -0.000647491 0.000501108)
(0.0933822 -0.000328312 0.000732212)
(0.0895962 -0.000365274 0.000497967)
(0.0965128 -0.000638881 0.000488845)
(0.0933161 -0.000319009 0.000722145)
(0.0894874 -0.000376501 0.000492333)
(0.0965555 -0.000640513 0.000477304)
(0.0932565 -0.000316235 0.000710489)
(0.0893729 -0.000386668 0.000481307)
(0.0965796 -0.000648392 0.000467055)
(0.0931805 -0.000318685 0.000694937)
(0.0892509 -0.000397369 0.000468991)
(0.0966106 -0.000653591 0.000453474)
(0.0931111 -0.000322269 0.00067468)
(0.0891196 -0.00040276 0.00045224)
(0.0966266 -0.00066029 0.000442058)
(0.0930283 -0.000332437 0.000657562)
(0.0889836 -0.000406119 0.000434644)
(0.0966411 -0.000659068 0.000423448)
(0.0929437 -0.000332426 0.000632879)
(0.0888391 -0.000414119 0.000422708)
(0.0966526 -0.000667507 0.000412734)
(0.0928586 -0.000339384 0.000616028)
(0.0886849 -0.000422718 0.000412806)
(0.0966498 -0.000675547 0.000404044)
(0.0927635 -0.000345177 0.000597219)
(0.0966432 -0.000686428 0.000399956)
(0.0926669 -0.000357148 0.000584255)
(0.103913 -0.000924637 0.000404393)
(0.107175 -0.00110771 0.000211841)
(0.106447 -0.000789729 0.000619481)
(0.104104 -0.000909152 0.00039689)
(0.107403 -0.00108532 0.000202246)
(0.106685 -0.000770658 0.000615717)
(0.104296 -0.000902138 0.00038675)
(0.107627 -0.00107073 0.000191744)
(0.106919 -0.000758068 0.000607043)
(0.104486 -0.000903723 0.000377248)
(0.107858 -0.00106412 0.000182789)
(0.107158 -0.000753527 0.000596292)
(0.104674 -0.000907571 0.000366784)
(0.10808 -0.00106399 0.000175982)
(0.107388 -0.000755845 0.000585589)
(0.104857 -0.000907359 0.000352568)
(0.108305 -0.001063 0.000167237)
(0.107622 -0.000757056 0.000572214)
(0.105042 -0.000905796 0.000337113)
(0.108523 -0.00106047 0.000156909)
(0.10785 -0.000756479 0.000556116)
(0.105218 -0.000909637 0.000325648)
(0.10874 -0.00105869 0.000146335)
(0.108078 -0.000755676 0.000540263)
(0.10539 -0.000918484 0.000319056)
(0.108952 -0.00106298 0.000141838)
(0.108303 -0.000762551 0.000527985)
(0.105552 -0.000928575 0.000316)
(0.109152 -0.00107112 0.000141085)
(0.108517 -0.000771737 0.000518271)
(0.10935 -0.00107791 0.000144215)
(0.108732 -0.000784169 0.000513144)
(0.110927 -0.00130311 4.04691e-05)
(0.112336 -0.00140875 -5.04574e-05)
(0.112992 -0.00111305 0.000230344)
(0.111191 -0.00128069 2.62065e-05)
(0.112612 -0.00138653 -6.64015e-05)
(0.113315 -0.00108796 0.000218319)
(0.111456 -0.00126501 1.42948e-05)
(0.112888 -0.0013699 -7.90491e-05)
(0.113638 -0.00106956 0.000207022)
(0.111721 -0.00125495 5.2413e-06)
(0.113162 -0.00135774 -8.81086e-05)
(0.113961 -0.00105699 0.000196959)
(0.111985 -0.00124877 -1.51474e-06)
(0.113434 -0.00134931 -9.36784e-05)
(0.114282 -0.00104924 0.000188604)
(0.112245 -0.00124493 -6.90544e-06)
(0.113702 -0.00134266 -9.75006e-05)
(0.114601 -0.00104353 0.00018109)
(0.112502 -0.00124235 -1.14891e-05)
(0.113968 -0.00133757 -9.97591e-05)
(0.114917 -0.0010397 0.000174146)
(0.112752 -0.00124104 -1.42973e-05)
(0.114228 -0.0013331 -0.000100275)
(0.115229 -0.00103703 0.00016751)
(0.112998 -0.00124431 -1.28961e-05)
(0.114484 -0.00132969 -9.73327e-05)
(0.115537 -0.00103742 0.000163098)
(0.113237 -0.00124859 -7.89626e-06)
(0.114733 -0.00133014 -9.06774e-05)
(0.115839 -0.00104324 0.00016274)
(0.114978 -0.00132663 -8.31889e-05)
(0.116137 -0.00104684 0.000164288)
(0.11409 -0.00149525 -0.00016443)
(0.116031 -0.00126981 -3.84357e-05)
(0.114378 -0.00147892 -0.000178808)
(0.116387 -0.00125159 -5.06282e-05)
(0.114662 -0.00146579 -0.000188773)
(0.11674 -0.00123678 -6.00616e-05)
(0.114944 -0.00145517 -0.000194476)
(0.11709 -0.00122485 -6.66106e-05)
(0.115221 -0.0014463 -0.000196792)
(0.117435 -0.00121517 -7.04888e-05)
(0.115495 -0.00143859 -0.000196678)
(0.117777 -0.00120689 -7.24852e-05)
(0.115764 -0.00143159 -0.000194529)
(0.118115 -0.00119965 -7.29941e-05)
(0.116029 -0.00142447 -0.0001902)
(0.118449 -0.00119308 -7.20638e-05)
(0.11629 -0.00141739 -0.000183537)
(0.118778 -0.00118644 -6.92117e-05)
(0.116546 -0.00140961 -0.000174771)
(0.119104 -0.00118104 -6.43831e-05)
(0.119426 -0.00117494 -5.81885e-05)
(0.0681756 -0.00047706 0.000976958)
(0.0820598 -0.000401749 0.000954705)
(0.0724071 -0.00051743 0.00111134)
(0.0674202 -0.000464761 0.000954381)
(0.0816454 -0.000388493 0.000943342)
(0.071625 -0.000506114 0.00110239)
(0.0666844 -0.000448928 0.000916611)
(0.081238 -0.000373455 0.000919451)
(0.0708526 -0.000485776 0.001082)
(0.0659745 -0.000430829 0.000869782)
(0.0808441 -0.000356945 0.000885315)
(0.0700944 -0.000461721 0.0010512)
(0.0652949 -0.00041384 0.000821879)
(0.080462 -0.000342319 0.000848088)
(0.0693578 -0.0004399 0.00101544)
(0.0646449 -0.00039894 0.000776051)
(0.0800965 -0.000331819 0.000811806)
(0.0686427 -0.000421848 0.000978619)
(0.0640214 -0.000386888 0.000734837)
(0.0797448 -0.000324434 0.000776952)
(0.0679531 -0.000406183 0.000941059)
(0.0634214 -0.000375904 0.000699584)
(0.0794069 -0.000320222 0.000746468)
(0.0672871 -0.000393655 0.000906253)
(0.062841 -0.000362629 0.000668237)
(0.0790789 -0.000315649 0.000719065)
(0.0666403 -0.000380867 0.000873683)
(0.0622791 -0.000347108 0.000638968)
(0.0787616 -0.000309637 0.000692015)
(0.0660174 -0.000367635 0.000842866)
(0.0784497 -0.000305588 0.000668191)
(0.0654061 -0.000352144 0.000813054)
(0.0973823 -0.000335591 0.000980166)
(0.103062 -0.00051921 0.000960916)
(0.0997802 -0.000354357 0.00116809)
(0.0973654 -0.000320646 0.000970601)
(0.103191 -0.000502268 0.000957153)
(0.0997626 -0.000343173 0.00116512)
(0.0973444 -0.000306073 0.000953657)
(0.103314 -0.000487373 0.00094603)
(0.0997368 -0.000329638 0.00115502)
(0.0973196 -0.000293719 0.00093127)
(0.10344 -0.000475346 0.000929512)
(0.0997092 -0.000315574 0.00113876)
(0.0972931 -0.000285567 0.000906022)
(0.103558 -0.000467654 0.00090967)
(0.0996737 -0.000302807 0.00111808)
(0.0972652 -0.000282639 0.0008807)
(0.103679 -0.000463826 0.000888668)
(0.09964 -0.000292432 0.00109516)
(0.0972377 -0.000282773 0.00085554)
(0.103797 -0.0004637 0.000868262)
(0.099603 -0.000285994 0.00107167)
(0.097208 -0.000284609 0.000831404)
(0.103914 -0.000463493 0.000845953)
(0.0995665 -0.000280694 0.00104686)
(0.0971775 -0.000287501 0.000807206)
(0.104032 -0.000466581 0.000825548)
(0.0995316 -0.000278699 0.00102254)
(0.097145 -0.000293751 0.000784936)
(0.104142 -0.000471196 0.000804449)
(0.0994924 -0.000277067 0.000995886)
(0.104257 -0.00048261 0.000789193)
(0.0994591 -0.000278619 0.00097053)
(0.109425 -0.000660135 0.000842904)
(0.112212 -0.00078588 0.000622879)
(0.110924 -0.000576041 0.00103491)
(0.109709 -0.000643312 0.000838145)
(0.112546 -0.000764365 0.000617436)
(0.111217 -0.0005606 0.00103361)
(0.109992 -0.000631675 0.000829068)
(0.112879 -0.000748266 0.000609383)
(0.111506 -0.000548076 0.00102764)
(0.110275 -0.000625379 0.000817304)
(0.113211 -0.000737436 0.000599616)
(0.111794 -0.000538894 0.00101799)
(0.110556 -0.000622992 0.000803804)
(0.11354 -0.000731465 0.000588972)
(0.112079 -0.000533114 0.00100601)
(0.110836 -0.000622304 0.000788701)
(0.113869 -0.000727799 0.000576997)
(0.112362 -0.000528699 0.000992205)
(0.111115 -0.000622131 0.000772218)
(0.114196 -0.000725339 0.000563818)
(0.112644 -0.000524829 0.000976947)
(0.11139 -0.000623827 0.00075541)
(0.11452 -0.000723806 0.000550396)
(0.112924 -0.000522068 0.000960421)
(0.111664 -0.000629386 0.000739866)
(0.114841 -0.000725689 0.000538409)
(0.113203 -0.000522687 0.000943595)
(0.111935 -0.000640104 0.00072785)
(0.115159 -0.000731514 0.000528486)
(0.113478 -0.000527114 0.000928162)
(0.115476 -0.000741366 0.000522878)
(0.113753 -0.00053613 0.000914495)
(0.115525 -0.000910612 0.000415495)
(0.116758 -0.000982844 0.000254174)
(0.116585 -0.000750481 0.000587947)
(0.115911 -0.000889676 0.000406586)
(0.117165 -0.00096199 0.000246176)
(0.116993 -0.000731604 0.000580728)
(0.116294 -0.000874037 0.000397284)
(0.117569 -0.000945485 0.000238463)
(0.117398 -0.000716603 0.000572555)
(0.116677 -0.00086311 0.000388027)
(0.11797 -0.000932898 0.000231253)
(0.1178 -0.000705254 0.000563776)
(0.117058 -0.000855629 0.000378868)
(0.118368 -0.000923661 0.00022477)
(0.118199 -0.000697132 0.000554727)
(0.117436 -0.000850288 0.000369606)
(0.118763 -0.000916535 0.000218722)
(0.118595 -0.000691071 0.000545331)
(0.117812 -0.000846635 0.00036041)
(0.119156 -0.000910906 0.000212969)
(0.118989 -0.000686399 0.000535634)
(0.118184 -0.000845192 0.000352079)
(0.119545 -0.000906613 0.000207839)
(0.119379 -0.000683216 0.000525941)
(0.118552 -0.00084716 0.000345836)
(0.119929 -0.000904145 0.000204143)
(0.119766 -0.00068231 0.000517037)
(0.118918 -0.000851638 0.000341864)
(0.120312 -0.000904608 0.000202891)
(0.12015 -0.000685 0.000509939)
(0.12069 -0.000905406 0.000202631)
(0.120532 -0.000688706 0.00050369)
(0.118452 -0.0010359 7.69009e-05)
(0.119352 -0.000820225 0.000194786)
(0.118877 -0.00101945 6.98019e-05)
(0.119808 -0.00080557 0.000188631)
(0.119299 -0.0010059 6.3883e-05)
(0.120259 -0.000793241 0.000183036)
(0.119716 -0.000994887 5.9189e-05)
(0.120706 -0.000783037 0.000178082)
(0.12013 -0.000985857 5.55794e-05)
(0.121148 -0.000774685 0.000173807)
(0.12054 -0.000978284 5.28267e-05)
(0.121586 -0.000767761 0.000170076)
(0.120946 -0.000971834 5.09033e-05)
(0.12202 -0.000761957 0.000166823)
(0.121348 -0.000966282 5.00943e-05)
(0.12245 -0.000757176 0.000164169)
(0.121747 -0.000961947 5.08164e-05)
(0.122875 -0.000753381 0.000162427)
(0.122143 -0.000958402 5.28719e-05)
(0.123298 -0.000751156 0.000161905)
(0.123717 -0.000748958 0.000161982)
(0.0761349 -0.000544753 0.00124669)
(0.0887041 -0.00044751 0.00126283)
(0.0786586 -0.000523551 0.00132732)
(0.0753363 -0.000534723 0.00123936)
(0.0882727 -0.000441554 0.00126024)
(0.0778488 -0.000524091 0.00132332)
(0.0745389 -0.000517201 0.00122546)
(0.0878366 -0.000428697 0.00125141)
(0.077036 -0.000515204 0.00131374)
(0.0737491 -0.000496084 0.00120588)
(0.0874 -0.000411476 0.001237)
(0.0762251 -0.000499945 0.00129904)
(0.0729732 -0.000475041 0.0011818)
(0.0869665 -0.000393278 0.0012181)
(0.0754209 -0.000481767 0.00128014)
(0.0722156 -0.00045557 0.00115394)
(0.0865407 -0.00037624 0.00119571)
(0.0746283 -0.000463009 0.00125769)
(0.0714787 -0.000438152 0.00112329)
(0.086125 -0.000360953 0.00117024)
(0.0738507 -0.000444595 0.00123174)
(0.0707635 -0.000422432 0.00109143)
(0.0857208 -0.00034807 0.00114317)
(0.0730902 -0.000427583 0.00120361)
(0.070069 -0.000407681 0.0010596)
(0.0853288 -0.000336335 0.00111498)
(0.0723476 -0.000411828 0.00117452)
(0.0693936 -0.000393442 0.0010283)
(0.0849472 -0.000326161 0.00108674)
(0.0716225 -0.000397416 0.00114571)
(0.0845783 -0.00031538 0.00105635)
(0.0709151 -0.00038436 0.00111717)
(0.102291 -0.000366674 0.0013626)
(0.107257 -0.000441319 0.00134597)
(0.103685 -0.000368026 0.00146645)
(0.102265 -0.000358122 0.00135909)
(0.10739 -0.000432898 0.00134567)
(0.10366 -0.000370874 0.001464)
(0.102232 -0.000345759 0.00134978)
(0.107517 -0.000422222 0.00133994)
(0.103625 -0.000367383 0.00145764)
(0.102193 -0.000331461 0.00133541)
(0.107638 -0.000410344 0.00132929)
(0.103582 -0.000358773 0.00144736)
(0.10215 -0.000317075 0.00131713)
(0.107755 -0.000398574 0.00131471)
(0.103533 -0.000347017 0.00143357)
(0.102106 -0.000303963 0.00129599)
(0.107869 -0.000387549 0.0012975)
(0.103479 -0.000333852 0.00141696)
(0.102061 -0.000292846 0.00127274)
(0.107982 -0.000377867 0.00127842)
(0.103423 -0.000320542 0.00139801)
(0.102017 -0.000283487 0.00124771)
(0.108095 -0.000369709 0.00125776)
(0.103365 -0.000308056 0.0013773)
(0.101975 -0.000275758 0.001221)
(0.108207 -0.00036339 0.00123567)
(0.103307 -0.000296292 0.00135462)
(0.101933 -0.000268379 0.00119117)
(0.108318 -0.000359601 0.00121295)
(0.103248 -0.000285679 0.00132985)
(0.108432 -0.000356233 0.00118718)
(0.103192 -0.000273679 0.00129876)
(0.112788 -0.000478545 0.00123284)
(0.115187 -0.000523137 0.000992963)
(0.113479 -0.000406621 0.00134792)
(0.113086 -0.000467891 0.0012303)
(0.115551 -0.000510672 0.000989748)
(0.113779 -0.000403344 0.00134477)
(0.11338 -0.000457969 0.0012238)
(0.115909 -0.000499525 0.000983853)
(0.114074 -0.000398652 0.001339)
(0.11367 -0.000449164 0.00121399)
(0.116264 -0.000489929 0.000975599)
(0.114364 -0.000392991 0.00133086)
(0.113958 -0.000441385 0.0012017)
(0.116616 -0.000481946 0.00096547)
(0.114651 -0.000386854 0.00132073)
(0.114244 -0.000434331 0.00118764)
(0.116964 -0.00047505 0.000953908)
(0.114933 -0.00038038 0.00130903)
(0.114528 -0.00042811 0.00117229)
(0.11731 -0.000469021 0.000941263)
(0.115213 -0.000373698 0.00129611)
(0.114809 -0.000423539 0.00115587)
(0.117653 -0.000464107 0.000927966)
(0.115491 -0.000367222 0.00128221)
(0.115089 -0.000421834 0.00113933)
(0.117994 -0.000461235 0.000914185)
(0.115766 -0.000361679 0.00126722)
(0.115368 -0.000422852 0.00112243)
(0.118333 -0.00046137 0.000901295)
(0.116039 -0.000358212 0.00125264)
(0.11867 -0.000463097 0.000887677)
(0.116309 -0.000355599 0.00123541)
(0.118101 -0.000565576 0.000759387)
(0.119173 -0.000580227 0.000540928)
(0.118402 -0.000409567 0.000870771)
(0.118528 -0.000552646 0.000752979)
(0.11963 -0.000567572 0.00053588)
(0.118837 -0.000401785 0.000863204)
(0.118951 -0.000541836 0.000745403)
(0.120082 -0.000556739 0.000530171)
(0.119267 -0.000394841 0.00085511)
(0.119371 -0.000533077 0.000736903)
(0.12053 -0.000547717 0.000523946)
(0.119692 -0.000388806 0.000846585)
(0.119786 -0.000526034 0.000727695)
(0.120973 -0.000540362 0.000517372)
(0.120112 -0.000383653 0.000837726)
(0.120199 -0.000520287 0.000717932)
(0.121412 -0.000534313 0.000510555)
(0.120529 -0.000379199 0.000828574)
(0.120608 -0.000515719 0.0007078)
(0.121847 -0.000529322 0.000503582)
(0.120942 -0.000375299 0.000819159)
(0.121013 -0.00051264 0.000697589)
(0.122278 -0.000525445 0.000496653)
(0.121352 -0.000372041 0.000809605)
(0.121416 -0.000511722 0.00068792)
(0.122706 -0.000522977 0.000490036)
(0.121758 -0.000369703 0.000800085)
(0.121817 -0.000512609 0.000678665)
(0.123131 -0.000522489 0.000484366)
(0.122161 -0.000368894 0.000791303)
(0.123553 -0.000522674 0.000478578)
(0.122562 -0.000368627 0.00078183)
(0.120746 -0.000582628 0.00031033)
(0.120881 -0.000540197 8.76277e-05)
(0.120882 -0.000362359 0.000401686)
(0.121229 -0.00057203 0.000305764)
(0.121375 -0.000531264 8.63024e-05)
(0.121376 -0.000355412 0.000396171)
(0.121707 -0.000562933 0.000301202)
(0.121863 -0.000523282 8.49063e-05)
(0.121864 -0.000349404 0.000390821)
(0.122179 -0.000555253 0.00029672)
(0.122345 -0.000516221 8.34643e-05)
(0.122346 -0.000344312 0.000385688)
(0.122646 -0.000548823 0.00029237)
(0.122822 -0.000510016 8.20075e-05)
(0.122823 -0.00034006 0.000380812)
(0.123109 -0.000543455 0.000288179)
(0.123294 -0.000504551 8.05413e-05)
(0.123295 -0.000336528 0.000376196)
(0.123567 -0.00053907 0.000284235)
(0.123761 -0.000499728 7.9077e-05)
(0.123762 -0.000333611 0.000371846)
(0.124021 -0.000535699 0.000280699)
(0.124224 -0.000495562 7.76714e-05)
(0.124224 -0.000331305 0.000367839)
(0.124471 -0.000533512 0.000277791)
(0.124683 -0.000492102 7.64123e-05)
(0.124682 -0.00032964 0.000364288)
(0.124919 -0.000532172 0.000275342)
(0.125138 -0.000489618 7.54068e-05)
(0.125138 -0.000328768 0.00036142)
(0.12559 -0.00048728 7.44817e-05)
(0.125589 -0.000328084 0.000358599)
(0.121514 -0.000488964 -0.000136683)
(0.121625 -0.00024697 -6.96812e-05)
(0.122013 -0.000482719 -0.000134644)
(0.122137 -0.000243643 -6.86305e-05)
(0.122506 -0.000476825 -0.000132765)
(0.122642 -0.000240536 -6.76383e-05)
(0.122993 -0.000471275 -0.000131063)
(0.12314 -0.000237637 -6.67086e-05)
(0.123475 -0.000466058 -0.000129548)
(0.123633 -0.000234938 -6.58466e-05)
(0.123951 -0.000461151 -0.000128224)
(0.12412 -0.000232424 -6.50619e-05)
(0.124423 -0.000456554 -0.000127094)
(0.124602 -0.000230077 -6.43572e-05)
(0.12489 -0.000452307 -0.000126157)
(0.125079 -0.000227906 -6.37394e-05)
(0.125354 -0.000448561 -0.000125429)
(0.125552 -0.000225933 -6.32045e-05)
(0.125814 -0.000445089 -0.000124822)
(0.126021 -0.000224284 -6.27795e-05)
(0.126486 -0.0002226 -6.23504e-05)
(0.0804199 -0.000499626 0.00140636)
(0.0923195 -0.000420353 0.0014412)
(0.0808313 -0.000440753 0.00141959)
(0.0795963 -0.000501655 0.00140007)
(0.091873 -0.000430129 0.0014366)
(0.0799959 -0.000453099 0.0014106)
(0.0787695 -0.000494915 0.00138979)
(0.0914189 -0.000430619 0.0014292)
(0.0791586 -0.000455099 0.00140023)
(0.0779434 -0.000482362 0.00137592)
(0.0909599 -0.000423885 0.00141884)
(0.0783216 -0.0004497 0.00138775)
(0.077122 -0.000466545 0.00135872)
(0.0904987 -0.000412394 0.00140569)
(0.077487 -0.000439473 0.00137288)
(0.0763089 -0.000449139 0.0013382)
(0.0900381 -0.000397984 0.00138985)
(0.0766573 -0.000426445 0.00135552)
(0.075507 -0.000431455 0.00131478)
(0.0895804 -0.000382024 0.00137133)
(0.0758349 -0.000412098 0.00133527)
(0.0747184 -0.000414434 0.00128948)
(0.0891277 -0.0003659 0.00135092)
(0.0750216 -0.000397645 0.00131337)
(0.0739444 -0.000398939 0.00126348)
(0.0886817 -0.000350414 0.00132917)
(0.0742201 -0.000383255 0.00128986)
(0.0731847 -0.000386374 0.00123734)
(0.0882423 -0.000336479 0.00130656)
(0.0734286 -0.000370787 0.00126509)
(0.0878119 -0.000323527 0.00128019)