/*--------------------------------*- C++ -*----------------------------------*\
| =========                 |                                                 |
| \\      /  F ield         | OpenFOAM: The Open Source CFD Toolbox           |
|  \\    /   O peration     | Version:  2212                                  |
|   \\  /    A nd           | Website:  www.openfoam.com                      |
|    \\/     M anipulation  |                                                 |
\*---------------------------------------------------------------------------*/
FoamFile
{
    version     2.0;
    format      ascii;
    arch        "LSB;label=32;scalar=64";
    class       volScalarField;
    location    "0.6";
    object      k;
}
// * * * * * * * * * * * * * * * * * * * * * * * * * * * * * * * * * * * * * //

dimensions      [0 2 -2 0 0 0 0];

internalField   nonuniform List<scalar> 
693
(
0.00263062
0.00262971
0.00262861
0.00262756
0.00262681
0.00262651
0.00235472
0.00235286
0.00235136
0.00235034
0.0023497
0.00234925
0.00237893
0.00237624
0.00237426
0.00237296
0.00237214
0.00237148
0.00241242
0.00240906
0.0024066
0.00240498
0.00240392
0.00240301
0.00242783
0.00242402
0.00242129
0.00241944
0.00241826
0.00241723
0.00242145
0.00241754
0.00241473
0.00241283
0.00241155
0.00241043
0.00239682
0.00239305
0.00239031
0.00238846
0.00238727
0.00238616
0.00235069
0.00234735
0.00234492
0.00234336
0.00234236
0.00234137
0.00229563
0.00229292
0.00229096
0.00228969
0.00228888
0.00228813
0.00229276
0.00229099
0.00228952
0.00228847
0.00228778
0.00228728
0.00263119
0.00263028
0.00262916
0.00262806
0.00262725
0.00262692
0.00229222
0.00229046
0.00228902
0.00228803
0.00228742
0.00228697
0.0023343
0.00232834
0.00232377
0.00232162
0.00232093
0.0023201
0.00277542
0.00276638
0.00276053
0.00275755
0.00275604
0.0027541
0.00303912
0.00302877
0.00302198
0.00301801
0.00301591
0.00301251
0.00319926
0.00318829
0.00318102
0.00317667
0.00317382
0.00317052
0.0032781
0.00326676
0.00325912
0.00325435
0.0032513
0.00324774
0.00326174
0.00325044
0.00324267
0.00323778
0.00323454
0.00323109
0.00312346
0.00311278
0.00310558
0.00310126
0.00309886
0.00309599
0.00282813
0.00281871
0.00281254
0.00280938
0.00280773
0.00280555
0.00233574
0.00232976
0.00232511
0.0023228
0.00232198
0.0023206
0.00235556
0.0023537
0.00235218
0.00235111
0.00235039
0.00234986
0.00229546
0.00229282
0.00229092
0.00228969
0.00228892
0.00228822
0.00282796
0.00281872
0.00281266
0.00280951
0.00280789
0.00280618
0.00339335
0.00338113
0.00337246
0.00336713
0.00336372
0.00336008
0.00377262
0.00375804
0.0037473
0.00374001
0.00373485
0.00372977
0.00399806
0.00398164
0.00396955
0.00396104
0.00395476
0.00394961
0.00408768
0.00407054
0.0040579
0.00404889
0.00404213
0.00403684
0.00403245
0.00401607
0.00400387
0.00399522
0.00398882
0.00398369
0.00380855
0.00379366
0.00378262
0.0037753
0.00377009
0.00376498
0.00339455
0.00338197
0.00337306
0.00336758
0.00336411
0.00336018
0.00277837
0.00276927
0.00276329
0.00276002
0.00275819
0.0027561
0.00238018
0.0023775
0.00237549
0.00237413
0.00237318
0.00237238
0.00235104
0.0023478
0.00234546
0.00234393
0.00234291
0.00234188
0.00312491
0.00311448
0.00310747
0.00310321
0.00310061
0.00309765
0.00380952
0.00379489
0.00378404
0.00377675
0.00377149
0.00376648
0.00427875
0.00426014
0.00424612
0.00423585
0.00422831
0.00422368
0.00455773
0.00453611
0.00451971
0.00450763
0.00449887
0.00449387
0.00465702
0.00463402
0.00461669
0.00460389
0.00459464
0.00458951
0.00456779
0.00454649
0.00453029
0.00451831
0.00450965
0.00450468
0.00427813
0.00425925
0.0042451
0.00423477
0.00422735
0.00422245
0.00377457
0.00375956
0.00374856
0.00374096
0.00373576
0.00373035
0.00304389
0.00303332
0.00302618
0.00302172
0.00301905
0.00301568
0.00241415
0.0024108
0.0024083
0.00240656
0.00240537
0.00240429
0.00239777
0.00239411
0.00239144
0.00238959
0.00238831
0.00238705
0.0032648
0.00325372
0.00324604
0.003241
0.00323763
0.00323349
0.00403478
0.00401855
0.00400639
0.00399766
0.00399126
0.00398581
0.00456842
0.00454746
0.00453143
0.00451955
0.00451071
0.00450625
0.00488516
0.00486123
0.00484259
0.00482848
0.00481864
0.00481462
0.00499426
0.0049682
0.0049481
0.004933
0.0049225
0.00491813
0.0048857
0.00486092
0.00484188
0.00482762
0.00481755
0.00481256
0.00455615
0.00453471
0.00451845
0.00450652
0.00449796
0.00449299
0.00400039
0.00398366
0.00397125
0.00396244
0.00395613
0.00395043
0.00320564
0.0031942
0.00318629
0.0031812
0.00317775
0.00317385
0.00243001
0.00242621
0.00242338
0.00242139
0.00242002
0.00241876
0.00242323
0.00241938
0.00241654
0.00241452
0.00241307
0.0024116
0.00328389
0.00327246
0.0032645
0.00325922
0.0032551
0.00325059
0.0040909
0.00407396
0.00406131
0.00405205
0.00404501
0.00404109
0.00465524
0.00463363
0.00461691
0.0046046
0.0045962
0.00459647
0.00499172
0.00496684
0.00494748
0.00493306
0.00492457
0.00492799
0.00510587
0.00507913
0.00505831
0.00504273
0.00503289
0.00503391
0.00499275
0.0049668
0.00494683
0.00493188
0.00492159
0.00491717
0.00465405
0.00463172
0.00461478
0.00460231
0.00459342
0.00458845
0.00408918
0.00407187
0.00405897
0.0040498
0.00404298
0.00403758
0.00328379
0.00327201
0.00326383
0.00325849
0.00325473
0.00325077
0.00242351
0.00241956
0.00241665
0.00241459
0.00241318
0.00241185
0.0024298
0.00242608
0.0024233
0.00242127
0.00241955
0.00320583
0.0031948
0.00318705
0.00318176
0.00317625
0.00400191
0.00398555
0.00397326
0.0039641
0.00395667
0.0045573
0.00453624
0.00452022
0.00450837
0.00450134
0.00488434
0.00486041
0.00484198
0.00482843
0.00482163
0.0049923
0.00496672
0.00494699
0.00493241
0.00492368
0.00492671
0.00488478
0.00485988
0.00484087
0.00482679
0.00481731
0.00481311
0.00456642
0.00454495
0.00452878
0.00451695
0.00450821
0.004503
0.00403307
0.00401644
0.00400411
0.00399534
0.00398907
0.00398388
0.00326477
0.00325331
0.0032454
0.00324027
0.00323693
0.00323316
0.00239807
0.00239431
0.00239156
0.00238966
0.00238838
0.00238713
0.00241092
0.00240821
0.00240631
0.00240471
0.00303461
0.00302648
0.00302163
0.00301642
0.00377621
0.0037615
0.00375043
0.00374233
0.00373494
0.0042796
0.0042609
0.00424674
0.0042362
0.00422931
0.00456808
0.00454686
0.00453078
0.00451905
0.00451221
0.00465526
0.00463275
0.00461573
0.00460328
0.00459497
0.00459466
0.00455605
0.00453408
0.00451775
0.00450591
0.00449776
0.00449379
0.00427681
0.0042578
0.00424379
0.00423361
0.00422647
0.00422201
0.00380828
0.00379331
0.00378232
0.00377499
0.00377004
0.00376523
0.00312516
0.00311442
0.00310721
0.00310298
0.00310042
0.00309723
0.00235141
0.00234809
0.00234568
0.00234414
0.00234311
0.00234205
0.0023778
0.00237555
0.00237395
0.00237262
0.00277116
0.00276401
0.00275997
0.00275606
0.00339654
0.00338408
0.00337504
0.00336915
0.00336295
0.00381087
0.00379601
0.00378496
0.0037771
0.0037698
0.00403446
0.00401799
0.0040057
0.00399668
0.00398934
0.00408867
0.00407142
0.00405873
0.00404963
0.004043
0.00403896
0.00399781
0.00398111
0.0039691
0.00396072
0.00395502
0.00395028
0.003772
0.00375712
0.00374642
0.00373921
0.00373453
0.00372968
0.00339347
0.00338085
0.00337209
0.00336693
0.00336375
0.00336047
0.00282851
0.00281904
0.00281318
0.00281035
0.00280878
0.00280655
0.00229584
0.00229317
0.00229129
0.00229011
0.00228933
0.0022886
0.00235373
0.00235208
0.00235089
0.00234994
0.00233073
0.0023255
0.00232303
0.0023212
0.00283017
0.00282071
0.00281462
0.00281104
0.00280785
0.00312709
0.00311645
0.00310922
0.00310436
0.00309958
0.0032653
0.00325411
0.00324636
0.00324105
0.00323566
0.00328144
0.00327007
0.00326239
0.00325736
0.00325379
0.00324925
0.00320119
0.00319025
0.00318315
0.00317889
0.0031761
0.00317261
0.0030408
0.0030304
0.00302367
0.00301986
0.00301776
0.00301473
0.00277683
0.00276779
0.00276212
0.00275937
0.00275789
0.00275597
0.00233437
0.00232857
0.00232492
0.00232324
0.00232235
0.00232152
0.00229245
0.00229076
0.00228948
0.00228859
0.00228798
0.0022876
0.00263008
0.00262885
0.00262775
0.00262713
0.00229103
0.00228943
0.00228831
0.00228742
0.00229607
0.0022933
0.00229132
0.00228995
0.00228872
0.00235173
0.00234841
0.00234596
0.00234422
0.00234261
0.00239807
0.00239434
0.00239159
0.00238963
0.00238786
0.00242274
0.00241886
0.00241604
0.00241406
0.00241261
0.00241115
0.00242866
0.00242492
0.00242223
0.00242042
0.00241922
0.0024181
0.00241314
0.0024098
0.00240738
0.00240581
0.00240475
0.00240381
0.00237955
0.00237689
0.00237495
0.00237369
0.00237286
0.00237216
0.00235504
0.00235325
0.00235189
0.00235097
0.00235034
0.00234995
0.00263098
0.00263011
0.00262907
0.00262806
0.00262732
0.00262707
)
;

boundaryField
{
    inlet
    {
        type            fixedValue;
        value           nonuniform List<scalar> 0();
    }
    ami1
    {
        type            cyclicAMI;
        value           nonuniform List<scalar> 0();
    }
    walls
    {
        type            kqRWallFunction;
        value           nonuniform List<scalar> 
248
(
0.00263062
0.00235472
0.00237893
0.00241242
0.00242783
0.00242145
0.00239682
0.00235069
0.00229563
0.00229276
0.00263119
0.00262971
0.00235286
0.00237624
0.00240906
0.00242402
0.00241754
0.00239305
0.00234735
0.00229292
0.00229099
0.00263028
0.00262861
0.00235136
0.00237426
0.0024066
0.00242129
0.00241473
0.00239031
0.00234492
0.00229096
0.00228952
0.00262916
0.00262756
0.00235034
0.00237296
0.00240498
0.00241944
0.00241283
0.00238846
0.00234336
0.00228969
0.00228847
0.00262806
0.00262681
0.0023497
0.00237214
0.00240392
0.00241826
0.00241155
0.00238727
0.00234236
0.00228888
0.00228778
0.00262725
0.00262651
0.00234925
0.00237148
0.00240301
0.00241723
0.00241043
0.00238616
0.00234137
0.00228813
0.00228728
0.00262692
0.00263119
0.00235556
0.00238018
0.00241415
0.00243001
0.00242351
0.00239807
0.00235141
0.00229584
0.00229245
0.00263098
0.00263028
0.0023537
0.0023775
0.0024108
0.00242621
0.00241956
0.00239431
0.00234809
0.00229317
0.00229076
0.00263011
0.00262916
0.00235218
0.00237549
0.0024083
0.00242338
0.00241665
0.00239156
0.00234568
0.00229129
0.00228948
0.00262907
0.00262806
0.00235111
0.00237413
0.00240656
0.00242139
0.00241459
0.00238966
0.00234414
0.00229011
0.00228859
0.00262806
0.00262725
0.00235039
0.00237318
0.00240537
0.00242002
0.00241318
0.00238838
0.00234311
0.00228933
0.00228798
0.00262732
0.00262692
0.00234986
0.00237238
0.00240429
0.00241876
0.00241185
0.00238713
0.00234205
0.0022886
0.0022876
0.00262707
0.00229607
0.00235173
0.00239807
0.00242274
0.00242866
0.00241314
0.00237955
0.00235504
0.00263098
0.00263008
0.00229103
0.0022933
0.00234841
0.00239434
0.00241886
0.00242492
0.0024098
0.00237689
0.00235325
0.00263011
0.00262885
0.00228943
0.00229132
0.00234596
0.00239159
0.00241604
0.00242223
0.00240738
0.00237495
0.00235189
0.00262907
0.00262775
0.00228831
0.00228995
0.00234422
0.00238963
0.00241406
0.00242042
0.00240581
0.00237369
0.00235097
0.00262806
0.00262713
0.00228742
0.00228872
0.00234261
0.00238786
0.00241261
0.00241922
0.00240475
0.00237286
0.00235034
0.00262732
0.00241115
0.0024181
0.00240381
0.00237216
0.00234995
0.00262707
0.00263062
0.00229222
0.00229546
0.00235104
0.00239777
0.00242323
0.0024298
0.00262971
0.00229046
0.00229282
0.0023478
0.00239411
0.00241938
0.00242608
0.00241092
0.0023778
0.00235373
0.00263008
0.00262861
0.00228902
0.00229092
0.00234546
0.00239144
0.00241654
0.0024233
0.00240821
0.00237555
0.00235208
0.00262885
0.00262756
0.00228803
0.00228969
0.00234393
0.00238959
0.00241452
0.00242127
0.00240631
0.00237395
0.00235089
0.00262775
0.00262681
0.00228742
0.00228892
0.00234291
0.00238831
0.00241307
0.00241955
0.00240471
0.00237262
0.00234994
0.00262713
0.00262651
0.00228697
0.00228822
0.00234188
0.00238705
0.0024116
)
;
    }
    ami2
    {
        type            cyclicAMI;
        value           nonuniform List<scalar> 0();
    }
    outlet
    {
        type            zeroGradient;
    }
    procBoundary7to5
    {
        type            processor;
        value           nonuniform List<scalar> 
131
(
0.00262648
0.00234882
0.0023708
0.00240215
0.00241627
0.00240937
0.00238504
0.00234028
0.00228725
0.00228681
0.00262688
0.00228655
0.00231805
0.00275098
0.00300878
0.0031664
0.00324347
0.00322661
0.00309132
0.00280158
0.00231867
0.00234935
0.00228742
0.00280273
0.00335631
0.00372545
0.00394582
0.0040331
0.00397979
0.00376035
0.00335536
0.00275238
0.00237155
0.00234079
0.00309318
0.00376215
0.00422008
0.0044906
0.00458627
0.00450136
0.00421851
0.00372536
0.00301109
0.00240321
0.00238578
0.00322874
0.00398178
0.0045037
0.00481275
0.00491645
0.00481016
0.00448961
0.00394582
0.00316894
0.00241752
0.00241024
0.00241799
0.00324558
0.00317066
0.00403863
0.00395157
0.00459632
0.00449808
0.00492829
0.0048209
0.00503496
0.00491579
0.00458556
0.00403346
0.00324574
0.00241051
0.00241799
0.00317066
0.00395157
0.00449808
0.0048209
0.0048209
0.004927
0.00481177
0.00450015
0.00397983
0.00322816
0.00238581
0.00240328
0.00301065
0.00372868
0.00422424
0.00450889
0.00450889
0.00459443
0.00449159
0.00421844
0.00376053
0.00309244
0.00234084
0.00237137
0.00275081
0.0033565
0.00376354
0.00398405
0.00398405
0.00403624
0.00394666
0.00372519
0.00335549
0.00280274
0.00228771
0.00234906
0.00231799
0.00280264
0.00309358
0.00322981
0.00322981
0.00324444
0.00316824
0.00301064
0.00275254
0.00231968
0.00228719
0.00262683
0.00228658
0.00228743
0.002341
0.00238619
0.00238619
0.00240984
0.00241696
0.00240284
0.00237141
0.00234952
0.00262706
)
;
    }
    procBoundary7to8
    {
        type            processor;
        value           nonuniform List<scalar> 
68
(
0.00263147
0.00235674
0.00238212
0.00241653
0.00243256
0.00229408
0.00234038
0.00278622
0.00305286
0.00321456
0.00229857
0.00283887
0.00340879
0.00379079
0.00401767
0.00235506
0.00313838
0.00382765
0.00429963
0.00458008
0.00240237
0.00327975
0.00405472
0.00459132
0.00490969
0.00501926
0.00242805
0.00329936
0.00411163
0.00467897
0.0050173
0.00513183
0.00243442
0.00241432
0.00322083
0.00304605
0.004022
0.00458039
0.00490928
0.00501761
0.00241432
0.00304605
0.00304605
0.00379463
0.00430093
0.00459111
0.00467855
0.00238054
0.00278099
0.00278099
0.00341215
0.00382931
0.00405456
0.00410919
0.00235564
0.00233726
0.00233726
0.00284145
0.00314053
0.00328033
0.00329716
0.00263111
0.00229289
0.00229289
0.00229938
0.00235583
0.00240278
0.00242772
)
;
    }
    procBoundary7to9
    {
        type            processor;
        value           nonuniform List<scalar> 
59
(
0.00242641
0.00240153
0.00235483
0.00229885
0.00229465
0.00263204
0.00329387
0.00327704
0.00313751
0.0028396
0.00234196
0.00235759
0.00410784
0.00405235
0.00382709
0.00341055
0.00278924
0.00238338
0.00467992
0.00459034
0.00429942
0.00379336
0.00305772
0.00241828
0.00491013
0.00457911
0.00402085
0.003221
0.00243476
0.00501801
0.00467781
0.00411026
0.00329968
0.00242848
0.00490933
0.00458944
0.00405341
0.0032802
0.00240281
0.00457864
0.00429805
0.00382695
0.0031392
0.00235557
0.0040178
0.00379071
0.00340958
0.00284015
0.00229909
0.00321686
0.00305483
0.0027879
0.0023412
0.00229444
0.00243348
0.00241732
0.00238278
0.00235716
0.00263188
)
;
    }
}


// ************************************************************************* //
