/*--------------------------------*- C++ -*----------------------------------*\
| =========                 |                                                 |
| \\      /  F ield         | OpenFOAM: The Open Source CFD Toolbox           |
|  \\    /   O peration     | Version:  2212                                  |
|   \\  /    A nd           | Website:  www.openfoam.com                      |
|    \\/     M anipulation  |                                                 |
\*---------------------------------------------------------------------------*/
FoamFile
{
    version     2.0;
    format      ascii;
    arch        "LSB;label=32;scalar=64";
    class       volScalarField;
    location    "0.6";
    object      nut;
}
// * * * * * * * * * * * * * * * * * * * * * * * * * * * * * * * * * * * * * //

dimensions      [0 2 -1 0 0 0 0];

internalField   nonuniform List<scalar> 
693
(
4.02224e-06
4.02058e-06
4.01872e-06
4.01702e-06
4.01578e-06
4.01526e-06
8.04259e-06
8.03606e-06
8.03047e-06
8.02636e-06
8.02363e-06
8.02158e-06
1.17063e-05
1.16937e-05
1.1684e-05
1.16768e-05
1.16719e-05
1.16675e-05
1.45616e-05
1.4543e-05
1.45286e-05
1.4518e-05
1.45102e-05
1.4503e-05
1.63324e-05
1.63092e-05
1.62916e-05
1.62784e-05
1.62688e-05
1.62597e-05
1.68715e-05
1.68469e-05
1.68279e-05
1.68137e-05
1.68033e-05
1.67933e-05
1.61747e-05
1.61515e-05
1.61336e-05
1.61203e-05
1.61106e-05
1.61012e-05
1.42943e-05
1.42753e-05
1.42608e-05
1.42505e-05
1.42432e-05
1.42359e-05
1.14187e-05
1.14055e-05
1.13957e-05
1.13886e-05
1.13837e-05
1.1379e-05
7.9134e-06
7.90703e-06
7.90146e-06
7.89723e-06
7.89436e-06
7.89204e-06
4.0229e-06
4.02124e-06
4.01937e-06
4.01761e-06
4.01628e-06
4.01571e-06
7.91203e-06
7.90565e-06
7.9001e-06
7.89601e-06
7.89332e-06
7.89128e-06
1.80181e-05
1.79441e-05
1.79002e-05
1.78885e-05
1.79034e-05
1.78977e-05
3.66367e-05
3.63858e-05
3.63035e-05
3.63647e-05
3.64031e-05
3.63049e-05
5.10925e-05
5.09454e-05
5.09996e-05
5.10484e-05
5.11702e-05
5.07616e-05
6.04516e-05
6.04949e-05
6.06297e-05
6.08387e-05
6.08862e-05
6.04251e-05
6.49315e-05
6.50029e-05
6.5161e-05
6.53122e-05
6.54808e-05
6.48959e-05
6.30873e-05
6.3017e-05
6.307e-05
6.32192e-05
6.32409e-05
6.27351e-05
5.42211e-05
5.40184e-05
5.40462e-05
5.40776e-05
5.42379e-05
5.39047e-05
3.83451e-05
3.81338e-05
3.80604e-05
3.8139e-05
3.81826e-05
3.80553e-05
1.80316e-05
1.79612e-05
1.79178e-05
1.79051e-05
1.79179e-05
1.78738e-05
8.04471e-06
8.03824e-06
8.03264e-06
8.02842e-06
8.02547e-06
8.02311e-06
1.14184e-05
1.14055e-05
1.13958e-05
1.13888e-05
1.13839e-05
1.13794e-05
3.84514e-05
3.8195e-05
3.8101e-05
3.81575e-05
3.82058e-05
3.82007e-05
7.12266e-05
7.09503e-05
7.08884e-05
7.11949e-05
7.13084e-05
7.09325e-05
9.50378e-05
9.48412e-05
9.49504e-05
9.53521e-05
9.54639e-05
9.42983e-05
0.000108335
0.000108567
0.000108977
0.00010937
0.000109557
0.000108167
0.000113545
0.000113849
0.000114321
0.000114772
0.000114799
0.000113401
0.000110385
0.000110392
0.000110653
0.000110988
0.000111051
0.000109694
9.66263e-05
9.63507e-05
9.63563e-05
9.6932e-05
9.70122e-05
9.57936e-05
7.11771e-05
7.09193e-05
7.08799e-05
7.12034e-05
7.13105e-05
7.07642e-05
3.67174e-05
3.64768e-05
3.64105e-05
3.64425e-05
3.64691e-05
3.64274e-05
1.17104e-05
1.16979e-05
1.16881e-05
1.16806e-05
1.16758e-05
1.16709e-05
1.42959e-05
1.42775e-05
1.42633e-05
1.42531e-05
1.42457e-05
1.42382e-05
5.44434e-05
5.42009e-05
5.41933e-05
5.42416e-05
5.43512e-05
5.40987e-05
9.69941e-05
9.66395e-05
9.66481e-05
9.71462e-05
9.72345e-05
9.61362e-05
0.000127323
0.000126357
0.000126773
0.00012704
0.000127189
0.000126464
0.0001437
0.000142724
0.00014341
0.000144159
0.000144374
0.000143503
0.00014883
0.000148068
0.000149029
0.000149914
0.000150143
0.000149138
0.000144479
0.000143396
0.000144026
0.000144726
0.000144952
0.000144116
0.000127199
0.000126241
0.000126632
0.000126852
0.000127127
0.000126438
9.52212e-05
9.50022e-05
9.5159e-05
9.54148e-05
9.56359e-05
9.43674e-05
5.13554e-05
5.11927e-05
5.12155e-05
5.12436e-05
5.13387e-05
5.10013e-05
1.45684e-05
1.45499e-05
1.45353e-05
1.45246e-05
1.45165e-05
1.45088e-05
1.61788e-05
1.61561e-05
1.61384e-05
1.61257e-05
1.61156e-05
1.61058e-05
6.33488e-05
6.32836e-05
6.33292e-05
6.34014e-05
6.3528e-05
6.2907e-05
0.00011096
0.00011095
0.000111175
0.000111399
0.000111581
0.000109923
0.000145251
0.000144107
0.000144546
0.000145134
0.000144567
0.000143601
0.000163494
0.000162285
0.000162985
0.000163731
0.000163809
0.000162781
0.000168347
0.000167545
0.00016865
0.000169674
0.000169876
0.000168544
0.000162756
0.000161781
0.00016268
0.000163608
0.000163786
0.000162387
0.000144355
0.000143197
0.000143755
0.000144395
0.00014453
0.000143646
0.000109295
0.000109308
0.000109568
0.000109829
0.00011001
0.000108478
6.10403e-05
6.09787e-05
6.10239e-05
6.11419e-05
6.11859e-05
6.06677e-05
1.63418e-05
1.63188e-05
1.63009e-05
1.62872e-05
1.62767e-05
1.62668e-05
1.68792e-05
1.68547e-05
1.68358e-05
1.68216e-05
1.68106e-05
1.67992e-05
6.55131e-05
6.54729e-05
6.5542e-05
6.56674e-05
6.56098e-05
6.49105e-05
0.000114828
0.000114878
0.000115128
0.000115358
0.000115038
0.000113263
0.000149971
0.000149348
0.00014962
0.000150329
0.00014967
0.00014889
0.000169885
0.000168609
0.00016932
0.00016995
0.000169313
0.000168631
0.00017537
0.000174264
0.000175239
0.00017613
0.000176248
0.000175152
0.000168838
0.000167811
0.000168825
0.000169787
0.000169928
0.000168454
0.000149883
0.000148793
0.000149453
0.000150217
0.0001503
0.000149237
0.000114621
0.000114679
0.000114979
0.000115292
0.00011521
0.000113751
6.55334e-05
6.55038e-05
6.55791e-05
6.56902e-05
6.57073e-05
6.5154e-05
1.68805e-05
1.68557e-05
1.68364e-05
1.68217e-05
1.68105e-05
1.67998e-05
1.63409e-05
1.63184e-05
1.63008e-05
1.6287e-05
1.62746e-05
6.10148e-05
6.09852e-05
6.10449e-05
6.10564e-05
6.05586e-05
0.000109539
0.000109519
0.000109685
0.000109657
0.000108345
0.000144893
0.000143727
0.000144199
0.000144344
0.000143233
0.000164
0.000162751
0.000163378
0.000163567
0.000162042
0.000169306
0.000168206
0.000169113
0.000169849
0.000169263
0.000168447
0.000162765
0.000161806
0.00016279
0.000163654
0.000163743
0.000162314
0.00014469
0.000143622
0.000144278
0.000144929
0.000144322
0.000142531
0.000110726
0.000110745
0.000110996
0.0001112
0.000111493
0.000109917
6.33415e-05
6.32782e-05
6.33355e-05
6.3417e-05
6.35402e-05
6.29656e-05
1.61797e-05
1.61567e-05
1.61386e-05
1.61256e-05
1.61156e-05
1.61058e-05
1.45511e-05
1.45356e-05
1.45239e-05
1.45137e-05
5.12489e-05
5.10834e-05
5.11492e-05
5.07646e-05
9.54737e-05
9.51987e-05
9.52739e-05
9.53438e-05
9.42324e-05
0.000127655
0.000126748
0.000126937
0.000126723
0.000126247
0.000145196
0.000144093
0.000144611
0.000144829
0.000143799
0.000149863
0.000148904
0.000149669
0.000150251
0.000149748
0.000148965
0.000143502
0.00014272
0.000143607
0.000144316
0.000144524
0.000143772
0.00012709
0.000126189
0.000126786
0.000127023
0.000127129
0.000126513
9.66694e-05
9.64836e-05
9.65577e-05
9.70396e-05
9.72395e-05
9.62405e-05
5.43977e-05
5.41997e-05
5.42218e-05
5.42756e-05
5.43776e-05
5.40348e-05
1.42972e-05
1.42784e-05
1.4264e-05
1.42538e-05
1.42463e-05
1.42386e-05
1.16993e-05
1.16885e-05
1.16807e-05
1.16738e-05
3.65898e-05
3.64063e-05
3.63868e-05
3.62448e-05
7.14505e-05
7.11332e-05
7.10477e-05
7.12566e-05
7.06272e-05
9.71056e-05
9.67958e-05
9.68067e-05
9.70459e-05
9.58083e-05
0.000110939
0.000110969
0.000111194
0.000111159
0.000109856
0.000114193
0.000114438
0.000114854
0.000115148
0.000115051
0.000113542
0.000108316
0.000108692
0.000109196
0.000109599
0.000109939
0.000108516
9.49008e-05
9.48218e-05
9.50466e-05
9.53937e-05
9.56836e-05
9.44769e-05
7.11602e-05
7.09337e-05
7.09195e-05
7.12818e-05
7.14589e-05
7.11459e-05
3.84293e-05
3.82047e-05
3.81527e-05
3.82291e-05
3.82587e-05
3.81564e-05
1.14193e-05
1.14063e-05
1.13968e-05
1.139e-05
1.13853e-05
1.13807e-05
8.03847e-06
8.03256e-06
8.02815e-06
8.02465e-06
1.80187e-05
1.79356e-05
1.79241e-05
1.79412e-05
3.85078e-05
3.82714e-05
3.82162e-05
3.82445e-05
3.8227e-05
5.46791e-05
5.44066e-05
5.43857e-05
5.43741e-05
5.40478e-05
6.34741e-05
6.34265e-05
6.34815e-05
6.34914e-05
6.29645e-05
6.53295e-05
6.5396e-05
6.55298e-05
6.56251e-05
6.57333e-05
6.49296e-05
6.05629e-05
6.06842e-05
6.08895e-05
6.10821e-05
6.11811e-05
6.06754e-05
5.11987e-05
5.10962e-05
5.11749e-05
5.12292e-05
5.13473e-05
5.09934e-05
3.66677e-05
3.64627e-05
3.64132e-05
3.64707e-05
3.65019e-05
3.64748e-05
1.80124e-05
1.79563e-05
1.79347e-05
1.793e-05
1.79264e-05
1.78919e-05
7.91215e-06
7.90599e-06
7.90111e-06
7.89745e-06
7.89478e-06
7.89304e-06
4.02097e-06
4.01905e-06
4.01736e-06
4.0163e-06
7.90756e-06
7.90166e-06
7.89729e-06
7.89391e-06
1.14215e-05
1.14086e-05
1.13984e-05
1.13909e-05
1.13843e-05
1.42995e-05
1.4281e-05
1.42664e-05
1.42557e-05
1.42452e-05
1.61806e-05
1.61578e-05
1.61401e-05
1.61267e-05
1.61138e-05
1.68776e-05
1.68531e-05
1.68344e-05
1.68201e-05
1.68087e-05
1.67974e-05
1.63352e-05
1.63125e-05
1.62954e-05
1.62826e-05
1.62731e-05
1.6264e-05
1.4564e-05
1.45456e-05
1.45312e-05
1.45209e-05
1.4514e-05
1.45066e-05
1.17081e-05
1.16956e-05
1.1686e-05
1.16791e-05
1.16744e-05
1.16699e-05
8.04297e-06
8.03666e-06
8.03168e-06
8.02796e-06
8.02527e-06
8.02346e-06
4.02251e-06
4.02091e-06
4.01916e-06
4.01755e-06
4.01634e-06
4.01594e-06
)
;

boundaryField
{
    inlet
    {
        type            calculated;
        value           nonuniform List<scalar> 0();
    }
    ami1
    {
        type            cyclicAMI;
        value           nonuniform List<scalar> 0();
    }
    walls
    {
        type            nutkWallFunction;
        blending        stepwise;
        value           uniform 0;
    }
    ami2
    {
        type            cyclicAMI;
        value           nonuniform List<scalar> 0();
    }
    outlet
    {
        type            calculated;
        value           nonuniform List<scalar> 0();
    }
    procBoundary7to5
    {
        type            processor;
        value           nonuniform List<scalar> 
131
(
4.01499e-06
8.01959e-06
1.16635e-05
1.44969e-05
1.6252e-05
1.67843e-05
1.60925e-05
1.42282e-05
1.13738e-05
7.88991e-06
4.01543e-06
7.88925e-06
1.78303e-05
3.6045e-05
5.03096e-05
5.98005e-05
6.42159e-05
6.20571e-05
5.33325e-05
3.77352e-05
1.78298e-05
8.02095e-06
1.13748e-05
3.7896e-05
7.00667e-05
9.30443e-05
0.000106707
0.000111853
0.000108149
9.44343e-05
6.98188e-05
3.61446e-05
1.16663e-05
1.42309e-05
5.35628e-05
9.48324e-05
0.000124263
0.000140933
0.00014647
0.000141525
0.000124127
9.29878e-05
5.05125e-05
1.45017e-05
1.60968e-05
6.22716e-05
0.000108442
0.000141313
0.000160029
0.000165829
0.000159736
0.000141002
0.000106877
6.00093e-05
1.62578e-05
1.67895e-05
1.62638e-05
6.42489e-05
5.98822e-05
0.000111953
0.000106723
0.000146855
0.000140838
0.000166387
0.000159495
0.000172576
0.000165793
0.000146655
0.000112084
6.44053e-05
1.67898e-05
1.62638e-05
5.98822e-05
0.000106723
0.000140838
0.000159495
0.000159495
0.000166338
0.000159771
0.000140434
0.000108304
6.22655e-05
1.60962e-05
1.45048e-05
5.02541e-05
9.29002e-05
0.000124049
0.000141403
0.000141403
0.000147063
0.000141265
0.000124174
9.47295e-05
5.34606e-05
1.42307e-05
1.16675e-05
3.5927e-05
6.97023e-05
9.44453e-05
0.000108263
0.000108263
0.000112183
0.000106977
9.30957e-05
7.00685e-05
3.78298e-05
1.13756e-05
8.02138e-06
1.78538e-05
3.78921e-05
5.35042e-05
6.23035e-05
6.23035e-05
6.43237e-05
6.00568e-05
5.0526e-05
3.61846e-05
1.78403e-05
7.89118e-06
4.01566e-06
7.89069e-06
1.13776e-05
1.42353e-05
1.61023e-05
1.61023e-05
1.67883e-05
1.62557e-05
1.44999e-05
1.16656e-05
8.0216e-06
4.01574e-06
)
;
    }
    procBoundary7to8
    {
        type            processor;
        value           nonuniform List<scalar> 
68
(
4.02382e-06
8.04957e-06
1.17206e-05
1.45835e-05
1.63601e-05
7.91874e-06
1.81167e-05
3.70502e-05
5.1777e-05
6.13733e-05
1.1433e-05
3.88877e-05
7.2352e-05
9.67541e-05
0.000110269
1.43179e-05
5.51831e-05
9.87944e-05
0.000130126
0.000146594
1.62062e-05
6.42567e-05
0.000113061
0.000148505
0.000166927
0.000171439
1.69089e-05
6.649e-05
0.000117066
0.000153101
0.000173501
0.000178796
1.63682e-05
1.45689e-05
6.19409e-05
5.17663e-05
0.00011169
0.000148215
0.000167616
0.000172727
1.45689e-05
5.17663e-05
5.17663e-05
9.73803e-05
0.000130684
0.000148519
0.000153038
1.17116e-05
3.69402e-05
3.69402e-05
7.26421e-05
9.90284e-05
0.000113104
0.000116347
8.04488e-06
1.81301e-05
1.81301e-05
3.89744e-05
5.54063e-05
6.43572e-05
6.63034e-05
4.02266e-06
7.91391e-06
7.91391e-06
1.14358e-05
1.43214e-05
1.62086e-05
1.69081e-05
)
;
    }
    procBoundary7to9
    {
        type            processor;
        value           nonuniform List<scalar> 
59
(
1.6902e-05
1.62029e-05
1.43171e-05
1.14338e-05
7.92018e-06
4.02446e-06
6.59576e-05
6.40595e-05
5.50428e-05
3.88256e-05
1.81336e-05
8.05168e-06
0.000115651
0.00011255
9.85744e-05
7.24359e-05
3.71278e-05
1.17246e-05
0.000151745
0.00014773
0.000130191
9.71187e-05
5.20576e-05
1.45904e-05
0.000166006
0.000147669
0.000111487
6.19627e-05
1.63698e-05
0.000172284
0.00015336
0.000116948
6.65553e-05
1.6911e-05
0.000166168
0.000148076
0.000112981
6.43344e-05
1.62081e-05
0.000146643
0.000130123
9.86355e-05
5.51984e-05
1.432e-05
0.000110428
9.68253e-05
7.24777e-05
3.89241e-05
1.14346e-05
6.15832e-05
5.19221e-05
3.7094e-05
1.81189e-05
7.91926e-06
1.63638e-05
1.45865e-05
1.17226e-05
8.05025e-06
4.02413e-06
)
;
    }
}


// ************************************************************************* //
