/*--------------------------------*- C++ -*----------------------------------*\
| =========                 |                                                 |
| \\      /  F ield         | OpenFOAM: The Open Source CFD Toolbox           |
|  \\    /   O peration     | Version:  2212                                  |
|   \\  /    A nd           | Website:  www.openfoam.com                      |
|    \\/     M anipulation  |                                                 |
\*---------------------------------------------------------------------------*/
FoamFile
{
    version     2.0;
    format      ascii;
    arch        "LSB;label=32;scalar=64";
    class       volScalarField;
    location    "0.05";
    object      nut;
}
// * * * * * * * * * * * * * * * * * * * * * * * * * * * * * * * * * * * * * //

dimensions      [0 2 -1 0 0 0 0];

internalField   nonuniform List<scalar> 
680
(
1.0516e-05
1.03547e-05
1.02658e-05
1.0218e-05
1.01916e-05
1.01814e-05
1.01821e-05
3.18774e-05
3.12948e-05
3.09634e-05
3.07807e-05
3.06801e-05
3.06414e-05
3.06359e-05
4.86701e-05
4.77687e-05
4.72442e-05
4.69497e-05
4.67895e-05
4.67099e-05
4.66611e-05
6.27807e-05
6.15786e-05
6.08989e-05
6.05188e-05
6.03085e-05
6.01929e-05
6.01292e-05
7.04723e-05
6.9113e-05
6.83401e-05
6.79067e-05
6.76659e-05
6.75322e-05
6.74558e-05
7.04723e-05
6.91131e-05
6.83402e-05
6.79069e-05
6.76664e-05
6.75331e-05
6.74564e-05
6.27807e-05
6.15787e-05
6.08993e-05
6.05204e-05
6.03104e-05
6.02059e-05
4.86702e-05
4.77689e-05
4.72448e-05
4.6952e-05
4.67972e-05
4.67161e-05
3.18775e-05
3.1295e-05
3.09639e-05
3.07824e-05
3.06887e-05
3.06668e-05
1.05161e-05
1.03547e-05
1.0266e-05
1.0217e-05
1.01934e-05
1.0188e-05
3.18775e-05
3.12948e-05
3.09634e-05
3.07807e-05
3.06801e-05
3.06414e-05
3.06359e-05
0.00025842
0.00025178
0.000248114
0.000246106
0.000245108
0.000245054
0.000246996
0.000353265
0.000349126
0.000345656
0.00034341
0.000342182
0.000341628
0.000341622
0.000406483
0.00040186
0.000398579
0.000396384
0.00039499
0.000394121
0.000393586
0.000432638
0.000427514
0.000423918
0.000421524
0.000419994
0.000419025
0.000418377
0.000432638
0.000427515
0.000423919
0.000421527
0.000419998
0.00041902
0.000418261
0.000406484
0.000401862
0.000398585
0.000396401
0.00039504
0.000394336
0.000353266
0.000349131
0.000345676
0.000343475
0.000342383
0.000342134
0.00025842
0.000251785
0.000248135
0.0002462
0.000245583
0.000247308
3.18775e-05
3.1295e-05
3.09639e-05
3.07824e-05
3.06886e-05
3.06665e-05
4.86701e-05
4.77687e-05
4.72442e-05
4.69497e-05
4.67897e-05
4.67101e-05
4.66616e-05
0.000353265
0.000349127
0.000345657
0.000343411
0.000342183
0.000341631
0.000341627
0.000526361
0.000521469
0.000517562
0.000514729
0.000512849
0.000511685
0.000510977
0.000617568
0.000613436
0.000609786
0.000606901
0.000604797
0.000603325
0.00060226
0.000658341
0.000654688
0.000651249
0.000648399
0.000646233
0.000644651
0.000643446
0.000658341
0.000654689
0.000651251
0.000648404
0.000646243
0.000644666
0.00064346
0.000617568
0.000613439
0.000609795
0.000606924
0.000604849
0.000603426
0.000526362
0.000521474
0.000517578
0.000514774
0.000512956
0.000511866
0.000353264
0.000349129
0.000345673
0.000343467
0.000342363
0.00034208
4.867e-05
4.77687e-05
4.72445e-05
4.69515e-05
4.67953e-05
4.67134e-05
6.27807e-05
6.15786e-05
6.0899e-05
6.05189e-05
6.03087e-05
6.01932e-05
6.01298e-05
0.000406484
0.00040186
0.00039858
0.000396386
0.000394994
0.000394127
0.000393597
0.000617568
0.000613436
0.000609786
0.000606902
0.000604799
0.000603328
0.000602266
0.000730221
0.000728064
0.000725336
0.000722716
0.000720535
0.000718832
0.000717462
0.000779465
0.000778693
0.000776712
0.000774412
0.000772306
0.000770571
0.000769096
0.000779464
0.000778692
0.000776713
0.000774414
0.000772309
0.000770575
0.000769098
0.000730219
0.000728064
0.000725339
0.000722724
0.000720551
0.000718853
0.000617566
0.000613436
0.000609791
0.000606916
0.000604828
0.000603374
0.000406479
0.000401857
0.00039858
0.000396389
0.000394999
0.000394173
6.27804e-05
6.15784e-05
6.08989e-05
6.05192e-05
6.03097e-05
6.01962e-05
7.04724e-05
6.91131e-05
6.83402e-05
6.79068e-05
6.76661e-05
6.75325e-05
6.74565e-05
0.000432638
0.000427515
0.000423918
0.000421526
0.000419997
0.000419034
0.0004184
0.000658342
0.000654689
0.000651249
0.000648399
0.000646235
0.000644654
0.000643452
0.000779466
0.000778693
0.000776713
0.000774413
0.000772307
0.000770573
0.0007691
0.000831991
0.000833149
0.000832266
0.000830498
0.000828531
0.000827105
0.000825653
0.000831989
0.000833147
0.000832265
0.000830497
0.000828531
0.000827103
0.000825647
0.000779462
0.000778691
0.000776711
0.000774412
0.000772306
0.000770567
0.000658338
0.000654686
0.000651248
0.0006484
0.000646238
0.000644658
0.000432626
0.000427508
0.000423915
0.000421525
0.000419999
0.000419043
7.04719e-05
6.91126e-05
6.83398e-05
6.79066e-05
6.76661e-05
6.75329e-05
7.04723e-05
6.91131e-05
6.83402e-05
6.79068e-05
6.7666e-05
6.75325e-05
6.74563e-05
0.000432638
0.000427515
0.000423918
0.000421525
0.000419997
0.000419034
0.000418398
0.000658342
0.000654689
0.000651249
0.000648399
0.000646235
0.000644653
0.000643451
0.000779466
0.000778693
0.000776713
0.000774413
0.000772307
0.000770573
0.0007691
0.00083199
0.000833149
0.000832267
0.000830499
0.000828532
0.000827106
0.000825653
0.000831987
0.000833147
0.000832266
0.000830498
0.000828531
0.000827103
0.000825647
0.000779465
0.000778693
0.000776712
0.000774412
0.000772306
0.000770567
0.000658348
0.000654693
0.000651251
0.000648401
0.000646238
0.000644658
0.000432612
0.000427509
0.000423918
0.000421526
0.00042
0.000419044
7.04725e-05
6.91131e-05
6.83402e-05
6.79068e-05
6.76662e-05
6.7533e-05
6.27807e-05
6.15786e-05
6.0899e-05
6.05189e-05
6.03086e-05
6.01931e-05
6.01295e-05
0.000406484
0.00040186
0.00039858
0.000396386
0.000394993
0.000394125
0.000393593
0.000617569
0.000613437
0.000609787
0.000606903
0.000604799
0.000603327
0.000602264
0.000730223
0.000728067
0.000725339
0.000722718
0.000720537
0.000718833
0.000717464
0.00077947
0.0007787
0.000776719
0.000774417
0.000772309
0.000770573
0.000769098
0.000778003
0.000779477
0.000778703
0.00077672
0.000774418
0.000772311
0.000770575
0.000769098
0.000731017
0.000730237
0.000728073
0.000725341
0.000722723
0.000720548
0.00071885
0.000621878
0.000617626
0.000613459
0.000609794
0.000606911
0.000604822
0.00060337
0.000413479
0.000406712
0.000401945
0.000398607
0.000396394
0.000394999
0.000394173
6.4873e-05
6.2786e-05
6.15832e-05
6.09012e-05
6.05201e-05
6.031e-05
6.01963e-05
4.86701e-05
4.77687e-05
4.72442e-05
4.69497e-05
4.67896e-05
4.671e-05
4.66613e-05
0.000353265
0.000349127
0.000345657
0.000343411
0.000342183
0.00034163
0.000341624
0.000526364
0.000521472
0.000517565
0.000514732
0.000512851
0.000511687
0.000510978
0.00061758
0.000613448
0.000609796
0.000606909
0.000604803
0.00060333
0.000602266
0.000658379
0.000654719
0.00065127
0.000648413
0.000646242
0.000644656
0.00064345
0.000661731
0.00065838
0.000654717
0.000651268
0.000648413
0.000646248
0.000644667
0.000643459
0.000621811
0.000617572
0.000613426
0.000609779
0.000606909
0.000604838
0.000603418
0.000531873
0.000526258
0.000521375
0.000517504
0.000514725
0.000512927
0.00051185
0.000358615
0.000353179
0.000348988
0.000345583
0.000343411
0.000342335
0.000342068
5.02393e-05
4.86758e-05
4.77712e-05
4.72421e-05
4.69494e-05
4.67941e-05
4.67125e-05
3.18776e-05
3.1295e-05
3.09635e-05
3.07808e-05
3.06802e-05
3.06415e-05
3.0636e-05
0.000258422
0.000251783
0.000248117
0.000246107
0.000245109
0.000245055
0.000246997
0.000353276
0.000349136
0.000345663
0.000343415
0.000342186
0.000341632
0.000341627
0.000406521
0.000401888
0.000398598
0.000396396
0.000394998
0.000394128
0.000393594
0.000432755
0.000427581
0.000423955
0.000421544
0.000420005
0.000419032
0.000418382
0.000439752
0.000432746
0.000427576
0.000423951
0.000421543
0.000420005
0.000419023
0.000418261
0.000413014
0.000406513
0.000401863
0.000398577
0.000396391
0.000395032
0.00039433
0.00035852
0.000353106
0.000348944
0.000345565
0.000343407
0.000342349
0.000342117
0.000265153
0.000257188
0.000251296
0.000247909
0.000246093
0.000245549
0.000247293
3.28533e-05
3.187e-05
3.12884e-05
3.09577e-05
3.0778e-05
3.0687e-05
3.0665e-05
1.05161e-05
1.03547e-05
1.02659e-05
1.0218e-05
1.01916e-05
1.01814e-05
1.01821e-05
3.18778e-05
3.12951e-05
3.09636e-05
3.07809e-05
3.06802e-05
3.06415e-05
3.0636e-05
4.86709e-05
4.77694e-05
4.72448e-05
4.69502e-05
4.67899e-05
4.67103e-05
4.66616e-05
6.27827e-05
6.15805e-05
6.09005e-05
6.052e-05
6.03093e-05
6.01935e-05
6.01298e-05
7.04766e-05
6.91169e-05
6.8343e-05
6.79086e-05
6.76671e-05
6.7533e-05
6.74564e-05
7.28164e-05
7.04766e-05
6.91167e-05
6.83427e-05
6.79085e-05
6.76672e-05
6.75335e-05
6.74565e-05
6.48688e-05
6.27815e-05
6.15796e-05
6.0899e-05
6.05198e-05
6.031e-05
6.02055e-05
5.02366e-05
4.86726e-05
4.77685e-05
4.72403e-05
4.69485e-05
4.67953e-05
4.67147e-05
3.28527e-05
3.18693e-05
3.12878e-05
3.09574e-05
3.07778e-05
3.06871e-05
3.06653e-05
1.08025e-05
1.05146e-05
1.03518e-05
1.02632e-05
1.02149e-05
1.01924e-05
1.01877e-05
)
;

boundaryField
{
    inlet
    {
        type            calculated;
        value           nonuniform List<scalar> 0();
    }
    ami1
    {
        type            cyclicAMI;
        value           nonuniform List<scalar> 0();
    }
    walls
    {
        type            nutkWallFunction;
        blending        stepwise;
        value           nonuniform List<scalar> 
271
(
4.47725e-06
1.75408e-06
0
0
0
0
1.59406e-06
4.27209e-06
5.7164e-06
5.71633e-06
4.27352e-06
1.59521e-06
0
0
0
0
1.50723e-06
4.16094e-06
5.59086e-06
5.59084e-06
4.16171e-06
1.50728e-06
0
0
0
0
1.45926e-06
4.10075e-06
5.52274e-06
5.52274e-06
4.10107e-06
1.45894e-06
0
0
0
0
1.43361e-06
4.06849e-06
5.48615e-06
5.48614e-06
4.0686e-06
1.43334e-06
0
0
0
0
1.42046e-06
4.05146e-06
5.46662e-06
5.46662e-06
4.05149e-06
1.42029e-06
0
0
0
0
1.41436e-06
4.04266e-06
5.45618e-06
5.45618e-06
4.04267e-06
1.41427e-06
0
0
0
0
1.59409e-06
4.27215e-06
5.71655e-06
5.71655e-06
4.27215e-06
1.59409e-06
0
0
0
0
1.50724e-06
4.16099e-06
5.59098e-06
5.59099e-06
4.161e-06
1.50726e-06
0
0
0
0
1.45922e-06
4.10077e-06
5.52283e-06
5.52283e-06
4.10082e-06
1.45929e-06
0
0
0
0
1.43346e-06
4.06844e-06
5.48618e-06
5.4862e-06
4.0686e-06
1.43367e-06
0
0
0
0
1.42e-06
4.05126e-06
5.46659e-06
5.46662e-06
4.05175e-06
1.42063e-06
0
0
0
0
1.41334e-06
4.04221e-06
5.45605e-06
5.45607e-06
4.04356e-06
1.41478e-06
0
0
0
0
1.41034e-06
4.03741e-06
5.45009e-06
5.44993e-06
0
0
1.59409e-06
4.27216e-06
5.71655e-06
5.71655e-06
4.27216e-06
1.59409e-06
0
0
0
0
1.50724e-06
4.161e-06
5.59099e-06
5.59099e-06
4.16099e-06
1.50724e-06
0
0
0
0
1.45922e-06
4.10078e-06
5.52284e-06
5.52284e-06
4.10078e-06
1.45922e-06
0
0
0
0
1.43347e-06
4.06846e-06
5.48621e-06
5.48621e-06
4.06846e-06
1.43347e-06
0
0
0
0
1.42002e-06
4.0513e-06
5.46664e-06
5.46664e-06
4.05129e-06
1.42001e-06
0
0
0
0
1.41337e-06
4.04227e-06
5.45614e-06
5.45614e-06
4.04225e-06
1.41336e-06
0
0
0
0
1.4104e-06
4.0375e-06
5.45026e-06
5.45025e-06
4.03747e-06
1.41038e-06
0
0
5.94558e-06
4.47586e-06
1.75346e-06
0
0
0
0
1.5942e-06
4.27249e-06
5.71743e-06
5.71741e-06
4.27232e-06
1.59458e-06
0
0
0
0
1.50734e-06
4.16127e-06
5.59163e-06
5.59159e-06
4.16099e-06
1.50681e-06
0
0
0
0
1.4593e-06
4.10097e-06
5.52323e-06
5.5232e-06
4.10074e-06
1.45869e-06
0
0
0
0
1.43351e-06
4.06857e-06
5.48642e-06
5.4864e-06
4.06855e-06
1.43325e-06
0
0
0
0
1.42004e-06
4.05135e-06
5.46673e-06
5.46672e-06
4.05171e-06
1.42039e-06
0
0
0
0
1.41338e-06
4.04227e-06
5.45613e-06
5.45612e-06
4.04353e-06
1.41464e-06
0
0
0
0
1.41039e-06
4.03747e-06
5.45015e-06
5.44994e-06
)
;
    }
    ami2
    {
        type            cyclicAMI;
        value           nonuniform List<scalar> 0();
    }
    outlet
    {
        type            calculated;
        value           nonuniform List<scalar> 0();
    }
    procBoundary3to2
    {
        type            processor;
        value           nonuniform List<scalar> 
110
(
1.01812e-05
3.06306e-05
4.66371e-05
6.00882e-05
6.74066e-05
6.74071e-05
6.01377e-05
6.01377e-05
4.66717e-05
3.06505e-05
1.01852e-05
3.06306e-05
0.000247117
0.000341411
0.000393145
0.000417862
0.000417841
0.000394331
0.000394331
0.000341892
0.000247353
3.06498e-05
4.66378e-05
0.000341421
0.000510334
0.000601321
0.00064237
0.000642384
0.000602403
0.000602403
0.000511085
0.000341769
4.66686e-05
6.00892e-05
0.000393161
0.00060133
0.000716189
0.00076767
0.000767672
0.000717487
0.000717487
0.000602294
0.000393623
6.01316e-05
6.74075e-05
0.000417883
0.00064238
0.000767676
0.000824099
0.000824094
0.000769096
0.000769096
0.000643455
0.000418403
6.74568e-05
6.74072e-05
0.000417879
0.000642376
0.000767675
0.0008241
0.000824094
0.000769096
0.000769096
0.000643456
0.000418405
6.74569e-05
6.00886e-05
0.000393152
0.000601325
0.000716191
0.000767673
0.000767672
0.000717486
0.000717486
0.000602294
0.000393626
6.01318e-05
4.66373e-05
0.000341414
0.000510335
0.00060133
0.000642376
0.000642382
0.000602396
0.000602396
0.000511077
0.000341766
4.66683e-05
3.06306e-05
0.000247118
0.000341421
0.000393157
0.000417868
0.000417839
0.000394324
0.000394324
0.000341882
0.000247347
3.06493e-05
1.01812e-05
3.06307e-05
4.66378e-05
6.00891e-05
6.74071e-05
6.7407e-05
6.01372e-05
6.01372e-05
4.66709e-05
3.065e-05
1.0185e-05
)
;
    }
    procBoundary3to4
    {
        type            processor;
        value           nonuniform List<scalar> 
109
(
1.08039e-05
3.2869e-05
5.0232e-05
6.48676e-05
7.28134e-05
7.28134e-05
6.48676e-05
5.0232e-05
3.2869e-05
1.08039e-05
3.2869e-05
0.000265347
0.000358359
0.000412968
0.000439584
0.000439584
0.000412968
0.000358359
0.000265347
3.2869e-05
5.0232e-05
0.00035836
0.000531848
0.000621786
0.000661692
0.000661692
0.000621786
0.000531847
0.000358358
5.02319e-05
6.48677e-05
0.000412968
0.000621786
0.000730998
0.000777998
0.000777998
0.000730997
0.000621784
0.000412964
6.48674e-05
7.28134e-05
0.000439584
0.000661693
0.000777999
0.000827495
0.000827494
0.000777996
0.00066169
0.000439569
7.28131e-05
7.28134e-05
0.000439584
0.000661693
0.000777999
0.000827495
0.000827492
0.000827492
0.000777999
0.000777999
0.0006617
0.0006617
0.000439486
0.000439486
7.28136e-05
7.28136e-05
6.48677e-05
0.000412968
0.000621787
0.000731001
0.000778003
0.000778003
0.000773907
0.000730259
0.000626319
0.000421738
6.83572e-05
5.0232e-05
0.000358359
0.00053185
0.000621796
0.000661731
0.000661731
0.000664813
0.000626293
0.000538318
0.000365157
5.28777e-05
3.28692e-05
0.00026535
0.00035837
0.000413009
0.00043979
0.00043979
0.000448867
0.00042165
0.000365123
0.000273431
3.44431e-05
1.0804e-05
3.28693e-05
5.02326e-05
6.48692e-05
7.28167e-05
7.28167e-05
7.6707e-05
6.83556e-05
5.28764e-05
3.44428e-05
1.12894e-05
)
;
    }
}


// ************************************************************************* //
