/*--------------------------------*- C++ -*----------------------------------*\
| =========                 |                                                 |
| \\      /  F ield         | OpenFOAM: The Open Source CFD Toolbox           |
|  \\    /   O peration     | Version:  2212                                  |
|   \\  /    A nd           | Website:  www.openfoam.com                      |
|    \\/     M anipulation  |                                                 |
\*---------------------------------------------------------------------------*/
FoamFile
{
    version     2.0;
    format      ascii;
    arch        "LSB;label=32;scalar=64";
    class       volScalarField;
    location    "1.45";
    object      nut;
}
// * * * * * * * * * * * * * * * * * * * * * * * * * * * * * * * * * * * * * //

dimensions      [0 2 -1 0 0 0 0];

internalField   nonuniform List<scalar> 
693
(
3.62667e-06
3.60205e-06
3.57764e-06
3.5534e-06
3.52907e-06
3.50493e-06
7.22565e-06
7.17192e-06
7.12019e-06
7.06942e-06
7.01923e-06
6.96929e-06
1.04865e-05
1.03988e-05
1.03138e-05
1.02304e-05
1.01485e-05
1.0069e-05
1.28989e-05
1.27696e-05
1.26458e-05
1.2529e-05
1.24156e-05
1.23066e-05
1.43944e-05
1.42385e-05
1.40912e-05
1.39512e-05
1.38175e-05
1.36897e-05
1.48377e-05
1.4667e-05
1.4503e-05
1.43509e-05
1.42094e-05
1.40788e-05
1.41813e-05
1.40202e-05
1.38711e-05
1.37313e-05
1.36002e-05
1.34763e-05
1.2534e-05
1.24086e-05
1.22898e-05
1.21734e-05
1.20627e-05
1.19484e-05
1.00829e-05
9.98656e-06
9.89597e-06
9.80819e-06
9.72408e-06
9.64203e-06
7.03085e-06
6.9751e-06
6.92132e-06
6.86859e-06
6.81667e-06
6.76453e-06
3.627e-06
3.60229e-06
3.57813e-06
3.55376e-06
3.52937e-06
3.50515e-06
7.03052e-06
6.97486e-06
6.92101e-06
6.86835e-06
6.81664e-06
6.76482e-06
8.73432e-06
8.35302e-06
8.04787e-06
7.73789e-06
7.44111e-06
7.16791e-06
2.00782e-05
1.9278e-05
1.83866e-05
1.7527e-05
1.68514e-05
1.61319e-05
2.9529e-05
2.87446e-05
2.72583e-05
2.65417e-05
2.51211e-05
2.46678e-05
3.57789e-05
3.44595e-05
3.34738e-05
3.22665e-05
3.11252e-05
2.99564e-05
3.88002e-05
3.70219e-05
3.56395e-05
3.4528e-05
3.34714e-05
3.23854e-05
3.79769e-05
3.63606e-05
3.52601e-05
3.35008e-05
3.25453e-05
3.1015e-05
3.14173e-05
2.9568e-05
2.86922e-05
2.69215e-05
2.60746e-05
2.45735e-05
1.93605e-05
1.822e-05
1.75808e-05
1.64697e-05
1.59056e-05
1.50043e-05
8.78093e-06
8.35057e-06
8.06793e-06
7.74089e-06
7.44388e-06
7.16901e-06
7.22684e-06
7.17333e-06
7.12176e-06
7.07111e-06
7.02081e-06
6.97094e-06
1.0084e-05
9.98814e-06
9.89735e-06
9.80978e-06
9.72588e-06
9.64426e-06
1.92335e-05
1.8393e-05
1.75461e-05
1.65168e-05
1.5961e-05
1.50754e-05
4.09508e-05
3.89039e-05
3.74311e-05
3.52945e-05
3.38926e-05
3.21632e-05
5.85894e-05
5.59486e-05
5.32607e-05
5.12825e-05
4.84807e-05
4.74915e-05
6.93112e-05
6.71169e-05
6.47607e-05
6.17638e-05
5.8853e-05
5.62209e-05
7.36476e-05
7.10855e-05
6.88633e-05
6.57726e-05
6.36861e-05
6.08059e-05
7.14362e-05
6.89454e-05
6.67409e-05
6.40521e-05
6.1108e-05
5.82011e-05
6.13314e-05
5.82234e-05
5.53845e-05
5.23237e-05
5.0767e-05
4.8173e-05
4.11952e-05
3.87363e-05
3.74447e-05
3.5112e-05
3.38199e-05
3.20077e-05
2.03405e-05
1.91424e-05
1.85329e-05
1.75442e-05
1.68885e-05
1.61657e-05
1.04891e-05
1.04011e-05
1.0317e-05
1.02339e-05
1.01521e-05
1.00726e-05
1.25364e-05
1.24124e-05
1.22917e-05
1.21769e-05
1.20658e-05
1.19528e-05
3.09051e-05
3.0031e-05
2.83281e-05
2.74508e-05
2.58233e-05
2.48381e-05
6.12983e-05
5.85269e-05
5.5625e-05
5.307e-05
5.02428e-05
4.89983e-05
8.22778e-05
7.93727e-05
7.64574e-05
7.35835e-05
7.07305e-05
6.80842e-05
9.43306e-05
9.13053e-05
8.8279e-05
8.51977e-05
8.21395e-05
7.91452e-05
9.85365e-05
9.5493e-05
9.24665e-05
8.93463e-05
8.62968e-05
8.31826e-05
9.52087e-05
9.21612e-05
8.91267e-05
8.60475e-05
8.2963e-05
7.98843e-05
8.22804e-05
7.93565e-05
7.64416e-05
7.35494e-05
7.06826e-05
6.80273e-05
5.87472e-05
5.60124e-05
5.35031e-05
5.1303e-05
4.85245e-05
4.75347e-05
3.0119e-05
2.85057e-05
2.76484e-05
2.65665e-05
2.52426e-05
2.47741e-05
1.29023e-05
1.27727e-05
1.26497e-05
1.25333e-05
1.24202e-05
1.23114e-05
1.41868e-05
1.40259e-05
1.38761e-05
1.37365e-05
1.36055e-05
1.3482e-05
3.80939e-05
3.65579e-05
3.53344e-05
3.37587e-05
3.2671e-05
3.12202e-05
7.16549e-05
6.9215e-05
6.70969e-05
6.44834e-05
6.13586e-05
5.84229e-05
9.55009e-05
9.24891e-05
8.94877e-05
8.64183e-05
8.33704e-05
8.02205e-05
0.000108547
0.000105288
0.000102059
9.88113e-05
9.55068e-05
9.30853e-05
0.000112543
0.000109265
0.000106009
0.000102733
9.93941e-05
9.69635e-05
0.000108322
0.000105093
0.00010188
9.86367e-05
9.53223e-05
9.2937e-05
9.45747e-05
9.15624e-05
8.85398e-05
8.54188e-05
8.23671e-05
7.93297e-05
6.96038e-05
6.7446e-05
6.50796e-05
6.19759e-05
5.91023e-05
5.64468e-05
3.59787e-05
3.46143e-05
3.36868e-05
3.22585e-05
3.13869e-05
3.00624e-05
1.43973e-05
1.42422e-05
1.40953e-05
1.39553e-05
1.38219e-05
1.36947e-05
1.4843e-05
1.46734e-05
1.45094e-05
1.43575e-05
1.42158e-05
1.40858e-05
3.90327e-05
3.72337e-05
3.58425e-05
3.47392e-05
3.35267e-05
3.26636e-05
7.40817e-05
7.16344e-05
6.92594e-05
6.64743e-05
6.42328e-05
6.08268e-05
9.92015e-05
9.61497e-05
9.30991e-05
8.99625e-05
8.70413e-05
8.33907e-05
0.000113084
0.000109763
0.000106471
0.000103151
9.99141e-05
9.68976e-05
0.000117304
0.000113917
0.000110565
0.000107204
0.000103817
0.000101243
0.0001127
0.000109402
0.00010613
0.000102832
9.94889e-05
9.70423e-05
9.89541e-05
9.58796e-05
9.28355e-05
8.96492e-05
8.66257e-05
8.34745e-05
7.39627e-05
7.14404e-05
6.91856e-05
6.59806e-05
6.4071e-05
6.10609e-05
3.89935e-05
3.72058e-05
3.58106e-05
3.46838e-05
3.35292e-05
3.26116e-05
1.48407e-05
1.46708e-05
1.45068e-05
1.43548e-05
1.42132e-05
1.40828e-05
1.43988e-05
1.42433e-05
1.40963e-05
1.39576e-05
1.38241e-05
3.59654e-05
3.44752e-05
3.38296e-05
3.24334e-05
3.15297e-05
6.97021e-05
6.75576e-05
6.5315e-05
6.21685e-05
5.92904e-05
9.48162e-05
9.18193e-05
8.88317e-05
8.5654e-05
8.35503e-05
0.000108774
0.000105544
0.000102343
9.90475e-05
9.66041e-05
0.000112857
0.000109557
0.000106285
0.00010299
9.97497e-05
9.6724e-05
0.000108329
0.000105121
0.000101926
9.8699e-05
9.54402e-05
9.30375e-05
9.52837e-05
9.2258e-05
8.92587e-05
8.61904e-05
8.31629e-05
8.00579e-05
7.15452e-05
6.90639e-05
6.68349e-05
6.42542e-05
6.13521e-05
5.8414e-05
3.80569e-05
3.64638e-05
3.53129e-05
3.3482e-05
3.27021e-05
3.12041e-05
1.41837e-05
1.40228e-05
1.38737e-05
1.37336e-05
1.36028e-05
1.34794e-05
1.27729e-05
1.26502e-05
1.25331e-05
1.24205e-05
2.87939e-05
2.74282e-05
2.62128e-05
2.57452e-05
5.8745e-05
5.60641e-05
5.35982e-05
5.09994e-05
4.96177e-05
8.24518e-05
7.95657e-05
7.67014e-05
7.36756e-05
7.1909e-05
9.55046e-05
9.25138e-05
8.95575e-05
8.64463e-05
8.42531e-05
9.88947e-05
9.58587e-05
9.28233e-05
8.96915e-05
8.67521e-05
8.39229e-05
9.43405e-05
9.13774e-05
8.83839e-05
8.53379e-05
8.23966e-05
7.94119e-05
8.22121e-05
7.92879e-05
7.63948e-05
7.34949e-05
7.07224e-05
6.80809e-05
6.12767e-05
5.82695e-05
5.5467e-05
5.24006e-05
5.07899e-05
4.82187e-05
3.14476e-05
2.9611e-05
2.87289e-05
2.69902e-05
2.61489e-05
2.46737e-05
1.25354e-05
1.24099e-05
1.22912e-05
1.21749e-05
1.20646e-05
1.19514e-05
1.04014e-05
1.0317e-05
1.02327e-05
1.01515e-05
1.93666e-05
1.83898e-05
1.74067e-05
1.708e-05
4.08842e-05
3.89242e-05
3.75056e-05
3.51552e-05
3.4371e-05
6.13476e-05
5.85737e-05
5.57169e-05
5.28141e-05
5.12423e-05
7.16445e-05
6.92004e-05
6.70572e-05
6.44516e-05
6.15297e-05
7.39005e-05
7.14403e-05
6.89863e-05
6.60092e-05
6.43054e-05
6.08076e-05
6.94042e-05
6.72411e-05
6.48044e-05
6.20314e-05
5.92517e-05
5.65847e-05
5.86314e-05
5.58852e-05
5.34463e-05
5.11954e-05
4.85859e-05
4.75307e-05
4.08615e-05
3.87256e-05
3.74147e-05
3.51006e-05
3.38818e-05
3.20235e-05
1.92537e-05
1.8347e-05
1.75393e-05
1.64983e-05
1.59493e-05
1.50677e-05
1.00829e-05
9.987e-06
9.89667e-06
9.80916e-06
9.72561e-06
9.64399e-06
7.17355e-06
7.12184e-06
7.07067e-06
7.02038e-06
8.42032e-06
8.01705e-06
7.74805e-06
7.45605e-06
1.93042e-05
1.83669e-05
1.75846e-05
1.65312e-05
1.59737e-05
3.10645e-05
2.99869e-05
2.86239e-05
2.69661e-05
2.64284e-05
3.81286e-05
3.66121e-05
3.53766e-05
3.39301e-05
3.27604e-05
3.89744e-05
3.72094e-05
3.58308e-05
3.46584e-05
3.36975e-05
3.243e-05
3.58956e-05
3.45271e-05
3.36633e-05
3.22825e-05
3.13702e-05
3.00907e-05
3.00647e-05
2.8463e-05
2.76097e-05
2.65655e-05
2.52449e-05
2.48029e-05
2.02587e-05
1.91454e-05
1.85218e-05
1.7538e-05
1.69117e-05
1.61734e-05
8.7679e-06
8.36322e-06
8.06997e-06
7.76636e-06
7.47028e-06
7.19873e-06
7.0305e-06
6.97508e-06
6.92162e-06
6.86929e-06
6.81782e-06
6.76608e-06
3.60242e-06
3.57833e-06
3.55383e-06
3.52944e-06
6.9763e-06
6.92229e-06
6.8694e-06
6.81718e-06
1.0085e-05
9.98987e-06
9.89922e-06
9.81124e-06
9.72749e-06
1.25386e-05
1.24139e-05
1.22949e-05
1.21779e-05
1.20687e-05
1.41881e-05
1.40274e-05
1.38783e-05
1.37379e-05
1.36092e-05
1.48425e-05
1.46729e-05
1.45095e-05
1.43576e-05
1.42174e-05
1.40857e-05
1.43967e-05
1.42418e-05
1.40952e-05
1.39556e-05
1.38229e-05
1.3696e-05
1.29007e-05
1.27713e-05
1.26485e-05
1.25324e-05
1.24195e-05
1.23113e-05
1.04875e-05
1.03998e-05
1.03156e-05
1.02326e-05
1.01511e-05
1.0072e-05
7.22615e-06
7.17272e-06
7.12139e-06
7.07094e-06
7.02098e-06
6.97131e-06
3.62688e-06
3.60235e-06
3.57822e-06
3.55407e-06
3.52981e-06
3.50572e-06
)
;

boundaryField
{
    inlet
    {
        type            calculated;
        value           nonuniform List<scalar> 0();
    }
    ami1
    {
        type            cyclicAMI;
        value           nonuniform List<scalar> 0();
    }
    walls
    {
        type            nutkWallFunction;
        blending        stepwise;
        value           uniform 0;
    }
    ami2
    {
        type            cyclicAMI;
        value           nonuniform List<scalar> 0();
    }
    outlet
    {
        type            calculated;
        value           nonuniform List<scalar> 0();
    }
    procBoundary7to5
    {
        type            processor;
        value           nonuniform List<scalar> 
131
(
3.48035e-06
6.91889e-06
9.99086e-06
1.22012e-05
1.35683e-05
1.39514e-05
1.33503e-05
1.18323e-05
9.559e-06
6.71074e-06
3.48048e-06
6.71127e-06
6.65267e-06
1.50131e-05
2.3025e-05
2.84428e-05
3.08616e-05
2.90089e-05
2.26299e-05
1.37864e-05
6.65124e-06
6.9202e-06
9.56185e-06
1.38463e-05
2.95916e-05
4.38871e-05
5.29459e-05
5.64755e-05
5.44642e-05
4.4491e-05
2.94798e-05
1.50383e-05
9.99435e-06
1.18358e-05
2.27196e-05
4.51152e-05
6.275e-05
7.32238e-05
7.69862e-05
7.3855e-05
6.27021e-05
4.3936e-05
2.30967e-05
1.22062e-05
1.33565e-05
2.91932e-05
5.43383e-05
7.41172e-05
8.64592e-05
9.02123e-05
8.63613e-05
7.34304e-05
5.31676e-05
2.83149e-05
1.35727e-05
1.39578e-05
1.36961e-05
3.07426e-05
2.98782e-05
5.65659e-05
5.59259e-05
7.71379e-05
7.7891e-05
9.01297e-05
9.04525e-05
9.43953e-05
9.03029e-05
7.72933e-05
5.67201e-05
3.07643e-05
1.39554e-05
1.36961e-05
2.98782e-05
5.59259e-05
7.7891e-05
9.04525e-05
9.04525e-05
9.00192e-05
8.64473e-05
7.40539e-05
5.46872e-05
2.9192e-05
1.33539e-05
1.23121e-05
2.42315e-05
4.63295e-05
6.67764e-05
7.84933e-05
7.84933e-05
7.7823e-05
7.34845e-05
6.27976e-05
4.45831e-05
2.27215e-05
1.18345e-05
1.00723e-05
1.5949e-05
3.16154e-05
4.76771e-05
5.77029e-05
5.77029e-05
5.66087e-05
5.32505e-05
4.40049e-05
2.95448e-05
1.38516e-05
9.56166e-06
6.96986e-06
6.99749e-06
1.46826e-05
2.43975e-05
3.10776e-05
3.10776e-05
3.07651e-05
2.83692e-05
2.31368e-05
1.5069e-05
6.68267e-06
6.71265e-06
3.50468e-06
6.7634e-06
9.64363e-06
1.19528e-05
1.3482e-05
1.3482e-05
1.39594e-05
1.35747e-05
1.22063e-05
9.99413e-06
6.92105e-06
3.4811e-06
)
;
    }
    procBoundary7to8
    {
        type            processor;
        value           nonuniform List<scalar> 
68
(
3.65264e-06
7.28278e-06
1.05852e-05
1.30372e-05
1.45601e-05
7.08923e-06
9.14491e-06
2.12407e-05
3.13721e-05
3.71848e-05
1.01824e-05
2.0558e-05
4.29009e-05
6.20707e-05
7.23103e-05
1.26686e-05
3.28946e-05
6.3446e-05
8.57309e-05
9.80271e-05
1.43373e-05
4.00296e-05
7.47229e-05
9.91445e-05
0.000112482
0.000116582
1.50042e-05
4.11071e-05
7.72566e-05
0.000102887
0.000117049
0.000121404
1.45643e-05
1.29028e-05
3.73699e-05
2.99227e-05
7.26657e-05
9.84214e-05
0.000112641
0.000116854
1.29028e-05
2.99227e-05
2.99227e-05
6.22127e-05
8.58338e-05
9.91341e-05
0.000102632
1.04889e-05
2.02977e-05
2.02977e-05
4.29854e-05
6.34713e-05
7.46912e-05
7.70951e-05
7.22745e-06
8.81801e-06
8.81801e-06
2.05745e-05
3.29409e-05
4.00657e-05
4.10642e-05
3.62762e-06
7.03291e-06
7.03291e-06
1.01835e-05
1.26698e-05
1.43381e-05
1.50041e-05
)
;
    }
    procBoundary7to9
    {
        type            processor;
        value           nonuniform List<scalar> 
59
(
1.50012e-05
1.43329e-05
1.26632e-05
1.01791e-05
7.08899e-06
3.65258e-06
4.09082e-05
3.98622e-05
3.25906e-05
2.0494e-05
9.15386e-06
7.28346e-06
7.68853e-05
7.45007e-05
6.33423e-05
4.28692e-05
2.1167e-05
1.05864e-05
0.000102332
9.89159e-05
8.57119e-05
6.20569e-05
3.12122e-05
1.30391e-05
0.00011227
9.82315e-05
7.25569e-05
3.73381e-05
1.4563e-05
0.000116724
0.000102688
7.71242e-05
4.10724e-05
1.50025e-05
0.000112265
9.89503e-05
7.4573e-05
3.99487e-05
1.43346e-05
9.80075e-05
8.56263e-05
6.33595e-05
3.26352e-05
1.26648e-05
7.23476e-05
6.19675e-05
4.30364e-05
2.05463e-05
1.01803e-05
3.71896e-05
3.1142e-05
2.12056e-05
9.14833e-06
7.08869e-06
1.45622e-05
1.30376e-05
1.05848e-05
7.28261e-06
3.65251e-06
)
;
    }
}


// ************************************************************************* //
