/*--------------------------------*- C++ -*----------------------------------*\
| =========                 |                                                 |
| \\      /  F ield         | OpenFOAM: The Open Source CFD Toolbox           |
|  \\    /   O peration     | Version:  2212                                  |
|   \\  /    A nd           | Website:  www.openfoam.com                      |
|    \\/     M anipulation  |                                                 |
\*---------------------------------------------------------------------------*/
FoamFile
{
    version     2.0;
    format      ascii;
    arch        "LSB;label=32;scalar=64";
    class       surfaceScalarField;
    location    "1.55";
    object      phi;
}
// * * * * * * * * * * * * * * * * * * * * * * * * * * * * * * * * * * * * * //

dimensions      [0 3 -1 0 0 0 0];

oriented        oriented;

internalField   nonuniform List<scalar> 
1826
(
6.15472e-08
-3.39951e-08
3.47157e-08
6.08357e-08
-3.40139e-08
3.47255e-08
6.01343e-08
-3.40156e-08
3.4717e-08
5.9436e-08
-3.40083e-08
3.47066e-08
5.87297e-08
-3.39956e-08
3.47019e-08
-3.39927e-08
3.46779e-08
1.99148e-07
-6.38327e-08
3.19358e-08
1.97069e-07
-6.38995e-08
3.1964e-08
1.95015e-07
-6.39401e-08
3.19782e-08
1.92969e-07
-6.39548e-08
3.19933e-08
1.90896e-07
-6.39521e-08
3.20286e-08
-6.39345e-08
3.20034e-08
3.89031e-07
-8.87562e-08
2.89424e-08
3.85074e-07
-8.87649e-08
2.88228e-08
3.81163e-07
-8.87592e-08
2.87306e-08
3.77292e-07
-8.87631e-08
2.86783e-08
3.73429e-07
-8.87667e-08
2.86781e-08
-8.87424e-08
2.86735e-08
5.55816e-07
-1.06781e-07
2.42397e-08
5.49748e-07
-1.06821e-07
2.41239e-08
5.43813e-07
-1.06853e-07
2.40293e-08
5.3799e-07
-1.06884e-07
2.39434e-08
5.32244e-07
-1.06921e-07
2.39003e-08
-1.06944e-07
2.3881e-08
6.67206e-07
-1.168e-07
1.74248e-08
6.59933e-07
-1.1685e-07
1.73013e-08
6.52787e-07
-1.16877e-07
1.71701e-08
6.45759e-07
-1.16898e-07
1.70425e-08
6.3883e-07
-1.16937e-07
1.69454e-08
-1.17005e-07
1.68598e-08
6.94339e-07
-1.17916e-07
8.37594e-09
6.87207e-07
-1.17929e-07
8.21159e-09
6.80218e-07
-1.17962e-07
8.07373e-09
6.73387e-07
-1.18021e-07
7.95478e-09
6.6669e-07
-1.18094e-07
7.8536e-09
-1.18199e-07
7.75245e-09
6.36828e-07
-1.09682e-07
-2.08144e-09
6.30803e-07
-1.09686e-07
-2.21744e-09
6.2488e-07
-1.09663e-07
-2.37624e-09
6.19057e-07
-1.09669e-07
-2.52908e-09
6.13301e-07
-1.097e-07
-2.63819e-09
-1.09757e-07
-2.74957e-09
5.13228e-07
-9.22086e-08
-1.28183e-08
5.08653e-07
-9.21435e-08
-1.29677e-08
5.04225e-07
-9.20326e-08
-1.32029e-08
4.99873e-07
-9.19459e-08
-1.33709e-08
4.95489e-07
-9.18987e-08
-1.34181e-08
-9.18635e-08
-1.3492e-08
3.53021e-07
-6.66798e-08
-2.23031e-08
3.49794e-07
-6.66216e-08
-2.22945e-08
3.4656e-07
-6.65369e-08
-2.22622e-08
3.43298e-07
-6.64669e-08
-2.2217e-08
3.39955e-07
-6.64325e-08
-2.21228e-08
-6.63844e-08
-2.21207e-08
1.8636e-07
-3.47038e-08
-3.00278e-08
1.84434e-07
-3.47122e-08
-2.99831e-08
1.82529e-07
-3.47084e-08
-2.99232e-08
1.80639e-07
-3.46975e-08
-2.98791e-08
1.78707e-07
-3.46952e-08
-2.98055e-08
-3.46715e-08
-2.98163e-08
6.15492e-08
-3.39877e-08
6.08467e-08
-3.40097e-08
6.01449e-08
-3.40066e-08
5.94474e-08
-3.4e-08
5.87396e-08
-3.39875e-08
-3.39851e-08
1.86377e-07
-3.00333e-08
6.6703e-08
1.84436e-07
-2.99769e-08
6.6643e-08
1.82534e-07
-2.99321e-08
6.65514e-08
1.80642e-07
-2.98828e-08
6.64808e-08
1.78719e-07
-2.98128e-08
6.64377e-08
-2.98229e-08
6.63903e-08
4.99028e-07
-5.55858e-08
6.06274e-08
4.95821e-07
-5.55088e-08
6.0703e-08
4.92551e-07
-5.54421e-08
6.07585e-08
4.89225e-07
-5.53796e-08
6.0816e-08
4.85805e-07
-5.52721e-08
6.09078e-08
-5.52304e-08
6.08866e-08
8.10335e-07
-7.767e-08
5.28479e-08
8.08358e-07
-7.758e-08
5.28705e-08
8.06254e-07
-7.74932e-08
5.2886e-08
8.04018e-07
-7.73943e-08
5.29293e-08
8.01649e-07
-7.72636e-08
5.30378e-08
-7.71727e-08
5.30659e-08
1.03475e-06
-9.35887e-08
4.14221e-08
1.03338e-06
-9.34868e-08
4.14056e-08
1.03191e-06
-9.34032e-08
4.14112e-08
1.03036e-06
-9.33283e-08
4.14201e-08
1.02875e-06
-9.32456e-08
4.14913e-08
-9.31792e-08
4.1527e-08
1.16845e-06
-1.02199e-07
2.71678e-08
1.16723e-06
-1.02107e-07
2.7144e-08
1.16592e-06
-1.02032e-07
2.7106e-08
1.16455e-06
-1.01976e-07
2.70628e-08
1.16313e-06
-1.01934e-07
2.70478e-08
-1.01917e-07
2.69997e-08
1.20306e-06
-1.03099e-07
1.0188e-08
1.20216e-06
-1.0309e-07
1.01015e-08
1.20121e-06
-1.03084e-07
1.00694e-08
1.20021e-06
-1.03088e-07
1.00668e-08
1.19918e-06
-1.03106e-07
1.00639e-08
-1.03093e-07
9.97556e-09
1.14328e-06
-9.6363e-08
-8.23852e-09
1.14272e-06
-9.64396e-08
-8.3068e-09
1.14215e-06
-9.65084e-08
-8.38187e-09
1.14155e-06
-9.65685e-08
-8.4502e-09
1.14094e-06
-9.66636e-08
-8.46845e-09
-9.66818e-08
-8.57799e-09
1.00202e-06
-8.22229e-08
-2.64195e-08
1.00144e-06
-8.23486e-08
-2.64793e-08
1.00075e-06
-8.24961e-08
-2.65255e-08
9.99965e-07
-8.26465e-08
-2.65072e-08
9.99106e-07
-8.28232e-08
-2.63998e-08
-8.28403e-08
-2.64479e-08
7.8498e-07
-6.06114e-08
-4.22504e-08
7.83174e-07
-6.06712e-08
-4.21662e-08
7.81218e-07
-6.07365e-08
-4.20661e-08
7.79089e-07
-6.07926e-08
-4.19418e-08
7.76772e-07
-6.08972e-08
-4.17315e-08
-6.08739e-08
-4.16649e-08
4.99026e-07
-3.1927e-08
-5.5568e-08
4.95822e-07
-3.19449e-08
-5.55057e-08
4.92555e-07
-3.1973e-08
-5.54194e-08
4.89232e-07
-3.19834e-08
-5.53649e-08
4.858e-07
-3.20223e-08
-5.52483e-08
-3.19986e-08
-5.5208e-08
1.99196e-07
-6.38305e-08
1.97137e-07
-6.38952e-08
1.95079e-07
-6.39222e-08
1.93036e-07
-6.39396e-08
1.90962e-07
-6.39364e-08
-6.39212e-08
3.53103e-07
-2.23076e-08
9.22322e-08
3.49874e-07
-2.22902e-08
9.21619e-08
3.46641e-07
-2.22724e-08
9.20569e-08
3.43387e-07
-2.22233e-08
9.19584e-08
3.40074e-07
-2.21393e-08
9.18895e-08
-2.21305e-08
9.18617e-08
7.85034e-07
-4.226e-08
8.22468e-08
7.83233e-07
-4.2168e-08
8.23823e-08
7.81296e-07
-4.20907e-08
8.25134e-08
7.79184e-07
-4.19613e-08
8.2666e-08
7.76881e-07
-4.17539e-08
8.28253e-08
-4.16879e-08
8.28591e-08
1.1246e-06
-6.04789e-08
6.95475e-08
1.126e-06
-6.03562e-08
6.96647e-08
1.12725e-06
-6.02311e-08
6.97721e-08
1.12842e-06
-6.00956e-08
6.98905e-08
1.12955e-06
-5.99077e-08
7.00632e-08
-5.98178e-08
7.01303e-08
1.35929e-06
-7.41897e-08
5.22436e-08
1.36212e-06
-7.40888e-08
5.23095e-08
1.36487e-06
-7.39696e-08
5.24045e-08
1.36754e-06
-7.38499e-08
5.24998e-08
1.37018e-06
-7.36952e-08
5.26375e-08
-7.35783e-08
5.27037e-08
1.49783e-06
-8.20043e-08
3.17079e-08
1.50107e-06
-8.19129e-08
3.17323e-08
1.50429e-06
-8.18408e-08
3.17504e-08
1.50752e-06
-8.17801e-08
3.17681e-08
1.51077e-06
-8.17118e-08
3.18132e-08
-8.16419e-08
3.18135e-08
1.53844e-06
-8.37357e-08
8.50732e-09
1.54187e-06
-8.37167e-08
8.47301e-09
1.54534e-06
-8.36941e-08
8.45705e-09
1.54884e-06
-8.36785e-08
8.46646e-09
1.55238e-06
-8.36759e-08
8.48808e-09
-8.36575e-08
8.41882e-09
1.48494e-06
-7.95779e-08
-1.58679e-08
1.48845e-06
-7.96273e-08
-1.59127e-08
1.492e-06
-7.96863e-08
-1.59411e-08
1.49562e-06
-7.97834e-08
-1.59605e-08
1.49934e-06
-7.99062e-08
-1.59559e-08
-7.99545e-08
-1.60121e-08
1.34587e-06
-6.95259e-08
-3.96091e-08
1.34903e-06
-6.96362e-08
-3.96293e-08
1.3522e-06
-6.97532e-08
-3.96253e-08
1.35534e-06
-6.98881e-08
-3.95465e-08
1.35852e-06
-7.00633e-08
-3.94216e-08
-7.01226e-08
-3.94276e-08
1.12449e-06
-5.28306e-08
-6.04723e-08
1.12588e-06
-5.28423e-08
-6.03534e-08
1.12716e-06
-5.28845e-08
-6.02165e-08
1.12834e-06
-5.29255e-08
-6.00848e-08
1.12948e-06
-5.30426e-08
-5.98888e-08
-5.30673e-08
-5.97908e-08
8.1031e-07
-2.89305e-08
-7.76537e-08
8.08339e-07
-2.8804e-08
-7.7573e-08
8.06224e-07
-2.87355e-08
-7.74534e-08
8.03983e-07
-2.86739e-08
-7.73751e-08
8.01608e-07
-2.86806e-08
-7.72355e-08
-2.86751e-08
-7.71482e-08
3.89176e-07
-8.87527e-08
3.8523e-07
-8.87531e-08
3.8132e-07
-8.87474e-08
3.77458e-07
-8.87517e-08
3.73594e-07
-8.87528e-08
-8.87322e-08
5.13359e-07
-1.28245e-08
1.09724e-07
5.08791e-07
-1.29762e-08
1.09706e-07
5.04377e-07
-1.32032e-08
1.09674e-07
5.00044e-07
-1.33776e-08
1.0967e-07
4.95695e-07
-1.34535e-08
1.09692e-07
-1.34951e-08
1.09726e-07
1.00215e-06
-2.64455e-08
9.6386e-08
1.00158e-06
-2.64907e-08
9.64662e-08
1.00088e-06
-2.65253e-08
9.65307e-08
1.0001e-06
-2.65235e-08
9.65972e-08
9.99255e-07
-2.645e-08
9.66623e-08
-2.64387e-08
9.66806e-08
1.34592e-06
-3.96177e-08
7.95896e-08
1.34907e-06
-3.96246e-08
7.96523e-08
1.3522e-06
-3.96077e-08
7.97212e-08
1.35534e-06
-3.95618e-08
7.97961e-08
1.35848e-06
-3.94406e-08
7.99153e-08
-3.93991e-08
7.99937e-08
1.58213e-06
-5.02784e-08
5.80327e-08
1.58699e-06
-5.02499e-08
5.80749e-08
1.59185e-06
-5.01988e-08
5.81357e-08
1.59669e-06
-5.01264e-08
5.82194e-08
1.60158e-06
-5.00235e-08
5.83322e-08
-4.99777e-08
5.83892e-08
1.72295e-06
-5.70422e-08
3.2922e-08
1.7285e-06
-5.7009e-08
3.29419e-08
1.73406e-06
-5.69766e-08
3.297e-08
1.73963e-06
-5.69417e-08
3.30069e-08
1.74526e-06
-5.68961e-08
3.30594e-08
-5.68587e-08
3.30659e-08
1.76792e-06
-5.96042e-08
5.33526e-09
1.77367e-06
-5.96015e-08
5.31586e-09
1.77944e-06
-5.96024e-08
5.31192e-09
1.78525e-06
-5.96088e-08
5.32271e-09
1.79112e-06
-5.9624e-08
5.34513e-09
-5.96262e-08
5.31081e-09
1.71912e-06
-5.80319e-08
-2.30199e-08
1.72472e-06
-5.80702e-08
-2.30391e-08
1.73034e-06
-5.8128e-08
-2.30423e-08
1.73602e-06
-5.82116e-08
-2.30322e-08
1.74176e-06
-5.83183e-08
-2.30062e-08
-5.83629e-08
-2.30316e-08
1.58207e-06
-5.22423e-08
-5.02744e-08
1.58693e-06
-5.2309e-08
-5.02501e-08
1.59179e-06
-5.24092e-08
-5.02012e-08
1.59665e-06
-5.24926e-08
-5.01257e-08
1.60157e-06
-5.26337e-08
-5.00225e-08
-5.27091e-08
-4.99824e-08
1.35916e-06
-4.14164e-08
-7.41801e-08
1.36197e-06
-4.13905e-08
-7.40809e-08
1.36472e-06
-4.14263e-08
-7.39563e-08
1.3674e-06
-4.141e-08
-7.3842e-08
1.37005e-06
-4.14941e-08
-7.36842e-08
-4.15328e-08
-7.35603e-08
1.03467e-06
-2.42257e-08
-9.3579e-08
1.0333e-06
-2.41114e-08
-9.34823e-08
1.03183e-06
-2.40293e-08
-9.33805e-08
1.0303e-06
-2.39343e-08
-9.33142e-08
1.02869e-06
-2.39039e-08
-9.32208e-08
-2.38841e-08
-9.3159e-08
5.5608e-07
-1.06787e-07
5.50029e-07
-1.06814e-07
5.44103e-07
-1.06851e-07
5.38289e-07
-1.06872e-07
5.32538e-07
-1.06905e-07
-1.06933e-07
6.37105e-07
-2.08517e-09
1.17956e-07
6.31084e-07
-2.23096e-09
1.17958e-07
6.25172e-07
-2.3909e-09
1.17977e-07
6.19369e-07
-2.54799e-09
1.1802e-07
6.13643e-07
-2.66587e-09
1.18083e-07
-2.78839e-09
1.18168e-07
1.14336e-06
-8.25439e-09
1.03124e-07
1.14281e-06
-8.3272e-09
1.03114e-07
1.14224e-06
-8.39513e-09
1.03108e-07
1.14163e-06
-8.45917e-09
1.03112e-07
1.141e-06
-8.49275e-09
1.0312e-07
-8.60763e-09
1.03106e-07
1.4849e-06
-1.58715e-08
8.37476e-08
1.4884e-06
-1.59115e-08
8.37352e-08
1.49194e-06
-1.59332e-08
8.37207e-08
1.49553e-06
-1.5959e-08
8.37057e-08
1.49921e-06
-1.59626e-08
8.37032e-08
-1.60238e-08
8.36972e-08
1.71909e-06
-2.30139e-08
5.96097e-08
1.72467e-06
-2.30311e-08
5.96109e-08
1.73029e-06
-2.3033e-08
5.96159e-08
1.73595e-06
-2.30249e-08
5.96249e-08
1.74168e-06
-2.30035e-08
5.96468e-08
-2.30339e-08
5.96609e-08
1.85982e-06
-2.84265e-08
3.17614e-08
1.86639e-06
-2.84276e-08
3.17684e-08
1.87297e-06
-2.84246e-08
3.17786e-08
1.87958e-06
-2.84184e-08
3.17909e-08
1.88623e-06
-2.84069e-08
3.18134e-08
-2.84121e-08
3.18259e-08
1.90656e-06
-3.17601e-08
1.8004e-09
1.91341e-06
-3.17656e-08
1.79638e-09
1.92028e-06
-3.17731e-08
1.79743e-09
1.92716e-06
-3.17824e-08
1.80202e-09
1.93408e-06
-3.17972e-08
1.81306e-09
-3.17965e-08
1.80797e-09
1.85982e-06
-3.29293e-08
-2.84281e-08
1.86639e-06
-3.29475e-08
-2.84298e-08
1.87297e-06
-3.29716e-08
-2.84273e-08
1.87958e-06
-3.30045e-08
-2.8421e-08
1.88624e-06
-3.30524e-08
-2.84079e-08
-3.30509e-08
-2.84098e-08
1.72285e-06
-3.17105e-08
-5.70356e-08
1.72839e-06
-3.17341e-08
-5.7004e-08
1.73393e-06
-3.17466e-08
-5.69734e-08
1.7395e-06
-3.17627e-08
-5.69398e-08
1.74513e-06
-3.181e-08
-5.68945e-08
-3.1805e-08
-5.68575e-08
1.49768e-06
-2.71572e-08
-8.19941e-08
1.50091e-06
-2.71346e-08
-8.19036e-08
1.50412e-06
-2.70882e-08
-8.18332e-08
1.50734e-06
-2.70536e-08
-8.17719e-08
1.51061e-06
-2.70521e-08
-8.17041e-08
-2.69819e-08
-8.16358e-08
1.1684e-06
-1.7404e-08
-1.02196e-07
1.16717e-06
-1.72881e-08
-1.02102e-07
1.16588e-06
-1.71521e-08
-1.02023e-07
1.16451e-06
-1.70354e-08
-1.01962e-07
1.1631e-06
-1.69496e-08
-1.01915e-07
-1.68602e-08
-1.01902e-07
6.67494e-07
-1.1681e-07
6.60244e-07
-1.16852e-07
6.5311e-07
-1.16869e-07
6.46089e-07
-1.16886e-07
6.39149e-07
-1.16915e-07
-1.16967e-07
6.94708e-07
8.35697e-09
1.16828e-07
6.87596e-07
8.19127e-09
1.16878e-07
6.8062e-07
8.05505e-09
1.16899e-07
6.73795e-07
7.93192e-09
1.16913e-07
6.67108e-07
7.83214e-09
1.16938e-07
7.72206e-09
1.20311e-06
1.01733e-08
1.02218e-07
1.20221e-06
1.00808e-08
1.02126e-07
1.20127e-06
1.0053e-08
1.02051e-07
1.20027e-06
1.00477e-08
1.01989e-07
1.19923e-06
1.00408e-08
1.01952e-07
9.93447e-09
1.53834e-06
8.50871e-09
8.20197e-08
1.54176e-06
8.47143e-09
8.19281e-08
1.54521e-06
8.45816e-09
8.18604e-08
1.5487e-06
8.46764e-09
8.1802e-08
1.55223e-06
8.46597e-09
8.17451e-08
8.3792e-09
1.7678e-06
5.34939e-09
5.70553e-08
1.77353e-06
5.32889e-09
5.70237e-08
1.77929e-06
5.32307e-09
5.69954e-08
1.78509e-06
5.33251e-09
5.69566e-08
1.79094e-06
5.33976e-09
5.69267e-08
5.28655e-09
1.90648e-06
1.81354e-09
2.84409e-08
1.91332e-06
1.8086e-09
2.84419e-08
1.92018e-06
1.80694e-09
2.84398e-08
1.92706e-06
1.80858e-09
2.84285e-08
1.93397e-06
1.80731e-09
2.84386e-08
1.78597e-09
1.95316e-06
-1.79424e-09
-1.79329e-09
1.96034e-06
-1.78906e-09
-1.78848e-09
1.96752e-06
-1.78878e-09
-1.7878e-09
1.97472e-06
-1.79259e-09
-1.79192e-09
1.98194e-06
-1.80354e-09
-1.79516e-09
-1.79806e-09
-1.77887e-09
1.90652e-06
-5.33828e-09
-3.17485e-08
1.91338e-06
-5.31628e-09
-3.17559e-08
1.92024e-06
-5.30856e-09
-3.17658e-08
1.92712e-06
-5.31704e-09
-3.17781e-08
1.93404e-06
-5.33812e-09
-3.17947e-08
-5.30098e-09
-3.17938e-08
1.76783e-06
-8.50778e-09
-5.95894e-08
1.77357e-06
-8.47006e-09
-5.95882e-08
1.77933e-06
-8.44786e-09
-5.95919e-08
1.78513e-06
-8.45824e-09
-5.96011e-08
1.791e-06
-8.48243e-09
-5.9618e-08
-8.40775e-09
-5.96222e-08
1.53834e-06
-1.01794e-08
-8.37232e-08
1.54176e-06
-1.00894e-08
-8.37044e-08
1.54521e-06
-1.00517e-08
-8.36832e-08
1.5487e-06
-1.00477e-08
-8.36718e-08
1.55225e-06
-1.00588e-08
-8.36721e-08
-9.9617e-09
-8.3656e-08
1.20304e-06
-8.36062e-09
-1.03101e-07
1.20214e-06
-8.19825e-09
-1.03088e-07
1.20119e-06
-8.06142e-09
-1.03073e-07
1.2002e-06
-7.94163e-09
-1.03075e-07
1.19917e-06
-7.84819e-09
-1.03095e-07
-7.74806e-09
-1.03079e-07
6.94583e-07
-1.17929e-07
6.87466e-07
-1.17933e-07
6.80491e-07
-1.17957e-07
6.73661e-07
-1.17998e-07
6.66952e-07
-1.18054e-07
-1.18145e-07
6.6755e-07
1.73888e-08
6.60311e-07
1.72828e-08
1.06835e-07
6.53209e-07
1.71635e-08
1.06836e-07
6.46206e-07
1.7031e-08
1.06886e-07
1.69202e-08
1.06937e-07
1.1685e-06
2.71403e-08
1.16728e-06
2.71305e-08
9.35008e-08
1.16595e-06
2.71023e-08
9.34351e-08
1.16457e-06
2.70647e-08
9.33361e-08
2.70149e-08
9.32574e-08
1.49773e-06
3.17059e-08
7.41976e-08
1.50095e-06
3.17346e-08
7.41023e-08
1.50416e-06
3.17511e-08
7.40055e-08
1.50739e-06
3.17742e-08
7.38586e-08
3.1773e-08
7.37293e-08
1.72283e-06
3.29344e-08
5.02953e-08
1.72837e-06
3.29545e-08
5.02695e-08
1.73391e-06
3.29791e-08
5.02266e-08
1.73949e-06
3.30236e-08
5.01297e-08
3.30325e-08
5.00687e-08
1.85975e-06
3.17746e-08
2.30365e-08
1.86631e-06
3.17815e-08
2.30547e-08
1.87288e-06
3.17885e-08
2.30587e-08
1.8795e-06
3.18008e-08
2.30372e-08
3.17894e-08
2.30549e-08
1.9065e-06
2.84432e-08
-5.32205e-09
1.91335e-06
2.84445e-08
-5.30014e-09
1.9202e-06
2.84407e-08
-5.29325e-09
1.92708e-06
2.84324e-08
-5.30513e-09
1.93399e-06
2.84128e-08
-5.32308e-09
2.84042e-08
-5.28102e-09
1.85983e-06
2.30265e-08
-3.29066e-08
1.8664e-06
2.30463e-08
-3.29261e-08
1.87298e-06
2.305e-08
-3.29535e-08
1.87959e-06
2.30389e-08
-3.29916e-08
1.88623e-06
2.3011e-08
-3.30419e-08
2.30336e-08
-3.30398e-08
1.71912e-06
1.58742e-08
-5.80115e-08
1.72471e-06
1.59206e-08
-5.80506e-08
1.73033e-06
1.59495e-08
-5.81084e-08
1.736e-06
1.59642e-08
-5.81927e-08
1.74173e-06
1.59566e-08
-5.83014e-08
1.60121e-08
-5.83482e-08
1.48491e-06
8.24804e-09
-7.95641e-08
1.48843e-06
8.32106e-09
-7.9618e-08
1.49197e-06
8.40596e-09
-7.96774e-08
1.49557e-06
8.46315e-09
-7.97703e-08
1.49927e-06
8.4646e-09
-7.98878e-08
8.57307e-09
-7.99364e-08
1.14328e-06
2.08921e-09
-9.63645e-08
1.14273e-06
2.22639e-09
-9.64367e-08
1.14217e-06
2.3918e-09
-9.64966e-08
1.14157e-06
2.54317e-09
-9.65562e-08
1.14094e-06
2.64688e-09
-9.66515e-08
2.7603e-09
-9.66639e-08
6.36968e-07
-1.0969e-07
6.30945e-07
-1.09683e-07
6.2503e-07
-1.0965e-07
6.19224e-07
-1.09648e-07
6.1349e-07
-1.09673e-07
-1.09722e-07
5.50031e-07
2.4113e-08
8.87781e-08
5.441e-07
2.4016e-08
8.87509e-08
5.38273e-07
2.39547e-08
8.87577e-08
2.3892e-08
8.87756e-08
1.0334e-06
4.13912e-08
7.75852e-08
1.03196e-06
4.13536e-08
7.75353e-08
1.03042e-06
4.14419e-08
7.73895e-08
4.14855e-08
7.72746e-08
1.35927e-06
5.22446e-08
6.04893e-08
1.36209e-06
5.23107e-08
6.03578e-08
1.36481e-06
5.23829e-08
6.02546e-08
1.3675e-06
5.25244e-08
6.00853e-08
5.26103e-08
5.99494e-08
1.58208e-06
5.80355e-08
3.96341e-08
1.58694e-06
5.80776e-08
3.96404e-08
1.59178e-06
5.81302e-08
3.96444e-08
1.59665e-06
5.8233e-08
3.95479e-08
5.83002e-08
3.94923e-08
1.71905e-06
5.96119e-08
1.58921e-08
1.72464e-06
5.96131e-08
1.59351e-08
1.73025e-06
5.9615e-08
1.59617e-08
1.73592e-06
5.96247e-08
1.59746e-08
5.96206e-08
1.60307e-08
1.76783e-06
5.70505e-08
-8.48498e-09
1.77357e-06
5.70186e-08
-8.44257e-09
1.77933e-06
5.69861e-08
-8.42072e-09
1.78513e-06
5.69499e-08
-8.43898e-09
1.79098e-06
5.68985e-08
-8.44381e-09
5.68559e-08
-8.35389e-09
1.72292e-06
5.02845e-08
-3.16863e-08
1.72846e-06
5.02596e-08
-3.17073e-08
1.734e-06
5.0212e-08
-3.17252e-08
1.73957e-06
5.01361e-08
-3.17483e-08
1.74519e-06
5.00296e-08
-3.17906e-08
4.99864e-08
-3.17768e-08
1.58214e-06
3.96197e-08
-5.22205e-08
1.587e-06
3.96345e-08
-5.22872e-08
1.59186e-06
3.96318e-08
-5.23842e-08
1.59672e-06
3.95559e-08
-5.24702e-08
1.60163e-06
3.94316e-08
-5.26131e-08
3.94339e-08
-5.26851e-08
1.34592e-06
2.64315e-08
-6.95075e-08
1.34908e-06
2.64923e-08
-6.9631e-08
1.35223e-06
2.65412e-08
-6.97393e-08
1.35536e-06
2.65232e-08
-6.98721e-08
1.35854e-06
2.64152e-08
-7.00422e-08
2.64588e-08
-7.0096e-08
1.00203e-06
1.28261e-08
-8.22206e-08
1.00145e-06
1.29781e-08
-8.23448e-08
1.00076e-06
1.32123e-08
-8.24733e-08
9.99967e-07
1.33852e-08
-8.26283e-08
9.99101e-07
1.34339e-08
-8.28039e-08
1.35062e-08
-8.28163e-08
5.13302e-07
-9.22108e-08
5.08732e-07
-9.21358e-08
5.04317e-07
-9.20228e-08
4.99979e-07
-9.19248e-08
4.9561e-07
-9.18703e-08
-9.1831e-08
3.85233e-07
2.882e-08
6.3908e-08
3.81322e-07
2.87191e-08
6.39424e-08
3.77437e-07
2.86979e-08
6.39441e-08
2.8696e-08
6.39278e-08
8.08371e-07
5.28661e-08
5.5508e-08
8.06306e-07
5.28452e-08
5.54735e-08
8.04084e-07
5.2953e-08
5.53567e-08
5.30365e-08
5.5289e-08
1.12461e-06
6.95371e-08
4.2277e-08
1.126e-06
6.96569e-08
4.21746e-08
1.12726e-06
6.97512e-08
4.20899e-08
1.12845e-06
6.99094e-08
4.19409e-08
7.00244e-08
4.18371e-08
1.34589e-06
7.9578e-08
2.64597e-08
1.34906e-06
7.96411e-08
2.64912e-08
1.35218e-06
7.96938e-08
2.65793e-08
1.35532e-06
7.97977e-08
2.65179e-08
7.98818e-08
2.64877e-08
1.48485e-06
8.37374e-08
8.26918e-09
1.48836e-06
8.37238e-08
8.34458e-09
1.49189e-06
8.37056e-08
8.41457e-09
1.4955e-06
8.36903e-08
8.47372e-09
8.3677e-08
8.55998e-09
1.53834e-06
8.20053e-08
-1.01563e-08
1.54176e-06
8.19156e-08
-1.00599e-08
1.54523e-06
8.18427e-08
-1.00187e-08
1.54873e-06
8.17781e-08
-1.0026e-08
1.55226e-06
8.17019e-08
-1.00015e-08
8.16304e-08
-9.87802e-09
1.49777e-06
7.4191e-08
-2.7137e-08
1.501e-06
7.40905e-08
-2.7109e-08
1.50422e-06
7.39653e-08
-2.7066e-08
1.50743e-06
7.38461e-08
-2.70285e-08
1.51067e-06
7.36841e-08
-2.70155e-08
7.35606e-08
-2.69368e-08
1.35927e-06
6.04887e-08
-4.13987e-08
1.36208e-06
6.03552e-08
-4.13645e-08
1.36483e-06
6.02245e-08
-4.13959e-08
1.3675e-06
6.00874e-08
-4.13797e-08
1.37014e-06
5.98896e-08
-4.14621e-08
5.97952e-08
-4.14952e-08
1.12458e-06
4.22684e-08
-5.28135e-08
1.12597e-06
4.21691e-08
-5.2833e-08
1.12723e-06
4.20889e-08
-5.28658e-08
1.1284e-06
4.19531e-08
-5.29028e-08
1.12951e-06
4.1741e-08
-5.30117e-08
4.16767e-08
-5.30265e-08
7.84972e-07
2.23144e-08
-6.0602e-08
7.83164e-07
2.22991e-08
-6.06674e-08
7.81221e-07
2.22802e-08
-6.07215e-08
7.79097e-07
2.22301e-08
-6.07816e-08
7.7678e-07
2.21346e-08
-6.08803e-08
2.21333e-08
-6.08493e-08
3.53044e-07
-6.66773e-08
3.49824e-07
-6.66164e-08
3.46602e-07
-6.65209e-08
3.43356e-07
-6.6448e-08
3.40033e-07
-6.64125e-08
-6.63614e-08
1.97142e-07
3.19585e-08
3.40168e-08
1.95097e-07
3.19633e-08
3.40239e-08
1.93027e-07
3.2005e-08
3.40092e-08
3.20103e-08
3.39992e-08
4.95886e-07
6.06925e-08
2.99785e-08
4.9263e-07
6.07469e-08
2.99456e-08
4.89284e-07
6.08396e-08
2.98686e-08
6.08616e-08
2.98388e-08
7.85045e-07
8.22278e-08
2.23313e-08
7.83252e-07
8.23646e-08
2.22959e-08
7.81334e-07
8.24898e-08
2.22654e-08
7.7925e-07
8.26683e-08
2.21958e-08
8.27699e-08
2.21519e-08
1.00211e-06
9.63653e-08
1.28358e-08
1.00155e-06
9.64529e-08
1.29663e-08
1.0009e-06
9.64984e-08
1.32198e-08
1.00014e-06
9.6581e-08
1.33643e-08
9.66398e-08
1.34463e-08
1.14331e-06
1.03104e-07
2.09819e-09
1.14277e-06
1.03094e-07
2.24464e-09
1.1422e-06
1.03085e-07
2.39768e-09
1.1416e-06
1.03095e-07
2.55629e-09
1.03105e-07
2.70517e-09
1.20308e-06
1.02198e-07
-8.34216e-09
1.20218e-06
1.02106e-07
-8.17265e-09
1.20124e-06
1.02031e-07
-8.0296e-09
1.20025e-06
1.01973e-07
-7.91386e-09
1.19923e-06
1.01927e-07
-7.80201e-09
1.01915e-07
-7.67743e-09
1.16846e-06
9.35799e-08
-1.73861e-08
1.16724e-06
9.34851e-08
-1.72639e-08
1.16595e-06
9.33822e-08
-1.7126e-08
1.16458e-06
9.33143e-08
-1.70048e-08
1.16318e-06
9.32226e-08
-1.69088e-08
9.31618e-08
-1.68089e-08
1.03473e-06
7.76556e-08
-2.42081e-08
1.03336e-06
7.75752e-08
-2.40873e-08
1.03189e-06
7.74585e-08
-2.40022e-08
1.03036e-06
7.73761e-08
-2.39043e-08
1.02875e-06
7.72353e-08
-2.38694e-08
7.71496e-08
-2.38432e-08
8.10319e-07
5.55762e-08
-2.89161e-08
8.08344e-07
5.5508e-08
-2.87914e-08
8.06233e-07
5.54206e-08
-2.87165e-08
8.03995e-07
5.53636e-08
-2.86525e-08
8.01624e-07
5.52506e-08
-2.86557e-08
5.52146e-08
-2.86437e-08
4.99011e-07
3.00311e-08
-3.19232e-08
4.95814e-07
2.99811e-08
-3.19436e-08
4.92554e-07
2.99255e-08
-3.19662e-08
4.89239e-07
2.98767e-08
-3.19794e-08
4.85824e-07
2.98021e-08
-3.20169e-08
2.98141e-08
-3.199e-08
1.86364e-07
-3.47028e-08
1.8444e-07
-3.4711e-08
1.82548e-07
-3.47035e-08
1.80668e-07
-3.46918e-08
1.78747e-07
-3.46887e-08
-3.46633e-08
6.08541e-08
3.47227e-08
6.01586e-08
3.47193e-08
5.94522e-08
3.47157e-08
3.47011e-08
1.84493e-07
6.66396e-08
1.82589e-07
6.65686e-08
1.80672e-07
6.6501e-08
6.64575e-08
3.53163e-07
9.2214e-08
3.49938e-07
9.21601e-08
3.46716e-07
9.20567e-08
3.43431e-07
9.19814e-08
9.19399e-08
5.13467e-07
1.09706e-07
5.08897e-07
1.09696e-07
5.04486e-07
1.09688e-07
5.00153e-07
1.09678e-07
1.09698e-07
6.37214e-07
1.17934e-07
6.31215e-07
1.1794e-07
6.25336e-07
1.17964e-07
6.19556e-07
1.18015e-07
1.18081e-07
6.94741e-07
1.1681e-07
6.87651e-07
1.16857e-07
6.80706e-07
1.1688e-07
6.73911e-07
1.16896e-07
6.67257e-07
1.16933e-07
1.16986e-07
6.67498e-07
1.06785e-07
6.60278e-07
1.06814e-07
6.53179e-07
1.06853e-07
6.46196e-07
1.06874e-07
6.39307e-07
1.06912e-07
1.06941e-07
5.56034e-07
8.87529e-08
5.50003e-07
8.87573e-08
5.44103e-07
8.87505e-08
5.38319e-07
8.87544e-08
5.32606e-07
8.87553e-08
8.8734e-08
3.8913e-07
6.38308e-08
3.85199e-07
6.38967e-08
3.81307e-07
6.39263e-08
3.77464e-07
6.3945e-08
3.73622e-07
6.39412e-08
6.39248e-08
1.99182e-07
3.39875e-08
1.97127e-07
3.40083e-08
1.95081e-07
3.40054e-08
1.9305e-07
3.39975e-08
1.90989e-07
3.39845e-08
3.39812e-08
6.15491e-08
6.08465e-08
6.01484e-08
5.94542e-08
5.875e-08
)
;

boundaryField
{
    inlet
    {
        type            calculated;
        value           nonuniform List<scalar> 0();
    }
    ami1
    {
        type            cyclicAMI;
        value           nonuniform List<scalar> 0();
    }
    walls
    {
        type            calculated;
        value           nonuniform List<scalar> 
248
(
2.90979e-14
2.43942e-14
1.84387e-14
1.28555e-14
6.40674e-15
-1.13815e-21
-6.40674e-15
-1.28555e-14
-1.84387e-14
-2.43942e-14
-2.90979e-14
2.90979e-14
2.43942e-14
1.84387e-14
1.28555e-14
6.40674e-15
-1.13815e-21
-6.40674e-15
-1.28555e-14
-1.84387e-14
-2.43942e-14
-2.90979e-14
2.90979e-14
2.43942e-14
1.84387e-14
1.28555e-14
6.40674e-15
-1.13815e-21
-6.40674e-15
-1.28555e-14
-1.84387e-14
-2.43942e-14
-2.90979e-14
2.90979e-14
2.43942e-14
1.84387e-14
1.28555e-14
6.40674e-15
-1.13815e-21
-6.40674e-15
-1.28555e-14
-1.84387e-14
-2.43942e-14
-2.90979e-14
2.90979e-14
2.43942e-14
1.84387e-14
1.28555e-14
6.40674e-15
-1.13841e-21
-6.40674e-15
-1.28555e-14
-1.84387e-14
-2.43942e-14
-2.90979e-14
2.90979e-14
2.43942e-14
1.84387e-14
1.28555e-14
6.40674e-15
-1.13841e-21
-6.40674e-15
-1.28555e-14
-1.84387e-14
-2.43942e-14
-2.90979e-14
2.90979e-14
2.43942e-14
1.84387e-14
1.28555e-14
6.40674e-15
-1.13815e-21
-6.40674e-15
-1.28555e-14
-1.84387e-14
-2.43942e-14
-2.90979e-14
2.90979e-14
2.43942e-14
1.84387e-14
1.28555e-14
6.40674e-15
-1.13815e-21
-6.40674e-15
-1.28555e-14
-1.84387e-14
-2.43942e-14
-2.90979e-14
2.90979e-14
2.43942e-14
1.84387e-14
1.28555e-14
6.40674e-15
-1.13815e-21
-6.40674e-15
-1.28555e-14
-1.84387e-14
-2.43942e-14
-2.90979e-14
2.90979e-14
2.43942e-14
1.84387e-14
1.28555e-14
6.40674e-15
-1.13815e-21
-6.40674e-15
-1.28555e-14
-1.84387e-14
-2.43942e-14
-2.90979e-14
2.90979e-14
2.43942e-14
1.84387e-14
1.28555e-14
6.40674e-15
-1.13841e-21
-6.40674e-15
-1.28555e-14
-1.84387e-14
-2.43942e-14
-2.90979e-14
2.90979e-14
2.43942e-14
1.84387e-14
1.28555e-14
6.40674e-15
-1.13841e-21
-6.40674e-15
-1.28555e-14
-1.84387e-14
-2.43942e-14
-2.90979e-14
-1.84387e-14
-1.28555e-14
-6.40674e-15
-1.13846e-21
6.40674e-15
1.28555e-14
1.84387e-14
2.43942e-14
2.90979e-14
-2.90979e-14
-2.43942e-14
-1.84387e-14
-1.28555e-14
-6.40674e-15
-1.13846e-21
6.40674e-15
1.28555e-14
1.84387e-14
2.43942e-14
2.90979e-14
-2.90979e-14
-2.43942e-14
-1.84387e-14
-1.28555e-14
-6.40674e-15
-1.13846e-21
6.40674e-15
1.28555e-14
1.84387e-14
2.43942e-14
2.90979e-14
-2.90979e-14
-2.43942e-14
-1.84387e-14
-1.28555e-14
-6.40674e-15
-1.13846e-21
6.40674e-15
1.28555e-14
1.84387e-14
2.43942e-14
2.90979e-14
-2.90979e-14
-2.43942e-14
-1.84387e-14
-1.28555e-14
-6.40674e-15
-1.13846e-21
6.40674e-15
1.28555e-14
1.84387e-14
2.43942e-14
2.90979e-14
-1.13846e-21
6.40674e-15
1.28555e-14
1.84387e-14
2.43942e-14
2.90979e-14
-2.90979e-14
-2.43942e-14
-1.84387e-14
-1.28555e-14
-6.40674e-15
-1.13846e-21
6.40674e-15
-2.90979e-14
-2.43942e-14
-1.84387e-14
-1.28555e-14
-6.40674e-15
-1.13846e-21
6.40674e-15
1.28555e-14
1.84387e-14
2.43942e-14
2.90979e-14
-2.90979e-14
-2.43942e-14
-1.84387e-14
-1.28555e-14
-6.40674e-15
-1.13846e-21
6.40674e-15
1.28555e-14
1.84387e-14
2.43942e-14
2.90979e-14
-2.90979e-14
-2.43942e-14
-1.84387e-14
-1.28555e-14
-6.40674e-15
-1.13846e-21
6.40674e-15
1.28555e-14
1.84387e-14
2.43942e-14
2.90979e-14
-2.90979e-14
-2.43942e-14
-1.84387e-14
-1.28555e-14
-6.40674e-15
-1.13846e-21
6.40674e-15
1.28555e-14
1.84387e-14
2.43942e-14
2.90979e-14
-2.90979e-14
-2.43942e-14
-1.84387e-14
-1.28555e-14
-6.40674e-15
-1.13846e-21
)
;
    }
    ami2
    {
        type            cyclicAMI;
        value           nonuniform List<scalar> 0();
    }
    outlet
    {
        type            calculated;
        value           nonuniform List<scalar> 0();
    }
    procBoundary7to5
    {
        type            processor;
        value           nonuniform List<scalar> 
131
(
5.80445e-08
1.88835e-07
3.69563e-07
5.26565e-07
6.3203e-07
6.60132e-07
6.07609e-07
4.91088e-07
3.36597e-07
1.7681e-07
5.80533e-08
1.7683e-07
4.82329e-07
7.99199e-07
1.02712e-06
1.16173e-06
1.19813e-06
1.14036e-06
9.9822e-07
7.74349e-07
4.82316e-07
1.889e-07
3.36733e-07
7.74466e-07
1.13062e-06
1.37277e-06
1.51402e-06
1.55595e-06
1.50307e-06
1.36167e-06
1.13055e-06
7.99156e-07
3.6973e-07
4.91326e-07
9.98377e-07
1.36157e-06
1.60647e-06
1.75089e-06
1.797e-06
1.74752e-06
1.60647e-06
1.37265e-06
1.02705e-06
5.26854e-07
6.07989e-07
1.1404e-06
1.50292e-06
1.74742e-06
1.89285e-06
1.94097e-06
1.89287e-06
1.75076e-06
1.51386e-06
1.16172e-06
6.32322e-07
6.60562e-07
1.16992e-07
1.19818e-06
1.01951e-07
1.55579e-06
8.16939e-08
1.79678e-06
5.69137e-08
1.94083e-06
2.84671e-08
1.98911e-06
1.94093e-06
1.79687e-06
1.55582e-06
1.19813e-06
6.60382e-07
6.39287e-07
1.16317e-06
1.51065e-06
1.74508e-06
1.88613e-06
-3.17605e-08
1.94085e-06
1.89285e-06
1.74748e-06
1.50299e-06
1.14034e-06
6.07828e-07
5.32543e-07
1.02881e-06
1.37016e-06
1.60154e-06
1.74162e-06
-5.96007e-08
1.79679e-06
1.7508e-06
1.60652e-06
1.36167e-06
9.98206e-07
4.91225e-07
3.73589e-07
8.01729e-07
1.12957e-06
1.35847e-06
1.49918e-06
-8.36589e-08
1.55581e-06
1.5139e-06
1.37272e-06
1.13056e-06
7.74357e-07
3.36696e-07
1.90945e-07
4.85883e-07
7.77027e-07
9.99314e-07
1.14099e-06
-1.03089e-07
1.1982e-06
1.16181e-06
1.02711e-06
7.99176e-07
4.82365e-07
1.76863e-07
5.87503e-08
1.78755e-07
3.40101e-07
4.95841e-07
6.13879e-07
-1.18156e-07
6.60749e-07
6.32544e-07
5.2697e-07
3.69788e-07
1.88943e-07
5.80679e-08
)
;
    }
    procBoundary7to8
    {
        type            processor;
        value           nonuniform List<scalar> 
68
(
-6.22679e-08
-2.01246e-07
-3.9305e-07
-5.62031e-07
-6.74612e-07
-1.88331e-07
-5.02167e-07
-8.12156e-07
-1.03602e-06
-1.16958e-06
-3.56324e-07
-7.86701e-07
-1.12308e-06
-1.3564e-06
-1.49455e-06
-5.18027e-07
-1.00266e-06
-1.34279e-06
-1.57726e-06
-1.7174e-06
-6.43252e-07
-1.14393e-06
-1.48144e-06
-1.71352e-06
-1.85325e-06
-1.89969e-06
-7.01937e-07
-1.20402e-06
-1.53495e-06
-1.76209e-06
-1.89962e-06
-1.94596e-06
-6.74929e-07
1.06819e-07
-1.16962e-06
9.35871e-08
-1.49448e-06
-1.7173e-06
-1.85319e-06
-1.89964e-06
-5.56087e-07
-1.03476e-06
-4.1427e-08
-1.35637e-06
-1.57721e-06
-1.71349e-06
-1.76211e-06
-3.89183e-07
-8.1034e-07
-5.28601e-08
-1.12307e-06
-1.34276e-06
-1.48139e-06
-1.53494e-06
-1.9921e-07
-4.99091e-07
-6.0625e-08
-7.86703e-07
-1.00263e-06
-1.14388e-06
-1.20398e-06
-6.156e-08
-1.86431e-07
-6.66699e-08
-3.56376e-07
-5.18123e-07
-6.43344e-07
-7.01959e-07
)
;
    }
    procBoundary7to9
    {
        type            processor;
        value           nonuniform List<scalar> 
59
(
-7.01599e-07
-6.42981e-07
-5.17883e-07
-3.56247e-07
-1.88309e-07
-6.22654e-08
-1.20398e-06
-1.14386e-06
-1.00256e-06
-7.86644e-07
-5.0217e-07
-2.01281e-07
-1.53503e-06
-1.48146e-06
-1.34274e-06
-1.12296e-06