/*--------------------------------*- C++ -*----------------------------------*\
| =========                 |                                                 |
| \\      /  F ield         | OpenFOAM: The Open Source CFD Toolbox           |
|  \\    /   O peration     | Version:  2212                                  |
|   \\  /    A nd           | Website:  www.openfoam.com                      |
|    \\/     M anipulation  |                                                 |
\*---------------------------------------------------------------------------*/
FoamFile
{
    version     2.0;
    format      ascii;
    arch        "LSB;label=32;scalar=64";
    class       volScalarField;
    location    "2.2";
    object      epsilon;
}
// * * * * * * * * * * * * * * * * * * * * * * * * * * * * * * * * * * * * * //

dimensions      [0 2 -3 0 0 0 0];

internalField   nonuniform List<scalar> 
6840
(
90.5034
12.1248
4.38869
2.46659
1.63315
1.18307
0.902016
0.720667
0.594592
0.502511
0.432689
0.379304
0.336345
0.299943
0.270304
0.246338
0.226903
0.211508
0.2026
0.193118
58.5856
14.5696
6.08947
3.33295
2.08217
1.40267
0.99865
0.740283
0.565901
0.443919
0.356012
0.290916
0.241393
0.202949
0.173049
0.149763
0.131282
0.116511
0.105293
0.0974648
45.0226
13.4729
5.73075
3.07322
1.86022
1.22699
0.873567
0.649767
0.496998
0.389456
0.31126
0.252939
0.208931
0.175148
0.148726
0.127763
0.110959
0.097349
0.0862814
0.0778503
38.7028
13.0541
5.74336
3.08733
1.88066
1.22749
0.869467
0.64537
0.492575
0.384759
0.306993
0.249004
0.204922
0.17091
0.144287
0.123172
0.106199
0.0923783
0.0810684
0.0727634
36.0571
12.8529
5.76645
3.10211
1.89475
1.22669
0.866497
0.643978
0.492245
0.383958
0.305789
0.247911
0.203909
0.169933
0.143314
0.12217
0.105154
0.0912853
0.0799133
0.071274
36.0571
12.8529
5.76645
3.10212
1.89476
1.22669
0.866504
0.643989
0.492258
0.383976
0.305814
0.247945
0.203957
0.170003
0.143416
0.122315
0.105363
0.091593
0.0803984
0.0722948
38.7028
13.0541
5.74336
3.08733
1.88067
1.22751
0.869483
0.645393
0.492604
0.384796
0.307048
0.249078
0.205026
0.17106
0.144501
0.123475
0.106637
0.0930221
0.0819864
0.0738446
45.0226
13.4729
5.73075
3.07323
1.86023
1.227
0.873582
0.649789
0.497026
0.389504
0.311321
0.253019
0.209042
0.175307
0.148958
0.12809
0.111434
0.0980572
0.0873657
0.0792799
58.5856
14.5696
6.08947
3.33295
2.08217
1.40267
0.998654
0.740289
0.565908
0.443936
0.356038
0.290956
0.241453
0.203075
0.173219
0.150008
0.131683
0.117226
0.10655
0.0995122
90.5034
12.1248
4.38869
2.46659
1.63315
1.18307
0.902016
0.720666
0.594593
0.502509
0.432691
0.3793
0.336346
0.299943
0.270301
0.246333
0.226898
0.211502
0.202593
0.193119
58.5856
14.5696
6.08947
3.33295
2.08217
1.40267
0.998654
0.74029
0.565909
0.443936
0.356039
0.290956
0.241455
0.203073
0.173222
0.150014
0.131688
0.117231
0.106556
0.0995163
16.5373
9.49239
5.0127
2.8606
1.75746
1.14759
0.786931
0.562048
0.415366
0.315946
0.24633
0.19622
0.159216
0.131245
0.109752
0.0931736
0.0801243
0.0696343
0.0606191
0.0562527
13.6679
8.73671
5.07741
3.05388
1.92223
1.26609
0.869288
0.618629
0.453957
0.342031
0.263647
0.207307
0.165897
0.134839
0.111132
0.0926691
0.0781387
0.0666052
0.0571708
0.0497629
12.9054
8.33993
5.07879
3.15547
2.02774
1.3512
0.933536
0.666457
0.489543
0.368592
0.2836
0.222382
0.177321
0.14352
0.11774
0.0977522
0.0820563
0.0695816
0.0595496
0.0513675
12.6882
8.1544
5.07113
3.20038
2.07939
1.39506
0.967831
0.692723
0.509637
0.384016
0.295503
0.231647
0.184592
0.149262
0.122295
0.101385
0.0849635
0.0719095
0.0614253
0.0529682
12.6882
8.1544
5.07113
3.20038
2.07939
1.39506
0.967834
0.692726
0.509643
0.384023
0.295512
0.231657
0.184604
0.149273
0.122305
0.101404
0.0849888
0.0719389
0.0614548
0.0530002
12.9054
8.33993
5.07879
3.15547
2.02775
1.35121
0.933542
0.666464
0.489554
0.368606
0.283618
0.222403
0.177345
0.143543
0.117765
0.0977935
0.082109
0.0696431
0.0596139
0.0513604
13.6679
8.73671
5.07741
3.05388
1.92224
1.2661
0.869292
0.618633
0.453965
0.342042
0.26366
0.207324
0.165916
0.134855
0.111158
0.0927038
0.078179
0.0666463
0.057194
0.0501926
16.5373
9.49239
5.0127
2.8606
1.75746
1.14759
0.786931
0.562047
0.415366
0.315946
0.24633
0.19622
0.159216
0.131236
0.10976
0.0931766
0.0801259
0.0696354
0.0606199
0.0562568
58.5856
14.5696
6.08947
3.33295
2.08217
1.40267
0.99865
0.740283
0.5659
0.443918
0.356011
0.290915
0.241392
0.202948
0.173048
0.14976
0.131279
0.116509
0.10529
0.0974643
45.0226
13.4729
5.73075
3.07323
1.86023
1.227
0.873582
0.649789
0.497026
0.389504
0.311321
0.25302
0.209041
0.175305
0.14896
0.128094
0.111438
0.0980599
0.0873697
0.0792857
13.6679
8.73671
5.07741
3.05388
1.92224
1.2661
0.869292
0.618634
0.453965
0.342042
0.26366
0.207324
0.165917
0.134864
0.111149
0.0927011
0.0781785
0.0666477
0.0571909
0.050184
11.8601
7.76395
4.99734
3.24076
2.14419
1.45499
1.0141
0.725634
0.532156
0.399149
0.305546
0.238222
0.188824
0.151913
0.123869
0.102235
0.0853171
0.0719261
0.0611842
0.0526144
11.6229
7.60535
5.0103
3.34209
2.26848
1.57142
1.11236
0.804587
0.594203
0.447515
0.343208
0.26763
0.211895
0.170116
0.13832
0.113775
0.0945876
0.0794103
0.0672738
0.0574924
11.5726
7.56718
5.02065
3.38344
2.32103
1.62326
1.15828
0.843156
0.62569
0.472848
0.363482
0.283851
0.224903
0.180587
0.146789
0.120661
0.100216
0.0840342
0.0710911
0.0606085
11.5726
7.56718
5.02065
3.38344
2.32103
1.62326
1.15828
0.843156
0.625692
0.472851
0.363486
0.283855
0.224908
0.180589
0.14679
0.120667
0.100224
0.0840448
0.0711042
0.0606438
11.6229
7.60535
5.0103
3.34209
2.26848
1.57142
1.11236
0.804588
0.594206
0.44752
0.343214
0.267637
0.211901
0.17012
0.138326
0.113787
0.0946041
0.0794307
0.0672998
0.0575622
11.8601
7.76395
4.99734
3.24076
2.14419
1.45499
1.0141
0.725634
0.532155
0.399149
0.305546
0.238222
0.188824
0.151911
0.123871
0.102236
0.0853182
0.0719276
0.0611857
0.0526192
13.6679
8.73671
5.07741
3.05388
1.92223
1.26609
0.869288
0.618629
0.453957
0.342031
0.263647
0.207308
0.165898
0.134841
0.11113
0.0926689
0.0781393
0.0666062
0.0571717
0.0497655
45.0226
13.4729
5.73075
3.07322
1.86022
1.22699
0.873567
0.649767
0.496998
0.389456
0.31126
0.252939
0.208929
0.175145
0.14873
0.127765
0.110961
0.0973503
0.0862831
0.0778498
38.7028
13.0541
5.74336
3.08733
1.88067
1.22751
0.869483
0.645393
0.492604
0.384796
0.307048
0.249078
0.205024
0.171057
0.144505
0.123477
0.106639
0.093024
0.0819883
0.0738475
12.9054
8.33993
5.07879
3.15547
2.02775
1.35121
0.933542
0.666464
0.489554
0.368606
0.283618
0.222404
0.177348
0.143549
0.117759
0.0977915
0.0821091
0.0696443
0.0596159
0.0513624
11.6229
7.60535
5.01031
3.34209
2.26848
1.57142
1.11236
0.804589
0.594206
0.44752
0.343214
0.267637
0.211903
0.170122
0.138323
0.113786
0.0946036
0.0794305
0.0672997
0.0575614
11.4933
7.5119
5.02843
3.434
2.3892
1.6928
1.22111
0.896487
0.669456
0.508122
0.391656
0.306285
0.242784
0.194886
0.158279
0.129952
0.107776
0.0902254
0.0761875
0.064808
11.4757
7.50136
5.04297
3.47002
2.43665
1.74299
1.26863
0.938712
0.705583
0.538335
0.416593
0.326728
0.259498
0.208556
0.169484
0.139167
0.115387
0.0965403
0.0814421
0.0691208
11.4757
7.50136
5.04297
3.47002
2.43665
1.74299
1.26863
0.938712
0.705584
0.538336
0.416594
0.326728
0.259499
0.208557
0.169483
0.139167
0.115388
0.0965414
0.0814421
0.0691033
11.4933
7.5119
5.02843
3.434
2.3892
1.6928
1.22111
0.896486
0.669456
0.508122
0.391656
0.306285
0.242784
0.194886
0.158279
0.129952
0.107776
0.0902263
0.0761889
0.0648095
11.6229
7.60535
5.0103
3.34209
2.26848
1.57142
1.11236
0.804587
0.594203
0.447515
0.343208
0.267631
0.211897
0.170117
0.138318
0.113775
0.0945885
0.0794119
0.0672758
0.0574949
12.9054
8.33993
5.07879
3.15547
2.02774
1.3512
0.933536
0.666457
0.489543
0.368592
0.283601
0.222383
0.177323
0.143526
0.117733
0.0977496
0.0820553
0.0695812
0.0595493
0.0513667
38.7028
13.0541
5.74336
3.08733
1.88066
1.22749
0.869467
0.64537
0.492574
0.384759
0.306993
0.249004
0.204921
0.170907
0.144289
0.123174
0.106201
0.0923797
0.0810701
0.0727666
36.0571
12.8529
5.76645
3.10212
1.89476
1.22669
0.866504
0.643989
0.492258
0.383976
0.305814
0.247945
0.203957
0.170002
0.143416
0.122315
0.105363
0.0915929
0.0803981
0.0722958
12.6882
8.1544
5.07113
3.20038
2.07939
1.39506
0.967834
0.692726
0.509643
0.384023
0.295512
0.231658
0.184605
0.149276
0.122305
0.101405
0.0849907
0.0719419
0.0614586
0.0530047
11.5726
7.56718
5.02065
3.38344
2.32103
1.62326
1.15828
0.843157
0.625692
0.472851
0.363486
0.283856
0.224909
0.180591
0.14679
0.120667
0.100226
0.0840466
0.0711063
0.0606455
11.4757
7.50136
5.04297
3.47002
2.43665
1.74299
1.26863
0.938712
0.705584
0.538336
0.416594
0.326729
0.259499
0.208557
0.169483
0.139168
0.115388
0.0965418
0.0814425
0.0691042
11.4647
7.49683
5.0577
3.50272
2.48038
1.79068
1.31522
0.981305
0.742925
0.57021
0.44335
0.348968
0.277888
0.223735
0.182018
0.149543
0.124005
0.103725
0.0874412
0.0740569
11.4647
7.49683
5.0577
3.50272
2.48038
1.79068
1.31522
0.981305
0.742924
0.57021
0.44335
0.348968
0.277888
0.223735
0.182018
0.149543
0.124005
0.103725
0.0874413
0.0740563
11.4757
7.50136
5.04297
3.47002
2.43665
1.74299
1.26863
0.938712
0.705583
0.538335
0.416593
0.326728
0.259499
0.208556
0.169483
0.139167
0.115387
0.096541
0.0814431
0.0691208
11.5726
7.56718
5.02065
3.38344
2.32103
1.62326
1.15828
0.843156
0.62569
0.472848
0.363483
0.283852
0.224905
0.180589
0.146786
0.12066
0.100216
0.0840354
0.0710927
0.0606113
12.6882
8.1544
5.07113
3.20038
2.07939
1.39506
0.967831
0.692723
0.509637
0.384016
0.295503
0.231647
0.184593
0.149268
0.122289
0.101383
0.0849622
0.0719086
0.0614244
0.0529672
36.0571
12.8529
5.76645
3.10211
1.89475
1.22669
0.866497
0.643978
0.492245
0.383958
0.305789
0.247911
0.20391
0.169933
0.143313
0.12217
0.105154
0.091285
0.079913
0.0712823
36.0571
12.8529
5.76645
3.10211
1.89475
1.22669
0.866497
0.643978
0.492245
0.383959
0.305789
0.247911
0.203909
0.169933
0.143314
0.12217
0.105154
0.0912843
0.079912
0.071274
12.6882
8.1544
5.07113
3.20038
2.07939
1.39506
0.967831
0.692723
0.509638
0.384016
0.295504
0.231648
0.184592
0.149263
0.122295
0.101386
0.0849651
0.0719118
0.0614281
0.0529715
11.5726
7.56718
5.02065
3.38344
2.32103
1.62326
1.15828
0.843156
0.62569
0.472848
0.363483
0.283852
0.224904
0.180587
0.146789
0.120662
0.100217
0.084036
0.0710934
0.0606108
11.4757
7.50136
5.04297
3.47002
2.43665
1.74299
1.26863
0.938712
0.705584
0.538335
0.416593
0.326728
0.259498
0.208556
0.169484
0.139167
0.115387
0.0965409
0.0814432
0.0691218
11.4647
7.49683
5.0577
3.50272
2.48038
1.79068
1.31522
0.981305
0.742925
0.57021
0.44335
0.348968
0.277888
0.223735
0.182018
0.149543
0.124005
0.103725
0.0874411
0.0740566
11.4647
7.49683
5.0577
3.50272
2.48038
1.79068
1.31522
0.981305
0.742924
0.57021
0.44335
0.348968
0.277888
0.223735
0.182018
0.149543
0.124005
0.103725
0.0874411
0.0740554
11.4757
7.50136
5.04297
3.47002
2.43665
1.74299
1.26863
0.938712
0.705584
0.538336
0.416594
0.326728
0.259499
0.208556
0.169484
0.139167
0.115388
0.0965414
0.0814421
0.0691026
11.5726
7.56718
5.02065
3.38344
2.32103
1.62326
1.15828
0.843156
0.625692
0.472851
0.363486
0.283855
0.224907
0.18059
0.146791
0.120667
0.100225
0.0840449
0.0711041
0.0606428
12.6882
8.1544
5.07113
3.20038
2.07939
1.39506
0.967834
0.692726
0.509643
0.384023
0.295511
0.231657
0.184603
0.149276
0.122305
0.101404
0.0849886
0.0719386
0.0614545
0.0529998
36.0571
12.8529
5.76645
3.10212
1.89476
1.22669
0.866504
0.643989
0.492258
0.383976
0.305814
0.247945
0.203959
0.170005
0.143413
0.122312
0.105361
0.0915916
0.0803976
0.0723
38.7028
13.0541
5.74336
3.08733
1.88066
1.22749
0.869467
0.64537
0.492575
0.384759
0.306993
0.249004
0.204922
0.17091
0.144288
0.123172
0.106199
0.0923772
0.0810665
0.0727608
12.9054
8.33993
5.07879
3.15547
2.02774
1.3512
0.933535
0.666457
0.489543
0.368592
0.2836
0.222382
0.177321
0.14352
0.11774
0.0977525
0.0820564
0.0695814
0.0595495
0.0513662
11.6229
7.60535
5.0103
3.34209
2.26848
1.57142
1.11236
0.804587
0.594203
0.447515
0.343208
0.26763
0.211895
0.170115
0.138321
0.113776
0.0945877
0.0794101
0.0672734
0.0574902
11.4933
7.5119
5.02843
3.434
2.3892
1.6928
1.22111
0.896487
0.669456
0.508122
0.391656
0.306285
0.242783
0.194886
0.158279
0.129952
0.107775
0.0902248
0.0761867
0.0648065
11.4757
7.50136
5.04297
3.47002
2.43665
1.74299
1.26863
0.938712
0.705584
0.538336
0.416594
0.326728
0.259499
0.208557
0.169483
0.139167
0.115388
0.0965411
0.0814415
0.0691022
11.4757
7.50136
5.04297
3.47002
2.43665
1.74299
1.26863
0.938712
0.705583
0.538335
0.416593
0.326728
0.259499
0.208557
0.169483
0.139167
0.115387
0.0965409
0.0814431
0.0691201
11.4933
7.5119
5.02843
3.434
2.3892
1.6928
1.22111
0.896487
0.669456
0.508122
0.391656
0.306285
0.242784
0.194886
0.158279
0.129952
0.107776
0.0902256
0.076188
0.0648079
11.6229
7.60535
5.0103
3.34209
2.26848
1.57142
1.11236
0.804589
0.594206
0.44752
0.343214
0.267637
0.211901
0.17012
0.138326
0.113787
0.0946029
0.0794291
0.0672976
0.0575588
12.9054
8.33993
5.07879
3.15547
2.02775
1.35121
0.933542
0.666465
0.489554
0.368606
0.283618
0.222403
0.177345
0.143542
0.117766
0.0977936
0.0821091
0.0696431
0.0596139
0.0513597
38.7028
13.0541
5.74336
3.08733
1.88067
1.22751
0.869484
0.645393
0.492604
0.384796
0.307048
0.249078
0.205026
0.17106
0.144501
0.123474
0.106636
0.0930215
0.0819855
0.0738407
45.0226
13.4729
5.73075
3.07322
1.86022
1.22699
0.873567
0.649767
0.496999
0.389456
0.311261
0.25294
0.208931
0.175149
0.148727
0.127764
0.11096
0.097349
0.0862803
0.0778487
13.6679
8.73671
5.07741
3.05388
1.92223
1.26609
0.869287
0.618629
0.453957
0.342031
0.263646
0.207307
0.165896
0.134838
0.111132
0.0926681
0.0781362
0.0666006
0.0571701
0.0497556
11.8601
7.76395
4.99734
3.24076
2.14419
1.45499
1.0141
0.725634
0.532155
0.399149
0.305545
0.238221
0.188823
0.151912
0.123869
0.102234
0.0853148
0.0719229
0.0611793
0.052605
11.6229
7.60535
5.0103
3.34209
2.26848
1.57142
1.11236
0.804588
0.594206
0.447519
0.343213
0.267637
0.211902
0.170121
0.138322
0.113785
0.0946017
0.0794279
0.0672961
0.0575571
11.5726
7.56718
5.02065
3.38344
2.32103
1.62326
1.15828
0.843156
0.625692
0.472851
0.363486
0.283856
0.224908
0.180591
0.14679
0.120666
0.100224
0.0840452
0.0711046
0.0606436
11.5726
7.56718
5.02065
3.38344
2.32103
1.62326
1.15828
0.843155
0.62569
0.472848
0.363483
0.283852
0.224904
0.180588
0.146789
0.120661
0.100217
0.0840362
0.0710938
0.0606109
11.6229
7.60535
5.0103
3.34209
2.26848
1.57142
1.11236
0.804587
0.594202
0.447515
0.343208
0.267631
0.211897
0.170118
0.138318
0.113775
0.094588
0.0794112
0.0672751
0.0574932
11.8601
7.76395
4.99734
3.24076
2.14419
1.45499
1.0141
0.725634
0.532155
0.399149
0.305545
0.238221
0.188824
0.151912
0.12387
0.102235
0.0853162
0.0719249
0.0611825
0.0526108
13.6679
8.73671
5.07741
3.05388
1.92224
1.2661
0.869291
0.618635
0.453965
0.342042
0.26366
0.207324
0.165916
0.134855
0.111157
0.0927037
0.0781789
0.0666462
0.0571936
0.0501791
45.0226
13.4729
5.73075
3.07323
1.86023
1.227
0.873583
0.649788
0.497026
0.389504
0.311321
0.25302
0.209042
0.175307
0.148958
0.128091
0.111435
0.0980575
0.0873667
0.0792834
58.5856
14.5696
6.08947
3.33295
2.08217
1.40267
0.998651
0.740284
0.565901
0.443919
0.356013
0.290917
0.241394
0.202951
0.173049
0.149763
0.131282
0.116512
0.105294
0.0974679
16.5373
9.49239
5.0127
2.8606
1.75746
1.14759
0.786931
0.562048
0.415366
0.315946
0.24633
0.196219
0.159215
0.131244
0.109752
0.0931725
0.0801226
0.0696324
0.0606152
0.0562454
13.6679
8.73671
5.07741
3.05388
1.92224
1.2661
0.869292
0.618633
0.453965
0.342042
0.26366
0.207324
0.165917
0.134863
0.111149
0.0927003
0.0781776
0.0666466
0.0571894
0.0501837
12.9054
8.33993
5.07879
3.15547
2.02775
1.35121
0.933542
0.666464
0.489554
0.368606
0.283618
0.222404
0.177348
0.143549
0.117758
0.0977912
0.0821089
0.0696442
0.0596157
0.0513625
12.6882
8.1544
5.07113
3.20038
2.07939
1.39506
0.967835
0.692726
0.509643
0.384023
0.295512
0.231658
0.184605
0.149277
0.122305
0.101405
0.0849909
0.0719421
0.061459
0.0530049
12.6882
8.1544
5.07113
3.20038
2.07939
1.39506
0.967832
0.692722
0.509637
0.384016
0.295504
0.231648
0.184593
0.149264
0.122295
0.101386
0.0849652
0.0719117
0.061428
0.0529709
12.9054
8.33993
5.07879
3.15547
2.02774
1.3512
0.933536
0.666456
0.489543
0.368592
0.2836
0.222382
0.177323
0.143527
0.117734
0.0977497
0.082055
0.0695806
0.0595488
0.0513656
13.6679
8.73671
5.07741
3.05388
1.92223
1.26609
0.869287
0.618628
0.453957
0.342031
0.263646
0.207307
0.165896
0.134841
0.111129
0.0926664
0.0781355
0.0666003
0.0571698
0.049755
16.5373
9.49239
5.0127
2.8606
1.75746
1.14759
0.78693
0.562048
0.415366
0.315946
0.24633
0.19622
0.159216
0.131236
0.109759
0.0931758
0.0801247
0.0696341
0.0606168
0.0562453
58.5856
14.5696
6.08947
3.33295
2.08217
1.40267
0.998655
0.74029
0.565908
0.443936
0.356038
0.290957
0.241454
0.203076
0.17322
0.15001
0.131686
0.117229
0.106554
0.0995156
90.5034
12.1248
4.38869
2.46659
1.63315
1.18307
0.902016
0.720668
0.594593
0.502511
0.43269
0.379305
0.336346
0.299945
0.270305
0.246339
0.226904
0.211509
0.2026
0.193119
58.5856
14.5696
6.08947
3.33295
2.08217
1.40267
0.998655
0.74029
0.565909
0.443937
0.35604
0.290957
0.241457
0.203075
0.173223
0.150015
0.13169
0.117234
0.10656
0.0995241
45.0226
13.4729
5.73075
3.07323
1.86023
1.227
0.873582
0.649789
0.497027
0.389505
0.311322
0.25302
0.209042
0.175305
0.148961
0.128095
0.111439
0.0980616
0.0873719
0.0792879
38.7028
13.0541
5.74336
3.08733
1.88067
1.22751
0.869484
0.645394
0.492604
0.384797
0.307049
0.249078
0.205025
0.171057
0.144505
0.123478
0.106639
0.0930246
0.0819888
0.0738469
36.0571
12.8529
5.76645
3.10212
1.89476
1.22669
0.866504
0.643989
0.492259
0.383976
0.305814
0.247945
0.203957
0.170002
0.143416
0.122315
0.105363
0.0915926
0.0803972
0.0722931
36.0571
12.8529
5.76645
3.10211
1.89475
1.22669
0.866496
0.643979
0.492245
0.383959
0.305789
0.247911
0.203909
0.169932
0.143314
0.12217
0.105153
0.0912838
0.0799104
0.071272
38.7028
13.0541
5.74336
3.08733
1.88066
1.22749
0.869466
0.645371
0.492575
0.384759
0.306993
0.249004
0.204921
0.170907
0.144289
0.123174
0.1062
0.092378
0.0810673
0.0727617
45.0226
13.4729
5.73075
3.07322
1.86022
1.22699
0.873566
0.649768
0.496999
0.389457
0.311261
0.252939
0.20893
0.175146
0.14873
0.127766
0.110962
0.0973516
0.0862836
0.0778527
58.5856
14.5696
6.08947
3.33295
2.08217
1.40267
0.99865
0.740283
0.565901
0.443919
0.356012
0.290917
0.241393
0.202949
0.17305
0.149762
0.131282
0.116512
0.105294
0.0974684
90.5034
12.1248
4.38869
2.46659
1.63315
1.18307
0.902016
0.720667
0.594593
0.50251
0.432692
0.379301
0.336348
0.299945
0.270304
0.246336
0.226902
0.211507
0.202597
0.193115
0.371571
0.294927
0.235263
0.202026
0.182738
0.17059
0.161456
0.154039
0.147505
0.141998
0.137491
0.133358
0.129538
0.125783
0.122257
0.119001
0.115928
0.113
0.110234
0.107638
0.105134
0.10273
0.100461
0.0983759
0.0964026
0.0945094
0.0927035
0.0909507
0.0892625
0.087656
0.0861173
0.0846466
0.0832403
0.0818599
0.0805818
0.0793733
0.0782738
0.077203
0.0763095
0.0745906
0.140719
0.116362
0.0989143
0.086649
0.0782502
0.072219
0.067489
0.0636034
0.0601397
0.0572531
0.0548423
0.0526446
0.0507964
0.0489801
0.047264
0.0457152
0.0442676
0.0429575
0.0417251
0.0405833
0.0395072
0.0384729
0.0375201
0.0366432
0.0358356
0.0350768
0.0343503
0.0336507
0.0329759
0.0323289
0.0317046
0.0311066
0.0305357
0.0299942
0.029477
0.0289801
0.0285146
0.0280727
0.0276625
0.027197
0.0975259
0.0828005
0.0724347
0.0643844
0.0582833
0.0537029
0.0498382
0.0465492
0.0438045
0.0414114
0.0393438
0.0375181
0.035988
0.0344315
0.0330451
0.0318323
0.0307116
0.0297248
0.0287794
0.0278941
0.0270736
0.0262454
0.0254836
0.0247938
0.0241757
0.0235979
0.0230409
0.0225059
0.0219944
0.0215024
0.0210325
0.0205811
0.0201482
0.0197383
0.019345
0.0189787
0.0186226
0.0182751
0.0179345
0.017598
0.0750864
0.0669374
0.0602432
0.0546724
0.0499961
0.0460254
0.0426207
0.0396849
0.0371325
0.0349006
0.0329382
0.0312166
0.0297107
0.0283196
0.0270625
0.0259332
0.0249036
0.0240139
0.0230878
0.0222274
0.0214778
0.0207796
0.0201201
0.0194962
0.0189228
0.0183871
0.0178904
0.0174183
0.016979
0.016556
0.0161491
0.0157613
0.015389
0.0150516
0.0147247
0.0144207
0.0141232
0.0138454
0.0135783
0.0133111
0.0676174
0.0604417
0.0544595
0.0494678
0.0452657
0.0417069
0.0386592
0.036013
0.0336857
0.0316283
0.0298022
0.0281799
0.0267486
0.0254235
0.0242287
0.0231553
0.0221842
0.0212895
0.0204714
0.0197155
0.0190428
0.0183895
0.0177318
0.0171372
0.0165968
0.0160942
0.015629
0.0151918
0.0147889
0.0144028
0.0140342
0.0136828
0.0133514
0.0130451
0.0127404
0.0124597
0.0121917
0.0119424
0.0117079
0.011487
0.0713962
0.0604324
0.0532651
0.0478402
0.0434946
0.0399148
0.0369137
0.0343601
0.0321284
0.0301504
0.0283909
0.026824
0.0254332
0.0241588
0.0230082
0.021965
0.0210151
0.0201478
0.0193622
0.0186434
0.0179818
0.0173709
0.0168055
0.0162909
0.0157458
0.015226
0.0147578
0.014333
0.0139523
0.013586
0.0132508
0.012937
0.0126028
0.0123237
0.0119883
0.0117469
0.0114898
0.0112644
0.0110443
0.0108367
0.0715925
0.0605196
0.0533859
0.0479801
0.0436373
0.0400623
0.0370704
0.0345143
0.0322731
0.0302923
0.0285365
0.0269776
0.0255931
0.0243278
0.0231847
0.0221473
0.0212023
0.020341
0.0195551
0.0188422
0.018191
0.0175918
0.0170199
0.0165147
0.0159634
0.0154524
0.0149936
0.014577
0.0141969
0.0138234
0.013479
0.0131563
0.0128169
0.0125307
0.0122342
0.0119849
0.0117385
0.0115027
0.0112746
0.0110576
0.0721167
0.0624104
0.055532
0.050202
0.0458468
0.0422481
0.0391927
0.0365457
0.0342362
0.0322067
0.0304134
0.0288325
0.0274309
0.0261467
0.0249863
0.0239314
0.022968
0.0221004
0.0213037
0.0205686
0.0198937
0.0192699
0.0186333
0.0180624
0.0175278
0.0170343
0.0165658
0.0161317
0.0157103
0.0152884
0.0149026
0.0145555
0.014241
0.0139364
0.0136432
0.0133594
0.0130798
0.0128173
0.0125681
0.0123289
0.0795494
0.0709608
0.0634819
0.057216
0.0521894
0.0481785
0.0448479
0.0420222
0.0395918
0.0374718
0.0356142
0.0340187
0.0325802
0.031261
0.0300661
0.0289243
0.0278091
0.0268101
0.0259209
0.0250805
0.0243056
0.0235731
0.0228881
0.0222365
0.0216211
0.0210499
0.0205103
0.0200119
0.019541
0.0191034
0.0186934
0.0183033
0.0179298
0.0175791
0.0172437
0.0169135
0.0165858
0.0162913
0.0160186
0.0157347
0.127517
0.106873
0.0903583
0.0789703
0.0714519
0.0662503
0.0622884
0.0589594
0.0559987
0.0534654
0.0513247
0.0495616
0.047775
0.0459854
0.044348
0.0428549
0.0414369
0.0401217
0.0388903
0.0377494
0.0366723
0.0356736
0.0347567
0.0339192
0.0331311
0.0323921
0.0316857
0.0310207
0.0303885
0.029792
0.0292205
0.0286794
0.0281678
0.0276816
0.0272114
0.0267973
0.0263729
0.0259818
0.0256405
0.0252426
0.37155
0.294922
0.235179
0.201784
0.182273
0.170012
0.160915
0.153485
0.146968
0.141602
0.137033
0.133088
0.129234
0.125531
0.122058
0.118832
0.115787
0.112886
0.110159
0.107575
0.105103
0.102714
0.10047
0.0983916
0.0964312
0.0945347
0.0927257
0.0909649
0.0892673
0.0876484
0.0861056
0.0846315
0.0832192
0.0818378
0.0805292
0.0793364
0.0782239
0.0771036
0.076179
0.0743818
0.127497
0.106925
0.0904208
0.0790929
0.0717163
0.0666104
0.0625685
0.0592456
0.0562367
0.0536499
0.0515605
0.0496815
0.0479127
0.0461312
0.0444607
0.0429553
0.0415156
0.0401958
0.0389438
0.0377934
0.036709
0.0356903
0.0347649
0.033914
0.0331266
0.0323839
0.0316811
0.0310191
0.0303909
0.0298001
0.0292322
0.0286937
0.0281846
0.0277021
0.0272616
0.0268044
0.0263922
0.0260213
0.025699
0.0253199
0.0642674
0.0533093
0.046794
0.0413438
0.0368999
0.0337503
0.0314989
0.0293856
0.0275109
0.0258831
0.0244908
0.0232102
0.0221123
0.0210052
0.0201896
0.0191986
0.0184596
0.0176468
0.0169788
0.0163328
0.0157266
0.0151651
0.0146202
0.0141466
0.0137397
0.0133581
0.0130085
0.0126391
0.0123755
0.0119722
0.0117141
0.0114756
0.0112151
0.0110404
0.0106158
0.0104935
0.0103386
0.0101655
0.0100118
0.00983565
0.054364
0.0432676
0.0374319
0.0325944
0.0293882
0.0266915
0.024422
0.0224825
0.0208242
0.0193851
0.0181478
0.0168926
0.0161059
0.0149363
0.0143285
0.0134173
0.0129244
0.0121973
0.0117729
0.0112079
0.0107632
0.0104064
0.0099047
0.00964021
0.00922134
0.00896602
0.00867894
0.00836011
0.00815083
0.00787173
0.00767819
0.00746896
0.0073129
0.00706474
0.00688449
0.00671079
0.00660362
0.00640997
0.00626019
0.00603088
0.0499064
0.0418847
0.0360659
0.0314336
0.0278179
0.024938
0.0226878
0.0207356
0.0190446
0.017571
0.0162799
0.015133
0.0141061
0.013221
0.0124316
0.0117189
0.0110919
0.0105288
0.00998838
0.00957123
0.00903409
0.00872638
0.0082379
0.00803136
0.00761863
0.00741182
0.00707705
0.00690057
0.00662244
0.00646886
0.00624473
0.00606274
0.00594199
0.00570805
0.00557819
0.00548812
0.00538234
0.00519478
0.00508023
0.00485501
0.0459722
0.0403568
0.0354839
0.0313522
0.0278729
0.0247595
0.0221365
0.020057
0.0184004
0.0169258
0.015619
0.014458
0.0134212
0.0125153
0.011709
0.0109883
0.0103426
0.00976247
0.00923861
0.00876556
0.00833635
0.00794707
0.00759788
0.00727261
0.00698546
0.00669001
0.00645136
0.00618645
0.0059775
0.00579924
0.00562519
0.00542967
0.00531752
0.00510346
0.00498619
0.00491434
0.0048028
0.00464788
0.00452687
0.00432664
0.0457488
0.0402095
0.0353823
0.0312651
0.0277755
0.0247853
0.0221316
0.0197782
0.0180302
0.0166143
0.0153268
0.0141702
0.0131412
0.0122198
0.0114025
0.0106747
0.0100242
0.00944094
0.00891665
0.00844407
0.00801743
0.00763181
0.00728856
0.00698146
0.00667862
0.00639963
0.00615184
0.0059076
0.00570066
0.00551826
0.00533738
0.00518493
0.00504472
0.00487974
0.00474715
0.00466837
0.00454586
0.00442651
0.00424745
0.00410097
0.0461755
0.0403467
0.0353571
0.0311308
0.0275832
0.0245392
0.0218289
0.0195763
0.0179352
0.0165133
0.0152314
0.0140849
0.0130657
0.0121674
0.0113668
0.0106509
0.0100093
0.00943303
0.0089134
0.00844495
0.00802122
0.00763783
0.00729573
0.00698671
0.00669893
0.00641611
0.00618756
0.00589382
0.00571211
0.00546242
0.0053223
0.00517711
0.00503536
0.00484144
0.00470907
0.00462682
0.00450471
0.00437898
0.00421991
0.00405945
0.0454597
0.0400694
0.0350329
0.0307412
0.0272221
0.0240246
0.021646
0.0198586
0.0182582
0.016842
0.0155905
0.0144756
0.0134872
0.0126303
0.0118581
0.0111599
0.0105246
0.00995484
0.00942581
0.00895686
0.0085252
0.00813611
0.00780661
0.00740443
0.00716837
0.00679646
0.00661322
0.0062949
0.0061179
0.0058413
0.00570723
0.00554595
0.00540566
0.00515379
0.00501323
0.00486204
0.00476294
0.00463941
0.00449085
0.00430393
0.0508035
0.0417226
0.0364471
0.0314569
0.0280514
0.025559
0.0234001
0.0215453
0.019921
0.0185063
0.0172619
0.0161552
0.0151991
0.014325
0.0135347
0.0128539
0.0121045
0.0116113
0.0108997
0.0105189
0.00994127
0.00961386
0.00910747
0.00881794
0.00849227
0.00812897
0.00792486
0.0075758
0.00739602
0.00706816
0.00690283
0.0067129
0.00655314
0.00629732
0.00613734
0.00599854
0.00576905
0.00565703
0.00549935
0.00533019
0.0641935
0.053362
0.0467729
0.0415562
0.0372636
0.0340672
0.0314018
0.0292911
0.0273327
0.025735
0.0243542
0.0230529
0.0220617
0.0209799
0.0201084
0.019184
0.0183889
0.0176187
0.0169471
0.0163052
0.0157258
0.0151387
0.0146442
0.0141249
0.0137515
0.0133402
0.0130212
0.0126406
0.0123745
0.0119717
0.0117095
0.0114686
0.011221
0.0109722
0.0107305
0.0106117
0.0101856
0.0100951
0.00996412
0.00979159
0.140707
0.116284
0.0988488
0.0863857
0.0778111
0.071833
0.0672148
0.063346
0.0599269
0.0571106
0.0546026
0.0525612
0.0506657
0.0488594
0.0471652
0.0456236
0.0441991
0.0428958
0.0416826
0.0405535
0.0394828
0.0384688
0.037521
0.0366587
0.0358489
0.0350938
0.0343642
0.0336631
0.0329859
0.0323357
0.0317096
0.0311106
0.0305389
0.0299949
0.029472
0.0289962
0.0285209
0.0280681
0.0276437
0.0271612
0.0795587
0.0710168
0.0635003
0.0572192
0.0522805
0.0482845
0.0449482
0.0421203
0.0396786
0.0375497
0.0356933
0.0340548
0.0326341
0.0313158
0.0301017
0.0289609
0.0278283
0.0268421
0.0259348
0.0251034
0.0243217
0.0235825
0.0228925
0.0222297
0.02162
0.0210473
0.0205096
0.0200123
0.0195438
0.0191096
0.0187022
0.0183146
0.0179439
0.0175954
0.017263
0.0169312
0.0166099
0.0163181
0.0160533
0.0157808
0.0507893
0.0418735
0.0366667
0.0313335
0.0280422
0.0255784
0.0234433
0.021592
0.0199711
0.0185539
0.0173238
0.016194
0.0152507
0.0143105
0.0136283
0.0127798
0.0122516
0.0114611
0.0110374
0.0104234
0.00999277
0.0096488
0.00911905
0.00886408
0.0084332
0.00815479
0.00793105
0.00758189
0.007401
0.00706955
0.00690849
0.00671933
0.00656299
0.00631225
0.00616504
0.00593912
0.00581721
0.00566299
0.00550759
0.00535754
0.0457519
0.0395513
0.034445
0.0300837
0.0265606
0.0236697
0.021255
0.0192162
0.0174765
0.015977
0.014678
0.013542
0.0125223
0.011627
0.0108522
0.0101146
0.00948298
0.00882954
0.00836152
0.00793383
0.00753895
0.00718102
0.00678394
0.00650158
0.00618079
0.00587395
0.00567131
0.00539346
0.00521258
0.00500535
0.00486682
0.00470594
0.004591
0.00437906
0.00426111
0.0041973
0.00411053
0.00394406
0.00384659
0.00364477
0.0477987
0.0414094
0.0360657
0.0315865
0.0278396
0.0246975
0.0220544
0.0198058
0.0178793
0.0162179
0.0147771
0.0135207
0.0124111
0.0114401
0.0105795
0.00981414
0.00913085
0.00851191
0.00796034
0.00747232
0.00702538
0.00663868
0.00620258
0.00587048
0.00561421
0.00538048
0.00512368
0.0049203
0.00469436
0.00452085
0.00434081
0.00421813
0.00411127
0.00392891
0.0038112
0.00377584
0.00366827
0.00355818
0.00344379
0.00330586
0.0500841
0.0432591
0.0376371
0.0329589
0.0290346
0.0257079
0.0228806
0.0204742
0.0184249
0.0166595
0.0151283
0.0137926
0.01262
0.0115924
0.010684
0.00987814
0.00916066
0.00851897
0.00794381
0.00742691
0.00696068
0.00654521
0.00614586
0.00581821
0.00550531
0.00521579
0.00490476
0.00469764
0.0045326
0.00439203
0.00423233
0.00408516
0.00394858
0.00382732
0.00370733
0.00367444
0.00356079
0.00344639
0.00333292
0.00322414
0.0503283
0.0437272
0.0381488
0.0334419
0.0294637
0.0260841
0.0231958
0.0207182
0.0186066
0.0167994
0.0152368
0.0138754
0.0126809
0.0116358
0.0107122
0.0098933
0.00916437
0.00851284
0.00792963
0.00740656
0.00693567
0.00651454
0.00611829
0.0057924
0.00547566
0.00518162
0.00491742
0.00466712
0.00442807
0.00433109
0.00418108
0.00403983
0.00390558
0.00378694
0.00367067
0.00364891
0.00353294
0.00341732
0.00330164
0.00318887
0.049362
0.0429535
0.0375097
0.0328894
0.0289701
0.025636
0.0227906
0.020363
0.0182976
0.0165259
0.0149964
0.0136673
0.0124975
0.0114813
0.0105824
0.00978423
0.00907411
0.00843829
0.00786872
0.00735722
0.00689655
0.00648238
0.0060944
0.00576839
0.00545152
0.00516587
0.0049088
0.00463407