/*--------------------------------*- C++ -*----------------------------------*\
| =========                 |                                                 |
| \\      /  F ield         | OpenFOAM: The Open Source CFD Toolbox           |
|  \\    /   O peration     | Version:  2212                                  |
|   \\  /    A nd           | Website:  www.openfoam.com                      |
|    \\/     M anipulation  |                                                 |
\*---------------------------------------------------------------------------*/
FoamFile
{
    version     2.0;
    format      ascii;
    arch        "LSB;label=32;scalar=64";
    class       volScalarField;
    location    "2.2";
    object      k;
}
// * * * * * * * * * * * * * * * * * * * * * * * * * * * * * * * * * * * * * //

dimensions      [0 2 -2 0 0 0 0];

internalField   nonuniform List<scalar> 
6840
(
0.213564
0.055916
0.0283994
0.0193412
0.0146928
0.0118511
0.00989073
0.00851613
0.00749145
0.00669655
0.00606093
0.00555157
0.0051241
0.00474746
0.00442942
0.00416376
0.003942
0.00376197
0.00365651
0.00354393
0.264759
0.104702
0.0585298
0.0391631
0.0286199
0.0219935
0.0175361
0.0143634
0.0120084
0.010214
0.00881667
0.00770623
0.00680485
0.00606182
0.00545087
0.00495046
0.00453476
0.00418868
0.00391694
0.00372414
0.283364
0.126774
0.071702
0.0473282
0.0338663
0.0256616
0.0204607
0.0167969
0.0140484
0.0119408
0.0102836
0.00895517
0.00788379
0.00700933
0.00628553
0.00568029
0.00517097
0.00473955
0.0043745
0.00408244
0.292299
0.141633
0.0819301
0.0541653
0.038923
0.0292873
0.0232721
0.0190783
0.0159336
0.0135143
0.0116257
0.0101113
0.00887967
0.00786775
0.00702797
0.00632451
0.00572943
0.0052212
0.00478645
0.00445562
0.295943
0.148782
0.0871941
0.0576749
0.0415193
0.0310721
0.0246448
0.0202207
0.0169045
0.0143242
0.0123072
0.0107006
0.00939367
0.0083188
0.00742555
0.0066758
0.00604033
0.00549642
0.00502893
0.00465293
0.295943
0.148782
0.0871941
0.0576749
0.0415193
0.0310722
0.024645
0.0202209
0.0169048
0.0143246
0.0123079
0.0107015
0.00939503
0.00832091
0.00742883
0.00668071
0.00604783
0.00550801
0.0050484
0.00470035
0.292299
0.141633
0.0819301
0.0541654
0.0389231
0.0292875
0.0232723
0.0190787
0.0159342
0.0135151
0.011627
0.0101131
0.00888241
0.00787201
0.00703438
0.00633407
0.00574397
0.00524362
0.00481957
0.00449177
0.283364
0.126774
0.071702
0.0473282
0.0338663
0.0256617
0.020461
0.0167972
0.0140489
0.0119416
0.0102848
0.00895688
0.00788632
0.00701317
0.00629148
0.00568916
0.00518448
0.00476058
0.00440747
0.00412935
0.264759
0.104702
0.0585298
0.0391631
0.0286199
0.0219935
0.0175362
0.0143635
0.0120085
0.0102142
0.00881705
0.00770687
0.00680587
0.00606408
0.00545416
0.0049554
0.00454312
0.00420409
0.00394495
0.00376997
0.213564
0.055916
0.0283994
0.0193412
0.0146928
0.0118511
0.00989073
0.00851612
0.00749145
0.00669653
0.00606094
0.00555154
0.00512409
0.00474742
0.00442942
0.00416371
0.00394194
0.0037619
0.00365642
0.00354392
0.264759
0.104702
0.0585298
0.0391631
0.0286199
0.0219935
0.0175362
0.0143635
0.0120085
0.0102142
0.00881706
0.00770688
0.00680591
0.00606406
0.00545418
0.00495549
0.00454323
0.00420421
0.00394508
0.00377008
0.311746
0.197541
0.130357
0.0911457
0.0668023
0.0508111
0.0397945
0.0319122
0.0260944
0.0216876
0.018277
0.0155892
0.0134419
0.0116995
0.0102693
0.00908291
0.00808976
0.0072516
0.00655365
0.00587947
0.31754
0.217754
0.151085
0.108549
0.0807155
0.0618724
0.0486771
0.0391414
0.0320582
0.0266709
0.0224891
0.019186
0.016537
0.014384
0.0126133
0.0111433
0.00991159
0.00887008
0.00798474
0.00722319
0.319723
0.227073
0.162232
0.118772
0.0893609
0.0689925
0.0545302
0.0439839
0.036099
0.0300737
0.0253806
0.021663
0.0186746
0.0162408
0.0142355
0.0125661
0.0111628
0.00997232
0.00895334
0.00806742
0.320484
0.23086
0.167176
0.123531
0.0935157
0.0724823
0.0574403
0.0464207
0.0381531
0.0318162
0.0268695
0.0229446
0.0197851
0.0172087
0.0150837
0.0133125
0.0118219
0.0105557
0.00946987
0.00852291
0.320484
0.23086
0.167176
0.123531
0.0935158
0.0724824
0.0574406
0.0464211
0.0381535
0.0318169
0.0268704
0.022946
0.0197871
0.0172118
0.0150882
0.0133189
0.0118311
0.0105689
0.00948893
0.00855835
0.319723
0.227073
0.162232
0.118772
0.0893611
0.0689928
0.0545307
0.0439846
0.0361
0.030075
0.0253825
0.0216658
0.0186787
0.0162469
0.0142443
0.0125786
0.0111809
0.00999844
0.00899068
0.00813098
0.31754
0.217754
0.151086
0.108549
0.0807156
0.0618727
0.0486775
0.0391419
0.0320589
0.0266719
0.0224906
0.019188
0.01654
0.0143885
0.0126199
0.0111526
0.00992499
0.00888999
0.0080151
0.00726558
0.311746
0.197541
0.130357
0.0911457
0.0668023
0.0508111
0.0397945
0.0319122
0.0260944
0.0216876
0.018277
0.0155892
0.0134419
0.0116995
0.0102693
0.00908279
0.00808959
0.0072514
0.00655339
0.00587926
0.264759
0.104702
0.0585298
0.0391631
0.0286199
0.0219935
0.0175361
0.0143634
0.0120084
0.010214
0.00881666
0.00770622
0.00680483
0.00606176
0.00545088
0.00495043
0.0045347
0.00418861
0.00391686
0.00372412
0.283364
0.126774
0.071702
0.0473282
0.0338663
0.0256617
0.020461
0.0167972
0.0140489
0.0119416
0.0102848
0.00895688
0.00788629
0.00701312
0.00629154
0.00568925
0.00518458
0.00476068
0.00440759
0.00412956
0.31754
0.217754
0.151086
0.108549
0.0807156
0.0618727
0.0486775
0.039142
0.0320589
0.0266719
0.0224906
0.0191881
0.01654
0.0143884
0.01262
0.0111527
0.00992517
0.00889018
0.00801536
0.007266
0.322005
0.239026
0.177588
0.133616
0.102323
0.0798669
0.0635105
0.0513821
0.0422217
0.0351795
0.0296759
0.0253096
0.0217985
0.0189401
0.0165875
0.0146319
0.0129916
0.0116043
0.0104187
0.00936269
0.323293
0.245617
0.187499
0.144537
0.112864
0.0894038
0.0718631
0.0585863
0.0483993
0.0404739
0.0342243
0.0292327
0.0251984
0.0219016
0.0191803
0.016913
0.0150076
0.0133925
0.012009
0.0107916
0.323714
0.247819
0.191099
0.14881
0.117249
0.0935706
0.0756572
0.0619603
0.0513624
0.0430608
0.0364786
0.0311986
0.0269165
0.0234079
0.0205055
0.0180832
0.0160446
0.0143144
0.0128303
0.0115274
0.323714
0.247819
0.191099
0.14881
0.117249
0.0935707
0.0756573
0.0619605
0.0513627
0.0430612
0.0364792
0.0311994
0.0269176
0.0234094
0.0205077
0.0180861
0.0160485
0.0143196
0.0128368
0.0115325
0.323293
0.245617
0.187499
0.144537
0.112864
0.089404
0.0718634
0.0585866
0.0483998
0.0404746
0.0342252
0.0292339
0.0252001
0.0219041
0.0191838
0.0169179
0.0150143
0.0134018
0.0120227
0.0108204
0.322005
0.239026
0.177588
0.133616
0.102323
0.0798669
0.0635105
0.0513821
0.0422217
0.0351795
0.0296759
0.0253096
0.0217984
0.0189401
0.0165875
0.0146318
0.0129915
0.0116042
0.0104186
0.00936262
0.31754
0.217754
0.151085
0.108549
0.0807155
0.0618724
0.0486771
0.0391414
0.0320582
0.0266709
0.0224891
0.0191859
0.0165369
0.0143838
0.0126134
0.0111434
0.00991158
0.00887002
0.00798468
0.00722306
0.283364
0.126774
0.071702
0.0473282
0.0338662
0.0256616
0.0204607
0.0167969
0.0140484
0.0119407
0.0102835
0.00895515
0.00788375
0.00700924
0.0062856
0.00568036
0.00517102
0.00473959
0.00437454
0.00408254
0.292299
0.141633
0.0819302
0.0541654
0.0389231
0.0292875
0.0232723
0.0190787
0.0159342
0.0135151
0.011627
0.0101131
0.00888236
0.00787191
0.00703447
0.00633415
0.00574404
0.00524369
0.00481964
0.00449188
0.319723
0.227073
0.162232
0.118772
0.0893611
0.0689928
0.0545307
0.0439846
0.0361
0.030075
0.0253825
0.0216658
0.0186786
0.0162467
0.0142444
0.0125787
0.011181
0.00999858
0.00899083
0.0081312
0.323293
0.245617
0.187499
0.144537
0.112864
0.089404
0.0718634
0.0585866
0.0483998
0.0404746
0.0342252
0.029234
0.0252001
0.0219041
0.0191839
0.0169179
0.0150143
0.0134019
0.0120228
0.0108204
0.324288
0.250862
0.19613
0.154888
0.123591
0.09968
0.0812742
0.0669839
0.0557849
0.0469225
0.0398397
0.0341239
0.0294677
0.0256405
0.0224676
0.0198158
0.0175822
0.0156856
0.0140574
0.0126241
0.32459
0.252403
0.19891
0.158543
0.12769
0.103871
0.0853201
0.0707499
0.0592099
0.0499927
0.0425684
0.0365383
0.0316004
0.0275248
0.024135
0.0212948
0.0188977
0.0168584
0.0151028
0.0135462
0.32459
0.252403
0.19891
0.158543
0.12769
0.103871
0.0853201
0.0707499
0.05921
0.0499928
0.0425685
0.0365385
0.0316007
0.0275252
0.0241356
0.0212955
0.0188985
0.0168591
0.015102
0.0135333
0.324288
0.250862
0.19613
0.154888
0.123591
0.09968
0.0812742
0.0669838
0.0557849
0.0469225
0.0398397
0.0341239
0.0294677
0.0256404
0.0224676
0.0198158
0.0175822
0.0156856
0.0140574
0.0126242
0.323293
0.245617
0.187499
0.144537
0.112864
0.0894038
0.0718631
0.0585863
0.0483993
0.0404739
0.0342243
0.0292327
0.0251983
0.0219015
0.0191803
0.016913
0.0150076
0.0133924
0.0120089
0.0107918
0.319723
0.227073
0.162232
0.118772
0.0893609
0.0689925
0.0545302
0.0439839
0.036099
0.0300736
0.0253806
0.021663
0.0186745
0.0162407
0.0142355
0.0125661
0.0111628
0.00997234
0.00895334
0.00806747
0.292299
0.141633
0.0819301
0.0541653
0.038923
0.0292873
0.0232721
0.0190783
0.0159336
0.0135143
0.0116257
0.0101113
0.00887964
0.00786768
0.00702802
0.00632457
0.00572949
0.00522126
0.00478652
0.00445575
0.295943
0.148782
0.0871941
0.0576749
0.0415193
0.0310722
0.024645
0.0202209
0.0169048
0.0143246
0.0123079
0.0107015
0.00939501
0.00832087
0.00742882
0.00668071
0.00604782
0.005508
0.00504838
0.00470038
0.320484
0.23086
0.167176
0.123531
0.0935158
0.0724824
0.0574406
0.0464211
0.0381536
0.0318169
0.0268704
0.022946
0.0197871
0.0172117
0.0150881
0.0133189
0.0118311
0.0105689
0.00948891
0.00855831
0.323714
0.247819
0.191099
0.14881
0.117249
0.0935707
0.0756573
0.0619606
0.0513627
0.0430612
0.0364792
0.0311994
0.0269176
0.0234094
0.0205077
0.0180862
0.0160485
0.0143196
0.0128368
0.0115323
0.32459
0.252403
0.19891
0.158543
0.12769
0.103871
0.0853201
0.07075
0.05921
0.0499928
0.0425685
0.0365385
0.0316007
0.0275252
0.0241356
0.0212955
0.0188985
0.0168592
0.015102
0.0135331
0.324844
0.253685
0.20131
0.161836
0.131535
0.107943
0.0893701
0.0746127
0.0627922
0.0532536
0.0455016
0.0391577
0.0339306
0.0295949
0.0259747
0.0229322
0.0203583
0.0181641
0.0162707
0.0145872
0.324844
0.253685
0.20131
0.161836
0.131535
0.107943
0.0893701
0.0746127
0.0627922
0.0532536
0.0455016
0.0391577
0.0339306
0.0295949
0.0259747
0.0229322
0.0203583
0.0181641
0.0162707
0.0145873
0.32459
0.252403
0.19891
0.158543
0.12769
0.103871
0.08532
0.0707499
0.0592099
0.0499927
0.0425684
0.0365383
0.0316004
0.0275248
0.024135
0.0212948
0.0188977
0.0168584
0.0151028
0.0135463
0.323714
0.247819
0.191099
0.14881
0.117249
0.0935706
0.0756572
0.0619603
0.0513624
0.0430608
0.0364786
0.0311986
0.0269165
0.0234079
0.0205055
0.0180832
0.0160446
0.0143144
0.0128304
0.0115276
0.320484
0.23086
0.167176
0.123531
0.0935157
0.0724823
0.0574403
0.0464207
0.0381531
0.0318162
0.0268695
0.0229446
0.0197851
0.0172087
0.0150836
0.0133124
0.0118219
0.0105558
0.00946987
0.00852297
0.295943
0.148782
0.0871941
0.0576749
0.0415193
0.0310721
0.0246448
0.0202207
0.0169045
0.0143242
0.0123073
0.0107006
0.00939369
0.00831879
0.0074255
0.00667579
0.00604033
0.00549642
0.00502894
0.00465322
0.295943
0.148782
0.0871941
0.0576749
0.0415193
0.0310721
0.0246448
0.0202207
0.0169045
0.0143242
0.0123073
0.0107006
0.00939367
0.00831878
0.00742554
0.00667579
0.00604031
0.00549637
0.00502887
0.00465299
0.320484
0.23086
0.167176
0.123531
0.0935157
0.0724823
0.0574403
0.0464207
0.0381531
0.0318162
0.0268695
0.0229446
0.0197851
0.0172087
0.0150837
0.0133124
0.0118219
0.0105556
0.00946967
0.00852258
0.323714
0.247819
0.191099
0.14881
0.117249
0.0935707
0.0756572
0.0619603
0.0513624
0.0430608
0.0364786
0.0311987
0.0269165
0.0234079
0.0205055
0.0180832
0.0160446
0.0143143
0.0128302
0.0115272
0.32459
0.252403
0.19891
0.158543
0.12769
0.103871
0.0853201
0.0707499
0.0592099
0.0499927
0.0425684
0.0365383
0.0316004
0.0275248
0.024135
0.0212948
0.0188977
0.0168584
0.0151028
0.0135462
0.324844
0.253685
0.20131
0.161836
0.131535
0.107943
0.0893701
0.0746127
0.0627922
0.0532536
0.0455016
0.0391577
0.0339306
0.0295949
0.0259747
0.0229322
0.0203583
0.0181641
0.0162706
0.0145872
0.324844
0.253685
0.20131
0.161836
0.131535
0.107943
0.0893701
0.0746127
0.0627922
0.0532536
0.0455016
0.0391577
0.0339306
0.0295949
0.0259747
0.0229322
0.0203583
0.0181641
0.0162706
0.0145872
0.32459
0.252403
0.19891
0.158543
0.12769
0.103871
0.0853201
0.07075
0.05921
0.0499928
0.0425685
0.0365385
0.0316007
0.0275252
0.0241355
0.0212955
0.0188985
0.0168591
0.015102
0.0135332
0.323714
0.247819
0.191099
0.14881
0.117249
0.0935707
0.0756573
0.0619605
0.0513627
0.0430612
0.0364792
0.0311994
0.0269176
0.0234095
0.0205076
0.0180861
0.0160485
0.0143196
0.0128369
0.0115325
0.320484
0.23086
0.167176
0.123531
0.0935158
0.0724824
0.0574406
0.0464211
0.0381535
0.0318169
0.0268704
0.022946
0.0197872
0.0172118
0.015088
0.0133188
0.011831
0.0105689
0.009489
0.00855829
0.295943
0.148782
0.0871941
0.0576749
0.0415193
0.0310722
0.024645
0.0202209
0.0169048
0.0143246
0.0123079
0.0107015
0.00939508
0.00832095
0.0074287
0.00668062
0.00604776
0.00550796
0.00504838
0.00470055
0.292299
0.141633
0.0819301
0.0541653
0.038923
0.0292873
0.0232721
0.0190783
0.0159336
0.0135143
0.0116257
0.0101113
0.00887967
0.00786776
0.00702797
0.0063245
0.00572941
0.00522117
0.00478639
0.00445556
0.319723
0.227073
0.162232
0.118772
0.0893609
0.0689925
0.0545302
0.0439839
0.036099
0.0300737
0.0253806
0.021663
0.0186746
0.0162408
0.0142355
0.012566
0.0111627
0.0099722
0.0089531
0.00806702
0.323293
0.245617
0.187499
0.144537
0.112864
0.0894038
0.0718631
0.0585863
0.0483993
0.040474
0.0342243
0.0292327
0.0251984
0.0219016
0.0191803
0.016913
0.0150075
0.0133924
0.0120088
0.0107915
0.324288
0.250862
0.19613
0.154888
0.123591
0.09968
0.0812742
0.0669839
0.0557849
0.0469225
0.0398397
0.0341239
0.0294678
0.0256405
0.0224676
0.0198158
0.0175822
0.0156856
0.0140574
0.0126242
0.32459
0.252403
0.19891
0.158543
0.12769
0.103871
0.0853201
0.07075
0.05921
0.0499928
0.0425685
0.0365385
0.0316007
0.0275252
0.0241356
0.0212955
0.0188985
0.0168592
0.015102
0.0135332
0.32459
0.252403
0.19891
0.158543
0.12769
0.103871
0.0853201
0.0707499
0.0592099
0.0499927
0.0425684
0.0365383
0.0316004
0.0275248
0.024135
0.0212948
0.0188977
0.0168584
0.0151029
0.0135463
0.324288
0.250862
0.19613
0.154888
0.123591
0.09968
0.0812742
0.0669839
0.0557849
0.0469225
0.0398397
0.0341239
0.0294677
0.0256405
0.0224676
0.0198158
0.0175822
0.0156856
0.0140574
0.012624
0.323293
0.245617
0.187499
0.144537
0.112864
0.089404
0.0718634
0.0585866
0.0483998
0.0404746
0.0342252
0.029234
0.0252001
0.0219041
0.0191839
0.0169179
0.0150143
0.0134019
0.0120228
0.0108204
0.319723
0.227073
0.162232
0.118772
0.0893611
0.0689928
0.0545307
0.0439846
0.0361
0.030075
0.0253825
0.0216658
0.0186787
0.0162469
0.0142443
0.0125786
0.0111809
0.00999851
0.00899079
0.00813104
0.292299
0.141633
0.0819301
0.0541654
0.0389231
0.0292875
0.0232724
0.0190787
0.0159342
0.0135151
0.011627
0.0101131
0.00888241
0.00787201
0.00703437
0.00633405
0.00574395
0.0052436
0.00481952
0.00449145
0.283364
0.126774
0.071702
0.0473282
0.0338663
0.0256616
0.0204608
0.0167969
0.0140484
0.0119408
0.0102836
0.00895518
0.00788381
0.00700935
0.00628554
0.0056803
0.00517099
0.00473957
0.00437449
0.00408248
0.31754
0.217754
0.151085
0.108549
0.0807155
0.0618725
0.0486771
0.0391414
0.0320582
0.0266709
0.0224892
0.019186
0.0165371
0.014384
0.0126133
0.0111433
0.00991159
0.00887011
0.00798472
0.00722322
0.322005
0.239026
0.177588
0.133616
0.102323
0.0798669
0.0635106
0.0513821
0.0422217
0.0351795
0.0296759
0.0253096
0.0217985
0.0189402
0.0165875
0.0146319
0.0129917
0.0116043
0.0104188
0.00936287
0.323293
0.245617
0.187499
0.144537
0.112864
0.089404
0.0718634
0.0585866
0.0483998
0.0404746
0.0342252
0.029234
0.0252001
0.0219041
0.0191839
0.016918
0.0150144
0.013402
0.012023
0.0108207
0.323714
0.247819
0.191099
0.14881
0.117249
0.0935708
0.0756573
0.0619606
0.0513627
0.0430612
0.0364792
0.0311994
0.0269176
0.0234095
0.0205077
0.0180862
0.0160486
0.0143197
0.012837
0.0115326
0.323714
0.247819
0.191099
0.14881
0.117249
0.0935706
0.0756572
0.0619603
0.0513624
0.0430608
0.0364786
0.0311987
0.0269165
0.0234079
0.0205055
0.0180833
0.0160446
0.0143144
0.0128304
0.0115273
0.323293
0.245617
0.187499
0.144537
0.112864
0.0894038
0.0718631
0.0585863
0.0483993
0.040474
0.0342243
0.0292327
0.0251983
0.0219016
0.0191803
0.0169131
0.0150076
0.0133925
0.0120088
0.0107915
0.322005
0.239026
0.177588
0.133616
0.102323
0.0798669
0.0635106
0.0513821
0.0422217
0.0351795
0.0296759
0.0253096
0.0217984
0.0189401
0.0165875
0.0146319
0.0129916
0.0116043
0.0104187
0.00936262
0.31754
0.217754
0.151086
0.108549
0.0807156
0.0618727
0.0486775
0.0391419
0.0320589
0.0266719
0.0224906
0.0191881
0.0165401
0.0143885
0.0126199
0.0111526
0.00992506
0.0088901
0.00801527
0.00726588
0.283364
0.126774
0.071702
0.0473282
0.0338663
0.0256617
0.020461
0.0167972
0.0140489
0.0119416
0.0102848
0.00895688
0.00788632
0.00701318
0.00629149
0.00568917
0.00518449
0.0047606
0.00440751
0.00412947
0.264759
0.104702
0.0585298
0.0391631
0.0286199
0.0219935
0.0175361
0.0143634
0.0120084
0.010214
0.00881668
0.00770625
0.00680487
0.00606185
0.00545089
0.00495048
0.00453479
0.00418872
0.00391701
0.00372431
0.311746
0.197541
0.130357
0.0911457
0.0668023
0.0508112
0.0397945
0.0319123
0.0260945
0.0216876
0.0182771
0.0155892
0.013442
0.0116996
0.0102693
0.00908297
0.00808984
0.00725174
0.00655385
0.00587979
0.31754
0.217754
0.151086
0.108549
0.0807156
0.0618727
0.0486775
0.039142
0.0320589
0.0266719
0.0224906
0.0191881
0.0165401
0.0143885
0.01262
0.0111528
0.00992526
0.00889032
0.0080156
0.00726632
0.319723
0.227073
0.162232
0.118772
0.0893611
0.0689928
0.0545307
0.0439846
0.0361
0.030075
0.0253826
0.0216658
0.0186786
0.0162467
0.0142444
0.0125788
0.0111811
0.00999869
0.008991
0.00813141
0.320484
0.23086
0.167176
0.123531
0.0935158
0.0724824
0.0574406
0.0464211
0.0381536
0.0318169
0.0268704
0.022946
0.0197871
0.0172117
0.0150882
0.0133189
0.0118311
0.010569
0.00948904
0.00855842
0.320484
0.23086
0.167176
0.123531
0.0935157
0.0724823
0.0574403
0.0464207
0.0381531
0.0318162
0.0268695
0.0229446
0.0197851
0.0172087
0.0150836
0.0133125
0.0118219
0.0105557
0.00946971
0.00852265
0.319723
0.227073
0.162232
0.118772
0.0893609
0.0689925
0.0545302
0.0439839
0.036099
0.0300737
0.0253806
0.021663
0.0186746
0.0162407
0.0142355
0.0125661
0.0111628
0.00997228
0.00895319
0.00806716
0.31754
0.217754
0.151085
0.108549
0.0807155
0.0618724
0.0486771
0.0391414
0.0320582
0.0266709
0.0224892
0.019186
0.016537
0.0143839
0.0126134
0.0111434
0.00991167
0.00887017
0.0079848
0.00722318
0.311746
0.197541
0.130357
0.0911457
0.0668023
0.0508111
0.0397945
0.0319123
0.0260944
0.0216876
0.018277
0.0155892
0.0134419
0.0116996
0.0102693
0.00908289
0.00808973
0.00725161
0.00655367
0.00587954
0.264759
0.104702
0.0585298
0.0391631
0.0286199
0.0219935
0.0175362
0.0143635
0.0120085
0.0102142
0.00881706
0.00770688
0.00680589
0.0060641
0.00545418
0.00495544
0.00454318
0.00420418
0.00394507
0.00377009
0.213564
0.055916
0.0283994
0.0193412
0.0146928
0.0118511
0.00989073
0.00851613
0.00749146
0.00669655
0.00606094
0.00555158
0.00512411
0.00474747
0.00442943
0.00416378
0.00394203
0.003762
0.00365652
0.003544
0.264759
0.104702
0.0585298
0.0391631
0.0286199
0.0219935
0.0175362
0.0143635
0.0120085
0.0102142
0.00881708
0.0077069
0.00680593
0.0060641
0.00545421
0.00495553
0.00454331
0.00420431
0.00394524
0.00377033
0.283364
0.126774
0.071702
0.0473282
0.0338663
0.0256617
0.020461
0.0167972
0.0140489
0.0119417
0.0102848
0.0089569
0.00788632
0.00701314
0.00629158
0.00568929
0.00518463
0.00476074
0.00440767
0.00412964
0.292299
0.141633
0.0819302
0.0541654
0.0389231
0.0292875
0.0232723
0.0190787
0.0159342
0.0135151
0.011627
0.0101131
0.00888237
0.00787192
0.0070345
0.00633418
0.00574407
0.00524371
0.00481965
0.00449187
0.295943
0.148782
0.0871941
0.0576749
0.0415193
0.0310722
0.024645
0.0202209
0.0169048
0.0143246
0.0123079
0.0107015
0.00939502
0.00832087
0.00742883
0.00668072
0.00604782
0.00550798
0.00504834
0.00470026
0.295943
0.148782
0.0871941
0.0576749
0.0415193
0.0310721
0.0246448
0.0202207
0.0169045
0.0143242
0.0123073
0.0107006
0.00939366
0.00831876
0.00742554
0.00667579
0.0060403
0.00549635
0.00502881
0.00465285
0.292299
0.141633
0.0819301
0.0541653
0.038923
0.0292873
0.0232721
0.0190783
0.0159337
0.0135143
0.0116257
0.0101113
0.00887964
0.00786768
0.00702802
0.00632455
0.00572946
0.0052212
0.00478642
0.00445559
0.283364
0.126774
0.071702
0.0473282
0.0338663
0.0256616
0.0204607
0.0167969
0.0140485
0.0119408
0.0102836
0.00895517
0.00788377
0.00700926
0.00628562
0.00568039
0.00517106
0.00473964
0.00437459
0.00408258
0.264759
0.104702
0.0585298
0.0391631
0.0286199
0.0219935
0.0175361
0.0143634
0.0120084
0.010214
0.00881667
0.00770624
0.00680487
0.00606179
0.00545092
0.00495048
0.00453477
0.00418872
0.003917
0.0037243
0.213564
0.055916
0.0283994
0.0193412
0.0146928
0.0118511
0.00989073
0.00851613
0.00749146
0.00669654
0.00606096
0.00555155
0.00512411
0.00474745
0.00442945
0.00416376
0.003942
0.00376197
0.00365649
0.00354395
0.00487206
0.00416448
0.00357303
0.00322245
0.00301211
0.00287628
0.0027718
0.00268507
0.00260856
0.00254313
0.0024888
0.00243871
0.00239179
0.0023457
0.00230164
0.00226116
0.00222214
0.00218512
0.00214958
0.00211599
0.00208343
0.00205174
0.0020218
0.00199395
0.00196722
0.00194143
0.00191659
0.00189244
0.00186889
0.00184644
0.00182456
0.00180358
0.00178346
0.00176364
0.00174538
0.00172743
0.00171107
0.00169513
0.00168189
0.00165668
0.00421625
0.00370389
0.00332016
0.00303757
0.00283868
0.00269197
0.00257423
0.00247374
0.00238441
0.00230803
0.00224254
0.00218255
0.00213124
0.00208043
0.00203153
0.00198736
0.00194538
0.00190721
0.00187091
0.00183686
0.00180461
0.00177323
0.00174407
0.00171703
0.0016918
0.00166788
0.00164479
0.00162241
0.00160068
0.00157967
0.00155927
0.00153955
0.00152056
0.00150249
0.00148508
0.00146836
0.0014524
0.00143715
0.00142297
0.00140685
0.00421638
0.00378532
0.00346115
0.00320208
0.0029978
0.0028396
0.00270294
0.00258389
0.00248172
0.00239095
0.00231081
0.00223914
0.00217839
0.00211548
0.00205844
0.00200805
0.00196083
0.00191885
0.0018782
0.00183958
0.00180352
0.0017666
0.00173247
0.00170115
0.00167287
0.00164616
0.00162022
0.00159512
0.00157094
0.00154744
0.00152487
0.00150307
0.00148204
0.00146185
0.00144233
0.00142415
0.00140641
0.00138901
0.00137198
0.00135459
0.00408567
0.00378847
0.0035341
0.00331452
0.0031241
0.00295753
0.00281077
0.00268099
0.00256549
0.00246225
0.00236954
0.00228663
0.00221313
0.00214385
0.00208021
0.00202214
0.00196843
0.00192159
0.00187209
0.00182541
0.00178425
0.00174552
0.00170859
0.00167321
0.00164032
0.00160927
0.00158023
0.00155237
0.00152626
0.00150081
0.00147626
0.0014523
0.0014299
0.00140833
0.00138853
0.00136869
0.00135035
0.00133243
0.00131541
0.00129811
0.00414583
0.00383886
0.00357737
0.00335376
0.00316047
0.00299257
0.00284525
0.00271431
0.00259654
0.00249014
0.00239372
0.00230639
0.00222792
0.00215398
0.00208619
0.00202424
0.00196748
0.00191447
0.00186528
0.00181933
0.00177767
0.00173721
0.00169576
0.00165778
0.00162278
0.00158993
0.00155917
0.00152999
0.00150292
0.00147663
0.00145142
0.00142706
0.00140429
0.00138199
0.00136151
0.00134055
0.00132162
0.00130351
0.0012865
0.00127035
0.00440076
0.00393556
0.00361418
0.00336394
0.00315673
0.00298096
0.00282955
0.00269754
0.00257953
0.00247266
0.00237559
0.00228742
0.00220762
0.00213336
0.00206521
0.00200245
0.00194447
0.00189077
0.0018414
0.00179573
0.00175316
0.00171343
0.00167606
0.00164204
0.00160543
0.00156995
0.00153763
0.00150799
0.00148124
0.00145518
0.00143117
0.00140814
0.00138581
0.00136076
0.00134229
0.0013195
0.00130216
0.00128469
0.00126786
0.00125198
0.00429419
0.00383663
0.0035319
0.00329072
0.00308964
0.00291862
0.00277128
0.00264217
0.00252634
0.00242172
0.00232708
0.00224142
0.00216394
0.00209205
0.00202606
0.00196527
0.0019091
0.00185721
0.00180923
0.00176513
0.00172441
0.00168653
0.00164988
0.00161726
0.00158147
0.00154756
0.00151678
0.00148859
0.00146269
0.00143694
0.00141298
0.00139018
0.00136778
0.00134445
0.00132567
0.00130646
0.00128869
0.00127146
0.0012547
0.00123866
0.00398442
0.00363181
0.00336448
0.00314532
0.00296008
0.00280236
0.002665
0.0025431
0.00243437
0.00233683
0.00224895
0.00217005
0.00209891
0.00203285
0.00197229
0.00191645
0.00186482
0.00181775
0.00177402
0.00173318
0.00169526
0.00165982
0.00162313
0.00159026
0.00155881
0.00152956
0.00150144
0.0014752
0.00144954
0.00142351
0.00139945
0.00137763
0.0013578
0.00133834
0.00131952
0.00130116
0.00128292
0.00126575
0.00124938
0.00123359
0.00373598
0.00344308
0.0031912
0.00297441
0.00279511
0.00264866
0.00252492
0.00241719
0.0023228
0.00223885
0.00216399
0.00209857
0.00203871
0.00198304
0.00193237
0.00188271
0.0018344
0.00179037
0.00175099
0.00171306
0.00167794
0.00164429
0.00161233
0.00158217
0.00155286
0.00152551
0.00149947
0.00147513
0.00145196
0.00143015
0.00140963
0.00139005
0.00137107
0.00135304
0.00133574
0.0013188
0.00130162
0.00128606
0.00127169
0.0012568
0.00399061
0.00352988
0.00314771
0.00286895
0.00267919
0.00254571
0.00244325
0.0023539
0.00227555
0.00220677
0.00214679
0.00209766
0.00204591
0.00199419
0.00194675
0.00190293
0.00186104
0.00182174
0.00178465
0.0017499
0.00171686
0.00168586
0.00165716
0.00163085
0.0016056
0.00158172
0.00155866
0.00153678
0.00151578
0.00149586
0.0014766
0.00145817
0.00144056
0.00142377
0.00140738
0.00139295
0.00137827
0.00136444
0.00135218
0.00133808
0.00487175
0.00416458
0.00357229
0.00321977
0.00300586
0.00286829
0.00276502
0.00267861
0.00260303
0.0025395
0.00248436
0.0024367
0.0023889
0.00234306
0.00229966
0.00225927
0.00222064
0.00218376
0.00214866
0.00211531
0.00208297
0.00205162
0.00202185
0.00199425
0.0019676
0.00194191
0.00191701
0.00189278
0.00186911
0.00184645
0.00182449
0.00180345
0.00178319
0.00176332
0.00174437
0.00172696
0.00171075
0.00169412
0.00168041
0.00165414
0.00399002
0.00353086
0.00314855
0.0028713
0.002686
0.00255609
0.00245118
0.00236153
0.00228155
0.00221045
0.00215208
0.00209986
0.00204799
0.00199744
0.00194936
0.00190563
0.00186295
0.00182382
0.00178615
0.00175115
0.00171797
0.0016864
0.00165744
0.00163065
0.00160539
0.00158137
0.00155839
0.0015366
0.00151574
0.00149603
0.0014769
0.00145856
0.00144104
0.00142445
0.00140924
0.00139352
0.00137875
0.00136535
0.00135371
0.00134026
0.00419124
0.00378941
0.0034875
0.00324232
0.00306585
0.0028875
0.00270944
0.00254026
0.00238349
0.0022485
0.00213128
0.00202048
0.00191988
0.00182599
0.00173061
0.00165156
0.00157233
0.00150553
0.00144009
0.0013821
0.00132493
0.00126724
0.00121929
0.00118021
0.00114217
0.00110559
0.00107047
0.00103858
0.00100744
0.000982213
0.00095595
0.000930046
0.000905556
0.000882582
0.000868278
0.000848809
0.000829771
0.000813428
0.000800983
0.000792548
0.00545313
0.00501689
0.0046063
0.00427126
0.00396381
0.00369343
0.00345181
0.00323439
0.00303824
0.00285938
0.00269519
0.002547
0.00241221
0.0022933
0.00217668
0.00207664
0.00197815
0.00189324
0.00181062
0.00173483
0.00166528
0.0015948
0.00153431
0.00147302
0.00141961
0.0013673
0.0013185
0.00127457
0.00123164
0.0011926
0.00115497
0.0011194
0.00108305
0.00104992
0.00102074
0.000991108
0.000960797
0.000931858
0.000901785
0.000868772
0.00677411
0.00607466
0.00551241
0.00504462
0.00464572
0.0042997
0.00399397
0.00372231
0.00347972
0.00326191
0.00306563
0.00288757
0.00272868
0.00258257
0.00244897
0.00232703
0.00221491
0.00211207
0.00201814
0.00192866
0.00185028
0.00177263
0.00170438
0.00163575
0.00157673
0.00151875
0.00146782
0.00141664
0.00137105
0.00132456
0.00128188
0.00124186
0.00120154
0.00116511
0.00113072
0.00109448
0.00105836
0.00102572
0.000992609
0.000952118
0.00729939
0.00662132
0.00602744
0.0055113
0.00506181
0.00467087
0.00432941
0.00402799
0.00375799
0.00351526
0.00329687
0.00309995
0.00292183
0.00276057
0.00261377
0.00247984
0.00235734
0.002245
0.00214185
0.00204628
0.00195967
0.00187281
0.0017911
0.00172229
0.00165971
0.00160176
0.00154621
0.00149216
0.00144217
0.00139233
0.00134612
0.00130427
0.00126223
0.00122273
0.00118481
0.00114446
0.00110537
0.00106896
0.00103263
0.000988695
0.00749077
0.00681083
0.00621148
0.00568588
0.00522442
0.00481867
0.00446273
0.00415161
0.00387423
0.00362359
0.00339721
0.00319292
0.00300772
0.00284057
0.00268862
0.00255002
0.00242326
0.00230697
0.00220007
0.00210144
0.00201057
0.00192573
0.00184782
0.00176892
0.00169249
0.00162496
0.00156958
0.00151832
0.00146978
0.00142171
0.00137646
0.00133564
0.00129094
0.00124594
0.00120451
0.00116046
0.00111971
0.00108019
0.00104275
0.00099679
0.00737134
0.00668193
0.00608274
0.00556323
0.0051116
0.00471789
0.00437548
0.00407603
0.00380752
0.00356514
0.00334637
0.00314859
0.00297076
0.00280847
0.00266052
0.00252525
0.00240123
0.00228714
0.00218203
0.00208482
0.00199484
0.00191105
0.00183299
0.00176003
0.00168664
0.00162349
0.00156228
0.00150576
0.00145256
0.00140089
0.00135225
0.00130538
0.00125883
0.00121521
0.00117436
0.00113056
0.00109011
0.00105077
0.00101248
0.000965518
0.00677593
0.00613036
0.00557758
0.0051059
0.00470113
0.00435507
0.0040523
0.00378087
0.00353677
0.00331678
0.00311755
0.00293804
0.00277747
0.00262807
0.00249118
0.00236536
0.0022498
0.00214273
0.00204426
0.00195253
0.0018674
0.00178772
0.0017117
0.00164377
0.00157464
0.00151416
0.00145308
0.00139864
0.00134527
0.00129572
0.00124783
0.00120155
0.0011543
0.00111298
0.00107385
0.00103489
0.000993695
0.000956259
0.000921831
0.000881611
0.00566409
0.00512397
0.00466868
0.00430145
0.00399127
0.00371716
0.00347227
0.00324698
0.0030445
0.00285984
0.00268795
0.00253977
0.00239841
0.00226878
0.0021491
0.00203734
0.00193731
0.00184022
0.00175628
0.00167315
0.00159977
0.0015263
0.00146061
0.00140136
0.00134202
0.00129079
0.00123818
0.0011931
0.00114694
0.00110829
0.00107012
0.00103338
0.000995121
0.000963333
0.000933143
0.000901015
0.000869594
0.000846278
0.000824057
0.000804341
0.00419115
0.00378588
0.00348869
0.00323068
0.00302727
0.0028461
0.00268507
0.00252024
0.00237208
0.00224555
0.00211974
0.00202467
0.00191748
0.0018203
0.00172679
0.00164546
0.00156914
0.00150103
0.00143681
0.00137968
0.00132064
0.0012659
0.00121809
0.00118167
0.00114301
0.00110709
0.00107131
0.00103906
0.00100763
0.000981863
0.000955541
0.000929623
0.00090484
0.000882676
0.000862669
0.000843113
0.00083299
0.000815645
0.000800886
0.000790667
0.00421579
0.0037027
0.00331944
0.00303165
0.00282675
0.00268059
0.00256606