/*--------------------------------*- C++ -*----------------------------------*\
| =========                 |                                                 |
| \\      /  F ield         | OpenFOAM: The Open Source CFD Toolbox           |
|  \\    /   O peration     | Version:  2212                                  |
|   \\  /    A nd           | Website:  www.openfoam.com                      |
|    \\/     M anipulation  |                                                 |
\*---------------------------------------------------------------------------*/
FoamFile
{
    version     2.0;
    format      ascii;
    arch        "LSB;label=32;scalar=64";
    class       volScalarField;
    location    "2.2";
    object      nut;
}
// * * * * * * * * * * * * * * * * * * * * * * * * * * * * * * * * * * * * * //

dimensions      [0 2 -1 0 0 0 0];

internalField   nonuniform List<scalar> 
6840
(
4.5356e-05
2.3208e-05
1.65396e-05
1.36494e-05
1.18966e-05
1.06844e-05
9.76079e-06
9.05717e-06
8.49484e-06
8.03154e-06
7.64091e-06
7.31285e-06
7.02574e-06
6.76278e-06
6.53256e-06
6.33408e-06
6.16363e-06
6.02207e-06
5.9393e-06
5.85316e-06
0.000107685
6.77183e-05
5.06311e-05
4.14159e-05
3.54049e-05
3.10367e-05
2.77138e-05
2.50818e-05
2.29337e-05
2.1151e-05
1.96511e-05
1.83721e-05
1.72645e-05
1.62953e-05
1.54527e-05
1.47275e-05
1.40977e-05
1.35528e-05
1.3114e-05
1.2807e-05
0.000160509
0.00010736
8.07408e-05
6.55975e-05
5.54896e-05
4.83025e-05
4.3131e-05
3.9079e-05
3.57391e-05
3.29494e-05
3.05777e-05
2.85347e-05
2.67738e-05
2.52458e-05
2.39077e-05
2.27288e-05
2.16882e-05
2.07676e-05
1.9961e-05
1.92674e-05
0.000198681
0.0001383
0.000105187
8.55269e-05
7.25012e-05
6.289e-05
5.60609e-05
5.07589e-05
4.63874e-05
4.27209e-05
3.96237e-05
3.6953e-05
3.46296e-05
3.2597e-05
3.08087e-05
2.92269e-05
2.78192e-05
2.65591e-05
2.54342e-05
2.45553e-05
0.000218609
0.000155003
0.000118661
9.65068e-05
8.18822e-05
7.08353e-05
6.30852e-05
5.71429e-05
5.22475e-05
4.80949e-05
4.45803e-05
4.15687e-05
3.89472e-05
3.66509e-05
3.46267e-05
3.2831e-05
3.12275e-05
2.97852e-05
2.84823e-05
2.73379e-05
0.000218609
0.000155003
0.000118661
9.65068e-05
8.18822e-05
7.08354e-05
6.30853e-05
5.71431e-05
5.22478e-05
4.80953e-05
4.45811e-05
4.15699e-05
3.89493e-05
3.66545e-05
3.46327e-05
3.28405e-05
3.12429e-05
2.98105e-05
2.85301e-05
2.7504e-05
0.000198681
0.0001383
0.000105187
8.55269e-05
7.25012e-05
6.28901e-05
5.60611e-05
5.07593e-05
4.6388e-05
4.27217e-05
3.96252e-05
3.69553e-05
3.46334e-05
3.26035e-05
3.08192e-05
2.92435e-05
2.78458e-05
2.66022e-05
2.54986e-05
2.459e-05
0.000160509
0.00010736
8.07409e-05
6.55976e-05
5.54896e-05
4.83026e-05
4.31311e-05
3.90793e-05
3.57395e-05
3.29502e-05
3.05789e-05
2.85366e-05
2.67768e-05
2.52507e-05
2.39157e-05
2.27417e-05
2.17087e-05
2.0801e-05
2.00115e-05
1.93572e-05
0.000107685
6.77183e-05
5.06311e-05
4.14159e-05
3.54049e-05
3.10367e-05
2.77138e-05
2.50818e-05
2.29337e-05
2.11511e-05
1.96514e-05
1.83726e-05
1.72654e-05
1.62972e-05
1.54562e-05
1.47328e-05
1.41065e-05
1.35695e-05
1.31454e-05
1.28541e-05
4.5356e-05
2.3208e-05
1.65396e-05
1.36494e-05
1.18966e-05
1.06844e-05
9.76079e-06
9.05716e-06
8.49484e-06
8.03153e-06
7.64092e-06
7.31286e-06
7.0257e-06
6.76269e-06
6.53263e-06
6.33405e-06
6.16356e-06
6.02201e-06
5.93925e-06
5.85309e-06
0.000107685
6.77183e-05
5.06311e-05
4.14159e-05
3.54049e-05
3.10367e-05
2.77138e-05
2.50818e-05
2.29337e-05
2.11511e-05
1.96514e-05
1.83726e-05
1.72654e-05
1.62973e-05
1.54561e-05
1.47328e-05
1.41068e-05
1.35697e-05
1.31456e-05
1.28544e-05
0.000528907
0.000369984
0.000305097
0.000261371
0.000228528
0.000202476
0.000181114
0.000163074
0.000147539
0.000133984
0.00012205
0.000111467
0.000102136
9.38634e-05
8.64787e-05
7.96894e-05
7.35106e-05
6.79653e-05
6.37675e-05
5.53064e-05
0.000663952
0.000488458
0.000404619
0.000347248
0.000305035
0.000272127
0.000245318
0.000222887
0.000203754
0.000187177
0.00017265
0.000159807
0.000148361
0.000138097
0.000128843
0.000120597
0.000113152
0.000106314
0.000100367
9.43615e-05
0.00071288
0.000556432
0.000466397
0.000402354
0.000354425
0.000317049
0.000286672
0.000261251
0.000239575
0.000220836
0.000204428
0.000189925
0.000177004
0.000165404
0.000154904
0.000145383
0.000136671
0.00012863
0.000121153
0.000114031
0.000728543
0.000588231
0.000496001
0.000429131
0.000378509
0.000338933
0.000306815
0.000279967
0.000257063
0.000237241
0.000219886
0.000204539
0.000190856
0.000178563
0.000167435
0.00015732
0.000148043
0.000139455
0.000131396
0.000123425
0.000728543
0.000588231
0.000496001
0.000429131
0.000378509
0.000338933
0.000306817
0.00027997
0.000257067
0.000237247
0.000219895
0.000204555
0.000190882
0.000178613
0.000167522
0.000157442
0.000148227
0.000139746
0.000131862
0.000124378
0.00071288
0.000556432
0.000466397
0.000402355
0.000354426
0.00031705
0.000286675
0.000261256
0.000239583
0.000220847
0.000204446
0.000189955
0.000177058
0.000165501
0.000155062
0.000145612
0.000137026
0.00012919
0.000122034
0.000115851
0.000663952
0.000488459
0.000404619
0.000347248
0.000305036
0.000272128
0.00024532
0.000222892
0.00020376
0.000187185
0.000172663
0.000159829
0.000148398
0.000138168
0.000128948
0.000120752
0.0001134
0.000106726
0.00010109
9.4655e-05
0.000528907
0.000369984
0.000305097
0.000261371
0.000228528
0.000202476
0.000181114
0.000163074
0.000147539
0.000133984
0.000122049
0.000111467
0.000102135
9.38697e-05
8.64724e-05
7.96846e-05
7.35059e-05
6.79604e-05
6.37616e-05
5.52983e-05
0.000107685
6.77183e-05
5.06311e-05
4.14159e-05
3.54049e-05
3.10367e-05
2.77138e-05
2.50818e-05
2.29337e-05
2.11509e-05
1.96511e-05
1.83721e-05
1.72646e-05
1.6295e-05
1.54529e-05
1.47276e-05
1.40975e-05
1.35527e-05
1.31139e-05
1.28069e-05
0.000160509
0.00010736
8.07409e-05
6.55976e-05
5.54896e-05
4.83026e-05
4.31311e-05
3.90793e-05
3.57395e-05
3.29502e-05
3.05789e-05
2.85366e-05
2.67767e-05
2.52506e-05
2.39159e-05
2.27417e-05
2.17089e-05
2.08012e-05
2.00117e-05
1.93578e-05
0.000663952
0.000488459
0.000404619
0.000347248
0.000305036
0.000272128
0.00024532
0.000222892
0.00020376
0.000187185
0.000172663
0.000159829
0.000148397
0.000138157
0.000128959
0.000120759
0.000113405
0.000106728
0.000101102
9.46822e-05
0.000786828
0.000662293
0.000567974
0.000495805
0.000439464
0.000394562
0.000357975
0.000327453
0.000301492
0.000279053
0.000259402
0.00024201
0.000226483
0.000212527
0.000199913
0.000188469
0.000178047
0.000168498
0.000159673
0.000149948
0.000809324
0.000713906
0.000631504
0.000562574
0.000505377
0.000457785
0.00041784
0.000383938
0.000354802
0.000329447
0.000307152
0.000287373
0.000269691
0.000253776
0.000239369
0.000226275
0.000214304
0.000203278
0.000192933
0.000182308
0.000814958
0.000730426
0.000654634
0.000589043
0.000533067
0.000485438
0.000444762
0.000409791
0.000379467
0.000352927
0.000329485
0.000308619
0.000289925
0.000273075
0.000257805
0.000243909
0.000231188
0.000219448
0.000208403
0.00019732
0.000814958
0.000730426
0.000654634
0.000589043
0.000533067
0.000485438
0.000444763
0.000409793
0.00037947
0.000352932
0.000329492
0.00030863
0.000289942
0.000273107
0.000257856
0.000243976
0.00023128
0.00021958
0.000208575
0.000197379
0.000809324
0.000713906
0.000631505
0.000562574
0.000505377
0.000457786
0.000417842
0.000383942
0.000354807
0.000329454
0.000307163
0.00028739
0.00026972
0.000253828
0.000239447
0.000226382
0.000214457
0.000203506
0.000193301
0.00018306
0.000786828
0.000662293
0.000567974
0.000495805
0.000439464
0.000394562
0.000357975
0.000327453
0.000301492
0.000279053
0.000259402
0.000242009
0.000226481
0.000212527
0.000199911
0.000188466
0.000178042
0.00016849
0.000159664
0.000149932
0.000663952
0.000488458
0.000404619
0.000347248
0.000305035
0.000272127
0.000245318
0.000222887
0.000203754
0.000187176
0.000172649
0.000159806
0.000148358
0.000138093
0.000128846
0.000120598
0.000113151
0.000106311
0.000100364
9.43533e-05
0.000160509
0.00010736
8.07408e-05
6.55975e-05
5.54896e-05
4.83025e-05
4.3131e-05
3.9079e-05
3.57391e-05
3.29494e-05
3.05777e-05
2.85347e-05
2.67737e-05
2.52457e-05
2.39078e-05
2.27291e-05
2.16883e-05
2.07676e-05
1.99609e-05
1.92684e-05
0.000198681
0.0001383
0.000105187
8.55269e-05
7.25012e-05
6.28901e-05
5.60611e-05
5.07593e-05
4.6388e-05
4.27217e-05
3.96252e-05
3.69553e-05
3.46333e-05
3.26033e-05
3.08194e-05
2.92437e-05
2.7846e-05
2.66024e-05
2.54988e-05
2.45902e-05
0.00071288
0.000556432
0.000466397
0.000402355
0.000354426
0.00031705
0.000286675
0.000261256
0.000239583
0.000220847
0.000204446
0.000189955
0.000177054
0.000165491
0.000155072
0.000145618
0.000137029
0.000129191
0.000122034
0.000115853
0.000809324
0.000713906
0.000631505
0.000562574
0.000505377
0.000457786
0.000417842
0.000383942
0.000354807
0.000329454
0.000307163
0.00028739
0.000269718
0.000253824
0.000239453
0.000226386
0.00021446
0.00020351
0.000193306
0.000183062
0.000823497
0.000753987
0.000688491
0.000628748
0.000575387
0.000528266
0.000486846
0.000450442
0.000418363
0.000389975
0.000364729
0.000342164
0.000321897
0.000303608
0.000287033
0.000271947
0.000258148
0.000245424
0.000233435
0.000221315
0.000826292
0.000764347
0.000706102
0.000651936
0.00060223
0.000557103
0.000516428
0.000479912
0.000447181
0.000417832
0.000391476
0.00036775
0.000346332
0.000326939
0.000309322
0.000293262
0.00027855
0.000264951
0.000252063
0.000238929
0.000826292
0.000764347
0.000706102
0.000651937
0.00060223
0.000557104
0.000516428
0.000479913
0.000447182
0.000417834
0.000391478
0.000367753
0.000346337
0.000326948
0.000309336
0.000293279
0.000278572
0.000264972
0.000252035
0.000238533
0.000823497
0.000753987
0.000688491
0.000628748
0.000575387
0.000528266
0.000486846
0.000450442
0.000418363
0.000389975
0.000364729
0.000342164
0.000321896
0.000303608
0.000287032
0.000271945
0.000258146
0.000245421
0.000233431
0.000221315
0.000809324
0.000713906
0.000631504
0.000562574
0.000505377
0.000457785
0.00041784
0.000383938
0.000354802
0.000329447
0.000307152
0.000287372
0.000269687
0.000253772
0.000239373
0.000226276
0.000214301
0.000203271
0.000192925
0.000182305
0.00071288
0.000556432
0.000466397
0.000402354
0.000354425
0.000317049
0.000286672
0.000261251
0.000239575
0.000220835
0.000204427
0.000189924
0.000177002
0.000165394
0.000154914
0.000145388
0.000136673
0.000128631
0.000121154
0.000114034
0.000198681
0.0001383
0.000105187
8.55269e-05
7.25012e-05
6.289e-05
5.60609e-05
5.07589e-05
4.63874e-05
4.27208e-05
3.96237e-05
3.69529e-05
3.46295e-05
3.25968e-05
3.08088e-05
2.9227e-05
2.78193e-05
2.65593e-05
2.54344e-05
2.45557e-05
0.000218609
0.000155003
0.000118661
9.65068e-05
8.18822e-05
7.08354e-05
6.30853e-05
5.71431e-05
5.22478e-05
4.80954e-05
4.45811e-05
4.15699e-05
3.89493e-05
3.66543e-05
3.46326e-05
3.28404e-05
3.12429e-05
2.98104e-05
2.85299e-05
2.75039e-05
0.000728543
0.000588231
0.000496002
0.000429131
0.000378509
0.000338933
0.000306817
0.00027997
0.000257067
0.000237247
0.000219895
0.000204555
0.000190881
0.000178607
0.000167522
0.00015744
0.000148224
0.000139739
0.000131854
0.000124367
0.000814958
0.000730426
0.000654634
0.000589043
0.000533067
0.000485438
0.000444763
0.000409793
0.00037947
0.000352932
0.000329492
0.00030863
0.000289941
0.000273104
0.000257857
0.000243975
0.000231278
0.000219576
0.000208569
0.000197369
0.000826292
0.000764347
0.000706102
0.000651937
0.00060223
0.000557104
0.000516428
0.000479913
0.000447182
0.000417834
0.000391478
0.000367753
0.000346337
0.000326948
0.000309336
0.000293279
0.000278572
0.000264972
0.000252033
0.000238524
0.000828382
0.0007726
0.000721138
0.00067296
0.000627782
0.00058562
0.000546547
0.00051058
0.000477649
0.000447616
0.000420289
0.00039545
0.000372869
0.000352325
0.000333603
0.000316498
0.000300807
0.000286276
0.000272482
0.000258594
0.000828382
0.0007726
0.000721138
0.00067296
0.000627782
0.00058562
0.000546547
0.00051058
0.000477649
0.000447616
0.000420289
0.000395449
0.000372869
0.000352324
0.000333602
0.000316497
0.000300806
0.000286276
0.000272481
0.0002586
0.000826292
0.000764347
0.000706102
0.000651936
0.00060223
0.000557103
0.000516428
0.000479912
0.000447181
0.000417832
0.000391475
0.000367749
0.000346332
0.000326939
0.000309322
0.000293261
0.000278549
0.000264948
0.00025206
0.000238934
0.000814958
0.000730426
0.000654634
0.000589043
0.000533067
0.000485438
0.000444762
0.000409791
0.000379467
0.000352927
0.000329485
0.000308619
0.000289923
0.000273072
0.000257808
0.000243909
0.000231186
0.000219445
0.0002084
0.000197319
0.000728543
0.000588231
0.000496001
0.000429131
0.000378509
0.000338933
0.000306815
0.000279967
0.000257063
0.000237241
0.000219886
0.00020454
0.000190855
0.000178555
0.000167442
0.000157324
0.000148045
0.000139457
0.000131398
0.000123429
0.000218609
0.000155003
0.000118661
9.65068e-05
8.18822e-05
7.08353e-05
6.30852e-05
5.71429e-05
5.22475e-05
4.80949e-05
4.45803e-05
4.15687e-05
3.89473e-05
3.66509e-05
3.46265e-05
3.2831e-05
3.12276e-05
2.97853e-05
2.84826e-05
2.73381e-05
0.000218609
0.000155003
0.000118661
9.65068e-05
8.18822e-05
7.08353e-05
6.30852e-05
5.71429e-05
5.22475e-05
4.80949e-05
4.45803e-05
4.15687e-05
3.89472e-05
3.66509e-05
3.46267e-05
3.2831e-05
3.12275e-05
2.97851e-05
2.84821e-05
2.73385e-05
0.000728543
0.000588231
0.000496001
0.000429131
0.000378509
0.000338933
0.000306815
0.000279967
0.000257063
0.000237241
0.000219886
0.000204539
0.000190855
0.000178561
0.000167435
0.000157318
0.000148038
0.000139448
0.000131385
0.000123408
0.000814958
0.000730426
0.000654634
0.000589043
0.000533067
0.000485438
0.000444762
0.000409791
0.000379467
0.000352927
0.000329485
0.000308619
0.000289924
0.000273074
0.000257805
0.000243907
0.000231184
0.000219442
0.000208393
0.000197306
0.000826292
0.000764347
0.000706102
0.000651936
0.00060223
0.000557103
0.000516428
0.000479912
0.000447181
0.000417832
0.000391476
0.00036775
0.000346332
0.000326939
0.000309322
0.000293261
0.000278549
0.000264949
0.000252059
0.000238924
0.000828382
0.0007726
0.000721138
0.00067296
0.000627782
0.00058562
0.000546548
0.00051058
0.000477649
0.000447616
0.000420289
0.00039545
0.000372869
0.000352325
0.000333603
0.000316498
0.000300807
0.000286276
0.000272481
0.000258597
0.000828382
0.0007726
0.000721138
0.00067296
0.000627782
0.00058562
0.000546547
0.00051058
0.000477649
0.000447616
0.000420289
0.00039545
0.000372869
0.000352325
0.000333603
0.000316498
0.000300807
0.000286276
0.000272481
0.000258602
0.000826292
0.000764347
0.000706102
0.000651937
0.00060223
0.000557104
0.000516428
0.000479913
0.000447182
0.000417834
0.000391478
0.000367753
0.000346338
0.000326949
0.000309335
0.000293279
0.000278572
0.000264972
0.000252035
0.000238534
0.000814958
0.000730426
0.000654634
0.000589043
0.000533067
0.000485438
0.000444763
0.000409793
0.00037947
0.000352932
0.000329492
0.00030863
0.000289944
0.000273106
0.000257854
0.000243974
0.00023128
0.000219581
0.000208578
0.000197384
0.000728543
0.000588231
0.000496001
0.000429131
0.000378509
0.000338934
0.000306817
0.00027997
0.000257067
0.000237247
0.000219896
0.000204556
0.000190885
0.000178611
0.000167518
0.00015744
0.000148227
0.000139747
0.000131865
0.000124378
0.000218609
0.000155003
0.000118661
9.65068e-05
8.18822e-05
7.08354e-05
6.30853e-05
5.71431e-05
5.22478e-05
4.80953e-05
4.45811e-05
4.157e-05
3.89494e-05
3.66545e-05
3.46323e-05
3.28402e-05
3.12428e-05
2.98104e-05
2.85301e-05
2.75044e-05
0.000198681
0.0001383
0.000105187
8.55269e-05
7.25012e-05
6.289e-05
5.60609e-05
5.07589e-05
4.63874e-05
4.27209e-05
3.96237e-05
3.6953e-05
3.46296e-05
3.2597e-05
3.08087e-05
2.92269e-05
2.78192e-05
2.65591e-05
2.54342e-05
2.45555e-05
0.00071288
0.000556432
0.000466397
0.000402354
0.000354425
0.000317049
0.000286672
0.000261251
0.000239575
0.000220836
0.000204428
0.000189925
0.000177004
0.000165404
0.000154904
0.000145382
0.000136669
0.000128627
0.000121147
0.000114023
0.000809324
0.000713906
0.000631504
0.000562574
0.000505377
0.000457785
0.00041784
0.000383938
0.000354802
0.000329447
0.000307153
0.000287373
0.000269691
0.000253777
0.000239368
0.000226274
0.000214303
0.000203275
0.000192929
0.000182311
0.000823497
0.000753987
0.000688491
0.000628748
0.000575387
0.000528266
0.000486846
0.000450442
0.000418363
0.000389975
0.000364729
0.000342165
0.000321897
0.000303609
0.000287033
0.000271947
0.000258149
0.000245426
0.000233437
0.000221324
0.000826292
0.000764347
0.000706102
0.000651937
0.00060223
0.000557104
0.000516428
0.000479913
0.000447182
0.000417834
0.000391478
0.000367753
0.000346338
0.000326948
0.000309337
0.00029328
0.000278574
0.000264974
0.000252037
0.000238535
0.000826292
0.000764347
0.000706102
0.000651936
0.00060223
0.000557103
0.000516428
0.000479912
0.000447181
0.000417833
0.000391476
0.00036775
0.000346332
0.000326939
0.000309322
0.000293262
0.00027855
0.00026495
0.000252061
0.000238933
0.000823497
0.000753987
0.000688491
0.000628748
0.000575387
0.000528266
0.000486846
0.000450442
0.000418363
0.000389975
0.000364729
0.000342164
0.000321897
0.000303609
0.000287033
0.000271947
0.000258148
0.000245424
0.000233434
0.000221316
0.000809324
0.000713906
0.000631505
0.000562574
0.000505378
0.000457786
0.000417843
0.000383942
0.000354807
0.000329454
0.000307163
0.00028739
0.00026972
0.000253828
0.000239448
0.000226384
0.000214461
0.000203513
0.000193312
0.000183071
0.00071288
0.000556432
0.000466397
0.000402355
0.000354426
0.000317051
0.000286675
0.000261256
0.000239582
0.000220847
0.000204446
0.000189955
0.000177058
0.000165501
0.000155062
0.000145612
0.000137026
0.000129192
0.000122037
0.000115854
0.000198681
0.0001383
0.000105187
8.55269e-05
7.25012e-05
6.28901e-05
5.60611e-05
5.07593e-05
4.6388e-05
4.27217e-05
3.96252e-05
3.69553e-05
3.46334e-05
3.26035e-05
3.08192e-05
2.92434e-05
2.78458e-05
2.66022e-05
2.54984e-05
2.45878e-05
0.000160509
0.00010736
8.07408e-05
6.55975e-05
5.54896e-05
4.83025e-05
4.3131e-05
3.9079e-05
3.57391e-05
3.29494e-05
3.05778e-05
2.85348e-05
2.67739e-05
2.52459e-05
2.39078e-05
2.27289e-05
2.16882e-05
2.07677e-05
1.99612e-05
1.92681e-05
0.000663952
0.000488458
0.000404619
0.000347248
0.000305035
0.000272127
0.000245318
0.000222887
0.000203754
0.000187177
0.00017265
0.000159808
0.000148362
0.000138099
0.000128843
0.000120599
0.000113156
0.000106322
0.000100368
9.43762e-05
0.000786828
0.000662293
0.000567974
0.000495805
0.000439464
0.000394563
0.000357975
0.000327453
0.000301492
0.000279054
0.000259403
0.000242011
0.000226485
0.000212529
0.000199914
0.000188472
0.000178052
0.000168506
0.000159688
0.00014998
0.000809324
0.000713906
0.000631505
0.000562574
0.000505378
0.000457786
0.000417843
0.000383942
0.000354807
0.000329455
0.000307164
0.000287391
0.000269719
0.000253826
0.000239454
0.000226389
0.000214466
0.000203519
0.000193321
0.000183086
0.000814958
0.000730426
0.000654634
0.000589044
0.000533067
0.000485438
0.000444763
0.000409793
0.00037947
0.000352932
0.000329492
0.00030863
0.000289941
0.000273105
0.000257858
0.000243978
0.000231283
0.000219583
0.000208581
0.000197384
0.000814958
0.000730426
0.000654634
0.000589043
0.000533067
0.000485437
0.000444762
0.000409791
0.000379467
0.000352927
0.000329485
0.000308619
0.000289923
0.000273072
0.000257806
0.000243909
0.000231186
0.000219444
0.000208397
0.00019731
0.000809324
0.000713906
0.000631504
0.000562574
0.000505377
0.000457785
0.00041784
0.000383938
0.000354802
0.000329447
0.000307152
0.000287373
0.000269688
0.000253772
0.000239374
0.000226277
0.000214303
0.000203274
0.000192925
0.0001823
0.000786828
0.000662293
0.000567974
0.000495805
0.000439464
0.000394562
0.000357975
0.000327453
0.000301492
0.000279053
0.000259402
0.00024201
0.000226483
0.000212528
0.000199913
0.00018847
0.000178048
0.0001685
0.000159676
0.000149956
0.000663952
0.000488459
0.000404619
0.000347248
0.000305036
0.000272128
0.00024532
0.000222891
0.000203759
0.000187185
0.000172663
0.000159829
0.000148398
0.000138168
0.000128949
0.000120753
0.000113402
0.000106728
0.000101095
9.46883e-05
0.000160509
0.00010736
8.07409e-05
6.55976e-05
5.54896e-05
4.83026e-05
4.31311e-05
3.90793e-05
3.57395e-05
3.29502e-05
3.05789e-05
2.85366e-05
2.67768e-05
2.52507e-05
2.39158e-05
2.27417e-05
2.17087e-05
2.0801e-05
2.00116e-05
1.93575e-05
0.000107685
6.77183e-05
5.06311e-05
4.14159e-05
3.54049e-05
3.10367e-05
2.77138e-05
2.50818e-05
2.29337e-05
2.1151e-05
1.96511e-05
1.83721e-05
1.72646e-05
1.62953e-05
1.54528e-05
1.47276e-05
1.40978e-05
1.3553e-05
1.31144e-05
1.28077e-05
0.000528907
0.000369984
0.000305097
0.000261371
0.000228528
0.000202476
0.000181114
0.000163074
0.00014754
0.000133984
0.00012205
0.000111468
0.000102137
9.38648e-05
8.64796e-05
7.96912e-05
7.35136e-05
6.79697e-05
6.37754e-05
5.53196e-05
0.000663952
0.000488459
0.000404619
0.000347248
0.000305036
0.000272128
0.00024532
0.000222892
0.00020376
0.000187185
0.000172664
0.000159829
0.000148398
0.000138159
0.000128961
0.000120761
0.000113408
0.000106733
0.000101111
9.46911e-05
0.00071288
0.000556432
0.000466397
0.000402355
0.000354426
0.00031705
0.000286675
0.000261257
0.000239583
0.000220847
0.000204446
0.000189955
0.000177055
0.000165492
0.000155074
0.00014562
0.000137031
0.000129195
0.000122039
0.000115859
0.000728543
0.000588231
0.000496002
0.000429131
0.000378509
0.000338933
0.000306816
0.00027997
0.000257067
0.000237247
0.000219895
0.000204555
0.000190881
0.000178607
0.000167523
0.000157441
0.000148225
0.000139741
0.000131857
0.000124369
0.000728543
0.000588231
0.000496001
0.000429131
0.000378509
0.000338933
0.000306815
0.000279968
0.000257064
0.000237241
0.000219886
0.000204539
0.000190854
0.000178558
0.000167435
0.000157319
0.000148039
0.000139449
0.000131386
0.000123411
0.00071288
0.000556432
0.000466397
0.000402354
0.000354425
0.000317049
0.000286672
0.000261251
0.000239576
0.000220836
0.000204428
0.000189925
0.000177002
0.000165393
0.000154913
0.000145388
0.000136673
0.00012863
0.000121151
0.000114028
0.000663952
0.000488458
0.000404619
0.000347248
0.000305035
0.000272127
0.000245318
0.000222888
0.000203754
0.000187177
0.00017265
0.000159807
0.000148361
0.000138094
0.000128849
0.000120603
0.000113159
0.000106324
0.00010037
9.43763e-05
0.000528907
0.000369984
0.000305097
0.000261371
0.000228528
0.000202476
0.000181114
0.000163074
0.000147539
0.000133984
0.00012205
0.000111467
0.000102136
9.38705e-05
8.64739e-05
7.9687e-05
7.35096e-05
6.79657e-05
6.37702e-05
5.53151e-05
0.000107685
6.77183e-05
5.06311e-05
4.14159e-05
3.54049e-05
3.10367e-05
2.77138e-05
2.50818e-05
2.29337e-05
2.11511e-05
1.96514e-05
1.83726e-05
1.72655e-05
1.62973e-05
1.54562e-05
1.47328e-05
1.41067e-05
1.35697e-05
1.31457e-05
1.28545e-05
4.5356e-05
2.3208e-05
1.65396e-05
1.36494e-05
1.18966e-05
1.06844e-05
9.7608e-06
9.05717e-06
8.49484e-06
8.03155e-06
7.64092e-06
7.31286e-06
7.02575e-06
6.7628e-06
6.53257e-06
6.33411e-06
6.16366e-06
6.02213e-06
5.93934e-06
5.85334e-06
0.000107685
6.77183e-05
5.06311e-05
4.14159e-05
3.54049e-05
3.10368e-05
2.77138e-05
2.50818e-05
2.29337e-05
2.11511e-05
1.96514e-05
1.83727e-05
1.72655e-05
1.62974e-05
1.54562e-05
1.47329e-05
1.41069e-05
1.357e-05
1.3146e-05
1.2855e-05
0.000160509
0.00010736
8.07409e-05
6.55976e-05
5.54896e-05
4.83026e-05
4.31311e-05
3.90793e-05
3.57395e-05
3.29502e-05
3.05789e-05
2.85366e-05
2.67768e-05
2.52506e-05
2.3916e-05
2.27418e-05
2.1709e-05
2.08014e-05
2.0012e-05
1.9358e-05
0.000198681
0.0001383
0.000105187
8.55269e-05
7.25012e-05
6.28901e-05
5.60611e-05
5.07593e-05
4.6388e-05
4.27217e-05
3.96252e-05
3.69553e-05
3.46333e-05
3.26033e-05
3.08194e-05
2.92437e-05
2.78461e-05
2.66025e-05
2.54988e-05
2.45904e-05
0.000218609
0.000155003
0.000118661
9.65068e-05
8.18822e-05
7.08354e-05
6.30853e-05
5.71431e-05
5.22478e-05
4.80954e-05
4.45812e-05
4.15699e-05
3.89493e-05
3.66543e-05
3.46326e-05
3.28404e-05
3.12428e-05
2.98104e-05
2.85298e-05
2.75036e-05
0.000218609
0.000155003
0.000118661
9.65068e-05
8.18822e-05
7.08353e-05
6.30852e-05
5.71429e-05
5.22475e-05
4.80949e-05
4.45803e-05
4.15687e-05
3.89472e-05
3.66508e-05
3.46266e-05
3.28309e-05
3.12274e-05
2.9785e-05
2.8482e-05
2.73376e-05
0.000198681
0.0001383
0.000105187
8.55269e-05
7.25012e-05
6.289e-05
5.60609e-05
5.07589e-05
4.63875e-05
4.27209e-05
3.96237e-05
3.6953e-05
3.46295e-05
3.25969e-05
3.08088e-05
2.9227e-05
2.78193e-05
2.65592e-05
2.54343e-05
2.45555e-05
0.000160509
0.00010736
8.07408e-05
6.55975e-05
5.54896e-05
4.83025e-05
4.3131e-05
3.9079e-05
3.57391e-05
3.29494e-05
3.05778e-05
2.85347e-05
2.67738e-05
2.52457e-05
2.39078e-05
2.27291e-05
2.16884e-05
2.07678e-05
1.99613e-05
1.92681e-05
0.000107685
6.77183e-05
5.06311e-05
4.14159e-05
3.54049e-05
3.10367e-05
2.77138e-05
2.50818e-05
2.29337e-05
2.1151e-05
1.96511e-05
1.83721e-05
1.72646e-05
1.62951e-05
1.54529e-05
1.47277e-05
1.40977e-05
1.3553e-05
1.31144e-05
1.28076e-05
4.5356e-05
2.3208e-05
1.65396e-05
1.36494e-05
1.18966e-05
1.06844e-05
9.76079e-06
9.05717e-06
8.49485e-06
8.03154e-06
7.64093e-06
7.31287e-06
7.02572e-06
6.76272e-06
6.53266e-06
6.3341e-06
6.16363e-06
6.02212e-06
5.93934e-06
5.85331e-06
5.74946e-06
5.29234e-06
4.88385e-06
4.62603e-06
4.46844e-06
4.36467e-06
4.28263e-06
4.21235e-06
4.15183e-06
4.09918e-06
4.05459e-06
4.01371e-06
3.97457e-06
3.93699e-06
3.89979e-06
3.86682e-06
3.83352e-06
3.8029e-06
3.77252e-06
3.74373e-06
3.71585e-06
3.68798e-06
3.66201e-06
3.63731e-06
3.61291e-06
3.5893e-06
3.56618e-06
3.54388e-06
3.52161e-06
3.50051e-06
3.47911e-06
3.45862e-06
3.43904e-06
3.41971e-06
3.40239e-06
3.38352e-06
3.36637e-06
3.34978e-06
3.33626e-06
3.31159e-06
1.13696e-05
1.06108e-05
1.003e-05
9.58364e-06
9.26811e-06
9.03091e-06
8.83696e-06
8.65906e-06
8.50831e-06
8.37387e-06
8.25293e-06
8.14359e-06
8.04774e-06
7.95295e-06
7.85883e-06
7.77558e-06
7.69426e-06
7.6208e-06
7.5501e-06
7.4825e-06
7.41877e-06
7.35558e-06
7.29634e-06
7.24115e-06
7.18827e-06
7.13761e-06
7.08816e-06
7.03997e-06
6.99286e-06
6.9468e-06
6.90181e-06
6.85769e-06
6.81462e-06
6.77371e-06
6.73382e-06
6.69584e-06
6.65803e-06
6.62163e-06
6.58779e-06
6.54962e-06
1.6406e-05
1.55746e-05
1.48846e-05
1.43326e-05
1.38773e-05
1.35132e-05
1.31933e-05
1.29086e-05
1.2654e-05
1.2424e-05
1.2215e-05
1.20272e-05
1.18674e-05
1.16978e-05
1.15402e-05
1.14005e-05
1.12673e-05
1.11482e-05
1.10318e-05
1.09186e-05
1.08129e-05
1.07021e-05
1.06002e-05
1.05047e-05
1.04181e-05
1.03351e-05
1.0254e-05
1.0175e-05
1.00983e-05
1.00226e-05
9.94986e-06
9.87938e-06
9.81129e-06
9.74404e-06
9.67841e-06
9.61803e-06
9.55923e-06
9.50148e-06
9.44602e-06
9.38411e-06
2.00082e-05
1.92975e-05
1.86592e-05
1.80849e-05
1.75694e-05
1.71043e-05
1.66829e-05
1.63007e-05
1.59525e-05
1.56341e-05
1.53417e-05
1.50747e-05
1.48369e-05
1.46065e-05
1.43909e-05
1.41908e-05
1.4003e-05
1.38389e-05
1.3662e-05
1.34919e-05
1.33402e-05
1.31963e-05
1.30584e-05
1.29238e-05
1.27971e-05
1.26762e-05
1.25622e-05
1.24516e-05
1.23478e-05
1.22443e-05
1.21457e-05
1.20438e-05
1.19576e-05
1.18595e-05
1.17844e-05
1.16915e-05
1.16199e-05
1.15406e-05
1.14689e-05
1.13933e-05
2.28774e-05
2.19437e-05
2.11493e-05
2.04637e-05
1.98599e-05
1.93252e-05
1.88465e-05
1.84121e-05
1.8013e-05
1.76447e-05
1.73038e-05
1.6989e-05
1.67009e-05
1.64244e-05
1.61667e-05
1.59263e-05
1.57044e-05
1.54944e-05
1.52962e-05
1.51097e-05
1.49352e-05
1.477e-05
1.45955e-05
1.44329e-05
1.42803e-05
1.4136e-05
1.3999e-05
1.38678e-05
1.3746e-05
1.36252e-05
1.35096e-05
1.33953e-05
1.32932e-05
1.31766e-05
1.30949e-05
1.29807e-05
1.28941e-05
1.2805e-05
1.27229e-05
1.2644e-05
2.44131e-05
2.30667e-05
2.20709e-05
2.12886e-05
2.06196e-05
2.00364e-05
1.95205e-05
1.906e-05
1.86396e-05
1.82506e-05
1.78899e-05
1.75553e-05
1.72461e-05
1.69549e-05
1.66836e-05
1.643e-05
1.61925e-05
1.59695e-05
1.5761e-05
1.55668e-05
1.53834e-05
1.52107e-05
1.50443e-05
1.48959e-05
1.47319e-05
1.45689e-05
1.44186e-05
1.42791e-05
1.4153e-05
1.40276e-05
1.39117e-05
1.37944e-05
1.37145e-05
1.35227e-05
1.35263e-05
1.33394e-05
1.32817e-05
1.31864e-05
1.30992e-05
1.30179e-05
2.31813e-05
2.18901e-05
2.10297e-05
2.03125e-05
1.9688e-05
1.91364e-05
1.86456e-05
1.82039e-05
1.77985e-05
1.74244e-05
1.70791e-05
1.67605e-05
1.64668e-05
1.61913e-05
1.59348e-05
1.56952e-05
1.54709e-05
1.52613e-05
1.5065e-05
1.48822e-05
1.47119e-05
1.45518e-05
1.43943e-05
1.42539e-05
1.41007e-05
1.3949e-05
1.38096e-05
1.36812e-05
1.3563e-05
1.34432e-05
1.33309e-05
1.32206e-05
1.31368e-05
1.29823e-05
1.29282e-05
1.28174e-05
1.27328e-05
1.26488e-05
1.25666e-05
1.24877e-05
1.98124e-05
1.90209e-05
1.83458e-05
1.77358e-05
1.72004e-05
1.67295e-05
1.63092e-05
1.5927e-05
1.55786e-05
1.52599e-05
1.49671e-05
1.46994e-05
1.44541e-05
1.42245e-05
1.40115e-05
1.38125e-05
1.36267e-05
1.34558e-05
1.32955e-05
1.3144e-05
1.30016e-05
1.28673e-05
1.2725e-05
1.2601e-05
1.24768e-05
1.23609e-05
1.22475e-05
1.21413e-05
1.2037e-05
1.19289e-05
1.18275e-05
1.17349e-05
1.16512e-05
1.15671e-05
1.14856e-05
1.14057e-05
1.13251e-05
1.12497e-05
1.11779e-05
1.11087e-05
1.57911e-05
1.50355e-05
1.44378e-05
1.39164e-05
1.34728e-05
1.31051e-05
1.27937e-05
1.25137e-05
1.22648e-05
1.2039e-05
1.1834e-05
1.16512e-05
1.14816e-05
1.13214e-05
1.11776e-05
1.10292e-05
1.08904e-05
1.07605e-05
1.06453e-05
1.05306e-05
1.04253e-05
1.03225e-05
1.02221e-05
1.01317e-05
1.00376e-05
9.94999e-06
9.86615e-06
9.78624e-06
9.70962e-06
9.63597e-06
9.56681e-06
9.50112e-06
9.43595e-06
9.37276e-06
9.31225e-06
9.25485e-06
9.19331e-06
9.13707e-06
9.08618e-06
9.03471e-06
1.12396e-05
1.04929e-05
9.86879e-06
9.38044e-06
9.04138e-06
8.80383e-06
8.62524e-06
8.45796e-06
8.32215e-06
8.19754e-06
8.08156e-06
7.99035e-06
7.88523e-06
7.78312e-06
7.69112e-06
7.60482e-06
7.52256e-06
7.44455e-06
7.37069e-06
7.30064e-06
7.23394e-06
7.1703e-06
7.11104e-06
7.05709e-06
7.00293e-06
6.95123e-06
6.90056e-06
6.85196e-06
6.80468e-06
6.75965e-06
6.71556e-06
6.67246e-06
6.63062e-06
6.59068e-06
6.55107e-06
6.51667e-06
6.48267e-06
6.44882e-06
6.41776e-06
6.38369e-06
5.74904e-06
5.29271e-06
4.88356e-06
4.62386e-06
4.46125e-06
4.35521e-06
4.27607e-06
4.20721e-06
4.14932e-06
4.09892e-06
4.05365e-06
4.01519e-06
3.9743e-06
3.93603e-06
3.89945e-06
3.86585e-06
3.83301e-06
3.80201e-06
3.77188e-06
3.74349e-06
3.71528e-06
3.68815e-06
3.66188e-06
3.63785e-06
3.61327e-06
3.59011e-06
3.56691e-06
3.54462e-06
3.52223e-06
3.50084e-06
3.4793e-06
3.45873e-06
3.43886e-06
3.41941e-06
3.40068e-06
3.38326e-06
3.36727e-06
3.3501e-06
3.33609e-06
3.31069e-06
1.12381e-05
1.04936e-05
9.86722e-06
9.38129e-06
9.05394e-06
8.82781e-06