/*--------------------------------*- C++ -*----------------------------------*\
| =========                 |                                                 |
| \\      /  F ield         | OpenFOAM: The Open Source CFD Toolbox           |
|  \\    /   O peration     | Version:  2212                                  |
|   \\  /    A nd           | Website:  www.openfoam.com                      |
|    \\/     M anipulation  |                                                 |
\*---------------------------------------------------------------------------*/
FoamFile
{
    version     2.0;
    format      ascii;
    arch        "LSB;label=32;scalar=64";
    class       volScalarField;
    location    "2.2";
    object      p;
}
// * * * * * * * * * * * * * * * * * * * * * * * * * * * * * * * * * * * * * //

dimensions      [0 2 -2 0 0 0 0];

internalField   nonuniform List<scalar> 
6840
(
0.0179288
0.0108144
0.00852292
0.00798508
0.0077107
0.00748846
0.00730176
0.00713522
0.0069739
0.00681418
0.00665609
0.00649934
0.00634258
0.00618435
0.00602416
0.00586048
0.00569209
0.00551047
0.00526425
0.0047758
0.01075
0.0100162
0.00892325
0.00825727
0.00785467
0.00758092
0.00736971
0.00718344
0.00700896
0.00684151
0.00667854
0.00651826
0.00635908
0.00620012
0.00604091
0.00588061
0.0057147
0.00553394
0.00530994
0.00495938
0.0104018
0.00955026
0.00878599
0.00822685
0.00785071
0.00758272
0.00736711
0.00717428
0.00699598
0.00682766
0.0066645
0.00650435
0.00634677
0.00619159
0.00603836
0.0058863
0.00573426
0.00558272
0.00543905
0.00532118
0.00999252
0.00922979
0.00861103
0.00815972
0.00781578
0.00754682
0.00732733
0.00713875
0.00697125
0.00681435
0.00665954
0.00650563
0.00635368
0.00620493
0.00606105
0.00592493
0.00580072
0.00569365
0.00561721
0.0055865
0.00985831
0.00911713
0.00852897
0.00812087
0.00779896
0.00753231
0.00731089
0.00712043
0.00695
0.00679383
0.00664483
0.00649643
0.00634822
0.00620278
0.00606356
0.00593477
0.00582245
0.00573484
0.0056889
0.00571499
0.00985831
0.00911712
0.00852895
0.00812083
0.00779891
0.00753222
0.00731075
0.0071202
0.00694959
0.00679315
0.00664369
0.00649448
0.00634496
0.00619738
0.00605427
0.00591824
0.00579357
0.0056853
0.0056037
0.00556542
0.00999249
0.00922975
0.00861098
0.00815966
0.00781569
0.00754666
0.00732703
0.00713821
0.00697034
0.00681282
0.006657
0.00650144
0.00634685
0.00619375
0.0060423
0.00589273
0.00574579
0.00560339
0.00547133
0.00536151
0.0104017
0.00955023
0.00878595
0.0082268
0.00785062
0.00758254
0.00736681
0.00717376
0.00699513
0.00682622
0.00666208
0.00650039
0.00634043
0.00618146
0.00602202
0.00585994
0.00569141
0.00551182
0.00531928
0.00510287
0.01075
0.0100161
0.00892324
0.00825726
0.00785464
0.00758085
0.00736958
0.00718322
0.00700856
0.00684083
0.00667742
0.00651643
0.00635589
0.00619446
0.00603157
0.00586573
0.00569181
0.00549525
0.00523433
0.00478874
0.0179288
0.0108144
0.00852292
0.00798508
0.0077107
0.00748847
0.00730176
0.00713523
0.00697391
0.00681419
0.0066561
0.00649936
0.0063426
0.00618438
0.00602421
0.00586052
0.00569212
0.0055105
0.00526427
0.00477581
0.01075
0.0100161
0.00892323
0.00825725
0.00785463
0.00758084
0.00736958
0.00718321
0.00700856
0.00684082
0.00667741
0.00651641
0.00635587
0.00619442
0.00603151
0.00586568
0.00569177
0.00549521
0.00523429
0.00478871
0.0100334
0.0100017
0.00927346
0.00856294
0.00811656
0.00780056
0.00754158
0.00731379
0.00710899
0.00692025
0.00674195
0.00657017
0.00640161
0.00623413
0.00606626
0.0058955
0.00571834
0.00553075
0.00534931
0.00524942
0.00910796
0.00923415
0.00893127
0.00851504
0.00814789
0.00782926
0.00755071
0.00731027
0.00709771
0.00690313
0.00671972
0.00654417
0.00637441
0.00620856
0.00604469
0.00588103
0.00571555
0.00554589
0.0053718
0.00520083
0.00868963
0.00873314
0.00856759
0.00830468
0.00802434
0.00775305
0.00750215
0.00727596
0.00707323
0.00688722
0.00671112
0.00654191
0.00637808
0.00621875
0.00606428
0.00591542
0.00577306
0.00563927
0.00552368
0.00544401
0.00847367
0.0084955
0.00836832
0.00815085
0.00791849
0.00768942
0.00746676
0.00725386
0.0070535
0.00686693
0.0066918
0.0065251
0.00636538
0.00621112
0.00606247
0.00592179
0.00579051
0.00566913
0.00555984
0.00545964
0.00847364
0.00849548
0.00836828
0.00815078
0.00791838
0.00768927
0.00746653
0.0072535
0.00705297
0.00686603
0.00669023
0.00652239
0.00636103
0.00620474
0.00605288
0.00590659
0.00576707
0.00563499
0.00551329
0.00539961
0.00868958
0.00873308
0.00856751
0.00830457
0.00802418
0.00775283
0.00750181
0.0072754
0.00707228
0.00688549
0.00670802
0.00653681
0.00637049
0.00620762
0.00604682
0.00588712
0.00572815
0.00557054
0.00541671
0.00526382
0.00910794
0.00923412
0.00893122
0.00851498
0.00814781
0.00782913
0.00755048
0.00730985
0.00709696
0.00690191
0.00671782
0.00654127
0.00636994
0.00620155
0.00603396
0.00586505
0.00569308
0.0055176
0.00534557
0.00519437
0.0100334
0.0100017
0.00927346
0.00856294
0.00811657
0.00780057
0.00754159
0.0073138
0.007109
0.00692025
0.00674196
0.00657019
0.00640163
0.00623415
0.0060663
0.00589553
0.00571838
0.00553079
0.00534934
0.00524943
0.01075
0.0100162
0.00892325
0.00825727
0.00785467
0.00758092
0.00736971
0.00718344
0.00700896
0.00684151
0.00667854
0.00651827
0.00635909
0.00620014
0.00604094
0.00588064
0.00571472
0.00553395
0.00530993
0.00495932
0.0104017
0.00955022
0.00878595
0.0082268
0.00785061
0.00758254
0.0073668
0.00717375
0.00699512
0.00682621
0.00666207
0.00650038
0.00634041
0.00618143
0.00602198
0.0058599
0.00569137
0.00551178
0.00531923
0.00510283
0.00910793
0.00923411
0.00893121
0.00851498
0.00814781
0.00782912
0.00755047
0.00730984
0.00709695
0.0069019
0.00671781
0.00654125
0.00636992
0.00620153
0.00603395
0.00586503
0.00569305
0.00551759
0.00534556
0.00519439
0.00853845
0.00863943
0.00852787
0.00830238
0.00804661
0.00778818
0.00752974
0.00728804
0.00707001
0.00686951
0.00668153
0.00650282
0.0063306
0.00616259
0.00599714
0.00583298
0.00566944
0.00550859
0.00535847
0.00521942
0.00817051
0.00823858
0.00818621
0.00803927
0.00785443
0.00764932
0.0074387
0.00723189
0.00703089
0.00683866
0.00665639
0.00648224
0.00631423
0.00615114
0.00599222
0.00583674
0.00568399
0.00553411
0.00538904
0.00524264
0.00798747
0.00805191
0.00802246
0.00789765
0.00773871
0.00756512
0.00737892
0.00719105
0.00700513
0.00682202
0.00664327
0.00646992
0.00630239
0.00614085
0.00598546
0.00583558
0.00568905
0.00554389
0.00539928
0.00524469
0.00798745
0.00805189
0.00802243
0.00789758
0.00773858
0.00756494
0.00737871
0.00719076
0.0070047
0.00682135
0.00664227
0.00646844
0.0063003
0.00613777
0.00598083
0.00582883
0.0056799
0.00553291
0.00538924
0.00524118
0.00817047
0.00823854
0.00818616
0.00803917
0.00785427
0.00764913
0.00743846
0.00723153
0.00703034
0.00683776
0.0066549
0.00647989
0.00631067
0.00614575
0.00598394
0.00582415
0.00566532
0.00550725
0.00535143
0.00519205
0.00853846
0.00863944
0.00852787
0.00830238
0.00804661
0.00778819
0.00752975
0.00728804
0.00707002
0.00686952
0.00668154
0.00650283
0.00633061
0.0061626
0.00599714
0.00583299
0.00566945
0.00550859
0.00535845
0.0052194
0.00910796
0.00923415
0.00893127
0.00851505
0.0081479
0.00782926
0.00755071
0.00731027
0.00709771
0.00690314
0.00671973
0.00654418
0.00637442
0.00620858
0.0060447
0.00588105
0.00571557
0.0055459
0.0053718
0.00520081
0.0104018
0.00955026
0.00878599
0.00822685
0.00785071
0.00758272
0.00736711
0.00717428
0.00699598
0.00682767
0.00666451
0.00650436
0.00634678
0.0061916
0.00603837
0.00588631
0.00573426
0.0055827
0.00543898
0.00532102
0.00999248
0.00922975
0.00861098
0.00815965
0.00781568
0.00754665
0.00732703
0.0071382
0.00697033
0.00681281
0.00665699
0.00650143
0.00634684
0.00619373
0.00604227
0.0058927
0.00574575
0.00560334
0.00547126
0.00536139
0.00868957
0.00873308
0.0085675
0.00830456
0.00802417
0.00775282
0.0075018
0.00727539
0.00707227
0.00688548
0.00670801
0.00653679
0.00637047
0.00620762
0.00604681
0.0058871
0.00572813
0.00557052
0.0054167
0.0052638
0.00817047
0.00823853
0.00818615
0.00803916
0.00785427
0.00764913
0.00743846
0.00723153
0.00703033
0.00683775
0.00665489
0.00647988
0.00631066
0.00614575
0.00598394
0.00582414
0.0056653
0.00550723
0.00535141
0.00519201
0.0078726
0.00793174
0.00791981
0.00782442
0.0076848
0.00751932
0.00733912
0.00715464
0.00697063
0.00679022
0.00661501
0.00644484
0.00627905
0.00611704
0.0059582
0.0058017
0.00564656
0.00549239
0.00533984
0.00518002
0.00772151
0.00778441
0.00778817
0.00771453
0.00759443
0.00744808
0.00728523
0.00711386
0.00693976
0.00676624
0.00659514
0.00642734
0.00626319
0.00610271
0.00594569
0.00579139
0.0056386
0.00548702
0.00533763
0.00518033
0.0077215
0.0077844
0.00778816
0.00771451
0.0075944
0.00744803
0.00728515
0.00711374
0.00693961
0.00676604
0.00659487
0.006427
0.00626273
0.00610204
0.00594477
0.00579029
0.00563761
0.00548668
0.00533926
0.00518588
0.0078726
0.00793175
0.00791981
0.00782442
0.00768481
0.00751932
0.00733913
0.00715464
0.00697064
0.00679022
0.00661502
0.00644484
0.00627906
0.00611705
0.00595822
0.00580172
0.00564659
0.00549243
0.0053399
0.00518011
0.00817051
0.00823858
0.00818622
0.00803927
0.00785443
0.00764933
0.0074387
0.0072319
0.0070309
0.00683866
0.0066564
0.00648225
0.00631424
0.00615115
0.00599224
0.00583676
0.00568401
0.00553415
0.00538909
0.00524271
0.00868963
0.00873314
0.00856759
0.00830468
0.00802434
0.00775305
0.00750216
0.00727596
0.00707324
0.00688723
0.00671112
0.00654192
0.00637809
0.00621877
0.0060643
0.00591544
0.00577308
0.0056393
0.00552371
0.00544408
0.00999252
0.00922979
0.00861103
0.00815972
0.00781578
0.00754682
0.00732733
0.00713875
0.00697126
0.00681435
0.00665954
0.00650563
0.00635369
0.00620493
0.00606105
0.00592493
0.0058007
0.0056936
0.0056171
0.00558628
0.0098583
0.00911712
0.00852894
0.00812083
0.0077989
0.00753222
0.00731074
0.00712019
0.00694959
0.00679314
0.00664368
0.00649447
0.00634495
0.00619736
0.00605424
0.0059182
0.00579351
0.00568522
0.00560357
0.0055652
0.00847364
0.00849547
0.00836828
0.00815077
0.00791837
0.00768926
0.00746652
0.00725349
0.00705296
0.00686602
0.00669022
0.00652237
0.00636101
0.00620473
0.00605286
0.00590657
0.00576704
0.00563496
0.00551327
0.00539962
0.00798745
0.00805189
0.00802243
0.00789758
0.00773857
0.00756493
0.0073787
0.00719075
0.00700469
0.00682134
0.00664226
0.00646843
0.00630029
0.00613776
0.00598082
0.00582882
0.00567989
0.00553291
0.00538925
0.00524122
0.0077215
0.00778439
0.00778815
0.00771451
0.0075944
0.00744802
0.00728515
0.00711374
0.0069396
0.00676603
0.00659487
0.00642699
0.00626272
0.00610203
0.00594476
0.00579028
0.00563759
0.00548667
0.00533924
0.00518586
0.00757871
0.00764823
0.00767036
0.00761782
0.00751658
0.00738566
0.00723575
0.00707477
0.00690827
0.00673992
0.00657209
0.0064062
0.00624299
0.00608275
0.00592543
0.00577033
0.00561634
0.00546286
0.00531028
0.00514914
0.00757871
0.00764823
0.00767036
0.00761782
0.00751658
0.00738566
0.00723575
0.00707477
0.00690827
0.00673993
0.0065721
0.0064062
0.00624299
0.00608276
0.00592543
0.00577034
0.00561636
0.00546287
0.0053103
0.00514915
0.00772151
0.00778441
0.00778818
0.00771454
0.00759444
0.00744808
0.00728523
0.00711386
0.00693976
0.00676624
0.00659514
0.00642735
0.0062632
0.00610272
0.00594571
0.00579142
0.00563864
0.00548707
0.00533771
0.00518042
0.00798747
0.00805191
0.00802246
0.00789765
0.00773872
0.00756512
0.00737893
0.00719106
0.00700513
0.00682202
0.00664327
0.00646993
0.0063024
0.00614087
0.00598548
0.00583561
0.0056891
0.00554397
0.00539942
0.00524494
0.00847367
0.0084955
0.00836832
0.00815085
0.00791849
0.00768942
0.00746676
0.00725386
0.0070535
0.00686693
0.0066918
0.00652511
0.00636539
0.00621113
0.00606249
0.00592181
0.00579055
0.00566921
0.00556
0.00546001
0.00985831
0.00911713
0.00852897
0.00812087
0.00779896
0.00753231
0.00731089
0.00712044
0.00695
0.00679383
0.00664484
0.00649643
0.00634822
0.00620278
0.00606356
0.00593475
0.00582242
0.00573476
0.00568875
0.00571469
0.00985831
0.00911713
0.00852896
0.00812086
0.00779896
0.0075323
0.00731088
0.00712043
0.00694999
0.00679381
0.00664482
0.00649641
0.0063482
0.00620276
0.00606353
0.00593472
0.00582237
0.00573472
0.0056887
0.00571466
0.00847366
0.0084955
0.00836831
0.00815085
0.00791848
0.00768941
0.00746675
0.00725385
0.00705349
0.00686692
0.00669178
0.00652508
0.00636536
0.0062111
0.00606244
0.00592176
0.00579048
0.00566911
0.00555986
0.00545979
0.00798747
0.0080519
0.00802245
0.00789765
0.00773871
0.00756511
0.00737892
0.00719105
0.00700512
0.00682201
0.00664326
0.00646991
0.00630238
0.00614084
0.00598544
0.00583556
0.00568905
0.0055439
0.00539933
0.00524482
0.00772151
0.00778441
0.00778817
0.00771453
0.00759443
0.00744807
0.00728523
0.00711385
0.00693976
0.00676624
0.00659513
0.00642734
0.00626318
0.0061027
0.00594568
0.00579139
0.0056386
0.00548702
0.00533764
0.00518035
0.00757871
0.00764823
0.00767036
0.00761782
0.00751658
0.00738566
0.00723575
0.00707477
0.00690827
0.00673992
0.00657209
0.0064062
0.00624299
0.00608275
0.00592543
0.00577033
0.00561635
0.00546286
0.00531029
0.00514915
0.00757871
0.00764823
0.00767036
0.00761782
0.00751658
0.00738566
0.00723575
0.00707477
0.00690827
0.00673993
0.0065721
0.0064062
0.00624299
0.00608276
0.00592544
0.00577034
0.00561636
0.00546288
0.00531031
0.00514918
0.0077215
0.0077844
0.00778816
0.00771451
0.0075944
0.00744803
0.00728515
0.00711374
0.00693961
0.00676604
0.00659488
0.006427
0.00626273
0.00610205
0.00594478
0.0057903
0.00563763
0.00548672
0.00533931
0.00518595
0.00798745
0.00805189
0.00802243
0.00789758
0.00773858
0.00756494
0.00737871
0.00719076
0.0070047
0.00682136
0.00664227
0.00646845
0.00630031
0.00613778
0.00598084
0.00582885
0.00567994
0.00553299
0.00538939
0.00524143
0.00847364
0.00849547
0.00836828
0.00815078
0.00791838
0.00768927
0.00746653
0.0072535
0.00705297
0.00686604
0.00669023
0.00652239
0.00636103
0.00620475
0.00605288
0.0059066
0.00576709
0.00563504
0.00551344
0.00539996
0.00985831
0.00911712
0.00852895
0.00812084
0.00779891
0.00753223
0.00731075
0.0071202
0.0069496
0.00679315
0.00664369
0.00649449
0.00634496
0.00619738
0.00605425
0.0059182
0.00579351
0.00568519
0.00560351
0.00556507
0.00999251
0.00922978
0.00861102
0.00815972
0.00781578
0.00754682
0.00732732
0.00713873
0.00697124
0.00681434
0.00665952
0.00650561
0.00635365
0.0062049
0.006061
0.00592486
0.00580061
0.00569349
0.00561695
0.00558607
0.00868963
0.00873314
0.00856758
0.00830468
0.00802433
0.00775305
0.00750215
0.00727595
0.00707322
0.00688721
0.0067111
0.00654189
0.00637806
0.00621872
0.00606424
0.00591537
0.00577301
0.00563921
0.00552362
0.00544401
0.00817051
0.00823857
0.00818621
0.00803927
0.00785442
0.00764932
0.0074387
0.00723189
0.00703088
0.00683865
0.00665638
0.00648223
0.00631422
0.00615112
0.0059922
0.00583672
0.00568397
0.0055341
0.00538903
0.00524267
0.0078726
0.00793174
0.00791981
0.00782442
0.0076848
0.00751932
0.00733912
0.00715464
0.00697063
0.00679021
0.00661501
0.00644483
0.00627904
0.00611703
0.0059582
0.0058017
0.00564655
0.00549238
0.00533982
0.00517999
0.0077215
0.0077844
0.00778816
0.00771451
0.0075944
0.00744802
0.00728515
0.00711374
0.0069396
0.00676603
0.00659487
0.006427
0.00626272
0.00610203
0.00594476
0.00579028
0.0056376
0.00548667
0.00533924
0.00518587
0.00772151
0.00778441
0.00778817
0.00771454
0.00759443
0.00744808
0.00728523
0.00711386
0.00693976
0.00676624
0.00659514
0.00642735
0.00626319
0.00610271
0.0059457
0.00579141
0.00563862
0.00548705
0.00533769
0.00518042
0.0078726
0.00793175
0.00791981
0.00782442
0.00768481
0.00751932
0.00733913
0.00715464
0.00697064
0.00679022
0.00661502
0.00644485
0.00627906
0.00611705
0.00595821
0.00580172
0.00564659
0.00549243
0.0053399
0.00518012
0.00817047
0.00823854
0.00818616
0.00803917
0.00785427
0.00764913
0.00743846
0.00723153
0.00703034
0.00683776
0.00665491
0.00647989
0.00631067
0.00614575
0.00598394
0.00582416
0.00566533
0.00550727
0.00535148
0.00519212
0.00868958
0.00873308
0.00856751
0.00830457
0.00802418
0.00775283
0.00750181
0.0072754
0.00707228
0.00688549
0.00670803
0.00653681
0.00637049
0.00620762
0.00604681
0.00588711
0.00572815
0.00557055
0.00541676
0.00526396
0.00999249
0.00922975
0.00861099
0.00815966
0.00781569
0.00754666
0.00732704
0.00713821
0.00697034
0.00681283
0.006657
0.00650144
0.00634685
0.00619375
0.00604228
0.00589269
0.00574572
0.00560328
0.00547113
0.0053611
0.0104018
0.00955025
0.00878598
0.00822684
0.0078507
0.00758271
0.0073671
0.00717427
0.00699597
0.00682765
0.00666448
0.00650432
0.00634674
0.00619155
0.00603831
0.00588623
0.00573416
0.00558256
0.00543879
0.00532072
0.00910796
0.00923415
0.00893126
0.00851504
0.00814789
0.00782925
0.0075507
0.00731026
0.0070977
0.00690312
0.00671971
0.00654415
0.00637439
0.00620854
0.00604466
0.00588099
0.0057155
0.00554582
0.00537172
0.00520076
0.00853846
0.00863943
0.00852787
0.00830238
0.00804661
0.00778818
0.00752974
0.00728804
0.00707001
0.00686951
0.00668153
0.00650282
0.00633059
0.00616258
0.00599712
0.00583296
0.00566943
0.00550857
0.00535844
0.00521938
0.00817047
0.00823854
0.00818616
0.00803916
0.00785427
0.00764913
0.00743846
0.00723153
0.00703033
0.00683775
0.0066549
0.00647988
0.00631066
0.00614575
0.00598393
0.00582414
0.0056653
0.00550722
0.00535137
0.00519191
0.00798745
0.00805189
0.00802243
0.00789758
0.00773858
0.00756493
0.00737871
0.00719076
0.00700469
0.00682135
0.00664226
0.00646844
0.0063003
0.00613777
0.00598083
0.00582883
0.0056799
0.00553291
0.00538923
0.00524117
0.00798747
0.00805191
0.00802246
0.00789765
0.00773871
0.00756512
0.00737892
0.00719105
0.00700513
0.00682202
0.00664327
0.00646992
0.00630239
0.00614086
0.00598546
0.00583559
0.00568907
0.00554393
0.00539937
0.00524489
0.00817051
0.00823858
0.00818622
0.00803927
0.00785443
0.00764932
0.0074387
0.0072319
0.0070309
0.00683866
0.0066564
0.00648225
0.00631423
0.00615114
0.00599223
0.00583674
0.005684
0.00553414
0.0053891
0.00524279
0.00853846
0.00863943
0.00852787
0.00830238
0.00804661
0.00778819
0.00752975
0.00728805
0.00707002
0.00686952
0.00668154
0.00650283
0.00633061
0.00616259
0.00599713
0.00583298
0.00566945
0.00550859
0.00535848
0.00521947
0.00910794
0.00923412
0.00893122
0.00851498
0.00814781
0.00782913
0.00755048
0.00730985
0.00709696
0.00690191
0.00671783
0.00654127
0.00636993
0.00620154
0.00603395
0.00586503
0.00569305
0.00551758
0.00534556
0.00519439
0.0104017
0.00955023
0.00878595
0.0082268
0.00785062
0.00758255
0.00736681
0.00717377
0.00699513
0.00682623
0.00666208
0.00650039
0.00634043
0.00618145
0.00602201
0.00585991
0.00569136
0.00551175
0.00531916
0.00510269
0.01075
0.0100162
0.00892325
0.00825727
0.00785467
0.00758091
0.0073697
0.00718343
0.00700895
0.0068415
0.00667852
0.00651824
0.00635906
0.00620009
0.00604087
0.00588056
0.00571463
0.00553384
0.00530979
0.00495913
0.0100334
0.0100017
0.00927346
0.00856294
0.00811656
0.00780056
0.00754158
0.00731379
0.00710899
0.00692024
0.00674194
0.00657016
0.0064016
0.00623411
0.00606624
0.00589547
0.00571832
0.00553073
0.00534929
0.00524946
0.00910793
0.00923412
0.00893122
0.00851498
0.00814781
0.00782912
0.00755047
0.00730984
0.00709695
0.0069019
0.00671781
0.00654125
0.00636992
0.00620153
0.00603395
0.00586503
0.00569306
0.0055176
0.0053456
0.00519445
0.00868957
0.00873308
0.00856751
0.00830456
0.00802417
0.00775282
0.0075018
0.0072754
0.00707227
0.00688548
0.00670802
0.0065368
0.00637048
0.00620762
0.00604682
0.00588711
0.00572814
0.00557054
0.00541671
0.00526378
0.00847364
0.00849547
0.00836828
0.00815078
0.00791838
0.00768927
0.00746653
0.0072535
0.00705297
0.00686603
0.00669023
0.00652238
0.00636102
0.00620474
0.00605287
0.00590658
0.00576706
0.00563497
0.00551328
0.00539959
0.00847367
0.0084955
0.00836832
0.00815085
0.00791849
0.00768942
0.00746676
0.00725386
0.0070535
0.00686693
0.0066918
0.0065251
0.00636538
0.00621112
0.00606246
0.00592178
0.0057905
0.00566913
0.00555986
0.00545977
0.00868963
0.00873314
0.00856759
0.00830468
0.00802434
0.00775305
0.00750216
0.00727596
0.00707324
0.00688723
0.00671112
0.00654191
0.00637808
0.00621875
0.00606427
0.0059154
0.00577303
0.00563923
0.00552363
0.005444
0.00910796
0.00923415
0.00893127
0.00851505
0.0081479
0.00782926
0.00755071
0.00731027
0.00709771
0.00690314
0.00671973
0.00654418
0.00637441
0.00620856
0.00604467
0.005881
0.00571551
0.00554582
0.00537169
0.0052007
0.0100334
0.0100017
0.00927346
0.00856295
0.00811657
0.00780057
0.00754159
0.0073138
0.007109
0.00692026
0.00674196
0.00657018
0.00640162
0.00623414
0.00606627
0.00589548
0.00571831
0.0055307
0.00534921
0.00524925
0.01075
0.0100162
0.00892324
0.00825726
0.00785464
0.00758085
0.00736959
0.00718322
0.00700857
0.00684083
0.00667743
0.00651643
0.00635589
0.00619445
0.00603154
0.00586569
0.00569175
0.00549518
0.00523424
0.00478867
0.0179288
0.0108144
0.00852292
0.00798508
0.0077107
0.00748846
0.00730175
0.00713522
0.0069739
0.00681418
0.00665608
0.00649933
0.00634257
0.00618434
0.00602415
0.00586046
0.00569206
0.00551044
0.00526422
0.00477584
0.01075
0.0100161
0.00892324
0.00825725
0.00785463
0.00758084
0.00736958
0.00718321
0.00700856
0.00684082
0.00667741
0.00651641
0.00635587
0.00619442
0.00603151
0.00586568
0.00569177
0.00549523
0.00523435
0.00478886
0.0104017
0.00955023
0.00878595
0.0082268
0.00785062
0.00758254
0.00736681
0.00717376
0.00699512
0.00682622
0.00666207
0.00650038
0.00634042
0.00618143
0.00602199
0.00585992
0.0056914
0.00551182
0.0053193
0.00510299
0.00999248
0.00922975
0.00861098
0.00815966
0.00781569
0.00754666
0.00732703
0.00713821
0.00697034
0.00681282
0.006657
0.00650144
0.00634685
0.00619374
0.00604229
0.00589272
0.00574578
0.00560339
0.00547135
0.00536155
0.00985831
0.00911712
0.00852895
0.00812084
0.00779891
0.00753223
0.00731075
0.0071202
0.00694959
0.00679315
0.00664369
0.00649448
0.00634496
0.00619738
0.00605426
0.00591822
0.00579355
0.00568527
0.00560365
0.00556533
0.00985832
0.00911713
0.00852897
0.00812087
0.00779896
0.00753231
0.00731089
0.00712044
0.00695
0.00679383
0.00664484
0.00649643
0.00634822
0.00620278
0.00606355
0.00593475
0.00582241
0.00573477
0.00568877
0.00571476
0.00999252
0.00922979
0.00861103
0.00815973
0.00781579
0.00754683
0.00732733
0.00713875
0.00697126
0.00681435
0.00665954
0.00650563
0.00635368
0.00620492
0.00606103
0.00592489
0.00580065
0.00569353
0.005617
0.00558616
0.0104018
0.00955026
0.00878599
0.00822685
0.00785071
0.00758272
0.00736712
0.00717428
0.00699598
0.00682767
0.00666451
0.00650435
0.00634677
0.00619158
0.00603834
0.00588626
0.00573418
0.00558258
0.0054388
0.00532074
0.01075
0.0100162
0.00892326
0.00825728
0.00785468
0.00758092
0.00736972
0.00718345
0.00700897
0.00684152
0.00667855
0.00651827
0.00635908
0.00620012
0.00604091
0.00588058
0.00571464
0.00553384
0.00530975
0.00495904
0.0179288
0.0108144
0.00852293
0.00798509
0.00771071
0.00748847
0.00730177
0.00713523
0.00697391
0.00681419
0.00665611
0.00649936
0.00634259
0.00618437
0.00602419
0.00586048
0.00569205
0.00551041
0.00526414
0.00477568
0.0056801
0.00498893
0.0045261
0.00439218
0.00428404
0.00416124
0.00403627
0.00390806
0.00377794
0.00364622
0.00351471
0.00338416
0.0032541
0.00312582
0.00299793
0.00286994
0.00274248
0.0026158
0.00249071
0.00236638
0.00224367
0.00212137
0.00199983
0.00187961
0.00176022
0.00164215
0.00152461
0.00140797
0.0012921
0.00117724
0.00106396
0.000951135
0.00083808
0.000724875
0.000613262
0.000502946
0.000391766
0.000279545
0.000169106
5.17103e-05
0.00576708
0.00507402
0.00457355
0.00438263
0.00426012
0.00413734
0.00401387
0.00388829
0.00376065
0.00363114
0.00350134
0.0033719
0.00324251
0.00311426
0.00298594
0.00285754
0.00273003
0.00260348
0.00247857
0.00235449
0.00223203
0.00211044
0.00199008
0.00187103
0.00175241
0.00163464
0.00151721
0.0014007
0.00128508
0.00117051
0.00105761
0.000945356
0.000832863
0.000720097
0.0006089
0.000499071
0.000388381
0.000276912
0.000166585
5.09932e-05
0.00550547
0.00509654
0.00473087
0.00450944
0.00434399
0.00418774
0.00403998
0.00390137
0.00376698
0.00363408
0.00350178
0.00337036
0.00323931
0.00310949
0.00298064
0.00285234
0.00272496
0.00259852
0.0024735
0.00234909
0.00222616
0.00210397
0.00198324
0.00186382
0.00174501
0.00162732
0.00151004
0.00139383
0.00127875
0.00116472
0.00105218
0.000940695
0.000828815
0.000716989
0.0006066
0.00049692
0.000386567
0.000275846
0.000166347
5.08658e-05
0.00524871
0.0050272
0.00478189
0.00457676
0.00440207
0.00424077
0.00408786
0.00394185
0.00380048
0.00366202
0.00352559
0.00339097
0.00325792
0.00312648
0.00299629
0.00286715
0.00273905
0.00261192
0.00248599
0.00236067
0.00223643
0.00211265
0.0019894
0.00186737
0.00174689
0.00162806
0.00151048
0.00139414
0.00127888
0.00116456
0.00105085
0.000938395
0.000826207
0.000714708
0.000604906
0.000495531
0.00038522
0.000274563
0.000165405
5.02917e-05
0.00504391
0.00493239
0.00477061
0.00459593
0.00442808
0.00426769
0.00411346
0.00396492
0.00382073
0.00367954
0.00354082
0.0034045
0.00327017
0.00313749
0.00300622
0.00287624
0.00274749
0.00261992
0.0024935
0.00236817
0.00224411
0.00212106
0.00199854
0.00187671
0.00175596
0.00163657
0.00151858
0.00140196
0.00128669
0.00117193
0.0010569
0.000942751
0.000829786
0.000718007
0.000607779
0.000497611
0.000386622
0.000275613
0.000166145
5.06351e-05
0.00492676
0.0048727
0.00475492
0.0045964
0.00443258
0.00427438
0.00412124
0.00397288
0.00382882
0.00368781
0.00354903
0.00341238
0.00327755
0.00314432
0.00301258
0.00288222
0.00275318
0.00262539
0.0024988
0.00237338
0.00224913
0.00212602
0.00200407
0.00188308
0.00176255
0.00164252
0.00152357
0.00140631
0.00129076
0.00117618
0.00106222
0.000949294
0.000837051
0.000725359
0.00061435
0.000502919
0.00039086
0.000278618
0.00016793
5.15104e-05
0.00495366
0.004887
0.00476128
0.00459586
0.00442959
0.00427175
0.00411993
0.00397293
0.00382984
0.00368962
0.00355124
0.00341457
0.00327964
0.00314628
0.00301427
0.00288362
0.00275435
0.00262641
0.00249974
0.00237433
0.00225014
0.00212712
0.00200515
0.0018843
0.00176398
0.00164411
0.00152513
0.00140788
0.0012924
0.00117815
0.00106495
0.000952112
0.000839179
0.000727264
0.000616874
0.000506146
0.000394548
0.000282209
0.000170624
5.31209e-05
0.00506511
0.00495106
0.00475968
0.00457351
0.00440846
0.00425492
0.00410726
0.00396357
0.00382268
0.0036837
0.00354608
0.00340997
0.00327564
0.00314247
0.00301018
0.00287931
0.00275011
0.00262236
0.00249599
0.00237093
0.00224706
0.0021244
0.00200245
0.00188196
0.00176247
0.00164432
0.00152741
0.00141124
0.0012961
0.00118195
0.00106896
0.000956063
0.000842592
0.000730111
0.000619487
0.000508758
0.000397109
0.000284327
0.000171887
5.40359e-05
0.00535275
0.00504038
0.00472399
0.00451522
0.00436006
0.0042158
0.0040748
0.00393695
0.00380055
0.00366474
0.00352958
0.00339591
0.00326407
0.00313394
0.00300518
0.00287653
0.0027487
0.00262151
0.00249555
0.00237097
0.00224724
0.00212446
0.00200254
0.00188244
0.0017631
0.00164554
0.00152905
0.00141283
0.00129714
0.00118229
0.00106897
0.000955956
0.00084233
0.000729209
0.000617919
0.000506512
0.000394384
0.000281792
0.000169547
5.30574e-05
0.00565123
0.00504692
0.00461698
0.00445447
0.0043291
0.00419217
0.00405735
0.0039255
0.00379283
0.00365995
0.00352676
0.00339529
0.00326586
0.00313762
0.00301042
0.0028828
0.00275544
0.00262862
0.00250292
0.0023786
0.00225512
0.00213213
0.00200963
0.00188873
0.00176915
0.0016507
0.00153312
0.00141611
0.00129978
0.00118448
0.00107089
0.000957678
0.000843957
0.000730533
0.000618623
0.000506521
0.000394567
0.000282762
0.000170617
5.34189e-05
0.00568017
0.00498924
0.00452788
0.00439538
0.00428563
0.00415951
0.00403327
0.00390603
0.00377643
0.00364578
0.0035142
0.00338389
0.0032552
0.00312665
0.00299842
0.00287015
0.00274266
0.00261603
0.00249062
0.00236654
0.00224337
0.00212093
0.00199947
0.0018796
0.00176079
0.0016427
0.00152532
0.00140852
0.00129249
0.00117752
0.00106419
0.000951423
0.000838289
0.000725439
0.000613989
0.000502479
0.000391224
0.000279808
0.000169394
5.17075e-05
0.00565132
0.00504679
0.00461509
0.00445103
0.00432727
0.00419389
0.00406032
0.00392752
0.0037942
0.00366036
0.00352721
0.00339543
0.00326473
0.00313676
0.00300987
0.00288261
0.00275523
0.00262835
0.00250299
0.00237839
0.00225544
0.00213254
0.00200992
0.00188859
0.00176845
0.00165008
0.00153239
0.00141555
0.00129936
0.00118414
0.00107055
0.000957284
0.000843669
0.000729864
0.000617698
0.000506921
0.000395193
0.000282293
0.000170017
5.32585e-05
0.00547677
0.00505625
0.00470326
0.00449068
0.00433548
0.00418912
0.00404935
0.00391586
0.00378441
0.00365334
0.00352239
0.00339206
0.00326201
0.0031334
0.00300543
0.00287786
0.00275074
0.00262453
0.00249987
0.00237566
0.00225327
0.00213083
0.00200924
0.00188877
0.00176879
0.00165053
0.0015325
0.00141539
0.00129928
0.00118406
0.00107035
0.000957272
0.000843671
0.000730094
0.000618165
0.000507268
0.000395777
0.000283392
0.000172005
5.40505e-05
0.00526448
0.00501238
0.00477196
0.0045626
0.00438429
0.00422029
0.00406688
0.00392259
0.00378378
0.0036483
0.00351468
0.00338228
0.00325138
0.00312157
0.00299294
0.00286551
0.00273877
0.00261311
0.00248855
0.00236462
0.00224122
0.00211846
0.00199684
0.00187641
0.00175691
0.00163877
0.00152173
0.00140552
0.0012905
0.00117636
0.0010624
0.000949287
0.00083648
0.000724595
0.000614106
0.000503293
0.000391704
0.000280239
0.000170511
5.37563e-05
0.00513445
0.00495371
0.00476909
0.00458033
0.00440655
0.00424524
0.00409139
0.00394388
0.00380163
0.00366316
0.00352767
0.00339404
0.00326225
0.00313168
0.0030022
0.00287394
0.00274664
0.00262035
0.00249486
0.00237057
0.00224683
0.00212382
0.00200152
0.00188062
0.00176117
0.00164238
0.00152479
0.0014081
0.00129237
0.00117727
0.00106219
0.00094776
0.000834631
0.000722756
0.000611877
0.000500677
0.000389079
0.000277748
0.000167927
5.34638e-05
0.00500926
0.00485028
0.00470437
0.00454504
0.00438707
0.00423583
0.00408908
0.00394566
0.00380547
0.00366818
0.0035333
0.0034001
0.00326818
0.00313739
0.00300777
0.00287927
0.0027518
0.00262537
0.00249984
0.00237535
0.00225151
0.00212831
0.00200616
0.00188526
0.00176539
0.00164627
0.00152841
0.00141187
0.00129611
0.00118065
0.00106553
0.000950946
0.000837674
0.000725325
0.000613099
0.00050039
0.000387717
0.000276085
0.000166205
5.3516e-05
0.00488223
0.00474168
0.00463901
0.00450647
0.00436329
0.00422212
0.00408276
0.00394387
0.00380609
0.00367058
0.00353674
0.00340396
0.00327226
0.00314166
0.00301208
0.00288343
0.00275572
0.00262897
0.00250317
0.00237828
0.00225424
0.00213103