/*--------------------------------*- C++ -*----------------------------------*\
| =========                 |                                                 |
| \\      /  F ield         | OpenFOAM: The Open Source CFD Toolbox           |
|  \\    /   O peration     | Version:  2212                                  |
|   \\  /    A nd           | Website:  www.openfoam.com                      |
|    \\/     M anipulation  |                                                 |
\*---------------------------------------------------------------------------*/
FoamFile
{
    version     2.0;
    format      ascii;
    arch        "LSB;label=32;scalar=64";
    class       surfaceScalarField;
    location    "2.2";
    object      phi;
}
// * * * * * * * * * * * * * * * * * * * * * * * * * * * * * * * * * * * * * //

dimensions      [0 3 -1 0 0 0 0];

oriented        oriented;

internalField   nonuniform List<scalar> 
19019
(
3.3225e-07
1.09684e-09
1.09682e-09
2.7919e-07
2.65294e-08
2.65296e-08
2.49218e-07
1.49862e-08
1.49865e-08
2.29254e-07
9.98157e-09
9.98214e-09
2.14835e-07
7.20893e-09
7.21054e-09
2.03199e-07
5.81656e-09
5.81901e-09
1.93771e-07
4.71126e-09
4.7164e-09
1.86004e-07
3.87921e-09
3.88847e-09
1.79355e-07
3.31631e-09
3.33243e-09
1.73526e-07
2.9004e-09
2.92817e-09
1.68355e-07
2.5631e-09
2.60834e-09
1.63736e-07
2.27244e-09
2.34663e-09
1.59577e-07
2.0147e-09
2.14409e-09
1.55813e-07
1.76189e-09
2.00169e-09
1.52468e-07
1.46971e-09
1.87587e-09
1.4959e-07
1.12489e-09
1.75263e-09
1.47382e-07
6.32388e-10
1.5756e-09
1.46989e-07
-5.44703e-10
9.37778e-10
1.50766e-07
-3.17947e-09
-5.98573e-10
-2.67408e-08
-1.42974e-08
6.3138e-07
3.58746e-09
7.40293e-09
6.14564e-07
2.26451e-08
2.07007e-08
5.86445e-07
2.43749e-08
1.87299e-08
5.61726e-07
1.8853e-08
1.58481e-08
5.39618e-07
1.55659e-08
1.37508e-08
5.20637e-07
1.35041e-08
1.12929e-08
5.04692e-07
1.19415e-08
8.71516e-09
4.90939e-07
1.07822e-08
6.84953e-09
4.78719e-07
9.9176e-09
5.61905e-09
4.67639e-07
9.18766e-09
4.79285e-09
4.57464e-07
8.52935e-09
4.2089e-09
4.48051e-07
7.91207e-09
3.77344e-09
4.39293e-07
7.31521e-09
3.45741e-09
4.31125e-07
6.70556e-09
3.22346e-09
4.23522e-07
6.02856e-09
3.04396e-09
4.16646e-07
5.1549e-09
2.84598e-09
4.10838e-07
3.92411e-09
2.51633e-09
4.07541e-07
1.36702e-09
1.38505e-09
4.10999e-07
-4.07075e-09
-2.56662e-09
-2.11078e-08
-2.04161e-08
8.90375e-07
2.85248e-09
6.33243e-09
8.82485e-07
1.34079e-08
1.71262e-08
8.70357e-07
1.7866e-08
1.8637e-08
8.55109e-07
1.6953e-08
1.71488e-08
8.39975e-07
1.53364e-08
1.53627e-08
8.25522e-07
1.41638e-08
1.37936e-08
8.11746e-07
1.3369e-08
1.23486e-08
7.98739e-07
1.26569e-08
1.11321e-08
7.86646e-07
1.18561e-08
1.01551e-08
7.75469e-07
1.09901e-08
9.37384e-09
7.65062e-07
1.01468e-08
8.79033e-09
7.55258e-07
9.33675e-09
8.37882e-09
7.4592e-07
8.55436e-09
8.09921e-09
7.36947e-07
7.76434e-09
7.91384e-09
7.28281e-07
6.88313e-09
7.81136e-09
7.19892e-07
5.77037e-09
7.77318e-09
7.1173e-07
4.30904e-09
7.77689e-09
7.03481e-07
1.92152e-09
7.69402e-09
6.93909e-07
-2.04456e-09
7.54592e-09
-5.31903e-09
7.8023e-09
1.07432e-06
1.06481e-09
5.56894e-09
1.06824e-06
5.58657e-09
1.39005e-08
1.06138e-06
8.46412e-09
1.62625e-08
1.05338e-06
9.04005e-09
1.59106e-08
1.04509e-06
8.61844e-09
1.50054e-08
1.03719e-06
8.12186e-09
1.39386e-08
1.02979e-06
7.78922e-09
1.29853e-08
1.02276e-06
7.55898e-09
1.21282e-08
1.01587e-06
7.3776e-09
1.13678e-08
1.00903e-06
7.09757e-09
1.0731e-08
1.00225e-06
6.66412e-09
1.02638e-08
9.95463e-07
6.1746e-09
9.94819e-09
9.88552e-07
5.69491e-09
9.77018e-09
9.81339e-07
5.23994e-09
9.73771e-09
9.7355e-07
4.79759e-09
9.87397e-09
9.64772e-07
4.31248e-09
1.0236e-08
9.54291e-07
3.83734e-09
1.09532e-08
9.41004e-07
3.03722e-09
1.21705e-08
9.23457e-07
1.83904e-09
1.36637e-08
2.03006e-09
2.10341e-08
1.16914e-06
7.12487e-14
4.90665e-09
1.16312e-06
3.54692e-13
1.16088e-08
1.15731e-06
8.88105e-13
1.42761e-08
1.15201e-06
1.66962e-12
1.4335e-08
1.14689e-06
2.96847e-12
1.37337e-08
1.14203e-06
5.37242e-12
1.29753e-08
1.1377e-06
9.8083e-12
1.21099e-08
1.13392e-06
1.71986e-11
1.13231e-08
1.13059e-06
2.98257e-11
1.06753e-08
1.12741e-06
5.08854e-11
1.02326e-08
1.12402e-06
8.60156e-11
9.96505e-09
1.12025e-06
1.44411e-10
9.80652e-09
1.11592e-06
2.4208e-10
9.78001e-09
1.11082e-06
4.06358e-10
9.93586e-09
1.10462e-06
6.82471e-10
1.03137e-08
1.09678e-06
1.13961e-09
1.10065e-08
1.08646e-06
1.95362e-09
1.22125e-08
1.07199e-06
3.23977e-09
1.42639e-08
1.05075e-06
5.56292e-09
1.75111e-08
1.05855e-08
2.44654e-08
1.16914e-06
-1.06465e-09
4.90662e-09
1.16312e-06
-5.586e-09
1.16087e-08
1.15731e-06
-8.46304e-09
1.42761e-08
1.15201e-06
-9.03814e-09
1.43347e-08
1.1469e-06
-8.61459e-09
1.37323e-08
1.14205e-06
-8.11423e-09
1.29724e-08
1.13773e-06
-7.77496e-09
1.21053e-08
1.13396e-06
-7.53382e-09
1.13154e-08
1.13066e-06
-7.33312e-09
1.06619e-08
1.12753e-06
-7.02304e-09
1.02095e-08
1.12423e-06
-6.5416e-09
9.92673e-09
1.12061e-06
-5.97496e-09
9.74167e-09
1.11655e-06
-5.36633e-09
9.66547e-09
1.11192e-06
-4.69295e-09
9.72882e-09
1.10655e-06
-3.90018e-09
9.94948e-09
1.10013e-06
-2.809e-09
1.03696e-08
1.09221e-06
-1.2266e-09
1.11039e-08
1.08201e-06
1.16009e-09
1.22783e-08
1.0688e-06
4.80153e-09
1.39701e-08
1.10426e-08
1.63985e-08
1.07432e-06
-2.85252e-09
5.56895e-09
1.06824e-06
-1.34081e-08
1.39005e-08
1.06138e-06
-1.78663e-08
1.6262e-08
1.05338e-06
-1.69533e-08
1.59089e-08
1.0451e-06
-1.53364e-08
1.5002e-08
1.03722e-06
-1.41628e-08
1.39331e-08
1.02983e-06
-1.33667e-08
1.29773e-08
1.02284e-06
-1.26535e-08
1.21152e-08
1.01601e-06
-1.18498e-08
1.13457e-08
1.00927e-06
-1.09795e-08
1.06925e-08
1.00267e-06
-1.01303e-08
1.01972e-08
9.9617e-07
-9.31105e-09
9.83157e-09
9.89747e-07
-8.51277e-09
9.56895e-09
9.83359e-07
-7.69654e-09
9.39187e-09
9.76961e-07
-6.77749e-09
9.27502e-09
9.70528e-07
-5.55095e-09
9.17528e-09
9.64033e-07
-3.78888e-09
9.05729e-09
9.57279e-07
-9.9741e-10
8.91114e-09
9.49634e-07
3.64424e-09
8.80247e-09
1.25733e-08
8.55119e-09
8.90375e-07
-3.58754e-09
6.33236e-09
8.82486e-07
-2.26456e-08
1.71258e-08
8.7036e-07
-2.43756e-08
1.86356e-08
8.55114e-07
-1.8854e-08
1.71466e-08
8.39986e-07
-1.55682e-08
1.53595e-08
8.25542e-07
-1.35081e-08
1.37893e-08
8.11782e-07
-1.19482e-08
1.23416e-08
7.98802e-07
-1.07933e-08
1.11198e-08
7.86754e-07
-9.93623e-09
1.01351e-08
7.75653e-07
-9.21951e-09
9.3408e-09
7.65372e-07
-8.58375e-09
8.73473e-09
7.55777e-07
-7.99975e-09
8.28344e-09
7.46777e-07
-7.45208e-09
7.93893e-09
7.38356e-07
-6.92825e-09
7.65246e-09
7.30599e-07
-6.38603e-09
7.36596e-09
7.23817e-07
-5.72789e-09
6.95871e-09
7.18488e-07
-4.70543e-09
6.24556e-09
7.15062e-07
-2.31059e-09
4.73926e-09
7.14047e-07
2.57273e-09
2.0868e-09
1.59328e-08
-4.29576e-09
6.3138e-07
-1.09682e-09
7.40287e-09
6.14564e-07
-2.65296e-08
2.07003e-08
5.86446e-07
-1.49865e-08
1.87292e-08
5.61727e-07
-9.98214e-09
1.58468e-08
5.3962e-07
-7.21052e-09
1.37489e-08
5.20642e-07
-5.81899e-09
1.12893e-08
5.04701e-07
-4.71637e-09
8.70936e-09
4.90956e-07
-3.88845e-09
6.84004e-09
4.78749e-07
-3.3324e-09
5.60311e-09
4.67692e-07
-2.92814e-09
4.76544e-09
4.57561e-07
-2.60832e-09
4.15576e-09
4.48226e-07
-2.34663e-09
3.68196e-09
4.39591e-07
-2.1442e-09
3.32653e-09
4.31597e-07
-2.0016e-09
3.06729e-09
4.24277e-07
-1.87559e-09
2.80997e-09
4.17866e-07
-1.75248e-09
2.43538e-09
4.13006e-07
-1.57548e-09
1.73056e-09
4.11781e-07
-9.37367e-10
-1.4857e-10
4.18883e-07
5.9945e-10
-5.12919e-09
1.42982e-08
-2.12109e-08
3.3225e-07
1.09685e-09
2.7919e-07
2.65294e-08
2.49218e-07
1.49862e-08
2.29254e-07
9.98159e-09
2.14835e-07
7.20896e-09
2.03199e-07
5.81661e-09
1.93771e-07
4.71131e-09
1.86004e-07
3.87927e-09
1.79355e-07
3.31638e-09
1.73526e-07
2.90048e-09
1.68355e-07
2.56318e-09
1.63736e-07
2.27253e-09
1.59576e-07
2.01487e-09
1.55813e-07
1.76217e-09
1.52467e-07
1.47023e-09
1.49589e-07
1.12564e-09
1.4738e-07
6.33133e-10
1.46987e-07
-5.44074e-10
1.50765e-07
-3.17917e-09
-2.67383e-08
6.3138e-07
7.40287e-09
3.58754e-09
6.14564e-07
2.07003e-08
2.26456e-08
5.86446e-07
1.87292e-08
2.43755e-08
5.61727e-07
1.58467e-08
1.8854e-08
5.3962e-07
1.37489e-08
1.55682e-08
5.20642e-07
1.12892e-08
1.35081e-08
5.04701e-07
8.70932e-09
1.19482e-08
4.90956e-07
6.83999e-09
1.07933e-08
4.78749e-07
5.60304e-09
9.93621e-09
4.67693e-07
4.76536e-09
9.21948e-09
4.57562e-07
4.15567e-09
8.58369e-09
4.48227e-07
3.68185e-09
7.99965e-09
4.39593e-07
3.32611e-09
7.45199e-09
4.31599e-07
3.06703e-09
6.92793e-09
4.2428e-07
2.81002e-09
6.38552e-09
4.1787e-07
2.43491e-09
5.72743e-09
4.13011e-07
1.73e-09
4.7049e-09
4.11787e-07
-1.48835e-10
2.31016e-09
4.1889e-07
-5.12889e-09
-2.57295e-09
-2.12135e-08
-1.59326e-08
9.23617e-07
7.03375e-09
7.03387e-09
9.25318e-07
1.98495e-08
1.985e-08
9.17184e-07
2.2796e-08
2.2797e-08
9.04275e-07
2.23009e-08
2.23027e-08
8.90534e-07
2.06189e-08
2.06218e-08
8.7741e-07
1.78502e-08
1.78558e-08
8.65442e-07
1.46917e-08
1.47009e-08
8.54767e-07
1.21752e-08
1.21898e-08
8.45332e-07
1.03159e-08
1.03414e-08
8.36995e-07
8.92538e-09
8.96951e-09
8.29577e-07
7.8541e-09
7.9288e-09
8.22903e-07
7.00332e-09
7.12551e-09
8.16892e-07
6.30082e-09
6.49382e-09
8.11563e-07
5.65794e-09
5.96108e-09
8.07001e-07
4.96953e-09
5.44678e-09
8.03303e-07
4.1254e-09
4.85355e-09
8.00616e-07
2.92573e-09
4.00701e-09
7.98268e-07
1.01405e-09
2.5704e-09
7.92827e-07
-2.02656e-09
-2.27806e-10
-6.73951e-09
-5.06648e-09
1.1589e-06
5.28119e-09
6.10272e-09
1.1657e-06
1.39983e-08
1.61834e-08
1.16844e-06
1.79772e-08
2.07076e-08
1.16661e-06
1.91777e-08
2.21065e-08
1.16221e-06
1.88741e-08
2.15085e-08
1.15654e-06
1.75415e-08
1.97742e-08
1.15047e-06
1.56782e-08
1.74323e-08
1.14456e-06
1.3874e-08
1.53417e-08
1.13912e-06
1.22621e-08
1.36505e-08
1.13427e-06
1.08461e-08
1.23032e-08
1.13001e-06
9.65957e-09
1.12445e-08
1.1263e-06
8.6609e-09
1.04261e-08
1.12313e-06
7.77831e-09
9.79458e-09
1.12047e-06
6.93285e-09
9.29677e-09
1.11831e-06
6.04594e-09
8.89519e-09
1.11665e-06
5.02189e-09
8.54071e-09
1.11547e-06
3.7147e-09
8.16146e-09
1.11465e-06
1.90764e-09
7.62654e-09
1.11407e-06
-6.27144e-10
6.72219e-09
-4.1073e-09
5.62031e-09
1.32762e-06
2.71824e-09
4.93129e-09
1.33539e-06
7.12085e-09
1.30095e-08
1.34286e-06
9.55343e-09
1.72171e-08
1.34847e-06
1.05782e-08
1.89025e-08
1.35197e-06
1.08757e-08
1.95074e-08
1.35374e-06
1.05812e-08
1.91251e-08
1.35439e-06
9.89275e-09
1.81164e-08
1.35451e-06
9.04745e-09
1.68365e-08
1.35444e-06
8.19633e-09
1.55033e-08
1.35432e-06
7.40049e-09
1.42972e-08
1.3542e-06
6.68941e-09
1.3355e-08
1.3541e-06
6.0595e-09
1.26499e-08
1.35401e-06
5.49032e-09
1.21506e-08
1.35388e-06
4.9561e-09
1.18434e-08
1.35363e-06
4.43226e-09
1.17343e-08
1.35314e-06
3.89791e-09
1.18549e-08
1.35221e-06
3.32125e-09
1.22733e-08
1.35054e-06
2.67744e-09
1.30697e-08
1.34723e-06
2.05128e-09
1.42977e-08
2.15771e-09
1.64459e-08
1.41518e-06
1.51442e-13
4.19307e-09
1.42279e-06
4.39948e-13
1.11166e-08
1.43152e-06
7.67163e-13
1.50997e-08
1.4398e-06
1.48824e-12
1.66316e-08
1.44712e-06
2.91059e-12
1.72805e-08
1.45316e-06
5.28271e-12
1.75187e-08
1.45798e-06
8.92865e-12
1.71671e-08
1.46188e-06
1.48902e-11
1.64591e-08
1.46514e-06
2.54944e-11
1.5585e-08
1.468e-06
4.46648e-11
1.47262e-08
1.47063e-06
7.67375e-11
1.39508e-08
1.47305e-06
1.29869e-10
1.33185e-08
1.47518e-06
2.10613e-10
1.29259e-08
1.47696e-06
3.33028e-10
1.27843e-08
1.47832e-06
5.29843e-10
1.28545e-08
1.47917e-06
8.33794e-10
1.32169e-08
1.47941e-06
1.2993e-09
1.39935e-08
1.47903e-06
1.99701e-09
1.53307e-08
1.47836e-06
2.99333e-09
1.72313e-08
4.33162e-09
1.93381e-08
1.41518e-06
-2.71808e-09
4.19298e-09
1.42279e-06
-7.12042e-09
1.11163e-08
1.43152e-06
-9.55264e-09
1.50993e-08
1.4398e-06
-1.05766e-08
1.66307e-08
1.44713e-06
-1.08724e-08
1.72782e-08
1.45317e-06
-1.05753e-08
1.75146e-08
1.45801e-06
-9.88262e-09
1.71603e-08
1.46192e-06
-9.0302e-09
1.64483e-08
1.4652e-06
-8.1666e-09
1.55683e-08
1.46811e-06
-7.34622e-09
1.46986e-08
1.4708e-06
-6.59507e-09
1.39037e-08
1.47334e-06
-5.90201e-09
1.32352e-08
1.47568e-06
-5.24988e-09
1.27804e-08
1.47778e-06
-4.58579e-09
1.25482e-08
1.4796e-06
-3.83218e-09
1.24905e-08
1.48112e-06
-2.92203e-09
1.26152e-08
1.48227e-06
-1.74569e-09
1.29955e-08
1.48302e-06
-1.8746e-10
1.37097e-08
1.48339e-06
1.88371e-09
1.47092e-08
4.44398e-09
1.56874e-08
1.32763e-06
-5.28132e-09
4.93111e-09
1.33539e-06
-1.39985e-08
1.3009e-08
1.34287e-06
-1.79776e-08
1.72157e-08
1.34848e-06
-1.91783e-08
1.88992e-08
1.35198e-06
-1.88751e-08
1.95014e-08
1.35377e-06
-1.75434e-08
1.91158e-08
1.35444e-06
-1.56806e-08
1.8102e-08
1.35459e-06
-1.38764e-08
1.68137e-08
1.35457e-06
-1.22671e-08
1.54681e-08
1.35453e-06
-1.08553e-08
1.42399e-08
1.35455e-06
-9.67563e-09
1.32566e-08
1.35468e-06
-8.69104e-09
1.24851e-08
1.35496e-06
-7.8398e-09
1.18817e-08
1.35541e-06
-7.04899e-09
1.14074e-08
1.35606e-06
-6.22774e-09
1.10215e-08
1.35691e-06
-5.27989e-09
1.0685e-08
1.35791e-06
-4.05704e-09
1.0363e-08
1.35899e-06
-2.38585e-09
1.0032e-08
1.36007e-06
-9.2826e-11
9.69698e-09
3.17479e-09
9.39201e-09
1.1589e-06
-7.03387e-09
6.10248e-09
1.1657e-06
-1.985e-08
1.61824e-08
1.16845e-06
-2.2797e-08
2.07054e-08
1.16661e-06
-2.23027e-08
2.21029e-08
1.16222e-06
-2.06218e-08
2.15032e-08
1.15655e-06
-1.78558e-08
1.97668e-08
1.15049e-06
-1.47009e-08
1.74203e-08
1.14461e-06
-1.21898e-08
1.53208e-08
1.1392e-06
-1.03414e-08
1.3615e-08
1.13441e-06
-8.96949e-09
1.22446e-08
1.13025e-06
-7.92879e-09
1.11481e-08
1.1267e-06
-7.12555e-09
1.02705e-08
1.12375e-06
-6.49435e-09
9.54624e-09
1.1214e-06
-5.96086e-09
8.90557e-09
1.11971e-06
-5.4459e-09
8.27829e-09
1.11868e-06
-4.85359e-09
7.56106e-09
1.11828e-06
-4.00724e-09
6.60016e-09
1.11801e-06
-2.57033e-09
5.19301e-09
1.11659e-06
2.28335e-10
3.18781e-09
5.06487e-09
7.47467e-10
9.23617e-07
-7.40293e-09
7.03375e-09
9.25318e-07
-2.07007e-08
1.98495e-08
9.17184e-07
-1.87299e-08
2.27961e-08
9.04275e-07
-1.58481e-08
2.2301e-08
8.90534e-07
-1.37508e-08
2.06189e-08
8.7741e-07
-1.12929e-08
1.78503e-08
8.65442e-07
-8.71514e-09
1.46919e-08
8.54766e-07
-6.84951e-09
1.21753e-08
8.45331e-07
-5.61903e-09
1.03161e-08
8.36994e-07
-4.79283e-09
8.92564e-09
8.29575e-07
-4.20886e-09
7.85441e-09
8.22902e-07
-3.77339e-09
7.00365e-09
8.1689e-07
-3.45756e-09
6.30154e-09
8.11561e-07
-3.22349e-09
5.65864e-09
8.06999e-07
-3.04374e-09
4.97006e-09
8.033e-07
-2.84605e-09
4.12643e-09
8.00613e-07
-2.51609e-09
2.9267e-09
7.98263e-07
-1.38385e-09
1.01475e-09
7.92819e-07
2.56952e-09
-2.0265e-09
2.04206e-08
-6.7397e-09
6.3138e-07
3.58747e-09
6.14564e-07
2.26451e-08
5.86445e-07
2.4375e-08
5.61725e-07
1.8853e-08
5.39618e-07
1.5566e-08
5.20637e-07
1.35042e-08
5.04692e-07
1.19416e-08
4.90939e-07
1.07823e-08
4.78719e-07
9.9178e-09
4.67638e-07
9.18791e-09
4.57463e-07
8.52962e-09
4.4805e-07
7.91235e-09
4.39292e-07
7.31539e-09
4.31124e-07
6.70645e-09
4.2352e-07
6.03019e-09
4.16643e-07
5.15642e-09
4.10835e-07
3.92557e-09
4.07538e-07
1.3687e-09
4.10998e-07
-4.06909e-09
-2.11053e-08
8.90375e-07
6.33236e-09
2.85252e-09
8.82486e-07
1.71258e-08
1.34081e-08
8.7036e-07
1.86356e-08
1.78662e-08
8.55114e-07
1.71465e-08
1.69533e-08
8.39987e-07
1.53595e-08
1.53363e-08
8.25543e-07
1.37892e-08
1.41628e-08
8.11783e-07
1.23416e-08
1.33667e-08
7.98803e-07
1.11197e-08
1.26534e-08
7.86754e-07
1.01349e-08
1.18497e-08
7.75654e-07
9.34066e-09
1.09794e-08
7.65373e-07
8.73453e-09
1.01302e-08
7.55778e-07
8.28312e-09
9.31093e-09
7.46779e-07
7.93839e-09
8.51263e-09
7.38359e-07
7.65182e-09
7.69613e-09
7.30603e-07
7.36517e-09
6.77685e-09
7.23822e-07
6.9576e-09
5.55038e-09
7.18495e-07
6.24412e-09
3.78841e-09
7.15071e-07
4.73741e-09
9.96899e-10
7.14058e-07
2.08444e-09
-3.64482e-09
-4.29936e-09
-1.25728e-08
1.1589e-06
6.10247e-09
5.28132e-09
1.1657e-06
1.61824e-08
1.39985e-08
1.16845e-06
2.07054e-08
1.79776e-08
1.16661e-06
2.21029e-08
1.91783e-08
1.16222e-06
2.15031e-08
1.88751e-08
1.15655e-06
1.97667e-08
1.75434e-08
1.15049e-06
1.74201e-08
1.56806e-08
1.14461e-06
1.53206e-08
1.38763e-08
1.1392e-06
1.36147e-08
1.22671e-08
1.13441e-06
1.22442e-08
1.08553e-08
1.13025e-06
1.11476e-08
9.67555e-09
1.1267e-06
1.02698e-08
8.69084e-09
1.12375e-06
9.54522e-09
7.83932e-09
1.12141e-06
8.90493e-09
7.04911e-09
1.11971e-06
8.27785e-09
6.22823e-09
1.11868e-06
7.55994e-09
5.27972e-09
1.11828e-06
6.59867e-09
4.05646e-09
1.11801e-06
5.19158e-09
2.38519e-09
1.11659e-06
3.18641e-09
9.20933e-11
7.4332e-10
-3.17729e-09
1.37712e-06
4.57709e-09
4.57735e-09
1.38565e-06
1.19164e-08
1.19172e-08
1.39417e-06
1.64456e-08
1.64471e-08
1.40126e-06
1.85583e-08
1.85606e-08
1.40642e-06
1.89263e-08
1.89302e-08
1.40952e-06
1.82158e-08
1.82218e-08
1.41095e-06
1.67056e-08
1.67154e-08
1.41155e-06
1.50262e-08
1.50415e-08
1.41184e-06
1.34718e-08
1.34967e-08
1.41212e-06
1.21177e-08
1.21575e-08
1.41254e-06
1.09512e-08
1.10151e-08
1.41324e-06
9.94985e-09
1.00521e-08
1.41426e-06
9.0736e-09
9.23801e-09
1.41566e-06
8.27141e-09
8.53308e-09
1.41744e-06
7.49673e-09
7.90025e-09
1.41956e-06
6.68488e-09
7.29416e-09
1.42189e-06
5.76561e-09
6.66537e-09
1.42405e-06
4.67985e-09
5.97579e-09
1.42526e-06
3.45051e-09
5.24487e-09
2.44479e-09
4.80015e-09
1.53312e-06
2.36598e-09
3.64953e-09
1.54218e-06
6.23869e-09
9.63451e-09
1.55327e-06
8.87315e-09
1.3693e-08
1.56445e-06
1.03469e-08
1.5939e-08
1.57507e-06
1.08993e-08
1.69158e-08
1.5847e-06
1.07541e-08
1.6952e-08
1.59299e-06
1.01428e-08
1.63871e-08
1.60006e-06
9.33068e-09
1.54634e-08
1.60621e-06
8.4593e-09
1.43714e-08
1.61169e-06
7.63914e-09
1.3293e-08
1.61675e-06
6.9151e-09
1.23281e-08
1.62156e-06
6.28633e-09
1.15081e-08
1.62621e-06
5.72885e-09
1.08418e-08
1.63079e-06
5.21333e-09
1.03276e-08
1.63533e-06
4.72668e-09
9.96058e-09
1.63987e-06
4.25379e-09
9.74424e-09
1.64444e-06
3.7819e-09
9.69174e-09
1.64907e-06
3.3015e-09
9.81617e-09
1.65389e-06
2.84163e-09
1.00846e-08
2.50933e-09
1.04279e-08
1.61424e-06
1.09442e-13
3.09305e-09
1.62332e-06
2.59223e-13
8.27462e-09
1.63533e-06
4.71377e-13
1.19583e-08
1.64819e-06
8.87847e-13
1.41165e-08
1.66117e-06
1.67118e-12
1.52039e-08
1.67385e-06
2.8039e-12
1.55887e-08
1.68572e-06
4.77632e-12
1.54385e-08
1.69653e-06
7.76799e-12
1.49718e-08
1.70625e-06
1.30598e-11
1.43062e-08
1.71505e-06
2.21324e-11
1.3546e-08
1.72309e-06
3.66819e-11
1.27845e-08
1.73054e-06
5.89251e-11
1.20952e-08
1.73757e-06
9.07903e-11
1.15342e-08
1.7443e-06
1.37619e-10
1.11366e-08
1.75074e-06
2.08908e-10
1.0925e-08
1.75697e-06
3.24449e-10
1.09165e-08
1.76312e-06
4.9261e-10
1.11333e-08
1.76945e-06
7.18588e-10
1.15833e-08
1.77636e-06
9.89413e-10
1.21812e-08
1.27969e-09
1.27505e-08
1.61424e-06
-2.36593e-09
3.09292e-09
1.62332e-06
-6.2386e-09
8.27424e-09
1.63533e-06
-8.87297e-09
1.19575e-08
1.6482e-06
-1.03465e-08
1.4115e-08
1.66118e-06
-1.08988e-08
1.52009e-08
1.67386e-06
-1.07533e-08
1.55841e-08
1.68574e-06
-1.01411e-08
1.54319e-08
1.69656e-06
-9.32739e-09
1.49619e-08
1.7063e-06
-8.45335e-09
1.42907e-08
1.71513e-06
-7.62722e-09
1.35212e-08
1.72322e-06
-6.89271e-09
1.27441e-08
1.73073e-06
-6.2478e-09
1.20291e-08
1.73784e-06
-5.66989e-09
1.1427e-08
1.74469e-06
-5.12671e-09
1.09663e-08
1.75132e-06
-4.58961e-09
1.06605e-08
1.75777e-06
-4.02244e-09
1.05087e-08
1.76414e-06
-3.39304e-09
1.05138e-08
1.77056e-06
-2.66462e-09
1.06696e-08
1.77716e-06
-1.81871e-09
1.09213e-08
-9.02737e-10
1.11535e-08
1.53312e-06
-4.57735e-09
3.64923e-09
1.54218e-06
-1.19172e-08
9.63362e-09
1.55328e-06
-1.64471e-08
1.36913e-08
1.56445e-06
-1.85606e-08
1.59358e-08
1.57508e-06
-1.89302e-08
1.69105e-08
1.58472e-06
-1.82218e-08
1.69435e-08
1.59302e-06
-1.67154e-08
1.63742e-08
1.6001e-06
-1.50415e-08
1.54426e-08
1.60628e-06
-1.34967e-08
1.43394e-08
1.6118e-06
-1.21575e-08
1.3243e-08
1.61694e-06
-1.10151e-08
1.22474e-08
1.62185e-06
-1.00521e-08
1.13785e-08
1.62666e-06
-9.23812e-09
1.0632e-08
1.63149e-06
-8.53311e-09
9.99028e-09
1.63639e-06
-7.90022e-09
9.4289e-09
1.64143e-06
-7.2942e-09
8.91845e-09
1.64663e-06
-6.66541e-09
8.43272e-09
1.65202e-06
-5.97577e-09
7.95387e-09
1.65766e-06
-5.24501e-09
7.48809e-09
-4.80197e-09
7.16092e-09
1.37712e-06
-6.10272e-09
4.57711e-09
1.38565e-06
-1.61834e-08
1.19165e-08
1.39417e-06
-2.07076e-08
1.64457e-08
1.40126e-06
-2.21065e-08
1.85584e-08
1.40642e-06
-2.15085e-08
1.89265e-08
1.40952e-06
-1.97742e-08
1.82161e-08
1.41095e-06
-1.74323e-08
1.67058e-08
1.41155e-06
-1.53417e-08
1.50265e-08
1.41184e-06
-1.36505e-08
1.34722e-08
1.41212e-06
-1.23031e-08
1.21182e-08
1.41254e-06
-1.12445e-08
1.09519e-08
1.41323e-06
-1.0426e-08
9.95065e-09
1.41426e-06
-9.79446e-09
9.07458e-09
1.41566e-06
-9.29681e-09
8.27244e-09
1.41744e-06
-8.89527e-09
7.49773e-09
1.41956e-06
-8.54043e-09
6.68593e-09
1.42189e-06
-8.16066e-09
5.76654e-09
1.42405e-06
-7.62515e-09
4.68037e-09
1.42526e-06
-6.71969e-09
3.45035e-09
-5.61569e-09
2.44468e-09
1.1589e-06
-6.33243e-09
5.28121e-09
1.1657e-06
-1.71262e-08
1.39983e-08
1.16844e-06
-1.8637e-08
1.79773e-08
1.16661e-06
-1.71488e-08
1.91778e-08
1.16221e-06
-1.53627e-08
1.88743e-08
1.15654e-06
-1.37936e-08
1.75417e-08
1.15047e-06
-1.23486e-08
1.56785e-08
1.14456e-06
-1.11321e-08
1.38743e-08
1.13912e-06
-1.0155e-08
1.22625e-08
1.13427e-06
-9.37381e-09
1.08466e-08
1.13001e-06
-8.79027e-09
9.66014e-09
1.1263e-06
-8.37865e-09
8.66151e-09
1.12313e-06
-8.09889e-09
7.779e-09
1.12047e-06
-7.91391e-09
6.93397e-09
1.11831e-06
-7.81174e-09
6.04734e-09
1.11664e-06
-7.77284e-09
5.02306e-09
1.11547e-06
-7.77557e-09
3.7155e-09
1.11464e-06
-7.69129e-09
1.90777e-09
1.11407e-06
-7.54019e-09
-6.28729e-10
-7.79037e-09
-4.114e-09
8.90375e-07
2.85249e-09
8.82485e-07
1.3408e-08
8.70357e-07
1.78661e-08
8.55109e-07
1.69531e-08
8.39975e-07
1.53365e-08
8.25522e-07
1.4164e-08
8.11746e-07
1.33692e-08
7.98739e-07
1.26572e-08
7.86645e-07
1.18565e-08
7.75469e-07
1.09906e-08
7.65061e-07
1.01474e-08
7.55257e-07
9.33739e-09
7.45918e-07
8.55507e-09
7.36945e-07
7.76535e-09
7.28279e-07
6.88452e-09
7.19891e-07
5.77187e-09
7.1173e-07
4.31059e-09
7.03485e-07
1.92313e-09
6.93919e-07
-2.04331e-09
-5.31759e-09
1.07432e-06
5.56895e-09
1.06465e-09
1.06824e-06
1.39005e-08
5.58597e-09
1.06138e-06
1.6262e-08
8.46298e-09
1.05338e-06
1.59089e-08
9.03808e-09
1.0451e-06
1.50019e-08
8.61451e-09
1.03722e-06
1.39331e-08
8.11415e-09
1.02983e-06
1.29772e-08
7.77486e-09
1.02284e-06
1.21151e-08
7.53372e-09
1.01601e-06
1.13456e-08
7.333e-09
1.00927e-06
1.06923e-08
7.02292e-09
1.00267e-06
1.01969e-08
6.54148e-09
9.96172e-07
9.83118e-09
5.97484e-09
9.8975e-07
9.56834e-09
5.36619e-09
9.83362e-07
9.39108e-09
4.69262e-09
9.76966e-07
9.27399e-09
3.89972e-09
9.70534e-07
9.17381e-09
2.80864e-09
9.6404e-07
9.05527e-09
1.22644e-09
9.57289e-07
8.90824e-09
-1.16003e-09
9.49647e-07
8.79826e-09
-4.80106e-09
8.54538e-09
-1.10409e-08
1.32763e-06
4.9311e-09
2.71807e-09
1.33539e-06
1.30089e-08
7.12041e-09
1.34287e-06
1.72157e-08
9.55262e-09
1.34848e-06
1.88992e-08
1.05765e-08
1.35198e-06
1.95013e-08
1.08724e-08
1.35377e-06
1.91157e-08
1.05753e-08
1.35444e-06
1.81018e-08
9.88257e-09
1.35459e-06
1.68134e-08
9.03014e-09
1.35457e-06
1.54678e-08
8.16652e-09
1.35453e-06
1.42395e-08
7.34611e-09
1.35455e-06
1.3256e-08
6.59492e-09
1.35469e-06
1.24843e-08
5.90177e-09
1.35496e-06
1.18806e-08
5.24952e-09
1.35541e-06
1.14065e-08
4.58569e-09
1.35606e-06
1.10206e-08
3.83223e-09
1.35691e-06
1.06835e-08
2.92171e-09
1.35791e-06
1.03609e-08
1.74497e-09
1.35899e-06
1.00295e-08
1.86347e-10
1.36007e-06
9.69394e-09
-1.88556e-09
9.38779e-09
-4.44724e-09
1.53312e-06
3.64921e-09
2.36592e-09
1.54218e-06
9.63357e-09
6.23859e-09
1.55328e-06
1.36912e-08
8.87296e-09
1.56445e-06
1.59357e-08
1.03465e-08
1.57508e-06
1.69103e-08
1.08988e-08
1.58472e-06
1.69433e-08
1.07532e-08
1.59302e-06
1.63739e-08
1.01411e-08
1.60011e-06
1.54422e-08
9.32734e-09
1.60628e-06
1.43389e-08
8.45328e-09
1.61181e-06
1.32424e-08
7.62713e-09
1.61694e-06
1.22467e-08
6.89258e-09
1.62185e-06
1.13776e-08
6.24762e-09
1.62667e-06
1.06309e-08
5.66965e-09
1.63149e-06
9.98916e-09
5.12654e-09
1.63639e-06
9.42771e-09
4.58943e-09
1.64143e-06
8.917e-09
4.02201e-09
1.64664e-06
8.43109e-09
3.39227e-09
1.65203e-06
7.95224e-09
2.66336e-09
1.65766e-06
7.48656e-09
1.81651e-09
7.15942e-09
8.98514e-10
1.68027e-06
1.89095e-09
1.89111e-09
1.68934e-06
5.09907e-09
5.09956e-09
1.7018e-06
7.46372e-09
7.46466e-09
1.71578e-06
8.94517e-09
8.94671e-09
1.73022e-06
9.69147e-09
9.69396e-09
1.74439e-06
9.85856e-09
9.86252e-09
1.75785e-06
9.64877e-09
9.65478e-09
1.77036e-06
9.19394e-09
9.20289e-09
1.78185e-06
8.60577e-09
8.61885e-09
1.79241e-06
7.97725e-09
7.99661e-09
1.80221e-06
7.37207e-09
7.40165e-09
1.81141e-06
6.82045e-09
6.86704e-09
1.82015e-06
6.32942e-09
6.40447e-09
1.82856e-06
5.89285e-09
6.01303e-09
1.83676e-06
5.49814e-09
5.6824e-09
1.84488e-06
5.13635e-09
5.40395e-09
1.85304e-06
4.80045e-09
5.17199e-09
1.86134e-06
4.48272e-09
4.9788e-09
1.86994e-06
4.18544e-09
4.79189e-09
3.98906e-09
4.58883e-09
1.7569e-06
2.72206e-15
1.61332e-09
1.76589e-06
-4.13831e-14
4.3844e-09
1.77878e-06
-9.51664e-14
6.53232e-09
1.79389e-06
-1.6388e-13
7.952e-09
1.81003e-06
-2.71287e-13
8.75724e-09
1.82639e-06
-4.40492e-13
9.08817e-09
1.8424e-06
-6.38992e-13
9.07598e-09
1.85772e-06
-6.35802e-13
8.84199e-09
1.87216e-06
-3.78729e-13
8.47164e-09
1.88566e-06
7.20916e-14
8.03173e-09
1.89824e-06
4.08314e-13
7.57482e-09
1.91001e-06
9.80855e-15
7.14013e-09
1.92112e-06
-2.14128e-12
6.7557e-09
1.93172e-06
-6.35513e-12
6.4421e-09
1.94193e-06
-1.04059e-11
6.21749e-09
1.95191e-06
-1.0329e-11
6.08951e-09
1.96179e-06
-4.66185e-12
6.05858e-09
1.97174e-06
3.55411e-12
6.11342e-09
1.98186e-06
1.35165e-11
6.22375e-09
4.68605e-11
6.31325e-09
1.7569e-06
-1.89111e-09
1.61321e-09
1.76589e-06
-5.09957e-09
4.38409e-09
1.77878e-06
-7.46467e-09
6.5317e-09
1.79389e-06
-8.94673e-09
7.9509e-09
1.81003e-06
-9.69398e-09
8.75544e-09
1.82639e-06
-9.86255e-09
9.08539e-09
1.84241e-06
-9.65482e-09
9.07194e-09
1.85773e-06
-9.20295e-09
8.83602e-09
1.87218e-06
-8.61893e-09
8.46268e-09
1.88568e-06
-7.99671e-09
8.01813e-09
1.89827e-06
-7.40179e-09
7.55393e-09
1.91006e-06
-6.86722e-09
7.1078e-09
1.92119e-06
-6.40472e-09
6.70557e-09
1.93179e-06
-6.01336e-09
6.36452e-09
1.94203e-06
-5.68288e-09
6.09861e-09
1.95202e-06
-5.40464e-09
5.91434e-09
1.96189e-06
-5.17301e-09
5.81217e-09
1.97175e-06
-4.98033e-09
5.78593e-09
1.98166e-06
-4.79422e-09
5.82147e-09
-4.59211e-09
5.8651e-09
1.68027e-06
-3.64953e-09
1.89097e-09
1.68934e-06
-9.63452e-09
5.09914e-09
1.7018e-06
-1.3693e-08
7.46385e-09
1.71578e-06
-1.5939e-08
8.94535e-09
1.73022e-06
-1.69158e-08
9.69171e-09
1.74439e-06
-1.6952e-08
9.85889e-09
1.75785e-06
-1.63871e-08
9.64919e-09
1.77036e-06
-1.54634e-08
9.19447e-09
1.78185e-06
-1.43714e-08
8.60641e-09
1.79241e-06
-1.3293e-08
7.97803e-09
1.80221e-06
-1.23281e-08
7.37301e-09
1.8114e-06
-1.15081e-08
6.82157e-09
1.82014e-06
-1.08418e-08
6.33072e-09
1.82855e-06
-1.03277e-08
5.89433e-09
1.83676e-06
-9.96076e-09
5.49981e-09
1.84488e-06
-9.7443e-09
5.13826e-09
1.85303e-06
-9.69169e-09
4.80257e-09
1.86133e-06
-9.81607e-09
4.48497e-09
1.86992e-06
-1.00846e-08
4.18769e-09
-1.04282e-08
3.9908e-09
1.53312e-06
-4.93129e-09
2.366e-09
1.54218e-06
-1.30095e-08
6.23876e-09
1.55327e-06
-1.72171e-08
8.87326e-09
1.56445e-06
-1.89025e-08
1.03471e-08
1.57507e-06
-1.95074e-08
1.08995e-08
1.5847e-06
-1.91251e-08
1.07544e-08
1.59299e-06
-1.81164e-08
1.01432e-08
1.60006e-06
-1.68365e-08
9.33116e-09
1.60621e-06
-1.55033e-08
8.45989e-09
1.61169e-06
-1.42971e-08
7.63987e-09
1.61675e-06
-1.33549e-08
6.91597e-09
1.62156e-06
-1.26497e-08
6.28735e-09
1.62621e-06
-1.21504e-08
5.73005e-09
1.63078e-06
-1.18434e-08
5.21477e-09
1.63533e-06
-1.17342e-08
4.72826e-09
1.63987e-06
-1.18541e-08
4.25534e-09
1.64443e-06
-1.22716e-08
3.78331e-09
1.64906e-06
-1.30669e-08
3.30256e-09
1.65387e-06
-1.42932e-08
2.8419e-09
-1.64384e-08
2.5082e-09
1.32762e-06
-5.56894e-09
2.71825e-09
1.33539e-06
-1.39005e-08
7.12091e-09
1.34286e-06
-1.62625e-08
9.55353e-09
1.34847e-06
-1.59106e-08
1.05783e-08
1.35197e-06
-1.50054e-08
1.08759e-08
1.35374e-06
-1.39386e-08
1.05814e-08
1.35439e-06
-1.29853e-08
9.8931e-09
1.35451e-06
-1.21282e-08
9.04789e-09
1.35444e-06
-1.13678e-08
8.19688e-09
1.35432e-06
-1.0731e-08
7.40116e-09
1.3542e-06
-1.02637e-08
6.69024e-09
1.3541e-06
-9.94806e-09
6.06046e-09
1.35401e-06
-9.76987e-09
5.49139e-09
1.35388e-06
-9.73737e-09
4.95756e-09
1.35363e-06
-9.8734e-09
4.43403e-09
1.35313e-06
-1.02345e-08
3.89952e-09
1.35221e-06
-1.09503e-08
3.32259e-09
1.35053e-06
-1.21653e-08
2.67801e-09
1.34722e-06
-1.36544e-08
2.04985e-09
-2.10201e-08
2.15222e-09
1.07432e-06
1.06483e-09
1.06824e-06
5.58662e-09
1.06138e-06
8.46422e-09
1.05338e-06
9.04018e-09
1.04509e-06
8.61863e-09
1.03719e-06
8.12211e-09
1.02979e-06
7.78954e-09
1.02276e-06
7.55938e-09
1.01587e-06
7.37809e-09
1.00903e-06
7.09819e-09
1.00225e-06
6.66488e-09
9.95462e-07
6.17553e-09
9.88551e-07
5.69599e-09
9.81338e-07
5.24115e-09
9.7355e-07
4.79894e-09
9.64774e-07
4.31406e-09
9.54295e-07
3.8392e-09
9.41013e-07
3.03935e-09
9.23474e-07
1.84105e-09
2.03626e-09
1.16914e-06
4.90662e-09
-7.69441e-14
1.16312e-06
1.16087e-08
-3.88997e-13
1.15731e-06
1.42761e-08
-9.62455e-13
1.15201e-06
1.43346e-08
-1.75357e-12
1.1469e-06
1.37322e-08
-3.06489e-12
1.14205e-06
1.29723e-08
-5.48331e-12
1.13773e-06
1.21052e-08
-9.93435e-12
1.13396e-06
1.13152e-08
-1.73403e-11
1.13066e-06
1.06617e-08
-2.99822e-11
1.12753e-06
1.02093e-08
-5.10549e-11
1.12423e-06
9.92645e-09
-8.61957e-11
1.12061e-06
9.7413e-09
-1.44595e-10
1.11655e-06
9.66492e-09
-2.4227e-10
1.11192e-06
9.72798e-09
-4.06585e-10
1.10656e-06
9.94831e-09
-6.82718e-10
1.10014e-06
1.03679e-08
-1.13978e-09
1.09222e-06
1.11014e-08
-1.95353e-09
1.08202e-06
1.22744e-08
-3.23922e-09
1.06882e-06
1.39641e-08
-5.56129e-09
1.6391e-08
-1.05827e-08
1.41518e-06
4.19297e-09
-1.60675e-13
1.42279e-06
1.11163e-08
-4.67198e-13
1.43152e-06
1.50993e-08
-7.97354e-13
1.4398e-06
1.66306e-08
-1.52168e-12
1.44713e-06
1.7278e-08
-2.95236e-12
1.45317e-06
1.75144e-08
-5.3375e-12
1.45801e-06
1.716e-08
-8.99931e-12
1.46192e-06
1.6448e-08
-1.49795e-11
1.4652e-06
1.55679e-08
-2.56074e-11
1.46811e-06
1.46981e-08
-4.48106e-11
1.4708e-06
1.39031e-08
-7.69251e-11
1.47334e-06
1.32344e-08
-1.30107e-10
1.47569e-06
1.27794e-08
-2.10902e-10
1.47779e-06
1.2547e-08
-3.33292e-10
1.47961e-06
1.24891e-08
-5.30071e-10
1.48112e-06
1.26132e-08
-8.34141e-10
1.48227e-06
1.29928e-08
-1.29985e-09
1.48303e-06
1.37062e-08
-1.99789e-09
1.48339e-06
1.47049e-08
-2.99505e-09
1.5683e-08
-4.33572e-09
1.61424e-06
3.0929e-09
-1.1892e-13
1.62332e-06
8.27418e-09
-2.77599e-13
1.63533e-06
1.19574e-08
-4.90236e-13
1.6482e-06