/*--------------------------------*- C++ -*----------------------------------*\
| =========                 |                                                 |
| \\      /  F ield         | OpenFOAM: The Open Source CFD Toolbox           |
|  \\    /   O peration     | Version:  2212                                  |
|   \\  /    A nd           | Website:  www.openfoam.com                      |
|    \\/     M anipulation  |                                                 |
\*---------------------------------------------------------------------------*/
FoamFile
{
    version     2.0;
    format      ascii;
    arch        "LSB;label=32;scalar=64";
    class       volVectorField;
    location    "2.2";
    object      U;
}
// * * * * * * * * * * * * * * * * * * * * * * * * * * * * * * * * * * * * * //

dimensions      [0 1 -1 0 0 0 0];

internalField   nonuniform List<vector> 
6840
(
(0.0956456 -0.00836006 -0.00836005)
(0.0904939 0.00152199 0.00152205)
(0.0790684 0.00242964 0.00242975)
(0.0713014 0.00148759 0.00148785)
(0.0661798 0.000830167 0.000830687)
(0.0623233 0.000563061 0.000563909)
(0.059222 0.000425059 0.000426998)
(0.0566868 0.00032176 0.000325143)
(0.054553 0.000249481 0.000255002)
(0.0527028 0.000196826 0.000205821)
(0.0510682 0.000156641 0.000171868)
(0.0496128 0.000124187 0.000149375)
(0.0483062 9.47127e-05 0.000134095)
(0.0471235 6.49327e-05 0.00012453)
(0.0460581 2.79726e-05 0.00012038)
(0.0451218 5.76282e-06 0.00012264)
(0.0443564 -5.63221e-05 0.000140058)
(0.0439099 -0.000208482 0.000133445)
(0.044447 -0.000424167 4.39441e-05)
(0.0427993 -0.00273853 -0.00180054)
(0.0999088 0.001297 0.00071257)
(0.0969669 0.00365579 0.00274729)
(0.0935346 0.00264009 0.00211824)
(0.0895893 0.00182017 0.00162073)
(0.0858323 0.00152827 0.0013908)
(0.0825903 0.00135046 0.00116162)
(0.0798654 0.00117807 0.000897792)
(0.0775672 0.00103836 0.000693353)
(0.0755578 0.000939133 0.000562495)
(0.073751 0.000859512 0.000483187)
(0.0721005 0.00078257 0.000438997)
(0.0705774 0.000702253 0.000415947)
(0.0691628 0.000622769 0.00040467)
(0.0678448 0.000542748 0.000399959)
(0.0666169 0.000449163 0.000407085)
(0.0654858 0.00031009 0.00041882)
(0.064488 0.000116376 0.000430829)
(0.0637389 -0.000237276 0.000367615)
(0.063651 -0.000960791 0.00012386)
(0.062465 -0.00368677 -0.00165701)
(0.099413 0.000345206 0.000270236)
(0.0988664 0.00201892 0.00187494)
(0.0979214 0.0025729 0.00218911)
(0.0963658 0.00237947 0.00190854)
(0.0946333 0.00211348 0.00162689)
(0.092972 0.00192578 0.00141902)
(0.0913636 0.00179986 0.00127183)
(0.0898529 0.00170278 0.00116103)
(0.0884528 0.00160046 0.0010715)
(0.087155 0.00148711 0.00100094)
(0.0859517 0.00137172 0.000954661)
(0.0848273 0.0012595 0.000930633)
(0.0837626 0.00114761 0.00092482)
(0.0827435 0.00102782 0.00093372)
(0.0817607 0.000888611 0.00095662)
(0.08081 0.000713932 0.000994997)
(0.079883 0.000480294 0.00105123)
(0.0789639 6.04791e-05 0.00112145)
(0.0780037 -0.000699762 0.00122186)
(0.0765567 -0.00202746 0.00148189)
(0.0995405 0.000245016 0.000321903)
(0.0992576 0.00105549 0.00154096)
(0.0988488 0.0015021 0.00211458)
(0.0981246 0.00157902 0.00209184)
(0.0973364 0.0015142 0.00188652)
(0.0965839 0.0014454 0.00166652)
(0.0958636 0.00140838 0.00149898)
(0.0951945 0.00137599 0.00137318)
(0.0945631 0.00132847 0.00128794)
(0.0939133 0.00125397 0.00123536)
(0.093277 0.00115864 0.00120232)
(0.0926495 0.00105331 0.00118683)
(0.0920174 0.000945694 0.00118734)
(0.091366 0.000835821 0.00120454)
(0.0906754 0.000714669 0.00124292)
(0.089917 0.000566061 0.00131133)
(0.0890428 0.000382007 0.0014265)
(0.0879455 8.94671e-05 0.0016186)
(0.0865725 -0.000386253 0.00182656)
(0.0852002 -0.000706126 0.00345432)
(0.0993802 3.37715e-05 5.89585e-05)
(0.0992677 0.000274368 0.00120006)
(0.0989803 0.000432341 0.00188855)
(0.0984744 0.00048341 0.00200661)
(0.097995 0.000478754 0.00191493)
(0.0975698 0.000465376 0.00173516)
(0.0971789 0.000452627 0.00154794)
(0.0968274 0.000441992 0.00138967)
(0.0965242 0.000435631 0.00127207)
(0.0962643 0.000427385 0.00120316)
(0.0959809 0.000409617 0.00117873)
(0.0956716 0.0003848 0.00118166)
(0.0953292 0.000358522 0.00120008)
(0.0949312 0.000336561 0.00123619)
(0.0944566 0.000326113 0.00130118)
(0.0938685 0.00032587 0.00140441)
(0.0931136 0.000353949 0.00157044)
(0.0920818 0.00038699 0.00184559)
(0.0906032 0.000494824 0.00227206)
(0.0889291 0.000703408 0.0031205)
(0.0993801 -3.37513e-05 5.89255e-05)
(0.0992677 -0.000274264 0.00120004)
(0.0989803 -0.000432107 0.00188855)
(0.0984745 -0.000482985 0.00200656)
(0.0979954 -0.00047799 0.00191479)
(0.0975705 -0.000463965 0.00173486)
(0.0971803 -0.000450012 0.0015475)
(0.0968299 -0.000437381 0.00138892)
(0.0965285 -0.000427659 0.00127062)
(0.0962718 -0.000413832 0.00120049)
(0.0959939 -0.000386809 0.00117413)
(0.0956942 -0.000346783 0.00117389)
(0.0953688 -0.000295218 0.00118659)
(0.0950016 -0.000230631 0.00121118)
(0.094579 -0.000149502 0.00125419)
(0.0940818 -3.46896e-05 0.00132444)
(0.0934821 0.000141182 0.00143747)
(0.0927163 0.000421855 0.00160579)
(0.0917229 0.000873259 0.00184111)
(0.09087 0.00179131 0.00222537)
(0.0995405 -0.000245011 0.000321904)
(0.0992576 -0.00105547 0.00154096)
(0.098849 -0.00150205 0.00211449)
(0.098125 -0.00157892 0.00209169)
(0.0973373 -0.0015139 0.00188627)
(0.0965857 -0.0014447 0.00166612)
(0.0958667 -0.00140707 0.00149852)
(0.0952 -0.0013738 0.0013724)
(0.0945728 -0.00132452 0.00128614)
(0.0939302 -0.00124762 0.00123129)
(0.0933059 -0.00114876 0.00119461)
(0.0926989 -0.00103805 0.00117239)
(0.0921013 -0.000921081 0.00116288)
(0.0915084 -0.000795583 0.00116398)
(0.090916 -0.000652554 0.00117203)
(0.0903201 -0.000459043 0.00118255)
(0.0897191 -0.000185969 0.00119283)
(0.0891035 0.000223459 0.00120921)
(0.0884476 0.00085089 0.00125142)
(0.0877171 0.0018463 0.00125123)
(0.099413 -0.000345221 0.000270231)
(0.0988664 -0.00201899 0.00187489)
(0.0979216 -0.00257305 0.00218892)
(0.0963662 -0.00237974 0.00190822)
(0.0946342 -0.0021139 0.00162644)
(0.0929736 -0.00192646 0.00141836)
(0.0913665 -0.00180086 0.00127075)
(0.0898582 -0.00170442 0.00115923)
(0.0884619 -0.00160319 0.00106859)
(0.0871704 -0.00149166 0.000996125)
(0.0859777 -0.0013793 0.000947084)
(0.0848714 -0.00127193 0.000917529)
(0.0838361 -0.00116738 0.000902209)
(0.0828647 -0.00105842 0.000895577)
(0.0819589 -0.000935117 0.000891278)
(0.0811385 -0.000780125 0.000874918)
(0.0804481 -0.000565828 0.000832975)
(0.0799417 -0.000196447 0.000697465)
(0.0797142 0.000493985 0.000451984)
(0.0789653 0.00218804 -0.000319083)
(0.0999088 -0.00129701 0.000712555)
(0.0969669 -0.00365589 0.00274721)
(0.0935346 -0.00264024 0.00211808)
(0.0895895 -0.00182044 0.00162043)
(0.0858325 -0.00152886 0.00139036)
(0.0825908 -0.00135138 0.00116083)
(0.0798664 -0.00117971 0.000896499)
(0.077569 -0.00104116 0.000691258)
(0.0755613 -0.000943964 0.000558996)
(0.073757 -0.000867873 0.00047729)
(0.0721115 -0.000796992 0.000427601)
(0.0705978 -0.000726192 0.000396193)
(0.0691986 -0.000661135 0.000377387)
(0.0679027 -0.000605968 0.000370936)
(0.0667084 -0.000555465 0.000366272)
(0.0656321 -0.000500631 0.00033883)
(0.0647416 -0.000412521 0.000276056)
(0.064212 -0.000207873 5.00521e-05)
(0.06463 0.000157407 -0.000337651)
(0.0625017 0.00067032 -0.000930442)
(0.0956456 0.00836005 -0.00836006)
(0.0904939 -0.00152205 0.00152199)
(0.0790684 -0.00242975 0.00242964)
(0.0713013 -0.00148785 0.00148759)
(0.0661798 -0.00083068 0.000830173)
(0.0623233 -0.000563901 0.000563071)
(0.0592219 -0.000426984 0.000425074)
(0.0566867 -0.000325125 0.00032178)
(0.054553 -0.00025498 0.000249505)
(0.0527027 -0.000205796 0.000196857)
(0.0510681 -0.000171837 0.000156678)
(0.0496127 -0.000149335 0.000124232)
(0.048306 -0.000134066 9.479e-05)
(0.0471233 -0.000124464 6.50176e-05)
(0.0460579 -0.000120285 2.80611e-05)
(0.0451215 -0.000122545 5.85862e-06)
(0.0443559 -0.000139919 -5.61407e-05)
(0.0439094 -0.000133239 -0.000208272)
(0.0444464 -4.37214e-05 -0.000423921)
(0.0427987 0.00180062 -0.00273796)
(0.0999088 0.000712554 0.00129701)
(0.0969669 0.00274721 0.00365589)
(0.0935347 0.00211808 0.00264024)
(0.0895895 0.00162042 0.00182044)
(0.0858326 0.00139036 0.00152887)
(0.0825908 0.00116082 0.00135139)
(0.0798664 0.000896491 0.00117972)
(0.0775691 0.000691246 0.00104117)
(0.0755613 0.00055898 0.000943972)
(0.0737571 0.000477268 0.000867883)
(0.0721116 0.000427571 0.000797002)
(0.0705979 0.000396152 0.000726201)
(0.0691989 0.000377332 0.000661142)
(0.0679028 0.000370849 0.000605986)
(0.0667088 0.000366168 0.000555525)
(0.0656327 0.000338694 0.000500693)
(0.0647423 0.000275898 0.000412557)
(0.0642128 4.99096e-05 0.00020798)
(0.0646309 -0.000337739 -0.000157164)
(0.062503 -0.000930714 -0.000670047)
(0.100226 0.000720794 0.000720816)
(0.0999601 0.00198268 0.00198279)
(0.0997824 0.00245171 0.00245197)
(0.0987884 0.00241938 0.00241984)
(0.097276 0.00220045 0.00220116)
(0.0957754 0.00181091 0.00181218)
(0.094394 0.00138144 0.00138351)
(0.0931659 0.0010684 0.00107188)
(0.0920803 0.000850929 0.000856898)
(0.0911205 0.000696406 0.000706705)
(0.0902721 0.000579888 0.000598453)
(0.0895126 0.000488826 0.000519111)
(0.0888245 0.000418026 0.000463116)
(0.0882091 0.00035773 0.000422589)
(0.0876718 0.000288281 0.000391834)
(0.0872226 0.000197386 0.000364967)
(0.086872 5.45009e-05 0.000328105)
(0.0865993 -0.000204886 0.000236759)
(0.0862363 -0.000754511 -0.000100581)
(0.0861372 -0.00208936 -0.00108707)
(0.10014 0.000774985 0.000869277)
(0.100454 0.0019623 0.00196367)
(0.100911 0.00242733 0.00233476)
(0.100978 0.00252622 0.00244168)
(0.100694 0.00242566 0.00233741)
(0.100224 0.00219643 0.0021134)
(0.0997088 0.00191494 0.00182471)
(0.0991834 0.00166299 0.00157805)
(0.0986884 0.00145796 0.00139415)
(0.0982405 0.00128782 0.00125732)
(0.0978467 0.00114491 0.00115907)
(0.097503 0.00102177 0.00109277)
(0.0972062 0.000909699 0.0010504)
(0.0969548 0.0007976 0.00102563)
(0.0967467 0.000675695 0.00101788)
(0.096582 0.000527363 0.00102588)
(0.0964598 0.000328443 0.00104724)
(0.0963757 4.41358e-05 0.00107711)
(0.0963034 -0.000359811 0.00110745)
(0.0963857 -0.000864067 0.00112627)
(0.100093 0.000445897 0.000763222)
(0.100504 0.00119439 0.00174908)
(0.101105 0.00158663 0.00212971)
(0.101634 0.00174018 0.00223513)
(0.101979 0.00178189 0.00228799)
(0.102171 0.0017284 0.00223735)
(0.102251 0.00160713 0.00211811)
(0.102274 0.00145876 0.00196805)
(0.102275 0.00130249 0.00180757)
(0.102265 0.00115253 0.00166155)
(0.102253 0.00102161 0.00155893)
(0.102245 0.000907892 0.00149228)
(0.102237 0.000802223 0.0014546)
(0.102229 0.000697002 0.0014444)
(0.102217 0.000584451 0.00146403)
(0.102192 0.000456862 0.00152037)
(0.102141 0.000299848 0.0016288)
(0.10204 9.29907e-05 0.00180746)
(0.101875 -0.000177265 0.00206485)
(0.10205 -0.000400231 0.00247402)
(0.100087 0.000144393 0.000707033)
(0.100477 0.000390515 0.00161784)
(0.101065 0.000541146 0.00203472)
(0.101694 0.000610234 0.00211782)
(0.102268 0.000636199 0.00215076)
(0.102741 0.000627178 0.0021809)
(0.103122 0.000595412 0.00213584)
(0.103425 0.000550334 0.00204714)
(0.103676 0.000505772 0.00193985)
(0.103891 0.000464484 0.00183756)
(0.104082 0.000423244 0.00174474)
(0.104261 0.000383685 0.00166832)
(0.104425 0.000349168 0.00162703)
(0.104562 0.000319202 0.00162447)
(0.104673 0.000294366 0.00165217)
(0.104756 0.000276382 0.00172485)
(0.104795 0.000267106 0.00186411)
(0.104787 0.000270188 0.00210023)
(0.104748 0.000297121 0.00244939)
(0.105005 0.000374925 0.00286307)
(0.100087 -0.000144357 0.00070703)
(0.100477 -0.000390406 0.00161783)
(0.101066 -0.000540955 0.00203473)
(0.101694 -0.000609883 0.00211777)
(0.102269 -0.000635507 0.00215052)
(0.102742 -0.0006259 0.00218043)
(0.103124 -0.000593254 0.00213508)
(0.103427 -0.000546711 0.00204594)
(0.103679 -0.000499475 0.00193802)
(0.103896 -0.000453402 0.00183456)
(0.104091 -0.000404229 0.00173979)
(0.104276 -0.00035178 0.0016595)
(0.104451 -0.000297923 0.001611)
(0.104608 -0.000238024 0.00159742)
(0.104746 -0.000164596 0.00161008)
(0.104866 -7.22149e-05 0.00165084)
(0.104961 5.15351e-05 0.00173343)
(0.105026 0.000222611 0.00187544)
(0.105075 0.000454606 0.00207504)
(0.10538 0.000752039 0.00228278)
(0.100093 -0.000445899 0.000763214)
(0.100504 -0.0011944 0.00174906)
(0.101105 -0.00158664 0.00212959)
(0.101635 -0.00174014 0.00223472)
(0.10198 -0.00178179 0.00228717)
(0.102172 -0.00172824 0.00223615)
(0.102254 -0.00160676 0.0021163)
(0.102279 -0.00145806 0.0019653)
(0.102282 -0.00130139 0.00180343)
(0.102276 -0.00115027 0.00165493)
(0.102272 -0.00101774 0.00154736)
(0.102278 -0.000901566 0.00147256)
(0.102293 -0.000794553 0.00142145)
(0.10232 -0.000687494 0.00138885)
(0.10236 -0.000568783 0.00137076)
(0.102417 -0.000427973 0.00136375)
(0.102487 -0.000249053 0.00136449)
(0.102566 -1.41139e-05 0.00137154)
(0.102658 0.000288288 0.00138965)
(0.102862 0.000625948 0.00142015)
(0.10014 -0.000775013 0.000869245)
(0.100454 -0.00196238 0.00196352)
(0.100911 -0.00242749 0.00233439)
(0.100978 -0.00252655 0.00244108)
(0.100694 -0.00242623 0.00233652)
(0.100225 -0.00219742 0.00211223)
(0.0997105 -0.00191649 0.00182289)
(0.0991864 -0.00166532 0.00157482)
(0.0986937 -0.00146197 0.0013886)
(0.0982499 -0.00129485 0.00124809)
(0.0978625 -0.00115629 0.0011436)
(0.0975297 -0.00104097 0.00106738)
(0.0972487 -0.000942645 0.00100936)
(0.0970193 -0.00085407 0.000960558)
(0.0968442 -0.000764962 0.000913939)
(0.0967261 -0.000662326 0.000856443)
(0.0966644 -0.000525657 0.000764061)
(0.096644 -0.000329245 0.00060325)
(0.0965995 -3.82396e-05 0.000345975)
(0.0966868 0.000425751 -6.57928e-05)
(0.100226 -0.000720816 0.000720794)
(0.0999601 -0.00198279 0.00198268)
(0.0997824 -0.00245197 0.00245172)
(0.0987884 -0.00241983 0.00241938)
(0.0972759 -0.00220116 0.00220046)
(0.0957754 -0.00181217 0.00181093)
(0.094394 -0.0013835 0.00138146)
(0.0931658 -0.00107186 0.00106842)
(0.0920802 -0.00085688 0.00085096)
(0.0911205 -0.000706681 0.000696445)
(0.090272 -0.00059842 0.000579936)
(0.0895125 -0.000519071 0.00048889)
(0.0888244 -0.000463139 0.000418181)
(0.0882089 -0.000422505 0.000357814)
(0.0876716 -0.000391628 0.000288286)
(0.0872223 -0.000364851 0.000197557)
(0.0868716 -0.00032796 5.47123e-05)
(0.0865989 -0.000236507 -0.000204694)
(0.0862357 0.00010097 -0.000754312)
(0.0861362 0.00108741 -0.00208889)
(0.0999088 -0.00071257 0.001297)
(0.0969669 -0.00274728 0.00365579)
(0.0935346 -0.00211823 0.0026401)
(0.0895893 -0.00162073 0.00182018)
(0.0858322 -0.0013908 0.00152829)
(0.0825902 -0.00116161 0.00135048)
(0.0798654 -0.000897782 0.00117809)
(0.0775671 -0.00069334 0.00103838)
(0.0755578 -0.000562479 0.000939166)
(0.073751 -0.000483167 0.000859553)
(0.0721004 -0.00043897 0.000782619)
(0.0705773 -0.00041591 0.000702313)
(0.0691626 -0.000404613 0.000622835)
(0.0678447 -0.000399944 0.000542896)
(0.0666166 -0.000407078 0.000449418)
(0.0654854 -0.000418773 0.000310416)
(0.0644875 -0.000430716 0.000116721)
(0.0637384 -0.000367338 -0.000236876)
(0.0636506 -0.000123258 -0.000960304)
(0.0624653 0.00165825 -0.00368577)
(0.099413 0.000270231 0.000345221)
(0.0988664 0.00187488 0.00201899)
(0.0979216 0.00218892 0.00257305)
(0.0963663 0.00190822 0.00237974)
(0.0946342 0.00162643 0.0021139)
(0.0929736 0.00141835 0.00192646)
(0.0913666 0.00127074 0.00180086)
(0.0898582 0.00115921 0.00170442)
(0.088462 0.00106857 0.00160319)
(0.0871705 0.000996102 0.00149166)
(0.0859778 0.000947054 0.0013793)
(0.0848715 0.000917484 0.00127193)
(0.0838364 0.000902152 0.00116738)
(0.0828649 0.000895462 0.00105839)
(0.0819593 0.000891109 0.000935062)
(0.0811391 0.000874741 0.000780085)
(0.0804488 0.000832771 0.000565815)
(0.0799425 0.000697181 0.000196432)
(0.0797152 0.000451579 -0.000493992)
(0.0789669 -0.000319428 -0.00218789)
(0.10014 0.000869244 0.000775013)
(0.100454 0.00196352 0.00196238)
(0.100911 0.00233439 0.00242749)
(0.100979 0.00244107 0.00252655)
(0.100694 0.00233652 0.00242623)
(0.100225 0.00211222 0.00219743)
(0.0997105 0.00182287 0.0019165)
(0.0991865 0.00157479 0.00166532)
(0.0986938 0.00138857 0.00146198)
(0.0982499 0.00124805 0.00129486)
(0.0978626 0.00114354 0.0011563)
(0.0975298 0.00106729 0.00104097)
(0.0972488 0.00100921 0.000942609)
(0.0970195 0.000960479 0.000854127)
(0.0968444 0.000913888 0.000765075)
(0.0967263 0.000856263 0.000662356)
(0.0966647 0.000763802 0.00052565)
(0.0966443 0.000602988 0.000329259)
(0.0965998 0.000345719 3.82799e-05)
(0.0966871 -6.64682e-05 -0.000426011)
(0.10006 0.00064137 0.000641416)
(0.100502 0.00164496 0.00164512)
(0.101149 0.00221224 0.00221255)
(0.101738 0.00243971 0.00244024)
(0.102205 0.00244156 0.00244241)
(0.102502 0.00231295 0.00231426)
(0.102646 0.00209155 0.00209373)
(0.102716 0.00186745 0.00187091)
(0.102743 0.00166848 0.00167412)
(0.102759 0.0015005 0.00150971)
(0.102782 0.00135939 0.00137435)
(0.102821 0.00123993 0.00126399)
(0.102882 0.00113634 0.00117478)
(0.10297 0.00104144 0.00110237)
(0.103085 0.000946795 0.00104196)
(0.103228 0.000841855 0.000988098)
(0.103391 0.000714003 0.000933945)
(0.103559 0.000549665 0.000870375)
(0.103715 0.000343162 0.000787006)
(0.104016 0.000166096 0.000744225)
(0.100046 0.000395687 0.000540278)
(0.10048 0.00104478 0.0013842)
(0.101154 0.00147521 0.00192317)
(0.101913 0.00170502 0.00219293)
(0.102632 0.0017797 0.00229471)
(0.103301 0.00174424 0.0022793)
(0.103893 0.00163325 0.00218727)
(0.10439 0.00149004 0.0020553)
(0.104817 0.0013426 0.00190932)
(0.105194 0.00120596 0.00177259)
(0.105536 0.00108426 0.00165487)
(0.105856 0.000977177 0.00155853)
(0.106164 0.000880416 0.0014848)
(0.106465 0.000788947 0.00143379)
(0.106762 0.000700175 0.00140531)
(0.107059 0.00060841 0.00140177)
(0.107355 0.000508592 0.0014279)
(0.107653 0.000396594 0.00148897)
(0.10797 0.000277724 0.00158341)
(0.10844 0.000171944 0.00170891)
(0.100039 0.000131335 0.000478796)
(0.100448 0.0003505 0.00123486)
(0.101114 0.000505088 0.00174664)
(0.101909 0.000597209 0.00202709)
(0.102728 0.00063865 0.00215259)
(0.103529 0.000638374 0.00218727)
(0.104297 0.000604772 0.0021546)
(0.105006 0.000559675 0.00208151)
(0.105641 0.00051091 0.00198428)
(0.106213 0.000463454 0.00187961)
(0.106733 0.000420154 0.00178009)
(0.107212 0.000381809 0.00169474)
(0.107659 0.000347907 0.00163088)
(0.108085 0.000316948 0.00159196)
(0.108494 0.000288882 0.00157905)
(0.108887 0.000265432 0.00159569)
(0.109268 0.000246242 0.00164974)
(0.10965 0.000230533 0.00174952)
(0.110065 0.000220043 0.00188525)
(0.110603 0.000220476 0.00203185)
(0.100039 -0.000131311 0.000478782)
(0.100448 -0.000350439 0.00123482)
(0.101114 -0.000504976 0.00174654)
(0.101909 -0.000597016 0.00202693)
(0.102728 -0.000638304 0.00215225)
(0.103529 -0.000637788 0.0021867)
(0.104298 -0.000603726 0.00215374)
(0.105008 -0.000557942 0.00208018)
(0.105643 -0.00050797 0.00198222)
(0.106217 -0.000458432 0.00187626)
(0.10674 -0.000411747 0.00177444)
(0.107222 -0.000368195 0.00168509)
(0.107673 -0.000326783 0.00161463)
(0.108105 -0.000284903 0.00156583)
(0.108523 -0.000240224 0.00153857)
(0.108929 -0.000189496 0.00153236)
(0.109324 -0.000129652 0.00155081)
(0.109717 -5.69655e-05 0.00159714)
(0.110132 2.79751e-05 0.00166414)
(0.110654 0.000118806 0.00173251)
(0.100046 -0.000395706 0.000540238)
(0.10048 -0.00104484 0.00138408)
(0.101154 -0.00147532 0.00192292)
(0.101913 -0.00170516 0.00219247)
(0.102632 -0.00177996 0.00229392)
(0.103302 -0.00174467 0.00227802)
(0.103895 -0.00163398 0.00218527)
(0.104392 -0.00149117 0.00205202)
(0.10482 -0.00134441 0.00190425)
(0.1052 -0.00120861 0.00176465)
(0.105545 -0.00108825 0.00164193)
(0.105871 -0.000983311 0.00153756)
(0.106187 -0.000890589 0.00145053)
(0.106501 -0.000805593 0.00137823)
(0.106818 -0.000724769 0.00131688)
(0.107142 -0.000643251 0.00126204)
(0.107476 -0.000555922 0.00121029)
(0.10782 -0.000458229 0.00115958)
(0.108189 -0.000350651 0.00111027)
(0.108653 -0.000241464 0.00107866)
(0.10006 -0.000641416 0.000641371)
(0.100502 -0.00164512 0.00164497)
(0.101149 -0.00221255 0.00221225)
(0.101738 -0.00244024 0.00243972)
(0.102205 -0.00244241 0.00244158)
(0.102502 -0.00231426 0.00231297)
(0.102646 -0.00209372 0.00209158)
(0.102716 -0.00187091 0.00186749)
(0.102743 -0.00167411 0.00166853)
(0.102759 -0.0015097 0.00150056)
(0.102781 -0.00137433 0.00135947)
(0.102821 -0.00126397 0.00124003)
(0.102882 -0.00117476 0.00113646)
(0.10297 -0.00110234 0.00104157)
(0.103085 -0.00104192 0.000946925)
(0.103228 -0.000988048 0.000842008)
(0.103391 -0.000933872 0.000714163)
(0.103559 -0.000870278 0.00054981)
(0.103715 -0.000786912 0.000343295)
(0.104015 -0.000744359 0.000166418)
(0.10014 -0.000869277 0.000774987)
(0.100454 -0.00196367 0.0019623)
(0.100911 -0.00233476 0.00242734)
(0.100978 -0.00244168 0.00252623)
(0.100694 -0.0023374 0.00242567)
(0.100224 -0.00211339 0.00219645)
(0.0997087 -0.0018247 0.00191497)
(0.0991833 -0.00157804 0.00166303)
(0.0986884 -0.00139413 0.00145801)
(0.0982405 -0.0012573 0.00128789)
(0.0978466 -0.00115904 0.00114499)
(0.0975029 -0.00109271 0.00102185)
(0.0972061 -0.00105032 0.000909795)
(0.0969547 -0.00102559 0.000797773)
(0.0967465 -0.00101786 0.000675926)
(0.0965817 -0.00102576 0.000527573)
(0.0964595 -0.00104698 0.00032863)
(0.0963755 -0.00107669 4.4309e-05)
(0.096303 -0.0011067 -0.000359731)
(0.0963852 -0.00112475 -0.000864393)
(0.099413 -0.000270236 0.000345208)
(0.0988664 -0.00187494 0.00201892)
(0.0979214 -0.00218911 0.00257291)
(0.0963658 -0.00190854 0.00237948)
(0.0946333 -0.00162689 0.0021135)
(0.092972 -0.00141901 0.00192581)
(0.0913635 -0.00127182 0.00179989)
(0.0898529 -0.00116102 0.00170283)
(0.0884527 -0.00107148 0.00160051)
(0.0871549 -0.00100092 0.00148718)
(0.0859516 -0.000954629 0.0013718)
(0.0848272 -0.000930586 0.00125959)
(0.0837625 -0.000924744 0.00114771)
(0.0827434 -0.000933671 0.00102799)
(0.0817606 -0.000956594 0.000888882)
(0.0808098 -0.00099488 0.000714218)
(0.079883 -0.00105098 0.000480607)
(0.078964 -0.00112099 6.0899e-05)
(0.0780043 -0.00122097 -0.000699243)
(0.0765586 -0.00148024 -0.00202676)
(0.0995405 0.000321904 0.00024501)
(0.0992576 0.00154096 0.00105546)
(0.098849 0.00211449 0.00150204)
(0.098125 0.00209169 0.00157892)
(0.0973373 0.00188626 0.00151389)
(0.0965857 0.00166612 0.00144469)
(0.0958668 0.00149851 0.00140706)
(0.0952 0.00137239 0.00137379)
(0.0945729 0.00128613 0.00132451)
(0.0939303 0.00123127 0.00124761)
(0.093306 0.00119459 0.00114875)
(0.092699 0.00117235 0.00103804)
(0.0921015 0.00116282 0.000921072)
(0.0915087 0.00116387 0.000795551)
(0.0909164 0.00117188 0.000652502)
(0.0903206 0.00118236 0.00045901)
(0.0897197 0.00119258 0.000185966)
(0.0891043 0.00120887 -0.000223437)
(0.0884486 0.00125092 -0.000850803)
(0.0877185 0.0012506 -0.00184608)
(0.100093 0.000763213 0.000445899)
(0.100504 0.00174905 0.0011944)
(0.101105 0.00212959 0.00158664)
(0.101635 0.00223471 0.00174014)
(0.10198 0.00228716 0.00178179)
(0.102172 0.00223613 0.00172824)
(0.102254 0.00211628 0.00160676)
(0.102279 0.00196527 0.00145806)
(0.102282 0.0018034 0.00130139)
(0.102276 0.00165488 0.00115026)
(0.102273 0.0015473 0.00101773)
(0.102278 0.00147248 0.000901546)
(0.102293 0.00142132 0.000794517)
(0.10232 0.00138875 0.000687509)
(0.102361 0.00137066 0.000568829)
(0.102417 0.00136353 0.000427968)
(0.102487 0.00136417 0.000249005)
(0.102566 0.00137112 1.40274e-05)
(0.102658 0.0013891 -0.000288433)
(0.102862 0.00141939 -0.000626214)
(0.100046 0.000540237 0.000395706)
(0.10048 0.00138407 0.00104483)
(0.101154 0.00192291 0.00147531)
(0.101913 0.00219245 0.00170516)
(0.102632 0.0022939 0.00177996)
(0.103302 0.00227799 0.00174468)
(0.103895 0.00218524 0.00163398)
(0.104392 0.00205198 0.00149117)
(0.10482 0.0019042 0.00134441)
(0.1052 0.00176458 0.00120861)
(0.105546 0.00164184 0.00108825)
(0.105871 0.00153745 0.000983305)
(0.106187 0.0014504 0.000890578)
(0.106501 0.0013781 0.000805597)
(0.106818 0.00131674 0.000724777)
(0.107142 0.00126185 0.000643235)
(0.107476 0.00121008 0.000555879)
(0.107821 0.00115935 0.000458153)
(0.108189 0.00111003 0.000350496)
(0.108653 0.00107833 0.000241088)
(0.100036 0.000323124 0.000323159)
(0.100429 0.000868617 0.000868722)
(0.10108 0.00126228 0.00126248)
(0.101891 0.00150417 0.00150451)
(0.102756 0.00162123 0.00162178)
(0.103616 0.00164223 0.00164308)
(0.104446 0.00160391 0.00160518)
(0.105224 0.00152522 0.00152718)
(0.105939 0.00142509 0.00142813)
(0.106595 0.00131927 0.00132399)
(0.1072 0.001218 0.00122543)
(0.107764 0.00112591 0.00113763)
(0.108297 0.00104394 0.00106245)
(0.108807 0.000971114 0.00100009)
(0.109301 0.000905594 0.000950177)
(0.109786 0.000845185 0.000912208)
(0.110269 0.000787847 0.000885718)
(0.110757 0.000732015 0.000869439)
(0.11127 0.000678922 0.000859313)
(0.111863 0.000642456 0.000851476)
(0.100031 0.000107072 0.000281399)
(0.100395 0.000293032 0.000768684)
(0.101024 0.000434054 0.00113317)
(0.101843 0.000526187 0.00136938)
(0.102751 0.000576285 0.00150174)
(0.103688 0.000591641 0.0015547)
(0.104617 0.000582182 0.00154997)
(0.105515 0.000557506 0.00150946)
(0.106366 0.000523827 0.00144648)
(0.107163 0.000486641 0.00137143)
(0.107906 0.000450139 0.00129322)
(0.108599 0.000416533 0.00121881)
(0.109249 0.000386471 0.00115339)
(0.109866 0.000359486 0.00110094)
(0.110458 0.000334358 0.00106532)
(0.111032 0.000311071 0.0010482)
(0.111595 0.000289676 0.00104953)
(0.112157 0.000270131 0.00106625)
(0.11274 0.00025249 0.00109188)
(0.113397 0.000242752 0.00111458)
(0.100031 -0.000107076 0.000281384)
(0.100395 -0.000293049 0.000768636)
(0.101024 -0.000434087 0.00113307)
(0.101844 -0.000526241 0.0013692)
(0.102751 -0.000576371 0.00150143)
(0.103689 -0.000591783 0.00155423)
(0.104618 -0.000582396 0.0015493)
(0.105516 -0.000557749 0.00150847)
(0.106367 -0.000524045 0.00144497)
(0.107164 -0.000486802 0.00136909)
(0.107907 -0.000450284 0.00128953)
(0.108601 -0.000416858 0.00121303)
(0.109252 -0.000387436 0.00114437)
(0.10987 -0.000361693 0.0010869)
(0.110463 -0.00033785 0.00104348)
(0.111038 -0.000314727 0.0010152)
(0.111601 -0.000291873 0.00100149)
(0.112162 -0.000269707 0.000999992)
(0.112738 -0.000246999 0.00100696)
(0.113385 -0.000223889 0.00101576)
(0.100036 -0.000323159 0.000323127)
(0.100429 -0.000868723 0.000868625)
(0.10108 -0.00126248 0.0012623)
(0.101891 -0.00150451 0.00150419)
(0.102756 -0.00162178 0.00162126)
(0.103616 -0.00164308 0.00164227)
(0.104446 -0.00160518 0.00160396)
(0.105224 -0.00152718 0.00152527)
(0.105939 -0.00142813 0.00142516)
(0.106595 -0.001324 0.00131936)
(0.1072 -0.00122543 0.0012181)
(0.107764 -0.00113764 0.00112603)
(0.108297 -0.00106246 0.00104409)
(0.108807 -0.00100011 0.00097127)
(0.1093 -0.000950211 0.00090576)
(0.109786 -0.000912257 0.000845369)
(0.110268 -0.000885792 0.00078804)
(0.110757 -0.000869557 0.000732196)
(0.111269 -0.000859506 0.000679057)
(0.111863 -0.000851769 0.000642477)
(0.100046 -0.000540278 0.00039569)
(0.10048 -0.0013842 0.00104479)
(0.101154 -0.00192317 0.00147523)
(0.101913 -0.00219293 0.00170503)
(0.102632 -0.00229471 0.00177973)
(0.103301 -0.0022793 0.00174427)
(0.103893 -0.00218727 0.00163329)
(0.10439 -0.0020553 0.0014901)
(0.104817 -0.00190931 0.00134267)
(0.105194 -0.00177258 0.00120604)
(0.105536 -0.00165486 0.00108436)
(0.105856 -0.00155851 0.000977296)
(0.106164 -0.00148478 0.000880555)
(0.106464 -0.00143378 0.000789106)
(0.106762 -0.00140529 0.000700336)
(0.107058 -0.00140171 0.000608557)
(0.107355 -0.0014278 0.000508711)
(0.107653 -0.00148883 0.000396638)
(0.107969 -0.00158325 0.000277622)
(0.108439 -0.00170877 0.000171599)
(0.100093 -0.000763222 0.0004459)
(0.100504 -0.00174908 0.0011944)
(0.101105 -0.00212971 0.00158664)
(0.101634 -0.00223513 0.0017402)
(0.101979 -0.00228799 0.00178191)
(0.102171 -0.00223735 0.00172843)
(0.102251 -0.0021181 0.00160717)
(0.102274 -0.00196804 0.00145881)
(0.102275 -0.00180756 0.00130255)
(0.102265 -0.00166153 0.00115262)
(0.102253 -0.0015589 0.00102172)
(0.102245 -0.00149223 0.000908008)
(0.102237 -0.00145452 0.00080235)
(0.102229 -0.00144435 0.000697188)
(0.102217 -0.00146397 0.000584677)
(0.102192 -0.00152016 0.000457058)
(0.10214 -0.00162841 0.000300007)
(0.10204 -0.00180681 9.30545e-05)
(0.101874 -0.00206378 -0.000177464)
(0.102049 -0.0024721 -0.000401072)
(0.0995405 -0.000321904 0.000245018)
(0.0992576 -0.00154096 0.0010555)
(0.0988488 -0.00211458 0.00150211)
(0.0981246 -0.00209184 0.00157904)
(0.0973364 -0.00188652 0.00151423)
(0.0965839 -0.00166651 0.00144543)
(0.0958635 -0.00149898 0.00140842)
(0.0951944 -0.00137317 0.00137605)
(0.094563 -0.00128793 0.00132855)
(0.0939133 -0.00123534 0.00125406)
(0.0932769 -0.0012023 0.00115875)
(0.0926494 -0.0011868 0.00105344)
(0.0920173 -0.00118729 0.000945849)
(0.0913659 -0.00120446 0.000836007)
(0.0906754 -0.00124279 0.000714893)
(0.0899171 -0.0013111 0.000566314)
(0.089043 -0.00142608 0.00038231)
(0.0879461 -0.00161788 8.98483e-05)
(0.0865737 -0.00182533 -0.000385862)
(0.0852023 -0.00345306 -0.000705466)
(0.0993801 5.89254e-05 3.37503e-05)
(0.0992677 0.00120003 0.000274259)
(0.0989803 0.00188854 0.000432098)
(0.0984745 0.00200655 0.000482975)
(0.0979954 0.00191479 0.000477978)
(0.0975705 0.00173485 0.000463951)
(0.0971804 0.00154749 0.000449997)
(0.0968299 0.0013889 0.000437364)
(0.0965286 0.00127061 0.000427641)
(0.0962719 0.00120047 0.000413813)
(0.0959941 0.00117411 0.00038679)
(0.0956944 0.00117386 0.000346765)
(0.095369 0.00118654 0.0002952)
(0.0950018 0.0012111 0.000230598)
(0.0945794 0.00125406 0.000149458)
(0.0940822 0.00132425 3.4659e-05)
(0.0934827 0.0014372 -0.000141174)
(0.0927171 0.00160536 -0.000421786)
(0.0917241 0.00184042 -0.000873086)
(0.0908717 0.00222464 -0.00179088)
(0.100087 0.000707029 0.000144356)
(0.100477 0.00161783 0.000390403)
(0.101066 0.00203473 0.000540952)
(0.101694 0.00211776 0.00060988)
(0.102269 0.0021505 0.000635503)
(0.102742 0.00218041 0.000625895)
(0.103124 0.00213505 0.000593247)
(0.103427 0.00204591 0.000546702)
(0.103679 0.00193798 0.000499463)
(0.103896 0.00183451 0.000453385)
(0.104091 0.00173973 0.000404208)
(0.104277 0.00165942 0.000351752)
(0.104451 0.00161088 0.000297887)
(0.104608 0.00159727 0.000237998)
(0.104746 0.0016099 0.00016458)
(0.104866 0.00165057 7.21747e-05)
(0.104961 0.00173304 -5.1616e-05)
(0.105026 0.00187488 -0.000222749)
(0.105075 0.00207427 -0.000454861)
(0.10538 0.00228193 -0.000752514)
(0.100039 0.00047878 0.00013131)
(0.100448 0.00123481 0.000350437)