/*--------------------------------*- C++ -*----------------------------------*\
| =========                 |                                                 |
| \\      /  F ield         | OpenFOAM: The Open Source CFD Toolbox           |
|  \\    /   O peration     | Version:  2212                                  |
|   \\  /    A nd           | Website:  www.openfoam.com                      |
|    \\/     M anipulation  |                                                 |
\*---------------------------------------------------------------------------*/
FoamFile
{
    version     2.0;
    format      ascii;
    arch        "LSB;label=32;scalar=64";
    class       surfaceVectorField;
    location    "2.2";
    object      Uf;
}
// * * * * * * * * * * * * * * * * * * * * * * * * * * * * * * * * * * * * * //

dimensions      [0 1 -1 0 0 0 0];

internalField   nonuniform List<vector> 
19019
(
(0.0993441 -0.00341903 -0.003419)
(0.0973536 0.00106247 -0.00148427)
(0.0973536 -0.00148428 0.00106247)
(0.0834792 0.00197582 0.0019759)
(0.0930873 0.00326893 0.00253352)
(0.0930873 0.00253345 0.00326901)
(0.0745172 0.00195861 0.0019588)
(0.0848641 0.00163574 0.00179244)
(0.0848641 0.00179231 0.00163588)
(0.068548 0.00115888 0.00115927)
(0.0786282 0.00107332 0.00122157)
(0.0786283 0.00122129 0.00107359)
(0.0642365 0.000696614 0.000697298)
(0.0740534 0.000784959 0.000865488)
(0.0740535 0.000865008 0.000785527)
(0.0607574 0.00049406 0.000495453)
(0.070443 0.000649903 0.000669957)
(0.0704433 0.000669147 0.000650813)
(0.0579385 0.00037341 0.00037607)
(0.0674925 0.000545534 0.000509866)
(0.067493 0.000508217 0.000547416)
(0.055616 0.000285621 0.000290073)
(0.0650523 0.000466748 0.00038973)
(0.065053 0.000386936 0.000470036)
(0.0536279 0.000223154 0.000230411)
(0.0629684 0.000411625 0.000311575)
(0.0629698 0.000307028 0.000417164)
(0.0518852 0.000176734 0.000188844)
(0.0611355 0.000366649 0.00026111)
(0.061138 0.000253677 0.000375957)
(0.0503389 0.000140414 0.000160621)
(0.0594946 0.000324239 0.000230351)
(0.059499 0.000217163 0.000340031)
(0.0489578 0.00010945 0.000141735)
(0.058012 0.000282211 0.000213239)
(0.0580203 0.000191093 0.000308412)
(0.0477142 7.98227e-05 0.000129313)
(0.0566622 0.000241182 0.000204513)
(0.0566766 0.000171846 0.0002834)
(0.0465889 4.64526e-05 0.000122455)
(0.0554252 0.000198073 0.00020086)
(0.0554485 0.000157617 0.000266222)
(0.0455885 1.68677e-05 0.00012151)
(0.0542948 0.000143757 0.000204338)
(0.0543316 0.000139775 0.000254118)
(0.0447281 -2.52796e-05 0.000131349)
(0.0532804 7.75547e-05 0.000212044)
(0.0533393 0.000121007 0.000243017)
(0.0440678 -0.000132402 0.000136752)
(0.0524219 -2.39978e-05 0.000235039)
(0.0525238 7.15181e-05 0.000240218)
(0.0439502 -0.000316324 8.86947e-05)
(0.0518542 -0.000227539 0.000222873)
(0.0520441 -7.63325e-05 0.000212362)
(0.0450799 -0.00158135 -0.000878298)
(0.0521409 -0.000619867 8.72202e-05)
(0.0525335 -0.000321264 8.03684e-05)
(0.0506781 -0.00360304 -0.00202585)
(0.0506934 -0.00202968 -0.00137405)
(0.0984572 0.00247639 0.00172993)
(0.0996871 0.000439208 0.00034549)
(0.100049 0.00105637 0.000750983)
(0.0958349 0.00314794 0.00243276)
(0.0978162 0.00273266 0.00228233)
(0.0982937 0.00280914 0.00216155)
(0.09145 0.00223013 0.00186949)
(0.095496 0.0030015 0.00230326)
(0.096304 0.00244248 0.00199797)
(0.0875953 0.00167422 0.00150577)
(0.0926191 0.00229899 0.00183902)
(0.093667 0.00198041 0.00172727)
(0.0841478 0.00143937 0.00127621)
(0.0897672 0.00189123 0.00153604)
(0.0909049 0.00171916 0.00149833)
(0.081188 0.00126426 0.00102971)
(0.0872319 0.00165532 0.00129536)
(0.0884348 0.00145363 0.00121274)
(0.0787015 0.00110821 0.000795573)
(0.0850063 0.00149006 0.00107834)
(0.0863055 0.00118196 0.000910335)
(0.0765569 0.000988746 0.000627924)
(0.0830601 0.00136826 0.000915313)
(0.0844815 0.000980385 0.000693575)
(0.0746513 0.000899323 0.000522841)
(0.0813232 0.00127299 0.000805027)
(0.0828817 0.000840683 0.000553485)
(0.0729235 0.000821041 0.000461092)
(0.079744 0.00118465 0.00073212)
(0.0814504 0.00073678 0.000463719)
(0.0713368 0.000742412 0.000427472)
(0.0782934 0.00109604 0.000689161)
(0.0801554 0.000648813 0.000406455)
(0.0698689 0.000662511 0.000410308)
(0.0769485 0.00100573 0.000667346)
(0.0789707 0.000568628 0.000369958)
(0.0685032 0.000582758 0.000402314)
(0.0756904 0.000913358 0.000659138)
(0.0778782 0.000497327 0.000349046)
(0.0672296 0.000495955 0.000403522)
(0.074506 0.000815233 0.000660387)
(0.0768716 0.000430724 0.000339445)
(0.0660439 0.000379626 0.000412953)
(0.0733877 0.000701254 0.000674567)
(0.0759498 0.000353537 0.000343178)
(0.0649717 0.000213233 0.000424825)
(0.0723372 0.0005513 0.000700187)
(0.075121 0.000244233 0.000357576)
(0.064066 -6.04498e-05 0.000399222)
(0.0713711 0.000341471 0.000732648)
(0.0744101 8.35062e-05 0.000372501)
(0.0635518 -0.000599033 0.000245737)
(0.070546 -6.33487e-05 0.000720638)
(0.0738721 -0.000219383 0.00031792)
(0.064091 -0.00232378 -0.000766577)
(0.0700681 -0.000886279 0.000598249)
(0.0736623 -0.000894823 -3.54949e-05)
(0.0687654 -0.00323639 -0.000367792)
(0.0729581 -0.00320884 -0.00194537)
(0.0993753 0.00118206 0.00107259)
(0.099473 0.000349737 0.000307064)
(0.0997475 0.000610954 0.000779898)
(0.0984948 0.00229591 0.00203203)
(0.0990504 0.00157671 0.00172051)
(0.0995971 0.0020182 0.00200297)
(0.0971411 0.00247618 0.00204883)
(0.0983576 0.00213093 0.00216901)
(0.0992972 0.00246132 0.00210264)
(0.0954392 0.00224647 0.00176772)
(0.0971931 0.00203548 0.00200264)
(0.0984882 0.0023741 0.00190298)
(0.0937502 0.00201963 0.00152296)
(0.0959047 0.0018552 0.00175473)
(0.097422 0.00218026 0.00168926)
(0.092137 0.00186282 0.00134543)
(0.0946709 0.00173209 0.00154325)
(0.0963091 0.00198367 0.00150914)
(0.0905995 0.00175132 0.00121643)
(0.0934802 0.00165169 0.00138739)
(0.0952035 0.00179989 0.00134407)
(0.0891478 0.00165162 0.00111627)
(0.0923654 0.00157497 0.00126709)
(0.0941463 0.00164181 0.00120607)
(0.087798 0.00154378 0.00103622)
(0.0913268 0.00147828 0.0011747)
(0.0931626 0.00149991 0.00109958)
(0.0865506 0.00142942 0.000977802)
(0.0903338 0.0013656 0.00110833)
(0.0922559 0.00136672 0.00102016)
(0.085389 0.00131561 0.000942647)
(0.0893972 0.00125044 0.00106604)
(0.091425 0.00124381 0.000967648)
(0.0842948 0.00120355 0.000927726)
(0.0885065 0.0011352 0.00104451)
(0.0906599 0.00113066 0.000938301)
(0.0832525 0.00108771 0.00092927)
(0.0876453 0.00101986 0.00104035)
(0.0899486 0.00102215 0.000927555)
(0.0822511 0.000958215 0.00094517)
(0.0867992 0.000899575 0.0010519)
(0.0892827 0.000909198 0.000932343)
(0.0812839 0.000801272 0.000975809)
(0.0859538 0.000761635 0.00108033)
(0.0886564 0.000781661 0.000953902)
(0.0803476 0.000597113 0.00102311)
(0.0850935 0.000584301 0.00112922)
(0.0880673 0.000623674 0.000994029)
(0.0794366 0.000270386 0.00108634)
(0.0841913 0.000348148 0.00120691)
(0.0875107 0.000412337 0.00105599)
(0.078516 -0.000319641 0.00117166)
(0.0831884 -3.63865e-05 0.0013285)
(0.0869758 6.55024e-05 0.00114422)
(0.0774476 -0.00136361 0.00135187)
(0.0820341 -0.000662799 0.00147949)
(0.0864241 -0.000508642 0.00128864)
(0.0806222 -0.00137699 0.00241666)
(0.0856809 -0.00141313 0.00159018)
(0.0996493 0.000650254 0.00093143)
(0.0994625 0.000129372 0.000192507)
(0.0997993 0.000375105 0.000741371)
(0.0990854 0.00127879 0.00182777)
(0.0992625 0.000636851 0.00137064)
(0.0998409 0.0011503 0.00181425)
(0.098449 0.00154056 0.00210321)
(0.0989128 0.000973361 0.00200366)
(0.0999047 0.00153634 0.00209025)
(0.0977072 0.00154661 0.00198918)
(0.0982947 0.00104995 0.00205083)
(0.0997671 0.00163146 0.00202327)
(0.0969385 0.0014798 0.00177652)
(0.0976567 0.0010074 0.00189997)
(0.099509 0.00160928 0.00189619)
(0.096206 0.00142689 0.00158275)
(0.0970635 0.000959995 0.0016989)
(0.0991986 0.00154715 0.00175252)
(0.0955191 0.00139218 0.00143608)
(0.0965034 0.000933193 0.0015216)
(0.098853 0.00147401 0.00162713)
(0.094867 0.00135223 0.00133056)
(0.0959887 0.000916761 0.00138063)
(0.0985078 0.00139195 0.00151715)
(0.094228 0.00129122 0.00126165)
(0.095517 0.000902466 0.00128118)
(0.0981721 0.00129802 0.00142316)
(0.0935937 0.0012063 0.00121884)
(0.0950569 0.000869469 0.00122173)
(0.0978217 0.00119197 0.00134908)
(0.0929647 0.00110597 0.00119457)
(0.0945922 0.000811065 0.00119279)
(0.0974778 0.0010828 0.00130005)
(0.0923352 0.0009995 0.00118709)
(0.0941194 0.000742105 0.00118594)
(0.0971401 0.000975566 0.0012726)
(0.0916942 0.000890757 0.00119594)
(0.0936283 0.000672694 0.001195)
(0.0968003 0.000870462 0.00126468)
(0.0910251 0.000775245 0.00122373)
(0.0931002 0.000604806 0.00122131)
(0.0964501 0.000764278 0.00127798)
(0.0903027 0.000640365 0.00127713)
(0.0925146 0.00053583 0.00127244)
(0.0960769 0.000648788 0.00131724)
(0.0894885 0.000474034 0.00136892)
(0.0918391 0.00045682 0.00135749)
(0.0956616 0.00051217 0.00139271)
(0.0885162 0.000235737 0.00152255)
(0.0910228 0.000372899 0.00149704)
(0.0951725 0.000344178 0.00152484)
(0.0872838 -0.000148393 0.00172258)
(0.0899574 0.000231963 0.00172875)
(0.0945418 9.71587e-05 0.00174265)
(0.0856562 -0.000546189 0.00264044)
(0.0885331 2.49177e-05 0.00204123)
(0.0937341 -0.00027433 0.0020214)
(0.087014 -9.21997e-05 0.00328362)
(0.0930859 -0.000539899 0.00313171)
(0.0996725 0.00015407 0.000629507)
(0.0993801 1.00125e-08 5.8942e-05)
(0.0997132 0.000103927 0.00068796)
(0.099159 0.000353355 0.0015443)
(0.0992677 4.98443e-08 0.00120005)
(0.0998376 0.000341657 0.00162233)
(0.0986635 0.000457876 0.00194758)
(0.0989803 1.24804e-07 0.00188855)
(0.0999629 0.000485509 0.00199145)
(0.0982119 0.000481082 0.00196077)
(0.0984745 2.34629e-07 0.00200658)
(0.0999916 0.000539707 0.00199676)
(0.0977756 0.000472065 0.00182505)
(0.0979952 4.17154e-07 0.00191486)
(0.100009 0.000546559 0.00191135)
(0.0973613 0.000459002 0.00164155)
(0.0975701 7.54977e-07 0.00173501)
(0.100007 0.000533805 0.00180484)
(0.0969922 0.00044731 0.0014688)
(0.0971796 1.37834e-06 0.00154772)
(0.0999798 0.000512043 0.0016837)
(0.0966698 0.000438812 0.00133087)
(0.0968286 2.41689e-06 0.00138929)
(0.0999365 0.00048605 0.00157389)
(0.0963861 0.000431508 0.00123761)
(0.0965264 4.19136e-06 0.00127135)
(0.0998943 0.000462938 0.00148359)
(0.0961145 0.000418501 0.00119094)
(0.0962681 7.15084e-06 0.00120182)
(0.0998582 0.000440419 0.00142226)
(0.0958257 0.000397209 0.0011802)
(0.0959874 1.20876e-05 0.00117643)
(0.0997985 0.000412724 0.00138596)
(0.0955038 0.000371661 0.00119087)
(0.0956829 2.02939e-05 0.00117778)
(0.0997194 0.000381727 0.00136528)
(0.0951349 0.000347541 0.00121814)
(0.095349 3.40191e-05 0.00119333)
(0.0996154 0.000351992 0.00136318)
(0.0946999 0.000331337 0.00126869)
(0.0949664 5.71048e-05 0.00122369)
(0.0994695 0.000326568 0.00138664)
(0.0941715 0.000325992 0.0013528)
(0.0945178 9.59065e-05 0.00127769)
(0.0992712 0.000309727 0.001441)
(0.0935036 0.00033991 0.00148743)
(0.0939752 0.000160147 0.00136443)
(0.098999 0.000301658 0.0015394)
(0.0926231 0.000370469 0.00170802)
(0.0932978 0.000274539 0.00150396)
(0.0986185 0.00031305 0.00170928)
(0.0913898 0.000440907 0.00205883)
(0.092399 0.000455279 0.00172569)
(0.0980692 0.000333763 0.00199817)
(0.0895794 0.000599116 0.00269628)
(0.0911631 0.000781748 0.00205659)
(0.0972689 0.000407094 0.00245321)
(0.0898996 0.00148756 0.00267293)
(0.0965048 0.000572459 0.00342727)
(0.0996725 -0.000154008 0.000629481)
(0.0994625 -0.000129351 0.00019249)
(0.0997132 -0.0001039 0.000687957)
(0.099159 -0.000353185 0.00154429)
(0.0992625 -0.000636771 0.00137063)
(0.0998376 -0.000341551 0.00162233)
(0.0986635 -0.000457546 0.00194755)
(0.0989129 -0.000973212 0.00200361)
(0.099963 -0.000485296 0.00199146)
(0.0982121 -0.000480488 0.00196067)
(0.098295 -0.00104969 0.00205073)
(0.0999918 -0.000539318 0.00199673)
(0.0977761 -0.000470977 0.00182483)
(0.0976574 -0.00100687 0.00189978)
(0.100009 -0.00054583 0.0019112)
(0.0973624 -0.000456988 0.00164118)
(0.0970647 -0.000958949 0.00169855)
(0.100007 -0.000532458 0.0018045)
(0.096994 -0.000443697 0.00146821)
(0.0965057 -0.000931213 0.00152114)
(0.0999811 -0.000509647 0.00168318)
(0.0966731 -0.00043252 0.00132977)
(0.0959928 -0.000913266 0.00137985)
(0.0999388 -0.000481911 0.00157303)
(0.0963919 -0.000420746 0.00123556)
(0.0955241 -0.00089632 0.00127953)
(0.0998982 -0.000455762 0.00148209)
(0.0961246 -0.000400321 0.00118731)
(0.0950692 -0.000859247 0.0012183)
(0.0998648 -0.000428044 0.00141967)
(0.0958433 -0.000366796 0.00117401)
(0.0946134 -0.000794333 0.00118653)
(0.0998097 -0.000391733 0.00138171)
(0.0955345 -0.000321 0.00118024)
(0.0941558 -0.000714967 0.00117465)
(0.0997385 -0.000346649 0.00135806)
(0.0951886 -0.000262924 0.00119888)
(0.0936907 -0.00062811 0.00117574)
(0.0996487 -0.000294465 0.00135019)
(0.094794 -0.000190066 0.00123268)
(0.0932075 -0.000530718 0.00118809)
(0.0995285 -0.000232412 0.00136261)
(0.0943364 -9.20957e-05 0.00128931)
(0.0926977 -0.000414876 0.00121281)
(0.0993702 -0.000155289 0.0013981)
(0.093789 5.32464e-05 0.00138096)
(0.0921498 -0.00025485 0.00125182)
(0.0991636 -5.15389e-05 0.00146328)
(0.0931135 0.000281519 0.00152163)
(0.0915494 -2.24446e-05 0.00131131)
(0.0988913 9.90177e-05 0.00157549)
(0.0922441 0.000647557 0.00172345)
(0.0908608 0.000328098 0.00140116)
(0.098517 0.000326773 0.00175423)
(0.091118 0.00133229 0.00203324)
(0.0900407 0.000862916 0.00153812)
(0.0980151 0.000672556 0.0020127)
(0.0892507 0.00177459 0.00173028)
(0.0977075 0.00129387 0.00239065)
(0.0996493 -0.000650238 0.000931433)
(0.099473 -0.000349744 0.000307062)
(0.0997993 -0.000375104 0.000741373)
(0.0990855 -0.00127876 0.00182773)
(0.0990504 -0.00157674 0.00172048)
(0.0998409 -0.00115029 0.00181425)
(0.0984493 -0.00154049 0.00210309)
(0.0983578 -0.00213099 0.00216887)
(0.0999048 -0.00153632 0.00209018)
(0.0977078 -0.00154641 0.00198898)
(0.0971935 -0.0020356 0.0020024)
(0.0997675 -0.0016314 0.00202304)
(0.0969398 -0.0014793 0.0017762)
(0.0959056 -0.00185528 0.00175437)
(0.0995098 -0.00160909 0.00189573)
(0.0962084 -0.00142588 0.00158232)
(0.0946726 -0.00173208 0.00154271)
(0.0992002 -0.00154671 0.00175181)
(0.0955234 -0.00139043 0.00143546)
(0.0934832 -0.00165155 0.00138659)
(0.0988558 -0.00147316 0.00162611)
(0.0948745 -0.00134916 0.00132927)
(0.0923707 -0.00157478 0.00126577)
(0.0985127 -0.00139047 0.00151552)
(0.0942411 -0.00128607 0.00125872)
(0.0913362 -0.00147792 0.00117233)
(0.0981806 -0.00129543 0.00142041)
(0.0936163 -0.00119819 0.00121295)
(0.0903499 -0.0013651 0.00110388)
(0.0978361 -0.00118761 0.00134425)
(0.0930033 -0.00109341 0.0011835)
(0.0894246 -0.00124984 0.00105841)
(0.0975022 -0.00107591 0.00129159)
(0.0924008 -0.000979567 0.00116764)
(0.0885531 -0.0011347 0.00103081)
(0.0971817 -0.000964808 0.00125757)
(0.0918051 -0.000858332 0.00116343)
(0.0877237 -0.00101933 0.00101701)
(0.0968711 -0.000854152 0.00123836)
(0.0912125 -0.000724068 0.001168)
(0.0869304 -0.000898897 0.00101312)
(0.0965681 -0.000738746 0.00123232)
(0.0906191 -0.000555799 0.00117729)
(0.0861719 -0.000762104 0.00101361)
(0.0962719 -0.000608679 0.00123747)
(0.0900224 -0.000322506 0.00118769)
(0.0854572 -0.000581071 0.00100797)
(0.0959814 -0.000441787 0.00125133)
(0.0894199 1.87449e-05 0.00120102)
(0.0848088 -0.00032413 0.00098695)
(0.0956944 -0.000215402 0.00127263)
(0.0887935 0.000537175 0.00123031)
(0.084251 7.48258e-05 0.000920278)
(0.0954039 0.000108678 0.00130641)
(0.0880843 0.00134859 0.00125132)
(0.083822 0.000738224 0.000809484)
(0.0950979 0.000578414 0.00137029)
(0.0830817 0.00197462 0.0004323)
(0.0948048 0.00125513 0.00144863)
(0.0993753 -0.00118211 0.00107256)
(0.0996871 -0.000439225 0.000345481)
(0.0997475 -0.000610975 0.000779882)
(0.0984949 -0.00229602 0.0020319)
(0.0978162 -0.00273276 0.00228227)
(0.0995971 -0.00201828 0.00200287)
(0.0971414 -0.0024764 0.00204857)
(0.0954961 -0.00300166 0.00230309)
(0.0992974 -0.00246149 0.00210239)
(0.0954398 -0.00224682 0.00176733)
(0.0926194 -0.00229927 0.00183871)
(0.0984885 -0.00237441 0.00190255)
(0.0937514 -0.00202018 0.0015224)
(0.0897678 -0.00189177 0.0015356)
(0.0974228 -0.00218076 0.00168863)
(0.0921393 -0.00186366 0.00134456)
(0.087233 -0.00165622 0.00129466)
(0.0963104 -0.0019845 0.00150824)
(0.0906035 -0.00175264 0.00121499)
(0.0850081 -0.00149158 0.0010772)
(0.0952059 -0.00180114 0.00134264)
(0.0891548 -0.0016538 0.00111391)
(0.0830635 -0.00137076 0.000913437)
(0.0941505 -0.00164377 0.00120364)
(0.0878101 -0.00154743 0.00103236)
(0.0813292 -0.00127719 0.000801912)
(0.09317 -0.00150327 0.00109557)
(0.0865711 -0.00143548 0.000971605)
(0.0797542 -0.00119179 0.000726899)
(0.0922685 -0.00137246 0.0010135)
(0.0854236 -0.00132562 0.000932306)
(0.0783111 -0.0011084 0.000679861)
(0.0914464 -0.00125316 0.000956524)
(0.0843527 -0.00121966 0.000909869)
(0.0769795 -0.0010261 0.000651183)
(0.090696 -0.00114616 0.000919379)
(0.0833483 -0.0011129 0.000898893)
(0.075743 -0.000944915 0.000634534)
(0.0900078 -0.0010478 0.000895868)
(0.0824084 -0.000996766 0.000893427)
(0.0745922 -0.000863863 0.000627284)
(0.0893778 -0.000951344 0.00088058)
(0.0815426 -0.000857621 0.000883098)
(0.0735269 -0.000779057 0.000622095)
(0.0888082 -0.000846915 0.000867604)
(0.0807857 -0.000672977 0.000853947)
(0.0725651 -0.000682061 0.000600634)
(0.088311 -0.000719161 0.000843149)
(0.0801909 -0.000381138 0.00076522)
(0.071764 -0.000539024 0.000547758)
(0.0879099 -0.000543052 0.000786492)
(0.0798085 0.000148769 0.000574725)
(0.0712447 -0.000232495 0.000351156)
(0.0876271 -0.000254228 0.000642666)
(0.0796952 0.00134101 6.64509e-05)
(0.0713741 0.000403404 -2.20178e-05)
(0.0874838 0.000253195 0.000389062)
(0.0698625 0.00216852 -0.000978157)
(0.0871197 0.00138969 -0.000245734)
(0.0984572 -0.00247645 0.00172988)
(0.0973536 -0.00106247 -0.00148428)
(0.100049 -0.00105639 0.000750965)
(0.0958349 -0.00314806 0.00243264)
(0.0930873 -0.00326901 0.00253345)
(0.0982937 -0.00280923 0.00216145)
(0.0914501 -0.00223034 0.00186925)
(0.0848641 -0.00163588 0.00179231)
(0.0963041 -0.00244268 0.00199777)
(0.0875955 -0.00167465 0.00150539)
(0.0786283 -0.00107358 0.0012213)
(0.093667 -0.00198076 0.0017269)
(0.0841482 -0.00144012 0.00127559)
(0.0740535 -0.00078552 0.000865013)
(0.090905 -0.00171979 0.00149776)
(0.0811887 -0.00126555 0.00102866)
(0.0704432 -0.000650805 0.000669154)
(0.0884351 -0.00145468 0.0012117)
(0.0787029 -0.00111044 0.000793879)
(0.0674929 -0.000547405 0.000508229)
(0.086306 -0.00118375 0.00090863)
(0.0765595 -0.000992564 0.000625127)
(0.065053 -0.000470021 0.000386953)
(0.0844826 -0.000983428 0.000690743)
(0.074656 -0.000905918 0.000518143)
(0.0629697 -0.000417146 0.000307049)
(0.0828835 -0.000845913 0.000548675)
(0.0729318 -0.000832433 0.000452445)
(0.0611379 -0.000375937 0.000253703)
(0.0814537 -0.000745797 0.000455438)
(0.0713519 -0.000761592 0.000411897)
(0.0594989 -0.000340008 0.000217197)
(0.0801615 -0.000664706 0.000391076)
(0.0698962 -0.000693664 0.00038679)
(0.0580201 -0.000308387 0.000191137)
(0.078982 -0.000594709 0.000344028)
(0.0685497 -0.000633551 0.000374161)
(0.0566764 -0.000283379 0.000171914)
(0.077898 -0.000537348 0.000310798)
(0.0673032 -0.000580717 0.000368604)
(0.0554484 -0.000266161 0.000157694)
(0.0769037 -0.00049188 0.000288105)
(0.0661616 -0.000528048 0.000352551)
(0.0543313 -0.000254019 0.000139859)
(0.0760007 -0.00045349 0.000262711)
(0.0651619 -0.000456576 0.000307443)
(0.0533389 -0.000242927 0.000121114)
(0.0752023 -0.000415701 0.000218048)
(0.064404 -0.000310197 0.000163054)
(0.0525232 -0.000240102 7.16792e-05)
(0.0745511 -0.000354547 0.000129778)
(0.064213 -2.52332e-05 -0.000143799)
(0.0520434 -0.000212185 -7.61555e-05)
(0.0741353 -0.000200732 -0.000109488)
(0.0653205 0.000413863 -0.000634047)
(0.0525328 -8.0113e-05 -0.000321095)
(0.0742071 0.000223544 -0.000736603)
(0.0506925 0.00137439 -0.00202933)
(0.072978 0.00144296 -0.0028255)
(0.0993441 0.003419 -0.00341903)
(0.0973536 0.00148427 0.00106247)
(0.0834792 -0.0019759 0.00197582)
(0.0930873 -0.00253352 0.00326894)
(0.0745172 -0.0019588 0.00195862)
(0.0848641 -0.00179244 0.00163575)
(0.068548 -0.00115926 0.00115888)
(0.0786282 -0.00122157 0.00107333)
(0.0642365 -0.000697291 0.000696622)
(0.0740533 -0.000865481 0.000784969)
(0.0607574 -0.000495443 0.000494072)
(0.070443 -0.000669948 0.000649916)
(0.0579385 -0.000376055 0.000373427)
(0.0674925 -0.000509854 0.000545551)
(0.0556159 -0.000290052 0.000285643)
(0.0650522 -0.000389713 0.000466769)
(0.0536279 -0.000230388 0.000223181)
(0.0629683 -0.000311554 0.00041165)
(0.0518851 -0.000188817 0.000176768)
(0.0611355 -0.000261085 0.000366678)
(0.0503388 -0.000160586 0.000140455)
(0.0594945 -0.000230318 0.000324273)
(0.0489576 -0.000141701 0.000109511)
(0.0580119 -0.000213195 0.000282253)
(0.0477141 -0.000129265 7.99038e-05)
(0.056662 -0.000204464 0.000241241)
(0.0465887 -0.000122374 4.65393e-05)
(0.0554251 -0.0002008 0.000198158)
(0.0455882 -0.000121415 1.69599e-05)
(0.0542945 -0.000204267 0.000143892)
(0.0447277 -0.000131232 -2.5141e-05)
(0.0532801 -0.000211964 7.77357e-05)
(0.0440673 -0.000136579 -0.000132206)
(0.0524214 -0.000234893 -2.37798e-05)
(0.0439497 -8.848e-05 -0.000316096)
(0.0518537 -0.000222623 -0.00022728)
(0.0450795 0.000878448 -0.00158094)
(0.0521404 -8.68152e-05 -0.000619577)
(0.0506779 0.00202638 -0.00360228)
(0.0984572 0.00172988 0.00247645)
(0.100049 0.000750966 0.00105639)
(0.0996871 0.00034548 0.000439225)
(0.0958349 0.00243264 0.00314807)
(0.0982937 0.00216145 0.00280923)
(0.0978162 0.00228227 0.00273276)
(0.0914501 0.00186925 0.00223034)
(0.0963041 0.00199777 0.00244269)
(0.0954961 0.00230309 0.00300166)
(0.0875955 0.00150539 0.00167465)
(0.093667 0.00172689 0.00198076)
(0.0926194 0.00183871 0.00229927)
(0.0841482 0.00127559 0.00144013)
(0.090905 0.00149775 0.0017198)
(0.0897678 0.0015356 0.00189177)
(0.0811888 0.00102866 0.00126555)
(0.0884351 0.0012117 0.00145469)
(0.087233 0.00129466 0.00165622)
(0.0787029 0.000793869 0.00111045)
(0.086306 0.00090862 0.00118376)
(0.0850082 0.0010772 0.00149158)
(0.0765596 0.000625113 0.000992572)
(0.0844826 0.000690729 0.000983439)
(0.0830635 0.000913424 0.00137077)
(0.074656 0.000518124 0.000905928)
(0.0828836 0.000548657 0.000845928)
(0.0813292 0.000801895 0.0012772)
(0.0729319 0.000452419 0.000832443)
(0.0814537 0.000455416 0.000745817)
(0.0797542 0.000726875 0.0011918)
(0.071352 0.000411861 0.000761602)
(0.0801616 0.000391051 0.000664732)
(0.0783112 0.00067983 0.0011084)
(0.0698963 0.000386742 0.000693671)
(0.0789822 0.000343996 0.00059474)
(0.0769797 0.00065114 0.0010261)
(0.06855 0.000374091 0.000633564)
(0.0778983 0.000310727 0.000537353)
(0.0757433 0.000634479 0.000944923)
(0.0673035 0.000368509 0.000580756)
(0.0769039 0.000288039 0.000491936)
(0.0745924 0.00062718 0.000863852)
(0.066162 0.000352431 0.000528109)
(0.076001 0.000262665 0.000453621)
(0.0735273 0.00062195 0.000779033)
(0.0651625 0.000307296 0.000456625)
(0.0752027 0.000217929 0.000415801)
(0.0725656 0.00060047 0.000682053)
(0.0644047 0.000162904 0.000310269)
(0.0745516 0.000129642 0.000354652)
(0.0717647 0.000547569 0.000539014)
(0.0642139 -0.000143915 2.54081e-05)
(0.074136 -0.000109612 0.00020092)
(0.0712456 0.000350937 0.000232513)
(0.0653216 -0.000634227 -0.000413605)
(0.0742079 -0.000736694 -0.000223216)
(0.0713751 -2.22741e-05 -0.000403339)
(0.0729793 -0.00282601 -0.00144272)
(0.0698641 -0.000978484 -0.00216836)
(0.10008 0.00135174 0.0013518)
(0.100186 0.000798738 0.000804965)
(0.100186 0.000804939 0.000798764)
(0.100264 0.0022172 0.00221738)
(0.10019 0.00231177 0.00207155)
(0.10019 0.00207143 0.00231188)
(0.099383 0.00243554 0.00243591)
(0.100307 0.00263355 0.00245326)
(0.100307 0.00245295 0.00263377)
(0.0979842 0.00230991 0.0023105)
(0.0998051 0.00256011 0.00245626)
(0.0998052 0.00245574 0.00256053)
(0.0964953 0.00200568 0.00200667)
(0.0988628 0.00236401 0.00228143)
(0.0988631 0.00228064 0.00236467)
(0.0950732 0.00159618 0.00159785)
(0.0978409 0.00204836 0.00196889)
(0.0978414 0.00196767 0.00204953)
(0.0937764 0.00122492 0.00122769)
(0.0968615 0.00169012 0.00160594)
(0.0968623 0.00160399 0.00169202)
(0.0926197 0.000959662 0.000964387)
(0.0959596 0.00140269 0.00132368)
(0.0959611 0.00132034 0.00140579)
(0.0915973 0.000773668 0.000781801)
(0.0951482 0.00118825 0.00112233)
(0.0951507 0.00111664 0.00119363)
(0.090694 0.000638147 0.000652579)
(0.0944261 0.00102602 0.000978211)
(0.0944305 0.000968528 0.00103528)
(0.0898901 0.000534357 0.000558782)
(0.0937888 0.000898762 0.000875041)
(0.0937962 0.000858061 0.000914607)
(0.089167 0.000453426 0.000491113)
(0.0932223 0.00079502 0.000802392)
(0.0932348 0.000774567 0.000820953)
(0.0885157 0.000387878 0.000442852)
(0.0927159 0.000706283 0.000753073)
(0.0927357 0.000710149 0.000746949)
(0.0879383 0.000323005 0.000407211)
(0.0922695 0.000621661 0.000719783)
(0.0922996 0.00065537 0.000684667)
(0.0874439 0.000242833 0.0003784)
(0.091885 0.000526656 0.000699361)
(0.0919304 0.000596377 0.000626304)
(0.0870432 0.000125943 0.000346536)
(0.0915678 0.000406252 0.000687864)
(0.0916349 0.000520102 0.000561355)
(0.0867521 -7.51924e-05 0.000282432)
(0.0913233 0.000233574 0.000676943)
(0.0914184 0.000398924 0.000472231)
(0.0864976 -0.000479698 6.80891e-05)
(0.0911382 -3.65621e-05 0.000642109)
(0.0912629 0.00018295 0.000323964)
(0.0859081 -0.00142193 -0.000593825)
(0.0909102 -0.000440627 0.000497947)
(0.0910478 -0.000224268 3.12909e-05)
(0.0908953 -0.00101284 8.69273e-05)
(0.0910352 -0.00105186 -0.000439204)
(0.100171 0.00136864 0.00141647)
(0.100118 0.000577386 0.000811323)
(0.100102 0.00069974 0.000700709)
(0.100759 0.00219482 0.00214922)
(0.100478 0.0015828 0.00185883)
(0.100477 0.00182247 0.00186473)
(0.100996 0.00247677 0.00238822)
(0.101004 0.00205866 0.00224268)
(0.101024 0.00234665 0.00238312)
(0.100838 0.00247594 0.00238955)
(0.101292 0.00220332 0.00235241)
(0.101338 0.00250572 0.002544)
(0.100457 0.00231104 0.0022254)
(0.101309 0.0021671 0.00232265)
(0.101409 0.00245017 0.00247276)
(0.0999669 0.00205568 0.00196905)
(0.101156 0.00201035 0.0021795)
(0.101301 0.00226397 0.00227112)
(0.0994422 0.00178896 0.00170138)
(0.100925 0.00179292 0.00196963)
(0.101098 0.00200794 0.00199975)
(0.0989315 0.00156047 0.0014861)
(0.100662 0.00158215 0.00176769)
(0.100854 0.00176824 0.00175971)
(0.0984612 0.00137289 0.00132573)
(0.100404 0.00139272 0.0015936)
(0.100606 0.00156559 0.00156726)
(0.0980419 0.00121637 0.0012082)
(0.100166 0.00122445 0.00145097)
(0.100377 0.0013961 0.00141553)
(0.0976738 0.00108334 0.00112592)
(0.099955 0.00108024 0.00134937)
(0.100181 0.00125373 0.00129814)
(0.0973535 0.000965735 0.00107158)
(0.0997718 0.000955632 0.00128183)
(0.100018 0.00113207 0.00120968)
(0.0970793 0.000853649 0.00103801)
(0.0996134 0.000842138 0.0012409)
(0.0998906 0.00102383 0.00114427)
(0.0968495 0.000736648 0.00102175)
(0.0994786 0.00072969 0.00122244)
(0.0997996 0.00091976 0.00109643)
(0.0966628 0.000601529 0.00102188)
(0.0993641 0.000607446 0.00122693)
(0.0997444 0.000810563 0.00106284)
(0.096519 0.000427903 0.00103656)
(0.0992661 0.00046187 0.00125677)
(0.099725 0.00068234 0.0010395)
(0.0964175 0.000186289 0.00106217)
(0.0991779 0.000271924 0.0013178)
(0.0997377 0.000516068 0.0010203)
(0.0963461 -0.000157838 0.00109228)
(0.0990861 6.91722e-06 0.00141567)
(0.0997729 0.000285801 0.000992367)
(0.0962964 -0.000611939 0.00111686)
(0.0989693 -0.000364114 0.00154907)
(0.0998087 -3.22816e-05 0.00093103)
(0.099096 -0.00087306 0.00172964)
(0.0999942 -0.000395525 0.000851474)
(0.100242 0.000820145 0.00125615)
(0.10009 0.000294335 0.000735365)
(0.100071 0.000415659 0.000602793)
(0.100828 0.00139051 0.0019394)
(0.100491 0.000791984 0.00168405)
(0.100492 0.00112437 0.00158704)
(0.101392 0.00166341 0.00218242)
(0.101086 0.00107772 0.00208346)
(0.101128 0.00154076 0.0020942)
(0.101816 0.00176103 0.00226156)
(0.101664 0.00120435 0.00217919)
(0.101767 0.00173261 0.00229444)
(0.10208 0.00175514 0.00226267)
(0.102121 0.00123978 0.00222242)
(0.10229 0.00178972 0.00236767)
(0.102213 0.00166776 0.00217773)
(0.10245 0.00120202 0.00221082)
(0.10271 0.00174353 0.00232256)
(0.102263 0.00153295 0.00204308)
(0.102678 0.0011186 0.0021274)
(0.103035 0.00162563 0.00220308)
(0.102272 0.00138062 0.00188781)
(0.102838 0.00101771 0.00200713)
(0.103284 0.00147851 0.00205118)
(0.102267 0.00122751 0.00173456)
(0.102961 0.000917263 0.00187279)
(0.103488 0.0013259 0.00189288)
(0.102257 0.00108707 0.00161024)
(0.103061 0.000823236 0.00174842)
(0.103663 0.00118219 0.00175032)
(0.102248 0.000964753 0.00152561)
(0.103149 0.000738063 0.00165076)
(0.103821 0.00105569 0.00164062)
(0.102241 0.000855057 0.00147344)
(0.103233 0.000661304 0.00157938)
(0.103969 0.000945202 0.00156036)
(0.102234 0.000749612 0.0014495)
(0.103309 0.000589789 0.00153987)
(0.104112 0.000843872 0.0015062)
(0.102224 0.000640726 0.00145422)
(0.103372 0.000520031 0.00153329)
(0.104251 0.000745282 0.00147709)
(0.102205 0.000520656 0.0014922)
(0.10342 0.000449047 0.00155676)
(0.104387 0.000644162 0.00147442)
(0.102168 0.000378355 0.00157459)
(0.103448 0.000373164 0.00162093)
(0.104516 0.000533791 0.00150315)
(0.102098 0.000196419 0.00171813)
(0.103441 0.0002866 0.00174429)
(0.10463 0.000404218 0.00157343)
(0.101972 -4.21371e-05 0.00193615)
(0.103386 0.000183982 0.00195122)
(0.10472 0.000242809 0.00169731)
(0.101722 -0.000288748 0.00226943)
(0.103282 7.5328e-05 0.00225494)
(0.104785 4.54614e-05 0.00188233)
(0.103498 5.34175e-05 0.00267096)
(0.105101 -0.000118203 0.00218494)
(0.100243 0.000267454 0.00116243)
(0.100087 1.96808e-08 0.000707031)
(0.100064 0.000135829 0.000537348)
(0.100782 0.00046583 0.00182628)
(0.100477 5.71737e-08 0.00161783)
(0.100463 0.000370947 0.00142419)
(0.101401 0.00057569 0.00207627)
(0.101066 9.96971e-08 0.00203473)
(0.101089 0.000525276 0.00193366)
(0.101987 0.000623217 0.00213429)
(0.101694 1.93405e-07 0.00211779)
(0.101797 0.000606072 0.0021288)
(0.102506 0.000631689 0.00216583)
(0.102269 3.78248e-07 0.00215064)
(0.102489 0.000639661 0.00221147)
(0.102933 0.000611295 0.00215837)
(0.102742 6.86517e-07 0.00218066)
(0.103119 0.000634783 0.00224248)
(0.103275 0.000572873 0.00209149)
(0.103123 1.16033e-06 0.00213546)
(0.103685 0.000601941 0.00219824)
(0.103551 0.000528053 0.0019935)
(0.103426 1.93506e-06 0.00204654)
(0.104183 0.000556523 0.00210836)
(0.103782 0.000485128 0.00188871)
(0.103677 3.31314e-06 0.00193894)
(0.104618 0.000509608 0.00199706)
(0.103985 0.000443864 0.00179115)