/*--------------------------------*- C++ -*----------------------------------*\
| =========                 |                                                 |
| \\      /  F ield         | OpenFOAM: The Open Source CFD Toolbox           |
|  \\    /   O peration     | Version:  2212                                  |
|   \\  /    A nd           | Website:  www.openfoam.com                      |
|    \\/     M anipulation  |                                                 |
\*---------------------------------------------------------------------------*/
FoamFile
{
    version     2.0;
    format      ascii;
    arch        "LSB;label=32;scalar=64";
    class       volScalarField;
    location    "0.95";
    object      epsilon;
}
// * * * * * * * * * * * * * * * * * * * * * * * * * * * * * * * * * * * * * //

dimensions      [0 2 -3 0 0 0 0];

internalField   nonuniform List<scalar> 
6840
(
90.5034
12.1248
4.3887
2.46659
1.63316
1.18308
0.902022
0.720675
0.594603
0.502526
0.432713
0.379334
0.336392
0.300017
0.270425
0.246521
0.227112
0.211832
0.203065
0.194669
58.5856
14.5696
6.08947
3.33296
2.08218
1.40267
0.998659
0.740295
0.565916
0.443942
0.356044
0.290962
0.241463
0.203066
0.173209
0.149997
0.131654
0.117165
0.10645
0.0993684
45.0226
13.4729
5.73075
3.07323
1.86023
1.227
0.873581
0.649785
0.497022
0.389493
0.311306
0.253
0.209013
0.175263
0.148896
0.128005
0.111317
0.0978932
0.0871159
0.0788324
38.7028
13.0541
5.74336
3.08733
1.88067
1.2275
0.86948
0.645387
0.492595
0.384785
0.30703
0.249052
0.204987
0.171
0.144419
0.123359
0.106473
0.0927895
0.0816429
0.0732332
36.0571
12.8529
5.76645
3.10212
1.89476
1.22669
0.866501
0.643984
0.492251
0.383965
0.305796
0.24792
0.20392
0.169947
0.143332
0.122198
0.105197
0.091349
0.08003
0.0716573
36.0571
12.8529
5.76645
3.10211
1.89475
1.22669
0.866498
0.64398
0.492246
0.383958
0.305787
0.247907
0.203902
0.169921
0.143295
0.122143
0.105111
0.0912158
0.0797982
0.0709929
38.7028
13.0541
5.74336
3.08733
1.88066
1.2275
0.869472
0.645378
0.492584
0.38477
0.307008
0.249023
0.204949
0.170946
0.14434
0.123243
0.106297
0.0925194
0.0812632
0.0730371
45.0226
13.4729
5.73075
3.07323
1.86023
1.22699
0.873575
0.649777
0.497011
0.389476
0.311285
0.252971
0.208973
0.175207
0.148814
0.127884
0.111132
0.0976071
0.0866998
0.0785024
58.5856
14.5696
6.08947
3.33296
2.08218
1.40267
0.998658
0.740292
0.565912
0.443936
0.356035
0.290948
0.24144
0.203026
0.173151
0.149902
0.131485
0.116847
0.105832
0.0985629
90.5034
12.1248
4.3887
2.46659
1.63316
1.18308
0.902022
0.720675
0.594604
0.502526
0.432713
0.379334
0.336392
0.300017
0.270426
0.246521
0.227112
0.211832
0.203065
0.19467
58.5856
14.5696
6.08947
3.33296
2.08218
1.40267
0.998658
0.740292
0.565912
0.443936
0.356035
0.290948
0.24144
0.203026
0.173151
0.149902
0.131485
0.116847
0.105832
0.0985617
16.5373
9.49239
5.01271
2.8606
1.75746
1.1476
0.786936
0.562055
0.415373
0.315955
0.246342
0.196235
0.159236
0.131271
0.109802
0.093235
0.080197
0.069685
0.0607185
0.0566168
13.6679
8.73671
5.07741
3.05388
1.92224
1.2661
0.869295
0.618638
0.453968
0.342045
0.263664
0.207329
0.165923
0.134872
0.11117
0.0927156
0.0781952
0.0666502
0.0571609
0.0501829
12.9054
8.33993
5.07879
3.15547
2.02775
1.35121
0.933541
0.666463
0.489552
0.368602
0.283613
0.222398
0.17734
0.14354
0.117756
0.09778
0.0820921
0.069622
0.0595909
0.0513541
12.6882
8.1544
5.07113
3.20038
2.07939
1.39506
0.967831
0.692721
0.509636
0.384015
0.295501
0.231644
0.184587
0.149253
0.122275
0.101369
0.0849468
0.0718897
0.0613968
0.0529305
12.6882
8.1544
5.07113
3.20038
2.07939
1.39506
0.967829
0.692719
0.509634
0.384012
0.295498
0.231639
0.184581
0.149247
0.122269
0.101362
0.0849398
0.0718861
0.0613999
0.0529335
12.9054
8.33993
5.07879
3.15547
2.02775
1.3512
0.933538
0.666459
0.489546
0.368596
0.283605
0.222388
0.177329
0.143528
0.117742
0.0977641
0.0820763
0.0696098
0.0595859
0.0513269
13.6679
8.73671
5.07741
3.05388
1.92224
1.2661
0.869293
0.618635
0.453965
0.342041
0.263659
0.207323
0.165916
0.134865
0.111162
0.0927079
0.0781916
0.0666585
0.0572026
0.0498202
16.5373
9.49239
5.01271
2.8606
1.75746
1.1476
0.786936
0.562055
0.415373
0.315955
0.246342
0.196235
0.159236
0.131271
0.109802
0.0932348
0.0801968
0.0696848
0.0607183
0.0566174
58.5856
14.5696
6.08947
3.33296
2.08218
1.40267
0.998659
0.740295
0.565916
0.443942
0.356044
0.290963
0.241463
0.203066
0.173209
0.149997
0.131654
0.117165
0.10645
0.0993694
45.0226
13.4729
5.73075
3.07323
1.86023
1.22699
0.873575
0.649777
0.497011
0.389476
0.311285
0.252971
0.208973
0.175207
0.148814
0.127884
0.111132
0.0976072
0.0866996
0.0785001
13.6679
8.73671
5.07741
3.05388
1.92224
1.2661
0.869293
0.618635
0.453965
0.342041
0.263659
0.207323
0.165916
0.134864
0.111163
0.0927084
0.0781919
0.0666587
0.057203
0.049819
11.8601
7.76395
4.99734
3.24076
2.1442
1.45499
1.01411
0.72564
0.532162
0.399157
0.305555
0.238233
0.188838
0.151931
0.123894
0.102263
0.0853507
0.0719635
0.0612286
0.0526368
11.6229
7.60535
5.01031
3.34209
2.26848
1.57142
1.11236
0.804591
0.594208
0.447522
0.343216
0.26764
0.211907
0.170129
0.138334
0.113797
0.0946151
0.0794433
0.0673129
0.0575459
11.5726
7.56718
5.02065
3.38344
2.32103
1.62326
1.15828
0.843154
0.625689
0.472847
0.363481
0.28385
0.224902
0.180583
0.146782
0.120656
0.100212
0.0840305
0.071089
0.0606291
11.5726
7.56718
5.02065
3.38344
2.32103
1.62326
1.15828
0.843153
0.625687
0.472845
0.363479
0.283847
0.224898
0.180579
0.146778
0.120651
0.100205
0.0840241
0.0710832
0.0606224
11.6229
7.60535
5.0103
3.34209
2.26848
1.57142
1.11236
0.804589
0.594205
0.447518
0.343212
0.267635
0.211901
0.170122
0.138326
0.113786
0.0946025
0.0794301
0.0673008
0.0575279
11.8601
7.76395
4.99734
3.24076
2.1442
1.45499
1.01411
0.72564
0.532162
0.399157
0.305555
0.238233
0.188838
0.151931
0.123893
0.102263
0.0853504
0.0719632
0.0612282
0.0526366
13.6679
8.73671
5.07741
3.05388
1.92224
1.2661
0.869295
0.618638
0.453968
0.342045
0.263664
0.207329
0.165923
0.134872
0.11117
0.0927157
0.0781951
0.0666501
0.0571607
0.0501839
45.0226
13.4729
5.73075
3.07323
1.86023
1.227
0.873581
0.649785
0.497022
0.389493
0.311306
0.253
0.209013
0.175263
0.148896
0.128006
0.111317
0.0978933
0.0871158
0.0788337
38.7028
13.0541
5.74336
3.08733
1.88066
1.2275
0.869472
0.645378
0.492584
0.38477
0.307008
0.249023
0.204948
0.170946
0.144341
0.123243
0.106298
0.0925195
0.0812631
0.073036
12.9054
8.33993
5.07879
3.15547
2.02775
1.3512
0.933538
0.666459
0.489546
0.368596
0.283605
0.222388
0.177328
0.143527
0.117743
0.0977645
0.0820764
0.0696097
0.0595857
0.0513274
11.6229
7.60535
5.0103
3.34209
2.26848
1.57142
1.11236
0.804589
0.594205
0.447518
0.343212
0.267635
0.211901
0.170122
0.138326
0.113786
0.0946026
0.0794302
0.0673008
0.0575276
11.4933
7.5119
5.02843
3.434
2.3892
1.6928
1.22111
0.896488
0.669457
0.508124
0.391658
0.306289
0.242788
0.194892
0.158287
0.129962
0.107789
0.0902422
0.0762091
0.0648293
11.4757
7.50136
5.04297
3.47002
2.43665
1.74299
1.26863
0.938711
0.705583
0.538335
0.416593
0.326728
0.259499
0.208558
0.169485
0.13917
0.115392
0.0965481
0.0814514
0.0691086
11.4757
7.50136
5.04297
3.47002
2.43665
1.74299
1.26863
0.938711
0.705582
0.538334
0.416592
0.326727
0.259498
0.208557
0.169485
0.139169
0.115391
0.0965473
0.081453
0.0691389
11.4933
7.5119
5.02843
3.434
2.3892
1.6928
1.22111
0.896488
0.669457
0.508124
0.391658
0.306289
0.242788
0.194892
0.158287
0.129962
0.107789
0.0902421
0.0762089
0.0648293
11.6229
7.60535
5.01031
3.34209
2.26848
1.57142
1.11236
0.804591
0.594208
0.447522
0.343216
0.26764
0.211907
0.170129
0.138335
0.113797
0.0946149
0.079443
0.0673126
0.0575456
12.9054
8.33993
5.07879
3.15547
2.02775
1.35121
0.933541
0.666463
0.489552
0.368602
0.283613
0.222398
0.17734
0.14354
0.117757
0.0977804
0.0820923
0.0696221
0.059591
0.051354
38.7028
13.0541
5.74336
3.08733
1.88067
1.2275
0.86948
0.645387
0.492595
0.384785
0.30703
0.249052
0.204987
0.171
0.144419
0.12336
0.106474
0.0927898
0.0816433
0.0732354
36.0571
12.8529
5.76645
3.10211
1.89475
1.22669
0.866498
0.64398
0.492246
0.383958
0.305787
0.247907
0.203902
0.169921
0.143295
0.122142
0.105111
0.0912158
0.0797982
0.0709928
12.6882
8.1544
5.07113
3.20038
2.07939
1.39506
0.967829
0.692719
0.509634
0.384012
0.295497
0.231639
0.184581
0.149246
0.122269
0.101361
0.0849395
0.0718857
0.0613994
0.0529331
11.5726
7.56718
5.02065
3.38344
2.32103
1.62326
1.15828
0.843153
0.625687
0.472845
0.363479
0.283847
0.224897
0.180579
0.146777
0.12065
0.100205
0.0840238
0.0710827
0.0606218
11.4757
7.50136
5.04297
3.47002
2.43665
1.74299
1.26863
0.938711
0.705582
0.538334
0.416592
0.326727
0.259498
0.208557
0.169485
0.139169
0.115391
0.0965472
0.0814529
0.0691387
11.4647
7.49683
5.0577
3.50272
2.48038
1.79068
1.31522
0.981304
0.742923
0.570209
0.44335
0.348967
0.277889
0.223736
0.182022
0.149548
0.124012
0.103737
0.0874647
0.0741375
11.4647
7.49683
5.0577
3.50272
2.48038
1.79068
1.31522
0.981304
0.742923
0.570209
0.44335
0.348967
0.277889
0.223736
0.182022
0.149548
0.124012
0.103737
0.0874647
0.0741375
11.4757
7.50136
5.04297
3.47002
2.43665
1.74299
1.26863
0.938711
0.705583
0.538335
0.416593
0.326728
0.259499
0.208557
0.169485
0.13917
0.115392
0.0965479
0.0814513
0.0691087
11.5726
7.56718
5.02065
3.38344
2.32103
1.62326
1.15828
0.843154
0.625689
0.472847
0.363481
0.28385
0.224901
0.180583
0.146782
0.120656
0.100212
0.0840304
0.0710889
0.0606291
12.6882
8.1544
5.07113
3.20038
2.07939
1.39506
0.967831
0.692721
0.509636
0.384015
0.295501
0.231644
0.184587
0.149252
0.122276
0.101369
0.084947
0.0718898
0.0613969
0.0529307
36.0571
12.8529
5.76645
3.10212
1.89476
1.22669
0.866501
0.643984
0.492251
0.383965
0.305796
0.24792
0.20392
0.169947
0.143332
0.122199
0.105197
0.0913492
0.0800303
0.0716578
36.0571
12.8529
5.76645
3.10212
1.89476
1.22669
0.866501
0.643984
0.492251
0.383965
0.305796
0.24792
0.20392
0.169947
0.143332
0.122199
0.105197
0.0913491
0.08003
0.0716576
12.6882
8.1544
5.07113
3.20038
2.07939
1.39506
0.967831
0.692721
0.509636
0.384015
0.295501
0.231644
0.184587
0.149253
0.122275
0.101369
0.0849466
0.0718894
0.0613964
0.0529301
11.5726
7.56718
5.02065
3.38344
2.32103
1.62326
1.15828
0.843154
0.625689
0.472847
0.363481
0.28385
0.224901
0.180583
0.146782
0.120656
0.100212
0.0840303
0.0710888
0.0606289
11.4757
7.50136
5.04297
3.47002
2.43665
1.74299
1.26863
0.938711
0.705583
0.538335
0.416593
0.326728
0.259499
0.208558
0.169485
0.13917
0.115392
0.0965481
0.0814515
0.0691089
11.4647
7.49683
5.0577
3.50272
2.48038
1.79068
1.31522
0.981304
0.742923
0.570209
0.44335
0.348967
0.277889
0.223737
0.182022
0.149548
0.124012
0.103737
0.0874648
0.0741377
11.4647
7.49683
5.0577
3.50272
2.48038
1.79068
1.31522
0.981304
0.742923
0.570209
0.44335
0.348967
0.277889
0.223737
0.182022
0.149548
0.124012
0.103737
0.0874648
0.0741377
11.4757
7.50136
5.04297
3.47002
2.43665
1.74299
1.26863
0.938711
0.705582
0.538334
0.416592
0.326727
0.259498
0.208557
0.169485
0.139169
0.115391
0.0965473
0.0814531
0.0691392
11.5726
7.56718
5.02065
3.38344
2.32103
1.62326
1.15828
0.843153
0.625687
0.472845
0.363479
0.283847
0.224898
0.180579
0.146777
0.12065
0.100205
0.0840241
0.0710832
0.0606226
12.6882
8.1544
5.07113
3.20038
2.07939
1.39506
0.967829
0.692719
0.509634
0.384012
0.295498
0.231639
0.184581
0.149246
0.122269
0.101361
0.0849397
0.071886
0.0613999
0.0529337
36.0571
12.8529
5.76645
3.10211
1.89475
1.22669
0.866497
0.64398
0.492246
0.383958
0.305787
0.247907
0.203902
0.169921
0.143295
0.122142
0.105111
0.0912157
0.0797982
0.070993
38.7028
13.0541
5.74336
3.08733
1.88067
1.2275
0.86948
0.645387
0.492596
0.384785
0.30703
0.249052
0.204987
0.171001
0.144419
0.123359
0.106473
0.0927897
0.0816432
0.073235
12.9054
8.33993
5.07879
3.15547
2.02775
1.35121
0.933541
0.666463
0.489552
0.368602
0.283613
0.222398
0.17734
0.14354
0.117756
0.0977801
0.0820922
0.0696221
0.059591
0.0513541
11.6229
7.60535
5.01031
3.34209
2.26848
1.57142
1.11236
0.804591
0.594208
0.447522
0.343217
0.267641
0.211907
0.170129
0.138335
0.113797
0.0946153
0.0794435
0.0673132
0.0575463
11.4933
7.5119
5.02843
3.434
2.3892
1.6928
1.22111
0.896488
0.669457
0.508124
0.391659
0.306289
0.242788
0.194892
0.158287
0.129962
0.107789
0.0902425
0.0762095
0.06483
11.4757
7.50136
5.04297
3.47002
2.43665
1.74299
1.26863
0.938711
0.705582
0.538334
0.416592
0.326727
0.259498
0.208557
0.169485
0.139169
0.115391
0.0965475
0.0814532
0.0691393
11.4757
7.50136
5.04297
3.47002
2.43665
1.74299
1.26863
0.938711
0.705583
0.538335
0.416593
0.326728
0.259499
0.208558
0.169485
0.13917
0.115392
0.0965481
0.0814515
0.0691089
11.4933
7.5119
5.02843
3.434
2.3892
1.6928
1.22111
0.896488
0.669457
0.508124
0.391658
0.306289
0.242788
0.194892
0.158287
0.129962
0.107789
0.0902423
0.0762093
0.0648299
11.6229
7.60535
5.0103
3.34209
2.26848
1.57142
1.11236
0.804588
0.594205
0.447518
0.343212
0.267635
0.211901
0.170122
0.138326
0.113786
0.0946026
0.0794304
0.0673012
0.0575282
12.9054
8.33993
5.07879
3.15547
2.02775
1.3512
0.933538
0.666459
0.489546
0.368596
0.283605
0.222388
0.177329
0.143528
0.117742
0.0977639
0.0820761
0.0696096
0.0595858
0.0513272
38.7028
13.0541
5.74336
3.08733
1.88066
1.2275
0.869472
0.645378
0.492584
0.38477
0.307008
0.249023
0.204948
0.170946
0.14434
0.123243
0.106297
0.0925193
0.0812629
0.0730361
45.0226
13.4729
5.73075
3.07323
1.86023
1.227
0.873581
0.649785
0.497022
0.389493
0.311306
0.253
0.209013
0.175263
0.148896
0.128005
0.111317
0.0978934
0.0871161
0.0788341
13.6679
8.73671
5.07741
3.05388
1.92224
1.2661
0.869295
0.618638
0.453968
0.342045
0.263664
0.207329
0.165924
0.134872
0.11117
0.0927159
0.0781955
0.0666506
0.0571613
0.0501848
11.8601
7.76395
4.99734
3.24076
2.1442
1.45499
1.01411
0.72564
0.532162
0.399157
0.305555
0.238233
0.188838
0.151931
0.123894
0.102264
0.0853511
0.0719641
0.0612293
0.0526376
11.6229
7.60535
5.0103
3.34209
2.26848
1.57142
1.11236
0.804589
0.594205
0.447518
0.343212
0.267635
0.211901
0.170122
0.138326
0.113786
0.094603
0.0794307
0.0673014
0.0575284
11.5726
7.56718
5.02065
3.38344
2.32103
1.62326
1.15828
0.843153
0.625687
0.472845
0.363479
0.283847
0.224897
0.180579
0.146778
0.12065
0.100205
0.0840241
0.0710831
0.0606223
11.5726
7.56718
5.02065
3.38344
2.32103
1.62326
1.15828
0.843154
0.625689
0.472847
0.363481
0.28385
0.224901
0.180583
0.146782
0.120656
0.100212
0.0840303
0.0710888
0.0606289
11.6229
7.60535
5.01031
3.34209
2.26848
1.57142
1.11236
0.804591
0.594208
0.447522
0.343216
0.26764
0.211907
0.170129
0.138335
0.113797
0.0946151
0.0794433
0.0673129
0.0575459
11.8601
7.76395
4.99734
3.24076
2.1442
1.45499
1.01411
0.725639
0.532162
0.399157
0.305555
0.238233
0.188838
0.151931
0.123893
0.102263
0.0853507
0.0719636
0.0612287
0.052637
13.6679
8.73671
5.07741
3.05388
1.92224
1.2661
0.869293
0.618635
0.453965
0.342041
0.263659
0.207323
0.165916
0.134865
0.111162
0.0927078
0.0781915
0.0666584
0.0572025
0.0498188
45.0226
13.4729
5.73075
3.07323
1.86023
1.22699
0.873575
0.649777
0.497011
0.389476
0.311285
0.252971
0.208973
0.175207
0.148814
0.127884
0.111131
0.0976069
0.0866992
0.0784992
58.5856
14.5696
6.08947
3.33296
2.08218
1.40267
0.998659
0.740295
0.565916
0.443942
0.356044
0.290963
0.241463
0.203066
0.173209
0.149997
0.131654
0.117165
0.106451
0.0993704
16.5373
9.49239
5.01271
2.8606
1.75746
1.1476
0.786936
0.562055
0.415374
0.315955
0.246342
0.196235
0.159237
0.131271
0.109802
0.0932353
0.0801973
0.0696854
0.0607191
0.0566177
13.6679
8.73671
5.07741
3.05388
1.92224
1.2661
0.869293
0.618635
0.453965
0.342041
0.263659
0.207323
0.165916
0.134864
0.111163
0.0927086
0.0781921
0.066659
0.0572032
0.0498196
12.9054
8.33993
5.07879
3.15547
2.02775
1.3512
0.933538
0.666459
0.489546
0.368596
0.283605
0.222388
0.177328
0.143527
0.117743
0.0977645
0.0820764
0.0696098
0.0595858
0.0513274
12.6882
8.1544
5.07113
3.20038
2.07939
1.39506
0.967829
0.692719
0.509634
0.384012
0.295497
0.231639
0.184581
0.149246
0.122269
0.101361
0.0849394
0.0718856
0.0613993
0.052933
12.6882
8.1544
5.07113
3.20038
2.07939
1.39506
0.967831
0.692721
0.509636
0.384015
0.295501
0.231644
0.184587
0.149252
0.122275
0.101369
0.0849466
0.0718894
0.0613964
0.0529301
12.9054
8.33993
5.07879
3.15547
2.02775
1.35121
0.933541
0.666463
0.489552
0.368602
0.283613
0.222398
0.17734
0.14354
0.117756
0.0977804
0.0820923
0.0696222
0.059591
0.0513542
13.6679
8.73671
5.07741
3.05388
1.92224
1.2661
0.869295
0.618638
0.453968
0.342045
0.263664
0.207329
0.165923
0.134872
0.111171
0.0927159
0.0781955
0.0666505
0.057161
0.0501847
16.5373
9.49239
5.01271
2.8606
1.75746
1.1476
0.786936
0.562055
0.415373
0.315955
0.246342
0.196235
0.159236
0.131271
0.109802
0.0932349
0.0801968
0.0696849
0.0607184
0.0566174
58.5856
14.5696
6.08947
3.33296
2.08218
1.40267
0.998658
0.740292
0.565912
0.443936
0.356035
0.290948
0.24144
0.203026
0.173151
0.149901
0.131485
0.116847
0.105831
0.098561
90.5034
12.1248
4.3887
2.46659
1.63316
1.18308
0.902022
0.720675
0.594604
0.502526
0.432714
0.379334
0.336393
0.300017
0.270426
0.246521
0.227113
0.211832
0.203066
0.19467
58.5856
14.5696
6.08947
3.33296
2.08218
1.40267
0.998658
0.740293
0.565912
0.443936
0.356035
0.290948
0.24144
0.203026
0.173151
0.149902
0.131486
0.116847
0.105832
0.0985619
45.0226
13.4729
5.73075
3.07323
1.86023
1.22699
0.873575
0.649777
0.497011
0.389476
0.311285
0.252971
0.208973
0.175207
0.148814
0.127884
0.111132
0.0976073
0.0866996
0.0784996
38.7028
13.0541
5.74336
3.08733
1.88066
1.2275
0.869472
0.645378
0.492584
0.38477
0.307008
0.249023
0.204948
0.170946
0.144341
0.123243
0.106297
0.0925194
0.0812629
0.073036
36.0571
12.8529
5.76645
3.10211
1.89475
1.22669
0.866497
0.643979
0.492246
0.383958
0.305787
0.247907
0.203902
0.169921
0.143295
0.122142
0.105111
0.0912156
0.0797979
0.0709924
36.0571
12.8529
5.76645
3.10212
1.89476
1.22669
0.866501
0.643984
0.492251
0.383965
0.305796
0.24792
0.20392
0.169947
0.143332
0.122198
0.105197
0.091349
0.0800299
0.0716572
38.7028
13.0541
5.74336
3.08733
1.88067
1.2275
0.86948
0.645387
0.492596
0.384785
0.30703
0.249052
0.204987
0.171
0.144419
0.12336
0.106474
0.0927898
0.0816433
0.0732354
45.0226
13.4729
5.73075
3.07323
1.86023
1.227
0.873581
0.649785
0.497022
0.389493
0.311306
0.253
0.209013
0.175263
0.148896
0.128006
0.111317
0.0978933
0.0871159
0.0788338
58.5856
14.5696
6.08947
3.33296
2.08218
1.40267
0.998659
0.740295
0.565916
0.443942
0.356044
0.290962
0.241463
0.203066
0.173209
0.149997
0.131654
0.117165
0.106451
0.0993729
90.5034
12.1248
4.3887
2.46659
1.63316
1.18308
0.902022
0.720675
0.594603
0.502526
0.432713
0.379334
0.336392
0.300017
0.270426
0.246521
0.227112
0.211831
0.203065
0.194671
0.377362
0.297019
0.23229
0.197625
0.177775
0.165937
0.157331
0.150213
0.144444
0.139618
0.135512
0.131766
0.128275
0.125055
0.122081
0.119363
0.116905
0.114686
0.112686
0.110865
0.109216
0.107776
0.10655
0.105453
0.10448
0.10352
0.102614
0.101793
0.101103
0.100542
0.100054
0.0995159
0.099012
0.0985929
0.0984288
0.0981292
0.0979824
0.0977772
0.097582
0.0973059
0.128368
0.107321
0.0907716
0.0796237
0.0727406
0.0679815
0.0641823
0.0609036
0.0581368
0.0557562
0.0536386
0.0517465
0.0500754
0.0485453
0.0471058
0.045793
0.0446185
0.0435698
0.0426394
0.0418079
0.0410702
0.0404485
0.0398924
0.0394281
0.0390002
0.0385989
0.0382335
0.0379026
0.0375817
0.0373373
0.037118
0.0369079
0.0367218
0.0365396
0.0364237
0.0363271
0.0362372
0.0361657
0.0361093
0.0360513
0.0825001
0.0735795
0.0659077
0.0597543
0.0550241
0.0509768
0.047606
0.0448096
0.0424135
0.0403288
0.0385095
0.0369052
0.0355041
0.0342982
0.0330889
0.0320177
0.0310837
0.0302586
0.0295285
0.028898
0.0282785
0.0277437
0.0272954
0.0269042
0.0265443
0.0262037
0.0258935
0.0256207
0.0253828
0.025173
0.0249817
0.0248016
0.0246492
0.0245442
0.0244511
0.0243274
0.0242631
0.0241992
0.0241535
0.0241209
0.0718591
0.0633019
0.0568363
0.0517068
0.047503
0.0439911
0.0409797
0.0383773
0.036108
0.0341157
0.0323571
0.0308
0.0294138
0.0281717
0.0270688
0.0260878
0.0252104
0.0244311
0.023739
0.0231356
0.0225537
0.0220416
0.0215631
0.0211649
0.0208432
0.0205372
0.0202539
0.0200061
0.0197465
0.0195234
0.0193851
0.0192557
0.0191322
0.0190222
0.0188995
0.0187949
0.0187541
0.0187264
0.0186929
0.0186625
0.0717411
0.060496
0.053606
0.0484269
0.0442573
0.0407979
0.0378885
0.0353941
0.0332031
0.0312663
0.029549
0.0280244
0.0266673
0.0254485
0.0243583
0.0233818
0.0225099
0.0217315
0.0210385
0.0204288
0.0198883
0.0194213
0.0190206
0.0186562
0.0183143
0.0179979
0.0177137
0.0174671
0.0172099
0.0169848
0.0168572
0.0167349
0.0166194
0.0165146
0.0163757
0.0163131
0.0162864
0.0162717
0.0162361
0.0161915
0.070917
0.0600423
0.0530393
0.0477078
0.0434233
0.0398838
0.0369014
0.0343654
0.0321553
0.0301978
0.0284588
0.0269123
0.0255358
0.0243061
0.0232098
0.0222368
0.0213735
0.0206079
0.0199292
0.0193271
0.0187965
0.0183375
0.0179302
0.0175784
0.0172605
0.0169499
0.0166593
0.0164097
0.0161536
0.015938
0.015809
0.0156865
0.01557
0.0154694
0.0153585
0.0153511
0.0153349
0.0152823
0.0152157
0.0151462
0.0676181
0.0598719
0.0535992
0.0484452
0.0441316
0.0404882
0.0373993
0.0347551
0.0324463
0.0304187
0.0286343
0.0270629
0.0256738
0.0244382
0.0233403
0.0223663
0.0215029
0.0207387
0.0200629
0.0194666
0.018944
0.0184855
0.018084
0.0177374
0.0174153
0.0171137
0.0168159
0.0165596
0.0162951
0.0160792
0.0159479
0.0158196
0.0156947
0.0155888
0.0154806
0.0154474
0.0154123
0.0153665
0.0153089
0.0152566
0.0730761
0.0647745
0.0578347
0.0519647
0.047041
0.0429977
0.0396378
0.0367927
0.0343587
0.0322555
0.0304243
0.0288229
0.0274101
0.0261538
0.0250411
0.0240563
0.0231846
0.0224151
0.0217366
0.0211386
0.0206167
0.0201569
0.0197541
0.0194066
0.0190656
0.018731
0.0184368
0.0181879
0.0179299
0.0177142
0.0175674
0.0174224
0.0172951
0.0171809
0.0170844
0.0169916
0.0169384
0.016906
0.0168736
0.0168388
0.0951929
0.0797611
0.0684719
0.0595824
0.0530549
0.0484919
0.0449367
0.0419952
0.0395131
0.0373735
0.0355028
0.0338934
0.0324487
0.0311506
0.0299893
0.0289627
0.027989
0.0271476
0.0264091
0.0257536
0.0251673
0.0246586
0.0241698
0.0237454
0.0233848
0.0230372
0.0227209
0.022454
0.0221767
0.0219452
0.0217752
0.0216175
0.0214709
0.0213561
0.0212627
0.0211771
0.0211139
0.0210676
0.0210237
0.0209783
0.142393
0.117756
0.0963497
0.0815631
0.0723013
0.0663997
0.0620664
0.0584877
0.0556257
0.0531327
0.0509996
0.0492262
0.047364
0.0456749
0.0441766
0.0428545
0.0416608
0.0405861
0.0396272
0.0387715
0.0380238
0.0373876
0.0367967
0.0362811
0.0358247
0.0354057
0.0350305
0.0346941
0.0343581
0.0340832
0.0338633
0.0336594
0.0334799
0.0333273
0.0331738
0.033123
0.0330442
0.0329646
0.0328892
0.0328004
0.377361
0.297021
0.232293
0.197628
0.177785
0.165947
0.157344
0.150224
0.144454
0.13961
0.135506
0.131773
0.12826
0.125005
0.122042
0.119335
0.116886
0.114673
0.112675
0.110855
0.109204
0.107771
0.106541
0.105457
0.104454
0.103504
0.102602
0.101786
0.101098
0.100554
0.100028
0.0995044
0.0990139
0.0986137
0.0983201
0.0982382
0.0980606
0.0978034
0.097536
0.0971375
0.142393
0.117754
0.0963521
0.0815534
0.0722935
0.0663927
0.0620596
0.0584826
0.0556202
0.0531339
0.0510046
0.0492234
0.0473649
0.0456927
0.0441995
0.0428757
0.0416796
0.0406016
0.0396414
0.0387852
0.0380381
0.0374037
0.0368142
0.0363085
0.0358499
0.0354315
0.0350554
0.0347172
0.0343783
0.0341135
0.0338897
0.0336867
0.0335053
0.0333264
0.0333199
0.0332274
0.0330731
0.0329784
0.0329126
0.0328436
0.0632392
0.0547903
0.0466223
0.0399347
0.0356286
0.0326859
0.0303683
0.0283586
0.0266707
0.025214
0.0239309
0.0227675
0.0218042
0.0207922
0.0199773
0.0191723
0.0185064
0.0178887
0.0173722
0.0168892
0.0164498
0.0161129
0.0157247
0.0155786
0.0153188
0.0150617
0.0148337
0.0146437
0.0144855
0.0145235
0.0143386
0.0141285
0.0140001
0.0139342
0.0141106
0.0139299
0.0137966
0.0137231
0.0136858
0.0136637
0.0527734
0.043457
0.0370879
0.0319841
0.0286868
0.0261164
0.0239345
0.0220846
0.0205138
0.019119
0.0179347
0.0167535
0.0160555
0.0149256
0.0143589
0.0135221
0.0130699
0.012434
0.0120673
0.0116152
0.0112222
0.010972
0.010567
0.0104418
0.0102707
0.0100192
0.00984321
0.00964521
0.00949288
0.00955736
0.0094287
0.00921839
0.00913099
0.0089978
0.00903422
0.00915174
0.00904181
0.00887582
0.00882203
0.00875588
0.0465575
0.0404784
0.0353768
0.0311293
0.0274545
0.0244339
0.0222778
0.0204343
0.0188248
0.0174151
0.0161791
0.0150993
0.0141658
0.0132991
0.0125374
0.0118712
0.0112744
0.0107765
0.0102417
0.00990898
0.00940908
0.00917186
0.00880069
0.00863966
0.00839746
0.00826046
0.00801752
0.00790497
0.0077379
0.00779699
0.00766962
0.0074923
0.00741592
0.00726568
0.00722527
0.00739628
0.00730818
0.00716202
0.00712819
0.00702822
0.0465394
0.0403672
0.0352999
0.0311136
0.0276184
0.0246951
0.0219945
0.0197865
0.0182001
0.0167934
0.0155463
0.0144525
0.0135025
0.0126263
0.0118498
0.0111618
0.0105519
0.0100118
0.00953271
0.00911112
0.00874153
0.00841463
0.00813866
0.00789733
0.00767241
0.00747276
0.00729445
0.00713521
0.00700193
0.00703333
0.00689044
0.00674783
0.00666035
0.00650542
0.00645745
0.00662886
0.00653539
0.00642618
0.00637599
0.00627007
0.046366
0.0403533
0.0353362
0.0311421
0.0276168
0.024661
0.0220827
0.0197078
0.0178957
0.0165251
0.0152875
0.0141903
0.0132283
0.0123437
0.011559
0.0108646
0.0102498
0.00970552
0.0092248
0.00880094
0.0084284
0.00810368
0.00783361
0.0076315
0.00739225
0.00718203
0.00699445
0.00683433
0.00671131
0.00674398
0.00659398
0.00646511
0.00635634
0.00626475
0.00620069
0.00636846
0.0062648
0.00618388
0.00608574
0.00603233
0.0454608
0.0399034
0.0350416
0.0308889
0.0273722
0.0243943
0.0217101
0.0194717
0.017843
0.0164558
0.0152168
0.0141307
0.0131835
0.0123105
0.0115384
0.0108554
0.0102509
0.00971814
0.00924827
0.0088339
0.00847247
0.0081519
0.00787528
0.00762149
0.00744526
0.00726505
0.00709708
0.00693428
0.0068183
0.00686211
0.00671903
0.00657639
0.00648957
0.00632229
0.00628892
0.00648797
0.00638476
0.00632105
0.00618308
0.00614864
0.0489234
0.0413459
0.035514
0.0308616
0.0270823
0.0238629
0.0215003
0.0197151
0.0181444
0.0167672
0.0155619
0.014516
0.0136003
0.0127524
0.0119988
0.0113372
0.0107399
0.0102266
0.00977369
0.00935211
0.00904539
0.00862474
0.00835572
0.00815222
0.00800381
0.00780661
0.00766727
0.00741974
0.00734046
0.0073767
0.00725174
0.00708384
0.00700459
0.00683955
0.00680489
0.00685992
0.00701308
0.00691734
0.00677209
0.00671316
0.0543632
0.0439502
0.036979
0.0314534
0.0276702
0.0251661
0.0230475
0.0212347
0.0196754
0.0183219
0.0171593
0.0161183
0.0151908
0.014361
0.0135439
0.012992
0.0122184
0.0118226
0.0112406
0.0109432
0.0104828
0.0102538
0.0098409
0.009735
0.00956916
0.0092996
0.0091502
0.00891318
0.00881554
0.00886046
0.00872324
0.00852485
0.00843783
0.00830702
0.00824475
0.00833259
0.00848244
0.00836845
0.00819215
0.00813515
0.0632381
0.0547932
0.0466195
0.0399378
0.0356109
0.0326839
0.0303711
0.0283621
0.0266756
0.0252162
0.0239134
0.0227788
0.0217972
0.0207967
0.0199514
0.0191632
0.0184982
0.0178858
0.0173711
0.0168807
0.0164578
0.0160824
0.0157367
0.0155451
0.0153223
0.0150625
0.0148268
0.0146383
0.0144818
0.0145205
0.0143307
0.0141211
0.0139941
0.0139049
0.0138419
0.0138772
0.0140221
0.0138696
0.013727
0.0136591
0.128365
0.107321
0.0907704
0.0796105
0.0727448
0.0679899
0.0641913
0.0609109
0.0581449
0.0557579
0.0536319
0.0517507
0.0500764
0.0485333
0.0470893
0.0457809
0.0446124
0.0435689
0.0426429
0.0418146
0.0410782
0.0404568
0.0398991
0.0394355
0.0390027
0.0386027
0.038242
0.0379159
0.0375957
0.0373532
0.0371254
0.0369126
0.0367255
0.0365684
0.0364186
0.0363658
0.0362982
0.0362051
0.0361129
0.0360201
0.0951918
0.0797594
0.0684857
0.0596033
0.0530669
0.048498
0.0449399
0.0419972
0.0395149
0.0373763
0.0355068
0.0338966
0.0324547
0.031159
0.0300028
0.0289821
0.0280116
0.0271677
0.0264279
0.0257728
0.0251874
0.0246819
0.0241948
0.023772
0.0234133
0.0230698
0.0227571
0.0224917
0.0222159
0.021984
0.0218119
0.0216526
0.0215058
0.0213875
0.0212887
0.0213131
0.0212654
0.0211645
0.0210782
0.0210231
0.0543647
0.0439383
0.0369602
0.031454
0.0276706
0.025163
0.0230434
0.0212305
0.0196713
0.018318
0.0171519
0.0160925
0.0152685
0.0142911
0.0136834
0.0128
0.0123534
0.0117093
0.0112803
0.0109471
0.0104741
0.0102562
0.00983616
0.00973577
0.00956235
0.00929558
0.00914016
0.00891088
0.00880604
0.00886515
0.00871945
0.00852491
0.00842744
0.00829539
0.00835218
0.00849538
0.00835837
0.00824139
0.00812496
0.00812107
0.0464199
0.040159
0.0347707
0.0302331
0.0265339
0.0235664
0.0211268
0.0190908
0.017369
0.0158928
0.0146206
0.0134943
0.0125587
0.0116824
0.0109338
0.0101995
0.00954106
0.00908678
0.00870655
0.00827707
0.00792226
0.00759554
0.00721523
0.00710844
0.00697555
0.00674056
0.00657485
0.00637531
0.00624554
0.00634255
0.00623677
0.00605453
0.00595614
0.00579282
0.00581687
0.00597402
0.00589199
0.00574609
0.00568282
0.00557279
0.0477432
0.041407
0.036093
0.0316199
0.0278494
0.0246763
0.0220268
0.0197818
0.0178643
0.0162151
0.0147892
0.0135421
0.0124825
0.0115294
0.0106916
0.0099458
0.00927933
0.00870218
0.00819237
0.00774934
0.00727497
0.00693467
0.00669856
0.00650079
0.00630879
0.00612918
0.00595706
0.00580925
0.0056461
0.00571274
0.00558516
0.00546232
0.00536286
0.00517858
0.00519321
0.00534007
0.00525176
0.00513644
0.00507363
0.00494307
0.0494932
0.0429926
0.0375159
0.0329023
0.0290051
0.0257046
0.0228827
0.020471
0.0184269
0.0166747
0.0151588
0.0138354
0.0127141
0.011708
0.0108222
0.0100397
0.00934693
0.00873387
0.00818858
0.00770634
0.00727404
0.00689177
0.00654018
0.00640523
0.00619125
0.00598448
0.00579316
0.00563832
0.00550929
0.00555515
0.00541488
0.00528734
0.00517275
0.00505555
0.00504586
0.00517594
0.00507631
0.00499107
0.00490586
0.00481665
0.0503212
0.0436493
0.0380686
0.033378
0.0294169
0.0260582
0.0231904
0.0207211
0.0186131
0.0168166
0.0152691
0.0139217
0.0127785
0.0117557
0.0108554
0.0100607
0.00935751
0.00873417
0.0081817
0.00769254
0.00725972
0.00687732
0.00649132
0.0063294
0.00619096
0.00596595
0.00569473
0.0055065
0.00544339
0.00550362
0.00536872
0.00524374
0.00513013
0.00502352
0.00501802
0.00514837
0.00504848
0.0049584
0.00487548
0.00478823
0.0499283
0.0431623
0.0375587
0.0328744
0.0289346
0.0256031
0.0227662
0.0203478
0.0182941
0.0165367
0.0150231
0.0137091
0.0125951
0.0115963
0.0107177
0.0099414
0.0092537
0.00864773
0.00811225
0.0076365
0.00721363
0.00682998
0.00646056
0.00631412
0.00613735
0.00594844
0.00574411
0.00560616
0.00549472
0.00554039