/*--------------------------------*- C++ -*----------------------------------*\
| =========                 |                                                 |
| \\      /  F ield         | OpenFOAM: The Open Source CFD Toolbox           |
|  \\    /   O peration     | Version:  2212                                  |
|   \\  /    A nd           | Website:  www.openfoam.com                      |
|    \\/     M anipulation  |                                                 |
\*---------------------------------------------------------------------------*/
FoamFile
{
    version     2.0;
    format      ascii;
    arch        "LSB;label=32;scalar=64";
    class       volScalarField;
    location    "0.95";
    object      k;
}
// * * * * * * * * * * * * * * * * * * * * * * * * * * * * * * * * * * * * * //

dimensions      [0 2 -2 0 0 0 0];

internalField   nonuniform List<scalar> 
6840
(
0.213564
0.055916
0.0283994
0.0193412
0.0146928
0.0118511
0.00989076
0.00851617
0.00749152
0.00669663
0.00606108
0.00555175
0.00512441
0.00474794
0.00443028
0.00416508
0.00394336
0.00376409
0.00365902
0.00355869
0.264759
0.104702
0.0585298
0.0391631
0.02862
0.0219935
0.0175362
0.0143635
0.0120086
0.0102143
0.00881711
0.00770693
0.00680597
0.00606386
0.00545387
0.00495505
0.00454247
0.00420296
0.00394302
0.00376667
0.283364
0.126774
0.071702
0.0473282
0.0338663
0.0256617
0.0204609
0.0167972
0.0140489
0.0119415
0.0102845
0.00895654
0.00788578
0.0070123
0.00629017
0.00568728
0.00518177
0.00475666
0.00440133
0.0041195
0.292299
0.141633
0.0819302
0.0541654
0.0389231
0.0292875
0.0232723
0.0190786
0.0159341
0.0135149
0.0116267
0.0101126
0.00888161
0.00787066
0.00703241
0.00633119
0.00573972
0.0052373
0.00480989
0.0044761
0.295943
0.148782
0.0871941
0.0576749
0.0415193
0.0310722
0.0246449
0.0202208
0.0169047
0.0143244
0.0123076
0.010701
0.00939425
0.00831957
0.0074267
0.00667766
0.00604328
0.00550108
0.00503767
0.00468276
0.295943
0.148782
0.0871941
0.0576749
0.0415193
0.0310721
0.0246449
0.0202207
0.0169045
0.0143242
0.0123072
0.0107006
0.00939354
0.00831852
0.00742507
0.00667507
0.00603915
0.00549442
0.00502607
0.00465321
0.292299
0.141633
0.0819301
0.0541653
0.038923
0.0292873
0.0232722
0.0190784
0.0159338
0.0135145
0.011626
0.0101117
0.00888019
0.00786854
0.00702917
0.00632612
0.00573172
0.0052245
0.00479096
0.00446154
0.283364
0.126774
0.071702
0.0473282
0.0338663
0.0256616
0.0204608
0.016797
0.0140486
0.011941
0.0102839
0.00895567
0.0078845
0.00701038
0.00628721
0.00568266
0.00517444
0.00474489
0.00438324
0.0041014
0.264759
0.104702
0.0585298
0.0391631
0.02862
0.0219935
0.0175362
0.0143635
0.0120085
0.0102142
0.00881692
0.0077066
0.00680542
0.00606282
0.00545229
0.00495237
0.00453757
0.00419344
0.00392401
0.00373863
0.213564
0.055916
0.0283994
0.0193412
0.0146928
0.0118511
0.00989076
0.00851617
0.00749152
0.00669663
0.00606108
0.00555175
0.00512441
0.00474794
0.00443028
0.00416508
0.00394336
0.00376408
0.00365901
0.00355869
0.264759
0.104702
0.0585298
0.0391631
0.02862
0.0219935
0.0175362
0.0143635
0.0120085
0.0102142
0.00881692
0.0077066
0.00680542
0.00606282
0.00545229
0.00495237
0.00453757
0.00419345
0.00392402
0.00373862
0.311746
0.197541
0.130357
0.0911458
0.0668024
0.0508112
0.0397946
0.0319124
0.0260946
0.0216878
0.0182773
0.0155895
0.0134423
0.0117
0.01027
0.00908361
0.00809018
0.00725314
0.00655719
0.00588031
0.31754
0.217754
0.151086
0.108549
0.0807157
0.0618727
0.0486775
0.0391419
0.0320589
0.0266718
0.0224904
0.0191877
0.0165395
0.0143875
0.0126185
0.0111506
0.00992217
0.00888591
0.00800992
0.00725729
0.319723
0.227073
0.162232
0.118772
0.0893611
0.0689928
0.0545306
0.0439844
0.0360998
0.0300747
0.025382
0.0216651
0.0186774
0.0162448
0.0142413
0.0125745
0.0111751
0.00999016
0.00897889
0.00811215
0.320484
0.23086
0.167176
0.123531
0.0935158
0.0724824
0.0574405
0.046421
0.0381534
0.0318166
0.0268699
0.0229452
0.0197859
0.0172097
0.0150851
0.0133146
0.011825
0.0105602
0.00947695
0.00854008
0.320484
0.23086
0.167176
0.123531
0.0935158
0.0724823
0.0574403
0.0464208
0.0381531
0.0318162
0.0268694
0.0229445
0.0197848
0.0172082
0.0150829
0.0133114
0.0118202
0.0105532
0.00946665
0.0085208
0.319723
0.227073
0.162232
0.118772
0.089361
0.0689926
0.0545303
0.0439841
0.0360993
0.030074
0.025381
0.0216636
0.0186754
0.0162419
0.0142371
0.0125682
0.0111657
0.00997627
0.00895817
0.00807435
0.31754
0.217754
0.151085
0.108549
0.0807156
0.0618726
0.0486773
0.0391417
0.0320585
0.0266713
0.0224897
0.0191867
0.016538
0.0143855
0.0126155
0.0111462
0.00991555
0.00887575
0.00799324
0.00723968
0.311746
0.197541
0.130357
0.0911458
0.0668024
0.0508112
0.0397946
0.0319124
0.0260946
0.0216878
0.0182773
0.0155895
0.0134423
0.0117
0.01027
0.0090836
0.00809017
0.00725312
0.00655718
0.00588027
0.264759
0.104702
0.0585298
0.0391631
0.02862
0.0219935
0.0175362
0.0143635
0.0120086
0.0102143
0.00881711
0.00770693
0.00680597
0.00606386
0.00545387
0.00495505
0.00454247
0.00420295
0.00394302
0.00376669
0.283364
0.126774
0.071702
0.0473282
0.0338663
0.0256616
0.0204608
0.016797
0.0140486
0.011941
0.0102839
0.00895567
0.00788449
0.00701038
0.00628722
0.00568268
0.00517444
0.00474489
0.00438323
0.00410132
0.31754
0.217754
0.151085
0.108549
0.0807156
0.0618726
0.0486773
0.0391417
0.0320585
0.0266713
0.0224897
0.0191867
0.016538
0.0143855
0.0126155
0.0111463
0.00991556
0.00887576
0.00799325
0.0072397
0.322005
0.239026
0.177588
0.133616
0.102323
0.079867
0.0635106
0.0513822
0.0422218
0.0351797
0.0296761
0.0253099
0.0217988
0.0189406
0.0165882
0.0146327
0.0129927
0.0116057
0.0104204
0.00936469
0.323293
0.245617
0.187499
0.144537
0.112864
0.089404
0.0718633
0.0585866
0.0483997
0.0404745
0.034225
0.0292337
0.0251997
0.0219035
0.019183
0.0169167
0.0150127
0.0133995
0.0120194
0.0108155
0.323714
0.247819
0.191099
0.14881
0.117249
0.0935707
0.0756572
0.0619604
0.0513625
0.043061
0.0364789
0.031199
0.026917
0.0234085
0.0205063
0.0180843
0.0160461
0.0143163
0.0128324
0.0115267
0.323714
0.247819
0.191099
0.14881
0.117249
0.0935706
0.0756572
0.0619603
0.0513624
0.0430608
0.0364786
0.0311986
0.0269164
0.0234078
0.0205054
0.018083
0.0160443
0.0143141
0.0128302
0.0115285
0.323293
0.245617
0.187499
0.144537
0.112864
0.0894039
0.0718632
0.0585864
0.0483995
0.0404741
0.0342245
0.0292331
0.0251989
0.0219024
0.0191814
0.0169144
0.0150095
0.013395
0.0120122
0.0107949
0.322005
0.239026
0.177588
0.133616
0.102323
0.079867
0.0635106
0.0513822
0.0422218
0.0351797
0.0296761
0.0253099
0.0217988
0.0189406
0.0165882
0.0146327
0.0129927
0.0116057
0.0104204
0.00936468
0.31754
0.217754
0.151086
0.108549
0.0807157
0.0618727
0.0486775
0.0391419
0.0320589
0.0266718
0.0224904
0.0191877
0.0165395
0.0143875
0.0126185
0.0111506
0.00992216
0.00888589
0.0080099
0.00725728
0.283364
0.126774
0.071702
0.0473282
0.0338663
0.0256617
0.0204609
0.0167972
0.0140489
0.0119415
0.0102845
0.00895654
0.00788577
0.0070123
0.00629018
0.00568728
0.00518177
0.00475666
0.00440133
0.00411959
0.292299
0.141633
0.0819301
0.0541653
0.038923
0.0292873
0.0232722
0.0190784
0.0159338
0.0135145
0.011626
0.0101117
0.00888018
0.00786853
0.00702918
0.00632614
0.00573172
0.00522451
0.00479096
0.00446151
0.319723
0.227073
0.162232
0.118772
0.089361
0.0689926
0.0545303
0.0439841
0.0360993
0.030074
0.025381
0.0216636
0.0186754
0.0162419
0.0142372
0.0125683
0.0111657
0.00997627
0.00895816
0.00807434
0.323293
0.245617
0.187499
0.144537
0.112864
0.0894039
0.0718632
0.0585864
0.0483995
0.0404741
0.0342245
0.0292331
0.0251988
0.0219024
0.0191814
0.0169145
0.0150095
0.013395
0.0120122
0.0107948
0.324288
0.250862
0.19613
0.154888
0.123591
0.09968
0.0812741
0.0669838
0.0557848
0.0469225
0.0398397
0.0341239
0.0294677
0.0256405
0.0224676
0.0198159
0.0175824
0.0156858
0.0140573
0.0126227
0.32459
0.252403
0.19891
0.158543
0.12769
0.103871
0.08532
0.0707498
0.0592099
0.0499926
0.0425683
0.0365382
0.0316004
0.0275248
0.024135
0.0212949
0.0188978
0.0168582
0.0151008
0.0135319
0.32459
0.252403
0.19891
0.158543
0.12769
0.103871
0.08532
0.0707498
0.0592098
0.0499925
0.0425682
0.0365381
0.0316002
0.0275246
0.0241348
0.0212946
0.0188975
0.0168582
0.0151028
0.0135462
0.324288
0.250862
0.19613
0.154888
0.123591
0.09968
0.0812741
0.0669838
0.0557848
0.0469225
0.0398397
0.0341239
0.0294677
0.0256405
0.0224676
0.0198159
0.0175824
0.0156858
0.0140573
0.0126228
0.323293
0.245617
0.187499
0.144537
0.112864
0.089404
0.0718633
0.0585866
0.0483997
0.0404745
0.034225
0.0292337
0.0251997
0.0219035
0.019183
0.0169167
0.0150126
0.0133995
0.0120193
0.0108155
0.319723
0.227073
0.162232
0.118772
0.0893611
0.0689928
0.0545306
0.0439844
0.0360998
0.0300747
0.025382
0.021665
0.0186774
0.0162448
0.0142414
0.0125745
0.0111751
0.00999016
0.00897888
0.00811218
0.292299
0.141633
0.0819302
0.0541654
0.0389231
0.0292875
0.0232723
0.0190786
0.0159341
0.0135149
0.0116267
0.0101126
0.0088816
0.00787065
0.00703243
0.00633121
0.00573973
0.00523731
0.0048099
0.00447614
0.295943
0.148782
0.0871941
0.0576749
0.0415193
0.0310721
0.0246449
0.0202207
0.0169045
0.0143242
0.0123072
0.0107006
0.00939354
0.00831852
0.00742507
0.00667507
0.00603914
0.00549442
0.00502606
0.0046532
0.320484
0.23086
0.167176
0.123531
0.0935158
0.0724823
0.0574403
0.0464208
0.0381531
0.0318162
0.0268694
0.0229445
0.0197848
0.0172082
0.0150829
0.0133114
0.0118202
0.0105532
0.00946663
0.00852084
0.323714
0.247819
0.191099
0.14881
0.117249
0.0935706
0.0756572
0.0619603
0.0513624
0.0430608
0.0364786
0.0311986
0.0269164
0.0234078
0.0205054
0.018083
0.0160443
0.0143141
0.0128302
0.0115283
0.32459
0.252403
0.19891
0.158543
0.12769
0.103871
0.08532
0.0707498
0.0592098
0.0499925
0.0425682
0.0365381
0.0316002
0.0275246
0.0241348
0.0212946
0.0188975
0.0168582
0.0151027
0.0135461
0.324844
0.253685
0.20131
0.161836
0.131535
0.107943
0.08937
0.0746125
0.062792
0.0532534
0.0455013
0.0391574
0.0339303
0.0295946
0.0259743
0.0229318
0.0203579
0.0181639
0.0162709
0.0145881
0.324844
0.253685
0.20131
0.161836
0.131535
0.107943
0.08937
0.0746125
0.062792
0.0532534
0.0455013
0.0391574
0.0339303
0.0295946
0.0259743
0.0229318
0.0203579
0.0181639
0.0162709
0.0145881
0.32459
0.252403
0.19891
0.158543
0.12769
0.103871
0.08532
0.0707498
0.0592099
0.0499926
0.0425683
0.0365382
0.0316003
0.0275248
0.024135
0.0212949
0.0188978
0.0168582
0.0151008
0.0135319
0.323714
0.247819
0.191099
0.14881
0.117249
0.0935707
0.0756572
0.0619604
0.0513625
0.043061
0.0364789
0.031199
0.0269169
0.0234085
0.0205063
0.0180843
0.0160461
0.0143163
0.0128324
0.0115266
0.320484
0.23086
0.167176
0.123531
0.0935158
0.0724824
0.0574405
0.046421
0.0381534
0.0318166
0.0268699
0.0229452
0.0197858
0.0172097
0.0150851
0.0133146
0.011825
0.0105602
0.00947695
0.00854011
0.295943
0.148782
0.0871941
0.0576749
0.0415193
0.0310722
0.0246449
0.0202208
0.0169047
0.0143244
0.0123076
0.010701
0.00939424
0.00831957
0.00742672
0.00667768
0.00604329
0.00550109
0.00503768
0.00468278
0.295943
0.148782
0.0871941
0.0576749
0.0415193
0.0310722
0.0246449
0.0202208
0.0169047
0.0143244
0.0123076
0.0107011
0.00939425
0.00831958
0.0074267
0.00667766
0.00604328
0.00550108
0.00503767
0.00468277
0.320484
0.23086
0.167176
0.123531
0.0935158
0.0724824
0.0574405
0.046421
0.0381534
0.0318166
0.0268699
0.0229452
0.0197859
0.0172097
0.0150851
0.0133146
0.011825
0.0105602
0.00947695
0.0085401
0.323714
0.247819
0.191099
0.14881
0.117249
0.0935707
0.0756572
0.0619604
0.0513625
0.043061
0.0364789
0.031199
0.026917
0.0234085
0.0205063
0.0180843
0.0160461
0.0143163
0.0128324
0.0115266
0.32459
0.252403
0.19891
0.158543
0.12769
0.103871
0.08532
0.0707498
0.0592099
0.0499926
0.0425683
0.0365382
0.0316004
0.0275248
0.024135
0.0212949
0.0188978
0.0168582
0.0151008
0.0135319
0.324844
0.253685
0.20131
0.161836
0.131535
0.107943
0.08937
0.0746125
0.062792
0.0532534
0.0455013
0.0391574
0.0339303
0.0295946
0.0259743
0.0229318
0.0203579
0.0181639
0.0162709
0.0145881
0.324844
0.253685
0.20131
0.161836
0.131535
0.107943
0.08937
0.0746125
0.062792
0.0532534
0.0455013
0.0391574
0.0339303
0.0295946
0.0259743
0.0229318
0.0203579
0.0181639
0.0162709
0.0145881
0.32459
0.252403
0.19891
0.158543
0.12769
0.103871
0.08532
0.0707498
0.0592098
0.0499925
0.0425682
0.0365381
0.0316002
0.0275246
0.0241348
0.0212946
0.0188975
0.0168582
0.0151028
0.0135462
0.323714
0.247819
0.191099
0.14881
0.117249
0.0935706
0.0756572
0.0619603
0.0513624
0.0430608
0.0364786
0.0311986
0.0269164
0.0234078
0.0205053
0.018083
0.0160443
0.0143141
0.0128302
0.0115284
0.320484
0.23086
0.167176
0.123531
0.0935158
0.0724823
0.0574403
0.0464208
0.0381531
0.0318162
0.0268694
0.0229445
0.0197848
0.0172082
0.0150829
0.0133114
0.0118202
0.0105532
0.00946665
0.00852087
0.295943
0.148782
0.0871941
0.0576749
0.0415193
0.0310721
0.0246449
0.0202207
0.0169045
0.0143242
0.0123072
0.0107006
0.00939354
0.00831851
0.00742507
0.00667507
0.00603914
0.00549442
0.00502606
0.00465321
0.292299
0.141633
0.0819302
0.0541654
0.0389231
0.0292875
0.0232723
0.0190786
0.0159341
0.0135149
0.0116267
0.0101126
0.00888161
0.00787066
0.00703241
0.00633119
0.00573972
0.0052373
0.00480989
0.00447613
0.319723
0.227073
0.162232
0.118772
0.0893611
0.0689928
0.0545306
0.0439845
0.0360998
0.0300747
0.025382
0.0216651
0.0186774
0.0162448
0.0142413
0.0125745
0.0111751
0.00999017
0.00897891
0.00811222
0.323293
0.245617
0.187499
0.144537
0.112864
0.089404
0.0718633
0.0585866
0.0483997
0.0404745
0.034225
0.0292337
0.0251997
0.0219035
0.019183
0.0169167
0.0150127
0.0133995
0.0120194
0.0108156
0.324288
0.250862
0.19613
0.154888
0.123591
0.09968
0.0812741
0.0669838
0.0557848
0.0469225
0.0398397
0.0341239
0.0294677
0.0256405
0.0224676
0.0198159
0.0175824
0.0156858
0.0140574
0.0126228
0.32459
0.252403
0.19891
0.158543
0.12769
0.103871
0.08532
0.0707498
0.0592098
0.0499925
0.0425682
0.0365381
0.0316002
0.0275246
0.0241348
0.0212946
0.0188975
0.0168582
0.0151028
0.0135462
0.32459
0.252403
0.19891
0.158543
0.12769
0.103871
0.08532
0.0707498
0.0592099
0.0499926
0.0425683
0.0365382
0.0316004
0.0275248
0.024135
0.0212949
0.0188978
0.0168582
0.0151008
0.0135319
0.324288
0.250862
0.19613
0.154888
0.123591
0.09968
0.0812741
0.0669838
0.0557848
0.0469225
0.0398397
0.0341239
0.0294677
0.0256405
0.0224676
0.0198159
0.0175824
0.0156858
0.0140573
0.0126228
0.323293
0.245617
0.187499
0.144537
0.112864
0.0894039
0.0718632
0.0585864
0.0483995
0.0404741
0.0342245
0.0292331
0.0251989
0.0219024
0.0191813
0.0169144
0.0150095
0.013395
0.0120122
0.0107949
0.319723
0.227073
0.162232
0.118772
0.089361
0.0689926
0.0545303
0.0439841
0.0360993
0.030074
0.025381
0.0216636
0.0186754
0.0162419
0.0142371
0.0125682
0.0111657
0.00997626
0.00895817
0.00807436
0.292299
0.141633
0.0819301
0.0541653
0.038923
0.0292873
0.0232722
0.0190784
0.0159338
0.0135145
0.011626
0.0101117
0.00888019
0.00786854
0.00702916
0.00632612
0.00573171
0.00522449
0.00479095
0.00446151
0.283364
0.126774
0.071702
0.0473282
0.0338663
0.0256617
0.0204609
0.0167972
0.0140489
0.0119415
0.0102845
0.00895655
0.00788578
0.0070123
0.00629017
0.00568728
0.00518177
0.00475667
0.00440134
0.00411961
0.31754
0.217754
0.151086
0.108549
0.0807157
0.0618727
0.0486775
0.0391419
0.0320589
0.0266718
0.0224904
0.0191877
0.0165395
0.0143875
0.0126185
0.0111507
0.00992219
0.00888593
0.00800995
0.00725734
0.322005
0.239026
0.177588
0.133616
0.102323
0.079867
0.0635106
0.0513822
0.0422218
0.0351797
0.0296761
0.0253099
0.0217988
0.0189407
0.0165882
0.0146327
0.0129927
0.0116057
0.0104205
0.00936476
0.323293
0.245617
0.187499
0.144537
0.112864
0.0894039
0.0718632
0.0585864
0.0483995
0.0404741
0.0342245
0.0292331
0.0251988
0.0219024
0.0191814
0.0169145
0.0150095
0.0133951
0.0120122
0.0107949
0.323714
0.247819
0.191099
0.14881
0.117249
0.0935706
0.0756572
0.0619603
0.0513624
0.0430608
0.0364786
0.0311986
0.0269164
0.0234078
0.0205054
0.018083
0.0160443
0.0143141
0.0128302
0.0115284
0.323714
0.247819
0.191099
0.14881
0.117249
0.0935707
0.0756572
0.0619604
0.0513625
0.043061
0.0364789
0.031199
0.026917
0.0234085
0.0205063
0.0180843
0.0160461
0.0143163
0.0128324
0.0115265
0.323293
0.245617
0.187499
0.144537
0.112864
0.0894039
0.0718633
0.0585866
0.0483997
0.0404745
0.034225
0.0292337
0.0251997
0.0219035
0.019183
0.0169167
0.0150127
0.0133995
0.0120194
0.0108155
0.322005
0.239026
0.177588
0.133616
0.102323
0.079867
0.0635106
0.0513822
0.0422218
0.0351797
0.0296761
0.0253099
0.0217988
0.0189406
0.0165882
0.0146327
0.0129927
0.0116057
0.0104204
0.00936469
0.31754
0.217754
0.151085
0.108549
0.0807156
0.0618726
0.0486773
0.0391417
0.0320585
0.0266713
0.0224897
0.0191867
0.016538
0.0143855
0.0126155
0.0111462
0.00991554
0.00887575
0.00799325
0.00723969
0.283364
0.126774
0.071702
0.0473282
0.0338663
0.0256616
0.0204608
0.016797
0.0140486
0.011941
0.0102839
0.00895567
0.0078845
0.00701038
0.0062872
0.00568266
0.00517443
0.00474488
0.00438322
0.00410128
0.264759
0.104702
0.0585298
0.0391631
0.02862
0.0219935
0.0175362
0.0143635
0.0120086
0.0102143
0.00881711
0.00770693
0.00680597
0.00606386
0.00545388
0.00495505
0.00454248
0.00420297
0.00394303
0.00376672
0.311746
0.197541
0.130357
0.0911458
0.0668024
0.0508112
0.0397946
0.0319124
0.0260946
0.0216878
0.0182773
0.0155895
0.0134423
0.0117
0.01027
0.00908363
0.0080902
0.00725316
0.00655722
0.00588034
0.31754
0.217754
0.151085
0.108549
0.0807156
0.0618726
0.0486773
0.0391417
0.0320585
0.0266713
0.0224897
0.0191867
0.016538
0.0143855
0.0126156
0.0111463
0.00991557
0.00887578
0.00799328
0.00723973
0.319723
0.227073
0.162232
0.118772
0.089361
0.0689926
0.0545303
0.0439841
0.0360993
0.030074
0.025381
0.0216636
0.0186754
0.0162419
0.0142372
0.0125683
0.0111657
0.00997628
0.00895817
0.00807435
0.320484
0.23086
0.167176
0.123531
0.0935158
0.0724823
0.0574403
0.0464208
0.0381531
0.0318162
0.0268694
0.0229445
0.0197848
0.0172082
0.0150829
0.0133114
0.0118202
0.0105532
0.00946663
0.00852083
0.320484
0.23086
0.167176
0.123531
0.0935158
0.0724824
0.0574405
0.046421
0.0381534
0.0318166
0.0268699
0.0229452
0.0197859
0.0172097
0.015085
0.0133146
0.011825
0.0105602
0.00947693
0.00854008
0.319723
0.227073
0.162232
0.118772
0.0893611
0.0689928
0.0545306
0.0439845
0.0360998
0.0300747
0.025382
0.021665
0.0186774
0.0162448
0.0142414
0.0125745
0.0111751
0.00999016
0.00897888
0.00811222
0.31754
0.217754
0.151086
0.108549
0.0807157
0.0618727
0.0486775
0.0391419
0.0320589
0.0266718
0.0224904
0.0191877
0.0165395
0.0143875
0.0126185
0.0111506
0.00992217
0.0088859
0.00800992
0.00725731
0.311746
0.197541
0.130357
0.0911458
0.0668024
0.0508112
0.0397946
0.0319124
0.0260946
0.0216878
0.0182773
0.0155895
0.0134423
0.0117
0.01027
0.00908361
0.00809017
0.00725313
0.00655719
0.0058803
0.264759
0.104702
0.0585298
0.0391631
0.02862
0.0219935
0.0175362
0.0143635
0.0120085
0.0102142
0.00881692
0.0077066
0.00680542
0.00606282
0.00545229
0.00495237
0.00453757
0.00419344
0.00392401
0.00373859
0.213564
0.055916
0.0283994
0.0193412
0.0146928
0.0118511
0.00989076
0.00851617
0.00749152
0.00669663
0.00606108
0.00555175
0.00512441
0.00474794
0.00443029
0.00416509
0.00394337
0.00376409
0.00365902
0.00355869
0.264759
0.104702
0.0585298
0.0391631
0.02862
0.0219935
0.0175362
0.0143635
0.0120085
0.0102142
0.00881692
0.0077066
0.00680542
0.00606282
0.0054523
0.00495238
0.00453758
0.00419345
0.00392403
0.00373862
0.283364
0.126774
0.071702
0.0473282
0.0338663
0.0256616
0.0204608
0.016797
0.0140486
0.011941
0.0102839
0.00895567
0.00788449
0.00701038
0.00628722
0.00568267
0.00517444
0.00474489
0.00438323
0.00410128
0.292299
0.141633
0.0819301
0.0541653
0.038923
0.0292873
0.0232721
0.0190784
0.0159338
0.0135145
0.011626
0.0101117
0.00888018
0.00786853
0.00702918
0.00632613
0.00573172
0.0052245
0.00479095
0.00446151
0.295943
0.148782
0.0871941
0.0576749
0.0415193
0.0310721
0.0246449
0.0202207
0.0169045
0.0143242
0.0123072
0.0107006
0.00939354
0.00831851
0.00742506
0.00667506
0.00603914
0.00549442
0.00502605
0.00465319
0.295943
0.148782
0.0871941
0.0576749
0.0415193
0.0310722
0.0246449
0.0202208
0.0169047
0.0143244
0.0123076
0.010701
0.00939424
0.00831957
0.00742669
0.00667766
0.00604327
0.00550108
0.00503767
0.00468276
0.292299
0.141633
0.0819302
0.0541654
0.0389231
0.0292875
0.0232723
0.0190786
0.0159341
0.0135149
0.0116267
0.0101126
0.0088816
0.00787065
0.00703242
0.0063312
0.00573973
0.00523731
0.0048099
0.00447615
0.283364
0.126774
0.071702
0.0473282
0.0338663
0.0256617
0.0204609
0.0167972
0.0140489
0.0119415
0.0102845
0.00895654
0.00788577
0.0070123
0.00629018
0.00568729
0.00518177
0.00475666
0.00440134
0.00411961
0.264759
0.104702
0.0585298
0.0391631
0.02862
0.0219935
0.0175362
0.0143635
0.0120086
0.0102143
0.00881711
0.00770693
0.00680596
0.00606386
0.00545387
0.00495505
0.00454247
0.00420296
0.00394303
0.00376677
0.213564
0.055916
0.0283994
0.0193412
0.0146928
0.0118511
0.00989076
0.00851617
0.00749152
0.00669663
0.00606108
0.00555175
0.00512441
0.00474794
0.00443028
0.00416508
0.00394336
0.00376408
0.00365901
0.0035587
0.00485438
0.00414382
0.00352147
0.00316436
0.00295012
0.00281925
0.00272223
0.00264038
0.00257279
0.00251529
0.00246553
0.00241956
0.00237583
0.002335
0.00229671
0.00226128
0.00222872
0.00219898
0.00217193
0.00214695
0.00212411
0.00210401
0.00208649
0.00207067
0.00205643
0.00204249
0.00202938
0.00201735
0.00200703
0.00199842
0.00199081
0.00198268
0.0019751
0.00196869
0.00196564
0.00196088
0.00195831
0.00195495
0.00195186
0.00194751
0.0039181
0.00348246
0.00312111
0.00286743
0.00270163
0.00258444
0.00248889
0.00240457
0.00233197
0.00226826
0.00221056
0.00215839
0.00211076
0.00206721
0.00202486
0.00198607
0.00195077
0.0019189
0.00189017
0.00186413
0.00184063
0.00182059
0.00180266
0.00178737
0.00177319
0.00175985
0.00174754
0.00173629
0.0017254
0.00171674
0.00170894
0.00170157
0.00169497
0.00168856
0.00168418
0.00168051
0.00167706
0.00167427
0.00167203
0.00166973
0.00375442
0.00348987
0.00325009
0.00305001
0.0028871
0.0027441
0.00262252
0.00251944
0.00242921
0.00234916
0.00227781
0.00221415
0.00215713
0.00210812
0.00205626
0.0020111
0.00197068
0.00193462
0.00190203
0.00187362
0.00184513
0.00181951
0.00179846
0.00177986
0.00176257
0.00174621
0.00173116
0.00171771
0.00170575
0.00169497
0.00168505
0.00167597
0.00166821
0.00166253
0.00165763
0.00165129
0.00164744
0.00164375
0.00164105
0.00163909
0.00401083
0.00366876
0.00341121
0.00320135
0.00302496
0.00287401
0.00274154
0.00262441
0.00251998
0.00242633
0.00234194
0.00226573
0.00219657
0.00213354
0.00207685
0.00202542
0.00197866
0.00193641
0.0018984
0.00186448
0.0018305
0.00180102
0.00177364
0.00174996
0.00173054
0.00171217
0.00169517
0.00168009
0.00166432
0.00165032
0.00164089
0.0016321
0.00162425
0.0016168
0.00160953
0.00160333
0.00159902
0.00159581
0.00159354
0.00159133
0.00430486
0.00384352
0.00354532
0.0033124
0.00311905
0.00295408
0.00281168
0.00268663
0.00257427
0.00247273
0.00238075
0.00229743
0.00222179
0.00215272
0.00208985
0.00203254
0.00198043
0.00193308
0.00189048
0.00185213
0.00181765
0.00178707
0.00176111
0.00173595
0.0017128
0.00169191
0.00167288
0.00165612
0.00163865
0.00162292
0.00161308
0.00160384
0.00159544
0.00158741
0.0015784
0.00157338
0.0015705
0.00156803
0.00156573
0.00156261
0.00438069
0.00391947
0.00360711
0.00336155
0.00315769
0.00298371
0.00283276
0.00270086
0.00258316
0.00247653
0.00237977
0.00229188
0.00221205
0.00213944
0.00207349
0.00201384
0.00195997
0.00191134
0.00186751
0.00182806
0.0017929
0.00176185
0.00173386
0.00170922
0.00168712
0.00166468
0.0016443
0.0016266
0.00160846
0.0015926
0.00158236
0.00157283
0.00156395
0.00155608
0.00154815
0.00154438
0.00154111
0.0015384
0.0015342
0.00152907
0.00412502
0.00381465
0.0035479
0.0033182
0.00311836
0.00294378
0.0027912
0.00265703
0.00253708
0.00242931
0.00233242
0.00224531
0.00216679
0.00209568
0.00203131
0.00197313
0.00192062
0.0018733
0.00183075
0.0017926
0.00175873
0.00172852
0.00170167
0.0016783
0.0016564
0.00163569
0.00161456
0.00159684
0.0015787
0.0015629
0.00155257
0.00154279
0.00153365
0.00152581
0.00151807
0.00151299
0.00150864
0.00150587
0.00150247
0.00149847
0.00406609
0.00374404
0.00346716
0.00322612
0.00301673
0.00283961
0.00268766
0.00255631
0.00244138
0.00233984
0.00224955
0.00216896
0.00209649
0.00203098
0.00197191
0.00191861
0.00187058
0.00182747
0.00178894
0.00175461
0.00172379
0.00169645
0.00167168
0.00165055
0.00162867
0.00160879
0.00159048
0.00157478
0.00155851
0.00154441
0.0015332
0.00152408
0.00151542
0.00150809
0.00150151
0.00149593
0.00149174
0.00148814
0.00148508
0.00148253
0.00419504
0.00372287
0.00335773
0.00306175
0.00282937
0.00266228
0.00252979
0.00241768
0.00232086
0.00223577
0.00215988
0.00209337
0.00203263
0.00197722
0.00192717
0.00188073
0.00183701
0.00179846
0.00176444
0.00173335
0.00170533
0.00168046
0.0016568
0.00163601
0.00161774
0.00160034
0.0015842
0.00157037
0.00155615
0.00154392
0.0015345
0.00152608
0.00151858
0.0015121
0.00150669
0.00150206
0.00149801
0.00149493
0.00149232
0.0014898
0.00424008
0.00373628
0.00327095
0.00293052
0.00270192
0.00255183
0.00243955
0.00234486
0.00226741
0.0021992
0.00213922
0.00208878
0.0020348
0.00198534
0.00194055
0.00190021
0.0018632
0.00182945
0.00179899
0.00177135
0.00174688
0.00172586
0.00170636
0.00168902
0.00167343
0.00165902
0.00164593
0.00163414
0.00162246
0.00161271
0.0016047
0.00159731
0.0015907
0.00158501
0.00157926
0.00157687
0.00157366
0.00157071
0.00156789
0.0015646
0.00485437
0.00414387
0.00352149
0.00316443
0.00295026
0.00281938
0.00272239
0.0026405
0.00257289
0.00251525
0.00246545
0.00241956
0.00237565
0.00233445
0.00229628
0.00226093
0.00222847
0.00219878
0.00217176
0.0021468
0.00212396
0.00210392
0.00208634
0.00207065
0.00205602
0.00204225
0.00202921
0.00201724
0.00200696
0.00199858
0.00199046
0.00198254
0.0019751
0.0019689
0.00196412
0.00196226
0.00195931
0.00195537
0.00195136
0.00194535
0.00424008
0.00373624
0.00327102
0.00293025
0.00270168
0.00255161
0.00243938
0.00234474
0.0022673
0.00219919
0.00213936
0.00208881
0.00203478
0.00198575
0.00194103
0.00190085
0.00186374
0.00182998
0.00179946
0.00177177
0.00174733
0.00172632
0.00170688
0.00168983
0.00167422
0.00165986
0.00164675
0.00163492
0.00162316
0.00161368
0.00160554
0.00159819
0.00159155
0.00158503
0.00158365
0.00158021
0.00157491
0.0015713
0.00156869
0.0015659
0.00418643
0.00374293
0.00336304
0.00311599
0.00294155
0.00279039
0.00263728
0.00248358
0.0023506
0.00222863
0.00211149
0.00200687
0.00190428
0.00180851
0.00171988
0.00164347
0.00157408
0.00151233
0.00145701
0.00140267
0.00135404
0.00131804
0.001289
0.00125675
0.00122558
0.00119761
0.00117335
0.00115287
0.00113434
0.00111281
0.00109472
0.00108127
0.0010709
0.00106322
0.00105206
0.00104132
0.00103614
0.00103233
0.00103051
0.00103044
0.00570644
0.00513305
0.00467534
0.00430719
0.00398988
0.00371168
0.00346491
0.00324519
0.00304611
0.00286579
0.00270138
0.00255513
0.00241604
0.00229808
0.00218521
0.00208722
0.00199504
0.00191391
0.00183789
0.00176926
0.00170701
0.00165013
0.00159931
0.00154849
0.00150332
0.00146263
0.00142508
0.00139388
0.0013615
0.00132688
0.00130044
0.00128017
0.00126229
0.00124927
0.0012327
0.0012125
0.00120055
0.00119364
0.0011903
0.00119079
0.00678995
0.0061426
0.00558449
0.00510674
0.00469875
0.00434696
0.00403578
0.00375944
0.00351231
0.00329063
0.00309163
0.00291221
0.00274972
0.00260342
0.00247097
0.00235084
0.0022421
0.00214298
0.00205474
0.00197319
0.00190241
0.00183776
0.00177635
0.00171868
0.0016702
0.00162383
0.00158267
0.00154525
0.00150642
0.00146696
0.00143772
0.00141363
0.00139185
0.00137464
0.00135366
0.0013296
0.0013164
0.00130772
0.00130226
0.00130062
0.00736021
0.00666529
0.00606767
0.00555005
0.00509931
0.00470406
0.00435917
0.00405704
0.00378611
0.00354212
0.0033224
0.00312415
0.00294579
0.00278449
0.00263859
0.00250647
0.00238678
0.00227834
0.00218022
0.00209163
0.00201125
0.00193962
0.0018687
0.00180823
0.00175719
0.00171037
0.0016656
0.0016243
0.00158218
0.00154223
0.00151132
0.00148432
0.00145997
0.00144004
0.00141704
0.00139258
0.00137966
0.00136965
0.00136176
0.00135696
0.00748345
0.00680801
0.00621163
0.00568793
0.00522819
0.0048232
0.00446666
0.00415554
0.00388006
0.00363139
0.00340693
0.00320386
0.00302077
0.00285534
0.00270546
0.00256958
0.00244638
0.00233469
0.00223347
0.00214195
0.00205881
0.00198523
0.00191417
0.00185262
0.00179245
0.00173888
0.00169104
0.00165043
0.00161539
0.00158066
0.00154726
0.00151754
0.00149136
0.00146858
0.00144822
0.00143129
0.00141245
0.00139839
0.00138794
0.00137978
0.00728979
0.00661851
0.00602845
0.00551468
0.00506794
0.00467841
0.00434
0.00404507
0.00378154
0.00354411
0.00333012
0.0031364
0.00296106
0.00280231
0.00265811
0.00252702
0.00240794
0.00229976
0.00220147
0.00211248
0.00203143
0.00195973
0.00189106
0.00182987
0.00177245
0.00172209
0.00167407
0.0016313
0.00158695
0.00154317
0.00151079
0.00148258
0.00145724
0.00143747
0.00141385
0.00138929
0.00137368
0.00136393
0.00135882
0.00135521
0.00674705
0.00604842
0.00548061
0.00500843
0.00461004
0.00427321
0.00398043
0.00371978
0.00348586
0.00327493
0.00308394
0.00291003
0.00275119
0.00260653
0.00247463
0.0023541
0.00224486
0.00214522
0.00205441
0.00197234
0.00189642
0.00183209
0.00176938
0.00171064
0.00165694
0.00160675
0.00155967
0.00152117
0.00148076
0.00143817
0.00140679
0.00138087
0.00135767
0.00134186
0.00132638
0.00130858
0.00128816
0.00127612
0.00126873
0.00126785
0.00539871
0.00491668
0.00448663
0.00414029
0.0038538
0.00360573
0.00338125
0.00317779
0.00299058
0.00281769
0.00265688
0.00250846
0.00237175
0.00224581
0.00213162
0.00202475
0.00193328
0.00184551
0.00176822
0.0016951
0.00163086
0.00157321
0.00152161
0.00147025
0.00142331
0.00138242
0.0013441
0.00131424
0.00128216
0.0012476
0.00122136
0.00120144
0.00118407
0.00117295
0.00116195
0.00114797
0.00113136
0.00112036
0.00111695
0.00111754
0.00418651
0.00374327
0.00336286
0.00311686
0.00294269
0.0027913
0.00263794
0.00248405
0.00235092
0.00222865
0.00211124
0.00200674
0.00190447
0.00180751
0.00171964
0.00164245
0.00157358
0.00151166
0.00145655
0.0014025
0.00135364
0.00131826
0.00128835
0.00125613
0.00122414
0.001196
0.00117193
0.00115177
0.00113343
0.0011119
0.0010937
0.00108027
0.00106986
0.00106222
0.00105547
0.00105027
0.00104152
0.00103345
0.00102953
0.00102847
0.00391806
0.00348254
0.00312107
0.00286717
0.00270183
0.00258472
0.00248917
0.00240478
0.00233216
0.00226836
0.00221043
0.00215844
0.00211083