/*--------------------------------*- C++ -*----------------------------------*\
| =========                 |                                                 |
| \\      /  F ield         | OpenFOAM: The Open Source CFD Toolbox           |
|  \\    /   O peration     | Version:  2212                                  |
|   \\  /    A nd           | Website:  www.openfoam.com                      |
|    \\/     M anipulation  |                                                 |
\*---------------------------------------------------------------------------*/
FoamFile
{
    version     2.0;
    format      ascii;
    arch        "LSB;label=32;scalar=64";
    class       volScalarField;
    location    "0.95";
    object      nut;
}
// * * * * * * * * * * * * * * * * * * * * * * * * * * * * * * * * * * * * * //

dimensions      [0 2 -1 0 0 0 0];

internalField   nonuniform List<scalar> 
6840
(
4.5356e-05
2.3208e-05
1.65396e-05
1.36494e-05
1.18966e-05
1.06844e-05
9.76079e-06
9.05716e-06
8.49483e-06
8.0315e-06
7.64086e-06
7.31275e-06
7.0256e-06
6.76249e-06
6.53217e-06
6.33339e-06
6.16219e-06
6.01964e-06
5.93383e-06
5.85499e-06
0.000107685
6.77183e-05
5.06311e-05
4.14159e-05
3.54049e-05
3.10367e-05
2.77138e-05
2.50818e-05
2.29337e-05
2.1151e-05
1.96513e-05
1.83725e-05
1.72652e-05
1.62969e-05
1.54555e-05
1.47318e-05
1.41056e-05
1.35692e-05
1.31448e-05
1.28502e-05
0.000160509
0.00010736
8.07409e-05
6.55976e-05
5.54897e-05
4.83026e-05
4.31311e-05
3.90793e-05
3.57396e-05
3.29502e-05
3.0579e-05
2.85367e-05
2.67768e-05
2.52507e-05
2.39158e-05
2.27417e-05
2.17089e-05
2.08015e-05
2.0013e-05
1.93743e-05
0.000198681
0.0001383
0.000105187
8.55269e-05
7.25013e-05
6.28902e-05
5.60612e-05
5.07594e-05
4.63881e-05
4.27219e-05
3.96254e-05
3.69557e-05
3.46338e-05
3.26037e-05
3.08196e-05
2.92443e-05
2.78473e-05
2.66047e-05
2.55031e-05
2.46226e-05
0.000218609
0.000155003
0.000118661
9.65069e-05
8.18823e-05
7.08355e-05
6.30854e-05
5.71432e-05
5.2248e-05
4.80956e-05
4.45815e-05
4.15704e-05
3.89498e-05
3.66549e-05
3.46331e-05
3.28417e-05
3.12453e-05
2.9815e-05
2.85397e-05
2.75414e-05
0.000218609
0.000155003
0.000118661
9.65068e-05
8.18823e-05
7.08354e-05
6.30853e-05
5.7143e-05
5.22476e-05
4.8095e-05
4.45805e-05
4.15689e-05
3.89474e-05
3.6651e-05
3.46268e-05
3.28313e-05
3.1228e-05
2.97863e-05
2.84909e-05
2.74494e-05
0.000198681
0.0001383
0.000105187
8.55269e-05
7.25012e-05
6.289e-05
5.60609e-05
5.07589e-05
4.63874e-05
4.27208e-05
3.96236e-05
3.69527e-05
3.46292e-05
3.25965e-05
3.08079e-05
2.92251e-05
2.78156e-05
2.65521e-05
2.54211e-05
2.45284e-05
0.000160509
0.00010736
8.07408e-05
6.55975e-05
5.54896e-05
4.83025e-05
4.31309e-05
3.9079e-05
3.5739e-05
3.29492e-05
3.05775e-05
2.85344e-05
2.67732e-05
2.5245e-05
2.39064e-05
2.27264e-05
2.16836e-05
2.07593e-05
1.99442e-05
1.92852e-05
0.000107685
6.77183e-05
5.06311e-05
4.14159e-05
3.54049e-05
3.10367e-05
2.77138e-05
2.50817e-05
2.29336e-05
2.11509e-05
1.96509e-05
1.83719e-05
1.72641e-05
1.62945e-05
1.54517e-05
1.47252e-05
1.40933e-05
1.35446e-05
1.30945e-05
1.27631e-05
4.5356e-05
2.3208e-05
1.65396e-05
1.36494e-05
1.18966e-05
1.06844e-05
9.76079e-06
9.05716e-06
8.49483e-06
8.0315e-06
7.64086e-06
7.31275e-06
7.0256e-06
6.76249e-06
6.53218e-06
6.33338e-06
6.16219e-06
6.01963e-06
5.93382e-06
5.85498e-06
0.000107685
6.77183e-05
5.06311e-05
4.14159e-05
3.54049e-05
3.10367e-05
2.77138e-05
2.50817e-05
2.29336e-05
2.11509e-05
1.96509e-05
1.83719e-05
1.72641e-05
1.62945e-05
1.54517e-05
1.47252e-05
1.40933e-05
1.35447e-05
1.30945e-05
1.27631e-05
0.000528907
0.000369984
0.000305097
0.000261371
0.000228528
0.000202476
0.000181114
0.000163073
0.000147538
0.000133982
0.000122047
0.000111463
0.000102129
9.38531e-05
8.64514e-05
7.9649e-05
7.34515e-05
6.79445e-05
6.37318e-05
5.49664e-05
0.000663952
0.000488459
0.000404619
0.000347248
0.000305036
0.000272128
0.000245319
0.00022289
0.000203757
0.000187182
0.000172658
0.000159819
0.000148381
0.000138132
0.000128905
0.000120695
0.000113312
0.000106621
0.000101018
9.44573e-05
0.00071288
0.000556432
0.000466397
0.000402355
0.000354426
0.00031705
0.000286675
0.000261255
0.000239581
0.000220845
0.000204442
0.000189947
0.000177039
0.000165462
0.000155011
0.000145537
0.000136912
0.000129015
0.000121761
0.000115329
0.000728543
0.000588231
0.000496002
0.000429131
0.000378509
0.000338934
0.000306817
0.000279971
0.000257068
0.000237247
0.000219895
0.000204553
0.000190876
0.000178594
0.000167493
0.000157396
0.000148149
0.000139611
0.000131654
0.000124011
0.000728543
0.000588231
0.000496002
0.000429131
0.000378509
0.000338933
0.000306816
0.000279969
0.000257066
0.000237244
0.00021989
0.000204545
0.000190862
0.000178571
0.000167454
0.000157332
0.000148042
0.000139433
0.000131361
0.000123445
0.00071288
0.000556432
0.000466397
0.000402355
0.000354425
0.000317049
0.000286673
0.000261253
0.000239577
0.000220838
0.000204431
0.00018993
0.000177012
0.000165417
0.000154937
0.000145416
0.000136709
0.000128679
0.00012121
0.000114317
0.000663952
0.000488458
0.000404619
0.000347248
0.000305035
0.000272127
0.000245318
0.000222888
0.000203754
0.000187177
0.00017265
0.000159807
0.000148362
0.0001381
0.000128854
0.00012061
0.000113166
0.000106365
0.000100525
9.46838e-05
0.000528907
0.000369984
0.000305097
0.000261371
0.000228528
0.000202476
0.000181114
0.000163073
0.000147538
0.000133982
0.000122047
0.000111463
0.000102129
9.38527e-05
8.64516e-05
7.96491e-05
7.34515e-05
6.79445e-05
6.37318e-05
5.49652e-05
0.000107685
6.77183e-05
5.06311e-05
4.14159e-05
3.54049e-05
3.10367e-05
2.77138e-05
2.50818e-05
2.29337e-05
2.1151e-05
1.96513e-05
1.83725e-05
1.72652e-05
1.62969e-05
1.54555e-05
1.47318e-05
1.41056e-05
1.35692e-05
1.31448e-05
1.28502e-05
0.000160509
0.00010736
8.07408e-05
6.55975e-05
5.54896e-05
4.83025e-05
4.31309e-05
3.9079e-05
3.5739e-05
3.29492e-05
3.05775e-05
2.85344e-05
2.67732e-05
2.52449e-05
2.39065e-05
2.27265e-05
2.16836e-05
2.07594e-05
1.99441e-05
1.9285e-05
0.000663952
0.000488458
0.000404619
0.000347248
0.000305035
0.000272127
0.000245318
0.000222888
0.000203754
0.000187177
0.00017265
0.000159807
0.000148362
0.000138101
0.000128853
0.00012061
0.000113166
0.000106364
0.000100524
9.46865e-05
0.000786828
0.000662293
0.000567974
0.000495805
0.000439463
0.000394562
0.000357975
0.000327452
0.00030149
0.000279051
0.000259398
0.000242003
0.000226474
0.000212513
0.000199891
0.00018844
0.000178006
0.000168451
0.00015961
0.000149948
0.000809324
0.000713906
0.000631505
0.000562574
0.000505377
0.000457786
0.000417842
0.00038394
0.000354805
0.000329451
0.000307158
0.000287381
0.000269704
0.0002538
0.000239411
0.000226332
0.000214386
0.000203405
0.000193156
0.000182946
0.000814958
0.000730426
0.000654634
0.000589044
0.000533067
0.000485438
0.000444763
0.000409793
0.00037947
0.000352931
0.00032949
0.000308627
0.000289936
0.000273093
0.000257836
0.000243948
0.000231239
0.000219516
0.000208476
0.000197228
0.000814958
0.000730426
0.000654634
0.000589043
0.000533067
0.000485438
0.000444763
0.000409792
0.000379468
0.000352929
0.000329488
0.000308623
0.00028993
0.000273083
0.000257821
0.000243925
0.000231204
0.000219465
0.000208423
0.000197311
0.000809324
0.000713906
0.000631505
0.000562574
0.000505377
0.000457785
0.000417841
0.000383939
0.000354803
0.000329448
0.000307153
0.000287375
0.000269694
0.000253784
0.000239386
0.000226292
0.000214324
0.000203303
0.00019296
0.000182306
0.000786828
0.000662293
0.000567974
0.000495805
0.000439463
0.000394562
0.000357975
0.000327452
0.00030149
0.000279051
0.000259398
0.000242003
0.000226474
0.000212513
0.000199891
0.00018844
0.000178007
0.000168451
0.000159611
0.000149948
0.000663952
0.000488459
0.000404619
0.000347248
0.000305036
0.000272128
0.000245319
0.00022289
0.000203757
0.000187182
0.000172658
0.000159819
0.000148381
0.000138132
0.000128905
0.000120695
0.000113312
0.000106621
0.000101018
9.44551e-05
0.000160509
0.00010736
8.07409e-05
6.55976e-05
5.54897e-05
4.83026e-05
4.31311e-05
3.90793e-05
3.57396e-05
3.29502e-05
3.0579e-05
2.85367e-05
2.67768e-05
2.52507e-05
2.39158e-05
2.27417e-05
2.17089e-05
2.08015e-05
2.00131e-05
1.93749e-05
0.000198681
0.0001383
0.000105187
8.55269e-05
7.25012e-05
6.289e-05
5.60609e-05
5.07589e-05
4.63874e-05
4.27208e-05
3.96236e-05
3.69527e-05
3.46292e-05
3.25965e-05
3.08079e-05
2.92252e-05
2.78157e-05
2.65521e-05
2.54211e-05
2.45284e-05
0.00071288
0.000556432
0.000466397
0.000402355
0.000354425
0.000317049
0.000286673
0.000261253
0.000239577
0.000220838
0.000204431
0.00018993
0.000177012
0.000165418
0.000154937
0.000145416
0.000136709
0.000128679
0.00012121
0.000114316
0.000809324
0.000713906
0.000631505
0.000562574
0.000505377
0.000457785
0.000417841
0.000383939
0.000354803
0.000329448
0.000307153
0.000287375
0.000269694
0.000253784
0.000239385
0.000226292
0.000214324
0.000203303
0.00019296
0.000182305
0.000823497
0.000753987
0.000688491
0.000628748
0.000575387
0.000528266
0.000486845
0.000450441
0.000418362
0.000389973
0.000364726
0.00034216
0.00032189
0.000303599
0.000287019
0.000271927
0.000258121
0.000245383
0.000233368
0.000221196
0.000826292
0.000764347
0.000706102
0.000651936
0.00060223
0.000557103
0.000516428
0.000479912
0.00044718
0.000417832
0.000391475
0.000367748
0.00034633
0.000326937
0.000309319
0.000293256
0.00027854
0.000264925
0.000251967
0.000238468
0.000826292
0.000764347
0.000706102
0.000651936
0.00060223
0.000557103
0.000516427
0.000479911
0.00044718
0.000417831
0.000391474
0.000367747
0.000346329
0.000326934
0.000309315
0.000293251
0.000278534
0.000264927
0.000252028
0.000238865
0.000823497
0.000753987
0.000688491
0.000628748
0.000575387
0.000528266
0.000486845
0.000450441
0.000418362
0.000389973
0.000364726
0.00034216
0.00032189
0.000303599
0.000287019
0.000271927
0.000258121
0.000245384
0.000233368
0.000221198
0.000809324
0.000713906
0.000631505
0.000562574
0.000505377
0.000457786
0.000417842
0.00038394
0.000354805
0.000329451
0.000307158
0.000287381
0.000269704
0.0002538
0.000239411
0.000226332
0.000214387
0.000203405
0.000193156
0.000182946
0.00071288
0.000556432
0.000466397
0.000402355
0.000354426
0.00031705
0.000286675
0.000261255
0.000239581
0.000220845
0.000204442
0.000189947
0.000177039
0.000165462
0.00015501
0.000145537
0.000136912
0.000129015
0.00012176
0.00011533
0.000198681
0.0001383
0.000105187
8.55269e-05
7.25013e-05
6.28902e-05
5.60612e-05
5.07594e-05
4.63881e-05
4.27219e-05
3.96254e-05
3.69556e-05
3.46337e-05
3.26037e-05
3.08197e-05
2.92444e-05
2.78473e-05
2.66047e-05
2.55031e-05
2.46223e-05
0.000218609
0.000155003
0.000118661
9.65068e-05
8.18823e-05
7.08354e-05
6.30853e-05
5.7143e-05
5.22476e-05
4.8095e-05
4.45805e-05
4.15689e-05
3.89474e-05
3.6651e-05
3.46268e-05
3.28313e-05
3.1228e-05
2.97863e-05
2.84909e-05
2.74494e-05
0.000728543
0.000588231
0.000496002
0.000429131
0.000378509
0.000338933
0.000306816
0.000279969
0.000257066
0.000237244
0.00021989
0.000204545
0.000190862
0.000178571
0.000167454
0.000157332
0.000148042
0.000139433
0.000131362
0.000123447
0.000814958
0.000730426
0.000654634
0.000589043
0.000533067
0.000485438
0.000444763
0.000409792
0.000379468
0.000352929
0.000329488
0.000308623
0.00028993
0.000273083
0.000257821
0.000243925
0.000231204
0.000219466
0.000208423
0.000197308
0.000826292
0.000764347
0.000706102
0.000651936
0.00060223
0.000557103
0.000516427
0.000479911
0.00044718
0.000417831
0.000391474
0.000367747
0.000346329
0.000326934
0.000309315
0.000293251
0.000278534
0.000264927
0.000252027
0.000238863
0.000828382
0.0007726
0.000721137
0.00067296
0.000627782
0.00058562
0.000546547
0.000510578
0.000477647
0.000447614
0.000420286
0.000395444
0.000372862
0.000352314
0.000333586
0.000316476
0.000300777
0.000286237
0.000272415
0.000258346
0.000828382
0.0007726
0.000721137
0.00067296
0.000627782
0.00058562
0.000546547
0.000510578
0.000477647
0.000447614
0.000420286
0.000395444
0.000372862
0.000352314
0.000333586
0.000316476
0.000300777
0.000286237
0.000272415
0.000258346
0.000826292
0.000764347
0.000706102
0.000651936
0.00060223
0.000557103
0.000516428
0.000479912
0.00044718
0.000417832
0.000391475
0.000367748
0.00034633
0.000326937
0.000309319
0.000293256
0.00027854
0.000264925
0.000251967
0.000238467
0.000814958
0.000730426
0.000654634
0.000589044
0.000533067
0.000485438
0.000444763
0.000409793
0.00037947
0.000352931
0.00032949
0.000308627
0.000289936
0.000273093
0.000257836
0.000243948
0.000231239
0.000219516
0.000208475
0.000197225
0.000728543
0.000588231
0.000496002
0.000429131
0.000378509
0.000338934
0.000306817
0.000279971
0.000257068
0.000237247
0.000219895
0.000204553
0.000190876
0.000178595
0.000167493
0.000157396
0.000148149
0.000139611
0.000131654
0.000124011
0.000218609
0.000155003
0.000118661
9.65069e-05
8.18823e-05
7.08355e-05
6.30854e-05
5.71432e-05
5.22479e-05
4.80956e-05
4.45815e-05
4.15704e-05
3.89498e-05
3.66549e-05
3.46331e-05
3.28417e-05
3.12453e-05
2.9815e-05
2.85397e-05
2.75415e-05
0.000218609
0.000155003
0.000118661
9.65069e-05
8.18823e-05
7.08355e-05
6.30854e-05
5.71432e-05
5.2248e-05
4.80956e-05
4.45815e-05
4.15704e-05
3.89498e-05
3.66549e-05
3.46331e-05
3.28417e-05
3.12453e-05
2.9815e-05
2.85397e-05
2.75414e-05
0.000728543
0.000588231
0.000496002
0.000429131
0.000378509
0.000338934
0.000306817
0.000279971
0.000257068
0.000237247
0.000219895
0.000204553
0.000190876
0.000178594
0.000167493
0.000157396
0.000148149
0.000139612
0.000131655
0.000124013
0.000814958
0.000730426
0.000654634
0.000589044
0.000533067
0.000485438
0.000444763
0.000409793
0.00037947
0.000352931
0.00032949
0.000308627
0.000289936
0.000273093
0.000257836
0.000243948
0.000231239
0.000219516
0.000208476
0.000197226
0.000826292
0.000764347
0.000706102
0.000651936
0.00060223
0.000557103
0.000516428
0.000479912
0.00044718
0.000417832
0.000391475
0.000367748
0.00034633
0.000326937
0.000309319
0.000293256
0.00027854
0.000264925
0.000251967
0.000238467
0.000828382
0.0007726
0.000721137
0.00067296
0.000627782
0.00058562
0.000546547
0.000510578
0.000477647
0.000447614
0.000420286
0.000395444
0.000372862
0.000352314
0.000333586
0.000316476
0.000300777
0.000286237
0.000272415
0.000258346
0.000828382
0.0007726
0.000721137
0.00067296
0.000627782
0.00058562
0.000546547
0.000510578
0.000477647
0.000447614
0.000420286
0.000395444
0.000372862
0.000352314
0.000333586
0.000316476
0.000300777
0.000286237
0.000272415
0.000258346
0.000826292
0.000764347
0.000706102
0.000651936
0.00060223
0.000557103
0.000516427
0.000479911
0.00044718
0.000417831
0.000391474
0.000367747
0.000346329
0.000326934
0.000309315
0.000293251
0.000278534
0.000264927
0.000252027
0.000238864
0.000814958
0.000730426
0.000654634
0.000589043
0.000533067
0.000485438
0.000444763
0.000409792
0.000379468
0.000352929
0.000329488
0.000308623
0.000289929
0.000273083
0.000257821
0.000243925
0.000231204
0.000219465
0.000208422
0.000197308
0.000728543
0.000588231
0.000496002
0.000429131
0.000378509
0.000338933
0.000306816
0.000279969
0.000257066
0.000237244
0.00021989
0.000204545
0.000190862
0.00017857
0.000167454
0.000157332
0.000148042
0.000139433
0.000131361
0.000123446
0.000218609
0.000155003
0.000118661
9.65068e-05
8.18823e-05
7.08354e-05
6.30853e-05
5.7143e-05
5.22476e-05
4.8095e-05
4.45805e-05
4.15689e-05
3.89474e-05
3.6651e-05
3.46268e-05
3.28313e-05
3.1228e-05
2.97863e-05
2.84909e-05
2.74494e-05
0.000198681
0.0001383
0.000105187
8.55269e-05
7.25013e-05
6.28902e-05
5.60612e-05
5.07594e-05
4.63881e-05
4.27219e-05
3.96254e-05
3.69557e-05
3.46338e-05
3.26037e-05
3.08196e-05
2.92443e-05
2.78473e-05
2.66047e-05
2.55031e-05
2.46224e-05
0.00071288
0.000556432
0.000466397
0.000402355
0.000354426
0.00031705
0.000286675
0.000261255
0.000239581
0.000220845
0.000204442
0.000189947
0.000177039
0.000165462
0.000155011
0.000145537
0.000136912
0.000129015
0.000121761
0.000115331
0.000809324
0.000713906
0.000631505
0.000562574
0.000505377
0.000457786
0.000417842
0.00038394
0.000354805
0.000329451
0.000307158
0.000287381
0.000269704
0.0002538
0.000239411
0.000226332
0.000214386
0.000203405
0.000193156
0.000182946
0.000823497
0.000753987
0.000688491
0.000628748
0.000575387
0.000528266
0.000486845
0.000450441
0.000418362
0.000389973
0.000364726
0.00034216
0.00032189
0.000303599
0.000287019
0.000271927
0.00025812
0.000245383
0.000233368
0.000221197
0.000826292
0.000764347
0.000706102
0.000651936
0.00060223
0.000557103
0.000516427
0.000479911
0.00044718
0.000417831
0.000391474
0.000367747
0.000346329
0.000326934
0.000309315
0.000293251
0.000278534
0.000264927
0.000252027
0.000238865
0.000826292
0.000764347
0.000706102
0.000651936
0.00060223
0.000557103
0.000516428
0.000479912
0.00044718
0.000417832
0.000391475
0.000367748
0.00034633
0.000326937
0.000309318
0.000293256
0.00027854
0.000264925
0.000251967
0.000238466
0.000823497
0.000753987
0.000688491
0.000628748
0.000575387
0.000528266
0.000486845
0.000450441
0.000418362
0.000389973
0.000364726
0.00034216
0.00032189
0.000303599
0.000287019
0.000271927
0.00025812
0.000245383
0.000233368
0.000221198
0.000809324
0.000713906
0.000631505
0.000562574
0.000505377
0.000457785
0.000417841
0.000383939
0.000354803
0.000329448
0.000307153
0.000287375
0.000269694
0.000253784
0.000239386
0.000226292
0.000214324
0.000203303
0.000192959
0.000182305
0.00071288
0.000556432
0.000466397
0.000402355
0.000354425
0.000317049
0.000286673
0.000261253
0.000239577
0.000220838
0.000204431
0.00018993
0.000177012
0.000165417
0.000154937
0.000145416
0.000136709
0.000128679
0.00012121
0.000114317
0.000198681
0.0001383
0.000105187
8.55269e-05
7.25012e-05
6.289e-05
5.60609e-05
5.07589e-05
4.63874e-05
4.27208e-05
3.96236e-05
3.69527e-05
3.46292e-05
3.25965e-05
3.08079e-05
2.92251e-05
2.78156e-05
2.65521e-05
2.54211e-05
2.45284e-05
0.000160509
0.00010736
8.07409e-05
6.55976e-05
5.54897e-05
4.83026e-05
4.31311e-05
3.90793e-05
3.57396e-05
3.29502e-05
3.0579e-05
2.85367e-05
2.67768e-05
2.52507e-05
2.39158e-05
2.27417e-05
2.17089e-05
2.08015e-05
2.00131e-05
1.93749e-05
0.000663952
0.000488459
0.000404619
0.000347248
0.000305036
0.000272128
0.000245319
0.00022289
0.000203757
0.000187182
0.000172658
0.000159819
0.000148381
0.000138132
0.000128905
0.000120695
0.000113312
0.000106621
0.000101018
9.4455e-05
0.000786828
0.000662293
0.000567974
0.000495805
0.000439463
0.000394562
0.000357975
0.000327452
0.00030149
0.000279051
0.000259398
0.000242003
0.000226474
0.000212513
0.000199891
0.00018844
0.000178006
0.00016845
0.00015961
0.000149948
0.000809324
0.000713906
0.000631505
0.000562574
0.000505377
0.000457785
0.000417841
0.000383939
0.000354803
0.000329448
0.000307153
0.000287375
0.000269694
0.000253784
0.000239385
0.000226292
0.000214324
0.000203303
0.000192959
0.000182305
0.000814958
0.000730426
0.000654634
0.000589043
0.000533067
0.000485438
0.000444763
0.000409792
0.000379468
0.000352929
0.000329488
0.000308623
0.00028993
0.000273083
0.000257821
0.000243925
0.000231204
0.000219465
0.000208422
0.000197308
0.000814958
0.000730426
0.000654634
0.000589044
0.000533067
0.000485438
0.000444763
0.000409793
0.00037947
0.000352931
0.00032949
0.000308627
0.000289936
0.000273093
0.000257836
0.000243948
0.000231239
0.000219516
0.000208475
0.000197224
0.000809324
0.000713906
0.000631505
0.000562574
0.000505377
0.000457786
0.000417842
0.00038394
0.000354805
0.000329451
0.000307158
0.000287381
0.000269704
0.0002538
0.000239411
0.000226332
0.000214386
0.000203405
0.000193156
0.000182945
0.000786828
0.000662293
0.000567974
0.000495805
0.000439463
0.000394562
0.000357975
0.000327452
0.00030149
0.000279051
0.000259398
0.000242003
0.000226474
0.000212513
0.000199891
0.00018844
0.000178006
0.00016845
0.00015961
0.000149947
0.000663952
0.000488458
0.000404619
0.000347248
0.000305035
0.000272127
0.000245318
0.000222888
0.000203754
0.000187177
0.00017265
0.000159807
0.000148362
0.0001381
0.000128854
0.00012061
0.000113166
0.000106365
0.000100525
9.46868e-05
0.000160509
0.00010736
8.07408e-05
6.55975e-05
5.54896e-05
4.83025e-05
4.31309e-05
3.9079e-05
3.5739e-05
3.29492e-05
3.05775e-05
2.85344e-05
2.67732e-05
2.52449e-05
2.39064e-05
2.27264e-05
2.16836e-05
2.07593e-05
1.99441e-05
1.92848e-05
0.000107685
6.77183e-05
5.06311e-05
4.14159e-05
3.54049e-05
3.10367e-05
2.77138e-05
2.50818e-05
2.29337e-05
2.1151e-05
1.96513e-05
1.83725e-05
1.72652e-05
1.62969e-05
1.54555e-05
1.47318e-05
1.41056e-05
1.35693e-05
1.31448e-05
1.28503e-05
0.000528907
0.000369984
0.000305097
0.000261371
0.000228528
0.000202476
0.000181114
0.000163073
0.000147538
0.000133982
0.000122047
0.000111463
0.000102129
9.38531e-05
8.64514e-05
7.96491e-05
7.34515e-05
6.79446e-05
6.37318e-05
5.49661e-05
0.000663952
0.000488458
0.000404619
0.000347248
0.000305035
0.000272127
0.000245318
0.000222888
0.000203754
0.000187177
0.00017265
0.000159807
0.000148362
0.000138101
0.000128853
0.00012061
0.000113166
0.000106365
0.000100524
9.46862e-05
0.00071288
0.000556432
0.000466397
0.000402355
0.000354425
0.000317049
0.000286673
0.000261253
0.000239577
0.000220838
0.000204431
0.00018993
0.000177012
0.000165418
0.000154937
0.000145416
0.000136709
0.000128679
0.00012121
0.000114316
0.000728543
0.000588231
0.000496002
0.000429131
0.000378509
0.000338933
0.000306816
0.000279969
0.000257066
0.000237244
0.00021989
0.000204545
0.000190862
0.000178571
0.000167454
0.000157332
0.000148042
0.000139433
0.000131362
0.000123447
0.000728543
0.000588231
0.000496002
0.000429131
0.000378509
0.000338934
0.000306817
0.000279971
0.000257068
0.000237247
0.000219895
0.000204553
0.000190876
0.000178594
0.000167493
0.000157396
0.000148149
0.000139612
0.000131655
0.000124012
0.00071288
0.000556432
0.000466397
0.000402355
0.000354426
0.00031705
0.000286675
0.000261255
0.000239581
0.000220844
0.000204442
0.000189947
0.000177039
0.000165462
0.00015501
0.000145537
0.000136911
0.000129015
0.000121761
0.000115331
0.000663952
0.000488459
0.000404619
0.000347248
0.000305036
0.000272128
0.000245319
0.00022289
0.000203757
0.000187182
0.000172658
0.000159819
0.000148381
0.000138132
0.000128905
0.000120695
0.000113312
0.000106621
0.000101018
9.44545e-05
0.000528907
0.000369984
0.000305097
0.000261371
0.000228528
0.000202476
0.000181114
0.000163073
0.000147538
0.000133982
0.000122047
0.000111463
0.000102129
9.38528e-05
8.64516e-05
7.96491e-05
7.34515e-05
6.79445e-05
6.37319e-05
5.49656e-05
0.000107685
6.77183e-05
5.06311e-05
4.14159e-05
3.54049e-05
3.10367e-05
2.77138e-05
2.50817e-05
2.29336e-05
2.11509e-05
1.96509e-05
1.83719e-05
1.72641e-05
1.62945e-05
1.54517e-05
1.47252e-05
1.40933e-05
1.35446e-05
1.30945e-05
1.2763e-05
4.5356e-05
2.3208e-05
1.65396e-05
1.36494e-05
1.18966e-05
1.06844e-05
9.76079e-06
9.05716e-06
8.49483e-06
8.0315e-06
7.64086e-06
7.31275e-06
7.0256e-06
6.76249e-06
6.53217e-06
6.33338e-06
6.16219e-06
6.01964e-06
5.93383e-06
5.85496e-06
0.000107685
6.77183e-05
5.06311e-05
4.14159e-05
3.54049e-05
3.10367e-05
2.77138e-05
2.50817e-05
2.29336e-05
2.11508e-05
1.96509e-05
1.83719e-05
1.72641e-05
1.62945e-05
1.54517e-05
1.47253e-05
1.40933e-05
1.35447e-05
1.30945e-05
1.27631e-05
0.000160509
0.00010736
8.07408e-05
6.55975e-05
5.54896e-05
4.83025e-05
4.31309e-05
3.9079e-05
3.5739e-05
3.29492e-05
3.05775e-05
2.85344e-05
2.67732e-05
2.52449e-05
2.39064e-05
2.27264e-05
2.16836e-05
2.07593e-05
1.99441e-05
1.92847e-05
0.000198681
0.0001383
0.000105187
8.55269e-05
7.25012e-05
6.289e-05
5.60609e-05
5.07589e-05
4.63874e-05
4.27208e-05
3.96236e-05
3.69527e-05
3.46292e-05
3.25964e-05
3.08079e-05
2.92251e-05
2.78156e-05
2.65521e-05
2.54211e-05
2.45284e-05
0.000218609
0.000155003
0.000118661
9.65068e-05
8.18823e-05
7.08354e-05
6.30853e-05
5.7143e-05
5.22476e-05
4.8095e-05
4.45805e-05
4.15689e-05
3.89474e-05
3.6651e-05
3.46268e-05
3.28312e-05
3.1228e-05
2.97863e-05
2.84908e-05
2.74493e-05
0.000218609
0.000155003
0.000118661
9.65069e-05
8.18823e-05
7.08355e-05
6.30854e-05
5.71432e-05
5.2248e-05
4.80956e-05
4.45815e-05
4.15704e-05
3.89498e-05
3.66549e-05
3.4633e-05
3.28417e-05
3.12453e-05
2.9815e-05
2.85397e-05
2.75414e-05
0.000198681
0.0001383
0.000105187
8.55269e-05
7.25013e-05
6.28902e-05
5.60612e-05
5.07594e-05
4.63881e-05
4.27219e-05
3.96254e-05
3.69556e-05
3.46337e-05
3.26037e-05
3.08197e-05
2.92443e-05
2.78473e-05
2.66047e-05
2.55031e-05
2.46224e-05
0.000160509
0.00010736
8.07409e-05
6.55976e-05
5.54897e-05
4.83026e-05
4.31311e-05
3.90793e-05
3.57396e-05
3.29502e-05
3.0579e-05
2.85367e-05
2.67768e-05
2.52507e-05
2.39158e-05
2.27417e-05
2.17089e-05
2.08015e-05
2.00131e-05
1.9375e-05
0.000107685
6.77183e-05
5.06311e-05
4.14159e-05
3.54049e-05
3.10367e-05
2.77138e-05
2.50818e-05
2.29337e-05
2.1151e-05
1.96513e-05
1.83725e-05
1.72652e-05
1.62969e-05
1.54555e-05
1.47318e-05
1.41056e-05
1.35692e-05
1.31448e-05
1.28503e-05
4.5356e-05
2.3208e-05
1.65396e-05
1.36494e-05
1.18966e-05
1.06844e-05
9.76079e-06
9.05716e-06
8.49483e-06
8.0315e-06
7.64086e-06
7.31275e-06
7.0256e-06
6.76249e-06
6.53218e-06
6.33338e-06
6.16219e-06
6.01964e-06
5.93383e-06
5.85495e-06
5.62021e-06
5.20308e-06
4.80462e-06
4.56009e-06
4.40607e-06
4.31088e-06
4.23913e-06
4.17702e-06
4.12431e-06
4.07829e-06
4.03726e-06
3.99865e-06
3.96031e-06
3.92389e-06
3.88874e-06
3.85551e-06
3.82405e-06
3.79466e-06
3.76757e-06
3.74188e-06
3.71804e-06
3.69672e-06
3.67725e-06
3.65934e-06
3.6428e-06
3.62694e-06
3.61215e-06
3.59822e-06
3.58581e-06
3.57494e-06
3.56507e-06
3.55513e-06
3.54594e-06
3.53794e-06
3.53288e-06
3.52651e-06
3.52256e-06
3.51783e-06
3.51376e-06
3.50801e-06
1.07631e-05
1.01702e-05
9.65853e-06
9.29365e-06
9.03059e-06
8.84268e-06
8.68642e-06
8.54425e-06
8.41856e-06
8.30489e-06
8.19917e-06
8.10251e-06
8.00751e-06
7.92253e-06
7.83355e-06
7.75235e-06
7.67612e-06
7.60613e-06
7.54105e-06
7.48057e-06
7.4242e-06
7.37506e-06
7.33131e-06
7.29231e-06
7.25582e-06
7.22135e-06
7.18874e-06
7.1584e-06
7.12928e-06
7.10407e-06
7.08123e-06
7.06026e-06
7.04115e-06
7.02284e-06
7.00869e-06
6.99676e-06
6.98532e-06
6.9758e-06
6.96802e-06
6.96009e-06
1.53771e-05
1.48972e-05
1.44244e-05
1.40112e-05
1.36337e-05
1.32944e-05
1.30023e-05
1.27491e-05
1.25219e-05
1.23155e-05
1.21258e-05
1.19555e-05
1.17955e-05
1.16617e-05
1.15005e-05
1.1369e-05
1.12446e-05
1.11323e-05
1.10265e-05
1.09329e-05
1.08352e-05
1.07396e-05
1.06649e-05
1.05973e-05
1.05333e-05
1.04731e-05
1.04167e-05
1.03645e-05
1.03165e-05
1.02714e-05
1.02293e-05
1.01928e-05
1.01611e-05
1.01353e-05
1.01139e-05
1.00877e-05
1.00674e-05
1.00488e-05
1.00347e-05
1.00243e-05
2.01478e-05
1.91366e-05
1.84261e-05
1.78386e-05
1.73364e-05
1.68987e-05
1.65069e-05
1.61521e-05
1.58283e-05
1.55305e-05
1.52555e-05
1.50006e-05
1.47632e-05
1.45423e-05
1.43411e-05
1.41526e-05
1.39768e-05
1.38132e-05
1.36633e-05
1.35232e-05
1.3371e-05
1.32445e-05
1.31299e-05
1.30221e-05
1.29314e-05
1.28469e-05
1.27691e-05
1.26983e-05
1.26249e-05
1.25552e-05
1.25007e-05
1.24502e-05
1.24103e-05
1.23678e-05
1.23364e-05
1.23097e-05
1.22703e-05
1.22391e-05
1.22263e-05
1.22122e-05
2.32483e-05
2.19773e-05
2.11028e-05
2.03911e-05
1.97835e-05
1.92508e-05
1.87787e-05
1.83538e-05
1.79627e-05
1.76003e-05
1.72635e-05
1.69508e-05
1.66597e-05
1.63891e-05
1.61371e-05
1.59017e-05
1.56815e-05
1.54758e-05
1.52888e-05
1.51127e-05
1.49508e-05
1.47995e-05
1.46754e-05
1.45377e-05
1.44166e-05
1.43144e-05
1.42188e-05
1.41321e-05
1.40422e-05
1.39564e-05
1.38921e-05
1.38338e-05
1.37844e-05
1.37327e-05
1.36923e-05
1.36576e-05
1.36299e-05
1.35994e-05
1.35892e-05
1.35724e-05
2.43544e-05
2.30271e-05
2.20781e-05
2.13174e-05
2.06661e-05
2.00891e-05
1.95712e-05
1.91041e-05
1.86764e-05
1.8279e-05
1.791e-05
1.7566e-05
1.72458e-05
1.69484e-05
1.66715e-05
1.64143e-05
1.61757e-05
1.59545e-05
1.575e-05
1.55616e-05
1.53913e-05
1.52349e-05
1.50898e-05
1.49575e-05
1.48416e-05
1.47141e-05
1.46066e-05
1.45113e-05
1.44144e-05
1.43225e-05
1.42543e-05
1.41932e-05
1.41384e-05
1.40874e-05
1.40449e-05
1.39834e-05
1.3939e-05
1.39378e-05
1.39224e-05
1.38929e-05
2.26481e-05
2.1874e-05
2.11362e-05
2.04548e-05
1.9831e-05
1.9263e-05
1.87482e-05
1.82818e-05
1.78544e-05
1.7461e-05
1.70989e-05
1.67656e-05
1.64584e-05
1.61742e-05
1.59107e-05
1.56661e-05
1.54392e-05
1.52291e-05
1.50351e-05
1.48567e-05
1.46949e-05
1.45465e-05
1.44111e-05
1.42919e-05
1.41789e-05
1.40703e-05
1.39518e-05
1.38584e-05
1.37652e-05
1.36722e-05
1.36032e-05
1.35412e-05
1.34879e-05
1.34409e-05
1.3398e-05
1.3337e-05
1.32907e-05
1.32814e-05
1.32712e-05
1.32459e-05
2.03621e-05
1.94769e-05
1.87069e-05
1.80258e-05
1.74116e-05
1.68778e-05
1.64015e-05
1.59849e-05
1.56127e-05
1.5276e-05
1.49697e-05
1.46894e-05
1.44318e-05
1.41945e-05
1.39754e-05
1.37717e-05
1.35831e-05
1.34092e-05
1.32507e-05
1.31078e-05
1.29716e-05
1.28499e-05
1.27319e-05
1.26344e-05
1.25216e-05
1.2436e-05
1.23485e-05
1.22715e-05
1.21922e-05
1.21184e-05
1.2043e-05
1.19992e-05
1.19505e-05
1.19138e-05
1.18768e-05
1.1853e-05
1.18237e-05
1.17893e-05
1.17634e-05
1.17473e-05
1.66383e-05
1.5639e-05
1.48191e-05
1.416e-05
1.35799e-05
1.31546e-05
1.28177e-05
1.25268e-05
1.22688e-05
1.20374e-05
1.1826e-05
1.16364e-05
1.14594e-05
1.1295e-05
1.11459e-05
1.09914e-05
1.08512e-05
1.07229e-05
1.06097e-05
1.04997e-05
1.03997e-05
1.0307e-05
1.02214e-05
1.01445e-05
1.00722e-05
1.00055e-05
9.94113e-06
9.88448e-06
9.82756e-06
9.77579e-06
9.73223e-06
9.69597e-06
9.66646e-06
9.63567e-06
9.60891e-06
9.58845e-06
9.56546e-06
9.54706e-06
9.5336e-06
9.52206e-06
1.13632e-05
1.06694e-05
9.99399e-06
9.47629e-06
9.08744e-06
8.82629e-06
8.62992e-06
8.46082e-06
8.3182e-06
8.19235e-06
8.07583e-06
7.97682e-06
7.86748e-06
7.76666e-06
7.67189e-06
7.58316e-06
7.49951e-06
7.42172e-06
7.35035e-06
7.28343e-06
7.22294e-06
7.17013e-06
7.12153e-06
7.07674e-06
7.03519e-06
6.99633e-06
6.96017e-06
6.92735e-06
6.89542e-06
6.86774e-06
6.84388e-06
6.82207e-06
6.80201e-06
6.78429e-06
6.76637e-06
6.75627e-06
6.74481e-06
6.73576e-06
6.72702e-06
6.71696e-06
5.6202e-06
5.20315e-06
4.80461e-06
4.56021e-06
4.40624e-06
4.31103e-06
4.23927e-06
4.17713e-06
4.12435e-06
4.07838e-06
4.03716e-06
3.99843e-06
3.96021e-06
3.92361e-06
3.88851e-06
3.85522e-06
3.82378e-06
3.79442e-06
3.76737e-06
3.74171e-06
3.7179e-06
3.6966e-06
3.67703e-06
3.65918e-06
3.64228e-06
3.62665e-06
3.61193e-06
3.59808e-06
3.58573e-06
3.57506e-06
3.56476e-06
3.55504e-06
3.54588e-06
3.53794e-06
3.5313e-06
3.52758e-06
3.52332e-06
3.51841e-06
3.51359e-06
3.50633e-06
1.13632e-05
1.06693e-05
9.99422e-06
9.47566e-06
9.08681e-06
8.82573e-06