/*--------------------------------*- C++ -*----------------------------------*\
| =========                 |                                                 |
| \\      /  F ield         | OpenFOAM: The Open Source CFD Toolbox           |
|  \\    /   O peration     | Version:  2212                                  |
|   \\  /    A nd           | Website:  www.openfoam.com                      |
|    \\/     M anipulation  |                                                 |
\*---------------------------------------------------------------------------*/
FoamFile
{
    version     2.0;
    format      ascii;
    arch        "LSB;label=32;scalar=64";
    class       volScalarField;
    location    "0.95";
    object      p;
}
// * * * * * * * * * * * * * * * * * * * * * * * * * * * * * * * * * * * * * //

dimensions      [0 2 -2 0 0 0 0];

internalField   nonuniform List<scalar> 
6840
(
0.017781
0.0106666
0.00837514
0.00783731
0.00756293
0.00734069
0.00715398
0.00698745
0.00682615
0.00666646
0.00650845
0.00635186
0.00619528
0.00603708
0.00587726
0.00571461
0.00554628
0.00536745
0.00512396
0.00465026
0.0106022
0.00986835
0.00877545
0.00810946
0.00770683
0.00743302
0.00722174
0.00703535
0.00686067
0.00669289
0.00652942
0.00636834
0.00620764
0.00604592
0.0058826
0.0057156
0.00553956
0.00534088
0.00507532
0.00462552
0.0102539
0.00940242
0.00863814
0.00807898
0.00770279
0.0074347
0.00721894
0.00702586
0.00684718
0.00667819
0.00651392
0.00635203
0.00619176
0.00603229
0.00587198
0.00570857
0.00553793
0.00535466
0.00515552
0.00493225
0.00984467
0.00908194
0.00846316
0.00801183
0.00766785
0.0073988
0.00717915
0.00699029
0.00682236
0.00666476
0.00650882
0.00635307
0.00619817
0.00604455
0.00589225
0.00574145
0.00559244
0.00544609
0.00530704
0.00518699
0.00971049
0.00896931
0.00838113
0.00797301
0.00765108
0.00738438
0.00716288
0.0069723
0.00680166
0.00664516
0.00649564
0.00634635
0.00619666
0.00604874
0.00590515
0.00576845
0.00564209
0.00552966
0.00543622
0.00537347
0.00971051
0.00896933
0.00838116
0.00797306
0.00765115
0.00738449
0.00716306
0.0069726
0.00680215
0.00664597
0.00649698
0.00634857
0.00620035
0.00605489
0.00591577
0.00578712
0.00567454
0.00558493
0.0055338
0.00554518
0.00984472
0.00908199
0.00846324
0.00801193
0.00766799
0.00739904
0.00717955
0.00699098
0.00682351
0.00666665
0.00651191
0.00635813
0.00620644
0.00605813
0.00591501
0.00578023
0.00565848
0.00555647
0.00549102
0.00548415
0.010254
0.00940247
0.0086382
0.00807907
0.00770293
0.00743495
0.00721936
0.00702655
0.00684829
0.00668003
0.00651695
0.00635695
0.00619969
0.00604513
0.00589296
0.00574289
0.00559459
0.00544995
0.00532262
0.00524045
0.0106022
0.00986838
0.00877548
0.00810951
0.00770691
0.00743316
0.00722197
0.00703573
0.0068613
0.00669394
0.00653114
0.00637114
0.00621236
0.00605378
0.00589535
0.00573624
0.00557381
0.0054003
0.0051877
0.00486067
0.017781
0.0106666
0.00837514
0.00783731
0.00756293
0.00734069
0.00715398
0.00698745
0.00682615
0.00666646
0.00650846
0.00635187
0.0061953
0.0060371
0.0058773
0.00571466
0.00554635
0.00536753
0.00512404
0.00465036
0.0106022
0.00986838
0.00877548
0.00810951
0.00770691
0.00743316
0.00722197
0.00703573
0.0068613
0.00669394
0.00653113
0.00637113
0.00621234
0.00605375
0.00589532
0.0057362
0.00557375
0.00540023
0.0051876
0.00486055
0.00988562
0.00985391
0.00912568
0.00841516
0.00796878
0.00765277
0.00739379
0.007166
0.0069612
0.00677248
0.00659425
0.0064226
0.00625413
0.00608675
0.00591922
0.00574953
0.00557328
0.00538615
0.00520263
0.00510168
0.00896014
0.00908632
0.00878341
0.00836717
0.00799999
0.0076813
0.00740264
0.007162
0.0069491
0.00675402
0.00656989
0.00639328
0.00622188
0.00605345
0.00588579
0.00571682
0.00554482
0.00536883
0.00519601
0.0050502
0.00854177
0.00858527
0.00841969
0.00815674
0.00787634
0.00760498
0.00735394
0.00712751
0.00692437
0.00673759
0.00656008
0.00638879
0.00622238
0.00605932
0.00589833
0.00573858
0.00557971
0.00542246
0.00526877
0.00512179
0.00832584
0.00834767
0.00822047
0.00800296
0.00777056
0.00754144
0.00731869
0.00710564
0.00690509
0.00671817
0.0065424
0.00637467
0.00621352
0.00605726
0.0059053
0.00575948
0.00562085
0.00548935
0.00536678
0.00525459
0.00832587
0.0083477
0.00822052
0.00800304
0.00777067
0.0075416
0.00731893
0.00710602
0.00690568
0.00671913
0.006544
0.00637735
0.00621765
0.00606339
0.00591488
0.00577456
0.00564355
0.00552135
0.00540976
0.00531027
0.00854184
0.00858535
0.00841979
0.00815688
0.00787654
0.00760526
0.00735438
0.0071282
0.00692552
0.00673954
0.00656339
0.00639417
0.00623052
0.00607165
0.00591771
0.00576933
0.00562753
0.00549459
0.00537917
0.00528966
0.00896018
0.00908636
0.00878348
0.00836725
0.00800011
0.00768148
0.00740294
0.00716251
0.00694996
0.00675541
0.00657208
0.00639667
0.00622715
0.00606163
0.00589823
0.00573535
0.00557094
0.00540249
0.00522943
0.00504973
0.00988562
0.00985391
0.00912568
0.00841516
0.00796878
0.00765277
0.00739379
0.00716601
0.00696121
0.00677248
0.00659425
0.00642261
0.00625414
0.00608677
0.00591926
0.00574957
0.00557333
0.00538622
0.00520271
0.00510179
0.0106022
0.00986835
0.00877545
0.00810946
0.00770683
0.00743303
0.00722174
0.00703535
0.00686067
0.00669289
0.00652943
0.00636835
0.00620766
0.00604595
0.00588264
0.00571565
0.00553963
0.00534095
0.00507541
0.00462562
0.010254
0.00940247
0.0086382
0.00807907
0.00770293
0.00743495
0.00721936
0.00702654
0.00684829
0.00668003
0.00651694
0.00635694
0.00619967
0.00604511
0.00589292
0.00574285
0.00559453
0.00544987
0.00532252
0.00524031
0.00896018
0.00908636
0.00878348
0.00836725
0.00800011
0.00768148
0.00740294
0.00716251
0.00694996
0.00675541
0.00657207
0.00639666
0.00622713
0.0060616
0.0058982
0.00573531
0.0055709
0.00540243
0.00522937
0.00504968
0.00839067
0.00849164
0.00838008
0.00815459
0.00789882
0.0076404
0.00738196
0.00714026
0.00692224
0.00672176
0.00653384
0.00635522
0.00618308
0.00601507
0.00584963
0.00568552
0.00552207
0.00536134
0.0052103
0.00506883
0.00802268
0.00809075
0.00803836
0.00789137
0.00770647
0.00750133
0.00729065
0.00708372
0.00688251
0.00668993
0.00650706
0.00633204
0.00616281
0.00599792
0.00583624
0.00567665
0.00551812
0.00536065
0.00520573
0.0050495
0.00783966
0.0079041
0.00787463
0.00774979
0.00759079
0.00741715
0.00723093
0.007043
0.00685695
0.00667362
0.00649452
0.00632063
0.0061524
0.00599001
0.00583359
0.00568218
0.00553367
0.00538705
0.00524373
0.00509708
0.00783969
0.00790412
0.00787467
0.00774985
0.0075909
0.0074173
0.00723113
0.00704327
0.00685736
0.00667425
0.00649547
0.00632206
0.00615445
0.00599301
0.00583799
0.00568838
0.0055416
0.00539587
0.00525017
0.0050936
0.00802273
0.00809079
0.00803842
0.00789146
0.00770662
0.00750152
0.00729092
0.00708413
0.00688314
0.00669093
0.00650868
0.00633457
0.00616664
0.0060037
0.00584493
0.00568951
0.0055367
0.00538642
0.0052401
0.00508908
0.00839067
0.00849164
0.00838008
0.00815459
0.00789881
0.0076404
0.00738196
0.00714026
0.00692224
0.00672176
0.00653384
0.00635522
0.00618309
0.00601508
0.00584965
0.00568555
0.00552209
0.00536136
0.0052103
0.00506882
0.00896014
0.00908631
0.00878341
0.00836717
0.00799999
0.0076813
0.00740264
0.007162
0.0069491
0.00675402
0.00656989
0.00639329
0.00622189
0.00605347
0.00588581
0.00571685
0.00554486
0.00536887
0.00519606
0.00505026
0.0102539
0.00940242
0.00863814
0.00807898
0.00770279
0.0074347
0.00721894
0.00702586
0.00684718
0.0066782
0.00651392
0.00635204
0.00619177
0.00603231
0.00587201
0.0057086
0.00553797
0.00535471
0.0051556
0.00493236
0.00984472
0.00908199
0.00846323
0.00801193
0.00766799
0.00739904
0.00717955
0.00699097
0.00682351
0.00666664
0.0065119
0.00635812
0.00620642
0.00605811
0.00591498
0.00578019
0.00565842
0.0055564
0.00549094
0.00548404
0.00854184
0.00858535
0.00841979
0.00815688
0.00787654
0.00760526
0.00735438
0.0071282
0.00692552
0.00673953
0.00656339
0.00639416
0.0062305
0.00607163
0.00591768
0.00576929
0.00562749
0.00549455
0.00537913
0.00528963
0.00802273
0.00809079
0.00803842
0.00789146
0.00770662
0.00750152
0.00729092
0.00708412
0.00688314
0.00669093
0.00650868
0.00633456
0.00616664
0.00600369
0.00584492
0.00568949
0.00553669
0.00538641
0.0052401
0.0050891
0.00772481
0.00778395
0.00777202
0.00767662
0.00753701
0.00737152
0.00719133
0.00700685
0.00682285
0.00664244
0.00646726
0.00629712
0.00613137
0.00596942
0.00581069
0.0056543
0.00549929
0.00534528
0.00519286
0.00503341
0.00757372
0.00763661
0.00764036
0.00756672
0.00744661
0.00730024
0.00713738
0.00696599
0.00679187
0.00661832
0.00644717
0.00627931
0.00611508
0.0059545
0.00579742
0.00564313
0.00549058
0.00533982
0.00519256
0.00503931
0.00757373
0.00763662
0.00764038
0.00756674
0.00744664
0.00730028
0.00713744
0.00696608
0.00679199
0.00661849
0.00644739
0.0062796
0.00611546
0.00595502
0.00579808
0.00564381
0.00549096
0.00533926
0.00518967
0.00503193
0.00772481
0.00778395
0.00777202
0.00767662
0.00753701
0.00737152
0.00719133
0.00700685
0.00682285
0.00664244
0.00646726
0.00629712
0.00613138
0.00596943
0.00581069
0.0056543
0.00549929
0.00534528
0.00519285
0.00503339
0.00802268
0.00809074
0.00803836
0.00789136
0.00770647
0.00750133
0.00729065
0.00708372
0.00688251
0.00668993
0.00650707
0.00633204
0.00616281
0.00599793
0.00583625
0.00567665
0.00551812
0.00536064
0.00520571
0.00504943
0.00854177
0.00858527
0.00841969
0.00815674
0.00787634
0.00760498
0.00735394
0.00712751
0.00692437
0.00673759
0.00656008
0.00638879
0.00622238
0.00605933
0.00589834
0.00573859
0.00557973
0.00542247
0.00526877
0.00512177
0.00984467
0.00908194
0.00846316
0.00801183
0.00766784
0.0073988
0.00717914
0.00699028
0.00682236
0.00666477
0.00650882
0.00635307
0.00619818
0.00604456
0.00589226
0.00574147
0.00559247
0.00544612
0.00530708
0.00518705
0.00971051
0.00896933
0.00838116
0.00797306
0.00765115
0.00738449
0.00716306
0.00697259
0.00680214
0.00664596
0.00649697
0.00634856
0.00620033
0.00605486
0.00591574
0.00578709
0.0056745
0.00558487
0.00553373
0.00554509
0.00832587
0.0083477
0.00822052
0.00800304
0.00777067
0.0075416
0.00731893
0.00710602
0.00690567
0.00671912
0.00654399
0.00637734
0.00621764
0.00606337
0.00591486
0.00577453
0.00564352
0.00552131
0.00540972
0.00531025
0.00783969
0.00790412
0.00787466
0.00774985
0.0075909
0.0074173
0.00723112
0.00704327
0.00685736
0.00667425
0.00649547
0.00632205
0.00615445
0.005993
0.00583798
0.00568836
0.00554158
0.00539585
0.00525016
0.0050936
0.00757373
0.00763662
0.00764038
0.00756674
0.00744664
0.00730028
0.00713744
0.00696608
0.00679199
0.00661849
0.00644739
0.0062796
0.00611546
0.00595502
0.00579807
0.0056438
0.00549095
0.00533926
0.00518967
0.00503193
0.00743094
0.00750045
0.00752257
0.00747003
0.00736879
0.00723787
0.00708797
0.00692701
0.00676052
0.00659218
0.00642437
0.0062585
0.00609534
0.0059352
0.00577803
0.00562309
0.00546921
0.00531585
0.0051635
0.00500266
0.00743093
0.00750045
0.00752257
0.00747003
0.00736879
0.00723787
0.00708797
0.00692701
0.00676052
0.00659218
0.00642437
0.0062585
0.00609534
0.0059352
0.00577804
0.00562309
0.00546921
0.00531585
0.0051635
0.00500265
0.00757372
0.00763661
0.00764036
0.00756672
0.00744661
0.00730024
0.00713738
0.00696599
0.00679187
0.00661832
0.00644717
0.00627931
0.00611508
0.0059545
0.00579742
0.00564313
0.00549058
0.00533981
0.00519255
0.00503929
0.00783966
0.0079041
0.00787463
0.00774979
0.00759079
0.00741715
0.00723093
0.00704299
0.00685694
0.00667362
0.00649452
0.00632063
0.0061524
0.00599001
0.00583359
0.00568218
0.00553366
0.00538704
0.0052437
0.00509704
0.00832584
0.00834766
0.00822047
0.00800296
0.00777055
0.00754143
0.00731868
0.00710564
0.00690509
0.00671817
0.0065424
0.00637467
0.00621353
0.00605726
0.0059053
0.00575949
0.00562085
0.00548934
0.00536677
0.00525456
0.00971049
0.0089693
0.00838113
0.00797301
0.00765108
0.00738438
0.00716288
0.0069723
0.00680166
0.00664516
0.00649564
0.00634635
0.00619666
0.00604874
0.00590516
0.00576846
0.00564209
0.00552967
0.00543623
0.00537348
0.0097105
0.00896931
0.00838113
0.00797302
0.00765108
0.00738438
0.00716288
0.0069723
0.00680166
0.00664516
0.00649563
0.00634634
0.00619665
0.00604872
0.00590513
0.00576843
0.00564206
0.00552962
0.00543618
0.00537341
0.00832584
0.00834767
0.00822047
0.00800296
0.00777056
0.00754144
0.00731868
0.00710564
0.00690509
0.00671817
0.00654239
0.00637466
0.00621351
0.00605724
0.00590528
0.00575946
0.00562082
0.00548931
0.00536673
0.00525452
0.00783966
0.0079041
0.00787463
0.00774979
0.00759079
0.00741715
0.00723093
0.00704299
0.00685694
0.00667361
0.00649451
0.00632063
0.00615239
0.00599
0.00583358
0.00568216
0.00553365
0.00538703
0.00524369
0.00509702
0.00757372
0.00763661
0.00764036
0.00756672
0.00744661
0.00730024
0.00713738
0.00696599
0.00679187
0.00661832
0.00644717
0.00627931
0.00611507
0.0059545
0.00579741
0.00564312
0.00549057
0.00533981
0.00519255
0.00503929
0.00743093
0.00750045
0.00752257
0.00747003
0.00736879
0.00723787
0.00708797
0.00692701
0.00676052
0.00659218
0.00642437
0.0062585
0.00609534
0.0059352
0.00577804
0.00562309
0.00546921
0.00531585
0.0051635
0.00500266
0.00743093
0.00750045
0.00752257
0.00747003
0.00736879
0.00723787
0.00708797
0.00692701
0.00676052
0.00659218
0.00642437
0.0062585
0.00609534
0.00593521
0.00577804
0.00562309
0.00546921
0.00531585
0.0051635
0.00500266
0.00757373
0.00763662
0.00764038
0.00756674
0.00744663
0.00730028
0.00713744
0.00696608
0.006792
0.00661849
0.00644739
0.00627961
0.00611547
0.00595503
0.00579808
0.00564381
0.00549096
0.00533926
0.00518967
0.00503194
0.00783968
0.00790412
0.00787466
0.00774985
0.0075909
0.0074173
0.00723112
0.00704327
0.00685736
0.00667425
0.00649547
0.00632206
0.00615446
0.00599302
0.00583799
0.00568838
0.0055416
0.00539587
0.00525017
0.00509361
0.00832587
0.0083477
0.00822051
0.00800304
0.00777067
0.00754159
0.00731893
0.00710602
0.00690567
0.00671913
0.006544
0.00637735
0.00621765
0.00606339
0.00591488
0.00577456
0.00564355
0.00552135
0.00540976
0.00531028
0.00971051
0.00896932
0.00838116
0.00797306
0.00765115
0.00738448
0.00716306
0.00697259
0.00680215
0.00664597
0.00649698
0.00634857
0.00620035
0.00605488
0.00591577
0.00578712
0.00567454
0.00558491
0.00553378
0.00554516
0.00984467
0.00908194
0.00846317
0.00801183
0.00766785
0.0073988
0.00717915
0.00699029
0.00682236
0.00666476
0.00650881
0.00635307
0.00619817
0.00604454
0.00589224
0.00574144
0.00559243
0.00544608
0.00530703
0.005187
0.00854177
0.00858528
0.00841969
0.00815675
0.00787634
0.00760498
0.00735394
0.00712751
0.00692437
0.00673759
0.00656007
0.00638879
0.00622237
0.00605932
0.00589832
0.00573857
0.0055797
0.00542244
0.00526874
0.00512174
0.00802268
0.00809075
0.00803836
0.00789137
0.00770647
0.00750133
0.00729065
0.00708372
0.00688251
0.00668993
0.00650706
0.00633204
0.0061628
0.00599792
0.00583624
0.00567664
0.00551811
0.00536063
0.0052057
0.00504943
0.00772481
0.00778395
0.00777202
0.00767662
0.00753701
0.00737152
0.00719133
0.00700685
0.00682285
0.00664244
0.00646726
0.00629712
0.00613137
0.00596943
0.00581069
0.0056543
0.00549929
0.00534528
0.00519286
0.00503341
0.00757373
0.00763662
0.00764038
0.00756674
0.00744664
0.00730028
0.00713744
0.00696608
0.006792
0.00661849
0.0064474
0.00627961
0.00611547
0.00595503
0.00579809
0.00564381
0.00549097
0.00533927
0.00518968
0.00503194
0.00757372
0.00763661
0.00764036
0.00756672
0.00744661
0.00730024
0.00713738
0.00696599
0.00679187
0.00661833
0.00644718
0.00627932
0.00611508
0.00595451
0.00579743
0.00564314
0.00549059
0.00533983
0.00519257
0.00503931
0.00772481
0.00778395
0.00777201
0.00767662
0.007537
0.00737152
0.00719133
0.00700685
0.00682285
0.00664245
0.00646727
0.00629712
0.00613138
0.00596943
0.0058107
0.00565431
0.0054993
0.0053453
0.00519287
0.00503342
0.00802272
0.00809079
0.00803842
0.00789146
0.00770662
0.00750152
0.00729092
0.00708413
0.00688314
0.00669094
0.00650869
0.00633457
0.00616665
0.00600371
0.00584494
0.00568951
0.00553671
0.00538644
0.00524013
0.00508914
0.00854184
0.00858534
0.00841979
0.00815688
0.00787653
0.00760526
0.00735438
0.0071282
0.00692552
0.00673954
0.00656339
0.00639417
0.00623052
0.00607165
0.00591771
0.00576932
0.00562752
0.00549458
0.00537917
0.00528968
0.00984472
0.00908199
0.00846323
0.00801193
0.00766799
0.00739904
0.00717955
0.00699097
0.00682351
0.00666665
0.00651191
0.00635813
0.00620644
0.00605813
0.00591501
0.00578022
0.00565846
0.00555644
0.00549099
0.0054841
0.0102539
0.00940242
0.00863814
0.00807898
0.00770279
0.0074347
0.00721895
0.00702587
0.00684718
0.0066782
0.00651392
0.00635204
0.00619176
0.00603229
0.00587198
0.00570858
0.00553794
0.00535468
0.00515557
0.00493234
0.00896014
0.00908632
0.00878342
0.00836717
0.00799999
0.0076813
0.00740264
0.007162
0.0069491
0.00675402
0.00656989
0.00639329
0.00622189
0.00605346
0.00588579
0.00571683
0.00554484
0.00536884
0.00519604
0.00505025
0.00839067
0.00849164
0.00838008
0.00815459
0.00789882
0.0076404
0.00738196
0.00714026
0.00692224
0.00672176
0.00653384
0.00635522
0.00618309
0.00601508
0.00584964
0.00568554
0.00552208
0.00536136
0.00521031
0.00506884
0.00802272
0.00809079
0.00803842
0.00789146
0.00770662
0.00750152
0.00729092
0.00708413
0.00688314
0.00669094
0.00650869
0.00633457
0.00616665
0.00600371
0.00584493
0.00568951
0.00553671
0.00538644
0.00524013
0.00508913
0.00783969
0.00790412
0.00787466
0.00774985
0.0075909
0.0074173
0.00723113
0.00704327
0.00685736
0.00667425
0.00649548
0.00632207
0.00615446
0.00599302
0.005838
0.00568839
0.00554161
0.00539588
0.00525019
0.00509363
0.00783966
0.0079041
0.00787463
0.00774979
0.00759079
0.00741715
0.00723093
0.007043
0.00685695
0.00667362
0.00649452
0.00632064
0.0061524
0.00599002
0.0058336
0.00568219
0.00553368
0.00538706
0.00524373
0.00509707
0.00802268
0.00809074
0.00803836
0.00789136
0.00770647
0.00750133
0.00729065
0.00708372
0.00688251
0.00668993
0.00650707
0.00633205
0.00616282
0.00599793
0.00583626
0.00567667
0.00551814
0.00536066
0.00520573
0.00504947
0.00839067
0.00849164
0.00838007
0.00815458
0.00789881
0.00764039
0.00738196
0.00714026
0.00692224
0.00672177
0.00653385
0.00635523
0.00618309
0.00601509
0.00584965
0.00568555
0.0055221
0.00536137
0.00521033
0.00506886
0.00896017
0.00908636
0.00878347
0.00836725
0.0080001
0.00768148
0.00740294
0.00716251
0.00694996
0.00675541
0.00657208
0.00639667
0.00622715
0.00606163
0.00589822
0.00573534
0.00557093
0.00540247
0.00522941
0.00504971
0.010254
0.00940247
0.0086382
0.00807907
0.00770293
0.00743495
0.00721936
0.00702655
0.00684829
0.00668004
0.00651695
0.00635695
0.00619969
0.00604513
0.00589295
0.00574288
0.00559456
0.00544991
0.00532256
0.00524036
0.0106022
0.00986836
0.00877545
0.00810946
0.00770683
0.00743303
0.00722175
0.00703536
0.00686067
0.00669289
0.00652943
0.00636835
0.00620765
0.00604593
0.00588262
0.00571561
0.00553959
0.00534091
0.00507537
0.00462559
0.00988562
0.00985391
0.00912568
0.00841516
0.00796878
0.00765277
0.00739379
0.00716601
0.00696121
0.00677248
0.00659425
0.00642261
0.00625414
0.00608676
0.00591924
0.00574955
0.0055733
0.00538618
0.00520267
0.00510174
0.00896017
0.00908636
0.00878348
0.00836725
0.00800011
0.00768148
0.00740294
0.00716251
0.00694996
0.00675541
0.00657208
0.00639667
0.00622714
0.00606162
0.00589822
0.00573533
0.00557092
0.00540247
0.00522941
0.00504972
0.00854184
0.00858535
0.00841979
0.00815688
0.00787654
0.00760526
0.00735438
0.0071282
0.00692552
0.00673954
0.0065634
0.00639417
0.00623052
0.00607165
0.00591771
0.00576932
0.00562753
0.00549459
0.00537918
0.00528969
0.00832587
0.0083477
0.00822051
0.00800304
0.00777067
0.0075416
0.00731893
0.00710602
0.00690568
0.00671913
0.00654401
0.00637736
0.00621766
0.00606339
0.00591489
0.00577457
0.00564356
0.00552136
0.00540977
0.0053103
0.00832583
0.00834766
0.00822047
0.00800296
0.00777055
0.00754143
0.00731868
0.00710564
0.00690509
0.00671818
0.0065424
0.00637468
0.00621353
0.00605727
0.00590531
0.0057595
0.00562086
0.00548936
0.00536678
0.00525458
0.00854177
0.00858527
0.00841969
0.00815674
0.00787634
0.00760498
0.00735394
0.00712751
0.00692438
0.00673759
0.00656008
0.0063888
0.00622239
0.00605934
0.00589835
0.0057386
0.00557974
0.00542248
0.00526879
0.00512179
0.00896013
0.00908631
0.00878341
0.00836717
0.00799999
0.0076813
0.00740264
0.007162
0.0069491
0.00675402
0.0065699
0.00639329
0.0062219
0.00605347
0.00588581
0.00571686
0.00554486
0.00536887
0.00519606
0.00505026
0.00988561
0.00985391
0.00912567
0.00841515
0.00796877
0.00765277
0.00739379
0.00716601
0.00696121
0.00677248
0.00659425
0.00642261
0.00625415
0.00608677
0.00591925
0.00574956
0.00557332
0.0053862
0.00520267
0.00510173
0.0106022
0.00986837
0.00877547
0.0081095
0.00770691
0.00743316
0.00722197
0.00703573
0.00686131
0.00669395
0.00653114
0.00637115
0.00621236
0.00605378
0.00589535
0.00573623
0.00557379
0.00540027
0.00518764
0.00486058
0.017781
0.0106666
0.00837514
0.00783731
0.00756293
0.00734069
0.00715398
0.00698745
0.00682615
0.00666646
0.00650846
0.00635186
0.00619529
0.00603709
0.00587727
0.00571463
0.00554631
0.00536748
0.005124
0.00465032
0.0106022
0.00986838
0.00877548
0.00810951
0.00770691
0.00743316
0.00722197
0.00703573
0.0068613
0.00669394
0.00653114
0.00637114
0.00621235
0.00605376
0.00589533
0.00573621
0.00557377
0.00540026
0.00518764
0.0048606
0.010254
0.00940247
0.0086382
0.00807907
0.00770293
0.00743495
0.00721936
0.00702655
0.00684829
0.00668003
0.00651695
0.00635695
0.00619968
0.00604512
0.00589294
0.00574287
0.00559456
0.00544991
0.00532257
0.00524037
0.00984472
0.00908199
0.00846323
0.00801193
0.00766799
0.00739904
0.00717955
0.00699098
0.00682351
0.00666665
0.00651191
0.00635813
0.00620644
0.00605813
0.00591501
0.00578023
0.00565847
0.00555645
0.005491
0.00548411
0.00971051
0.00896932
0.00838116
0.00797306
0.00765115
0.00738449
0.00716306
0.0069726
0.00680215
0.00664597
0.00649698
0.00634858
0.00620036
0.00605489
0.00591578
0.00578713
0.00567455
0.00558493
0.00553379
0.00554517
0.00971049
0.0089693
0.00838113
0.00797301
0.00765108
0.00738438
0.00716288
0.0069723
0.00680166
0.00664516
0.00649564
0.00634636
0.00619667
0.00604875
0.00590517
0.00576847
0.00564211
0.00552968
0.00543624
0.00537349
0.00984467
0.00908193
0.00846316
0.00801183
0.00766784
0.00739879
0.00717914
0.00699029
0.00682236
0.00666477
0.00650882
0.00635308
0.00619819
0.00604456
0.00589227
0.00574148
0.00559247
0.00544613
0.00530708
0.00518706
0.0102539
0.00940242
0.00863813
0.00807897
0.00770278
0.00743469
0.00721894
0.00702586
0.00684718
0.0066782
0.00651393
0.00635204
0.00619178
0.00603231
0.00587201
0.0057086
0.00553797
0.00535471
0.00515559
0.00493235
0.0106022
0.00986835
0.00877544
0.00810945
0.00770683
0.00743302
0.00722174
0.00703535
0.00686067
0.00669289
0.00652943
0.00636835
0.00620766
0.00604594
0.00588263
0.00571563
0.00553961
0.00534092
0.00507537
0.00462558
0.017781
0.0106666
0.00837513
0.0078373
0.00756292
0.00734068
0.00715398
0.00698745
0.00682615
0.00666646
0.00650846
0.00635187
0.0061953
0.0060371
0.00587729
0.00571465
0.00554633
0.00536749
0.005124
0.0046503
0.00555197
0.00484014
0.00435978
0.00424079
0.00414682
0.00401882
0.00388908
0.00376147
0.00363284
0.00350385
0.00337471
0.00324607
0.00311786
0.00299045
0.00286359
0.00273728
0.00261264
0.00248946
0.00236775
0.00224691
0.00212729
0.00200916
0.00189397
0.00178058
0.00166631
0.0015523
0.00143967
0.00132871
0.00121986
0.00111047
0.000999084
0.000888979
0.000781332
0.00067604
0.000572078
0.000466781
0.000360161
0.00025453
0.000151273
4.91988e-05
0.00556941
0.00491195
0.00444609
0.00427848
0.00416219
0.00403297
0.00390272
0.00377327
0.00364237
0.0035109
0.00337936
0.00324847
0.00311792
0.00298832
0.00285971
0.00273225
0.0026069
0.00248331
0.00236145
0.00224067
0.00212134
0.00200341
0.00188822
0.00177485
0.0016608
0.00154713
0.00143486
0.00132427
0.00121566
0.00110651
0.000995585
0.000886093
0.000779098
0.000674435
0.000570825
0.000465459
0.000358879
0.00025358
0.000150624
4.91192e-05
0.00523398
0.00490764
0.00458157
0.00437055
0.00421644
0.00407279
0.0039312
0.0037922
0.00365498
0.00351889
0.00338378
0.00325041
0.00311755
0.0029863
0.00285711
0.00272955
0.00260407
0.00248019
0.002358
0.00223698
0.00211807
0.00200066
0.00188553
0.00177178
0.00165741
0.00154381
0.00143185
0.00132166
0.00121329
0.00110404
0.000993018
0.000883838
0.000777218
0.000672712
0.000569633
0.000464569
0.000357652
0.000252478
0.000149955
4.89058e-05
0.00492965
0.00482009
0.00463078
0.00444049
0.0042738
0.00411948
0.00396996
0.00382384
0.00368089
0.0035404
0.00340218
0.00326619
0.00313212
0.0029998
0.00286941
0.00274096
0.00261429
0.00248911
0.0023658
0.00224394
0.00212409
0.00200635
0.00189035
0.00177544
0.00166083
0.00154709
0.00143483
0.00132434
0.0012154
0.00110571
0.000994431
0.000884876
0.000777688
0.000672845
0.000569789
0.000464705
0.000357566
0.000252382
0.000149811
4.87362e-05
0.00480953
0.00474481
0.00461855
0.00445229
0.00428741
0.00413045
0.00397758
0.00382993
0.00368648
0.00354547
0.00340665
0.00327023
0.00313641
0.00300442
0.00287414
0.00274562
0.0026188
0.00249365
0.00237021
0.00224846
0.00212845
0.00201033
0.00189375
0.00177798
0.00166303
0.00154934
0.00143713
0.00132641
0.00121706
0.00110709
0.000996126
0.000886723
0.000779373
0.00067419
0.000570817
0.000465696
0.000358673
0.000253381
0.000150418
4.88543e-05
0.00478719
0.00472534
0.00459892
0.00444125
0.00428074
0.00412378
0.00397097
0.00382337
0.003681
0.00354204
0.00340512
0.00327011
0.00313714
0.00300567
0.00287578
0.00274755
0.00262096
0.00249599
0.00237267
0.00225103
0.00213108
0.00201297
0.00189648
0.00178091
0.00166604
0.0015522
0.00143967
0.00132854
0.00121886
0.00110887
0.000998024
0.000888485
0.000781012
0.000675493
0.000571637
0.000466617
0.000359921
0.000254496
0.00015133
4.93036e-05
0.00489063
0.00477492
0.00460615
0.00443129
0.00426512
0.00410733
0.00395576
0.0038106
0.00367067
0.00353385
0.003399
0.00326593
0.00313398
0.00300307
0.00287368
0.00274605
0.00262009
0.00249574
0.00237291
0.00225163
0.00213186
0.00201384
0.0018977
0.00178295
0.00166869
0.00155471
0.00144203
0.00133124
0.00122201
0.0011117
0.000999923
0.000889755
0.000781834
0.000676601
0.000573639
0.000468756
0.000361305
0.000254646
0.000150927
4.91456e-05
0.00509237
0.00487234
0.00462337
0.00441637
0.00424097
0.0040822
0.00393352
0.00379178
0.00365472
0.00352058
0.00338823
0.00325709
0.00312642
0.00299617
0.00286729
0.00274029
0.00261518
0.00249172
0.00236955
0.00224881
0.00212903
0.00201125
0.00189627
0.00178259
0.00166864
0.00155473
0.00144177
0.001331
0.00122234
0.00111215
0.00100009
0.000889656
0.000781712
0.000676298
0.000573001
0.000469215
0.000362993
0.000255799
0.000151209
4.91287e-05
0.00534398
0.00494492
0.00458192
0.00435142
0.00418151
0.00403183
0.00389184
0.00375888
0.00362934
0.00350054
0.00337195
0.00324359
0.0031157
0.0029891
0.0028638
0.00273829
0.002614
0.00249128
0.00236957
0.00224898
0.00212942
0.00201166
0.00189666
0.00178326
0.00166871
0.00155457
0.00144176
0.0013309
0.00122212
0.00111205
0.00100001
0.000889606
0.000781793
0.000676255
0.000572904
0.000469301
0.000363095
0.000255696
0.000150977
4.90292e-05
0.0055728
0.00490967
0.00443313
0.00425651
0.00413701
0.00400394
0.00387368
0.00374835
0.00362325
0.00349734
0.00337086
0.00324437
0.00311827
0.00299335
0.00286893
0.00274382
0.0026195
0.00249651
0.00237472
0.00225393
0.00213397
0.00201562
0.00190036
0.0017869
0.00167253
0.00155804
0.00144479
0.00133335
0.00122415
0.00111426
0.00100231
0.000891577
0.000783318
0.000677317
0.000573372
0.000469725
0.000364066
0.000257053
0.000152131
4.93895e-05
0.00555192
0.00484011
0.00435969
0.00424064
0.00414677
0.00401889
0.00388917
0.00376155
0.00363292
0.0035039
0.00337468
0.00324592
0.00311781
0.00299054
0.00286389
0.00273756
0.00261276
0.00248957
0.00236772
0.00224704
0.00212743
0.0020094
0.00189433
0.00178097
0.00166687
0.00155275
0.00143993
0.00132884
0.00121991
0.00111047
0.000999137
0.000889002
0.000781227
0.000675638
0.000571857
0.000468199
0.000362677
0.00025603
0.000151622
4.90085e-05
0.00557282
0.00490968
0.00443319
0.00425661
0.00413704
0.00400389
0.00387362
0.00374828
0.00362315
0.00349726
0.00337081
0.0032444
0.00311815
0.00299309
0.00286837
0.00274334
0.00261924
0.00249623
0.00237465
0.00225364
0.0021337
0.00201527
0.00189994
0.00178652
0.00167199
0.00155759
0.00144457
0.00133334
0.0012243
0.00111453
0.00100258
0.000891822
0.000783695
0.000678168
0.000573776
0.000467904
0.000361122
0.000255328
0.000151653
4.94295e-05
0.00531832
0.00489498
0.00455034
0.00433864
0.00417907
0.00403405
0.00389745
0.00376642
0.00363711
0.00350807
0.00337914
0.00325106
0.00312258
0.00299491
0.00286802
0.00274204
0.00261769
0.00249456
0.00237308
0.00225188
0.00213246
0.0020145
0.0018993
0.00178593
0.0016711
0.00155662
0.00144361
0.0013324
0.00122371
0.0011141
0.00100197
0.000891235
0.000783073
0.000677715
0.000574554
0.000469089
0.000361187
0.000254708
0.00015111
4.92588e-05
0.00506578
0.0048225
0.00458812
0.0043815
0.00420967
0.00405572
0.00391073
0.00377221
0.00363769
0.00350502
0.0033735
0.00324305
0.00311366
0.00298521
0.00285798
0.00273221
0.00260804
0.00248535
0.00236347
0.00224256
0.00212344
0.00200634
0.00189084
0.00177632
0.00166213
0.00154879
0.00143673
0.00132603
0.00121676
0.00110714
0.000996535
0.000887291
0.000779788
0.000674262
0.000570896
0.000466196
0.00035957
0.000254394
0.000151335
4.9405e-05
0.00484791
0.0046928
0.00454061
0.00437146
0.00421234
0.00406486
0.00392291
0.00378447
0.00364861
0.00351455
0.00338196
0.00325035
0.00312023
0.0029911
0.00286297
0.00273625
0.00261092
0.0024872
0.00236472
0.00224373
0.00212423
0.00200694
0.00189072
0.00177509
0.0016609
0.00154779
0.00143572
0.00132458
0.00121429
0.00110455
0.000995375
0.000887031
0.00077966
0.000673806
0.000569119
0.0004643
0.000359456
0.000255526
0.00015262
5.01335e-05
0.00470403
0.00456854
0.0044756
0.00434523
0.00420193
0.00406208
0.00392518
0.00378819
0.00365202
0.00351777
0.00338507
0.00325354
0.0031231
0.00299371
0.00286544
0.00273853
0.00261303
0.00248908
0.00236651
0.00224547
0.00212584
0.00200766
0.00189126
0.00177616
0.00166168
0.00154806
0.00143568
0.00132448
0.00121407
0.00110424
0.000995304
0.000887214
0.000780265
0.00067438
0.000568911
0.000463957
0.000359712
0.000256025
0.000153182
5.05281e-05
0.00474227
0.00459722
0.00449169
0.00435957
0.00421598
0.00407555
0.00393671
0.00379785
0.00365989
0.003524
0.00339017
0.00325799
0.00312696
0.00299714
0.00286862
0.00274142
0.00261568