/*--------------------------------*- C++ -*----------------------------------*\
| =========                 |                                                 |
| \\      /  F ield         | OpenFOAM: The Open Source CFD Toolbox           |
|  \\    /   O peration     | Version:  2212                                  |
|   \\  /    A nd           | Website:  www.openfoam.com                      |
|    \\/     M anipulation  |                                                 |
\*---------------------------------------------------------------------------*/
FoamFile
{
    version     2.0;
    format      ascii;
    arch        "LSB;label=32;scalar=64";
    class       surfaceScalarField;
    location    "0.95";
    object      phi;
}
// * * * * * * * * * * * * * * * * * * * * * * * * * * * * * * * * * * * * * //

dimensions      [0 3 -1 0 0 0 0];

oriented        oriented;

internalField   nonuniform List<scalar> 
19019
(
3.3225e-07
1.09686e-09
1.09677e-09
2.79191e-07
2.65296e-08
2.65293e-08
2.49218e-07
1.49866e-08
1.49859e-08
2.29255e-07
9.98223e-09
9.98123e-09
2.14836e-07
7.21053e-09
7.20855e-09
2.032e-07
5.81908e-09
5.81602e-09
1.93773e-07
4.71649e-09
4.71068e-09
1.86006e-07
3.88852e-09
3.8783e-09
1.79359e-07
3.3324e-09
3.31492e-09
1.73532e-07
2.92823e-09
2.89869e-09
1.68363e-07
2.60865e-09
2.56045e-09
1.63748e-07
2.34719e-09
2.26798e-09
1.59599e-07
2.14334e-09
2.0055e-09
1.55849e-07
1.99423e-09
1.75572e-09
1.52517e-07
1.8635e-09
1.46871e-09
1.49666e-07
1.74701e-09
1.10374e-09
1.47426e-07
1.6389e-09
6.0153e-10
1.47089e-07
1.02393e-09
-6.87149e-10
1.50885e-07
-3.6487e-10
-3.43084e-09
-1.40664e-08
-2.7784e-08
6.3138e-07
3.58756e-09
7.40285e-09
6.14564e-07
2.26456e-08
2.07001e-08
5.86446e-07
2.43755e-08
1.87289e-08
5.61728e-07
1.88539e-08
1.58463e-08
5.39622e-07
1.55677e-08
1.37484e-08
5.20645e-07
1.35072e-08
1.12891e-08
5.04705e-07
1.19467e-08
8.70948e-09
4.90963e-07
1.07909e-08
6.84014e-09
4.7876e-07
9.93219e-09
5.60352e-09
4.67708e-07
9.21317e-09
4.76679e-09
4.57583e-07
8.57349e-09
4.15967e-09
4.48258e-07
7.9838e-09
3.68921e-09
4.39638e-07
7.42619e-09
3.33687e-09
4.3167e-07
6.88986e-09
3.07191e-09
4.24413e-07
6.32254e-09
2.79793e-09
4.18062e-07
5.64229e-09
2.45653e-09
4.13242e-07
4.6332e-09
1.82516e-09
4.12118e-07
2.10236e-09
4.59458e-11
4.19518e-07
-2.97607e-09
-4.78922e-09
-1.60075e-08
-2.03844e-08
8.90375e-07
2.85252e-09
6.33231e-09
8.82487e-07
1.3408e-08
1.71256e-08
8.70361e-07
1.7866e-08
1.86355e-08
8.55115e-07
1.69528e-08
1.71464e-08
8.39988e-07
1.53355e-08
1.53594e-08
8.25544e-07
1.41616e-08
1.37893e-08
8.11784e-07
1.33648e-08
1.23419e-08
7.98804e-07
1.26501e-08
1.11208e-08
7.86755e-07
1.18444e-08
1.0137e-08
7.75653e-07
1.09708e-08
9.34482e-09
7.65366e-07
1.01164e-08
8.74347e-09
7.5576e-07
9.28945e-09
8.30039e-09
7.46738e-07
8.47982e-09
7.9684e-09
7.38288e-07
7.64823e-09
7.69241e-09
7.30475e-07
6.71017e-09
7.42531e-09
7.23598e-07
5.46462e-09
7.05463e-09
7.18137e-07
3.6968e-09
6.39679e-09
7.1445e-07
8.03355e-10
4.98645e-09
7.13096e-07
-4.07788e-09
2.45509e-09
-1.29239e-08
-2.78615e-09
1.07432e-06
1.06464e-09
5.56888e-09
1.06824e-06
5.5859e-09
1.39002e-08
1.06138e-06
8.46274e-09
1.62617e-08
1.05339e-06
9.03762e-09
1.59086e-08
1.04511e-06
8.61386e-09
1.50019e-08
1.03722e-06
8.11332e-09
1.39335e-08
1.02983e-06
7.77382e-09
1.29781e-08
1.02283e-06
7.53241e-09
1.21169e-08
1.016e-06
7.33175e-09
1.13492e-08
1.00925e-06
7.02092e-09
1.07003e-08
1.00261e-06
6.53842e-09
1.02114e-08
9.96075e-07
5.96959e-09
9.85814e-09
9.89581e-07
5.35807e-09
9.61542e-09
9.83073e-07
4.68427e-09
9.47243e-09
9.76465e-07
3.90874e-09
9.40959e-09
9.69703e-07
2.83301e-09
9.39336e-09
9.6273e-07
1.27147e-09
9.39824e-09
9.55138e-07
-1.05319e-09
9.44798e-09
9.46103e-07
-4.67808e-09
9.63512e-09
-9.9178e-09
1.03307e-08
1.16914e-06
-1.10113e-13
4.90653e-09
1.16312e-06
-4.96327e-13
1.16084e-08
1.15731e-06
-1.07265e-12
1.42756e-08
1.15201e-06
-1.86639e-12
1.43342e-08
1.1469e-06
-3.13011e-12
1.3732e-08
1.14205e-06
-5.31487e-12
1.29725e-08
1.13772e-06
-9.08267e-12
1.2106e-08
1.13395e-06
-1.52598e-11
1.13173e-08
1.13064e-06
-2.55965e-11
1.06663e-08
1.12749e-06
-4.27421e-11
1.02185e-08
1.12416e-06
-7.12563e-11
9.94358e-09
1.12047e-06
-1.1858e-10
9.77152e-09
1.11631e-06
-1.97694e-10
9.71874e-09
1.1115e-06
-3.3539e-10
9.82486e-09
1.10586e-06
-5.62321e-10
1.01165e-08
1.09899e-06
-9.51508e-10
1.06553e-08
1.09029e-06
-1.61611e-09
1.15836e-08
1.07898e-06
-2.78289e-09
1.30395e-08
1.06432e-06
-4.8866e-09
1.48658e-08
-8.72914e-09
1.78027e-08
1.16914e-06
-1.06486e-09
4.90657e-09
1.16312e-06
-5.58667e-09
1.16086e-08
1.15731e-06
-8.4642e-09
1.42758e-08
1.15201e-06
-9.0401e-09
1.43346e-08
1.14689e-06
-8.61825e-09
1.37331e-08
1.14204e-06
-8.12106e-09
1.29746e-08
1.1377e-06
-7.78715e-09
1.21092e-08
1.13392e-06
-7.5548e-09
1.13225e-08
1.13059e-06
-7.36955e-09
1.06752e-08
1.1274e-06
-7.08301e-09
1.02336e-08
1.124e-06
-6.63969e-09
9.96786e-09
1.1202e-06
-6.13442e-09
9.8126e-09
1.11584e-06
-5.63019e-09
9.79446e-09
1.11068e-06
-5.14067e-09
9.96835e-09
1.10439e-06
-4.65265e-09
1.03735e-08
1.09643e-06
-4.11002e-09
1.1124e-08
1.08582e-06
-3.45517e-09
1.24458e-08
1.071e-06
-2.60078e-09
1.46334e-08
1.04987e-06
-1.36138e-09
1.76069e-08
-9.54472e-10
2.5036e-08
1.07432e-06
-2.85251e-09
5.56889e-09
1.06824e-06
-1.3408e-08
1.39003e-08
1.06138e-06
-1.78661e-08
1.62621e-08
1.05338e-06
-1.6953e-08
1.59099e-08
1.04509e-06
-1.53362e-08
1.50043e-08
1.0372e-06
-1.4163e-08
1.39372e-08
1.02979e-06
-1.33671e-08
1.29836e-08
1.02277e-06
-1.26536e-08
1.2126e-08
1.01588e-06
-1.18499e-08
1.13641e-08
1.00905e-06
-1.09794e-08
1.0726e-08
1.00229e-06
-1.01291e-08
1.02554e-08
9.95525e-07
-9.30856e-09
9.93585e-09
9.88654e-07
-8.51044e-09
9.7518e-09
9.81498e-07
-7.69908e-09
9.71352e-09
9.73794e-07
-6.78885e-09
9.84042e-09
9.65138e-07
-5.64772e-09
1.01934e-08
9.54839e-07
-4.05232e-09
1.08966e-08
9.41657e-07
-1.53068e-09
1.21118e-08
9.23881e-07
2.56286e-09
1.38519e-08
7.73511e-09
2.0067e-08
8.90375e-07
-3.58744e-09
6.33237e-09
8.82486e-07
-2.26452e-08
1.7126e-08
8.70358e-07
-2.43749e-08
1.86363e-08
8.5511e-07
-1.88528e-08
1.71478e-08
8.39978e-07
-1.55656e-08
1.53616e-08
8.25527e-07
-1.35037e-08
1.37922e-08
8.11753e-07
-1.19408e-08
1.23467e-08
7.98752e-07
-1.07809e-08
1.11291e-08
7.86666e-07
-9.91543e-09
1.01506e-08
7.75505e-07
-9.18488e-09
9.36735e-09
7.6512e-07
-8.52596e-09
8.78158e-09
7.55352e-07
-7.90711e-09
8.36638e-09
7.46064e-07
-7.30299e-09
8.08116e-09
7.37167e-07
-6.68914e-09
7.88629e-09
7.28604e-07
-5.99877e-09
7.77316e-09
7.2039e-07
-5.148e-09
7.7148e-09
7.12543e-07
-3.87224e-09
7.6668e-09
7.04636e-07
-1.14605e-09
7.52227e-09
6.95292e-07
4.4418e-09
7.4661e-09
2.32984e-08
6.17736e-09
6.3138e-07
-1.09677e-09
7.40291e-09
6.14564e-07
-2.65293e-08
2.07005e-08
5.86445e-07
-1.49859e-08
1.87294e-08
5.61726e-07
-9.98124e-09
1.58473e-08
5.39619e-07
-7.20857e-09
1.37498e-08
5.2064e-07
-5.81604e-09
1.12919e-08
5.04696e-07
-4.71071e-09
8.71387e-09
4.90946e-07
-3.87833e-09
6.84716e-09
4.78731e-07
-3.31496e-09
5.61513e-09
4.67658e-07
-2.89873e-09
4.78643e-09
4.57496e-07
-2.5605e-09
4.19626e-09
4.48106e-07
-2.26802e-09
3.75067e-09
4.39389e-07
-2.00553e-09
3.41984e-09
4.31267e-07
-1.75574e-09
3.18895e-09
4.23742e-07
-1.46875e-09
2.99516e-09
4.16891e-07
-1.1038e-09
2.80642e-09
4.1113e-07
-6.01594e-10
2.49049e-09
4.0801e-07
6.87045e-10
1.28691e-09
4.11662e-07
3.4308e-09
-2.63994e-09
2.77842e-08
-2.14193e-08
3.3225e-07
1.09686e-09
2.79191e-07
2.65296e-08
2.49218e-07
1.49866e-08
2.29255e-07
9.98222e-09
2.14836e-07
7.21052e-09
2.032e-07
5.81907e-09
1.93773e-07
4.71647e-09
1.86006e-07
3.88848e-09
1.79359e-07
3.33236e-09
1.73532e-07
2.92818e-09
1.68363e-07
2.6086e-09
1.63748e-07
2.34713e-09
1.59599e-07
2.14328e-09
1.55849e-07
1.99417e-09
1.52517e-07
1.86346e-09
1.49666e-07
1.74701e-09
1.47426e-07
1.63898e-09
1.47089e-07
1.02409e-09
1.50884e-07
-3.64682e-10
-1.40655e-08
6.3138e-07
7.40291e-09
3.58745e-09
6.14564e-07
2.07005e-08
2.26452e-08
5.86445e-07
1.87294e-08
2.43749e-08
5.61726e-07
1.58473e-08
1.88528e-08
5.39619e-07
1.37498e-08
1.55656e-08
5.2064e-07
1.12919e-08
1.35037e-08
5.04696e-07
8.71388e-09
1.19407e-08
4.90946e-07
6.84716e-09
1.07809e-08
4.78731e-07
5.61513e-09
9.91539e-09
4.67658e-07
4.78644e-09
9.18484e-09
4.57496e-07
4.19627e-09
8.52593e-09
4.48106e-07
3.75067e-09
7.90708e-09
4.39389e-07
3.41985e-09
7.30297e-09
4.31267e-07
3.18892e-09
6.68914e-09
4.23742e-07
2.99507e-09
5.99877e-09
4.16891e-07
2.80628e-09
5.14797e-09
4.1113e-07
2.4902e-09
3.87219e-09
4.08011e-07
1.28628e-09
1.14587e-09
4.11664e-07
-2.64107e-09
-4.44226e-09
-2.14214e-08
-2.32992e-08
9.23617e-07
7.03384e-09
7.03372e-09
9.25318e-07
1.98497e-08
1.98492e-08
9.17185e-07
2.27964e-08
2.27956e-08
9.04276e-07
2.23016e-08
2.23002e-08
8.90536e-07
2.06204e-08
2.06181e-08
8.77414e-07
1.78539e-08
1.78497e-08
8.65448e-07
1.4698e-08
1.46911e-08
8.54777e-07
1.21848e-08
1.21737e-08
8.45349e-07
1.03328e-08
1.03137e-08
8.37024e-07
8.95544e-09
8.92302e-09
8.29621e-07
7.90641e-09
7.85234e-09
8.22965e-07
7.09152e-09
7.00406e-09
8.16978e-07
6.44056e-09
6.30308e-09
8.117e-07
5.87815e-09
5.66102e-09
8.07207e-07
5.31247e-09
4.97295e-09
8.03653e-07
4.66483e-09
4.1518e-09
8.0122e-07
3.74892e-09
2.9997e-09
7.9927e-07
2.15812e-09
1.12436e-09
7.94629e-07
-8.49087e-10
-1.93993e-09
-6.15756e-09
-6.78606e-09
1.1589e-06
5.28124e-09
6.10238e-09
1.1657e-06
1.39982e-08
1.61821e-08
1.16845e-06
1.7977e-08
2.0705e-08
1.16662e-06
1.91773e-08
2.21023e-08
1.16222e-06
1.88736e-08
2.15027e-08
1.15655e-06
1.75412e-08
1.97665e-08
1.1505e-06
1.56773e-08
1.74199e-08
1.14461e-06
1.38711e-08
1.53207e-08
1.13921e-06
1.22583e-08
1.36158e-08
1.13442e-06
1.08413e-08
1.22471e-08
1.13026e-06
9.65392e-09
1.1155e-08
1.12671e-06
8.65951e-09
1.02851e-08
1.12375e-06
7.79106e-09
9.57291e-09
1.12141e-06
6.96648e-09
8.94487e-09
1.11972e-06
6.09218e-09
8.3397e-09
1.1187e-06
5.07617e-09
7.66128e-09
1.11833e-06
3.75451e-09
6.76119e-09
1.11807e-06
1.93319e-09
5.47178e-09
1.11664e-06
-6.07793e-10
3.64472e-09
-3.97333e-09
1.88512e-09
1.32763e-06
2.71801e-09
4.93098e-09
1.33539e-06
7.12019e-09
1.30086e-08
1.34287e-06
9.55218e-09
1.72152e-08
1.34848e-06
1.05758e-08
1.88987e-08
1.35198e-06
1.08714e-08
1.95011e-08
1.35377e-06
1.0574e-08
1.91159e-08
1.35444e-06
9.88081e-09
1.81027e-08
1.35458e-06
9.0276e-09
1.68155e-08
1.35455e-06
8.16315e-09
1.54719e-08
1.35451e-06
7.34241e-09
1.42478e-08
1.35451e-06
6.58827e-09
1.32726e-08
1.35462e-06
5.89268e-09
1.2515e-08
1.35486e-06
5.23525e-09
1.19341e-08
1.35524e-06
4.56484e-09
1.14937e-08
1.35578e-06
3.80361e-09
1.11588e-08
1.35646e-06
2.88705e-09
1.0903e-08
1.3572e-06
1.70282e-09
1.07101e-08
1.35783e-06
1.56595e-10
1.05897e-08
1.35815e-06
-1.89018e-09
1.06017e-08
-4.16013e-09
1.11278e-08
1.41518e-06
-1.87146e-13
4.19283e-09
1.42279e-06
-5.30475e-13
1.11159e-08
1.43152e-06
-9.17679e-13
1.50986e-08
1.4398e-06
-1.61844e-12
1.66299e-08
1.44713e-06
-2.87199e-12
1.72774e-08
1.45317e-06
-4.8594e-12
1.7514e-08
1.458e-06
-7.88763e-12
1.71603e-08
1.46191e-06
-1.27829e-11
1.64493e-08
1.46519e-06
-2.11283e-11
1.55716e-08
1.46808e-06
-3.57046e-11
1.4707e-08
1.47075e-06
-5.97028e-11
1.39215e-08
1.47324e-06
-9.91888e-11
1.32711e-08
1.4755e-06
-1.58395e-10
1.2849e-08
1.47749e-06
-2.51496e-10
1.26589e-08
1.47916e-06
-3.98881e-10
1.26436e-08
1.48047e-06
-6.28161e-10
1.28579e-08
1.48133e-06
-9.72547e-10
1.34046e-08
1.48164e-06
-1.46734e-09
1.4357e-08
1.4811e-06
-2.12844e-09
1.56401e-08
-2.75933e-09
1.71331e-08
1.41518e-06
-2.71823e-09
4.19292e-09
1.42279e-06
-7.12079e-09
1.11161e-08
1.43152e-06
-9.55328e-09
1.5099e-08
1.4398e-06
-1.05778e-08
1.66307e-08
1.44712e-06
-1.08749e-08
1.72791e-08
1.45316e-06
-1.05798e-08
1.7517e-08
1.45798e-06
-9.89037e-09
1.7165e-08
1.46188e-06
-9.04318e-09
1.64568e-08
1.46514e-06
-8.18883e-09
1.55832e-08
1.468e-06
-7.38699e-09
1.47262e-08
1.47062e-06
-6.66351e-09
1.39536e-08
1.47302e-06
-6.01655e-09
1.33269e-08
1.47514e-06
-5.42578e-09
1.29446e-08
1.4769e-06
-4.86434e-09
1.28139e-08
1.47827e-06
-4.2883e-09
1.2894e-08
1.47916e-06
-3.67592e-09
1.32873e-08
1.47948e-06
-2.97139e-09
1.41213e-08
1.47927e-06
-2.13627e-09
1.55115e-08
1.47851e-06
-1.16374e-09
1.74019e-08
-1.44933e-10
1.93586e-08
1.32762e-06
-5.28116e-09
4.93116e-09
1.33539e-06
-1.39981e-08
1.30091e-08
1.34286e-06
-1.79768e-08
1.72163e-08
1.34847e-06
-1.91771e-08
1.89011e-08
1.35197e-06
-1.88733e-08
1.95052e-08
1.35374e-06
-1.75403e-08
1.91222e-08
1.3544e-06
-1.56761e-08
1.81125e-08
1.35452e-06
-1.38698e-08
1.68311e-08
1.35446e-06
-1.22554e-08
1.54961e-08
1.35434e-06
-1.08359e-08
1.42874e-08
1.35424e-06
-9.64426e-09
1.33404e-08
1.35417e-06
-8.64128e-09
1.26285e-08
1.35413e-06
-7.75247e-09
1.21204e-08
1.35408e-06
-6.8989e-09
1.18e-08
1.35396e-06
-5.99335e-09
1.16674e-08
1.35366e-06
-4.9396e-09
1.17493e-08
1.35306e-06
-3.57629e-09
1.21075e-08
1.35191e-06
-1.68056e-09
1.2804e-08
1.34965e-06
1.12383e-09
1.38196e-08
5.37761e-09
1.49954e-08
1.1589e-06
-7.03372e-09
6.10259e-09
1.1657e-06
-1.98492e-08
1.61829e-08
1.16844e-06
-2.27956e-08
2.07065e-08
1.16661e-06
-2.23003e-08
2.21047e-08
1.16221e-06
-2.06181e-08
2.15064e-08
1.15654e-06
-1.78497e-08
1.97717e-08
1.15047e-06
-1.46911e-08
1.74284e-08
1.14457e-06
-1.21737e-08
1.53354e-08
1.13914e-06
-1.03138e-08
1.36405e-08
1.13431e-06
-8.92304e-09
1.22877e-08
1.13007e-06
-7.85235e-09
1.12217e-08
1.12641e-06
-7.00406e-09
1.03929e-08
1.1233e-06
-6.30304e-09
9.74613e-09
1.12072e-06
-5.66102e-09
9.22172e-09
1.11869e-06
-4.97302e-09
8.78167e-09
1.11726e-06
-4.15192e-09
8.36496e-09
1.11646e-06
-3.00002e-09
7.88356e-09
1.11625e-06
-1.12507e-09
7.18281e-09
1.11693e-06
1.93885e-09
5.96698e-09
6.78505e-09
3.85606e-09
9.23617e-07
-7.40285e-09
7.03385e-09
9.25318e-07
-2.07001e-08
1.98497e-08
9.17185e-07
-1.87289e-08
2.27963e-08
9.04276e-07
-1.58463e-08
2.23016e-08
8.90536e-07
-1.37484e-08
2.06204e-08
8.77414e-07
-1.12892e-08
1.78539e-08
8.65448e-07
-8.70948e-09
1.4698e-08
8.54777e-07
-6.84014e-09
1.21848e-08
8.45349e-07
-5.60351e-09
1.03327e-08
8.37024e-07
-4.76678e-09
8.95539e-09
8.29621e-07
-4.15965e-09
7.90636e-09
8.22965e-07
-3.68919e-09
7.09147e-09
8.16978e-07
-3.33682e-09
6.44051e-09
8.117e-07
-3.07187e-09
5.87814e-09
8.07207e-07
-2.79791e-09
5.31253e-09
8.03653e-07
-2.45656e-09
4.66503e-09
8.0122e-07
-1.82531e-09
3.74937e-09
7.99269e-07
-4.63086e-11
2.15902e-09
7.94627e-07
4.78866e-09
-8.47762e-10
2.03832e-08
-6.15609e-09
6.3138e-07
3.58756e-09
6.14564e-07
2.26456e-08
5.86446e-07
2.43755e-08
5.61728e-07
1.88539e-08
5.39622e-07
1.55677e-08
5.20645e-07
1.35072e-08
5.04705e-07
1.19467e-08
4.90963e-07
1.07908e-08
4.7876e-07
9.93216e-09
4.67708e-07
9.21313e-09
4.57583e-07
8.57344e-09
4.48257e-07
7.98375e-09
4.39638e-07
7.42614e-09
4.3167e-07
6.88981e-09
4.24413e-07
6.32249e-09
4.18061e-07
5.64231e-09
4.13242e-07
4.63335e-09
4.12117e-07
2.10263e-09
4.19516e-07
-2.9756e-09
-1.60067e-08
8.90375e-07
6.33237e-09
2.85251e-09
8.82486e-07
1.7126e-08
1.3408e-08
8.70358e-07
1.86363e-08
1.7866e-08
8.5511e-07
1.71478e-08
1.69529e-08
8.39978e-07
1.53616e-08
1.53361e-08
8.25527e-07
1.37923e-08
1.41629e-08
8.11753e-07
1.23468e-08
1.33671e-08
7.98752e-07
1.11292e-08
1.26535e-08
7.86666e-07
1.01506e-08
1.18499e-08
7.75505e-07
9.36737e-09
1.09793e-08
7.6512e-07
8.7816e-09
1.0129e-08
7.55352e-07
8.36639e-09
9.30851e-09
7.46064e-07
8.08117e-09
8.51041e-09
7.37167e-07
7.88625e-09
7.69907e-09
7.28604e-07
7.77305e-09
6.78887e-09
7.2039e-07
7.71456e-09
5.6477e-09
7.12543e-07
7.6663e-09
4.05229e-09
7.04638e-07
7.52125e-09
1.53044e-09
6.95295e-07
7.46424e-09
-2.5637e-09
6.17529e-09
-7.73605e-09
1.1589e-06
6.10259e-09
5.28116e-09
1.1657e-06
1.61829e-08
1.39981e-08
1.16844e-06
2.07065e-08
1.79768e-08
1.16661e-06
2.21047e-08
1.9177e-08
1.16221e-06
2.15064e-08
1.88732e-08
1.15654e-06
1.97717e-08
1.75403e-08
1.15047e-06
1.74285e-08
1.5676e-08
1.14457e-06
1.53354e-08
1.38698e-08
1.13914e-06
1.36405e-08
1.22554e-08
1.13431e-06
1.22878e-08
1.08358e-08
1.13007e-06
1.12217e-08
9.64423e-09
1.12641e-06
1.03929e-08
8.64127e-09
1.1233e-06
9.74615e-09
7.7525e-09
1.12072e-06
9.22165e-09
6.89891e-09
1.11869e-06
8.78147e-09
5.99332e-09
1.11726e-06
8.36459e-09
4.93956e-09
1.11646e-06
7.88288e-09
3.57615e-09
1.11625e-06
7.18164e-09
1.68022e-09
1.11693e-06
5.96538e-09
-1.12425e-09
3.85532e-09
-5.37665e-09
1.37712e-06
4.5772e-09
4.57701e-09
1.38565e-06
1.19167e-08
1.19162e-08
1.39417e-06
1.6446e-08
1.64452e-08
1.40126e-06
1.85589e-08
1.85575e-08
1.40642e-06
1.89278e-08
1.89255e-08
1.40952e-06
1.82186e-08
1.82149e-08
1.41096e-06
1.67104e-08
1.67043e-08
1.41156e-06
1.50338e-08
1.50242e-08
1.41186e-06
1.34849e-08
1.34691e-08
1.41214e-06
1.21396e-08
1.21144e-08
1.41258e-06
1.09884e-08
1.09477e-08
1.4133e-06
1.00122e-08
9.94712e-09
1.41437e-06
9.17727e-09
9.07267e-09
1.41582e-06
8.43826e-09
8.2728e-09
1.41768e-06
7.75599e-09
7.50335e-09
1.41994e-06
7.07513e-09
6.6986e-09
1.42246e-06
6.33275e-09
5.78578e-09
1.42493e-06
5.47004e-09
4.71479e-09
1.42658e-06
4.46828e-09
3.49465e-09
3.58481e-09
2.51516e-09
1.53312e-06
2.36581e-09
3.64912e-09
1.54218e-06
6.23824e-09
9.63332e-09
1.55328e-06
8.87231e-09
1.36908e-08
1.56445e-06
1.03454e-08
1.59353e-08
1.57508e-06
1.08971e-08
1.69098e-08
1.58472e-06
1.07509e-08
1.6943e-08
1.59302e-06
1.01377e-08
1.63738e-08
1.6001e-06
9.32224e-09
1.54428e-08
1.60627e-06
8.44569e-09
1.43404e-08
1.6118e-06
7.61629e-09
1.32458e-08
1.61693e-06
6.87701e-09
1.22546e-08
1.62184e-06
6.22574e-09
1.13932e-08
1.62665e-06
5.63814e-09
1.06595e-08
1.63146e-06
5.07837e-09
1.00378e-08
1.63636e-06
4.51685e-09
9.50638e-09
1.64137e-06
3.91986e-09
9.04196e-09
1.64654e-06
3.25233e-09
8.62806e-09
1.65185e-06
2.47882e-09
8.26265e-09
1.65737e-06
1.58804e-09
7.96842e-09
6.89152e-10
7.94949e-09
1.61424e-06
-1.35845e-13
3.09279e-09
1.62332e-06
-3.36669e-13
8.27388e-09
1.63533e-06
-5.8954e-13
1.19569e-08
1.6482e-06
-1.01165e-12
1.41143e-08
1.66117e-06
-1.72271e-12
1.52001e-08
1.67386e-06
-2.74781e-12
1.55833e-08
1.68573e-06
-4.42178e-12
1.54312e-08
1.69654e-06
-6.96045e-12
1.49615e-08
1.70628e-06
-1.12134e-11
1.42914e-08
1.7151e-06
-1.82006e-11
1.35241e-08
1.72317e-06
-2.91754e-11
1.27515e-08
1.73067e-06
-4.5865e-11
1.2045e-08
1.73777e-06
-6.98169e-11
1.1458e-08
1.74459e-06
-1.04494e-10
1.10219e-08
1.75116e-06
-1.59958e-10
1.07531e-08
1.75752e-06
-2.42945e-10
1.06569e-08
1.76378e-06
-3.53039e-10
1.07469e-08
1.77008e-06
-4.82781e-10
1.1027e-08
1.77646e-06
-5.99277e-10
1.14395e-08
-6.14289e-10
1.1914e-08
1.61424e-06
-2.36592e-09
3.0929e-09
1.62332e-06
-6.2385e-09
8.27418e-09
1.63533e-06
-8.8728e-09
1.19575e-08
1.64819e-06
-1.03463e-08
1.41153e-08
1.66117e-06
-1.08984e-08
1.5202e-08
1.67385e-06
-1.07528e-08
1.55862e-08
1.68571e-06
-1.01408e-08
1.54355e-08
1.69652e-06
-9.32728e-09
1.49681e-08
1.70625e-06
-8.45384e-09
1.43016e-08
1.71504e-06
-7.6303e-09
1.35405e-08
1.72309e-06
-6.90076e-09
1.27781e-08
1.73055e-06
-6.26448e-09
1.20881e-08
1.73759e-06
-5.69715e-09
1.15269e-08
1.74434e-06
-5.16669e-09
1.11297e-08
1.75081e-06
-4.65845e-09
1.09214e-08
1.75709e-06
-4.14979e-09
1.09164e-08
1.76334e-06
-3.61753e-09
1.1134e-08
1.76984e-06
-3.04026e-09
1.15741e-08
1.77692e-06
-2.42263e-09
1.21421e-08
-1.79539e-09
1.26416e-08
1.53312e-06
-4.57701e-09
3.64937e-09
1.54218e-06
-1.19162e-08
9.63397e-09
1.55327e-06
-1.64452e-08
1.3692e-08
1.56445e-06
-1.85575e-08
1.59374e-08
1.57507e-06
-1.89255e-08
1.69133e-08
1.5847e-06
-1.8215e-08
1.69484e-08
1.593e-06
-1.67043e-08
1.63822e-08
1.60007e-06
-1.50242e-08
1.54563e-08
1.60622e-06
-1.34692e-08
1.43615e-08
1.61171e-06
-1.21144e-08
1.3279e-08
1.61679e-06
-1.09477e-08
1.23082e-08
1.62162e-06
-9.94714e-09
1.14791e-08
1.62632e-06
-9.07268e-09
1.07986e-08
1.63097e-06
-8.27283e-09
1.02608e-08
1.63562e-06
-7.5034e-09
9.85699e-09
1.64033e-06
-6.69866e-09
9.58425e-09
1.64516e-06
-5.78589e-09
9.44671e-09
1.6502e-06
-4.71494e-09
9.43803e-09
1.6556e-06
-3.4947e-09
9.4954e-09
-2.51464e-09
9.44804e-09
1.37712e-06
-6.10238e-09
4.5772e-09
1.38565e-06
-1.61822e-08
1.19166e-08
1.39417e-06
-2.0705e-08
1.6446e-08
1.40126e-06
-2.21023e-08
1.85589e-08
1.40642e-06
-2.15028e-08
1.89278e-08
1.40952e-06
-1.97665e-08
1.82186e-08
1.41096e-06
-1.74199e-08
1.67104e-08
1.41156e-06
-1.53208e-08
1.50338e-08
1.41186e-06
-1.36158e-08
1.34849e-08
1.41214e-06
-1.22472e-08
1.21396e-08
1.41258e-06
-1.1155e-08
1.09883e-08
1.4133e-06
-1.02851e-08
1.00122e-08
1.41437e-06
-9.57295e-09
9.17729e-09
1.41582e-06
-8.94494e-09
8.43834e-09
1.41768e-06
-8.33983e-09
7.75617e-09
1.41994e-06
-7.66155e-09
7.07546e-09
1.42246e-06
-6.7617e-09
6.33327e-09
1.42493e-06
-5.47265e-09
5.4708e-09
1.42658e-06
-3.64595e-09
4.4692e-09
-1.88587e-09
3.58549e-09
1.1589e-06
-6.33231e-09
5.28124e-09
1.1657e-06
-1.71257e-08
1.39982e-08
1.16845e-06
-1.86355e-08
1.7977e-08
1.16662e-06
-1.71464e-08
1.91773e-08
1.16222e-06
-1.53594e-08
1.88736e-08
1.15655e-06
-1.37893e-08
1.75412e-08
1.1505e-06
-1.2342e-08
1.56772e-08
1.14461e-06
-1.11208e-08
1.38711e-08
1.13921e-06
-1.0137e-08
1.22582e-08
1.13442e-06
-9.34483e-09
1.08413e-08
1.13026e-06
-8.74348e-09
9.65387e-09
1.12671e-06
-8.30041e-09
8.65945e-09
1.12375e-06
-7.96843e-09
7.79102e-09
1.12141e-06
-7.69245e-09
6.96645e-09
1.11972e-06
-7.42539e-09
6.0922e-09
1.1187e-06
-7.05484e-09
5.07633e-09
1.11833e-06
-6.39722e-09
3.7549e-09
1.11807e-06
-4.98727e-09
1.93391e-09
1.11664e-06
-2.45652e-09
-6.06825e-10
2.78423e-09
-3.97376e-09
8.90375e-07
2.85252e-09
8.82487e-07
1.3408e-08
8.70361e-07
1.7866e-08
8.55115e-07
1.69528e-08
8.39988e-07
1.53355e-08
8.25544e-07
1.41616e-08
8.11784e-07
1.33648e-08
7.98804e-07
1.26501e-08
7.86755e-07
1.18444e-08
7.75653e-07
1.09708e-08
7.65366e-07
1.01163e-08
7.5576e-07
9.28936e-09
7.46738e-07
8.47971e-09
7.38287e-07
7.64813e-09
7.30474e-07
6.71009e-09
7.23597e-07
5.4646e-09
7.18136e-07
3.69691e-09
7.14448e-07
8.03663e-10
7.13093e-07
-4.07691e-09
-1.29219e-08
1.07432e-06
5.56889e-09
1.06486e-09
1.06824e-06
1.39003e-08
5.58667e-09
1.06138e-06
1.62621e-08
8.46418e-09
1.05338e-06
1.59099e-08
9.04006e-09
1.04509e-06
1.50043e-08
8.61821e-09
1.0372e-06
1.39372e-08
8.121e-09
1.02979e-06
1.29837e-08
7.78709e-09
1.02277e-06
1.2126e-08
7.55473e-09
1.01588e-06
1.13641e-08
7.36947e-09
1.00905e-06
1.0726e-08
7.08293e-09
1.00229e-06
1.02554e-08
6.6396e-09
9.95525e-07
9.93583e-09
6.13434e-09
9.88654e-07
9.75176e-09
5.63013e-09
9.81499e-07
9.71344e-09
5.14063e-09
9.73794e-07
9.84027e-09
4.65263e-09
9.65139e-07
1.01931e-08
4.10998e-09
9.5484e-07
1.0896e-08
3.45514e-09
9.41659e-07
1.21107e-08
2.60065e-09
9.23884e-07
1.38501e-08
1.36105e-09
2.00658e-08
9.54342e-10
1.32762e-06
4.93116e-09
2.71822e-09
1.33539e-06
1.30091e-08
7.12078e-09
1.34286e-06
1.72163e-08
9.55326e-09
1.34847e-06
1.89011e-08
1.05778e-08
1.35197e-06
1.95052e-08
1.08749e-08
1.35374e-06
1.91222e-08
1.05798e-08
1.3544e-06
1.81125e-08
9.89032e-09
1.35452e-06
1.68311e-08
9.04313e-09
1.35446e-06
1.54961e-08
8.18877e-09
1.35434e-06
1.42874e-08
7.38693e-09
1.35424e-06
1.33404e-08
6.66345e-09
1.35417e-06
1.26284e-08
6.01651e-09
1.35413e-06
1.21203e-08
5.42577e-09
1.35408e-06
1.17999e-08
4.86436e-09
1.35396e-06
1.16671e-08
4.28833e-09
1.35366e-06
1.17489e-08
3.67601e-09
1.35306e-06
1.21069e-08
2.97154e-09
1.35191e-06
1.2803e-08
2.13654e-09
1.34965e-06
1.38184e-08
1.16433e-09
1.49952e-08
1.467e-10
1.53312e-06
3.64937e-09
2.36592e-09
1.54218e-06
9.63398e-09
6.23849e-09
1.55327e-06
1.3692e-08
8.87278e-09
1.56445e-06
1.59374e-08
1.03463e-08
1.57507e-06
1.69133e-08
1.08984e-08
1.5847e-06
1.69484e-08
1.07528e-08
1.593e-06
1.63822e-08
1.01407e-08
1.60007e-06
1.54563e-08
9.32724e-09
1.60622e-06
1.43615e-08
8.4538e-09
1.61171e-06
1.3279e-08
7.63026e-09
1.61679e-06
1.23081e-08
6.90073e-09
1.62162e-06
1.14791e-08
6.26446e-09
1.62632e-06
1.07985e-08
5.69715e-09
1.63097e-06
1.02606e-08
5.16673e-09
1.63562e-06
9.85672e-09
4.65852e-09
1.64033e-06
9.58387e-09
4.14996e-09
1.64516e-06
9.4462e-09
3.61785e-09
1.6502e-06
9.43741e-09
3.04084e-09
1.6556e-06
9.49479e-09
2.42368e-09
9.44785e-09
1.79728e-09
1.68027e-06
1.89097e-09
1.89089e-09
1.68934e-06
5.09914e-09
5.09892e-09
1.7018e-06
7.46389e-09
7.46349e-09
1.71578e-06
8.94547e-09
8.94483e-09
1.73022e-06
9.69206e-09
9.69101e-09
1.74439e-06
9.85976e-09
9.85806e-09
1.75785e-06
9.65084e-09
9.64819e-09
1.77036e-06
9.1973e-09
9.19325e-09
1.78184e-06
8.61101e-09
8.60489e-09
1.79241e-06
7.9856e-09
7.9763e-09
1.80221e-06
7.38613e-09
7.37158e-09
1.81142e-06
6.84463e-09
6.82137e-09
1.82017e-06
6.37108e-09
6.33338e-09
1.82861e-06
5.96176e-09
5.90165e-09
1.83685e-06
5.60346e-09
5.51273e-09
1.84503e-06
5.28776e-09
5.15836e-09
1.85327e-06
5.00754e-09
4.83255e-09
1.86169e-06
4.74945e-09
4.5289e-09
1.87042e-06
4.48058e-09
4.24985e-09
4.19384e-09
4.0772e-09
1.7569e-06
-3.11157e-14
1.61312e-09
1.76589e-06
-6.10826e-14
4.38384e-09
1.77878e-06
-9.68621e-14
6.53131e-09
1.79389e-06
-1.4711e-13
7.95038e-09
1.81003e-06
-2.12207e-13
8.7548e-09
1.82639e-06
-2.92583e-13
9.08465e-09
1.8424e-06
-4.2015e-13
9.07112e-09
1.85772e-06
-7.35974e-13
8.83523e-09
1.87216e-06
-1.29187e-12
8.46206e-09
1.88566e-06
-2.10136e-12
8.01796e-09
1.89824e-06
-3.09031e-12
7.55473e-09
1.91003e-06
-4.07053e-12
7.11062e-09
1.92115e-06
-4.70221e-12
6.7124e-09
1.93176e-06
-5.09218e-12
6.37928e-09
1.94199e-06
-6.95063e-12
6.12828e-09
1.95198e-06
-1.11837e-11
5.96611e-09
1.96186e-06
-1.67986e-11
5.8939e-09
1.97175e-06
-1.91874e-11
5.90782e-09
1.98169e-06
-1.7201e-11
5.99431e-09
-1.16155e-11
6.1087e-09
1.7569e-06
-1.8909e-09
1.61319e-09
1.76589e-06
-5.09893e-09
4.38403e-09
1.77878e-06
-7.46351e-09
6.53167e-09
1.79389e-06
-8.94485e-09
7.95098e-09
1.81002e-06
-9.69104e-09
8.75577e-09
1.82638e-06
-9.85809e-09
9.08614e-09
1.84239e-06
-9.64823e-09
9.07332e-09
1.85771e-06
-9.19328e-09
8.83851e-09
1.87215e-06
-8.60493e-09
8.46704e-09
1.88564e-06
-7.97634e-09
8.02556e-09
1.89822e-06
-7.37162e-09
7.5664e-09
1.91e-06
-6.82141e-09
7.12852e-09
1.92111e-06
-6.3334e-09
6.73973e-09
1.93172e-06
-5.90165e-09
6.42063e-09
1.94196e-06
-5.51268e-09
6.18992e-09
1.95197e-06
-5.15821e-09
6.05334e-09
1.96191e-06
-4.83224e-09
6.00843e-09
1.97195e-06
-4.52833e-09
6.04329e-09
1.9822e-06
-4.24885e-09
6.12641e-09
-4.07561e-09
6.18255e-09
1.68027e-06
-3.64912e-09
1.89097e-09
1.68934e-06
-9.63333e-09
5.09914e-09
1.7018e-06
-1.36909e-08
7.46389e-09
1.71578e-06
-1.59353e-08
8.94548e-09
1.73022e-06
-1.69098e-08
9.69207e-09
1.74439e-06
-1.6943e-08
9.85978e-09
1.75785e-06
-1.63738e-08
9.65086e-09
1.77036e-06
-1.54428e-08
9.19733e-09
1.78184e-06
-1.43405e-08
8.61104e-09
1.79241e-06
-1.32458e-08
7.98565e-09
1.80221e-06
-1.22546e-08
7.38619e-09
1.81142e-06
-1.13933e-08
6.8447e-09
1.82017e-06
-1.06596e-08
6.37117e-09
1.82861e-06
-1.00378e-08
5.96188e-09
1.83685e-06
-9.50641e-09
5.60363e-09
1.84503e-06
-9.04197e-09
5.28797e-09
1.85327e-06
-8.62802e-09
5.00776e-09
1.86169e-06
-8.26246e-09
4.74963e-09
1.87042e-06
-7.96782e-09
4.48062e-09
-7.948e-09
4.19362e-09
1.53312e-06
-4.93098e-09
2.36581e-09
1.54218e-06
-1.30086e-08
6.23824e-09
1.55328e-06
-1.72153e-08
8.87231e-09
1.56445e-06
-1.88987e-08
1.03454e-08
1.57508e-06
-1.95011e-08
1.08971e-08
1.58472e-06
-1.91159e-08
1.07509e-08
1.59302e-06
-1.81027e-08
1.01377e-08
1.6001e-06
-1.68155e-08
9.32224e-09
1.60627e-06
-1.5472e-08
8.44569e-09
1.6118e-06
-1.42479e-08
7.6163e-09
1.61693e-06
-1.32726e-08
6.87703e-09
1.62184e-06
-1.25151e-08
6.22575e-09
1.62665e-06
-1.19342e-08
5.63816e-09
1.63146e-06
-1.14938e-08
5.07841e-09
1.63636e-06
-1.11589e-08
4.51691e-09
1.64137e-06
-1.09032e-08
3.91993e-09
1.64654e-06
-1.07105e-08
3.25239e-09
1.65186e-06
-1.05902e-08
2.47878e-09
1.65737e-06
-1.0602e-08
1.58768e-09
-1.11256e-08
6.88173e-10
1.32763e-06
-5.56888e-09
2.71801e-09
1.33539e-06
-1.39002e-08
7.12018e-09
1.34287e-06
-1.62617e-08
9.55218e-09
1.34848e-06
-1.59086e-08
1.05758e-08
1.35198e-06
-1.50019e-08
1.08714e-08
1.35377e-06
-1.39335e-08
1.0574e-08
1.35444e-06
-1.29781e-08
9.8808e-09
1.35458e-06
-1.2117e-08
9.02759e-09
1.35455e-06
-1.13492e-08
8.16313e-09
1.35451e-06
-1.07003e-08
7.34238e-09
1.35451e-06
-1.02114e-08
6.58823e-09
1.35462e-06
-9.85816e-09
5.89264e-09
1.35486e-06
-9.61546e-09
5.23521e-09
1.35524e-06
-9.47249e-09
4.56479e-09
1.35578e-06
-9.4097e-09
3.80357e-09
1.35646e-06
-9.39359e-09
2.88703e-09
1.3572e-06
-9.39868e-09
1.70283e-09
1.35783e-06
-9.4488e-09
1.56608e-10
1.35815e-06
-9.63644e-09
-1.8905e-09
-1.03307e-08
-4.16241e-09
1.07432e-06
1.06464e-09
1.06824e-06
5.5859e-09
1.06138e-06
8.46273e-09
1.05339e-06
9.03761e-09
1.04511e-06
8.61385e-09
1.03722e-06
8.1133e-09
1.02983e-06
7.7738e-09
1.02283e-06
7.53238e-09
1.016e-06
7.33171e-09
1.00925e-06
7.02087e-09
1.00261e-06
6.53836e-09
9.96075e-07
5.96951e-09
9.89581e-07
5.35798e-09
9.83072e-07
4.68418e-09
9.76464e-07
3.90866e-09
9.69702e-07
2.83295e-09
9.62729e-07
1.2715e-09
9.55136e-07
-1.05297e-09
9.461e-07
-4.6774e-09
-9.91666e-09
1.16914e-06
4.90657e-09
1.08129e-13
1.16312e-06
1.16086e-08
4.90748e-13
1.15731e-06
1.42758e-08
1.05939e-12
1.15201e-06
1.43346e-08
1.83701e-12
1.14689e-06
1.37331e-08
3.08805e-12
1.14204e-06
1.29746e-08
5.26126e-12
1.1377e-06
1.21092e-08
9.01867e-12
1.13392e-06
1.13225e-08
1.51858e-11
1.13059e-06
1.06752e-08
2.5513e-11
1.1274e-06
1.02336e-08
4.26498e-11
1.124e-06
9.96783e-09
7.11556e-11
1.1202e-06
9.81255e-09
1.18472e-10
1.11584e-06
9.79438e-09
1.97581e-10
1.11068e-06
9.96822e-09
3.35279e-10
1.10439e-06
1.03733e-08
5.62218e-10
1.09643e-06
1.11236e-08
9.51394e-10
1.08582e-06
1.24453e-08
1.61598e-09
1.07101e-06
1.46325e-08
2.7827e-09
1.04988e-06
1.76055e-08
4.8863e-09
2.50343e-08
8.72874e-09
1.41518e-06
4.19292e-09
1.8491e-13
1.42279e-06
1.11161e-08
5.22158e-13
1.43152e-06
1.5099e-08
8.97432e-13
1.4398e-06
1.66307e-08
1.58905e-12
1.44712e-06
1.72791e-08
2.83528e-12
1.45316e-06
1.7517e-08
4.81638e-12
1.45798e-06
1.7165e-08
7.84026e-12
1.46188e-06
1.64568e-08
1.27321e-11
1.46514e-06
1.55832e-08
2.10743e-11
1.468e-06
1.47262e-08
3.56481e-11
1.47062e-06
1.39535e-08
5.96439e-11
1.47302e-06
1.33268e-08
9.91333e-11
1.47514e-06
1.29445e-08
1.58357e-10
1.4769e-06
1.28137e-08
2.51486e-10
1.47827e-06
1.28937e-08
3.98915e-10
1.47916e-06
1.32869e-08
6.28275e-10
1.47948e-06
1.41207e-08
9.7281e-10
1.47927e-06
1.55106e-08
1.46789e-09
1.47851e-06
1.74009e-08
2.12958e-09
1.93577e-08
2.76161e-09
1.61424e-06
3.0929e-09
1.33979e-13
1.62332e-06
8.27418e-09
3.2747e-13
1.63533e-06
1.19575e-08
5.70517e-13
1.64819e-06
1.41153e-08
9.85316e-13
1.66117e-06