/*--------------------------------*- C++ -*----------------------------------*\
| =========                 |                                                 |
| \\      /  F ield         | OpenFOAM: The Open Source CFD Toolbox           |
|  \\    /   O peration     | Version:  2212                                  |
|   \\  /    A nd           | Website:  www.openfoam.com                      |
|    \\/     M anipulation  |                                                 |
\*---------------------------------------------------------------------------*/
FoamFile
{
    version     2.0;
    format      ascii;
    arch        "LSB;label=32;scalar=64";
    class       surfaceVectorField;
    location    "0.95";
    object      Uf;
}
// * * * * * * * * * * * * * * * * * * * * * * * * * * * * * * * * * * * * * //

dimensions      [0 1 -1 0 0 0 0];

internalField   nonuniform List<vector> 
19019
(
(0.0993441 -0.003419 -0.00341903)
(0.0973536 0.00106248 -0.00148428)
(0.0973536 -0.00148428 0.00106246)
(0.0834792 0.0019759 0.00197581)
(0.0930873 0.00326902 0.00253345)
(0.0930872 0.0025335 0.00326892)
(0.0745173 0.00195879 0.00195862)
(0.0848642 0.00163589 0.00179232)
(0.0848641 0.00179241 0.00163572)
(0.0685482 0.00115922 0.00115891)
(0.0786284 0.00107359 0.00122131)
(0.0786283 0.0012215 0.0010733)
(0.0642368 0.000697189 0.000696686)
(0.0740537 0.000785489 0.000865069)
(0.0740535 0.000865369 0.000784961)
(0.0607578 0.000495202 0.000494275)
(0.0704436 0.000650746 0.000669283)
(0.0704434 0.000669785 0.000649907)
(0.0579391 0.000375544 0.000373913)
(0.0674934 0.000547233 0.000508557)
(0.067493 0.000509516 0.000545634)
(0.0556167 0.000289163 0.000286503)
(0.0650537 0.000469664 0.000387586)
(0.065053 0.000389112 0.000466944)
(0.0536292 0.000228951 0.000224616)
(0.0629708 0.000416518 0.000308125)
(0.0629695 0.000310573 0.000411962)
(0.0518869 0.000186447 0.000179287)
(0.0611396 0.000374888 0.000255524)
(0.0611372 0.000259509 0.000367277)
(0.0503413 0.000156576 0.000144836)
(0.0595013 0.00033809 0.000220585)
(0.0594972 0.00022755 0.0003254)
(0.0489613 0.00013509 0.00011654)
(0.0580236 0.000305102 0.000196936)
(0.0580164 0.000208343 0.000284271)
(0.0477208 0.000119245 8.99957e-05)
(0.0566818 0.000277941 0.00018097)
(0.0566697 0.000196572 0.00024417)
(0.0465996 0.00010834 6.07016e-05)
(0.0554561 0.000258323 0.000168863)
(0.0554364 0.000191113 0.000202656)
(0.0456033 0.000102785 2.5021e-05)
(0.054346 0.000242989 0.00015505)
(0.0543137 0.000191916 0.000150827)
(0.0447509 0.00010209 -1.23621e-05)
(0.0533621 0.000232677 0.000137001)
(0.0533071 0.000199133 8.13057e-05)
(0.044081 9.26633e-05 -9.80911e-05)
(0.0525449 0.000225919 0.000115431)
(0.0524462 0.000206948 -1.31269e-05)
(0.0439802 4.44095e-05 -0.000269399)
(0.052076 0.000187371 -7.092e-06)
(0.0518905 0.00017129 -0.000222927)
(0.0451152 -0.0010211 -0.00158639)
(0.0525542 6.28001e-05 -0.000219496)
(0.0521737 3.0486e-05 -0.000631742)
(0.0509273 -0.00145091 -0.00182712)
(0.050978 -0.00227631 -0.00364355)
(0.0984572 0.00247645 0.00172989)
(0.0996871 0.000439228 0.00034548)
(0.100049 0.00105639 0.000750963)
(0.0958349 0.00314807 0.00243265)
(0.0978162 0.00273277 0.00228227)
(0.0982937 0.00280921 0.00216143)
(0.0914502 0.00223034 0.00186925)
(0.0954961 0.00300165 0.0023031)
(0.0963041 0.00244264 0.00199774)
(0.0875957 0.00167462 0.0015054)
(0.0926195 0.00229925 0.00183872)
(0.0936671 0.00198069 0.00172686)
(0.0841485 0.00144004 0.00127566)
(0.089768 0.00189169 0.00153563)
(0.0909052 0.00171966 0.00149773)
(0.0811892 0.00126542 0.00102882)
(0.0872333 0.00165604 0.00129476)
(0.0884354 0.00145451 0.00121176)
(0.0787036 0.00111024 0.000794175)
(0.0850086 0.00149127 0.0010774)
(0.0863065 0.0011835 0.000908756)
(0.0765606 0.000992181 0.000625691)
(0.0830641 0.00137023 0.000913819)
(0.0844834 0.000982949 0.000690962)
(0.0746576 0.000905222 0.000519172)
(0.08133 0.00127627 0.00080261)
(0.0828849 0.00084505 0.000549108)
(0.0729342 0.000831076 0.000454478)
(0.0797553 0.00119028 0.000728177)
(0.0814558 0.000744305 0.000456291)
(0.0713554 0.000759109 0.000415647)
(0.0783126 0.00110578 0.000682351)
(0.0801648 0.000661853 0.000392923)
(0.0699011 0.000689382 0.000392896)
(0.0769814 0.00102184 0.000655542)
(0.078987 0.000589929 0.000347237)
(0.068557 0.000627415 0.000381644)
(0.0757451 0.000937986 0.000641641)
(0.0779048 0.000529686 0.000315733)
(0.0673145 0.000571602 0.000376486)
(0.0745945 0.000854167 0.000636343)
(0.0769134 0.000482316 0.000292923)
(0.0661829 0.000514522 0.000370618)
(0.0735315 0.000764023 0.000634517)
(0.0760178 0.000437928 0.00026738)
(0.0651924 0.000441949 0.000346571)
(0.072572 0.000657902 0.000627313)
(0.0752299 0.000391484 0.000231781)
(0.0644408 0.000288897 0.000230444)
(0.0717675 0.000510185 0.000591853)
(0.0745895 0.000325776 0.000157356)
(0.0642655 -2.07139e-05 -3.52795e-05)
(0.0712515 0.000169779 0.000426132)
(0.0742019 0.0001527 -5.75132e-05)
(0.0654195 -0.000490558 -0.000347704)
(0.0713517 -0.000512909 9.26337e-05)
(0.0742849 -0.000303845 -0.000647314)
(0.0698495 -0.00233604 -0.00058103)
(0.0731521 -0.00160954 -0.00262061)
(0.0993753 0.00118211 0.00107255)
(0.099473 0.000349745 0.000307057)
(0.0997475 0.000610972 0.000779876)
(0.0984949 0.00229601 0.0020319)
(0.0990504 0.00157674 0.00172046)
(0.0995971 0.00201826 0.00200286)
(0.0971415 0.00247635 0.00204859)
(0.0983578 0.00213096 0.00216886)
(0.0992974 0.00246143 0.00210238)
(0.09544 0.00224673 0.00176736)
(0.0971936 0.00203551 0.0020024)
(0.0984886 0.00237431 0.00190255)
(0.0937516 0.00202001 0.00152247)
(0.0959057 0.00185515 0.0017544)
(0.0974229 0.00218059 0.00168866)
(0.0921395 0.00186335 0.00134472)
(0.0946727 0.00173189 0.0015428)
(0.0963106 0.00198422 0.00150833)
(0.0906038 0.00175209 0.00121532)
(0.0934834 0.00165122 0.00138678)
(0.0952062 0.00180066 0.00134283)
(0.0891551 0.00165286 0.0011145)
(0.0923707 0.00157419 0.00126612)
(0.0941508 0.00164297 0.00120402)
(0.0878102 0.00154586 0.00103341)
(0.091336 0.00147696 0.00117301)
(0.0931704 0.0015019 0.00109626)
(0.0865711 0.00143296 0.000973474)
(0.0903492 0.00136346 0.00110531)
(0.0922688 0.00137018 0.00101476)
(0.085423 0.00132164 0.000935582)
(0.0894229 0.00124719 0.00106084)
(0.0914466 0.00124963 0.000958869)
(0.0843509 0.00121345 0.000915538)
(0.0885497 0.00113044 0.00103512)
(0.0906958 0.00114071 0.000923524)
(0.0833439 0.0011032 0.000908231)
(0.087717 0.00101264 0.0010244)
(0.0900066 0.00103921 0.000902819)
(0.0824007 0.000982067 0.000908363)
(0.0869182 0.000888721 0.00102545)
(0.0893751 0.00093692 0.000890811)
(0.0815287 0.000836377 0.000906778)
(0.0861509 0.000747174 0.00103389)
(0.0888032 0.000824453 0.000883104)
(0.0807612 0.000645697 0.000890151)
(0.0854208 0.000560234 0.00104096)
(0.0883019 0.000686206 0.000867225)
(0.0801517 0.000327674 0.000823889)
(0.0847493 0.000298028 0.00103812)
(0.0878955 0.000497627 0.000822553)
(0.0797402 -0.000247365 0.000667153)
(0.0841574 -0.000124501 0.00100613)
(0.0876043 0.000167821 0.000705141)
(0.0795891 -0.00148865 0.000311052)
(0.0836487 -0.000833429 0.000936165)
(0.0874257 -0.000390259 0.000484564)
(0.0827823 -0.00211184 0.000783245)
(0.0870529 -0.00159101 4.09944e-05)
(0.0996493 0.000650234 0.000931415)
(0.0994625 0.000129349 0.000192485)
(0.0997993 0.000375099 0.000741362)
(0.0990855 0.00127873 0.0018277)
(0.0992625 0.00063676 0.00137061)
(0.0998409 0.00115027 0.00181422)
(0.0984494 0.00154042 0.00210306)
(0.0989129 0.000973174 0.00200357)
(0.0999048 0.00153626 0.00209014)
(0.0977079 0.0015463 0.00198897)
(0.0982951 0.00104962 0.0020507)
(0.0997676 0.0016313 0.00202301)
(0.0969399 0.00147914 0.00177624)
(0.0976575 0.00100677 0.00189978)
(0.0995099 0.00160893 0.00189575)
(0.0962085 0.00142563 0.00158242)
(0.0970648 0.000958812 0.00169861)
(0.0992002 0.00154648 0.0017519)
(0.0955233 0.00139002 0.00143565)
(0.0965056 0.000931037 0.00152126)
(0.0988558 0.00147279 0.00162629)
(0.094874 0.00134854 0.0013297)
(0.0959924 0.000913035 0.00138011)
(0.0985125 0.00138988 0.00151587)
(0.0942399 0.00128507 0.00125977)
(0.0955233 0.000896057 0.00128012)
(0.09818 0.00129452 0.00142106)
(0.0936138 0.00119654 0.00121496)
(0.0950673 0.000858788 0.00121966)
(0.0978347 0.00118616 0.00134563)
(0.0929985 0.00109075 0.00118704)
(0.0946096 0.000793604 0.00118891)
(0.0974994 0.00107349 0.00129405)
(0.092392 0.000975354 0.00117381)
(0.0941487 0.000713706 0.00117891)
(0.0971767 0.000961079 0.00126204)
(0.0917897 0.000851999 0.00117405)
(0.0936778 0.000626074 0.00118313)
(0.0968623 0.000848294 0.00124607)
(0.091186 0.000715058 0.00118614)
(0.0931845 0.000527934 0.00120141)
(0.096553 0.000729919 0.00124546)
(0.090573 0.000543157 0.00120762)
(0.0926588 0.000413244 0.00123736)
(0.0962464 0.000595159 0.00125921)
(0.0899458 0.000304342 0.00123663)
(0.092085 0.000253361 0.00129409)
(0.0959385 0.000421929 0.00128621)
(0.089299 -4.38933e-05 0.00127945)
(0.0914433 2.07333e-05 0.00138109)
(0.0956253 0.000185952 0.0013269)
(0.0885949 -0.000575858 0.0013532)
(0.0906902 -0.000326039 0.00151455)
(0.0952955 -0.000151406 0.00139125)
(0.0877568 -0.00140625 0.00148924)
(0.0897597 -0.000862777 0.00168833)
(0.0949075 -0.000644407 0.00150183)
(0.0887359 -0.00164885 0.00202758)
(0.0944749 -0.00134042 0.00172029)
(0.0996725 0.000153999 0.000629463)
(0.0993801 -1.5474e-08 5.89411e-05)
(0.0997132 0.000103896 0.000687945)
(0.0991591 0.000353163 0.00154425)
(0.0992677 -6.9748e-08 0.00120002)
(0.0998376 0.000341533 0.00162228)
(0.0986636 0.000457509 0.0019475)
(0.0989804 -1.50738e-07 0.0018885)
(0.099963 0.000485263 0.00199139)
(0.0982122 0.000480436 0.00196065)
(0.0984745 -2.6228e-07 0.00200654)
(0.0999918 0.000539269 0.00199667)
(0.0977762 0.000470921 0.00182485)
(0.0979953 -4.3987e-07 0.00191483)
(0.100009 0.000545771 0.00191116)
(0.0973623 0.000456958 0.00164127)
(0.0975702 -7.4689e-07 0.00173501)
(0.100007 0.000532404 0.00180452)
(0.0969938 0.000443735 0.0014684)
(0.0971796 -1.27637e-06 0.00154776)
(0.0999809 0.000509624 0.00168328)
(0.0966724 0.000432686 0.0013302)
(0.0968284 -2.14443e-06 0.00138942)
(0.0999384 0.000481949 0.00157329)
(0.0963903 0.000421108 0.00123645)
(0.0965257 -3.59703e-06 0.00127165)
(0.0998973 0.000455949 0.0014827)
(0.0961214 0.000400977 0.00118904)
(0.0962667 -6.00647e-06 0.00120246)
(0.099863 0.000428488 0.00142093)
(0.0958371 0.000367883 0.00117714)
(0.0959845 -1.00135e-05 0.00117768)
(0.0998062 0.000392509 0.00138405)
(0.0955231 0.000322697 0.00118577)
(0.0956775 -1.66639e-05 0.00118007)
(0.099732 0.000347956 0.00136221)
(0.0951682 0.000265727 0.00120909)
(0.0953391 -2.77815e-05 0.00119765)
(0.0996368 0.000296587 0.00135761)
(0.0947585 0.00019682 0.00125268)
(0.0949484 -4.71318e-05 0.00123262)
(0.0995064 0.000235994 0.00137599)
(0.0942772 0.000105388 0.00132634)
(0.0944882 -7.9022e-05 0.00129595)
(0.0993343 0.000164004 0.00142123)
(0.0936915 -3.25151e-05 0.00144501)
(0.0939276 -0.000133714 0.00139821)
(0.0991081 6.6442e-05 0.00150285)
(0.0929501 -0.000248587 0.0016278)
(0.0932204 -0.00022711 0.00156617)
(0.0988027 -7.59008e-05 0.00164203)
(0.0919859 -0.000603589 0.00186476)
(0.0922649 -0.000391075 0.00182704)
(0.0983763 -0.000288157 0.0018597)
(0.0907364 -0.00116418 0.00223947)
(0.0909682 -0.000686706 0.00213397)
(0.0977922 -0.000619352 0.00213637)
(0.0895394 -0.00122669 0.00291784)
(0.0973156 -0.00108178 0.00257737)
(0.0996725 -0.00015408 0.000629498)
(0.0994625 -0.000129378 0.000192507)
(0.0997132 -0.000103929 0.000687948)
(0.099159 -0.000353371 0.00154427)
(0.0992625 -0.000636867 0.00137063)
(0.0998376 -0.000341665 0.0016223)
(0.0986635 -0.00045789 0.00194753)
(0.0989128 -0.000973377 0.00200361)
(0.0999629 -0.000485517 0.0019914)
(0.098212 -0.000481086 0.00196072)
(0.0982948 -0.00104996 0.00205077)
(0.0999917 -0.000539707 0.0019967)
(0.0977757 -0.000472029 0.00182499)
(0.0976569 -0.00100738 0.00189991)
(0.100009 -0.000546528 0.00191127)
(0.0973614 -0.000458862 0.0016415)
(0.0970636 -0.000959889 0.00169883)
(0.100007 -0.0005337 0.00180474)
(0.0969922 -0.000446965 0.00146878)
(0.0965036 -0.000932901 0.00152157)
(0.0999798 -0.000511797 0.00168361)
(0.0966697 -0.000438106 0.00133087)
(0.095989 -0.000916163 0.00138065)
(0.0999365 -0.000485555 0.00157384)
(0.0963857 -0.000430155 0.00123765)
(0.0955174 -0.000901321 0.00128117)
(0.0998941 -0.000461978 0.00148363)
(0.0961134 -0.000416019 0.0011911)
(0.0950574 -0.000867395 0.00122173)
(0.0998577 -0.000438602 0.00142249)
(0.0958236 -0.000392813 0.00118061)
(0.0945928 -0.000807604 0.00119261)
(0.0997974 -0.000409345 0.00138655)
(0.0954999 -0.000364031 0.00119195)
(0.0941203 -0.000736415 0.00118563)
(0.0997174 -0.000375779 0.00136647)
(0.0951281 -0.000335144 0.00122118)
(0.0936295 -0.00066349 0.00119486)
(0.0996114 -0.000342014 0.00136578)
(0.0946879 -0.000312767 0.00127589)
(0.0931015 -0.000590493 0.00122274)
(0.0994628 -0.000311106 0.00139209)
(0.0941522 -0.000298497 0.00136782)
(0.0925166 -0.000514706 0.00127649)
(0.0992616 -0.000286484 0.00145075)
(0.0934731 -0.000291573 0.00151936)
(0.0918416 -0.000426947 0.00136629)
(0.098986 -0.000266688 0.00155796)
(0.0925689 -0.000302691 0.00176541)
(0.0910253 -0.000316038 0.00151771)
(0.0986008 -0.000252203 0.00174566)
(0.0913058 -0.000344599 0.00209625)
(0.0899508 -0.000165577 0.00176484)
(0.0980352 -0.000253336 0.0020549)
(0.0895043 -0.000393776 0.00281234)
(0.0885165 4.75072e-05 0.00207874)
(0.097236 -0.00027479 0.00247413)
(0.0869952 0.000245996 0.00328812)
(0.0964306 -0.000292159 0.00352355)
(0.0996493 -0.000650266 0.000931421)
(0.099473 -0.000349742 0.00030706)
(0.0997993 -0.000375107 0.000741363)
(0.0990854 -0.00127881 0.00182774)
(0.0990504 -0.00157673 0.00172048)
(0.0998409 -0.0011503 0.00181423)
(0.0984491 -0.00154057 0.00210315)
(0.0983577 -0.00213094 0.00216896)
(0.0999047 -0.00153634 0.0020902)
(0.0977073 -0.0015466 0.00198911)
(0.0971932 -0.0020355 0.00200256)
(0.0997672 -0.00163145 0.00202317)
(0.0969387 -0.0014797 0.00177644)
(0.0959049 -0.00185519 0.00175462)
(0.0995091 -0.00160921 0.00189605)
(0.0962063 -0.00142661 0.0015827)
(0.0946712 -0.001732 0.00154314)
(0.0991988 -0.00154698 0.00175235)
(0.0955196 -0.00139162 0.00143609)
(0.0934807 -0.00165145 0.00138729)
(0.0988533 -0.00147365 0.00162695)
(0.0948678 -0.00135118 0.00133056)
(0.0923662 -0.0015745 0.00126699)
(0.0985083 -0.00139127 0.00151695)
(0.0942293 -0.00128932 0.00126159)
(0.0913282 -0.00147741 0.00117452)
(0.0981731 -0.00129679 0.00142284)
(0.0935958 -0.00120319 0.00121851)
(0.0903361 -0.00136406 0.00110807)
(0.0978231 -0.00118986 0.00134872)
(0.0929682 -0.00110108 0.00119368)
(0.0894009 -0.00124792 0.00106556)
(0.0974801 -0.0010793 0.00129943)
(0.092341 -0.00099186 0.00118558)
(0.0885128 -0.00113122 0.00104363)
(0.0971441 -0.000970208 0.00127173)
(0.0917036 -0.000878887 0.00119423)
(0.0876554 -0.00101366 0.00103899)
(0.0968074 -0.000862377 0.0012634)
(0.0910399 -0.000757492 0.00122214)
(0.0868148 -0.000890225 0.00105044)
(0.0964616 -0.000752256 0.00127652)
(0.0903253 -0.000616191 0.00127535)
(0.0859775 -0.000748025 0.00107864)
(0.0960951 -0.000630744 0.00131545)
(0.0895224 -0.000434323 0.00136724)
(0.085128 -0.000566765 0.00112631)
(0.0956897 -0.000487137 0.0013908)
(0.0885671 -0.000171444 0.00152246)
(0.0842447 -0.000311524 0.0012005)
(0.0952156 -0.000299617 0.00152421)
(0.0873444 0.000222087 0.00175532)
(0.0832665 9.23687e-05 0.00131967)
(0.0946087 -2.99986e-05 0.00174554)
(0.0856956 0.000664609 0.00256066)
(0.0821266 0.000746243 0.00150575)
(0.093823 0.000354432 0.00206218)
(0.0808676 0.00166671 0.00212971)
(0.093242 0.000715501 0.00302168)
(0.0993753 -0.00118207 0.00107258)
(0.0996871 -0.000439208 0.000345484)
(0.0997475 -0.000610954 0.00077989)
(0.0984948 -0.00229592 0.00203198)
(0.0978161 -0.00273268 0.00228231)
(0.0995971 -0.0020182 0.00200293)
(0.0971412 -0.0024762 0.00204874)
(0.095496 -0.00300151 0.0023032)
(0.0992972 -0.00246131 0.00210254)
(0.0954394 -0.0022465 0.0017676)
(0.0926192 -0.00229901 0.00183891)
(0.0984883 -0.0023741 0.00190284)
(0.0937505 -0.00201964 0.00152281)
(0.0897674 -0.00189125 0.0015359)
(0.0974222 -0.00218025 0.00168908)
(0.0921375 -0.00186277 0.00134526)
(0.0872323 -0.00165531 0.0012952)
(0.0963094 -0.00198365 0.00150894)
(0.0906003 -0.00175117 0.00121623)
(0.0850068 -0.00149002 0.00107815)
(0.0952041 -0.00179978 0.00134381)
(0.0891492 -0.00165133 0.001116)
(0.083061 -0.00136815 0.000915054)
(0.0941472 -0.00164157 0.00120569)
(0.0878003 -0.00154328 0.00103588)
(0.0813247 -0.00127279 0.000804645)
(0.0931643 -0.00149953 0.00109901)
(0.0865546 -0.00142863 0.000977463)
(0.0797464 -0.00118442 0.000731559)
(0.0922587 -0.00136616 0.00101934)
(0.0853955 -0.00131445 0.000942301)
(0.0782976 -0.00109584 0.000688293)
(0.0914297 -0.00124306 0.000966542)
(0.0843053 -0.00120181 0.000927205)
(0.0769557 -0.00100559 0.000665686)
(0.0906676 -0.00112984 0.000936659)
(0.0832686 -0.00108469 0.000928385)
(0.0757025 -0.000912553 0.000656197)
(0.0899608 -0.00102117 0.000925108)
(0.0822757 -0.000952842 0.000943725)
(0.0745243 -0.000813534 0.000658009)
(0.0893012 -0.000907953 0.000928539)
(0.08132 -0.000792069 0.000972739)
(0.0734156 -0.000697528 0.0006719)
(0.088684 -0.000779664 0.000948706)
(0.0804032 -0.000577398 0.00101487)
(0.0723756 -0.000551123 0.000697818)
(0.0881084 -0.000620188 0.000986215)
(0.0795274 -0.000228905 0.00106934)
(0.0714218 -0.000335534 0.000726597)
(0.087577 -0.000401045 0.00104262)
(0.0786449 0.000382014 0.00115997)
(0.0706232 8.91706e-05 0.000696215)
(0.087078 -4.11459e-05 0.00112533)
(0.0776019 0.00154352 0.00119292)
(0.0701685 0.000935666 0.000572623)
(0.0865838 0.000539826 0.00128563)
(0.0690718 0.00345826 -0.00069702)
(0.086011 0.00157196 0.00139064)
(0.0984572 -0.00247639 0.00172991)
(0.0973536 -0.00106246 -0.00148428)
(0.100049 -0.00105637 0.00075098)
(0.0958349 -0.00314794 0.00243272)
(0.0930872 -0.00326893 0.0025335)
(0.0982937 -0.00280913 0.00216152)
(0.0914501 -0.00223012 0.0018694)
(0.0848641 -0.00163572 0.00179241)
(0.0963041 -0.00244247 0.0019979)
(0.0875954 -0.00167421 0.00150563)
(0.0786283 -0.00107331 0.0012215)
(0.093667 -0.00198039 0.00172715)
(0.0841481 -0.00143934 0.00127604)
(0.0740535 -0.000784967 0.000865363)
(0.090905 -0.00171914 0.00149818)
(0.0811884 -0.0012642 0.00102949)
(0.0704434 -0.000649914 0.000669777)
(0.0884351 -0.00145365 0.00121257)
(0.0787021 -0.00110807 0.000795279)
(0.067493 -0.000545645 0.000509506)
(0.0863059 -0.00118201 0.000910105)
(0.076558 -0.000988477 0.000627472)
(0.065053 -0.000466957 0.000389101)
(0.0844823 -0.000980408 0.000693181)
(0.0746531 -0.00089894 0.000522109)
(0.0629694 -0.000411977 0.000310561)
(0.082883 -0.000840737 0.000552825)
(0.0729264 -0.000820454 0.000459746)
(0.0611372 -0.000367293 0.000259495)
(0.0814526 -0.000736998 0.000462585)
(0.0713418 -0.000741444 0.000424843)
(0.0594972 -0.000325418 0.000227535)
(0.0801591 -0.000649294 0.0004042)
(0.0698776 -0.000660598 0.000405603)
(0.0580164 -0.000284289 0.000208325)
(0.078977 -0.000569504 0.000365892)
(0.0685182 -0.00058018 0.000397141)
(0.0566697 -0.000244186 0.000196552)
(0.077888 -0.000498161 0.0003426)
(0.0672516 -0.00049308 0.000399223)
(0.0554364 -0.000202673 0.000191093)
(0.0768861 -0.000431979 0.000333316)
(0.0660782 -0.000383698 0.000410944)
(0.0543137 -0.000150845 0.000191899)
(0.0759729 -0.000355077 0.000334608)
(0.0650099 -0.000222346 0.000423365)
(0.0533071 -8.13221e-05 0.00019912)
(0.0751534 -0.000256094 0.000346116)
(0.0641115 6.52368e-05 0.000381648)
(0.0524462 1.31115e-05 0.000206942)
(0.0744523 -0.000101469 0.000360669)
(0.063625 0.000631934 0.000203927)
(0.0518905 0.000222914 0.0001713)
(0.0739441 0.000199991 0.000293757)
(0.0641944 0.00241449 -0.000955373)
(0.0521736 0.00063175 3.05129e-05)
(0.073756 0.000871457 -5.73247e-05)
(0.0509778 0.00364362 -0.00227624)
(0.0732223 0.0031931 -0.00211473)
(0.0993441 0.00341903 -0.003419)
(0.0973536 0.00148428 0.00106248)
(0.0834792 -0.00197582 0.0019759)
(0.0930872 -0.00253346 0.00326902)
(0.0745173 -0.00195862 0.00195879)
(0.0848642 -0.00179232 0.00163589)
(0.0685482 -0.00115891 0.00115921)
(0.0786284 -0.00122131 0.00107359)
(0.0642368 -0.000696693 0.000697183)
(0.0740537 -0.000865075 0.000785485)
(0.0607578 -0.000494286 0.000495193)
(0.0704436 -0.000669291 0.00065074)
(0.0579391 -0.000373927 0.000375532)
(0.0674934 -0.000508567 0.000547224)
(0.0556167 -0.000286518 0.000289149)
(0.0650537 -0.000387597 0.000469652)
(0.0536292 -0.000224633 0.000228936)
(0.0629708 -0.000308136 0.000416504)
(0.0518869 -0.000179305 0.00018643)
(0.0611396 -0.000255537 0.000374872)
(0.0503413 -0.000144856 0.000156558)
(0.0595013 -0.000220601 0.000338071)
(0.0489613 -0.000116561 0.000135071)
(0.0580236 -0.000196954 0.000305082)
(0.0477208 -9.00187e-05 0.000119225)
(0.0566818 -0.000180989 0.000277919)
(0.0465996 -6.07287e-05 0.000108323)
(0.0554561 -0.000168885 0.0002583)
(0.0456033 -2.50488e-05 0.000102772)
(0.054346 -0.000155077 0.000242966)
(0.0447509 1.23334e-05 0.00010208)
(0.0533621 -0.00013703 0.000232659)
(0.0440809 9.806e-05 9.2658e-05)
(0.0525449 -0.00011547 0.000225909)
(0.0439802 0.000269375 4.44103e-05)
(0.052076 7.04419e-06 0.000187372)
(0.0451151 0.00158636 -0.00102106)
(0.0525541 0.000219452 6.2808e-05)
(0.0509272 0.00182699 -0.00145083)
(0.0984572 0.00172992 0.00247639)
(0.100049 0.00075098 0.00105637)
(0.0996871 0.000345484 0.000439209)
(0.0958349 0.00243273 0.00314793)
(0.0982937 0.00216152 0.00280913)
(0.0978161 0.00228232 0.00273268)
(0.0914501 0.0018694 0.00223011)
(0.0963041 0.0019979 0.00244247)
(0.095496 0.00230321 0.0030015)
(0.0875954 0.00150564 0.0016742)
(0.093667 0.00172715 0.00198038)
(0.0926192 0.00183892 0.002299)
(0.0841481 0.00127605 0.00143933)
(0.090905 0.00149819 0.00171913)
(0.0897674 0.00153591 0.00189124)
(0.0811884 0.0010295 0.00126419)
(0.0884351 0.00121257 0.00145364)
(0.0872323 0.00129521 0.00165531)
(0.0787021 0.000795284 0.00110806)
(0.0863059 0.000910111 0.001182)
(0.0850068 0.00107816 0.00149001)
(0.076558 0.000627478 0.00098846)
(0.0844823 0.000693188 0.000980394)
(0.083061 0.000915062 0.00136814)
(0.0746531 0.000522115 0.00089892)
(0.082883 0.000552833 0.000840721)
(0.0813247 0.000804654 0.00127278)
(0.0729264 0.000459754 0.000820431)
(0.0814526 0.000462594 0.000736981)
(0.0797464 0.00073157 0.00118441)
(0.0713418 0.000424852 0.000741419)
(0.0801591 0.00040421 0.000649273)
(0.0782976 0.000688305 0.00109583)
(0.0698776 0.000405611 0.000660572)
(0.078977 0.000365902 0.000569481)
(0.0769557 0.000665699 0.00100558)
(0.0685182 0.000397148 0.000580152)
(0.077888 0.00034261 0.000498137)
(0.0757024 0.000656209 0.000912545)
(0.0672516 0.000399227 0.000493049)
(0.0768861 0.000333322 0.000431952)
(0.0745243 0.000658021 0.000813529)
(0.0660781 0.000410941 0.000383663)
(0.0759729 0.000334608 0.000355043)
(0.0734156 0.000671907 0.000697525)
(0.0650099 0.00042335 0.000222309)
(0.0751534 0.000346109 0.000256054)
(0.0723756 0.000697814 0.000551119)
(0.0641115 0.000381607 -6.52774e-05)
(0.0744523 0.000360643 0.000101419)
(0.0714218 0.000726573 0.000335536)
(0.0636251 0.000203837 -0.000631982)
(0.0739442 0.000293684 -0.000200061)
(0.0706233 0.000696146 -8.91726e-05)
(0.0641947 -0.000955546 -0.00241454)
(0.0737561 -5.74652e-05 -0.000871559)
(0.0701687 0.00057247 -0.000935679)
(0.0732226 -0.002115 -0.00319325)
(0.0690721 -0.000697272 -0.0034583)
(0.10008 0.00135177 0.00135172)
(0.100186 0.000798761 0.000804934)
(0.100186 0.000804959 0.000798735)
(0.100264 0.00221731 0.00221716)
(0.10019 0.00231184 0.0020714)
(0.10019 0.00207149 0.00231175)
(0.099383 0.00243578 0.0024355)
(0.100307 0.00263369 0.00245293)
(0.100307 0.00245315 0.00263351)
(0.0979844 0.00231032 0.00230987)
(0.0998053 0.00256038 0.00245571)
(0.0998051 0.00245608 0.00256006)
(0.0964955 0.00200644 0.00200568)
(0.0988632 0.00236446 0.00228063)
(0.098863 0.0022812 0.00236395)
(0.0950736 0.00159754 0.00159627)
(0.0978415 0.00204924 0.00196773)
(0.0978411 0.00196863 0.00204835)
(0.093777 0.00122716 0.00122508)
(0.0968626 0.00169155 0.00160415)
(0.0968619 0.00160557 0.00169013)
(0.0926207 0.000963427 0.000959925)
(0.0959616 0.00140498 0.00132061)
(0.0959604 0.00132301 0.00140266)
(0.0915992 0.000780143 0.000774202)
(0.0951516 0.00119222 0.00111715)
(0.0951497 0.0011212 0.00118826)
(0.0906971 0.000649615 0.0006393)
(0.094432 0.00103292 0.000969542)
(0.0944286 0.000976371 0.0010262)
(0.0898949 0.000553749 0.000536566)
(0.0937985 0.000910734 0.000860114)
(0.0937929 0.000871907 0.000899407)
(0.0891737 0.000483238 0.000456912)
(0.0932382 0.000814911 0.000778245)
(0.0932289 0.00079748 0.000796546)
(0.088525 0.000432197 0.000392183)
(0.0927399 0.000737483 0.000715906)
(0.0927253 0.000745645 0.000708756)
(0.0879531 0.000391934 0.000327995)
(0.0923055 0.000670412 0.000662655)
(0.0922833 0.00070968 0.000625027)
(0.0874663 0.000354731 0.000251268)
(0.0919401 0.000603658 0.000606638)
(0.0919068 0.000683794 0.000531646)
(0.0870812 0.000313959 0.000144632)
(0.0916504 0.000528533 0.000538006)
(0.0916019 0.000664532 0.00041685)
(0.0868175 0.000235399 -3.92286e-05)
(0.0914457 0.000425196 0.000430854)
(0.0913796 0.000644854 0.00025367)
(0.0866062 -4.32463e-06 -0.000421299)
(0.0913118 0.000247703 0.000237858)
(0.0912342 0.000591779 -5.87947e-06)
(0.0861033 -0.000725101 -0.00132897)
(0.09111 -8.54126e-05 -0.000135341)
(0.0910622 0.000416924 -0.000404564)
(0.0911936 -0.000648824 -0.000879503)
(0.0911747 -0.000102708 -0.000964966)
(0.100171 0.00136867 0.00141637)
(0.100118 0.000577398 0.000811291)
(0.100102 0.000699763 0.000700658)
(0.100759 0.00219487 0.00214894)
(0.100478 0.00158282 0.00185871)
(0.100477 0.00182253 0.00186455)
(0.100996 0.0024769 0.00238772)
(0.101004 0.00205868 0.0022424)
(0.101024 0.00234676 0.00238274)
(0.100838 0.00247621 0.00238881)
(0.101293 0.00220336 0.00235188)
(0.101338 0.00250595 0.00254338)
(0.100458 0.00231155 0.00222443)
(0.101309 0.00216718 0.00232183)
(0.101409 0.0024506 0.00247188)
(0.0999684 0.0020565 0.00196767)
(0.101157 0.00201051 0.00217842)
(0.101302 0.00226473 0.00226991)
(0.0994449 0.00179016 0.0016991)
(0.100927 0.00179308 0.00196802)
(0.101099 0.00200915 0.0019978)
(0.0989361 0.0015624 0.00148223)
(0.100666 0.00158223 0.00176508)
(0.100856 0.00177009 0.00175646)
(0.0984689 0.00137631 0.00131935)
(0.100411 0.00139294 0.00158947)
(0.100609 0.0015687 0.00156186)
(0.0980551 0.00122227 0.00119776)
(0.100176 0.00122498 0.0014444)
(0.100383 0.00140146 0.00140676)
(0.0976956 0.00109363 0.001109)
(0.0999719 0.00108142 0.00133851)
(0.10019 0.00126272 0.00128405)
(0.0973885 0.000983998 0.00104434)
(0.0998001 0.000958624 0.00126411)
(0.100034 0.00114738 0.00118726)
(0.0971331 0.000885087 0.000993911)
(0.0996597 0.000849085 0.00121194)
(0.099916 0.00104975 0.00110865)
(0.0969307 0.000787444 0.000950307)
(0.0995509 0.000742886 0.00117461)
(0.0998381 0.000962294 0.0010396)
(0.0967843 0.000679752 0.000905231)
(0.0994759 0.00062796 0.00114797)
(0.0998028 0.000877343 0.000973197)
(0.0966963 0.000543252 0.000841463)
(0.0994368 0.000492974 0.00112498)
(0.0998116 0.000784589 0.000898268)
(0.0966643 0.000351031 0.000736019)
(0.099432 0.000317622 0.00109373)
(0.0998629 0.000667117 0.000797749)
(0.0966418 6.39473e-05 0.000563148)
(0.0994489 7.71832e-05 0.00104395)
(0.0999415 0.000502619 0.000653)
(0.0965181 -0.00037337 0.000319643)
(0.0994379 -0.000257216 0.000968687)
(0.0999977 0.000257805 0.000450221)
(0.0995747 -0.00070676 0.000905916)
(0.100221 -7.72705e-05 0.000274614)
(0.100242 0.000820128 0.00125611)
(0.10009 0.000294307 0.000735343)
(0.100071 0.000415655 0.000602752)
(0.100828 0.00139047 0.00193928)
(0.100491 0.000791902 0.00168399)
(0.100493 0.00112436 0.00158692)
(0.101392 0.0016633 0.00218211)
(0.101086 0.00107757 0.00208333)
(0.101128 0.00154072 0.00209396)
(0.101816 0.00176081 0.00226094)
(0.101664 0.00120407 0.00217889)
(0.101768 0.00173252 0.00229395)
(0.102081 0.00175478 0.00226173)
(0.102121 0.00123927 0.00222186)
(0.102291 0.00178956 0.00236686)
(0.102215 0.00166714 0.00217641)
(0.102451 0.00120114 0.00221003)
(0.102712 0.0017433 0.00232137)
(0.102266 0.00153186 0.00204116)
(0.10268 0.00111712 0.00212628)
(0.103037 0.00162526 0.00220131)
(0.102277 0.00137883 0.001885)
(0.102841 0.00101523 0.00200551)
(0.103287 0.00147786 0.00204848)
(0.102275 0.00122447 0.00173032)
(0.102966 0.000913091 0.00187052)
(0.103493 0.00132488 0.00188886)
(0.102271 0.0010818 0.00160328)
(0.103068 0.000815883 0.00174504)
(0.103671 0.00118031 0.00174403)
(0.102272 0.000956201 0.00151389)
(0.103161 0.000725228 0.0016452)
(0.103834 0.00105236 0.00163013)
(0.10228 0.00084275 0.00145387)
(0.103253 0.000640148 0.00157008)
(0.103991 0.000940017 0.00154315)
(0.102298 0.000732756 0.00141668)
(0.103343 0.000557561 0.00152424)
(0.104149 0.000837283 0.00147839)
(0.102327 0.000614863 0.00139857)
(0.103427 0.000470816 0.00150677)
(0.10431 0.000736899 0.00143189)
(0.102367 0.000477724 0.00139703)
(0.103508 0.000370248 0.00151093)
(0.104479 0.000630099 0.00140007)
(0.102419 0.000307686 0.00141085)
(0.103585 0.000247051 0.00154034)
(0.104658 0.000509028 0.00138035)
(0.102474 8.54516e-05 0.0014416)
(0.103651 8.57135e-05 0.00160341)
(0.104845 0.000361169 0.00137205)
(0.102522 -0.000204714 0.00149894)
(0.103699 -0.00012701 0.0017097)
(0.105037 0.000173087 0.00137798)
(0.102546 -0.000543794 0.00162073)
(0.10372 -0.000409638 0.00186245)
(0.105229 -6.15238e-05 0.00140679)
(0.10391 -0.000727261 0.00208025)
(0.105528 -0.000312911 0.00150544)
(0.100243 0.000267368 0.00116239)
(0.100087 -2.43207e-08 0.000707015)
(0.100064 0.000135791 0.000537318)
(0.100782 0.000465652 0.00182621)
(0.100477 -6.89382e-08 0.00161778)
(0.100463 0.000370837 0.00142411)
(0.101401 0.000575373 0.00207616)
(0.101066 -1.19258e-07 0.00203465)
(0.101089 0.000525081 0.00193354)
(0.101987 0.000622637 0.00213406)
(0.101694 -2.10326e-07 0.0021177)
(0.101797 0.000605732 0.00212859)
(0.102507 0.000630646 0.00216543)
(0.102269 -3.73232e-07 0.00215053)
(0.102489 0.000639053 0.00221109)
(0.102934 0.000609529 0.00215779)
(0.102741 -6.31507e-07 0.00218057)
(0.103119 0.00063374 0.00224191)
(0.103277 0.000569956 0.0020907)
(0.103123 -1.02504e-06 0.00213542)
(0.103686 0.000600203 0.00219742)
(0.103553 0.000523147 0.00199246)
(0.103426 -1.66121e-06 0.00204662)
(0.104184 0.000553673 0.00210721)
(0.103786 0.000476707 0.00188737)
(0.103677 -2.74574e-06 0.00193931)
(0.10462 0.000504819 0.00199551)