/*--------------------------------*- C++ -*----------------------------------*\
| =========                 |                                                 |
| \\      /  F ield         | OpenFOAM: The Open Source CFD Toolbox           |
|  \\    /   O peration     | Version:  2212                                  |
|   \\  /    A nd           | Website:  www.openfoam.com                      |
|    \\/     M anipulation  |                                                 |
\*---------------------------------------------------------------------------*/
FoamFile
{
    version     2.0;
    format      ascii;
    arch        "LSB;label=32;scalar=64";
    class       volScalarField;
    location    "0.4";
    object      epsilon;
}
// * * * * * * * * * * * * * * * * * * * * * * * * * * * * * * * * * * * * * //

dimensions      [0 2 -3 0 0 0 0];

internalField   nonuniform List<scalar> 
682
(
0.0675677
0.0674692
0.0674242
0.0674198
0.0674428
0.0674842
0.067537
0.067595
0.0676525
0.0677036
0.0677413
0.0692461
0.0691571
0.0691195
0.0691206
0.0691477
0.0691924
0.0692478
0.0693077
0.069367
0.0694201
0.0694604
0.0743389
0.0742827
0.0742715
0.0742911
0.0743327
0.0743888
0.0744531
0.0745201
0.074585
0.0746433
0.0746899
0.0857201
0.0856618
0.0856429
0.0856567
0.0856966
0.0857555
0.0858266
0.0859037
0.0859814
0.0860555
0.0861219
0.0861766
0.114198
0.114223
0.11427
0.114338
0.114422
0.114519
0.114623
0.114729
0.114831
0.114927
0.115012
0.115083
0.232975
0.23299
0.23305
0.233139
0.233251
0.233379
0.233514
0.233649
0.23378
0.233902
0.234012
0.234109
0.036375
0.0361975
0.0360821
0.0360074
0.0359348
0.0359166
0.035911
0.0359182
0.0359381
0.035978
0.0360697
0.0369695
0.036792
0.0366883
0.0366162
0.0365562
0.0365411
0.0365381
0.0365462
0.0365667
0.0366044
0.0366854
0.038679
0.0385645
0.0384561
0.0383994
0.0383697
0.0383665
0.0383726
0.0383887
0.0384138
0.0384495
0.0385071
0.0428504
0.042823
0.0427873
0.042759
0.0427447
0.0427431
0.0427538
0.0427748
0.0428024
0.0428344
0.0428708
0.0429146
0.0557364
0.0557054
0.0556874
0.0556838
0.0556972
0.0557237
0.0557589
0.0557999
0.0558438
0.0558884
0.0559325
0.0559749
0.114431
0.114421
0.114447
0.114503
0.114581
0.114673
0.114774
0.114877
0.114977
0.115071
0.115154
0.115224
0.0340649
0.0338318
0.0336422
0.033493
0.033381
0.0333009
0.0332496
0.0332251
0.0332332
0.0332883
0.0334441
0.0341325
0.0338964
0.0337119
0.033571
0.0334671
0.0333953
0.0333519
0.033322
0.0333366
0.0333853
0.0335166
0.0344742
0.034268
0.0341133
0.0340019
0.0339224
0.0338737
0.0338369
0.0338359
0.0338498
0.0338898
0.0339858
0.0360479
0.0358901
0.0357711
0.0356841
0.0356241
0.0355879
0.0355676
0.0355666
0.0355737
0.035592
0.0356245
0.0356794
0.0427494
0.0426468
0.0425835
0.0425422
0.0425299
0.0425299
0.0425422
0.042564
0.0425921
0.0426247
0.0426616
0.042707
0.0852633
0.0851866
0.0851599
0.0851708
0.085209
0.0852658
0.0853341
0.0854081
0.0854829
0.0855546
0.0856191
0.0856721
0.0347273
0.0344194
0.0341664
0.0339629
0.0338043
0.0336867
0.0336081
0.0335712
0.0335834
0.0336172
0.0337432
0.0344801
0.0341782
0.0339382
0.033749
0.0336035
0.0334957
0.0334249
0.0333922
0.0333983
0.0334271
0.0335302
0.0340935
0.0338206
0.0336096
0.0334492
0.0333304
0.0332417
0.0332045
0.0331864
0.0331907
0.0332246
0.0333034
0.0345283
0.0342696
0.0340755
0.0339303
0.0338254
0.0337563
0.0336982
0.0336718
0.0336718
0.0336859
0.0337266
0.0338292
0.0385216
0.0383228
0.038231
0.0381453
0.0380924
0.0380748
0.038071
0.03808
0.0380985
0.0381253
0.0381624
0.0382226
0.07413
0.0740054
0.0739464
0.0739313
0.0739482
0.0739876
0.0740417
0.0741043
0.0741701
0.0742344
0.0742924
0.074339
0.0352861
0.0349235
0.0346283
0.0343916
0.0342066
0.0340683
0.0339743
0.0339292
0.0339352
0.033966
0.034088
0.0344962
0.0341621
0.0339002
0.0336975
0.0335443
0.0334332
0.0333603
0.0333234
0.0333262
0.0333531
0.0334527
0.0342814
0.0339799
0.0337365
0.0335484
0.0334054
0.0333001
0.033228
0.0331859
0.0331583
0.03317
0.0332166
0.0333445
0.0369867
0.0367633
0.0365777
0.0364798
0.0363925
0.0363428
0.0363296
0.036329
0.0363403
0.0363625
0.0364
0.0364714
0.0690861
0.0689333
0.0688494
0.0688158
0.0688179
0.0688452
0.0688895
0.0689443
0.069004
0.0690633
0.0691171
0.0691592
0.0356625
0.0352561
0.034926
0.0346624
0.034457
0.0343032
0.0341974
0.0341427
0.0341454
0.0341747
0.0343067
0.0347531
0.0343825
0.0340932
0.033869
0.0336987
0.0335738
0.0334894
0.0334462
0.0334455
0.033472
0.033576
0.0343429
0.0340127
0.033747
0.0335537
0.0333989
0.0332816
0.0331984
0.033145
0.0331206
0.0331245
0.0331719
0.0333072
0.0366241
0.0363599
0.0361747
0.0360467
0.035963
0.0358943
0.035874
0.0358688
0.0358766
0.0358966
0.0359342
0.0360102
0.0677426
0.0675728
0.0674782
0.0674355
0.0674317
0.0674544
0.0674952
0.0675472
0.0676045
0.0676619
0.0677138
0.0677539
0.0353517
0.0349647
0.0346503
0.0343995
0.0342044
0.0340587
0.0339591
0.0339085
0.0339114
0.03394
0.0340649
0.0345869
0.0342348
0.0339589
0.0337457
0.0335845
0.0334666
0.0333887
0.0333509
0.0333517
0.0333781
0.0334763
0.0344618
0.034138
0.0338811
0.0336824
0.0335328
0.0334237
0.0333486
0.0333005
0.0332814
0.0332877
0.033333
0.0334592
0.0371758
0.0369396
0.0367758
0.0366655
0.036584
0.0365285
0.0365132
0.0365112
0.0365213
0.0365427
0.0365806
0.0366564
0.0694204
0.0692559
0.0691684
0.0691321
0.0691337
0.0691609
0.0692053
0.0692602
0.0693199
0.0693792
0.0694325
0.0694735
0.0345008
0.0341995
0.0339513
0.0337518
0.0335969
0.0334823
0.033407
0.0333726
0.0333795
0.0334101
0.0335231
0.0341243
0.0338498
0.033633
0.0334662
0.0333418
0.0332503
0.0332047
0.0331881
0.0331911
0.0332246
0.0333016
0.0346962
0.0344328
0.034235
0.0340861
0.0339769
0.0339013
0.0338546
0.03382
0.0338184
0.0338319
0.0338723
0.0339721
0.038786
0.0386008
0.038508
0.0384253
0.0383735
0.0383558
0.0383514
0.0383589
0.0383763
0.0384022
0.0384387
0.0384956
0.0744804
0.0743467
0.074294
0.0742837
0.0743031
0.0743441
0.0743995
0.0744632
0.0745299
0.0745948
0.0746531
0.0746999
0.0340325
0.0338023
0.0336162
0.0334715
0.0333626
0.0332869
0.0332404
0.0332222
0.0332307
0.0332839
0.0334333
0.034319
0.0341149
0.0339619
0.0338506
0.0337739
0.0337269
0.0336913
0.0336903
0.0337044
0.0337464
0.03385
0.0360465
0.0358908
0.0357724
0.0356856
0.0356252
0.0355863
0.0355728
0.0355697
0.0355766
0.035595
0.0356275
0.0356834
0.042935
0.0428575
0.0427914
0.0427501
0.0427377
0.0427385
0.0427505
0.0427721
0.0427999
0.0428324
0.0428687
0.0429132
0.0857001
0.0856434
0.0856316
0.0856521
0.0856968
0.0857587
0.0858314
0.0859094
0.0859877
0.0860623
0.0861289
0.0861836
0.0367467
0.0365761
0.0364577
0.0363869
0.0363218
0.0363064
0.0363051
0.0363164
0.0363398
0.0363822
0.0364717
0.0383466
0.0382466
0.0381535
0.038098
0.0380796
0.0380757
0.0380845
0.0381033
0.0381307
0.0381693
0.0382318
0.0426547
0.0426198
0.0425796
0.0425486
0.0425336
0.0425335
0.0425456
0.0425677
0.0425962
0.0426294
0.0426665
0.0427121
0.05573
0.0557032
0.0556864
0.0556844
0.0556985
0.0557254
0.0557612
0.0558027
0.0558472
0.0558925
0.0559371
0.0559795
0.114201
0.114225
0.114273
0.114341
0.114427
0.114525
0.11463
0.114736
0.11484
0.114937
0.115023
0.115094
0.0689465
0.068858
0.0688286
0.0688349
0.0688661
0.0689141
0.0689719
0.0690339
0.0690947
0.0691482
0.0691866
0.0739922
0.0739417
0.0739323
0.0739538
0.0739975
0.0740557
0.0741218
0.0741905
0.0742569
0.0743156
0.0743609
0.0852796
0.0852028
0.0851723
0.08518
0.0852169
0.0852742
0.0853442
0.0854206
0.0854977
0.0855713
0.0856368
0.0856896
0.114444
0.114436
0.114462
0.114515
0.114592
0.114684
0.114785
0.11489
0.114992
0.115087
0.115172
0.115242
0.232991
0.233008
0.233066
0.233155
0.233266
0.233393
0.233529
0.233667
0.233799
0.233922
0.234034
0.234131
)
;

boundaryField
{
    inlet
    {
        type            fixedValue;
        value           nonuniform List<scalar> 0();
    }
    ami1
    {
        type            cyclicAMI;
        value           nonuniform List<scalar> 0();
    }
    walls
    {
        type            epsilonWallFunction;
        blending        stepwise;
        value           nonuniform List<scalar> 
259
(
0.0857201
0.114198
0.232975
0.0675677
0.0692461
0.0743389
0.0856618
0.114223
0.23299
0.0674692
0.0691571
0.0742827
0.0856429
0.11427
0.23305
0.0674242
0.0691195
0.0742715
0.0856567
0.114338
0.233139
0.0674198
0.0691206
0.0742911
0.0856966
0.114422
0.233251
0.0674428
0.0691477
0.0743327
0.0857555
0.114519
0.233379
0.0674842
0.0691924
0.0743888
0.0858266
0.114623
0.233514
0.067537
0.0692478
0.0744531
0.0859037
0.114729
0.233649
0.067595
0.0693077
0.0745201
0.0859814
0.114831
0.23378
0.0676525
0.069367
0.074585
0.0860555
0.114927
0.233902
0.0677036
0.0694201
0.0746433
0.0861219
0.115012
0.234012
0.0677413
0.0694604
0.0746899
0.0861766
0.115083
0.234109
0.232975
0.114431
0.0852633
0.07413
0.0690861
0.0677426
0.0694204
0.0744804
0.0857001
0.114201
0.232991
0.23299
0.114421
0.0851866
0.0740054
0.0689333
0.0675728
0.0692559
0.0743467
0.0856434
0.114225
0.233008
0.23305
0.114447
0.0851599
0.0739464
0.0688494
0.0674782
0.0691684
0.074294
0.0856316
0.114273
0.233066
0.233139
0.114503
0.0851708
0.0739313
0.0688158
0.0674355
0.0691321
0.0742837
0.0856521
0.114341
0.233155
0.233251
0.114581
0.085209
0.0739482
0.0688179
0.0674317
0.0691337
0.0743031
0.0856968
0.114427
0.233266
0.233379
0.114673
0.0852658
0.0739876
0.0688452
0.0674544
0.0691609
0.0743441
0.0857587
0.114525
0.233393
0.233514
0.114774
0.0853341
0.0740417
0.0688895
0.0674952
0.0692053
0.0743995
0.0858314
0.11463
0.233529
0.233649
0.114877
0.0854081
0.0741043
0.0689443
0.0675472
0.0692602
0.0744632
0.0859094
0.114736
0.233667
0.23378
0.114977
0.0854829
0.0741701
0.069004
0.0676045
0.0693199
0.0745299
0.0859877
0.11484
0.233799
0.233902
0.115071
0.0855546
0.0742344
0.0690633
0.0676619
0.0693792
0.0745948
0.0860623
0.114937
0.233922
0.234012
0.115154
0.0856191
0.0742924
0.0691171
0.0677138
0.0694325
0.0746531
0.0861289
0.115023
0.234034
0.234109
0.115224
0.0856721
0.074339
0.0691592
0.0677539
0.0694735
0.0746999
0.0861836
0.115094
0.234131
0.0852796
0.114444
0.232991
0.0689465
0.0739922
0.0852028
0.114436
0.233008
0.068858
0.0739417
0.0851723
0.114462
0.233066
0.0688286
0.0739323
0.08518
0.114515
0.233155
0.0688349
0.0739538
0.0852169
0.114592
0.233266
0.0688661
0.0739975
0.0852742
0.114684
0.233393
0.0689141
0.0740557
0.0853442
0.114785
0.233529
0.0689719
0.0741218
0.0854206
0.11489
0.233667
0.0690339
0.0741905
0.0854977
0.114992
0.233799
0.0690947
0.0742569
0.0855713
0.115087
0.233922
0.0691482
0.0743156
0.0856368
0.115172
0.234034
0.0691866
0.0743609
0.0856896
0.115242
0.234131
)
;
    }
    ami2
    {
        type            cyclicAMI;
        value           nonuniform List<scalar> 0();
    }
    outlet
    {
        type            zeroGradient;
    }
    procBoundary9to0
    {
        type            processor;
        value           nonuniform List<scalar> 
40
(
0.0677371
0.0694051
0.0744591
0.0744591
0.0858096
0.114196
0.23302
0.0365716
0.0371384
0.0388091
0.0388091
0.0430689
0.0558172
0.114491
0.034256
0.0343398
0.0346533
0.0346533
0.0362484
0.0428909
0.085415
0.0350095
0.0347904
0.0343564
0.0343564
0.034801
0.0387508
0.0743333
0.0356384
0.0348187
0.0348187
0.0346081
0.0372795
0.0693272
0.0360358
0.0350979
0.0350979
0.0347349
0.036928
0.068001
)
;
    }
    procBoundary9to1
    {
        type            processor;
        value           nonuniform List<scalar> 
30
(
0.0356995
0.0349045
0.0349045
0.0347546
0.0374425
0.0696706
0.0347834
0.0343741
0.0343741
0.0349621
0.0390133
0.0746756
0.0342195
0.0344953
0.0344953
0.0362426
0.0430723
0.0858232
0.0369403
0.0385143
0.0385143
0.0428862
0.0558174
0.114204
0.0690926
0.0741466
0.0741466
0.0854322
0.114498
0.23303
)
;
    }
    procBoundary9to7
    {
        type            processor;
        value           nonuniform List<scalar> 
59
(
0.0677707
0.0694923
0.0747265
0.0862188
0.115138
0.234187
0.0361515
0.0367611
0.0385689
0.0429631
0.0560205
0.115279
0.0335541
0.0336266
0.0340788
0.0357543
0.0427568
0.0857136
0.033864
0.0336669
0.0334252
0.0339244
0.0382874
0.0743761
0.0342217
0.0335893
0.0334561
0.0365462
0.069193
0.0344458
0.0337176
0.0334238
0.036089
0.0677858
0.0342022
0.0336141
0.0335708
0.0367326
0.069506
0.033656
0.0334298
0.0340686
0.0385595
0.0747363
0.0335458
0.0339513
0.0357611
0.0429616
0.0862256
0.0365737
0.0383026
0.0427623
0.0560248
0.115149
0.0692121
0.074394
0.0857293
0.115296
0.234208
)
;
    }
    procBoundary9to8
    {
        type            processor;
        value           nonuniform List<scalar> 
132
(
0.0689429
0.0688552
0.0688239
0.0688285
0.0688583
0.0689051
0.068962
0.0690231
0.0690831
0.0691359
0.0691739
0.0367567
0.036592
0.0364747
0.0363972
0.0363405
0.0363287
0.0363281
0.0363391
0.0363619
0.0364035
0.0364958
0.0340417
0.0338128
0.0336321
0.0334934
0.033392
0.0333213
0.0332779
0.0332595
0.03327
0.0333236
0.0334704
0.0344879
0.0341917
0.0339531
0.0337637
0.0336179
0.0335109
0.0334403
0.0334066
0.0334164
0.0334474
0.0335579
0.0356327
0.0352519
0.0349404
0.0346894
0.0344924
0.0343444
0.0342431
0.0341933
0.0342011
0.0342352
0.034374
0.0356327
0.0352519
0.0349404
0.0346894
0.0344924
0.0343444
0.0342431
0.0341933
0.0342011
0.0342352
0.034374
0.0360235
0.0355854
0.0352341
0.0349555
0.0347389
0.0345766
0.0344648
0.0344072
0.0344076
0.0344393
0.0345746
0.0356578
0.035236
0.0349002
0.0346353
0.0344305
0.0342778
0.0341733
0.03412
0.0341203
0.03415
0.0342757
0.034691
0.03436
0.0340941
0.0338833
0.0337205
0.0336004
0.0335202
0.033484
0.0334887
0.0335196
0.033629
0.0340425
0.0337938
0.0335948
0.0334406
0.0333241
0.0332423
0.0331914
0.0331699
0.0331772
0.0332303
0.0333777
0.0363573
0.0361762
0.0360538
0.0359773
0.0359063
0.0358866
0.035882
0.0358907
0.0359121
0.0359529
0.0360374
0.0675726
0.067476
0.0674342
0.0674315
0.0674554
0.0674974
0.0675505
0.0676088
0.0676666
0.067718
0.067756
)
;
    }
}


// ************************************************************************* //
