/*--------------------------------*- C++ -*----------------------------------*\
| =========                 |                                                 |
| \\      /  F ield         | OpenFOAM: The Open Source CFD Toolbox           |
|  \\    /   O peration     | Version:  2212                                  |
|   \\  /    A nd           | Website:  www.openfoam.com                      |
|    \\/     M anipulation  |                                                 |
\*---------------------------------------------------------------------------*/
FoamFile
{
    version     2.0;
    format      ascii;
    arch        "LSB;label=32;scalar=64";
    class       volScalarField;
    location    "0.4";
    object      k;
}
// * * * * * * * * * * * * * * * * * * * * * * * * * * * * * * * * * * * * * //

dimensions      [0 2 -2 0 0 0 0];

internalField   nonuniform List<scalar> 
682
(
0.00392031
0.00391311
0.00390863
0.00390633
0.00390561
0.00390597
0.00390706
0.0039086
0.00391033
0.00391196
0.00391312
0.00388842
0.00388194
0.00387801
0.00387609
0.00387563
0.00387616
0.00387736
0.00387896
0.00388074
0.00388241
0.00388366
0.00377946
0.00377508
0.00377224
0.00377137
0.00377157
0.00377253
0.00377398
0.00377574
0.00377759
0.00377932
0.00378072
0.00361461
0.0036105
0.00360768
0.0036065
0.00360639
0.00360706
0.0036083
0.00360991
0.00361171
0.00361354
0.00361525
0.00361669
0.0034183
0.00341703
0.00341649
0.00341664
0.00341739
0.00341859
0.00342013
0.00342185
0.00342365
0.00342541
0.00342703
0.00342842
0.00338995
0.00338868
0.00338827
0.00338837
0.00338887
0.00338966
0.00339065
0.00339174
0.00339286
0.00339396
0.00339499
0.00339592
0.00665267
0.00663319
0.00662048
0.00661284
0.00661047
0.00661006
0.0066113
0.00661377
0.00661692
0.00662
0.00662221
0.00659926
0.00658058
0.00656844
0.00656126
0.00655906
0.00655879
0.00656015
0.00656272
0.00656595
0.00656912
0.00657146
0.00631703
0.00630261
0.00629415
0.00628967
0.00628883
0.00628962
0.0062918
0.00629493
0.00629853
0.00630198
0.0063046
0.00579211
0.00577923
0.00577107
0.00576644
0.00576539
0.00576603
0.00576817
0.00577135
0.00577515
0.00577911
0.0057828
0.00578573
0.00483096
0.00482776
0.00482583
0.00482563
0.00482697
0.00482946
0.00483277
0.00483659
0.00484058
0.00484448
0.00484801
0.00485083
0.00343435
0.00343173
0.0034307
0.00343051
0.00343103
0.00343208
0.00343349
0.00343511
0.00343683
0.00343852
0.00344009
0.00344143
0.00847483
0.00844236
0.00841992
0.00840533
0.00839671
0.00839369
0.0083929
0.00839389
0.00839619
0.0083994
0.0084035
0.0083487
0.00831808
0.00829706
0.00828349
0.00827577
0.00827315
0.00827267
0.00827398
0.00827649
0.00827976
0.0082836
0.00788442
0.00786045
0.00784446
0.00783453
0.0078306
0.00782935
0.00783007
0.00783229
0.00783547
0.00783906
0.00784266
0.00705526
0.0070338
0.00701908
0.00700963
0.00700584
0.00700468
0.00700553
0.00700792
0.00701135
0.00701532
0.00701921
0.00702249
0.00563605
0.00562678
0.00562054
0.00561828
0.0056179
0.00561921
0.00562181
0.00562526
0.00562921
0.00563324
0.00563695
0.00563981
0.0036181
0.00361307
0.00360976
0.00360831
0.00360799
0.00360851
0.00360962
0.0036111
0.00361279
0.00361453
0.00361616
0.00361754
0.009678
0.00963404
0.00960227
0.00958034
0.00956618
0.00955794
0.00955507
0.00955435
0.00955556
0.00955898
0.00956517
0.00949008
0.00944871
0.00941904
0.00939875
0.009386
0.00937878
0.00937637
0.00937595
0.0093774
0.00938068
0.00938603
0.00888738
0.00885376
0.00883029
0.00881481
0.00880554
0.00880193
0.00880075
0.00880149
0.00880377
0.00880727
0.00881194
0.00785686
0.00782511
0.00780279
0.00778793
0.0077789
0.00777543
0.00777452
0.00777553
0.00777798
0.00778133
0.00778501
0.00778852
0.00617746
0.00616079
0.00614984
0.00614311
0.00614085
0.00614058
0.00614198
0.00614463
0.00614809
0.00615189
0.00615546
0.00615803
0.00378682
0.00377893
0.00377414
0.00377103
0.00376992
0.00376993
0.00377073
0.00377207
0.00377374
0.00377553
0.00377723
0.00377861
0.0101586
0.0101091
0.0100729
0.0100474
0.0100304
0.0100202
0.0100149
0.0100139
0.0100146
0.0100178
0.0100243
0.00947301
0.00943158
0.009402
0.00938188
0.0093693
0.00936219
0.0093599
0.00935961
0.00936115
0.00936444
0.00936955
0.00833562
0.0082948
0.00826559
0.0082456
0.00823312
0.00822602
0.00822379
0.00822365
0.00822527
0.00822802
0.00823145
0.0082351
0.00652106
0.00649734
0.00648128
0.00647136
0.00646588
0.00646447
0.00646481
0.00646669
0.00646961
0.00647311
0.00647648
0.0064789
0.00389216
0.00388246
0.00387602
0.00387226
0.00387036
0.00386989
0.00387039
0.00387156
0.00387314
0.0038749
0.00387659
0.0038779
0.0103839
0.0103308
0.0102917
0.0102639
0.0102452
0.0102338
0.0102276
0.0102261
0.0102265
0.0102297
0.0102363
0.00967751
0.00963245
0.00960014
0.009578
0.00956378
0.00955556
0.00955266
0.00955196
0.0095532
0.00955637
0.00956161
0.00851942
0.00847424
0.0084417
0.00841924
0.00840475
0.00839628
0.0083933
0.00839265
0.00839382
0.0083963
0.00839959
0.00840328
0.00667979
0.00665191
0.00663285
0.00662059
0.00661339
0.0066112
0.00661094
0.00661235
0.00661494
0.00661823
0.00662147
0.00662383
0.0039307
0.00392013
0.00391312
0.00390891
0.00390677
0.00390614
0.00390654
0.00390765
0.00390919
0.00391094
0.00391261
0.00391388
0.0101598
0.0101095
0.0100728
0.0100469
0.0100298
0.0100196
0.0100144
0.0100133
0.010014
0.0100172
0.0100235
0.00949077
0.00944827
0.00941805
0.00939757
0.00938481
0.00937768
0.00937537
0.00937508
0.00937664
0.00937992
0.00938496
0.00839044
0.00834753
0.00831685
0.00829585
0.00828271
0.00827523
0.00827277
0.00827248
0.00827395
0.00827664
0.00828004
0.00828367
0.00662562
0.00659856
0.00658006
0.00656823
0.0065615
0.00655949
0.00655939
0.00656094
0.00656362
0.00656697
0.00657026
0.00657264
0.00389842
0.00388861
0.00388216
0.00387834
0.00387652
0.00387611
0.00387668
0.0038779
0.00387952
0.00388131
0.003883
0.00388429
0.00947332
0.00943203
0.00940238
0.00938215
0.00936951
0.00936244
0.00936023
0.00935996
0.00936152
0.00936489
0.00937029
0.00888681
0.0088528
0.00882917
0.00881368
0.00880454
0.00880106
0.00880004
0.00880091
0.0088033
0.00880687
0.00881147
0.00791714
0.00788324
0.00785935
0.00784344
0.0078337
0.00782991
0.00782879
0.00782969
0.00783207
0.00783541
0.0078391
0.00784258
0.00633821
0.00631723
0.00630283
0.00629438
0.00628995
0.00628908
0.00628993
0.00629219
0.0062954
0.00629909
0.00630261
0.00630525
0.00378738
0.00377998
0.00377553
0.00377262
0.00377174
0.00377194
0.00377288
0.00377434
0.00377609
0.00377795
0.0037797
0.00378112
0.00829527
0.00826568
0.00824543
0.00823276
0.00822564
0.00822346
0.00822335
0.00822492
0.00822765
0.00823108
0.00823481
0.00782483
0.00780193
0.00778681
0.00777775
0.00777437
0.00777352
0.00777467
0.00777723
0.00778068
0.00778441
0.00778787
0.007055
0.00703321
0.00701823
0.00700875
0.00700499
0.00700388
0.00700482
0.00700735
0.00701091
0.00701501
0.00701898
0.00702222
0.00579119
0.0057784
0.00576983
0.00576642
0.00576525
0.0057659
0.0057681
0.00577135
0.00577523
0.00577927
0.00578302
0.00578597
0.00361424
0.00361027
0.00360713
0.00360629
0.00360634
0.0036071
0.00360839
0.00361003
0.00361186
0.00361371
0.00361544
0.00361689
0.00649843
0.00648189
0.00647176
0.00646607
0.00646472
0.00646512
0.00646704
0.00646999
0.00647349
0.00647677
0.0064789
0.00616083
0.00614955
0.0061427
0.00614049
0.00614027
0.00614182
0.00614461
0.00614818
0.00615207
0.00615565
0.00615811
0.00563714
0.0056273
0.00562059
0.00561811
0.00561765
0.00561894
0.0056216
0.00562516
0.00562923
0.00563337
0.00563714
0.00564
0.00483119
0.00482791
0.00482586
0.00482565
0.00482697
0.00482946
0.0048328
0.00483668
0.00484076
0.00484473
0.0048483
0.00485116
0.00341815
0.00341701
0.00341647
0.00341665
0.00341742
0.00341864
0.0034202
0.00342195
0.00342377
0.00342555
0.00342719
0.00342859
0.00388302
0.00387653
0.0038727
0.00387089
0.00387049
0.00387106
0.0038723
0.00387394
0.00387573
0.0038774
0.00387856
0.00377892
0.00377419
0.00377083
0.00376993
0.00377007
0.00377099
0.00377243
0.00377418
0.00377604
0.00377776
0.0037791
0.00361863
0.00361342
0.00361007
0.00360847
0.00360811
0.00360862
0.00360976
0.00361129
0.00361304
0.00361483
0.0036165
0.00361788
0.00343464
0.00343193
0.00343091
0.00343069
0.00343117
0.0034322
0.00343362
0.00343528
0.00343703
0.00343875
0.00344034
0.00344169
0.00339007
0.00338881
0.0033884
0.00338849
0.00338897
0.00338976
0.00339075
0.00339186
0.003393
0.00339411
0.00339515
0.0033961
)
;

boundaryField
{
    inlet
    {
        type            fixedValue;
        value           nonuniform List<scalar> 0();
    }
    ami1
    {
        type            cyclicAMI;
        value           nonuniform List<scalar> 0();
    }
    walls
    {
        type            kqRWallFunction;
        value           nonuniform List<scalar> 
259
(
0.00361461
0.0034183
0.00338995
0.00392031
0.00388842
0.00377946
0.0036105
0.00341703
0.00338868
0.00391311
0.00388194
0.00377508
0.00360768
0.00341649
0.00338827
0.00390863
0.00387801
0.00377224
0.0036065
0.00341664
0.00338837
0.00390633
0.00387609
0.00377137
0.00360639
0.00341739
0.00338887
0.00390561
0.00387563
0.00377157
0.00360706
0.00341859
0.00338966
0.00390597
0.00387616
0.00377253
0.0036083
0.00342013
0.00339065
0.00390706
0.00387736
0.00377398
0.00360991
0.00342185
0.00339174
0.0039086
0.00387896
0.00377574
0.00361171
0.00342365
0.00339286
0.00391033
0.00388074
0.00377759
0.00361354
0.00342541
0.00339396
0.00391196
0.00388241
0.00377932
0.00361525
0.00342703
0.00339499
0.00391312
0.00388366
0.00378072
0.00361669
0.00342842
0.00339592
0.00338995
0.00343435
0.0036181
0.00378682
0.00389216
0.0039307
0.00389842
0.00378738
0.00361424
0.00341815
0.00339007
0.00338868
0.00343173
0.00361307
0.00377893
0.00388246
0.00392013
0.00388861
0.00377998
0.00361027
0.00341701
0.00338881
0.00338827
0.0034307
0.00360976
0.00377414
0.00387602
0.00391312
0.00388216
0.00377553
0.00360713
0.00341647
0.0033884
0.00338837
0.00343051
0.00360831
0.00377103
0.00387226
0.00390891
0.00387834
0.00377262
0.00360629
0.00341665
0.00338849
0.00338887
0.00343103
0.00360799
0.00376992
0.00387036
0.00390677
0.00387652
0.00377174
0.00360634
0.00341742
0.00338897
0.00338966
0.00343208
0.00360851
0.00376993
0.00386989
0.00390614
0.00387611
0.00377194
0.0036071
0.00341864
0.00338976
0.00339065
0.00343349
0.00360962
0.00377073
0.00387039
0.00390654
0.00387668
0.00377288
0.00360839
0.0034202
0.00339075
0.00339174
0.00343511
0.0036111
0.00377207
0.00387156
0.00390765
0.0038779
0.00377434
0.00361003
0.00342195
0.00339186
0.00339286
0.00343683
0.00361279
0.00377374
0.00387314
0.00390919
0.00387952
0.00377609
0.00361186
0.00342377
0.003393
0.00339396
0.00343852
0.00361453
0.00377553
0.0038749
0.00391094
0.00388131
0.00377795
0.00361371
0.00342555
0.00339411
0.00339499
0.00344009
0.00361616
0.00377723
0.00387659
0.00391261
0.003883
0.0037797
0.00361544
0.00342719
0.00339515
0.00339592
0.00344143
0.00361754
0.00377861
0.0038779
0.00391388
0.00388429
0.00378112
0.00361689
0.00342859
0.0033961
0.00361863
0.00343464
0.00339007
0.00388302
0.00377892
0.00361342
0.00343193
0.00338881
0.00387653
0.00377419
0.00361007
0.00343091
0.0033884
0.0038727
0.00377083
0.00360847
0.00343069
0.00338849
0.00387089
0.00376993
0.00360811
0.00343117
0.00338897
0.00387049
0.00377007
0.00360862
0.0034322
0.00338976
0.00387106
0.00377099
0.00360976
0.00343362
0.00339075
0.0038723
0.00377243
0.00361129
0.00343528
0.00339186
0.00387394
0.00377418
0.00361304
0.00343703
0.003393
0.00387573
0.00377604
0.00361483
0.00343875
0.00339411
0.0038774
0.00377776
0.0036165
0.00344034
0.00339515
0.00387856
0.0037791
0.00361788
0.00344169
0.0033961
)
;
    }
    ami2
    {
        type            cyclicAMI;
        value           nonuniform List<scalar> 0();
    }
    outlet
    {
        type            zeroGradient;
    }
    procBoundary9to0
    {
        type            processor;
        value           nonuniform List<scalar> 
40
(
0.00393082
0.00389805
0.00378683
0.00378683
0.00362055
0.00342045
0.00339235
0.00668079
0.00662643
0.0063384
0.0063384
0.005809
0.00483673
0.00343785
0.00851884
0.00839052
0.00791789
0.00791789
0.00708458
0.00564911
0.00362584
0.00973409
0.00954411
0.00893212
0.00893212
0.00789947
0.00620102
0.00379821
0.0102212
0.00952674
0.00952674
0.00838929
0.0065543
0.0039063
0.01045
0.00973507
0.00973507
0.00857817
0.00671834
0.00394578
)
;
    }
    procBoundary9to1
    {
        type            processor;
        value           nonuniform List<scalar> 
30
(
0.0102225
0.00954522
0.00954522
0.00844657
0.00666308
0.0039122
0.00952627
0.00893164
0.00893164
0.00796234
0.00636752
0.00379774
0.0083352
0.00785664
0.00785664
0.00708443
0.00580893
0.00362064
0.00652227
0.00617805
0.00617805
0.00564949
0.00483701
0.00342086
0.00389267
0.00378707
0.00378707
0.00362615
0.00343802
0.00339246
)
;
    }
    procBoundary9to7
    {
        type            processor;
        value           nonuniform List<scalar> 
59
(
0.00391402
0.00388464
0.00378181
0.0036178
0.00342949
0.00339669
0.0066242
0.00657352
0.00630674
0.00578789
0.00485274
0.00344247
0.00840717
0.00828722
0.00784598
0.00702526
0.00564186
0.00361861
0.00956968
0.00939099
0.00881628
0.00779178
0.00616006
0.00377969
0.0100294
0.00937444
0.00823865
0.00648095
0.00387894
0.0102417
0.00956668
0.00840694
0.00662591
0.00391487
0.0100287
0.00938986
0.00828723
0.0065747
0.00388529
0.00937496
0.00881581
0.00784586
0.00630736
0.0037822
0.00823827
0.0077911
0.00702494
0.0057881
0.003618
0.00648055
0.00615988
0.00564192
0.00485301
0.00342966
0.00387933
0.00378006
0.00361891
0.00344272
0.00339686
)
;
    }
    procBoundary9to8
    {
        type            processor;
        value           nonuniform List<scalar> 
132
(
0.00388282
0.00387638
0.00387253
0.00387059
0.00387013
0.00387066
0.00387186
0.00387347
0.00387523
0.00387688
0.00387803
0.0064981
0.00648165
0.00647153
0.0064658
0.00646435
0.00646461
0.00646642
0.00646928
0.00647269
0.0064759
0.0064781
0.00829527
0.00826592
0.00824586
0.0082333
0.00822614
0.00822389
0.00822367
0.00822516
0.0082278
0.00823118
0.00823521
0.00947333
0.00943248
0.00940321
0.00938323
0.00937072
0.00936363
0.00936137
0.00936105
0.00936258
0.00936603
0.00937174
0.0103833
0.0103308
0.0102922
0.0102648
0.0102462
0.0102349
0.0102288
0.0102273
0.0102278
0.0102311
0.0102381
0.0103833
0.0103308
0.0102922
0.0102648
0.0102462
0.0102349
0.0102288
0.0102273
0.0102278
0.0102311
0.0102381
0.0106186
0.0105622
0.0105205
0.0104908
0.0104705
0.0104579
0.0104508
0.0104488
0.010449
0.0104521
0.010459
0.0103838
0.0103303
0.0102911
0.0102633
0.0102447
0.0102333
0.0102272
0.0102256
0.0102261
0.0102292
0.0102355
0.00967706
0.00963271
0.00960073
0.00957869
0.00956449
0.00955627
0.00955337
0.00955264
0.00955383
0.00955703
0.00956249
0.00847499
0.00844238
0.00841987
0.00840525
0.00839666
0.00839363
0.00839289
0.00839392
0.00839631
0.00839955
0.00840333
0.00665319
0.00663382
0.00662124
0.0066137
0.00661137
0.00661101
0.00661231
0.00661481
0.00661801
0.00662115
0.00662333
0.00392056
0.00391346
0.00390908
0.00390687
0.0039062
0.00390659
0.00390769
0.00390924
0.00391097
0.0039126
0.00391378
)
;
    }
}


// ************************************************************************* //
