/*--------------------------------*- C++ -*----------------------------------*\
| =========                 |                                                 |
| \\      /  F ield         | OpenFOAM: The Open Source CFD Toolbox           |
|  \\    /   O peration     | Version:  2212                                  |
|   \\  /    A nd           | Website:  www.openfoam.com                      |
|    \\/     M anipulation  |                                                 |
\*---------------------------------------------------------------------------*/
FoamFile
{
    version     2.0;
    format      ascii;
    arch        "LSB;label=32;scalar=64";
    class       volScalarField;
    location    "2";
    object      k;
}
// * * * * * * * * * * * * * * * * * * * * * * * * * * * * * * * * * * * * * //

dimensions      [0 2 -2 0 0 0 0];

internalField   nonuniform List<scalar> 
693
(
0.00199206
0.00196551
0.0019398
0.00191508
0.00189068
0.00186715
0.00171608
0.00169082
0.00166689
0.00164381
0.00162133
0.00159958
0.00170093
0.0016722
0.00164526
0.00161906
0.00159364
0.00156924
0.0016724
0.00163892
0.00160768
0.00157818
0.00155017
0.00152368
0.00165519
0.00162001
0.0015868
0.00155598
0.00152667
0.0014993
0.001638
0.00160063
0.0015652
0.001533
0.0015035
0.00147672
0.00161238
0.00157585
0.00154211
0.00151178
0.00148363
0.00145776
0.00158509
0.00155414
0.00152438
0.00149679
0.00147036
0.0014445
0.00157776
0.00154908
0.0015213
0.00149558
0.00147111
0.00144836
0.0016279
0.00160298
0.00157906
0.0015563
0.00153449
0.00151384
0.00199215
0.00196589
0.00193989
0.00191514
0.00189058
0.00186694
0.00162778
0.0016028
0.00157898
0.00155635
0.00153467
0.00151416
0.00117947
0.00114163
0.00110491
0.00107126
0.00103917
0.00101121
0.00147418
0.00141701
0.00136466
0.00131724
0.00126975
0.00122981
0.0016341
0.0015711
0.00151572
0.00146133
0.00141235
0.00136515
0.0017143
0.00165304
0.0015942
0.00154014
0.00148556
0.00143401
0.00175863
0.00168216
0.00161597
0.00156096
0.00150946
0.00146067
0.00175
0.00167568
0.001613
0.00155288
0.00149388
0.00144176
0.00163318
0.00156757
0.00150185
0.0014444
0.00138588
0.00133573
0.00139541
0.00133937
0.00128221
0.00123424
0.00118466
0.00114387
0.00117913
0.00114235
0.00110478
0.00107098
0.00103852
0.00101027
0.00171636
0.00169112
0.00166716
0.00164398
0.00162147
0.00159965
0.00157771
0.00154885
0.00152127
0.00149564
0.0014713
0.00144868
0.00139577
0.00133791
0.00128236
0.00123415
0.0011849
0.00114443
0.00172756
0.00165331
0.00158204
0.00151694
0.00145347
0.00139736
0.00197798
0.00189086
0.00180986
0.00173315
0.0016624
0.00159606
0.00212915
0.00203586
0.00194948
0.00186885
0.00179231
0.00172056
0.00219493
0.00209818
0.00200809
0.00192414
0.00184572
0.00177296
0.00216092
0.00206666
0.00197845
0.00189628
0.00181837
0.00174542
0.00200326
0.00191638
0.00183358
0.00175602
0.00168109
0.00161339
0.00172807
0.00165428
0.00158215
0.00151727
0.00145309
0.00139699
0.00147205
0.00141869
0.00136438
0.00131732
0.0012697
0.00122959
0.00170136
0.00167267
0.00164563
0.00161943
0.00159401
0.00156961
0.00158555
0.00155421
0.00152497
0.00149712
0.00147107
0.00144534
0.00163631
0.00156662
0.00150507
0.00144434
0.00138895
0.00133761
0.0020032
0.00191609
0.00183391
0.00175617
0.00168254
0.00161406
0.0022991
0.00219703
0.00210153
0.00201212
0.00192733
0.00184925
0.00248629
0.00237529
0.00227153
0.00217452
0.00208304
0.00199837
0.00255551
0.00244142
0.00233476
0.00223498
0.00214093
0.00205386
0.00249671
0.00238557
0.00228162
0.00218429
0.00209244
0.00200736
0.00229945
0.00219736
0.00210183
0.00201233
0.00192753
0.00184928
0.00197902
0.00189208
0.00181078
0.00173431
0.00166329
0.00159675
0.00163315
0.00157362
0.00151553
0.00146245
0.0014132
0.00136629
0.00167303
0.00163972
0.00160833
0.00157888
0.00155085
0.00152437
0.00161291
0.00157653
0.00154299
0.00151258
0.00148457
0.00145874
0.00175156
0.00167811
0.00161509
0.0015544
0.00149643
0.00144387
0.00216165
0.00206756
0.00197957
0.00189759
0.0018201
0.00174715
0.00249713
0.00238611
0.00228228
0.00218504
0.00209334
0.00200837
0.00271107
0.00258957
0.002476
0.00236972
0.00226967
0.00217664
0.00278593
0.00266085
0.00254396
0.0024346
0.00233167
0.00223592
0.00271084
0.0025893
0.0024757
0.0023694
0.0022693
0.00217625
0.00248671
0.00237574
0.00227202
0.00217504
0.00208357
0.00199884
0.00213057
0.00203729
0.00195098
0.00187029
0.00179367
0.00172187
0.0017173
0.00165492
0.00159629
0.00154199
0.00148652
0.00143593
0.00165626
0.00162099
0.00158777
0.00155692
0.00152751
0.00150014
0.00163891
0.00160177
0.00156639
0.0015342
0.00150478
0.00147799
0.00176147
0.00168526
0.00161867
0.00156357
0.00151255
0.00146376
0.0021967
0.00210023
0.00201037
0.00192645
0.00184878
0.00177568
0.00255656
0.00244267
0.00233619
0.00223646
0.00214271
0.0020557
0.00278644
0.00266145
0.00254465
0.00243529
0.00233253
0.00223683
0.002866
0.00273718
0.00261682
0.00250419
0.00239829
0.00229966
0.00278598
0.0026609
0.00254401
0.00243464
0.00233171
0.00223595
0.00255584
0.0024418
0.00233518
0.00223542
0.0021414
0.00205432
0.00219591
0.00209923
0.00200919
0.0019252
0.00184686
0.00177409
0.00176098
0.00168439
0.00161772
0.00156258
0.00151111
0.00146235
0.00163881
0.00160148
0.00156597
0.00153372
0.0015042
0.00147741
0.00165628
0.00162122
0.00158816
0.00155728
0.00152825
0.00171707
0.00165615
0.00159734
0.0015429
0.00148852
0.00213123
0.00203818
0.00195206
0.00187144
0.00179549
0.00248736
0.00237653
0.00227301
0.0021758
0.00208555
0.00271138
0.00258995
0.0024765
0.00237005
0.00227078
0.0027862
0.00266116
0.00254432
0.00243494
0.00233218
0.00223644
0.00271078
0.00258924
0.00247566
0.00236938
0.00226933
0.00217631
0.00249649
0.00238537
0.00228145
0.00218416
0.00209238
0.00200735
0.00216088
0.00206667
0.00197847
0.00189635
0.00181854
0.00174572
0.00175091
0.00167665
0.00161346
0.00155341
0.00149427
0.0014426
0.00161279
0.00157625
0.0015425
0.00151218
0.00148405
0.00145822
0.00163982
0.00160854
0.00157921
0.00155144
0.00157253
0.00151595
0.00146405
0.00141358
0.00197944
0.00189264
0.00181125
0.00173561
0.00166467
0.0022998
0.00219786
0.00210261
0.00201273
0.0019297
0.00249722
0.00238621
0.00228248
0.00218493
0.00209436
0.00255611
0.00244211
0.00233556
0.00223577
0.002142
0.00205487
0.00248647
0.00237549
0.00227181
0.00217483
0.00208347
0.00199884
0.0022989
0.00219681
0.0021013
0.00201184
0.00192711
0.00184899
0.00200261
0.00191578
0.00183313
0.00175568
0.00168085
0.00161328
0.00163329
0.0015676
0.00150189
0.00144457
0.00138627
0.0013363
0.00158525
0.00155435
0.00152464
0.0014971
0.00147073
0.00144492
0.0016728
0.00164583
0.00161975
0.00159447
0.00141749
0.00136492
0.00131779
0.00127219
0.00172845
0.00165418
0.00158284
0.00151789
0.00145632
0.00200366
0.0019167
0.0018346
0.00175674
0.0016839
0.00216183
0.0020677
0.00197979
0.00189749
0.00182075
0.00219636
0.00209977
0.00200981
0.00192574
0.00184791
0.00177486
0.00213027
0.00203712
0.0019507
0.00187009
0.00179387
0.00172233
0.00197843
0.00189156
0.00181019
0.00173401
0.00166304
0.00159677
0.00172788
0.00165408
0.00158222
0.0015176
0.00145351
0.00139761
0.00139623
0.0013395
0.00128271
0.00123486
0.00118563
0.001145
0.00157794
0.00154932
0.00152161
0.00149597
0.00147158
0.00144891
0.00169121
0.00166731
0.00164438
0.00162206
0.00114109
0.00110561
0.00107145
0.00104065
0.00139654
0.00133935
0.00128293
0.00123478
0.00118867
0.00163704
0.00156888
0.00150527
0.0014462
0.00139075
0.00175267
0.00167893
0.00161647
0.00155523
0.00149837
0.00176185
0.00168553
0.00161896
0.00156399
0.00151245
0.00146363
0.00171721
0.00165503
0.0015965
0.00154249
0.00148709
0.00143667
0.00163277
0.00157336
0.00151566
0.00146254
0.00141358
0.00136698
0.0014722
0.00141907
0.00136524
0.00131838
0.00127098
0.00123102
0.00117974
0.00114291
0.00110592
0.00107221
0.00104013
0.00101174
0.00162814
0.00160332
0.00157953
0.0015569
0.00153519
0.00151461
0.00196587
0.00194058
0.00191568
0.00189153
0.00160305
0.00157942
0.00155693
0.00153554
0.00157829
0.00154952
0.00152192
0.00149636
0.00147234
0.00158624
0.00155509
0.00152565
0.00149788
0.00147203
0.00161376
0.00157736
0.00154382
0.00151326
0.00148562
0.00163959
0.00160237
0.001567
0.00153475
0.00150539
0.00147836
0.00165661
0.00162145
0.0015883
0.00155753
0.00152823
0.00150091
0.0016732
0.00163992
0.00160862
0.00157923
0.00155126
0.0015249
0.00170141
0.00167284
0.0016459
0.00161978
0.00159444
0.00157014
0.00171653
0.00169141
0.00166755
0.0016445
0.00162206
0.00160034
0.00199256
0.00196636
0.00194055
0.00191588
0.00189147
0.00186787
)
;

boundaryField
{
    inlet
    {
        type            fixedValue;
        value           nonuniform List<scalar> 0();
    }
    ami1
    {
        type            cyclicAMI;
        value           nonuniform List<scalar> 0();
    }
    walls
    {
        type            kqRWallFunction;
        value           nonuniform List<scalar> 
248
(
0.00199206
0.00171608
0.00170093
0.0016724
0.00165519
0.001638
0.00161238
0.00158509
0.00157776
0.0016279
0.00199215
0.00196551
0.00169082
0.0016722
0.00163892
0.00162001
0.00160063
0.00157585
0.00155414
0.00154908
0.00160298
0.00196589
0.0019398
0.00166689
0.00164526
0.00160768
0.0015868
0.0015652
0.00154211
0.00152438
0.0015213
0.00157906
0.00193989
0.00191508
0.00164381
0.00161906
0.00157818
0.00155598
0.001533
0.00151178
0.00149679
0.00149558
0.0015563
0.00191514
0.00189068
0.00162133
0.00159364
0.00155017
0.00152667
0.0015035
0.00148363
0.00147036
0.00147111
0.00153449
0.00189058
0.00186715
0.00159958
0.00156924
0.00152368
0.0014993
0.00147672
0.00145776
0.0014445
0.00144836
0.00151384
0.00186694
0.00199215
0.00171636
0.00170136
0.00167303
0.00165626
0.00163881
0.00161279
0.00158525
0.00157794
0.00162814
0.00199256
0.00196589
0.00169112
0.00167267
0.00163972
0.00162099
0.00160148
0.00157625
0.00155435
0.00154932
0.00160332
0.00196636
0.00193989
0.00166716
0.00164563
0.00160833
0.00158777
0.00156597
0.0015425
0.00152464
0.00152161
0.00157953
0.00194055
0.00191514
0.00164398
0.00161943
0.00157888
0.00155692
0.00153372
0.00151218
0.0014971
0.00149597
0.0015569
0.00191588
0.00189058
0.00162147
0.00159401
0.00155085
0.00152751
0.0015042
0.00148405
0.00147073
0.00147158
0.00153519
0.00189147
0.00186694
0.00159965
0.00156961
0.00152437
0.00150014
0.00147741
0.00145822
0.00144492
0.00144891
0.00151461
0.00186787
0.00157829
0.00158624
0.00161376
0.00163959
0.00165661
0.0016732
0.00170141
0.00171653
0.00199256
0.00196587
0.00160305
0.00154952
0.00155509
0.00157736
0.00160237
0.00162145
0.00163992
0.00167284
0.00169141
0.00196636
0.00194058
0.00157942
0.00152192
0.00152565
0.00154382
0.001567
0.0015883
0.00160862
0.0016459
0.00166755
0.00194055
0.00191568
0.00155693
0.00149636
0.00149788
0.00151326
0.00153475
0.00155753
0.00157923
0.00161978
0.0016445
0.00191588
0.00189153
0.00153554
0.00147234
0.00147203
0.00148562
0.00150539
0.00152823
0.00155126
0.00159444
0.00162206
0.00189147
0.00147836
0.00150091
0.0015249
0.00157014
0.00160034
0.00186787
0.00199206
0.00162778
0.00157771
0.00158555
0.00161291
0.00163891
0.00165628
0.00196551
0.0016028
0.00154885
0.00155421
0.00157653
0.00160177
0.00162122
0.00163982
0.0016728
0.00169121
0.00196587
0.0019398
0.00157898
0.00152127
0.00152497
0.00154299
0.00156639
0.00158816
0.00160854
0.00164583
0.00166731
0.00194058
0.00191508
0.00155635
0.00149564
0.00149712
0.00151258
0.0015342
0.00155728
0.00157921
0.00161975
0.00164438
0.00191568
0.00189068
0.00153467
0.0014713
0.00147107
0.00148457
0.00150478
0.00152825
0.00155144
0.00159447
0.00162206
0.00189153
0.00186715
0.00151416
0.00144868
0.00144534
0.00145874
0.00147799
)
;
    }
    ami2
    {
        type            cyclicAMI;
        value           nonuniform List<scalar> 0();
    }
    outlet
    {
        type            zeroGradient;
    }
    procBoundary7to5
    {
        type            processor;
        value           nonuniform List<scalar> 
131
(
0.00184434
0.00157836
0.00154563
0.00149827
0.0014732
0.00145099
0.00143224
0.00141869
0.00142655
0.00149377
0.00184406
0.00149419
0.000985287
0.00118983
0.00132039
0.00138521
0.00141344
0.00138939
0.0012845
0.00110263
0.000984264
0.0015784
0.001427
0.00110353
0.00134218
0.00153292
0.00165122
0.0017017
0.00167414
0.00154693
0.00134148
0.00118953
0.00154602
0.00141958
0.00128617
0.00154835
0.00177376
0.00191711
0.00197057
0.00192575
0.00177371
0.00153357
0.0013216
0.00149903
0.00143331
0.00139172
0.00167636
0.00192682
0.00208833
0.00214526
0.00208797
0.00191759
0.00165253
0.00138737
0.00147408
0.00145235
0.00150044
0.00141672
0.00143707
0.00170418
0.00172263
0.00197227
0.00199989
0.00214599
0.00217732
0.00220643
0.00214532
0.00197106
0.00170287
0.00141531
0.00145171
0.00150044
0.00143707
0.00172263
0.00199989
0.00217732
0.00217732
0.00214558
0.00208805
0.00192583
0.00167456
0.00139059
0.00143276
0.00152467
0.00136745
0.00159797
0.00185008
0.00200831
0.00200831
0.00197145
0.00191772
0.00177355
0.00154699
0.00128519
0.00141917
0.00157012
0.00123154
0.00139873
0.00161457
0.00174606
0.00174606
0.00170343
0.00165306
0.00153381
0.00134228
0.00110382
0.00142715
0.00160031
0.00101298
0.00114546
0.00133782
0.00144341
0.00144341
0.00141612
0.00138816
0.00132244
0.00119118
0.000985625
0.00149454
0.00186824
0.00151486
0.00144947
0.00144601
0.00145904
0.00145904
0.0014527
0.00147484
0.00149962
0.00154664
0.00157913
0.00184509
)
;
    }
    procBoundary7to8
    {
        type            processor;
        value           nonuniform List<scalar> 
68
(
0.00202006
0.00174342
0.00173243
0.00170802
0.00169344
0.00165483
0.0012191
0.00153182
0.00169858
0.00178306
0.001609
0.0014579
0.00180883
0.00207081
0.00222973
0.00161943
0.00170769
0.00209719
0.00240858
0.00260524
0.00164671
0.00182715
0.00226275
0.00261611
0.00284114
0.00291981
0.00167437
0.00184156
0.00230008
0.00267859
0.00292024
0.00300385
0.00169454
0.00167327
0.00178599
0.0016358
0.00223161
0.00260614
0.00284139
0.00292005
0.00167327
0.0016358
0.0016358
0.00207219
0.00240915
0.00261616
0.00267821
0.00170153
0.00147451
0.00147451
0.00180972
0.00209756
0.00226286
0.00229981
0.00171661
0.00117904
0.00117904
0.00145906
0.00170894
0.00182805
0.00184201
0.00199257
0.00162833
0.00162833
0.00160975
0.00162028
0.00164756
0.00167514
)
;
    }
    procBoundary7to9
    {
        type            processor;
        value           nonuniform List<scalar> 
59
(
0.00167391
0.00164642
0.00161966
0.00160949
0.00165504
0.00202045
0.00183946
0.00182656
0.00170946
0.00146025
0.00122
0.00174387
0.00229857
0.00226222
0.00209746
0.00181078
0.0015351
0.00173322
0.00267771
0.0026158
0.00240889
0.00207213
0.00170226
0.001709
0.00284096
0.00260562
0.00223112
0.00178605
0.00169456
0.00291987
0.00267802
0.00229952
0.00184145
0.00167458
0.0028409
0.00261561
0.00226224
0.00182733
0.00164689
0.00260539
0.00240847
0.002097
0.00170953
0.00161984
0.00223078
0.00207171
0.00180976
0.00145984
0.00160955
0.00178569
0.0017019
0.00153426
0.00122021
0.00165522
0.00169478
0.00170914
0.00173321
0.00174397
0.00202065
)
;
    }
}


// ************************************************************************* //
