/*--------------------------------*- C++ -*----------------------------------*\
| =========                 |                                                 |
| \\      /  F ield         | OpenFOAM: The Open Source CFD Toolbox           |
|  \\    /   O peration     | Version:  2212                                  |
|   \\  /    A nd           | Website:  www.openfoam.com                      |
|    \\/     M anipulation  |                                                 |
\*---------------------------------------------------------------------------*/
FoamFile
{
    version     2.0;
    format      ascii;
    arch        "LSB;label=32;scalar=64";
    class       volScalarField;
    location    "2";
    object      nut;
}
// * * * * * * * * * * * * * * * * * * * * * * * * * * * * * * * * * * * * * //

dimensions      [0 2 -1 0 0 0 0];

internalField   nonuniform List<scalar> 
693
(
3.63757e-06
3.61317e-06
3.58942e-06
3.5665e-06
3.54379e-06
3.52183e-06
7.24254e-06
7.18896e-06
7.13786e-06
7.08829e-06
7.03975e-06
6.99249e-06
1.05053e-05
1.04165e-05
1.03325e-05
1.02501e-05
1.01695e-05
1.00915e-05
1.29205e-05
1.2791e-05
1.26689e-05
1.25525e-05
1.24409e-05
1.23342e-05
1.44195e-05
1.4266e-05
1.41194e-05
1.3982e-05
1.38498e-05
1.37251e-05
1.48784e-05
1.47082e-05
1.45443e-05
1.43937e-05
1.42544e-05
1.41267e-05
1.42381e-05
1.40759e-05
1.39236e-05
1.37854e-05
1.3656e-05
1.35361e-05
1.25863e-05
1.24622e-05
1.23418e-05
1.22291e-05
1.21201e-05
1.20133e-05
1.0124e-05
1.00309e-05
9.94003e-06
9.85528e-06
9.77402e-06
9.69807e-06
7.05605e-06
7.00147e-06
6.94882e-06
6.89843e-06
6.84993e-06
6.80378e-06
3.63768e-06
3.61355e-06
3.58954e-06
3.56658e-06
3.54371e-06
3.52162e-06
7.05577e-06
7.00103e-06
6.94858e-06
6.89847e-06
6.85027e-06
6.80448e-06
8.94573e-06
8.61421e-06
8.2902e-06
8.02414e-06
7.76357e-06
7.58127e-06
2.0564e-05
1.94964e-05
1.87528e-05
1.80873e-05
1.72538e-05
1.68486e-05
3.03612e-05
2.88171e-05
2.81116e-05
2.67877e-05
2.6155e-05
2.51756e-05
3.6149e-05
3.51146e-05
3.39143e-05
3.30633e-05
3.18593e-05
3.07381e-05
3.9643e-05
3.79093e-05
3.64682e-05
3.54886e-05
3.44374e-05
3.34386e-05
3.92337e-05
3.75883e-05
3.61481e-05
3.52102e-05
3.36099e-05
3.28013e-05
3.19286e-05
3.11816e-05
2.94558e-05
2.86765e-05
2.70587e-05
2.64731e-05
2.01465e-05
1.92386e-05
1.80928e-05
1.75708e-05
1.65807e-05
1.6177e-05
8.92691e-06
8.63842e-06
8.274e-06
8.01654e-06
7.74646e-06
7.56095e-06
7.24324e-06
7.18969e-06
7.13853e-06
7.08875e-06
7.04009e-06
6.99268e-06
1.01238e-05
1.00301e-05
9.93985e-06
9.85536e-06
9.77453e-06
9.699e-06
2.02113e-05
1.91113e-05
1.81631e-05
1.75489e-05
1.65829e-05
1.61933e-05
4.14435e-05
3.99026e-05
3.79219e-05
3.66328e-05
3.46307e-05
3.37704e-05
5.94339e-05
5.67084e-05
5.43559e-05
5.17326e-05
5.04244e-05
4.83198e-05
6.96818e-05
6.73184e-05
6.552e-05
6.32444e-05
6.04401e-05
5.77545e-05
7.43851e-05
7.18709e-05
6.95892e-05
6.71362e-05
6.50982e-05
6.27429e-05
7.24825e-05
7.0093e-05
6.76751e-05
6.57408e-05
6.31238e-05
6.03906e-05
6.19507e-05
5.99432e-05
5.69571e-05
5.44538e-05
5.16731e-05
5.05879e-05
4.12004e-05
3.99782e-05
3.7757e-05
3.66304e-05
3.44913e-05
3.36767e-05
2.02763e-05
1.96889e-05
1.86451e-05
1.81015e-05
1.72214e-05
1.6821e-05
1.05069e-05
1.04183e-05
1.03339e-05
1.02514e-05
1.01708e-05
1.00928e-05
1.2588e-05
1.24623e-05
1.23439e-05
1.22302e-05
1.21228e-05
1.20165e-05
3.26389e-05
3.08347e-05
2.99772e-05
2.83718e-05
2.75496e-05
2.63891e-05
6.20741e-05
5.98642e-05
5.7245e-05
5.45259e-05
5.23618e-05
5.03327e-05
8.28072e-05
8.00692e-05
7.73527e-05
7.46703e-05
7.18949e-05
7.03008e-05
9.46484e-05
9.1769e-05
8.89668e-05
8.61829e-05
8.32195e-05
8.13941e-05
9.89841e-05
9.60649e-05
9.32183e-05
9.03753e-05
8.74222e-05
8.55489e-05
9.57779e-05
9.28637e-05
8.99992e-05
8.71867e-05
8.4209e-05
8.23359e-05
8.28485e-05
8.01054e-05
7.73556e-05
7.4656e-05
7.18839e-05
7.02397e-05
5.94164e-05
5.68448e-05
5.43455e-05
5.19489e-05
5.03659e-05
4.82922e-05
2.98463e-05
2.91952e-05
2.78097e-05
2.69259e-05
2.61889e-05
2.52393e-05
1.29234e-05
1.27945e-05
1.26718e-05
1.25556e-05
1.24438e-05
1.23372e-05
1.424e-05
1.40785e-05
1.39272e-05
1.37887e-05
1.36599e-05
1.35404e-05
3.93648e-05
3.7737e-05
3.63808e-05
3.52311e-05
3.38209e-05
3.27957e-05
7.26431e-05
7.02387e-05
6.78976e-05
6.6054e-05
6.34734e-05
6.06067e-05
9.59739e-05
9.30904e-05
9.02593e-05
8.74713e-05
8.45293e-05
8.2626e-05
0.000108716
0.000105625
0.000102595
9.96061e-05
9.64847e-05
9.45339e-05
0.000112714
0.000109599
0.000106534
0.000103509
0.000100345
9.83595e-05
0.000108553
0.000105481
0.000102463
9.94803e-05
9.6331e-05
9.44098e-05
9.48626e-05
9.19742e-05
8.91824e-05
8.6388e-05
8.33964e-05
8.15142e-05
6.99379e-05
6.75897e-05
6.57964e-05
6.34623e-05
6.06078e-05
5.79358e-05
3.62723e-05
3.52784e-05
3.38931e-05
3.32933e-05
3.18184e-05
3.10041e-05
1.44249e-05
1.4271e-05
1.41242e-05
1.39865e-05
1.38539e-05
1.37291e-05
1.48822e-05
1.47131e-05
1.45496e-05
1.43991e-05
1.42602e-05
1.41324e-05
3.98386e-05
3.81061e-05
3.66365e-05
3.56104e-05
3.4688e-05
3.3587e-05
7.47459e-05
7.22663e-05
6.99854e-05
6.75452e-05
6.58727e-05
6.27506e-05
9.95081e-05
9.65863e-05
9.37318e-05
9.08598e-05
8.80619e-05
8.57863e-05
0.000113141
0.000109995
0.000106908
0.000103838
0.00010079
9.83878e-05
0.000117328
0.000114121
0.000110971
0.000107864
0.000104658
0.000102529
0.000112837
0.000109705
0.000106627
0.000103588
0.000100408
9.84158e-05
9.93015e-05
9.63582e-05
9.34895e-05
9.06186e-05
8.76587e-05
8.5743e-05
7.46353e-05
7.2129e-05
6.9841e-05
6.73323e-05
6.53767e-05
6.29396e-05
3.98197e-05
3.80724e-05
3.65962e-05
3.55991e-05
3.4586e-05
3.35659e-05
1.48827e-05
1.47127e-05
1.45484e-05
1.43975e-05
1.42579e-05
1.41301e-05
1.44243e-05
1.42713e-05
1.41253e-05
1.39876e-05
1.38567e-05
3.62598e-05
3.53269e-05
3.39444e-05
3.33893e-05
3.20175e-05
7.00532e-05
6.77048e-05
6.59331e-05
6.36401e-05
6.06649e-05
9.50573e-05
9.21936e-05
8.94358e-05
8.64979e-05
8.45882e-05
0.000108904
0.000105835
0.000102837
9.97429e-05
9.75547e-05
0.000112961
0.000109829
0.000106755
0.000103703
0.000100651
9.82001e-05
0.000108549
0.000105494
0.000102491
9.9521e-05
9.64095e-05
9.44863e-05
9.58027e-05
9.29143e-05
9.00607e-05
8.72781e-05
8.43278e-05
8.24352e-05
7.25432e-05
7.01681e-05
6.77345e-05
6.58279e-05
6.32504e-05
6.05459e-05
3.93037e-05
3.76559e-05
3.61633e-05
3.52472e-05
3.36249e-05
3.29416e-05
1.42403e-05
1.4078e-05
1.39256e-05
1.37875e-05
1.3658e-05
1.35384e-05
1.27945e-05
1.26723e-05
1.25565e-05
1.24458e-05
2.87523e-05
2.79943e-05
2.70448e-05
2.60307e-05
5.95877e-05
5.68952e-05
5.43865e-05
5.24167e-05
5.02326e-05
8.29584e-05
8.02595e-05
7.75813e-05
7.47179e-05
7.30347e-05
9.59852e-05
9.31165e-05
9.03225e-05
8.74097e-05
8.54835e-05
9.92643e-05
9.63503e-05
9.35083e-05
9.06382e-05
8.78539e-05
8.55901e-05
9.46746e-05
9.18381e-05
8.90674e-05
8.63151e-05
8.34201e-05
8.15771e-05
8.27575e-05
8.00575e-05
7.73045e-05
7.46266e-05
7.18579e-05
7.02758e-05
6.19051e-05
5.99474e-05
5.70229e-05
5.44875e-05
5.16999e-05
5.06191e-05
3.19802e-05
3.11723e-05
2.94753e-05
2.87047e-05
2.71143e-05
2.65198e-05
1.25873e-05
1.24634e-05
1.23431e-05
1.22306e-05
1.21219e-05
1.20152e-05
1.04185e-05
1.03343e-05
1.02523e-05
1.01721e-05
1.95269e-05
1.87585e-05
1.81133e-05
1.73962e-05
4.15026e-05
3.99213e-05
3.79574e-05
3.68117e-05
3.50962e-05
6.21019e-05
5.99462e-05
5.73266e-05
5.46735e-05
5.24071e-05
7.2641e-05
7.02438e-05
6.792e-05
6.59449e-05
6.34603e-05
7.46114e-05
7.21436e-05
6.98353e-05
6.73471e-05
6.56256e-05
6.27945e-05
6.97824e-05
6.75014e-05
6.5562e-05
6.34559e-05
6.07922e-05
5.80869e-05
5.9364e-05
5.67963e-05
5.42762e-05
5.20247e-05
5.03177e-05
4.83533e-05
4.14798e-05
4.00145e-05
3.78789e-05
3.6734e-05
3.45732e-05
3.37772e-05
2.02354e-05
1.91889e-05
1.81585e-05
1.75926e-05
1.66303e-05
1.62184e-05
1.01249e-05
1.00321e-05
9.94137e-06
9.85685e-06
9.77588e-06
9.70018e-06
7.18988e-06
7.13884e-06
7.08958e-06
7.04131e-06
8.60803e-06
8.32539e-06
8.01094e-06
7.79484e-06
2.02482e-05
1.91844e-05
1.81418e-05
1.75929e-05
1.68016e-05
3.26451e-05
3.10375e-05
2.98074e-05
2.866e-05
2.74699e-05
3.94258e-05
3.77962e-05
3.65043e-05
3.52733e-05
3.39413e-05
3.98398e-05
3.81202e-05
3.66569e-05
3.56977e-05
3.45402e-05
3.36391e-05
3.61758e-05
3.5269e-05
3.39037e-05
3.3321e-05
3.18844e-05
3.10295e-05
2.98319e-05
2.91961e-05
2.78485e-05
2.69224e-05
2.62452e-05
2.53009e-05
2.03962e-05
1.97337e-05
1.87192e-05
1.81661e-05
1.72864e-05
1.68852e-05
8.9445e-06
8.64611e-06
8.30206e-06
8.03577e-06
7.77813e-06
7.58017e-06
7.05679e-06
7.00244e-06
6.95009e-06
6.9e-06
6.85174e-06
6.80578e-06
3.61355e-06
3.59016e-06
3.56708e-06
3.54459e-06
7.00171e-06
6.94967e-06
6.89984e-06
6.85221e-06
1.01258e-05
1.00325e-05
9.94226e-06
9.85795e-06
9.77822e-06
1.25908e-05
1.24661e-05
1.2347e-05
1.22336e-05
1.21273e-05
1.42436e-05
1.40824e-05
1.39312e-05
1.37921e-05
1.36652e-05
1.48852e-05
1.47161e-05
1.45527e-05
1.44021e-05
1.42635e-05
1.41347e-05
1.44259e-05
1.42725e-05
1.41263e-05
1.39892e-05
1.38572e-05
1.37327e-05
1.29239e-05
1.27953e-05
1.2673e-05
1.2557e-05
1.24457e-05
1.23396e-05
1.05072e-05
1.04189e-05
1.03349e-05
1.02527e-05
1.01724e-05
1.00948e-05
7.24375e-06
7.19046e-06
7.13954e-06
7.09005e-06
7.04159e-06
6.9944e-06
3.63815e-06
3.61407e-06
3.59025e-06
3.56738e-06
3.54466e-06
3.52263e-06
)
;

boundaryField
{
    inlet
    {
        type            calculated;
        value           nonuniform List<scalar> 0();
    }
    ami1
    {
        type            cyclicAMI;
        value           nonuniform List<scalar> 0();
    }
    walls
    {
        type            nutkWallFunction;
        blending        stepwise;
        value           uniform 0;
    }
    ami2
    {
        type            cyclicAMI;
        value           nonuniform List<scalar> 0();
    }
    outlet
    {
        type            calculated;
        value           nonuniform List<scalar> 0();
    }
    procBoundary7to5
    {
        type            processor;
        value           nonuniform List<scalar> 
131
(
3.50053e-06
6.9463e-06
1.00157e-05
1.22314e-05
1.36054e-05
1.4003e-05
1.34169e-05
1.19052e-05
9.62492e-06
6.75891e-06
3.50021e-06
6.75993e-06
7.42323e-06
1.61162e-05
2.42968e-05
2.96265e-05
3.23356e-05
3.12202e-05
2.49492e-05
1.54075e-05
7.40541e-06
6.94633e-06
9.6263e-06
1.54388e-05
3.17429e-05
4.62395e-05
5.46941e-05
5.87153e-05
5.66904e-05
4.7461e-05
3.16352e-05
1.6096e-05
1.00169e-05
1.19086e-05
2.50579e-05
4.80036e-05
6.58459e-05
7.6245e-05
8.01846e-05
7.71241e-05
6.57866e-05
4.62627e-05
2.43306e-05
1.22345e-05
1.34217e-05
3.13579e-05
5.72931e-05
7.74029e-05
8.91817e-05
9.29923e-05
8.91203e-05
7.64101e-05
5.48376e-05
2.9726e-05
1.36095e-05
1.40092e-05
1.37302e-05
3.25261e-05
3.1016e-05
5.87774e-05
5.75079e-05
8.0372e-05
8.0083e-05
9.29221e-05
9.27534e-05
9.71096e-05
9.30885e-05
8.04329e-05
5.8921e-05
3.24865e-05
1.40065e-05
1.37302e-05
3.1016e-05
5.75079e-05
8.0083e-05
9.27534e-05
9.27534e-05
9.28309e-05
8.92143e-05
7.72814e-05
5.68173e-05
3.1338e-05
1.34194e-05
1.23384e-05
2.53038e-05
4.84014e-05
6.90691e-05
8.09357e-05
8.09357e-05
8.05535e-05
7.65693e-05
6.58573e-05
4.753e-05
2.49954e-05
1.19073e-05
1.00945e-05
1.68588e-05
3.35882e-05
5.03242e-05
5.96933e-05
5.96933e-05
5.87969e-05
5.49403e-05
4.63381e-05
3.17057e-05
1.54483e-05
9.62718e-06
6.99411e-06
7.62466e-06
1.61501e-05
2.64206e-05
3.26909e-05
3.26909e-05
3.2382e-05
2.97826e-05
2.43928e-05
1.61496e-05
7.42354e-06
6.76093e-06
3.52287e-06
6.80607e-06
9.70175e-06
1.20196e-05
1.35422e-05
1.35422e-05
1.40115e-05
1.3613e-05
1.22373e-05
1.00192e-05
6.9482e-06
3.50132e-06
)
;
    }
    procBoundary7to8
    {
        type            processor;
        value           nonuniform List<scalar> 
68
(
3.66318e-06
7.30025e-06
1.0602e-05
1.30568e-05
1.45846e-05
7.11488e-06
9.22409e-06
2.1229e-05
3.12087e-05
3.75569e-05
1.02245e-05
2.09139e-05
4.31813e-05
6.2153e-05
7.25691e-05
1.27224e-05
3.36638e-05
6.4043e-05
8.58993e-05
9.80911e-05
1.43875e-05
4.11407e-05
7.55251e-05
9.93506e-05
0.000112357
0.000116452
1.50407e-05
4.18105e-05
7.77676e-05
0.000102956
0.000116821
0.000121122
1.45897e-05
1.29238e-05
3.77393e-05
3.03929e-05
7.2894e-05
9.84293e-05
0.000112493
0.000116669
1.29238e-05
3.03929e-05
3.03929e-05
6.23044e-05
8.60167e-05
9.93594e-05
0.000102761
1.05072e-05
2.05074e-05
2.05074e-05
4.32416e-05
6.4091e-05
7.55253e-05
7.76626e-05
7.24375e-06
8.89521e-06
8.89521e-06
2.09451e-05
3.37502e-05
4.11955e-05
4.18147e-05
3.63809e-06
7.05716e-06
7.05716e-06
1.02268e-05
1.27253e-05
1.43905e-05
1.50435e-05
)
;
    }
    procBoundary7to9
    {
        type            processor;
        value           nonuniform List<scalar> 
59
(
1.50389e-05
1.43866e-05
1.27234e-05
1.02259e-05
7.11531e-06
3.66357e-06
4.16476e-05
4.11043e-05
3.39528e-05
2.10193e-05
9.24087e-06
7.3013e-06
7.74684e-05
7.54174e-05
6.41131e-05
4.37069e-05
2.14508e-05
1.06045e-05
0.000102523
9.92131e-05
8.59542e-05
6.23827e-05
3.16345e-05
1.3061e-05
0.000112205
9.82787e-05
7.28244e-05
3.7783e-05
1.45906e-05
0.000116566
0.000102804
7.76853e-05
4.18126e-05
1.50424e-05
0.000112197
9.92276e-05
7.54599e-05
4.11648e-05
1.4389e-05
9.81042e-05
8.58838e-05
6.40528e-05
3.39402e-05
1.27246e-05
7.2679e-05
6.23016e-05
4.33051e-05
2.10217e-05
1.02266e-05
3.77282e-05
3.15997e-05
2.1299e-05
9.24378e-06
7.11606e-06
1.45906e-05
1.30613e-05
1.06048e-05
7.30174e-06
3.66387e-06
)
;
    }
}


// ************************************************************************* //
