/*--------------------------------*- C++ -*----------------------------------*\
| =========                 |                                                 |
| \\      /  F ield         | OpenFOAM: The Open Source CFD Toolbox           |
|  \\    /   O peration     | Version:  2212                                  |
|   \\  /    A nd           | Website:  www.openfoam.com                      |
|    \\/     M anipulation  |                                                 |
\*---------------------------------------------------------------------------*/
FoamFile
{
    version     2.0;
    format      ascii;
    arch        "LSB;label=32;scalar=64";
    class       volScalarField;
    location    "2";
    object      p;
}
// * * * * * * * * * * * * * * * * * * * * * * * * * * * * * * * * * * * * * //

dimensions      [0 2 -2 0 0 0 0];

internalField   nonuniform List<scalar> 
693
(
0.00188326
0.00176424
0.00164565
0.00152799
0.00141115
0.00129538
0.00187407
0.00175588
0.0016377
0.00152024
0.00140361
0.00128814
0.00186607
0.00174789
0.00162984
0.00151283
0.00139664
0.00128184
0.00186936
0.00174919
0.00163038
0.00151284
0.00139639
0.00128156
0.00187783
0.00175713
0.0016378
0.00152006
0.0014039
0.00128875
0.0018846
0.00176385
0.00164371
0.00152509
0.00140834
0.0012931
0.00188694
0.00176622
0.00164598
0.00152751
0.00141089
0.00129588
0.00188558
0.00176574
0.00164758
0.00153082
0.00141484
0.00129997
0.00188639
0.00176736
0.00164958
0.00153279
0.00141648
0.00130093
0.00189351
0.00177351
0.00165464
0.00153652
0.00141932
0.0013031
0.00188372
0.00176452
0.00164608
0.00152823
0.00141136
0.00129553
0.00189294
0.00177307
0.00165406
0.00153612
0.00141896
0.00130283
0.00189306
0.00177363
0.00165436
0.00153626
0.00141896
0.0013029
0.00187938
0.00176015
0.00164208
0.00152498
0.00140879
0.00129407
0.00188354
0.00176366
0.00164515
0.00152735
0.00141073
0.00129523
0.00188764
0.00176751
0.00164869
0.00153118
0.00141465
0.00129882
0.00188999
0.00176971
0.00165073
0.00153284
0.00141606
0.00130061
0.00188883
0.00176843
0.00164883
0.00153047
0.0014138
0.00129846
0.00188514
0.00176541
0.00164613
0.0015277
0.0014106
0.00129544
0.00188448
0.00176528
0.0016472
0.00153018
0.00141392
0.00129894
0.00189356
0.00177386
0.00165483
0.00153651
0.00141921
0.0013031
0.00187439
0.00175599
0.00163798
0.00152036
0.00140368
0.00128817
0.00188575
0.00176684
0.001649
0.00153243
0.00141613
0.00130069
0.00188374
0.00176482
0.00164686
0.00152986
0.00141359
0.00129888
0.00185873
0.0017402
0.00162347
0.0015071
0.00139172
0.00127738
0.00185497
0.00173541
0.00161734
0.00150053
0.00138469
0.00126916
0.00185125
0.00173212
0.00161401
0.00149661
0.00137962
0.00126346
0.00185096
0.00173185
0.00161405
0.00149672
0.00137963
0.00126333
0.00185081
0.00173125
0.00161289
0.00149517
0.00137838
0.0012624
0.00185265
0.00173363
0.00161534
0.00149822
0.00138259
0.00126787
0.0018588
0.00174047
0.00162343
0.00150727
0.00139175
0.00127734
0.00187981
0.00176043
0.00164223
0.00152497
0.00140882
0.00129411
0.00186636
0.00174781
0.00163001
0.00151278
0.00139659
0.00128178
0.00188477
0.00176535
0.00164724
0.00153051
0.00141447
0.00130004
0.00188469
0.0017649
0.00164575
0.00152726
0.00141048
0.00129531
0.00185291
0.00173354
0.0016153
0.00149827
0.00138275
0.00126771
0.00184556
0.00172539
0.00160643
0.00148903
0.00137273
0.00125666
0.00183882
0.00171926
0.00160048
0.00148215
0.0013646
0.00124746
0.00183778
0.00171818
0.00159945
0.00148127
0.00136364
0.001246
0.0018384
0.00171864
0.00159988
0.00148172
0.00136413
0.00124676
0.00184542
0.00172528
0.00160626
0.00148877
0.00137256
0.00125655
0.00185473
0.00173544
0.00161727
0.00150068
0.00138469
0.00126909
0.00188359
0.00176388
0.00164508
0.00152743
0.00141081
0.00129524
0.00186956
0.00174908
0.00163038
0.00151251
0.00139616
0.00128145
0.00188623
0.00176569
0.00164571
0.00152732
0.00141077
0.00129588
0.00188849
0.00176797
0.00164836
0.00153007
0.00141363
0.00129819
0.00185088
0.00173129
0.00161284
0.00149517
0.00137833
0.0012624
0.00183849
0.00171874
0.00160001
0.00148183
0.00136415
0.0012468
0.00182992
0.00171012
0.00159119
0.00147283
0.00135518
0.00123745
0.00182817
0.00170836
0.00158942
0.00147106
0.0013534
0.00123564
0.00182986
0.00171004
0.00159111
0.00147275
0.00135512
0.00123742
0.00183874
0.00171914
0.00160032
0.00148195
0.00136437
0.00124723
0.00185109
0.00173195
0.00161392
0.00149654
0.00137949
0.00126329
0.0018875
0.00176744
0.00164858
0.00153122
0.00141467
0.0012988
0.00187789
0.00175718
0.00163771
0.00151987
0.00140369
0.0012886
0.00188402
0.00176342
0.00164342
0.0015248
0.00140817
0.00129315
0.0018896
0.00176931
0.00165037
0.00153255
0.00141604
0.00130078
0.00185091
0.00173177
0.00161397
0.00149666
0.00137947
0.00126313
0.00183782
0.00171818
0.00159941
0.00148121
0.00136322
0.00124538
0.0018282
0.00170833
0.00158932
0.00147095
0.00135305
0.00123519
0.0018255
0.00170563
0.00158662
0.0014682
0.00135043
0.00123267
0.00182815
0.00170831
0.00158935
0.00147098
0.00135331
0.00123555
0.00183774
0.00171809
0.00159931
0.0014811
0.00136343
0.00124573
0.00185089
0.00173171
0.0016139
0.00149658
0.00137947
0.00126308
0.00188982
0.0017695
0.00165055
0.00153267
0.00141591
0.00130047
0.00188451
0.00176379
0.00164361
0.00152489
0.00140808
0.0012929
0.00187741
0.00175675
0.00163731
0.00151961
0.00140375
0.00188716
0.00176707
0.0016485
0.00153117
0.00141476
0.00185106
0.00173194
0.00161405
0.00149651
0.00137933
0.00183878
0.00171918
0.00160033
0.00148193
0.0013639
0.0018299
0.00171006
0.00159107
0.0014728
0.00135454
0.00182815
0.00170831
0.00158933
0.00147098
0.00135313
0.00123538
0.00182985
0.00171006
0.00159113
0.00147279
0.00135514
0.00123742
0.00183833
0.00171856
0.00159979
0.00148161
0.00136401
0.00124659
0.00185065
0.00173105
0.00161267
0.00149496
0.00137825
0.00126225
0.00188856
0.00176813
0.00164855
0.00153018
0.00141351
0.00129817
0.00188679
0.00176609
0.0016458
0.00152721
0.00141044
0.0012954
0.00174892
0.00162974
0.00151236
0.00139637
0.00176333
0.00164479
0.00152722
0.0014108
0.00185459
0.00173508
0.00161751
0.00150062
0.00138432
0.0018454
0.00172522
0.00160636
0.00148871
0.00137203
0.00183837
0.00171859
0.00159976
0.00148157
0.00136346
0.0018377
0.00171805
0.00159926
0.00148109
0.00136319
0.00124547
0.00183867
0.00171909
0.00160032
0.00148202
0.00136438
0.00124714
0.00184532
0.00172518
0.00160614
0.00148856
0.00137229
0.00125627
0.00185257
0.00173344
0.00161514
0.00149796
0.00138225
0.00126744
0.00188482
0.00176503
0.00164584
0.00152738
0.00141021
0.00129496
0.0018854
0.00176551
0.00164723
0.00153039
0.00141438
0.00129952
0.00174736
0.00162924
0.00151221
0.00139641
0.00175994
0.00164151
0.00152437
0.00140873
0.00185844
0.00173996
0.0016232
0.00150732
0.00139164
0.00185274
0.00173323
0.00161517
0.00149818
0.00138228
0.00185077
0.00173112
0.00161258
0.00149469
0.00137771
0.0018508
0.00173159
0.00161369
0.00149623
0.00137901
0.00126259
0.00185098
0.00173185
0.00161377
0.00149634
0.00137923
0.00126299
0.00185471
0.00173532
0.00161702
0.0015003
0.00138426
0.00126863
0.00185873
0.00174022
0.00162315
0.00150689
0.00139129
0.00127675
0.00188403
0.00176489
0.0016468
0.00152976
0.00141345
0.0012984
0.00188612
0.00176707
0.00164913
0.00153234
0.00141601
0.00130044
0.00175522
0.00163707
0.00151959
0.00140314
0.00177312
0.00165375
0.00153532
0.00141845
0.00188331
0.00176451
0.00164632
0.00152918
0.00141337
0.00188447
0.00176451
0.00164537
0.00152702
0.00141008
0.00188835
0.0017677
0.0016481
0.00152977
0.00141319
0.00188952
0.00176916
0.00165009
0.00153206
0.00141528
0.00129981
0.00188716
0.00176709
0.00164809
0.00153054
0.00141396
0.00129812
0.00188333
0.00176351
0.00164456
0.00152682
0.00141017
0.00129451
0.00187938
0.00175999
0.00164176
0.00152446
0.00140822
0.00129342
0.00189301
0.00177336
0.00165426
0.00153596
0.00141864
0.0013025
0.00189311
0.00177309
0.00165413
0.00153602
0.00141882
0.00130261
0.00176363
0.00164506
0.00152726
0.00141057
0.00177244
0.00165344
0.00153532
0.00141827
0.00188532
0.0017664
0.00164847
0.00153153
0.00141561
0.00188442
0.00176508
0.00164677
0.00152989
0.00141407
0.00188599
0.00176538
0.00164534
0.00152688
0.00141031
0.00188387
0.00176314
0.00164304
0.00152444
0.00140763
0.00129231
0.00187734
0.00175651
0.00163703
0.00151917
0.00140297
0.00128781
0.00186905
0.00174849
0.00162979
0.00151187
0.00139542
0.00128065
0.00186572
0.00174723
0.00162947
0.00151224
0.00139601
0.00128113
0.00187384
0.00175542
0.00163739
0.00151979
0.0014031
0.00128756
0.00188326
0.00176403
0.00164553
0.00152771
0.00141081
0.00129497
)
;

boundaryField
{
    inlet
    {
        type            zeroGradient;
    }
    ami1
    {
        type            cyclicAMI;
        value           nonuniform List<scalar> 0();
    }
    walls
    {
        type            zeroGradient;
    }
    ami2
    {
        type            cyclicAMI;
        value           nonuniform List<scalar> 0();
    }
    outlet
    {
        type            fixedValue;
        value           nonuniform List<scalar> 0();
    }
    procBoundary7to5
    {
        type            processor;
        value           nonuniform List<scalar> 
131
(
0.00118135
0.0011745
0.00116884
0.00116795
0.00117418
0.00117901
0.00118231
0.00118664
0.001187
0.00118867
0.00118149
0.00118843
0.00118875
0.00118035
0.00117999
0.00118326
0.00118549
0.00118324
0.00118142
0.00118538
0.00118894
0.00117451
0.0011867
0.00118517
0.00116289
0.00115364
0.00114806
0.00114787
0.00114659
0.00115259
0.00116297
0.00118045
0.00116877
0.00118643
0.0011811
0.00115281
0.0011407
0.00113104
0.00112921
0.00113017
0.00114034
0.0011535
0.00118007
0.00116799
0.00118214
0.00118319
0.001147
0.00113025
0.00112035
0.00111846
0.0011203
0.00113076
0.0011476
0.00118311
0.00117446
0.00117916
0.00128886
0.00118563
0.00129876
0.00114772
0.00126298
0.0011289
0.00124671
0.0011183
0.0012368
0.00111554
0.00111835
0.0011289
0.00114742
0.00118527
0.00117901
0.00128886
0.00129876
0.00126298
0.00124671
0.0012368
0.0012368
0.00111861
0.00112032
0.00112996
0.0011463
0.00118293
0.00118196
0.00128168
0.00129508
0.00126831
0.00125566
0.00124615
0.00124615
0.00112917
0.00113069
0.00114006
0.00115213
0.00118092
0.00118616
0.00128195
0.001294
0.00127654
0.00126689
0.00126161
0.00126161
0.00114711
0.00114733
0.001153
0.0011623
0.00118478
0.00118643
0.00128817
0.00130287
0.00129847
0.00129462
0.00129747
0.00129747
0.00118452
0.00118239
0.00117927
0.0011797
0.00118831
0.00118813
0.00129525
0.00130256
0.00130039
0.00129924
0.00129511
0.00129511
0.00117803
0.0011735
0.00116706
0.00116803
0.00117382
0.00118087
)
;
    }
    procBoundary7to8
    {
        type            processor;
        value           nonuniform List<scalar> 
68
(
0.0020038
0.0019932
0.0019852
0.0019913
0.00199975
0.00201486
0.00201401
0.00199992
0.00200455
0.00200872
0.00200667
0.00200356
0.00197779
0.00197538
0.00197159
0.00200541
0.00200523
0.0019727
0.00196644
0.00195958
0.00200724
0.00200986
0.0019716
0.00195939
0.00195089
0.00194914
0.00200505
0.00201103
0.00197182
0.00195875
0.00194919
0.00194647
0.00199932
0.00186911
0.00200821
0.0018831
0.00197139
0.00195957
0.00195089
0.00194914
0.00186911
0.0018831
0.0018831
0.00197498
0.00196629
0.00195931
0.00195864
0.00186572
0.00187901
0.00187901
0.00197742
0.00197256
0.00197155
0.00197176
0.00187378
0.00189265
0.00189265
0.00200321
0.00200507
0.00200978
0.00201102
0.00188296
0.00189265
0.00189265
0.00200636
0.00200519
0.00200708
0.00200502
)
;
    }
    procBoundary7to9
    {
        type            processor;
        value           nonuniform List<scalar> 
59
(
0.00200568
0.00200798
0.00200651
0.00200733
0.00201539
0.00200424
0.00201145
0.00201009
0.00200557
0.00200418
0.00201453
0.00199352
0.00197188
0.00197159
0.00197242
0.00197785
0.00200018
0.00198559
0.00195871
0.00195936
0.00196637
0.00197523
0.00200446
0.00199169
0.00195086
0.00195958
0.00197153
0.00200855
0.00199979
0.00194914
0.00195871
0.00197187
0.00201131
0.00200557
0.00195082
0.00195928
0.00197143
0.00200988
0.00200784
0.00195946
0.0019662
0.00197223
0.00200541
0.00200634
0.00197135
0.00197503
0.00197771
0.002004
0.00200702
0.00200822
0.00200413
0.00199992
0.00201419
0.00201507
0.00199938
0.00199131
0.00198528
0.00199316
0.00200391
)
;
    }
}


// ************************************************************************* //
