/*--------------------------------*- C++ -*----------------------------------*\
| =========                 |                                                 |
| \\      /  F ield         | OpenFOAM: The Open Source CFD Toolbox           |
|  \\    /   O peration     | Version:  2212                                  |
|   \\  /    A nd           | Website:  www.openfoam.com                      |
|    \\/     M anipulation  |                                                 |
\*---------------------------------------------------------------------------*/
FoamFile
{
    version     2.0;
    format      ascii;
    arch        "LSB;label=32;scalar=64";
    class       surfaceScalarField;
    location    "2";
    object      phi;
}
// * * * * * * * * * * * * * * * * * * * * * * * * * * * * * * * * * * * * * //

dimensions      [0 3 -1 0 0 0 0];

oriented        oriented;

internalField   nonuniform List<scalar> 
1826
(
6.18313e-08
-3.39315e-08
3.46608e-08
6.1138e-08
-3.39935e-08
3.46868e-08
6.04607e-08
-3.40227e-08
3.47e-08
5.97993e-08
-3.4039e-08
3.47003e-08
5.9147e-08
-3.40496e-08
3.47019e-08
-3.40631e-08
3.47047e-08
1.99815e-07
-6.38946e-08
3.2071e-08
1.97784e-07
-6.40122e-08
3.20498e-08
1.9578e-07
-6.40641e-08
3.20457e-08
1.93813e-07
-6.41061e-08
3.20343e-08
1.91874e-07
-6.41425e-08
3.20312e-08
-6.4193e-08
3.20359e-08
3.90206e-07
-8.89521e-08
2.90764e-08
3.86288e-07
-8.89796e-08
2.88847e-08
3.82444e-07
-8.89889e-08
2.87696e-08
3.7867e-07
-8.89872e-08
2.86549e-08
3.74952e-07
-8.89973e-08
2.85728e-08
-8.90252e-08
2.84985e-08
5.57511e-07
-1.07053e-07
2.42821e-08
5.51488e-07
-1.07082e-07
2.41251e-08
5.45611e-07
-1.07094e-07
2.39823e-08
5.39876e-07
-1.07105e-07
2.38533e-08
5.34265e-07
-1.07131e-07
2.37443e-08
-1.07145e-07
2.36263e-08
6.6924e-07
-1.17077e-07
1.73092e-08
6.62091e-07
-1.17113e-07
1.71804e-08
6.55074e-07
-1.17116e-07
1.70388e-08
6.4819e-07
-1.17104e-07
1.68824e-08
6.41441e-07
-1.17097e-07
1.67142e-08
-1.17115e-07
1.65626e-08
6.96863e-07
-1.18111e-07
8.09421e-09
6.89928e-07
-1.18106e-07
7.92826e-09
6.83143e-07
-1.18101e-07
7.76963e-09
6.76537e-07
-1.18112e-07
7.61439e-09
6.70118e-07
-1.18131e-07
7.45223e-09
-1.18157e-07
7.27858e-09
6.3967e-07
-1.09738e-07
-2.36632e-09
6.33816e-07
-1.09719e-07
-2.53337e-09
6.2811e-07
-1.09698e-07
-2.69627e-09
6.22559e-07
-1.09651e-07
-2.90991e-09
6.17168e-07
-1.09613e-07
-3.12707e-09
-1.09577e-07
-3.33241e-09
5.15827e-07
-9.20651e-08
-1.31285e-08
5.11384e-07
-9.20464e-08
-1.32293e-08
5.07092e-07
-9.19722e-08
-1.34338e-08
5.02999e-07
-9.18574e-08
-1.37004e-08
4.99023e-07
-9.17647e-08
-1.38726e-08
-9.16739e-08
-1.39837e-08
3.54938e-07
-6.64882e-08
-2.24433e-08
3.51848e-07
-6.64486e-08
-2.2508e-08
3.48792e-07
-6.64085e-08
-2.25075e-08
3.4577e-07
-6.63523e-08
-2.24826e-08
3.4277e-07
-6.62992e-08
-2.24658e-08
-6.62496e-08
-2.24506e-08
1.87339e-07
-3.46513e-08
-2.99088e-08
1.85473e-07
-3.46776e-08
-2.99049e-08
1.83657e-07
-3.46885e-08
-2.99037e-08
1.8189e-07
-3.46908e-08
-2.9895e-08
1.80167e-07
-3.46913e-08
-2.98849e-08
-3.46956e-08
-2.98618e-08
6.18396e-08
-3.39247e-08
6.11426e-08
-3.39807e-08
6.04651e-08
-3.4011e-08
5.97993e-08
-3.4025e-08
5.91437e-08
-3.40358e-08
-3.40506e-08
1.87329e-07
-2.99139e-08
6.65096e-08
1.85471e-07
-2.99216e-08
6.64658e-08
1.8366e-07
-2.99094e-08
6.64211e-08
1.81909e-07
-2.99084e-08
6.6359e-08
1.80197e-07
-2.98957e-08
6.63097e-08
-2.98752e-08
6.62575e-08
5.00684e-07
-5.53486e-08
6.06545e-08
4.97511e-07
-5.53736e-08
6.06754e-08
4.94332e-07
-5.5393e-08
6.0708e-08
4.91157e-07
-5.5427e-08
6.07281e-08
4.87966e-07
-5.54342e-08
6.07608e-08
-5.5429e-08
6.07992e-08
8.11855e-07
-7.7427e-08
5.30938e-08
8.09799e-07
-7.74624e-08
5.30295e-08
8.07615e-07
-7.74435e-08
5.30041e-08
8.05322e-07
-7.74347e-08
5.29558e-08
8.02896e-07
-7.73924e-08
5.29575e-08
-7.73503e-08
5.29683e-08
1.03608e-06
-9.33467e-08
4.16315e-08
1.03455e-06
-9.33399e-08
4.1537e-08
1.03294e-06
-9.33161e-08
4.14664e-08
1.03124e-06
-9.33051e-08
4.14183e-08
1.02946e-06
-9.32795e-08
4.14114e-08
-9.32593e-08
4.13575e-08
1.16867e-06
-1.01953e-07
2.70545e-08
1.16742e-06
-1.0193e-07
2.70147e-08
1.1661e-06
-1.01914e-07
2.69654e-08
1.16468e-06
-1.01894e-07
2.68891e-08
1.16319e-06
-1.01878e-07
2.67967e-08
-1.0188e-07
2.67073e-08
1.20198e-06
-1.02915e-07
9.75372e-09
1.20126e-06
-1.02927e-07
9.6509e-09
1.20047e-06
-1.02947e-07
9.59494e-09
1.19958e-06
-1.0296e-07
9.56425e-09
1.19861e-06
-1.02983e-07
9.52729e-09
-1.03007e-07
9.43297e-09
1.14198e-06
-9.61921e-08
-8.79579e-09
1.14168e-06
-9.62737e-08
-8.88739e-09
1.14133e-06
-9.63504e-08
-8.93538e-09
1.14089e-06
-9.6413e-08
-9.02255e-09
1.14037e-06
-9.6484e-08
-9.10732e-09
-9.65651e-08
-9.20503e-09
1.00171e-06
-8.21112e-08
-2.68549e-08
1.00128e-06
-8.2181e-08
-2.68976e-08
1.00076e-06
-8.22953e-08
-2.69673e-08
1.00011e-06
-8.24327e-08
-2.7029e-08
9.99331e-07
-8.25676e-08
-2.70103e-08
-8.26958e-08
-2.69717e-08
7.86072e-07
-6.06416e-08
-4.22803e-08
7.84355e-07
-6.06643e-08
-4.23077e-08
7.82521e-07
-6.06871e-08
-4.22812e-08
7.80545e-07
-6.07131e-08
-4.22265e-08
7.78399e-07
-6.07386e-08
-4.2149e-08
-6.07842e-08
-4.20435e-08
5.00719e-07
-3.20619e-08
-5.53323e-08
4.97532e-07
-3.20502e-08
-5.53324e-08
4.94344e-07
-3.2035e-08
-5.53671e-08
4.91152e-07
-3.20301e-08
-5.53867e-08
4.8795e-07
-3.2023e-08
-5.53986e-08
-3.20271e-08
-5.53907e-08
1.99847e-07
-6.38834e-08
1.97804e-07
-6.39876e-08
1.95798e-07
-6.40406e-08
1.93819e-07
-6.40761e-08
1.91874e-07
-6.41138e-08
-6.41684e-08
3.54915e-07
-2.24508e-08
9.20898e-08
3.51846e-07
-2.25268e-08
9.2061e-08
3.48813e-07
-2.25221e-08
9.19765e-08
3.45816e-07
-2.25063e-08
9.18624e-08
3.42834e-07
-2.24821e-08
9.17735e-08
-2.24732e-08
9.16664e-08
7.86128e-07
-4.2318e-08
8.21138e-08
7.84439e-07
-4.23447e-08
8.2182e-08
7.82617e-07
-4.23064e-08
8.23148e-08
7.80657e-07
-4.22642e-08
8.24459e-08
7.78526e-07
-4.21816e-08
8.25911e-08
-4.20733e-08
8.27048e-08
1.12504e-06
-6.03227e-08
6.96784e-08
1.12628e-06
-6.02978e-08
6.97428e-08
1.1274e-06
-6.02444e-08
6.98201e-08
1.12838e-06
-6.01823e-08
6.98903e-08
1.12924e-06
-6.00754e-08
6.99977e-08
-5.99678e-08
7.01098e-08
1.35954e-06
-7.38532e-08
5.25197e-08
1.3621e-06
-7.38409e-08
5.25144e-08
1.36461e-06
-7.38137e-08
5.25297e-08
1.36701e-06
-7.37534e-08
5.25841e-08
1.36933e-06
-7.36629e-08
5.26777e-08
-7.359e-08
5.27172e-08
1.497e-06
-8.16456e-08
3.16906e-08
1.5001e-06
-8.1617e-08
3.16949e-08
1.50315e-06
-8.15995e-08
3.17037e-08
1.50618e-06
-8.15892e-08
3.1697e-08
1.50919e-06
-8.15764e-08
3.16983e-08
-8.1559e-08
3.16767e-08
1.53622e-06
-8.35254e-08
8.16023e-09
1.53966e-06
-8.35363e-08
8.12705e-09
1.54309e-06
-8.35491e-08
8.11421e-09
1.54651e-06
-8.35633e-08
8.11735e-09
1.54992e-06
-8.3589e-08
8.13305e-09
-8.36178e-08
8.07496e-09
1.48235e-06
-7.95553e-08
-1.63333e-08
1.48592e-06
-7.96177e-08
-1.63684e-08
1.48948e-06
-7.96681e-08
-1.63813e-08
1.49302e-06
-7.97321e-08
-1.63971e-08
1.49658e-06
-7.98446e-08
-1.64057e-08
-7.99559e-08
-1.64547e-08
1.34453e-06
-6.9681e-08
-3.98397e-08
1.34761e-06
-6.97454e-08
-3.98491e-08
1.35066e-06
-6.98127e-08
-3.98724e-08
1.35366e-06
-6.98807e-08
-3.98798e-08
1.35659e-06
-6.99917e-08
-3.97915e-08
-7.01008e-08
-3.97191e-08
1.12503e-06
-5.30803e-08
-6.02915e-08
1.12628e-06
-5.30444e-08
-6.0258e-08
1.12738e-06
-5.29945e-08
-6.02073e-08
1.12837e-06
-5.29521e-08
-6.01433e-08
1.12923e-06
-5.29484e-08
-6.00462e-08
-5.29648e-08
-5.99337e-08
8.11934e-07
-2.90623e-08
-7.74018e-08
8.09852e-07
-2.8891e-08
-7.74036e-08
8.07664e-07
-2.87615e-08
-7.74124e-08
8.05367e-07
-2.86596e-08
-7.73822e-08
8.02939e-07
-2.85702e-08
-7.73488e-08
-2.84939e-08
-7.73051e-08
3.90268e-07
-8.89232e-08
3.86344e-07
-8.89543e-08
3.825e-07
-8.89583e-08
3.78716e-07
-8.89518e-08
3.74998e-07
-8.89664e-08
-8.90014e-08
5.15934e-07
-1.31455e-08
1.0974e-07
5.11512e-07
-1.32509e-08
1.09734e-07
5.0724e-07
-1.34563e-08
1.09705e-07
5.03175e-07
-1.3724e-08
1.09652e-07
4.99224e-07
-1.38834e-08
1.09608e-07
-1.40259e-08
1.09579e-07
1.00175e-06
-2.68809e-08
9.62024e-08
1.00135e-06
-2.69419e-08
9.62748e-08
1.00086e-06
-2.70058e-08
9.63561e-08
1.00022e-06
-2.70609e-08
9.64181e-08
9.99453e-07
-2.70298e-08
9.65062e-08
-2.70365e-08
9.65655e-08
1.34456e-06
-3.98722e-08
7.95468e-08
1.34763e-06
-3.98809e-08
7.96124e-08
1.35067e-06
-3.99002e-08
7.96724e-08
1.35364e-06
-3.98946e-08
7.97504e-08
1.35657e-06
-3.98184e-08
7.98577e-08
-3.97583e-08
7.99643e-08
1.58083e-06
-5.02471e-08
5.81837e-08
1.58552e-06
-5.02521e-08
5.82009e-08
1.59017e-06
-5.02474e-08
5.82251e-08
1.5948e-06
-5.02178e-08
5.82746e-08
1.59943e-06
-5.0141e-08
5.83737e-08
-5.00925e-08
5.84446e-08
1.72118e-06
-5.69049e-08
3.29552e-08
1.72656e-06
-5.68979e-08
3.29606e-08
1.73194e-06
-5.68915e-08
3.29749e-08
1.73731e-06
-5.6887e-08
3.29932e-08
1.7427e-06
-5.68695e-08
3.3034e-08
-5.68521e-08
3.30451e-08
1.76543e-06
-5.95741e-08
5.17772e-09
1.77108e-06
-5.95777e-08
5.1617e-09
1.77673e-06
-5.95835e-08
5.15808e-09
1.78239e-06
-5.95939e-08
5.16343e-09
1.78808e-06
-5.96193e-08
5.18907e-09
-5.96395e-08
5.17209e-09
1.71667e-06
-5.81976e-08
-2.32099e-08
1.72216e-06
-5.821e-08
-2.32291e-08
1.72766e-06
-5.82295e-08
-2.32368e-08
1.73318e-06
-5.82732e-08
-2.32364e-08
1.73874e-06
-5.83674e-08
-2.32127e-08
-5.84327e-08
-2.32231e-08
1.5808e-06
-5.25185e-08
-5.0217e-08
1.58548e-06
-5.25179e-08
-5.0225e-08
1.59014e-06
-5.25347e-08
-5.02228e-08
1.59477e-06
-5.25927e-08
-5.01961e-08
1.59941e-06
-5.2674e-08
-5.01206e-08
-5.2713e-08
-5.00711e-08
1.35953e-06
-4.16179e-08
-7.3822e-08
1.36211e-06
-4.15472e-08
-7.3805e-08
1.3646e-06
-4.14543e-08
-7.37783e-08
1.36701e-06
-4.1434e-08
-7.37155e-08
1.36934e-06
-4.14129e-08
-7.36317e-08
-4.13585e-08
-7.35572e-08
1.0362e-06
-2.42784e-08
-9.33203e-08
1.03467e-06
-2.41262e-08
-9.32956e-08
1.03306e-06
-2.39723e-08
-9.32846e-08
1.03136e-06
-2.38548e-08
-9.32567e-08
1.02956e-06
-2.37339e-08
-9.32341e-08
-2.36157e-08
-9.32141e-08
5.57657e-07
-1.07016e-07
5.51633e-07
-1.07056e-07
5.45766e-07
-1.07064e-07
5.40045e-07
-1.07086e-07
5.34456e-07
-1.07111e-07
-1.07124e-07
6.39852e-07
-2.39791e-09
1.18103e-07
6.34042e-07
-2.5562e-09
1.18099e-07
6.28371e-07
-2.72544e-09
1.18102e-07
6.22843e-07
-2.93954e-09
1.18119e-07
6.17475e-07
-3.16036e-09
1.18137e-07
-3.36511e-09
1.18157e-07
1.14206e-06
-8.8201e-09
1.0292e-07
1.14176e-06
-8.91135e-09
1.02931e-07
1.14141e-06
-8.97315e-09
1.02949e-07
1.14099e-06
-9.06197e-09
1.02963e-07
1.1405e-06
-9.14833e-09
1.02986e-07
-9.2509e-09
1.03003e-07
1.48238e-06
-1.63584e-08
8.35167e-08
1.48594e-06
-1.63922e-08
8.35351e-08
1.48949e-06
-1.64029e-08
8.35529e-08
1.49301e-06
-1.64147e-08
8.35735e-08
1.49655e-06
-1.64286e-08
8.36043e-08
-1.6473e-08
8.36416e-08
1.71668e-06
-2.32306e-08
5.95573e-08
1.72217e-06
-2.3247e-08
5.95683e-08
1.72766e-06
-2.32522e-08
5.95816e-08
1.73317e-06
-2.32495e-08
5.95994e-08
1.73871e-06
-2.3226e-08
5.96364e-08
-2.32371e-08
5.96718e-08
1.85734e-06
-2.84762e-08
3.17714e-08
1.86376e-06
-2.84811e-08
3.17773e-08
1.87018e-06
-2.84831e-08
3.17872e-08
1.87661e-06
-2.84828e-08
3.17992e-08
1.88307e-06
-2.84751e-08
3.1822e-08
-2.84785e-08
3.18395e-08
1.90387e-06
-3.17873e-08
1.76432e-09
1.91058e-06
-3.17878e-08
1.76083e-09
1.91729e-06
-3.17916e-08
1.76167e-09
1.924e-06
-3.17973e-08
1.76529e-09
1.93075e-06
-3.18103e-08
1.77673e-09
-3.18144e-08
1.77753e-09
1.85733e-06
-3.29712e-08
-2.84542e-08
1.86375e-06
-3.29722e-08
-2.84611e-08
1.87017e-06
-3.29814e-08
-2.8465e-08
1.87659e-06
-3.29939e-08
-2.84668e-08
1.88306e-06
-3.30279e-08
-2.84602e-08
-3.3032e-08
-2.84628e-08
1.72112e-06
-3.16939e-08
-5.68738e-08
1.72649e-06
-3.16961e-08
-5.68697e-08
1.73186e-06
-3.17029e-08
-5.68659e-08
1.73722e-06
-3.16927e-08
-5.68645e-08
1.74262e-06
-3.16914e-08
-5.68492e-08
-3.16685e-08
-5.68319e-08
1.49695e-06
-2.70448e-08
-8.16151e-08
1.50003e-06
-2.69985e-08
-8.15883e-08
1.50308e-06
-2.69538e-08
-8.15698e-08
1.50611e-06
-2.68771e-08
-8.15601e-08
1.50912e-06
-2.67897e-08
-8.15473e-08
-2.67108e-08
-8.15285e-08
1.16872e-06
-1.73064e-08
-1.01928e-07
1.1675e-06
-1.71702e-08
-1.01901e-07
1.16617e-06
-1.70321e-08
-1.01881e-07
1.16476e-06
-1.68661e-08
-1.01857e-07
1.16327e-06
-1.66969e-08
-1.01839e-07
-1.65531e-08
-1.0184e-07
6.69524e-07
-1.17048e-07
6.62379e-07
-1.17082e-07
6.55372e-07
-1.17088e-07
6.48496e-07
-1.17076e-07
6.41757e-07
-1.17069e-07
-1.17086e-07
6.97163e-07
8.06163e-09
1.17061e-07
6.90268e-07
7.89384e-09
1.17101e-07
6.83521e-07
7.73189e-09
1.17117e-07
6.76945e-07
7.5807e-09
1.17115e-07
6.70559e-07
7.41391e-09
1.17108e-07
7.23346e-09
1.20208e-06
9.72275e-09
1.0195e-07
1.20136e-06
9.61385e-09
1.01931e-07
1.20057e-06
9.55073e-09
1.01911e-07
1.19969e-06
9.53438e-09
1.01889e-07
1.19872e-06
9.49094e-09
1.01879e-07
9.37983e-09
1.53621e-06
8.13891e-09
8.16378e-08
1.53963e-06
8.10365e-09
8.16163e-08
1.54305e-06
8.08972e-09
8.15999e-08
1.54645e-06
8.10378e-09
8.15974e-08
1.54985e-06
8.10515e-09
8.15967e-08
8.02599e-09
1.76539e-06
5.16875e-09
5.68915e-08
1.77102e-06
5.15208e-09
5.68912e-08
1.77665e-06
5.1476e-09
5.68919e-08
1.78231e-06
5.15541e-09
5.689e-08
1.78798e-06
5.17238e-09
5.68932e-08
5.14083e-09
1.90384e-06
1.7588e-09
2.84668e-08
1.91054e-06
1.75456e-09
2.84764e-08
1.91723e-06
1.75368e-09
2.84843e-08
1.92395e-06
1.75643e-09
2.84844e-08
1.93068e-06
1.76037e-09
2.84983e-08
1.74928e-09
1.9504e-06
-1.76863e-09
-1.75619e-09
1.95743e-06
-1.76172e-09
-1.74917e-09
1.96445e-06
-1.7588e-09
-1.74536e-09
1.97147e-06
-1.75864e-09
-1.7453e-09
1.97852e-06
-1.76642e-09
-1.74654e-09
-1.76406e-09
-1.73496e-09
1.90386e-06
-5.18475e-09
-3.17589e-08
1.91057e-06
-5.16484e-09
-3.17619e-08
1.91727e-06
-5.15684e-09
-3.17683e-08
1.92398e-06
-5.15831e-09
-3.17768e-08
1.93072e-06
-5.17989e-09
-3.1792e-08
-5.1593e-09
-3.17968e-08
1.7654e-06
-8.1613e-09
-5.95399e-08
1.77104e-06
-8.12465e-09
-5.95464e-08
1.77668e-06
-8.10721e-09
-5.9555e-08
1.78233e-06
-8.10946e-09
-5.95679e-08
1.78802e-06
-8.12373e-09
-5.95949e-08
-8.06226e-09
-5.96164e-08
1.53619e-06
-9.74716e-09
-8.34948e-08
1.53963e-06
-9.6394e-09
-8.35076e-08
1.54305e-06
-9.57804e-09
-8.35214e-08
1.54647e-06
-9.54938e-09
-8.35362e-08
1.54987e-06
-9.5144e-09
-8.35626e-08
-9.42127e-09
-8.35912e-08
1.20203e-06
-8.08949e-09
-1.0289e-07
1.20131e-06
-7.92189e-09
-1.02898e-07
1.20052e-06
-7.75912e-09
-1.02916e-07
1.19965e-06
-7.60128e-09
-1.02929e-07
1.19868e-06
-7.43676e-09
-1.02952e-07
-7.26316e-09
-1.02974e-07
6.97105e-07
-1.18093e-07
6.90186e-07
-1.18084e-07
6.83414e-07
-1.18076e-07
6.7682e-07
-1.18083e-07
6.7041e-07
-1.18096e-07
-1.18116e-07
6.69578e-07
1.72843e-08
6.62466e-07
1.71496e-08
1.07062e-07
6.55485e-07
1.70037e-08
1.07095e-07
6.48642e-07
1.68434e-08
1.07115e-07
1.66678e-08
1.07146e-07
1.16879e-06
2.70187e-08
1.16756e-06
2.69706e-08
9.33412e-08
1.16623e-06
2.69312e-08
9.33076e-08
1.1648e-06
2.68617e-08
9.33003e-08
2.67517e-08
9.32899e-08
1.49698e-06
3.16675e-08
7.38468e-08
1.50006e-06
3.167e-08
7.38428e-08
1.5031e-06
3.16816e-08
7.38036e-08
1.50613e-06
3.16777e-08
7.37507e-08
3.16444e-08
7.36878e-08
1.72114e-06
3.29492e-08
5.02366e-08
1.7265e-06
3.29533e-08
5.0247e-08
1.73186e-06
3.2965e-08
5.02468e-08
1.73723e-06
3.29926e-08
5.02055e-08
3.29988e-08
5.01682e-08
1.85733e-06
3.17726e-08
2.32257e-08
1.86373e-06
3.17766e-08
2.32469e-08
1.87014e-06
3.17829e-08
2.32592e-08
1.87657e-06
3.17964e-08
2.32501e-08
3.17955e-08
2.32674e-08
1.90386e-06
2.84636e-08
-5.16368e-09
1.91056e-06
2.84712e-08
-5.14364e-09
1.91726e-06
2.84757e-08
-5.1347e-09
1.92397e-06
2.84781e-08
-5.13775e-09
1.9307e-06
2.84691e-08
-5.14959e-09
2.84662e-08
-5.11887e-09
1.85736e-06
2.32148e-08
-3.29382e-08
1.86378e-06
2.32352e-08
-3.29408e-08
1.87019e-06
2.32446e-08
-3.29521e-08
1.87662e-06
2.32456e-08
-3.29681e-08
1.88308e-06
2.32232e-08
-3.30034e-08
2.32335e-08
-3.30062e-08
1.71671e-06
1.63386e-08
-5.81643e-08
1.7222e-06
1.63758e-08
-5.81788e-08
1.7277e-06
1.63902e-08
-5.81992e-08
1.73321e-06
1.64057e-08
-5.82419e-08
1.73876e-06
1.64134e-08
-5.83348e-08
1.64635e-08
-5.84009e-08
1.48239e-06
8.80492e-09
-7.95297e-08
1.48595e-06
8.90195e-09
-7.9594e-08
1.48951e-06
8.95219e-09
-7.9645e-08
1.49305e-06
9.03846e-09
-7.97056e-08
1.4966e-06
9.11529e-09
-7.98129e-08
9.20797e-09
-7.99198e-08
1.14204e-06
2.37144e-09
-9.61673e-08
1.14175e-06
2.54074e-09
-9.62436e-08
1.1414e-06
2.70752e-09
-9.6323e-08
1.14097e-06
2.92412e-09
-9.63872e-08
1.14046e-06
3.13914e-09
-9.64587e-08
3.3424e-09
-9.65354e-08
6.39795e-07
-1.09719e-07
6.3395e-07
-1.09698e-07
6.28253e-07
-1.09671e-07
6.22715e-07
-1.09622e-07
6.17344e-07
-1.09586e-07
-1.09552e-07
5.51701e-07
2.40929e-08
8.89765e-08
5.45844e-07
2.39636e-08
8.89881e-08
5.40135e-07
2.38238e-08
8.90007e-08
2.36998e-08
8.90242e-08
1.03475e-06
4.14844e-08
7.74553e-08
1.03314e-06
4.14507e-08
7.74343e-08
1.03144e-06
4.13971e-08
7.74265e-08
4.13643e-08
7.74e-08
1.35959e-06
5.24901e-08
6.03151e-08
1.36214e-06
5.24798e-08
6.02978e-08
1.36464e-06
5.25182e-08
6.02378e-08
1.36706e-06
5.25832e-08
6.01501e-08
5.26309e-08
6.00837e-08
1.58085e-06
5.81705e-08
3.98625e-08
1.58551e-06
5.81865e-08
3.9877e-08
1.59016e-06
5.82125e-08
3.98989e-08
1.5948e-06
5.82781e-08
3.98779e-08
5.83417e-08
3.98367e-08
1.71669e-06
5.95525e-08
1.63543e-08
1.72218e-06
5.95607e-08
1.63915e-08
1.72767e-06
5.95703e-08
1.64109e-08
1.73318e-06
5.95896e-08
1.64218e-08
5.96019e-08
1.64872e-08
1.76542e-06
5.68846e-08
-8.13546e-09
1.77105e-06
5.68811e-08
-8.09709e-09
1.77669e-06
5.6877e-08
-8.07663e-09
1.78234e-06
5.6875e-08
-8.08051e-09
1.78802e-06
5.68569e-08
-8.07807e-09
5.68356e-08
-7.9968e-09
1.72118e-06
5.02235e-08
-3.16616e-08
1.72655e-06
5.02314e-08
-3.16619e-08
1.73192e-06
5.02312e-08
-3.16704e-08
1.73728e-06
5.02083e-08
-3.16678e-08
1.74267e-06
5.01345e-08
-3.16638e-08
5.00838e-08
-3.16312e-08
1.58085e-06
3.98439e-08
-5.24888e-08
1.58554e-06
3.98526e-08
-5.24858e-08
1.5902e-06
3.98774e-08
-5.25034e-08
1.59483e-06
3.98896e-08
-5.25589e-08
1.59946e-06
3.9805e-08
-5.26375e-08
3.9735e-08
-5.26769e-08
1.34458e-06
2.68684e-08
-6.96678e-08
1.34765e-06
2.69123e-08
-6.97229e-08
1.35069e-06
2.69775e-08
-6.97896e-08
1.35369e-06
2.70389e-08
-6.98503e-08
1.35661e-06
2.70212e-08
-6.99567e-08
2.69857e-08
-7.00608e-08
1.00176e-06
1.31371e-08
-8.20845e-08
1.00134e-06
1.32379e-08
-8.21507e-08
1.00082e-06
1.34437e-08
-8.22738e-08
1.00017e-06
1.3711e-08
-8.2409e-08
9.99399e-07
1.38819e-08
-8.25454e-08
1.39919e-08
-8.26695e-08
5.15896e-07
-9.20461e-08
5.11463e-07
-9.20271e-08
5.07185e-07
-9.19497e-08
5.03111e-07
-9.18369e-08
4.99153e-07
-9.17463e-08
-9.16577e-08
3.86409e-07
2.88645e-08
6.40131e-08
3.82578e-07
2.87511e-08
6.40679e-08
3.78821e-07
2.86498e-08
6.41076e-08
2.85484e-08
6.41643e-08
8.09948e-07
5.30041e-08
5.53624e-08
8.07772e-07
5.29757e-08
5.53854e-08
8.05477e-07
5.29505e-08
5.5421e-08
5.29376e-08
5.54303e-08
1.12512e-06
6.96445e-08
4.2311e-08
1.12636e-06
6.97108e-08
4.23503e-08
1.12746e-06
6.97942e-08
4.2321e-08
1.12842e-06
6.9899e-08
4.22387e-08
6.99818e-08
4.21851e-08
1.3446e-06
7.95251e-08
2.68695e-08
1.34765e-06
7.9587e-08
2.69524e-08
1.35068e-06
7.96511e-08
2.70129e-08
1.35366e-06
7.97379e-08
2.70571e-08
7.98343e-08
2.70634e-08
1.48239e-06
8.35035e-08
8.82054e-09
1.48593e-06
8.35183e-08
8.91122e-09
1.48948e-06
8.3533e-08
8.97854e-09
1.49302e-06
8.35516e-08
9.06848e-09
8.35713e-08
9.19739e-09
1.53621e-06
8.16235e-08
-9.71788e-09
1.53964e-06
8.15971e-08
-9.61026e-09
1.54307e-06
8.15778e-08
-9.54793e-09
1.54649e-06
8.15647e-08
-9.50995e-09
1.54989e-06
8.1552e-08
-9.45989e-09
8.15334e-08
-9.34479e-09
1.497e-06
7.38247e-08
-2.70114e-08
1.50009e-06
7.38117e-08
-2.69667e-08
1.50313e-06
7.37846e-08
-2.69215e-08
1.50616e-06
7.37226e-08
-2.68501e-08
1.50916e-06
7.36415e-08
-2.67561e-08
7.35678e-08
-2.6664e-08
1.35956e-06
6.02838e-08
-4.15851e-08
1.36214e-06
6.02649e-08
-4.15148e-08
1.36463e-06
6.02118e-08
-4.14204e-08
1.36704e-06
6.0153e-08
-4.14002e-08
1.36936e-06
6.00607e-08
-4.1382e-08
5.99511e-08
-4.13246e-08
1.12502e-06
4.22861e-08
-5.3071e-08
1.12626e-06
4.2325e-08
-5.30206e-08
1.12737e-06
4.22874e-08
-5.29698e-08
1.12835e-06
4.22391e-08
-5.29216e-08
1.12921e-06
4.21615e-08
-5.29153e-08
4.20589e-08
-5.29301e-08
7.86123e-07
2.24464e-08
-6.06241e-08
7.84423e-07
2.25192e-08
-6.06445e-08
7.82596e-07
2.25142e-08
-6.06738e-08
7.80631e-07
2.24919e-08
-6.06967e-08
7.78497e-07
2.24724e-08
-6.07221e-08
2.24571e-08
-6.07634e-08
3.54992e-07
-6.64749e-08
3.51916e-07
-6.64315e-08
3.48875e-07
-6.63949e-08
3.4587e-07
-6.63396e-08
3.42885e-07
-6.62894e-08
-6.62418e-08
1.97837e-07
3.20443e-08
3.39906e-08
1.95845e-07
3.20386e-08
3.4022e-08
1.93877e-07
3.20371e-08
3.40385e-08
3.20325e-08
3.40547e-08
4.97633e-07
6.06561e-08
2.99176e-08
4.94467e-07
6.06809e-08
2.99088e-08
4.9131e-07
6.07183e-08
2.98965e-08
6.07505e-08
2.98879e-08
7.86242e-07
8.20926e-08
2.24388e-08
7.84567e-07
8.21465e-08
2.2535e-08
7.82759e-07
8.2271e-08
2.25393e-08
7.80793e-07
8.24263e-08
2.24964e-08
8.2558e-08
2.24966e-08
1.00182e-06
9.6177e-08
1.31449e-08
1.00142e-06
9.62367e-08
1.32572e-08
1.00093e-06
9.63205e-08
1.34561e-08
1.00029e-06
9.63893e-08
1.3729e-08
9.64574e-08
1.39135e-08
1.14208e-06
1.02895e-07
2.40667e-09
1.14177e-06
1.02902e-07
2.55936e-09
1.14142e-06
1.02919e-07
2.73064e-09
1.14099e-06
1.02936e-07
2.94813e-09
1.02962e-07
3.18348e-09
1.20208e-06
1.01929e-07
-8.05381e-09
1.20135e-06
1.01902e-07
-7.88688e-09
1.20057e-06
1.01885e-07
-7.72874e-09
1.1997e-06
1.01865e-07
-7.57003e-09
1.19875e-06
1.01853e-07
-7.40221e-09
1.01859e-07
-7.21724e-09
1.16878e-06
9.33197e-08
-1.72763e-08
1.16755e-06
9.32966e-08
-1.71388e-08
1.16623e-06
9.32894e-08
-1.70013e-08
1.16482e-06
9.32607e-08
-1.68403e-08
1.16335e-06
9.32375e-08
-1.66679e-08
9.32245e-08
-1.65151e-08
1.03622e-06
7.74012e-08
-2.42491e-08
1.03469e-06
7.74084e-08
-2.40973e-08
1.03309e-06
7.7418e-08
-2.39442e-08
1.03139e-06
7.73892e-08
-2.3829e-08
1.0296e-06
7.7354e-08
-2.37102e-08
7.73116e-08
-2.35893e-08
8.11954e-07
5.53309e-08
-2.90523e-08
8.09879e-07
5.5336e-08
-2.8873e-08
8.07698e-07
5.53725e-08
-2.87436e-08
8.05412e-07
5.53944e-08
-2.86407e-08
8.02999e-07
5.54054e-08
-2.85536e-08
5.53984e-08
-2.84792e-08
5.00782e-07
2.99059e-08
-3.20586e-08
4.97614e-07
2.99054e-08
-3.20457e-08
4.94442e-07
2.99024e-08
-3.20318e-08
4.91269e-07
2.98959e-08
-3.20247e-08
4.88084e-07
2.98858e-08
-3.20175e-08
2.98648e-08
-3.20195e-08
1.87373e-07
-3.46477e-08
1.8552e-07
-3.46725e-08
1.83712e-07
-3.46849e-08
1.81956e-07
-3.46873e-08
1.8024e-07
-3.46878e-08
-3.4691e-08
6.11564e-08
3.46829e-08
6.04828e-08
3.46956e-08
5.98192e-08
3.4702e-08
3.47033e-08
1.85524e-07
6.64463e-08
1.83728e-07
6.64e-08
1.81975e-07
6.63523e-08
6.62892e-08
3.5502e-07
9.20712e-08
3.51964e-07
9.20375e-08
3.4895e-07
9.19529e-08
3.45971e-07
9.18285e-08
9.17378e-08
5.16103e-07
1.09708e-07
5.11689e-07
1.09709e-07
5.0742e-07
1.09678e-07
5.03361e-07
1.09617e-07
1.09574e-07
6.40058e-07
1.1807e-07
6.34259e-07
1.18068e-07
6.28594e-07
1.18073e-07
6.23072e-07
1.18087e-07
1.18111e-07
6.97331e-07
1.17031e-07
6.9044e-07
1.17072e-07
6.83697e-07
1.17087e-07
6.77127e-07
1.17087e-07
6.70747e-07
1.17089e-07
1.17112e-07
6.69645e-07
1.07009e-07
6.62525e-07
1.07053e-07
6.55548e-07
1.07063e-07
6.48707e-07
1.07088e-07
6.42007e-07
1.07121e-07
1.0714e-07
5.5773e-07
8.89315e-08
5.51724e-07
8.89614e-08
5.45879e-07
8.8964e-08
5.40184e-07
8.89549e-08
5.34628e-07
8.89669e-08
8.90014e-08
3.90347e-07
6.38842e-08
3.86443e-07
6.39925e-08
3.82616e-07
6.40474e-08
3.78848e-07
6.40823e-08
3.75145e-07
6.41163e-08
6.41661e-08
1.99888e-07
3.39232e-08
1.97856e-07
3.39791e-08
1.95861e-07
3.40104e-08
1.93893e-07
3.40252e-08
1.91957e-07
3.40353e-08
3.40489e-08
6.18522e-08
6.11589e-08
6.04843e-08
5.98222e-08
5.91697e-08
)
;

boundaryField
{
    inlet
    {
        type            calculated;
        value           nonuniform List<scalar> 0();
    }
    ami1
    {
        type            cyclicAMI;
        value           nonuniform List<scalar> 0();
    }
    walls
    {
        type            calculated;
        value           nonuniform List<scalar> 
248
(
2.90979e-14
2.43942e-14
1.84387e-14
1.28555e-14
6.40674e-15
-8.29766e-22
-6.40674e-15
-1.28555e-14
-1.84387e-14
-2.43942e-14
-2.90979e-14
2.90979e-14
2.43942e-14
1.84387e-14
1.28555e-14
6.40674e-15
-8.29766e-22
-6.40674e-15
-1.28555e-14
-1.84387e-14
-2.43942e-14
-2.90979e-14
2.90979e-14
2.43942e-14
1.84387e-14
1.28555e-14
6.40674e-15
-8.29766e-22
-6.40674e-15
-1.28555e-14
-1.84387e-14
-2.43942e-14
-2.90979e-14
2.90979e-14
2.43942e-14
1.84387e-14
1.28555e-14
6.40674e-15
-8.27956e-22
-6.40674e-15
-1.28555e-14
-1.84387e-14
-2.43942e-14
-2.90979e-14
2.90979e-14
2.43942e-14
1.84387e-14
1.28555e-14
6.40674e-15
-8.27956e-22
-6.40674e-15
-1.28555e-14
-1.84387e-14
-2.43942e-14
-2.90979e-14
2.90979e-14
2.43942e-14
1.84387e-14
1.28555e-14
6.40674e-15
-8.27956e-22
-6.40674e-15
-1.28555e-14
-1.84387e-14
-2.43942e-14
-2.90979e-14
2.90979e-14
2.43942e-14
1.84387e-14
1.28555e-14
6.40674e-15
-8.29766e-22
-6.40674e-15
-1.28555e-14
-1.84387e-14
-2.43942e-14
-2.90979e-14
2.90979e-14
2.43942e-14
1.84387e-14
1.28555e-14
6.40674e-15
-8.29766e-22
-6.40674e-15
-1.28555e-14
-1.84387e-14
-2.43942e-14
-2.90979e-14
2.90979e-14
2.43942e-14
1.84387e-14
1.28555e-14
6.40674e-15
-8.29766e-22
-6.40674e-15
-1.28555e-14
-1.84387e-14
-2.43942e-14
-2.90979e-14
2.90979e-14
2.43942e-14
1.84387e-14
1.28555e-14
6.40674e-15
-8.27956e-22
-6.40674e-15
-1.28555e-14
-1.84387e-14
-2.43942e-14
-2.90979e-14
2.90979e-14
2.43942e-14
1.84387e-14
1.28555e-14
6.40674e-15
-8.27956e-22
-6.40674e-15
-1.28555e-14
-1.84387e-14
-2.43942e-14
-2.90979e-14
2.90979e-14
2.43942e-14
1.84387e-14
1.28555e-14
6.40674e-15
-8.27956e-22
-6.40674e-15
-1.28555e-14
-1.84387e-14
-2.43942e-14
-2.90979e-14
-1.84387e-14
-1.28555e-14
-6.40674e-15
-8.83629e-22
6.40674e-15
1.28555e-14
1.84387e-14
2.43942e-14
2.90979e-14
-2.90979e-14
-2.43942e-14
-1.84387e-14
-1.28555e-14
-6.40674e-15
-8.83629e-22
6.40674e-15
1.28555e-14
1.84387e-14
2.43942e-14
2.90979e-14
-2.90979e-14
-2.43942e-14
-1.84387e-14
-1.28555e-14
-6.40674e-15
-8.83629e-22
6.40674e-15
1.28555e-14
1.84387e-14
2.43942e-14
2.90979e-14
-2.90979e-14
-2.43942e-14
-1.84387e-14
-1.28555e-14
-6.40674e-15
-8.83629e-22
6.40674e-15
1.28555e-14
1.84387e-14
2.43942e-14
2.90979e-14
-2.90979e-14
-2.43942e-14
-1.84387e-14
-1.28555e-14
-6.40674e-15
-8.83629e-22
6.40674e-15
1.28555e-14
1.84387e-14
2.43942e-14
2.90979e-14
-8.83629e-22
6.40674e-15
1.28555e-14
1.84387e-14
2.43942e-14
2.90979e-14
-2.90979e-14
-2.43942e-14
-1.84387e-14
-1.28555e-14
-6.40674e-15
-8.83629e-22
6.40674e-15
-2.90979e-14
-2.43942e-14
-1.84387e-14
-1.28555e-14
-6.40674e-15
-8.83629e-22
6.40674e-15
1.28555e-14
1.84387e-14
2.43942e-14
2.90979e-14
-2.90979e-14
-2.43942e-14
-1.84387e-14
-1.28555e-14
-6.40674e-15
-8.83629e-22
6.40674e-15
1.28555e-14
1.84387e-14
2.43942e-14
2.90979e-14
-2.90979e-14
-2.43942e-14
-1.84387e-14
-1.28555e-14
-6.40674e-15
-8.83629e-22
6.40674e-15
1.28555e-14
1.84387e-14
2.43942e-14
2.90979e-14
-2.90979e-14
-2.43942e-14
-1.84387e-14
-1.28555e-14
-6.40674e-15
-8.83629e-22
6.40674e-15
1.28555e-14
1.84387e-14
2.43942e-14
2.90979e-14
-2.90979e-14
-2.43942e-14
-1.84387e-14
-1.28555e-14
-6.40674e-15
-8.83629e-22
)
;
    }
    ami2
    {
        type            cyclicAMI;
        value           nonuniform List<scalar> 0();
    }
    outlet
    {
        type            calculated;
        value           nonuniform List<scalar> 0();
    }
    procBoundary7to5
    {
        type            processor;
        value           nonuniform List<scalar> 
131
(
5.85054e-08
1.89968e-07
3.71286e-07
5.28759e-07
6.34848e-07
6.63881e-07
6.11921e-07
4.95104e-07
3.39796e-07
1.78475e-07
5.84987e-08
1.7852e-07
4.84756e-07
8.00347e-07
1.02764e-06
1.16167e-06
1.19759e-06
1.1398e-06
9.98449e-07
7.7608e-07
4.84722e-07
1.89965e-07
3.39898e-07
7.7622e-07
1.12999e-06
1.3716e-06
1.51219e-06
1.55334e-06
1.50017e-06
1.35948e-06
1.12998e-06
8.00383e-07
3.71337e-07
4.95337e-07
9.98603e-07
1.35944e-06
1.60404e-06
1.74809e-06
1.79377e-06
1.7443e-06
1.60404e-06
1.3716e-06
1.02773e-06
5.28963e-07
6.12262e-07
1.13995e-06
1.50009e-06
1.74424e-06
1.88952e-06
1.93748e-06
1.88952e-06
1.74801e-06
1.51213e-06
1.16174e-06
6.35166e-07
6.64358e-07
1.17125e-07
1.19769e-06
1.01894e-07
1.55326e-06
8.15885e-08
1.79365e-06
5.68945e-08
1.93739e-06
2.85207e-08
1.98555e-06
1.93745e-06
1.79371e-06
1.55329e-06
1.19766e-06
6.64177e-07
6.41936e-07
1.16331e-06
1.50915e-06
1.7426e-06
1.883e-06
-3.1785e-08
1.9374e-06
1.88952e-06
1.74431e-06
1.50018e-06
1.13988e-06
6.12122e-07
5.34557e-07
1.02966e-06
1.36939e-06
1.59942e-06
1.7387e-06
-5.9611e-08
1.79367e-06
1.74804e-06
1.60409e-06
1.3595e-06
9.98527e-07
4.95251e-07
3.75133e-07
8.03057e-07
1.12928e-06
1.35658e-06
1.49658e-06
-8.35974e-08
1.5533e-06
1.51216e-06
1.37163e-06
1.12997e-06
7.76192e-07
3.39926e-07
1.91954e-07
4.88134e-07
7.78674e-07
9.99543e-07
1.1405e-06
-1.0298e-07
1.19774e-06
1.16184e-06
1.02778e-06
8.00461e-07
4.84873e-07
1.78554e-07
5.91707e-08
1.80277e-07
3.43019e-07
4.99438e-07
6.17718e-07
-1.18137e-07
6.64555e-07
6.35464e-07
5.29177e-07
3.71501e-07
1.90055e-07
5.85276e-08
)
;
    }
    procBoundary7to8
    {
        type            processor;
        value           nonuniform List<scalar> 
68
(
-6.25607e-08
-2.01923e-07
-3.94225e-07
-5.63692e-07
-6.76525e-07
-1.89264e-07
-5.03833e-07
-8.13794e-07
-1.03751e-06
-1.16981e-06
-3.58044e-07
-7.8772e-07
-1.12362e-06
-1.35689e-06
-1.49385e-06
-5.20439e-07
-1.0021e-06
-1.34144e-06
-1.57612e-06
-1.71579e-06
-6.45818e-07
-1.14235e-06
-1.47881e-06
-1.71118e-06
-1.85092e-06
-1.89715e-06
-7.04183e-07
-1.20277e-06
-1.53274e-06
-1.75975e-06
-1.89712e-06
-1.94335e-06
-6.76827e-07
1.07026e-07
-1.16991e-06
9.33376e-08
-1.49384e-06
-1.71577e-06
-1.85091e-06
-1.89715e-06
-5.57708e-07
-1.03625e-06
-4.15954e-08
-1.35696e-06
-1.57615e-06
-1.7112e-06
-1.75978e-06
-3.9031e-07
-8.11995e-07
-5.306e-08
-1.1237e-06
-1.34149e-06
-1.47883e-06
-1.53275e-06
-1.99859e-07
-5.008e-07
-6.06281e-08
-7.87835e-07
-1.00218e-06
-1.14238e-06
-1.20277e-06
-6.18488e-08
-1.8737e-07
-6.65097e-08
-3.58143e-07
-5.20596e-07
-6.46012e-07
-7.04347e-07
)
;
    }
    procBoundary7to9
    {
        type            processor;
        value           nonuniform List<scalar> 
59
(
-7.03923e-07
-6.45677e-07
-5.20371e-07
-3.58072e-07
-1.89267e-07
-6.25662e-08
-1.20268e-06
-1.14227e-06
-1.00206e-06
-7.87705e-07
-5.03875e-07
-2.0195e-07
-1.53274e-06
-1.47879e-06
-1.34142e-06