/*--------------------------------*- C++ -*----------------------------------*\
| =========                 |                                                 |
| \\      /  F ield         | OpenFOAM: The Open Source CFD Toolbox           |
|  \\    /   O peration     | Version:  2212                                  |
|   \\  /    A nd           | Website:  www.openfoam.com                      |
|    \\/     M anipulation  |                                                 |
\*---------------------------------------------------------------------------*/
FoamFile
{
    version     2.0;
    format      ascii;
    arch        "LSB;label=32;scalar=64";
    class       surfaceVectorField;
    location    "2";
    object      Uf;
}
// * * * * * * * * * * * * * * * * * * * * * * * * * * * * * * * * * * * * * //

dimensions      [0 1 -1 0 0 0 0];

internalField   nonuniform List<vector> 
1826
(
(0.0244733 -1.51619e-05 4.18003e-05)
(0.031261 -0.000126446 5.14738e-05)
(0.0302289 1.52587e-05 5.05481e-05)
(0.0241989 -1.51171e-05 3.92513e-05)
(0.0309227 -0.000116559 4.72063e-05)
(0.0299051 1.02272e-05 4.58666e-05)
(0.0239308 -1.41081e-05 3.88373e-05)
(0.0305933 -0.00011069 4.69917e-05)
(0.0295901 7.78015e-06 4.44732e-05)
(0.0236691 -1.27717e-05 3.93504e-05)
(0.0302737 -0.000106224 4.86522e-05)
(0.0292874 7.78666e-06 4.48939e-05)
(0.0234109 -1.18909e-05 3.98405e-05)
(0.0299553 -0.000102889 5.03447e-05)
(0.0289872 7.65057e-06 4.61166e-05)
(0.0296444 -9.98492e-05 5.07478e-05)
(0.0286952 7.29658e-06 4.71598e-05)
(0.0410199 -0.000253194 4.19001e-05)
(0.0482644 -0.000416378 -4.88529e-05)
(0.0545704 -0.000202982 7.45132e-05)
(0.040603 -0.000237311 4.26439e-05)
(0.0477695 -0.0003846 -4.28042e-05)
(0.0541325 -0.000199479 7.22009e-05)
(0.0401915 -0.00022672 4.56218e-05)
(0.0472877 -0.000365171 -3.41662e-05)
(0.0536987 -0.000198795 7.26324e-05)
(0.0397876 -0.000218465 4.87037e-05)
(0.0468188 -0.000349244 -2.69715e-05)
(0.0532778 -0.000196903 7.45018e-05)
(0.0393897 -0.000211259 5.02134e-05)
(0.046349 -0.000336022 -2.13673e-05)
(0.0528473 -0.00019638 7.70292e-05)
(0.0458954 -0.000322889 -1.93381e-05)
(0.0524317 -0.000197166 7.90772e-05)
(0.0567228 -0.000568909 -0.000168584)
(0.0614986 -0.000754225 -0.000296962)
(0.0728106 -0.000643084 -0.000138108)
(0.0561533 -0.000532495 -0.000151854)
(0.0608463 -0.000722736 -0.00027593)
(0.0723933 -0.000612965 -0.000128334)
(0.0555944 -0.000508256 -0.000135739)
(0.0602188 -0.000698195 -0.00025699)
(0.0719791 -0.000595614 -0.000115901)
(0.0550458 -0.000488858 -0.000122447)
(0.0596008 -0.000677977 -0.000239393)
(0.0715662 -0.000578179 -0.000104795)
(0.0545053 -0.000471172 -0.000113106)
(0.0589944 -0.000658808 -0.000225198)
(0.0711467 -0.000565923 -9.48596e-05)
(0.058404 -0.000640149 -0.000215191)
(0.0707333 -0.000554688 -8.70329e-05)
(0.066234 -0.000948522 -0.000400574)
(0.0690644 -0.00104264 -0.000477871)
(0.0824507 -0.000997034 -0.000386116)
(0.0655185 -0.000925309 -0.000382464)
(0.0683154 -0.00101668 -0.000465999)
(0.081996 -0.000974743 -0.000371449)
(0.0648202 -0.000902307 -0.000364957)
(0.0675878 -0.000990805 -0.000450873)
(0.0815511 -0.000954915 -0.000356047)
(0.0641389 -0.000879307 -0.000349582)
(0.0668716 -0.000964735 -0.000435615)
(0.0811058 -0.000937169 -0.000341478)
(0.0634723 -0.000856889 -0.000336812)
(0.0661743 -0.000938029 -0.000422613)
(0.080672 -0.000922361 -0.000328299)
(0.0654893 -0.000914311 -0.000409378)
(0.0802385 -0.000905854 -0.000316114)
(0.0713234 -0.00112842 -0.000530947)
(0.071906 -0.00112435 -0.000545252)
(0.087073 -0.00119546 -0.000490139)
(0.0705614 -0.00110102 -0.000520273)
(0.0711611 -0.0010961 -0.000536688)
(0.0866176 -0.00117704 -0.000481401)
(0.0698136 -0.00107319 -0.000505586)
(0.0704281 -0.00106665 -0.000521759)
(0.0861644 -0.00115765 -0.000469231)
(0.0690799 -0.0010451 -0.000489898)
(0.0697156 -0.00103642 -0.000503846)
(0.0857173 -0.00113639 -0.000455371)
(0.0683607 -0.00101763 -0.000475308)
(0.0690162 -0.0010061 -0.000486752)
(0.0852718 -0.0011132 -0.000441392)
(0.0683346 -0.000975044 -0.000473676)
(0.0848332 -0.0010922 -0.000429085)
(0.0717493 -0.00109441 -0.000545885)
(0.0702785 -0.00101 -0.000530977)
(0.0873762 -0.00117065 -0.000487551)
(0.0710352 -0.00106384 -0.000533512)
(0.0696019 -0.000980871 -0.000518509)
(0.086967 -0.00114696 -0.000476869)
(0.0703367 -0.00103044 -0.000518199)
(0.0689382 -0.000945787 -0.000503826)
(0.0865638 -0.00112445 -0.000466379)
(0.0696565 -0.000995951 -0.000502589)
(0.0682997 -0.000904837 -0.000489452)
(0.0861671 -0.00110261 -0.000455696)
(0.0689956 -0.000960971 -0.000488918)
(0.0676694 -0.00086259 -0.000475923)
(0.0857762 -0.00107957 -0.000445027)
(0.0670651 -0.00082133 -0.000463957)
(0.0853931 -0.00105377 -0.000436047)
(0.0681719 -0.000897472 -0.000507021)
(0.0648925 -0.000731416 -0.00044887)
(0.0842322 -0.000963167 -0.000451555)
(0.0675481 -0.000862711 -0.000495191)
(0.0643185 -0.000703467 -0.000438108)
(0.0838855 -0.000936755 -0.00044465)
(0.0669399 -0.000819134 -0.000484084)
(0.063744 -0.000655501 -0.000421479)
(0.0835457 -0.000909451 -0.000440534)
(0.0663483 -0.000770355 -0.000472319)
(0.0632069 -0.000594142 -0.000396967)
(0.0832161 -0.000874518 -0.000433655)
(0.0657738 -0.000722222 -0.000459855)
(0.0626684 -0.000543132 -0.000376713)
(0.0828865 -0.000839046 -0.000426598)
(0.0621632 -0.000503332 -0.000359963)
(0.0825669 -0.00080568 -0.000419631)
(0.0612818 -0.000545646 -0.000398581)
(0.0563661 -0.000381265 -0.000298625)
(0.0781778 -0.000601316 -0.000389463)
(0.060754 -0.000506305 -0.000377339)
(0.0558865 -0.000361565 -0.000292551)
(0.0778817 -0.000581378 -0.000389454)
(0.0602441 -0.000443809 -0.000338839)
(0.055395 -0.000330989 -0.000275778)
(0.0775791 -0.000548285 -0.000379496)
(0.0597578 -0.000382428 -0.000300338)
(0.0549377 -0.000293789 -0.000251399)
(0.0772928 -0.000507134 -0.000363843)
(0.0592855 -0.0003404 -0.000273172)
(0.0544688 -0.000266957 -0.000232182)
(0.0770005 -0.000478107 -0.000357029)
(0.0540301 -0.000249433 -0.000214722)
(0.0767215 -0.00045862 -0.000353658)
(0.051596 -0.000216134 -0.000219332)
(0.0445178 -0.000139152 -0.000157272)
(0.0686611 -0.000264046 -0.000330562)
(0.0511469 -0.000203989 -0.000213195)
(0.0441074 -0.000129835 -0.000150486)
(0.068338 -0.000251721 -0.000328456)
(0.0507026 -0.000195326 -0.000207798)
(0.0436911 -0.000123815 -0.000143691)
(0.0679985 -0.000246568 -0.000334139)
(0.0502632 -0.000189121 -0.000200622)
(0.0432972 -0.000120905 -0.00013432)
(0.0676693 -0.000245863 -0.000340798)
(0.0498272 -0.000184216 -0.000191136)
(0.0428962 -0.000119301 -0.000125483)
(0.0673166 -0.000245773 -0.00034489)
(0.0425136 -0.000118281 -0.000117252)
(0.0669756 -0.000246775 -0.000347438)
(0.0384588 -7.08319e-05 -2.30344e-05)
(0.0302294 -5.2945e-05 1.71836e-05)
(0.0531299 -8.64748e-05 -0.000130271)
(0.0380757 -6.65295e-05 -2.50977e-05)
(0.0299088 -4.90566e-05 1.2182e-05)
(0.0527209 -8.11663e-05 -0.000135683)
(0.0377028 -6.52234e-05 -2.35288e-05)
(0.0295907 -4.76457e-05 1.01359e-05)
(0.0523001 -7.9223e-05 -0.000137615)
(0.0373401 -6.59589e-05 -2.01744e-05)
(0.0292872 -4.83528e-05 9.83978e-06)
(0.0519025 -8.09243e-05 -0.000138046)
(0.0369864 -6.74107e-05 -1.73916e-05)
(0.0289849 -4.9605e-05 9.89228e-06)
(0.0514949 -8.37738e-05 -0.000137804)
(0.0286907 -5.05405e-05 9.26501e-06)
(0.0511028 -8.73793e-05 -0.000139758)
(0.0244766 -4.43144e-05 -1.41783e-05)
(0.0312632 -5.43108e-05 -0.000125946)
(0.0242007 -4.21985e-05 -1.39803e-05)
(0.030928 -5.10734e-05 -0.000116587)
(0.0239326 -4.19857e-05 -1.28698e-05)
(0.0305955 -5.12236e-05 -0.000110245)
(0.0236691 -4.26752e-05 -1.15627e-05)
(0.0302753 -5.32393e-05 -0.000106005)
(0.0234096 -4.31399e-05 -1.06654e-05)
(0.0299552 -5.51108e-05 -0.000102536)
(0.0296429 -5.52961e-05 -9.93577e-05)
(0.0384566 -2.58534e-05 6.75522e-05)
(0.053132 -0.000132766 8.2261e-05)
(0.0445189 -0.000160734 0.000135825)
(0.0380753 -2.79342e-05 6.28946e-05)
(0.0527143 -0.000136921 7.54864e-05)
(0.0441023 -0.000153219 0.000125795)
(0.0377034 -2.61769e-05 6.1535e-05)
(0.0523007 -0.000140569 7.43392e-05)
(0.0436934 -0.000145679 0.00011984)
(0.037344 -2.26918e-05 6.21363e-05)
(0.0519033 -0.000140059 7.51867e-05)
(0.0433002 -0.000135327 0.000116783)
(0.0369926 -1.99138e-05 6.36641e-05)
(0.0514982 -0.000140441 7.79572e-05)
(0.0429025 -0.000127123 0.000115409)
(0.0511087 -0.000141827 8.1576e-05)
(0.0425233 -0.000118451 0.000114411)
(0.0711313 -0.000295598 0.000113353)
(0.0806206 -0.000572172 4.63968e-05)
(0.0792727 -0.000441462 0.000215679)
(0.0706804 -0.000301792 0.00011027)
(0.080273 -0.000567521 4.53419e-05)
(0.078943 -0.00044382 0.000207512)
(0.0702288 -0.000304591 0.000109101)
(0.0799175 -0.00056378 4.46258e-05)
(0.078608 -0.000448868 0.000206446)
(0.0697777 -0.000306208 0.000110172)
(0.0795633 -0.000555194 4.5241e-05)
(0.0782714 -0.000452174 0.000207481)
(0.0693244 -0.000309327 0.000113424)
(0.0791918 -0.000550824 4.77367e-05)
(0.0779163 -0.000457829 0.000211617)
(0.0788248 -0.000548361 5.10974e-05)
(0.0775642 -0.000464711 0.000218537)
(0.0912485 -0.000820893 -0.000105336)
(0.0956894 -0.000973843 -0.00025206)
(0.0981675 -0.000952184 2.54854e-05)
(0.0910174 -0.000807692 -0.000100359)
(0.0955057 -0.000955505 -0.000244995)
(0.0981083 -0.00094268 2.76221e-05)
(0.090772 -0.000796321 -9.3469e-05)
(0.0953069 -0.000945861 -0.000234229)
(0.0980366 -0.00093979 3.27078e-05)
(0.0905142 -0.000785339 -8.60392e-05)
(0.0950982 -0.000932887 -0.000222849)
(0.0979462 -0.0009332 3.7041e-05)
(0.0902415 -0.000779746 -7.76076e-05)
(0.0948803 -0.000927593 -0.000210905)
(0.0978515 -0.000934857 4.39765e-05)
(0.0946511 -0.000920733 -0.000197836)
(0.0977373 -0.000938181 5.21626e-05)
(0.100378 -0.00114258 -0.000379428)
(0.102294 -0.0012472 -0.000425805)
(0.106713 -0.00123577 -0.000291352)
(0.10023 -0.00112609 -0.000368358)
(0.10217 -0.00123399 -0.000416467)
(0.106745 -0.0012233 -0.000284343)
(0.100074 -0.00111218 -0.000356255)
(0.102036 -0.00122264 -0.000405368)
(0.106765 -0.00121507 -0.000275338)
(0.0999095 -0.00110219 -0.000343788)
(0.101894 -0.00120891 -0.000394997)
(0.10678 -0.00121089 -0.00026414)
(0.0997371 -0.00109256 -0.000330839)
(0.101745 -0.00119672 -0.000383067)
(0.106786 -0.00121352 -0.000251249)
(0.101589 -0.00118253 -0.000370822)
(0.106785 -0.00120911 -0.000237808)
(0.104189 -0.00134321 -0.000466368)
(0.104296 -0.00132962 -0.000461296)
(0.110308 -0.00139016 -0.000422407)
(0.104078 -0.00133555 -0.000456747)
(0.104211 -0.00131761 -0.000451442)
(0.110369 -0.00138677 -0.000414935)
(0.103959 -0.00132526 -0.000446156)
(0.104122 -0.00130905 -0.000444547)
(0.110425 -0.00138209 -0.000407043)
(0.103833 -0.00131034 -0.000434473)
(0.104024 -0.00130052 -0.000436891)
(0.110475 -0.00137351 -0.000398391)
(0.1037 -0.00129372 -0.000422766)
(0.103918 -0.00128735 -0.000427578)
(0.11052 -0.00136291 -0.000388494)
(0.103809 -0.00127225 -0.000420364)
(0.110564 -0.0013528 -0.000378552)
(0.10432 -0.0013042 -0.000445184)
(0.103076 -0.00119496 -0.000433594)
(0.110585 -0.00132815 -0.000471465)
(0.104257 -0.00129151 -0.00043755)
(0.103032 -0.00117601 -0.000427694)
(0.11068 -0.00131581 -0.000462878)
(0.104188 -0.00128478 -0.000433574)
(0.102986 -0.00116617 -0.000426772)
(0.110773 -0.00130897 -0.000458461)
(0.104111 -0.00127761 -0.000429245)
(0.102931 -0.00115365 -0.000423769)
(0.11086 -0.00130531 -0.000455838)
(0.104027 -0.00126612 -0.000424239)
(0.102872 -0.00113935 -0.000421539)
(0.110944 -0.00130055 -0.000453461)
(0.102804 -0.00112339 -0.000418619)
(0.111025 -0.00128776 -0.000448793)
(0.101809 -0.0010683 -0.000417558)
(0.099383 -0.000884265 -0.000409567)
(0.108492 -0.00107738 -0.000515608)
(0.101783 -0.00105158 -0.000419878)
(0.099348 -0.000866562 -0.000416532)
(0.108611 -0.00106134 -0.000517228)
(0.101751 -0.00103546 -0.000421286)
(0.0993133 -0.000852926 -0.000424033)
(0.108731 -0.00105106 -0.000521494)
(0.101712 -0.00101604 -0.000420043)
(0.099265 -0.000836067 -0.000428345)
(0.108844 -0.00103643 -0.000521883)
(0.101666 -0.000997499 -0.00041945)
(0.0992116 -0.000822284 -0.000434916)
(0.108958 -0.00102171 -0.000523181)
(0.0991456 -0.000810245 -0.000443594)
(0.109064 -0.00100499 -0.000524194)
(0.097048 -0.000690734 -0.000414443)
(0.0925506 -0.000518096 -0.000446772)
(0.10434 -0.000689958 -0.000601283)
(0.0970068 -0.000676178 -0.000425983)
(0.0924359 -0.000504432 -0.000454563)
(0.104439 -0.000676552 -0.000610251)
(0.0969563 -0.000661335 -0.000437491)
(0.0923095 -0.000495208 -0.000470216)
(0.104541 -0.000660241 -0.000616418)
(0.0968932 -0.000649045 -0.00045197)
(0.0921722 -0.000489144 -0.00049013)
(0.104629 -0.000643938 -0.000624723)
(0.0968177 -0.000640974 -0.000468971)
(0.0920152 -0.000486194 -0.000510337)
(0.104715 -0.000635498 -0.00064262)
(0.0918503 -0.000487468 -0.000530432)
(0.104787 -0.000630137 -0.000661158)
(0.0883506 -0.000345558 -0.000494781)
(0.0792667 -0.000221574 -0.00044009)
(0.0966265 -0.000311281 -0.000754602)
(0.0881576 -0.000337745 -0.000503023)
(0.078946 -0.000214407 -0.000442872)
(0.0965877 -0.000303493 -0.000757872)
(0.0879515 -0.000338159 -0.000519632)
(0.0786015 -0.000212293 -0.00044624)
(0.0965359 -0.000300954 -0.000767686)
(0.0877294 -0.000342298 -0.000537626)
(0.0782683 -0.000215159 -0.000450685)
(0.0964687 -0.000302297 -0.000779486)
(0.0874882 -0.000349057 -0.000555994)
(0.077908 -0.000219217 -0.000455194)
(0.0963868 -0.000306173 -0.000793631)
(0.0775558 -0.000226093 -0.000463215)
(0.0962924 -0.000313894 -0.000809713)
(0.0711362 -0.000119718 -0.000294139)
(0.0545707 -7.89116e-05 -0.000201461)
(0.0806229 -5.22099e-05 -0.000569652)
(0.0706835 -0.000116989 -0.000299889)
(0.0541413 -7.80471e-05 -0.000199526)
(0.080282 -5.24838e-05 -0.000569318)
(0.0702304 -0.000116264 -0.000302093)
(0.0537004 -7.86792e-05 -0.000197007)
(0.0799194 -5.19479e-05 -0.00056184)
(0.069777 -0.000118118 -0.000303785)
(0.0532796 -8.145e-05 -0.000196185)
(0.0795666 -5.37166e-05 -0.000555353)
(0.0693222 -0.000121624 -0.000306945)
(0.0528472 -8.42467e-05 -0.000195017)
(0.0791934 -5.62602e-05 -0.00054982)
(0.0524298 -8.61661e-05 -0.000195681)
(0.0788251 -5.96249e-05 -0.00054799)
(0.0410265 -4.60361e-05 -0.000253375)
(0.0482659 4.56026e-05 -0.000415936)
(0.040607 -4.79784e-05 -0.000237947)
(0.0477804 3.7646e-05 -0.000385416)
(0.0401953 -5.15931e-05 -0.000227255)
(0.047292 2.85785e-05 -0.000365338)
(0.039789 -5.51026e-05 -0.000219108)
(0.0468236 2.05386e-05 -0.000350114)
(0.0393898 -5.65373e-05 -0.00021149)
(0.0463523 1.4809e-05 -0.000336478)
(0.0458981 1.31417e-05 -0.00032278)
(0.0515926 -0.000222619 0.000211952)
(0.0686658 -0.000333245 0.000259907)
(0.0563779 -0.000301846 0.000376081)
(0.0511466 -0.000214721 0.000199523)
(0.0683369 -0.000329891 0.000246238)
(0.0558846 -0.000294281 0.000357372)
(0.0507056 -0.000208205 0.000190821)
(0.0680069 -0.000336055 0.000241566)
(0.0554092 -0.000275874 0.000327027)
(0.0502699 -0.000201226 0.000184865)
(0.0676751 -0.000341465 0.000240025)
(0.0549445 -0.000251596 0.000289806)
(0.0498365 -0.000191456 0.000180161)
(0.0673286 -0.000346603 0.000240591)
(0.0544868 -0.000233072 0.000263346)
(0.0669886 -0.000348108 0.000241164)
(0.0540473 -0.000212975 0.000245964)
(0.0883569 -0.000494678 0.000339233)
(0.0966303 -0.000753771 0.00030471)
(0.0925549 -0.00044642 0.000514614)
(0.0881671 -0.000505012 0.000331739)
(0.0965916 -0.000757345 0.000296824)
(0.0924429 -0.000453295 0.00049788)
(0.0879623 -0.00052205 0.000331761)
(0.0965432 -0.000769139 0.000295016)
(0.0923191 -0.000471908 0.000489178)
(0.087742 -0.00053923 0.000335019)
(0.0964729 -0.000779485 0.000295059)
(0.0921819 -0.000490496 0.000481499)
(0.0875025 -0.000558255 0.000342135)
(0.0963969 -0.000794491 0.000299262)
(0.0920296 -0.000512838 0.000481059)
(0.0962997 -0.000810984 0.00030721)
(0.0918631 -0.000529816 0.000478363)
(0.105845 -0.000996885 0.000192635)
(0.109537 -0.00109888 7.67273e-06)
(0.108925 -0.000872128 0.000393152)
(0.105962 -0.00100385 0.000193645)
(0.109707 -0.00110026 1.10591e-05)
(0.109114 -0.000880301 0.000387973)
(0.106068 -0.0010108 0.000195054)
(0.109869 -0.00110546 1.6827e-05)
(0.109297 -0.000890055 0.000381528)
(0.10616 -0.00102022 0.000198204)
(0.110016 -0.00111327 2.23902e-05)
(0.109466 -0.000899186 0.000376656)
(0.10624 -0.00103336 0.000204468)
(0.11016 -0.00112736 3.15117e-05)
(0.109634 -0.000915405 0.000377262)
(0.110288 -0.00113793 4.30846e-05)
(0.109786 -0.000932695 0.000379115)
(0.113694 -0.00122882 -0.000159996)
(0.115203 -0.00128766 -0.000245547)
(0.116427 -0.00106199 2.20272e-05)
(0.113909 -0.00122557 -0.000155456)
(0.115435 -0.00128499 -0.000242057)
(0.116712 -0.00106147 2.28092e-05)
(0.114118 -0.00122969 -0.000148084)
(0.11566 -0.00128426 -0.00023727)
(0.116992 -0.00106438 2.47556e-05)
(0.114319 -0.00124161 -0.000137243)
(0.115882 -0.00128689 -0.000229118)
(0.11727 -0.00107393 2.92961e-05)
(0.114513 -0.00125189 -0.000124289)
(0.116097 -0.00129294 -0.000218059)
(0.11754 -0.00109061 3.79472e-05)
(0.116311 -0.00129397 -0.000206968)
(0.117808 -0.00109928 4.63425e-05)
(0.117015 -0.00134547 -0.00033281)
(0.117111 -0.00130134 -0.00039656)
(0.11972 -0.00113931 -0.000203863)
(0.117257 -0.00134626 -0.000327561)
(0.117366 -0.00129915 -0.000391103)
(0.120033 -0.00114103 -0.000201154)
(0.117496 -0.00134396 -0.000321941)
(0.117617 -0.00129677 -0.000387266)
(0.120342 -0.00114318 -0.000198968)
(0.117732 -0.00133957 -0.000315062)
(0.117866 -0.00129325 -0.000383952)
(0.12065 -0.00114344 -0.000195839)
(0.117968 -0.00133553 -0.000306907)
(0.118113 -0.00129048 -0.000380627)
(0.120958 -0.00114561 -0.00019088)
(0.118362 -0.00128196 -0.000373766)
(0.121266 -0.00114487 -0.000184768)
(0.117464 -0.00125619 -0.00045205)
(0.116526 -0.00112752 -0.000516072)
(0.120324 -0.00103563 -0.000394619)
(0.117727 -0.00125114 -0.000447318)
(0.116798 -0.00112005 -0.000514534)
(0.120653 -0.00103228 -0.000391141)
(0.11799 -0.00124812 -0.000444578)
(0.117069 -0.00111487 -0.000514256)
(0.12098 -0.00103122 -0.000389266)
(0.118251 -0.00124673 -0.000443881)
(0.117337 -0.00111039 -0.000514469)
(0.121306 -0.00103179 -0.000389039)
(0.118512 -0.0012397 -0.000441419)
(0.117607 -0.00110461 -0.000515839)
(0.121634 -0.00103356 -0.000390279)
(0.117877 -0.00109041 -0.000514121)
(0.121961 -0.00102632 -0.000387194)
(0.11587 -0.000992051 -0.00058046)
(0.113985 -0.000799218 -0.00067188)
(0.118964 -0.00077819 -0.000586922)
(0.116149 -0.000983889 -0.000584702)
(0.114251 -0.000788845 -0.000677433)
(0.119298 -0.000771618 -0.000589173)
(0.116427 -0.000976682 -0.000588728)
(0.114521 -0.000778776 -0.000681332)
(0.119632 -0.000767839 -0.000592649)
(0.116704 -0.000967435 -0.000591993)
(0.114783 -0.000768436 -0.00068712)
(0.119965 -0.000763547 -0.000596227)
(0.116982 -0.000954245 -0.000594753)
(0.115049 -0.000762042 -0.000701471)
(0.120301 -0.000759025 -0.000602376)
(0.115307 -0.000752894 -0.000714677)
(0.120636 -0.000749473 -0.000606251)
(0.112439 -0.000603094 -0.000768392)
(0.108926 -0.000398263 -0.000873955)
(0.11577 -0.00040401 -0.000825205)
(0.112697 -0.000590904 -0.000773571)
(0.109111 -0.000393326 -0.000882197)
(0.116073 -0.000399232 -0.000830749)
(0.112952 -0.000577801 -0.000779275)
(0.109297 -0.000386852 -0.000890442)
(0.116378 -0.000392698 -0.000835468)
(0.113203 -0.000570781 -0.000794433)
(0.109464 -0.00038105 -0.000898988)
(0.116678 -0.000386717 -0.000843607)
(0.113448 -0.000569001 -0.0008165)
(0.109635 -0.000382778 -0.000916063)
(0.116979 -0.000388811 -0.000864321)
(0.109787 -0.000385935 -0.000933259)
(0.11727 -0.000390454 -0.00088142)
(0.105844 -0.000198492 -0.00099736)
(0.0981731 -3.1093e-05 -0.000951225)
(0.109539 -1.30159e-05 -0.00109896)
(0.105962 -0.000199842 -0.00100475)
(0.0981113 -3.48423e-05 -0.00094643)
(0.109705 -1.69916e-05 -0.00110168)
(0.106066 -0.000201315 -0.00101155)
(0.0980387 -3.94381e-05 -0.000939658)
(0.109869 -2.24109e-05 -0.00110671)
(0.106159 -0.000204356 -0.00102057)
(0.0979492 -4.46202e-05 -0.00093415)
(0.110015 -2.81348e-05 -0.00111475)
(0.106239 -0.000210675 -0.00103328)
(0.0978528 -5.11017e-05 -0.000934883)
(0.110158 -3.6691e-05 -0.00112713)
(0.0977399 -5.95303e-05 -0.00093912)
(0.110288 -4.86978e-05 -0.00113835)
(0.0912574 9.82499e-05 -0.000822245)
(0.0728144 0.000133136 -0.000641331)
(0.0957017 0.000245675 -0.000971667)
(0.0910234 9.25672e-05 -0.000809713)
(0.072405 0.000121717 -0.000614731)
(0.0955134 0.00023749 -0.000960272)
(0.0907775 8.55386e-05 -0.000796539)
(0.0719841 0.000109277 -0.00059503)
(0.0953155 0.000227055 -0.000944131)
(0.0905193 7.77202e-05 -0.00078648)
(0.0715731 9.71642e-05 -0.000579787)
(0.0951071 0.000215563 -0.000936375)
(0.0902464 6.93688e-05 -0.000780414)
(0.0711526 8.72532e-05 -0.000566334)
(0.0948873 0.000203702 -0.000928954)
(0.0707392 7.96979e-05 -0.000554763)
(0.0946578 0.000190404 -0.0009222)
(0.0567318 0.000164064 -0.000569356)
(0.0615022 0.000292331 -0.000755962)
(0.0561613 0.000146345 -0.000532904)
(0.0608657 0.00027101 -0.000723238)
(0.0556025 0.000129311 -0.000509159)
(0.060228 0.00025129 -0.000699105)
(0.0550525 0.000115448 -0.000489968)
(0.0596144 0.000232681 -0.000678866)
(0.054512 0.000106351 -0.000471616)
(0.059008 0.000218556 -0.000658687)
(0.0584188 0.000209298 -0.000639154)
(0.0612946 -0.000400373 0.000540343)
(0.0781903 -0.000390551 0.000597151)
(0.064914 -0.000447513 0.000725298)
(0.0607693 -0.000379047 0.000502439)
(0.0778877 -0.000389968 0.000576711)
(0.0643302 -0.000439075 0.000698309)
(0.0602617 -0.000339283 0.000440351)
(0.0775951 -0.000379813 0.000543597)
(0.0637711 -0.000421469 0.00065121)
(0.0597787 -0.000300257 0.000379238)
(0.0773037 -0.000363941 0.000502384)
(0.0632248 -0.000396132 0.000590422)
(0.0593093 -0.000272474 0.000337356)
(0.0770217 -0.000358736 0.000474703)
(0.0626999 -0.000375051 0.000539879)
(0.0767393 -0.000351276 0.000452023)
(0.0621912 -0.000359439 0.000499991)
(0.0970522 -0.000413832 0.00068694)
(0.104338 -0.00059984 0.000686322)
(0.0993849 -0.000410517 0.000882262)
(0.0970133 -0.000424191 0.000669584)
(0.104446 -0.000607444 0.000670604)
(0.0993566 -0.000415382 0.000862368)
(0.0969657 -0.000436621 0.000654096)
(0.104543 -0.000615315 0.00065419)
(0.0993184 -0.000422911 0.000846571)
(0.0969041 -0.000453671 0.000643533)
(0.104637 -0.000625051 0.000638107)
(0.0992761 -0.00042688 0.000828915)
(0.0968296 -0.000468888 0.000633545)
(0.104719 -0.000644283 0.00063097)
(0.0992219 -0.000436662 0.000816966)
(0.104793 -0.000657914 0.000620855)
(0.0991574 -0.000440467 0.000800144)
(0.112442 -0.00076541 0.000598432)
(0.11577 -0.000822311 0.000400465)
(0.113985 -0.000669095 0.000794872)
(0.112698 -0.000772068 0.000586519)
(0.116076 -0.000828456 0.000395438)
(0.114254 -0.00067519 0.00078469)
(0.112953 -0.000780138 0.000574382)
(0.116379 -0.000834196 0.000388962)
(0.114521 -0.000680535 0.000774746)
(0.113201 -0.000795241 0.00056686)
(0.11668 -0.000844058 0.000384064)
(0.114785 -0.000688703 0.000765275)
(0.113446 -0.00081508 0.000562894)
(0.116977 -0.00086354 0.00038492)
(0.115046 -0.000701536 0.000756739)
(0.117271 -0.000879962 0.000384981)
(0.115305 -0.000713959 0.000747346)
(0.119632 -0.000904119 0.000209774)
(0.121053 -0.000924311 7.30164e-05)
(0.120893 -0.000757882 0.000385467)
(0.119987 -0.000908037 0.000208436)
(0.121423 -0.000925762 7.14895e-05)
(0.121267 -0.000759357 0.000382888)
(0.120339 -0.000914568 0.000207943)
(0.121791 -0.000929197 7.03721e-05)
(0.121639 -0.000762224 0.000381324)
(0.120689 -0.000927948 0.00021036)
(0.122159 -0.000935738 7.13926e-05)
(0.122011 -0.000768989 0.000380383)
(0.12104 -0.000943104 0.000214191)
(0.122526 -0.000949713 7.5651e-05)
(0.122383 -0.000784121 0.000382631)
(0.122892 -0.000956899 7.91944e-05)
(0.122754 -0.000793826 0.000381336)
(0.122904 -0.000945115 -7.3455e-05)
(0.123096 -0.000883402 -0.000208607)
(0.124115 -0.000757103 5.45134e-05)
(0.123288 -0.000946765 -7.33723e-05)
(0.123487 -0.000882676 -0.000207228)
(0.124525 -0.000757675 5.40231e-05)
(0.123672 -0.000950027 -7.31931e-05)
(0.123876 -0.000883928 -0.000206891)
(0.124933 -0.00075952 5.35723e-05)
(0.124056 -0.00095627 -7.17875e-05)
(0.124265 -0.000886239 -0.000207354)
(0.125341 -0.000762201 5.37537e-05)
(0.124441 -0.000961559 -6.88406e-05)
(0.124657 -0.000892466 -0.000207788)
(0.125752 -0.000768604 5.51273e-05)
(0.125047 -0.000892287 -0.000205159)
(0.126161 -0.000770706 5.6343e-05)
(0.123683 -0.000821794 -0.000340718)
(0.122932 -0.000696497 -0.000473485)
(0.124958 -0.000620776 -0.000265526)
(0.124078 -0.000820557 -0.000339278)
(0.123326 -0.000693243 -0.000472598)
(0.125379 -0.000619029 -0.000264326)
(0.124474 -0.000821105 -0.000339033)
(0.12372 -0.000692008 -0.000472894)
(0.125799 -0.000618728 -0.000263846)
(0.12487 -0.000823882 -0.000340306)
(0.124114 -0.000691941 -0.000474358)
(0.126219 -0.000619358 -0.000264146)
(0.125269 -0.000824835 -0.000340621)
(0.124511 -0.000694863 -0.000479269)
(0.126643 -0.000622313 -0.000265722)
(0.124907 -0.000691528 -0.000480728)
(0.127064 -0.000620311 -0.000264778)
(0.122582 -0.000567703 -0.000607838)
(0.120892 -0.000387842 -0.000760802)
(0.123949 -0.000383486 -0.000586698)
(0.122974 -0.000564487 -0.000608618)
(0.121265 -0.00038532 -0.000761615)
(0.124362 -0.00038071 -0.000586625)
(0.123367 -0.000562507 -0.000610941)
(0.121638 -0.000383836 -0.00076384)
(0.124775 -0.000379086 -0.000587636)
(0.123761 -0.000562193 -0.000616962)
(0.12201 -0.000382945 -0.00076978)
(0.125188 -0.000378022 -0.000589909)
(0.124158 -0.000560506 -0.000623752)
(0.122383 -0.000385306 -0.000784259)
(0.125605 -0.000378487 -0.000595998)
(0.122755 -0.000384632 -0.0007934)
(0.12602 -0.000375596 -0.000598756)
(0.11963 -0.000212926 -0.000906617)
(0.116427 -2.64146e-05 -0.0010633)
(0.12105 -7.60736e-05 -0.000927155)
(0.119984 -0.000211588 -0.000910147)
(0.116709 -2.71594e-05 -0.00106346)
(0.121419 -7.43799e-05 -0.000928065)
(0.120336 -0.000210985 -0.000916388)
(0.116992 -2.90491e-05 -0.00106658)
(0.121787 -7.31552e-05 -0.000931001)
(0.120687 -0.00021324 -0.000929326)
(0.117268 -3.33313e-05 -0.00107655)
(0.122154 -7.39534e-05 -0.00093712)
(0.121038 -0.000217333 -0.00094389)
(0.11754 -4.17533e-05 -0.00109136)
(0.122522 -7.83683e-05 -0.000950426)
(0.117808 -5.05298e-05 -0.00110007)
(0.122888 -8.23359e-05 -0.000957115)
(0.113694 0.000154559 -0.00122988)
(0.106723 0.000285751 -0.00123528)
(0.115203 0.000240942 -0.00128833)
(0.113909 0.000149984 -0.0012275)
(0.106748 0.000278273 -0.00122659)
(0.115431 0.000237082 -0.00128635)
(0.114117 0.00014264 -0.00123199)
(0.106772 0.000269109 -0.00121498)
(0.115658 0.000232386 -0.00128563)
(0.114319 0.000132087 -0.00124283)
(0.106785 0.000257955 -0.00121506)
(0.115878 0.000223847 -0.00128831)
(0.114514 0.00011941 -0.00125241)
(0.106791 0.000245429 -0.00121541)
(0.116094 0.000213204 -0.00129318)
(0.10679 0.00023202 -0.00121091)
(0.116308 0.000202153 -0.00129474)
(0.10039 0.000373016 -0.00114353)
(0.0824625 0.000380458 -0.000997684)
(0.102305 0.000420442 -0.00124591)
(0.100241 0.000361498 -0.00112707)
(0.0820126 0.000365498 -0.00097624)
(0.102176 0.00040964 -0.00123528)
(0.100086 0.000349382 -0.00111409)
(0.0815644 0.000350141 -0.000954602)
(0.102046 0.000399198 -0.00122145)
(0.0999204 0.00033694 -0.00110662)
(0.0811222 0.000335265 -0.00093879)
(0.101903 0.000388443 -0.00121181)
(0.0997466 0.000324061 -0.00109515)
(0.0806879 0.000321977 -0.000922059)
(0.101753 0.000376483 -0.00119875)
(0.0802554 0.000310036 -0.000905491)
(0.101597 0.000364815 -0.00118543)
(0.0662514 0.000395469 -0.000950439)
(0.0690825 0.00047253 -0.00104517)
(0.0655357 0.000377507 -0.000926244)
(0.0683435 0.000461655 -0.00101752)
(0.0648387 0.000359769 -0.000902549)
(0.0676087 0.000445968 -0.000991921)
(0.0641591 0.000344152 -0.000878114)
(0.0668987 0.000431188 -0.000963743)
(0.0634951 0.000331343 -0.000854984)
(0.0662004 0.000417552 -0.000936087)
(0.0655187 0.000403938 -0.000912199)
(0.0681913 -0.000504442 0.000891544)
(0.0842443 -0.000449907 0.000958376)
(0.0703022 -0.000527496 0.00100465)
(0.0675722 -0.00049351 0.000857296)
(0.0839003 -0.000443999 0.000932971)
(0.0696288 -0.000515405 0.000975686)
(0.0669677 -0.000482949 0.000814481)
(0.0835631 -0.000439453 0.000904765)
(0.0689711 -0.000502061 0.000940711)
(0.0663786 -0.000471026 0.000766219)
(0.0832349 -0.000432611 0.000869725)
(0.0683326 -0.000488681 0.000899722)
(0.0658065 -0.000458433 0.000718627)
(0.0829084 -0.000425099 0.000833855)
(0.0677086 -0.000474861 0.0008573)
(0.0825899 -0.000418033 0.000800655)
(0.0671049 -0.000462191 0.000816553)
(0.101816 -0.00041805 0.00106592)
(0.108495 -0.000514437 0.00107401)
(0.103082 -0.000433041 0.00119161)
(0.101789 -0.000419364 0.00104771)
(0.108616 -0.000516295 0.0010579)
(0.10304 -0.000426935 0.00117254)
(0.101759 -0.000419486 0.00102923)
(0.108734 -0.000519933 0.00104567)
(0.102993 -0.000424572 0.00116007)
(0.101721 -0.000418233 0.00100914)
(0.108849 -0.000520684 0.00103058)
(0.102941 -0.000421842 0.0011478)
(0.101677 -0.000417216 0.000989778)
(0.108961 -0.000522355 0.00101538)
(0.102882 -0.000419629 0.00113353)
(0.109069 -0.000523176 0.000997974)
(0.102814 -0.000415176 0.00111648)
(0.115872 -0.000578173 0.000988324)
(0.118965 -0.000584162 0.000775768)
(0.116527 -0.000513367 0.00112416)
(0.11615 -0.000583309 0.000980052)
(0.119299 -0.000587162 0.000769018)
(0.116798 -0.000512677 0.00111608)
(0.116428 -0.000588487 0.000972953)
(0.119633 -0.000591611 0.000765053)
(0.117068 -0.000513084 0.00111078)
(0.116704 -0.000592309 0.000963065)
(0.119965 -0.000596291 0.000760809)
(0.117336 -0.000514638 0.00110721)
(0.11698 -0.000595684 0.000949491)
(0.120299 -0.000602901 0.000755231)
(0.117603 -0.0005158 0.00109912)
(0.120633 -0.000608034 0.000745728)
(0.117873 -0.000514603 0.00108317)
(0.122583 -0.000605142 0.00056608)
(0.12395 -0.000583498 0.000382031)
(0.122931 -0.000470549 0.000695272)
(0.122974 -0.000606816 0.000562739)
(0.124363 -0.000584223 0.000379267)
(0.123325 -0.000470571 0.000691694)
(0.123367 -0.000610106 0.0005606)
(0.124776 -0.000586117 0.000377576)
(0.123718 -0.000471791 0.000690106)
(0.12376 -0.00061716 0.000559956)
(0.125188 -0.000589345 0.000376374)
(0.124111 -0.000474334 0.000690072)
(0.124155 -0.000625053 0.000557607)
(0.125604 -0.000596475 0.000376295)
(0.124507 -0.000480443 0.000691891)
(0.126019 -0.000600418 0.000372727)
(0.124902 -0.000483312 0.000686785)
(0.125783 -0.000561037 0.000187276)
(0.12602 -0.000485127 6.99642e-07)
(0.126019 -0.000372038 0.00029907)
(0.126217 -0.000561952 0.000186164)