/*--------------------------------*- C++ -*----------------------------------*\
| =========                 |                                                 |
| \\      /  F ield         | OpenFOAM: The Open Source CFD Toolbox           |
|  \\    /   O peration     | Version:  2212                                  |
|   \\  /    A nd           | Website:  www.openfoam.com                      |
|    \\/     M anipulation  |                                                 |
\*---------------------------------------------------------------------------*/
FoamFile
{
    version     2.0;
    format      ascii;
    arch        "LSB;label=32;scalar=64";
    class       volScalarField;
    location    "1.5";
    object      epsilon;
}
// * * * * * * * * * * * * * * * * * * * * * * * * * * * * * * * * * * * * * //

dimensions      [0 2 -3 0 0 0 0];

internalField   nonuniform List<scalar> 
6840
(
90.5034
12.1248
4.38869
2.46658
1.63315
1.18306
0.902001
0.720644
0.594557
0.502457
0.432607
0.379173
0.336131
0.299563
0.269708
0.245354
0.225221
0.208421
0.194849
0.180506
58.5856
14.5696
6.08946
3.33295
2.08216
1.40266
0.998641
0.740271
0.565883
0.4439
0.355987
0.290881
0.241344
0.202924
0.173
0.14967
0.131126
0.116198
0.104308
0.0950622
45.0226
13.4729
5.73075
3.07322
1.86023
1.22699
0.873574
0.649778
0.497012
0.389486
0.311296
0.252986
0.208993
0.175235
0.148858
0.127938
0.111195
0.0976755
0.0867242
0.0778877
38.7028
13.0541
5.74336
3.08733
1.88067
1.22751
0.869483
0.645393
0.492604
0.384796
0.307048
0.249076
0.205022
0.171052
0.144494
0.123462
0.106616
0.0929787
0.0818561
0.0729446
36.0571
12.8529
5.76645
3.10212
1.89476
1.2267
0.866515
0.644002
0.492276
0.383999
0.305846
0.247986
0.204011
0.170073
0.143511
0.122451
0.105554
0.0918569
0.0806936
0.0719795
36.0571
12.8529
5.76645
3.10212
1.89476
1.2267
0.866512
0.643998
0.49227
0.383991
0.305834
0.24797
0.203989
0.17004
0.143461
0.122383
0.105462
0.0917338
0.0805641
0.0721465
38.7028
13.0541
5.74336
3.08733
1.88066
1.2275
0.869476
0.645383
0.492591
0.384779
0.307021
0.24904
0.204969
0.170971
0.14438
0.123303
0.106389
0.0926595
0.0814768
0.073177
45.0226
13.4729
5.73075
3.07322
1.86022
1.22699
0.873568
0.649768
0.496999
0.389462
0.311265
0.252943
0.208932
0.175145
0.148722
0.127742
0.110907
0.0972506
0.0861461
0.0776095
58.5856
14.5696
6.08946
3.33294
2.08216
1.40266
0.998638
0.740267
0.565878
0.44389
0.355972
0.290857
0.241308
0.202835
0.172875
0.149486
0.130827
0.1157
0.103559
0.0943172
90.5034
12.1248
4.38869
2.46658
1.63315
1.18306
0.902
0.720644
0.594556
0.502457
0.432606
0.379174
0.336129
0.299563
0.269706
0.245355
0.225223
0.208425
0.194859
0.180527
58.5856
14.5696
6.08946
3.33294
2.08216
1.40266
0.998639
0.740267
0.565879
0.443891
0.355972
0.290857
0.241306
0.202839
0.172873
0.149483
0.130824
0.115696
0.103553
0.0943058
16.5373
9.49238
5.0127
2.8606
1.75746
1.14759
0.786929
0.562047
0.415362
0.315941
0.246323
0.19621
0.159203
0.131226
0.109747
0.093149
0.0800824
0.0695811
0.0604894
0.0560277
13.6679
8.73671
5.07741
3.05388
1.92224
1.26609
0.869292
0.618635
0.453964
0.342041
0.263659
0.207323
0.165916
0.134864
0.111164
0.0927075
0.0781861
0.0666454
0.0571628
0.0500332
12.9054
8.33993
5.07879
3.15547
2.02775
1.35121
0.933544
0.666467
0.489556
0.368608
0.283621
0.222407
0.177352
0.143555
0.117774
0.097802
0.0821181
0.0696516
0.0596193
0.0513414
12.6882
8.1544
5.07113
3.20039
2.0794
1.39506
0.967836
0.692728
0.509645
0.384025
0.295515
0.231661
0.184608
0.149279
0.122303
0.101404
0.0849884
0.0719358
0.0614456
0.0529623
12.6882
8.1544
5.07113
3.20038
2.07939
1.39506
0.967831
0.692722
0.509637
0.384016
0.295503
0.231647
0.18459
0.149256
0.122275
0.10137
0.0849464
0.0718863
0.061389
0.0528979
12.9054
8.33993
5.07879
3.15547
2.02774
1.3512
0.933534
0.666454
0.489541
0.368589
0.283597
0.222377
0.177314
0.143508
0.117715
0.0977292
0.0820304
0.069549
0.0595052
0.0511919
13.6679
8.73671
5.0774
3.05388
1.92223
1.26609
0.869286
0.618627
0.453954
0.342027
0.263641
0.2073
0.165888
0.134831
0.111116
0.0926492
0.0781189
0.0665731
0.0570934
0.049656
16.5373
9.49238
5.0127
2.8606
1.75746
1.14759
0.786929
0.562047
0.415362
0.315941
0.246323
0.19621
0.159203
0.131233
0.109741
0.0931467
0.0800814
0.0695806
0.060489
0.0560277
58.5856
14.5696
6.08946
3.33295
2.08216
1.40266
0.998641
0.74027
0.565883
0.4439
0.355987
0.290881
0.241344
0.202924
0.172999
0.149671
0.131128
0.116202
0.104314
0.0950611
45.0226
13.4729
5.73075
3.07322
1.86022
1.22699
0.873568
0.649768
0.496999
0.389462
0.311265
0.252944
0.208934
0.175147
0.14872
0.12774
0.110906
0.0972502
0.0861454
0.0776096
13.6679
8.73671
5.0774
3.05388
1.92223
1.26609
0.869285
0.618627
0.453954
0.342027
0.263641
0.2073
0.165887
0.134827
0.111119
0.0926503
0.0781184
0.066571
0.0570941
0.0496551
11.8601
7.76395
4.99734
3.24076
2.14419
1.45499
1.0141
0.725635
0.532155
0.399148
0.305544
0.23822
0.188823
0.151913
0.123875
0.102238
0.08532
0.0719284
0.0611851
0.0525858
11.6229
7.60535
5.01031
3.34209
2.26848
1.57142
1.11236
0.804591
0.594208
0.447522
0.343217
0.267641
0.211908
0.170131
0.138338
0.1138
0.0946187
0.0794474
0.0673151
0.0575211
11.5726
7.56718
5.02065
3.38345
2.32103
1.62326
1.15829
0.843157
0.625693
0.472852
0.363488
0.283858
0.224911
0.180595
0.146795
0.120673
0.100232
0.0840536
0.0711123
0.0606361
11.5726
7.56718
5.02065
3.38344
2.32103
1.62326
1.15828
0.843153
0.625688
0.472846
0.36348
0.283849
0.2249
0.180581
0.146778
0.120652
0.100207
0.0840247
0.0710834
0.0606212
11.6229
7.60535
5.0103
3.34209
2.26848
1.57142
1.11236
0.804585
0.5942
0.447512
0.343204
0.267626
0.21189
0.170108
0.138308
0.113763
0.0945747
0.0793968
0.0672627
0.0574903
11.8601
7.76395
4.99734
3.24076
2.14419
1.45499
1.0141
0.725635
0.532155
0.399148
0.305545
0.238221
0.188825
0.151916
0.123872
0.102237
0.0853198
0.0719285
0.0611858
0.0525891
13.6679
8.73671
5.07741
3.05388
1.92224
1.26609
0.869292
0.618635
0.453964
0.342041
0.263659
0.207323
0.165916
0.134867
0.111162
0.092706
0.0781849
0.0666443
0.0571615
0.050038
45.0226
13.4729
5.73075
3.07322
1.86023
1.22699
0.873574
0.649778
0.497012
0.389486
0.311296
0.252986
0.208994
0.175236
0.148855
0.127936
0.111194
0.0976745
0.0867237
0.0778956
38.7028
13.0541
5.74336
3.08733
1.88066
1.2275
0.869477
0.645383
0.492591
0.384779
0.307022
0.24904
0.204971
0.170975
0.144377
0.123302
0.106388
0.0926594
0.0814775
0.0731796
12.9054
8.33993
5.07879
3.15547
2.02774
1.3512
0.933534
0.666454
0.489541
0.368589
0.283596
0.222376
0.177313
0.143507
0.117717
0.0977292
0.0820295
0.0695472
0.0595027
0.0511878
11.6229
7.60535
5.0103
3.34209
2.26848
1.57142
1.11236
0.804585
0.5942
0.447512
0.343204
0.267625
0.211889
0.170107
0.138309
0.113764
0.0945741
0.0793957
0.0672611
0.0574873
11.4933
7.5119
5.02843
3.434
2.3892
1.6928
1.22111
0.896487
0.669456
0.508122
0.391656
0.306285
0.242784
0.194888
0.158282
0.129955
0.107779
0.0902305
0.0761949
0.0648119
11.4757
7.50136
5.04297
3.47002
2.43665
1.74299
1.26863
0.938713
0.705584
0.538337
0.416595
0.32673
0.259501
0.208559
0.169487
0.139172
0.115394
0.0965486
0.0814527
0.0691557
11.4757
7.50136
5.04297
3.47002
2.43665
1.74299
1.26863
0.938711
0.705583
0.538335
0.416592
0.326727
0.259498
0.208556
0.169483
0.139167
0.115388
0.0965419
0.0814451
0.0691264
11.4933
7.5119
5.02843
3.434
2.3892
1.6928
1.22111
0.896487
0.669456
0.508122
0.391656
0.306286
0.242785
0.194888
0.158281
0.129955
0.10778
0.0902307
0.0761954
0.064814
11.6229
7.60535
5.01031
3.34209
2.26848
1.57142
1.11236
0.804591
0.594208
0.447522
0.343217
0.267641
0.211908
0.170131
0.138337
0.1138
0.0946183
0.079447
0.0673147
0.0575223
12.9054
8.33993
5.07879
3.15547
2.02775
1.35121
0.933544
0.666467
0.489556
0.368608
0.283621
0.222407
0.177351
0.143554
0.117774
0.0978021
0.082118
0.0696512
0.0596189
0.0513414
38.7028
13.0541
5.74336
3.08733
1.88067
1.22751
0.869483
0.645393
0.492603
0.384796
0.307047
0.249076
0.205022
0.171053
0.144491
0.123461
0.106614
0.0929772
0.0818545
0.0729426
36.0571
12.8529
5.76645
3.10212
1.89476
1.2267
0.866512
0.643998
0.49227
0.383991
0.305835
0.24797
0.203989
0.170041
0.143462
0.122384
0.105463
0.0917348
0.0805662
0.0721524
12.6882
8.1544
5.07113
3.20038
2.07939
1.39506
0.967831
0.692722
0.509637
0.384016
0.295503
0.231646
0.18459
0.149256
0.122275
0.101369
0.0849454
0.0718849
0.0613869
0.052895
11.5726
7.56718
5.02065
3.38344
2.32103
1.62326
1.15828
0.843153
0.625688
0.472846
0.36348
0.283848
0.224899
0.18058
0.146778
0.120651
0.100206
0.0840235
0.0710818
0.0606194
11.4757
7.50136
5.04297
3.47002
2.43665
1.74299
1.26863
0.938711
0.705583
0.538335
0.416592
0.326727
0.259498
0.208556
0.169483
0.139167
0.115387
0.0965414
0.0814447
0.0691265
11.4647
7.49683
5.0577
3.50272
2.48038
1.79068
1.31522
0.981305
0.742925
0.57021
0.443351
0.348968
0.277889
0.223737
0.182021
0.149546
0.124008
0.103731
0.0874528
0.0740955
11.4647
7.49683
5.0577
3.50272
2.48038
1.79068
1.31522
0.981305
0.742925
0.57021
0.443351
0.348968
0.277889
0.223737
0.182021
0.149546
0.124009
0.103731
0.0874531
0.0740955
11.4757
7.50136
5.04297
3.47002
2.43665
1.74299
1.26863
0.938713
0.705584
0.538336
0.416594
0.32673
0.259501
0.208559
0.169487
0.139172
0.115393
0.0965483
0.0814524
0.0691554
11.5726
7.56718
5.02065
3.38345
2.32103
1.62326
1.15829
0.843157
0.625693
0.472852
0.363488
0.283858
0.22491
0.180594
0.146796
0.120673
0.100232
0.0840528
0.0711112
0.0606356
12.6882
8.1544
5.07113
3.20039
2.0794
1.39506
0.967836
0.692728
0.509645
0.384025
0.295515
0.231661
0.184607
0.149276
0.122306
0.101406
0.0849892
0.0719363
0.0614458
0.0529626
36.0571
12.8529
5.76645
3.10212
1.89476
1.2267
0.866515
0.644002
0.492276
0.383998
0.305845
0.247985
0.204011
0.170073
0.143511
0.12245
0.105554
0.0918563
0.0806928
0.0719773
36.0571
12.8529
5.76645
3.10212
1.89476
1.2267
0.866515
0.644002
0.492276
0.383999
0.305846
0.247986
0.204011
0.170073
0.143511
0.122451
0.105555
0.0918577
0.0806949
0.0719805
12.6882
8.1544
5.07113
3.20039
2.0794
1.39506
0.967836
0.692728
0.509645
0.384025
0.295515
0.231661
0.184608
0.149279
0.122303
0.101404
0.0849884
0.0719359
0.0614456
0.0529624
11.5726
7.56718
5.02065
3.38345
2.32103
1.62326
1.15829
0.843157
0.625693
0.472852
0.363488
0.283858
0.224911
0.180595
0.146795
0.120673
0.100232
0.0840536
0.0711124
0.060637
11.4757
7.50136
5.04297
3.47002
2.43665
1.74299
1.26863
0.938713
0.705584
0.538337
0.416595
0.32673
0.259501
0.20856
0.169487
0.139172
0.115394
0.0965488
0.081453
0.0691565
11.4647
7.49683
5.0577
3.50272
2.48038
1.79068
1.31522
0.981305
0.742925
0.57021
0.443351
0.348968
0.277889
0.223737
0.182021
0.149546
0.124009
0.103731
0.087453
0.074096
11.4647
7.49683
5.0577
3.50272
2.48038
1.79068
1.31522
0.981305
0.742925
0.57021
0.443351
0.348968
0.277889
0.223737
0.182021
0.149546
0.124008
0.103731
0.0874531
0.0740952
11.4757
7.50136
5.04297
3.47002
2.43665
1.74299
1.26863
0.938711
0.705583
0.538335
0.416592
0.326727
0.259498
0.208556
0.169483
0.139167
0.115387
0.0965415
0.0814448
0.0691264
11.5726
7.56718
5.02065
3.38344
2.32103
1.62326
1.15828
0.843153
0.625688
0.472846
0.36348
0.283848
0.224899
0.18058
0.146778
0.120652
0.100206
0.084024
0.0710826
0.0606205
12.6882
8.1544
5.07113
3.20038
2.07939
1.39506
0.967831
0.692721
0.509637
0.384016
0.295503
0.231647
0.184589
0.149253
0.122278
0.101371
0.0849472
0.0718869
0.0613894
0.0528982
36.0571
12.8529
5.76645
3.10212
1.89476
1.2267
0.866512
0.643998
0.49227
0.383991
0.305834
0.24797
0.203987
0.170039
0.143464
0.122385
0.105463
0.0917345
0.0805649
0.0721509
38.7028
13.0541
5.74336
3.08733
1.88067
1.22751
0.869483
0.645393
0.492603
0.384796
0.307047
0.249076
0.205021
0.171051
0.144493
0.123462
0.106616
0.092979
0.0818567
0.0729461
12.9054
8.33993
5.07879
3.15547
2.02775
1.35121
0.933544
0.666467
0.489556
0.368608
0.283621
0.222408
0.177352
0.143556
0.117774
0.0978024
0.082119
0.0696528
0.0596209
0.0513435
11.6229
7.60535
5.01031
3.34209
2.26848
1.57142
1.11236
0.804591
0.594208
0.447522
0.343217
0.267641
0.211909
0.170132
0.138338
0.1138
0.0946196
0.0794487
0.067317
0.0575247
11.4933
7.5119
5.02843
3.434
2.3892
1.6928
1.22111
0.896487
0.669456
0.508122
0.391656
0.306286
0.242785
0.194888
0.158282
0.129955
0.10778
0.0902314
0.0761961
0.0648149
11.4757
7.50136
5.04297
3.47002
2.43665
1.74299
1.26863
0.938711
0.705583
0.538335
0.416592
0.326727
0.259498
0.208556
0.169483
0.139167
0.115387
0.0965416
0.081445
0.0691261
11.4757
7.50136
5.04297
3.47002
2.43665
1.74299
1.26863
0.938713
0.705584
0.538336
0.416594
0.32673
0.259501
0.20856
0.169487
0.139172
0.115393
0.0965483
0.0814524
0.0691555
11.4933
7.5119
5.02843
3.434
2.3892
1.6928
1.22111
0.896486
0.669456
0.508122
0.391656
0.306286
0.242785
0.194888
0.158281
0.129955
0.10778
0.0902309
0.0761955
0.0648142
11.6229
7.60535
5.0103
3.34209
2.26848
1.57142
1.11236
0.804584
0.5942
0.447512
0.343204
0.267625
0.21189
0.170108
0.138308
0.113763
0.0945747
0.079397
0.067263
0.0574903
12.9054
8.33993
5.07879
3.15547
2.02774
1.3512
0.933534
0.666454
0.489541
0.368589
0.283597
0.222377
0.177314
0.143508
0.117716
0.0977294
0.0820306
0.0695491
0.0595052
0.0511915
38.7028
13.0541
5.74336
3.08733
1.88066
1.2275
0.869476
0.645383
0.492591
0.384779
0.307021
0.24904
0.204969
0.170971
0.14438
0.123304
0.106389
0.0926602
0.0814775
0.0731795
45.0226
13.4729
5.73075
3.07322
1.86023
1.22699
0.873574
0.649778
0.497012
0.389485
0.311296
0.252985
0.208993
0.175234
0.148857
0.127937
0.111194
0.0976746
0.086724
0.0778883
13.6679
8.73671
5.07741
3.05388
1.92224
1.26609
0.869292
0.618635
0.453964
0.342041
0.263659
0.207323
0.165917
0.134865
0.111165
0.0927085
0.0781879
0.0666483
0.0571631
0.0500376
11.8601
7.76395
4.99734
3.24076
2.14419
1.45499
1.0141
0.725635
0.532155
0.399148
0.305545
0.238221
0.188824
0.151914
0.123875
0.102239
0.0853216
0.0719305
0.0611882
0.0525898
11.6229
7.60535
5.0103
3.34209
2.26848
1.57142
1.11236
0.804585
0.5942
0.447512
0.343204
0.267625
0.211889
0.170107
0.138309
0.113764
0.0945749
0.0793969
0.0672627
0.0574892
11.5726
7.56718
5.02065
3.38344
2.32103
1.62326
1.15828
0.843153
0.625688
0.472846
0.36348
0.283848
0.224899
0.18058
0.146778
0.120651
0.100206
0.0840234
0.0710818
0.060619
11.5726
7.56718
5.02065
3.38345
2.32103
1.62326
1.15829
0.843158
0.625693
0.472852
0.363488
0.283858
0.224911
0.180594
0.146795
0.120672
0.100231
0.0840528
0.0711111
0.0606354
11.6229
7.60535
5.01031
3.34209
2.26848
1.57142
1.11236
0.804591
0.594208
0.447522
0.343217
0.267641
0.211909
0.170131
0.138337
0.1138
0.0946189
0.0794479
0.0673158
0.0575222
11.8601
7.76395
4.99734
3.24076
2.14419
1.45499
1.0141
0.725634
0.532155
0.399148
0.305545
0.238221
0.188825
0.151916
0.123873
0.102238
0.0853206
0.0719298
0.0611872
0.0525884
13.6679
8.73671
5.0774
3.05388
1.92223
1.26609
0.869286
0.618626
0.453954
0.342027
0.263641
0.2073
0.165888
0.134831
0.111116
0.0926491
0.0781188
0.0665728
0.0570931
0.0496581
45.0226
13.4729
5.73075
3.07322
1.86022
1.22699
0.873567
0.649768
0.497
0.389462
0.311265
0.252943
0.208932
0.175144
0.148722
0.127742
0.110908
0.0972512
0.0861464
0.0776108
58.5856
14.5696
6.08946
3.33295
2.08216
1.40266
0.99864
0.74027
0.565882
0.4439
0.355987
0.29088
0.241343
0.202922
0.172999
0.149669
0.131125
0.116197
0.104308
0.0950604
16.5373
9.49238
5.0127
2.8606
1.75746
1.14759
0.786928
0.562047
0.415362
0.315941
0.246323
0.19621
0.159203
0.131226
0.109747
0.0931494
0.080083
0.0695816
0.0604909
0.0560308
13.6679
8.73671
5.0774
3.05388
1.92223
1.26609
0.869285
0.618627
0.453954
0.342027
0.263641
0.207299
0.165886
0.134826
0.11112
0.0926503
0.0781184
0.066571
0.0570943
0.0496552
12.9054
8.33993
5.07879
3.15547
2.02774
1.3512
0.933534
0.666454
0.489541
0.368589
0.283596
0.222376
0.177313
0.143507
0.117717
0.097729
0.0820292
0.0695468
0.0595024
0.0511875
12.6882
8.1544
5.07113
3.20038
2.07939
1.39506
0.967831
0.692721
0.509637
0.384016
0.295503
0.231646
0.184589
0.149255
0.122275
0.101369
0.0849452
0.0718846
0.0613866
0.0528948
12.6882
8.1544
5.07113
3.20039
2.0794
1.39506
0.967836
0.692728
0.509645
0.384025
0.295515
0.231661
0.184608
0.149278
0.122303
0.101404
0.0849883
0.0719359
0.0614457
0.0529626
12.9054
8.33993
5.07879
3.15547
2.02775
1.35121
0.933544
0.666467
0.489556
0.368608
0.283621
0.222408
0.177352
0.143554
0.117774
0.0978027
0.0821191
0.0696529
0.059621
0.0513433
13.6679
8.73671
5.07741
3.05388
1.92224
1.2661
0.869293
0.618635
0.453964
0.342041
0.263659
0.207323
0.165917
0.134867
0.111163
0.0927076
0.0781873
0.0666478
0.0571626
0.0500367
16.5373
9.49238
5.0127
2.8606
1.75746
1.14759
0.786929
0.562046
0.415362
0.31594
0.246323
0.19621
0.159203
0.131233
0.109741
0.0931468
0.0800817
0.0695805
0.0604899
0.0560297
58.5856
14.5696
6.08946
3.33294
2.08216
1.40266
0.998638
0.740267
0.565879
0.44389
0.355972
0.290857
0.241307
0.202835
0.172874
0.149485
0.130825
0.115698
0.103556
0.0943103
90.5034
12.1248
4.38869
2.46658
1.63315
1.18306
0.902
0.720643
0.594556
0.502456
0.432606
0.379172
0.33613
0.299561
0.269705
0.245351
0.225217
0.208417
0.194846
0.1805
58.5856
14.5696
6.08946
3.33294
2.08216
1.40266
0.998638
0.740267
0.565878
0.44389
0.355971
0.290856
0.241305
0.202837
0.172871
0.14948
0.13082
0.11569
0.103545
0.0942932
45.0226
13.4729
5.73075
3.07322
1.86022
1.22699
0.873567
0.649768
0.496999
0.389461
0.311265
0.252943
0.208933
0.175147
0.148719
0.127739
0.110905
0.0972481
0.0861421
0.0776054
38.7028
13.0541
5.74336
3.08733
1.88066
1.2275
0.869476
0.645382
0.49259
0.384779
0.307021
0.24904
0.20497
0.170974
0.144376
0.123301
0.106387
0.092659
0.0814767
0.0731792
36.0571
12.8529
5.76645
3.10212
1.89476
1.2267
0.866512
0.643998
0.49227
0.383991
0.305834
0.24797
0.203989
0.170041
0.143461
0.122384
0.105463
0.0917352
0.0805669
0.072157
36.0571
12.8529
5.76645
3.10212
1.89476
1.2267
0.866515
0.644002
0.492275
0.383998
0.305846
0.247986
0.204011
0.170074
0.143511
0.122451
0.105555
0.0918581
0.0806955
0.0719798
38.7028
13.0541
5.74336
3.08733
1.88067
1.22751
0.869483
0.645392
0.492603
0.384795
0.307047
0.249076
0.205022
0.171053
0.144492
0.123461
0.106615
0.0929785
0.0818563
0.0729453
45.0226
13.4729
5.73075
3.07322
1.86023
1.22699
0.873574
0.649777
0.497012
0.389485
0.311296
0.252985
0.208994
0.175236
0.148854
0.127935
0.111193
0.0976736
0.0867228
0.0778889
58.5856
14.5696
6.08946
3.33295
2.08216
1.40266
0.99864
0.74027
0.565883
0.4439
0.355987
0.29088
0.241343
0.202923
0.172998
0.149669
0.131126
0.116199
0.10431
0.0950644
90.5034
12.1248
4.38869
2.46658
1.63315
1.18306
0.902
0.720643
0.594556
0.502457
0.432605
0.379173
0.336129
0.299562
0.269705
0.245353
0.225221
0.208423
0.194856
0.180519
0.234578
0.211269
0.190275
0.176063
0.166069
0.158997
0.152908
0.147414
0.14223
0.137876
0.134003
0.130515
0.12692
0.123522
0.120199
0.117154
0.114168
0.11143
0.108794
0.106314
0.10391
0.101573
0.0994158
0.0973145
0.0953443
0.0934231
0.0915415
0.0896824
0.0878721
0.0860738
0.0843794
0.0827313
0.0810758
0.0794667
0.0778958
0.0764729
0.0752066
0.0739187
0.0728408
0.0711653
0.103202
0.0897691
0.0813349
0.0752503
0.0705682
0.0669607
0.0636884
0.0607796
0.0579232
0.0554829
0.0533475
0.0515251
0.0497195
0.0481287
0.0465309
0.0450624
0.043683
0.0424284
0.0412578
0.0401624
0.0391266
0.0381331
0.0372126
0.0363487
0.0355489
0.0347883
0.0340528
0.0333378
0.0326361
0.0319473
0.0312752
0.0306345
0.0300199
0.0294121
0.0288453
0.0282913
0.0277649
0.0272771
0.0268191
0.0263008
0.078494
0.0708036
0.0641147
0.0586953
0.0542975
0.0506377
0.0475552
0.0448909
0.0425672
0.0404597
0.0385585
0.0368521
0.0353464
0.0340877
0.0327574
0.0315678
0.0304799
0.02951
0.0285974
0.0277284
0.0269259
0.0261067
0.0253501
0.0246638
0.0240485
0.0234688
0.0229085
0.022368
0.0218531
0.0213576
0.0208673
0.0204006
0.0199555
0.0195392
0.0191592
0.0187716
0.0183943
0.0180359
0.0176947
0.0173536
0.0694735
0.0629871
0.0573363
0.0524904
0.0483591
0.0448197
0.0417358
0.0390353
0.0366535
0.0345441
0.0326663
0.0309822
0.0294528
0.028116
0.0269055
0.0258026
0.0247917
0.0238942
0.0230119
0.0221441
0.0213859
0.0206809
0.0200189
0.0193929
0.0188182
0.0182807
0.017783
0.0173111
0.0168611
0.0164374
0.0160152
0.015616
0.0152403
0.0148909
0.0145645
0.0142592
0.0139577
0.0136707
0.0133995
0.0131389
0.0680505
0.0612423
0.0553973
0.0503974
0.0461157
0.0424423
0.0392829
0.0365421
0.0341262
0.0319863
0.0300817
0.0283764
0.0268332
0.0254781
0.0242546
0.0231592
0.0221624
0.0212491
0.0204116
0.0196416
0.0189536
0.0182831
0.017621
0.0170279
0.0164822
0.0159789
0.0155103
0.0150738
0.0146597
0.0142806
0.0138971
0.0135397
0.0131993
0.0128786
0.0125785
0.0123038
0.0120311
0.0117709
0.0115252
0.0112952
0.0694435
0.0618725
0.0555602
0.0502491
0.0457438
0.0418942
0.0385941
0.0357392
0.0332389
0.0310285
0.0290685
0.0273221
0.0257533
0.0243674
0.0231226
0.0220019
0.0209928
0.0200906
0.0192727
0.0185273
0.0178485
0.0172266
0.016664
0.0161275
0.0155768
0.0150612
0.0145936
0.01417
0.0137804
0.0134157
0.0130734
0.0127336
0.012384
0.0120614
0.0117712
0.0115017
0.0112545
0.0110083
0.0107713
0.0105505
0.0715992
0.0633704
0.0566124
0.0510006
0.0462652
0.0422404
0.0388048
0.0358485
0.0332712
0.0310159
0.0290372
0.0272916
0.0257405
0.0243688
0.0231431
0.0220433
0.0210548
0.0201649
0.0193662
0.0186412
0.0179857
0.0173763
0.0168035
0.0162757
0.0157262
0.0152294
0.014772
0.0143544
0.0139622
0.0135779
0.0132152
0.0128552
0.0125017
0.0121908
0.0119018
0.0116313
0.011369
0.0111012
0.0108425
0.0105992
0.0752537
0.0663464
0.0590244
0.0530935
0.0480968
0.0438853
0.0403435
0.03733
0.0347517
0.0325227
0.0305871
0.028871
0.0273425
0.0259868
0.0247743
0.0236806
0.0227034
0.0218148
0.0210099
0.020271
0.0196168
0.0189586
0.0183362
0.0177775
0.0172469
0.0167538
0.0162809
0.0158402
0.0153916
0.0149481
0.0145369
0.0141686
0.013817
0.0134747
0.0131421
0.0128201
0.0125073
0.0121929
0.0118969
0.0116182
0.0838269
0.0739257
0.0653821
0.0586963
0.0532669
0.0488656
0.0452639
0.0423151
0.0397521
0.0375254
0.0355725
0.0338355
0.0323305
0.0309515
0.0297667
0.0285113
0.0274146
0.026416
0.0255407
0.0246973
0.0239412
0.0232096
0.0225317
0.0218901
0.0212661
0.0206906
0.0201438
0.0196293
0.0191366
0.0186511
0.0181841
0.0177435
0.0173174
0.0169076
0.0164944
0.0161007
0.0157129
0.0153426
0.0150065
0.0146866
0.109166
0.0964725
0.0850252
0.0766031
0.0703454
0.0655783
0.0617481
0.0585258
0.0554827
0.0529531
0.0507789
0.0489292
0.0472518
0.0454246
0.0437763
0.0422467
0.0408315
0.0395247
0.0383148
0.0371907
0.0361449
0.035175
0.034294
0.0334525
0.0326592
0.0319072
0.0311817
0.0304801
0.0297871
0.0290894
0.028436
0.0278201
0.0272233
0.026644
0.0260703
0.025496
0.0249455
0.0244325
0.0239846
0.0234696
0.234524
0.211143
0.190203
0.175981
0.16621
0.159266
0.153165
0.14765
0.142409
0.137979
0.134104
0.130507
0.126984
0.123575
0.12028
0.117196
0.114221
0.111449
0.108792
0.106318
0.103889
0.101578
0.0994052
0.0973266
0.0953516
0.093447
0.0915576
0.0896958
0.0878821
0.0860802
0.0843915
0.0827478
0.0811126
0.0795322
0.0780255
0.0766214
0.075199
0.0738805
0.0727395
0.0709828
0.109196
0.0964913
0.0850504
0.0766666
0.0702782
0.0654478
0.0616229
0.0584002
0.0553866
0.0528925
0.0507182
0.0489327
0.0472359
0.0454074
0.0437295
0.0422287
0.0408029
0.0395203
0.0383168
0.0372
0.0361603
0.0351842
0.034299
0.0334519
0.0326615
0.0319085
0.031184
0.0304847
0.0297944
0.0290991
0.0284467
0.0278307
0.0272298
0.026626
0.0260174
0.0254533
0.0249375
0.0244669
0.0240366
0.0235406
0.0597587
0.0498509
0.0430396
0.0383537
0.0349769
0.0321746
0.0299588
0.0280595
0.0263943
0.0249853
0.0237313
0.0225858
0.0215983
0.0205116
0.0196525
0.0187369
0.017995
0.0172471
0.0166067
0.0160047
0.0154117
0.0148772
0.0143323
0.013969
0.0136074
0.0131891
0.0128139
0.012464
0.0121073
0.0120084
0.0116627
0.0112409
0.0109374
0.010682
0.0107803
0.0104159
0.0100581
0.00981802
0.00964506
0.00947538
0.0472218
0.0419997
0.0360692
0.0316948
0.0284801
0.0259463
0.0237948
0.0219601
0.0204057
0.0190256
0.0178397
0.0166449
0.0159243
0.0147703
0.014178
0.0132867
0.0128059
0.0121009
0.011687
0.0111469
0.0107105
0.0103621
0.00989746
0.0096331
0.00927363
0.00899139
0.00873379
0.00843039
0.00820433
0.00815068
0.00796521
0.00761467
0.00743418
0.00718762
0.00707215
0.00718499
0.00697371
0.0066439
0.00644352
0.00622418
0.0470124
0.0405466
0.0353371
0.0310858
0.0274175
0.0244198
0.0222394
0.0203942
0.01878
0.0173621
0.0161141
0.0150104
0.0140346
0.0131581
0.0123785
0.0116794
0.0110631
0.010516
0.00997088
0.00958759
0.00902806
0.00873719
0.00828375
0.00808963
0.00769826
0.00750638
0.00717741
0.00703226
0.00668982
0.00665896
0.00653763
0.00628119
0.00615463
0.0059081
0.00582515
0.00589469
0.005771
0.00549039
0.00539737
0.0051689
0.0455485
0.0400325
0.0352224
0.0311359
0.0276832
0.0246845
0.0220455
0.019855
0.0182369
0.0167962
0.0155196
0.0143886
0.0133807
0.0124897
0.0116937
0.0109816
0.0103443
0.00977251
0.00925712
0.00879342
0.00837351
0.00800049
0.00766804
0.00735913
0.00708695
0.00678798
0.00655014
0.00630604
0.00609042
0.00595981
0.00584072
0.00566771
0.00555072
0.00532096
0.00524015
0.00529164
0.0051733
0.00495303
0.00485918
0.00464696
0.0456785
0.0400625
0.0352756
0.0311991
0.0277278
0.0247753
0.0220709
0.0197881
0.0179995
0.0165687
0.0152859
0.0141413
0.0131164
0.0122123
0.0114042
0.0106831
0.0100387
0.00946169
0.00894432
0.00847947
0.00806161
0.00768664
0.00736414
0.00708618
0.00679065
0.00651324
0.00626173
0.00602859
0.00582163
0.00569449
0.00556664
0.00542236
0.00527956
0.005097
0.0049954
0.00504351
0.0048994
0.00478605
0.00454012
0.00443856
0.0474113
0.040969
0.0356732
0.0312926
0.027643
0.024477
0.0217939
0.0195803
0.0179218
0.0164691
0.0151811
0.014044
0.0130353
0.0121427
0.0113471
0.0106383
0.0100045
0.00943666
0.00892622
0.00846793
0.00805467
0.00768275
0.00736771
0.00708422
0.00681529
0.0065031
0.00630994
0.0060116
0.00584243
0.00575956
0.0056056
0.00541287
0.00529109
0.00504026
0.00496263
0.00504325
0.00488848
0.00477737
0.00451718
0.00441282
0.0500685
0.0420881
0.0359382
0.0311244
0.0271327
0.023941
0.0215943
0.0197381
0.0181207
0.0167098
0.0154759
0.0143935
0.0134361
0.0125725
0.0117998
0.011107
0.010477
0.00991701
0.00940114
0.00894955
0.00853612
0.00813716
0.00781648
0.00745027
0.00724212
0.0068739
0.00671323
0.00638904
0.00623641
0.00618049
0.00601622
0.00573213
0.00560734
0.00532794
0.00520484
0.0051445
0.00526535
0.00510855
0.00479283
0.00463816
0.0524379
0.0431262
0.0362996
0.0311803
0.0277404
0.0251982
0.0230466
0.0212084
0.0196255
0.0182554
0.0170654
0.0159935
0.0150553
0.0141756
0.0133633
0.0127214
0.0119321
0.011465
0.010773
0.0104173
0.00984571
0.00953145
0.00906321
0.0087871
0.00851534
0.0081288
0.00794257
0.00758628
0.00740476
0.00733496
0.00713146
0.00677323
0.00662462
0.00632342
0.00618366
0.00612618
0.00625089
0.0060345
0.00566884
0.00550425
0.0597474
0.0498833
0.0430612
0.0384098
0.034836
0.0322098
0.0300189
0.0281267
0.0264381
0.0250079
0.0237456
0.0225701
0.0215827
0.0205144
0.0196138
0.0187377
0.0179756
0.0172422
0.0166049
0.015992
0.0154224
0.0148572
0.0143318
0.0139393
0.0136264
0.0131781
0.0128195
0.0124643
0.0121052
0.012005
0.0116561
0.0112373
0.0109303
0.0106715
0.0104009
0.0103177
0.0104035
0.0100285
0.00968593
0.00946793
0.103135
0.0897288
0.0813236
0.0752712
0.0707435
0.0671952
0.0638454
0.0609142
0.0580278
0.0555475
0.0534255
0.0515083
0.0497494
0.0481627
0.0465771
0.0450996
0.0437126
0.0424541
0.0412658
0.0401759
0.039127
0.0381404
0.0372224
0.0363643
0.035565
0.0348064
0.0340719
0.0333556
0.0326542
0.0319627
0.0312913
0.0306515
0.0300388
0.0294492
0.0288775
0.028338
0.0278072
0.0272845
0.0268039
0.026259
0.0838208
0.0738745
0.0653665
0.0588029
0.0532898
0.0488316
0.0452065
0.0422617
0.0397118
0.0374984
0.0355506
0.033837
0.0323276
0.0309553
0.0297579
0.0285216
0.0274013
0.0264345
0.025549
0.0247149
0.0239606
0.0232248
0.0225519
0.0218965
0.0212773
0.0207011
0.0201561
0.0196428
0.0191522
0.0186691
0.018205
0.0177662
0.0173417
0.0169317
0.0165265
0.0161092
0.0157136
0.015356
0.0150313
0.014722
0.0524515
0.0430809
0.0361846
0.0312454
0.0277706
0.0251949
0.0230328
0.0211932
0.019614
0.0182477
0.0170568
0.0159893
0.0151009
0.0141411
0.013478
0.012577
0.0120722
0.0112985
0.0108837
0.010344
0.00987118
0.00955529
0.00905775
0.00882681
0.00845773
0.00815419
0.00793354
0.00757603
0.00739379
0.00733389
0.00711705
0.00676458
0.00659943
0.00633039
0.00622348
0.00636302
0.0060904
0.00583312
0.00560972
0.00540199
0.0460765
0.0396863
0.0343817
0.0300348
0.0264484
0.0235247
0.0211013
0.0190686
0.0173447
0.0158637
0.0145814
0.0134542
0.012476
0.0115847
0.01081
0.0100919
0.00943761
0.0087911
0.00836711
0.00795269
0.00755935
0.00718958
0.00682351
0.00652285
0.00626688
0.00596304
0.00578542
0.0055203
0.00534955
0.00531748
0.00519009
0.00494643
0.00481932
0.00458102
0.00449313
0.00459427
0.00447678
0.00425598
0.00415671
0.00392524
0.0473619
0.0412297
0.0359917
0.031557
0.0278102
0.0246505
0.0220058
0.0197616
0.017842
0.0161883
0.0147547
0.0135034
0.0124095
0.0114433
0.0105857
0.00982586
0.00914348
0.00852818
0.00798449
0.00750352
0.00706744
0.00666386
0.0062369
0.0060219
0.00575686
0.00552693
0.00526236
0.00509765
0.00479155
0.00475937
0.00463549
0.0044966
0.00438496
0.00417505
0.00406886
0.00414197
0.00402513
0.00390473
0.00381073
0.00359457
0.0495198
0.0429488
0.0374692
0.0328656
0.0289788
0.0256795
0.0228616
0.0204511
0.0184032
0.0166445
0.0151198
0.0137893
0.0126322
0.0116091
0.010705
0.00990347
0.00919013
0.00855246
0.00798198
0.00747024
0.00701169
0.00660075
0.00620192
0.00590071
0.00556885
0.00528713
0.00508442
0.00489744
0.004713
0.0045994
0.0044814
0.00434878
0.00421998
0.00409876
0.0039804
0.00402859
0.00390946
0.00379455
0.00368471
0.00356928
0.0506365
0.0437897
0.0381311
0.0334046
0.0294259
0.0260561
0.0231734
0.0207008
0.0185894
0.0167847
0.0152268
0.0138698
0.0126917
0.0116505
0.0107314
0.00991719
0.0091934
0.00854664
0.00796846
0.00745135
0.00698659
0.00657421
0.00617454
0.00588067
0.00556454
0.00526022
0.00505019
0.00479302
0.00462141
0.00457294
0.00445172
0.00431592
0.00418346
0.00407039
0.00395509
0.004008
0.00388723
0.00377087
0.00365704
0.00354508
0.0501472
0.0433332
0.037672
0.0329431
0.0289703
0.0256108
0.0227578
0.0203301
0.0182675
0.0164988
0.0149729
0.0136478
0.0125005
0.0114857
0.0105901
0.00979656
0.00909074
0.00845994
0.00789712
0.00739307
0.0069386
0.00653516
0.00613897
0.00584642
0.00554006
0.00524524
0.00501459
0.00482467
0.00465648
0.00456637