/*--------------------------------*- C++ -*----------------------------------*\
| =========                 |                                                 |
| \\      /  F ield         | OpenFOAM: The Open Source CFD Toolbox           |
|  \\    /   O peration     | Version:  2212                                  |
|   \\  /    A nd           | Website:  www.openfoam.com                      |
|    \\/     M anipulation  |                                                 |
\*---------------------------------------------------------------------------*/
FoamFile
{
    version     2.0;
    format      ascii;
    arch        "LSB;label=32;scalar=64";
    class       volScalarField;
    location    "1.5";
    object      k;
}
// * * * * * * * * * * * * * * * * * * * * * * * * * * * * * * * * * * * * * //

dimensions      [0 2 -2 0 0 0 0];

internalField   nonuniform List<scalar> 
6840
(
0.213564
0.055916
0.0283994
0.0193411
0.0146927
0.011851
0.00989062
0.00851594
0.00749114
0.00669605
0.00606013
0.00555023
0.00512182
0.00474321
0.00442253
0.00415204
0.00392125
0.00372282
0.00355645
0.00337502
0.264759
0.104702
0.0585298
0.039163
0.0286199
0.0219934
0.017536
0.0143632
0.0120081
0.0102136
0.00881616
0.00770546
0.00680367
0.00606088
0.00544922
0.00494739
0.00452927
0.00417743
0.00388509
0.00364844
0.283364
0.126774
0.071702
0.0473282
0.0338663
0.0256616
0.0204608
0.016797
0.0140486
0.0119412
0.0102842
0.00895603
0.00788502
0.00701115
0.00628845
0.00568426
0.00517637
0.00474696
0.00438303
0.00407599
0.292299
0.141633
0.0819302
0.0541654
0.0389231
0.0292875
0.0232723
0.0190787
0.0159342
0.0135151
0.011627
0.0101131
0.00888232
0.00787179
0.0070342
0.00633371
0.00574329
0.00524205
0.00481485
0.00446224
0.295943
0.148782
0.0871941
0.057675
0.0415194
0.0310723
0.0246452
0.0202212
0.0169052
0.0143252
0.0123088
0.0107028
0.00939688
0.0083235
0.00743257
0.00668635
0.00605619
0.00552021
0.00506341
0.00469195
0.295943
0.148782
0.0871941
0.057675
0.0415194
0.0310723
0.0246452
0.0202211
0.0169051
0.0143251
0.0123086
0.0107025
0.00939636
0.00832262
0.00743117
0.00668439
0.00605336
0.0055163
0.00505948
0.0047021
0.292299
0.141633
0.0819301
0.0541654
0.0389231
0.0292874
0.0232723
0.0190785
0.015934
0.0135148
0.0116265
0.0101124
0.00888114
0.00786983
0.00703124
0.00632939
0.00573681
0.00523251
0.004803
0.00446869
0.283364
0.126774
0.071702
0.0473281
0.0338662
0.0256616
0.0204608
0.0167969
0.0140485
0.0119409
0.0102837
0.00895527
0.00788383
0.00700924
0.00628542
0.00567969
0.00516936
0.00473623
0.00436879
0.00407276
0.264759
0.104702
0.0585298
0.039163
0.0286198
0.0219934
0.017536
0.0143632
0.0120081
0.0102135
0.00881597
0.00770513
0.00680314
0.00605942
0.0054471
0.00494416
0.00452392
0.00416839
0.00387127
0.0036342
0.213564
0.055916
0.0283994
0.0193411
0.0146927
0.011851
0.00989061
0.00851594
0.00749113
0.00669605
0.00606011
0.00555023
0.0051218
0.0047432
0.00442252
0.00415205
0.00392127
0.00372285
0.00355655
0.00337522
0.264759
0.104702
0.0585298
0.039163
0.0286198
0.0219934
0.017536
0.0143632
0.0120081
0.0102135
0.00881597
0.00770514
0.00680311
0.00605953
0.00544706
0.00494411
0.00452386
0.00416831
0.00387113
0.00363398
0.311746
0.197541
0.130357
0.0911456
0.0668021
0.050811
0.0397943
0.0319119
0.026094
0.0216869
0.0182761
0.0155878
0.0134399
0.0116967
0.0102649
0.00907577
0.00807836
0.00723273
0.00652719
0.00588444
0.31754
0.217754
0.151085
0.108549
0.0807155
0.0618725
0.0486772
0.0391416
0.0320584
0.0266712
0.0224896
0.0191867
0.0165381
0.0143857
0.0126159
0.0111465
0.0099158
0.00887563
0.00799301
0.00723653
0.319723
0.227073
0.162232
0.118772
0.0893611
0.0689928
0.0545307
0.0439846
0.0361
0.030075
0.0253826
0.0216659
0.0186787
0.0162468
0.0142443
0.0125786
0.0111805
0.00999757
0.00898856
0.00812517
0.320484
0.23086
0.167176
0.123531
0.093516
0.0724827
0.0574409
0.0464216
0.0381542
0.0318179
0.0268718
0.022948
0.0197899
0.0172157
0.0150938
0.013327
0.0118427
0.0105852
0.00951178
0.00859136
0.320484
0.23086
0.167176
0.123531
0.093516
0.0724826
0.0574408
0.0464214
0.0381541
0.0318176
0.0268714
0.0229474
0.0197891
0.0172143
0.0150917
0.0133242
0.0118388
0.01058
0.00950505
0.00858888
0.319723
0.227073
0.162232
0.118772
0.089361
0.0689927
0.0545305
0.0439843
0.0360996
0.0300745
0.0253818
0.0216647
0.0186768
0.0162438
0.0142401
0.0125727
0.0111723
0.00998577
0.00897216
0.00811426
0.31754
0.217754
0.151085
0.108549
0.0807155
0.0618724
0.0486771
0.0391414
0.0320581
0.0266708
0.022489
0.0191858
0.0165367
0.0143833
0.0126125
0.0111418
0.00990888
0.00886503
0.00797586
0.00722619
0.311746
0.197541
0.130357
0.0911456
0.0668021
0.050811
0.0397943
0.0319119
0.026094
0.0216869
0.0182761
0.0155878
0.01344
0.0116967
0.0102649
0.00907586
0.00807849
0.00723291
0.00652742
0.00588485
0.264759
0.104702
0.0585298
0.039163
0.0286198
0.0219934
0.017536
0.0143632
0.0120081
0.0102136
0.00881616
0.00770546
0.00680367
0.00606088
0.00544922
0.0049474
0.00452932
0.00417751
0.00388521
0.0036489
0.283364
0.126774
0.071702
0.0473281
0.0338662
0.0256616
0.0204608
0.0167969
0.0140485
0.0119409
0.0102837
0.00895529
0.00788389
0.00700933
0.00628536
0.00567964
0.00516933
0.00473623
0.00436879
0.00407279
0.31754
0.217754
0.151085
0.108549
0.0807155
0.0618724
0.0486771
0.0391414
0.0320581
0.0266708
0.022489
0.0191858
0.0165367
0.0143835
0.0126124
0.0111417
0.00990879
0.00886494
0.00797574
0.00722609
0.322005
0.239026
0.177588
0.133616
0.102323
0.0798668
0.0635103
0.0513818
0.0422213
0.0351789
0.0296751
0.0253085
0.0217969
0.018938
0.0165846
0.0146277
0.0129858
0.0115964
0.0104107
0.00938533
0.323293
0.245617
0.187499
0.144537
0.112864
0.0894039
0.0718633
0.0585864
0.0483995
0.0404742
0.0342247
0.0292333
0.0251992
0.021903
0.0191823
0.0169158
0.0150114
0.0133979
0.0120178
0.0108156
0.323714
0.247819
0.191099
0.14881
0.117249
0.0935708
0.0756574
0.0619607
0.0513629
0.0430615
0.0364795
0.0311999
0.0269183
0.0234104
0.020509
0.0180881
0.0160512
0.0143235
0.0128434
0.0115502
0.323714
0.247819
0.191099
0.14881
0.117249
0.0935708
0.0756573
0.0619606
0.0513628
0.0430613
0.0364793
0.0311996
0.0269178
0.0234096
0.0205079
0.0180867
0.0160494
0.0143212
0.0128408
0.0115489
0.323293
0.245617
0.187499
0.144537
0.112864
0.0894038
0.0718631
0.0585863
0.0483993
0.0404739
0.0342243
0.0292327
0.0251984
0.0219017
0.0191805
0.0169135
0.0150083
0.0133938
0.0120127
0.0108114
0.322005
0.239026
0.177588
0.133616
0.102323
0.0798668
0.0635103
0.0513818
0.0422213
0.0351789
0.0296751
0.0253085
0.0217969
0.018938
0.0165845
0.0146277
0.0129859
0.0115965
0.0104108
0.00938518
0.31754
0.217754
0.151085
0.108549
0.0807155
0.0618725
0.0486772
0.0391416
0.0320584
0.0266712
0.0224896
0.0191867
0.0165382
0.0143857
0.0126158
0.0111465
0.00991583
0.00887572
0.00799313
0.00723691
0.283364
0.126774
0.071702
0.0473282
0.0338663
0.0256616
0.0204608
0.016797
0.0140486
0.0119412
0.0102842
0.00895604
0.00788505
0.00701118
0.00628836
0.0056842
0.00517632
0.00474693
0.00438303
0.00407638
0.292299
0.141633
0.0819301
0.0541654
0.0389231
0.0292874
0.0232723
0.0190785
0.015934
0.0135148
0.0116265
0.0101124
0.00888121
0.00786994
0.00703115
0.00632933
0.00573679
0.00523251
0.00480304
0.00446881
0.319723
0.227073
0.162232
0.118772
0.089361
0.0689927
0.0545305
0.0439843
0.0360996
0.0300745
0.0253818
0.0216647
0.0186769
0.016244
0.01424
0.0125727
0.0111723
0.00998576
0.00897219
0.00811444
0.323293
0.245617
0.187499
0.144537
0.112864
0.0894038
0.0718631
0.0585863
0.0483993
0.040474
0.0342243
0.0292328
0.0251984
0.0219017
0.0191805
0.0169134
0.0150083
0.0133938
0.0120127
0.0108118
0.324288
0.250862
0.19613
0.154888
0.123591
0.09968
0.0812741
0.0669837
0.0557847
0.0469223
0.0398394
0.0341235
0.0294672
0.0256398
0.0224666
0.0198145
0.0175805
0.0156832
0.0140536
0.0126148
0.32459
0.252403
0.19891
0.158543
0.12769
0.103871
0.0853201
0.0707499
0.05921
0.0499927
0.0425684
0.0365384
0.0316005
0.0275249
0.0241352
0.021295
0.0188977
0.016858
0.0151008
0.013537
0.32459
0.252403
0.19891
0.158543
0.12769
0.103871
0.0853201
0.0707499
0.0592099
0.0499927
0.0425684
0.0365382
0.0316004
0.0275247
0.0241349
0.0212946
0.0188973
0.0168574
0.0151001
0.0135369
0.324288
0.250862
0.19613
0.154888
0.123591
0.09968
0.0812741
0.0669837
0.0557847
0.0469223
0.0398394
0.0341235
0.0294672
0.0256398
0.0224666
0.0198145
0.0175805
0.0156833
0.0140536
0.0126144
0.323293
0.245617
0.187499
0.144537
0.112864
0.0894039
0.0718632
0.0585864
0.0483995
0.0404742
0.0342247
0.0292333
0.0251993
0.021903
0.0191823
0.0169158
0.0150114
0.013398
0.0120179
0.0108154
0.319723
0.227073
0.162232
0.118772
0.0893611
0.0689928
0.0545307
0.0439846
0.0361
0.030075
0.0253826
0.0216659
0.0186787
0.0162469
0.0142443
0.0125785
0.0111805
0.00999758
0.00898863
0.00812537
0.292299
0.141633
0.0819301
0.0541654
0.0389231
0.0292875
0.0232723
0.0190787
0.0159342
0.0135151
0.011627
0.0101131
0.00888233
0.00787183
0.00703411
0.00633364
0.00574323
0.00524199
0.00481478
0.00446216
0.295943
0.148782
0.0871941
0.057675
0.0415194
0.0310723
0.0246452
0.0202211
0.0169051
0.0143251
0.0123086
0.0107025
0.00939638
0.00832267
0.0074312
0.00668441
0.00605339
0.00551635
0.00505958
0.00470241
0.320484
0.23086
0.167176
0.123531
0.093516
0.0724826
0.0574408
0.0464214
0.0381541
0.0318176
0.0268714
0.0229474
0.0197891
0.0172144
0.0150917
0.0133242
0.0118389
0.0105801
0.00950519
0.00858921
0.323714
0.247819
0.191099
0.14881
0.117249
0.0935708
0.0756573
0.0619606
0.0513628
0.0430613
0.0364793
0.0311996
0.0269178
0.0234097
0.0205079
0.0180867
0.0160495
0.0143212
0.0128408
0.0115493
0.32459
0.252403
0.19891
0.158543
0.12769
0.103871
0.0853201
0.0707499
0.0592099
0.0499927
0.0425684
0.0365382
0.0316004
0.0275247
0.0241349
0.0212946
0.0188973
0.0168574
0.0151001
0.013537
0.324844
0.253685
0.20131
0.161836
0.131535
0.107943
0.0893701
0.0746126
0.0627921
0.0532535
0.0455014
0.0391574
0.0339302
0.0295943
0.0259739
0.0229309
0.0203561
0.0181597
0.0162595
0.0145474
0.324844
0.253685
0.20131
0.161836
0.131535
0.107943
0.0893701
0.0746126
0.0627921
0.0532535
0.0455014
0.0391574
0.0339302
0.0295943
0.0259739
0.0229309
0.0203561
0.0181597
0.0162594
0.0145472
0.32459
0.252403
0.19891
0.158543
0.12769
0.103871
0.0853201
0.0707499
0.05921
0.0499927
0.0425684
0.0365384
0.0316005
0.0275249
0.0241352
0.0212949
0.0188977
0.016858
0.0151007
0.0135366
0.323714
0.247819
0.191099
0.14881
0.117249
0.0935708
0.0756574
0.0619607
0.0513629
0.0430615
0.0364795
0.0311999
0.0269183
0.0234104
0.020509
0.0180881
0.0160512
0.0143235
0.0128434
0.0115501
0.320484
0.23086
0.167176
0.123531
0.093516
0.0724827
0.0574409
0.0464216
0.0381542
0.0318178
0.0268718
0.022948
0.0197899
0.0172158
0.0150938
0.013327
0.0118426
0.0105852
0.0095118
0.00859131
0.295943
0.148782
0.0871941
0.057675
0.0415194
0.0310723
0.0246452
0.0202212
0.0169052
0.0143252
0.0123088
0.0107028
0.00939687
0.0083235
0.00743255
0.00668633
0.00605616
0.00552018
0.00506338
0.00469189
0.295943
0.148782
0.0871941
0.057675
0.0415194
0.0310723
0.0246452
0.0202212
0.0169052
0.0143252
0.0123088
0.0107028
0.00939688
0.0083235
0.00743257
0.00668636
0.00605621
0.00552025
0.00506348
0.00469204
0.320484
0.23086
0.167176
0.123531
0.093516
0.0724827
0.0574409
0.0464216
0.0381542
0.0318179
0.0268718
0.022948
0.0197899
0.0172158
0.0150938
0.013327
0.0118427
0.0105854
0.00951196
0.00859167
0.323714
0.247819
0.191099
0.14881
0.117249
0.0935708
0.0756574
0.0619607
0.0513629
0.0430615
0.0364795
0.0311999
0.0269183
0.0234104
0.020509
0.0180881
0.0160513
0.0143236
0.0128435
0.0115503
0.32459
0.252403
0.19891
0.158543
0.12769
0.103871
0.0853201
0.0707499
0.05921
0.0499927
0.0425684
0.0365384
0.0316005
0.0275249
0.0241352
0.021295
0.0188977
0.016858
0.0151008
0.0135368
0.324844
0.253685
0.20131
0.161836
0.131535
0.107943
0.0893701
0.0746126
0.0627921
0.0532535
0.0455014
0.0391574
0.0339302
0.0295943
0.0259739
0.0229309
0.0203561
0.0181597
0.0162595
0.0145473
0.324844
0.253685
0.20131
0.161836
0.131535
0.107943
0.0893701
0.0746126
0.0627921
0.0532535
0.0455014
0.0391574
0.0339302
0.0295943
0.0259739
0.0229309
0.0203561
0.0181597
0.0162594
0.0145472
0.32459
0.252403
0.19891
0.158543
0.12769
0.103871
0.0853201
0.0707499
0.0592099
0.0499927
0.0425684
0.0365382
0.0316004
0.0275247
0.0241349
0.0212946
0.0188973
0.0168574
0.0151001
0.0135368
0.323714
0.247819
0.191099
0.14881
0.117249
0.0935708
0.0756573
0.0619606
0.0513628
0.0430613
0.0364793
0.0311996
0.0269178
0.0234096
0.020508
0.0180867
0.0160494
0.0143212
0.0128408
0.0115491
0.320484
0.23086
0.167176
0.123531
0.093516
0.0724826
0.0574408
0.0464214
0.038154
0.0318176
0.0268714
0.0229474
0.019789
0.0172143
0.0150918
0.0133243
0.0118388
0.01058
0.00950503
0.00858887
0.295943
0.148782
0.0871941
0.057675
0.0415194
0.0310723
0.0246451
0.0202211
0.0169051
0.0143251
0.0123086
0.0107025
0.00939632
0.0083226
0.00743127
0.00668445
0.0060534
0.00551633
0.00505952
0.00470233
0.292299
0.141633
0.0819302
0.0541654
0.0389231
0.0292875
0.0232723
0.0190787
0.0159342
0.0135151
0.011627
0.0101131
0.0088823
0.00787178
0.00703418
0.0063337
0.00574328
0.00524206
0.00481488
0.0044623
0.319723
0.227073
0.162232
0.118772
0.0893611
0.0689928
0.0545307
0.0439846
0.0361
0.030075
0.0253826
0.0216659
0.0186787
0.0162468
0.0142443
0.0125786
0.0111806
0.00999764
0.00898872
0.00812546
0.323293
0.245617
0.187499
0.144537
0.112864
0.0894039
0.0718632
0.0585864
0.0483995
0.0404742
0.0342247
0.0292333
0.0251992
0.021903
0.0191823
0.0169158
0.0150114
0.013398
0.012018
0.0108156
0.324288
0.250862
0.19613
0.154888
0.123591
0.09968
0.0812741
0.0669837
0.0557847
0.0469223
0.0398394
0.0341235
0.0294672
0.0256397
0.0224666
0.0198145
0.0175805
0.0156832
0.0140536
0.0126147
0.32459
0.252403
0.19891
0.158543
0.12769
0.103871
0.0853201
0.0707499
0.0592099
0.0499927
0.0425684
0.0365382
0.0316003
0.0275247
0.0241349
0.0212946
0.0188972
0.0168574
0.0151001
0.013537
0.32459
0.252403
0.19891
0.158543
0.12769
0.103871
0.0853201
0.0707499
0.05921
0.0499927
0.0425684
0.0365383
0.0316005
0.0275249
0.0241352
0.0212949
0.0188977
0.0168579
0.0151007
0.0135368
0.324288
0.250862
0.19613
0.154888
0.123591
0.09968
0.0812741
0.0669837
0.0557847
0.0469223
0.0398394
0.0341235
0.0294672
0.0256397
0.0224666
0.0198145
0.0175805
0.0156832
0.0140536
0.0126146
0.323293
0.245617
0.187499
0.144537
0.112864
0.0894038
0.0718631
0.0585863
0.0483993
0.0404739
0.0342243
0.0292327
0.0251983
0.0219017
0.0191805
0.0169134
0.0150082
0.0133937
0.0120127
0.0108117
0.319723
0.227073
0.162232
0.118772
0.089361
0.0689927
0.0545305
0.0439843
0.0360996
0.0300745
0.0253818
0.0216646
0.0186768
0.0162439
0.0142402
0.0125727
0.0111723
0.00998571
0.00897203
0.00811425
0.292299
0.141633
0.0819301
0.0541654
0.0389231
0.0292874
0.0232723
0.0190786
0.015934
0.0135148
0.0116265
0.0101124
0.00888114
0.00786983
0.00703126
0.00632941
0.00573684
0.00523254
0.00480304
0.00446881
0.283364
0.126774
0.071702
0.0473282
0.0338663
0.0256616
0.0204608
0.016797
0.0140486
0.0119412
0.0102842
0.00895602
0.007885
0.00701112
0.00628843
0.00568424
0.00517634
0.00474692
0.004383
0.00407601
0.31754
0.217754
0.151085
0.108549
0.0807155
0.0618725
0.0486772
0.0391416
0.0320584
0.0266712
0.0224896
0.0191867
0.0165381
0.0143856
0.0126159
0.0111465
0.00991574
0.00887555
0.00799296
0.0072365
0.322005
0.239026
0.177588
0.133616
0.102323
0.0798668
0.0635103
0.0513818
0.0422213
0.0351789
0.029675
0.0253085
0.0217969
0.018938
0.0165845
0.0146276
0.0129857
0.0115963
0.0104106
0.0093851
0.323293
0.245617
0.187499
0.144537
0.112864
0.0894038
0.0718631
0.0585863
0.0483993
0.0404739
0.0342243
0.0292327
0.0251984
0.0219017
0.0191805
0.0169134
0.0150082
0.0133937
0.0120125
0.0108116
0.323714
0.247819
0.191099
0.14881
0.117249
0.0935708
0.0756573
0.0619606
0.0513628
0.0430613
0.0364793
0.0311996
0.0269178
0.0234096
0.0205079
0.0180866
0.0160494
0.0143212
0.0128407
0.0115492
0.323714
0.247819
0.191099
0.14881
0.117249
0.0935708
0.0756574
0.0619607
0.0513629
0.0430615
0.0364795
0.0311999
0.0269183
0.0234104
0.020509
0.018088
0.0160512
0.0143235
0.0128434
0.0115501
0.323293
0.245617
0.187499
0.144537
0.112864
0.0894039
0.0718632
0.0585864
0.0483995
0.0404742
0.0342247
0.0292333
0.0251993
0.021903
0.0191822
0.0169157
0.0150114
0.013398
0.012018
0.0108156
0.322005
0.239026
0.177588
0.133616
0.102323
0.0798668
0.0635103
0.0513818
0.0422213
0.0351789
0.029675
0.0253085
0.0217969
0.018938
0.0165845
0.0146277
0.0129858
0.0115964
0.0104107
0.00938533
0.31754
0.217754
0.151085
0.108549
0.0807154
0.0618724
0.0486771
0.0391414
0.0320581
0.0266708
0.022489
0.0191858
0.0165367
0.0143833
0.0126125
0.0111418
0.00990883
0.00886495
0.00797567
0.00722612
0.283364
0.126774
0.071702
0.0473281
0.0338662
0.0256616
0.0204607
0.0167969
0.0140485
0.0119409
0.0102837
0.00895528
0.00788383
0.00700923
0.00628543
0.00567971
0.00516938
0.00473626
0.00436883
0.00407285
0.264759
0.104702
0.0585298
0.039163
0.0286198
0.0219934
0.017536
0.0143632
0.0120081
0.0102136
0.00881615
0.00770544
0.00680365
0.00606085
0.0054492
0.00494736
0.00452924
0.0041774
0.00388506
0.00364837
0.311746
0.197541
0.130357
0.0911456
0.0668021
0.050811
0.0397943
0.0319119
0.026094
0.0216869
0.018276
0.0155877
0.0134399
0.0116967
0.0102648
0.00907569
0.00807823
0.00723253
0.00652688
0.00588404
0.31754
0.217754
0.151085
0.108549
0.0807154
0.0618724
0.0486771
0.0391414
0.0320581
0.0266708
0.022489
0.0191858
0.0165367
0.0143834
0.0126124
0.0111416
0.00990866
0.00886475
0.00797538
0.00722573
0.319723
0.227073
0.162232
0.118772
0.089361
0.0689927
0.0545305
0.0439843
0.0360996
0.0300745
0.0253818
0.0216647
0.0186769
0.016244
0.01424
0.0125726
0.0111722
0.00998562
0.00897195
0.00811423
0.320484
0.23086
0.167176
0.123531
0.093516
0.0724826
0.0574408
0.0464214
0.038154
0.0318176
0.0268714
0.0229474
0.0197891
0.0172144
0.0150917
0.0133242
0.0118388
0.01058
0.00950512
0.00858913
0.320484
0.23086
0.167176
0.123531
0.093516
0.0724827
0.0574409
0.0464216
0.0381542
0.0318178
0.0268718
0.022948
0.0197899
0.0172158
0.0150938
0.013327
0.0118427
0.0105853
0.00951196
0.00859142
0.319723
0.227073
0.162232
0.118772
0.0893611
0.0689928
0.0545307
0.0439846
0.0360999
0.030075
0.0253826
0.0216659
0.0186787
0.0162469
0.0142443
0.0125785
0.0111805
0.00999762
0.00898871
0.00812533
0.31754
0.217754
0.151085
0.108549
0.0807155
0.0618725
0.0486772
0.0391416
0.0320584
0.0266712
0.0224896
0.0191867
0.0165381
0.0143857
0.0126157
0.0111464
0.00991573
0.00887557
0.00799294
0.00723657
0.311746
0.197541
0.130357
0.0911456
0.0668021
0.050811
0.0397943
0.0319119
0.026094
0.0216869
0.0182761
0.0155878
0.0134399
0.0116966
0.0102648
0.00907578
0.00807837
0.00723272
0.00652714
0.00588447
0.264759
0.104702
0.0585298
0.039163
0.0286198
0.0219934
0.017536
0.0143632
0.0120081
0.0102135
0.00881597
0.00770512
0.00680313
0.00605941
0.00544709
0.00494415
0.0045239
0.00416835
0.0038712
0.00363408
0.213564
0.055916
0.0283994
0.0193411
0.0146927
0.011851
0.00989061
0.00851594
0.00749113
0.00669604
0.00606012
0.00555022
0.0051218
0.00474319
0.0044225
0.004152
0.00392121
0.00372276
0.00355641
0.00337495
0.264759
0.104702
0.0585298
0.039163
0.0286198
0.0219934
0.017536
0.0143632
0.0120081
0.0102135
0.00881595
0.00770512
0.00680308
0.00605949
0.00544701
0.00494404
0.00452376
0.00416815
0.0038709
0.00363369
0.283364
0.126774
0.071702
0.0473281
0.0338662
0.0256616
0.0204608
0.0167969
0.0140485
0.0119409
0.0102837
0.00895527
0.00788387
0.00700931
0.00628532
0.0056796
0.00516928
0.00473617
0.00436869
0.00407265
0.292299
0.141633
0.0819301
0.0541654
0.0389231
0.0292874
0.0232723
0.0190785
0.015934
0.0135148
0.0116265
0.0101124
0.0088812
0.00786994
0.00703112
0.00632931
0.00573677
0.0052325
0.00480302
0.00446881
0.295943
0.148782
0.0871941
0.057675
0.0415194
0.0310723
0.0246452
0.0202211
0.0169051
0.0143251
0.0123086
0.0107025
0.00939637
0.00832267
0.00743119
0.00668441
0.0060534
0.00551637
0.00505962
0.00470262
0.295943
0.148782
0.0871941
0.057675
0.0415194
0.0310723
0.0246452
0.0202212
0.0169052
0.0143252
0.0123088
0.0107028
0.00939689
0.00832352
0.00743257
0.00668637
0.00605622
0.00552027
0.00506351
0.00469203
0.292299
0.141633
0.0819301
0.0541654
0.0389231
0.0292875
0.0232723
0.0190787
0.0159342
0.0135151
0.011627
0.0101131
0.00888233
0.00787183
0.00703412
0.00633366
0.00574325
0.00524204
0.00481486
0.00446226
0.283364
0.126774
0.071702
0.0473282
0.0338663
0.0256616
0.0204608
0.016797
0.0140486
0.0119412
0.0102842
0.00895602
0.00788503
0.00701116
0.00628835
0.00568417
0.00517629
0.00474689
0.00438296
0.00407603
0.264759
0.104702
0.0585298
0.039163
0.0286198
0.0219934
0.017536
0.0143632
0.0120081
0.0102136
0.00881615
0.00770545
0.00680365
0.00606086
0.00544919
0.00494736
0.00452926
0.00417744
0.00388512
0.00364853
0.213564
0.055916
0.0283994
0.0193411
0.0146927
0.011851
0.00989061
0.00851594
0.00749113
0.00669605
0.00606011
0.00555023
0.0051218
0.00474319
0.00442251
0.00415204
0.00392126
0.00372284
0.00355654
0.00337516
0.00350684
0.0032997
0.00309189
0.00294295
0.00283163
0.00275092
0.00267956
0.00261511
0.00255296
0.00249987
0.00245233
0.00240935
0.00236474
0.00232229
0.00228035
0.00224157
0.00220326
0.00216786
0.0021335
0.00210095
0.00206918
0.00203805
0.00200912
0.00198071
0.0019539
0.00192756
0.00190159
0.00187575
0.00185037
0.00182495
0.00180087
0.00177719
0.00175321
0.00172965
0.00170624
0.00168524
0.00166607
0.00164651
0.00163002
0.00160412
0.00340374
0.00312767
0.00292847
0.00278404
0.0026661
0.00257349
0.00248752
0.00241117
0.0023346
0.00226769
0.00220845
0.00215743
0.00210636
0.00206102
0.00201499
0.00197223
0.00193167
0.0018944
0.00185932
0.0018262
0.00179461
0.00176408
0.00173556
0.00170857
0.00168337
0.00165924
0.00163574
0.00161272
0.00158995
0.00156739
0.00154521
0.00152394
0.00150333
0.00148281
0.00146332
0.00144417
0.00142592
0.00140875
0.0013926
0.00137409
0.00363553
0.00340712
0.00320329
0.00302562
0.00287386
0.0027427
0.00262998
0.00253048
0.00244223
0.00236088
0.00228613
0.00221788
0.00215668
0.00210483
0.00204956
0.00199954
0.00195318
0.00191148
0.00187168
0.00183343
0.0017978
0.00176104
0.00172685
0.00169536
0.00166702
0.00164006
0.00161378
0.00158821
0.00156364
0.00153978
0.00151602
0.00149322
0.00147128
0.00145052
0.00143126
0.00141169
0.00139248
0.00137403
0.0013564
0.0013385
0.00391296
0.00365947
0.00343689
0.0032413
0.00306972
0.00291852
0.00278318
0.00266173
0.00255213
0.00245298
0.00236297
0.00228075
0.00220489
0.00213737
0.00207533
0.00201805
0.00196479
0.00191713
0.00186914
0.00182174
0.00177991
0.00174046
0.00170304
0.00166725
0.00163409
0.00160275
0.00157346
0.00154538
0.00151845
0.00149279
0.00146701
0.00144239
0.00141903
0.00139706
0.0013763
0.00135656
0.0013371
0.00131839
0.00130058
0.0012833
0.00417521
0.00388687
0.00363329
0.00341011
0.00321332
0.00303966
0.00288627
0.00274988
0.00262683
0.00251545
0.00241424
0.00232186
0.00223667
0.00216048
0.00209056
0.00202704
0.00196826
0.00191363
0.00186289
0.00181559
0.00177298
0.00173058
0.00168844
0.00165031
0.00161484
0.00158176
0.00155064
0.00152132
0.00149334
0.00146732
0.00144097
0.00141584
0.00139199
0.00136912
0.00134745
0.00132725
0.0013074
0.00128824
0.00126998
0.00125274
0.004323
0.00400363
0.00372648
0.00348462
0.00327249
0.00308553
0.00292057
0.00277422
0.00264293
0.00252417
0.00241654
0.00231859
0.00222886
0.00214801
0.0020741
0.00200642
0.00194454
0.00188833
0.00183663
0.00178889
0.00174487
0.00170402
0.00166672
0.00163061
0.00159326
0.00155793
0.00152554
0.00149584
0.00146836
0.00144226
0.00141756
0.00139286
0.00136712
0.00134314
0.00132116
0.00130073
0.00128157
0.00126258
0.00124412
0.00122677
0.00429703
0.00396058
0.00367404
0.0034272
0.00321204
0.0030235
0.00285782
0.00271112
0.00257979
0.002462
0.00235621
0.00226086
0.00217434
0.00209636
0.00202541
0.00196068
0.00190156
0.00184756
0.00179842
0.00175322
0.00171183
0.00167293
0.00163597
0.00160151
0.00156528
0.00153219
0.00150143
0.00147303
0.00144616
0.0014195
0.00139419
0.00136843
0.0013437
0.00132049
0.00129976
0.0012797
0.00125991
0.00123983
0.00122022
0.00120158
0.0040901
0.00376698
0.00349188
0.00325651
0.00305159
0.00287273
0.00271699
0.00258041
0.00246047
0.00235428
0.00225981
0.00217435
0.0020968
0.00202687
0.0019633
0.00190506
0.00185228
0.00180362
0.00175896
0.00171748
0.00168029
0.00164257
0.00160641
0.00157367
0.00154227
0.0015128
0.00148426
0.00145742
0.00142984
0.00140231
0.00137646
0.001353
0.00133048
0.00130834
0.00128659
0.00126529
0.00124414
0.00122296
0.00120272
0.00118345
0.00378586
0.00349565
0.00323556
0.00301716
0.00283178
0.002675
0.00254281
0.00243124
0.00233189
0.00224387
0.00216523
0.00209389
0.00203121
0.00197294
0.00192235
0.00186793
0.00181967
0.00177519
0.00173574
0.00169733
0.0016625
0.00162849
0.00159663
0.00156625
0.00153649
0.00150869
0.00148205
0.00145677
0.00143235
0.00140806
0.00138446
0.00136197
0.00134003
0.00131873
0.00129705
0.00127611
0.00125511
0.00123478
0.00121619
0.00119837
0.00350469
0.00325003
0.002999
0.00280516
0.0026538
0.00253374
0.00243415
0.00234947
0.00226731
0.00219707
0.00213599
0.00208347
0.00203542
0.00198256
0.0019344
0.00188912
0.00184671
0.00180708
0.00177
0.00173519
0.00170249
0.00167191
0.00164393
0.001617
0.0015914
0.00156694
0.00154316
0.00151997
0.00149688
0.00147343
0.00145123
0.00143015
0.00140952
0.00138932
0.00136913
0.00134851
0.00132862
0.00130983
0.00129334
0.00127417
0.00350666
0.00329847
0.00309113
0.00294184
0.00283362
0.00275426
0.00268275
0.00261801
0.00255528
0.00250122
0.00245371
0.00240928
0.00236557
0.002323
0.00228148
0.00224228
0.00220413
0.00216829
0.00213363
0.00210112
0.00206895
0.00203816
0.002009
0.00198093
0.00195406
0.00192797
0.0019019
0.00187601
0.00185058
0.00182509
0.00180108
0.00177745
0.00175377
0.00173067
0.00170841
0.00168731
0.00166603
0.0016459
0.00162845
0.00160128
0.00350553
0.00324994
0.00299955
0.00280662
0.00265155
0.00252997
0.00243054
0.00234602
0.00226445
0.00219529
0.0021341
0.00208347
0.00203491
0.00198209
0.00193298
0.00188843
0.00184563
0.0018067
0.00176984
0.00173531
0.00170287
0.00167215
0.00164407
0.00161695
0.00159142
0.00156692
0.00154316
0.00152005
0.00149705
0.00147369
0.00145155
0.00143047
0.00140971
0.00138864
0.00136714
0.00134684
0.00132826
0.00131102
0.00129523
0.00127683
0.00473446
0.00415059
0.00374195
0.00343329
0.00316729
0.00295713
0.00276947
0.00259875
0.00242199
0.00227903
0.00215091
0.00204419
0.00192839
0.0018269
0.00172603
0.00164376
0.0015625
0.00149406
0.00142856
0.00136997
0.00131023
0.00125376
0.00120953
0.00116739
0.001127
0.00108936
0.00105319
0.00101891
0.000985913
0.000946316
0.000911018
0.000881735
0.000853634
0.000825557
0.000788135
0.000757912
0.000731933
0.000708753
0.000688297
0.000672261
0.00594982
0.00534903
0.00486493
0.00445823
0.00411566
0.00381672
0.00355172
0.0033148
0.00310312
0.00291192
0.00273712
0.00258312
0.00243363
0.0023091
0.00218761
0.00208353
0.00198213
0.00189451
0.00181055
0.00173288
0.00166184
0.00159041
0.00152878
0.00146659
0.00141019
0.00135626
0.00130522
0.00125757
0.00121394
0.00116757
0.00111952
0.00107939
0.00103862
0.00100293
0.00096638
0.000923499
0.000879691
0.000844258
0.000808368
0.000765754
0.00677019
0.00612715
0.00558394
0.00511844
0.0047168
0.00436703
0.00405531
0.00377637
0.00352565
0.00330008
0.00309672
0.00291305
0.0027464
0.00259546
0.00245808
0.00233298
0.00221849
0.00211304
0.00201807
0.00192662
0.00184757
0.00176878
0.00169866
0.00162877
0.00156775
0.00150764
0.00145483
0.00140111
0.00135425
0.00130557
0.00125574
0.00121068
0.00116501
0.00112467
0.00108441
0.00103952
0.000994251
0.000954752
0.000914323
0.000863764
0.00727554
0.00660562
0.00602297
0.00551512
0.00507041
0.0046801
0.0043379
0.00403644
0.00376524
0.00352063
0.00330009
0.00310074
0.00292058
0.00275703
0.00260838
0.002473
0.00234941
0.0022362
0.00213249
0.00203642
0.00194937
0.00186099
0.00177892
0.00170974
0.00164667
0.00158843
0.00153207
0.0014767
0.00142368
0.00137251
0.00132229
0.00127474
0.00122667
0.00118271
0.00113882
0.00109139
0.00104405
0.00100044
0.000956195
0.000901169
0.0074695
0.00678591
0.00618525
0.00565884
0.00519735
0.0047915
0.00443636
0.00412488
0.00384777
0.00359789
0.0033725
0.00316907
0.00298481
0.00281807
0.0026665
0.00252837
0.00240211
0.00228641
0.00218011
0.00208202
0.00199157
0.00190715
0.00182871
0.00174704
0.00167079
0.0016057
0.00154979
0.00149733
0.00144743
0.0013977
0.00135113
0.00130132
0.00124956
0.00120046
0.00115276
0.00110225
0.00105319
0.00100392
0.000958281
0.00089914
0.00732883
0.00663472
0.0060341
0.00551419
0.00506263
0.0046705
0.00432901
0.00402967
0.00376184
0.00352112
0.00330453
0.00310949
0.00293111
0.00277085
0.00262483
0.00249129
0.00236879
0.00225605
0.00215214
0.00205596
0.0019668
0.00188349
0.00180635
0.00172883
0.00165909
0.00159645
0.00153317
0.00147527
0.00142001
0.00136399
0.00130818
0.00125563
0.00120238
0.00115445
0.00110647
0.0010539
0.00100233
0.000949366
0.000899753
0.000834802
0.00681482
0.00612952
0.00556081
0.00508179
0.00467598
0.00432832
0.00402312
0.00375129
0.00350735
0.00328807
0.00309043
0.00291094
0.00274495
0.00259636
0.0024605
0.00233518
0.00222017
0.00211354
0.00201538
0.00192375
0.00183834
0.0017589
0.00168336
0.00161372
0.00154365
0.00148182
0.00141889
0.00136276
0.00130749
0.00124977
0.00119089
0.00113824
0.00108414
0.00103687
0.000988065
0.000938939
0.000882184
0.000825132
0.000777285
0.000717966
0.00593788
0.0053083
0.00481052
0.00440963
0.00407176
0.00377726
0.00351718
0.00328469
0.0030707
0.00287779
0.00270456
0.00254074
0.00239496
0.00226114
0.00213963
0.00202349
0.00192234
0.00182325
0.00173786
0.00165278
0.00157817
0.00150337
0.00143861
0.0013771
0.00131549
0.00126302
0.00120889
0.00116164
0.00111512
0.00106454
0.00101236
0.000969784
0.000925871
0.000888084
0.000842662
0.000802484
0.000749138
0.000701035
0.000665908
0.000633545
0.00473404
0.00415131
0.00373983
0.00343498
0.00318949
0.00297436
0.00278164
0.00260838
0.00242944
0.00228276
0.00215661
0.00204248
0.00193086
0.00182823
0.00173117
0.00164619
0.00156633
0.00149609
0.00142955
0.0013707
0.00130909
0.00125395
0.00121012
0.00116931
0.00112777
0.00109053
0.00105397
0.00101951
0.000986287
0.000946413
0.000911108
0.000881781
0.000853898
0.000827329
0.000802073
0.000771867
0.00073311
0.000703069
0.00068138
0.000665621
0.003403
0.00312703
0.00292841
0.00278458
0.00267128
0.00258004
0.00249199
0.00241487