/*--------------------------------*- C++ -*----------------------------------*\
| =========                 |                                                 |
| \\      /  F ield         | OpenFOAM: The Open Source CFD Toolbox           |
|  \\    /   O peration     | Version:  2212                                  |
|   \\  /    A nd           | Website:  www.openfoam.com                      |
|    \\/     M anipulation  |                                                 |
\*---------------------------------------------------------------------------*/
FoamFile
{
    version     2.0;
    format      ascii;
    arch        "LSB;label=32;scalar=64";
    class       volScalarField;
    location    "1.5";
    object      nut;
}
// * * * * * * * * * * * * * * * * * * * * * * * * * * * * * * * * * * * * * //

dimensions      [0 2 -1 0 0 0 0];

internalField   nonuniform List<scalar> 
6840
(
4.5356e-05
2.3208e-05
1.65396e-05
1.36493e-05
1.18966e-05
1.06844e-05
9.76073e-06
9.05706e-06
8.49464e-06
8.0312e-06
7.64033e-06
7.31185e-06
7.02395e-06
6.75927e-06
6.52665e-06
6.32372e-06
6.14447e-06
5.98472e-06
5.84222e-06
5.67942e-06
0.000107685
6.77183e-05
5.06311e-05
4.14159e-05
3.54048e-05
3.10366e-05
2.77137e-05
2.50815e-05
2.29333e-05
2.11504e-05
1.96502e-05
1.83706e-05
1.7262e-05
1.62922e-05
1.54478e-05
1.47184e-05
1.40802e-05
1.35164e-05
1.30235e-05
1.26023e-05
0.000160509
0.00010736
8.07408e-05
6.55975e-05
5.54896e-05
4.83025e-05
4.31309e-05
3.9079e-05
3.57391e-05
3.29496e-05
3.05779e-05
2.8535e-05
2.67742e-05
2.52464e-05
2.39088e-05
2.27295e-05
2.16874e-05
2.07629e-05
1.99366e-05
1.91973e-05
0.000198681
0.0001383
0.000105187
8.55269e-05
7.25012e-05
6.28901e-05
5.60611e-05
5.07593e-05
4.6388e-05
4.27218e-05
3.96253e-05
3.69554e-05
3.46334e-05
3.26034e-05
3.08193e-05
2.92432e-05
2.78447e-05
2.65988e-05
2.54892e-05
2.45672e-05
0.000218609
0.000155003
0.000118661
9.65069e-05
8.18824e-05
7.08356e-05
6.30857e-05
5.71436e-05
5.22486e-05
4.80967e-05
4.45834e-05
4.15733e-05
3.89544e-05
3.66621e-05
3.46446e-05
3.28594e-05
3.12726e-05
2.98567e-05
2.8595e-05
2.75259e-05
0.000218609
0.000155003
0.000118661
9.65069e-05
8.18824e-05
7.08356e-05
6.30857e-05
5.71437e-05
5.22487e-05
4.80968e-05
4.45834e-05
4.15733e-05
3.89543e-05
3.66617e-05
3.46436e-05
3.28582e-05
3.12708e-05
2.98544e-05
2.85965e-05
2.75811e-05
0.000198681
0.0001383
0.000105187
8.55269e-05
7.25013e-05
6.28902e-05
5.60611e-05
5.07593e-05
4.63881e-05
4.27219e-05
3.96253e-05
3.69554e-05
3.46332e-05
3.26025e-05
3.08177e-05
2.9241e-05
2.78412e-05
2.65933e-05
2.5482e-05
2.456e-05
0.000160509
0.00010736
8.07408e-05
6.55975e-05
5.54896e-05
4.83025e-05
4.3131e-05
3.9079e-05
3.57391e-05
3.29496e-05
3.05779e-05
2.8535e-05
2.67739e-05
2.52457e-05
2.39076e-05
2.27278e-05
2.16848e-05
2.07595e-05
1.99402e-05
1.92356e-05
0.000107685
6.77183e-05
5.06311e-05
4.14159e-05
3.54048e-05
3.10366e-05
2.77137e-05
2.50815e-05
2.29333e-05
2.11504e-05
1.96502e-05
1.83706e-05
1.7262e-05
1.62915e-05
1.54469e-05
1.47173e-05
1.40792e-05
1.35159e-05
1.30245e-05
1.26029e-05
4.5356e-05
2.3208e-05
1.65396e-05
1.36493e-05
1.18966e-05
1.06844e-05
9.76073e-06
9.05705e-06
8.49463e-06
8.0312e-06
7.64032e-06
7.31184e-06
7.02396e-06
6.75921e-06
6.52666e-06
6.32372e-06
6.14446e-06
5.98471e-06
5.84224e-06
5.67942e-06
0.000107685
6.77183e-05
5.06311e-05
4.14159e-05
3.54048e-05
3.10366e-05
2.77137e-05
2.50815e-05
2.29333e-05
2.11504e-05
1.96502e-05
1.83706e-05
1.72619e-05
1.62918e-05
1.54468e-05
1.47172e-05
1.40791e-05
1.35158e-05
1.30243e-05
1.26029e-05
0.000528907
0.000369984
0.000305097
0.000261371
0.000228527
0.000202475
0.000181112
0.000163071
0.000147535
0.000133978
0.00012204
0.000111452
0.000102114
9.38324e-05
8.64089e-05
7.95851e-05
7.33418e-05
6.76637e-05
6.33891e-05
5.56224e-05
0.000663952
0.000488458
0.000404619
0.000347248
0.000305035
0.000272127
0.000245317
0.000222887
0.000203753
0.000187176
0.000172649
0.000159807
0.000148363
0.000138104
0.000128858
0.000120617
0.00011318
0.000106383
0.000100589
9.41987e-05
0.00071288
0.000556432
0.000466397
0.000402355
0.000354426
0.00031705
0.000286675
0.000261255
0.000239582
0.000220846
0.000204445
0.000189953
0.000177051
0.000165486
0.000155052
0.000145598
0.000137002
0.000129152
0.000121965
0.000115728
0.000728543
0.000588231
0.000496002
0.000429132
0.00037851
0.000338935
0.00030682
0.000279975
0.000257075
0.00023726
0.000219916
0.000204587
0.000190933
0.000178688
0.000167649
0.000157635
0.000148519
0.000140184
0.000132518
0.000125429
0.000728543
0.000588231
0.000496002
0.000429132
0.00037851
0.000338936
0.00030682
0.000279976
0.000257077
0.000237262
0.000219918
0.00020459
0.000190935
0.000178685
0.000167641
0.000157622
0.000148495
0.000140141
0.000132453
0.00012551
0.00071288
0.000556432
0.000466397
0.000402355
0.000354426
0.000317051
0.000286676
0.000261257
0.000239584
0.000220849
0.000204449
0.000189958
0.000177054
0.000165479
0.000155038
0.000145572
0.000136947
0.000129037
0.000121754
0.000115755
0.000663952
0.000488458
0.000404619
0.000347248
0.000305035
0.000272127
0.000245318
0.000222888
0.000203754
0.000187178
0.000172652
0.000159809
0.000148363
0.000138093
0.000128846
0.000120591
0.000113119
0.000106244
0.000100279
9.46431e-05
0.000528907
0.000369984
0.000305097
0.000261371
0.000228527
0.000202475
0.000181112
0.000163071
0.000147535
0.000133978
0.00012204
0.000111452
0.000102114
9.38262e-05
8.64137e-05
7.95885e-05
7.33451e-05
6.76675e-05
6.33942e-05
5.56302e-05
0.000107685
6.77183e-05
5.06311e-05
4.14159e-05
3.54048e-05
3.10366e-05
2.77137e-05
2.50815e-05
2.29333e-05
2.11504e-05
1.96502e-05
1.83706e-05
1.7262e-05
1.62922e-05
1.54478e-05
1.47184e-05
1.40803e-05
1.35165e-05
1.30235e-05
1.26056e-05
0.000160509
0.00010736
8.07408e-05
6.55976e-05
5.54896e-05
4.83025e-05
4.3131e-05
3.9079e-05
3.57391e-05
3.29496e-05
3.0578e-05
2.8535e-05
2.67741e-05
2.52459e-05
2.39075e-05
2.27277e-05
2.16848e-05
2.07595e-05
1.99404e-05
1.92358e-05
0.000663952
0.000488458
0.000404619
0.000347248
0.000305035
0.000272128
0.000245318
0.000222888
0.000203754
0.000187178
0.000172652
0.00015981
0.000148365
0.000138101
0.00012884
0.000120587
0.000113118
0.000106245
0.000100275
9.46423e-05
0.000786827
0.000662293
0.000567974
0.000495805
0.000439463
0.000394561
0.000357973
0.000327449
0.000301486
0.000279044
0.000259389
0.000241989
0.000226452
0.000212478
0.000199833
0.000188356
0.000177881
0.000168264
0.000159425
0.000150756
0.000809324
0.000713906
0.000631504
0.000562574
0.000505377
0.000457785
0.00041784
0.000383938
0.000354802
0.000329447
0.000307152
0.000287373
0.000269693
0.000253785
0.000239389
0.0002263
0.000214342
0.000203347
0.0001931
0.000183027
0.000814958
0.000730426
0.000654634
0.000589044
0.000533067
0.000485439
0.000444764
0.000409795
0.000379472
0.000352935
0.000329497
0.000308638
0.000289953
0.000273121
0.000257882
0.000244015
0.000231341
0.000219677
0.000208765
0.000198011
0.000814958
0.000730426
0.000654634
0.000589044
0.000533068
0.000485439
0.000444765
0.000409795
0.000379473
0.000352937
0.000329499
0.000308641
0.000289957
0.000273123
0.000257884
0.000244021
0.000231348
0.000219683
0.000208764
0.000198014
0.000809324
0.000713906
0.000631505
0.000562574
0.000505377
0.000457786
0.000417841
0.000383939
0.000354804
0.00032945
0.000307156
0.000287378
0.000269698
0.000253788
0.000239396
0.000226311
0.000214353
0.000203352
0.000193086
0.000182982
0.000786827
0.000662293
0.000567974
0.000495805
0.000439463
0.000394561
0.000357973
0.000327449
0.000301486
0.000279044
0.000259389
0.000241989
0.000226451
0.000212474
0.000199837
0.000188359
0.000177884
0.000168267
0.000159427
0.000150741
0.000663952
0.000488458
0.000404619
0.000347248
0.000305035
0.000272127
0.000245317
0.000222887
0.000203753
0.000187176
0.00017265
0.000159808
0.000148364
0.000138103
0.000128859
0.000120618
0.000113182
0.000106387
0.000100594
9.41995e-05
0.000160509
0.00010736
8.07408e-05
6.55975e-05
5.54896e-05
4.83025e-05
4.31309e-05
3.9079e-05
3.57391e-05
3.29496e-05
3.05779e-05
2.8535e-05
2.67742e-05
2.52464e-05
2.39086e-05
2.27294e-05
2.16873e-05
2.07629e-05
1.99367e-05
1.9199e-05
0.000198681
0.0001383
0.000105187
8.55269e-05
7.25013e-05
6.28902e-05
5.60611e-05
5.07593e-05
4.63881e-05
4.27219e-05
3.96254e-05
3.69555e-05
3.46334e-05
3.26027e-05
3.08175e-05
2.92408e-05
2.78412e-05
2.65934e-05
2.54822e-05
2.45604e-05
0.00071288
0.000556432
0.000466397
0.000402355
0.000354426
0.000317051
0.000286676
0.000261257
0.000239584
0.00022085
0.000204449
0.000189958
0.000177057
0.000165484
0.000155033
0.00014557
0.000136948
0.00012904
0.000121759
0.000115769
0.000809324
0.000713906
0.000631505
0.000562574
0.000505377
0.000457786
0.000417841
0.000383939
0.000354804
0.00032945
0.000307156
0.000287379
0.000269701
0.000253791
0.000239393
0.000226309
0.000214354
0.000203353
0.00019309
0.000183008
0.000823497
0.000753987
0.000688491
0.000628748
0.000575387
0.000528266
0.000486845
0.000450441
0.000418361
0.000389971
0.000364723
0.000342156
0.000321885
0.000303589
0.000287004
0.000271905
0.000258089
0.000245335
0.000233287
0.000220979
0.000826292
0.000764347
0.000706102
0.000651937
0.00060223
0.000557104
0.000516428
0.000479912
0.000447181
0.000417833
0.000391476
0.000367749
0.000346331
0.000326938
0.000309319
0.000293254
0.000278534
0.000264915
0.000251962
0.000238486
0.000826292
0.000764347
0.000706102
0.000651937
0.00060223
0.000557104
0.000516428
0.000479912
0.000447181
0.000417833
0.000391476
0.00036775
0.000346332
0.000326938
0.000309319
0.000293255
0.000278536
0.000264916
0.000251964
0.00023858
0.000823497
0.000753987
0.000688491
0.000628748
0.000575387
0.000528266
0.000486845
0.000450441
0.000418361
0.000389971
0.000364723
0.000342156
0.000321884
0.000303588
0.000287005
0.000271906
0.000258089
0.000245336
0.000233285
0.000220956
0.000809324
0.000713906
0.000631504
0.000562574
0.000505377
0.000457785
0.00041784
0.000383938
0.000354802
0.000329447
0.000307152
0.000287373
0.000269693
0.000253784
0.000239389
0.000226301
0.000214344
0.000203351
0.000193104
0.000183017
0.00071288
0.000556432
0.000466397
0.000402355
0.000354426
0.00031705
0.000286675
0.000261255
0.000239582
0.000220846
0.000204445
0.000189953
0.000177053
0.000165488
0.00015505
0.000145597
0.000137002
0.000129153
0.000121968
0.000115734
0.000198681
0.0001383
0.000105187
8.55269e-05
7.25012e-05
6.28901e-05
5.60611e-05
5.07593e-05
4.6388e-05
4.27218e-05
3.96252e-05
3.69554e-05
3.46334e-05
3.26035e-05
3.0819e-05
2.9243e-05
2.78445e-05
2.65986e-05
2.5489e-05
2.4567e-05
0.000218609
0.000155003
0.000118661
9.65069e-05
8.18824e-05
7.08356e-05
6.30857e-05
5.71437e-05
5.22487e-05
4.80968e-05
4.45834e-05
4.15733e-05
3.89544e-05
3.66618e-05
3.46437e-05
3.28582e-05
3.12709e-05
2.98546e-05
2.85969e-05
2.75824e-05
0.000728543
0.000588231
0.000496002
0.000429132
0.00037851
0.000338936
0.00030682
0.000279976
0.000257077
0.000237262
0.000219918
0.00020459
0.000190936
0.000178688
0.000167642
0.000157624
0.000148499
0.000140147
0.000132461
0.000125526
0.000814958
0.000730426
0.000654634
0.000589044
0.000533068
0.000485439
0.000444765
0.000409795
0.000379474
0.000352937
0.0003295
0.000308641
0.000289958
0.000273126
0.000257885
0.000244022
0.000231351
0.000219687
0.000208771
0.000198036
0.000826292
0.000764347
0.000706102
0.000651937
0.00060223
0.000557104
0.000516428
0.000479912
0.000447181
0.000417833
0.000391476
0.00036775
0.000346332
0.000326939
0.00030932
0.000293256
0.000278537
0.000264917
0.000251966
0.000238586
0.000828382
0.0007726
0.000721138
0.00067296
0.000627782
0.00058562
0.000546547
0.000510579
0.000477648
0.000447614
0.000420285
0.000395443
0.000372859
0.000352308
0.000333576
0.000316454
0.000300731
0.000286124
0.000272071
0.000257051
0.000828382
0.0007726
0.000721138
0.00067296
0.000627782
0.00058562
0.000546547
0.000510579
0.000477648
0.000447614
0.000420285
0.000395443
0.000372859
0.000352308
0.000333576
0.000316454
0.000300731
0.000286124
0.000272069
0.000257045
0.000826292
0.000764347
0.000706102
0.000651937
0.00060223
0.000557104
0.000516428
0.000479912
0.000447181
0.000417832
0.000391476
0.000367749
0.000346332
0.000326938
0.000309319
0.000293254
0.000278535
0.000264916
0.000251961
0.000238471
0.000814958
0.000730426
0.000654634
0.000589044
0.000533067
0.000485439
0.000444764
0.000409795
0.000379472
0.000352935
0.000329497
0.000308638
0.000289954
0.000273123
0.00025788
0.000244015
0.000231342
0.00021968
0.00020877
0.000198008
0.000728543
0.000588231
0.000496002
0.000429132
0.00037851
0.000338935
0.000306819
0.000279975
0.000257075
0.00023726
0.000219916
0.000204587
0.000190934
0.000178692
0.000167645
0.000157632
0.000148517
0.000140183
0.000132518
0.000125427
0.000218609
0.000155003
0.000118661
9.65069e-05
8.18824e-05
7.08356e-05
6.30857e-05
5.71436e-05
5.22486e-05
4.80967e-05
4.45834e-05
4.15733e-05
3.89544e-05
3.66622e-05
3.46445e-05
3.28593e-05
3.12725e-05
2.98566e-05
2.85949e-05
2.75259e-05
0.000218609
0.000155003
0.000118661
9.65069e-05
8.18824e-05
7.08356e-05
6.30857e-05
5.71436e-05
5.22486e-05
4.80967e-05
4.45834e-05
4.15733e-05
3.89544e-05
3.66622e-05
3.46446e-05
3.28594e-05
3.12727e-05
2.98569e-05
2.85953e-05
2.75265e-05
0.000728543
0.000588231
0.000496002
0.000429132
0.00037851
0.000338935
0.00030682
0.000279975
0.000257075
0.00023726
0.000219916
0.000204587
0.000190933
0.000178689
0.000167649
0.000157635
0.00014852
0.000140187
0.000132523
0.000125438
0.000814958
0.000730426
0.000654634
0.000589044
0.000533067
0.000485439
0.000444764
0.000409795
0.000379472
0.000352935
0.000329497
0.000308638
0.000289953
0.000273121
0.000257882
0.000244016
0.000231342
0.000219679
0.000208768
0.000198011
0.000826292
0.000764347
0.000706102
0.000651937
0.00060223
0.000557104
0.000516428
0.000479912
0.000447181
0.000417832
0.000391475
0.000367749
0.000346331
0.000326937
0.000309319
0.000293254
0.000278534
0.000264915
0.000251962
0.000238476
0.000828382
0.0007726
0.000721138
0.00067296
0.000627782
0.00058562
0.000546547
0.000510579
0.000477648
0.000447614
0.000420285
0.000395443
0.000372859
0.000352308
0.000333575
0.000316454
0.000300731
0.000286124
0.00027207
0.000257048
0.000828382
0.0007726
0.000721138
0.00067296
0.000627782
0.00058562
0.000546547
0.000510579
0.000477648
0.000447614
0.000420285
0.000395443
0.000372859
0.000352308
0.000333575
0.000316454
0.000300731
0.000286124
0.000272069
0.000257046
0.000826292
0.000764347
0.000706102
0.000651937
0.00060223
0.000557104
0.000516428
0.000479912
0.000447181
0.000417833
0.000391476
0.00036775
0.000346332
0.000326938
0.00030932
0.000293256
0.000278536
0.000264917
0.000251965
0.000238579
0.000814958
0.000730426
0.000654634
0.000589044
0.000533068
0.000485439
0.000444764
0.000409795
0.000379473
0.000352937
0.000329499
0.000308641
0.000289957
0.000273125
0.000257885
0.000244021
0.000231349
0.000219684
0.000208768
0.000198024
0.000728543
0.000588231
0.000496002
0.000429132
0.00037851
0.000338936
0.00030682
0.000279976
0.000257077
0.000237262
0.000219918
0.000204589
0.000190934
0.000178689
0.00016764
0.000157622
0.000148495
0.00014014
0.000132451
0.000125509
0.000218609
0.000155003
0.000118661
9.65069e-05
8.18824e-05
7.08356e-05
6.30857e-05
5.71437e-05
5.22487e-05
4.80967e-05
4.45834e-05
4.15733e-05
3.89542e-05
3.66617e-05
3.46438e-05
3.28583e-05
3.12709e-05
2.98545e-05
2.85967e-05
2.75821e-05
0.000198681
0.0001383
0.000105187
8.55269e-05
7.25012e-05
6.28901e-05
5.60611e-05
5.07593e-05
4.6388e-05
4.27218e-05
3.96252e-05
3.69554e-05
3.46334e-05
3.26033e-05
3.08192e-05
2.92431e-05
2.78447e-05
2.65988e-05
2.54894e-05
2.45673e-05
0.00071288
0.000556432
0.000466397
0.000402355
0.000354426
0.00031705
0.000286675
0.000261255
0.000239582
0.000220846
0.000204444
0.000189952
0.000177051
0.000165485
0.000155052
0.000145598
0.000137002
0.000129151
0.000121966
0.000115732
0.000809324
0.000713906
0.000631504
0.000562574
0.000505377
0.000457785
0.00041784
0.000383938
0.000354802
0.000329447
0.000307152
0.000287373
0.000269692
0.000253784
0.000239389
0.000226299
0.000214341
0.000203345
0.000193099
0.000183016
0.000823497
0.000753987
0.000688491
0.000628748
0.000575387
0.000528266
0.000486845
0.000450441
0.000418361
0.000389971
0.000364723
0.000342155
0.000321884
0.000303588
0.000287003
0.000271904
0.000258087
0.000245333
0.000233284
0.000220964
0.000826292
0.000764347
0.000706102
0.000651937
0.00060223
0.000557104
0.000516428
0.000479912
0.000447181
0.000417833
0.000391476
0.00036775
0.000346332
0.000326938
0.000309319
0.000293255
0.000278535
0.000264916
0.000251964
0.000238587
0.000826292
0.000764347
0.000706102
0.000651937
0.00060223
0.000557104
0.000516428
0.000479912
0.000447181
0.000417832
0.000391475
0.000367749
0.000346331
0.000326937
0.000309319
0.000293254
0.000278534
0.000264915
0.000251962
0.000238476
0.000823497
0.000753987
0.000688491
0.000628748
0.000575387
0.000528266
0.000486845
0.000450441
0.000418361
0.000389971
0.000364723
0.000342155
0.000321883
0.000303588
0.000287004
0.000271905
0.000258088
0.000245335
0.000233288
0.000220964
0.000809324
0.000713906
0.000631505
0.000562574
0.000505377
0.000457785
0.000417841
0.000383939
0.000354804
0.00032945
0.000307156
0.000287378
0.000269697
0.000253788
0.000239396
0.00022631
0.000214352
0.000203349
0.000193084
0.000182993
0.00071288
0.000556432
0.000466397
0.000402355
0.000354426
0.000317051
0.000286676
0.000261257
0.000239584
0.000220849
0.000204449
0.000189957
0.000177053
0.000165479
0.000155037
0.000145572
0.000136946
0.000129036
0.00012175
0.000115755
0.000198681
0.0001383
0.000105187
8.55269e-05
7.25013e-05
6.28902e-05
5.60611e-05
5.07593e-05
4.63881e-05
4.27219e-05
3.96253e-05
3.69554e-05
3.46332e-05
3.26025e-05
3.08177e-05
2.9241e-05
2.78413e-05
2.65934e-05
2.54822e-05
2.45605e-05
0.000160509
0.00010736
8.07408e-05
6.55975e-05
5.54896e-05
4.83025e-05
4.31309e-05
3.9079e-05
3.57391e-05
3.29495e-05
3.05779e-05
2.8535e-05
2.67741e-05
2.52463e-05
2.39088e-05
2.27295e-05
2.16873e-05
2.07628e-05
1.99364e-05
1.91973e-05
0.000663952
0.000488458
0.000404619
0.000347248
0.000305035
0.000272127
0.000245317
0.000222887
0.000203753
0.000187176
0.000172649
0.000159807
0.000148362
0.000138103
0.000128857
0.000120614
0.000113176
0.000106376
0.000100587
9.41898e-05
0.000786827
0.000662293
0.000567974
0.000495805
0.000439463
0.000394561
0.000357973
0.000327449
0.000301486
0.000279044
0.000259388
0.000241988
0.000226451
0.000212476
0.000199832
0.000188353
0.000177876
0.000168256
0.000159413
0.000150737
0.000809324
0.000713906
0.000631505
0.000562574
0.000505377
0.000457786
0.000417841
0.000383939
0.000354804
0.000329449
0.000307156
0.000287379
0.000269699
0.00025379
0.000239392
0.000226307
0.000214349
0.000203347
0.00019308
0.000182993
0.000814958
0.000730426
0.000654634
0.000589044
0.000533068
0.000485439
0.000444765
0.000409795
0.000379473
0.000352937
0.000329499
0.000308641
0.000289957
0.000273125
0.000257884
0.000244021
0.000231349
0.000219684
0.000208767
0.000198032
0.000814958
0.000730426
0.000654634
0.000589044
0.000533067
0.000485439
0.000444764
0.000409795
0.000379472
0.000352935
0.000329497
0.000308637
0.000289953
0.000273122
0.000257882
0.000244016
0.000231342
0.000219679
0.00020877
0.00019801
0.000809324
0.000713906
0.000631504
0.000562574
0.000505377
0.000457785
0.00041784
0.000383938
0.000354802
0.000329447
0.000307152
0.000287373
0.000269693
0.000253784
0.000239388
0.000226299
0.000214342
0.000203347
0.000193102
0.000183023
0.000786827
0.000662293
0.000567974
0.000495805
0.000439463
0.000394561
0.000357973
0.000327449
0.000301486
0.000279044
0.000259388
0.000241988
0.00022645
0.000212474
0.000199836
0.000188357
0.00017788
0.00016826
0.000159419
0.000150748
0.000663952
0.000488458
0.000404619
0.000347248
0.000305035
0.000272127
0.000245318
0.000222888
0.000203755
0.000187178
0.000172651
0.000159809
0.000148362
0.000138093
0.000128845
0.00012059
0.000113118
0.000106243
0.000100275
9.46374e-05
0.000160509
0.00010736
8.07408e-05
6.55975e-05
5.54896e-05
4.83025e-05
4.3131e-05
3.9079e-05
3.57391e-05
3.29496e-05
3.05779e-05
2.8535e-05
2.67739e-05
2.52457e-05
2.39076e-05
2.27279e-05
2.16849e-05
2.07596e-05
1.99405e-05
1.92361e-05
0.000107685
6.77183e-05
5.06311e-05
4.14159e-05
3.54048e-05
3.10366e-05
2.77137e-05
2.50815e-05
2.29333e-05
2.11504e-05
1.96502e-05
1.83706e-05
1.7262e-05
1.62922e-05
1.54477e-05
1.47183e-05
1.40801e-05
1.35163e-05
1.30233e-05
1.2602e-05
0.000528907
0.000369984
0.000305097
0.000261371
0.000228527
0.000202475
0.000181112
0.000163071
0.000147535
0.000133978
0.00012204
0.000111452
0.000102113
9.38314e-05
8.64077e-05
7.95832e-05
7.33388e-05
6.76595e-05
6.33817e-05
5.56119e-05
0.000663952
0.000488458
0.000404619
0.000347248
0.000305035
0.000272127
0.000245318
0.000222888
0.000203754
0.000187178
0.000172651
0.000159809
0.000148364
0.0001381
0.000128838
0.000120585
0.000113115
0.00010624
0.000100266
9.46326e-05
0.00071288
0.000556432
0.000466397
0.000402355
0.000354426
0.000317051
0.000286676
0.000261257
0.000239584
0.000220849
0.000204449
0.000189958
0.000177056
0.000165483
0.000155032
0.000145569
0.000136946
0.000129037
0.000121753
0.000115764
0.000728543
0.000588231
0.000496002
0.000429132
0.00037851
0.000338936
0.00030682
0.000279976
0.000257077
0.000237262
0.000219918
0.00020459
0.000190935
0.000178688
0.000167642
0.000157623
0.000148498
0.000140145
0.00013246
0.000125524
0.000728543
0.000588231
0.000496002
0.000429132
0.00037851
0.000338935
0.00030682
0.000279975
0.000257075
0.00023726
0.000219916
0.000204587
0.000190933
0.00017869
0.00016765
0.000157635
0.00014852
0.000140187
0.000132523
0.000125431
0.00071288
0.000556432
0.000466397
0.000402355
0.000354426
0.00031705
0.000286675
0.000261255
0.000239581
0.000220846
0.000204444
0.000189952
0.000177052
0.000165488
0.00015505
0.000145596
0.000137001
0.000129151
0.000121966
0.000115729
0.000663952
0.000488458
0.000404619
0.000347248
0.000305035
0.000272127
0.000245317
0.000222887
0.000203753
0.000187176
0.000172649
0.000159807
0.000148363
0.000138102
0.000128857
0.000120615
0.000113176
0.000106377
0.000100587
9.41931e-05
0.000528907
0.000369984
0.000305097
0.000261371
0.000228527
0.000202475
0.000181112
0.000163071
0.000147535
0.000133978
0.00012204
0.000111452
0.000102114
9.38257e-05
8.64129e-05
7.95871e-05
7.33426e-05
6.76641e-05
6.33878e-05
5.5621e-05
0.000107685
6.77183e-05
5.06311e-05
4.14159e-05
3.54048e-05
3.10366e-05
2.77136e-05
2.50815e-05
2.29333e-05
2.11504e-05
1.96502e-05
1.83706e-05
1.7262e-05
1.62915e-05
1.54469e-05
1.47173e-05
1.40791e-05
1.35159e-05
1.30244e-05
1.2603e-05
4.5356e-05
2.3208e-05
1.65396e-05
1.36493e-05
1.18966e-05
1.06844e-05
9.76073e-06
9.05705e-06
8.49463e-06
8.0312e-06
7.64033e-06
7.31184e-06
7.02393e-06
6.75925e-06
6.52663e-06
6.32368e-06
6.14441e-06
5.98466e-06
5.84217e-06
5.67936e-06
0.000107685
6.77183e-05
5.06311e-05
4.14159e-05
3.54048e-05
3.10366e-05
2.77137e-05
2.50815e-05
2.29333e-05
2.11504e-05
1.96502e-05
1.83706e-05
1.72619e-05
1.62917e-05
1.54467e-05
1.47171e-05
1.40789e-05
1.35156e-05
1.30238e-05
1.26026e-05
0.000160509
0.00010736
8.07408e-05
6.55975e-05
5.54896e-05
4.83025e-05
4.3131e-05
3.9079e-05
3.57391e-05
3.29496e-05
3.05779e-05
2.8535e-05
2.6774e-05
2.52459e-05
2.39074e-05
2.27276e-05
2.16847e-05
2.07594e-05
1.99402e-05
1.92356e-05
0.000198681
0.0001383
0.000105187
8.55269e-05
7.25013e-05
6.28902e-05
5.60611e-05
5.07593e-05
4.63881e-05
4.27219e-05
3.96253e-05
3.69555e-05
3.46333e-05
3.26027e-05
3.08174e-05
2.92408e-05
2.78412e-05
2.65934e-05
2.54822e-05
2.45605e-05
0.000218609
0.000155003
0.000118661
9.65069e-05
8.18824e-05
7.08356e-05
6.30857e-05
5.71437e-05
5.22487e-05
4.80968e-05
4.45834e-05
4.15733e-05
3.89544e-05
3.66619e-05
3.46437e-05
3.28582e-05
3.1271e-05
2.98547e-05
2.85971e-05
2.75831e-05
0.000218609
0.000155003
0.000118661
9.65069e-05
8.18824e-05
7.08356e-05
6.30857e-05
5.71436e-05
5.22486e-05
4.80967e-05
4.45834e-05
4.15733e-05
3.89544e-05
3.66622e-05
3.46446e-05
3.28595e-05
3.12727e-05
2.98569e-05
2.85954e-05
2.75267e-05
0.000198681
0.0001383
0.000105187
8.55269e-05
7.25012e-05
6.28901e-05
5.60611e-05
5.07593e-05
4.6388e-05
4.27217e-05
3.96252e-05
3.69554e-05
3.46334e-05
3.26035e-05
3.0819e-05
2.9243e-05
2.78446e-05
2.65987e-05
2.54893e-05
2.45672e-05
0.000160509
0.00010736
8.07408e-05
6.55975e-05
5.54896e-05
4.83025e-05
4.31309e-05
3.9079e-05
3.57391e-05
3.29495e-05
3.05779e-05
2.8535e-05
2.67742e-05
2.52464e-05
2.39086e-05
2.27293e-05
2.16872e-05
2.07627e-05
1.99363e-05
1.91973e-05
0.000107685
6.77183e-05
5.06311e-05
4.14159e-05
3.54048e-05
3.10366e-05
2.77136e-05
2.50815e-05
2.29333e-05
2.11504e-05
1.96502e-05
1.83706e-05
1.7262e-05
1.62921e-05
1.54477e-05
1.47183e-05
1.40802e-05
1.35164e-05
1.30235e-05
1.26026e-05
4.5356e-05
2.3208e-05
1.65396e-05
1.36493e-05
1.18966e-05
1.06844e-05
9.76073e-06
9.05706e-06
8.49464e-06
8.0312e-06
7.64033e-06
7.31185e-06
7.02396e-06
6.75921e-06
6.52666e-06
6.32372e-06
6.14447e-06
5.98473e-06
5.84232e-06
5.67947e-06
4.7183e-06
4.63825e-06
4.52177e-06
4.42731e-06
4.34539e-06
4.28359e-06
4.22609e-06
4.17524e-06
4.1242e-06
4.07934e-06
4.03912e-06
4.00294e-06
3.96531e-06
3.92943e-06
3.89353e-06
3.86002e-06
3.82673e-06
3.7958e-06
3.76553e-06
3.73667e-06
3.70833e-06
3.68041e-06
3.65424e-06
3.62833e-06
3.60372e-06
3.57935e-06
3.55516e-06
3.53089e-06
3.5068e-06
3.48236e-06
3.45916e-06
3.43588e-06
3.41209e-06
3.38823e-06
3.36364e-06
3.34239e-06
3.32181e-06
3.3008e-06
3.28288e-06
3.25425e-06
1.01034e-05
9.80748e-06
9.48961e-06
9.2701e-06
9.06536e-06
8.90159e-06
8.74409e-06
8.60875e-06
8.4687e-06
8.34166e-06
8.22818e-06
8.13014e-06
8.03118e-06
7.9433e-06
7.85322e-06
7.76865e-06
7.68766e-06
7.61254e-06
7.54127e-06
7.47338e-06
7.40813e-06
7.3447e-06
7.28504e-06
7.22803e-06
7.17423e-06
7.12243e-06
7.07159e-06
7.02139e-06
6.97124e-06
6.92086e-06
6.87099e-06
6.82283e-06
6.77555e-06
6.72804e-06
6.68108e-06
6.63475e-06
6.59073e-06
6.54809e-06
6.50803e-06
6.46108e-06
1.51545e-05
1.47558e-05
1.44039e-05
1.40368e-05
1.36897e-05
1.33698e-05
1.30903e-05
1.28377e-05
1.26107e-05
1.23984e-05
1.2199e-05
1.20131e-05
1.18432e-05
1.16971e-05
1.15413e-05
1.13987e-05
1.12646e-05
1.11433e-05
1.1025e-05
1.09106e-05
1.08033e-05
1.06913e-05
1.0587e-05
1.04884e-05
1.04001e-05
1.0315e-05
1.02314e-05
1.01492e-05
1.00694e-05
9.99089e-06
9.91257e-06
9.83659e-06
9.76268e-06
9.69133e-06
9.6229e-06
9.55482e-06
9.48709e-06
9.42093e-06
9.35788e-06
9.29154e-06
1.98351e-05
1.9135e-05
1.85414e-05
1.80136e-05
1.75373e-05
1.7104e-05
1.67039e-05
1.63348e-05
1.59931e-05
1.56768e-05
1.53836e-05
1.51107e-05
1.48556e-05
1.46234e-05
1.44071e-05
1.42051e-05
1.40142e-05
1.38438e-05
1.36639e-05
1.34883e-05
1.33325e-05
1.31827e-05
1.30393e-05
1.29004e-05
1.27708e-05
1.26468e-05
1.253e-05
1.24162e-05
1.23072e-05
1.22013e-05
1.20941e-05
1.19905e-05
1.18914e-05
1.17964e-05
1.1705e-05
1.16152e-05
1.1528e-05
1.14429e-05
1.13614e-05
1.12808e-05
2.30551e-05
2.22019e-05
2.14464e-05
2.07668e-05
2.01512e-05
1.95926e-05
1.90859e-05
1.86241e-05
1.81979e-05
1.78037e-05
1.74382e-05
1.70985e-05
1.67792e-05
1.64883e-05
1.62171e-05
1.59678e-05
1.57323e-05
1.55103e-05
1.53017e-05
1.51042e-05
1.49265e-05
1.47426e-05
1.45607e-05
1.4395e-05
1.42391e-05
1.4092e-05
1.39522e-05
1.38185e-05
1.36909e-05
1.3569e-05
1.34471e-05
1.33248e-05
1.32118e-05
1.30995e-05
1.29909e-05
1.28858e-05
1.27867e-05
1.2689e-05
1.25947e-05
1.25047e-05
2.42204e-05
2.33159e-05
2.24945e-05
2.17482e-05
2.10701e-05
2.04525e-05
1.98911e-05
1.93812e-05
1.89133e-05
1.84807e-05
1.80803e-05
1.77083e-05
1.73611e-05
1.70415e-05
1.67442e-05
1.64673e-05
1.62109e-05
1.59736e-05
1.57524e-05
1.55453e-05
1.5352e-05
1.51702e-05
1.50033e-05
1.48381e-05
1.46669e-05
1.45037e-05
1.43525e-05
1.42117e-05
1.40815e-05
1.39545e-05
1.38338e-05
1.37122e-05
1.3583e-05
1.34612e-05
1.33454e-05
1.3239e-05
1.31342e-05
1.30328e-05
1.2933e-05
1.28378e-05
2.32098e-05
2.22778e-05
2.14595e-05
2.07275e-05
2.00701e-05
1.94775e-05
1.89421e-05
1.8453e-05
1.80029e-05
1.75887e-05
1.72074e-05
1.68562e-05
1.65304e-05
1.62308e-05
1.59532e-05
1.56956e-05
1.54565e-05
1.5235e-05
1.50308e-05
1.48403e-05
1.46635e-05
1.44958e-05
1.43349e-05
1.41829e-05
1.40218e-05
1.38735e-05
1.37345e-05
1.36044e-05
1.34809e-05
1.33562e-05
1.32377e-05
1.31102e-05
1.29982e-05
1.28731e-05
1.27749e-05
1.26716e-05
1.25661e-05
1.24623e-05
1.23592e-05
1.22595e-05
2.0007e-05
1.92492e-05
1.85922e-05
1.79765e-05
1.74252e-05
1.69243e-05
1.64681e-05
1.60532e-05
1.56784e-05
1.53382e-05
1.50262e-05
1.47381e-05
1.44716e-05
1.42279e-05
1.40028e-05
1.37933e-05
1.36008e-05
1.34208e-05
1.32535e-05
1.30964e-05
1.29533e-05
1.28081e-05
1.26662e-05
1.25371e-05
1.24122e-05
1.2294e-05
1.21783e-05
1.20683e-05
1.19546e-05
1.18397e-05
1.17299e-05
1.16283e-05
1.15304e-05
1.14331e-05
1.1336e-05
1.12391e-05
1.11382e-05
1.10399e-05
1.09431e-05
1.08493e-05
1.53882e-05
1.48766e-05
1.44106e-05
1.39581e-05
1.35489e-05
1.31791e-05
1.28564e-05
1.2572e-05
1.23112e-05
1.20757e-05
1.18614e-05
1.16621e-05
1.14853e-05
1.13185e-05
1.11732e-05
1.10141e-05
1.08705e-05
1.07366e-05
1.06165e-05
1.04985e-05
1.03901e-05
1.02837e-05
1.01825e-05
1.0086e-05
9.99108e-06
9.90084e-06
9.81351e-06
9.73013e-06
9.64888e-06
9.56706e-06
9.48662e-06
9.40895e-06
9.33225e-06
9.25705e-06
9.17946e-06
9.1028e-06
9.02301e-06
8.94384e-06
8.87093e-06
8.80033e-06
1.01264e-05
9.85406e-06
9.52027e-06
9.24507e-06
9.01041e-06
8.81061e-06
8.63598e-06
8.48856e-06
8.33886e-06
8.20428e-06
8.08645e-06
7.98454e-06
7.89099e-06
7.78758e-06
7.693e-06
7.60271e-06
7.51697e-06
7.43584e-06
7.35907e-06
7.28622e-06
7.21718e-06
7.15214e-06
7.09236e-06
7.03448e-06
6.97905e-06
6.92564e-06
6.87329e-06
6.8218e-06
6.77001e-06
6.71686e-06
6.66573e-06
6.61676e-06
6.56821e-06
6.52004e-06
6.47127e-06
6.41922e-06
6.36869e-06
6.31983e-06
6.27675e-06
6.22578e-06
4.71893e-06
4.63759e-06
4.52127e-06
4.42604e-06
4.34781e-06
4.28677e-06
4.22905e-06
4.17786e-06
4.12652e-06
4.08072e-06
4.04061e-06
4.00296e-06
3.96613e-06
3.93016e-06
3.89478e-06
3.86109e-06
3.828e-06
3.79668e-06
3.76605e-06
3.73713e-06
3.7083e-06
3.68062e-06
3.65421e-06
3.62869e-06
3.60405e-06
3.57995e-06
3.55567e-06
3.53136e-06
3.50718e-06
3.48264e-06
3.45948e-06
3.43622e-06
3.41272e-06
3.38944e-06
3.36658e-06
3.34411e-06
3.32196e-06
3.30006e-06
3.28113e-06
3.25105e-06
1.01285e-05
9.85155e-06
9.52089e-06
9.24708e-06
9.00372e-06