/*--------------------------------*- C++ -*----------------------------------*\
| =========                 |                                                 |
| \\      /  F ield         | OpenFOAM: The Open Source CFD Toolbox           |
|  \\    /   O peration     | Version:  2212                                  |
|   \\  /    A nd           | Website:  www.openfoam.com                      |
|    \\/     M anipulation  |                                                 |
\*---------------------------------------------------------------------------*/
FoamFile
{
    version     2.0;
    format      ascii;
    arch        "LSB;label=32;scalar=64";
    class       volScalarField;
    location    "1.5";
    object      p;
}
// * * * * * * * * * * * * * * * * * * * * * * * * * * * * * * * * * * * * * //

dimensions      [0 2 -2 0 0 0 0];

internalField   nonuniform List<scalar> 
6840
(
0.0178415
0.0107271
0.00843564
0.00789782
0.00762347
0.00740128
0.00721469
0.00704833
0.00688726
0.00672797
0.00657056
0.00641498
0.0062605
0.0061062
0.00595229
0.00579955
0.0056482
0.00549875
0.00534683
0.00520407
0.0106627
0.00992886
0.00883597
0.00817001
0.00776743
0.00749372
0.00728259
0.00709642
0.0069221
0.00675491
0.0065924
0.00643291
0.00627515
0.00611844
0.00596293
0.00580892
0.00565696
0.00550653
0.00535644
0.0052045
0.0103144
0.00946292
0.00869866
0.00813953
0.00776337
0.00749534
0.00727967
0.00708672
0.00690826
0.00673968
0.00657612
0.00641534
0.00625682
0.00610039
0.00594574
0.00579242
0.0056399
0.00548792
0.00533881
0.00519693
0.00990513
0.0091424
0.00852364
0.00807231
0.00772832
0.00745926
0.00723958
0.00705065
0.00688263
0.00672488
0.00656871
0.0064126
0.00625718
0.00610292
0.0059499
0.00579809
0.00564759
0.00549869
0.00535301
0.00521418
0.0097709
0.00902971
0.00844154
0.0080334
0.00771141
0.00744462
0.00722297
0.00703212
0.00686101
0.00670373
0.0065529
0.00640149
0.00624848
0.00609536
0.00594315
0.00579225
0.00564288
0.005495
0.0053485
0.00520495
0.00977089
0.00902971
0.00844154
0.0080334
0.00771142
0.00744463
0.00722298
0.00703214
0.00686105
0.00670381
0.00655303
0.00640174
0.00624892
0.00609612
0.0059444
0.00579421
0.00564569
0.00549875
0.00535095
0.00520068
0.00990513
0.00914241
0.00852364
0.00807231
0.00772832
0.00745926
0.0072396
0.00705071
0.00688274
0.0067251
0.00656909
0.00641327
0.00625828
0.00610468
0.00595274
0.00580274
0.00565513
0.00551068
0.00536818
0.00522464
0.0103144
0.00946292
0.00869866
0.00813953
0.00776337
0.00749535
0.0072797
0.00708679
0.00690838
0.00673992
0.00657656
0.00641612
0.0062581
0.00610245
0.0059491
0.00579808
0.00564966
0.00550502
0.00536548
0.00522837
0.0106627
0.00992886
0.00883598
0.00817001
0.00776743
0.00749372
0.00728258
0.00709642
0.0069221
0.00675494
0.00659246
0.00643302
0.00627541
0.0061192
0.00596466
0.00581223
0.0056625
0.00551511
0.00537093
0.00522302
0.0178415
0.0107271
0.00843566
0.00789784
0.00762349
0.0074013
0.00721471
0.00704835
0.00688729
0.006728
0.00657059
0.00641501
0.00626054
0.00610624
0.00595232
0.0057996
0.00564829
0.00549887
0.00534703
0.00520432
0.0106627
0.00992886
0.00883597
0.00817
0.00776742
0.00749371
0.00728257
0.0070964
0.00692209
0.00675492
0.00659243
0.00643299
0.00627538
0.00611917
0.00596463
0.00581218
0.00566241
0.00551498
0.00537072
0.00522273
0.00994613
0.00991443
0.00918622
0.00847574
0.00802941
0.00771351
0.00745468
0.00722713
0.00702273
0.00683464
0.00665737
0.00648736
0.00632199
0.00615979
0.00600041
0.00584372
0.00568952
0.00553882
0.00539884
0.00527957
0.00902066
0.00914685
0.00884398
0.00842779
0.00806066
0.00774205
0.00746355
0.00722318
0.0070107
0.00681633
0.00663333
0.00645849
0.00628994
0.00612606
0.00596564
0.00580797
0.0056525
0.00549881
0.00534482
0.0051982
0.00860227
0.00864578
0.00848022
0.00821729
0.00793692
0.00766559
0.00741458
0.0071882
0.00698514
0.0067985
0.00662146
0.00645085
0.00628506
0.00612329
0.005965
0.00580933
0.00565573
0.0055043
0.00535591
0.00521378
0.00838627
0.0084081
0.00828089
0.00806336
0.00783092
0.00760173
0.00737887
0.00716565
0.00696476
0.00677723
0.00660052
0.00643112
0.00626732
0.00610793
0.00595174
0.005798
0.00564688
0.00549903
0.00535657
0.00521915
0.00838627
0.0084081
0.0082809
0.00806338
0.00783095
0.00760176
0.00737892
0.00716571
0.00696483
0.00677737
0.0066008
0.00643165
0.00626819
0.00610928
0.00595383
0.00580105
0.00565071
0.00550347
0.00535985
0.00521515
0.00860228
0.00864579
0.00848023
0.00821731
0.00793695
0.00766563
0.00741463
0.00718827
0.00698526
0.00679883
0.00662221
0.00645222
0.00628717
0.00612605
0.00596861
0.00581462
0.0056638
0.00551616
0.00536867
0.00521176
0.00902066
0.00914686
0.008844
0.0084278
0.00806068
0.00774208
0.0074636
0.00722327
0.00701089
0.00681667
0.00663386
0.00645933
0.00629123
0.00612817
0.0059691
0.0058136
0.0056616
0.00551358
0.00536703
0.00521817
0.00994614
0.00991444
0.00918623
0.00847575
0.00802942
0.00771352
0.0074547
0.00722715
0.00702276
0.00683467
0.0066574
0.0064874
0.00632204
0.00615984
0.00600047
0.0058438
0.00568963
0.00553897
0.00539905
0.00527992
0.0106627
0.00992887
0.00883599
0.00817003
0.00776745
0.00749374
0.00728261
0.00709645
0.00692213
0.00675494
0.00659243
0.00643295
0.0062752
0.00611848
0.00596297
0.00580899
0.00565705
0.00550665
0.0053566
0.00520469
0.0103144
0.00946292
0.00869866
0.00813953
0.00776337
0.00749535
0.00727969
0.00708678
0.00690837
0.0067399
0.00657654
0.00641609
0.00625807
0.00610242
0.00594906
0.00579801
0.00564957
0.00550489
0.00536527
0.00522802
0.00902066
0.00914686
0.00884399
0.0084278
0.00806067
0.00774207
0.00746359
0.00722326
0.00701088
0.00681665
0.00663383
0.00645929
0.00629119
0.00612811
0.00596903
0.00581351
0.00566149
0.00551342
0.00536681
0.00521784
0.00845117
0.00855215
0.00844061
0.00821516
0.00795945
0.00770109
0.00744279
0.00720132
0.00698367
0.00678378
0.00659671
0.00641944
0.00624956
0.0060851
0.00592471
0.0057673
0.00561191
0.00545755
0.00530002
0.0051361
0.00808317
0.00815124
0.00809886
0.0079519
0.00776707
0.00756199
0.00735138
0.00714458
0.00694363
0.00675146
0.00656925
0.00639521
0.00622737
0.00606442
0.00590545
0.00574965
0.0055962
0.00544478
0.00529578
0.00514657
0.00790009
0.00796452
0.00793505
0.00781021
0.00765119
0.00747749
0.0072912
0.00710318
0.00691706
0.00673366
0.00655457
0.00638083
0.00621281
0.00604989
0.00589144
0.00573712
0.00558606
0.00543806
0.00529549
0.00515392
0.00790009
0.00796452
0.00793506
0.00781023
0.00765123
0.00747755
0.00729126
0.00710325
0.00691715
0.0067338
0.0065548
0.00638115
0.0062132
0.00605031
0.005892
0.00573802
0.00558716
0.00543902
0.00529524
0.0051501
0.00808319
0.00815125
0.00809888
0.00795194
0.00776712
0.00756205
0.00735144
0.00714465
0.00694373
0.00675163
0.00656957
0.00639571
0.00622808
0.00606535
0.00590669
0.00575127
0.00559787
0.00544618
0.00529528
0.00513983
0.00845118
0.00855216
0.00844062
0.00821517
0.00795946
0.00770111
0.0074428
0.00720134
0.0069837
0.0067838
0.00659674
0.00641948
0.00624961
0.00608517
0.00592479
0.00576738
0.00561201
0.00545766
0.00530013
0.00513619
0.00902067
0.00914686
0.008844
0.0084278
0.00806068
0.00774208
0.00746357
0.0072232
0.00701073
0.00681636
0.00663337
0.00645853
0.00628999
0.00612613
0.00596573
0.00580806
0.00565262
0.00549897
0.00534505
0.00519856
0.0103144
0.00946294
0.00869868
0.00813955
0.0077634
0.00749536
0.00727969
0.00708675
0.00690829
0.00673972
0.00657615
0.00641538
0.00625687
0.00610044
0.00594579
0.00579248
0.00563998
0.00548802
0.00533894
0.00519715
0.00990514
0.00914241
0.00852364
0.00807231
0.00772832
0.00745926
0.0072396
0.00705071
0.00688274
0.00672509
0.00656908
0.00641325
0.00625825
0.00610464
0.0059527
0.00580268
0.00565505
0.00551056
0.00536801
0.0052244
0.00860228
0.00864579
0.00848023
0.00821731
0.00793695
0.00766563
0.00741463
0.00718827
0.00698525
0.00679882
0.00662219
0.00645219
0.00628714
0.006126
0.00596855
0.00581456
0.00566373
0.00551607
0.00536857
0.00521167
0.00808318
0.00815125
0.00809888
0.00795194
0.00776712
0.00756204
0.00735143
0.00714464
0.00694372
0.00675162
0.00656955
0.00639569
0.00622805
0.00606531
0.00590665
0.00575123
0.00559785
0.00544618
0.00529531
0.00513995
0.0077853
0.00784445
0.00783252
0.00773715
0.00759755
0.0074321
0.00725198
0.0070676
0.00688377
0.00670362
0.00652878
0.00635914
0.00619414
0.00603321
0.00587582
0.00572143
0.00556938
0.00541977
0.00527397
0.00512609
0.00763418
0.00769708
0.00770084
0.0076272
0.00750709
0.00736071
0.00719783
0.00702643
0.00685235
0.00667889
0.00650792
0.00634036
0.00617652
0.00601634
0.00585959
0.00570595
0.00555501
0.00540721
0.00526491
0.00512027
0.00763419
0.00769708
0.00770085
0.00762721
0.0075071
0.00736073
0.00719786
0.00702647
0.0068524
0.00667895
0.006508
0.00634044
0.00617663
0.00601649
0.00585984
0.00570637
0.00555552
0.00540767
0.00526498
0.00511953
0.00778531
0.00784445
0.00783253
0.00773715
0.00759756
0.00743211
0.00725199
0.00706762
0.00688379
0.00670364
0.0065288
0.00635917
0.00619417
0.00603325
0.00587586
0.00572146
0.0055694
0.00541977
0.00527393
0.00512598
0.00808319
0.00815125
0.00809887
0.00795192
0.00776709
0.00756201
0.0073514
0.0071446
0.00694365
0.00675149
0.00656928
0.00639525
0.00622742
0.00606448
0.00590552
0.00574971
0.00559627
0.00544485
0.00529583
0.00514655
0.00860229
0.0086458
0.00848023
0.00821731
0.00793694
0.00766561
0.0074146
0.00718823
0.00698517
0.00679853
0.0066215
0.0064509
0.00628511
0.00612335
0.00596507
0.0058094
0.00565582
0.00550441
0.00535604
0.0052139
0.00990515
0.00914242
0.00852366
0.00807233
0.00772834
0.00745928
0.0072396
0.00705068
0.00688266
0.00672491
0.00656874
0.00641264
0.00625722
0.00610297
0.00594995
0.00579815
0.00564766
0.00549877
0.00535312
0.00521435
0.0097709
0.00902972
0.00844154
0.00803341
0.00771142
0.00744463
0.00722299
0.00703215
0.00686105
0.0067038
0.00655303
0.00640173
0.0062489
0.00609609
0.00594436
0.00579416
0.00564563
0.00549866
0.00535083
0.0052005
0.00838628
0.00840811
0.0082809
0.00806339
0.00783095
0.00760177
0.00737892
0.00716571
0.00696483
0.00677737
0.00660079
0.00643163
0.00626818
0.00610925
0.0059538
0.00580102
0.00565068
0.00550344
0.00535983
0.00521517
0.00790009
0.00796453
0.00793506
0.00781023
0.00765124
0.00747756
0.00729126
0.00710325
0.00691715
0.0067338
0.0065548
0.00638114
0.0062132
0.0060503
0.00589199
0.00573803
0.00558718
0.00543907
0.00529535
0.0051503
0.00763419
0.00769708
0.00770085
0.00762721
0.0075071
0.00736073
0.00719786
0.00702647
0.00685239
0.00667895
0.00650799
0.00634044
0.00617662
0.00601649
0.00585984
0.00570637
0.00555554
0.00540771
0.00526505
0.00511965
0.00749139
0.0075609
0.00758303
0.0075305
0.00742926
0.00729835
0.00714846
0.00698752
0.00682111
0.00665292
0.00648533
0.00631979
0.0061571
0.00599757
0.00584126
0.00568801
0.00553739
0.00538962
0.00524624
0.00510448
0.00749139
0.00756091
0.00758303
0.0075305
0.00742926
0.00729835
0.00714846
0.00698753
0.00682112
0.00665292
0.00648533
0.0063198
0.0061571
0.00599758
0.00584127
0.00568802
0.00553739
0.00538962
0.00524623
0.00510446
0.00763419
0.00769709
0.00770085
0.00762721
0.0075071
0.00736072
0.00719784
0.00702645
0.00685236
0.00667891
0.00650794
0.00634038
0.00617655
0.00601638
0.00585962
0.00570599
0.00555505
0.00540724
0.00526494
0.00512028
0.0079001
0.00796454
0.00793507
0.00781022
0.0076512
0.00747751
0.00729122
0.00710321
0.00691708
0.00673368
0.0065546
0.00638086
0.00621285
0.00604994
0.00589149
0.00573718
0.00558613
0.00543813
0.00529557
0.00515402
0.00838629
0.00840812
0.00828091
0.00806338
0.00783094
0.00760175
0.0073789
0.00716568
0.00696479
0.00677726
0.00660055
0.00643116
0.00626736
0.00610798
0.00595179
0.00579806
0.00564695
0.00549911
0.00535666
0.00521924
0.00977092
0.00902973
0.00844155
0.00803342
0.00771143
0.00744465
0.007223
0.00703215
0.00686104
0.00670376
0.00655293
0.00640153
0.00624852
0.0060954
0.00594319
0.00579229
0.00564293
0.00549505
0.00534856
0.00520501
0.00977091
0.00902972
0.00844154
0.00803341
0.00771142
0.00744463
0.00722298
0.00703213
0.00686102
0.00670373
0.0065529
0.0064015
0.00624848
0.00609536
0.00594314
0.00579224
0.00564287
0.00549498
0.00534848
0.00520493
0.00838628
0.00840811
0.0082809
0.00806337
0.00783093
0.00760174
0.00737888
0.00716566
0.00696477
0.00677724
0.00660052
0.00643113
0.00626732
0.00610794
0.00595175
0.00579801
0.0056469
0.00549906
0.00535661
0.00521922
0.00790009
0.00796453
0.00793506
0.00781022
0.0076512
0.0074775
0.00729121
0.00710319
0.00691706
0.00673366
0.00655458
0.00638084
0.00621282
0.00604991
0.00589146
0.00573714
0.0055861
0.00543811
0.00529556
0.00515402
0.00763419
0.00769708
0.00770085
0.00762721
0.00750709
0.00736071
0.00719784
0.00702644
0.00685236
0.0066789
0.00650793
0.00634037
0.00617653
0.00601636
0.0058596
0.00570597
0.00555504
0.00540725
0.00526496
0.00512031
0.00749139
0.00756091
0.00758303
0.0075305
0.00742926
0.00729835
0.00714846
0.00698753
0.00682112
0.00665292
0.00648533
0.0063198
0.0061571
0.00599758
0.00584127
0.00568802
0.0055374
0.00538964
0.00524625
0.00510449
0.0074914
0.00756091
0.00758303
0.0075305
0.00742926
0.00729835
0.00714846
0.00698753
0.00682112
0.00665293
0.00648534
0.00631981
0.00615711
0.00599758
0.00584128
0.00568803
0.00553741
0.00538964
0.00524626
0.00510449
0.0076342
0.00769709
0.00770086
0.00762722
0.00750711
0.00736074
0.00719787
0.00702648
0.00685241
0.00667896
0.00650801
0.00634046
0.00617665
0.00601652
0.00585987
0.00570641
0.00555557
0.00540773
0.00526506
0.00511965
0.00790011
0.00796454
0.00793507
0.00781024
0.00765125
0.00747757
0.00729128
0.00710327
0.00691717
0.00673382
0.00655482
0.00638117
0.00621324
0.00605034
0.00589204
0.00573807
0.00558722
0.00543911
0.00529537
0.0051503
0.00838629
0.00840812
0.00828091
0.0080634
0.00783097
0.00760178
0.00737894
0.00716574
0.00696486
0.0067774
0.00660083
0.00643168
0.00626823
0.00610931
0.00595386
0.00580109
0.00565075
0.00550351
0.0053599
0.00521521
0.00977091
0.00902973
0.00844155
0.00803342
0.00771144
0.00744465
0.007223
0.00703217
0.00686108
0.00670383
0.00655306
0.00640177
0.00624895
0.00609615
0.00594443
0.00579424
0.00564572
0.00549877
0.00535096
0.00520066
0.00990514
0.00914241
0.00852365
0.00807232
0.00772833
0.00745927
0.00723959
0.00705067
0.00688264
0.00672489
0.00656872
0.00641262
0.0062572
0.00610294
0.00594992
0.00579811
0.00564761
0.00549871
0.00535304
0.00521423
0.00860228
0.00864579
0.00848023
0.0082173
0.00793693
0.0076656
0.00741459
0.00718822
0.00698516
0.00679852
0.00662148
0.00645088
0.00628509
0.00612332
0.00596504
0.00580936
0.00565577
0.00550436
0.00535599
0.00521388
0.00808318
0.00815125
0.00809887
0.00795191
0.00776708
0.007562
0.0073514
0.0071446
0.00694365
0.00675148
0.00656927
0.00639523
0.0062274
0.00606445
0.00590549
0.00574969
0.00559625
0.00544484
0.00529586
0.00514666
0.00778531
0.00784446
0.00783253
0.00773716
0.00759756
0.00743211
0.00725199
0.00706762
0.00688379
0.00670364
0.0065288
0.00635916
0.00619416
0.00603324
0.00587585
0.00572146
0.00556941
0.0054198
0.005274
0.00512613
0.00763419
0.00769709
0.00770086
0.00762722
0.00750711
0.00736073
0.00719786
0.00702648
0.0068524
0.00667896
0.006508
0.00634045
0.00617664
0.00601651
0.00585986
0.00570639
0.00555556
0.00540773
0.00526507
0.00511967
0.00763419
0.00769709
0.00770085
0.00762721
0.0075071
0.00736072
0.00719784
0.00702645
0.00685236
0.00667891
0.00650794
0.00634038
0.00617654
0.00601637
0.00585962
0.00570599
0.00555506
0.00540727
0.00526498
0.00512035
0.00778531
0.00784446
0.00783253
0.00773716
0.00759756
0.00743212
0.007252
0.00706762
0.0068838
0.00670364
0.00652881
0.00635917
0.00619418
0.00603326
0.00587587
0.00572148
0.00556943
0.00541983
0.00527403
0.00512616
0.0080832
0.00815126
0.00809889
0.00795195
0.00776713
0.00756206
0.00735145
0.00714467
0.00694375
0.00675165
0.00656958
0.00639572
0.0062281
0.00606536
0.00590671
0.00575129
0.0055979
0.00544623
0.00529536
0.00513999
0.0086023
0.00864581
0.00848025
0.00821733
0.00793697
0.00766565
0.00741465
0.00718829
0.00698528
0.00679885
0.00662223
0.00645224
0.00628719
0.00612607
0.00596862
0.00581463
0.0056638
0.00551615
0.00536865
0.00521172
0.00990515
0.00914242
0.00852366
0.00807233
0.00772834
0.00745928
0.00723962
0.00705073
0.00688277
0.00672512
0.00656911
0.00641329
0.0062583
0.0061047
0.00595277
0.00580276
0.00565515
0.00551069
0.00536817
0.00522461
0.0103144
0.00946293
0.00869867
0.00813955
0.00776339
0.00749536
0.00727968
0.00708674
0.00690828
0.00673971
0.00657614
0.00641536
0.00625685
0.00610042
0.00594577
0.00579246
0.00563994
0.00548796
0.00533885
0.00519697
0.00902067
0.00914686
0.008844
0.0084278
0.00806068
0.00774207
0.00746357
0.0072232
0.00701072
0.00681635
0.00663335
0.00645852
0.00628997
0.0061261
0.00596569
0.00580802
0.00565256
0.00549887
0.0053449
0.00519833
0.00845118
0.00855216
0.00844062
0.00821518
0.00795946
0.00770111
0.0074428
0.00720134
0.0069837
0.0067838
0.00659673
0.00641947
0.0062496
0.00608514
0.00592475
0.00576735
0.00561197
0.00545761
0.0053001
0.0051362
0.00808319
0.00815126
0.00809889
0.00795195
0.00776713
0.00756206
0.00735145
0.00714466
0.00694374
0.00675164
0.00656957
0.00639571
0.00622808
0.00606534
0.00590668
0.00575127
0.00559788
0.00544621
0.00529535
0.00513997
0.0079001
0.00796453
0.00793507
0.00781024
0.00765125
0.00747757
0.00729127
0.00710327
0.00691716
0.00673381
0.00655481
0.00638116
0.00621322
0.00605032
0.00589202
0.00573805
0.00558721
0.0054391
0.00529538
0.00515034
0.0079001
0.00796453
0.00793507
0.00781022
0.0076512
0.00747751
0.00729122
0.0071032
0.00691708
0.00673368
0.0065546
0.00638085
0.00621284
0.00604992
0.00589148
0.00573716
0.00558612
0.00543814
0.00529562
0.00515413
0.00808319
0.00815125
0.00809887
0.00795192
0.00776709
0.00756201
0.0073514
0.0071446
0.00694365
0.00675148
0.00656928
0.00639524
0.00622741
0.00606446
0.00590551
0.0057497
0.00559627
0.00544487
0.0052959
0.00514675
0.00845119
0.00855217
0.00844062
0.00821518
0.00795947
0.00770111
0.00744281
0.00720135
0.0069837
0.00678381
0.00659674
0.00641948
0.00624961
0.00608516
0.00592477
0.00576736
0.00561198
0.00545763
0.00530012
0.00513624
0.00902067
0.00914687
0.00884401
0.00842781
0.00806069
0.00774209
0.00746361
0.00722329
0.00701091
0.00681668
0.00663387
0.00645933
0.00629124
0.00612817
0.0059691
0.00581358
0.00566157
0.00551351
0.00536691
0.00521796
0.0103144
0.00946294
0.00869867
0.00813954
0.00776339
0.00749537
0.00727972
0.00708681
0.0069084
0.00673994
0.00657658
0.00641614
0.00625812
0.00610247
0.00594912
0.00579808
0.00564966
0.005505
0.00536541
0.00522823
0.0106627
0.00992887
0.00883599
0.00817003
0.00776745
0.00749374
0.00728261
0.00709644
0.00692212
0.00675494
0.00659242
0.00643294
0.00627518
0.00611847
0.00596297
0.00580897
0.00565702
0.00550659
0.0053565
0.00520452
0.00994614
0.00991444
0.00918623
0.00847575
0.00802943
0.00771352
0.0074547
0.00722715
0.00702276
0.00683467
0.00665739
0.0064874
0.00632203
0.00615983
0.00600046
0.00584378
0.00568959
0.0055389
0.00539893
0.00527969
0.00902067
0.00914687
0.00884401
0.00842781
0.00806069
0.00774209
0.00746361
0.00722328
0.0070109
0.00681668
0.00663386
0.00645932
0.00629122
0.00612815
0.00596907
0.00581357
0.00566156
0.0055135
0.00536692
0.005218
0.00860229
0.0086458
0.00848025
0.00821733
0.00793697
0.00766564
0.00741464
0.00718829
0.00698527
0.00679884
0.00662222
0.00645222
0.00628717
0.00612604
0.00596859
0.0058146
0.00566378
0.00551614
0.00536865
0.00521173
0.00838629
0.00840811
0.00828091
0.0080634
0.00783096
0.00760178
0.00737894
0.00716573
0.00696485
0.00677738
0.00660081
0.00643166
0.0062682
0.00610928
0.00595383
0.00580105
0.00565071
0.00550349
0.00535988
0.00521521
0.00838628
0.00840811
0.00828091
0.00806338
0.00783094
0.00760175
0.00737889
0.00716567
0.00696478
0.00677725
0.00660054
0.00643114
0.00626734
0.00610795
0.00595176
0.00579802
0.00564691
0.00549908
0.00535664
0.00521928
0.00860229
0.0086458
0.00848023
0.0082173
0.00793694
0.00766561
0.0074146
0.00718823
0.00698516
0.00679853
0.00662149
0.00645088
0.00628509
0.00612332
0.00596504
0.00580936
0.00565577
0.00550434
0.00535598
0.00521389
0.00902067
0.00914687
0.008844
0.0084278
0.00806068
0.00774208
0.00746357
0.0072232
0.00701073
0.00681636
0.00663336
0.00645852
0.00628997
0.0061261
0.00596569
0.00580801
0.00565254
0.00549885
0.00534485
0.00519825
0.00994614
0.00991444
0.00918624
0.00847575
0.00802943
0.00771353
0.00745471
0.00722716
0.00702276
0.00683468
0.0066574
0.0064874
0.00632203
0.00615983
0.00600045
0.00584377
0.00568957
0.00553887
0.00539886
0.00527958
0.0106627
0.00992887
0.00883599
0.00817002
0.00776744
0.00749373
0.0072826
0.00709643
0.00692212
0.00675496
0.00659247
0.00643303
0.00627542
0.00611921
0.00596466
0.00581223
0.00566248
0.00551506
0.00537082
0.00522284
0.0178415
0.0107271
0.00843566
0.00789784
0.00762349
0.0074013
0.00721471
0.00704835
0.00688729
0.006728
0.00657059
0.00641501
0.00626053
0.00610623
0.00595233
0.0057996
0.00564826
0.00549882
0.00534691
0.00520413
0.0106627
0.00992887
0.00883598
0.00817002
0.00776744
0.00749373
0.00728259
0.00709642
0.00692211
0.00675495
0.00659246
0.00643302
0.00627541
0.00611921
0.00596468
0.00581223
0.00566248
0.00551507
0.00537084
0.00522285
0.0103144
0.00946293
0.00869867
0.00813954
0.00776339
0.00749537
0.00727971
0.0070868
0.00690839
0.00673992
0.00657657
0.00641612
0.0062581
0.00610246
0.00594911
0.00579807
0.00564963
0.00550498
0.0053654
0.00522821
0.00990515
0.00914242
0.00852365
0.00807233
0.00772834
0.00745928
0.00723961
0.00705073
0.00688276
0.00672511
0.0065691
0.00641327
0.00625828
0.00610467
0.00595274
0.00580272
0.00565511
0.00551065
0.00536813
0.00522457
0.00977091
0.00902973
0.00844155
0.00803342
0.00771143
0.00744464
0.007223
0.00703216
0.00686107
0.00670382
0.00655304
0.00640174
0.00624892
0.00609611
0.00594439
0.00579419
0.00564567
0.00549872
0.0053509
0.00520059
0.00977091
0.00902973
0.00844155
0.00803341
0.00771143
0.00744464
0.00722299
0.00703214
0.00686103
0.00670374
0.00655291
0.00640151
0.00624849
0.00609537
0.00594315
0.00579225
0.00564288
0.00549498
0.00534847
0.00520489
0.00990515
0.00914242
0.00852365
0.00807233
0.00772834
0.00745928
0.0072396
0.00705068
0.00688265
0.0067249
0.00656873
0.00641262
0.0062572
0.00610294
0.00594992
0.0057981
0.0056476
0.00549868
0.00535299
0.00521414
0.0103144
0.00946293
0.00869867
0.00813955
0.00776339
0.00749536
0.00727969
0.00708675
0.00690829
0.00673971
0.00657614
0.00641537
0.00625685
0.00610041
0.00594576
0.00579244
0.00563992
0.00548792
0.00533877
0.00519682
0.0106627
0.00992888
0.00883599
0.00817003
0.00776745
0.00749374
0.00728261
0.00709645
0.00692213
0.00675494
0.00659243
0.00643294
0.00627519
0.00611847
0.00596295
0.00580895
0.00565699
0.00550655
0.00535642
0.0052044
0.0178415
0.0107271
0.00843566
0.00789784
0.00762349
0.00740131
0.00721472
0.00704836
0.00688729
0.006728
0.0065706
0.00641501
0.00626054
0.00610623
0.00595231
0.00579959
0.00564825
0.0054988
0.00534687
0.0052041
0.00527129
0.00490125
0.00464726
0.00451451
0.00438555
0.00424266
0.00410171
0.00396444
0.00382748
0.00368988
0.00355313
0.00341873
0.00328544
0.00315291
0.00302141
0.00289072
0.00276135
0.00263321
0.00250716
0.00238216
0.00225878
0.00213631
0.00201527
0.00189575
0.00177636
0.00165797
0.00154073
0.00142439
0.00131005
0.00119605
0.00107994
0.000964332
0.000850712
0.000738706
0.000627665
0.000515052
0.000400309
0.000285
0.000172611
5.3323e-05
0.0051989
0.00491299
0.00468464
0.00454183
0.00440432
0.00425799
0.00411387
0.0039732
0.00383274
0.0036922
0.00355299
0.00341643
0.00328109
0.00314653
0.0030132
0.00288117
0.002751
0.0026225
0.00249622
0.00237126
0.002248
0.00212611
0.00200624
0.00188774
0.00176884
0.00165051
0.00153321
0.00141693
0.00130262
0.00118874
0.00107309
0.000957977
0.00084479
0.000733246
0.000622313
0.000509709
0.000395391
0.000281164
0.00016927
5.22753e-05
0.00506824
0.00487603
0.00468712
0.00453263
0.00439057
0.00424674
0.00410245
0.0039597
0.00381831
0.0036783
0.00353972
0.00340328
0.00326754
0.00313309
0.0030007
0.0028699
0.00274075
0.00261307
0.00248728
0.0023624
0.00223915
0.00211722
0.00199717
0.00187841
0.0017597
0.00164184
0.00152485
0.00140885
0.00129465
0.00118132
0.00106677
0.000952602
0.000839829
0.000728066
0.000617736
0.000506239
0.000392114
0.000278333
0.000167519
5.13871e-05
0.00503134
0.00486194
0.00469713
0.00454246
0.00439538
0.00425145
0.00410873
0.0039673
0.00382715
0.00368805
0.00355029
0.00341408
0.00327919
0.00314555
0.00301331
0.00288254
0.00275321
0.00262521
0.00249881
0.00237326
0.00224895
0.00212547
0.0020026
0.00188091
0.00176068
0.00164204
0.00152484
0.00140875
0.00129416
0.00118082
0.00106626
0.000951799
0.000838551
0.000726875
0.000617199
0.00050629
0.000392479
0.000278914
0.00016811
5.11874e-05
0.00505019
0.00487923
0.00470959
0.00454888
0.004396
0.00424782
0.00410298
0.00396167
0.0038231
0.00368579
0.00354931
0.00341403
0.00328009
0.00314729
0.00301583
0.00288576
0.00275691
0.00262928
0.00250298
0.00237795
0.00225436
0.0021319
0.00200995
0.00188863
0.00176828
0.00164937
0.00153209
0.00141605
0.00130124
0.00118665
0.00107113
0.000955983
0.000842085
0.00072996
0.000619735
0.000508292
0.000394235
0.000280253
0.000168814
5.11812e-05
0.0050813
0.00490625
0.00472349
0.00455571
0.00439991
0.00424986
0.00410384
0.00396212
0.00382368
0.00368668
0.00355037
0.00341511
0.0032812
0.00314861
0.00301735
0.0028875
0.00275907
0.00263181
0.00250576
0.00238102
0.00225759
0.00213543
0.00201447
0.00189412
0.0017738
0.00165423
0.00153617
0.0014198
0.00130512
0.00119098
0.00107645
0.000962256
0.000848678
0.000736184
0.000625183
0.000513018
0.000398686
0.000283816
0.000171042
5.23866e-05
0.00512029
0.00493555
0.00473666
0.00456123
0.00440229
0.0042507
0.00410373
0.00396139
0.00382228
0.00368459
0.0035481
0.00341306
0.00327936
0.00314695
0.00301585
0.00288631
0.00275827
0.00263149
0.00250593
0.00238159
0.00225848
0.0021366
0.00201587
0.00189576
0.00177548
0.00165633
0.00153884
0.0014229
0.001309
0.00119518
0.00108027
0.000966004
0.000852598
0.000740412
0.000630327
0.000518915
0.000404662
0.000288941
0.00017472
5.44071e-05
0.00514928
0.00495195
0.00474002
0.0045561
0.00439332
0.00424128
0.00409555
0.00395385
0.0038149
0.00367786
0.00354251
0.00340878
0.00327604
0.00314372
0.00301236
0.00288266
0.0027548
0.00262838
0.00250322
0.00237924
0.00225627
0.00213456
0.00201392
0.00189468
0.00177624
0.00165912
0.00154296
0.00142755
0.00131414
0.00120031
0.00108459
0.000969865
0.000856689
0.000744456
0.000633719
0.000522611
0.000408685
0.000291592
0.000175736
5.51054e-05
0.00518839
0.00494816
0.00470565
0.00451957
0.00436239
0.00421488
0.00407295
0.00393545
0.00380058
0.00366689
0.00353421
0.00340242
0.00327109
0.0031411
0.00301305
0.00288501
0.00275748
0.00263093
0.0025056
0.00238147
0.00225818
0.00213612
0.00201527
0.00189641
0.00177831
0.0016615
0.00154536
0.00142962
0.00131579
0.00120157
0.00108512
0.000969497
0.000855773
0.000743405
0.000632572
0.000521454
0.000407321
0.000289702
0.00017355
5.42478e-05
0.00525855
0.00492949
0.00464992
0.00449107
0.00436036
0.00422328
0.00408621
0.00395248
0.00381909
0.00368458
0.00355067
0.0034183
0.00328695
0.00315727
0.00302912
0.00290052
0.00277193
0.00264433
0.00251811
0.00239332
0.00226955
0.0021464
0.00202461
0.00190487
0.00178562
0.00166716
0.0015501
0.00143389
0.00131975
0.0012055
0.00108868
0.000972285
0.000857964
0.000745064
0.000633925
0.000523285
0.000409464
0.000291762
0.000175253
5.49947e-05
0.00527108
0.00490098
0.00464632
0.00451257
0.00438468
0.00424383
0.00410308
0.00396539
0.00382821
0.0036903
0.0035535
0.00341872
0.00328517
0.00315273
0.00302161
0.00289108
0.00276161
0.00263358
0.00250716
0.00238227
0.0022586
0.00213594
0.00201507
0.00189605
0.00177702
0.00165839
0.00154121
0.00142482
0.00131044
0.00119638
0.00108017
0.000964407
0.000850599
0.00073805
0.000627176
0.000516686
0.000403308
0.00028655
0.000172735
5.31655e-05
0.00525869
0.00492963
0.00465083
0.00449317
0.00436142
0.00422227
0.00408486
0.00395149
0.00381833
0.0036841
0.00355022
0.00341816
0.00328708
0.00315747
0.00302885
0.00290003
0.00277147
0.00264374
0.00251791
0.00239299
0.00226957
0.00214658
0.00202461
0.00190439
0.00178482
0.00166657
0.00154946
0.00143333
0.00131925
0.0012051
0.00108841
0.000972207
0.000858207
0.000746142
0.000634915
0.000521621
0.000405901
0.000289582
0.000174692
5.49192e-05
0.00514612
0.00492248
0.0047065
0.00454231
0.0043958
0.00425266
0.00411226
0.00397433
0.00383719
0.0037008
0.00356511
0.00343104
0.00329697
0.00316384
0.00303204
0.00290145
0.00277221
0.00264434
0.00251858
0.00239336
0.00226999
0.00214734
0.00202584
0.00190577
0.00178585
0.00166718
0.00154932
0.00143249
0.00131809
0.00120393
0.00108714
0.000970658
0.000856146
0.000743312
0.000633041
0.000521101
0.000405002
0.000288483
0.000174909
5.52975e-05
0.00503605
0.00486421
0.00469258
0.00453208
0.00438268
0.00423874
0.00409694
0.00395655
0.00381828
0.00368197
0.0035468
0.00341214
0.00327859
0.00314644
0.00301557
0.00288599
0.00275742
0.0026305
0.002505
0.00238009
0.00225599
0.00213315
0.00201144
0.00189093
0.00177159
0.00165343
0.00153627
0.00141978
0.00130442
0.00118992
0.0010747
0.000959582
0.000845048
0.000731319
0.00062
0.000508634
0.000394814
0.000281033
0.000170033
5.34871e-05
0.00500153
0.0048418
0.00469149
0.00453975
0.00439117
0.00424643
0.00410419
0.00396424
0.00382621
0.00368941
0.00355378
0.00341892
0.00328574
0.00315373
0.00302247
0.00289227
0.00276318
0.00263555
0.00250904
0.00238398
0.0022597
0.00213633
0.0020143
0.00189349
0.00177371
0.00165474
0.001537
0.00141994
0.00130349
0.00118754
0.00107194
0.000956793
0.000842086
0.000728297
0.000615516
0.000502981
0.000390619
0.000278571
0.000167672
5.31544e-05
0.00500455
0.00484555
0.00470027
0.0045517
0.0044035
0.00425766
0.00411377
0.00397195
0.00383223
0.00369435
0.00355796
0.00342292
0.00328935
0.00315706
0.00302585
0.0028958
0.00276691
0.0026393
0.00251274
0.00238748
0.00226312
0.00213953
0.00201721
0.00189617
0.00177633
0.00165775
0.00154008
0.00142296
0.00130626
0.00118967
0.00107374
0.000958431
0.000843818
0.000729377
0.000614465
0.000500074
0.000387304
0.000275598
0.000165235
5.29316e-05
0.00501963
0.00486389
0.0047187
0.00456995
0.00442102
0.00427398
0.00412894
0.00398557
0.00384382
0.00370408
0.00356631
0.00343023
0.00329559
0.00316234
0.00303033
0.00289955
0.0027701
0.00264191
0.00251499
0.00238936
0.00226487
0.00214137
0.00201897
0.00189776
0.00177779