/*--------------------------------*- C++ -*----------------------------------*\
| =========                 |                                                 |
| \\      /  F ield         | OpenFOAM: The Open Source CFD Toolbox           |
|  \\    /   O peration     | Version:  2212                                  |
|   \\  /    A nd           | Website:  www.openfoam.com                      |
|    \\/     M anipulation  |                                                 |
\*---------------------------------------------------------------------------*/
FoamFile
{
    version     2.0;
    format      ascii;
    arch        "LSB;label=32;scalar=64";
    class       volVectorField;
    location    "1.5";
    object      U;
}
// * * * * * * * * * * * * * * * * * * * * * * * * * * * * * * * * * * * * * //

dimensions      [0 1 -1 0 0 0 0];

internalField   nonuniform List<vector> 
6840
(
(0.0956456 -0.00836005 -0.00836005)
(0.0904939 0.00152204 0.00152202)
(0.0790682 0.00242977 0.00242975)
(0.071301 0.00148778 0.00148771)
(0.0661791 0.000830546 0.000830359)
(0.0623221 0.000563829 0.000563507)
(0.0592199 0.000426675 0.00042581)
(0.0566833 0.000324571 0.00032296)
(0.0545471 0.000254132 0.000251449)
(0.0526928 0.000204452 0.000199991)
(0.0510513 0.000169624 0.000161782)
(0.0495834 0.000146083 0.000132658)
(0.0482562 0.000130032 0.000108021)
(0.0470406 0.000119048 8.5815e-05)
(0.0459222 0.00011263 6.2784e-05)
(0.0448866 0.000111516 3.71325e-05)
(0.0439288 0.000121419 2.15897e-05)
(0.0430621 0.000150067 -2.14839e-05)
(0.0423146 0.000206245 -8.04609e-05)
(0.0409481 -9.85152e-05 -0.000562336)
(0.0999088 0.001297 0.000712551)
(0.0969668 0.00365593 0.00274722)
(0.0935345 0.00264028 0.00211806)
(0.089589 0.00182059 0.00162048)
(0.0858316 0.0015291 0.00139039)
(0.0825892 0.00135181 0.00116076)
(0.0798638 0.00118022 0.000896506)
(0.0775646 0.00104209 0.000691147)
(0.0755536 0.000945556 0.000558835)
(0.0737441 0.0008705 0.00047708)
(0.0720892 0.000801735 0.000427657)
(0.0705589 0.000734803 0.000396761)
(0.0691336 0.000674438 0.00037552)
(0.0677958 0.000625328 0.000363819)
(0.0665305 0.000588185 0.000359816)
(0.0653231 0.00056276 0.000354659)
(0.0641776 0.00054347 0.000321883)
(0.0631073 0.000506277 0.000235012)
(0.0621971 0.000489096 0.00014543)
(0.0610924 0.000389168 -0.000262128)
(0.099413 0.000345246 0.000270228)
(0.0988664 0.00201913 0.00187486)
(0.0979215 0.00257331 0.00218888)
(0.096366 0.00238018 0.00190818)
(0.0946336 0.00211465 0.00162632)
(0.0929726 0.00192766 0.00141798)
(0.0913649 0.00180301 0.00127007)
(0.0898552 0.0017081 0.00115816)
(0.0884569 0.00160937 0.0010669)
(0.0871619 0.00150199 0.000993439)
(0.0859633 0.00139647 0.000942545)
(0.0848471 0.00130076 0.000910825)
(0.0837954 0.00121635 0.000892813)
(0.082795 0.00114127 0.000883117)
(0.0818386 0.00107357 0.00087755)
(0.0809247 0.00101157 0.000871779)
(0.0800576 0.000952023 0.000858954)
(0.0792455 0.000885096 0.000827537)
(0.0785079 0.000812677 0.000790207)
(0.077908 0.000773116 0.000814401)
(0.0995405 0.000245048 0.000321897)
(0.0992576 0.00105564 0.00154091)
(0.098849 0.00150241 0.00211438)
(0.098125 0.00157955 0.00209149)
(0.0973375 0.00151496 0.00188589)
(0.0965861 0.0014466 0.00166546)
(0.0958675 0.00141039 0.00149735)
(0.0952012 0.00137936 0.00137049)
(0.094575 0.00133371 0.00128305)
(0.0939337 0.00126286 0.00122637)
(0.0933115 0.00117367 0.00118736)
(0.0927073 0.00107852 0.00116224)
(0.0921139 0.0009874 0.00114683)
(0.0915269 0.000903462 0.00113863)
(0.0909451 0.00082548 0.0011355)
(0.0903685 0.000751624 0.00113273)
(0.0897971 0.000675437 0.00112656)
(0.0892292 0.000587072 0.00111275)
(0.0886697 0.000489058 0.00110165)
(0.088234 0.000420798 0.00119275)
(0.0993802 3.37762e-05 5.89823e-05)
(0.0992678 0.000274386 0.00120002)
(0.0989806 0.000432347 0.0018884)
(0.098475 0.000483391 0.00200625)
(0.0979963 0.000478673 0.00191427)
(0.0975724 0.000465128 0.00173408)
(0.0971838 0.000452025 0.00154627)
(0.0968358 0.000440794 0.00138693)
(0.0965386 0.000433439 0.00126736)
(0.0962887 0.000423657 0.00119512)
(0.0960221 0.000403445 0.00116534)
(0.0957404 0.000374752 0.00115964)
(0.095445 0.000342126 0.00116313)
(0.0951283 0.000307435 0.00117009)
(0.0947869 0.000271093 0.00118007)
(0.0944217 0.000234659 0.00119384)
(0.0940356 0.000193239 0.00120972)
(0.0936313 0.000141756 0.00122726)
(0.0932073 8.09578e-05 0.00125085)
(0.0927464 1.33407e-05 0.00133596)
(0.0993802 -3.37797e-05 5.89899e-05)
(0.0992678 -0.000274404 0.00120003)
(0.0989806 -0.000432395 0.00188839)
(0.098475 -0.000483486 0.00200627)
(0.0979963 -0.000478861 0.00191432)
(0.0975722 -0.000465517 0.00173422)
(0.0971834 -0.000452823 0.00154647)
(0.0968351 -0.000442271 0.00138728)
(0.0965373 -0.00043608 0.00126807)
(0.0962865 -0.000428263 0.00119649)
(0.0960181 -0.000411302 0.00116776)
(0.0957335 -0.000387971 0.00116373)
(0.0954327 -0.000364148 0.00117002)
(0.0951065 -0.000344084 0.00118164)
(0.0947498 -0.000330788 0.00119869)
(0.0943612 -0.000328908 0.00122395)
(0.0939409 -0.000343547 0.00125978)
(0.0934933 -0.000379648 0.00130762)
(0.0929999 -0.000438456 0.00136321)
(0.0923546 -0.000572429 0.00140622)
(0.0995405 -0.000245049 0.000321895)
(0.0992576 -0.00105565 0.0015409)
(0.098849 -0.00150241 0.0021144)
(0.098125 -0.00157955 0.00209155)
(0.0973372 -0.00151504 0.00188599)
(0.0965856 -0.00144684 0.00166562)
(0.0958665 -0.00141089 0.0014975)
(0.0951995 -0.00138025 0.00137078)
(0.0945717 -0.00133549 0.00128379)
(0.0939279 -0.00126583 0.00122822)
(0.0933011 -0.00117825 0.00119146)
(0.0926892 -0.00108574 0.00116967)
(0.0920826 -0.000999116 0.00115975)
(0.091474 -0.000923855 0.00115925)
(0.0908568 -0.000861692 0.00116806)
(0.0902234 -0.00081409 0.00118707)
(0.0895633 -0.000783736 0.00121949)
(0.0888663 -0.000775994 0.00127267)
(0.0880998 -0.000804843 0.00136159)
(0.0871136 -0.00091043 0.0013617)
(0.099413 -0.000345244 0.000270229)
(0.0988664 -0.00201911 0.00187488)
(0.0979215 -0.00257327 0.00218897)
(0.0963658 -0.0023801 0.00190832)
(0.0946333 -0.00211452 0.00162652)
(0.0929721 -0.00192744 0.00141827)
(0.0913638 -0.00180269 0.00127054)
(0.0898534 -0.00170758 0.00115897)
(0.0884534 -0.00160852 0.00106821)
(0.0871558 -0.00150054 0.000995594)
(0.0859527 -0.00139401 0.000945932)
(0.0848285 -0.0012966 0.000916717)
(0.0837636 -0.0012098 0.000903243)
(0.0827412 -0.00113191 0.000901135)
(0.0817484 -0.00106172 0.000908067)
(0.0807731 -0.000998991 0.00092437)
(0.0797982 -0.000944216 0.000953399)
(0.0788005 -0.000898575 0.00100326)
(0.0777322 -0.000895566 0.00112153)
(0.0762347 -0.000907459 0.00109828)
(0.0999088 -0.001297 0.000712558)
(0.0969668 -0.00365592 0.00274725)
(0.0935345 -0.00264027 0.00211813)
(0.089589 -0.00182056 0.00162061)
(0.0858316 -0.00152897 0.00139058)
(0.0825891 -0.00135159 0.00116111)
(0.0798636 -0.00117984 0.00089706)
(0.0775641 -0.00104144 0.000692083)
(0.0755525 -0.000944362 0.000560452)
(0.073742 -0.000868215 0.000479905)
(0.0720851 -0.00079736 0.000433417)
(0.0705509 -0.000727068 0.000407258)
(0.0691179 -0.000661632 0.000393377)
(0.0677678 -0.000605235 0.000385185)
(0.066484 -0.000556149 0.000383161)
(0.0652467 -0.000507165 0.000387418)
(0.0640477 -0.00044133 0.000396634)
(0.062873 -0.000359192 0.000409253)
(0.0617631 -0.000299429 0.000476517)
(0.0597837 -0.000194996 0.000500573)
(0.0956456 0.00836005 -0.00836005)
(0.0904938 -0.00152202 0.00152203)
(0.0790682 -0.00242975 0.00242977)
(0.071301 -0.00148771 0.00148778)
(0.0661791 -0.000830364 0.000830546)
(0.062322 -0.000563514 0.000563827)
(0.0592198 -0.000425822 0.00042667)
(0.0566833 -0.000322977 0.00032456)
(0.054547 -0.00025147 0.000254116)
(0.0526928 -0.000200018 0.00020443)
(0.0510512 -0.000161817 0.000169594)
(0.0495832 -0.000132702 0.000146043)
(0.0482561 -0.00010806 0.00012996)
(0.0470403 -8.5886e-05 0.000118975)
(0.0459219 -6.28895e-05 0.000112552)
(0.0448863 -3.72145e-05 0.000111407)
(0.0439284 -2.16638e-05 0.000121295)
(0.0430616 2.14068e-05 0.000149937)
(0.0423142 8.04584e-05 0.000206117)
(0.0409479 0.000562508 -9.87089e-05)
(0.0999088 0.000712558 0.001297)
(0.0969668 0.00274725 0.00365592)
(0.0935345 0.00211813 0.00264026)
(0.089589 0.00162061 0.00182055)
(0.0858316 0.00139058 0.00152896)
(0.0825891 0.00116111 0.00135157)
(0.0798636 0.000897056 0.00117983)
(0.0775641 0.000692084 0.00104142)
(0.0755526 0.000560457 0.000944336)
(0.0737421 0.000479915 0.000868182)
(0.0720852 0.000433434 0.000797317)
(0.070551 0.000407287 0.000727013)
(0.069118 0.000393424 0.000661572)
(0.0677682 0.000385248 0.000605168)
(0.0664842 0.000383246 0.000556045)
(0.065247 0.000387532 0.000507024)
(0.0640482 0.000396788 0.000441174)
(0.0628736 0.000409474 0.00035905)
(0.0617638 0.000476951 0.000299465)
(0.0597833 0.000501381 0.000195483)
(0.100226 0.00072082 0.000720816)
(0.09996 0.00198276 0.00198273)
(0.0997822 0.00245194 0.00245185)
(0.0987879 0.0024198 0.00241964)
(0.0972751 0.00220109 0.00220084)
(0.095774 0.00181187 0.00181141)
(0.0943914 0.00138301 0.00138224)
(0.0931615 0.0010712 0.00106986)
(0.0920727 0.000855859 0.00085347)
(0.0911076 0.000705009 0.000700684)
(0.0902502 0.000595637 0.000587355)
(0.0894773 0.000515028 0.000500793)
(0.0887673 0.000457723 0.000434692)
(0.0881104 0.000415962 0.000383272)
(0.0875011 0.000385229 0.000336091)
(0.0869345 0.000366321 0.000288455)
(0.0864007 0.000364619 0.000232579)
(0.0858723 0.000383233 0.000165203)
(0.0853132 0.000358706 8.61996e-06)
(0.0849855 0.000121736 -0.000374497)
(0.10014 0.000775033 0.000869244)
(0.100454 0.00196246 0.00196355)
(0.100911 0.00242765 0.00233445)
(0.100978 0.00252681 0.00244114)
(0.100694 0.00242661 0.00233654)
(0.100224 0.00219809 0.00211212)
(0.0997082 0.00191772 0.00182268)
(0.0991824 0.00166751 0.00157455)
(0.0986869 0.00146574 0.00138822)
(0.0982384 0.00130113 0.00124754)
(0.0978434 0.00116656 0.00114286)
(0.0974979 0.00105753 0.00106647)
(0.0971975 0.000970246 0.00100979)
(0.0969374 0.000901168 0.000964673)
(0.0967127 0.000846655 0.000926578)
(0.0965212 0.000804733 0.000890807)
(0.0963601 0.00077142 0.000850139)
(0.0962297 0.000746392 0.000798988)
(0.0961062 0.000711438 0.000723296)
(0.0961712 0.00064204 0.000625091)
(0.100093 0.000445946 0.000763193)
(0.100504 0.00119455 0.001749)
(0.101105 0.00158693 0.00212949)
(0.101635 0.00174063 0.00223453)
(0.101979 0.00178262 0.00228673)
(0.102172 0.00172964 0.00223538)
(0.102253 0.00160912 0.00211509)
(0.102277 0.00146202 0.00196339)
(0.10228 0.00130798 0.00180035)
(0.102273 0.00116119 0.00164996)
(0.102268 0.00103601 0.00153944)
(0.102269 0.000931445 0.00146012)
(0.102278 0.000841631 0.00140206)
(0.102298 0.000764521 0.00135923)
(0.102327 0.000696707 0.00132698)
(0.102365 0.000633021 0.00130092)
(0.102413 0.000572319 0.00127663)
(0.102472 0.000509441 0.00125043)
(0.102539 0.000434925 0.00122109)
(0.102751 0.000353205 0.00120678)
(0.100087 0.000144397 0.000707006)
(0.100477 0.000390527 0.00161775)
(0.101066 0.000541172 0.00203458)
(0.101695 0.000610239 0.00211747)
(0.102269 0.000636129 0.00214973)
(0.102743 0.00062696 0.00217897)
(0.103125 0.000595016 0.00213289)
(0.10343 0.000549608 0.00204249)
(0.103683 0.000504271 0.00193233)
(0.103903 0.000461497 0.00182514)
(0.104103 0.000418186 0.00172499)
(0.104296 0.000375262 0.00163538)
(0.104484 0.000335705 0.00157001)
(0.104664 0.000299351 0.00153086)
(0.104835 0.000264102 0.00150938)
(0.104999 0.000227411 0.00149691)
(0.105157 0.000186663 0.00148842)
(0.105308 0.000139243 0.00148261)
(0.105459 8.49337e-05 0.00147883)
(0.105707 2.92043e-05 0.00148876)
(0.100087 -0.000144406 0.000707005)
(0.100477 -0.000390557 0.00161775)
(0.101066 -0.000541224 0.00203457)
(0.101694 -0.000610342 0.00211748)
(0.102269 -0.00063635 0.00214982)
(0.102742 -0.000627391 0.00217916)
(0.103125 -0.000595748 0.00213322)
(0.103429 -0.000550833 0.00204301)
(0.103682 -0.000506446 0.00193308)
(0.103901 -0.000465587 0.00182637)
(0.1041 -0.000425729 0.00172721)
(0.104292 -0.000388248 0.00163944)
(0.104477 -0.000356797 0.00157732)
(0.104652 -0.000331659 0.0015433)
(0.104814 -0.000312808 0.0015293)
(0.104964 -0.000301713 0.00152714)
(0.105105 -0.000300339 0.00153356)
(0.10524 -0.000309191 0.00154846)
(0.105375 -0.000323293 0.00156883)
(0.105556 -0.000334815 0.00154855)
(0.100093 -0.000445947 0.000763192)
(0.100504 -0.00119455 0.001749)
(0.101105 -0.00158693 0.00212953)
(0.101634 -0.00174065 0.0022347)
(0.101979 -0.00178266 0.00228709)
(0.102171 -0.00172971 0.00223591)
(0.102252 -0.00160931 0.0021159)
(0.102276 -0.00146238 0.00196461)
(0.102277 -0.00130858 0.0018022)
(0.102269 -0.00116258 0.00165293)
(0.102261 -0.00103869 0.00154474)
(0.102258 -0.000935503 0.00146922)
(0.102258 -0.000847542 0.00141741)
(0.102263 -0.000772239 0.00138472)
(0.102271 -0.000708902 0.00136872)
(0.10228 -0.000655538 0.00136891)
(0.102284 -0.000610877 0.00138727)
(0.10229 -0.000576524 0.0014263)
(0.102298 -0.000551399 0.00146783)
(0.102335 -0.000491295 0.00138892)
(0.10014 -0.000775027 0.000869254)
(0.100454 -0.00196245 0.00196361)
(0.100911 -0.00242761 0.00233461)
(0.100978 -0.00252671 0.00244141)
(0.100693 -0.00242642 0.00233692)
(0.100224 -0.00219774 0.0021126)
(0.0997075 -0.00191719 0.00182343)
(0.0991812 -0.00166676 0.00157594)
(0.0986846 -0.00146441 0.00139067)
(0.0982343 -0.0012986 0.00125168)
(0.097836 -0.00116216 0.00114988)
(0.0974852 -0.00104979 0.00107817)
(0.0971761 -0.00095698 0.00102905)
(0.0969034 -0.000877739 0.000996142)
(0.0966595 -0.000807968 0.000977306)
(0.0964372 -0.000744427 0.000972816)
(0.0962273 -0.000686366 0.00098617)
(0.0960253 -0.000636538 0.0010263)
(0.0958117 -0.000588135 0.00107819)
(0.0956916 -0.000449231 0.000919804)
(0.100226 -0.000720817 0.000720821)
(0.09996 -0.00198272 0.00198276)
(0.0997822 -0.00245185 0.00245194)
(0.0987879 -0.00241965 0.0024198)
(0.0972751 -0.00220085 0.00220109)
(0.095774 -0.00181142 0.00181187)
(0.0943914 -0.00138226 0.00138301)
(0.0931614 -0.00106988 0.0010712)
(0.0920726 -0.000853505 0.000855856)
(0.0911075 -0.00070073 0.000705001)
(0.0902501 -0.000587415 0.000595622)
(0.0894771 -0.000500863 0.000514994)
(0.0887671 -0.000434714 0.000457607)
(0.0881102 -0.000383387 0.00041591)
(0.0875007 -0.000336345 0.000385244)
(0.0869339 -0.000288674 0.00036623)
(0.0863999 -0.000232815 0.0003645)
(0.0858712 -0.000165434 0.000383091)
(0.0853116 -8.84128e-06 0.000358577)
(0.0849831 0.000374238 0.000121714)
(0.0999088 -0.000712549 0.001297)
(0.0969668 -0.00274722 0.00365593)
(0.0935345 -0.00211806 0.00264027)
(0.089589 -0.00162048 0.00182059)
(0.0858316 -0.00139039 0.0015291)
(0.0825892 -0.00116077 0.0013518)
(0.0798638 -0.000896517 0.00118022)
(0.0775646 -0.000691162 0.00104208)
(0.0755536 -0.000558855 0.000945549)
(0.073744 -0.000477106 0.00087049)
(0.072089 -0.000427691 0.000801725)
(0.0705587 -0.0003968 0.000734789)
(0.0691334 -0.000375577 0.000674415)
(0.0677954 -0.000363835 0.000625255)
(0.0665302 -0.0003598 0.000588071)
(0.0653227 -0.000354687 0.000562652)
(0.0641771 -0.000321951 0.000543397)
(0.0631068 -0.000234982 0.000506198)
(0.0621967 -0.000144924 0.000488753)
(0.0610931 0.000263049 0.000388429)
(0.099413 0.000270229 0.000345242)
(0.0988664 0.00187488 0.0020191)
(0.0979215 0.00218897 0.00257326)
(0.0963658 0.00190832 0.00238009)
(0.0946333 0.00162652 0.0021145)
(0.0929721 0.00141827 0.00192742)
(0.0913639 0.00127054 0.00180267)
(0.0898534 0.00115897 0.00170755)
(0.0884534 0.00106821 0.00160847)
(0.0871559 0.000995605 0.00150048)
(0.0859528 0.000945949 0.00139393)
(0.0848286 0.000916744 0.0012965)
(0.0837637 0.000903275 0.00120966)
(0.0827415 0.000901194 0.00113175)
(0.0817487 0.00090817 0.00106154)
(0.0807734 0.000924489 0.000998746)
(0.0797987 0.000953529 0.000943879)
(0.0788013 0.00100343 0.000898144)
(0.0777334 0.0011217 0.000895057)
(0.0762368 0.00109858 0.000907017)
(0.10014 0.000869254 0.000775026)
(0.100454 0.00196361 0.00196244)
(0.100911 0.00233461 0.00242761)
(0.100978 0.0024414 0.0025267)
(0.100693 0.00233691 0.00242641)
(0.100224 0.00211259 0.00219772)
(0.0997075 0.00182343 0.00191716)
(0.0991812 0.00157594 0.00166672)
(0.0986847 0.00139067 0.00146436)
(0.0982344 0.00125169 0.00129853)
(0.0978361 0.0011499 0.00116207)
(0.0974853 0.00107821 0.00104968)
(0.0971763 0.00102912 0.000956857)
(0.0969036 0.000996159 0.000877501)
(0.0966598 0.000977307 0.000807631)
(0.0964377 0.00097288 0.000744056)
(0.0962279 0.000986253 0.000685912)
(0.0960262 0.00102634 0.000635921)
(0.0958131 0.00107823 0.000587365)
(0.0956936 0.000920191 0.000448559)
(0.10006 0.000641419 0.000641404)
(0.100501 0.00164514 0.00164508)
(0.101149 0.00221261 0.00221249)
(0.101738 0.00244034 0.00244012)
(0.102204 0.00244247 0.00244212)
(0.102501 0.00231428 0.00231374)
(0.102644 0.00209379 0.00209288)
(0.102712 0.00187104 0.00186959)
(0.102737 0.00167436 0.00167196)
(0.102749 0.00151017 0.00150617)
(0.102766 0.00137523 0.00136862)
(0.102795 0.00126585 0.00125504)
(0.102842 0.00117898 0.00116149)
(0.102908 0.00111176 0.00108365)
(0.102993 0.00106194 0.00101721)
(0.103097 0.0010286 0.000958505)
(0.103219 0.00101166 0.000903496)
(0.103366 0.0010091 0.000848131)
(0.103537 0.000998933 0.000782177)
(0.103771 0.000944343 0.000704884)
(0.100046 0.000395743 0.000540238)
(0.10048 0.00104494 0.00138408)
(0.101154 0.00147552 0.00192294)
(0.101913 0.00170552 0.00219249)
(0.102632 0.00178057 0.00229392)
(0.103301 0.00174562 0.00227801)
(0.103893 0.00163546 0.00218521)
(0.104389 0.00149356 0.00205186)
(0.104817 0.00134829 0.00190399)
(0.105194 0.00121489 0.00176417)
(0.105536 0.00109837 0.00164104)
(0.105856 0.000999517 0.00153603)
(0.106164 0.00091596 0.00144884)
(0.106465 0.000845481 0.00137722)
(0.106765 0.000786285 0.00131798)
(0.107067 0.000736748 0.00126808)
(0.107372 0.00069396 0.00122378)
(0.107685 0.000652802 0.00118114)
(0.108011 0.000602712 0.00113512)
(0.108413 0.000545231 0.00109491)
(0.100039 0.000131345 0.000478751)
(0.100448 0.000350531 0.00123473)
(0.101114 0.000505143 0.00174639)
(0.101909 0.000597304 0.00202665)
(0.102729 0.000638766 0.00215179)
(0.10353 0.000638553 0.00218591)
(0.104298 0.000605 0.00215242)
(0.105008 0.000560037 0.00207808)
(0.105644 0.00051135 0.00197877)
(0.106218 0.000463837 0.00187051)
(0.106741 0.000420317 0.0017648)
(0.107224 0.000381614 0.00166885)
(0.107675 0.0003475 0.00158771)
(0.108106 0.000317276 0.0015234)
(0.108523 0.000289685 0.00147409)
(0.108932 0.000263956 0.00143663)
(0.10933 0.000238569 0.00140711)
(0.109719 0.000211584 0.00138278)
(0.110112 0.000181442 0.00136077)
(0.11057 0.000150023 0.00134295)
(0.100039 -0.000131354 0.000478755)
(0.100448 -0.000350555 0.00123475)
(0.101114 -0.000505186 0.00174642)
(0.101909 -0.000597374 0.00202672)
(0.102729 -0.00063889 0.00215194)
(0.103529 -0.000638757 0.00218615)
(0.104298 -0.000605368 0.00215279)
(0.105008 -0.000560637 0.00207862)
(0.105643 -0.000512384 0.0019796)
(0.106217 -0.000465685 0.00187182)
(0.106739 -0.000423549 0.001767)
(0.10722 -0.000386916 0.00167266)
(0.107671 -0.000355611 0.00159424)
(0.108099 -0.000329022 0.00153427)
(0.108515 -0.00030668 0.00149148)
(0.10892 -0.000288604 0.00146293)
(0.109314 -0.000274155 0.00144384)
(0.1097 -0.000262282 0.00143247)
(0.110089 -0.000247811 0.00142316)
(0.110524 -0.000235828 0.00140478)
(0.100046 -0.000395739 0.00054025)
(0.10048 -0.00104493 0.00138413)
(0.101154 -0.00147549 0.00192304)
(0.101913 -0.00170549 0.00219269)
(0.102632 -0.00178048 0.00229426)
(0.103301 -0.00174546 0.00227857)
(0.103893 -0.00163518 0.00218608)
(0.104389 -0.00149311 0.00205329)
(0.104815 -0.00134755 0.00190616)
(0.105192 -0.00121384 0.00176755)
(0.105532 -0.00109693 0.00164647)
(0.105851 -0.000997285 0.00154498)
(0.106155 -0.000912266 0.00146347)
(0.106453 -0.000839001 0.00140118)
(0.106746 -0.000775626 0.00135653)
(0.107039 -0.000721629 0.00132796)
(0.107332 -0.000673732 0.00131452)
(0.107637 -0.000628655 0.00131301)
(0.107955 -0.000577065 0.00130669)
(0.108308 -0.000520413 0.00127252)
(0.10006 -0.000641406 0.000641419)
(0.100501 -0.00164509 0.00164514)
(0.101149 -0.0022125 0.00221261)
(0.101738 -0.00244013 0.00244034)
(0.102204 -0.00244214 0.00244247)
(0.102501 -0.00231376 0.00231428)
(0.102644 -0.00209291 0.00209379)
(0.102712 -0.00186964 0.00187104)
(0.102737 -0.00167202 0.00167436)
(0.102749 -0.00150625 0.00151017)
(0.102766 -0.00136872 0.00137522)
(0.102795 -0.00125517 0.00126584)
(0.102842 -0.00116165 0.00117896)
(0.102908 -0.00108388 0.00111175)
(0.102993 -0.00101754 0.00106196)
(0.103097 -0.000958937 0.00102862)
(0.103219 -0.000904073 0.00101172)
(0.103366 -0.000848901 0.00100921)
(0.103536 -0.000783127 0.000999033)
(0.103771 -0.000705806 0.000944133)
(0.10014 -0.000869245 0.000775032)
(0.100454 -0.00196355 0.00196247)
(0.100911 -0.00233445 0.00242766)
(0.100978 -0.00244115 0.00252682)
(0.100694 -0.00233655 0.00242662)
(0.100224 -0.00211213 0.00219809)
(0.0997081 -0.0018227 0.00191772)
(0.0991823 -0.00157458 0.00166752)
(0.0986868 -0.00138826 0.00146575)
(0.0982383 -0.0012476 0.00130113)
(0.0978432 -0.00114293 0.00116656)
(0.0974978 -0.00106656 0.00105753)
(0.0971973 -0.00100989 0.000970229)
(0.0969371 -0.000964802 0.000901138)
(0.0967123 -0.000926737 0.000846629)
(0.0965207 -0.000891022 0.000804734)
(0.0963593 -0.000850436 0.000771481)
(0.0962285 -0.000799345 0.000746503)
(0.0961044 -0.000723565 0.00071153)
(0.0961688 -0.000624487 0.000641663)
(0.099413 -0.000270228 0.000345245)
(0.0988664 -0.00187486 0.00201912)
(0.0979215 -0.00218888 0.0025733)
(0.096366 -0.00190818 0.00238018)
(0.0946335 -0.00162632 0.00211465)
(0.0929726 -0.00141799 0.00192765)
(0.0913648 -0.00127008 0.00180301)
(0.0898552 -0.00115818 0.00170809)
(0.0884568 -0.00106692 0.00160937)
(0.0871618 -0.00099347 0.00150198)
(0.0859632 -0.000942583 0.00139647)
(0.0848469 -0.000910876 0.00130076)
(0.0837952 -0.000892883 0.00121637)
(0.0827947 -0.000883163 0.00114126)
(0.0818383 -0.000877552 0.00107352)
(0.0809242 -0.000871791 0.00101154)
(0.080057 -0.000858992 0.000952046)
(0.0792447 -0.000827585 0.000885171)
(0.0785068 -0.000790142 0.000812727)
(0.0779071 -0.000814057 0.00077287)
(0.0995405 0.000321895 0.000245047)
(0.0992576 0.0015409 0.00105564)
(0.098849 0.0021144 0.00150241)
(0.098125 0.00209154 0.00157954)
(0.0973372 0.00188599 0.00151503)
(0.0965856 0.00166562 0.00144682)
(0.0958665 0.0014975 0.00141086)
(0.0951995 0.00137077 0.00138021)
(0.0945717 0.00128379 0.00133543)
(0.0939279 0.00122822 0.00126576)
(0.0933012 0.00119146 0.00117814)
(0.0926893 0.00116968 0.00108561)
(0.0920827 0.00115976 0.000998939)
(0.0914741 0.00115926 0.000923643)
(0.090857 0.00116808 0.000861427)
(0.0902236 0.00118706 0.000813714)
(0.0895636 0.00121944 0.000783192)
(0.088867 0.00127253 0.000775237)
(0.0881008 0.00136129 0.000803818)
(0.0871154 0.0013612 0.000909059)
(0.100093 0.000763193 0.000445945)
(0.100504 0.001749 0.00119455)
(0.101105 0.00212953 0.00158692)
(0.101634 0.0022347 0.00174063)
(0.101979 0.00228708 0.00178263)
(0.102171 0.00223591 0.00172968)
(0.102252 0.00211589 0.00160927)
(0.102276 0.00196461 0.00146233)
(0.102277 0.0018022 0.00130851)
(0.102269 0.00165294 0.00116249)
(0.102261 0.00154474 0.00103858)
(0.102258 0.00146924 0.00093536)
(0.102258 0.00141743 0.000847359)
(0.102263 0.00138471 0.000771968)
(0.102271 0.00136869 0.000708531)
(0.10228 0.00136888 0.000655075)
(0.102285 0.00138719 0.000610271)
(0.10229 0.00142613 0.000575692)
(0.102299 0.00146754 0.000550272)
(0.102335 0.00138863 0.000489867)
(0.100046 0.00054025 0.000395736)
(0.10048 0.00138413 0.00104492)
(0.101154 0.00192303 0.00147548)
(0.101913 0.00219268 0.00170547)
(0.102632 0.00229426 0.00178046)
(0.103301 0.00227857 0.00174542)
(0.103893 0.00218608 0.00163513)
(0.104389 0.00205329 0.00149305)
(0.104815 0.00190616 0.00134747)
(0.105192 0.00176755 0.00121375)
(0.105532 0.00164647 0.0010968)
(0.105851 0.00154499 0.000997125)
(0.106156 0.00146348 0.000912057)
(0.106453 0.00140118 0.000838709)
(0.106746 0.00135652 0.000775237)
(0.107039 0.00132795 0.00072113)
(0.107332 0.00131448 0.000673089)
(0.107636 0.00131296 0.000627834)
(0.107954 0.00130671 0.000576091)
(0.108307 0.0012729 0.000519456)
(0.100036 0.000323154 0.000323142)
(0.100429 0.000868714 0.000868675)
(0.10108 0.00126248 0.0012624)
(0.101891 0.00150453 0.00150439)
(0.102756 0.00162185 0.00162161)
(0.103616 0.00164315 0.00164278)
(0.104445 0.00160524 0.00160469)
(0.105223 0.00152723 0.00152638)
(0.105937 0.00142817 0.00142687)
(0.106591 0.00132403 0.00132203)
(0.107194 0.00122538 0.00122227)
(0.107755 0.00113738 0.00113249)
(0.108282 0.00106177 0.00105409)
(0.108785 0.00099861 0.000986628)
(0.109268 0.000947133 0.000928847)
(0.109737 0.000905831 0.000879117)
(0.110197 0.000871972 0.00083562)
(0.110652 0.000841636 0.000794746)
(0.111114 0.000808911 0.000750492)
(0.111626 0.000773516 0.000711102)
(0.100031 0.000107085 0.000281366)
(0.100395 0.000293073 0.000768594)
(0.101024 0.000434133 0.00113301)
(0.101843 0.000526324 0.00136912)
(0.102751 0.000576511 0.0015013)
(0.103688 0.000592 0.00155401)
(0.104617 0.000582728 0.00154889)
(0.105515 0.000558277 0.00150778)
(0.106366 0.000524863 0.00144385)
(0.107163 0.00048802 0.00136729)
(0.107905 0.000452028 0.00128667)
(0.108596 0.000419299 0.00120847)
(0.109244 0.000390859 0.00113697)
(0.109856 0.000366796 0.00107439)
(0.11044 0.000346485 0.00102153)
(0.111001 0.000328534 0.000978557)
(0.111544 0.000311798 0.000943815)
(0.112072 0.000294908 0.000914416)
(0.112599 0.000275964 0.000887889)
(0.113177 0.000257269 0.0008663)
(0.100031 -0.000107087 0.000281371)
(0.100395 -0.000293073 0.000768613)
(0.101024 -0.000434129 0.00113305)
(0.101843 -0.000526314 0.0013692)
(0.102751 -0.000576485 0.00150145)
(0.103688 -0.000591942 0.00155423)
(0.104617 -0.000582627 0.00154918)
(0.105515 -0.00055815 0.0015082)
(0.106366 -0.000524739 0.00144448)
(0.107162 -0.000487917 0.00136825)
(0.107904 -0.000451932 0.00128816)
(0.108595 -0.000419094 0.00121077)
(0.109243 -0.000390248 0.00114051)
(0.109855 -0.000365262 0.00107975)
(0.110438 -0.00034346 0.00102962)
(0.110999 -0.000323794 0.000990682)
(0.111541 -0.000305816 0.000960719)
(0.11207 -0.000288445 0.000936496)
(0.112597 -0.000270042 0.000914664)
(0.113171 -0.000253694 0.000894493)
(0.100036 -0.000323145 0.000323155)
(0.100429 -0.000868682 0.000868716)
(0.10108 -0.00126241 0.00126248)
(0.101891 -0.0015044 0.00150453)
(0.102756 -0.00162164 0.00162185)
(0.103616 -0.00164282 0.00164316)
(0.104445 -0.00160474 0.00160525)
(0.105223 -0.00152644 0.00152723)
(0.105936 -0.00142695 0.00142817)
(0.106591 -0.00132213 0.00132403)
(0.107194 -0.00122239 0.00122537)
(0.107755 -0.00113265 0.00113737)
(0.108282 -0.00105429 0.00106176)
(0.108785 -0.000986892 0.000998587)
(0.109268 -0.000929184 0.000947099)
(0.109737 -0.00087954 0.00090577)
(0.110197 -0.000836147 0.000871867)
(0.110652 -0.000795378 0.000841443)
(0.111114 -0.000751186 0.000808525)
(0.111627 -0.000711747 0.000772768)
(0.100046 -0.000540239 0.000395743)
(0.10048 -0.00138409 0.00104495)
(0.101154 -0.00192294 0.00147553)
(0.101913 -0.00219251 0.00170553)
(0.102632 -0.00229394 0.00178058)
(0.103301 -0.00227804 0.00174563)
(0.103893 -0.00218525 0.00163547)
(0.104389 -0.00205191 0.00149356)
(0.104817 -0.00190405 0.0013483)
(0.105194 -0.00176425 0.00121489)
(0.105536 -0.00164114 0.00109838)
(0.105856 -0.00153616 0.000999525)
(0.106164 -0.001449 0.000915965)
(0.106465 -0.00137743 0.000845492)
(0.106765 -0.00131826 0.000786308)
(0.107066 -0.00126844 0.000736775)
(0.107372 -0.00122426 0.00069399)
(0.107684 -0.00118176 0.000652816)
(0.108011 -0.00113585 0.000602629)
(0.108413 -0.00109566 0.00054489)
(0.100093 -0.000763193 0.000445946)
(0.100504 -0.001749 0.00119456)
(0.101105 -0.0021295 0.00158694)
(0.101635 -0.00223454 0.00174064)
(0.101979 -0.00228674 0.00178263)
(0.102172 -0.0022354 0.00172964)
(0.102253 -0.00211511 0.00160913)
(0.102277 -0.00196342 0.00146203)
(0.10228 -0.0018004 0.00130799)
(0.102273 -0.00165002 0.0011612)
(0.102268 -0.00153951 0.00103603)
(0.102269 -0.0014602 0.00093147)
(0.102278 -0.00140217 0.000841662)
(0.102298 -0.00135934 0.00076455)
(0.102327 -0.0013271 0.00069676)
(0.102364 -0.00130111 0.000633115)
(0.102413 -0.0012769 0.000572473)
(0.102471 -0.00125079 0.000509679)
(0.102538 -0.00122149 0.000435241)
(0.102749 -0.00120663 0.000353239)
(0.0995405 -0.000321897 0.000245047)
(0.0992576 -0.00154091 0.00105564)
(0.098849 -0.00211438 0.00150241)
(0.098125 -0.00209149 0.00157955)
(0.0973374 -0.00188589 0.00151497)
(0.0965861 -0.00166547 0.00144661)
(0.0958675 -0.00149736 0.00141039)
(0.0952012 -0.0013705 0.00137936)
(0.0945749 -0.00128307 0.00133371)
(0.0939336 -0.0012264 0.00126287)
(0.0933114 -0.0011874 0.00117369)
(0.0927072 -0.0011623 0.00107854)
(0.0921136 -0.00114689 0.00098743)
(0.0915266 -0.00113868 0.000903498)
(0.0909447 -0.00113554 0.000825523)
(0.090368 -0.00113279 0.000751704)
(0.0897964 -0.00112665 0.00067558)
(0.0892285 -0.00111289 0.000587295)
(0.0886686 -0.00110184 0.000489404)
(0.0882328 -0.00119305 0.000421464)
(0.0993802 5.89859e-05 3.37791e-05)
(0.0992678 0.00120003 0.000274401)
(0.0989806 0.00188839 0.000432393)
(0.098475 0.00200626 0.00048348)
(0.0979963 0.00191432 0.00047885)
(0.0975723 0.00173422 0.000465498)
(0.0971834 0.00154647 0.000452796)
(0.0968351 0.00138727 0.000442232)
(0.0965373 0.00126806 0.000436026)
(0.0962865 0.00119648 0.000428188)
(0.0960182 0.00116776 0.000411201)
(0.0957335 0.00116371 0.000387836)
(0.0954327 0.00117001 0.000363971)
(0.0951065 0.00118162 0.000343861)
(0.0947499 0.00119865 0.000330502)
(0.0943613 0.00122386 0.000328523)
(0.0939412 0.00125959 0.000343008)
(0.0934937 0.00130729 0.000378904)
(0.0930006 0.00136267 0.000437401)
(0.0923557 0.0014054 0.000570809)
(0.100087 0.000707005 0.000144405)
(0.100477 0.00161775 0.000390551)
(0.101066 0.00203457 0.000541214)
(0.101694 0.00211748 0.000610324)
(0.102269 0.00214982 0.000636324)
(0.102742 0.00217916 0.000627355)
(0.103125 0.00213322 0.000595699)
(0.103429 0.00204301 0.00055077)
(0.103682 0.00193308 0.000506365)
(0.103901 0.00182637 0.000465484)
(0.1041 0.00172721 0.0004256)
(0.104292 0.00163944 0.000388085)
(0.104477 0.00157733 0.00035659)
(0.104652 0.00154329 0.000331387)
(0.104814 0.00152926 0.000312451)
(0.104964 0.00152706 0.000301263)
(0.105105 0.00153342 0.000299765)
(0.10524 0.00154821 0.000308457)
(0.105374 0.00156849 0.000322399)
(0.105555 0.00154846 0.000333927)
(0.100039 0.000478755 0.000131351)