/*--------------------------------*- C++ -*----------------------------------*\
| =========                 |                                                 |
| \\      /  F ield         | OpenFOAM: The Open Source CFD Toolbox           |
|  \\    /   O peration     | Version:  2212                                  |
|   \\  /    A nd           | Website:  www.openfoam.com                      |
|    \\/     M anipulation  |                                                 |
\*---------------------------------------------------------------------------*/
FoamFile
{
    version     2.0;
    format      ascii;
    arch        "LSB;label=32;scalar=64";
    class       surfaceVectorField;
    location    "1.5";
    object      Uf;
}
// * * * * * * * * * * * * * * * * * * * * * * * * * * * * * * * * * * * * * //

dimensions      [0 1 -1 0 0 0 0];

internalField   nonuniform List<vector> 
19019
(
(0.0993441 -0.00341901 -0.00341902)
(0.0973536 0.00106247 -0.00148428)
(0.0973536 -0.00148427 0.00106248)
(0.0834791 0.0019759 0.00197589)
(0.0930872 0.003269 0.00253346)
(0.0930872 0.00253349 0.00326899)
(0.074517 0.00195877 0.00195873)
(0.084864 0.00163586 0.00179235)
(0.084864 0.00179239 0.00163585)
(0.0685475 0.00115916 0.00115903)
(0.0786279 0.00107357 0.00122136)
(0.0786279 0.00122147 0.00107353)
(0.0642356 0.000697187 0.000696933)
(0.0740527 0.000785467 0.000865094)
(0.0740527 0.000865298 0.000785321)
(0.0607558 0.000495252 0.000494659)
(0.0704419 0.000650758 0.000669287)
(0.0704418 0.000669643 0.000650515)
(0.0579358 0.000375623 0.000374385)
(0.0674907 0.000547169 0.000508524)
(0.0674906 0.000509305 0.000546565)
(0.0556114 0.000289351 0.000287205)
(0.0650492 0.00046965 0.000387377)
(0.065049 0.000388781 0.000468527)
(0.0536201 0.000229292 0.00022572)
(0.0629631 0.000416563 0.000307733)
(0.0629627 0.000310075 0.00041461)
(0.051872 0.000187038 0.000180886)
(0.0611268 0.000374975 0.000254792)
(0.061126 0.00025871 0.000371558)
(0.0503165 0.000157854 0.00014722)
(0.0594799 0.00033859 0.000219117)
(0.0594783 0.000226314 0.000332433)
(0.0489187 0.000138058 0.000120339)
(0.057987 0.000306503 0.00019444)
(0.0579839 0.000206983 0.000295814)
(0.0476486 0.00012454 9.69178e-05)
(0.0566205 0.000280407 0.000175662)
(0.0566143 0.000196342 0.000262597)
(0.0464823 0.000115839 7.42995e-05)
(0.0553559 0.000260654 0.000161462)
(0.0553449 0.000189805 0.000232382)
(0.0454047 0.000112073 4.99583e-05)
(0.0541787 0.00024687 0.00014894)
(0.0541601 0.000186998 0.000202055)
(0.0444084 0.000116467 2.93611e-05)
(0.0530743 0.00023977 0.00013369)
(0.0530438 0.000188778 0.000168293)
(0.0434894 0.000135743 5.29084e-08)
(0.0520413 0.000238527 0.000111563)
(0.0519894 0.000197555 0.00013111)
(0.0426977 0.000178156 -5.09724e-05)
(0.051093 0.000242234 5.17814e-05)
(0.0509994 0.000220128 7.29391e-05)
(0.0419878 5.38648e-05 -0.000321398)
(0.0502803 0.000266547 -2.09009e-05)
(0.0501067 0.000277742 8.42158e-06)
(0.0490187 8.84538e-05 -0.000446972)
(0.0484942 8.05799e-05 -0.000363674)
(0.0984572 0.00247647 0.00172988)
(0.0996871 0.00043924 0.00034548)
(0.100049 0.00105638 0.000750969)
(0.0958347 0.00314811 0.00243264)
(0.0978161 0.00273285 0.00228227)
(0.0982936 0.00280924 0.00216146)
(0.0914498 0.00223044 0.00186927)
(0.0954959 0.00300181 0.00230307)
(0.0963039 0.00244268 0.00199779)
(0.0875949 0.00167485 0.00150543)
(0.092619 0.00229955 0.00183872)
(0.0936666 0.00198081 0.00172699)
(0.084147 0.00144045 0.00127557)
(0.089767 0.00189224 0.00153556)
(0.0909041 0.00171986 0.00149787)
(0.0811867 0.00126601 0.00102863)
(0.0872316 0.00165703 0.00129447)
(0.0884336 0.00145474 0.00121177)
(0.0786995 0.00111115 0.000793826)
(0.0850059 0.0014929 0.00107694)
(0.0863034 0.00118374 0.000908787)
(0.0765536 0.000993822 0.000624991)
(0.0830598 0.00137306 0.000912954)
(0.0844782 0.000983516 0.00069101)
(0.0746458 0.000908028 0.000517958)
(0.0813227 0.00128108 0.000801163)
(0.082876 0.000846125 0.000549176)
(0.0729145 0.000836117 0.000452369)
(0.0797432 0.00119824 0.000725728)
(0.0814407 0.000746163 0.000456364)
(0.0713222 0.000768269 0.000412209)
(0.0782923 0.00111917 0.000678049)
(0.0801393 0.000665574 0.000393131)
(0.0698452 0.000704621 0.000386141)
(0.0769472 0.00104461 0.000648837)
(0.0789448 0.000596821 0.00034753)
(0.0684649 0.000649883 0.000369669)
(0.0756889 0.000976493 0.000630212)
(0.0778365 0.000540839 0.000313518)
(0.0671637 0.000606757 0.000361817)
(0.074502 0.000916333 0.000619628)
(0.0768006 0.00049727 0.000289575)
(0.0659275 0.000575472 0.000357238)
(0.0733748 0.000865138 0.000614772)
(0.0758261 0.000464681 0.000270462)
(0.0647482 0.000553115 0.000338271)
(0.0722986 0.000823881 0.000609545)
(0.0749027 0.000443486 0.000249627)
(0.0636376 0.000524874 0.000278448)
(0.0712775 0.000791912 0.000587773)
(0.0740283 0.000433691 0.000210605)
(0.0626425 0.000497687 0.000190221)
(0.0703227 0.000748137 0.000528325)
(0.0731983 0.00042234 0.000134972)
(0.0618229 0.000439132 -5.83493e-05)
(0.0694897 0.000706411 0.000462164)
(0.0724437 0.000401026 1.36288e-05)
(0.0686106 0.000583688 0.000228141)
(0.0716834 0.000191298 -0.0004984)
(0.0993753 0.00118219 0.00107255)
(0.099473 0.000349774 0.000307057)
(0.0997475 0.000610995 0.000779872)
(0.0984948 0.00229622 0.00203187)
(0.0990504 0.0015769 0.00172044)
(0.0995971 0.00201838 0.00200285)
(0.0971412 0.00247674 0.00204853)
(0.0983578 0.00213131 0.0021688)
(0.0992972 0.00246168 0.00210234)
(0.0954394 0.00224742 0.00176725)
(0.0971934 0.00203615 0.00200229)
(0.0984882 0.00237476 0.0019025)
(0.0937506 0.00202115 0.00152215)
(0.0959054 0.00185622 0.00175414)
(0.0974221 0.00218132 0.00168849)
(0.092138 0.00186533 0.00134403)
(0.0946722 0.00173368 0.00154221)
(0.0963092 0.00198541 0.00150786)
(0.0906013 0.00175555 0.00121412)
(0.0934827 0.00165436 0.00138571)
(0.095204 0.0018028 0.00134196)
(0.0891509 0.00165873 0.00111253)
(0.0923698 0.00157953 0.00126435)
(0.094147 0.00164665 0.00120254)
(0.0878034 0.00155568 0.00103017)
(0.0913346 0.00148583 0.00117005)
(0.0931641 0.00150814 0.00109379)
(0.0865598 0.00144923 0.000967992)
(0.0903471 0.00137827 0.00110027)
(0.0922586 0.00138058 0.00101062)
(0.0854045 0.00134862 0.000926685)
(0.0894196 0.00127162 0.00105283)
(0.0914298 0.00126659 0.000951808)
(0.084321 0.00125856 0.000901819)
(0.0885442 0.00117054 0.00102285)
(0.0906683 0.00116842 0.000912161)
(0.0832947 0.00117881 0.000887965)
(0.087708 0.00107841 0.00100495)
(0.0899623 0.0010854 0.000885677)
(0.082316 0.00110742 0.000880333)
(0.0869021 0.000996126 0.000995225)
(0.0893025 0.00101519 0.00086697)
(0.0813806 0.00104257 0.000874665)
(0.0861219 0.000921731 0.000990356)
(0.0886828 0.000955306 0.000852425)
(0.0804903 0.000981798 0.000865367)
(0.0853667 0.000852096 0.000985499)
(0.0881013 0.00090385 0.000837349)
(0.0796552 0.000918559 0.000843246)
(0.0846386 0.00077996 0.000974646)
(0.0875591 0.000857007 0.000813893)
(0.0788827 0.000848886 0.000808872)
(0.0839414 0.000694617 0.000949493)
(0.0870607 0.000809184 0.00077279)
(0.0781863 0.000792896 0.000802304)
(0.0832876 0.00060386 0.00092297)
(0.0866056 0.000754761 0.000720414)
(0.0827649 0.000556826 0.000980095)
(0.0863117 0.000700703 0.000685646)
(0.0996493 0.000650346 0.000931404)
(0.0994625 0.000129394 0.000192515)
(0.0997993 0.000375144 0.00074135)
(0.0990855 0.00127903 0.00182765)
(0.0992626 0.000636945 0.00137061)
(0.0998409 0.00115045 0.00181418)
(0.0984493 0.00154098 0.00210293)
(0.098913 0.00097354 0.00200349)
(0.0999048 0.00153665 0.00209004)
(0.0977079 0.00154726 0.00198869)
(0.0982953 0.00105024 0.00205048)
(0.0997675 0.00163195 0.0020228)
(0.0969401 0.00148078 0.00177567)
(0.0976579 0.0010078 0.00189933)
(0.0995098 0.00161003 0.00189526)
(0.096209 0.00142849 0.0015814)
(0.0970659 0.000960567 0.00169783)
(0.0992002 0.00154836 0.001751)
(0.0955244 0.00139487 0.00143392)
(0.0965078 0.000934008 0.00151995)
(0.0988558 0.001476 0.00162477)
(0.0948762 0.00135654 0.00132677)
(0.0959963 0.000917971 0.00137792)
(0.0985128 0.00139524 0.00151336)
(0.0942439 0.00129828 0.00125471)
(0.0955301 0.000904184 0.00127639)
(0.0981808 0.00130333 0.0014169)
(0.0936207 0.00121827 0.00120686)
(0.0950792 0.000872452 0.00121324)
(0.0978365 0.0012007 0.00133859)
(0.0930102 0.0011261 0.0011748)
(0.0946299 0.000816302 0.00117866)
(0.0975031 0.00109746 0.00128255)
(0.0924112 0.00103296 0.00115454)
(0.0941827 0.000751261 0.00116273)
(0.0971823 0.000999876 0.00124373)
(0.0918205 0.000945431 0.00114273)
(0.0937342 0.000688286 0.00115647)
(0.0968709 0.000910802 0.00121682)
(0.0912359 0.000864471 0.00113706)
(0.0932786 0.000629097 0.00115574)
(0.0965678 0.0008311 0.00119856)
(0.0906568 0.000788552 0.00113412)
(0.0928138 0.000572277 0.00115909)
(0.0962718 0.000758597 0.00118605)
(0.0900831 0.000713531 0.00112965)
(0.09234 0.000517343 0.00116445)
(0.0959827 0.000690039 0.00117557)
(0.0895156 0.000631254 0.00111966)
(0.0918587 0.000458952 0.00116911)
(0.0957013 0.000621542 0.00116352)
(0.0889548 0.000538065 0.0011072)
(0.0913705 0.000390846 0.00117082)
(0.0954266 0.000545441 0.00114591)
(0.0884031 0.000454928 0.0011472)
(0.0908768 0.000315435 0.00117711)
(0.0951605 0.000458699 0.00112789)
(0.0904289 0.000253878 0.00126604)
(0.0950277 0.000384031 0.00116901)
(0.0996725 0.000154081 0.000629503)
(0.0993802 -2.78905e-10 5.89861e-05)
(0.0997132 0.00010393 0.00068794)
(0.0991592 0.000353367 0.00154421)
(0.0992678 -5.08184e-09 0.00120002)
(0.0998377 0.000341672 0.00162227)
(0.0986639 0.000457869 0.00194733)
(0.0989806 -2.30125e-08 0.0018884)
(0.0999632 0.000485525 0.00199131)
(0.0982129 0.000481032 0.00196026)
(0.098475 -5.22822e-08 0.00200626)
(0.0999922 0.0005397 0.00199642)
(0.0977775 0.0004719 0.00182417)
(0.0979963 -1.02621e-07 0.00191429)
(0.10001 0.000546484 0.00191053)
(0.097365 0.000458576 0.00164017)
(0.0975723 -2.03512e-07 0.00173415)
(0.100009 0.000533572 0.00180337)
(0.0969987 0.000446409 0.0014666)
(0.0971836 -4.06744e-07 0.00154637)
(0.0999836 0.000511538 0.00168143)
(0.096681 0.000437116 0.00132714)
(0.0968355 -7.46571e-07 0.0013871)
(0.0999431 0.000485074 0.00157023)
(0.0964051 0.000428548 0.00123124)
(0.0965379 -1.34025e-06 0.00126771)
(0.0999054 0.000461068 0.00147749)
(0.0961467 0.000413551 0.00118023)
(0.0962876 -2.33113e-06 0.0011958)
(0.0998768 0.000437037 0.0014121)
(0.0958799 0.000389099 0.00116249)
(0.0960201 -3.96903e-06 0.00116655)
(0.09983 0.000407078 0.00136959)
(0.0955947 0.000358439 0.00116138)
(0.095737 -6.70677e-06 0.00116168)
(0.0997721 0.000372465 0.00133844)
(0.095288 0.00032478 0.00116661)
(0.0954388 -1.1272e-05 0.00116657)
(0.0997045 0.000337013 0.00131741)
(0.0949582 0.000289264 0.00117508)
(0.0951174 -1.88966e-05 0.00117587)
(0.0996219 0.00030176 0.00130661)
(0.0946046 0.000252876 0.00118695)
(0.0947684 -3.08787e-05 0.00118938)
(0.099522 0.000266061 0.00130406)
(0.0942286 0.000213949 0.00120178)
(0.0943914 -4.8611e-05 0.00120889)
(0.0994061 0.00022961 0.00130732)
(0.093833 0.000167498 0.00121849)
(0.0939883 -7.6702e-05 0.00123475)
(0.0992766 0.000188564 0.00131277)
(0.0934214 0.000111357 0.00123906)
(0.0935623 -0.000119884 0.00126744)
(0.099134 0.000138945 0.00131838)
(0.0929978 4.71493e-05 0.00129341)
(0.0931036 -0.000176 0.00130703)
(0.0989806 8.09035e-05 0.00132367)
(0.0925505 -0.000269188 0.00137109)
(0.098854 1.83646e-05 0.00136395)
(0.0996725 -0.000154092 0.000629507)
(0.0994625 -0.000129398 0.000192518)
(0.0997132 -0.000103936 0.00068794)
(0.0991592 -0.000353399 0.00154421)
(0.0992626 -0.00063696 0.0013706)
(0.0998377 -0.000341695 0.00162226)
(0.0986639 -0.00045794 0.00194733)
(0.098913 -0.000973566 0.0020035)
(0.0999632 -0.000485574 0.00199129)
(0.0982128 -0.000481174 0.00196029)
(0.0982952 -0.00105028 0.00205051)
(0.0999921 -0.000539798 0.00199642)
(0.0977774 -0.000472189 0.00182427)
(0.0976578 -0.00100793 0.00189941)
(0.10001 -0.000546687 0.0019106)
(0.0973647 -0.00045917 0.00164034)
(0.0970655 -0.000960868 0.00169798)
(0.100009 -0.000533979 0.00180352)
(0.0969981 -0.000447547 0.00146687)
(0.0965071 -0.000934651 0.00152013)
(0.0999832 -0.000512304 0.00168167)
(0.09668 -0.000439176 0.00132767)
(0.0959951 -0.000919173 0.00137824)
(0.0999424 -0.00048643 0.00157062)
(0.0964034 -0.000432171 0.00123228)
(0.0955278 -0.00090644 0.00127712)
(0.0999042 -0.000463488 0.00147819)
(0.0961437 -0.000419782 0.00118213)
(0.0950751 -0.00087633 0.00121487)
(0.0998749 -0.000441396 0.00141334)
(0.0958745 -0.000399637 0.00116575)
(0.0946227 -0.000822662 0.00118196)
(0.0998268 -0.000414778 0.00137175)
(0.0955851 -0.00037606 0.00116687)
(0.09417 -0.000761697 0.00116856)
(0.0997666 -0.000385554 0.00134216)
(0.0952711 -0.000354116 0.00117583)
(0.0937121 -0.000705377 0.0011665)
(0.0996947 -0.000358562 0.00132387)
(0.0949288 -0.000337436 0.00119017)
(0.0932409 -0.000657763 0.00117199)
(0.0996045 -0.000336308 0.00131759)
(0.0945559 -0.000329848 0.00121132)
(0.0927504 -0.000620354 0.00118492)
(0.0994924 -0.000320491 0.00132175)
(0.0941512 -0.000336228 0.00124186)
(0.092236 -0.000596151 0.00120711)
(0.0993576 -0.000314342 0.00133539)
(0.093714 -0.000361598 0.0012837)
(0.0916926 -0.00058978 0.00124143)
(0.0992017 -0.00032148 0.00135818)
(0.0932451 -0.000409052 0.00133542)
(0.0911169 -0.000607381 0.00129248)
(0.0990289 -0.000344682 0.00138946)
(0.092756 -0.000505442 0.00138472)
(0.0904833 -0.000657761 0.001366)
(0.0988314 -0.000382112 0.00142286)
(0.0896629 -0.000785022 0.00138789)
(0.0985757 -0.00045804 0.00142994)
(0.0996493 -0.000650348 0.000931398)
(0.099473 -0.000349772 0.000307056)
(0.0997993 -0.000375144 0.000741347)
(0.0990855 -0.00127903 0.00182765)
(0.0990504 -0.00157689 0.00172045)
(0.0998409 -0.00115045 0.00181417)
(0.0984493 -0.00154098 0.00210298)
(0.0983577 -0.00213128 0.00216886)
(0.0999048 -0.00153664 0.00209007)
(0.0977078 -0.00154729 0.00198877)
(0.0971933 -0.0020361 0.00200239)
(0.0997674 -0.00163196 0.0020229)
(0.0969397 -0.00148094 0.0017758)
(0.0959051 -0.00185618 0.00175429)
(0.0995095 -0.00161008 0.00189545)
(0.0962082 -0.00142886 0.00158156)
(0.0946717 -0.0017337 0.00154245)
(0.0991996 -0.00154852 0.00175131)
(0.095523 -0.00139557 0.00143414)
(0.0934817 -0.00165447 0.00138604)
(0.0988549 -0.00147635 0.00162521)
(0.0948737 -0.00135787 0.00132728)
(0.0923679 -0.00157973 0.00126492)
(0.0985111 -0.00139588 0.00151407)
(0.0942393 -0.00130066 0.001256)
(0.0913312 -0.00148627 0.00117111)
(0.0981779 -0.00130455 0.00141815)
(0.0936127 -0.00122204 0.00120984)
(0.0903411 -0.00137902 0.00110231)
(0.0978316 -0.00120291 0.0013408)
(0.092996 -0.001132 0.00118057)
(0.089409 -0.00127275 0.00105662)
(0.0974944 -0.00110105 0.00128666)
(0.0923867 -0.00104243 0.00116471)
(0.0885258 -0.00117225 0.00102959)
(0.0971671 -0.00100543 0.00125083)
(0.0917788 -0.000961485 0.0011595)
(0.0876765 -0.00108129 0.00101676)
(0.0968445 -0.000919511 0.00122917)
(0.0911659 -0.000892773 0.00116365)
(0.0868487 -0.00100191 0.00101475)
(0.096523 -0.000845231 0.00121951)
(0.090541 -0.000837891 0.00117756)
(0.0860326 -0.000933994 0.0010222)
(0.0961987 -0.000783223 0.00122086)
(0.0898947 -0.000798913 0.00120328)
(0.0852181 -0.000877299 0.00103951)
(0.0958656 -0.000733354 0.0012336)
(0.0892132 -0.000779865 0.00124608)
(0.0843912 -0.000832493 0.00106977)
(0.0955167 -0.000696519 0.00126071)
(0.0884791 -0.000790418 0.00131713)
(0.083535 -0.000804969 0.00112126)
(0.0951483 -0.000676388 0.00130765)
(0.0876903 -0.000857637 0.00136165)
(0.0826087 -0.000823837 0.0012274)
(0.0947446 -0.000680189 0.00137564)
(0.0813517 -0.000905126 0.00122128)
(0.0942372 -0.000710244 0.00135064)
(0.0993753 -0.00118218 0.00107256)
(0.0996871 -0.000439241 0.000345486)
(0.0997475 -0.000610991 0.000779876)
(0.0984948 -0.00229619 0.00203193)
(0.0978161 -0.00273283 0.00228229)
(0.0995971 -0.00201836 0.00200288)
(0.0971411 -0.00247668 0.00204864)
(0.0954959 -0.00300178 0.00230314)
(0.0992972 -0.00246164 0.00210245)
(0.0954392 -0.00224731 0.00176742)
(0.0926189 -0.00229948 0.00183885)
(0.0984881 -0.00237466 0.00190268)
(0.0937502 -0.00202098 0.0015224)
(0.0897668 -0.00189208 0.00153576)
(0.0974218 -0.00218115 0.00168875)
(0.0921372 -0.00186506 0.00134441)
(0.0872313 -0.00165676 0.00129478)
(0.0963088 -0.00198513 0.00150822)
(0.0905998 -0.00175514 0.00121475)
(0.0850053 -0.00149245 0.00107741)
(0.0952031 -0.00180238 0.00134254)
(0.0891483 -0.00165805 0.00111359)
(0.0830586 -0.0013723 0.000913764)
(0.0941455 -0.00164601 0.00120356)
(0.0877987 -0.00155453 0.0010319)
(0.0813205 -0.00127977 0.000802538)
(0.0931612 -0.00150703 0.0010955)
(0.0865515 -0.00144727 0.000970763)
(0.0797393 -0.00119588 0.000728078)
(0.0922535 -0.00137857 0.00101346)
(0.08539 -0.0013453 0.000931324)
(0.0782853 -0.00111478 0.000682405)
(0.0914207 -0.00126315 0.000956583)
(0.0842961 -0.0012532 0.00090998)
(0.0769344 -0.00103698 0.00065669)
(0.0906524 -0.0011625 0.000920353)
(0.0832524 -0.00117085 0.000902189)
(0.075666 -0.000964271 0.000643883)
(0.0899352 -0.00107561 0.000899677)
(0.082245 -0.00109681 0.000904601)
(0.0744624 -0.000898789 0.000638616)
(0.0892578 -0.000999109 0.000890304)
(0.0812614 -0.00103035 0.000916219)
(0.0733087 -0.000840432 0.000640661)
(0.0886096 -0.000930656 0.000890707)
(0.0802877 -0.000971604 0.000938884)
(0.0721885 -0.000786108 0.000650619)
(0.0879808 -0.000868628 0.000901133)
(0.0793014 -0.000921395 0.00097833)
(0.0710898 -0.000728034 0.000669796)
(0.0873579 -0.00081288 0.000924801)
(0.0782636 -0.00089707 0.0010624)
(0.0699942 -0.000660666 0.00069846)
(0.0867263 -0.000765419 0.000970558)
(0.0771304 -0.000901512 0.00110991)
(0.0689029 -0.000625801 0.000788343)
(0.0860513 -0.000742434 0.00106142)
(0.067139 -0.000518199 0.000769633)
(0.0851877 -0.0006875 0.0009848)
(0.0984572 -0.00247646 0.00172991)
(0.0973536 -0.00106248 -0.00148427)
(0.100049 -0.00105638 0.000750974)
(0.0958348 -0.0031481 0.00243269)
(0.0930872 -0.003269 0.00253349)
(0.0982936 -0.00280921 0.00216149)
(0.0914498 -0.00223041 0.00186937)
(0.084864 -0.00163586 0.0017924)
(0.0963039 -0.00244263 0.00199785)
(0.0875948 -0.00167476 0.0015056)
(0.0786279 -0.00107353 0.00122147)
(0.0936666 -0.00198071 0.00172711)
(0.0841469 -0.00144028 0.00127585)
(0.0740527 -0.00078533 0.0008653)
(0.0909041 -0.00171967 0.00149807)
(0.0811865 -0.00126572 0.00102908)
(0.0704418 -0.000650525 0.000669644)
(0.0884335 -0.00145441 0.00121214)
(0.0786991 -0.00111064 0.000794572)
(0.0674905 -0.000546578 0.000509303)
(0.0863033 -0.00118317 0.000909392)
(0.0765528 -0.0009929 0.000626268)
(0.0650489 -0.000468544 0.000388774)
(0.0844778 -0.000982539 0.000692048)
(0.0746442 -0.000906289 0.000520179)
(0.0629627 -0.000414633 0.000310063)
(0.0828753 -0.000844363 0.000551009)
(0.0729115 -0.000832788 0.000456661)
(0.0611259 -0.000371585 0.000258691)
(0.0814395 -0.00074292 0.000459677)
(0.0713163 -0.000762214 0.000420338)
(0.0594782 -0.000332468 0.000226287)
(0.080137 -0.000659392 0.00039976)
(0.0698338 -0.00069435 0.000400317)
(0.0579837 -0.000295858 0.000206945)
(0.0789402 -0.000586094 0.000359335)
(0.0684434 -0.000633433 0.000389281)
(0.0566141 -0.000262639 0.000196277)
(0.0778277 -0.000523357 0.000333256)
(0.0671268 -0.000580692 0.000384173)
(0.0553446 -0.000232455 0.000189737)
(0.0767849 -0.0004717 0.000316073)
(0.0658663 -0.000531657 0.00038529)
(0.0541599 -0.000202168 0.000186922)
(0.0758 -0.000425737 0.000306562)
(0.0646464 -0.000474248 0.000392026)
(0.0530435 -0.000168406 0.000188672)
(0.0748599 -0.000379483 0.000305553)
(0.0634615 -0.000400261 0.000402943)
(0.051989 -0.000131224 0.000197423)
(0.0739557 -0.000320719 0.000316145)
(0.0623045 -0.000329311 0.000442885)
(0.0509988 -7.30587e-05 0.000219972)
(0.0730673 -0.000246534 0.000334729)
(0.061153 -0.000247213 0.000488545)
(0.0501062 -8.53273e-06 0.000277564)
(0.0722014 -0.000137768 0.000347014)
(0.0484943 0.000364147 8.00381e-05)
(0.0709538 0.000122368 0.000179753)
(0.0993441 0.00341902 -0.00341901)
(0.0973536 0.00148428 0.00106247)
(0.0834791 -0.00197588 0.0019759)
(0.0930872 -0.00253346 0.003269)
(0.074517 -0.00195873 0.00195878)
(0.084864 -0.00179234 0.00163586)
(0.0685475 -0.00115904 0.00115916)
(0.0786279 -0.00122136 0.00107356)
(0.0642356 -0.000696939 0.000697187)
(0.0740527 -0.000865098 0.000785462)
(0.0607557 -0.000494668 0.000495249)
(0.0704419 -0.000669292 0.000650751)
(0.0579357 -0.0003744 0.000375615)
(0.0674906 -0.000508533 0.000547161)
(0.0556113 -0.000287224 0.000289338)
(0.0650491 -0.000387392 0.000469639)
(0.0536201 -0.000225744 0.000229273)
(0.0629631 -0.000307753 0.00041655)
(0.051872 -0.000180917 0.000187012)
(0.0611267 -0.000254819 0.000374959)
(0.0503164 -0.00014726 0.000157819)
(0.0594798 -0.000219153 0.000338572)
(0.0489185 -0.000120381 0.000138001)
(0.0579868 -0.000194487 0.000306482)
(0.0476485 -9.69728e-05 0.000124467)
(0.0566203 -0.000175718 0.00028037)
(0.0464821 -7.43877e-05 0.000115764)
(0.0553556 -0.000161523 0.000260602)
(0.0454044 -5.0052e-05 0.00011198)
(0.0541784 -0.000149011 0.000246803)
(0.0444081 -2.94392e-05 0.000116351)
(0.0530739 -0.000133767 0.00023969)
(0.043489 -1.2853e-07 0.000135616)
(0.0520408 -0.00011166 0.000238467)
(0.0426972 5.09326e-05 0.000178027)
(0.0510925 -5.18558e-05 0.000242193)
(0.0419875 0.000321483 5.37041e-05)
(0.0502799 2.10212e-05 0.000266472)
(0.0490189 0.000447282 8.83193e-05)
(0.0984572 0.0017299 0.00247646)
(0.100049 0.000750973 0.00105638)
(0.0996871 0.000345485 0.000439238)
(0.0958348 0.00243269 0.00314809)
(0.0982936 0.00216149 0.00280921)
(0.0978161 0.00228229 0.00273283)
(0.0914498 0.00186937 0.00223041)
(0.0963039 0.00199785 0.00244263)
(0.0954959 0.00230314 0.00300177)
(0.0875948 0.00150559 0.00167475)
(0.0936666 0.00172711 0.00198071)
(0.0926189 0.00183885 0.00229948)
(0.0841469 0.00127584 0.00144026)
(0.0909041 0.00149806 0.00171966)
(0.0897668 0.00153575 0.00189207)
(0.0811865 0.00102908 0.0012657)
(0.0884335 0.00121214 0.0014544)
(0.0872314 0.00129477 0.00165675)
(0.0786991 0.00079457 0.00111062)
(0.0863033 0.000909392 0.00118316)
(0.0850054 0.00107741 0.00149243)
(0.0765529 0.000626271 0.000992877)
(0.0844779 0.000692051 0.000982518)
(0.0830586 0.000913766 0.00137228)
(0.0746443 0.000520186 0.000906259)
(0.0828754 0.000551015 0.000844334)
(0.0813206 0.000802545 0.00127974)
(0.0729116 0.000456674 0.00083275)
(0.0814396 0.000459685 0.000742881)
(0.0797394 0.00072809 0.00119584)
(0.0713164 0.000420361 0.000762165)
(0.0801371 0.000399772 0.000659339)
(0.0782854 0.000682423 0.00111472)
(0.069834 0.000400356 0.000694292)
(0.0789404 0.000359356 0.000586028)
(0.0769346 0.000656719 0.00103691)
(0.0684436 0.000389336 0.00063337)
(0.0778279 0.000333316 0.000523307)
(0.0756661 0.000643921 0.000964171)
(0.067127 0.000384247 0.000580607)
(0.0767852 0.000316118 0.000471607)
(0.0744627 0.000638679 0.000898684)
(0.0658667 0.000385389 0.000531535)
(0.0758003 0.000306588 0.000425561)
(0.0733089 0.000640762 0.000840315)
(0.0646467 0.00039216 0.000474099)
(0.0748604 0.000305632 0.000379297)
(0.0721889 0.000650739 0.00078593)
(0.063462 0.000403131 0.000400112)
(0.0739563 0.000316254 0.000320515)
(0.0710903 0.000669937 0.000727793)
(0.0623052 0.000443212 0.000329258)
(0.0730682 0.000334874 0.000246335)
(0.0699949 0.00069865 0.000660378)
(0.0611535 0.000489166 0.000247474)
(0.0722024 0.00034727 0.000137671)
(0.0689038 0.000788665 0.000625607)
(0.0709545 0.000180146 -0.00012224)
(0.0671397 0.000770276 0.000518426)
(0.10008 0.00135179 0.00135177)
(0.100186 0.000798775 0.00080495)
(0.100186 0.000804957 0.00079877)
(0.100264 0.00221735 0.00221729)
(0.100189 0.00231191 0.00207147)
(0.100189 0.00207151 0.00231188)
(0.0993826 0.00243587 0.00243575)
(0.100306 0.00263383 0.00245305)
(0.100306 0.00245317 0.00263375)
(0.0979836 0.00231044 0.00231024)
(0.0998047 0.00256063 0.00245591)
(0.0998047 0.00245611 0.00256049)
(0.0964942 0.00200648 0.00200613)
(0.0988622 0.00236481 0.00228086)
(0.0988622 0.00228117 0.00236458)
(0.0950713 0.00159744 0.00159682)
(0.09784 0.00204969 0.0019679)
(0.0978398 0.00196836 0.00204927)
(0.093773 0.0012271 0.00122605)
(0.0968598 0.00169235 0.00160434)
(0.0968595 0.0016051 0.00169165)
(0.0926137 0.000963529 0.000961664)
(0.0959568 0.00140647 0.00132102)
(0.0959562 0.00132236 0.00140531)
(0.0915871 0.000780434 0.000777077)
(0.0951434 0.00119484 0.00111784)
(0.0951424 0.00112021 0.00119276)
(0.0906768 0.000650323 0.00064402)
(0.0944182 0.0010373 0.000970591)
(0.0944163 0.000974761 0.00103353)
(0.089862 0.000555332 0.000544074)
(0.0937755 0.000917909 0.000861759)
(0.0937721 0.000869369 0.000911056)
(0.0891213 0.000486375 0.000467743)
(0.093201 0.000826701 0.000780668)
(0.0931952 0.000793608 0.000814954)
(0.0884387 0.000436843 0.000408982)
(0.0926812 0.000757664 0.000719571)
(0.0926713 0.000740666 0.00073835)
(0.0878057 0.000400596 0.000359682)
(0.0922085 0.000704789 0.00067153)
(0.0921928 0.000703248 0.000674855)
(0.0872177 0.000375775 0.000312273)
(0.0917778 0.00066464 0.000629036)
(0.0917532 0.000678157 0.00061758)
(0.0866687 0.00036547 0.000260517)
(0.0913853 0.0006369 0.000587443)
(0.0913465 0.000665967 0.000562524)
(0.0861441 0.000373926 0.000198891)
(0.0910245 0.000622437 0.000539179)
(0.0909631 0.000670898 0.000504329)
(0.0856054 0.000370969 8.69113e-05)
(0.0906809 0.000625863 0.000480799)
(0.0905865 0.000699264 0.000444278)
(0.0850453 0.000240221 -0.000182938)
(0.090324 0.000622631 0.00036931)
(0.090188 0.000715296 0.000355462)
(0.0901787 0.000526375 0.000136614)
(0.0899569 0.000527812 0.000130291)
(0.100171 0.00136875 0.0014164)
(0.100118 0.000577439 0.000811293)
(0.100102 0.000699788 0.000700686)
(0.100759 0.00219506 0.002149)
(0.100478 0.00158297 0.00185872)
(0.100477 0.00182264 0.00186465)
(0.100996 0.00247723 0.0023878)
(0.101004 0.00205899 0.00224242)
(0.101024 0.002347 0.00238293)
(0.100837 0.00247671 0.00238884)
(0.101292 0.00220388 0.00235185)
(0.101337 0.00250633 0.00254366)
(0.100457 0.00231235 0.00222433)
(0.101309 0.00216799 0.0023216)
(0.101408 0.0024511 0.00247217)
(0.0999664 0.0020579 0.0019674)
(0.101156 0.00201185 0.0021779)
(0.101301 0.00226547 0.0022702)
(0.0994414 0.00179261 0.00169862)
(0.100926 0.0017954 0.00196714)
(0.101097 0.00201046 0.00199825)
(0.0989303 0.00156663 0.00148139)
(0.100663 0.00158618 0.00176365)
(0.100852 0.00177231 0.00175716)
(0.0984594 0.00138344 0.00131788)
(0.100406 0.00139963 0.0015871)
(0.100602 0.00157244 0.00156292)
(0.0980393 0.00123385 0.0011952)
(0.100169 0.00123604 0.00144042)
(0.100372 0.00140763 0.00140839)
(0.0976697 0.00111205 0.00110467)
(0.0999604 0.00109945 0.00133177)
(0.100171 0.00127256 0.00128651)
(0.0973468 0.00101389 0.00103813)
(0.0997809 0.00098732 0.00125304)
(0.100003 0.00116309 0.00119114)
(0.0970667 0.000935707 0.000987231)
(0.0996286 0.00089526 0.00119506)
(0.0998672 0.00107579 0.00111597)
(0.0968246 0.000873911 0.000945626)
(0.0995023 0.000819875 0.0011506)
(0.0997612 0.00100743 0.00105458)
(0.0966167 0.000825694 0.000908693)
(0.0993989 0.000756618 0.00111487)
(0.0996831 0.000955002 0.00100238)
(0.0964405 0.000788077 0.000870473)
(0.0993172 0.000701929 0.00108332)
(0.0996312 0.000917058 0.000955375)
(0.0962936 0.000758906 0.000824563)
(0.0992563 0.000653336 0.0010501)
(0.099604 0.000891545 0.000908191)
(0.0961751 0.000728915 0.000761142)
(0.0992162 0.000607363 0.00101038)
(0.0996048 0.000877463 0.000856667)
(0.0960892 0.000676739 0.000674194)
(0.099184 0.000542876 0.000954958)
(0.0996204 0.000854855 0.00078873)
(0.0993192 0.000450209 0.000893772)
(0.0997656 0.000795706 0.000716788)
(0.100242 0.00082025 0.00125609)
(0.10009 0.000294366 0.000735337)
(0.100071 0.000415711 0.000602761)
(0.100828 0.00139074 0.00193924)
(0.100491 0.000792079 0.00168396)
(0.100492 0.00112454 0.00158694)
(0.101392 0.00166378 0.00218201)
(0.101086 0.0010779 0.00208328)
(0.101128 0.00154107 0.00209398)
(0.101816 0.00176162 0.00226063)
(0.101664 0.00120461 0.00217872)
(0.101767 0.00173309 0.00229393)
(0.10208 0.00175613 0.00226106)
(0.102121 0.00124017 0.00222128)
(0.102291 0.00179052 0.00236664)
(0.102215 0.00166938 0.00217523)
(0.102451 0.00120262 0.00220888)
(0.102711 0.00174483 0.00232091)
(0.102265 0.00153557 0.00203924)
(0.10268 0.00111952 0.00212442)
(0.103036 0.00162772 0.00220048)
(0.102276 0.001385 0.00188187)
(0.102842 0.00101917 0.00200248)
(0.103286 0.00148188 0.00204704)
(0.102273 0.00123458 0.00172516)
(0.102967 0.000919523 0.00186544)
(0.103491 0.00133147 0.00188639)
(0.102269 0.0010986 0.0015947)
(0.103071 0.000826435 0.00173645)
(0.103668 0.00119093 0.00173982)
(0.102268 0.000983729 0.00149978)
(0.103167 0.000743367 0.00163118)
(0.103828 0.00106986 0.00162302)
(0.102274 0.000886538 0.00143109)
(0.103262 0.000670143 0.00154692)
(0.103982 0.000968015 0.00153142)
(0.102288 0.000803076 0.00138065)
(0.103359 0.000605184 0.0014853)
(0.104133 0.000881192 0.00145949)
(0.102312 0.000730614 0.0013431)
(0.103457 0.000547788 0.00144425)
(0.104288 0.000807267 0.00140307)
(0.102346 0.000664864 0.00131395)
(0.103555 0.000495924 0.00141727)
(0.104446 0.000743614 0.00135833)
(0.102389 0.00060267 0.00128878)
(0.103655 0.000445522 0.00139788)
(0.10461 0.000686728 0.00132128)
(0.102443 0.00054088 0.00126353)
(0.103757 0.000394038 0.00138128)
(0.104781 0.000634621 0.00128781)
(0.102508 0.000472183 0.00123576)
(0.103861 0.000337326 0.00136494)
(0.104961 0.000582196 0.00125447)
(0.102579 0.000394065 0.00121393)
(0.103969 0.000269966 0.00134788)
(0.105152 0.000519517 0.00121867)
(0.104199 0.000195619 0.00134499)
(0.105454 0.000450011 0.00119752)
(0.100243 0.000267462 0.00116238)
(0.100087 -4.40398e-09 0.000707006)
(0.100064 0.000135836 0.000537315)
(0.100782 0.00046585 0.00182617)
(0.100477 -1.41819e-08 0.00161775)
(0.100463 0.000370969 0.00142408)
(0.101401 0.000575706 0.00207603)
(0.101066 -2.55814e-08 0.00203458)
(0.101089 0.000525316 0.00193347)
(0.101988 0.000623184 0.0021336)
(0.101694 -5.63336e-08 0.00211747)
(0.101798 0.00060612 0.00212839)
(0.102507 0.000631545 0.00216435)
(0.102269 -1.20168e-07 0.00214977)
(0.10249 0.000639681 0.00221055)
(0.102935 0.000610988 0.00215593)
(0.102743 -2.28521e-07 0.00217906)
(0.10312 0.000634756 0.00224083)
(0.103279 0.000572312 0.00208769)
(0.103125 -3.89233e-07 0.00213306)
(0.103688 0.000601844 0.00219564)
(0.103557 0.00052694 0.00198741)
(0.103429 -6.45212e-07 0.00204275)
(0.104186 0.000556317 0.00210424)
(0.103792 0.000482884 0.00187873)
(0.103683 -1.11767e-06 0.0019327)
(0.104623 0.000509033 0.00199037)
(0.104001 0.000439841 0.00177506)