/*--------------------------------*- C++ -*----------------------------------*\
| =========                 |                                                 |
| \\      /  F ield         | OpenFOAM: The Open Source CFD Toolbox           |
|  \\    /   O peration     | Version:  2212                                  |
|   \\  /    A nd           | Website:  www.openfoam.com                      |
|    \\/     M anipulation  |                                                 |
\*---------------------------------------------------------------------------*/
FoamFile
{
    version     2.0;
    format      ascii;
    arch        "LSB;label=32;scalar=64";
    class       volScalarField;
    location    "2.55";
    object      epsilon;
}
// * * * * * * * * * * * * * * * * * * * * * * * * * * * * * * * * * * * * * //

dimensions      [0 2 -3 0 0 0 0];

internalField   nonuniform List<scalar> 
6840
(
90.5034
12.1248
4.3887
2.46659
1.63316
1.18308
0.902024
0.720678
0.594608
0.50253
0.432719
0.379338
0.336401
0.300029
0.270444
0.246538
0.227128
0.211817
0.202984
0.194817
58.5856
14.5696
6.08947
3.33296
2.08218
1.40268
0.998666
0.740303
0.565925
0.443954
0.356059
0.290981
0.241486
0.203098
0.173251
0.15005
0.131723
0.117246
0.106561
0.0995589
45.0226
13.4729
5.73076
3.07323
1.86024
1.227
0.873587
0.649792
0.49703
0.389504
0.31132
0.253016
0.209033
0.175286
0.148921
0.128039
0.111362
0.0979494
0.0871868
0.0790272
38.7028
13.0541
5.74337
3.08734
1.88067
1.22751
0.869484
0.645391
0.4926
0.384791
0.307038
0.249062
0.205
0.171015
0.144433
0.123382
0.106507
0.0928383
0.0817164
0.0733932
36.0571
12.8529
5.76645
3.10212
1.89476
1.22669
0.866502
0.643984
0.492251
0.383966
0.305797
0.247921
0.203922
0.169948
0.143331
0.122202
0.105208
0.0913707
0.0800739
0.0717915
36.0571
12.8529
5.76645
3.10211
1.89475
1.22669
0.866496
0.643977
0.492242
0.383954
0.305781
0.2479
0.203893
0.169911
0.143282
0.122126
0.105092
0.091195
0.0797881
0.0711276
38.7028
13.0541
5.74336
3.08733
1.88066
1.2275
0.86947
0.645375
0.49258
0.384764
0.307001
0.249014
0.204937
0.170935
0.144323
0.123218
0.106262
0.0924691
0.0811971
0.0729515
45.0226
13.4729
5.73075
3.07323
1.86023
1.22699
0.873574
0.649777
0.49701
0.389472
0.31128
0.252964
0.208966
0.175201
0.148802
0.127862
0.111097
0.097549
0.0865875
0.0782527
58.5856
14.5696
6.08947
3.33296
2.08218
1.40268
0.998662
0.740299
0.56592
0.443943
0.356043
0.290957
0.241448
0.203043
0.173168
0.149915
0.13149
0.116815
0.105724
0.0982754
90.5034
12.1248
4.3887
2.46659
1.63316
1.18308
0.902023
0.720677
0.594607
0.502529
0.432717
0.379339
0.336395
0.300031
0.270439
0.246532
0.22712
0.211808
0.202974
0.194798
58.5856
14.5696
6.08947
3.33296
2.08218
1.40268
0.998662
0.740299
0.56592
0.443944
0.356044
0.290958
0.241452
0.203037
0.173171
0.149921
0.131496
0.116821
0.105731
0.0982867
16.5373
9.49239
5.0127
2.8606
1.75746
1.14759
0.786931
0.562048
0.415366
0.315946
0.24633
0.19622
0.159216
0.131245
0.109752
0.0931736
0.0801243
0.0696343
0.0606191
0.0562527
13.6679
8.73671
5.07741
3.05388
1.92223
1.26609
0.869288
0.618629
0.453957
0.342031
0.263647
0.207307
0.165897
0.134839
0.111132
0.0926691
0.0781387
0.0666052
0.0571708
0.0497629
12.9054
8.33993
5.07879
3.15547
2.02774
1.3512
0.933536
0.666457
0.489543
0.368592
0.2836
0.222382
0.177321
0.14352
0.11774
0.0977522
0.0820563
0.0695816
0.0595496
0.0513675
12.6882
8.1544
5.07113
3.20038
2.07939
1.39506
0.967831
0.692723
0.509637
0.384016
0.295503
0.231647
0.184592
0.149262
0.122295
0.101385
0.0849635
0.0719095
0.0614253
0.0529682
12.6882
8.1544
5.07113
3.20038
2.07939
1.39506
0.967834
0.692726
0.509643
0.384023
0.295512
0.231657
0.184604
0.149273
0.122305
0.101404
0.0849888
0.0719389
0.0614548
0.0530002
12.9054
8.33993
5.07879
3.15547
2.02775
1.35121
0.933542
0.666464
0.489554
0.368606
0.283618
0.222403
0.177345
0.143543
0.117765
0.0977935
0.082109
0.0696431
0.0596139
0.0513604
13.6679
8.73671
5.07741
3.05388
1.92224
1.2661
0.869292
0.618633
0.453965
0.342042
0.26366
0.207324
0.165916
0.134855
0.111158
0.0927038
0.078179
0.0666463
0.057194
0.0501926
16.5373
9.49239
5.0127
2.8606
1.75746
1.14759
0.786931
0.562047
0.415366
0.315946
0.24633
0.19622
0.159216
0.131236
0.10976
0.0931766
0.0801259
0.0696354
0.0606199
0.0562568
58.5856
14.5696
6.08947
3.33296
2.08218
1.40268
0.998665
0.740303
0.565925
0.443953
0.356058
0.290979
0.241484
0.203099
0.173248
0.150046
0.131717
0.117239
0.106551
0.0995437
45.0226
13.4729
5.73075
3.07323
1.86023
1.22699
0.873574
0.649777
0.49701
0.389472
0.31128
0.252964
0.208964
0.175197
0.148805
0.127866
0.1111
0.0975518
0.086591
0.0782574
13.6679
8.73671
5.07741
3.05388
1.92224
1.2661
0.869292
0.618634
0.453965
0.342042
0.26366
0.207324
0.165917
0.134864
0.111149
0.0927011
0.0781785
0.0666477
0.0571909
0.050184
11.8601
7.76395
4.99734
3.24076
2.14419
1.45499
1.0141
0.725634
0.532156
0.399149
0.305546
0.238222
0.188824
0.151913
0.123869
0.102235
0.0853171
0.0719261
0.0611842
0.0526144
11.6229
7.60535
5.0103
3.34209
2.26848
1.57142
1.11236
0.804587
0.594203
0.447515
0.343208
0.26763
0.211895
0.170116
0.13832
0.113775
0.0945876
0.0794103
0.0672738
0.0574924
11.5726
7.56718
5.02065
3.38344
2.32103
1.62326
1.15828
0.843156
0.62569
0.472848
0.363482
0.283851
0.224903
0.180587
0.146789
0.120661
0.100216
0.0840342
0.0710911
0.0606085
11.5726
7.56718
5.02065
3.38344
2.32103
1.62326
1.15828
0.843156
0.625692
0.472851
0.363486
0.283855
0.224908
0.180589
0.14679
0.120667
0.100224
0.0840448
0.0711042
0.0606438
11.6229
7.60535
5.0103
3.34209
2.26848
1.57142
1.11236
0.804588
0.594206
0.44752
0.343214
0.267637
0.211901
0.17012
0.138326
0.113787
0.0946041
0.0794307
0.0672998
0.0575622
11.8601
7.76395
4.99734
3.24076
2.14419
1.45499
1.0141
0.725634
0.532155
0.399149
0.305546
0.238222
0.188824
0.151911
0.123871
0.102236
0.0853182
0.0719276
0.0611857
0.0526192
13.6679
8.73671
5.07741
3.05388
1.92223
1.26609
0.869288
0.618629
0.453957
0.342031
0.263647
0.207308
0.165898
0.134841
0.11113
0.0926689
0.0781393
0.0666062
0.0571717
0.0497655
45.0226
13.4729
5.73076
3.07323
1.86024
1.227
0.873586
0.649791
0.497029
0.389503
0.311319
0.253015
0.20903
0.175282
0.148922
0.12804
0.111362
0.0979482
0.0871842
0.0790191
38.7028
13.0541
5.74336
3.08733
1.88066
1.2275
0.86947
0.645375
0.49258
0.384765
0.307001
0.249013
0.204935
0.170932
0.144326
0.12322
0.106263
0.0924701
0.0811976
0.0729525
12.9054
8.33993
5.07879
3.15547
2.02775
1.35121
0.933542
0.666464
0.489554
0.368606
0.283618
0.222404
0.177348
0.143549
0.117759
0.0977915
0.0821091
0.0696443
0.0596159
0.0513624
11.6229
7.60535
5.01031
3.34209
2.26848
1.57142
1.11236
0.804589
0.594206
0.44752
0.343214
0.267637
0.211903
0.170122
0.138323
0.113786
0.0946036
0.0794305
0.0672997
0.0575614
11.4933
7.5119
5.02843
3.434
2.3892
1.6928
1.22111
0.896487
0.669456
0.508122
0.391656
0.306285
0.242784
0.194886
0.158279
0.129952
0.107776
0.0902254
0.0761875
0.064808
11.4757
7.50136
5.04297
3.47002
2.43665
1.74299
1.26863
0.938712
0.705583
0.538335
0.416593
0.326728
0.259498
0.208556
0.169484
0.139167
0.115387
0.0965403
0.0814421
0.0691208
11.4757
7.50136
5.04297
3.47002
2.43665
1.74299
1.26863
0.938712
0.705584
0.538336
0.416594
0.326728
0.259499
0.208557
0.169483
0.139167
0.115388
0.0965414
0.0814421
0.0691033
11.4933
7.5119
5.02843
3.434
2.3892
1.6928
1.22111
0.896486
0.669456
0.508122
0.391656
0.306285
0.242784
0.194886
0.158279
0.129952
0.107776
0.0902263
0.0761889
0.0648095
11.6229
7.60535
5.0103
3.34209
2.26848
1.57142
1.11236
0.804587
0.594203
0.447515
0.343208
0.267631
0.211897
0.170117
0.138318
0.113775
0.0945885
0.0794119
0.0672758
0.0574949
12.9054
8.33993
5.07879
3.15547
2.02774
1.3512
0.933536
0.666457
0.489543
0.368592
0.283601
0.222383
0.177323
0.143526
0.117733
0.0977496
0.0820553
0.0695812
0.0595493
0.0513667
38.7028
13.0541
5.74337
3.08734
1.88067
1.22751
0.869484
0.64539
0.4926
0.384791
0.307037
0.249061
0.204997
0.17101
0.144435
0.123384
0.106509
0.0928395
0.0817175
0.073396
36.0571
12.8529
5.76645
3.10211
1.89475
1.22669
0.866496
0.643977
0.492242
0.383954
0.305781
0.247899
0.203893
0.16991
0.143282
0.122126
0.105091
0.0911935
0.0797863
0.0711295
12.6882
8.1544
5.07113
3.20038
2.07939
1.39506
0.967834
0.692726
0.509643
0.384023
0.295512
0.231658
0.184605
0.149276
0.122305
0.101405
0.0849907
0.0719419
0.0614586
0.0530047
11.5726
7.56718
5.02065
3.38344
2.32103
1.62326
1.15828
0.843157
0.625692
0.472851
0.363486
0.283856
0.224909
0.180591
0.14679
0.120667
0.100226
0.0840466
0.0711063
0.0606455
11.4757
7.50136
5.04297
3.47002
2.43665
1.74299
1.26863
0.938712
0.705584
0.538336
0.416594
0.326729
0.259499
0.208557
0.169483
0.139168
0.115388
0.0965418
0.0814425
0.0691042
11.4647
7.49683
5.0577
3.50272
2.48038
1.79068
1.31522
0.981305
0.742925
0.57021
0.44335
0.348968
0.277888
0.223735
0.182018
0.149543
0.124005
0.103725
0.0874412
0.0740569
11.4647
7.49683
5.0577
3.50272
2.48038
1.79068
1.31522
0.981305
0.742924
0.57021
0.44335
0.348968
0.277888
0.223735
0.182018
0.149543
0.124005
0.103725
0.0874413
0.0740563
11.4757
7.50136
5.04297
3.47002
2.43665
1.74299
1.26863
0.938712
0.705583
0.538335
0.416593
0.326728
0.259499
0.208556
0.169483
0.139167
0.115387
0.096541
0.0814431
0.0691208
11.5726
7.56718
5.02065
3.38344
2.32103
1.62326
1.15828
0.843156
0.62569
0.472848
0.363483
0.283852
0.224905
0.180589
0.146786
0.12066
0.100216
0.0840354
0.0710927
0.0606113
12.6882
8.1544
5.07113
3.20038
2.07939
1.39506
0.967831
0.692723
0.509637
0.384016
0.295503
0.231647
0.184593
0.149268
0.122289
0.101383
0.0849622
0.0719086
0.0614244
0.0529672
36.0571
12.8529
5.76645
3.10212
1.89476
1.22669
0.866502
0.643984
0.492251
0.383966
0.305797
0.247921
0.203921
0.169945
0.143334
0.122205
0.10521
0.0913726
0.0800759
0.0717946
36.0571
12.8529
5.76645
3.10212
1.89476
1.22669
0.866502
0.643984
0.492251
0.383966
0.305797
0.247921
0.203922
0.169948
0.143331
0.122202
0.105207
0.0913694
0.0800719
0.0717897
12.6882
8.1544
5.07113
3.20038
2.07939
1.39506
0.967831
0.692723
0.509638
0.384016
0.295504
0.231648
0.184592
0.149263
0.122295
0.101386
0.0849651
0.0719118
0.0614281
0.0529715
11.5726
7.56718
5.02065
3.38344
2.32103
1.62326
1.15828
0.843156
0.62569
0.472848
0.363483
0.283852
0.224904
0.180587
0.146789
0.120662
0.100217
0.084036
0.0710934
0.0606108
11.4757
7.50136
5.04297
3.47002
2.43665
1.74299
1.26863
0.938712
0.705584
0.538335
0.416593
0.326728
0.259498
0.208556
0.169484
0.139167
0.115387
0.0965409
0.0814432
0.0691218
11.4647
7.49683
5.0577
3.50272
2.48038
1.79068
1.31522
0.981305
0.742925
0.57021
0.44335
0.348968
0.277888
0.223735
0.182018
0.149543
0.124005
0.103725
0.0874411
0.0740566
11.4647
7.49683
5.0577
3.50272
2.48038
1.79068
1.31522
0.981305
0.742924
0.57021
0.44335
0.348968
0.277888
0.223735
0.182018
0.149543
0.124005
0.103725
0.0874411
0.0740554
11.4757
7.50136
5.04297
3.47002
2.43665
1.74299
1.26863
0.938712
0.705584
0.538336
0.416594
0.326728
0.259499
0.208556
0.169484
0.139167
0.115388
0.0965414
0.0814421
0.0691026
11.5726
7.56718
5.02065
3.38344
2.32103
1.62326
1.15828
0.843156
0.625692
0.472851
0.363486
0.283855
0.224907
0.18059
0.146791
0.120667
0.100225
0.0840449
0.0711041
0.0606428
12.6882
8.1544
5.07113
3.20038
2.07939
1.39506
0.967834
0.692726
0.509643
0.384023
0.295511
0.231657
0.184603
0.149276
0.122305
0.101404
0.0849886
0.0719386
0.0614545
0.0529998
36.0571
12.8529
5.76645
3.10211
1.89475
1.22669
0.866496
0.643977
0.492242
0.383954
0.305781
0.2479
0.203894
0.169911
0.143282
0.122126
0.105092
0.0911954
0.0797895
0.071134
38.7028
13.0541
5.74337
3.08734
1.88067
1.22751
0.869484
0.645391
0.4926
0.384791
0.307038
0.249062
0.205
0.171015
0.144433
0.123382
0.106507
0.0928382
0.0817164
0.073394
12.9054
8.33993
5.07879
3.15547
2.02774
1.3512
0.933535
0.666457
0.489543
0.368592
0.2836
0.222382
0.177321
0.14352
0.11774
0.0977525
0.0820564
0.0695814
0.0595495
0.0513662
11.6229
7.60535
5.0103
3.34209
2.26848
1.57142
1.11236
0.804587
0.594203
0.447515
0.343208
0.26763
0.211895
0.170115
0.138321
0.113776
0.0945877
0.0794101
0.0672734
0.0574902
11.4933
7.5119
5.02843
3.434
2.3892
1.6928
1.22111
0.896487
0.669456
0.508122
0.391656
0.306285
0.242783
0.194886
0.158279
0.129952
0.107775
0.0902248
0.0761867
0.0648065
11.4757
7.50136
5.04297
3.47002
2.43665
1.74299
1.26863
0.938712
0.705584
0.538336
0.416594
0.326728
0.259499
0.208557
0.169483
0.139167
0.115388
0.0965411
0.0814415
0.0691022
11.4757
7.50136
5.04297
3.47002
2.43665
1.74299
1.26863
0.938712
0.705583
0.538335
0.416593
0.326728
0.259499
0.208557
0.169483
0.139167
0.115387
0.0965409
0.0814431
0.0691201
11.4933
7.5119
5.02843
3.434
2.3892
1.6928
1.22111
0.896487
0.669456
0.508122
0.391656
0.306285
0.242784
0.194886
0.158279
0.129952
0.107776
0.0902256
0.076188
0.0648079
11.6229
7.60535
5.0103
3.34209
2.26848
1.57142
1.11236
0.804589
0.594206
0.44752
0.343214
0.267637
0.211901
0.17012
0.138326
0.113787
0.0946029
0.0794291
0.0672976
0.0575588
12.9054
8.33993
5.07879
3.15547
2.02775
1.35121
0.933542
0.666465
0.489554
0.368606
0.283618
0.222403
0.177345
0.143542
0.117766
0.0977936
0.0821091
0.0696431
0.0596139
0.0513597
38.7028
13.0541
5.74336
3.08733
1.88066
1.2275
0.869471
0.645375
0.49258
0.384764
0.307001
0.249014
0.204938
0.170936
0.144323
0.123218
0.106262
0.0924695
0.0811982
0.0729592
45.0226
13.4729
5.73076
3.07323
1.86024
1.227
0.873587
0.649792
0.49703
0.389504
0.31132
0.253017
0.209033
0.175287
0.148922
0.12804
0.111363
0.0979515
0.0871891
0.0790322
13.6679
8.73671
5.07741
3.05388
1.92223
1.26609
0.869287
0.618629
0.453957
0.342031
0.263646
0.207307
0.165896
0.134838
0.111132
0.0926681
0.0781362
0.0666006
0.0571701
0.0497556
11.8601
7.76395
4.99734
3.24076
2.14419
1.45499
1.0141
0.725634
0.532155
0.399149
0.305545
0.238221
0.188823
0.151912
0.123869
0.102234
0.0853148
0.0719229
0.0611793
0.052605
11.6229
7.60535
5.0103
3.34209
2.26848
1.57142
1.11236
0.804588
0.594206
0.447519
0.343213
0.267637
0.211902
0.170121
0.138322
0.113785
0.0946017
0.0794279
0.0672961
0.0575571
11.5726
7.56718
5.02065
3.38344
2.32103
1.62326
1.15828
0.843156
0.625692
0.472851
0.363486
0.283856
0.224908
0.180591
0.14679
0.120666
0.100224
0.0840452
0.0711046
0.0606436
11.5726
7.56718
5.02065
3.38344
2.32103
1.62326
1.15828
0.843155
0.62569
0.472848
0.363483
0.283852
0.224904
0.180588
0.146789
0.120661
0.100217
0.0840362
0.0710938
0.0606109
11.6229
7.60535
5.0103
3.34209
2.26848
1.57142
1.11236
0.804587
0.594202
0.447515
0.343208
0.267631
0.211897
0.170118
0.138318
0.113775
0.094588
0.0794112
0.0672751
0.0574932
11.8601
7.76395
4.99734
3.24076
2.14419
1.45499
1.0141
0.725634
0.532155
0.399149
0.305545
0.238221
0.188824
0.151912
0.12387
0.102235
0.0853162
0.0719249
0.0611825
0.0526108
13.6679
8.73671
5.07741
3.05388
1.92224
1.2661
0.869291
0.618635
0.453965
0.342042
0.26366
0.207324
0.165916
0.134855
0.111157
0.0927037
0.0781789
0.0666462
0.0571936
0.0501791
45.0226
13.4729
5.73075
3.07323
1.86023
1.22699
0.873575
0.649777
0.49701
0.389472
0.31128
0.252965
0.208966
0.175201
0.148802
0.127863
0.111098
0.0975501
0.0865895
0.078256
58.5856
14.5696
6.08947
3.33296
2.08218
1.40268
0.998666
0.740303
0.565925
0.443954
0.35606
0.290982
0.241487
0.2031
0.173252
0.150052
0.131726
0.117251
0.106568
0.099572
16.5373
9.49239
5.0127
2.8606
1.75746
1.14759
0.786931
0.562048
0.415366
0.315946
0.24633
0.196219
0.159215
0.131244
0.109752
0.0931725
0.0801226
0.0696324
0.0606152
0.0562454
13.6679
8.73671
5.07741
3.05388
1.92224
1.2661
0.869292
0.618633
0.453965
0.342042
0.26366
0.207324
0.165917
0.134863
0.111149
0.0927003
0.0781776
0.0666466
0.0571894
0.0501837
12.9054
8.33993
5.07879
3.15547
2.02775
1.35121
0.933542
0.666464
0.489554
0.368606
0.283618
0.222404
0.177348
0.143549
0.117758
0.0977912
0.0821089
0.0696442
0.0596157
0.0513625
12.6882
8.1544
5.07113
3.20038
2.07939
1.39506
0.967835
0.692726
0.509643
0.384023
0.295512
0.231658
0.184605
0.149277
0.122305
0.101405
0.0849909
0.0719421
0.061459
0.0530049
12.6882
8.1544
5.07113
3.20038
2.07939
1.39506
0.967832
0.692722
0.509637
0.384016
0.295504
0.231648
0.184593
0.149264
0.122295
0.101386
0.0849652
0.0719117
0.061428
0.0529709
12.9054
8.33993
5.07879
3.15547
2.02774
1.3512
0.933536
0.666456
0.489543
0.368592
0.2836
0.222382
0.177323
0.143527
0.117734
0.0977497
0.082055
0.0695806
0.0595488
0.0513656
13.6679
8.73671
5.07741
3.05388
1.92223
1.26609
0.869287
0.618628
0.453957
0.342031
0.263646
0.207307
0.165896
0.134841
0.111129
0.0926664
0.0781355
0.0666003
0.0571698
0.049755
16.5373
9.49239
5.0127
2.8606
1.75746
1.14759
0.78693
0.562048
0.415366
0.315946
0.24633
0.19622
0.159216
0.131236
0.109759
0.0931758
0.0801247
0.0696341
0.0606168
0.0562453
58.5856
14.5696
6.08947
3.33296
2.08218
1.40268
0.998664
0.740299
0.56592
0.443944
0.356044
0.290958
0.24145
0.203045
0.17317
0.149918
0.131494
0.116821
0.105733
0.0982954
90.5034
12.1248
4.3887
2.46659
1.63316
1.18308
0.902024
0.720678
0.594608
0.50253
0.43272
0.379339
0.336402
0.300031
0.270446
0.246541
0.227132
0.211822
0.202989
0.194832
58.5856
14.5696
6.08947
3.33296
2.08218
1.40268
0.998663
0.7403
0.565921
0.443945
0.356045
0.290959
0.241453
0.203039
0.173174
0.149924
0.1315
0.116827
0.105739
0.0982976
45.0226
13.4729
5.73075
3.07323
1.86023
1.22699
0.873574
0.649777
0.49701
0.389472
0.31128
0.252965
0.208965
0.175198
0.148807
0.127868
0.111102
0.097553
0.0865923
0.0782582
38.7028
13.0541
5.74336
3.08733
1.88066
1.2275
0.86947
0.645376
0.49258
0.384765
0.307001
0.249013
0.204936
0.170932
0.144327
0.12322
0.106263
0.0924698
0.0811968
0.0729515
36.0571
12.8529
5.76645
3.10211
1.89475
1.22669
0.866496
0.643977
0.492242
0.383954
0.305781
0.247899
0.203893
0.169909
0.143281
0.122125
0.10509
0.0911928
0.0797854
0.0711279
36.0571
12.8529
5.76645
3.10212
1.89476
1.22669
0.866501
0.643984
0.492252
0.383966
0.305798
0.247921
0.203922
0.169947
0.14333
0.122201
0.105207
0.0913695
0.0800722
0.0717903
38.7028
13.0541
5.74337
3.08734
1.88067
1.22751
0.869483
0.645391
0.492601
0.384792
0.307038
0.249062
0.204998
0.171011
0.144436
0.123384
0.106509
0.0928403
0.0817186
0.0733962
45.0226
13.4729
5.73076
3.07323
1.86024
1.227
0.873586
0.649792
0.49703
0.389504
0.31132
0.253017
0.209032
0.175283
0.148924
0.128043
0.111366
0.0979539
0.0871915
0.0790336
58.5856
14.5696
6.08947
3.33296
2.08218
1.40268
0.998666
0.740303
0.565925
0.443954
0.35606
0.290982
0.241486
0.203102
0.173252
0.150051
0.131724
0.117249
0.106565
0.0995658
90.5034
12.1248
4.3887
2.46659
1.63316
1.18308
0.902024
0.720678
0.594608
0.50253
0.432719
0.37934
0.336397
0.300035
0.270443
0.246537
0.227128
0.21182
0.202991
0.194825
0.372977
0.294657
0.231255
0.196758
0.176741
0.164411
0.155333
0.148087
0.14213
0.137156
0.132854
0.128995
0.125348
0.121857
0.118488
0.115483
0.112561
0.10992
0.107426
0.105052
0.102843
0.100789
0.0989073
0.0971514
0.0953676
0.0936849
0.0920356
0.0904557
0.0888804
0.0874105
0.0859221
0.0845059
0.08313
0.0817665
0.0804864
0.0792439
0.0780638
0.0768832
0.0758759
0.0741359
0.125872
0.10567
0.089907
0.079052
0.0721226
0.0670929
0.0631112
0.0598883
0.0571705
0.0547689
0.0525983
0.0506978
0.0489757
0.0473474
0.0457612
0.0443469
0.0430255
0.0418254
0.0407213
0.0396796
0.0387033
0.0377996
0.0369755
0.0362325
0.0355203
0.0348287
0.0341631
0.0335213
0.0328968
0.0322977
0.0317112
0.0311415
0.0305896
0.0300636
0.0295517
0.0290681
0.0286003
0.0281455
0.0277148
0.0272303
0.0808432
0.0724243
0.0650466
0.0593094
0.0545642
0.0505139
0.0471569
0.0443363
0.041927
0.039843
0.0380125
0.036385
0.0349658
0.033643
0.0323641
0.0312501
0.0302181
0.029293
0.0284258
0.0276051
0.026803
0.0260172
0.0253098
0.0246746
0.024104
0.0235492
0.0230188
0.0225124
0.0220277
0.0215656
0.0211172
0.0206898
0.0202792
0.0198895
0.0195157
0.0191662
0.0188287
0.018505
0.0181972
0.0178806
0.0721865
0.0629024
0.0563911
0.0512907
0.0471102
0.0436017
0.0405989
0.0380041
0.0357371
0.0337394
0.0319661
0.0303872
0.0289868
0.0277112
0.0265622
0.0255156
0.0245552
0.0236975
0.0228801
0.022055
0.0213189
0.0206534
0.020023
0.0194381
0.0188918
0.0183804
0.0179064
0.0174548
0.0170294
0.0166308
0.0162391
0.0158668
0.0155093
0.0151838
0.0148698
0.0145791
0.0142935
0.0140271
0.0137705
0.0135088
0.0718954
0.0606075
0.0536053
0.0483551
0.0441361
0.0406575
0.0377224
0.035192
0.0329715
0.0310076
0.0292607
0.0277034
0.0263131
0.0250517
0.0239105
0.0228744
0.0219363
0.0210844
0.020298
0.019577
0.0189097
0.018318
0.0176893
0.0171224
0.0165989
0.0161143
0.0156622
0.015241
0.0148458
0.0144822
0.0141276
0.0137886
0.0134715
0.0131771
0.0128861
0.0126173
0.0123579
0.0121162
0.0118897
0.0116782
0.0711226
0.0602179
0.0531087
0.0477319
0.043414
0.0398428
0.036833
0.0342612
0.0320095
0.0300138
0.0282392
0.0266536
0.0252322
0.0239616
0.0228156
0.0217786
0.0208393
0.0199862
0.0192104
0.018511
0.0178693
0.0172821
0.016727
0.0162568
0.0157407
0.015237
0.0147822
0.0143712
0.0139939
0.0136535
0.0133287
0.0130285
0.0127187
0.0124462
0.0121299
0.0119007
0.0116427
0.0114281
0.0112174
0.011019
0.0671999
0.0597817
0.0536393
0.0485204
0.0441908
0.0405124
0.0373777
0.0346819
0.0323225
0.0302475
0.0284184
0.0268012
0.0253686
0.0240934
0.0229472
0.0219123
0.0209764
0.0201287
0.0193581
0.0186607
0.0180314
0.0174503
0.0168973
0.0163965
0.0159029
0.0154124
0.0149676
0.0145723
0.0141982
0.0138601
0.0135338
0.0132329
0.0129186
0.0126411
0.0123631
0.0121254
0.011889
0.0116624
0.0114436
0.0112362
0.0743272
0.0657248
0.0585575
0.0525228
0.0474334
0.0432274
0.039725
0.0367547
0.0342248
0.0320475
0.0301577
0.0285101
0.0270577
0.0257626
0.024602
0.0235502
0.0226063
0.0217524
0.0209734
0.0202588
0.0196134
0.0189925
0.0183723
0.0178543
0.017357
0.0169007
0.0164662
0.01607
0.0156665
0.0152912
0.0149446
0.0146268
0.0143287
0.0140387
0.0137583
0.0134871
0.0132236
0.0129686
0.0127233
0.0124871
0.0963671
0.0809198
0.069512
0.0604644
0.0536173
0.048727
0.0449448
0.0418341
0.0392249
0.0369998
0.0350764
0.0334007
0.0319203
0.0306013
0.0294039
0.0282036
0.0271556
0.0261942
0.0253394
0.0245308
0.0238008
0.0231042
0.0224522
0.0218788
0.0213284
0.020822
0.0203411
0.0198928
0.0194634
0.0190735
0.0186963
0.0183338
0.0179822
0.0176454
0.0173209
0.0170052
0.0166998
0.016399
0.0161108
0.0158243
0.142121
0.117833
0.0970718
0.082131
0.072152
0.0657551
0.0611361
0.0575598
0.0546509
0.0521747
0.0499138
0.0480159
0.0461872
0.0445003
0.0429164
0.041445
0.0400869
0.0388325
0.0376966
0.0366347
0.0356696
0.034808
0.0340309
0.0333451
0.0326634
0.0320155
0.031395
0.0308028
0.0302309
0.0296982
0.0291661
0.0286489
0.028148
0.0276621
0.0271852
0.0267201
0.0262932
0.0258779
0.025487
0.0250503
0.372998
0.29463
0.231301
0.196683
0.176205
0.163839
0.154873
0.147748
0.141947
0.137151
0.132888
0.129214
0.125535
0.122078
0.118768
0.115728
0.112828
0.110152
0.107635
0.105267
0.103002
0.100942
0.0990108
0.0972674
0.0954689
0.0938138
0.092168
0.0906016
0.0890312
0.0875587
0.086066
0.0846483
0.0832596
0.0818931
0.0805724
0.0792861
0.0781689
0.0769898
0.0759943
0.0742375
0.142151
0.117837
0.097014
0.0820632
0.07226
0.065993
0.0613267
0.0576979
0.0547353
0.0521862
0.0499323
0.0479287
0.0460958
0.0444036
0.0427823
0.0413283
0.039949
0.0387145
0.0375815
0.0365334
0.0355851
0.0347383
0.0339734
0.0332968
0.0326194
0.0319688
0.0313458
0.0307512
0.0301766
0.0296448
0.0291129
0.0285966
0.028095
0.0276146
0.0271529
0.0267049
0.026269
0.0258438
0.0254471
0.0250074
0.0642674
0.0533093
0.046794
0.0413438
0.0368999
0.0337503
0.0314989
0.0293856
0.0275109
0.0258831
0.0244908
0.0232102
0.0221123
0.0210052
0.0201896
0.0191986
0.0184596
0.0176468
0.0169788
0.0163328
0.0157266
0.0151651
0.0146202
0.0141466
0.0137397
0.0133581
0.0130085
0.0126391
0.0123755
0.0119722
0.0117141
0.0114756
0.0112151
0.0110404
0.0106158
0.0104935
0.0103386
0.0101655
0.0100118
0.00983565
0.054364
0.0432676
0.0374319
0.0325944
0.0293882
0.0266915
0.024422
0.0224825
0.0208242
0.0193851
0.0181478
0.0168926
0.0161059
0.0149363
0.0143285
0.0134173
0.0129244
0.0121973
0.0117729
0.0112079
0.0107632
0.0104064
0.0099047
0.00964021
0.00922134
0.00896602
0.00867894
0.00836011
0.00815083
0.00787173
0.00767819
0.00746896
0.0073129
0.00706474
0.00688449
0.00671079
0.00660362
0.00640997
0.00626019
0.00603088
0.0499064
0.0418847
0.0360659
0.0314336
0.0278179
0.024938
0.0226878
0.0207356
0.0190446
0.017571
0.0162799
0.015133
0.0141061
0.013221
0.0124316
0.0117189
0.0110919
0.0105288
0.00998838
0.00957123
0.00903409
0.00872638
0.0082379
0.00803136
0.00761863
0.00741182
0.00707705
0.00690057
0.00662244
0.00646886
0.00624473
0.00606274
0.00594199
0.00570805
0.00557819
0.00548812
0.00538234
0.00519478
0.00508023
0.00485501
0.0459722
0.0403568
0.0354839
0.0313522
0.0278729
0.0247595
0.0221365
0.020057
0.0184004
0.0169258
0.015619
0.014458
0.0134212
0.0125153
0.011709
0.0109883
0.0103426
0.00976247
0.00923861
0.00876556
0.00833635
0.00794707
0.00759788
0.00727261
0.00698546
0.00669001
0.00645136
0.00618645
0.0059775
0.00579924
0.00562519
0.00542967
0.00531752
0.00510346
0.00498619
0.00491434
0.0048028
0.00464788
0.00452687
0.00432664
0.0457488
0.0402095
0.0353823
0.0312651
0.0277755
0.0247853
0.0221316
0.0197782
0.0180302
0.0166143
0.0153268
0.0141702
0.0131412
0.0122198
0.0114025
0.0106747
0.0100242
0.00944094
0.00891665
0.00844407
0.00801743
0.00763181
0.00728856
0.00698146
0.00667862
0.00639963
0.00615184
0.0059076
0.00570066
0.00551826
0.00533738
0.00518493
0.00504472
0.00487974
0.00474715
0.00466837
0.00454586
0.00442651
0.00424745
0.00410097
0.0461755
0.0403467
0.0353571
0.0311308
0.0275832
0.0245392
0.0218289
0.0195763
0.0179352
0.0165133
0.0152314
0.0140849
0.0130657
0.0121674
0.0113668
0.0106509
0.0100093
0.00943303
0.0089134
0.00844495
0.00802122
0.00763783
0.00729573
0.00698671
0.00669893
0.00641611
0.00618756
0.00589382
0.00571211
0.00546242
0.0053223
0.00517711
0.00503536
0.00484144
0.00470907
0.00462682
0.00450471
0.00437898
0.00421991
0.00405945
0.0454597
0.0400694
0.0350329
0.0307412
0.0272221
0.0240246
0.021646
0.0198586
0.0182582
0.016842
0.0155905
0.0144756
0.0134872
0.0126303
0.0118581
0.0111599
0.0105246
0.00995484
0.00942581
0.00895686
0.0085252
0.00813611
0.00780661
0.00740443
0.00716837
0.00679646
0.00661322
0.0062949
0.0061179
0.0058413
0.00570723
0.00554595
0.00540566
0.00515379
0.00501323
0.00486204
0.00476294
0.00463941
0.00449085
0.00430393
0.0508035
0.0417226
0.0364471
0.0314569
0.0280514
0.025559
0.0234001
0.0215453
0.019921
0.0185063
0.0172619
0.0161552
0.0151991
0.014325
0.0135347
0.0128539
0.0121045
0.0116113
0.0108997
0.0105189
0.00994127
0.00961386
0.00910747
0.00881794
0.00849227
0.00812897
0.00792486
0.0075758
0.00739602
0.00706816
0.00690283
0.0067129
0.00655314
0.00629732
0.00613734
0.00599854
0.00576905
0.00565703
0.00549935
0.00533019
0.0641935
0.053362
0.0467729
0.0415562
0.0372636
0.0340672
0.0314018
0.0292911
0.0273327
0.025735
0.0243542
0.0230529
0.0220617
0.0209799
0.0201084
0.019184
0.0183889
0.0176187
0.0169471
0.0163052
0.0157258
0.0151387
0.0146442
0.0141249
0.0137515
0.0133402
0.0130212
0.0126406
0.0123745
0.0119717
0.0117095
0.0114686
0.011221
0.0109722
0.0107305
0.0106117
0.0101856
0.0100951
0.00996412
0.00979159
0.125867
0.105616
0.0899822
0.0789047
0.0716807
0.0667267
0.0628633
0.0597197
0.0570508
0.0547307
0.0525438
0.0507559
0.0490111
0.0474061
0.0458357
0.0444189
0.0430977
0.0418983
0.0407797
0.0397441
0.0387531
0.0378474
0.0370119
0.036269
0.0355554
0.0348674
0.0342068
0.0335682
0.0329462
0.0323495
0.0317631
0.0311931
0.0306416
0.0301107
0.0295982
0.0291012
0.0286332
0.0281853
0.0277562
0.0272715
0.0963699
0.0808859
0.0695252
0.0603353
0.0535005
0.0486758
0.0449288
0.041831
0.0392231
0.0369913
0.0350651
0.0333706
0.0318836
0.030568
0.0293403
0.0281505
0.0270764
0.0261441
0.0252722
0.0244753
0.0237522
0.0230479
0.0224043
0.0218331
0.0212915
0.0207859
0.020306
0.0198581
0.0194295
0.0190418
0.0186656
0.018304
0.0179533
0.0176185
0.0172944
0.0169857
0.0166858
0.0163883
0.0161015
0.0158153
0.0507893
0.0418735
0.0366667
0.0313335
0.0280422
0.0255784
0.0234433
0.021592
0.0199711
0.0185539
0.0173238
0.016194
0.0152507
0.0143105
0.0136283
0.0127798
0.0122516
0.0114611
0.0110374
0.0104234
0.00999277
0.0096488
0.00911905
0.00886408
0.0084332
0.00815479
0.00793105
0.00758189
0.007401
0.00706955
0.00690849
0.00671933
0.00656299
0.00631225
0.00616504
0.00593912
0.00581721
0.00566299
0.00550759
0.00535754
0.0457519
0.0395513
0.034445
0.0300837
0.0265606
0.0236697
0.021255
0.0192162
0.0174765
0.015977
0.014678
0.013542
0.0125223
0.011627
0.0108522
0.0101146
0.00948298
0.00882954
0.00836152
0.00793383
0.00753895
0.00718102
0.00678394
0.00650158
0.00618079
0.00587395
0.00567131
0.00539346
0.00521258
0.00500535
0.00486682
0.00470594
0.004591
0.00437906
0.00426111
0.0041973
0.00411053
0.00394406
0.00384659
0.00364477
0.0477987
0.0414094
0.0360657
0.0315865
0.0278396
0.0246975
0.0220544
0.0198058
0.0178793
0.0162179
0.0147771
0.0135207
0.0124111
0.0114401
0.0105795
0.00981414
0.00913085
0.00851191
0.00796034
0.00747232
0.00702538
0.00663868
0.00620258
0.00587048
0.00561421
0.00538048
0.00512368
0.0049203
0.00469436
0.00452085
0.00434081
0.00421813
0.00411127
0.00392891
0.0038112
0.00377584
0.00366827
0.00355818
0.00344379
0.00330586
0.0500841
0.0432591
0.0376371
0.0329589
0.0290346
0.0257079
0.0228806
0.0204742
0.0184249
0.0166595
0.0151283
0.0137926
0.01262
0.0115924
0.010684
0.00987814
0.00916066
0.00851897
0.00794381
0.00742691
0.00696068
0.00654521
0.00614586
0.00581821
0.00550531
0.00521579
0.00490476
0.00469764
0.0045326
0.00439203
0.00423233
0.00408516
0.00394858
0.00382732
0.00370733
0.00367444
0.00356079
0.00344639
0.00333292
0.00322414
0.0503283
0.0437272
0.0381488
0.0334419
0.0294637
0.0260841
0.0231958
0.0207182
0.0186066
0.0167994
0.0152368
0.0138754
0.0126809
0.0116358
0.0107122
0.0098933
0.00916437
0.00851284
0.00792963
0.00740656
0.00693567
0.00651454
0.00611829
0.0057924
0.00547566
0.00518162
0.00491742
0.00466712
0.00442807
0.00433109
0.00418108
0.00403983
0.00390558
0.00378694
0.00367067
0.00364891
0.00353294
0.00341732
0.00330164
0.00318887
0.049362
0.0429535
0.0375097
0.0328894
0.0289701
0.025636
0.0227906
0.020363
0.0182976
0.0165259
0.0149964
0.0136673
0.0124975
0.0114813
0.0105824
0.00978423
0.00907411
0.00843829
0.00786872
0.00735722
0.00689655
0.00648238
0.0060944
0.00576839
0.00545152
0.00516587
0.0049088
0.00463407
0.00446034
0.00432812