/*--------------------------------*- C++ -*----------------------------------*\
| =========                 |                                                 |
| \\      /  F ield         | OpenFOAM: The Open Source CFD Toolbox           |
|  \\    /   O peration     | Version:  2212                                  |
|   \\  /    A nd           | Website:  www.openfoam.com                      |
|    \\/     M anipulation  |                                                 |
\*---------------------------------------------------------------------------*/
FoamFile
{
    version     2.0;
    format      ascii;
    arch        "LSB;label=32;scalar=64";
    class       surfaceScalarField;
    location    "2.55";
    object      phi;
}
// * * * * * * * * * * * * * * * * * * * * * * * * * * * * * * * * * * * * * //

dimensions      [0 3 -1 0 0 0 0];

oriented        oriented;

internalField   nonuniform List<scalar> 
19019
(
3.3225e-07
1.09687e-09
1.09676e-09
2.79191e-07
2.65297e-08
2.65292e-08
2.49218e-07
1.49866e-08
1.49859e-08
2.29255e-07
9.98228e-09
9.98115e-09
2.14836e-07
7.2107e-09
7.2084e-09
2.032e-07
5.81933e-09
5.81578e-09
1.93773e-07
4.71697e-09
4.71017e-09
1.86006e-07
3.88943e-09
3.87742e-09
1.79359e-07
3.33403e-09
3.31342e-09
1.73532e-07
2.931e-09
2.89609e-09
1.68362e-07
2.61316e-09
2.55623e-09
1.63746e-07
2.35465e-09
2.2612e-09
1.59594e-07
2.15694e-09
1.99504e-09
1.5584e-07
2.0187e-09
1.73546e-09
1.52504e-07
1.90379e-09
1.43236e-09
1.49642e-07
1.81415e-09
1.04817e-09
1.47385e-07
1.73909e-09
5.17417e-10
1.46981e-07
1.22494e-09
-8.21151e-10
1.50641e-07
9.14682e-12
-3.66856e-09
-1.34757e-08
-2.78226e-08
6.3138e-07
3.58757e-09
7.40284e-09
6.14564e-07
2.26457e-08
2.07001e-08
5.86446e-07
2.43756e-08
1.87288e-08
5.61728e-07
1.8854e-08
1.58462e-08
5.39623e-07
1.5568e-08
1.37483e-08
5.20645e-07
1.35077e-08
1.12887e-08
5.04706e-07
1.19477e-08
8.70878e-09
4.90964e-07
1.07925e-08
6.83914e-09
4.78761e-07
9.93495e-09
5.60192e-09
4.6771e-07
9.2178e-09
4.76412e-09
4.57587e-07
8.58123e-09
4.15482e-09
4.48264e-07
7.99633e-09
3.68161e-09
4.39646e-07
7.44727e-09
3.32686e-09
4.31683e-07
6.92314e-09
3.0586e-09
4.2443e-07
6.37751e-09
2.77933e-09
4.18088e-07
5.73174e-09
2.42469e-09
4.13307e-07
4.76669e-09
1.75379e-09
4.12229e-07
2.35144e-09
-4.924e-11
4.19739e-07
-2.58961e-09
-4.91134e-09
-1.52255e-08
-2.04331e-08
8.90375e-07
2.85254e-09
6.33229e-09
8.82487e-07
1.34081e-08
1.71255e-08
8.70361e-07
1.78661e-08
1.86353e-08
8.55116e-07
1.69529e-08
1.71461e-08
8.39989e-07
1.53357e-08
1.5359e-08
8.25546e-07
1.41619e-08
1.37887e-08
8.11788e-07
1.33652e-08
1.23409e-08
7.9881e-07
1.2651e-08
1.11192e-08
7.86765e-07
1.18459e-08
1.01345e-08
7.75668e-07
1.09734e-08
9.34079e-09
7.65392e-07
1.0121e-08
8.73683e-09
7.55802e-07
9.29713e-09
8.28937e-09
7.46806e-07
8.49241e-09
7.9501e-09
7.38396e-07
7.66785e-09
7.66503e-09
7.30649e-07
6.74209e-09
7.38249e-09
7.23883e-07
5.51324e-09
6.98467e-09
7.18594e-07
3.77222e-09
6.28327e-09
7.15211e-07
9.387e-10
4.79606e-09
7.14307e-07
-3.84601e-09
2.16052e-09
-1.26286e-08
-3.23855e-09
1.07432e-06
1.06463e-09
5.56885e-09
1.06824e-06
5.58588e-09
1.39001e-08
1.06138e-06
8.46267e-09
1.62615e-08
1.05339e-06
9.03751e-09
1.59082e-08
1.04511e-06
8.61364e-09
1.50013e-08
1.03722e-06
8.1129e-09
1.39326e-08
1.02984e-06
7.77308e-09
1.29767e-08
1.02284e-06
7.53119e-09
1.21149e-08
1.01601e-06
7.32967e-09
1.1346e-08
1.00928e-06
7.01776e-09
1.06949e-08
1.00266e-06
6.53357e-09
1.02028e-08
9.96151e-07
5.96241e-09
9.84363e-09
9.89705e-07
5.34692e-09
9.59139e-09
9.83276e-07
4.66483e-09
9.43146e-09
9.768e-07
3.87682e-09
9.34149e-09
9.70247e-07
2.7877e-09
9.27851e-09
9.63604e-07
1.2092e-09
9.20539e-09
9.56552e-07
-1.13639e-09
9.12752e-09
9.48301e-07
-4.72102e-09
9.12576e-09
-1.00245e-08
9.58463e-09
1.16914e-06
-1.2942e-13
4.90651e-09
1.16312e-06
-5.9314e-13
1.16083e-08
1.15731e-06
-1.29622e-12
1.42755e-08
1.15202e-06
-2.25705e-12
1.4334e-08
1.1469e-06
-3.78792e-12
1.37315e-08
1.14205e-06
-6.43437e-12
1.29717e-08
1.13773e-06
-1.10114e-11
1.21048e-08
1.13396e-06
-1.85078e-11
1.13154e-08
1.13066e-06
-3.10307e-11
1.06633e-08
1.12752e-06
-5.17359e-11
1.02137e-08
1.1242e-06
-8.60526e-11
9.93589e-09
1.12055e-06
-1.42801e-10
9.75901e-09
1.11643e-06
-2.37299e-10
9.69659e-09
1.11172e-06
-4.01535e-10
9.78391e-09
1.10622e-06
-6.73673e-10
1.00457e-08
1.09961e-06
-1.13151e-09
1.05312e-08
1.09138e-06
-1.92648e-09
1.13683e-08
1.08084e-06
-3.27162e-09
1.26726e-08
1.06745e-06
-5.66549e-09
1.43274e-08
-9.89442e-09
1.68937e-08
1.16914e-06
-1.0649e-09
4.90655e-09
1.16312e-06
-5.58681e-09
1.16085e-08
1.15731e-06
-8.46445e-09
1.42756e-08
1.15201e-06
-9.04052e-09
1.43344e-08
1.14689e-06
-8.61899e-09
1.37328e-08
1.14204e-06
-8.12234e-09
1.29743e-08
1.13771e-06
-7.78938e-09
1.21089e-08
1.13392e-06
-7.55856e-09
1.1322e-08
1.13059e-06
-7.37586e-09
1.06745e-08
1.1274e-06
-7.09352e-09
1.02326e-08
1.12401e-06
-6.65687e-09
9.96636e-09
1.12022e-06
-6.16256e-09
9.81015e-09
1.11587e-06
-5.67636e-09
9.78986e-09
1.11072e-06
-5.21718e-09
9.95984e-09
1.10447e-06
-4.77878e-09
1.03588e-08
1.09656e-06
-4.31796e-09
1.10947e-08
1.0861e-06
-3.84889e-09
1.23846e-08
1.07156e-06
-3.24978e-09
1.45177e-08
1.05097e-06
-2.47505e-09
1.73992e-08
-2.91453e-09
2.38448e-08
1.07432e-06
-2.85252e-09
5.56887e-09
1.06824e-06
-1.34081e-08
1.39002e-08
1.06138e-06
-1.78662e-08
1.62621e-08
1.05338e-06
-1.69532e-08
1.59099e-08
1.04509e-06
-1.53366e-08
1.50043e-08
1.0372e-06
-1.41637e-08
1.39373e-08
1.02979e-06
-1.33684e-08
1.29838e-08
1.02276e-06
-1.26557e-08
1.21263e-08
1.01587e-06
-1.18534e-08
1.13649e-08
1.00904e-06
-1.09851e-08
1.07273e-08
1.00226e-06
-1.01384e-08
1.02582e-08
9.95483e-07
-9.32381e-09
9.94083e-09
9.8858e-07
-8.53559e-09
9.76138e-09
9.81373e-07
-7.74103e-09
9.73119e-09
9.7358e-07
-6.86025e-09
9.87407e-09
9.64772e-07
-5.76779e-09
1.02585e-08
9.54197e-07
-4.30682e-09
1.10327e-08
9.40555e-07
-1.98729e-09
1.23793e-08
9.22198e-07
1.61642e-09
1.42654e-08
5.58192e-09
2.14875e-08
8.90375e-07
-3.58745e-09
6.33236e-09
8.82486e-07
-2.26452e-08
1.7126e-08
8.70358e-07
-2.43749e-08
1.86363e-08
8.5511e-07
-1.88528e-08
1.71479e-08
8.39977e-07
-1.55656e-08
1.53617e-08
8.25525e-07
-1.35037e-08
1.37923e-08
8.1175e-07
-1.19407e-08
1.23469e-08
7.98745e-07
-1.07807e-08
1.11296e-08
7.86656e-07
-9.91509e-09
1.01513e-08
7.75486e-07
-9.18415e-09
9.36868e-09
7.65088e-07
-8.52455e-09
8.78391e-09
7.55298e-07
-7.90486e-09
8.3707e-09
7.45975e-07
-7.30107e-09
8.08921e-09
7.37016e-07
-6.68554e-09
7.90309e-09
7.28343e-07
-5.99509e-09
7.80784e-09
7.19928e-07
-5.1405e-09
7.78771e-09
7.11674e-07
-3.88564e-09
7.83317e-09
7.03033e-07
-1.22249e-09
7.87641e-09
6.92248e-07
4.26943e-09
8.13177e-09
2.2405e-08
7.75324e-09
6.3138e-07
-1.09678e-09
7.40292e-09
6.14564e-07
-2.65293e-08
2.07005e-08
5.86445e-07
-1.49859e-08
1.87294e-08
5.61726e-07
-9.98119e-09
1.58474e-08
5.39619e-07
-7.20846e-09
1.375e-08
5.20639e-07
-5.81584e-09
1.12921e-08
5.04694e-07
-4.71024e-09
8.71415e-09
4.90943e-07
-3.87749e-09
6.84773e-09
4.78726e-07
-3.3135e-09
5.61616e-09
4.67649e-07
-2.89619e-09
4.78823e-09
4.57481e-07
-2.55634e-09
4.19995e-09
4.4808e-07
-2.26131e-09
3.75783e-09
4.39341e-07
-1.99526e-09
3.43284e-09
4.31188e-07
-1.73555e-09
3.20299e-09
4.23606e-07
-1.43218e-09
3.01944e-09
4.16665e-07
-1.04818e-09
2.84887e-09
4.10731e-07
-5.17532e-10
2.56566e-09
4.07211e-07
8.21049e-10
1.47697e-09
4.10007e-07
3.66895e-09
-2.19552e-09
2.78231e-08
-1.99708e-08
3.3225e-07
1.09685e-09
2.79191e-07
2.65296e-08
2.49218e-07
1.49866e-08
2.29255e-07
9.98227e-09
2.14835e-07
7.21068e-09
2.032e-07
5.81933e-09
1.93773e-07
4.71697e-09
1.86006e-07
3.88944e-09
1.79359e-07
3.33404e-09
1.73531e-07
2.93101e-09
1.68362e-07
2.61317e-09
1.63746e-07
2.35467e-09
1.59593e-07
2.15707e-09
1.55839e-07
2.01901e-09
1.52503e-07
1.90422e-09
1.4964e-07
1.81484e-09
1.47382e-07
1.73995e-09
1.46977e-07
1.22591e-09
1.50636e-07
1.0676e-11
-1.34732e-08
6.3138e-07
7.40291e-09
3.58743e-09
6.14564e-07
2.07005e-08
2.26452e-08
5.86445e-07
1.87294e-08
2.43748e-08
5.61726e-07
1.58474e-08
1.88528e-08
5.39619e-07
1.37499e-08
1.55656e-08
5.20639e-07
1.1292e-08
1.35036e-08
5.04695e-07
8.71408e-09
1.19406e-08
4.90944e-07
6.84764e-09
1.07806e-08
4.78726e-07
5.61605e-09
9.91495e-09
4.6765e-07
4.78809e-09
9.18397e-09
4.57482e-07
4.19979e-09
8.52432e-09
4.48081e-07
3.75759e-09
7.90459e-09
4.39343e-07
3.43212e-09
7.30083e-09
4.31191e-07
3.20231e-09
6.68495e-09
4.2361e-07
3.01922e-09
5.99415e-09
4.16671e-07
2.84814e-09
5.13937e-09
4.1074e-07
2.56455e-09
3.88409e-09
4.07223e-07
1.47542e-09
1.22052e-09
4.10024e-07
-2.19781e-09
-4.27174e-09
-1.99759e-08
-2.24066e-08
9.23617e-07
7.03386e-09
7.03372e-09
9.25318e-07
1.98497e-08
1.98492e-08
9.17184e-07
2.27964e-08
2.27955e-08
9.04276e-07
2.23018e-08
2.23002e-08
8.90536e-07
2.06207e-08
2.0618e-08
8.77412e-07
1.78544e-08
1.78494e-08
8.65446e-07
1.46989e-08
1.46906e-08
8.54773e-07
1.21865e-08
1.21731e-08
8.45342e-07
1.03358e-08
1.03127e-08
8.37013e-07
8.96075e-09
8.9212e-09
8.29603e-07
7.91541e-09
7.84918e-09
8.22937e-07
7.10614e-09
6.99869e-09
8.16936e-07
6.46479e-09
6.29553e-09
8.11628e-07
5.91789e-09
5.65099e-09
8.07086e-07
5.37975e-09
4.96018e-09
8.03451e-07
4.77224e-09
4.1354e-09
8.00884e-07
3.91209e-09
2.97306e-09
7.98752e-07
2.43789e-09
1.12029e-09
7.93895e-07
-3.77777e-10
-1.87415e-09
-5.3518e-09
-6.61661e-09
1.1589e-06
5.28126e-09
6.10235e-09
1.1657e-06
1.39983e-08
1.6182e-08
1.16845e-06
1.7977e-08
2.07048e-08
1.16662e-06
1.91774e-08
2.21021e-08
1.16222e-06
1.88739e-08
2.15023e-08
1.15655e-06
1.75417e-08
1.97659e-08
1.1505e-06
1.56781e-08
1.7419e-08
1.14461e-06
1.38726e-08
1.53193e-08
1.13921e-06
1.22609e-08
1.36134e-08
1.13442e-06
1.08458e-08
1.22434e-08
1.13026e-06
9.66139e-09
1.11488e-08
1.12671e-06
8.67122e-09
1.02751e-08
1.12376e-06
7.81046e-09
9.55684e-09
1.12142e-06
6.99969e-09
8.92187e-09
1.11973e-06
6.14686e-09
8.30614e-09
1.11871e-06
5.15987e-09
7.61167e-09
1.11834e-06
3.88001e-09
6.68846e-09
1.11809e-06
2.11773e-09
5.36764e-09
1.11663e-06
-3.12932e-10
3.5556e-09
-3.61679e-09
1.81776e-09
1.32763e-06
2.71801e-09
4.93094e-09
1.33539e-06
7.12017e-09
1.30085e-08
1.34287e-06
9.55214e-09
1.7215e-08
1.34848e-06
1.05757e-08
1.88983e-08
1.35198e-06
1.08712e-08
1.95004e-08
1.35377e-06
1.05738e-08
1.91149e-08
1.35444e-06
9.88053e-09
1.81012e-08
1.35459e-06
9.02722e-09
1.68132e-08
1.35456e-06
8.16259e-09
1.54684e-08
1.35452e-06
7.34136e-09
1.42422e-08
1.35453e-06
6.58699e-09
1.32632e-08
1.35466e-06
5.89025e-09
1.24997e-08
1.35492e-06
5.23226e-09
1.19094e-08
1.35534e-06
4.5596e-09
1.14544e-08
1.35593e-06
3.79563e-09
1.1097e-08
1.35669e-06
2.87331e-09
1.08051e-08
1.35754e-06
1.67967e-09
1.05547e-08
1.35832e-06
1.17547e-10
1.03487e-08
1.35884e-06
-1.95699e-09
1.02522e-08
-4.26671e-09
1.06789e-08
1.41518e-06
-2.25135e-13
4.19279e-09
1.42279e-06
-6.4376e-13
1.11158e-08
1.43152e-06
-1.11155e-12
1.50985e-08
1.4398e-06
-1.95841e-12
1.66297e-08
1.44713e-06
-3.47207e-12
1.72769e-08
1.45317e-06
-5.87614e-12
1.75131e-08
1.45801e-06
-9.53484e-12
1.71589e-08
1.46192e-06
-1.54426e-11
1.64473e-08
1.4652e-06
-2.55508e-11
1.55684e-08
1.4681e-06
-4.31735e-11
1.47017e-08
1.47078e-06
-7.22412e-11
1.39131e-08
1.47329e-06
-1.20215e-10
1.32568e-08
1.47559e-06
-1.92298e-10
1.28248e-08
1.47761e-06
-3.04881e-10
1.26215e-08
1.47935e-06
-4.83274e-10
1.25884e-08
1.48075e-06
-7.59272e-10
1.27626e-08
1.48173e-06
-1.17573e-09
1.32479e-08
1.48218e-06
-1.77739e-09
1.41168e-08
1.48181e-06
-2.58749e-09
1.53228e-08
-3.39144e-09
1.68518e-08
1.41518e-06
-2.71827e-09
4.19291e-09
1.42279e-06
-7.12091e-09
1.11161e-08
1.43152e-06
-9.5535e-09
1.50989e-08
1.4398e-06
-1.05782e-08
1.66306e-08
1.44712e-06
-1.08756e-08
1.7279e-08
1.45316e-06
-1.05809e-08
1.75168e-08
1.45798e-06
-9.89214e-09
1.71648e-08
1.46188e-06
-9.04613e-09
1.64565e-08
1.46514e-06
-8.19379e-09
1.55827e-08
1.468e-06
-7.39535e-09
1.47253e-08
1.47062e-06
-6.67804e-09
1.39524e-08
1.47302e-06
-6.04031e-09
1.33253e-08
1.47514e-06
-5.46337e-09
1.29423e-08
1.47691e-06
-4.92174e-09
1.28109e-08
1.47827e-06
-4.37836e-09
1.28904e-08
1.47914e-06
-3.81568e-09
1.32809e-08
1.47943e-06
-3.19001e-09
1.41095e-08
1.47913e-06
-2.45902e-09
1.54949e-08
1.47815e-06
-1.59925e-09
1.73946e-08
-6.73171e-10
1.941e-08
1.32762e-06
-5.28117e-09
4.93116e-09
1.33539e-06
-1.39981e-08
1.30091e-08
1.34286e-06
-1.79769e-08
1.72163e-08
1.34847e-06
-1.91772e-08
1.89012e-08
1.35197e-06
-1.88735e-08
1.95055e-08
1.35374e-06
-1.75408e-08
1.91227e-08
1.3544e-06
-1.56769e-08
1.81133e-08
1.35452e-06
-1.38713e-08
1.68324e-08
1.35445e-06
-1.22579e-08
1.54981e-08
1.35433e-06
-1.08397e-08
1.42907e-08
1.35421e-06
-9.65037e-09
1.33463e-08
1.35412e-06
-8.65039e-09
1.26389e-08
1.35405e-06
-7.76682e-09
1.21381e-08
1.35395e-06
-6.92118e-09
1.18295e-08
1.35376e-06
-6.03203e-09
1.17168e-08
1.35338e-06
-5.00881e-09
1.18327e-08
1.35268e-06
-3.70581e-09
1.22455e-08
1.3515e-06
-1.91081e-09
1.30172e-08
1.34935e-06
7.23397e-10
1.40946e-08
4.86068e-09
1.5252e-08
1.1589e-06
-7.03372e-09
6.1026e-09
1.1657e-06
-1.98492e-08
1.61829e-08
1.16844e-06
-2.27956e-08
2.07066e-08
1.16661e-06
-2.23002e-08
2.2105e-08
1.16221e-06
-2.0618e-08
2.15068e-08
1.15654e-06
-1.78494e-08
1.97723e-08
1.15047e-06
-1.46907e-08
1.74295e-08
1.14456e-06
-1.21732e-08
1.53373e-08
1.13913e-06
-1.03128e-08
1.36437e-08
1.13428e-06
-8.92138e-09
1.22932e-08
1.13004e-06
-7.84942e-09
1.12307e-08
1.12635e-06
-6.99907e-09
1.04077e-08
1.1232e-06
-6.29657e-09
9.77059e-09
1.12056e-06
-5.65121e-09
9.26334e-09
1.11845e-06
-4.95957e-09
8.85187e-09
1.11688e-06
-4.13611e-09
8.48429e-09
1.11589e-06
-2.97466e-09
8.08922e-09
1.11545e-06
-1.1225e-09
7.52687e-09
1.11596e-06
1.87167e-09
6.47972e-09
6.61175e-09
4.44055e-09
9.23617e-07
-7.40284e-09
7.03387e-09
9.25318e-07
-2.07001e-08
1.98497e-08
9.17184e-07
-1.87288e-08
2.27965e-08
9.04276e-07
-1.58462e-08
2.23019e-08
8.90535e-07
-1.37483e-08
2.06208e-08
8.77412e-07
-1.12887e-08
1.78545e-08
8.65445e-07
-8.70879e-09
1.4699e-08
8.54772e-07
-6.83915e-09
1.21867e-08
8.45341e-07
-5.60194e-09
1.03361e-08
8.37011e-07
-4.76413e-09
8.96107e-09
8.29601e-07
-4.15481e-09
7.91581e-09
8.22935e-07
-3.68158e-09
7.10664e-09
8.16932e-07
-3.32712e-09
6.46585e-09
8.11624e-07
-3.05877e-09
5.91893e-09
8.07082e-07
-2.77899e-09
5.38058e-09
8.03446e-07
-2.42473e-09
4.77376e-09
8.00877e-07
-1.75406e-09
3.91386e-09
7.98742e-07
4.89659e-11
2.44006e-09
7.93883e-07
4.91071e-09
-3.75497e-10
2.0432e-08
-5.34642e-09
6.3138e-07
3.58756e-09
6.14564e-07
2.26457e-08
5.86446e-07
2.43756e-08
5.61728e-07
1.88541e-08
5.39622e-07
1.55681e-08
5.20645e-07
1.35078e-08
5.04706e-07
1.19478e-08
4.90963e-07
1.07926e-08
4.7876e-07
9.93515e-09
4.67709e-07
9.21806e-09
4.57586e-07
8.58156e-09
4.48262e-07
7.99671e-09
4.39644e-07
7.44762e-09
4.3168e-07
6.9244e-09
4.24426e-07
6.37973e-09
4.18082e-07
5.73406e-09
4.13298e-07
4.76917e-09
4.12219e-07
2.35443e-09
4.19725e-07
-2.58509e-09
-1.52214e-08
8.90375e-07
6.33236e-09
2.85252e-09
8.82486e-07
1.7126e-08
1.34081e-08
8.70358e-07
1.86363e-08
1.78662e-08
8.5511e-07
1.71479e-08
1.69532e-08
8.39977e-07
1.53616e-08
1.53365e-08
8.25525e-07
1.37923e-08
1.41636e-08
8.1175e-07
1.23469e-08
1.33683e-08
7.98746e-07
1.11295e-08
1.26555e-08
7.86656e-07
1.01512e-08
1.18532e-08
7.75487e-07
9.3685e-09
1.09848e-08
7.65089e-07
8.78366e-09
1.01381e-08
7.553e-07
8.37029e-09
9.32334e-09
7.45978e-07
8.08859e-09
8.53498e-09
7.3702e-07
7.90243e-09
7.73992e-09
7.28349e-07
7.80678e-09
6.85858e-09
7.19936e-07
7.78588e-09
5.76578e-09
7.11686e-07
7.8303e-09
4.30411e-09
7.03051e-07
7.87207e-09
1.98363e-09
6.92276e-07
8.12521e-09
-1.62223e-09
7.7436e-09
-5.58565e-09
1.1589e-06
6.10259e-09
5.28116e-09
1.1657e-06
1.61829e-08
1.39981e-08
1.16844e-06
2.07066e-08
1.79769e-08
1.16661e-06
2.2105e-08
1.91772e-08
1.16221e-06
2.15067e-08
1.88735e-08
1.15654e-06
1.97722e-08
1.75407e-08
1.15047e-06
1.74293e-08
1.56768e-08
1.14456e-06
1.53371e-08
1.38711e-08
1.13913e-06
1.36434e-08
1.22576e-08
1.13428e-06
1.22928e-08
1.08394e-08
1.13004e-06
1.12302e-08
9.64991e-09
1.12635e-06
1.04069e-08
8.64966e-09
1.1232e-06
9.76934e-09
7.76565e-09
1.12057e-06
9.26254e-09
6.92053e-09
1.11845e-06
8.85112e-09
6.03154e-09
1.11688e-06
8.48239e-09
5.0071e-09
1.1159e-06
8.08629e-09
3.70284e-09
1.11546e-06
7.52319e-09
1.90664e-09
1.11597e-06
6.47552e-09
-7.29681e-10
4.43401e-09
-4.86962e-09
1.37712e-06
4.57722e-09
4.57701e-09
1.38565e-06
1.19167e-08
1.19162e-08
1.39417e-06
1.64462e-08
1.64452e-08
1.40126e-06
1.85592e-08
1.85575e-08
1.40642e-06
1.89283e-08
1.89255e-08
1.40952e-06
1.82193e-08
1.82149e-08
1.41095e-06
1.67116e-08
1.67043e-08
1.41155e-06
1.50359e-08
1.50243e-08
1.41185e-06
1.34883e-08
1.34693e-08
1.41213e-06
1.21454e-08
1.21146e-08
1.41256e-06
1.09977e-08
1.09481e-08
1.41327e-06
1.00272e-08
9.94765e-09
1.41432e-06
9.20176e-09
9.07352e-09
1.41575e-06
8.47836e-09
8.27475e-09
1.41758e-06
7.81921e-09
7.50718e-09
1.41979e-06
7.17213e-09
6.70583e-09
1.42229e-06
6.47888e-09
5.79888e-09
1.42477e-06
5.67947e-09
4.73297e-09
1.42655e-06
4.7409e-09
3.51007e-09
3.86606e-09
2.50807e-09
1.53312e-06
2.36582e-09
3.64909e-09
1.54218e-06
6.23824e-09
9.63325e-09
1.55328e-06
8.87232e-09
1.36907e-08
1.56445e-06
1.03455e-08
1.59351e-08
1.57508e-06
1.08972e-08
1.69095e-08
1.58472e-06
1.07511e-08
1.69425e-08
1.59302e-06
1.0138e-08
1.63731e-08
1.6001e-06
9.32294e-09
1.54417e-08
1.60627e-06
8.44689e-09
1.43387e-08
1.6118e-06
7.61818e-09
1.32432e-08
1.61693e-06
6.87999e-09
1.22502e-08
1.62184e-06
6.23027e-09
1.13862e-08
1.62666e-06
5.64558e-09
1.0648e-08
1.63148e-06
5.09109e-09
1.00196e-08
1.63638e-06
4.53676e-09
9.47823e-09
1.64141e-06
3.94701e-09
8.99872e-09
1.64659e-06
3.2891e-09
8.56199e-09
1.65193e-06
2.52444e-09
8.16517e-09
1.65745e-06
1.6385e-09
7.8362e-09
7.2776e-10
7.79613e-09
1.61424e-06
-1.67804e-13
3.09276e-09
1.62332e-06
-4.19492e-13
8.2738e-09
1.63533e-06
-7.32416e-13
1.19568e-08
1.6482e-06
-1.2497e-12
1.41141e-08
1.66117e-06
-2.11717e-12
1.51999e-08
1.67386e-06
-3.3593e-12
1.55829e-08
1.68573e-06
-5.38815e-12
1.54306e-08
1.69655e-06
-8.4482e-12
1.49606e-08
1.70629e-06
-1.35806e-11
1.42898e-08
1.71511e-06
-2.20186e-11
1.35216e-08
1.72319e-06
-3.52913e-11
1.27474e-08
1.73069e-06
-5.55032e-11
1.20382e-08
1.7378e-06
-8.44215e-11
1.14467e-08
1.74463e-06
-1.2603e-10
1.10038e-08
1.75123e-06
-1.92002e-10
1.07239e-08
1.75762e-06
-2.93926e-10
1.06098e-08
1.76391e-06
-4.30735e-10
1.0675e-08
1.77023e-06
-5.95931e-10
1.09238e-08
1.77663e-06
-7.5493e-10
1.1309e-08
-8.091e-10
1.17836e-08
1.61424e-06
-2.36595e-09
3.0929e-09
1.62332e-06
-6.2386e-09
8.27417e-09
1.63533e-06
-8.87297e-09
1.19575e-08
1.64819e-06
-1.03466e-08
1.41154e-08
1.66117e-06
-1.08989e-08
1.52022e-08
1.67385e-06
-1.07535e-08
1.55865e-08
1.68571e-06
-1.01419e-08
1.54358e-08
1.69652e-06
-9.3291e-09
1.49686e-08
1.70624e-06
-8.45675e-09
1.43024e-08
1.71504e-06
-7.63497e-09
1.35417e-08
1.72309e-06
-6.90829e-09
1.278e-08
1.73054e-06
-6.27629e-09
1.2091e-08
1.73758e-06
-5.71526e-09
1.15314e-08
1.74432e-06
-5.19389e-09
1.11361e-08
1.75079e-06
-4.69909e-09
1.093e-08
1.75706e-06
-4.21076e-09
1.09285e-08
1.7633e-06
-3.70793e-09
1.1152e-08
1.76976e-06
-3.16702e-09
1.16011e-08
1.7768e-06
-2.58479e-09
1.21816e-08
-1.98438e-09
1.26922e-08
1.53312e-06
-4.57701e-09
3.64939e-09
1.54218e-06
-1.19162e-08
9.63404e-09
1.55327e-06
-1.64452e-08
1.36922e-08
1.56445e-06
-1.85576e-08
1.59377e-08
1.57507e-06
-1.89256e-08
1.69138e-08
1.5847e-06
-1.8215e-08
1.69493e-08
1.59299e-06
-1.67044e-08
1.63834e-08
1.60006e-06
-1.50244e-08
1.54583e-08
1.60621e-06
-1.34695e-08
1.43646e-08
1.6117e-06
-1.2115e-08
1.32839e-08
1.61677e-06
-1.09485e-08
1.23159e-08
1.62159e-06
-9.94821e-09
1.14916e-08
1.62626e-06
-9.07428e-09
1.08185e-08
1.63088e-06
-8.27556e-09
1.02927e-08
1.6355e-06
-7.50821e-09
9.90699e-09
1.64017e-06
-6.70744e-09
9.66079e-09
1.64495e-06
-5.80122e-09
9.56e-09
1.64994e-06
-4.73624e-09
9.59717e-09
1.65527e-06
-3.51465e-09
9.69491e-09
-2.5156e-09
9.66474e-09
1.37712e-06
-6.10236e-09
4.57723e-09
1.38565e-06
-1.61821e-08
1.19168e-08
1.39417e-06
-2.07048e-08
1.64463e-08
1.40126e-06
-2.21021e-08
1.85593e-08
1.40642e-06
-2.15024e-08
1.89284e-08
1.40952e-06
-1.97659e-08
1.82195e-08
1.41095e-06
-1.74191e-08
1.67119e-08
1.41155e-06
-1.53194e-08
1.50363e-08
1.41185e-06
-1.36136e-08
1.34888e-08
1.41212e-06
-1.22436e-08
1.2146e-08
1.41256e-06
-1.11491e-08
1.09985e-08
1.41326e-06
-1.02754e-08
1.00282e-08
1.41431e-06
-9.55717e-09
9.20309e-09
1.41574e-06
-8.92239e-09
8.47984e-09
1.41757e-06
-8.307e-09
7.82087e-09
1.41979e-06
-7.61277e-09
7.17427e-09
1.42229e-06
-6.68983e-09
6.48148e-09
1.42476e-06
-5.36946e-09
5.68234e-09
1.42654e-06
-3.55798e-09
4.7439e-09
-1.82243e-09
3.86999e-09
1.1589e-06
-6.33229e-09
5.28126e-09
1.1657e-06
-1.71256e-08
1.39983e-08
1.16845e-06
-1.86353e-08
1.79771e-08
1.16661e-06
-1.71461e-08
1.91775e-08
1.16222e-06
-1.5359e-08
1.8874e-08
1.15655e-06
-1.37887e-08
1.75419e-08
1.1505e-06
-1.2341e-08
1.56784e-08
1.14461e-06
-1.11192e-08
1.38729e-08
1.13921e-06
-1.01345e-08
1.22614e-08
1.13442e-06
-9.34086e-09
1.08464e-08
1.13026e-06
-8.73691e-09
9.66211e-09
1.12671e-06
-8.28937e-09
8.6721e-09
1.12375e-06
-7.94994e-09
7.81157e-09
1.12141e-06
-7.6653e-09
7.0014e-09
1.11972e-06
-7.38347e-09
6.14914e-09
1.11871e-06
-6.98562e-09
5.16238e-09
1.11833e-06
-6.28411e-09
3.88273e-09
1.11808e-06
-4.79704e-09
2.12066e-09
1.11662e-06
-2.16187e-09
-3.09407e-10
3.23788e-09
-3.61026e-09
8.90375e-07
2.85253e-09
8.82487e-07
1.34081e-08
8.70361e-07
1.78661e-08
8.55116e-07
1.6953e-08
8.39989e-07
1.53358e-08
8.25546e-07
1.41621e-08
8.11787e-07
1.33655e-08
7.9881e-07
1.26513e-08
7.86764e-07
1.18464e-08
7.75667e-07
1.0974e-08
7.6539e-07
1.01217e-08
7.55799e-07
9.29808e-09
7.46803e-07
8.49361e-09
7.38392e-07
7.66963e-09
7.30644e-07
6.74467e-09
7.23876e-07
5.51652e-09
7.18585e-07
3.77609e-09
7.15199e-07
9.43284e-10
7.14291e-07
-3.83959e-09
-1.26208e-08
1.07432e-06
5.56887e-09
1.06489e-09
1.06824e-06
1.39002e-08
5.58679e-09
1.06138e-06
1.6262e-08
8.46442e-09
1.05338e-06
1.59098e-08
9.04046e-09
1.04509e-06
1.50043e-08
8.6189e-09
1.0372e-06
1.39372e-08
8.12222e-09
1.02979e-06
1.29837e-08
7.78922e-09
1.02276e-06
1.21262e-08
7.55835e-09
1.01588e-06
1.13647e-08
7.37558e-09
1.00904e-06
1.07271e-08
7.09316e-09
1.00226e-06
1.02579e-08
6.65641e-09
9.95485e-07
9.94039e-09
6.16196e-09
9.88583e-07
9.76068e-09
5.67553e-09
9.81377e-07
9.7302e-09
5.21583e-09
9.73586e-07
9.8726e-09
4.77682e-09
9.6478e-07
1.02562e-08
4.31555e-09
9.54209e-07
1.10291e-08
3.84574e-09
9.40574e-07
1.23733e-08
3.24573e-09
9.22226e-07
1.4256e-08
2.46935e-09
2.14773e-08
2.91073e-09
1.32762e-06
4.93116e-09
2.71826e-09
1.33539e-06
1.30091e-08
7.12089e-09
1.34286e-06
1.72163e-08
9.55346e-09
1.34847e-06
1.89011e-08
1.05781e-08
1.35197e-06
1.95054e-08
1.08755e-08
1.35374e-06
1.91225e-08
1.05808e-08
1.3544e-06
1.81131e-08
9.89195e-09
1.35452e-06
1.68321e-08
9.04587e-09
1.35445e-06
1.54978e-08
8.19346e-09
1.35433e-06
1.42903e-08
7.39491e-09
1.35421e-06
1.33457e-08
6.67743e-09
1.35413e-06
1.2638e-08
6.03946e-09
1.35405e-06
1.21368e-08
5.4622e-09
1.35395e-06
1.18284e-08
4.92056e-09
1.35377e-06
1.17154e-08
4.37698e-09
1.35339e-06
1.18302e-08
3.81341e-09
1.35269e-06
1.22417e-08
3.18664e-09
1.3515e-06
1.3012e-08
2.45424e-09
1.34935e-06
1.40878e-08
1.59255e-09
1.52451e-08
6.64961e-10
1.53312e-06
3.64938e-09
2.36594e-09
1.54218e-06
9.634e-09
6.23857e-09
1.55327e-06
1.36921e-08
8.87292e-09
1.56445e-06
1.59376e-08
1.03465e-08
1.57507e-06
1.69136e-08
1.08988e-08
1.5847e-06
1.6949e-08
1.07534e-08
1.59299e-06
1.63831e-08
1.01417e-08
1.60006e-06
1.54579e-08
9.32887e-09
1.60621e-06
1.43641e-08
8.45645e-09
1.6117e-06
1.32833e-08
7.63458e-09
1.61677e-06
1.23151e-08
6.90775e-09
1.62159e-06
1.14905e-08
6.27556e-09
1.62627e-06
1.08172e-08
5.7143e-09
1.63089e-06
1.02912e-08
5.19281e-09
1.6355e-06
9.90525e-09
4.69772e-09
1.64017e-06
9.65847e-09
4.20878e-09
1.64495e-06
9.5571e-09
3.7052e-09
1.64994e-06
9.59385e-09
3.16333e-09
1.65527e-06
9.6915e-09
2.57986e-09
9.66192e-09
1.97766e-09
1.68027e-06
1.89098e-09
1.8909e-09
1.68934e-06
5.09915e-09
5.09892e-09
1.7018e-06
7.46393e-09
7.46351e-09
1.71578e-06
8.94557e-09
8.94486e-09
1.73022e-06
9.69227e-09
9.69108e-09
1.74439e-06
9.86012e-09
9.85814e-09
1.75785e-06
9.65146e-09
9.64832e-09
1.77035e-06
9.19832e-09
9.19344e-09
1.78184e-06
8.61263e-09
8.60521e-09
1.7924e-06
7.98819e-09
7.97679e-09
1.8022e-06
7.39024e-09
7.37225e-09
1.81141e-06
6.85121e-09
6.82219e-09
1.82016e-06
6.38168e-09
6.33421e-09
1.82859e-06
5.97875e-09
5.90243e-09
1.83683e-06
5.62983e-09
5.51364e-09
1.845e-06
5.32636e-09
5.15956e-09
1.85322e-06
5.06096e-09
4.83394e-09
1.86163e-06
4.82053e-09
4.52995e-09
1.87034e-06
4.56828e-09
4.25035e-09
4.28634e-09
4.07623e-09
1.7569e-06
-4.75527e-14
1.61311e-09
1.76589e-06
-9.9775e-14
4.38383e-09
1.77878e-06
-1.57021e-13
6.53131e-09
1.79389e-06
-2.32503e-13
7.95037e-09
1.81003e-06
-3.25911e-13
8.75479e-09
1.82639e-06
-4.35578e-13
9.08462e-09
1.8424e-06
-5.99575e-13
9.07107e-09
1.85772e-06
-9.95612e-13
8.83512e-09
1.87216e-06
-1.68575e-12
8.46188e-09
1.88566e-06
-2.67976e-12
8.01763e-09
1.89825e-06
-3.87411e-12
7.55413e-09
1.91003e-06
-5.01372e-12
7.10949e-09
1.92115e-06
-5.62994e-12
6.71028e-09
1.93177e-06
-5.8197e-12
6.37528e-09
1.94201e-06
-7.74458e-12
6.12071e-09
1.952e-06
-1.3272e-11
5.95311e-09
1.96189e-06
-2.18473e-11
5.87377e-09
1.97178e-06
-2.77583e-11
5.87845e-09
1.98174e-06
-3.06463e-11
5.95395e-09
-3.10543e-11
6.0586e-09
1.7569e-06
-1.89091e-09
1.6132e-09
1.76589e-06
-5.09895e-09
4.38408e-09
1.77878e-06
-7.46355e-09
6.53176e-09
1.79389e-06
-8.94492e-09
7.95115e-09
1.81002e-06
-9.69116e-09
8.75603e-09
1.82638e-06
-9.85826e-09
9.08653e-09
1.84239e-06
-9.64847e-09
9.07386e-09
1.85771e-06
-9.19364e-09
8.8393e-09
1.87215e-06
-8.60547e-09
8.46818e-09
1.88564e-06
-7.97712e-09
8.02725e-09
1.89822e-06
-7.37268e-09
7.5689e-09
1.91e-06
-6.82277e-09
7.1322e-09
1.92111e-06
-6.33498e-09
6.74507e-09
1.93172e-06
-5.90344e-09
6.42815e-09
1.94196e-06
-5.51495e-09
6.20015e-09
1.95196e-06
-5.16125e-09
6.06703e-09
1.9619e-06
-4.83616e-09
6.02648e-09
1.97194e-06
-4.53286e-09
6.06595e-09
1.9822e-06
-4.2541e-09
6.15239e-09
-4.08079e-09
6.2071e-09
1.68027e-06
-3.6491e-09
1.891e-09
1.68934e-06
-9.63327e-09
5.09922e-09
1.7018e-06
-1.36907e-08
7.46405e-09
1.71578e-06
-1.59351e-08
8.94575e-09
1.73022e-06
-1.69096e-08
9.69251e-09
1.74439e-06
-1.69426e-08
9.86045e-09
1.75785e-06
-1.63732e-08
9.65187e-09
1.77035e-06
-1.54419e-08
9.19885e-09
1.78184e-06
-1.4339e-08
8.6133e-09
1.7924e-06
-1.32434e-08
7.98903e-09
1.8022e-06
-1.22506e-08
7.39128e-09
1.81141e-06
-1.13867e-08
6.85251e-09
1.82015e-06
-1.06486e-08
6.38328e-09
1.82858e-06
-1.00205e-08
5.98067e-09
1.83682e-06
-9.4794e-09
5.6321e-09
1.84499e-06
-9.00013e-09
5.32904e-09
1.85322e-06
-8.56379e-09
5.06399e-09
1.86162e-06
-8.1676e-09
4.82377e-09
1.87033e-06
-7.83963e-09
4.57144e-09
-7.8013e-09
4.28879e-09
1.53312e-06
-4.93095e-09
2.36583e-09
1.54218e-06
-1.30085e-08
6.2383e-09
1.55328e-06
-1.72151e-08
8.87244e-09
1.56445e-06
-1.88984e-08
1.03457e-08
1.57508e-06
-1.95005e-08
1.08975e-08
1.58472e-06
-1.9115e-08
1.07514e-08
1.59302e-06
-1.81013e-08
1.01385e-08
1.6001e-06
-1.68133e-08
9.32346e-09
1.60627e-06
-1.54685e-08
8.44757e-09
1.6118e-06
-1.42424e-08
7.61904e-09
1.61693e-06
-1.32634e-08
6.88106e-09
1.62184e-06
-1.24999e-08
6.23161e-09
1.62665e-06
-1.19096e-08
5.64726e-09
1.63148e-06
-1.1455e-08
5.09324e-09
1.63638e-06
-1.1098e-08
4.53937e-09
1.64141e-06
-1.08059e-08
3.94999e-09
1.64659e-06
-1.05554e-08
3.29245e-09
1.65192e-06
-1.03496e-08
2.52807e-09
1.65744e-06
-1.02536e-08
1.64231e-09
-1.06836e-08
7.31615e-10
1.32763e-06
-5.56885e-09
2.71802e-09
1.33539e-06
-1.39001e-08
7.12021e-09
1.34287e-06
-1.62615e-08
9.55224e-09
1.34848e-06
-1.59083e-08
1.05759e-08
1.35198e-06
-1.50013e-08
1.08715e-08
1.35377e-06
-1.39326e-08
1.05741e-08
1.35444e-06
-1.29768e-08
9.88091e-09
1.35459e-06
-1.2115e-08
9.02773e-09
1.35456e-06
-1.13461e-08
8.16325e-09
1.35452e-06
-1.0695e-08
7.34222e-09
1.35453e-06
-1.0203e-08
6.58807e-09
1.35466e-06
-9.84375e-09
5.89159e-09
1.35492e-06
-9.59144e-09
5.23395e-09
1.35533e-06
-9.43171e-09
4.56207e-09
1.35593e-06
-9.34192e-09
3.79886e-09
1.35668e-06
-9.27875e-09
2.87701e-09
1.35753e-06
-9.20535e-09
1.68397e-09
1.35831e-06
-9.12703e-09
1.21994e-10
1.35882e-06
-9.12518e-09
-1.95155e-09
-9.58516e-09
-4.25966e-09
1.07432e-06
1.06464e-09
1.06824e-06
5.5859e-09
1.06138e-06
8.46273e-09
1.05339e-06
9.03761e-09
1.04511e-06
8.6138e-09
1.03722e-06
8.11314e-09
1.02984e-06
7.77342e-09
1.02284e-06
7.53164e-09
1.01601e-06
7.33029e-09
1.00927e-06
7.01858e-09
1.00266e-06
6.53465e-09
9.96148e-07
5.96382e-09
9.89702e-07
5.34873e-09
9.83272e-07
4.66713e-09
9.76795e-07
3.87975e-09
9.70241e-07
2.79161e-09
9.63597e-07
1.21437e-09
9.56543e-07
-1.12971e-09
9.48291e-07
-4.71258e-09
-1.00124e-08
1.16914e-06
4.90655e-09
1.25681e-13
1.16312e-06
1.16085e-08
5.77972e-13
1.15731e-06
1.42756e-08
1.26771e-12
1.15201e-06
1.43344e-08
2.20475e-12
1.1469e-06
1.37328e-08
3.70457e-12
1.14204e-06
1.29742e-08
6.31372e-12
1.13771e-06
1.21088e-08
1.08454e-11
1.13392e-06
1.13219e-08
1.82861e-11
1.13059e-06
1.06743e-08
3.07391e-11
1.1274e-06
1.02323e-08
5.13537e-11
1.12401e-06
9.96607e-09
8.55505e-11
1.12022e-06
9.80975e-09
1.42139e-10
1.11587e-06
9.7892e-09
2.36412e-10
1.11073e-06
9.95876e-09
4.00292e-10
1.10447e-06
1.03572e-08
6.72045e-10
1.09657e-06
1.10922e-08
1.12943e-09
1.08611e-06
1.23807e-08
1.92387e-09
1.07157e-06
1.45112e-08
3.26844e-09
1.05099e-06
1.73881e-08
5.66159e-09
2.38347e-08
9.88996e-09
1.41518e-06
4.1929e-09
2.16376e-13
1.42279e-06
1.11161e-08
6.18681e-13
1.43152e-06
1.50989e-08
1.06582e-12
1.4398e-06
1.66305e-08
1.88492e-12
1.44712e-06
1.72789e-08
3.36295e-12
1.45316e-06
1.75166e-08
5.72416e-12
1.45798e-06
1.71646e-08
9.33281e-12
1.46188e-06
1.64562e-08
1.5179e-11
1.46514e-06
1.55823e-08
2.52047e-11
1.468e-06
1.47248e-08
4.27163e-11
1.47062e-06
1.39518e-08
7.163e-11
1.47302e-06
1.33244e-08
1.19394e-10
1.47514e-06
1.29411e-08
1.91218e-10
1.47691e-06
1.28094e-08
3.03539e-10
1.47827e-06
1.28885e-08
4.81634e-10
1.47914e-06
1.32782e-08
7.57111e-10
1.47943e-06
1.41056e-08
1.17295e-09
1.47913e-06
1.54896e-08
1.774e-09
1.47814e-06
1.73881e-08
2.58375e-09
1.94056e-08
3.38851e-09
1.61424e-06
3.09289e-09
1.57002e-13
1.62332e-06
8.27413e-09
3.91322e-13
1.63533e-06
1.19574e-08
6.8426e-13
1.64819e-06