/*--------------------------------*- C++ -*----------------------------------*\
| =========                 |                                                 |
| \\      /  F ield         | OpenFOAM: The Open Source CFD Toolbox           |
|  \\    /   O peration     | Version:  2212                                  |
|   \\  /    A nd           | Website:  www.openfoam.com                      |
|    \\/     M anipulation  |                                                 |
\*---------------------------------------------------------------------------*/
FoamFile
{
    version     2.0;
    format      ascii;
    arch        "LSB;label=32;scalar=64";
    class       volVectorField;
    location    "2.55";
    object      U;
}
// * * * * * * * * * * * * * * * * * * * * * * * * * * * * * * * * * * * * * //

dimensions      [0 1 -1 0 0 0 0];

internalField   nonuniform List<vector> 
6840
(
(0.0956456 -0.00836005 -0.00836005)
(0.0904939 0.00152205 0.00152198)
(0.0790684 0.00242977 0.00242964)
(0.0713015 0.00148784 0.00148757)
(0.06618 0.000830647 0.000830185)
(0.0623236 0.00056384 0.000563097)
(0.0592224 0.000426783 0.000425264)
(0.0566874 0.000324722 0.00032219)
(0.0545539 0.000254317 0.000250187)
(0.0527041 0.000204765 0.000198006)
(0.05107 0.000170093 0.000158807)
(0.0496154 0.000146326 0.000127908)
(0.0483102 0.000129128 0.000100479)
(0.0471288 0.000117659 7.24763e-05)
(0.0460683 0.000112067 3.7741e-05)
(0.0451362 0.000114377 -1.24585e-06)
(0.0443636 0.000124771 -4.59922e-05)
(0.0439098 0.000113488 -0.000191835)
(0.0444012 5.75455e-05 -0.00041241)
(0.043323 -0.0020165 -0.00299685)
(0.0999088 0.001297 0.00071255)
(0.0969669 0.00365591 0.00274721)
(0.0935347 0.00264026 0.00211806)
(0.0895896 0.00182048 0.0016204)
(0.0858328 0.00152887 0.00139033)
(0.0825912 0.00135138 0.00116085)
(0.0798671 0.00117976 0.000896557)
(0.07757 0.00104123 0.000691425)
(0.0755627 0.000944036 0.000559353)
(0.0737593 0.00086796 0.000477989)
(0.0721149 0.00079685 0.000429176)
(0.0706027 0.00072584 0.000399038)
(0.0692057 0.000660534 0.000382116)
(0.0679128 0.000606425 0.000375214)
(0.0667269 0.000556152 0.000369778)
(0.0656617 0.000504897 0.000357022)
(0.0647799 0.000429017 0.000309172)
(0.0642748 0.00023855 0.000107926)
(0.064696 -0.000116996 -0.000247496)
(0.0626088 -0.000628609 -0.000550689)
(0.099413 0.000345227 0.000270226)
(0.0988664 0.002019 0.00187486)
(0.0979217 0.00257304 0.0021889)
(0.0963664 0.00237971 0.00190819)
(0.0946345 0.00211385 0.00162641)
(0.092974 0.00192635 0.00141836)
(0.0913671 0.00180064 0.00127081)
(0.0898589 0.00170404 0.00115938)
(0.088463 0.00160255 0.0010689)
(0.0871719 0.00149062 0.000996772)
(0.0859797 0.00137769 0.000948339)
(0.084874 0.00126949 0.000919857)
(0.0838393 0.00116367 0.000906344)
(0.0828687 0.00105279 0.000902248)
(0.0819643 0.00092751 0.000901919)
(0.0811458 0.00077078 0.000891363)
(0.0804583 0.000560404 0.000856687)
(0.0799608 0.00016542 0.000738205)
(0.0797159 -0.00054591 0.000507941)
(0.0789613 -0.00226079 -3.21942e-05)
(0.0995405 0.000245012 0.000321897)
(0.0992576 0.00105546 0.00154092)
(0.0988491 0.00150201 0.00211443)
(0.0981251 0.00157885 0.00209162)
(0.0973375 0.00151378 0.00188621)
(0.096586 0.00144452 0.00166609)
(0.0958672 0.00140678 0.00149849)
(0.0952005 0.00137332 0.00137242)
(0.0945734 0.00132384 0.00128634)
(0.0939306 0.00124647 0.00123206)
(0.0933059 0.00114697 0.00119601)
(0.092698 0.00103526 0.00117498)
(0.0920989 0.000916814 0.00116752)
(0.0915034 0.000789446 0.0011721)
(0.0909062 0.000644632 0.00118589)
(0.0903016 0.000448182 0.00120517)
(0.0896888 0.000171952 0.00122733)
(0.0890588 -0.000237881 0.00126314)
(0.0883591 -0.000867701 0.0013312)
(0.0874728 -0.0018738 0.00147625)
(0.0993801 3.37479e-05 5.89188e-05)
(0.0992677 0.000274241 0.0012)
(0.0989804 0.000432056 0.00188847)
(0.0984747 0.000482904 0.00200648)
(0.0979956 0.000477868 0.00191472)
(0.0975708 0.000463798 0.00173482)
(0.0971806 0.000449809 0.00154749)
(0.0968301 0.000437132 0.00138898)
(0.0965285 0.000427357 0.00127088)
(0.0962714 0.000413417 0.00120115)
(0.0959925 0.000386205 0.0011755)
(0.095691 0.000345829 0.00117644)
(0.0953622 0.0002936 0.0011911)
(0.0949887 0.000227791 0.00121954)
(0.0945577 0.00014838 0.00127152)
(0.0940489 3.49194e-05 0.00135613)
(0.0934306 -0.00014177 0.00149113)
(0.0926419 -0.000420534 0.00169175)
(0.0916152 -0.000883598 0.00193098)
(0.0905304 -0.00160028 0.00235084)
(0.0993802 -3.37795e-05 5.89674e-05)
(0.0992677 -0.000274403 0.00120003)
(0.0989804 -0.000432396 0.00188849)
(0.0984745 -0.000483489 0.00200653)
(0.0979951 -0.000478857 0.00191484)
(0.0975699 -0.000465495 0.00173507)
(0.0971791 -0.000452732 0.00154785)
(0.0968276 -0.000442056 0.0013896)
(0.0965243 -0.000435599 0.00127201)
(0.0962642 -0.000427123 0.00120314)
(0.0959802 -0.000408925 0.00117883)
(0.09567 -0.000383335 0.00118202)
(0.095326 -0.000355671 0.00120118)
(0.0949251 -0.000332593 0.00123979)
(0.094447 -0.000322398 0.00130947)
(0.0938537 -0.000323563 0.00142127)
(0.0930956 -0.000345347 0.00160596)
(0.0920453 -0.000401534 0.00190244)
(0.090588 -0.000518198 0.00225313)
(0.0888295 -0.000541897 0.00311707)
(0.0995405 -0.000245026 0.000321899)
(0.0992576 -0.00105553 0.00154093)
(0.0988489 -0.00150215 0.00211451)
(0.0981246 -0.00157909 0.00209176)
(0.0973365 -0.00151426 0.00188642)
(0.0965841 -0.00144542 0.00166642)
(0.0958638 -0.0014083 0.00149891)
(0.0951948 -0.00137577 0.00137315)
(0.0945636 -0.00132794 0.00128786)
(0.0939139 -0.00125293 0.00123528)
(0.0932779 -0.00115702 0.00120191)
(0.0926508 -0.00105084 0.00118608)
(0.0920195 -0.000942058 0.00118644)
(0.0913687 -0.000830747 0.00120451)
(0.0906782 -0.000708851 0.00124447)
(0.0899179 -0.000562734 0.00131606)
(0.0890375 -0.000378767 0.00143954)
(0.0879252 -9.76215e-05 0.00164979)
(0.0864875 0.000303913 0.00192874)
(0.0850525 0.000443287 0.00339986)
(0.099413 -0.000345213 0.000270232)
(0.0988664 -0.00201894 0.00187491)
(0.0979215 -0.00257292 0.00218904)
(0.0963659 -0.00237951 0.00190844)
(0.0946335 -0.00211353 0.00162676)
(0.0929722 -0.00192581 0.00141887)
(0.0913639 -0.00179983 0.00127165)
(0.0898534 -0.00170269 0.0011608)
(0.0884537 -0.00160026 0.00107121)
(0.0871563 -0.00148677 0.00100061)
(0.0859538 -0.00137121 0.000954455)
(0.0848308 -0.00125881 0.000930471)
(0.0837677 -0.00114661 0.000924752)
(0.0827501 -0.00102611 0.000934024)
(0.0817677 -0.000886018 0.000958145)
(0.080814 -0.000710364 0.000998252)
(0.0798802 -0.000471116 0.00105778)
(0.0789318 -4.43978e-05 0.00114058)
(0.0778995 0.000697739 0.00130435)
(0.0766006 0.00213268 0.00142419)
(0.0999088 -0.00129699 0.000712561)
(0.0969669 -0.0036558 0.00274727)
(0.0935346 -0.00264007 0.00211818)
(0.0895894 -0.00182015 0.00162064)
(0.0858324 -0.00152823 0.00139067)
(0.0825905 -0.00135038 0.00116146)
(0.0798657 -0.00117789 0.000897612)
(0.0775676 -0.001038 0.000693091)
(0.0755586 -0.000938509 0.000562091)
(0.0737522 -0.000858569 0.000482538)
(0.0721025 -0.000780948 0.000437773)
(0.0705808 -0.000699628 0.000413568)
(0.0691686 -0.000618147 0.000400493)
(0.0678529 -0.000536277 0.000397026)
(0.0666279 -0.00043898 0.000405135)
(0.0654941 -0.000307186 0.000422308)
(0.0644799 -0.000101298 0.000435965)
(0.0637077 0.000283778 0.000362548)
(0.0635391 0.00106013 0.000124925)
(0.0625422 0.00388093 -0.00180644)
(0.0956456 0.00836005 -0.00836005)
(0.0904939 -0.00152198 0.00152204)
(0.0790684 -0.00242963 0.00242977)
(0.0713015 -0.00148757 0.00148784)
(0.06618 -0.000830188 0.000830647)
(0.0623236 -0.000563102 0.000563841)
(0.0592224 -0.000425271 0.000426783)
(0.0566873 -0.000322197 0.000324721)
(0.0545538 -0.000250197 0.000254315)
(0.052704 -0.000198017 0.00020476)
(0.0510699 -0.000158823 0.000170086)
(0.0496152 -0.00012792 0.00014631)
(0.0483099 -0.000100505 0.00012913)
(0.0471285 -7.24685e-05 0.000117655)
(0.0460679 -3.76856e-05 0.000112056)
(0.0451356 1.26141e-06 0.000114408)
(0.0443628 4.60018e-05 0.000124829)
(0.0439087 0.000191851 0.000113553)
(0.0443999 0.000412484 5.76086e-05)
(0.0433216 0.00299721 -0.00201635)
(0.0999088 0.00071256 0.00129699)
(0.0969669 0.00274727 0.00365579)
(0.0935346 0.00211818 0.00264006)
(0.0895894 0.00162063 0.00182014)
(0.0858324 0.00139066 0.00152822)
(0.0825905 0.00116146 0.00135036)
(0.0798658 0.000897606 0.00117788)
(0.0775676 0.000693085 0.00103798)
(0.0755586 0.000562084 0.000938483)
(0.0737523 0.000482531 0.000858536)
(0.0721026 0.00043777 0.000780905)
(0.070581 0.000413565 0.000699572)
(0.0691689 0.000400482 0.000618071)
(0.0678531 0.000396979 0.000536174)
(0.0666286 0.000405076 0.000438918)
(0.0654949 0.000422247 0.000307119)
(0.064481 0.000435882 0.0001012)
(0.0637093 0.00036241 -0.000283884)
(0.0635412 0.000124673 -0.00106017)
(0.0625453 -0.00180701 -0.00388076)
(0.100226 0.00072082 0.000720794)
(0.0999601 0.00198273 0.00198263)
(0.0997824 0.0024519 0.00245166)
(0.0987885 0.00241972 0.0024193)
(0.0972761 0.00220101 0.00220036)
(0.0957756 0.00181202 0.00181086)
(0.0943943 0.00138329 0.00138142)
(0.0931664 0.00107147 0.00106833)
(0.0920811 0.000856191 0.000850847)
(0.091122 0.000705524 0.000696406)
(0.0902745 0.000596274 0.000580169)
(0.089516 0.000515649 0.000489564)
(0.0888284 0.000458065 0.000419129)
(0.0882143 0.000417284 0.000357877)
(0.0876797 0.000384107 0.000287035)
(0.0872343 0.000354606 0.000198237)
(0.0868923 0.000319582 5.99965e-05)
(0.0866416 0.000230001 -0.000190484)
(0.0862945 -9.54872e-05 -0.000717234)
(0.0862679 -0.00107331 -0.00194624)
(0.10014 0.000775007 0.000869229)
(0.100454 0.00196236 0.00196348)
(0.100911 0.00242742 0.00233434)
(0.100979 0.00252644 0.00244101)
(0.100695 0.00242608 0.00233646)
(0.100225 0.00219719 0.00211217)
(0.0997107 0.00191612 0.00182284)
(0.0991867 0.00166474 0.00157483)
(0.0986942 0.001461 0.00138876)
(0.0982504 0.00129324 0.00124852)
(0.0978633 0.00115396 0.00114465)
(0.0975306 0.00103757 0.00106947)
(0.0972497 0.000937366 0.00101285)
(0.0970205 0.000844598 0.000965201)
(0.0968454 0.000749987 0.000920724)
(0.096728 0.000640844 0.000867091)
(0.0966684 0.000494419 0.000780511)
(0.096651 0.000282179 0.000635196)
(0.0965966 -3.71117e-05 0.000412938)
(0.0967135 -0.000544379 0.000131223)
(0.100093 0.000445893 0.000763194)
(0.100504 0.00119437 0.001749)
(0.101105 0.00158658 0.00212951)
(0.101635 0.00174004 0.00223462)
(0.10198 0.00178163 0.00228708)
(0.102172 0.001728 0.0022361)
(0.102254 0.00160642 0.00211631)
(0.102279 0.00145753 0.00196539)
(0.102282 0.00130057 0.00180367)
(0.102276 0.00114909 0.00165552)
(0.102272 0.00101572 0.0015487)
(0.102276 0.000898606 0.00147519)
(0.102291 0.000790083 0.00142614)
(0.102316 0.000680737 0.00139665)
(0.102353 0.000557647 0.00138334)
(0.102405 0.00041117 0.00138318)
(0.102467 0.000223995 0.00139395)
(0.102531 -2.40953e-05 0.00141749)
(0.102584 -0.000344622 0.00146893)
(0.102737 -0.000695806 0.00161502)
(0.100087 0.000144348 0.000707008)
(0.100477 0.000390377 0.00161776)
(0.101066 0.000540902 0.00203462)
(0.101694 0.000609801 0.00211764)
(0.102269 0.000635396 0.00215036)
(0.102742 0.000625761 0.00218027)
(0.103124 0.000593076 0.00213497)
(0.103427 0.000546482 0.00204592)
(0.103679 0.000499231 0.00193822)
(0.103896 0.000453207 0.00183527)
(0.10409 0.000403986 0.00174142)
(0.104274 0.000351486 0.00166279)
(0.104447 0.00029765 0.00161735)
(0.104598 0.000237657 0.00160785)
(0.104731 0.000165355 0.00162375)
(0.104845 7.49454e-05 0.00167134)
(0.104931 -4.59037e-05 0.00176853)
(0.104981 -0.00021041 0.0019292)
(0.104995 -0.000428395 0.00214963)
(0.105213 -0.000669282 0.00242861)
(0.100087 -0.000144401 0.000707014)
(0.100477 -0.000390534 0.00161778)
(0.101065 -0.000541177 0.00203463)
(0.101694 -0.000610273 0.0021177)
(0.102268 -0.000636234 0.00215058)
(0.102741 -0.000627192 0.00218068)
(0.103122 -0.000595395 0.0021356)
(0.103425 -0.00055025 0.0020469)
(0.103676 -0.000505519 0.00193973)
(0.10389 -0.000463859 0.00183774)
(0.104082 -0.000421787 0.00174538)
(0.10426 -0.000380889 0.00166977)
(0.104422 -0.000344534 0.00163007)
(0.104558 -0.000312336 0.00162948)
(0.10467 -0.000283657 0.00165895)
(0.104753 -0.000260297 0.00173693)
(0.104795 -0.000241725 0.00188516)
(0.10479 -0.000228085 0.00212957)
(0.104755 -0.000219572 0.00247483)
(0.105001 -0.000197315 0.0028495)
(0.100093 -0.000445901 0.000763206)
(0.100504 -0.0011944 0.00174904)
(0.101105 -0.00158664 0.00212962)
(0.101634 -0.00174017 0.00223497)
(0.101979 -0.00178186 0.00228775)
(0.102171 -0.00172834 0.00223706)
(0.102251 -0.001607 0.00211777)
(0.102274 -0.00145849 0.00196763)
(0.102275 -0.00130201 0.00180706)
(0.102265 -0.00115169 0.00166099)
(0.102253 -0.00101998 0.00155823)
(0.102246 -0.000905528 0.0014915)
(0.10224 -0.000799146 0.00145395)
(0.102234 -0.000693182 0.00144418)
(0.102224 -0.000578601 0.00146448)
(0.102205 -0.000448395 0.0015226)
(0.102165 -0.000286835 0.00163539)
(0.102091 -7.19543e-05 0.00182083)
(0.101985 0.00021755 0.00207613)
(0.102228 0.000538225 0.00235084)
(0.10014 -0.00077498 0.000869262)
(0.100454 -0.00196228 0.00196362)
(0.100911 -0.00242729 0.00233463)
(0.100978 -0.00252616 0.00244151)
(0.100694 -0.0024256 0.0023372)
(0.100224 -0.00219636 0.00211318)
(0.0997089 -0.00191481 0.00182442)
(0.0991837 -0.00166271 0.00157758)
(0.098689 -0.00145752 0.00139341)
(0.0982415 -0.00128722 0.00125624)
(0.0978485 -0.00114421 0.00115757)
(0.097506 -0.00102122 0.00109078)
(0.0972109 -0.0009094 0.00104782)
(0.0969614 -0.000798105 0.00102193)
(0.0967559 -0.000677299 0.00101369)
(0.0965964 -0.00053047 0.0010215)
(0.0964853 -0.000333848 0.00104471)
(0.0964229 -5.38346e-05 0.00108069)
(0.0964123 0.000354766 0.00110708)
(0.0966197 0.000907801 0.000998943)
(0.100226 -0.000720795 0.00072082)
(0.0999601 -0.00198263 0.00198273)
(0.0997824 -0.00245167 0.00245191)
(0.0987884 -0.00241931 0.00241972)
(0.097276 -0.00220036 0.00220102)
(0.0957756 -0.00181086 0.00181202)
(0.0943942 -0.00138142 0.0013833)
(0.0931663 -0.00106833 0.00107148)
(0.092081 -0.000850858 0.000856208)
(0.0911219 -0.000696419 0.000705543)
(0.0902743 -0.000580185 0.000596295)
(0.0895158 -0.000489587 0.00051568)
(0.0888281 -0.000419247 0.000458203)
(0.0882139 -0.000357893 0.000417328)
(0.0876793 -0.000286868 0.000384023)
(0.0872337 -0.000198215 0.000354674)
(0.0868916 -6.00529e-05 0.00031969)
(0.0866407 0.000190404 0.000230152)
(0.0862933 0.000717149 -9.5299e-05)
(0.0862664 0.00194579 -0.00107267)
(0.0999088 -0.00071255 0.001297)
(0.0969669 -0.00274721 0.00365591)
(0.0935347 -0.00211806 0.00264025)
(0.0895896 -0.0016204 0.00182048)
(0.0858328 -0.00139033 0.00152887)
(0.0825912 -0.00116085 0.00135138)
(0.079867 -0.000896555 0.00117977)
(0.0775699 -0.000691423 0.00104124)
(0.0755626 -0.000559351 0.000944047)
(0.0737591 -0.000477986 0.000867973)
(0.0721147 -0.000429169 0.000796864)
(0.0706025 -0.000399029 0.000725857)
(0.0692053 -0.000382089 0.000660558)
(0.0679126 -0.000375237 0.000606551)
(0.0667263 -0.000369818 0.000556342)
(0.0656608 -0.000357031 0.000505105)
(0.0647788 -0.000309167 0.00042927)
(0.0642734 -0.000107923 0.000238786)
(0.0646942 0.000247429 -0.000116539)
(0.062606 0.000550752 -0.000628258)
(0.099413 0.000270232 0.000345211)
(0.0988664 0.00187491 0.00201894)
(0.0979215 0.00218904 0.00257291)
(0.0963659 0.00190844 0.0023795)
(0.0946335 0.00162676 0.00211352)
(0.0929722 0.00141886 0.0019258)
(0.0913639 0.00127165 0.00179982)
(0.0898535 0.0011608 0.00170267)
(0.0884537 0.00107121 0.00160023)
(0.0871564 0.0010006 0.00148673)
(0.085954 0.000954451 0.00137117)
(0.0848309 0.000930461 0.00125875)
(0.0837679 0.000924746 0.00114655)
(0.0827504 0.000933976 0.00102601)
(0.0817683 0.000958021 0.000885843)
(0.0808148 0.000998074 0.000710141)
(0.0798814 0.00105751 0.000470815)
(0.0789334 0.00114012 4.40038e-05)
(0.077902 0.00130354 -0.000698229)
(0.0766043 0.00142316 -0.00213298)
(0.10014 0.000869262 0.000774979)
(0.100454 0.00196361 0.00196228)
(0.100911 0.00233462 0.00242728)
(0.100978 0.0024415 0.00252616)
(0.100694 0.00233719 0.0024256)
(0.100224 0.00211317 0.00219635)
(0.099709 0.0018244 0.00191479)
(0.0991837 0.00157756 0.00166269)
(0.0986891 0.00139339 0.00145749)
(0.0982416 0.00125621 0.00128719)
(0.0978486 0.00115753 0.00114417)
(0.0975062 0.00109072 0.00102114)
(0.0972112 0.0010477 0.000909268)
(0.0969617 0.00102191 0.000798064)
(0.0967563 0.00101369 0.000677291)
(0.0965968 0.00102131 0.000530309)
(0.0964858 0.00104436 0.000333549)
(0.0964235 0.00108024 5.34377e-05)
(0.0964131 0.00110654 -0.00035525)
(0.0966206 0.000997998 -0.000908628)
(0.10006 0.0006414 0.000641357)
(0.100502 0.00164505 0.00164493)
(0.101149 0.00221243 0.00221219)
(0.101738 0.00244003 0.00243962)
(0.102205 0.00244216 0.00244149)
(0.102502 0.00231394 0.00231289)
(0.102646 0.00209323 0.00209148)
(0.102716 0.00187016 0.00186736)
(0.102743 0.001673 0.0016684)
(0.102759 0.00150803 0.00150052)
(0.102782 0.00137192 0.00135971)
(0.102822 0.00126051 0.00124083)
(0.102885 0.00116975 0.00113819)
(0.102975 0.00109486 0.00104477)
(0.103093 0.00103069 0.000952465)
(0.103241 0.000971211 0.000851349)
(0.103413 0.000908376 0.000729733)
(0.103598 0.00082933 0.000576087)
(0.103783 0.000715647 0.000387377)
(0.104119 0.000593002 0.000254542)
(0.100046 0.000395691 0.000540219)
(0.10048 0.00104478 0.00138403)
(0.101154 0.00147522 0.00192284)
(0.101913 0.00170501 0.00219237)
(0.102632 0.00177973 0.00229381)
(0.103302 0.00174435 0.00227791)
(0.103895 0.00163349 0.00218518)
(0.104392 0.00149044 0.00205201)
(0.10482 0.0013433 0.00190435)
(0.1052 0.00120698 0.00176499)
(0.105545 0.00108581 0.00164288)
(0.105871 0.000979699 0.00153958)
(0.106187 0.000885215 0.00145427)
(0.1065 0.000797507 0.0013845)
(0.106817 0.000713127 0.00132675)
(0.107141 0.000626024 0.0012776)
(0.107474 0.000530033 0.00123515)
(0.107817 0.00041885 0.00120039)
(0.108179 0.000290481 0.00117823)
(0.108639 0.00015149 0.00120695)
(0.100039 0.000131301 0.000478759)
(0.100448 0.000350406 0.00123475)
(0.101114 0.00050492 0.00174645)
(0.101909 0.000596927 0.0020268)
(0.102728 0.000638179 0.0021521)
(0.103529 0.000637614 0.00218653)
(0.104298 0.000603492 0.00215356)
(0.105007 0.000557618 0.00208003)
(0.105642 0.000507538 0.00198215)
(0.106216 0.000457886 0.00187645)
(0.106738 0.000411068 0.00177524)
(0.107219 0.000367376 0.00168714)
(0.10767 0.000325801 0.00161895)
(0.108102 0.000283634 0.0015733)
(0.10852 0.000238172 0.00154958)
(0.108922 0.000187223 0.00154872)
(0.109313 0.000128291 0.00157682)
(0.1097 5.83618e-05 0.00163895)
(0.110105 -1.9803e-05 0.00172791)
(0.110613 -9.09865e-05 0.00183745)
(0.100039 -0.000131337 0.000478774)
(0.100448 -0.000350503 0.0012348)
(0.101114 -0.000505091 0.00174654)
(0.101909 -0.00059721 0.00202695)
(0.102728 -0.000638643 0.00215238)
(0.103528 -0.000638352 0.00218699)
(0.104297 -0.000604703 0.00215426)
(0.105006 -0.000559529 0.00208112)
(0.10564 -0.000510619 0.00198386)
(0.106212 -0.000462902 0.00187923)
(0.106733 -0.000419163 0.00177988)
(0.107212 -0.00038017 0.00169496)
(0.107659 -0.000345366 0.00163185)
(0.108086 -0.000312877 0.00159369)
(0.108497 -0.000282784 0.00158177)
(0.108891 -0.000255903 0.00160002)
(0.109275 -0.000230409 0.00165706)
(0.109664 -0.000203071 0.00175907)
(0.110089 -0.000172282 0.00189466)
(0.110633 -0.000134341 0.00203719)
(0.100046 -0.000395682 0.000540258)
(0.10048 -0.00104476 0.00138414)
(0.101154 -0.00147518 0.00192306)
(0.101913 -0.00170496 0.00219276)
(0.102632 -0.00177962 0.00229445)
(0.103301 -0.00174414 0.00227895)
(0.103893 -0.00163311 0.00218681)
(0.10439 -0.00148983 0.00205467)
(0.104817 -0.00134229 0.0019085)
(0.105194 -0.00120547 0.00177153)
(0.105537 -0.00108351 0.00165354)
(0.105858 -0.000976167 0.00155682)
(0.106166 -0.000879206 0.00148251)
(0.106469 -0.000787605 0.00143032)
(0.10677 -0.000698859 0.0013999)
(0.107073 -0.000606728 0.00139326)
(0.10738 -0.000505159 0.00141429)
(0.107696 -0.000389816 0.00146505)
(0.108044 -0.000262049 0.00153501)
(0.108543 -0.00013422 0.00159586)
(0.10006 -0.000641358 0.000641401)
(0.100502 -0.00164493 0.00164506)
(0.101149 -0.00221219 0.00221244)
(0.101738 -0.00243963 0.00244005)
(0.102205 -0.00244149 0.00244218)
(0.102502 -0.0023129 0.00231396)
(0.102646 -0.00209149 0.00209326)
(0.102716 -0.00186737 0.0018702)
(0.102743 -0.00166842 0.00167304)
(0.102759 -0.00150055 0.00150809)
(0.102782 -0.00135974 0.001372)
(0.102822 -0.00124087 0.00126062)
(0.102885 -0.00113826 0.00116989)
(0.102974 -0.00104484 0.00109501)
(0.103093 -0.000952547 0.00103085)
(0.10324 -0.00085149 0.000971433)
(0.103412 -0.000729949 0.000908661)
(0.103598 -0.0005764 0.000829667)
(0.103782 -0.000387819 0.000716016)
(0.104119 -0.000255296 0.000593532)
(0.10014 -0.00086923 0.000775007)
(0.100454 -0.00196348 0.00196236)
(0.100911 -0.00233434 0.00242743)
(0.100979 -0.00244101 0.00252645)
(0.100695 -0.00233647 0.0024261)
(0.100225 -0.00211217 0.00219721)
(0.0997107 -0.00182284 0.00191615)
(0.0991867 -0.00157484 0.00166477)
(0.0986941 -0.00138876 0.00146105)
(0.0982503 -0.00124852 0.0012933)
(0.0978632 -0.00114466 0.00115403)
(0.0975304 -0.00106946 0.00103765)
(0.0972494 -0.00101283 0.000937471)
(0.0970201 -0.00096522 0.000844783)
(0.096845 -0.00092081 0.00075025)
(0.0967275 -0.000867156 0.000641121)
(0.0966678 -0.000780559 0.000494703)
(0.0966503 -0.000635248 0.000282493)
(0.0965957 -0.000413019 -3.67447e-05)
(0.0967122 -0.00013161 -0.000543743)
(0.099413 -0.000270226 0.000345226)
(0.0988664 -0.00187486 0.002019)
(0.0979217 -0.0021889 0.00257304)
(0.0963664 -0.00190819 0.00237972)
(0.0946344 -0.00162641 0.00211386)
(0.092974 -0.00141836 0.00192637)
(0.091367 -0.00127081 0.00180067)
(0.0898589 -0.00115937 0.00170407)
(0.0884629 -0.0010689 0.00160259)
(0.0871718 -0.000996769 0.00149068)
(0.0859795 -0.000948334 0.00137777)
(0.0848738 -0.000919843 0.00126958)
(0.083839 -0.000906303 0.00116377)
(0.0828682 -0.000902236 0.00105298)
(0.0819638 -0.000901979 0.000927854)
(0.0811451 -0.000891432 0.0007712)
(0.0804574 -0.000856734 0.000560859)
(0.0799596 -0.000738238 0.00016608)
(0.0797144 -0.000507984 -0.000545064)
(0.0789588 3.26696e-05 -0.00225998)
(0.0995405 0.000321899 0.000245025)
(0.0992576 0.00154093 0.00105553)
(0.0988489 0.00211451 0.00150215)
(0.0981246 0.00209176 0.00157909)
(0.0973365 0.00188642 0.00151425)
(0.0965841 0.00166641 0.0014454)
(0.0958638 0.00149891 0.00140827)
(0.0951948 0.00137315 0.00137574)
(0.0945636 0.00128786 0.0013279)
(0.093914 0.00123527 0.00125288)
(0.093278 0.0012019 0.00115695)
(0.092651 0.00118605 0.00105075)
(0.0920197 0.00118639 0.000941944)
(0.091369 0.00120441 0.000830562)
(0.0906787 0.0012443 0.000708586)
(0.0899185 0.00131581 0.000562427)
(0.0890385 0.00143916 0.000378373)
(0.0879266 0.00164912 9.71185e-05)
(0.0864896 0.0019277 -0.000304637)
(0.0850553 0.00339948 -0.000443939)
(0.100093 0.000763206 0.000445899)
(0.100504 0.00174903 0.00119439)
(0.101105 0.00212962 0.00158663)
(0.101634 0.00223497 0.00174016)
(0.101979 0.00228774 0.00178184)
(0.102171 0.00223705 0.00172832)
(0.102251 0.00211775 0.00160697)
(0.102274 0.00196761 0.00145846)
(0.102275 0.00180704 0.00130197)
(0.102265 0.00166095 0.00115163)
(0.102254 0.00155818 0.00101991)
(0.102246 0.00149142 0.000905425)
(0.10224 0.00145382 0.000799001)
(0.102234 0.00144408 0.000693056)
(0.102224 0.00146435 0.000578464)
(0.102205 0.00152231 0.000448143)
(0.102166 0.00163489 0.000286438)
(0.102091 0.00182006 7.13688e-05)
(0.101985 0.00207503 -0.000218404)
(0.102228 0.00234965 -0.000539381)
(0.100046 0.000540258 0.00039568)
(0.10048 0.00138414 0.00104476)
(0.101154 0.00192305 0.00147517)
(0.101913 0.00219274 0.00170495)
(0.102632 0.00229444 0.00177961)
(0.103301 0.00227893 0.00174412)
(0.103893 0.00218678 0.0016331)
(0.10439 0.00205462 0.00148981)
(0.104817 0.00190845 0.00134225)
(0.105194 0.00177146 0.00120543)
(0.105537 0.00165345 0.00108345)
(0.105858 0.0015567 0.000976089)
(0.106166 0.00148236 0.000879105)
(0.106469 0.00143017 0.000787494)
(0.10677 0.00139972 0.000698715)
(0.107073 0.00139299 0.000606505)
(0.10738 0.00141393 0.000504835)
(0.107696 0.00146461 0.000389358)
(0.108044 0.00153452 0.000261392)
(0.108542 0.00159539 0.000133212)
(0.100036 0.000323141 0.000323114)
(0.100429 0.000868661 0.00086859)
(0.10108 0.00126237 0.00126224)
(0.101891 0.00150434 0.00150412)
(0.102756 0.00162152 0.00162116)
(0.103616 0.00164271 0.00164215)
(0.104446 0.00160469 0.00160383)
(0.105224 0.0015265 0.00152514)
(0.105939 0.00142718 0.00142502)
(0.106594 0.00132267 0.00131926)
(0.1072 0.00122356 0.00121814)
(0.107764 0.00113497 0.00112635)
(0.108297 0.0010586 0.00104496)
(0.108808 0.000994426 0.000973095)
(0.109303 0.000941728 0.000909127)
(0.109791 0.000899491 0.000851055)
(0.110277 0.000866485 0.000797131)
(0.110771 0.000839972 0.000746412)
(0.11129 0.000814187 0.000700742)
(0.111892 0.000781735 0.000675752)
(0.100031 0.000107066 0.000281368)
(0.100395 0.000293014 0.000768592)
(0.101024 0.000434026 0.00113301)
(0.101843 0.000526146 0.00136911)
(0.102751 0.000576231 0.00150131)
(0.103688 0.000591581 0.0015541)
(0.104617 0.000582113 0.00154915)
(0.105515 0.000557368 0.00150831)
(0.106366 0.000523548 0.00144482)
(0.107163 0.000486163 0.00136898)
(0.107906 0.000449455 0.00128953)
(0.108599 0.000415742 0.00121328)
(0.10925 0.000385826 0.00114513)
(0.109868 0.00035918 0.00108877)
(0.110461 0.000333728 0.00104761)
(0.111037 0.0003088 0.00102266)
(0.111601 0.000284214 0.00101351)
(0.112162 0.000260499 0.0010182)
(0.11274 0.000236683 0.00103349)
(0.113389 0.000215672 0.00105527)
(0.100031 -0.000107072 0.000281382)
(0.100395 -0.000293031 0.000768632)
(0.101024 -0.000434053 0.00113308)
(0.101843 -0.000526186 0.00136925)
(0.102751 -0.000576286 0.00150154)
(0.103688 -0.000591649 0.00155444)
(0.104617 -0.000582197 0.00154964)
(0.105515 -0.000557517 0.00150904)
(0.106366 -0.00052382 0.00144596)
(0.107162 -0.000486616 0.00137076)
(0.107905 -0.000450118 0.00129233)
(0.108598 -0.000416574 0.00121765)
(0.109248 -0.00038666 0.00115188)
(0.109866 -0.000359846 0.00109914)
(0.110458 -0.000334578 0.00106353)
(0.111034 -0.00031078 0.00104628)
(0.111599 -0.000288442 0.00104661)
(0.112166 -0.000267198 0.00106125)
(0.112756 -0.000246691 0.00108316)
(0.113418 -0.000231573 0.00109869)
(0.100036 -0.000323115 0.000323142)
(0.100429 -0.000868593 0.000868668)
(0.10108 -0.00126225 0.00126238)
(0.101891 -0.00150412 0.00150436)
(0.102756 -0.00162117 0.00162154)
(0.103616 -0.00164217 0.00164275)
(0.104446 -0.00160385 0.00160473)
(0.105224 -0.00152516 0.00152656)
(0.105939 -0.00142505 0.00142725)
(0.106594 -0.0013193 0.00132276)
(0.1072 -0.00121818 0.00122367)
(0.107764 -0.00112641 0.00113511)
(0.108297 -0.00104504 0.00105877)
(0.108808 -0.000973203 0.000994627)
(0.109303 -0.000909273 0.000941962)
(0.109791 -0.000851247 0.00089977)
(0.110277 -0.000797389 0.000866803)
(0.11077 -0.000746764 0.000840304)
(0.11129 -0.000701222 0.000814491)
(0.111892 -0.000676379 0.000781923)
(0.100046 -0.00054022 0.000395693)
(0.10048 -0.00138403 0.00104479)
(0.101154 -0.00192285 0.00147523)
(0.101913 -0.00219238 0.00170503)
(0.102632 -0.00229382 0.00177976)
(0.103302 -0.00227792 0.00174438)
(0.103895 -0.0021852 0.00163354)
(0.104392 -0.00205202 0.0014905)
(0.10482 -0.00190437 0.00134337)
(0.1052 -0.00176501 0.00120708)
(0.105545 -0.00164291 0.00108592)
(0.105871 -0.00153961 0.000979842)
(0.106187 -0.00145431 0.000885395)
(0.1065 -0.00138457 0.000797732)
(0.106817 -0.00132685 0.000713389)
(0.107141 -0.00127771 0.000626323)
(0.107474 -0.0012353 0.000530372)
(0.107816 -0.00120059 0.00041921)
(0.108178 -0.00117853 0.00029085)
(0.108639 -0.00120751 0.000151886)
(0.100093 -0.000763195 0.000445893)
(0.100504 -0.001749 0.00119437)
(0.101105 -0.00212952 0.00158659)
(0.101635 -0.00223462 0.00174005)
(0.10198 -0.00228709 0.00178165)
(0.102172 -0.0022361 0.00172803)
(0.102254 -0.00211631 0.00160646)
(0.102279 -0.00196539 0.00145759)
(0.102282 -0.00180368 0.00130064)
(0.102276 -0.00165552 0.00114918)
(0.102272 -0.0015487 0.00101584)
(0.102276 -0.00147518 0.000898752)
(0.102291 -0.0014261 0.000790267)
(0.102315 -0.00139668 0.00068102)
(0.102353 -0.00138341 0.000558017)
(0.102405 -0.00138318 0.000411578)
(0.102466 -0.00139389 0.000224461)
(0.102531 -0.00141738 -2.35625e-05)
(0.102583 -0.00146885 -0.000343984)
(0.102735 -0.00161553 -0.000694725)
(0.0995405 -0.000321897 0.000245012)
(0.0992576 -0.00154092 0.00105546)
(0.098849 -0.00211443 0.00150202)
(0.0981251 -0.00209162 0.00157886)
(0.0973375 -0.00188621 0.0015138)
(0.096586 -0.00166609 0.00144455)
(0.0958671 -0.00149849 0.00140682)
(0.0952004 -0.00137242 0.00137338)
(0.0945733 -0.00128634 0.00132392)
(0.0939305 -0.00123206 0.00124658)
(0.0933057 -0.00119601 0.00114711)
(0.0926978 -0.00117498 0.00103544)
(0.0920987 -0.00116751 0.000917046)
(0.091503 -0.00117208 0.000789757)
(0.0909059 -0.00118587 0.000645046)
(0.0903011 -0.00120513 0.000448718)
(0.0896882 -0.00122725 0.00017264)
(0.0890581 -0.00126297 -0.000237006)
(0.0883582 -0.00133093 -0.000866581)
(0.0874717 -0.00147557 -0.00187192)
(0.0993802 5.89662e-05 3.37789e-05)
(0.0992677 0.00120003 0.0002744)
(0.0989804 0.00188849 0.000432391)
(0.0984745 0.00200653 0.000483481)
(0.0979952 0.00191484 0.000478844)
(0.09757 0.00173506 0.000465477)
(0.0971792 0.00154785 0.000452708)
(0.0968276 0.00138959 0.000442024)
(0.0965243 0.001272 0.000435558)
(0.0962642 0.00120312 0.00042707)
(0.0959802 0.00117881 0.000408857)
(0.0956701 0.00118199 0.000383248)
(0.0953261 0.00120113 0.000355554)
(0.0949253 0.00123968 0.000332413)
(0.0944474 0.00130928 0.000322145)
(0.0938542 0.00142097 0.000323248)
(0.0930963 0.00160552 0.000344954)
(0.0920464 0.00190166 0.000401071)
(0.0905897 0.00225166 0.00051763)
(0.088831 0.003117 0.000541491)
(0.100087 0.000707014 0.0001444)
(0.100477 0.00161778 0.00039053)
(0.101065 0.00203463 0.00054117)
(0.101694 0.0021177 0.000610263)
(0.102268 0.00215057 0.00063622)
(0.102741 0.00218066 0.000627173)
(0.103122 0.00213558 0.000595369)
(0.103425 0.00204687 0.000550215)
(0.103676 0.00193969 0.000505473)
(0.103891 0.0018377 0.000463798)
(0.104082 0.00174532 0.000421705)
(0.10426 0.00166968 0.000380779)
(0.104423 0.00162993 0.000344388)
(0.104558 0.0016293 0.000312162)
(0.10467 0.00165872 0.00028345)
(0.104753 0.00173657 0.000260011)
(0.104795 0.00188459 0.00024134)
(0.10479 0.0021287 0.000227581)
(0.104754 0.00247363 0.000218933)
(0.105 0.00284842 0.000196639)
(0.100039 0.000478774 0.000131335)
(0.100448 0.0012348 0.0003505)