/*--------------------------------*- C++ -*----------------------------------*\
| =========                 |                                                 |
| \\      /  F ield         | OpenFOAM: The Open Source CFD Toolbox           |
|  \\    /   O peration     | Version:  2212                                  |
|   \\  /    A nd           | Website:  www.openfoam.com                      |
|    \\/     M anipulation  |                                                 |
\*---------------------------------------------------------------------------*/
FoamFile
{
    version     2.0;
    format      ascii;
    arch        "LSB;label=32;scalar=64";
    class       surfaceVectorField;
    location    "2.55";
    object      Uf;
}
// * * * * * * * * * * * * * * * * * * * * * * * * * * * * * * * * * * * * * //

dimensions      [0 1 -1 0 0 0 0];

internalField   nonuniform List<vector> 
19019
(
(0.0993441 -0.003419 -0.00341904)
(0.0973536 0.00106248 -0.00148428)
(0.0973536 -0.00148428 0.00106246)
(0.0834792 0.00197591 0.00197581)
(0.0930872 0.00326902 0.00253345)
(0.0930872 0.0025335 0.00326892)
(0.0745173 0.0019588 0.0019586)
(0.0848642 0.0016359 0.00179231)
(0.0848641 0.00179241 0.00163571)
(0.0685482 0.00115924 0.00115888)
(0.0786284 0.00107362 0.00122128)
(0.0786283 0.00122151 0.00107328)
(0.0642368 0.000697244 0.000696641)
(0.0740537 0.000785542 0.000865032)
(0.0740535 0.000865391 0.000784921)
(0.0607578 0.000495312 0.000494181)
(0.0704436 0.00065083 0.000669215)
(0.0704433 0.000669824 0.00064984)
(0.0579391 0.000375753 0.000373727)
(0.0674935 0.000547399 0.000508422)
(0.0674929 0.00050961 0.000545489)
(0.0556167 0.000289519 0.000286189)
(0.0650538 0.000469962 0.000387356)
(0.0650528 0.000389277 0.000466692)
(0.0536291 0.000229541 0.000224097)
(0.0629709 0.000417031 0.000307748)
(0.0629692 0.00031085 0.000411531)
(0.0518867 0.000187429 0.000178407)
(0.0611396 0.000375748 0.000254902)
(0.0611368 0.000259969 0.000366544)
(0.0503411 0.000158209 0.000143358)
(0.0595014 0.000339543 0.000219476)
(0.0594965 0.000228381 0.000324159)
(0.0489609 0.000137727 0.000114193)
(0.0580237 0.000307508 0.000195102)
(0.058015 0.000209786 0.000282217)
(0.0477194 0.000123394 8.64774e-05)
(0.0566818 0.000281958 0.000178257)
(0.056667 0.000198823 0.000240983)
(0.0465969 0.000114863 5.51086e-05)
(0.0554557 0.000264761 0.000165334)
(0.0554318 0.000194017 0.000197337)
(0.0455994 0.000113222 1.82476e-05)
(0.054345 0.000253465 0.000149456)
(0.0543056 0.00019635 0.000141736)
(0.0447436 0.000119574 -2.3619e-05)
(0.0533595 0.000249031 0.000129566)
(0.0532927 0.000205745 6.75023e-05)
(0.0440688 0.00011913 -0.000118913)
(0.0525431 0.000252891 9.99342e-05)
(0.0524234 0.000220709 -3.62096e-05)
(0.0439481 8.55168e-05 -0.000302122)
(0.0520688 0.000236305 -2.93054e-05)
(0.0518422 0.000194645 -0.000260536)
(0.0450423 -0.000979478 -0.00170463)
(0.0525321 0.000148845 -0.00025225)
(0.0520695 6.97087e-05 -0.00069717)
(0.0510496 -0.00129191 -0.00191846)
(0.0510242 -0.00215027 -0.00372402)
(0.0984572 0.00247646 0.00172988)
(0.0996871 0.000439231 0.000345478)
(0.100049 0.00105639 0.000750962)
(0.0958349 0.00314809 0.00243264)
(0.0978162 0.00273278 0.00228226)
(0.0982937 0.00280922 0.00216142)
(0.0914502 0.00223037 0.00186923)
(0.0954961 0.00300167 0.00230307)
(0.0963041 0.00244266 0.00199772)
(0.0875957 0.00167467 0.00150537)
(0.0926195 0.00229929 0.00183868)
(0.0936671 0.00198072 0.00172683)
(0.0841486 0.00144012 0.00127559)
(0.089768 0.00189176 0.00153558)
(0.0909052 0.00171972 0.00149768)
(0.0811893 0.00126557 0.0010287)
(0.0872334 0.00165616 0.00129467)
(0.0884354 0.0014546 0.00121165)
(0.0787037 0.0011105 0.000793991)
(0.0850087 0.00149148 0.00107725)
(0.0863065 0.00118366 0.000908576)
(0.0765607 0.000992634 0.000625389)
(0.0830644 0.00137058 0.000913577)
(0.0844833 0.000983241 0.000690675)
(0.0746578 0.000905998 0.000518671)
(0.0813304 0.00127687 0.000802218)
(0.0828848 0.000845566 0.000548629)
(0.0729345 0.000832405 0.000453583)
(0.0797561 0.00119127 0.000727532)
(0.0814556 0.000745193 0.00045548)
(0.071356 0.000761345 0.000414107)
(0.0783139 0.00110746 0.000681237)
(0.0801644 0.000663426 0.000391469)
(0.0699021 0.000693187 0.000390577)
(0.0769834 0.00102457 0.000653701)
(0.0789863 0.00059256 0.000344885)
(0.0685583 0.000633479 0.000378665)
(0.0757484 0.000942467 0.000638819)
(0.0779038 0.000534079 0.000312241)
(0.0673166 0.000581288 0.000372496)
(0.0745996 0.000861036 0.000632411)
(0.0769118 0.00048876 0.000288022)
(0.0661855 0.000530524 0.0003634)
(0.0735396 0.000775199 0.000628464)
(0.0760146 0.000448698 0.000259782)
(0.0651965 0.000466957 0.000333097)
(0.0725846 0.000676441 0.000616556)
(0.0752241 0.000409486 0.00021896)
(0.0644509 0.000333783 0.000208549)
(0.0717897 0.000538603 0.000573881)
(0.0745816 0.000353051 0.00013418)
(0.0642829 6.07766e-05 -6.97847e-05)
(0.0712881 0.000221526 0.000395863)
(0.0741893 0.000204677 -9.50605e-05)
(0.065454 -0.000372803 -0.000399092)
(0.0714114 -0.000431288 4.22666e-05)
(0.0742699 -0.000213712 -0.000705462)
(0.06992 -0.00218643 -0.000643232)
(0.0730961 -0.00147151 -0.00268723)
(0.0993753 0.00118212 0.00107254)
(0.099473 0.000349747 0.000307056)
(0.0997475 0.000610975 0.000779871)
(0.0984949 0.00229602 0.00203188)
(0.0990504 0.00157675 0.00172044)
(0.0995971 0.00201827 0.00200284)
(0.0971415 0.00247638 0.00204854)
(0.0983579 0.00213097 0.00216883)
(0.0992974 0.00246145 0.00210234)
(0.09544 0.00224678 0.0017673)
(0.0971936 0.00203555 0.00200235)
(0.0984886 0.00237435 0.0019025)
(0.0937517 0.0020201 0.00152238)
(0.0959059 0.00185519 0.00175433)
(0.097423 0.00218066 0.00168858)
(0.0921398 0.0018635 0.00134458)
(0.0946729 0.00173195 0.0015427)
(0.0963107 0.00198433 0.0015082)
(0.0906042 0.00175234 0.00121509)
(0.0934837 0.00165133 0.00138661)
(0.0952063 0.00180085 0.00134263)
(0.0891557 0.00165329 0.00111414)
(0.0923713 0.00157439 0.00126587)
(0.094151 0.00164329 0.00120368)
(0.0878113 0.00154659 0.00103284)
(0.091337 0.00147729 0.00117259)
(0.0931708 0.00150245 0.00109572)
(0.0865728 0.00143416 0.000972555)
(0.0903509 0.00136402 0.00110459)
(0.0922696 0.00137112 0.00101388)
(0.0854258 0.00132359 0.000934098)
(0.0894256 0.00124813 0.00105973)
(0.0914479 0.00125114 0.000957429)
(0.0843555 0.00121658 0.000913101)
(0.0885541 0.00113204 0.00103324)
(0.0906979 0.00114315 0.000921151)
(0.0833515 0.00110823 0.000904296)
(0.0877243 0.00101525 0.00102136)
(0.09001 0.00104314 0.000898911)
(0.0824129 0.000990149 0.000902083)
(0.0869301 0.000892857 0.00102043)
(0.0893805 0.000943496 0.000884761)
(0.0815482 0.000849145 0.000896641)
(0.0861702 0.000753918 0.00102565)
(0.0888117 0.000835067 0.000873545)
(0.080793 0.000665592 0.000874025)
(0.0854523 0.000570786 0.00102726)
(0.0883158 0.000702753 0.00085184)
(0.0802028 0.000362912 0.000797446)
(0.0847999 0.000314671 0.00101574)
(0.0879173 0.000523166 0.000797971)
(0.0798251 -0.000190245 0.000623073)
(0.0842401 -9.51128e-05 0.000967936)
(0.0876407 0.00021128 0.000663731)
(0.0797242 -0.00140335 0.000237874)
(0.0837812 -0.000783911 0.000874154)
(0.0874834 -0.000324381 0.000420889)
(0.0829647 -0.00204428 0.000685676)
(0.0871298 -0.0014992 -5.40772e-05)
(0.0996493 0.000650237 0.000931409)
(0.0994625 0.000129349 0.000192483)
(0.0997993 0.000375101 0.000741359)
(0.0990855 0.00127874 0.00182767)
(0.0992625 0.000636758 0.00137059)
(0.0998409 0.00115027 0.00181421)
(0.0984494 0.00154043 0.00210302)
(0.098913 0.000973168 0.00200354)
(0.0999049 0.00153627 0.00209011)
(0.097708 0.00154631 0.00198892)
(0.0982951 0.00104961 0.00205065)
(0.0997676 0.00163131 0.00202295)
(0.0969401 0.00147915 0.00177615)
(0.0976576 0.00100674 0.00189971)
(0.09951 0.00160894 0.00189566)
(0.0962088 0.00142565 0.00158229)
(0.097065 0.000958763 0.00169851)
(0.0992004 0.00154651 0.00175177)
(0.0955238 0.00139005 0.00143546)
(0.096506 0.000930948 0.00152112)
(0.0988561 0.00147284 0.00162609)
(0.094875 0.00134858 0.00132938)
(0.0959931 0.000912886 0.00137989)
(0.098513 0.00138997 0.00151556)
(0.0942415 0.00128516 0.0012592)
(0.0955244 0.000895804 0.00127975)
(0.0981809 0.00129467 0.00142057)
(0.0936164 0.00119672 0.00121403)
(0.0950692 0.000858413 0.00121901)
(0.0978362 0.00118642 0.0013448)
(0.0930028 0.00109112 0.0011855)
(0.0946127 0.000793029 0.0011879)
(0.0975018 0.00107397 0.00129274)
(0.092399 0.000976037 0.00117125)
(0.0941538 0.000712883 0.0011772)
(0.0971807 0.000961874 0.00125981)
(0.0918011 0.00085313 0.00116981)
(0.0936862 0.000624816 0.00118029)
(0.0968687 0.000849679 0.00124236)
(0.0912048 0.000717039 0.00117899)
(0.0931987 0.00052576 0.00119628)
(0.0965635 0.000732128 0.00123916)
(0.0906041 0.000546407 0.00119553)
(0.0926823 0.000409748 0.0012283)
(0.0962634 0.000598914 0.00124873)
(0.0899963 0.000310067 0.00121625)
(0.0921243 0.000248683 0.00127877)
(0.0959659 0.000427504 0.00126867)
(0.0893801 -3.29646e-05 0.00124524)
(0.0915089 1.48765e-05 0.00135512)
(0.0956687 0.000194984 0.0012975)
(0.088726 -0.000552791 0.00129717)
(0.0908017 -0.000332825 0.00147092)
(0.0953639 -0.000136636 0.00134243)
(0.0879606 -0.00137075 0.00140372)
(0.0899429 -0.000861487 0.00162456)
(0.0950161 -0.000618142 0.00142375)
(0.08896 -0.00165064 0.00191213)
(0.0946161 -0.00131127 0.00160751)
(0.0996725 0.000153994 0.000629457)
(0.0993801 -1.81872e-08 5.89431e-05)
(0.0997132 0.000103894 0.000687942)
(0.0991591 0.000353148 0.00154423)
(0.0992677 -8.3353e-08 0.00120001)
(0.0998377 0.000341525 0.00162227)
(0.0986637 0.00045748 0.00194747)
(0.0989804 -1.82155e-07 0.00188848)
(0.099963 0.000485244 0.00199137)
(0.0982123 0.000480386 0.0019606)
(0.0984746 -3.17179e-07 0.00200651)
(0.0999919 0.000539237 0.00199663)
(0.0977763 0.000470833 0.00182477)
(0.0979954 -5.3231e-07 0.00191478)
(0.100009 0.000545714 0.00191109)
(0.0973626 0.000456804 0.00164116)
(0.0975704 -9.04211e-07 0.00173495)
(0.100008 0.000532305 0.00180441)
(0.0969943 0.00044347 0.00146823)
(0.0971799 -1.54742e-06 0.00154767)
(0.0999812 0.000509456 0.00168312)
(0.0966732 0.000432244 0.00132993)
(0.0968288 -2.60086e-06 0.00138929)
(0.0999389 0.000481671 0.00157305)
(0.0963917 0.000420387 0.00123601)
(0.0965264 -4.36069e-06 0.00127145)
(0.0998981 0.000455486 0.0014823)
(0.0961236 0.000399811 0.00118832)
(0.0962678 -7.27035e-06 0.00120214)
(0.0998643 0.000427728 0.00142028)
(0.0958409 0.000366017 0.00117597)
(0.0959863 -1.20928e-05 0.00117716)
(0.0998085 0.000391289 0.00138303)
(0.0955294 0.000319714 0.00118377)
(0.0956805 -2.00676e-05 0.00117923)
(0.0997357 0.000345983 0.00136055)
(0.0951788 0.000260696 0.00120532)
(0.0953441 -3.33472e-05 0.00119614)
(0.0996432 0.00029343 0.00135465)
(0.0947766 0.000188086 0.00124553)
(0.0949569 -5.6427e-05 0.00122966)
(0.0995172 0.000230656 0.00137049)
(0.0943081 9.16498e-05 0.00131383)
(0.0945024 -9.46701e-05 0.00129049)
(0.0993516 0.000154944 0.00141173)
(0.0937444 -5.34251e-05 0.00142363)
(0.0939513 -0.000159009 0.0013887)
(0.0991364 5.27451e-05 0.00148607)
(0.0930426 -0.000281152 0.00159144)
(0.0932631 -0.000270724 0.00154854)
(0.0988499 -9.70999e-05 0.00161276)
(0.0921442 -0.000652066 0.00181137)
(0.0923436 -0.000459754 0.0017971)
(0.0984565 -0.00032118 0.00180966)
(0.0910032 -0.00124194 0.00214091)
(0.0911016 -0.000796162 0.00209205)
(0.0979203 -0.000667477 0.00206293)
(0.0896799 -0.00139045 0.00273395)
(0.0974496 -0.0011579 0.0024531)
(0.0996725 -0.000154091 0.0006295)
(0.0994625 -0.000129383 0.000192509)
(0.0997132 -0.000103934 0.000687945)
(0.0991591 -0.000353399 0.00154426)
(0.0992625 -0.000636888 0.00137062)
(0.0998376 -0.000341684 0.00162229)
(0.0986635 -0.000457942 0.00194751)
(0.0989128 -0.000973416 0.0020036)
(0.099963 -0.000485553 0.00199138)
(0.098212 -0.000481173 0.00196069)
(0.0982948 -0.00105003 0.00205075)
(0.0999917 -0.000539767 0.00199667)
(0.0977757 -0.000472176 0.00182495)
(0.0976569 -0.00100749 0.00189988)
(0.100009 -0.00054663 0.00191123)
(0.0973615 -0.000459114 0.00164146)
(0.0970636 -0.000960076 0.0016988)
(0.100007 -0.000533874 0.00180469)
(0.0969923 -0.000447394 0.00146873)
(0.0965036 -0.000933224 0.00152152)
(0.0999799 -0.000512091 0.00168354)
(0.0966699 -0.000438828 0.00133081)
(0.095989 -0.000916706 0.00138058)
(0.0999366 -0.000486045 0.00157374)
(0.096386 -0.000431361 0.00123758)
(0.0955173 -0.000902226 0.00128112)
(0.0998943 -0.000462801 0.00148348)
(0.096114 -0.000418024 0.00119098)
(0.0950571 -0.000868896 0.0012217)
(0.099858 -0.000439983 0.00142227)
(0.0958245 -0.00039613 0.00118042)
(0.0945923 -0.000810048 0.00119265)
(0.0997979 -0.000411665 0.00138621)
(0.0955014 -0.000369503 0.0011916)
(0.0941194 -0.00074041 0.00118576)
(0.0997181 -0.000379622 0.00136591)
(0.0951305 -0.000344132 0.00122048)
(0.0936278 -0.000670036 0.00119514)
(0.0996126 -0.000348278 0.00136478)
(0.0946919 -0.000327496 0.00127463)
(0.0930986 -0.000601346 0.00122317)
(0.0994647 -0.000321203 0.00139033)
(0.0941587 -0.000322981 0.00136537)
(0.0925114 -0.000532568 0.00127744)
(0.0992644 -0.000302672 0.00144777)
(0.0934845 -0.000334455 0.00151362)
(0.0918323 -0.000456335 0.00136839)
(0.0989898 -0.000292766 0.00155237)
(0.0925926 -0.000373441 0.0017542)
(0.0910114 -0.000371697 0.00152156)
(0.0986089 -0.00029635 0.00173455)
(0.0913531 -0.000459866 0.00207778)
(0.0899293 -0.000256993 0.00177402)
(0.0980513 -0.000321207 0.00203476)
(0.0895977 -0.000530047 0.0026851)
(0.088482 -0.000110097 0.00208816)
(0.0972639 -0.000381995 0.00243878)
(0.0868897 -3.63082e-05 0.00326235)
(0.0964503 -0.000399467 0.00334915)
(0.0996493 -0.000650278 0.000931415)
(0.099473 -0.000349745 0.000307059)
(0.0997993 -0.000375111 0.00074136)
(0.0990854 -0.00127884 0.00182772)
(0.0990504 -0.00157674 0.00172048)
(0.0998409 -0.00115032 0.00181421)
(0.0984491 -0.00154062 0.00210314)
(0.0983577 -0.00213097 0.00216895)
(0.0999047 -0.00153637 0.00209018)
(0.0977073 -0.00154668 0.00198909)
(0.0971931 -0.00203554 0.00200255)
(0.0997672 -0.0016315 0.00202316)
(0.0969386 -0.00147984 0.00177642)
(0.0959048 -0.00185525 0.00175461)
(0.0995091 -0.0016093 0.00189604)
(0.0962062 -0.00142686 0.00158266)
(0.0946711 -0.00173212 0.00154313)
(0.0991987 -0.00154713 0.00175234)
(0.0955194 -0.00139204 0.00143603)
(0.0934805 -0.00165164 0.00138727)
(0.0988532 -0.00147391 0.00162693)
(0.0948674 -0.00135186 0.00133051)
(0.0923658 -0.00157482 0.00126696)
(0.098508 -0.0013917 0.00151692)
(0.0942285 -0.00129043 0.00126157)
(0.0913275 -0.00147794 0.00117451)
(0.0981725 -0.0012975 0.00142282)
(0.0935945 -0.00120497 0.0012186)
(0.0903348 -0.00136491 0.00110811)
(0.0978221 -0.00119101 0.00134872)
(0.0929659 -0.00110393 0.00119399)
(0.0893987 -0.00124928 0.00106571)
(0.0974784 -0.00108117 0.00129952)
(0.0923371 -0.000996448 0.00118626)
(0.088509 -0.0011334 0.00104401)
(0.0971413 -0.000973164 0.00127195)
(0.0916968 -0.000886403 0.00119547)
(0.087649 -0.0010172 0.00103979)
(0.0968025 -0.000867102 0.00126398)
(0.0910283 -0.000769799 0.00122449)
(0.0868039 -0.000896083 0.001052)
(0.0964534 -0.000759781 0.0012778)
(0.0903055 -0.000635792 0.00128027)
(0.0859588 -0.000757841 0.00108194)
(0.0960816 -0.00064295 0.00131825)
(0.0894884 -0.00047075 0.0013778)
(0.0850961 -0.000582842 0.00113365)
(0.095668 -0.000506547 0.00139692)
(0.0885076 -0.000238194 0.00154466)
(0.0841874 -0.000345282 0.00121737)
(0.0951812 -0.000336825 0.00153758)
(0.0872422 0.000103146 0.00178926)
(0.0831619 3.30874e-05 0.00135523)
(0.0945545 -9.30131e-05 0.00177353)
(0.0855395 0.0003736 0.0026643)
(0.0819389 0.000621467 0.00157161)
(0.0937402 0.000245571 0.00210351)
(0.080576 0.00139728 0.0023391)
(0.0930906 0.000441686 0.0031806)
(0.0993753 -0.00118208 0.00107257)
(0.0996871 -0.000439209 0.000345483)
(0.0997475 -0.000610955 0.000779888)
(0.0984948 -0.00229593 0.00203198)
(0.0978161 -0.00273268 0.00228231)
(0.0995971 -0.0020182 0.00200293)
(0.0971412 -0.00247621 0.00204874)
(0.095496 -0.00300151 0.0023032)
(0.0992972 -0.00246131 0.00210254)
(0.0954393 -0.00224652 0.0017676)
(0.0926192 -0.002299 0.00183892)
(0.0984882 -0.0023741 0.00190285)
(0.0937504 -0.00201967 0.00152281)
(0.0897674 -0.00189124 0.00153591)
(0.0974221 -0.00218026 0.0016891)
(0.0921373 -0.00186282 0.00134526)
(0.0872321 -0.0016553 0.00129521)
(0.0963092 -0.00198366 0.00150895)
(0.0905999 -0.00175126 0.00121623)
(0.0850066 -0.00148999 0.00107818)
(0.0952038 -0.00179981 0.00134383)
(0.0891485 -0.00165148 0.00111601)
(0.0830606 -0.0013681 0.0009151)
(0.0941467 -0.00164163 0.00120574)
(0.0877991 -0.00154352 0.00103591)
(0.081324 -0.0012727 0.000804732)
(0.0931634 -0.00149961 0.0010991)
(0.0865525 -0.00142899 0.00097753)
(0.0797452 -0.00118424 0.000731717)
(0.0922571 -0.00136627 0.00101951)
(0.085392 -0.00131501 0.000942463)
(0.0782954 -0.00109549 0.000688615)
(0.0914271 -0.00124321 0.000966849)
(0.0842993 -0.00120271 0.000927612)
(0.0769519 -0.00100497 0.000666348)
(0.0906632 -0.00113003 0.000937259)
(0.0832587 -0.00108636 0.000929388)
(0.0756958 -0.000911789 0.000657361)
(0.0899535 -0.00102144 0.000926248)
(0.0822588 -0.000956065 0.000946085)
(0.0745134 -0.00081238 0.000659483)
(0.0892893 -0.00090854 0.000930909)
(0.0812908 -0.000798191 0.000978199)
(0.0733969 -0.000695838 0.000674708)
(0.0886644 -0.000781204 0.000953502)
(0.0803516 -0.00059074 0.00102802)
(0.0723436 -0.000547726 0.000703424)
(0.0880761 -0.000623874 0.000996167)
(0.0794304 -0.000257757 0.00109918)
(0.0713654 -0.000332516 0.000739783)
(0.0875209 -0.000411706 0.00106468)
(0.0784659 0.000326671 0.00122247)
(0.0705144 8.97452e-05 0.000728937)
(0.0869801 -6.57912e-05 0.00117172)
(0.0772623 0.00141521 0.00136427)
(0.0699596 0.000933776 0.000638274)
(0.086418 0.000493649 0.00137286)
(0.0688277 0.00340023 -0.00047991)
(0.0858122 0.00146202 0.00159696)
(0.0984572 -0.00247639 0.00172992)
(0.0973536 -0.00106246 -0.00148428)
(0.100049 -0.00105637 0.000750981)
(0.0958348 -0.00314793 0.00243273)
(0.0930872 -0.00326892 0.0025335)
(0.0982936 -0.00280912 0.00216152)
(0.0914501 -0.00223011 0.00186941)
(0.0848641 -0.00163571 0.00179242)
(0.096304 -0.00244246 0.00199791)
(0.0875954 -0.00167419 0.00150565)
(0.0786283 -0.00107329 0.00122151)
(0.093667 -0.00198037 0.00172717)
(0.084148 -0.00143931 0.00127607)
(0.0740535 -0.000784929 0.000865394)
(0.090905 -0.00171911 0.00149822)
(0.0811883 -0.00126413 0.00102954)
(0.0704433 -0.000649849 0.000669827)
(0.088435 -0.00145358 0.00121263)
(0.0787019 -0.00110794 0.000795352)
(0.0674929 -0.000545499 0.000509612)
(0.0863057 -0.00118188 0.000910206)
(0.0765575 -0.000988252 0.000627591)
(0.0650528 -0.000466703 0.000389278)
(0.084482 -0.000980201 0.000693362)
(0.0746523 -0.000898539 0.000522315)
(0.0629692 -0.000411546 0.000310851)
(0.0828824 -0.000840385 0.000553143)
(0.0729251 -0.000819758 0.000460156)
(0.0611367 -0.000366562 0.000259968)
(0.0814516 -0.000736386 0.000463137)
(0.0713395 -0.000740288 0.00042567)
(0.0594964 -0.000324182 0.000228376)
(0.0801574 -0.000648227 0.000405253)
(0.0698734 -0.000658887 0.000407031)
(0.0580149 -0.000282242 0.000209775)
(0.078974 -0.000567789 0.000367783)
(0.0685107 -0.000577212 0.00039876)
(0.0566667 -0.000241022 0.000198825)
(0.077883 -0.000495794 0.000345714)
(0.0672393 -0.000487629 0.000401081)
(0.0554315 -0.000197351 0.00019402)
(0.0768782 -0.000427968 0.000337299)
(0.066057 -0.000373083 0.000413721)
(0.054305 -0.000141702 0.000196352)
(0.0759593 -0.000348412 0.000341381)
(0.0649746 -0.000204242 0.000429136)
(0.053292 -6.74893e-05 0.00020577)
(0.0751305 -0.000244288 0.000358022)
(0.0640493 9.12402e-05 0.000399257)
(0.0524225 3.62154e-05 0.000220754)
(0.0744143 -8.16767e-05 0.000381277)
(0.0635003 0.000671956 0.000243736)
(0.051841 0.000260555 0.000194709)
(0.0738731 0.000228429 0.000336674)
(0.0639364 0.00247053 -0.000840759)
(0.0520678 0.000697291 6.97946e-05)
(0.0736253 0.000907012 2.98642e-05)
(0.0510221 0.00372429 -0.00214995)
(0.0730583 0.0031928 -0.00187998)
(0.0993441 0.00341904 -0.003419)
(0.0973536 0.00148428 0.00106248)
(0.0834792 -0.00197581 0.00197591)
(0.0930872 -0.00253345 0.00326902)
(0.0745173 -0.0019586 0.0019588)
(0.0848642 -0.0017923 0.0016359)
(0.0685482 -0.00115888 0.00115924)
(0.0786284 -0.00122128 0.00107361)
(0.0642368 -0.000696645 0.000697244)
(0.0740537 -0.000865031 0.000785539)
(0.0607578 -0.000494186 0.000495312)
(0.0704436 -0.000669215 0.00065083)
(0.057939 -0.000373734 0.000375752)
(0.0674934 -0.000508423 0.000547398)
(0.0556167 -0.000286197 0.000289518)
(0.0650537 -0.000387358 0.000469962)
(0.053629 -0.000224107 0.000229537)
(0.0629708 -0.000307751 0.00041703)
(0.0518866 -0.00017842 0.000187423)
(0.0611395 -0.000254906 0.000375748)
(0.0503409 -0.000143371 0.000158198)
(0.0595013 -0.000219481 0.000339543)
(0.0489607 -0.000114213 0.00013772)
(0.0580235 -0.000195108 0.000307508)
(0.0477192 -8.64868e-05 0.000123393)
(0.0566814 -0.000178266 0.000281977)
(0.0465965 -5.50771e-05 0.000114856)
(0.0554554 -0.000165342 0.000264813)
(0.0455989 -1.82121e-05 0.000113232)
(0.0543444 -0.000149446 0.000253547)
(0.0447429 2.36316e-05 0.000119619)
(0.0533588 -0.000129571 0.000249151)
(0.0440679 0.000118927 0.000119191)
(0.0525422 -9.99365e-05 0.000253044)
(0.0439469 0.000302168 8.55806e-05)
(0.0520676 2.92959e-05 0.000236474)
(0.0450407 0.00170485 -0.000979369)
(0.0525306 0.00025224 0.000149113)
(0.0510477 0.00191854 -0.00129141)
(0.0984572 0.00172992 0.00247639)
(0.100049 0.000750981 0.00105637)
(0.0996871 0.000345483 0.000439207)
(0.0958349 0.00243273 0.00314793)
(0.0982936 0.00216152 0.00280912)
(0.0978161 0.00228231 0.00273268)
(0.0914501 0.00186941 0.0022301)
(0.0963041 0.00199791 0.00244245)
(0.095496 0.0023032 0.0030015)
(0.0875954 0.00150565 0.00167418)
(0.093667 0.00172717 0.00198036)
(0.0926192 0.00183892 0.002299)
(0.084148 0.00127606 0.00143929)
(0.090905 0.00149821 0.0017191)
(0.0897674 0.00153591 0.00189123)
(0.0811883 0.00102953 0.00126412)
(0.088435 0.00121262 0.00145357)
(0.0872322 0.00129521 0.00165529)
(0.0787019 0.000795346 0.00110793)
(0.0863058 0.000910199 0.00118187)
(0.0850066 0.00107817 0.00148998)
(0.0765576 0.000627585 0.00098823)
(0.084482 0.000693353 0.000980187)
(0.0830606 0.000915098 0.00136809)
(0.0746524 0.000522307 0.000898509)
(0.0828825 0.000553133 0.000840366)
(0.081324 0.000804729 0.00127268)
(0.0729252 0.000460151 0.000819721)
(0.0814517 0.000463125 0.000736361)
(0.0797453 0.000731714 0.00118422)
(0.0713396 0.000425668 0.000740239)
(0.0801576 0.00040524 0.000648196)
(0.0782956 0.000688615 0.00109545)
(0.0698736 0.000407024 0.000658822)
(0.0789742 0.000367763 0.000567746)
(0.0769521 0.000666347 0.00100492)
(0.068511 0.000398731 0.000577123)
(0.0778833 0.000345638 0.000495696)
(0.0756962 0.000657363 0.00091175)
(0.0672399 0.000401028 0.000487546)
(0.0768786 0.000337222 0.00042789)
(0.0745137 0.000659445 0.000812301)
(0.0660577 0.000413662 0.000373019)
(0.0759598 0.000341338 0.000348431)
(0.0733975 0.00067462 0.000695723)
(0.0649755 0.000429065 0.00020416)
(0.0751312 0.000357921 0.000244245)
(0.0723444 0.000703311 0.000547589)
(0.0640506 0.000399146 -9.13423e-05)
(0.0744152 0.000381139 8.15781e-05)
(0.0713665 0.000739617 0.000332332)
(0.0635022 0.000243541 -0.000672028)
(0.0738744 0.000336472 -0.000228548)
(0.070516 0.000728664 -8.99551e-05)
(0.063939 -0.000841167 -0.00247046)
(0.073627 2.95363e-05 -0.000907115)
(0.0699619 0.000637795 -0.000933958)
(0.0730607 -0.00188073 -0.00319297)
(0.0688311 -0.00048065 -0.00340019)
(0.10008 0.00135177 0.00135171)
(0.100186 0.000798764 0.000804932)
(0.100186 0.00080496 0.000798735)
(0.100264 0.00221731 0.00221715)
(0.10019 0.00231185 0.00207139)
(0.10019 0.00207149 0.00231174)
(0.099383 0.00243581 0.00243548)
(0.100307 0.0026337 0.0024529)
(0.100307 0.00245316 0.0026335)
(0.0979843 0.00231036 0.00230983)
(0.0998052 0.00256041 0.00245567)
(0.0998051 0.00245611 0.00256005)
(0.0964954 0.00200651 0.00200561)
(0.0988632 0.00236452 0.00228057)
(0.0988629 0.00228125 0.00236393)
(0.0950735 0.00159766 0.00159614)
(0.0978415 0.00204934 0.00196762)
(0.097841 0.00196869 0.00204829)
(0.0937768 0.00122738 0.00122487)
(0.0968625 0.00169173 0.00160397)
(0.0968617 0.00160567 0.00169003)
(0.0926203 0.000963831 0.000959586)
(0.0959615 0.00140531 0.00132032)
(0.0959601 0.00132323 0.00140251)
(0.0915985 0.000780858 0.000773626)
(0.0951514 0.0011928 0.00111668)
(0.095149 0.0011216 0.00118799)
(0.0906959 0.000650899 0.000638287)
(0.0944315 0.00103393 0.000968754)
(0.0944274 0.000977068 0.00102574)
(0.089893 0.000555962 0.000534866)
(0.0937978 0.000912444 0.000858754)
(0.0937909 0.000873164 0.000898582)
(0.0891707 0.000486857 0.000454347)
(0.0932369 0.000817695 0.000776024)
(0.0932256 0.00079959 0.000795149)
(0.0885204 0.000437674 0.000388503)
(0.0927381 0.000742018 0.000712493)
(0.0927203 0.000749107 0.000706652)
(0.0879452 0.000400696 0.000322456)
(0.0923028 0.000677661 0.000657716)
(0.0922755 0.000715215 0.000621961)
(0.0874532 0.000369356 0.000242636)
(0.0919351 0.000615711 0.000599042)
(0.0918937 0.00069336 0.000527016)
(0.0870593 0.000337094 0.000129117)
(0.0916419 0.000547701 0.000526128)
(0.091581 0.000680686 0.000409789)
(0.0867812 0.000274791 -6.52439e-05)
(0.0914311 0.000455075 0.000410176)
(0.0913463 0.000671926 0.000241959)
(0.0865501 6.72568e-05 -0.000453859)
(0.0912887 0.000298042 0.000205491)
(0.0911831 0.000641051 -2.06857e-05)
(0.0860238 -0.000584398 -0.00133174)
(0.0910775 -5.10607e-06 -0.000174279)
(0.0909923 0.000500143 -0.000418923)
(0.0911174 -0.000526316 -0.000894804)
(0.0910743 2.86416e-05 -0.000978013)
(0.100171 0.00136868 0.00141636)
(0.100118 0.000577401 0.000811286)
(0.100102 0.000699766 0.000700654)
(0.100759 0.00219489 0.00214891)
(0.100478 0.00158282 0.00185869)
(0.100477 0.00182254 0.00186453)
(0.100996 0.00247693 0.00238767)
(0.101004 0.00205869 0.00224237)
(0.101024 0.00234678 0.00238271)
(0.100838 0.00247626 0.00238874)
(0.101293 0.00220339 0.00235182)
(0.101338 0.00250599 0.00254334)
(0.100458 0.00231164 0.00222432)
(0.101309 0.00216723 0.00232173)
(0.101409 0.00245067 0.00247182)
(0.0999684 0.00205666 0.0019675)
(0.101157 0.00201059 0.00217827)
(0.101302 0.00226484 0.0022698)
(0.0994449 0.00179043 0.00169883)
(0.100927 0.00179323 0.00196779)
(0.101099 0.00200935 0.00199764)
(0.0989361 0.00156287 0.00148179)
(0.100666 0.00158249 0.00176473)
(0.100856 0.00177042 0.00175619)
(0.098469 0.00137712 0.00131864)
(0.100411 0.0013934 0.00158892)
(0.100609 0.00156927 0.00156143)
(0.0980551 0.0012236 0.00119659)
(0.100176 0.00122576 0.00144352)
(0.100383 0.00140243 0.00140605)
(0.0976957 0.00109576 0.00110706)
(0.0999726 0.0010827 0.00133705)
(0.10019 0.00126428 0.00128288)
(0.0973888 0.000987468 0.00104116)
(0.0998013 0.000960658 0.00126172)
(0.100033 0.00114992 0.00118538)
(0.0971336 0.000890982 0.000989026)
(0.0996617 0.00085245 0.001208)
(0.0999148 0.0010539 0.00110561)
(0.0969314 0.000797292 0.000942962)
(0.099554 0.000748539 0.00116846)
(0.0998364 0.000969341 0.00103504)
(0.0967853 0.000695415 0.000893907)
(0.0994808 0.000637177 0.00113834)
(0.0998002 0.000888803 0.000966308)
(0.0966976 0.000567631 0.000823801)
(0.0994442 0.000507171 0.00110975)
(0.099808 0.000802678 0.000887858)
(0.0966653 0.000388299 0.000707854)
(0.0994426 0.000339181 0.00106938)
(0.099858 0.000695281 0.000782161)
(0.0966436 0.000122534 0.000524067)
(0.0994645 0.000109484 0.0010048)
(0.0999366 0.000545492 0.000630177)
(0.0965174 -0.000290745 0.00027208)
(0.0994612 -0.000207037 0.000914096)
(0.0999951 0.000323663 0.000424908)
(0.0995953 -0.000645389 0.000836031)
(0.100216 5.30943e-06 0.000248978)
(0.100242 0.000820131 0.0012561)
(0.10009 0.000294307 0.000735339)
(0.100071 0.000415658 0.000602747)
(0.100828 0.00139047 0.00193926)
(0.100491 0.0007919 0.00168397)
(0.100493 0.00112436 0.00158691)
(0.101392 0.00166331 0.00218207)
(0.101086 0.00107757 0.00208331)
(0.101129 0.00154073 0.00209393)
(0.101816 0.00176083 0.00226085)
(0.101664 0.00120406 0.00217884)
(0.101768 0.00173253 0.0022939)
(0.102081 0.00175481 0.00226159)
(0.102121 0.00123926 0.00222176)
(0.102291 0.0017896 0.00236677)
(0.102216 0.00166721 0.0021762)
(0.102451 0.00120112 0.00220987)
(0.102712 0.00174337 0.00232123)
(0.102266 0.00153198 0.00204085)
(0.10268 0.0011171 0.00212605)
(0.103037 0.00162537 0.0022011)
(0.102277 0.00137905 0.00188453)
(0.102841 0.00101521 0.00200517)
(0.103287 0.00147805 0.00204815)
(0.102276 0.00122483 0.00172959)
(0.102966 0.000913062 0.00187)
(0.103494 0.00132522 0.00188835)
(0.102272 0.0010824 0.00160211)
(0.103069 0.000815817 0.00174421)
(0.103672 0.00118084 0.00174322)
(0.102273 0.000957163 0.00151194)
(0.103162 0.000725174 0.00164388)
(0.103835 0.00105326 0.00162878)
(0.102283 0.000844344 0.00145066)
(0.103255 0.000640016 0.00156789)
(0.103993 0.00094139 0.00154097)
(0.102303 0.00073541 0.0014114)
(0.103347 0.000557487 0.00152053)
(0.104151 0.000839599 0.00147486)
(0.102334 0.000619192 0.00139)
(0.103434 0.000470651 0.00150069)
(0.104314 0.000740599 0.00142627)
(0.102379 0.000484409 0.00138326)
(0.103518 0.000370013 0.00150148)
(0.104485 0.000635932 0.00139123)
(0.102436 0.000317582 0.00138857)
(0.1036 0.000246626 0.00152433)
(0.104666 0.000517657 0.00136642)
(0.102501 9.99497e-05 0.00140572)
(0.103673 8.49619e-05 0.00157682)
(0.104857 0.000373817 0.00135006)
(0.102559 -0.000184359 0.00144321)
(0.103731 -0.000128462 0.00166699)
(0.105055 0.000190899 0.0013441)
(0.102598 -0.000520214 0.00154197)
(0.103765 -0.000413038 0.00179997)
(0.105255 -3.81682e-05 0.00135795)
(0.10395 -0.000735138 0.00200899)
(0.105555 -0.000288583 0.00144334)
(0.100243 0.000267362 0.00116239)
(0.100087 -2.92576e-08 0.000707011)
(0.100064 0.000135789 0.000537314)
(0.100782 0.000465639 0.00182619)
(0.100477 -8.36603e-08 0.00161777)
(0.100463 0.00037083 0.00142409)
(0.101401 0.000575351 0.00207613)
(0.101066 -1.44452e-07 0.00203463)
(0.101089 0.000525068 0.00193352)
(0.101987 0.000622598 0.002134)
(0.101694 -2.54507e-07 0.00211767)
(0.101797 0.000605711 0.00212855)
(0.102507 0.000630578 0.00216532)
(0.102269 -4.51215e-07 0.00215047)
(0.102489 0.000639017 0.00221102)
(0.102934 0.000609418 0.00215762)
(0.102742 -7.63637e-07 0.00218047)
(0.103119 0.000633681 0.00224179)
(0.103277 0.000569779 0.00209044)
(0.103123 -1.23911e-06 0.00213528)
(0.103686 0.00060011 0.00219725)
(0.103554 0.000522857 0.00199207)
(0.103426 -2.00686e-06 0.00204641)
(0.104185 0.000553529 0.00210695)
(0.103786 0.000476219 0.00188675)
(0.103677 -3.32046e-06 0.00193897)