/*--------------------------------*- C++ -*----------------------------------*\
| =========                 |                                                 |
| \\      /  F ield         | OpenFOAM: The Open Source CFD Toolbox           |
|  \\    /   O peration     | Version:  2212                                  |
|   \\  /    A nd           | Website:  www.openfoam.com                      |
|    \\/     M anipulation  |                                                 |
\*---------------------------------------------------------------------------*/
FoamFile
{
    version     2.0;
    format      ascii;
    arch        "LSB;label=32;scalar=64";
    class       volScalarField;
    location    "0.5";
    object      p;
}
// * * * * * * * * * * * * * * * * * * * * * * * * * * * * * * * * * * * * * //

dimensions      [0 2 -2 0 0 0 0];

internalField   nonuniform List<scalar> 
680
(
0.0181437
0.0110293
0.00873789
0.00820008
0.00792576
0.00770363
0.00751699
0.0109649
0.0102311
0.00913822
0.00847229
0.00806976
0.00779609
0.00758497
0.0106167
0.00976525
0.00900099
0.00844188
0.0080658
0.00779786
0.00758227
0.0102075
0.00944479
0.00882606
0.00837476
0.00803085
0.00776193
0.00754241
0.0100733
0.00933213
0.00874399
0.0083359
0.00801399
0.00774735
0.00752594
0.0100733
0.00933211
0.00874395
0.00833585
0.00801391
0.00774722
0.00752572
0.0102074
0.00944473
0.00882597
0.00837465
0.00803068
0.00776164
0.0075419
0.0106167
0.00976519
0.00900092
0.00844179
0.00806563
0.00779755
0.00758175
0.0109649
0.0102311
0.00913819
0.00847224
0.00806968
0.00779595
0.00758472
0.0181437
0.0110293
0.00873787
0.00820007
0.00792575
0.00770362
0.00751698
0.0109649
0.0102311
0.0091382
0.00847225
0.00806969
0.00779596
0.00758473
0.0102484
0.0102167
0.00948845
0.00877797
0.00833166
0.00801571
0.00775673
0.00932295
0.00944917
0.00914631
0.00873009
0.00836299
0.00804438
0.0077658
0.00890463
0.00894817
0.00878267
0.00851978
0.00823941
0.00796806
0.00771701
0.00868865
0.00871051
0.00858336
0.00836593
0.00813357
0.00790441
0.00768157
0.00868861
0.00871046
0.0085833
0.00836581
0.0081334
0.00790417
0.00768122
0.00890453
0.00894807
0.00878253
0.00851959
0.00823913
0.00796768
0.00771643
0.0093229
0.0094491
0.00914621
0.00872998
0.00836284
0.00804415
0.0077654
0.0102484
0.0102167
0.00948843
0.00877795
0.00833165
0.0080157
0.00775671
0.0109649
0.0102311
0.00913821
0.00847227
0.00806975
0.00779608
0.00758496
0.0106167
0.0097652
0.00900093
0.0084418
0.00806564
0.00779757
0.00758176
0.00932291
0.00944912
0.00914623
0.00873
0.00836286
0.00804417
0.00776542
0.0087534
0.0088544
0.00874285
0.00851736
0.00826159
0.00800315
0.0077446
0.0083854
0.00845347
0.00840112
0.00825418
0.00806931
0.00786415
0.00765342
0.00820231
0.00826676
0.00823729
0.00811244
0.00795342
0.00777969
0.00759335
0.00820228
0.00826673
0.00823725
0.00811234
0.00795323
0.00777943
0.00759306
0.00838533
0.00845341
0.00840102
0.00825402
0.00806907
0.00786385
0.00765303
0.00875338
0.00885439
0.00874284
0.00851734
0.00826158
0.00800313
0.00774459
0.00932294
0.00944915
0.00914629
0.00873008
0.00836298
0.00804437
0.00776579
0.0106167
0.00976524
0.00900098
0.00844187
0.00806578
0.00779784
0.00758226
0.0102075
0.00944474
0.00882599
0.00837467
0.0080307
0.00776166
0.00754193
0.00890455
0.00894808
0.00878255
0.00851961
0.00823915
0.0079677
0.00771645
0.00838535
0.00845342
0.00840103
0.00825403
0.00806909
0.00786387
0.00765305
0.00808743
0.00814658
0.00813465
0.00803924
0.00789955
0.00773393
0.00755364
0.0079363
0.0079992
0.00800296
0.00792929
0.00780914
0.00766268
0.00749967
0.00793628
0.00799918
0.00800293
0.00792926
0.00780909
0.0076626
0.00749956
0.00808742
0.00814657
0.00813464
0.00803922
0.00789954
0.00773392
0.00755363
0.00838539
0.00845346
0.00840111
0.00825417
0.00806929
0.00786414
0.0076534
0.00890462
0.00894816
0.00878266
0.00851977
0.00823939
0.00796805
0.00771701
0.0102075
0.00944478
0.00882604
0.00837475
0.00803084
0.00776192
0.00754241
0.0100733
0.00933212
0.00874396
0.00833586
0.00801393
0.00774724
0.00752574
0.00868862
0.00871048
0.00858332
0.00836583
0.00813342
0.0079042
0.00768124
0.00820229
0.00826674
0.00823726
0.00811235
0.00795324
0.00777945
0.00759308
0.00793629
0.00799919
0.00800294
0.00792926
0.0078091
0.00766261
0.00749957
0.00779347
0.00786298
0.0078851
0.00783253
0.00773125
0.00760029
0.00745036
0.00779346
0.00786298
0.00788509
0.00783252
0.00773125
0.00760028
0.00745035
0.0079363
0.0079992
0.00800295
0.00792928
0.00780913
0.00766267
0.00749966
0.0082023
0.00826675
0.00823728
0.00811243
0.00795341
0.00777968
0.00759334
0.00868864
0.0087105
0.00858335
0.00836592
0.00813356
0.0079044
0.00768157
0.0100733
0.00933212
0.00874398
0.00833589
0.00801399
0.00774735
0.00752593
0.0100733
0.00933214
0.008744
0.00833592
0.00801401
0.00774737
0.00752595
0.00868866
0.00871052
0.00858337
0.00836594
0.00813358
0.00790442
0.00768159
0.00820232
0.00826676
0.00823729
0.00811244
0.00795343
0.0077797
0.00759336
0.0079363
0.0079992
0.00800296
0.00792929
0.00780914
0.00766268
0.00749967
0.00779346
0.00786298
0.00788509
0.00783252
0.00773124
0.00760028
0.00745035
0.00779345
0.00786297
0.00788509
0.00783252
0.00773124
0.00760028
0.00745035
0.00793627
0.00799917
0.00800292
0.00792925
0.00780908
0.00766259
0.00749955
0.00820227
0.00826672
0.00823724
0.00811233
0.00795322
0.00777942
0.00759305
0.0086886
0.00871045
0.00858329
0.0083658
0.00813339
0.00790417
0.00768121
0.0100733
0.0093321
0.00874394
0.00833584
0.0080139
0.00774721
0.00752571
0.0102075
0.0094448
0.00882606
0.00837477
0.00803086
0.00776194
0.00754242
0.00890463
0.00894817
0.00878267
0.00851978
0.00823941
0.00796806
0.00771702
0.00838539
0.00845347
0.00840111
0.00825417
0.0080693
0.00786414
0.00765341
0.00808742
0.00814657
0.00813463
0.00803922
0.00789954
0.00773392
0.00755362
0.00793627
0.00799917
0.00800292
0.00792924
0.00780907
0.00766259
0.00749954
0.00793628
0.00799918
0.00800294
0.00792927
0.00780912
0.00766266
0.00808741
0.00814656
0.00813462
0.00803921
0.00789953
0.00773391
0.00838532
0.00845339
0.00840101
0.008254
0.00806906
0.00786384
0.00890452
0.00894806
0.00878252
0.00851958
0.00823912
0.00796767
0.0102074
0.00944471
0.00882596
0.00837464
0.00803067
0.00776163
0.0106167
0.00976525
0.00900099
0.00844188
0.0080658
0.00779786
0.00758227
0.00932294
0.00944916
0.0091463
0.00873009
0.00836298
0.00804437
0.00776579
0.00875338
0.00885438
0.00874283
0.00851733
0.00826157
0.00800313
0.00774458
0.00838531
0.00845339
0.008401
0.008254
0.00806905
0.00786383
0.00765301
0.00820225
0.0082667
0.00823722
0.00811231
0.0079532
0.0077794
0.00759303
0.00820228
0.00826673
0.00823726
0.00811241
0.00795339
0.00777966
0.00838537
0.00845344
0.00840109
0.00825415
0.00806927
0.00786411
0.00875337
0.00885437
0.00874282
0.00851732
0.00826156
0.00800312
0.00932288
0.00944909
0.0091462
0.00872997
0.00836283
0.00804414
0.0106167
0.00976518
0.00900091
0.00844177
0.00806562
0.00779754
0.0109649
0.0102311
0.00913821
0.00847228
0.00806975
0.00779608
0.00758496
0.0102483
0.0102167
0.00948842
0.00877794
0.00833164
0.00801569
0.0077567
0.00932288
0.00944908
0.00914619
0.00872996
0.00836282
0.00804412
0.00776538
0.0089045
0.00894804
0.0087825
0.00851956
0.0082391
0.00796765
0.0077164
0.00868857
0.00871043
0.00858327
0.00836578
0.00813336
0.00790414
0.00768118
0.00868861
0.00871047
0.00858333
0.00836589
0.00813353
0.00790437
0.0089046
0.00894813
0.00878263
0.00851974
0.00823937
0.00796802
0.00932292
0.00944913
0.00914627
0.00873006
0.00836296
0.00804435
0.0102483
0.0102166
0.00948842
0.00877794
0.00833163
0.00801568
0.0109649
0.0102311
0.00913817
0.00847223
0.00806966
0.00779593
0.0181437
0.0110293
0.00873787
0.00820006
0.00792574
0.00770361
0.00751697
0.0109649
0.0102311
0.00913817
0.00847222
0.00806965
0.00779592
0.0075847
0.0106167
0.00976516
0.00900089
0.00844175
0.0080656
0.00779752
0.00758171
0.0102074
0.00944469
0.00882594
0.00837461
0.00803064
0.00776161
0.00754187
0.0100732
0.00933207
0.00874391
0.00833581
0.00801387
0.00774718
0.00752568
0.0100733
0.00933209
0.00874395
0.00833587
0.00801396
0.00774732
0.0102075
0.00944476
0.00882602
0.00837473
0.00803082
0.0077619
0.0106167
0.00976522
0.00900096
0.00844185
0.00806577
0.00779783
0.0109649
0.0102311
0.0091382
0.00847226
0.00806974
0.00779607
0.0181437
0.0110293
0.00873786
0.00820006
0.00792574
0.00770361
)
;

boundaryField
{
    inlet
    {
        type            zeroGradient;
    }
    ami1
    {
        type            cyclicAMI;
        value           nonuniform List<scalar> 0();
    }
    walls
    {
        type            zeroGradient;
    }
    ami2
    {
        type            cyclicAMI;
        value           nonuniform List<scalar> 0();
    }
    outlet
    {
        type            fixedValue;
        value           nonuniform List<scalar> 0();
    }
    procBoundary4to3
    {
        type            processor;
        value           nonuniform List<scalar> 
109
(
0.00735056
0.0073988
0.00738943
0.00735367
0.00733537
0.00733499
0.00735277
0.00738855
0.00739837
0.00735055
0.00739838
0.00752888
0.00752529
0.00749061
0.00746846
0.00746791
0.00748966
0.00752458
0.00752886
0.00739879
0.00738857
0.0075246
0.00750274
0.00744645
0.00740537
0.00740498
0.00744587
0.00750272
0.00752527
0.00738942
0.0073528
0.00748969
0.00744589
0.00736906
0.00732816
0.00732801
0.00736905
0.00744644
0.0074906
0.00735367
0.00733502
0.00746794
0.007405
0.00732802
0.0072894
0.0072894
0.00732816
0.00740536
0.00746845
0.00733537
0.00733539
0.00746847
0.00740538
0.00732816
0.0072894
0.00728939
0.00749965
0.007328
0.00755361
0.00740497
0.00765302
0.00746791
0.00771642
0.00733499
0.0075419
0.00735368
0.00749061
0.00744644
0.00736904
0.00732799
0.00749965
0.00749965
0.00755361
0.00765302
0.00771642
0.0075419
0.00738943
0.00752528
0.00750271
0.00744585
0.00740495
0.00759332
0.00759332
0.00765338
0.00774457
0.00776539
0.00758174
0.00739879
0.00752885
0.00752455
0.00748963
0.00746788
0.00768154
0.00768154
0.00771698
0.00776577
0.0077567
0.00758471
0.00735053
0.00739834
0.00738852
0.00735274
0.00733496
0.0075259
0.0075259
0.00754238
0.00758224
0.00758495
0.00751697
)
;
    }
}


// ************************************************************************* //
