/*--------------------------------*- C++ -*----------------------------------*\
| =========                 |                                                 |
| \\      /  F ield         | OpenFOAM: The Open Source CFD Toolbox           |
|  \\    /   O peration     | Version:  2212                                  |
|   \\  /    A nd           | Website:  www.openfoam.com                      |
|    \\/     M anipulation  |                                                 |
\*---------------------------------------------------------------------------*/
FoamFile
{
    version     2.0;
    format      ascii;
    arch        "LSB;label=32;scalar=64";
    class       surfaceScalarField;
    location    "2.4";
    object      phi;
}
// * * * * * * * * * * * * * * * * * * * * * * * * * * * * * * * * * * * * * //

dimensions      [0 3 -1 0 0 0 0];

oriented        oriented;

internalField   nonuniform List<scalar> 
1815
(
7.05212e-08
-3.38133e-08
3.48726e-08
6.95231e-08
-3.38005e-08
3.47987e-08
6.85755e-08
-3.37925e-08
3.47402e-08
6.76686e-08
-3.37949e-08
3.47017e-08
6.68018e-08
-3.38116e-08
3.46784e-08
6.59683e-08
-3.3833e-08
3.46665e-08
6.51789e-08
-3.38616e-08
3.46511e-08
6.44178e-08
-3.38841e-08
3.46453e-08
6.36895e-08
-3.39063e-08
3.46346e-08
6.29827e-08
-3.39369e-08
3.46438e-08
-3.39888e-08
3.46753e-08
2.23624e-07
-6.36169e-08
3.25684e-08
2.2098e-07
-6.36149e-08
3.24577e-08
2.18457e-07
-6.36419e-08
3.23733e-08
2.16043e-07
-6.36931e-08
3.23121e-08
2.13734e-07
-6.37482e-08
3.22448e-08
2.11507e-07
-6.38031e-08
3.21971e-08
2.09365e-07
-6.38454e-08
3.21257e-08
2.07263e-07
-6.38616e-08
3.20797e-08
2.05202e-07
-6.38697e-08
3.20246e-08
2.03172e-07
-6.3924e-08
3.20171e-08
-6.40542e-08
3.20404e-08
4.33941e-07
-8.89392e-08
2.96118e-08
4.29757e-07
-8.89687e-08
2.95381e-08
4.25632e-07
-8.89719e-08
2.94551e-08
4.21542e-07
-8.89773e-08
2.93735e-08
4.1748e-07
-8.898e-08
2.92942e-08
4.13433e-07
-8.89835e-08
2.92279e-08
4.09408e-07
-8.89754e-08
2.91544e-08
4.05387e-07
-8.89616e-08
2.91212e-08
4.01356e-07
-8.89195e-08
2.90804e-08
3.97369e-07
-8.89317e-08
2.89954e-08
-8.90048e-08
2.88101e-08
6.20515e-07
-1.07018e-07
2.33332e-08
6.15103e-07
-1.06999e-07
2.3442e-08
6.09548e-07
-1.06964e-07
2.35472e-08
6.03868e-07
-1.06928e-07
2.36308e-08
5.98081e-07
-1.06891e-07
2.36976e-08
5.92212e-07
-1.06864e-07
2.37502e-08
5.86298e-07
-1.06839e-07
2.37774e-08
5.80367e-07
-1.06833e-07
2.38016e-08
5.74473e-07
-1.06837e-07
2.38117e-08
5.68638e-07
-1.06881e-07
2.37842e-08
-1.06949e-07
2.37e-08
7.39042e-07
1.51455e-08
7.33629e-07
1.54633e-08
7.27885e-07
1.57257e-08
7.2188e-07
1.59389e-08
7.1567e-07
1.61106e-08
7.09304e-07
1.62424e-08
7.02827e-07
1.63379e-08
6.96264e-07
1.64015e-08
6.89645e-07
1.64384e-08
6.82984e-07
1.64353e-08
1.64094e-08
2.10572e-07
-2.89674e-08
6.66658e-08
2.07873e-07
-2.90852e-08
6.65832e-08
2.05285e-07
-2.91791e-08
6.65075e-08
2.02807e-07
-2.92652e-08
6.64444e-08
2.0044e-07
-2.93627e-08
6.64084e-08
1.98172e-07
-2.94425e-08
6.63774e-08
1.96023e-07
-2.95506e-08
6.63502e-08
1.93958e-07
-2.96341e-08
6.63443e-08
1.92018e-07
-2.97415e-08
6.63163e-08
1.90172e-07
-2.98007e-08
6.62913e-08
-2.98143e-08
6.62689e-08
5.34475e-07
-5.37486e-08
6.11976e-08
5.30923e-07
-5.40934e-08
6.10177e-08
5.27551e-07
-5.43574e-08
6.09235e-08
5.24284e-07
-5.45482e-08
6.08616e-08
5.21103e-07
-5.47369e-08
6.08006e-08
5.17976e-07
-5.48778e-08
6.07588e-08
5.14921e-07
-5.50426e-08
6.06734e-08
5.11912e-07
-5.51629e-08
6.06174e-08
5.08926e-07
-5.52721e-08
6.05411e-08
5.05932e-07
-5.53157e-08
6.05263e-08
-5.53215e-08
6.05548e-08
8.30495e-07
-7.53443e-08
5.31656e-08
8.28711e-07
-7.57848e-08
5.30135e-08
8.27052e-07
-7.61411e-08
5.28976e-08
8.25469e-07
-7.64151e-08
5.28236e-08
8.23916e-07
-7.66501e-08
5.27608e-08
8.22356e-07
-7.68134e-08
5.27234e-08
8.20767e-07
-7.69619e-08
5.26623e-08
8.19121e-07
-7.70419e-08
5.26463e-08
8.17466e-07
-7.71427e-08
5.26067e-08
8.1573e-07
-7.71985e-08
5.26134e-08
-7.72528e-08
5.26059e-08
1.04286e-06
-9.21051e-08
4.02465e-08
1.04263e-06
-9.23994e-08
4.02851e-08
1.04231e-06
-9.26173e-08
4.03394e-08
1.04191e-06
-9.27775e-08
4.03956e-08
1.04141e-06
-9.28979e-08
4.04452e-08
1.04081e-06
-9.29755e-08
4.05104e-08
1.0401e-06
-9.30356e-08
4.05564e-08
1.03929e-06
-9.30539e-08
4.06275e-08
1.03837e-06
-9.30763e-08
4.06668e-08
1.03735e-06
-9.31033e-08
4.07064e-08
-9.31402e-08
4.07024e-08
1.16767e-06
2.44242e-08
1.1686e-06
2.46832e-08
1.16925e-06
2.49153e-08
1.16965e-06
2.51189e-08
1.16983e-06
2.52955e-08
1.16982e-06
2.54494e-08
1.16963e-06
2.55779e-08
1.16929e-06
2.56921e-08
1.16882e-06
2.57698e-08
1.16825e-06
2.57993e-08
2.58174e-08
3.9316e-07
-2.04556e-08
9.19728e-08
3.88662e-07
-2.08062e-08
9.18868e-08
3.84445e-07
-2.11006e-08
9.18249e-08
3.80457e-07
-2.13477e-08
9.17801e-08
3.76667e-07
-2.15349e-08
9.1733e-08
3.7305e-07
-2.16942e-08
9.16888e-08
3.69597e-07
-2.18599e-08
9.1663e-08
3.66276e-07
-2.19732e-08
9.16393e-08
3.63077e-07
-2.21243e-08
9.16394e-08
3.59995e-07
-2.22419e-08
9.16152e-08
-2.2348e-08
9.15717e-08
8.07472e-07
-3.9921e-08
8.34755e-08
8.05054e-07
-4.04073e-08
8.30367e-08
8.02918e-07
-4.07663e-08
8.27247e-08
8.00992e-07
-4.10554e-08
8.24951e-08
7.9918e-07
-4.12624e-08
8.23407e-08
7.9743e-07
-4.14298e-08
8.22444e-08
7.95706e-07
-4.16183e-08
8.21553e-08
7.93974e-07
-4.17407e-08
8.21172e-08
7.92271e-07
-4.19133e-08
8.20329e-08
7.90542e-07
-4.19972e-08
8.20109e-08
-4.20376e-08
8.20188e-08
1.11594e-06
-5.74821e-08
7.05738e-08
1.11635e-06
-5.80094e-08
7.02137e-08
1.11696e-06
-5.84324e-08
6.99495e-08
1.11774e-06
-5.87728e-08
6.97557e-08
1.11865e-06
-5.9037e-08
6.96273e-08
1.11967e-06
-5.9261e-08
6.95339e-08
1.12076e-06
-5.94792e-08
6.94368e-08
1.12194e-06
-5.96496e-08
6.93786e-08
1.1231e-06
-5.98025e-08
6.93308e-08
1.12426e-06
-5.98749e-08
6.93366e-08
-5.99136e-08
6.93671e-08
1.33137e-06
-7.18678e-08
5.21702e-08
1.33388e-06
-7.22467e-08
5.2019e-08
1.33642e-06
-7.25525e-08
5.19142e-08
1.339e-06
-7.27957e-08
5.18401e-08
1.3416e-06
-7.29871e-08
5.17929e-08
1.34422e-06
-7.3137e-08
5.17652e-08
1.34682e-06
-7.3263e-08
5.17421e-08
1.34942e-06
-7.3356e-08
5.17376e-08
1.35197e-06
-7.34263e-08
5.17411e-08
1.35447e-06
-7.34539e-08
5.17813e-08
-7.34734e-08
5.18201e-08
1.45796e-06
3.02941e-08
1.46185e-06
3.03445e-08
1.46561e-06
3.04016e-08
1.46927e-06
3.04612e-08
1.47282e-06
3.05215e-08
1.47629e-06
3.05807e-08
1.47967e-06
3.06348e-08
1.483e-06
3.06845e-08
1.48627e-06
3.07241e-08
1.48948e-06
3.0762e-08
3.07902e-08
5.70628e-07
-1.1232e-08
1.09618e-07
5.64537e-07
-1.14551e-08
1.09434e-07
5.58733e-07
-1.16785e-08
1.09307e-07
5.53197e-07
-1.19028e-08
1.09219e-07
5.47898e-07
-1.21228e-08
1.09155e-07
5.4281e-07
-1.23299e-08
1.09106e-07
5.37913e-07
-1.25159e-08
1.09076e-07
5.33183e-07
-1.26893e-08
1.09059e-07
5.28605e-07
-1.28429e-08
1.0906e-07
5.24158e-07
-1.29951e-08
1.09058e-07
-1.31601e-08
1.09054e-07
1.01267e-06
-2.45636e-08
9.85835e-08
1.01117e-06
-2.49276e-08
9.80096e-08
1.00991e-06
-2.52415e-08
9.75477e-08
1.00884e-06
-2.55214e-08
9.71811e-08
1.00792e-06
-2.57639e-08
9.68998e-08
1.00711e-06
-2.59614e-08
9.66873e-08
1.00636e-06
-2.61328e-08
9.65234e-08
1.00567e-06
-2.6283e-08
9.64042e-08
1.005e-06
-2.64405e-08
9.63016e-08
1.00435e-06
-2.65689e-08
9.62359e-08
-2.67019e-08
9.61863e-08
1.32004e-06
-3.72718e-08
8.16368e-08
1.32186e-06
-3.76972e-08
8.11593e-08
1.32386e-06
-3.80589e-08
8.07671e-08
1.32602e-06
-3.83699e-08
8.04501e-08
1.32831e-06
-3.86275e-08
8.02022e-08
1.3307e-06
-3.88396e-08
8.00138e-08
1.33318e-06
-3.90301e-08
7.98604e-08
1.33573e-06
-3.91963e-08
7.97409e-08
1.33831e-06
-3.93419e-08
7.96502e-08
1.34094e-06
-3.9454e-08
7.95969e-08
-3.95389e-08
7.95732e-08
1.53513e-06
-4.82412e-08
5.90629e-08
1.53922e-06
-4.85692e-08
5.87971e-08
1.54335e-06
-4.88463e-08
5.85805e-08
1.5475e-06
-4.90828e-08
5.84014e-08
1.55168e-06
-4.92788e-08
5.82579e-08
1.55591e-06
-4.94415e-08
5.81451e-08
1.56014e-06
-4.9582e-08
5.80553e-08
1.5644e-06
-4.97011e-08
5.79876e-08
1.56866e-06
-4.97984e-08
5.79407e-08
1.57293e-06
-4.98656e-08
5.79214e-08
-4.99159e-08
5.79183e-08
1.66322e-06
3.28537e-08
1.66875e-06
3.27645e-08
1.67419e-06
3.26943e-08
1.67956e-06
3.26392e-08
1.68487e-06
3.25975e-08
1.69014e-06
3.25673e-08
1.69537e-06
3.25457e-08
1.70056e-06
3.25312e-08
1.70571e-06
3.25223e-08
1.71085e-06
3.25222e-08
3.25229e-08
7.06318e-07
-2.27264e-09
1.1822e-07
6.99971e-07
-2.24024e-09
1.18021e-07
6.93637e-07
-2.22958e-09
1.1787e-07
6.87347e-07
-2.24526e-09
1.17754e-07
6.81121e-07
-2.28583e-09
1.17666e-07
6.74973e-07
-2.34704e-09
1.17601e-07
6.68916e-07
-2.42104e-09
1.17554e-07
6.62956e-07
-2.5059e-09
1.17525e-07
6.57102e-07
-2.5965e-09
1.17511e-07
6.51353e-07
-2.70032e-09
1.17507e-07
-2.81395e-09
1.17511e-07
1.14682e-06
-8.5194e-09
1.05161e-07
1.14644e-06
-8.56565e-09
1.0471e-07
1.14605e-06
-8.61527e-09
1.04328e-07
1.14564e-06
-8.66893e-09
1.04008e-07
1.14524e-06
-8.72492e-09
1.03743e-07
1.14484e-06
-8.78347e-09
1.03525e-07
1.14443e-06
-8.84543e-09
1.0335e-07
1.14404e-06
-8.91116e-09
1.03207e-07
1.14364e-06
-8.98538e-09
1.0309e-07
1.14324e-06
-9.06665e-09
1.03e-07
-9.15923e-09
1.02933e-07
1.44823e-06
-1.54514e-08
8.5433e-08
1.45134e-06
-1.56169e-08
8.50979e-08
1.45445e-06
-1.57638e-08
8.48059e-08
1.45757e-06
-1.58919e-08
8.45557e-08
1.4607e-06
-1.60003e-08
8.43436e-08
1.46386e-06
-1.60943e-08
8.41666e-08
1.46704e-06
-1.61808e-08
8.40203e-08
1.47023e-06
-1.62614e-08
8.39001e-08
1.47343e-06
-1.63383e-08
8.38029e-08
1.47663e-06
-1.64065e-08
8.37305e-08
-1.64725e-08
8.36803e-08
1.66063e-06
-2.21802e-08
6.04331e-08
1.6659e-06
-2.23568e-08
6.02581e-08
1.67113e-06
-2.2512e-08
6.01053e-08
1.67631e-06
-2.26473e-08
5.99741e-08
1.68147e-06
-2.27633e-08
5.98633e-08
1.68661e-06
-2.28626e-08
5.9771e-08
1.69174e-06
-2.29493e-08
5.9695e-08
1.69686e-06
-2.30249e-08
5.96338e-08
1.70196e-06
-2.30903e-08
5.95861e-08
1.70707e-06
-2.31421e-08
5.95521e-08
-2.31884e-08
5.95286e-08
1.78881e-06
-2.80304e-08
3.19628e-08
1.79542e-06
-2.80959e-08
3.18958e-08
1.80192e-06
-2.8153e-08
3.18383e-08
1.80832e-06
-2.82022e-08
3.17897e-08
1.81465e-06
-2.82439e-08
3.17495e-08
1.82092e-06
-2.82793e-08
3.17168e-08
1.82713e-06
-2.83096e-08
3.16905e-08
1.83331e-06
-2.8336e-08
3.167e-08
1.83944e-06
-2.83585e-08
3.16546e-08
1.84555e-06
-2.83763e-08
3.16448e-08
-2.8392e-08
3.1638e-08
1.83138e-06
1.91124e-09
1.83842e-06
1.87272e-09
1.84534e-06
1.83863e-09
1.85214e-06
1.80891e-09
1.85885e-06
1.7834e-09
1.86548e-06
1.76167e-09
1.87204e-06
1.74311e-09
1.87855e-06
1.72726e-09
1.88501e-06
1.71397e-09
1.89144e-06
1.70388e-09
1.69444e-09
7.67345e-07
6.40113e-09
1.17194e-07
7.61617e-07
6.68306e-09
1.17066e-07
7.55624e-07
6.90437e-09
1.16959e-07
7.49433e-07
7.07346e-09
1.16872e-07
7.43102e-07
7.19397e-09
1.16803e-07
7.36678e-07
7.2711e-09
1.16754e-07
7.302e-07
7.31787e-09
1.16715e-07
7.23695e-07
7.33794e-09
1.16691e-07
7.17192e-07
7.33652e-09
1.16678e-07
7.10702e-07
7.31591e-09
1.16681e-07
7.26526e-09
1.16718e-07
1.20122e-06
7.78934e-09
1.0265e-07
1.20203e-06
8.02888e-09
1.02562e-07
1.20256e-06
8.22974e-09
1.02466e-07
1.20288e-06
8.39441e-09
1.02369e-07
1.20302e-06
8.52494e-09
1.02276e-07
1.203e-06
8.6246e-09
1.02187e-07
1.20286e-06
8.70167e-09
1.02108e-07
1.20262e-06
8.75694e-09
1.02033e-07
1.20228e-06
8.78844e-09
1.01971e-07
1.20187e-06
8.8003e-09
1.01927e-07
8.77361e-09
1.0189e-07
1.49587e-06
7.22791e-09
8.17724e-08
1.49992e-06
7.28079e-09
8.17963e-08
1.50382e-06
7.32809e-09
8.18012e-08
1.50761e-06
7.37003e-09
8.17924e-08
1.5113e-06
7.40723e-09
8.17725e-08
1.51491e-06
7.4388e-09
8.17456e-08
1.51845e-06
7.46205e-09
8.17204e-08
1.52193e-06
7.47655e-09
8.1697e-08
1.52536e-06
7.48192e-09
8.16752e-08
1.52876e-06
7.48617e-09
8.16498e-08
7.47474e-09
8.16174e-08
1.70442e-06
5.17196e-09
5.64419e-08
1.71033e-06
5.11368e-09
5.652e-08
1.71612e-06
5.06347e-09
5.65827e-08
1.72181e-06
5.02095e-09
5.66332e-08
1.72742e-06
4.98553e-09
5.6673e-08
1.73297e-06
4.95597e-09
5.67046e-08
1.73846e-06
4.9305e-09
5.67313e-08
1.74391e-06
4.90822e-09
5.67542e-08
1.74932e-06
4.88879e-09
5.67722e-08
1.7547e-06
4.87485e-09
5.67818e-08
4.85829e-09
5.67858e-08
1.83139e-06
1.90115e-09
2.80386e-08
1.83843e-06
1.86197e-09
2.81029e-08
1.84535e-06
1.82755e-09
2.81599e-08
1.85215e-06
1.79787e-09
2.821e-08
1.85886e-06
1.77269e-09
2.82535e-08
1.86549e-06
1.75158e-09
2.82912e-08
1.87205e-06
1.73387e-09
2.83242e-08
1.87856e-06
1.71907e-09
2.8353e-08
1.88502e-06
1.70696e-09
2.83777e-08
1.89144e-06
1.69797e-09
2.83973e-08
1.68956e-09
2.84142e-08
1.87403e-06
-1.89188e-09
1.88148e-06
-1.85245e-09
1.88879e-06
-1.81725e-09
1.89598e-06
-1.78628e-09
1.90307e-06
-1.75934e-09
1.91007e-06
-1.73606e-09
1.91699e-06
-1.7159e-09
1.92385e-06
-1.69854e-09
1.93065e-06
-1.68393e-09
1.93741e-06
-1.67268e-09
-1.66225e-09
7.39064e-07
1.51374e-08
1.07049e-07
7.33654e-07
1.54592e-08
1.07018e-07
7.27912e-07
1.57245e-08
1.06976e-07
7.21907e-07
1.59394e-08
1.06937e-07
7.15697e-07
1.61116e-08
1.06902e-07
7.09332e-07
1.62432e-08
1.06876e-07
7.02856e-07
1.63374e-08
1.06853e-07
6.96299e-07
1.63999e-08
1.06848e-07
6.8969e-07
1.64348e-08
1.06853e-07
6.83043e-07
1.64269e-08
1.069e-07
1.63952e-08
1.06978e-07
1.16767e-06
2.44115e-08
9.21215e-08
1.16861e-06
2.46732e-08
9.24117e-08
1.16926e-06
2.49073e-08
9.26281e-08
1.16967e-06
2.5112e-08
9.27896e-08
1.16985e-06
2.52892e-08
9.29115e-08
1.16985e-06
2.54427e-08
9.29933e-08
1.16967e-06
2.55703e-08
9.30559e-08
1.16934e-06
2.5683e-08
9.30791e-08
1.16888e-06
2.5759e-08
9.31059e-08
1.16831e-06
2.5787e-08
9.31342e-08
2.58073e-08
9.31633e-08
1.458e-06
3.02882e-08
7.18583e-08
1.46189e-06
3.03383e-08
7.22377e-08
1.46566e-06
3.03951e-08
7.25463e-08
1.46931e-06
3.04543e-08
7.27944e-08
1.47287e-06
3.05142e-08
7.29909e-08
1.47634e-06
3.05729e-08
7.31466e-08
1.47972e-06
3.06265e-08
7.32776e-08
1.48305e-06
3.06758e-08
7.33762e-08
1.48632e-06
3.07153e-08
7.34516e-08
1.48952e-06
3.07537e-08
7.34794e-08
3.07841e-08
7.34961e-08
1.66328e-06
3.28489e-08
4.82372e-08
1.66881e-06
3.27595e-08
4.85636e-08
1.67426e-06
3.26889e-08
4.88416e-08
1.67963e-06
3.26334e-08
4.90813e-08
1.68494e-06
3.25914e-08
4.92818e-08
1.69021e-06
3.25611e-08
4.94495e-08
1.69543e-06
3.25396e-08
4.95949e-08
1.70062e-06
3.25257e-08
4.97188e-08
1.70577e-06
3.25178e-08
4.98202e-08
1.7109e-06
3.25189e-08
4.98893e-08
3.25217e-08
4.99403e-08
1.78886e-06
3.19542e-08
2.21866e-08
1.79548e-06
3.1888e-08
2.23613e-08
1.80198e-06
3.1831e-08
2.25161e-08
1.80839e-06
3.17826e-08
2.26528e-08
1.81472e-06
3.17425e-08
2.27714e-08
1.82098e-06
3.17099e-08
2.28742e-08
1.8272e-06
3.1684e-08
2.29647e-08
1.83337e-06
3.16641e-08
2.30442e-08
1.8395e-06
3.16496e-08
2.31131e-08
1.84561e-06
3.16409e-08
2.31679e-08
3.16355e-08
2.32165e-08
1.83141e-06
-5.16343e-09
1.83846e-06
-5.10572e-09
1.84537e-06
-5.05517e-09
1.85218e-06
-5.01137e-09
1.85889e-06
-4.97376e-09
1.86552e-06
-4.94121e-09
1.87209e-06
-4.91221e-09
1.8786e-06
-4.8861e-09
1.88506e-06
-4.86284e-09
1.89149e-06
-4.84537e-09
-4.82507e-09
6.20551e-07
2.3311e-08
8.89771e-08
6.15151e-07
2.34282e-08
8.89893e-08
6.09605e-07
2.35399e-08
8.89832e-08
6.0393e-07
2.36277e-08
8.8984e-08
5.98148e-07
2.36973e-08
8.89862e-08
5.92284e-07
2.37502e-08
8.89903e-08
5.86374e-07
2.37763e-08
8.89865e-08
5.80452e-07
2.38024e-08
8.89683e-08
5.74568e-07
2.38071e-08
8.89289e-08
5.68751e-07
2.37699e-08
8.89481e-08
5.63027e-07
2.36877e-08
8.90147e-08
2.35724e-08
8.90812e-08
1.04289e-06
4.0229e-08
7.53627e-08
1.04266e-06
4.02718e-08
7.57986e-08
1.04234e-06
4.03294e-08
7.61542e-08
1.04195e-06
4.03871e-08
7.64294e-08
1.04145e-06
4.04395e-08
7.66645e-08
1.04086e-06
4.05035e-08
7.68319e-08
1.04016e-06
4.05505e-08
7.69752e-08
1.03936e-06
4.0619e-08
7.70663e-08
1.03845e-06
4.0652e-08
7.71694e-08
1.03745e-06
4.06881e-08
7.72195e-08
1.03632e-06
4.06964e-08
7.72794e-08
7.7337e-08
1.3315e-06
5.21735e-08
5.74625e-08
1.334e-06
5.20209e-08
5.79939e-08
1.33653e-06
5.19144e-08
5.84234e-08
1.33911e-06
5.1838e-08
5.87714e-08
1.3417e-06
5.17894e-08
5.90421e-08
1.34432e-06
5.17599e-08
5.92716e-08
1.34692e-06
5.17357e-08
5.94925e-08
1.34952e-06
5.17289e-08
5.96694e-08
1.35207e-06
5.17293e-08
5.98269e-08
1.35457e-06
5.17705e-08
5.98973e-08
5.18123e-08
5.99435e-08
1.53529e-06
5.90684e-08
3.72642e-08
1.53939e-06
5.88019e-08
3.76881e-08
1.54351e-06
5.85838e-08
3.80516e-08
1.54766e-06
5.84026e-08
3.83668e-08
1.55184e-06
5.82567e-08
3.86303e-08
1.55606e-06
5.81417e-08
3.88484e-08
1.5603e-06
5.80503e-08
3.90436e-08
1.56455e-06
5.79812e-08
3.92149e-08
1.5688e-06
5.79335e-08
3.93642e-08
1.57307e-06
5.79149e-08
3.94776e-08
5.79133e-08
3.95638e-08
1.66075e-06
6.04299e-08
1.54573e-08
1.66604e-06
6.02563e-08
1.56201e-08
1.67127e-06
6.01039e-08
1.57662e-08
1.67645e-06
5.9972e-08
1.58958e-08
1.68162e-06
5.98597e-08
1.60075e-08
1.68676e-06
5.97658e-08
1.61056e-08
1.69189e-06
5.96884e-08
1.61967e-08
1.69701e-06
5.96263e-08
1.62818e-08
1.70211e-06
5.95781e-08
1.63626e-08
1.70722e-06
5.95444e-08
1.64339e-08
5.95221e-08
1.65028e-08
1.70449e-06
-7.22166e-09
1.7104e-06
-7.27562e-09
1.71619e-06
-7.32293e-09
1.72189e-06
-7.36379e-09
1.7275e-06
-7.39874e-09
1.73306e-06
-7.42693e-09
1.73856e-06
-7.44613e-09
1.74401e-06
-7.45604e-09
1.74942e-06
-7.45677e-09
1.75481e-06
-7.45656e-09
-7.43977e-09
4.34023e-07
2.95807e-08
6.36675e-08
4.29848e-07
2.95283e-08
6.36364e-08
4.25728e-07
2.94553e-08
6.36481e-08
4.21641e-07
2.93786e-08
6.36921e-08
4.1758e-07
2.93016e-08
6.37452e-08
4.13536e-07
2.92347e-08
6.37996e-08
4.09516e-07
2.9164e-08
6.38432e-08
4.05497e-07
2.91253e-08
6.38616e-08
4.01474e-07
2.90804e-08
6.38712e-08
3.97501e-07
2.89949e-08
6.39267e-08
3.93657e-07
2.88043e-08
6.40538e-08
2.86188e-08
6.4172e-08
8.30551e-07
5.31591e-08
5.37626e-08
8.28758e-07
5.30099e-08
5.41099e-08
8.27099e-07
5.28943e-08
5.43741e-08
8.25523e-07
5.28203e-08
5.45637e-08
8.23983e-07
5.27588e-08
5.47477e-08
8.2244e-07
5.27198e-08
5.48898e-08
8.20867e-07
5.26674e-08
5.50448e-08
8.19246e-07
5.26377e-08
5.5175e-08
8.17613e-07
5.25956e-08
5.52871e-08
8.15896e-07
5.26099e-08
5.53221e-08
8.1405e-07
5.25823e-08
5.53471e-08
5.53721e-08
1.11617e-06
7.05972e-08
3.99072e-08
1.11654e-06
7.02317e-08
4.03955e-08
1.11714e-06
6.99612e-08
4.0761e-08
1.11791e-06
6.97611e-08
4.10574e-08
1.11882e-06
6.96278e-08
4.12695e-08
1.11984e-06
6.95309e-08
4.14392e-08
1.12093e-06
6.94332e-08
4.16303e-08
1.12212e-06
6.93699e-08
4.17534e-08
1.12329e-06
6.93186e-08
4.19292e-08
1.12446e-06
6.93272e-08
4.20151e-08
6.9351e-08
4.20589e-08
1.32033e-06
8.16554e-08
2.45705e-08
1.32214e-06
8.1176e-08
2.49296e-08
1.32413e-06
8.07799e-08
2.52428e-08
1.32628e-06
8.04577e-08
2.55247e-08
1.32856e-06
8.02039e-08
2.57713e-08
1.33095e-06
8.00107e-08
2.5973e-08
1.33343e-06
7.98541e-08
2.61479e-08
1.33598e-06
7.97317e-08
2.63009e-08
1.33856e-06
7.96393e-08
2.64599e-08
1.34119e-06
7.95868e-08
2.65924e-08
7.95644e-08
2.67159e-08
1.44845e-06
8.5435e-08
8.53272e-09
1.45156e-06
8.51014e-08
8.57502e-09
1.45468e-06
8.48089e-08
8.62272e-09
1.4578e-06
8.45564e-08
8.67675e-09
1.46093e-06
8.43407e-08
8.73492e-09
1.46409e-06
8.41601e-08
8.79684e-09
1.46727e-06
8.40107e-08
8.86263e-09
1.47047e-06
8.3888e-08
8.93233e-09
1.47367e-06
8.37893e-08
9.01003e-09
1.47688e-06
8.37168e-08
9.09481e-09
8.36676e-08
9.18931e-09
1.49599e-06
-7.78469e-09
1.50005e-06
-8.02545e-09
1.50396e-06
-8.22646e-09
1.50775e-06
-8.39011e-09
1.51144e-06
-8.51828e-09
1.51505e-06
-8.61455e-09
1.5186e-06
-8.68788e-09
1.52208e-06
-8.73873e-09
1.52552e-06
-8.76509e-09
1.52892e-06
-8.77112e-09
-8.73801e-09
2.23712e-07
3.25729e-08
3.38301e-08
2.21073e-07
3.24671e-08
3.38082e-08
2.18542e-07
3.23829e-08
3.37959e-08
2.16119e-07
3.23196e-08
3.37962e-08
2.138e-07
3.22522e-08
3.38116e-08
2.11565e-07
3.22022e-08
3.38328e-08
2.09414e-07
3.21338e-08
3.38603e-08
2.07309e-07
3.20824e-08
3.38845e-08
2.05248e-07
3.20248e-08
3.39073e-08
2.03216e-07
3.20217e-08
3.39369e-08
2.01245e-07
3.20355e-08
3.39896e-08
3.20361e-08
3.40439e-08
5.34453e-07
6.12096e-08
2.89586e-08
5.30927e-07
6.10278e-08
2.90755e-08
5.27583e-07
6.09285e-08
2.91728e-08
5.2434e-07
6.08632e-08
2.92625e-08
5.21177e-07
6.08034e-08
2.93603e-08
5.18065e-07
6.07615e-08
2.94419e-08
5.15018e-07
6.06795e-08
2.95467e-08
5.12017e-07
6.06222e-08
2.96359e-08
5.09041e-07
6.05435e-08
2.97444e-08
5.06058e-07
6.05288e-08
2.97978e-08
5.03075e-07
6.05445e-08
2.98215e-08
2.98321e-08
8.07602e-07
8.34852e-08
2.04806e-08
8.05162e-07
8.30471e-08
2.08158e-08
8.03023e-07
8.27313e-08
2.10976e-08
8.01107e-07
8.24968e-08
2.13402e-08
7.99314e-07
8.23388e-08
2.15272e-08
7.97587e-07
8.22411e-08
2.1686e-08
7.95892e-07
8.21506e-08
2.18543e-08
7.94187e-07
8.21119e-08
2.19687e-08
7.92509e-07
8.20281e-08
2.2122e-08
7.90806e-07
8.20035e-08
2.22439e-08
8.20147e-08
2.23481e-08
1.01291e-06
9.85823e-08
1.12714e-08
1.01139e-06
9.80105e-08
1.14845e-08
1.01012e-06
9.75468e-08
1.16984e-08
1.00905e-06
9.71765e-08
1.19151e-08
1.00814e-06
9.68913e-08
1.21309e-08
1.00734e-06
9.66758e-08
1.23365e-08
1.0066e-06
9.65093e-08
1.25221e-08
1.00593e-06
9.63887e-08
1.26964e-08
1.00528e-06
9.6286e-08
1.28522e-08
1.00465e-06
9.62189e-08
1.30102e-08
9.61759e-08
1.31741e-08
1.14701e-06
1.05152e-07
2.29191e-09
1.14663e-06
1.04704e-07
2.25735e-09
1.14624e-06
1.04321e-07
2.24371e-09
1.14583e-06
1.03998e-07
2.25685e-09
1.14543e-06
1.03729e-07
2.29644e-09
1.14504e-06
1.03508e-07
2.35826e-09
1.14465e-06
1.03329e-07
2.43403e-09
1.14427e-06
1.03184e-07
2.5214e-09
1.14388e-06
1.03066e-07
2.61565e-09
1.14349e-06
1.02975e-07
2.72419e-09
1.02909e-07
2.84445e-09
1.20134e-06
-6.40044e-09
1.20214e-06
-6.68151e-09
1.20268e-06
-6.90231e-09
1.203e-06
-7.07046e-09
1.20314e-06
-7.18914e-09
1.20313e-06
-7.2637e-09
1.203e-06
-7.30713e-09
1.20276e-06
-7.32414e-09
1.20243e-06
-7.31823e-09
1.20203e-06
-7.29227e-09
-7.23559e-09
7.05362e-08
3.48742e-08
6.95422e-08
3.48021e-08
6.85928e-08
3.47453e-08
6.7683e-08
3.47061e-08
6.68131e-08
3.46815e-08
6.59775e-08
3.46684e-08
6.51855e-08
3.46524e-08
6.44247e-08
3.46453e-08
6.36975e-08
3.46345e-08
6.29906e-08
3.46438e-08
6.23066e-08
3.46736e-08
3.47043e-08
2.10607e-07
6.66297e-08
2.07915e-07
6.65695e-08
2.05322e-07
6.65111e-08
2.02836e-07
6.64549e-08
2.00459e-07
6.64191e-08
1.98181e-07
6.63875e-08
1.96025e-07
6.63558e-08
1.93956e-07
6.63497e-08
1.92016e-07
6.63196e-08
1.90168e-07
6.62893e-08
1.88393e-07
6.62698e-08
3.93072e-07
9.1915e-08
3.88609e-07
9.18487e-08
3.84411e-07
9.18064e-08
3.80432e-07
9.1774e-08
3.76645e-07
9.17328e-08
3.73028e-07
9.16903e-08
3.69575e-07
9.16639e-08
3.66255e-07
9.16383e-08
3.63061e-07
9.16356e-08
3.59989e-07
9.16054e-08
9.15592e-08
5.70396e-07
1.09566e-07
5.64336e-07
1.09393e-07
5.58563e-07
1.09278e-07
5.53052e-07
1.09199e-07
5.47775e-07
1.09141e-07
5.42707e-07
1.09095e-07
5.37828e-07
1.09065e-07
5.33116e-07
1.09046e-07
5.2856e-07
1.09044e-07
5.24139e-07
1.09036e-07
1.09023e-07
7.06116e-07
1.18194e-07
6.9977e-07
1.17997e-07
6.93444e-07
1.17848e-07
6.87167e-07
1.17734e-07
6.80957e-07
1.17647e-07
6.74828e-07
1.17583e-07
6.68792e-07
1.17535e-07
6.62856e-07
1.17503e-07
6.57029e-07
1.17486e-07
6.51312e-07
1.17478e-07
1.17476e-07
7.67231e-07
7.61497e-07
7.55504e-07
7.49317e-07
7.42993e-07
7.36581e-07
7.30115e-07
7.23628e-07
7.17145e-07
7.10681e-07
)
;

boundaryField
{
    inlet
    {
        type            calculated;
        value           nonuniform List<scalar> 0();
    }
    ami1
    {
        type            cyclicAMI;
        value           nonuniform List<scalar> 0();
    }
    walls
    {
        type            calculated;
        value           nonuniform List<scalar> 
248
(
2.90979e-14
2.43942e-14
1.84387e-14
1.28555e-14
6.40674e-15
2.90979e-14
2.43942e-14
1.84387e-14
1.28555e-14
6.40674e-15
2.90979e-14
2.43942e-14
1.84387e-14
1.28555e-14
6.40674e-15
2.90979e-14
2.43942e-14
1.84387e-14
1.28555e-14
6.40674e-15
2.90979e-14
2.43942e-14
1.84387e-14
1.28555e-14
6.40674e-15
2.90979e-14
2.43942e-14
1.84387e-14
1.28555e-14
6.40674e-15
2.90979e-14
2.43942e-14
1.84387e-14
1.28555e-14
6.40674e-15
2.90979e-14
2.43942e-14
1.84387e-14
1.28555e-14
6.40674e-15
2.90979e-14
2.43942e-14
1.84387e-14
1.28555e-14
6.40674e-15
2.90979e-14
2.43942e-14
1.84387e-14
1.28555e-14
6.40674e-15
2.90979e-14
2.43942e-14
1.84387e-14
1.28555e-14
6.40674e-15
-2.90979e-14
-2.43942e-14
-1.84387e-14
-1.28555e-14
-6.40674e-15
-3.05281e-22
-2.90979e-14
-2.43942e-14
-1.84387e-14
-1.28555e-14
-6.40674e-15
-3.05281e-22
-2.90979e-14
-2.43942e-14
-1.84387e-14
-1.28555e-14
-6.40674e-15
-3.05281e-22
-2.90979e-14
-2.43942e-14
-1.84387e-14
-1.28555e-14
-6.40674e-15
-2.23516e-22
-2.90979e-14
-2.43942e-14
-1.84387e-14
-1.28555e-14
-6.40674e-15
-3.05459e-22
-2.90979e-14
-2.43942e-14
-1.84387e-14
-1.28555e-14
-6.40674e-15
-3.05459e-22
-2.90979e-14
-2.43942e-14
-1.84387e-14
-1.28555e-14
-6.40674e-15
-3.05378e-22
-2.90979e-14
-2.43942e-14
-1.84387e-14
-1.28555e-14
-6.40674e-15
-3.05378e-22
-2.90979e-14
-2.43942e-14
-1.84387e-14
-1.28555e-14
-6.40674e-15
-3.06057e-22
-2.90979e-14
-2.43942e-14
-1.84387e-14
-1.28555e-14
-6.40674e-15
-3.06057e-22
-2.90979e-14
-2.43942e-14
-1.84387e-14
-1.28555e-14
-6.40674e-15
-2.24809e-22
-2.90979e-14
-2.43942e-14
-2.90979e-14
-2.43942e-14
-1.84387e-14
-1.28555e-14
-6.40674e-15
-3.05281e-22
6.40674e-15
1.28555e-14
1.84387e-14
2.43942e-14
2.90979e-14
-2.90979e-14
-2.43942e-14
-1.84387e-14
-1.28555e-14
-6.40674e-15
-3.05281e-22
6.40674e-15
1.28555e-14
1.84387e-14
2.43942e-14
2.90979e-14
-2.90979e-14
-2.43942e-14
-1.84387e-14
-1.28555e-14
-6.40674e-15
-3.05281e-22
6.40674e-15
1.28555e-14
1.84387e-14
2.43942e-14
2.90979e-14
-2.90979e-14
-2.43942e-14
-1.84387e-14
-1.28555e-14
-6.40674e-15
-2.23516e-22
6.40674e-15
1.28555e-14
1.84387e-14
2.43942e-14
2.90979e-14
-2.90979e-14
-2.43942e-14
-1.84387e-14
-1.28555e-14
-6.40674e-15
-3.05459e-22
6.40674e-15
1.28555e-14
1.84387e-14
2.43942e-14
2.90979e-14
-2.90979e-14
-2.43942e-14
-1.84387e-14
-1.28555e-14
-6.40674e-15
-3.05459e-22
6.40674e-15
1.28555e-14
1.84387e-14
2.43942e-14
2.90979e-14
-2.90979e-14
-2.43942e-14
-1.84387e-14
-1.28555e-14
-6.40674e-15
-3.05378e-22
6.40674e-15
1.28555e-14
1.84387e-14
2.43942e-14
2.90979e-14
-2.90979e-14
-2.43942e-14
-1.84387e-14
-1.28555e-14
-6.40674e-15
-3.05378e-22
6.40674e-15
1.28555e-14
1.84387e-14
2.43942e-14
2.90979e-14
-2.90979e-14
-2.43942e-14
-1.84387e-14
-1.28555e-14
-6.40674e-15
-3.06057e-22
6.40674e-15
1.28555e-14
1.84387e-14
2.43942e-14
2.90979e-14
-2.90979e-14
-2.43942e-14
-1.84387e-14
-1.28555e-14
-6.40674e-15
-3.06057e-22
6.40674e-15
1.28555e-14
1.84387e-14
2.43942e-14
2.90979e-14
-2.90979e-14
-2.43942e-14
-1.84387e-14
-1.28555e-14
-6.40674e-15
-2.24809e-22
6.40674e-15
1.28555e-14
1.84387e-14
2.43942e-14
2.90979e-14
1.28555e-14
1.84387e-14
2.43942e-14
2.90979e-14
)
;
    }
    ami2
    {
        type            cyclicAMI;
        value           nonuniform List<scalar> 0();
    }
    outlet
    {
        type            calculated;
        value           nonuniform List<scalar> 0();
    }
    procBoundary8to0
    {
        type            processor;
        value           nonuniform List<scalar> 
29
(
-7.15804e-08
-2.26389e-07
-4.38231e-07
-6.2577e-07
-7.44038e-07
-2.13398e-07
-5.38323e-07
-8.32453e-07
-1.04301e-06
-1.16642e-06
-3.98011e-07
-8.10284e-07
-1.11579e-06
-1.32891e-06
-1.45392e-06
-5.77041e-07
-1.01445e-06
-1.31839e-06
-1.53105e-06
-1.65758e-06
-7.12649e-07
-1.14715e-06
-1.44509e-06
-1.65527e-06
-1.78207e-06
-1.82419e-06
-1.69838e-06
-1.82419e-06
-1.86642e-06
)
;
    }
    procBoundary8to1
    {
        type            processor;
        value           nonuniform List<scalar> 
33
(
-7.7272e-07
-1.2001e-06
-1.49165e-06
-7.44056e-07
-1.16642e-06
-1.45396e-06
-1.65763e-06
-1.78212e-06
-1.82421e-06
-6.25791e-07
-1.04305e-06
-1.32905e-06
-1.53122e-06
-1.65538e-06
-1.69844e-06
-4.38294e-07
-8.32529e-07
-1.11605e-06
-1.31869e-06
-1.4453e-06
-1.49176e-06
-2.26447e-07
-5.38286e-07
-8.10452e-07
-1.01471e-06
-1.14734e-06
-1.20021e-06
-7.15803e-08
-2.13404e-07
-3.97877e-07
-5.76776e-07
-7.12453e-07
-7.72618e-07
)
;
    }
    procBoundary8to7
    {
        type            processor;
        value           nonuniform List<scalar> 
68
(
6.22963e-08
2.01197e-07
3.93509e-07
5.62882e-07
6.76315e-07
1.88392e-07
5.02925e-07
8.13866e-07
1.03624e-06
1.16756e-06
3.5704e-07
7.88768e-07
1.12537e-06
1.35691e-06
1.49262e-06
5.19835e-07
1.00372e-06
1.34357e-06
1.57721e-06
1.71596e-06
6.4571e-07
1.14284e-06
1.47984e-06
1.71217e-06
1.85164e-06
1.89784e-06
7.0423e-07
1.20141e-06
1.53212e-06
1.76006e-06
1.89783e-06
1.94413e-06
6.76387e-07
-1.07045e-07
1.16763e-06
-9.31858e-08
1.49267e-06
1.716e-06
1.85169e-06
1.89788e-06
5.57418e-07
1.03508e-06
4.0662e-08
1.357e-06
1.57735e-06
1.71232e-06
1.76017e-06
3.89948e-07
8.12082e-07
5.25514e-08
1.12557e-06
1.34383e-06
1.48009e-06
1.53229e-06
1.99336e-07
5.00091e-07
6.05594e-08
7.89047e-07
1.00403e-06
1.14311e-06
1.20158e-06
6.16463e-08
1.86675e-07
6.62545e-08
3.57047e-07
5.1985e-07
6.45703e-07
7.04237e-07
)
;
    }
    procBoundary8to9
    {
        type            processor;
        value           nonuniform List<scalar> 
132
(
-1.17167e-07
-1.17049e-07
-1.16947e-07
-1.16861e-07
-1.16792e-07
-1.16741e-07
-1.16699e-07
-1.16672e-07
-1.16656e-07
-1.16655e-07
-1.16689e-07
-1.02634e-07
-1.02549e-07
-1.02456e-07
-1.02359e-07
-1.02263e-07
-1.02169e-07
-1.02086e-07
-1.02007e-07
-1.0194e-07
-1.01894e-07
-1.01858e-07
-8.17731e-08
-8.17983e-08
-8.18025e-08
-8.17909e-08
-8.17667e-08
-8.17347e-08
-8.17044e-08
-8.16762e-08
-8.16507e-08
-8.16239e-08
-8.15923e-08
-5.64403e-08
-5.65201e-08
-5.65826e-08
-5.66312e-08
-5.66679e-08
-5.66956e-08
-5.67183e-08
-5.67375e-08
-5.67527e-08
-5.67609e-08
-5.67647e-08
-5.18055e-09
-5.12333e-09
-5.07371e-09
-5.03128e-09
-4.99549e-09
-4.96516e-09
-4.93859e-09
-4.91493e-09
-4.89392e-09
-4.87858e-09
-4.86014e-09
-3.19547e-08
-3.18885e-08
-3.18311e-08
-3.17821e-08
-3.17408e-08
-3.17066e-08
-3.16789e-08
-3.16571e-08
-3.1641e-08
-3.16312e-08
-3.16247e-08
-1.90243e-09
-1.86316e-09
-1.82829e-09
-1.79775e-09
-1.77129e-09
-1.74848e-09
-1.72882e-09
-1.71195e-09
-1.69783e-09
-1.68705e-09
-1.67697e-09
2.8028e-08
2.80941e-08
2.81519e-08
2.82021e-08
2.82452e-08
2.82823e-08
2.83146e-08
2.83429e-08
2.83671e-08
2.83865e-08
2.84037e-08
5.64344e-08
5.65157e-08
5.65799e-08
5.663e-08
5.66685e-08
5.66984e-08
5.67233e-08
5.67445e-08
5.67605e-08
5.67688e-08
5.67727e-08
8.17664e-08
8.17945e-08
8.18011e-08
8.1791e-08
8.17681e-08
8.17383e-08
8.17098e-08
8.16839e-08
8.16588e-08