/*--------------------------------*- C++ -*----------------------------------*\
| =========                 |                                                 |
| \\      /  F ield         | OpenFOAM: The Open Source CFD Toolbox           |
|  \\    /   O peration     | Version:  2212                                  |
|   \\  /    A nd           | Website:  www.openfoam.com                      |
|    \\/     M anipulation  |                                                 |
\*---------------------------------------------------------------------------*/
FoamFile
{
    version     2.0;
    format      ascii;
    arch        "LSB;label=32;scalar=64";
    class       volScalarField;
    location    "0.55";
    object      k;
}
// * * * * * * * * * * * * * * * * * * * * * * * * * * * * * * * * * * * * * //

dimensions      [0 2 -2 0 0 0 0];

internalField   nonuniform List<scalar> 
6840
(
0.213564
0.055916
0.0283994
0.0193412
0.0146928
0.011851
0.00989079
0.00851603
0.00749163
0.00669702
0.00606082
0.00555379
0.00512558
0.00475346
0.00443859
0.00417707
0.0039611
0.00378765
0.00368708
0.00359002
0.264759
0.104702
0.0585298
0.039163
0.0286199
0.0219935
0.0175362
0.0143638
0.0120092
0.0102156
0.00881961
0.00771042
0.0068126
0.00607382
0.00546719
0.00497293
0.00456594
0.00423335
0.00396493
0.00377464
0.283364
0.126774
0.0717019
0.0473281
0.0338662
0.0256616
0.0204608
0.0167972
0.014049
0.0119422
0.010286
0.00895909
0.00788956
0.00701872
0.0063006
0.00570227
0.00520133
0.00478055
0.00442938
0.00415103
0.292299
0.141633
0.0819301
0.0541653
0.0389229
0.0292873
0.0232722
0.0190786
0.0159344
0.0135156
0.0116288
0.010116
0.00888697
0.00787882
0.00704429
0.00634774
0.00576166
0.0052646
0.00484159
0.00451049
0.295943
0.148782
0.087194
0.0576748
0.0415192
0.0310721
0.024645
0.020221
0.0169053
0.0143257
0.0123105
0.0107056
0.00940125
0.00833011
0.00744219
0.00669982
0.00607415
0.00554296
0.00509183
0.00473986
0.295943
0.148782
0.0871941
0.0576749
0.0415193
0.0310722
0.0246451
0.0202212
0.0169055
0.0143261
0.0123112
0.0107066
0.00940269
0.00833227
0.0074455
0.00670493
0.00608208
0.00555529
0.00511213
0.00478486
0.292299
0.141633
0.0819301
0.0541654
0.0389231
0.0292875
0.0232725
0.0190791
0.015935
0.0135165
0.0116302
0.010118
0.00888995
0.00788329
0.00705108
0.0063582
0.00577794
0.00529031
0.00488125
0.00456377
0.283364
0.126774
0.071702
0.0473282
0.0338663
0.0256617
0.0204611
0.0167975
0.0140495
0.0119431
0.0102873
0.00896098
0.00789232
0.00702284
0.00630702
0.00571226
0.00521698
0.00480529
0.00446914
0.00421411
0.264759
0.104702
0.0585298
0.039163
0.0286199
0.0219936
0.0175363
0.0143639
0.0120093
0.0102158
0.00882005
0.00771114
0.00681379
0.00607638
0.005471
0.00497907
0.0045767
0.00425396
0.00400558
0.00383947
0.213564
0.055916
0.0283994
0.0193412
0.0146928
0.011851
0.0098908
0.00851603
0.00749163
0.00669702
0.00606083
0.0055538
0.0051256
0.00475346
0.0044386
0.0041771
0.00396114
0.00378772
0.00368718
0.00359017
0.264759
0.104702
0.0585298
0.039163
0.0286199
0.0219936
0.0175363
0.0143639
0.0120093
0.0102158
0.00882004
0.00771112
0.00681378
0.00607638
0.005471
0.00497905
0.00457665
0.00425388
0.00400548
0.00383934
0.311746
0.197541
0.130357
0.0911456
0.0668022
0.0508113
0.039795
0.0319133
0.0260966
0.0216914
0.0182834
0.0155996
0.0134579
0.0117241
0.0103055
0.0091344
0.00815974
0.00735575
0.00668075
0.00602851
0.31754
0.217754
0.151085
0.108549
0.0807154
0.0618725
0.0486775
0.0391424
0.0320601
0.0266744
0.0224952
0.0191959
0.0165526
0.0144078
0.0126485
0.0111936
0.00998066
0.0089641
0.0081094
0.00738095
0.319723
0.227073
0.162232
0.118772
0.0893609
0.0689926
0.0545306
0.0439849
0.036101
0.0300773
0.0253869
0.0216732
0.0186904
0.0162647
0.0142705
0.0126157
0.0112314
0.0100647
0.00907439
0.00822093
0.320484
0.23086
0.167175
0.123531
0.0935157
0.0724824
0.0574408
0.0464218
0.0381551
0.0318199
0.0268758
0.0229548
0.019801
0.0172328
0.0151189
0.0133628
0.0118919
0.0106507
0.00959471
0.0086656
0.320484
0.23086
0.167176
0.123531
0.0935158
0.0724826
0.057441
0.0464221
0.0381556
0.0318206
0.0268768
0.0229563
0.0198032
0.017236
0.0151236
0.0133696
0.0119017
0.0106651
0.00961673
0.00872313
0.319723
0.227073
0.162232
0.118772
0.0893611
0.068993
0.0545312
0.0439857
0.0361021
0.0300788
0.025389
0.0216763
0.0186949
0.0162711
0.0142798
0.0126293
0.0112515
0.0100943
0.00911828
0.00829423
0.31754
0.217754
0.151085
0.108549
0.0807156
0.0618728
0.0486779
0.039143
0.0320609
0.0266756
0.0224968
0.0191982
0.016556
0.0144126
0.0126555
0.0112038
0.00999602
0.00898749
0.00814628
0.00742919
0.311746
0.197541
0.130357
0.0911456
0.0668022
0.0508113
0.039795
0.0319133
0.0260966
0.0216914
0.0182834
0.0155996
0.0134579
0.0117241
0.0103054
0.00913442
0.0081598
0.00735586
0.00668087
0.00602867
0.264759
0.104702
0.0585298
0.039163
0.0286199
0.0219935
0.0175362
0.0143638
0.0120092
0.0102156
0.00881962
0.00771043
0.00681261
0.0060738
0.00546718
0.00497294
0.00456598
0.00423342
0.00396502
0.00377477
0.283364
0.126774
0.071702
0.0473282
0.0338663
0.0256617
0.0204611
0.0167975
0.0140495
0.0119431
0.0102873
0.00896097
0.00789231
0.00702283
0.00630701
0.00571224
0.00521694
0.00480523
0.00446906
0.00421401
0.31754
0.217754
0.151085
0.108549
0.0807156
0.0618728
0.0486779
0.039143
0.0320609
0.0266755
0.0224968
0.0191982
0.0165559
0.0144126
0.0126555
0.0112038
0.00999597
0.00898741
0.0081462
0.00742911
0.322005
0.239026
0.177588
0.133616
0.102323
0.0798671
0.063511
0.0513831
0.0422235
0.0351827
0.0296814
0.0253188
0.021813
0.0189626
0.016621
0.0146801
0.0130596
0.011698
0.0105454
0.00953729
0.323293
0.245617
0.187499
0.144537
0.112864
0.089404
0.0718636
0.0585872
0.048401
0.040477
0.0342295
0.0292413
0.025212
0.0219228
0.019212
0.0169589
0.0150724
0.0134819
0.0121288
0.0109462
0.323714
0.247819
0.191099
0.14881
0.117249
0.0935709
0.0756577
0.0619613
0.0513641
0.0430638
0.0364837
0.031207
0.0269298
0.0234285
0.0205363
0.0181279
0.0161079
0.0144019
0.0129474
0.0116745
0.323714
0.247819
0.191099
0.14881
0.117249
0.093571
0.0756578
0.0619615
0.0513644
0.0430642
0.0364843
0.0312079
0.0269311
0.0234302
0.0205387
0.0181311
0.0161123
0.0144079
0.0129563
0.0116911
0.323293
0.245617
0.187499
0.144537
0.112864
0.0894042
0.0718639
0.0585876
0.0484015
0.0404777
0.0342305
0.0292427
0.0252141
0.0219256
0.0192157
0.0169641
0.0150798
0.0134923
0.0121446
0.0109792
0.322005
0.239026
0.177588
0.133616
0.102323
0.0798671
0.063511
0.0513831
0.0422235
0.0351828
0.0296815
0.0253188
0.0218131
0.0189627
0.0166209
0.01468
0.0130595
0.011698
0.0105454
0.00953718
0.31754
0.217754
0.151085
0.108549
0.0807154
0.0618726
0.0486775
0.0391424
0.0320602
0.0266744
0.0224952
0.0191959
0.0165527
0.0144078
0.0126485
0.0111936
0.0099807
0.00896418
0.0081095
0.00738105
0.283364
0.126774
0.0717019
0.0473281
0.0338662
0.0256616
0.0204608
0.0167972
0.014049
0.0119422
0.010286
0.0089591
0.00788956
0.0070187
0.00630059
0.00570228
0.00520136
0.00478061
0.00442945
0.00415113
0.292299
0.141633
0.0819301
0.0541654
0.0389231
0.0292875
0.0232725
0.0190791
0.015935
0.0135165
0.0116302
0.010118
0.00888993
0.00788327
0.00705107
0.00635818
0.00577791
0.00529027
0.00488121
0.00456374
0.319723
0.227073
0.162232
0.118772
0.0893611
0.068993
0.0545312
0.0439857
0.0361021
0.0300788
0.025389
0.0216762
0.0186948
0.0162711
0.0142798
0.0126293
0.0112514
0.0100942
0.00911825
0.00829422
0.323293
0.245617
0.187499
0.144537
0.112864
0.0894042
0.0718639
0.0585876
0.0484015
0.0404777
0.0342304
0.0292426
0.0252139
0.0219255
0.0192158
0.0169642
0.0150798
0.0134923
0.0121447
0.0109794
0.324288
0.250862
0.19613
0.154888
0.123591
0.0996803
0.0812746
0.0669846
0.0557863
0.046925
0.039844
0.0341312
0.0294796
0.0256592
0.0224959
0.0198573
0.0176417
0.0157688
0.0141706
0.0127739
0.32459
0.252403
0.19891
0.158543
0.12769
0.103871
0.0853204
0.0707506
0.0592112
0.0499949
0.0425722
0.0365448
0.0316112
0.027542
0.0241614
0.0213337
0.0189538
0.0169373
0.0152108
0.0136903
0.32459
0.252403
0.19891
0.158543
0.12769
0.103871
0.0853205
0.0707507
0.0592113
0.049995
0.0425724
0.0365451
0.0316116
0.0275426
0.024162
0.0213345
0.0189548
0.0169384
0.0152115
0.0136858
0.324288
0.250862
0.19613
0.154888
0.123591
0.0996803
0.0812746
0.0669847
0.0557863
0.046925
0.0398441
0.0341313
0.0294798
0.0256592
0.0224958
0.0198572
0.0176416
0.0157687
0.0141704
0.0127735
0.323293
0.245617
0.187499
0.144537
0.112864
0.089404
0.0718636
0.0585872
0.048401
0.040477
0.0342295
0.0292413
0.0252121
0.0219228
0.0192118
0.0169588
0.0150723
0.0134818
0.0121287
0.0109459
0.319723
0.227073
0.162232
0.118772
0.0893609
0.0689926
0.0545306
0.0439849
0.0361011
0.0300773
0.0253869
0.0216732
0.0186904
0.0162647
0.0142704
0.0126157
0.0112314
0.0100648
0.00907445
0.00822094
0.292299
0.141633
0.0819301
0.0541653
0.0389229
0.0292873
0.0232722
0.0190786
0.0159344
0.0135156
0.0116288
0.010116
0.00888697
0.0078788
0.00704427
0.00634775
0.00576168
0.00526465
0.00484165
0.00451054
0.295943
0.148782
0.0871941
0.0576749
0.0415193
0.0310722
0.0246451
0.0202212
0.0169055
0.0143261
0.0123112
0.0107066
0.00940268
0.00833227
0.00744551
0.00670495
0.00608209
0.0055553
0.00511213
0.00478485
0.320484
0.23086
0.167176
0.123531
0.0935158
0.0724826
0.057441
0.0464221
0.0381556
0.0318206
0.0268768
0.0229563
0.0198032
0.017236
0.0151236
0.0133696
0.0119017
0.0106651
0.00961674
0.00872315
0.323714
0.247819
0.191099
0.14881
0.117249
0.093571
0.0756578
0.0619615
0.0513644
0.0430642
0.0364843
0.0312078
0.026931
0.0234301
0.0205386
0.0181311
0.0161123
0.014408
0.0129564
0.0116913
0.32459
0.252403
0.19891
0.158543
0.12769
0.103871
0.0853205
0.0707506
0.0592113
0.049995
0.0425724
0.0365451
0.0316115
0.0275424
0.024162
0.0213345
0.0189548
0.0169385
0.0152116
0.0136862
0.324844
0.253685
0.20131
0.161837
0.131535
0.107944
0.0893704
0.0746131
0.0627931
0.0532553
0.0455047
0.0391632
0.03394
0.0296102
0.0259985
0.0229678
0.0204102
0.0182377
0.0163723
0.0147231
0.324844
0.253685
0.20131
0.161837
0.131535
0.107944
0.0893704
0.0746131
0.0627931
0.0532553
0.0455047
0.0391632
0.03394
0.0296103
0.0259986
0.0229678
0.0204102
0.0182377
0.0163722
0.0147228
0.32459
0.252403
0.19891
0.158543
0.12769
0.103871
0.0853204
0.0707506
0.0592112
0.0499949
0.0425723
0.0365449
0.0316114
0.0275421
0.0241612
0.0213336
0.0189537
0.0169371
0.0152106
0.01369
0.323714
0.247819
0.191099
0.14881
0.117249
0.0935709
0.0756577
0.0619613
0.0513641
0.0430638
0.0364837
0.0312071
0.0269299
0.0234285
0.0205361
0.0181277
0.0161078
0.0144018
0.0129473
0.0116743
0.320484
0.23086
0.167175
0.123531
0.0935157
0.0724824
0.0574408
0.0464218
0.0381551
0.0318199
0.0268758
0.0229549
0.019801
0.0172328
0.0151188
0.0133627
0.0118919
0.0106507
0.00959476
0.00866561
0.295943
0.148782
0.087194
0.0576748
0.0415192
0.0310721
0.024645
0.020221
0.0169053
0.0143257
0.0123105
0.0107056
0.00940125
0.0083301
0.00744218
0.00669982
0.00607417
0.005543
0.00509188
0.00473989
0.295943
0.148782
0.087194
0.0576748
0.0415192
0.0310721
0.024645
0.020221
0.0169053
0.0143257
0.0123105
0.0107056
0.00940125
0.00833011
0.00744219
0.00669982
0.00607416
0.00554298
0.00509184
0.00473986
0.320484
0.23086
0.167175
0.123531
0.0935157
0.0724824
0.0574408
0.0464218
0.0381551
0.0318199
0.0268757
0.0229548
0.019801
0.0172328
0.0151189
0.0133628
0.0118919
0.0106507
0.00959473
0.00866559
0.323714
0.247819
0.191099
0.14881
0.117249
0.0935709
0.0756577
0.0619613
0.0513641
0.0430638
0.0364837
0.031207
0.0269298
0.0234284
0.0205363
0.0181279
0.0161079
0.0144019
0.0129474
0.0116744
0.32459
0.252403
0.19891
0.158543
0.12769
0.103871
0.0853204
0.0707506
0.0592112
0.0499949
0.0425722
0.0365448
0.0316112
0.027542
0.0241613
0.0213337
0.0189538
0.0169373
0.0152108
0.0136903
0.324844
0.253685
0.20131
0.161837
0.131535
0.107944
0.0893704
0.0746131
0.0627931
0.0532553
0.0455047
0.0391632
0.03394
0.0296102
0.0259985
0.0229678
0.0204102
0.0182377
0.0163723
0.014723
0.324844
0.253685
0.20131
0.161837
0.131535
0.107944
0.0893704
0.0746131
0.0627931
0.0532553
0.0455047
0.0391632
0.0339401
0.0296103
0.0259986
0.0229678
0.0204102
0.0182377
0.0163722
0.014723
0.32459
0.252403
0.19891
0.158543
0.12769
0.103871
0.0853205
0.0707507
0.0592113
0.049995
0.0425725
0.0365452
0.0316117
0.0275425
0.0241618
0.0213344
0.0189547
0.0169384
0.0152115
0.0136859
0.323714
0.247819
0.191099
0.14881
0.117249
0.093571
0.0756578
0.0619615
0.0513645
0.0430643
0.0364843
0.0312079
0.0269311
0.0234302
0.0205385
0.0181309
0.0161122
0.0144079
0.0129563
0.0116911
0.320484
0.23086
0.167176
0.123531
0.0935158
0.0724826
0.057441
0.0464221
0.0381556
0.0318206
0.0268768
0.0229564
0.0198032
0.017236
0.0151235
0.0133695
0.0119017
0.0106651
0.00961677
0.00872316
0.295943
0.148782
0.0871941
0.0576749
0.0415193
0.0310722
0.0246451
0.0202212
0.0169055
0.0143261
0.0123112
0.0107066
0.00940269
0.00833226
0.0074455
0.00670494
0.0060821
0.00555532
0.00511217
0.00478489
0.292299
0.141633
0.0819301
0.0541653
0.0389229
0.0292873
0.0232722
0.0190786
0.0159344
0.0135156
0.0116288
0.010116
0.00888698
0.00787882
0.00704429
0.00634775
0.00576167
0.00526462
0.00484161
0.0045105
0.319723
0.227073
0.162232
0.118772
0.0893609
0.0689926
0.0545306
0.0439849
0.036101
0.0300773
0.0253869
0.0216732
0.0186904
0.0162647
0.0142705
0.0126157
0.0112314
0.0100647
0.00907439
0.00822088
0.323293
0.245617
0.187499
0.144537
0.112864
0.089404
0.0718636
0.0585872
0.048401
0.040477
0.0342295
0.0292413
0.025212
0.0219228
0.019212
0.0169589
0.0150724
0.0134818
0.0121287
0.0109459
0.324288
0.250862
0.19613
0.154888
0.123591
0.0996803
0.0812746
0.0669847
0.0557863
0.046925
0.0398441
0.0341312
0.0294796
0.0256592
0.0224959
0.0198573
0.0176417
0.0157687
0.0141705
0.0127735
0.32459
0.252403
0.19891
0.158543
0.12769
0.103871
0.0853205
0.0707507
0.0592113
0.049995
0.0425724
0.0365451
0.0316116
0.0275425
0.024162
0.0213345
0.0189548
0.0169385
0.0152115
0.0136858
0.32459
0.252403
0.19891
0.158543
0.12769
0.103871
0.0853204
0.0707506
0.0592112
0.0499949
0.0425723
0.0365449
0.0316113
0.0275421
0.0241614
0.0213337
0.0189537
0.0169372
0.0152107
0.0136902
0.324288
0.250862
0.19613
0.154888
0.123591
0.0996803
0.0812746
0.0669847
0.0557863
0.046925
0.0398441
0.0341313
0.0294798
0.0256592
0.0224958
0.0198572
0.0176416
0.0157687
0.0141704
0.0127736
0.323293
0.245617
0.187499
0.144537
0.112864
0.0894042
0.0718639
0.0585876
0.0484015
0.0404777
0.0342305
0.0292427
0.0252141
0.0219255
0.0192156
0.0169641
0.0150797
0.0134922
0.0121446
0.0109792
0.319723
0.227073
0.162232
0.118772
0.0893611
0.068993
0.0545312
0.0439857
0.0361021
0.0300788
0.025389
0.0216763
0.0186949
0.0162711
0.0142797
0.0126293
0.0112514
0.0100942
0.00911829
0.00829426
0.292299
0.141633
0.0819301
0.0541654
0.0389231
0.0292875
0.0232725
0.0190791
0.015935
0.0135165
0.0116302
0.010118
0.00888994
0.00788326
0.00705106
0.00635818
0.00577794
0.00529031
0.00488126
0.0045638
0.283364
0.126774
0.0717019
0.0473281
0.0338662
0.0256616
0.0204608
0.0167972
0.014049
0.0119422
0.010286
0.0089591
0.00788956
0.00701872
0.00630061
0.00570229
0.00520134
0.00478057
0.00442941
0.00415109
0.31754
0.217754
0.151085
0.108549
0.0807154
0.0618726
0.0486775
0.0391424
0.0320602
0.0266744
0.0224952
0.0191959
0.0165526
0.0144078
0.0126485
0.0111936
0.00998067
0.00896411
0.00810941
0.00738096
0.322005
0.239026
0.177588
0.133616
0.102323
0.0798671
0.063511
0.0513831
0.0422235
0.0351828
0.0296814
0.0253188
0.0218131
0.0189627
0.016621
0.0146801
0.0130596
0.011698
0.0105454
0.00953714
0.323293
0.245617
0.187499
0.144537
0.112864
0.0894042
0.0718639
0.0585876
0.0484015
0.0404777
0.0342305
0.0292427
0.025214
0.0219255
0.0192158
0.0169642
0.0150798
0.0134923
0.0121446
0.0109791
0.323714
0.247819
0.191099
0.14881
0.117249
0.093571
0.0756578
0.0619615
0.0513644
0.0430642
0.0364843
0.0312079
0.026931
0.0234302
0.0205386
0.0181311
0.0161123
0.0144079
0.0129563
0.0116911
0.323714
0.247819
0.191099
0.14881
0.117249
0.0935709
0.0756577
0.0619613
0.0513641
0.0430638
0.0364837
0.031207
0.0269299
0.0234285
0.0205363
0.0181278
0.0161078
0.0144018
0.0129473
0.0116743
0.323293
0.245617
0.187499
0.144537
0.112864
0.089404
0.0718636
0.0585872
0.048401
0.040477
0.0342295
0.0292413
0.0252121
0.0219228
0.0192119
0.0169588
0.0150723
0.0134818
0.0121287
0.0109459
0.322005
0.239026
0.177588
0.133616
0.102323
0.0798671
0.063511
0.0513831
0.0422235
0.0351828
0.0296815
0.0253188
0.0218131
0.0189626
0.0166209
0.01468
0.0130595
0.0116979
0.0105454
0.00953719
0.31754
0.217754
0.151085
0.108549
0.0807157
0.0618728
0.0486779
0.039143
0.0320609
0.0266756
0.0224968
0.0191982
0.016556
0.0144126
0.0126554
0.0112038
0.00999598
0.00898746
0.00814629
0.00742919
0.283364
0.126774
0.071702
0.0473282
0.0338663
0.0256617
0.0204611
0.0167975
0.0140495
0.0119431
0.0102873
0.00896098
0.00789231
0.00702282
0.00630701
0.00571225
0.00521697
0.00480528
0.00446914
0.0042141
0.264759
0.104702
0.0585298
0.039163
0.0286199
0.0219935
0.0175362
0.0143638
0.0120092
0.0102156
0.00881962
0.00771042
0.00681261
0.00607383
0.00546721
0.00497296
0.00456597
0.00423339
0.00396499
0.00377474
0.311746
0.197541
0.130357
0.0911456
0.0668022
0.0508113
0.039795
0.0319133
0.0260966
0.0216914
0.0182834
0.0155996
0.0134579
0.0117241
0.0103055
0.00913443
0.00815977
0.00735579
0.00668079
0.00602859
0.31754
0.217754
0.151085
0.108549
0.0807157
0.0618728
0.0486779
0.039143
0.0320609
0.0266756
0.0224968
0.0191982
0.016556
0.0144126
0.0126555
0.0112039
0.00999599
0.00898743
0.00814622
0.00742912
0.319723
0.227073
0.162232
0.118772
0.0893611
0.068993
0.0545312
0.0439857
0.0361021
0.0300788
0.025389
0.0216763
0.0186949
0.0162711
0.0142798
0.0126293
0.0112514
0.0100942
0.00911824
0.00829418
0.320484
0.23086
0.167176
0.123531
0.0935158
0.0724826
0.057441
0.0464222
0.0381556
0.0318206
0.0268768
0.0229563
0.0198032
0.017236
0.0151236
0.0133696
0.0119017
0.0106651
0.0096167
0.00872308
0.320484
0.23086
0.167175
0.123531
0.0935157
0.0724824
0.0574408
0.0464218
0.0381551
0.0318199
0.0268758
0.0229548
0.019801
0.0172328
0.0151189
0.0133627
0.0118918
0.0106506
0.00959467
0.00866552
0.319723
0.227073
0.162232
0.118772
0.0893609
0.0689926
0.0545306
0.0439849
0.0361011
0.0300774
0.0253869
0.0216732
0.0186904
0.0162647
0.0142705
0.0126157
0.0112314
0.0100647
0.00907438
0.00822088
0.31754
0.217754
0.151085
0.108549
0.0807155
0.0618726
0.0486775
0.0391424
0.0320602
0.0266744
0.0224952
0.0191959
0.0165527
0.0144078
0.0126485
0.0111935
0.00998067
0.00896414
0.00810947
0.00738102
0.311746
0.197541
0.130357
0.0911456
0.0668022
0.0508113
0.039795
0.0319133
0.0260966
0.0216914
0.0182834
0.0155996
0.0134579
0.0117241
0.0103054
0.00913441
0.00815979
0.00735586
0.00668088
0.00602866
0.264759
0.104702
0.0585298
0.039163
0.0286199
0.0219936
0.0175363
0.0143639
0.0120093
0.0102158
0.00882005
0.00771114
0.00681379
0.00607637
0.00547099
0.00497906
0.0045767
0.00425396
0.00400558
0.00383946
0.213564
0.055916
0.0283994
0.0193412
0.0146928
0.011851
0.0098908
0.00851603
0.00749164
0.00669702
0.00606083
0.0055538
0.00512559
0.00475347
0.00443861
0.0041771
0.00396114
0.00378771
0.00368716
0.00359016
0.264759
0.104702
0.0585298
0.039163
0.0286199
0.0219936
0.0175363
0.0143639
0.0120093
0.0102158
0.00882005
0.00771113
0.00681379
0.0060764
0.00547102
0.00497907
0.00457668
0.00425393
0.00400555
0.00383944
0.283364
0.126774
0.071702
0.0473282
0.0338663
0.0256617
0.0204611
0.0167975
0.0140495
0.0119431
0.0102873
0.00896098
0.00789232
0.00702285
0.00630703
0.00571226
0.00521696
0.00480526
0.00446911
0.00421408
0.292299
0.141633
0.0819301
0.0541654
0.0389231
0.0292875
0.0232725
0.0190791
0.015935
0.0135165
0.0116302
0.010118
0.00888995
0.00788329
0.00705108
0.00635819
0.00577793
0.00529029
0.00488123
0.00456377
0.295943
0.148782
0.0871941
0.0576749
0.0415193
0.0310722
0.0246451
0.0202212
0.0169056
0.0143261
0.0123112
0.0107066
0.00940269
0.00833228
0.00744552
0.00670494
0.00608209
0.00555529
0.00511213
0.00478485
0.295943
0.148782
0.087194
0.0576748
0.0415192
0.0310721
0.024645
0.020221
0.0169053
0.0143257
0.0123105
0.0107056
0.00940126
0.00833011
0.00744218
0.0066998
0.00607413
0.00554295
0.00509183
0.00473985
0.292299
0.141633
0.0819301
0.0541653
0.0389229
0.0292873
0.0232722
0.0190786
0.0159344
0.0135157
0.0116289
0.010116
0.00888698
0.00787882
0.00704429
0.00634775
0.00576167
0.00526462
0.00484162
0.00451052
0.283364
0.126774
0.0717019
0.0473281
0.0338662
0.0256616
0.0204608
0.0167972
0.014049
0.0119422
0.010286
0.0089591
0.00788956
0.00701871
0.0063006
0.00570228
0.00520136
0.0047806
0.00442945
0.00415113
0.264759
0.104702
0.0585298
0.039163
0.0286199
0.0219935
0.0175362
0.0143638
0.0120092
0.0102156
0.00881963
0.00771043
0.00681261
0.00607381
0.00546718
0.00497295
0.00456598
0.00423343
0.00396503
0.00377477
0.213564
0.055916
0.0283994
0.0193412
0.0146928
0.011851
0.0098908
0.00851603
0.00749163
0.00669702
0.00606083
0.0055538
0.0051256
0.00475346
0.0044386
0.0041771
0.00396114
0.00378772
0.00368717
0.00359016
0.00480278
0.00413286
0.00358122
0.00327515
0.00310167
0.00300516
0.00294602
0.00290543
0.00287616
0.00285372
0.00283521
0.0028204
0.00280885
0.00279964
0.00279228
0.00278641
0.00278183
0.00277836
0.00277577
0.00277391
0.00277262
0.00277181
0.00277144
0.00277134
0.00277119
0.00277085
0.00277045
0.0027702
0.00277018
0.00277037
0.00277047
0.0027703
0.00276997
0.00276992
0.00276971
0.00276988
0.00277009
0.00277007
0.00276992
0.00276961
0.004256
0.00375074
0.00337566
0.00313197
0.00296902
0.00285482
0.00278472
0.00273161
0.00268887
0.00265517
0.0026285
0.00260718
0.00259023
0.00257659
0.00256568
0.00255709
0.00255044
0.00254542
0.00254171
0.00253906
0.00253721
0.0025359
0.00253491
0.00253407
0.00253329
0.00253277
0.00253252
0.00253244
0.00253245
0.00253242
0.00253227
0.00253219
0.00253219
0.00253222
0.00253203
0.00253195
0.00253193
0.00253203
0.00253226
0.00253259
0.00433692
0.00388567
0.00353758
0.00332633
0.00316911
0.00303885
0.00293769
0.00286239
0.00280334
0.00275674
0.00271958
0.00268971
0.00266557
0.00264615
0.00263066
0.00261845
0.00260897
0.00260172
0.00259629
0.00259231
0.00258942
0.00258723
0.0025854
0.00258369
0.00258235
0.00258147
0.00258115
0.00258108
0.00258101
0.00258081
0.00258061
0.0025806
0.00258077
0.00258106
0.00258134
0.00258107
0.00258091
0.00258104
0.00258134
0.00258178
0.00423804
0.00393335
0.00368848
0.00349041
0.00332626
0.00319082
0.00307976
0.00298926
0.00291596
0.00285686
0.00280933
0.0027711
0.00274022
0.00271547
0.00269576
0.00268021
0.00266812
0.00265874
0.00265165
0.00264633
0.00264242
0.00263942
0.00263682
0.00263442
0.00263263
0.00263149
0.00263102
0.00263092
0.00263078
0.00263052
0.00263031
0.00263033
0.00263057
0.00263091
0.00263105
0.00263105
0.00263097
0.00263109
0.00263143
0.00263191
0.0042336
0.00397148
0.00374505
0.00355523
0.00339667
0.0032621
0.00314906
0.00305492
0.00297709
0.00291324
0.00286114
0.00281861
0.00278386
0.00275596
0.00273376
0.00271621
0.0027024
0.00269165
0.00268339
0.00267721
0.0026726
0.00266904
0.00266591
0.00266307
0.00266099
0.0026597
0.00265912
0.00265901
0.00265887
0.00265859
0.00265837
0.00265842
0.00265867
0.00265903
0.00265921
0.0026593
0.00265917
0.00265931
0.00265965
0.00266014
0.00445624
0.00407018
0.00379226
0.00357791
0.00340912
0.00327025
0.00315531
0.00306044
0.0029824
0.00291842
0.00286612
0.00282323
0.00278802
0.00275965
0.00273703
0.00271912
0.00270501
0.00269399
0.0026855
0.0026791
0.00267433
0.00267065
0.00266738
0.0026644
0.00266225
0.00266108
0.00266029
0.00266024
0.00266
0.0026597
0.00265949
0.00265953
0.00265979
0.00266014
0.00266023
0.00266045
0.00266065
0.00266047
0.00266076
0.00266117
0.00441658
0.004006
0.00372349
0.00351125
0.00334542
0.00321026
0.00309965
0.00300925
0.00293551
0.00287544
0.00282658
0.0027867
0.00275405
0.00272778
0.00270683
0.00269023
0.00267717
0.00266704
0.00265927
0.00265351
0.00264922
0.00264589
0.00264289
0.00264007
0.00263802
0.00263679
0.00263622
0.00263607
0.00263585
0.00263546
0.00263516
0.00263516
0.0026354
0.00263573
0.00263578
0.00263595
0.00263603
0.00263591
0.00263611
0.00263649
0.00417613
0.00377732
0.00352493
0.0033426
0.00319489
0.00307455
0.00297748
0.00289908
0.00283568
0.00278442
0.00274295
0.00270923
0.00268169
0.00265934
0.00264147
0.0026274
0.00261638
0.00260798
0.0026016
0.0025969
0.00259346
0.00259075
0.0025883
0.00258592
0.00258417
0.00258311
0.0025827
0.00258255
0.00258235
0.00258196
0.00258164
0.00258161
0.00258186
0.00258219
0.00258233
0.0025823
0.00258222
0.00258202
0.00258211
0.00258247
0.00375109
0.00350871
0.00329913
0.00313212
0.00299817
0.00289409
0.00281625
0.00275585
0.00270747
0.00266848
0.00263682
0.00261105
0.00258987
0.00257255
0.00255862
0.00254759
0.00253901
0.00253248
0.00252761
0.00252406
0.00252153
0.0025196
0.00251793
0.00251627
0.00251498
0.00251417
0.00251386
0.00251374
0.00251365
0.00251338
0.00251308
0.002513
0.00251312
0.00251331
0.00251333
0.00251297
0.00251258
0.00251235
0.0025125
0.00251295
0.0039131
0.00349725
0.00316804
0.00295257
0.0028141
0.00274011
0.0026869
0.00264472
0.00261105
0.00258385
0.00256151
0.00254338
0.00252839
0.00251616
0.00250632
0.00249854
0.00249251
0.00248797
0.00248463
0.00248225
0.00248061
0.00247946
0.0024786
0.00247786
0.00247716
0.00247666
0.0024764
0.00247629
0.00247627
0.00247622
0.00247603
0.0024759
0.00247585
0.00247587
0.00247589
0.00247582
0.00247536
0.00247506
0.00247502
0.00247518
0.00480285
0.00413294
0.00358143
0.00327522
0.00310176
0.00300544
0.00294649
0.00290599
0.00287673
0.00285429
0.00283565
0.00282098
0.00280928
0.00279995
0.0027925
0.00278661
0.00278207
0.00277866
0.00277613
0.0027743
0.00277304
0.00277224
0.00277188
0.00277177
0.00277162
0.00277127
0.00277083
0.00277055
0.0027705
0.00277068
0.00277075
0.00277053
0.0027702
0.00277002
0.00277005
0.00277043
0.0027703
0.00276992
0.00276952
0.00276907
0.00391302
0.00349718
0.00316781
0.00295232
0.00281361
0.00273932
0.00268596
0.00264373
0.0026101
0.00258298
0.00256083
0.00254261
0.00252792
0.00251587
0.00250609
0.00249829
0.00249221
0.00248761
0.00248422
0.0024818
0.00248014
0.002479
0.00247814
0.00247743
0.00247676
0.0024763
0.00247607
0.002476
0.00247602
0.002476
0.00247585
0.00247574
0.00247567
0.0024756
0.00247536
0.00247525
0.0024751
0.00247513
0.00247531
0.00247559
0.00424216
0.00391587
0.00365871
0.00349154
0.00336418
0.00325885
0.00317005
0.00309455
0.00302992
0.00297475
0.00292758
0.00288725
0.00285461
0.00282644
0.002803
0.00278407
0.00276932
0.00275815
0.00274993
0.00274412
0.00274022
0.0027372
0.00273413
0.00273086
0.00272759
0.00272574
0.00272552
0.00272575
0.00272577
0.00272532
0.00272418
0.00272394
0.00272425
0.00272465
0.00272325
0.00272234
0.00272195
0.00272239
0.00272364
0.00272587
0.00559348
0.00515827
0.00480096
0.00451527
0.00428099
0.00408919
0.0039329
0.00380451
0.00369906
0.00361032
0.0035367
0.00347468
0.00342363
0.00338076
0.00334556
0.00331724
0.00329475
0.00327735
0.00326412
0.00325431
0.00324723
0.00324149
0.00323588
0.00322958
0.00322467
0.00322193
0.00322142
0.00322152
0.00322117
0.00322029
0.00321892
0.0032189
0.00321943
0.00322041
0.00322052
0.00321992
0.00321878
0.00321917
0.00322031
0.00322237
0.00691064
0.00625588
0.00574247
0.00534283
0.00501726
0.00474538
0.00451985
0.00433349
0.0041803
0.00405445
0.00395145
0.00386679
0.00379662
0.00373894
0.00369246
0.00365516
0.00362531
0.00360223
0.0035841
0.00357059
0.00356045
0.00355242
0.00354442
0.00353639
0.00353044
0.00352712
0.00352627
0.0035262
0.00352568
0.0035248
0.00352356
0.0035236
0.0035241
0.00352508
0.00352529
0.00352495
0.00352418
0.00352458
0.00352564
0.00352752
0.00750002
0.00685151
0.00630287
0.00584739
0.00547653
0.00516342
0.004899
0.00467786
0.00449434
0.00434299
0.00421887
0.00411678
0.00403216
0.0039636
0.00390867
0.00386472
0.00382955
0.00380176
0.0037801
0.0037635
0.00375109
0.00374141
0.003732
0.003723
0.00371659
0.00371311
0.00371165
0.0037115
0.0037113
0.00371073
0.0037095
0.00370946
0.0037098
0.00371053
0.00371113
0.00371108
0.00371035
0.00371061
0.00371149
0.00371304
0.00764676
0.00703255
0.00649687
0.00603923
0.00565856
0.00533607
0.00506039
0.00482798
0.00463406
0.00447352
0.00434144
0.00423264
0.00414248
0.0040693
0.00401055
0.00396375
0.00392646
0.00389685
0.00387373
0.00385596
0.00384248
0.00383214
0.00382228
0.00381308
0.0038066
0.00380252
0.0038013
0.00380083
0.00380062
0.00380013
0.00379883
0.0037987
0.00379896
0.00379955
0.00380028
0.00380038
0.00379961
0.00379975
0.00380053
0.00380196
0.00761527
0.00694662
0.00639356
0.0059376
0.00556436
0.00524848
0.00498117
0.00475747
0.00457179
0.00441863
0.00429291
0.0041895
0.00410383
0.00403442
0.0039787
0.00393401
0.00389846
0.00387039
0.00384873
0.00383215
0.00381982
0.00381013
0.00380085
0.00379187
0.00378546
0.00378153
0.00377965
0.00377921
0.003779
0.00377826
0.00377661
0.0037765
0.00377673
0.0037774
0.00377802
0.00377818
0.00377733
0.00377747
0.00377817
0.00377956
0.00694349
0.00637291
0.00588548
0.00548827
0.00515686
0.00487756
0.00464489
0.00445256
0.00429455
0.00416503
0.00405889
0.00397157
0.00389876
0.00383961
0.00379192
0.00375365
0.00372386
0.00370042
0.0036827
0.00366926
0.00365932
0.00365122
0.00364332
0.00363517
0.0036293
0.00362552
0.00362446
0.00362383
0.00362345
0.00362245
0.00362084
0.00362075
0.0036212
0.00362208
0.00362228
0.00362302
0.00362308
0.00362183
0.00362238
0.00362366
0.00598835
0.00541693
0.00499752
0.00467811
0.00442439
0.00421911
0.00405146
0.00391411
0.00380157
0.00370832
0.00363014
0.00356545
0.00351116
0.0034663
0.00342967
0.00340043
0.00337746
0.00335979
0.00334642
0.00333658
0.00332945
0.00332361
0.00331791
0.00331153
0.00330669
0.00330359
0.00330288
0.00330256
0.00330227
0.00330128
0.00329972
0.00329951
0.00329997
0.00330083
0.00330086
0.0032999
0.00329864
0.00329808
0.003299
0.00330102
0.00424208
0.00391582
0.00365898
0.00349176
0.00336547
0.00326086
0.00317237
0.00309683
0.00303199
0.00297662
0.00292857
0.00288899
0.002855
0.00282645
0.00280313
0.00278457
0.00277021
0.00275933
0.00275133
0.00274562
0.00274174
0.00273868
0.00273558
0.00273221
0.00272886
0.00272681
0.00272646
0.00272656
0.00272642
0.00272587
0.00272457
0.00272427
0.00272459
0.0027253
0.00272531
0.00272449
0.00272241
0.00272163
0.00272244
0.00272464
0.004256
0.00375073
0.00337571
0.00313199
0.00296922
0.00285521
0.00278536
0.00273225
0.00268949
0.00265573
0.00262893
0.00260763
0.00259048
0.00257673
0.00256584