/*--------------------------------*- C++ -*----------------------------------*\
| =========                 |                                                 |
| \\      /  F ield         | OpenFOAM: The Open Source CFD Toolbox           |
|  \\    /   O peration     | Version:  2212                                  |
|   \\  /    A nd           | Website:  www.openfoam.com                      |
|    \\/     M anipulation  |                                                 |
\*---------------------------------------------------------------------------*/
FoamFile
{
    version     2.0;
    format      ascii;
    arch        "LSB;label=32;scalar=64";
    class       volScalarField;
    location    "0.55";
    object      nut;
}
// * * * * * * * * * * * * * * * * * * * * * * * * * * * * * * * * * * * * * //

dimensions      [0 2 -1 0 0 0 0];

internalField   nonuniform List<scalar> 
6840
(
4.5356e-05
2.3208e-05
1.65396e-05
1.36493e-05
1.18966e-05
1.06844e-05
9.76077e-06
9.05713e-06
8.49455e-06
8.03184e-06
7.63957e-06
7.31207e-06
7.02597e-06
6.76053e-06
6.52764e-06
6.32719e-06
6.15542e-06
6.01026e-06
5.93552e-06
5.83439e-06
0.000107685
6.77183e-05
5.06311e-05
4.14159e-05
3.54048e-05
3.10366e-05
2.77135e-05
2.50812e-05
2.29327e-05
2.11489e-05
1.96483e-05
1.83671e-05
1.72562e-05
1.62817e-05
1.54362e-05
1.47052e-05
1.40686e-05
1.35172e-05
1.30637e-05
1.27383e-05
0.000160509
0.00010736
8.07408e-05
6.55975e-05
5.54895e-05
4.83024e-05
4.31307e-05
3.90784e-05
3.5738e-05
3.29472e-05
3.0574e-05
2.85291e-05
2.67651e-05
2.5233e-05
2.38892e-05
2.27025e-05
2.16517e-05
2.07207e-05
1.98981e-05
1.91833e-05
0.000198681
0.0001383
0.000105187
8.55268e-05
7.25011e-05
6.28898e-05
5.60605e-05
5.07582e-05
4.63861e-05
4.27185e-05
3.96189e-05
3.69458e-05
3.46188e-05
3.25813e-05
3.07867e-05
2.91964e-05
2.77785e-05
2.65064e-05
2.53654e-05
2.4457e-05
0.000218609
0.000155003
0.000118661
9.65068e-05
8.18822e-05
7.08352e-05
6.30849e-05
5.71422e-05
5.22462e-05
4.80926e-05
4.45756e-05
4.15617e-05
3.89369e-05
3.6636e-05
3.46058e-05
3.2803e-05
3.11916e-05
2.97417e-05
2.84341e-05
2.73218e-05
0.000218609
0.000155003
0.000118661
9.65068e-05
8.18823e-05
7.08353e-05
6.3085e-05
5.71424e-05
5.22466e-05
4.80932e-05
4.45767e-05
4.15634e-05
3.89398e-05
3.66407e-05
3.46134e-05
3.28154e-05
3.12121e-05
2.97759e-05
2.84973e-05
2.74954e-05
0.000198681
0.0001383
0.000105187
8.55269e-05
7.25012e-05
6.289e-05
5.60608e-05
5.07587e-05
4.63869e-05
4.27198e-05
3.96211e-05
3.69491e-05
3.46242e-05
3.25899e-05
3.08003e-05
2.92186e-05
2.78149e-05
2.65666e-05
2.5462e-05
2.4586e-05
0.000160509
0.00010736
8.07409e-05
6.55976e-05
5.54896e-05
4.83025e-05
4.31309e-05
3.90788e-05
3.57386e-05
3.29484e-05
3.05757e-05
2.85318e-05
2.67694e-05
2.52397e-05
2.39e-05
2.272e-05
2.16802e-05
2.0768e-05
1.99804e-05
1.93413e-05
0.000107685
6.77183e-05
5.06311e-05
4.14159e-05
3.54048e-05
3.10366e-05
2.77136e-05
2.50813e-05
2.29328e-05
2.11491e-05
1.96488e-05
1.83679e-05
1.72576e-05
1.62848e-05
1.54409e-05
1.47129e-05
1.40825e-05
1.35444e-05
1.31135e-05
1.28211e-05
4.5356e-05
2.3208e-05
1.65396e-05
1.36493e-05
1.18966e-05
1.06844e-05
9.76077e-06
9.05713e-06
8.49454e-06
8.03185e-06
7.63958e-06
7.31207e-06
7.02598e-06
6.76053e-06
6.52765e-06
6.32721e-06
6.15545e-06
6.0103e-06
5.93563e-06
5.83452e-06
0.000107685
6.77183e-05
5.06311e-05
4.14159e-05
3.54048e-05
3.10366e-05
2.77136e-05
2.50813e-05
2.29328e-05
2.11491e-05
1.96488e-05
1.83679e-05
1.72576e-05
1.62848e-05
1.54409e-05
1.47129e-05
1.40825e-05
1.35443e-05
1.31134e-05
1.28209e-05
0.000528907
0.000369984
0.000305097
0.000261371
0.000228528
0.000202476
0.000181116
0.000163078
0.000147549
0.000134003
0.000122084
0.000111524
0.000102226
9.39969e-05
8.66612e-05
7.99598e-05
7.38964e-05
6.91126e-05
6.41805e-05
5.57832e-05
0.000663952
0.000488458
0.000404618
0.000347248
0.000305035
0.000272128
0.00024532
0.000222893
0.000203766
0.0001872
0.000172693
0.000159882
0.000148486
0.000138296
0.00012917
0.000121093
0.000113814
0.000107416
0.00010168
9.59531e-05
0.00071288
0.000556432
0.000466396
0.000402354
0.000354425
0.00031705
0.000286676
0.000261259
0.000239592
0.000220867
0.000204484
0.000190021
0.000177163
0.000165655
0.000155297
0.000145948
0.000137467
0.000129731
0.000122593
0.000115935
0.000728543
0.000588231
0.000496001
0.000429131
0.000378509
0.000338934
0.000306819
0.000279977
0.000257082
0.000237276
0.000219948
0.000204645
0.000191029
0.000178837
0.000167862
0.000157946
0.000148941
0.00014071
0.000133068
0.000125105
0.000728543
0.000588231
0.000496001
0.000429131
0.000378509
0.000338935
0.00030682
0.000279979
0.000257085
0.000237281
0.000219956
0.000204658
0.000191052
0.000178874
0.000167922
0.000158047
0.000149108
0.00014099
0.000133565
0.000126564
0.00071288
0.000556432
0.000466397
0.000402355
0.000354426
0.000317052
0.000286678
0.000261263
0.000239598
0.000220878
0.000204501
0.000190048
0.000177207
0.000165727
0.000155419
0.000146152
0.000137807
0.000130301
0.000123592
0.000117756
0.000663952
0.000488458
0.000404619
0.000347248
0.000305036
0.000272129
0.000245322
0.000222897
0.000203772
0.000187208
0.000172706
0.000159903
0.00014852
0.000138349
0.000129259
0.000121243
0.000114071
0.000107869
0.00010251
9.57638e-05
0.000528907
0.000369984
0.000305097
0.000261371
0.000228528
0.000202476
0.000181116
0.000163078
0.00014755
0.000134003
0.000122084
0.000111524
0.000102225
9.39959e-05
8.66608e-05
7.99604e-05
7.38976e-05
6.91148e-05
6.41818e-05
5.57855e-05
0.000107685
6.77183e-05
5.06311e-05
4.14159e-05
3.54048e-05
3.10366e-05
2.77135e-05
2.50812e-05
2.29327e-05
2.11489e-05
1.96483e-05
1.83672e-05
1.72563e-05
1.62817e-05
1.54362e-05
1.47052e-05
1.40686e-05
1.35173e-05
1.30638e-05
1.27385e-05
0.000160509
0.00010736
8.07409e-05
6.55976e-05
5.54896e-05
4.83025e-05
4.31309e-05
3.90788e-05
3.57386e-05
3.29484e-05
3.05757e-05
2.85318e-05
2.67693e-05
2.52396e-05
2.39e-05
2.272e-05
2.16802e-05
2.0768e-05
1.99803e-05
1.93412e-05
0.000663952
0.000488458
0.000404619
0.000347248
0.000305036
0.000272129
0.000245322
0.000222897
0.000203772
0.000187208
0.000172706
0.000159903
0.00014852
0.00013835
0.000129258
0.000121242
0.000114068
0.000107866
0.000102508
9.57593e-05
0.000786827
0.000662293
0.000567974
0.000495805
0.000439464
0.000394563
0.000357978
0.000327459
0.000301506
0.000279081
0.000259454
0.000242101
0.000226638
0.000212776
0.000200298
0.000189063
0.000178926
0.000169814
0.000161458
0.000152583
0.000809324
0.000713906
0.000631504
0.000562574
0.000505377
0.000457787
0.000417844
0.000383947
0.00035482
0.000329481
0.000307213
0.00028748
0.000269872
0.000254071
0.000239832
0.000226978
0.00021534
0.000204766
0.000194964
0.000184922
0.000814958
0.000730426
0.000654634
0.000589044
0.000533067
0.00048544
0.000444767
0.000409801
0.000379486
0.000352963
0.00032955
0.000308732
0.000290114
0.000273381
0.000258287
0.000244642
0.000232274
0.000221005
0.000210523
0.000199869
0.000814958
0.000730426
0.000654634
0.000589044
0.000533068
0.00048544
0.000444767
0.000409802
0.000379488
0.000352966
0.000329554
0.000308738
0.000290123
0.000273394
0.000258308
0.000244678
0.000232332
0.000221102
0.000210697
0.00020021
0.000809324
0.000713906
0.000631505
0.000562574
0.000505378
0.000457788
0.000417846
0.000383949
0.000354822
0.000329484
0.000307219
0.00028749
0.000269885
0.000254091
0.000239873
0.000227041
0.000215444
0.000204939
0.00019529
0.000185727
0.000786827
0.000662293
0.000567974
0.000495805
0.000439464
0.000394563
0.000357978
0.000327459
0.000301506
0.000279081
0.000259454
0.000242101
0.000226636
0.000212772
0.000200301
0.000189067
0.00017893
0.000169819
0.000161462
0.00015259
0.000663952
0.000488458
0.000404618
0.000347248
0.000305035
0.000272128
0.00024532
0.000222893
0.000203766
0.0001872
0.000172693
0.000159882
0.000148486
0.000138294
0.00012917
0.000121095
0.000113817
0.00010742
0.000101684
9.59597e-05
0.000160509
0.00010736
8.07408e-05
6.55975e-05
5.54895e-05
4.83024e-05
4.31307e-05
3.90785e-05
3.57381e-05
3.29472e-05
3.0574e-05
2.85291e-05
2.67652e-05
2.52331e-05
2.38892e-05
2.27025e-05
2.16517e-05
2.07208e-05
1.98982e-05
1.91835e-05
0.000198681
0.0001383
0.000105187
8.55269e-05
7.25012e-05
6.289e-05
5.60608e-05
5.07587e-05
4.63869e-05
4.27198e-05
3.9621e-05
3.69491e-05
3.46241e-05
3.25898e-05
3.08003e-05
2.92186e-05
2.78149e-05
2.65666e-05
2.5462e-05
2.4586e-05
0.00071288
0.000556432
0.000466397
0.000402355
0.000354426
0.000317052
0.000286678
0.000261263
0.000239598
0.000220877
0.0002045
0.000190048
0.000177208
0.000165728
0.000155418
0.00014615
0.000137805
0.000130299
0.000123591
0.000117755
0.000809324
0.000713906
0.000631505
0.000562574
0.000505378
0.000457788
0.000417845
0.000383949
0.000354822
0.000329484
0.000307219
0.000287489
0.000269887
0.000254094
0.000239871
0.000227039
0.000215441
0.000204937
0.000195288
0.000185723
0.000823497
0.000753987
0.000688491
0.000628748
0.000575388
0.000528268
0.000486849
0.00045045
0.000418379
0.000390006
0.000364787
0.000342268
0.000322076
0.000303901
0.000287496
0.000272667
0.000259232
0.000247001
0.000235637
0.000224239
0.000826292
0.000764347
0.000706102
0.000651937
0.000602231
0.000557105
0.000516432
0.00047992
0.000447197
0.000417864
0.000391534
0.000367855
0.000346513
0.000327236
0.000309794
0.000293995
0.000279656
0.000266564
0.000254326
0.000241959
0.000826292
0.000764347
0.000706102
0.000651937
0.000602231
0.000557105
0.000516432
0.00047992
0.000447197
0.000417865
0.000391535
0.000367857
0.000346515
0.000327239
0.000309798
0.000294003
0.000279669
0.00026658
0.000254329
0.000241822
0.000823497
0.000753987
0.000688491
0.000628748
0.000575388
0.000528268
0.000486849
0.00045045
0.000418379
0.000390006
0.000364787
0.000342269
0.000322074
0.000303899
0.000287498
0.000272669
0.000259234
0.000247003
0.000235638
0.000224248
0.000809324
0.000713906
0.000631504
0.000562574
0.000505377
0.000457787
0.000417844
0.000383947
0.00035482
0.000329481
0.000307213
0.00028748
0.00026987
0.000254068
0.000239835
0.000226981
0.000215345
0.000204771
0.000194968
0.000184933
0.00071288
0.000556432
0.000466396
0.000402354
0.000354425
0.00031705
0.000286676
0.000261259
0.000239592
0.000220867
0.000204484
0.000190021
0.000177162
0.000165652
0.000155298
0.000145951
0.00013747
0.000129735
0.000122597
0.000115938
0.000198681
0.0001383
0.000105187
8.55268e-05
7.25011e-05
6.28898e-05
5.60605e-05
5.07582e-05
4.63861e-05
4.27186e-05
3.96189e-05
3.69458e-05
3.46189e-05
3.25814e-05
3.07866e-05
2.91964e-05
2.77785e-05
2.65064e-05
2.53655e-05
2.4457e-05
0.000218609
0.000155003
0.000118661
9.65068e-05
8.18823e-05
7.08353e-05
6.3085e-05
5.71424e-05
5.22466e-05
4.80932e-05
4.45767e-05
4.15634e-05
3.89397e-05
3.66406e-05
3.46133e-05
3.28154e-05
3.12121e-05
2.97759e-05
2.84973e-05
2.74954e-05
0.000728543
0.000588231
0.000496001
0.000429131
0.000378509
0.000338935
0.00030682
0.000279979
0.000257085
0.000237281
0.000219956
0.000204658
0.000191051
0.000178875
0.000167925
0.000158048
0.000149109
0.000140991
0.000133565
0.000126564
0.000814958
0.000730426
0.000654634
0.000589044
0.000533068
0.00048544
0.000444767
0.000409802
0.000379488
0.000352965
0.000329553
0.000308738
0.000290123
0.000273396
0.00025831
0.000244679
0.000232333
0.000221103
0.000210698
0.000200209
0.000826292
0.000764347
0.000706102
0.000651937
0.000602231
0.000557105
0.000516432
0.00047992
0.000447197
0.000417865
0.000391535
0.000367856
0.000346515
0.00032724
0.0003098
0.000294004
0.00027967
0.000266581
0.000254329
0.000241816
0.000828382
0.0007726
0.000721138
0.00067296
0.000627782
0.000585622
0.000546551
0.000510586
0.000477664
0.000447645
0.000420343
0.000395548
0.000373041
0.00035261
0.00033406
0.000317216
0.000301897
0.000287875
0.000274724
0.000261458
0.000828382
0.0007726
0.000721138
0.000672961
0.000627782
0.000585622
0.000546551
0.000510586
0.000477664
0.000447645
0.000420343
0.000395548
0.000373041
0.000352609
0.00033406
0.000317215
0.000301897
0.000287875
0.000274723
0.00026146
0.000826292
0.000764347
0.000706102
0.000651937
0.000602231
0.000557105
0.000516432
0.00047992
0.000447197
0.000417864
0.000391535
0.000367855
0.000346512
0.000327234
0.000309795
0.000293997
0.000279658
0.000266566
0.000254327
0.000241962
0.000814958
0.000730426
0.000654634
0.000589044
0.000533067
0.00048544
0.000444767
0.000409801
0.000379486
0.000352963
0.00032955
0.000308732
0.000290112
0.000273378
0.00025829
0.000244646
0.000232278
0.000221009
0.000210527
0.000199877
0.000728543
0.000588231
0.000496001
0.000429131
0.000378509
0.000338934
0.000306819
0.000279977
0.000257082
0.000237276
0.000219948
0.000204645
0.000191028
0.000178835
0.000167864
0.000157949
0.000148945
0.000140714
0.000133072
0.000125109
0.000218609
0.000155003
0.000118661
9.65068e-05
8.18822e-05
7.08352e-05
6.30849e-05
5.71422e-05
5.22462e-05
4.80926e-05
4.45756e-05
4.15617e-05
3.8937e-05
3.66361e-05
3.46058e-05
3.28029e-05
3.11916e-05
2.97417e-05
2.84342e-05
2.73218e-05
0.000218609
0.000155003
0.000118661
9.65068e-05
8.18822e-05
7.08352e-05
6.30849e-05
5.71422e-05
5.22462e-05
4.80926e-05
4.45756e-05
4.15617e-05
3.89369e-05
3.6636e-05
3.46058e-05
3.2803e-05
3.11916e-05
2.97417e-05
2.84341e-05
2.73218e-05
0.000728543
0.000588231
0.000496001
0.000429131
0.000378509
0.000338934
0.000306819
0.000279977
0.000257082
0.000237276
0.000219948
0.000204645
0.000191029
0.000178837
0.000167863
0.000157947
0.000148942
0.00014071
0.000133068
0.000125105
0.000814958
0.000730426
0.000654634
0.000589044
0.000533067
0.00048544
0.000444767
0.000409801
0.000379486
0.000352963
0.00032955
0.000308732
0.000290114
0.000273381
0.000258287
0.000244642
0.000232274
0.000221005
0.000210523
0.000199872
0.000826292
0.000764347
0.000706102
0.000651937
0.000602231
0.000557105
0.000516432
0.00047992
0.000447197
0.000417864
0.000391534
0.000367855
0.000346513
0.000327236
0.000309794
0.000293995
0.000279656
0.000266563
0.000254325
0.000241958
0.000828382
0.0007726
0.000721138
0.000672961
0.000627782
0.000585622
0.000546551
0.000510586
0.000477664
0.000447645
0.000420343
0.000395548
0.000373041
0.00035261
0.00033406
0.000317215
0.000301896
0.000287874
0.000274722
0.000261457
0.000828382
0.0007726
0.000721138
0.000672961
0.000627782
0.000585622
0.000546551
0.000510586
0.000477664
0.000447645
0.000420343
0.000395548
0.000373041
0.000352609
0.000334059
0.000317215
0.000301896
0.000287874
0.000274722
0.000261455
0.000826292
0.000764347
0.000706102
0.000651937
0.000602231
0.000557105
0.000516432
0.00047992
0.000447198
0.000417865
0.000391536
0.000367857
0.000346514
0.000327238
0.000309801
0.000294005
0.000279671
0.000266581
0.000254329
0.000241818
0.000814958
0.000730426
0.000654634
0.000589044
0.000533068
0.00048544
0.000444767
0.000409802
0.000379488
0.000352966
0.000329554
0.000308738
0.000290121
0.000273393
0.000258312
0.000244682
0.000232336
0.000221106
0.000210701
0.000200212
0.000728543
0.000588231
0.000496001
0.000429131
0.000378509
0.000338935
0.00030682
0.000279979
0.000257085
0.000237282
0.000219956
0.000204658
0.000191051
0.000178873
0.000167926
0.00015805
0.000149112
0.000140994
0.000133569
0.000126568
0.000218609
0.000155003
0.000118661
9.65068e-05
8.18823e-05
7.08353e-05
6.3085e-05
5.71424e-05
5.22466e-05
4.80932e-05
4.45767e-05
4.15635e-05
3.89398e-05
3.66407e-05
3.46133e-05
3.28153e-05
3.1212e-05
2.97759e-05
2.84973e-05
2.74954e-05
0.000198681
0.0001383
0.000105187
8.55268e-05
7.25011e-05
6.28898e-05
5.60605e-05
5.07582e-05
4.63861e-05
4.27186e-05
3.96189e-05
3.69458e-05
3.46188e-05
3.25814e-05
3.07867e-05
2.91964e-05
2.77785e-05
2.65064e-05
2.53654e-05
2.44569e-05
0.00071288
0.000556432
0.000466396
0.000402354
0.000354425
0.00031705
0.000286676
0.000261259
0.000239592
0.000220867
0.000204484
0.000190021
0.000177163
0.000165655
0.000155297
0.000145948
0.000137467
0.000129731
0.000122592
0.000115933
0.000809324
0.000713906
0.000631504
0.000562574
0.000505377
0.000457787
0.000417844
0.000383947
0.00035482
0.000329481
0.000307213
0.00028748
0.000269872
0.000254071
0.000239832
0.000226977
0.00021534
0.000204765
0.000194962
0.000184927
0.000823497
0.000753987
0.000688491
0.000628748
0.000575388
0.000528268
0.000486849
0.00045045
0.000418379
0.000390006
0.000364787
0.000342268
0.000322076
0.000303901
0.000287496
0.000272665
0.00025923
0.000246998
0.000235634
0.000224243
0.000826292
0.000764347
0.000706102
0.000651937
0.000602231
0.000557105
0.000516432
0.00047992
0.000447197
0.000417865
0.000391535
0.000367856
0.000346515
0.000327239
0.000309799
0.000294002
0.000279667
0.000266577
0.000254325
0.000241817
0.000826292
0.000764347
0.000706102
0.000651937
0.000602231
0.000557105
0.000516432
0.00047992
0.000447197
0.000417864
0.000391534
0.000367855
0.000346512
0.000327234
0.000309791
0.000293993
0.000279653
0.00026656
0.000254322
0.000241954
0.000823497
0.000753987
0.000688491
0.000628748
0.000575388
0.000528268
0.000486849
0.00045045
0.000418379
0.000390006
0.000364787
0.000342269
0.000322074
0.000303898
0.000287497
0.000272667
0.000259232
0.000247
0.000235635
0.000224239
0.000809324
0.000713906
0.000631505
0.000562574
0.000505378
0.000457788
0.000417846
0.000383949
0.000354822
0.000329485
0.000307219
0.000287489
0.000269885
0.000254091
0.000239872
0.000227041
0.000215444
0.00020494
0.00019529
0.000185724
0.00071288
0.000556432
0.000466397
0.000402355
0.000354426
0.000317052
0.000286678
0.000261263
0.000239598
0.000220878
0.000204501
0.000190048
0.000177207
0.000165726
0.000155419
0.000146152
0.000137808
0.000130303
0.000123595
0.00011776
0.000198681
0.0001383
0.000105187
8.55269e-05
7.25012e-05
6.289e-05
5.60608e-05
5.07587e-05
4.63869e-05
4.27198e-05
3.96211e-05
3.69491e-05
3.46242e-05
3.25899e-05
3.08003e-05
2.92186e-05
2.78149e-05
2.65666e-05
2.5462e-05
2.45861e-05
0.000160509
0.00010736
8.07408e-05
6.55975e-05
5.54895e-05
4.83024e-05
4.31307e-05
3.90785e-05
3.5738e-05
3.29472e-05
3.0574e-05
2.85291e-05
2.67652e-05
2.5233e-05
2.38892e-05
2.27026e-05
2.16517e-05
2.07207e-05
1.98982e-05
1.91834e-05
0.000663952
0.000488458
0.000404618
0.000347248
0.000305035
0.000272128
0.00024532
0.000222893
0.000203766
0.0001872
0.000172693
0.000159882
0.000148486
0.000138296
0.00012917
0.000121093
0.000113814
0.000107416
0.00010168
9.59556e-05
0.000786827
0.000662293
0.000567974
0.000495805
0.000439464
0.000394563
0.000357978
0.000327459
0.000301506
0.000279081
0.000259454
0.000242101
0.000226638
0.000212775
0.000200298
0.000189063
0.000178925
0.000169814
0.000161457
0.000152585
0.000809324
0.000713906
0.000631505
0.000562574
0.000505378
0.000457788
0.000417846
0.000383949
0.000354822
0.000329484
0.000307219
0.00028749
0.000269887
0.000254094
0.00023987
0.000227038
0.00021544
0.000204935
0.000195286
0.000185723
0.000814958
0.000730426
0.000654634
0.000589044
0.000533068
0.00048544
0.000444767
0.000409802
0.000379488
0.000352966
0.000329554
0.000308738
0.000290123
0.000273395
0.000258309
0.000244677
0.000232331
0.0002211
0.000210695
0.000200208
0.000814958
0.000730426
0.000654634
0.000589044
0.000533067
0.00048544
0.000444767
0.000409801
0.000379486
0.000352963
0.00032955
0.000308732
0.000290114
0.000273379
0.000258284
0.000244639
0.000232271
0.000221002
0.00021052
0.00019987
0.000809324
0.000713906
0.000631504
0.000562574
0.000505378
0.000457787
0.000417844
0.000383947
0.00035482
0.000329481
0.000307213
0.00028748
0.00026987
0.000254067
0.000239833
0.000226978
0.000215341
0.000204767
0.000194964
0.000184927
0.000786827
0.000662293
0.000567974
0.000495805
0.000439464
0.000394563
0.000357978
0.000327459
0.000301506
0.000279081
0.000259454
0.000242101
0.000226636
0.000212772
0.0002003
0.000189066
0.000178929
0.000169818
0.000161462
0.000152588
0.000663952
0.000488458
0.000404619
0.000347248
0.000305036
0.000272129
0.000245322
0.000222897
0.000203772
0.000187208
0.000172706
0.000159903
0.00014852
0.000138348
0.000129259
0.000121244
0.000114071
0.00010787
0.000102512
9.57603e-05
0.000160509
0.00010736
8.07409e-05
6.55976e-05
5.54896e-05
4.83025e-05
4.31309e-05
3.90788e-05
3.57386e-05
3.29484e-05
3.05757e-05
2.85318e-05
2.67694e-05
2.52397e-05
2.39e-05
2.27199e-05
2.16802e-05
2.0768e-05
1.99803e-05
1.93413e-05
0.000107685
6.77183e-05
5.06311e-05
4.14159e-05
3.54048e-05
3.10366e-05
2.77135e-05
2.50812e-05
2.29328e-05
2.11489e-05
1.96484e-05
1.83671e-05
1.72562e-05
1.62817e-05
1.54362e-05
1.47052e-05
1.40686e-05
1.35173e-05
1.30638e-05
1.27384e-05
0.000528907
0.000369984
0.000305097
0.000261371
0.000228528
0.000202476
0.000181116
0.000163078
0.00014755
0.000134003
0.000122084
0.000111524
0.000102226
9.3997e-05
8.66612e-05
7.996e-05
7.38967e-05
6.91131e-05
6.41809e-05
5.57843e-05
0.000663952
0.000488458
0.000404619
0.000347248
0.000305036
0.000272129
0.000245322
0.000222897
0.000203772
0.000187208
0.000172706
0.000159903
0.00014852
0.000138351
0.000129259
0.000121242
0.000114069
0.000107867
0.000102509
9.57631e-05
0.00071288
0.000556432
0.000466397
0.000402355
0.000354426
0.000317052
0.000286678
0.000261263
0.000239598
0.000220878
0.000204501
0.000190048
0.000177208
0.000165728
0.000155418
0.00014615
0.000137806
0.0001303
0.000123591
0.000117756
0.000728543
0.000588231
0.000496001
0.000429131
0.000378509
0.000338935
0.00030682
0.000279979
0.000257085
0.000237282
0.000219956
0.000204659
0.000191052
0.000178875
0.000167924
0.000158048
0.000149109
0.000140991
0.000133565
0.000126565
0.000728543
0.000588231
0.000496001
0.000429131
0.000378509
0.000338934
0.000306819
0.000279977
0.000257082
0.000237276
0.000219948
0.000204645
0.000191029
0.000178836
0.00016786
0.000157945
0.000148941
0.00014071
0.000133069
0.000125106
0.00071288
0.000556432
0.000466396
0.000402354
0.000354425
0.00031705
0.000286676
0.000261259
0.000239592
0.000220867
0.000204484
0.000190021
0.000177162
0.000165653
0.000155298
0.000145949
0.000137468
0.000129733
0.000122594
0.000115936
0.000663952
0.000488458
0.000404618
0.000347248
0.000305035
0.000272128
0.00024532
0.000222894
0.000203766
0.0001872
0.000172693
0.000159882
0.000148486
0.000138294
0.00012917
0.000121095
0.000113816
0.000107419
0.000101683
9.59585e-05
0.000528907
0.000369984
0.000305097
0.000261371
0.000228528
0.000202476
0.000181116
0.000163078
0.00014755
0.000134003
0.000122084
0.000111524
0.000102225
9.39959e-05
8.66608e-05
7.99605e-05
7.38978e-05
6.91152e-05
6.4182e-05
5.57852e-05
0.000107685
6.77183e-05
5.06311e-05
4.14159e-05
3.54048e-05
3.10366e-05
2.77136e-05
2.50813e-05
2.29328e-05
2.11491e-05
1.96488e-05
1.83679e-05
1.72576e-05
1.62848e-05
1.54409e-05
1.47129e-05
1.40825e-05
1.35443e-05
1.31135e-05
1.2821e-05
4.5356e-05
2.3208e-05
1.65396e-05
1.36493e-05
1.18966e-05
1.06844e-05
9.76077e-06
9.05713e-06
8.49455e-06
8.03185e-06
7.63958e-06
7.31207e-06
7.02597e-06
6.76053e-06
6.52766e-06
6.32722e-06
6.15545e-06
6.0103e-06
5.93561e-06
5.83453e-06
0.000107685
6.77183e-05
5.06311e-05
4.14159e-05
3.54048e-05
3.10366e-05
2.77136e-05
2.50813e-05
2.29328e-05
2.11491e-05
1.96488e-05
1.83679e-05
1.72576e-05
1.62848e-05
1.54409e-05
1.4713e-05
1.40825e-05
1.35443e-05
1.31135e-05
1.28211e-05
0.000160509
0.00010736
8.07409e-05
6.55976e-05
5.54896e-05
4.83025e-05
4.31309e-05
3.90788e-05
3.57386e-05
3.29484e-05
3.05757e-05
2.85318e-05
2.67693e-05
2.52396e-05
2.39e-05
2.272e-05
2.16802e-05
2.0768e-05
1.99804e-05
1.93413e-05
0.000198681
0.0001383
0.000105187
8.55269e-05
7.25012e-05
6.289e-05
5.60608e-05
5.07587e-05
4.63869e-05
4.27198e-05
3.96211e-05
3.69491e-05
3.46241e-05
3.25898e-05
3.08003e-05
2.92186e-05
2.78149e-05
2.65666e-05
2.5462e-05
2.4586e-05
0.000218609
0.000155003
0.000118661
9.65068e-05
8.18823e-05
7.08353e-05
6.3085e-05
5.71424e-05
5.22466e-05
4.80932e-05
4.45767e-05
4.15635e-05
3.89398e-05
3.66406e-05
3.46134e-05
3.28154e-05
3.12121e-05
2.97759e-05
2.84973e-05
2.74953e-05
0.000218609
0.000155003
0.000118661
9.65068e-05
8.18822e-05
7.08352e-05
6.30849e-05
5.71422e-05
5.22462e-05
4.80926e-05
4.45756e-05
4.15617e-05
3.89369e-05
3.6636e-05
3.46058e-05
3.2803e-05
3.11916e-05
2.97417e-05
2.84341e-05
2.73217e-05
0.000198681
0.0001383
0.000105187
8.55268e-05
7.25011e-05
6.28898e-05
5.60605e-05
5.07582e-05
4.63861e-05
4.27186e-05
3.96189e-05
3.69458e-05
3.46189e-05
3.25814e-05
3.07867e-05
2.91964e-05
2.77785e-05
2.65063e-05
2.53654e-05
2.44568e-05
0.000160509
0.00010736
8.07408e-05
6.55975e-05
5.54895e-05
4.83024e-05
4.31307e-05
3.90784e-05
3.5738e-05
3.29472e-05
3.0574e-05
2.85291e-05
2.67652e-05
2.52331e-05
2.38892e-05
2.27025e-05
2.16517e-05
2.07207e-05
1.98981e-05
1.91834e-05
0.000107685
6.77183e-05
5.06311e-05
4.14159e-05
3.54048e-05
3.10366e-05
2.77135e-05
2.50812e-05
2.29327e-05
2.11489e-05
1.96483e-05
1.83671e-05
1.72562e-05
1.62817e-05
1.54361e-05
1.47052e-05
1.40686e-05
1.35173e-05
1.30637e-05
1.27384e-05
4.5356e-05
2.3208e-05
1.65396e-05
1.36493e-05
1.18966e-05
1.06844e-05
9.76077e-06
9.05713e-06
8.49454e-06
8.03185e-06
7.63958e-06
7.31207e-06
7.02597e-06
6.76053e-06
6.52764e-06
6.3272e-06
6.15544e-06
6.01029e-06
5.93561e-06
5.8345e-06
5.69287e-06
5.26685e-06
4.86191e-06
4.62187e-06
4.47061e-06
4.37242e-06
4.31301e-06
4.27129e-06
4.24004e-06
4.21511e-06
4.19376e-06
4.17644e-06
4.1626e-06
4.15123e-06
4.14191e-06
4.13427e-06
4.12808e-06
4.12313e-06
4.11923e-06
4.11618e-06
4.11384e-06
4.1122e-06
4.11112e-06
4.11044e-06
4.10975e-06
4.10885e-06
4.10796e-06
4.10736e-06
4.10703e-06
4.10709e-06
4.10713e-06
4.10685e-06
4.10641e-06
4.10624e-06
4.10624e-06
4.10632e-06
4.10651e-06
4.10645e-06
4.1062e-06
4.10577e-06
1.13412e-05
1.06436e-05
1.00329e-05
9.5959e-06
9.32409e-06
9.04638e-06
8.88761e-06
8.77686e-06
8.67935e-06
8.59964e-06
8.53453e-06
8.48116e-06
8.43758e-06
8.40185e-06
8.37255e-06
8.34865e-06
8.32937e-06
8.31403e-06
8.302e-06
8.29267e-06
8.28561e-06
8.28e-06
8.27542e-06
8.27166e-06
8.26834e-06
8.26565e-06
8.26397e-06
8.2628e-06
8.26224e-06
8.26188e-06
8.26125e-06
8.2608e-06
8.2605e-06
8.26041e-06
8.2605e-06
8.26029e-06
8.25992e-06
8.25983e-06
8.26001e-06
8.26045e-06
1.65613e-05
1.56604e-05
1.4906e-05
1.43421e-05
1.39469e-05
1.36022e-05
1.32902e-05
1.30604e-05
1.28724e-05
1.27215e-05
1.25961e-05
1.24933e-05
1.24075e-05
1.23369e-05
1.2279e-05
1.22316e-05
1.21934e-05
1.21629e-05
1.21388e-05
1.21199e-05
1.21057e-05
1.20946e-05
1.20848e-05
1.2076e-05
1.20691e-05
1.20627e-05
1.20596e-05
1.20577e-05
1.20566e-05
1.20557e-05
1.20544e-05
1.20535e-05
1.20534e-05
1.20537e-05
1.20544e-05
1.20544e-05
1.20531e-05
1.20532e-05
1.20537e-05
1.20544e-05
2.01712e-05
1.94126e-05
1.87511e-05
1.81851e-05
1.76881e-05
1.7253e-05
1.68764e-05
1.65532e-05
1.62798e-05
1.60505e-05
1.58592e-05
1.57006e-05
1.5569e-05
1.54613e-05
1.53724e-05
1.52996e-05
1.52417e-05
1.51941e-05
1.51567e-05
1.51272e-05
1.51042e-05
1.50861e-05
1.50709e-05
1.50573e-05
1.50454e-05
1.50377e-05
1.5032e-05
1.50291e-05
1.50271e-05
1.50258e-05
1.50242e-05
1.50231e-05
1.50229e-05
1.50232e-05
1.50236e-05
1.50237e-05
1.50231e-05
1.5023e-05
1.50236e-05
1.50244e-05
2.27125e-05
2.19076e-05
2.11819e-05
2.05433e-05
2.00032e-05
1.95241e-05
1.91028e-05
1.87359e-05
1.84189e-05
1.81479e-05
1.79184e-05
1.77253e-05
1.75633e-05
1.74288e-05
1.73184e-05
1.72283e-05
1.71551e-05
1.70957e-05
1.70477e-05
1.70101e-05
1.698e-05
1.69567e-05
1.69372e-05
1.69198e-05
1.69047e-05
1.68956e-05
1.68876e-05
1.68839e-05
1.68816e-05
1.68802e-05
1.68784e-05
1.68773e-05
1.68768e-05
1.68772e-05
1.68779e-05
1.68789e-05
1.68781e-05
1.68778e-05
1.68779e-05
1.68785e-05
2.44019e-05
2.30509e-05
2.21129e-05
2.13532e-05
2.07536e-05
2.02409e-05
1.97957e-05
1.94114e-05
1.90816e-05
1.88001e-05
1.85617e-05
1.83604e-05
1.81908e-05
1.80496e-05
1.79333e-05
1.78385e-05
1.77613e-05
1.76987e-05
1.76481e-05
1.76078e-05
1.75758e-05
1.75509e-05
1.753e-05
1.75112e-05
1.74959e-05
1.74859e-05
1.74756e-05
1.74725e-05
1.74692e-05
1.74676e-05
1.74661e-05
1.7465e-05
1.74644e-05
1.74648e-05
1.74652e-05
1.74668e-05
1.74677e-05
1.74653e-05
1.74659e-05
1.74665e-05
2.30989e-05
2.18868e-05
2.10426e-05
2.03577e-05
1.98023e-05
1.9318e-05
1.88977e-05
1.8536e-05
1.8228e-05
1.79673e-05
1.77479e-05
1.7564e-05
1.74102e-05
1.72824e-05
1.71774e-05
1.70917e-05
1.70218e-05
1.69654e-05
1.69197e-05
1.68843e-05
1.68561e-05
1.68342e-05
1.68153e-05
1.6798e-05
1.67837e-05
1.67729e-05
1.67656e-05
1.67619e-05
1.67601e-05
1.6758e-05
1.67555e-05
1.67539e-05
1.67534e-05
1.67535e-05
1.67539e-05
1.67558e-05
1.6756e-05
1.6755e-05
1.67547e-05
1.67551e-05
1.97881e-05
1.89519e-05
1.82837e-05
1.77292e-05
1.72567e-05
1.68462e-05
1.64973e-05
1.62027e-05
1.59549e-05
1.57477e-05
1.55752e-05
1.54311e-05
1.53121e-05
1.52127e-05
1.51302e-05
1.50637e-05
1.50087e-05
1.49658e-05
1.4931e-05
1.4904e-05
1.48833e-05
1.4867e-05
1.48524e-05
1.48387e-05
1.48272e-05
1.48182e-05
1.48132e-05
1.481e-05
1.48082e-05
1.48063e-05
1.48041e-05
1.48025e-05
1.48025e-05
1.4803e-05
1.48035e-05
1.48044e-05
1.48048e-05
1.48043e-05
1.48031e-05
1.48033e-05
1.53748e-05
1.48193e-05
1.43036e-05
1.38556e-05
1.34903e-05
1.31694e-05
1.29227e-05
1.27242e-05
1.25608e-05
1.24266e-05
1.23153e-05
1.22219e-05
1.21446e-05
1.20799e-05
1.20264e-05
1.19825e-05
1.19469e-05
1.19186e-05
1.18961e-05
1.18791e-05
1.18659e-05
1.18553e-05
1.18462e-05
1.18374e-05
1.183e-05
1.18241e-05
1.18208e-05
1.18187e-05
1.18175e-05
1.18164e-05
1.18146e-05
1.18135e-05
1.18133e-05
1.18135e-05
1.18135e-05
1.18132e-05
1.18123e-05
1.1812e-05
1.18114e-05
1.18119e-05
1.09961e-05
1.03533e-05
9.74492e-06
9.34378e-06
8.99555e-06
8.82337e-06
8.6999e-06
8.59556e-06
8.51048e-06
8.44118e-06
8.38351e-06
8.33577e-06
8.29602e-06
8.26318e-06
8.23613e-06
8.21401e-06
8.1961e-06
8.18185e-06
8.17062e-06
8.16195e-06
8.15527e-06
8.14999e-06
8.14569e-06
8.14213e-06
8.13899e-06
8.13634e-06
8.13461e-06
8.13326e-06
8.13253e-06
8.13211e-06
8.13141e-06
8.13089e-06
8.13045e-06
8.13023e-06
8.13026e-06
8.1303e-06
8.13005e-06
8.12947e-06
8.129e-06
8.12871e-06
5.69287e-06
5.26693e-06
4.86204e-06
4.62209e-06
4.47089e-06
4.37284e-06
4.31357e-06
4.27187e-06
4.24058e-06
4.21565e-06
4.19414e-06
4.17706e-06
4.16304e-06
4.15156e-06
4.14214e-06
4.13447e-06
4.12832e-06
4.12344e-06
4.11961e-06
4.11661e-06
4.11431e-06
4.11269e-06
4.11161e-06
4.11091e-06
4.11021e-06
4.10929e-06
4.10835e-06
4.10774e-06
4.10737e-06
4.10743e-06
4.1074e-06
4.10706e-06
4.10661e-06
4.10637e-06
4.10626e-06
4.10674e-06
4.10681e-06
4.10641e-06
4.10589e-06
4.10526e-06
1.0996e-05
1.03531e-05
9.7447e-06
9.34311e-06
8.99454e-06
8.8215e-06
8.69785e-06
8.59346e-06
8.50845e-06