/*--------------------------------*- C++ -*----------------------------------*\
| =========                 |                                                 |
| \\      /  F ield         | OpenFOAM: The Open Source CFD Toolbox           |
|  \\    /   O peration     | Version:  2212                                  |
|   \\  /    A nd           | Website:  www.openfoam.com                      |
|    \\/     M anipulation  |                                                 |
\*---------------------------------------------------------------------------*/
FoamFile
{
    version     2.0;
    format      ascii;
    arch        "LSB;label=32;scalar=64";
    class       volScalarField;
    location    "0.55";
    object      p;
}
// * * * * * * * * * * * * * * * * * * * * * * * * * * * * * * * * * * * * * //

dimensions      [0 2 -2 0 0 0 0];

internalField   nonuniform List<scalar> 
6840
(
0.0180428
0.0109284
0.00863694
0.00809911
0.00782475
0.00760257
0.00741591
0.00724943
0.00708819
0.00692857
0.00677038
0.00661353
0.00645695
0.00629907
0.00613919
0.00597669
0.00581044
0.00563147
0.00539275
0.0049241
0.010864
0.0101302
0.00903727
0.00837132
0.00796875
0.00769505
0.0074839
0.0072977
0.00712331
0.00695598
0.00679309
0.00663298
0.0064742
0.00631605
0.00615849
0.00600077
0.00583881
0.00566685
0.00546068
0.00514587
0.0105158
0.00966429
0.00890003
0.0083409
0.00796479
0.00769684
0.00748127
0.00728847
0.00711023
0.00694204
0.00677914
0.00661936
0.00646236
0.00630823
0.00615682
0.0060079
0.00586169
0.00572038
0.00559336
0.00550156
0.0101065
0.00934382
0.00872508
0.00827378
0.00792986
0.00766093
0.00744146
0.00725284
0.0070853
0.00692834
0.00677347
0.00661949
0.00646758
0.00631922
0.00617631
0.00604215
0.0059219
0.00582323
0.00576314
0.00576232
0.00997233
0.00923116
0.00864301
0.00823492
0.00791301
0.00764637
0.00742497
0.00723449
0.00706394
0.00690756
0.00675825
0.00660937
0.00646061
0.00631462
0.00617433
0.00604364
0.00592852
0.00583734
0.00578386
0.00579489
0.00997232
0.00923114
0.00864297
0.00823486
0.00791293
0.00764625
0.00742477
0.00723415
0.00706336
0.0069066
0.00675663
0.00660664
0.00645597
0.00630678
0.00616106
0.00602088
0.00588934
0.00576947
0.0056663
0.00559216
0.0101065
0.00934376
0.008725
0.00827368
0.0079297
0.00766068
0.007441
0.00725204
0.00708395
0.0069261
0.00676975
0.00661338
0.00645758
0.00630277
0.00614888
0.00599583
0.0058439
0.00569429
0.00555149
0.00542431
0.0105157
0.00966424
0.00889996
0.00834082
0.00796465
0.00769657
0.00748081
0.00728769
0.00710895
0.00693991
0.00677558
0.00661355
0.00645298
0.00629304
0.00613214
0.00596797
0.00579632
0.00561274
0.00541251
0.00517634
0.010864
0.0101301
0.00903724
0.00837127
0.00796868
0.00769492
0.00748368
0.00729732
0.00712267
0.00695489
0.00679132
0.00663009
0.00646936
0.00630769
0.00614438
0.00597821
0.00580346
0.00560634
0.00534167
0.00489209
0.0180428
0.0109284
0.00863693
0.0080991
0.00782474
0.00760256
0.0074159
0.00724942
0.00708818
0.00692856
0.00677038
0.00661353
0.00645695
0.00629906
0.00613918
0.00597666
0.00581039
0.00563138
0.00539262
0.00492394
0.010864
0.0101302
0.00903725
0.00837128
0.00796869
0.00769493
0.00748369
0.00729733
0.00712268
0.0069549
0.00679133
0.0066301
0.00646936
0.0063077
0.0061444
0.00597825
0.00580351
0.00560642
0.00534179
0.00489228
0.0101474
0.0101157
0.00938749
0.00867699
0.00823066
0.0079147
0.00765573
0.00742793
0.00722311
0.00703429
0.00685576
0.00668369
0.00651488
0.00634717
0.00617924
0.00600904
0.00583309
0.00564844
0.0054707
0.00536909
0.009222
0.0093482
0.00904534
0.00862912
0.008262
0.00794339
0.00766485
0.00742441
0.00721183
0.00701722
0.00683378
0.00665818
0.00648846
0.00632293
0.00616004
0.0059984
0.00583652
0.00567122
0.00550431
0.00534758
0.00880368
0.0088472
0.00868168
0.00841879
0.00813845
0.00786715
0.00761621
0.00738996
0.00718716
0.007001
0.0068247
0.0066552
0.00649106
0.00633173
0.0061777
0.0060299
0.00588959
0.00575844
0.00564305
0.00555192
0.00858771
0.00860955
0.00848239
0.00826495
0.00803261
0.00780352
0.0075808
0.00736782
0.00716732
0.00698044
0.00680475
0.00663713
0.00647632
0.00632164
0.00617263
0.00603046
0.00589766
0.00577652
0.00567073
0.0055803
0.00858767
0.00860951
0.00848234
0.00826484
0.00803246
0.00780331
0.00758047
0.00736733
0.00716658
0.0069792
0.00680266
0.00663361
0.00647059
0.00631244
0.0061583
0.00600868
0.00586439
0.00572583
0.00559516
0.00547044
0.00880359
0.00884711
0.00868155
0.00841862
0.00813821
0.00786681
0.00761568
0.00738912
0.00718573
0.00699848
0.00682029
0.00664804
0.00648029
0.00631561
0.00615268
0.00599052
0.00582859
0.00566701
0.00550816
0.00534871
0.00922196
0.00934815
0.00904526
0.00862902
0.00826187
0.00794318
0.00766449
0.00742378
0.00721073
0.00701544
0.00683103
0.00665397
0.00648194
0.00631267
0.00614405
0.00597415
0.00580124
0.00562299
0.00544704
0.00528912
0.0101474
0.0101157
0.00938748
0.00867698
0.00823065
0.00791468
0.00765572
0.00742791
0.00722309
0.00703428
0.00685574
0.00668368
0.00651486
0.00634714
0.00617919
0.00600898
0.00583301
0.00564831
0.00547051
0.00536879
0.010864
0.0101302
0.00903726
0.0083713
0.00796874
0.00769503
0.00748388
0.00729768
0.0071233
0.00695597
0.00679308
0.00663297
0.00647419
0.00631603
0.00615846
0.00600072
0.00583874
0.00566676
0.00546054
0.00514568
0.0105158
0.00966425
0.00889997
0.00834083
0.00796466
0.00769658
0.00748082
0.0072877
0.00710896
0.00693992
0.0067756
0.00661356
0.006453
0.00629307
0.00613218
0.00596801
0.00579638
0.00561281
0.00541262
0.00517649
0.00922197
0.00934816
0.00904527
0.00862903
0.00826188
0.0079432
0.00766451
0.0074238
0.00721075
0.00701546
0.00683105
0.006654
0.00648197
0.00631271
0.0061441
0.00597421
0.00580132
0.00562311
0.0054472
0.00528935
0.00865248
0.00875347
0.00864192
0.00841643
0.00816066
0.00790223
0.00764374
0.00740196
0.00718382
0.00698317
0.00679496
0.00661603
0.0064437
0.00627582
0.00611091
0.00594767
0.00578515
0.00562382
0.00547027
0.00532388
0.00828452
0.00835259
0.00830023
0.0081533
0.00796845
0.00776331
0.00755264
0.00734577
0.00714472
0.00695246
0.00677016
0.00659604
0.00642815
0.00626533
0.00610701
0.00595271
0.0058019
0.00565464
0.005513
0.00536929
0.00810146
0.0081659
0.00813644
0.00801162
0.00785265
0.00767899
0.00749271
0.00730475
0.00711875
0.00693559
0.00675687
0.0065837
0.00641654
0.00625495
0.00609899
0.00594872
0.00580281
0.00565917
0.00551693
0.00536634
0.00810142
0.00816587
0.0081364
0.00801153
0.00785247
0.00767875
0.00749243
0.00730436
0.00711817
0.00693468
0.00675546
0.00658161
0.00641356
0.00625053
0.0060922
0.00593864
0.00578861
0.00564053
0.00549524
0.00534643
0.00828446
0.00835253
0.00830015
0.00815315
0.00796823
0.00776304
0.00755229
0.00734524
0.00714391
0.00695116
0.00676805
0.00659275
0.00642323
0.00625796
0.00609583
0.00593581
0.00577691
0.00561875
0.00546294
0.00530368
0.00865247
0.00875346
0.00864191
0.00841642
0.00816065
0.00790222
0.00764372
0.00740195
0.0071838
0.00698315
0.00679494
0.006616
0.00644367
0.00627578
0.00611087
0.00594762
0.00578508
0.00562373
0.00547015
0.00532372
0.00922199
0.00934819
0.00904532
0.00862911
0.00826199
0.00794338
0.00766484
0.0074244
0.00721181
0.00701721
0.00683377
0.00665817
0.00648844
0.0063229
0.00616001
0.00599835
0.00583645
0.00567111
0.00550416
0.00534734
0.0105158
0.00966428
0.00890001
0.00834089
0.00796478
0.00769683
0.00748126
0.00728845
0.00711022
0.00694203
0.00677913
0.00661935
0.00646236
0.00630822
0.0061568
0.00600786
0.00586164
0.00572031
0.00559326
0.00550142
0.0101065
0.00934377
0.00872501
0.00827369
0.00792971
0.00766069
0.00744102
0.00725206
0.00708396
0.00692612
0.00676977
0.00661341
0.00645761
0.00630281
0.00614892
0.00599588
0.00584395
0.00569435
0.00555156
0.00542437
0.0088036
0.00884712
0.00868156
0.00841863
0.00813822
0.00786682
0.0076157
0.00738913
0.00718575
0.0069985
0.00682032
0.00664807
0.00648033
0.00631565
0.00615273
0.00599058
0.00582866
0.00566708
0.00550826
0.00534883
0.00828446
0.00835254
0.00830016
0.00815316
0.00796824
0.00776305
0.0075523
0.00734526
0.00714393
0.00695118
0.00676808
0.00659278
0.00642327
0.00625799
0.00609586
0.00593585
0.00577696
0.00561881
0.005463
0.00530374
0.00798657
0.00804572
0.00803379
0.00793839
0.00779875
0.0076332
0.00745294
0.0072684
0.00708436
0.00690393
0.00672873
0.00655862
0.006393
0.00623129
0.00607296
0.00591739
0.00576374
0.00561171
0.00546224
0.00530652
0.00783546
0.00789836
0.00790212
0.00782847
0.00770834
0.00756194
0.007399
0.00722754
0.00705339
0.00687989
0.00670891
0.00654136
0.00637754
0.00621742
0.00606085
0.00590739
0.00575607
0.00560643
0.00545929
0.00530455
0.00783545
0.00789834
0.0079021
0.00782844
0.0077083
0.00756186
0.00739889
0.00722738
0.00705318
0.0068796
0.0067085
0.00654079
0.00637677
0.00621631
0.00605918
0.00590517
0.00575355
0.00560409
0.00545832
0.0053072
0.00798657
0.00804571
0.00803378
0.00793838
0.00779874
0.00763319
0.00745293
0.00726839
0.00708435
0.00690392
0.00672872
0.00655861
0.00639298
0.00623127
0.00607294
0.00591737
0.00576372
0.00561169
0.00546224
0.00530655
0.00828451
0.00835258
0.00830022
0.00815329
0.00796844
0.0077633
0.00755263
0.00734575
0.00714471
0.00695245
0.00677015
0.00659602
0.00642813
0.00626531
0.00610699
0.00595268
0.00580187
0.0056546
0.00551295
0.00536926
0.00880366
0.00884719
0.00868166
0.00841878
0.00813844
0.00786714
0.0076162
0.00738995
0.00718715
0.00700099
0.00682468
0.00665519
0.00649104
0.00633171
0.00617768
0.00602986
0.00588955
0.00575838
0.00564297
0.00555181
0.0101065
0.00934381
0.00872506
0.00827377
0.00792985
0.00766092
0.00744145
0.00725283
0.00708529
0.00692834
0.00677346
0.00661948
0.00646758
0.00631921
0.0061763
0.00604213
0.00592188
0.00582319
0.0057631
0.00576227
0.00997233
0.00923115
0.00864298
0.00823487
0.00791295
0.00764627
0.00742479
0.00723417
0.00706338
0.00690662
0.00675665
0.00660667
0.006456
0.00630681
0.0061611
0.00602091
0.00588937
0.0057695
0.00566632
0.00559218
0.00858768
0.00860952
0.00848234
0.00826485
0.00803247
0.00780332
0.00758049
0.00736734
0.00716659
0.00697922
0.00680268
0.00663364
0.00647062
0.00631247
0.00615833
0.00600872
0.00586443
0.00572587
0.00559519
0.00547047
0.00810143
0.00816587
0.00813641
0.00801153
0.00785248
0.00767876
0.00749244
0.00730437
0.00711818
0.00693469
0.00675547
0.00658163
0.00641359
0.00625055
0.00609222
0.00593867
0.00578863
0.00564056
0.00549527
0.00534646
0.00783545
0.00789835
0.0079021
0.00782844
0.0077083
0.00756187
0.0073989
0.00722739
0.00705318
0.0068796
0.00670851
0.0065408
0.00637678
0.00621632
0.00605919
0.00590518
0.00575356
0.00560409
0.00545833
0.00530718
0.00769264
0.00776216
0.00778428
0.00773172
0.00763046
0.00749951
0.00734958
0.0071886
0.00702214
0.00685391
0.00668628
0.0065207
0.00635792
0.00619819
0.00604148
0.00588741
0.00573507
0.00558391
0.00543404
0.00527796
0.00769264
0.00776216
0.00778428
0.00773172
0.00763046
0.00749951
0.00734958
0.0071886
0.00702214
0.00685391
0.00668628
0.0065207
0.00635791
0.00619819
0.00604148
0.00588741
0.00573507
0.00558392
0.00543405
0.00527799
0.00783546
0.00789835
0.00790212
0.00782846
0.00770834
0.00756193
0.00739899
0.00722753
0.00705338
0.00687988
0.00670891
0.00654135
0.00637753
0.00621741
0.00606084
0.00590739
0.00575607
0.00560643
0.00545931
0.00530459
0.00810145
0.00816589
0.00813643
0.00801161
0.00785264
0.00767898
0.0074927
0.00730474
0.00711874
0.00693558
0.00675686
0.00658369
0.00641653
0.00625494
0.00609899
0.00594872
0.0058028
0.00565916
0.00551694
0.00536637
0.0085877
0.00860954
0.00848238
0.00826494
0.0080326
0.00780351
0.00758079
0.00736781
0.00716731
0.00698043
0.00680475
0.00663712
0.00647631
0.00632163
0.00617262
0.00603045
0.00589765
0.0057765
0.00567071
0.00558027
0.00997232
0.00923115
0.00864299
0.00823491
0.007913
0.00764636
0.00742496
0.00723449
0.00706394
0.00690756
0.00675825
0.00660937
0.00646061
0.00631462
0.00617433
0.00604364
0.00592852
0.00583734
0.00578386
0.0057949
0.00997234
0.00923117
0.00864301
0.00823492
0.00791302
0.00764638
0.00742498
0.00723451
0.00706396
0.00690758
0.00675826
0.00660938
0.00646062
0.00631463
0.00617434
0.00604365
0.00592852
0.00583733
0.00578384
0.00579487
0.00858771
0.00860956
0.0084824
0.00826495
0.00803262
0.00780353
0.00758081
0.00736783
0.00716733
0.00698045
0.00680477
0.00663714
0.00647633
0.00632165
0.00617264
0.00603046
0.00589765
0.0057765
0.0056707
0.00558026
0.00810146
0.0081659
0.00813644
0.00801162
0.00785266
0.007679
0.00749272
0.00730475
0.00711876
0.0069356
0.00675688
0.00658371
0.00641654
0.00625496
0.00609899
0.00594872
0.0058028
0.00565917
0.00551694
0.00536637
0.00783546
0.00789836
0.00790212
0.00782847
0.00770834
0.00756193
0.007399
0.00722754
0.00705339
0.00687989
0.00670891
0.00654136
0.00637754
0.00621741
0.00606085
0.00590739
0.00575607
0.00560644
0.00545931
0.00530459
0.00769264
0.00776215
0.00778427
0.00773172
0.00763045
0.00749951
0.00734958
0.0071886
0.00702214
0.0068539
0.00668628
0.0065207
0.00635791
0.00619819
0.00604148
0.00588741
0.00573507
0.00558392
0.00543405
0.00527799
0.00769263
0.00776215
0.00778427
0.00773172
0.00763045
0.0074995
0.00734957
0.00718859
0.00702213
0.0068539
0.00668628
0.00652069
0.00635791
0.00619819
0.00604148
0.00588741
0.00573507
0.00558392
0.00543404
0.00527798
0.00783544
0.00789833
0.00790209
0.00782843
0.00770829
0.00756186
0.00739888
0.00722738
0.00705317
0.00687959
0.00670849
0.00654078
0.00637676
0.0062163
0.00605917
0.00590517
0.00575355
0.00560409
0.00545833
0.0053072
0.00810141
0.00816586
0.00813639
0.00801152
0.00785246
0.00767874
0.00749242
0.00730435
0.00711816
0.00693467
0.00675545
0.00658161
0.00641356
0.00625053
0.0060922
0.00593865
0.00578861
0.00564054
0.00549525
0.00534645
0.00858766
0.0086095
0.00848232
0.00826483
0.00803245
0.0078033
0.00758047
0.00736732
0.00716657
0.0069792
0.00680266
0.00663361
0.00647059
0.00631244
0.0061583
0.00600868
0.00586439
0.00572584
0.00559517
0.00547045
0.00997231
0.00923113
0.00864296
0.00823485
0.00791292
0.00764624
0.00742477
0.00723415
0.00706336
0.00690659
0.00675663
0.00660664
0.00645597
0.00630678
0.00616106
0.00602088
0.00588935
0.00576948
0.00566632
0.00559218
0.0101065
0.00934383
0.00872508
0.00827378
0.00792986
0.00766094
0.00744146
0.00725285
0.00708531
0.00692835
0.00677347
0.00661949
0.00646758
0.00631921
0.0061763
0.00604213
0.00592187
0.00582318
0.00576307
0.00576223
0.00880368
0.0088472
0.00868168
0.00841879
0.00813845
0.00786715
0.00761621
0.00738996
0.00718716
0.007001
0.00682469
0.00665519
0.00649105
0.00633171
0.00617767
0.00602986
0.00588954
0.00575836
0.00564295
0.00555178
0.00828451
0.00835258
0.00830023
0.00815329
0.00796844
0.00776331
0.00755264
0.00734576
0.00714471
0.00695245
0.00677015
0.00659602
0.00642814
0.00626531
0.00610698
0.00595267
0.00580186
0.00565459
0.00551295
0.00536926
0.00798656
0.00804571
0.00803377
0.00793838
0.00779873
0.00763318
0.00745293
0.00726839
0.00708434
0.00690391
0.00672872
0.00655861
0.00639298
0.00623127
0.00607293
0.00591736
0.00576372
0.00561169
0.00546224
0.00530657
0.00783543
0.00789833
0.00790208
0.00782842
0.00770828
0.00756185
0.00739888
0.00722737
0.00705316
0.00687959
0.00670849
0.00654078
0.00637676
0.0062163
0.00605917
0.00590517
0.00575355
0.00560409
0.00545834
0.00530722
0.00783545
0.00789835
0.00790211
0.00782845
0.00770833
0.00756192
0.00739899
0.00722752
0.00705337
0.00687988
0.0067089
0.00654134
0.00637753
0.0062174
0.00606084
0.00590738
0.00575607
0.00560643
0.00545931
0.00530459
0.00798655
0.0080457
0.00803377
0.00793837
0.00779873
0.00763318
0.00745292
0.00726838
0.00708434
0.00690391
0.00672871
0.0065586
0.00639298
0.00623126
0.00607294
0.00591737
0.00576372
0.00561169
0.00546224
0.00530655
0.00828444
0.00835252
0.00830013
0.00815314
0.00796822
0.00776303
0.00755228
0.00734523
0.0071439
0.00695116
0.00676805
0.00659275
0.00642323
0.00625796
0.00609583
0.00593581
0.00577692
0.00561877
0.00546296
0.0053037
0.00880358
0.0088471
0.00868154
0.00841861
0.0081382
0.0078668
0.00761568
0.00738911
0.00718573
0.00699847
0.00682029
0.00664804
0.00648029
0.00631561
0.00615268
0.00599053
0.0058286
0.00566702
0.00550819
0.00534875
0.0101065
0.00934375
0.00872499
0.00827367
0.00792969
0.00766067
0.007441
0.00725203
0.00708394
0.00692609
0.00676975
0.00661338
0.00645758
0.00630277
0.00614887
0.00599583
0.0058439
0.00569431
0.00555152
0.00542434
0.0105158
0.00966429
0.00890002
0.0083409
0.00796479
0.00769684
0.00748127
0.00728847
0.00711023
0.00694204
0.00677913
0.00661935
0.00646235
0.00630821
0.00615679
0.00600785
0.00586162
0.00572029
0.00559323
0.00550138
0.00922199
0.0093482
0.00904533
0.00862911
0.00826199
0.00794338
0.00766485
0.0074244
0.00721182
0.00701721
0.00683376
0.00665816
0.00648843
0.0063229
0.00616
0.00599833
0.00583643
0.00567109
0.00550413
0.00534731
0.00865247
0.00875346
0.0086419
0.00841641
0.00816064
0.00790221
0.00764372
0.00740194
0.0071838
0.00698314
0.00679494
0.006616
0.00644366
0.00627577
0.00611086
0.0059476
0.00578506
0.00562371
0.00547014
0.00532371
0.00828444
0.00835251
0.00830013
0.00815313
0.00796821
0.00776302
0.00755227
0.00734522
0.0071439
0.00695115
0.00676804
0.00659275
0.00642323
0.00625795
0.00609581
0.0059358
0.0057769
0.00561875
0.00546294
0.00530369
0.0081014
0.00816585
0.00813638
0.0080115
0.00785245
0.00767873
0.00749241
0.00730434
0.00711815
0.00693466
0.00675544
0.0065816
0.00641355
0.00625052
0.00609218
0.00593863
0.0057886
0.00564053
0.00549524
0.00534645
0.00810143
0.00816587
0.00813642
0.0080116
0.00785263
0.00767897
0.00749269
0.00730473
0.00711873
0.00693557
0.00675685
0.00658368
0.00641652
0.00625493
0.00609897
0.0059487
0.00580279
0.00565916
0.00551693
0.00536637
0.00828449
0.00835256
0.00830021
0.00815328
0.00796842
0.00776329
0.00755262
0.00734574
0.00714469
0.00695243
0.00677014
0.00659601
0.00642812
0.0062653
0.00610698
0.00595268
0.00580186
0.0056546
0.00551296
0.00536927
0.00865246
0.00875345
0.0086419
0.00841641
0.00816064
0.0079022
0.00764371
0.00740194
0.00718379
0.00698314
0.00679493
0.00661599
0.00644366
0.00627577
0.00611087
0.00594762
0.00578509
0.00562374
0.00547017
0.00532375
0.00922194
0.00934814
0.00904524
0.00862901
0.00826186
0.00794317
0.00766449
0.00742377
0.00721073
0.00701544
0.00683102
0.00665396
0.00648193
0.00631266
0.00614404
0.00597415
0.00580125
0.00562301
0.00544708
0.00528918
0.0105157
0.00966423
0.00889995
0.00834081
0.00796464
0.00769656
0.0074808
0.00728768
0.00710894
0.0069399
0.00677557
0.00661354
0.00645297
0.00629303
0.00613213
0.00596796
0.00579632
0.00561274
0.00541254
0.00517639
0.010864
0.0101302
0.00903726
0.00837131
0.00796874
0.00769504
0.00748389
0.00729769
0.0071233
0.00695597
0.00679308
0.00663296
0.00647418
0.00631602
0.00615845
0.00600071
0.00583873
0.00566674
0.00546052
0.00514566
0.0101474
0.0101157
0.00938747
0.00867698
0.00823064
0.00791468
0.00765571
0.00742791
0.00722309
0.00703427
0.00685573
0.00668366
0.00651485
0.00634712
0.00617918
0.00600897
0.00583299
0.00564829
0.00547048
0.00536876
0.00922194
0.00934813
0.00904524
0.008629
0.00826185
0.00794316
0.00766448
0.00742376
0.00721072
0.00701543
0.00683102
0.00665396
0.00648193
0.00631266
0.00614403
0.00597413
0.00580122
0.00562297
0.00544702
0.0052891
0.00880357
0.00884708
0.00868153
0.0084186
0.00813818
0.00786678
0.00761566
0.00738909
0.00718571
0.00699846
0.00682028
0.00664803
0.00648028
0.0063156
0.00615267
0.00599051
0.00582857
0.00566699
0.00550814
0.00534869
0.00858764
0.00860948
0.00848231
0.00826482
0.00803243
0.00780328
0.00758045
0.0073673
0.00716655
0.00697918
0.00680264
0.0066336
0.00647058
0.00631242
0.00615828
0.00600867
0.00586437
0.00572581
0.00559513
0.00547041
0.00858768
0.00860952
0.00848236
0.00826492
0.00803258
0.00780349
0.00758077
0.00736779
0.00716729
0.00698042
0.00680473
0.00663711
0.00647629
0.00632162
0.0061726
0.00603043
0.00589763
0.00577647
0.00567067
0.00558024
0.00880365
0.00884717
0.00868165
0.00841877
0.00813842
0.00786712
0.00761618
0.00738993
0.00718713
0.00700098
0.00682467
0.00665517
0.00649103
0.0063317
0.00617766
0.00602985
0.00588953
0.00575836
0.00564295
0.0055518
0.00922198
0.00934818
0.00904531
0.0086291
0.00826197
0.00794337
0.00766483
0.00742439
0.0072118
0.00701719
0.00683375
0.00665815
0.00648842
0.00632289
0.00615999
0.00599834
0.00583644
0.00567111
0.00550416
0.00534735
0.0101474
0.0101157
0.00938747
0.00867697
0.00823064
0.00791467
0.00765571
0.0074279
0.00722309
0.00703427
0.00685573
0.00668366
0.00651485
0.00634712
0.00617918
0.00600897
0.005833
0.00564832
0.00547053
0.00536883
0.010864
0.0101301
0.00903723
0.00837126
0.00796867
0.00769491
0.00748367
0.00729731
0.00712266
0.00695488
0.00679131
0.00663008
0.00646934
0.00630767
0.00614436
0.00597819
0.00580345
0.00560633
0.00534168
0.00489213
0.0180428
0.0109284
0.00863692
0.0080991
0.00782474
0.00760256
0.00741589
0.00724941
0.00708817
0.00692855
0.00677036
0.00661351
0.00645693
0.00629904
0.00613915
0.00597664
0.00581037
0.00563136
0.00539259
0.00492392
0.010864
0.0101301
0.00903722
0.00837125
0.00796866
0.0076949
0.00748366
0.0072973
0.00712265
0.00695487
0.0067913
0.00663007
0.00646933
0.00630766
0.00614436
0.00597818
0.00580343
0.0056063
0.00534162
0.00489204
0.0105157
0.00966421
0.00889994
0.00834079
0.00796462
0.00769654
0.00748078
0.00728766
0.00710893
0.00693989
0.00677556
0.00661353
0.00645296
0.00629302
0.00613212
0.00596794
0.00579629
0.0056127
0.00541248
0.00517629
0.0101065
0.00934373
0.00872497
0.00827365
0.00792968
0.00766065
0.00744098
0.00725201
0.00708392
0.00692608
0.00676973
0.00661337
0.00645757
0.00630276
0.00614887
0.00599582
0.00584388
0.00569427
0.00555146
0.00542426
0.00997229
0.00923111
0.00864294
0.00823483
0.00791291
0.00764622
0.00742475
0.00723413
0.00706334
0.00690658
0.00675661
0.00660663
0.00645596
0.00630677
0.00616105
0.00602086
0.00588932
0.00576944
0.00566626
0.00559211
0.0099723
0.00923113
0.00864298
0.00823489
0.00791299
0.00764635
0.00742495
0.00723447
0.00706392
0.00690754
0.00675823
0.00660935
0.00646059
0.00631461
0.00617431
0.00604362
0.00592849
0.0058373
0.00578381
0.00579483
0.0101065
0.0093438
0.00872505
0.00827375
0.00792983
0.00766091
0.00744143
0.00725282
0.00708528
0.00692832
0.00677345
0.00661947
0.00646756
0.00631919
0.00617628
0.00604211
0.00592186
0.00582317
0.00576306
0.00576223
0.0105158
0.00966427
0.0089
0.00834088
0.00796477
0.00769682
0.00748125
0.00728845
0.00711021
0.00694202
0.00677912
0.00661933
0.00646234
0.0063082
0.00615678
0.00600785
0.00586163
0.0057203
0.00559325
0.00550141
0.010864
0.0101301
0.00903725
0.0083713
0.00796873
0.00769503
0.00748388
0.00729768
0.00712329
0.00695596
0.00679307
0.00663296
0.00647418
0.00631602
0.00615845
0.00600072
0.00583874
0.00566676
0.00546055
0.0051457
0.0180428
0.0109284
0.00863692
0.0080991
0.00782474
0.00760256
0.00741589
0.00724942
0.00708818
0.00692855
0.00677037
0.00661351
0.00645694
0.00629905
0.00613916
0.00597665
0.00581038
0.00563139
0.00539263
0.00492398
0.00576607
0.00509743
0.00465825
0.00452596
0.00441863
0.00429318
0.00416717
0.00404235
0.00391682
0.00379061
0.00366428
0.00353783
0.00341162
0.0032856
0.00315962
0.00303386
0.0029085
0.00278361
0.00265916
0.00253517
0.00241167
0.00228849
0.00216523
0.00204132
0.00191664
0.0017919
0.00166784
0.00154445
0.00142131
0.00129773
0.00117356
0.00104939
0.00092581
0.000802867
0.000679738
0.000555801
0.000431489
0.000307306
0.000183788
6.10234e-05
0.00589215
0.00519994
0.00469996
0.00451112
0.00439263
0.00426989
0.00414642
0.00402526
0.0039035
0.00378037
0.00365637
0.00353174
0.003407
0.00328211
0.003157
0.0030319
0.00290706
0.00278257
0.00265841
0.00253462
0.00241125
0.00228816
0.00216491
0.00204102
0.00191638
0.00179167
0.00166763
0.00154425
0.00142111
0.00129755
0.0011734
0.00104925
0.000925697
0.000802776
0.000679622
0.000555714
0.000431481
0.000307412
0.000183897
6.11155e-05
0.0056414
0.00522741
0.00485452
0.00463308
0.00447072
0.00432011
0.00417899
0.00404683
0.0039185
0.00379099
0.00366403
0.00353732
0.00341108
0.00328496
0.00315905
0.00303343
0.00290822
0.00278347
0.00265909
0.00253511
0.00241157
0.0022883
0.0021649
0.00204083
0.00191613
0.00179155
0.00166761
0.00154426
0.00142107
0.0012974
0.00117322
0.00104918
0.00092569
0.000802675
0.000679525
0.000555662
0.000431452
0.000307485
0.000184075
6.12599e-05
0.00539218
0.00515061
0.00489473
0.0046892
0.00451832
0.00436163
0.00421356
0.00407315
0.00393773
0.00380511
0.00367438
0.00354509
0.00341674
0.00328905
0.00316209
0.0030357
0.00291
0.00278485
0.00266012
0.00253592
0.00241215
0.00228871
0.00216514
0.00204079
0.00191592
0.00179143
0.00166758
0.00154429
0.00142111
0.00129731
0.00117308
0.00104911
0.000925669
0.000802684
0.000679586
0.00055573
0.000431474
0.000307554
0.000184183
6.13092e-05
0.00518916
0.00505226
0.00487945
0.00470406
0.00454132
0.00438795
0.00423937
0.00409521
0.0039554
0.00381911
0.00368552
0.00355393
0.00342348
0.00329397
0.00316568
0.0030385
0.00291218
0.00278653
0.00266141
0.00253688
0.00241291
0.00228929
0.00216555
0.00204097
0.00191595
0.00179147
0.00166766
0.00154437
0.00142116
0.0012973
0.00117302
0.00104909
0.000925662
0.000802631
0.000679553
0.000555749
0.000431517
0.000307614
0.000184236
6.13267e-05
0.00505969
0.00499099
0.00486224
0.00470377
0.00454704
0.00439736
0.00425052
0.00410603
0.00396482
0.00382685
0.0036918
0.00355897
0.00342743
0.00329701
0.00316798
0.00304024
0.00291351
0.00278754
0.00266223
0.00253754
0.00241343
0.00228975
0.00216593
0.00204124
0.00191615
0.00179163
0.00166783
0.00154453
0.00142129
0.00129736
0.00117302
0.00104908
0.000925683
0.000802687
0.000679637
0.000555794
0.000431494
0.000307562
0.000184193
6.13034e-05
0.00503393
0.00497345
0.00485666
0.00470097
0.00454589
0.0043979
0.00425205
0.0041082
0.00396729
0.00382926
0.00369387
0.00356068
0.00342884
0.00329819
0.00316899
0.00304112
0.0029142
0.00278807
0.00266262
0.00253785
0.00241378
0.00229013
0.00216633
0.00204166
0.00191654
0.00179193
0.00166805
0.00154476
0.00142152
0.00129753
0.00117309
0.00104909
0.0009257
0.000802754
0.000679752
0.000555905
0.00043151
0.000307477
0.000184071
6.12381e-05
0.0051243
0.00502947
0.00486242
0.00468749
0.00453223
0.00438622
0.00424192
0.0041
0.00396111
0.00382483
0.00369077
0.00355849
0.00342746
0.00329743
0.0031684
0.00304056
0.00291366
0.00278757
0.00266227
0.00253758
0.00241363
0.00229015
0.0021665
0.00204196
0.00191685
0.00179212
0.00166818
0.00154488
0.00142163
0.00129766
0.00117319
0.00104905
0.000925573
0.000802602
0.000679645
0.00055605
0.000431771
0.000307557
0.00018399
6.11613e-05
0.00538834
0.00511879
0.00483628
0.00464468
0.00449781
0.00435725
0.00421807
0.0040818
0.00394746
0.00381453
0.00368299
0.00355257
0.00342307
0.00329422
0.00316599
0.00303866
0.00291216
0.00278641
0.00266133
0.00253689
0.00241311
0.00228974
0.00216629
0.00204206
0.0019171
0.0017923
0.00166822
0.00154481
0.00142157
0.00129777
0.00117338
0.00104915
0.000925595
0.000802641
0.000679847
0.000556325
0.000431792
0.000307313
0.000183696
6.10047e-05
0.00570091
0.00512786
0.00473286
0.00458247
0.0044616
0.00432749
0.00419396
0.00406324
0.00393324
0.00380359
0.0036744
0.00354579
0.00341781
0.00329016
0.00316291
0.00303627
0.00291029
0.00278493
0.00266015
0.00253594
0.00241231
0.00228907
0.00216576
0.0020418
0.00191706
0.00179227
0.00166812
0.00154464
0.00142141
0.00129776
0.00117351
0.00104926
0.000925624
0.000802595
0.000679754
0.000556396
0.000432055
0.000307466
0.000183682
6.09295e-05
0.00576601
0.00509728
0.004658
0.00452558
0.00441839
0.0042932
0.00416738
0.00404263
0.00391712
0.00379095
0.00366451
0.00353802
0.00341168
0.00328536
0.00315921
0.00303347
0.00290823
0.00278345
0.0026591
0.00253519
0.00241175
0.00228862
0.00216541
0.00204152
0.00191684
0.00179211
0.00166803
0.00154457
0.00142138
0.00129775
0.0011735
0.00104928
0.000925674
0.000802638
0.000679773
0.000556296
0.000431833
0.000307266
0.000183589
6.09153e-05
0.00570103
0.0051281
0.00473324
0.00458297
0.00446197
0.00432758
0.00419383
0.00406298
0.00393291
0.00380317
0.00367405
0.00354537
0.00341741
0.00329004
0.00316299
0.00303636
0.00291033
0.00278492
0.00266008
0.00253582
0.00241216
0.00228891
0.00216558
0.00204164
0.00191695
0.00179219
0.00166811
0.00154472
0.00142153
0.00129792
0.00117375
0.00104957
0.000926026
0.000803172
0.000679947
0.000555765
0.000431326
0.000307113
0.000183587
6.09232e-05
0.00555812
0.00515161
0.0048153
0.00461247
0.00445922
0.0043143
0.00417636
0.00404549
0.00391748
0.00379018
0.00366346
0.00353688
0.00341074
0.00328478
0.00315896
0.00303334
0.00290807
0.00278325
0.00265884
0.0025349
0.00241147
0.00228839
0.00216521
0.00204122
0.00191645
0.00179177
0.00166782
0.00154454
0.00142146
0.00129777
0.00117346
0.0010493
0.000925787
0.000802884
0.000679988
0.000556054
0.000431381
0.0003071
0.000183651
6.09978e-05
0.00539186
0.00513565
0.00489801
0.00469262
0.0045166
0.00435591
0.00420595
0.00406499
0.00392962
0.00379762
0.00366772
0.00353919
0.00341166
0.00328483
0.0031586
0.00303288
0.00290772
0.00278298
0.00265863
0.00253472
0.00241119
0.0022879
0.00216447
0.00204031
0.0019157
0.00179142
0.00166769
0.0015444
0.00142116
0.00129733
0.00117312
0.00104921
0.000925784
0.000802621
0.0006795
0.000555758
0.000431466
0.000307513
0.000184171
6.12827e-05
0.00525692
0.00507583
0.00489094
0.00470451
0.00453368
0.00437556
0.00422494
0.00407977
0.00393997
0.0038047
0.00367251
0.00354263
0.00341415
0.00328659
0.00315983
0.00303392
0.00290856
0.00278362
0.00265909
0.00253493
0.00241111
0.00228743
0.00216362
0.00203943
0.00191518
0.00179128
0.00166767
0.00154421
0.00142073
0.00129689
0.00117298
0.00104936
0.000925983
0.000802679
0.000679283
0.000555472
0.000431527
0.000307881
0.000184561
6.14448e-05
0.0051442
0.00498413
0.00483292
0.00467213
0.00451391
0.0043632
0.00421835
0.00407756
0.00394037
0.00380629
0.0036745
0.00354447
0.00341583
0.00328815
0.00316131
0.00303528
0.00290974
0.00278459
0.00265986
0.00253548
0.00241134
0.00228731
0.00216324
0.00203911
0.00191512
0.00179135
0.00166775
0.00154418
0.00142052
0.00129673
0.001173
0.00104946
0.000926078
0.000802684
0.000679143
0.000555377
0.000431622
0.000308075
0.000184749
6.1537e-05
0.00500092
0.00486266
0.00475895
0.00462635
0.00448312
0.00434273
0.00420558
0.00407032
0.00393676
0.00380495
0.00367441
0.00354502
0.00341669
0.00328916
0.00316226
0.00303605
0.00291045
0.00278526
0.00266043
0.00253596
0.00241174
0.00228763
0.00216348
0.00203932
0.00191529