/*--------------------------------*- C++ -*----------------------------------*\
| =========                 |                                                 |
| \\      /  F ield         | OpenFOAM: The Open Source CFD Toolbox           |
|  \\    /   O peration     | Version:  2212                                  |
|   \\  /    A nd           | Website:  www.openfoam.com                      |
|    \\/     M anipulation  |                                                 |
\*---------------------------------------------------------------------------*/
FoamFile
{
    version     2.0;
    format      ascii;
    arch        "LSB;label=32;scalar=64";
    class       volVectorField;
    location    "0.55";
    object      U;
}
// * * * * * * * * * * * * * * * * * * * * * * * * * * * * * * * * * * * * * //

dimensions      [0 1 -1 0 0 0 0];

internalField   nonuniform List<vector> 
6840
(
(0.0956456 -0.00836004 -0.00836003)
(0.0904939 0.00152197 0.00152205)
(0.0790683 0.00242962 0.00242978)
(0.0713012 0.00148757 0.00148791)
(0.0661795 0.000830197 0.000830847)
(0.0623228 0.00056298 0.000564044)
(0.0592215 0.000424965 0.000427355)
(0.0566865 0.000321553 0.000325718)
(0.0545532 0.000249052 0.00025589)
(0.0527045 0.000195727 0.000206902)
(0.0510714 0.000154824 0.000173397)
(0.0496186 0.000121187 0.000151727)
(0.0483161 8.90674e-05 0.000138253)
(0.0471382 5.52359e-05 0.00013198)
(0.0460803 1.9237e-05 0.000132785)
(0.0451582 -1.0988e-05 0.000143885)
(0.0444083 -8.84808e-05 0.000170042)
(0.0439824 -0.000251894 0.000195304)
(0.0444564 -0.000492954 0.000136318)
(0.043208 -0.00299904 -0.00179522)
(0.0999088 0.00129699 0.000712578)
(0.0969669 0.00365577 0.00274735)
(0.0935345 0.00264007 0.00211834)
(0.0895891 0.00182013 0.00162091)
(0.0858318 0.00152818 0.00139103)
(0.0825897 0.00135024 0.00116186)
(0.0798648 0.00117765 0.000897938)
(0.0775667 0.00103769 0.000693221)
(0.075558 0.000938072 0.00056177)
(0.0737526 0.000857709 0.000481784)
(0.0721038 0.000781024 0.000436419)
(0.0705835 0.000700608 0.000411766)
(0.0691736 0.000619453 0.000399665)
(0.0678613 0.00053667 0.000394963)
(0.0666395 0.000434783 0.000398287)
(0.0655149 0.000284458 0.000407843)
(0.0645087 7.36555e-05 0.000422699)
(0.0637477 -0.00029061 0.00039534)
(0.0634974 -0.00104977 0.000203218)
(0.0623189 -0.00376381 -0.00132853)
(0.099413 0.000345202 0.000270238)
(0.0988664 0.00201889 0.001875)
(0.0979212 0.00257292 0.00218925)
(0.0963655 0.00237943 0.00190876)
(0.0946328 0.00211338 0.00162715)
(0.0929712 0.00192558 0.00141926)
(0.0913627 0.00179949 0.00127183)
(0.089852 0.00170223 0.00116045)
(0.0884523 0.00159962 0.00106974)
(0.0871558 0.00148567 0.000997077)
(0.0859552 0.00136888 0.000946644)
(0.0848357 0.00125444 0.000916577)
(0.0837791 0.00113971 0.000902225)
(0.0827714 0.00101657 0.000899945)
(0.0818033 0.000873954 0.000909146)
(0.0808657 0.000697853 0.000934758)
(0.0799423 0.00045884 0.000982596)
(0.0789997 5.4099e-05 0.00106983)
(0.0779552 -0.000666571 0.00117933)
(0.0765296 -0.00169782 0.00186816)
(0.0995405 0.000245019 0.000321907)
(0.0992576 0.0010555 0.00154099)
(0.0988487 0.00150211 0.00211476)
(0.0981243 0.00157903 0.00209208)
(0.0973359 0.0015142 0.00188677)
(0.0965832 0.00144543 0.00166677)
(0.0958625 0.00140851 0.00149915)
(0.0951932 0.00137634 0.00137278)
(0.0945627 0.0013285 0.00128549)
(0.0939149 0.00125396 0.00122934)
(0.0932822 0.00115899 0.00119108)
(0.0926608 0.00105484 0.00116785)
(0.0920382 0.000949738 0.00115644)
(0.0914008 0.000843893 0.00115725)
(0.0907299 0.000730362 0.00117482)
(0.0899948 0.000600052 0.00122073)
(0.0891376 0.00044232 0.00131913)
(0.0880403 0.000230736 0.00151455)
(0.0865959 -9.33157e-05 0.00180682)
(0.0849826 0.000315659 0.00331544)
(0.0993802 3.37784e-05 5.89743e-05)
(0.0992677 0.000274403 0.00120013)
(0.0989802 0.000432405 0.00188873)
(0.0984741 0.000483507 0.00200684)
(0.0979945 0.000478918 0.00191516)
(0.0975691 0.000465635 0.00173523)
(0.0971782 0.000453014 0.00154782)
(0.0968267 0.000442602 0.00138902)
(0.0965242 0.000436751 0.00126999)
(0.0962662 0.000429646 0.00119825)
(0.0959868 0.000413919 0.00116912)
(0.0956844 0.000392611 0.00116498)
(0.0953543 0.000372358 0.00117245)
(0.0949791 0.000358612 0.00118911)
(0.0945371 0.000357406 0.00122167)
(0.0940022 0.000378302 0.00128247)
(0.0933296 0.000443687 0.00139062)
(0.0924294 0.000543372 0.00158765)
(0.0911623 0.000749832 0.00187271)
(0.0897659 0.00103593 0.00231243)
(0.0993801 -3.37443e-05 5.89242e-05)
(0.0992677 -0.000274232 0.00120009)
(0.0989802 -0.000432034 0.00188871)
(0.0984743 -0.000482861 0.00200678)
(0.097995 -0.000477798 0.001915)
(0.0975701 -0.000463632 0.00173486)
(0.09718 -0.000449408 0.00154728)
(0.0968299 -0.000436356 0.00138809)
(0.0965297 -0.00042609 0.00126825)
(0.0962757 -0.000411697 0.0011951)
(0.0960032 -0.000383956 0.0011637)
(0.0957126 -0.000343068 0.00115577)
(0.0954032 -0.000290607 0.00115663)
(0.0950644 -0.000223428 0.00116149)
(0.0946862 -0.00013536 0.00117345)
(0.0942575 -9.15324e-06 0.00119893)
(0.0937648 0.000184928 0.00124781)
(0.093173 0.000485392 0.00132806)
(0.0924403 0.000959409 0.00144739)
(0.0917893 0.00180344 0.00162361)
(0.0995405 -0.000245005 0.000321907)
(0.0992576 -0.00105543 0.00154099)
(0.098849 -0.00150199 0.00211465)
(0.0981249 -0.00157882 0.00209188)
(0.0973371 -0.00151369 0.00188646)
(0.0965856 -0.00144437 0.00166629)
(0.0958668 -0.00140662 0.00149859)
(0.0952005 -0.00137324 0.00137186)
(0.0945756 -0.0013231 0.00128338)
(0.0939371 -0.00124541 0.00122456)
(0.09332 -0.00114571 0.00118208)
(0.0927252 -0.00103426 0.00115096)
(0.092147 -0.000916571 0.00112798)
(0.0915839 -0.000790218 0.00110907)
(0.0910367 -0.000646185 0.00108898)
(0.0905087 -0.00045269 0.00106208)
(0.0900048 -0.000182668 0.00102596)
(0.0895263 0.000211516 0.000985865)
(0.0890583 0.000795395 0.000955459)
(0.0885189 0.00168293 0.000865402)
(0.099413 -0.000345216 0.000270232)
(0.0988664 -0.00201897 0.00187493)
(0.0979215 -0.00257307 0.00218902)
(0.0963661 -0.00237973 0.00190837)
(0.094634 -0.00211386 0.00162659)
(0.0929735 -0.00192636 0.00141845)
(0.0913667 -0.00180068 0.00127051)
(0.0898591 -0.00170422 0.00115825)
(0.0884644 -0.00160303 0.00106619)
(0.0871761 -0.00149141 0.000991221)
(0.0859893 -0.0013785 0.000937475)
(0.0848933 -0.00127021 0.000900676)
(0.0838753 -0.0011649 0.000874634)
(0.0829312 -0.00105568 0.000852544)
(0.0820671 -0.000933014 0.000826394)
(0.0813096 -0.000781534 0.000782089)
(0.0807022 -0.000577296 0.000705752)
(0.0803131 -0.000233442 0.000528481)
(0.0802603 0.000415827 0.000238)
(0.0796445 0.00196751 -0.0005969)
(0.0999088 -0.001297 0.000712559)
(0.0969669 -0.00365589 0.00274726)
(0.0935346 -0.00264025 0.00211815)
(0.0895893 -0.00182047 0.00162054)
(0.0858323 -0.00152893 0.00139049)
(0.0825905 -0.00135143 0.0011609)
(0.0798662 -0.00117983 0.000896333)
(0.0775693 -0.00104147 0.000690629)
(0.0755628 -0.000944595 0.000557433)
(0.073761 -0.000869009 0.000474466)
(0.0721188 -0.000800616 0.000422561)
(0.0706103 -0.000733326 0.000387961)
(0.0692209 -0.000672309 0.000363195)
(0.0679404 -0.000621863 0.000348294)
(0.0667672 -0.000578564 0.000332747)
(0.0657278 -0.000533322 0.000290856)
(0.0648781 -0.000450721 0.000210132)
(0.0644307 -0.000299155 -2.30206e-05)
(0.0648548 -5.88647e-05 -0.000385491)
(0.0627149 0.000401878 -0.00101347)
(0.0956456 0.00836003 -0.00836004)
(0.0904939 -0.00152204 0.00152197)
(0.0790683 -0.00242978 0.00242963)
(0.0713012 -0.00148789 0.00148758)
(0.0661795 -0.00083083 0.000830218)
(0.0623228 -0.000564021 0.000563006)
(0.0592215 -0.000427318 0.000425011)
(0.0566865 -0.00032567 0.000321611)
(0.0545533 -0.000255836 0.000249117)
(0.0527046 -0.000206842 0.0001958)
(0.0510715 -0.00017333 0.000154906)
(0.0496187 -0.000151652 0.000121278)
(0.0483163 -0.000138169 8.91677e-05)
(0.0471385 -0.000131898 5.53519e-05)
(0.0460806 -0.00013271 1.93326e-05)
(0.0451587 -0.000143793 -1.08789e-05)
(0.0444091 -0.000169912 -8.83824e-05)
(0.0439835 -0.000195167 -0.000251819)
(0.0444579 -0.000136218 -0.000492889)
(0.0432102 0.00179564 -0.00299947)
(0.0999088 0.000712558 0.001297)
(0.0969669 0.00274725 0.0036559)
(0.0935346 0.00211815 0.00264027)
(0.0895893 0.00162054 0.00182049)
(0.0858323 0.00139049 0.00152896)
(0.0825905 0.00116089 0.00135146)
(0.0798662 0.000896318 0.00117987)
(0.0775693 0.000690611 0.00104152)
(0.0755628 0.000557412 0.000944657)
(0.0737609 0.000474441 0.000869085)
(0.0721187 0.000422524 0.000800707)
(0.0706102 0.000387917 0.000733436)
(0.0692206 0.000363139 0.000672438)
(0.0679401 0.000348233 0.00062202)
(0.0667668 0.000332658 0.000578766)
(0.0657271 0.000290777 0.000533604)
(0.0648772 0.000210057 0.000451108)
(0.0644294 -2.30781e-05 0.000299601)
(0.0648528 -0.000385635 5.94947e-05)
(0.0627126 -0.0010131 -0.000400822)
(0.100226 0.000720794 0.000720823)
(0.09996 0.00198271 0.00198284)
(0.0997823 0.00245182 0.00245215)
(0.0987882 0.00241947 0.00242005)
(0.0972757 0.00220053 0.00220143)
(0.095775 0.00181086 0.00181247)
(0.0943936 0.00138114 0.00138379)
(0.0931657 0.00106781 0.00107227)
(0.0920806 0.000849884 0.000857549)
(0.0911208 0.000694751 0.00070794)
(0.0902729 0.000578002 0.000601586)
(0.0895164 0.000485465 0.000524284)
(0.0888333 0.000411041 0.000471538)
(0.0882244 0.000346563 0.0004365)
(0.0876969 0.000273967 0.000414272)
(0.0872571 0.000173342 0.000404501)
(0.0869079 3.18024e-05 0.000405729)
(0.0866296 -0.00025066 0.000348089)
(0.0863004 -0.000838313 6.3341e-05)
(0.0861971 -0.00217595 -0.00089253)
(0.10014 0.000774987 0.000869299)
(0.100454 0.00196234 0.0019638)
(0.100911 0.00242742 0.00233501)
(0.100978 0.00252631 0.00244203)
(0.100694 0.0024257 0.00233782)
(0.100224 0.00219625 0.00211374)
(0.0997083 0.00191443 0.00182484)
(0.0991829 0.00166209 0.00157779)
(0.098688 0.00145668 0.00139294)
(0.09824 0.00128583 0.00125454)
(0.0978461 0.00114166 0.00115339)
(0.0975022 0.00101648 0.00108292)
(0.0972045 0.000902229 0.00103573)
(0.0969506 0.000787581 0.00100625)
(0.096737 0.00066153 0.000994918)
(0.0965609 0.000510154 0.00100492)
(0.0964218 0.000311971 0.00103951)
(0.0963081 3.195e-05 0.00109781)
(0.0962092 -0.000362115 0.00116904)
(0.0963248 -0.000843226 0.0012455)
(0.100093 0.000445904 0.000763248)
(0.100504 0.00119441 0.00174918)
(0.101105 0.00158668 0.00212992)
(0.101634 0.00174028 0.00223557)
(0.101979 0.00178198 0.00228849)
(0.10217 0.00172832 0.00223752)
(0.102251 0.00160669 0.00211764)
(0.102274 0.00145787 0.00196642)
(0.102275 0.00130144 0.00180398)
(0.102265 0.0011514 0.00165497)
(0.102254 0.00102032 0.00154697)
(0.102245 0.000906587 0.00147237)
(0.102236 0.000800935 0.00142351)
(0.102226 0.000698459 0.00139851)
(0.102209 0.000592731 0.00140069)
(0.102175 0.000474099 0.00143966)
(0.102113 0.000333925 0.0015336)
(0.102005 0.000155362 0.00170752)
(0.10186 -6.63327e-05 0.00197552)
(0.102029 -0.000216966 0.00234263)
(0.100087 0.000144405 0.000707071)
(0.100477 0.000390551 0.00161797)
(0.101065 0.000541205 0.00203495)
(0.101694 0.000610342 0.00211814)
(0.102268 0.000636393 0.00215132)
(0.102741 0.000627451 0.0021813)
(0.103122 0.000595636 0.00213528)
(0.103425 0.000550564 0.00204496)
(0.103675 0.000506015 0.00193476)
(0.10389 0.000465151 0.00182759)
(0.104082 0.000425092 0.00172783)
(0.104262 0.000387528 0.0016407)
(0.104429 0.000355943 0.00158184)
(0.104573 0.000331428 0.00155635)
(0.104687 0.000314774 0.0015624)
(0.104766 0.0003102 0.00159934)
(0.104802 0.000321855 0.00169111)
(0.104783 0.000354732 0.00186151)
(0.104719 0.000420517 0.00211622)
(0.10496 0.000543412 0.0024033)
(0.100087 -0.000144347 0.000707066)
(0.100477 -0.000390376 0.00161796)
(0.101066 -0.000540904 0.00203496)
(0.101694 -0.000609808 0.00211807)
(0.102269 -0.000635386 0.00215102)
(0.102742 -0.000625648 0.00218071)
(0.103124 -0.00059264 0.00213431)
(0.103427 -0.000545613 0.00204345)
(0.103679 -0.000497559 0.0019325)
(0.103897 -0.000450517 0.00182397)
(0.104094 -0.00040036 0.00172212)
(0.104281 -0.000346679 0.00163069)
(0.104461 -0.000290951 0.00156356)
(0.104627 -0.000228739 0.00152392)
(0.104778 -0.00015133 0.00150767)
(0.10491 -4.99935e-05 0.00150977)
(0.105021 8.50808e-05 0.00153793)
(0.105105 0.000271272 0.00160212)
(0.105176 0.000524064 0.00170023)
(0.105438 0.000833487 0.00180298)
(0.100093 -0.000445898 0.000763237)
(0.100504 -0.0011944 0.00174914)
(0.101105 -0.00158664 0.00212978)
(0.101635 -0.00174017 0.00223505)
(0.10198 -0.00178176 0.00228745)
(0.102172 -0.00172798 0.002236)
(0.102254 -0.00160603 0.00211539)
(0.10228 -0.00145674 0.00196298)
(0.102285 -0.00129973 0.00179882)
(0.102281 -0.0011481 0.0016467)
(0.10228 -0.00101476 0.0015325)
(0.102289 -0.000897438 0.00144763)
(0.102309 -0.000789156 0.00138162)
(0.102343 -0.00068153 0.00132783)
(0.102392 -0.000563834 0.00128132)
(0.10246 -0.000425709 0.00123729)
(0.102547 -0.00025277 0.00119071)
(0.102646 -2.53857e-05 0.00113658)
(0.102764 0.00026917 0.00107552)
(0.102974 0.000614858 0.00100653)
(0.10014 -0.000775019 0.000869258)
(0.100454 -0.00196243 0.0019636)
(0.100911 -0.0024276 0.00233456)
(0.100978 -0.00252671 0.00244127)
(0.100694 -0.00242639 0.00233671)
(0.100225 -0.00219746 0.00211226)
(0.0997107 -0.00191636 0.00182253)
(0.099187 -0.00166501 0.0015737)
(0.0986951 -0.00146176 0.00138595)
(0.0982524 -0.00129472 0.00124291)
(0.0978671 -0.00115594 0.00113388)
(0.0975372 -0.0010401 0.00105064)
(0.0972606 -0.000941041 0.000982449)
(0.0970375 -0.000852825 0.000919478)
(0.0968703 -0.000767675 0.000854104)
(0.0967627 -0.000673465 0.000773235)
(0.0967173 -0.000553452 0.000653597)
(0.0967155 -0.000377876 0.000454419)
(0.0967172 -0.000105945 0.000142862)
(0.0968159 0.000353345 -0.000347994)
(0.100226 -0.000720823 0.000720795)
(0.09996 -0.00198284 0.00198271)
(0.0997823 -0.00245214 0.00245182)
(0.0987882 -0.00242004 0.00241948)
(0.0972757 -0.00220142 0.00220054)
(0.0957751 -0.00181246 0.00181088)
(0.0943937 -0.00138377 0.00138117)
(0.0931658 -0.00107225 0.00106783)
(0.0920806 -0.000857517 0.000849915)
(0.0911209 -0.000707899 0.000694785)
(0.090273 -0.000601526 0.000578039)
(0.0895166 -0.000524194 0.000485488)
(0.0888335 -0.000471402 0.000411042)
(0.0882248 -0.00043636 0.000346572)
(0.0876975 -0.000414162 0.000274035)
(0.0872578 -0.000404372 0.00017342)
(0.0869089 -0.00040555 3.18429e-05)
(0.086631 -0.000347814 -0.000250705)
(0.0863025 -6.2953e-05 -0.000838438)
(0.0862007 0.000893897 -0.00217729)
(0.0999088 -0.000712577 0.00129699)
(0.0969669 -0.00274734 0.00365578)
(0.0935345 -0.00211834 0.00264008)
(0.0895891 -0.00162091 0.00182014)
(0.0858319 -0.00139102 0.0015282)
(0.0825897 -0.00116186 0.00135026)
(0.0798648 -0.000897933 0.00117767)
(0.0775667 -0.000693217 0.00103772)
(0.075558 -0.000561766 0.00093811)
(0.0737527 -0.000481781 0.000857757)
(0.0721039 -0.000436411 0.00078108)
(0.0705836 -0.000411749 0.000700664)
(0.0691739 -0.000399635 0.00061951)
(0.0678617 -0.000394931 0.000536721)
(0.06664 -0.000398264 0.000434844)
(0.0655156 -0.000407808 0.000284487)
(0.0645096 -0.000422666 7.36332e-05)
(0.0637491 -0.000395315 -0.00029072)
(0.0634992 -0.000203204 -0.00105)
(0.0623217 0.0013287 -0.00376448)
(0.099413 0.000270231 0.000345218)
(0.0988664 0.00187492 0.00201897)
(0.0979215 0.00218902 0.00257309)
(0.0963661 0.00190836 0.00237975)
(0.094634 0.00162658 0.00211388)
(0.0929735 0.00141844 0.0019264)
(0.0913667 0.0012705 0.00180072)
(0.089859 0.00115823 0.00170427)
(0.0884644 0.00106617 0.00160309)
(0.0871761 0.000991193 0.00149149)
(0.0859892 0.000937443 0.00137859)
(0.0848931 0.000900638 0.00127033)
(0.0838751 0.000874588 0.00116505)
(0.082931 0.0008525 0.00105588)
(0.0820667 0.000826383 0.000933314)
(0.081309 0.00078212 0.000781959)
(0.0807013 0.000705809 0.000577841)
(0.0803119 0.000528591 0.000234304)
(0.0802586 0.000238135 -0.00041469)
(0.0796423 -0.000596737 -0.00196637)
(0.10014 0.000869257 0.000775021)
(0.100454 0.0019636 0.00196244)
(0.100911 0.00233456 0.00242761)
(0.100978 0.00244127 0.00252672)
(0.100694 0.0023367 0.00242641)
(0.100225 0.00211225 0.00219748)
(0.0997107 0.00182251 0.00191639)
(0.099187 0.00157368 0.00166505)
(0.098695 0.00138593 0.00146181)
(0.0982524 0.00124289 0.00129479)
(0.097867 0.00113387 0.00115602)
(0.0975371 0.00105064 0.00104021)
(0.0972604 0.00098247 0.000941208)
(0.0970372 0.00091948 0.00085302)
(0.0968699 0.000854081 0.000767899)
(0.0967622 0.000773249 0.000673781)
(0.0967166 0.000653695 0.000553915)
(0.0967146 0.000454621 0.000378544)
(0.0967159 0.000143143 0.000106845)
(0.0968143 -0.000347676 -0.000352288)
(0.10006 0.000641396 0.000641454)
(0.100502 0.00164505 0.00164524)
(0.101149 0.00221239 0.00221277)
(0.101738 0.00243991 0.00244056)
(0.102205 0.0024417 0.00244275)
(0.102502 0.00231294 0.00231458)
(0.102647 0.00209122 0.00209394)
(0.102716 0.00186638 0.00187071)
(0.102743 0.0016661 0.00167318)
(0.102759 0.00149593 0.0015075)
(0.10278 0.00135136 0.00137014)
(0.102817 0.00122661 0.00125686)
(0.102874 0.00111544 0.00116389)
(0.102955 0.00101029 0.00108749)
(0.103059 0.000902336 0.00102406)
(0.103188 0.000780964 0.00097001)
(0.103337 0.000633433 0.000920603)
(0.103492 0.000442052 0.000864465)
(0.103645 0.000200714 0.000787245)
(0.103924 -2.24769e-05 0.000731992)
(0.100046 0.000395714 0.000540325)
(0.10048 0.00104486 0.00138434)
(0.101154 0.00147534 0.0019234)
(0.101913 0.00170518 0.00219321)
(0.102632 0.00177986 0.00229495)
(0.103301 0.00174431 0.00227927)
(0.103894 0.00163315 0.00218667)
(0.10439 0.00148959 0.00205347)
(0.104816 0.00134176 0.00190567)
(0.105192 0.00120436 0.00176589)
(0.105532 0.00108132 0.0016433)
(0.105848 0.000972182 0.00153985)
(0.106148 0.000872646 0.0014567)
(0.106438 0.000778027 0.00139404)
(0.106719 0.000684276 0.00135266)
(0.106992 0.000587801 0.00133498)
(0.107259 0.00048282 0.00134582)
(0.10752 0.000363911 0.00138903)
(0.107794 0.000235796 0.00146053)
(0.108196 0.000126579 0.00155263)
(0.100039 0.000131353 0.000478847)
(0.100448 0.000350549 0.00123501)
(0.101114 0.000505169 0.00174686)
(0.101909 0.000597323 0.00202735)
(0.102729 0.000638791 0.00215276)
(0.103529 0.000638538 0.00218709)
(0.104298 0.000605006 0.00215362)
(0.105007 0.00056002 0.0020792)
(0.105641 0.000511368 0.00197965)
(0.106212 0.000464057 0.00187093)
(0.106731 0.000420903 0.00176466)
(0.107205 0.00038284 0.00166886)
(0.107645 0.000349557 0.00158999)
(0.108057 0.000320479 0.00153238)
(0.108449 0.000295126 0.00149849)
(0.108821 0.000274853 0.00149001)
(0.109171 0.000260975 0.00151166)
(0.109512 0.000253496 0.00156918)
(0.109868 0.000253231 0.00165446)
(0.110331 0.000261861 0.00174021)
(0.100039 -0.000131312 0.000478828)
(0.100448 -0.000350442 0.00123495)
(0.101114 -0.000504978 0.00174674)
(0.101909 -0.000597005 0.00202713)
(0.102729 -0.000638243 0.00215233)
(0.10353 -0.000637634 0.00218638)
(0.104299 -0.000603457 0.00215254)
(0.105009 -0.000557552 0.00207755)
(0.105644 -0.000507287 0.00197708)
(0.106217 -0.000457212 0.00186677)
(0.106738 -0.000409619 0.0017577)
(0.107218 -0.00036458 0.00165741)
(0.107663 -0.000320943 0.00157065)
(0.108084 -0.000276356 0.00149998)
(0.108488 -0.000227168 0.00144562)
(0.108877 -0.00017165 0.00140891)
(0.109251 -0.000106229 0.00138768)
(0.109614 -2.5549e-05 0.00138121)
(0.109985 7.13431e-05 0.00138428)
(0.110433 0.000178902 0.00138831)
(0.100046 -0.00039573 0.000540273)
(0.10048 -0.00104491 0.00138418)
(0.101154 -0.00147543 0.00192308)
(0.101913 -0.0017053 0.00219263)
(0.102632 -0.0017801 0.00229394)
(0.103303 -0.0017447 0.00227759)
(0.103896 -0.00163391 0.00218411)
(0.104393 -0.00149086 0.00204937)
(0.104821 -0.00134377 0.00189928)
(0.1052 -0.0012073 0.00175581)
(0.105544 -0.00108569 0.00162683)
(0.105867 -0.00097895 0.00151312)
(0.106179 -0.000883995 0.00141283)
(0.106485 -0.000796649 0.00132286)
(0.10679 -0.000712462 0.00123918)
(0.107098 -0.000628533 0.00115636)
(0.107411 -0.000539588 0.00106947)
(0.107729 -0.000439244 0.000973932)
(0.108062 -0.000323702 0.000869298)
(0.108469 -0.000196401 0.000774461)
(0.10006 -0.000641452 0.000641396)
(0.100502 -0.00164523 0.00164505)
(0.101149 -0.00221276 0.00221239)
(0.101738 -0.00244055 0.00243992)
(0.102205 -0.00244274 0.00244171)
(0.102502 -0.00231457 0.00231294)
(0.102647 -0.00209393 0.00209122)
(0.102716 -0.00187069 0.00186637)
(0.102743 -0.00167315 0.00166609)
(0.102759 -0.00150745 0.00149591)
(0.10278 -0.00137008 0.00135133)
(0.102817 -0.00125676 0.00122655)
(0.102874 -0.00116374 0.00111534)
(0.102955 -0.00108734 0.00101019)
(0.10306 -0.00102388 0.000902218)
(0.103188 -0.00096976 0.000780769)
(0.103337 -0.000920238 0.000633117)
(0.103493 -0.000863947 0.000441569)
(0.103646 -0.000786586 0.000200062)
(0.103924 -0.00073131 -2.32018e-05)
(0.10014 -0.000869298 0.000774988)
(0.100454 -0.00196379 0.00196234)
(0.100911 -0.00233501 0.00242742)
(0.100978 -0.00244202 0.00252631)
(0.100694 -0.00233781 0.00242571)
(0.100224 -0.00211373 0.00219625)
(0.0997083 -0.00182483 0.00191444)
(0.0991829 -0.00157778 0.00166209)
(0.098688 -0.00139292 0.00145668)
(0.0982401 -0.00125452 0.00128583)
(0.0978462 -0.00115336 0.00114165)
(0.0975023 -0.00108286 0.00101644)
(0.0972047 -0.00103564 0.000902149)
(0.0969509 -0.00100616 0.000787492)
(0.0967374 -0.00099485 0.000661434)
(0.0965614 -0.00100481 0.00050999)
(0.0964225 -0.00103932 0.000311688)
(0.096309 -0.00109753 3.14805e-05)
(0.0962105 -0.00116871 -0.000362821)
(0.0963265 -0.00124508 -0.000844254)
(0.099413 -0.000270237 0.000345203)
(0.0988664 -0.001875 0.00201889)
(0.0979212 -0.00218925 0.00257292)
(0.0963655 -0.00190875 0.00237943)
(0.0946328 -0.00162715 0.00211339)
(0.0929713 -0.00141925 0.00192559)
(0.0913627 -0.00127183 0.0017995)
(0.0898521 -0.00116044 0.00170224)
(0.0884523 -0.00106973 0.00159963)
(0.0871559 -0.000997068 0.00148568)
(0.0859553 -0.000946635 0.00136888)
(0.0848359 -0.000916565 0.00125444)
(0.0837793 -0.00090221 0.00113971)
(0.0827717 -0.000899917 0.00101653)
(0.0818037 -0.000909093 0.000873858)
(0.0808664 -0.000934672 0.000697675)
(0.0799431 -0.000982484 0.000458506)
(0.0790009 -0.00106969 5.35772e-05)
(0.0779568 -0.00117918 -0.000667354)
(0.0765316 -0.0018679 -0.00169896)
(0.0995405 0.000321907 0.000245007)
(0.0992576 0.00154099 0.00105544)
(0.098849 0.00211465 0.001502)
(0.0981249 0.00209188 0.00157884)
(0.0973371 0.00188646 0.00151372)
(0.0965856 0.00166628 0.00144441)
(0.0958668 0.00149858 0.00140667)
(0.0952005 0.00137185 0.0013733)
(0.0945756 0.00128338 0.00132318)
(0.0939371 0.00122456 0.00124551)
(0.09332 0.00118208 0.00114584)
(0.0927251 0.00115096 0.00103443)
(0.0921468 0.00112799 0.000916796)
(0.0915837 0.00110911 0.000790524)
(0.0910364 0.00108905 0.000646619)
(0.0905084 0.00106218 0.000453254)
(0.0900043 0.0010261 0.000183384)
(0.0895256 0.000986024 -0.000210617)
(0.0890573 0.00095565 -0.000794246)
(0.0885176 0.000865588 -0.00168142)
(0.100093 0.000763236 0.0004459)
(0.100504 0.00174914 0.00119441)
(0.101105 0.00212978 0.00158665)
(0.101635 0.00223505 0.00174019)
(0.10198 0.00228745 0.00178178)
(0.102172 0.002236 0.00172801)
(0.102254 0.00211539 0.00160607)
(0.10228 0.00196298 0.00145679)
(0.102284 0.00179882 0.00129979)
(0.102281 0.00164671 0.00114819)
(0.102279 0.00153252 0.00101487)
(0.102288 0.00144766 0.000897598)
(0.102309 0.00138167 0.000789373)
(0.102343 0.00132789 0.000681806)
(0.102392 0.00128139 0.000564181)
(0.10246 0.00123741 0.000426163)
(0.102546 0.00119089 0.00025337)
(0.102646 0.00113683 2.6182e-05)
(0.102764 0.00107585 -0.000268126)
(0.102973 0.00100689 -0.000613544)
(0.100046 0.000540273 0.000395733)
(0.10048 0.00138418 0.00104491)
(0.101154 0.00192308 0.00147544)
(0.101913 0.00219263 0.00170531)
(0.102632 0.00229394 0.00178011)
(0.103303 0.0022776 0.00174472)
(0.103896 0.00218412 0.00163394)
(0.104393 0.00204938 0.00149089)
(0.104821 0.00189929 0.00134382)
(0.1052 0.00175584 0.00120736)
(0.105544 0.00162687 0.00108578)
(0.105867 0.00151318 0.000979082)
(0.106178 0.00141293 0.000884171)
(0.106484 0.00132297 0.000796853)
(0.10679 0.00123932 0.000712702)
(0.107098 0.00115656 0.000628844)
(0.107411 0.00106975 0.000539999)
(0.107729 0.000974326 0.000439775)
(0.108062 0.000869798 0.000324326)
(0.108469 0.000775006 0.000196999)
(0.100036 0.000323148 0.000323189)
(0.100429 0.000868683 0.000868803)
(0.10108 0.00126238 0.0012626)
(0.101891 0.00150425 0.00150464)
(0.102756 0.00162121 0.00162184)
(0.103616 0.00164196 0.00164295)
(0.104446 0.00160314 0.00160466)
(0.105224 0.00152358 0.00152594)
(0.105938 0.00142204 0.0014257)
(0.106592 0.00131395 0.00131968)
(0.107193 0.00120917 0.00121824)
(0.107751 0.00111203 0.00112635)
(0.108275 0.00102318 0.00104577)
(0.10877 0.000941365 0.000976726)
(0.109243 0.000864412 0.000919013)
(0.1097 0.000789805 0.000872278)
(0.110145 0.000714815 0.000835907)
(0.110584 0.000637139 0.000807871)
(0.111033 0.000558006 0.000782604)
(0.111545 0.000492293 0.000751314)
(0.100031 0.000107086 0.000281424)
(0.100395 0.000293066 0.000768745)
(0.101024 0.0004341 0.00113324)
(0.101844 0.00052623 0.0013694)
(0.102751 0.000576293 0.0015016)
(0.103689 0.000591564 0.00155423)
(0.104617 0.000581958 0.00154889)
(0.105515 0.000557022 0.00150737)
(0.106365 0.000522874 0.00144279)
(0.107159 0.000484906 0.00136525)
(0.107898 0.000447224 0.00128329)
(0.108584 0.00041198 0.00120364)
(0.109223 0.00037982 0.00113108)
(0.109822 0.000350502 0.00106871)
(0.11039 0.000323263 0.00101923)
(0.110931 0.000297434 0.000985231)
(0.111452 0.000273003 0.00096667)
(0.111959 0.000249641 0.000960113)
(0.112472 0.000227164 0.000958444)
(0.113035 0.000210567 0.000949887)
(0.100031 -0.000107082 0.000281404)
(0.100395 -0.000293062 0.000768685)
(0.101024 -0.000434103 0.00113312)
(0.101844 -0.000526238 0.00136918)
(0.102752 -0.000576316 0.00150121)
(0.103689 -0.000591622 0.00155365)
(0.104618 -0.000582061 0.00154808)
(0.105516 -0.000557098 0.00150617)
(0.106366 -0.000522829 0.00144093)
(0.107161 -0.000484643 0.00136231)
(0.1079 -0.000446689 0.00127862)
(0.108587 -0.00041115 0.00119636)
(0.109228 -0.000378894 0.0011198)
(0.109829 -0.000349898 0.00105122)
(0.110398 -0.000323341 0.00099204)
(0.110942 -0.000297047 0.000943786)
(0.111465 -0.000269926 0.000905707)
(0.111972 -0.000241564 0.000874778)
(0.112481 -0.000210756 0.000847469)
(0.113035 -0.000176428 0.000820624)
(0.100036 -0.000323186 0.000323148)
(0.100429 -0.000868798 0.000868682)
(0.10108 -0.0012626 0.00126237)
(0.101891 -0.00150463 0.00150425)
(0.102756 -0.00162183 0.00162121)
(0.103616 -0.00164294 0.00164195)
(0.104446 -0.00160464 0.00160314)
(0.105224 -0.00152591 0.00152357)
(0.105938 -0.00142566 0.00142202)
(0.106592 -0.00131963 0.00131392)
(0.107193 -0.00121816 0.00120912)
(0.107751 -0.00112625 0.00111196)
(0.108275 -0.00104563 0.00102309)
(0.10877 -0.000976579 0.00094125)
(0.109243 -0.000918853 0.000864271)
(0.1097 -0.000872085 0.000789612)
(0.110145 -0.00083567 0.000714555)
(0.110583 -0.000807595 0.000636805)
(0.111033 -0.000782342 0.00055763)
(0.111545 -0.000751184 0.000491966)
(0.100046 -0.000540323 0.000395714)
(0.10048 -0.00138434 0.00104486)
(0.101154 -0.00192339 0.00147534)
(0.101913 -0.00219321 0.00170518)
(0.102632 -0.00229494 0.00177986)
(0.103301 -0.00227926 0.00174431)
(0.103894 -0.00218666 0.00163314)
(0.10439 -0.00205345 0.00148958)
(0.104816 -0.00190564 0.00134174)
(0.105192 -0.00176586 0.00120433)
(0.105532 -0.00164324 0.00108127)
(0.105848 -0.00153976 0.000972106)
(0.106149 -0.00145659 0.000872538)
(0.106438 -0.00139392 0.000777896)
(0.106719 -0.00135253 0.000684113)
(0.106993 -0.0013348 0.000587564)
(0.107259 -0.00134556 0.000482472)
(0.10752 -0.00138866 0.000363422)
(0.107794 -0.0014601 0.000235179)
(0.108196 -0.00155223 0.000125937)
(0.100093 -0.000763247 0.000445905)
(0.100504 -0.00174918 0.00119441)
(0.101105 -0.00212992 0.00158668)
(0.101634 -0.00223556 0.00174028)
(0.101979 -0.00228848 0.00178198)
(0.102171 -0.00223751 0.00172832)
(0.102251 -0.00211764 0.00160668)
(0.102274 -0.00196641 0.00145786)
(0.102275 -0.00180397 0.00130142)
(0.102265 -0.00165495 0.00115138)
(0.102254 -0.00154695 0.00102028)
(0.102245 -0.00147233 0.000906523)
(0.102236 -0.00142344 0.00080083)
(0.102226 -0.00139844 0.000698327)
(0.102209 -0.00140063 0.000592563)
(0.102175 -0.00143956 0.00047385)
(0.102113 -0.00153343 0.000333547)
(0.102006 -0.00170727 0.000154794)
(0.10186 -0.00197517 -6.71308e-05)
(0.10203 -0.00234223 -0.000217954)
(0.0995405 -0.000321906 0.000245019)
(0.0992576 -0.00154099 0.0010555)
(0.0988488 -0.00211475 0.00150211)
(0.0981243 -0.00209207 0.00157903)
(0.0973359 -0.00188677 0.0015142)
(0.0965832 -0.00166676 0.00144543)
(0.0958626 -0.00149914 0.00140851)
(0.0951933 -0.00137277 0.00137633)
(0.0945628 -0.00128548 0.00132849)
(0.093915 -0.00122934 0.00125394)
(0.0932823 -0.00119107 0.00115896)
(0.092661 -0.00116784 0.0010548)
(0.0920384 -0.00115643 0.000949674)
(0.091401 -0.00115721 0.000843781)
(0.0907302 -0.00117475 0.000730177)
(0.0899952 -0.00122062 0.000599774)
(0.0891382 -0.00131901 0.000441958)
(0.088041 -0.0015144 0.000230157)
(0.0865968 -0.00180664 -9.41461e-05)
(0.0849838 -0.00331531 0.000314614)
(0.0993801 5.89242e-05 3.37459e-05)
(0.0992677 0.00120009 0.00027424)
(0.0989802 0.00188871 0.000432049)
(0.0984743 0.00200678 0.00048288)
(0.097995 0.00191499 0.000477824)
(0.0975701 0.00173486 0.000463667)
(0.09718 0.00154728 0.000449453)
(0.0968299 0.0013881 0.000436415)
(0.0965297 0.00126825 0.000426165)
(0.0962757 0.00119512 0.000411794)
(0.0960032 0.00116372 0.00038408)
(0.0957126 0.0011558 0.000343229)
(0.0954032 0.00115666 0.000290817)
(0.0950644 0.00116154 0.00022371)
(0.0946861 0.00117351 0.00013573)
(0.0942574 0.00119901 9.64819e-06)
(0.0937647 0.0012479 -0.00018429)
(0.0931728 0.00132816 -0.000484585)
(0.0924401 0.00144751 -0.000958379)
(0.091789 0.00162373 -0.00180205)
(0.100087 0.000707065 0.000144349)
(0.100477 0.00161796 0.000390384)
(0.101066 0.00203495 0.000540916)
(0.101694 0.00211807 0.000609824)
(0.102269 0.00215102 0.000635409)
(0.102742 0.00218071 0.000625681)
(0.103124 0.00213432 0.000592683)
(0.103427 0.00204346 0.000545671)
(0.103679 0.00193251 0.000497635)
(0.103897 0.00182399 0.000450617)
(0.104094 0.00172214 0.000400492)
(0.104281 0.00163073 0.000346854)
(0.104461 0.00156362 0.000291186)
(0.104627 0.00152401 0.000229047)
(0.104777 0.00150777 0.000151725)
(0.10491 0.00150987 5.04945e-05)
(0.10502 0.00153805 -8.44474e-05)
(0.105105 0.00160226 -0.000270471)
(0.105176 0.00170039 -0.000523061)
(0.105438 0.00180316 -0.000832289)