/*--------------------------------*- C++ -*----------------------------------*\
| =========                 |                                                 |
| \\      /  F ield         | OpenFOAM: The Open Source CFD Toolbox           |
|  \\    /   O peration     | Version:  2212                                  |
|   \\  /    A nd           | Website:  www.openfoam.com                      |
|    \\/     M anipulation  |                                                 |
\*---------------------------------------------------------------------------*/
FoamFile
{
    version     2.0;
    format      ascii;
    arch        "LSB;label=32;scalar=64";
    class       volScalarField;
    location    "1.8";
    object      nut;
}
// * * * * * * * * * * * * * * * * * * * * * * * * * * * * * * * * * * * * * //

dimensions      [0 2 -1 0 0 0 0];

internalField   nonuniform List<scalar> 
680
(
6.52831e-06
6.3269e-06
6.1515e-06
5.99989e-06
5.89057e-06
5.75669e-06
1.54463e-05
1.47158e-05
1.40764e-05
1.35111e-05
1.30194e-05
1.26158e-05
2.39033e-05
2.27209e-05
2.16739e-05
2.07427e-05
1.99186e-05
1.92221e-05
3.0812e-05
2.92319e-05
2.78273e-05
2.65727e-05
2.54584e-05
2.46162e-05
3.46397e-05
3.28518e-05
3.12612e-05
2.98407e-05
2.85809e-05
2.76054e-05
3.46452e-05
3.28604e-05
3.12741e-05
2.98591e-05
2.86021e-05
2.75903e-05
3.26067e-05
3.08243e-05
2.92514e-05
2.78575e-05
2.66181e-05
2.55143e-05
2.45478e-05
2.52502e-05
2.39151e-05
2.27402e-05
2.17056e-05
2.0795e-05
1.99969e-05
1.93014e-05
1.62945e-05
1.54517e-05
1.47256e-05
1.40953e-05
1.35498e-05
1.31029e-05
1.27701e-05
6.76017e-06
6.52834e-06
6.32692e-06
6.15152e-06
5.99992e-06
5.89064e-06
5.75686e-06
1.54517e-05
1.47256e-05
1.40953e-05
1.35498e-05
1.31029e-05
1.277e-05
8.64524e-05
7.96527e-05
7.34504e-05
6.77807e-05
6.36842e-05
5.71398e-05
0.000128824
0.00012056
0.000113083
0.000106196
0.000100226
9.37443e-05
0.000154977
0.000145487
0.000136832
0.000128888
0.00012157
0.000114938
0.000167595
0.000157554
0.000148401
0.000140017
0.000132294
0.000125184
0.000167664
0.000157653
0.000148544
0.000140219
0.000132573
0.000125609
0.000165539
0.000155121
0.000145697
0.000137142
0.000129342
0.000122229
0.000116217
0.000138156
0.000128936
0.000120725
0.00011333
0.000106571
0.000100832
9.50773e-05
9.38553e-05
8.64551e-05
7.96537e-05
7.34505e-05
6.77804e-05
6.36834e-05
5.71381e-05
1.62912e-05
1.54462e-05
1.47158e-05
1.40765e-05
1.35113e-05
1.30198e-05
1.26167e-05
2.3915e-05
2.27401e-05
2.17057e-05
2.07951e-05
1.99968e-05
1.92994e-05
0.000128937
0.000120726
0.000113334
0.000106578
0.000100831
9.5078e-05
0.00019986
0.000188394
0.000177932
0.000168326
0.000159469
0.000150303
0.000239362
0.000226262
0.000214283
0.000203249
0.000192899
0.000182219
0.000257855
0.000243977
0.000231285
0.000219596
0.000208636
0.000197675
0.0002579
0.00024404
0.000231376
0.000219727
0.000208853
0.000198223
0.00025382
0.000239439
0.000226371
0.000214441
0.000203482
0.000193289
0.000183269
0.000212493
0.000199862
0.000188394
0.00017793
0.000168323
0.000159464
0.000150303
0.000138082
0.000128828
0.000120562
0.000113085
0.000106199
0.000100231
9.37541e-05
2.5243e-05
2.39032e-05
2.27208e-05
2.16739e-05
2.07428e-05
1.99187e-05
1.92227e-05
3.08242e-05
2.92513e-05
2.78575e-05
2.66182e-05
2.55147e-05
2.45483e-05
0.000155125
0.0001457
0.000137145
0.000129348
0.000122237
0.000116217
0.00023944
0.000226373
0.000214444
0.000203488
0.000193297
0.000183273
0.000287011
0.000271917
0.000258105
0.000245359
0.000233333
0.000221184
0.000309314
0.000293251
0.000278532
0.000264914
0.000251976
0.000238713
0.000309326
0.000293267
0.000278555
0.000264947
0.000252033
0.000238867
0.000303593
0.000287012
0.000271916
0.000258104
0.000245356
0.000233327
0.000221185
0.000253767
0.000239364
0.000226262
0.000214283
0.000203249
0.000192901
0.000182243
0.000165439
0.000154978
0.000145487
0.000136833
0.00012889
0.000121576
0.000114952
3.25988e-05
3.08117e-05
2.92317e-05
2.78271e-05
2.65726e-05
2.54583e-05
2.46157e-05
3.46452e-05
3.28604e-05
3.12742e-05
2.98592e-05
2.86024e-05
2.75908e-05
0.000167665
0.000157654
0.000148545
0.000140222
0.000132576
0.000125614
0.000257901
0.000244042
0.000231378
0.00021973
0.000208856
0.000198231
0.000309327
0.000293268
0.000278556
0.000264949
0.000252037
0.000238871
0.000333574
0.000316458
0.000300739
0.000286135
0.000272095
0.000257239
0.000333574
0.000316458
0.000300739
0.000286135
0.000272094
0.000257242
0.000326934
0.000309316
0.000293252
0.000278533
0.000264915
0.000251976
0.000238721
0.000273104
0.000257854
0.000243976
0.000231286
0.000219598
0.00020864
0.00019769
0.000178657
0.00016759
0.000157551
0.0001484
0.000140017
0.000132296
0.000125186
3.6659e-05
3.46394e-05
3.28516e-05
3.1261e-05
2.98405e-05
2.85806e-05
2.76046e-05
3.46397e-05
3.28518e-05
3.12612e-05
2.98407e-05
2.85809e-05
2.76056e-05
0.000167595
0.000157553
0.0001484
0.000140015
0.00013229
0.000125179
0.000257855
0.000243976
0.000231284
0.000219593
0.00020863
0.000197671
0.000309314
0.000293251
0.000278532
0.000264913
0.000251974
0.00023871
0.000333574
0.000316458
0.000300739
0.000286135
0.000272094
0.000257237
0.000333574
0.000316458
0.000300739
0.000286135
0.000272095
0.000257246
0.000326942
0.000309327
0.000293269
0.000278557
0.00026495
0.000252036
0.000238877
0.000273136
0.000257898
0.00024404
0.000231378
0.000219731
0.000208858
0.000198236
0.000178703
0.000167657
0.000157648
0.000148541
0.000140217
0.000132571
0.000125606
3.66626e-05
3.46451e-05
3.28603e-05
3.1274e-05
2.98589e-05
2.8602e-05
2.75902e-05
3.0812e-05
2.92319e-05
2.78273e-05
2.65727e-05
2.54582e-05
2.46161e-05
0.000154977
0.000145485
0.000136829
0.000128883
0.000121563
0.000114931
0.000239361
0.000226259
0.000214279
0.000203244
0.000192892
0.000182204
0.000287009
0.000271915
0.000258103
0.000245356
0.000233327
0.00022117
0.000309326
0.000293267
0.000278556
0.000264949
0.000252035
0.00023887
0.000309314
0.000293251
0.000278533
0.000264914
0.000251975
0.000238719
0.000303593
0.000287012
0.000271917
0.000258105
0.000245358
0.000233327
0.000221182
0.00025382
0.000239439
0.000226372
0.000214443
0.000203485
0.000193292
0.000183265
0.000165538
0.00015512
0.000145696
0.00013714
0.00012934
0.000122227
0.000116201
3.26067e-05
3.08243e-05
2.92513e-05
2.78575e-05
2.6618e-05
2.55143e-05
2.4548e-05
2.39033e-05
2.27209e-05
2.16739e-05
2.07426e-05
1.99184e-05
1.92216e-05
0.000128824
0.000120558
0.000113079
0.000106189
0.000100229
9.37298e-05
0.000199858
0.000188391
0.000177928
0.000168321
0.000159463
0.00015028
0.000239439
0.000226372
0.000214443
0.000203486
0.000193292
0.000183262
0.000257901
0.000244042
0.000231379
0.000219732
0.000208857
0.000198235
0.000257856
0.000243978
0.000231287
0.000219597
0.000208635
0.00019768
0.000253767
0.000239364
0.000226262
0.000214282
0.000203247
0.000192896
0.000182215
0.000212493
0.000199862
0.000188394
0.00017793
0.000168322
0.000159466
0.000150296
0.000138156
0.000128936
0.000120724
0.00011333
0.00010657
0.000100832
9.50664e-05
2.52502e-05
2.39151e-05
2.27402e-05
2.17057e-05
2.07951e-05
1.99967e-05
1.92991e-05
1.54462e-05
1.47158e-05
1.40763e-05
1.35109e-05
1.30192e-05
1.26152e-05
8.6452e-05
7.96521e-05
7.34493e-05
6.77787e-05
6.3682e-05
5.71282e-05
0.000128936
0.000120725
0.000113333
0.000106576
0.000100827
9.50682e-05
0.000155125
0.0001457
0.000137145
0.000129347
0.000122235
0.000116212
0.000167666
0.000157655
0.000148546
0.000140222
0.000132576
0.000125616
0.000167596
0.000157554
0.0001484
0.000140016
0.000132293
0.000125183
0.00016544
0.000154978
0.000145486
0.00013683
0.000128886
0.000121569
0.000114936
0.000138082
0.000128827
0.000120561
0.000113082
0.000106193
0.000100234
9.37358e-05
9.38552e-05
8.64549e-05
7.96534e-05
7.34498e-05
6.77789e-05
6.3683e-05
5.71278e-05
1.62945e-05
1.54517e-05
1.47256e-05
1.40953e-05
1.35497e-05
1.31028e-05
1.27697e-05
6.52831e-06
6.32688e-06
6.15147e-06
5.99983e-06
5.89051e-06
5.75642e-06
1.54516e-05
1.47255e-05
1.40952e-05
1.35496e-05
1.31027e-05
1.27694e-05
2.39149e-05
2.27401e-05
2.17056e-05
2.07951e-05
1.99967e-05
1.92987e-05
3.08242e-05
2.92513e-05
2.78576e-05
2.66182e-05
2.55147e-05
2.45479e-05
3.46452e-05
3.28605e-05
3.12742e-05
2.98592e-05
2.86024e-05
2.75901e-05
3.46397e-05
3.28519e-05
3.12612e-05
2.98407e-05
2.85809e-05
2.76054e-05
3.25988e-05
3.08118e-05
2.92317e-05
2.78271e-05
2.65726e-05
2.54582e-05
2.4616e-05
2.5243e-05
2.39031e-05
2.27207e-05
2.16738e-05
2.07425e-05
1.99184e-05
1.92217e-05
1.62912e-05
1.54462e-05
1.47157e-05
1.40763e-05
1.35109e-05
1.30193e-05
1.26153e-05
6.76016e-06
6.52832e-06
6.32689e-06
6.15148e-06
5.99984e-06
5.89053e-06
5.75657e-06
5.15712e-06
4.89905e-06
4.67331e-06
4.5216e-06
1.09573e-05
1.03745e-05
9.92408e-06
9.57578e-06
1.65794e-05
1.5669e-05
1.49852e-05
1.00661e-05
9.82687e-06
9.48978e-06
9.2219e-06
3.33155e-05
3.1251e-05
2.98314e-05
2.85635e-05
6.33658e-05
6.04872e-05
5.77962e-05
1.62258e-05
1.48815e-05
1.42346e-05
6.80351e-05
6.15694e-05
5.91937e-05
0.000113388
0.000108426
0.000104215
2.03176e-05
1.91939e-05
1.83996e-05
9.27475e-05
8.44319e-05
8.03838e-05
0.00014873
0.000142217
0.000136399
)
;

boundaryField
{
    inlet
    {
        type            calculated;
        value           nonuniform List<scalar> 0();
    }
    ami1
    {
        type            cyclicAMI;
        value           nonuniform List<scalar> 
100
(
8.98761e-06
1.31315e-05
2.17409e-05
2.90503e-05
3.17841e-05
2.96924e-05
2.4379e-05
2.05929e-05
1.55597e-05
8.98819e-06
1.55588e-05
5.37765e-05
8.64829e-05
0.000109278
0.000121104
0.00012137
0.000110134
9.00702e-05
5.37973e-05
1.31339e-05
2.05949e-05
9.01867e-05
0.000141572
0.000173625
0.000190325
0.000192251
0.000176874
0.000141646
8.65183e-05
2.174e-05
2.43827e-05
0.000110441
0.00017691
0.000213687
0.000230884
0.000231448
0.000213678
0.000173656
0.000109297
2.90411e-05
2.96966e-05
0.000121418
0.000192299
0.000231443
0.000248431
0.000248445
0.000230946
0.00019038
0.000121136
3.17919e-05
3.17852e-05
0.000121114
0.000190364
0.000230911
0.000248427
0.000248459
0.000231459
0.000192304
0.000121413
2.9696e-05
2.90462e-05
0.000109263
0.000173625
0.000213645
0.000231427
0.000230943
0.000213694
0.000176906
0.000110443
2.43822e-05
2.1734e-05
8.64584e-05
0.000141592
0.00017695
0.000192271
0.000190361
0.000173626
0.000141572
9.01978e-05
2.05949e-05
1.31278e-05
5.37682e-05
9.02098e-05
0.000110471
0.000121378
0.00012111
0.00010927
8.64729e-05
5.3778e-05
1.5559e-05
8.98735e-06
1.55588e-05
2.05945e-05
2.43794e-05
2.96927e-05
3.17845e-05
2.90479e-05
2.17381e-05
1.313e-05
8.9872e-06
)
;
    }
    walls
    {
        type            nutkWallFunction;
        blending        stepwise;
        value           uniform 0;
    }
    ami2
    {
        type            cyclicAMI;
        value           nonuniform List<scalar> 
12
(
9.17551e-06
1.52834e-05
2.0601e-05
1.0269e-05
3.66928e-05
6.84156e-05
2.17473e-05
7.16361e-05
0.000116864
2.49277e-05
9.90701e-05
0.00015368
)
;
    }
    outlet
    {
        type            calculated;
        value           nonuniform List<scalar> 0();
    }
    procBoundary2to0
    {
        type            processor;
        value           nonuniform List<scalar> 
28
(
4.42363e-06
9.31025e-06
1.44737e-05
2.08167e-05
1.985e-05
1.44737e-05
1.90596e-05
9.03836e-06
1.38465e-05
2.78836e-05
5.65217e-05
5.88662e-05
8.81771e-05
8.31822e-05
5.65217e-05
7.89062e-05
1.38465e-05
5.88662e-05
0.000147541
0.00014147
0.000101097
0.000135615
1.77616e-05
7.67202e-05
0.0001874
0.000179948
0.000131198
0.000172681
)
;
    }
    procBoundary2to1
    {
        type            processor;
        value           nonuniform List<scalar> 9(2.28266e-05 2.18842e-05 2.10845e-05 0.0001021 9.68886e-05 9.22145e-05 0.000171146 0.000162575 0.000155051);
    }
    procBoundary2to3
    {
        type            processor;
        value           nonuniform List<scalar> 
110
(
6.76021e-06
1.62912e-05
2.5243e-05
3.25987e-05
3.66588e-05
3.66625e-05
3.66625e-05
3.46356e-05
2.67766e-05
1.72634e-05
7.02438e-06
1.62946e-05
9.38583e-05
0.000138086
0.000165441
0.000178653
0.000178697
0.000178697
0.000177084
0.000148397
0.000102131
1.72619e-05
2.52502e-05
0.000138156
0.000212496
0.000253769
0.000273104
0.000273132
0.000273132
0.000269716
0.000226462
0.000148353
2.6772e-05
3.26067e-05
0.000165533
0.000253819
0.000303594
0.000326935
0.000326942
0.000326942
0.000321887
0.000269683
0.000177025
3.46304e-05
3.66625e-05
0.000178696
0.000273133
0.000326943
0.000352308
0.000352308
0.000352308
0.00034633
0.000289943
0.000190911
3.89522e-05
3.66588e-05
0.000178652
0.000273103
0.000326935
0.000352308
0.000352308
0.000352308
0.000346336
0.000289963
0.000190939
3.89546e-05
3.25986e-05
0.00016544
0.000253768
0.000303594
0.000326943
0.000326935
0.000326935
0.000321888
0.000269717
0.000177084
3.46356e-05
2.52429e-05
0.000138086
0.000212495
0.000253819
0.000273134
0.000273104
0.000273104
0.000269683
0.000226462
0.000148397
2.67766e-05
1.62912e-05
9.38584e-05
0.000138156
0.000165533
0.000178696
0.000178653
0.000178653
0.000177024
0.000148353
0.000102131
1.72634e-05
6.7602e-06
1.62946e-05
2.52502e-05
3.26067e-05
3.66625e-05
3.66589e-05
3.66589e-05
3.46304e-05
2.6772e-05
1.72619e-05
7.02437e-06
)
;
    }
}


// ************************************************************************* //
