/*--------------------------------*- C++ -*----------------------------------*\
| =========                 |                                                 |
| \\      /  F ield         | OpenFOAM: The Open Source CFD Toolbox           |
|  \\    /   O peration     | Version:  2212                                  |
|   \\  /    A nd           | Website:  www.openfoam.com                      |
|    \\/     M anipulation  |                                                 |
\*---------------------------------------------------------------------------*/
FoamFile
{
    version     2.0;
    format      ascii;
    arch        "LSB;label=32;scalar=64";
    class       volVectorField;
    location    "1.8";
    object      U;
}
// * * * * * * * * * * * * * * * * * * * * * * * * * * * * * * * * * * * * * //

dimensions      [0 1 -1 0 0 0 0];

internalField   nonuniform List<vector> 
680
(
(0.0459478 4.80396e-05 0.000122267)
(0.0449378 9.09527e-06 0.000130343)
(0.0440364 -2.94437e-05 0.000154926)
(0.0432882 -0.000135439 0.000201793)
(0.0430366 -0.000391041 0.000242841)
(0.0414516 -0.00206587 -0.00081555)
(0.0664701 0.000507652 0.000386874)
(0.0652244 0.000422461 0.000394008)
(0.064017 0.000289864 0.000403406)
(0.0628271 8.49742e-05 0.000404929)
(0.0616647 -0.000285396 0.000375902)
(0.0604648 -0.000772084 0.000885526)
(0.0817019 0.00103889 0.00091294)
(0.0806961 0.00096162 0.000931023)
(0.0796706 0.000883495 0.000962424)
(0.0785648 0.000798523 0.00101137)
(0.0772872 0.000738376 0.00111238)
(0.0759938 0.000946683 0.0016747)
(0.0908056 0.000869803 0.00117007)
(0.0901436 0.000827882 0.00118838)
(0.0894407 0.000808152 0.00121849)
(0.0886767 0.000822566 0.00126785)
(0.0877845 0.000891904 0.00135073)
(0.0868636 0.00124856 0.00155932)
(0.0947174 0.000364268 0.0012007)
(0.0943118 0.00038087 0.00122461)
(0.0938661 0.000423559 0.00125704)
(0.0933807 0.000502735 0.00129933)
(0.0928189 0.000625934 0.00134347)
(0.0921761 0.000866476 0.00141434)
(0.0947836 -0.000228119 0.0011814)
(0.0944153 -0.000164007 0.00119411)
(0.0940215 -7.9248e-05 0.00120952)
(0.0936011 3.648e-05 0.0012265)
(0.0931447 0.000185079 0.00124472)
(0.0926404 0.000369947 0.00129021)
(0.0915487 -0.00088168 0.00113702)
(0.0909799 -0.000788475 0.00113143)
(0.0904226 -0.000687221 0.00112345)
(0.0898779 -0.000560401 0.00110617)
(0.0893415 -0.000383193 0.00107049)
(0.0888203 -0.000123212 0.00101533)
(0.0882923 0.000257099 0.000931255)
(0.0828319 -0.00113544 0.000877683)
(0.0819034 -0.00106131 0.00086662)
(0.0810398 -0.000985119 0.000848666)
(0.0802644 -0.000890909 0.000807249)
(0.0796194 -0.000737583 0.000709329)
(0.0791943 -0.00047499 0.000553571)
(0.0782632 0.000217266 6.01055e-06)
(0.0678268 -0.000643918 0.000359728)
(0.0665867 -0.000617915 0.000350616)
(0.0654307 -0.000607284 0.000331943)
(0.0644001 -0.000603444 0.000269674)
(0.063596 -0.000582328 0.000114355)
(0.0633467 -0.000596767 -5.51156e-05)
(0.0610574 -0.000224919 -0.000660781)
(0.0470545 -0.000124003 7.8347e-05)
(0.0459479 -0.000122235 4.80859e-05)
(0.0449379 -0.000130245 9.13972e-06)
(0.0440368 -0.000154748 -2.93611e-05)
(0.0432888 -0.000201501 -0.000135303)
(0.043038 -0.000242273 -0.000390908)
(0.041455 0.000816781 -0.00206611)
(0.0665867 0.000350599 0.00061804)
(0.0654306 0.000331903 0.000607507)
(0.0643999 0.000269608 0.000603854)
(0.0635957 0.000114275 0.000583038)
(0.0633459 -5.51094e-05 0.000598199)
(0.0610554 -0.000659928 0.000226851)
(0.0875199 0.000304148 0.00040696)
(0.086971 0.000227063 0.000399598)
(0.0864637 0.000110609 0.000411225)
(0.0859707 -7.52144e-05 0.000441372)
(0.085448 -0.000449908 0.000426571)
(0.0850957 -0.0013062 0.00013901)
(0.0966364 0.000778983 0.000992119)
(0.0963962 0.0006959 0.000996326)
(0.0961498 0.00060507 0.00102345)
(0.0958702 0.000498303 0.00108076)
(0.0955042 0.000361113 0.00115697)
(0.0954404 0.00022312 0.00121766)
(0.102235 0.000708059 0.00138021)
(0.102219 0.000655548 0.00138638)
(0.102184 0.000614558 0.00141397)
(0.102118 0.000588725 0.00146881)
(0.102016 0.000586166 0.00154902)
(0.102192 0.000616549 0.00163395)
(0.10479 0.000335727 0.00153548)
(0.104926 0.000338497 0.00153792)
(0.105043 0.000359117 0.00155252)
(0.105138 0.000403218 0.0015807)
(0.105215 0.000474131 0.0016195)
(0.105465 0.000565872 0.00166595)
(0.104837 -0.000232622 0.00151113)
(0.105 -0.000177315 0.00150014)
(0.105155 -0.000108007 0.00149478)
(0.1053 -1.80846e-05 0.00149436)
(0.105443 9.66318e-05 0.00149566)
(0.105688 0.000233668 0.00148753)
(0.102316 -0.000752242 0.001354)
(0.102354 -0.000675526 0.00131727)
(0.102405 -0.000597561 0.00128356)
(0.10247 -0.000512757 0.00124676)
(0.102545 -0.000412853 0.00120005)
(0.102636 -0.000286293 0.00113732)
(0.102771 -0.000109345 0.00102099)
(0.0969596 -0.00090324 0.000950611)
(0.0967496 -0.000848332 0.000900565)
(0.0965805 -0.000803325 0.000842982)
(0.0964497 -0.000761368 0.00076169)
(0.0963511 -0.000715959 0.000633488)
(0.0962662 -0.000647214 0.000432851)
(0.096183 -0.000480446 7.65261e-05)
(0.0881195 -0.000429798 0.000365729)
(0.08752 -0.000406965 0.000304222)
(0.0869712 -0.000399459 0.000227061)
(0.0864641 -0.000410919 0.00011056)
(0.0859714 -0.000440787 -7.53215e-05)
(0.0854494 -0.000425564 -0.000450195)
(0.0850982 -0.000137772 -0.00130636)
(0.0677594 -0.000387578 0.0005771)
(0.0664704 -0.000386848 0.000507666)
(0.0652248 -0.000393971 0.000422502)
(0.0640177 -0.000403329 0.000289933)
(0.0628283 -0.000404775 8.50611e-05)
(0.061667 -0.000375497 -0.000285324)
(0.0604696 -0.00088467 -0.000772276)
(0.0819035 0.000866578 0.0010614)
(0.08104 0.000848593 0.000985268)
(0.0802647 0.00080709 0.000891151)
(0.0796201 0.000709087 0.000738044)
(0.0791958 0.00055329 0.000475809)
(0.0782639 6.30527e-06 -0.000213121)
(0.0967496 0.000900581 0.000848363)
(0.0965804 0.000843019 0.000803417)
(0.0964497 0.000761755 0.000761558)
(0.096351 0.000633541 0.000716254)
(0.0962662 0.00043326 0.000647868)
(0.0961828 7.8759e-05 0.000482529)
(0.102993 0.000992788 0.00107435)
(0.103092 0.000917317 0.0010484)
(0.103201 0.000835638 0.00104395)
(0.103315 0.000738554 0.0010645)
(0.103434 0.000615281 0.00110024)
(0.10368 0.000477211 0.001124)
(0.10673 0.000770375 0.0013721)
(0.107011 0.000714105 0.00135364)
(0.107285 0.000664406 0.00135722)
(0.107551 0.000619412 0.00138457)
(0.107828 0.000575607 0.00142722)
(0.108234 0.000535349 0.00146586)
(0.108504 0.000318352 0.00150262)
(0.108903 0.000308073 0.0014818)
(0.109289 0.000306184 0.00147588)
(0.109663 0.000315077 0.00148439)
(0.110042 0.000334289 0.00150243)
(0.11051 0.000355155 0.0015192)
(0.108528 -0.000275696 0.00147596)
(0.108939 -0.00024253 0.00144045)
(0.109343 -0.000206216 0.00141418)
(0.109745 -0.000163349 0.00139475)
(0.110157 -0.000109961 0.00137828)
(0.110619 -5.02002e-05 0.00135726)
(0.106473 -0.000844007 0.00136996)
(0.106777 -0.000784233 0.00130613)
(0.107083 -0.000734766 0.00124912)
(0.107396 -0.000694016 0.00119437)
(0.107719 -0.000659665 0.00113716)
(0.108062 -0.000624992 0.0010729)
(0.108447 -0.000575529 0.000997941)
(0.10291 -0.00111968 0.0010693)
(0.102993 -0.00107439 0.0009927)
(0.103092 -0.00104839 0.000917139)
(0.103201 -0.00104386 0.000835339)
(0.103315 -0.00106437 0.000738086)
(0.103434 -0.00110023 0.000614579)
(0.103679 -0.00112485 0.000476674)
(0.0968898 -0.00100586 0.000860956)
(0.0966365 -0.000992113 0.000778902)
(0.0963963 -0.000996221 0.000695718)
(0.09615 -0.0010232 0.000604748)
(0.0958706 -0.00108028 0.000497757)
(0.0955048 -0.0011562 0.000360257)
(0.095441 -0.00121702 0.000222262)
(0.0827129 -0.000904555 0.00111787)
(0.0817022 -0.000912872 0.00103874)
(0.0806965 -0.000930922 0.00096141)
(0.0796712 -0.000962242 0.000883188)
(0.078566 -0.00101099 0.000798006)
(0.0772893 -0.00111166 0.000737391)
(0.0759976 -0.00167323 0.000944962)
(0.0909801 0.00113132 0.000788467)
(0.090423 0.00112327 0.000687198)
(0.0898785 0.00110582 0.000560315)
(0.0893426 0.00106982 0.000383033)
(0.0888223 0.00101421 0.000122886)
(0.0882951 0.000929713 -0.000257599)
(0.102354 0.00131724 0.000675513)
(0.102405 0.00128347 0.000597542)
(0.10247 0.0012466 0.000512733)
(0.102545 0.00119981 0.000412841)
(0.102636 0.00113736 0.000286546)
(0.10277 0.00102469 0.000112018)
(0.106777 0.00130619 0.000784158)
(0.107083 0.00124922 0.000734674)
(0.107395 0.00119454 0.000693894)
(0.107718 0.00113746 0.000659479)
(0.108061 0.0010735 0.000624677)
(0.108447 0.000999255 0.000574967)
(0.10927 0.000925031 0.000955769)
(0.10974 0.000873366 0.000920553)
(0.110202 0.000827035 0.00089741)
(0.11066 0.000783695 0.000884506)
(0.111128 0.000737951 0.000878069)
(0.111651 0.000692437 0.000868808)
(0.110441 0.000346291 0.00103788)
(0.111004 0.000328551 0.00100331)
(0.111551 0.000313416 0.000980025)
(0.112087 0.000300247 0.000965104)
(0.112626 0.000287554 0.000954595)
(0.11321 0.000273714 0.000941842)
(0.110446 -0.000345189 0.00102335)
(0.111011 -0.000327081 0.000981035)
(0.111561 -0.000310601 0.000946889)
(0.112101 -0.000294737 0.000917378)
(0.112643 -0.000278246 0.000888841)
(0.113223 -0.000263295 0.000861534)
(0.108787 -0.00100391 0.000984127)
(0.10927 -0.000955903 0.000924965)
(0.10974 -0.000920734 0.000873257)
(0.110202 -0.000897672 0.000826856)
(0.11066 -0.000884907 0.000783429)
(0.111127 -0.00087872 0.000737592)
(0.11165 -0.000869937 0.000691951)
(0.106443 -0.0014109 0.000835455)
(0.10673 -0.00137216 0.000770272)
(0.107011 -0.00135368 0.000713928)
(0.107284 -0.00135724 0.000664134)
(0.10755 -0.00138459 0.000619031)
(0.107826 -0.00142738 0.000575159)
(0.108232 -0.00146644 0.000535086)
(0.10224 -0.00139229 0.000771332)
(0.102235 -0.00138016 0.000707927)
(0.102219 -0.00138625 0.00065533)
(0.102184 -0.00141367 0.000614211)
(0.102118 -0.00146826 0.000588162)
(0.102015 -0.00154815 0.00058523)
(0.10219 -0.00163282 0.000615316)
(0.0914413 -0.00116103 0.00092841)
(0.0908057 -0.00116998 0.00086961)
(0.0901438 -0.00118823 0.000827601)
(0.0894411 -0.00121821 0.000807728)
(0.0886774 -0.00126732 0.000821921)
(0.0877856 -0.00134979 0.000890964)
(0.0868656 -0.00155749 0.00124681)
(0.0947837 0.00118131 0.000228064)
(0.0944155 0.00119396 0.000163917)
(0.0940218 0.00120927 7.90889e-05)
(0.0936016 0.00122606 -3.67769e-05)
(0.0931455 0.00124398 -0.000185619)
(0.0926413 0.00128924 -0.000371103)
(0.104837 0.00151109 0.000232577)
(0.105 0.00150007 0.000177264)
(0.105155 0.00149466 0.000107954)
(0.1053 0.00149419 1.80612e-05)
(0.105443 0.00149556 -9.6491e-05)
(0.105688 0.00148814 -0.000232971)
(0.108528 0.00147599 0.000275629)
(0.108939 0.00144048 0.000242457)
(0.109343 0.00141423 0.000206139)
(0.109745 0.00139488 0.000163288)
(0.110157 0.00137859 0.000109965)
(0.110619 0.00135807 5.03293e-05)
(0.110446 0.00102337 0.00034507)
(0.111011 0.000981072 0.000326928)
(0.111561 0.000946944 0.000310398)
(0.112101 0.000917468 0.000294458)
(0.112643 0.000889005 0.000277847)
(0.113223 0.000861852 0.000262684)
(0.111321 0.000370595 0.000374598)
(0.111968 0.000353386 0.000359384)
(0.11259 0.000337985 0.000346591)
(0.113195 0.000322022 0.000333884)
(0.113788 0.000299497 0.000315372)
(0.114432 0.000291373 0.000311785)
(0.111321 -0.00037474 0.000370615)
(0.111967 -0.000359571 0.000353416)
(0.11259 -0.000346841 0.000338031)
(0.113195 -0.000334222 0.000322088)
(0.113788 -0.000315834 0.000299581)
(0.114432 -0.000312473 0.000291498)
(0.109857 -0.0010852 0.000366927)
(0.110441 -0.00103804 0.000346294)
(0.111004 -0.00100353 0.000328559)
(0.111551 -0.000980331 0.000313436)
(0.112087 -0.000965544 0.000300301)
(0.112625 -0.000955261 0.000287692)
(0.113209 -0.000942919 0.000274048)
(0.108092 -0.00154119 0.000336083)
(0.108504 -0.00150271 0.000318312)
(0.108903 -0.00148191 0.000308015)
(0.109288 -0.00147602 0.000306111)
(0.109663 -0.00148459 0.000315015)
(0.110041 -0.00150276 0.000334337)
(0.110508 -0.00151988 0.000355518)
(0.104636 -0.00154729 0.000345741)
(0.10479 -0.00153543 0.000335618)
(0.104926 -0.00153783 0.000338333)
(0.105043 -0.00155235 0.000358859)
(0.105138 -0.00158039 0.000402827)
(0.105214 -0.00161897 0.000473566)
(0.105463 -0.00166553 0.000565238)
(0.0950851 -0.00118343 0.000365)
(0.0947174 -0.00120065 0.000364121)
(0.0943119 -0.00122448 0.000380651)
(0.0938662 -0.00125676 0.00042323)
(0.093381 -0.00129882 0.000502248)
(0.0928195 -0.00134261 0.000625223)
(0.0921769 -0.0014132 0.000865541)
(0.0947174 0.00120071 -0.00036436)
(0.0943119 0.00122461 -0.000381013)
(0.0938661 0.00125703 -0.000423779)
(0.0933808 0.00129931 -0.000503062)
(0.092819 0.00134344 -0.000626395)
(0.092176 0.00141435 -0.000867139)
(0.10479 0.00153549 -0.00033581)
(0.104926 0.00153792 -0.000338588)
(0.105043 0.00155252 -0.000359209)
(0.105139 0.00158069 -0.000403281)
(0.105216 0.00161952 -0.000474079)
(0.105465 0.00166617 -0.000565599)
(0.108504 0.00150265 -0.000318431)
(0.108903 0.00148182 -0.000308151)
(0.109289 0.0014759 -0.000306255)
(0.109663 0.00148442 -0.00031512)
(0.110042 0.00150253 -0.000334272)
(0.11051 0.0015195 -0.000355089)
(0.110441 0.00103789 -0.000346398)
(0.111004 0.00100332 -0.000328679)
(0.111551 0.000980023 -0.000313567)
(0.112087 0.0009651 -0.000300424)
(0.112626 0.000954614 -0.000287762)
(0.11321 0.000941975 -0.000273976)
(0.111321 0.000374577 -0.000370706)
(0.111968 0.000359349 -0.000353522)
(0.11259 0.000346535 -0.000338151)
(0.113195 0.000333801 -0.000322223)
(0.113788 0.000315258 -0.00029974)
(0.114432 0.000311654 -0.000291681)
(0.111321 -0.000370756 -0.000374676)
(0.111967 -0.000353603 -0.000359471)
(0.11259 -0.000338281 -0.000346689)
(0.113195 -0.000322419 -0.000333997)
(0.113788 -0.000300021 -0.000315512)
(0.114432 -0.000292094 -0.000312025)
(0.109861 -0.00107581 -0.000365783)
(0.110446 -0.00102353 -0.000345138)
(0.111011 -0.00098128 -0.000327)
(0.111561 -0.000947226 -0.000310469)
(0.112101 -0.000917848 -0.000294522)
(0.112642 -0.000889511 -0.0002779)
(0.113223 -0.000862497 -0.000262732)
(0.108109 -0.00152445 -0.000308208)
(0.108528 -0.00147609 -0.000275684)
(0.108939 -0.00144062 -0.000242504)
(0.109343 -0.00141442 -0.00020616)
(0.109744 -0.00139512 -0.000163247)
(0.110157 -0.00137889 -0.000109792)
(0.110618 -0.00135839 -4.99039e-05)
(0.104666 -0.00153215 -0.000279873)
(0.104837 -0.00151111 -0.000232686)
(0.105 -0.00150011 -0.000177408)
(0.105155 -0.0014947 -0.000108135)
(0.1053 -0.00149421 -1.82661e-05)
(0.105442 -0.00149552 9.63382e-05)
(0.105686 -0.00148801 0.000233017)
(0.0951263 -0.0011716 -0.000280994)
(0.0947835 -0.00118138 -0.000228236)
(0.0944152 -0.00119402 -0.00016416)
(0.0940214 -0.0012093 -7.9458e-05)
(0.0936011 -0.00122605 3.6215e-05)
(0.0931448 -0.00124393 0.00018477)
(0.0926404 -0.00128906 0.000369742)
(0.0908056 0.00117011 -0.000869915)
(0.0901435 0.00118844 -0.000828046)
(0.0894406 0.00121859 -0.000808391)
(0.0886765 0.00126801 -0.000822891)
(0.0877841 0.001351 -0.000892317)
(0.086863 0.0015597 -0.00124916)
(0.102235 0.00138024 -0.000708159)
(0.102219 0.00138642 -0.000655671)
(0.102184 0.00141402 -0.000614707)
(0.102118 0.00146889 -0.000588905)
(0.102016 0.00154914 -0.000586348)
(0.102192 0.00163402 -0.000616656)
(0.10673 0.00137213 -0.00077047)
(0.107011 0.00135367 -0.000714216)
(0.107285 0.00135725 -0.000664532)
(0.107551 0.0013846 -0.00061955)
(0.107828 0.00142724 -0.000575734)
(0.108235 0.00146594 -0.000535487)
(0.10927 0.000955779 -0.000925126)
(0.10974 0.000920559 -0.00087348)
(0.110202 0.000897404 -0.000827167)
(0.11066 0.00088448 -0.000783838)
(0.111128 0.000878015 -0.000738083)
(0.111651 0.000868724 -0.000692518)
(0.110446 0.000345062 -0.00102345)
(0.111011 0.000326909 -0.000981164)
(0.111561 0.000310357 -0.000947048)
(0.112101 0.00029438 -0.00091758)
(0.112643 0.000277707 -0.000889109)
(0.113223 0.000262443 -0.000861903)
(0.110441 -0.000346426 -0.00103794)
(0.111004 -0.000328732 -0.00100338)
(0.111551 -0.000313663 -0.000980101)
(0.112087 -0.00030059 -0.000965203)
(0.112625 -0.000288046 -0.000954761)
(0.11321 -0.000274459 -0.000942202)
(0.108787 -0.000984272 -0.00100385)
(0.10927 -0.000925164 -0.00095581)
(0.10974 -0.000873536 -0.000920585)
(0.110202 -0.000827251 -0.00089743)
(0.11066 -0.000783983 -0.000884524)
(0.111128 -0.000738358 -0.000878129)
(0.11165 -0.000693009 -0.000869052)
(0.106473 -0.00137008 -0.00084397)
(0.106777 -0.00130631 -0.000784176)
(0.107083 -0.00124936 -0.00073466)
(0.107395 -0.00119472 -0.000693833)
(0.107718 -0.0011377 -0.000659364)
(0.108061 -0.00107378 -0.000624519)
(0.108447 -0.000999592 -0.000574896)
(0.102316 -0.00135404 -0.000752248)
(0.102354 -0.0013173 -0.000675535)
(0.102405 -0.00128357 -0.000597563)
(0.10247 -0.00124673 -0.000512733)
(0.102544 -0.00119999 -0.000412799)
(0.102635 -0.00113763 -0.000286422)
(0.102769 -0.00102499 -0.000111752)
(0.0915486 -0.00113703 -0.000881737)
(0.0909797 -0.00113141 -0.000788546)
(0.0904225 -0.00112338 -0.000687316)
(0.0898778 -0.00110598 -0.000560522)
(0.0893416 -0.00107005 -0.000383316)
(0.0888208 -0.00101462 -0.000123318)
(0.0882923 -0.000930354 0.000256931)
(0.0817018 0.000912963 -0.00103899)
(0.0806959 0.000931065 -0.000961754)
(0.0796703 0.000962501 -0.000883683)
(0.0785643 0.00101151 -0.0007988)
(0.0772866 0.0011127 -0.000738824)
(0.0759927 0.00167478 -0.000947054)
(0.0966363 0.000992141 -0.000779081)
(0.0963961 0.000996355 -0.000696023)
(0.0961497 0.0010235 -0.000605232)
(0.0958702 0.00108093 -0.000498594)
(0.0955042 0.00115717 -0.000361461)
(0.0954407 0.00121776 -0.000223416)
(0.102993 0.00107438 -0.000992882)
(0.103092 0.00104844 -0.000917445)
(0.103201 0.001044 -0.000835813)
(0.103315 0.00106459 -0.000738797)
(0.103434 0.00110034 -0.00061561)
(0.103681 0.00112433 -0.000477825)
(0.106777 0.000784186 -0.00130627)
(0.107083 0.000734708 -0.00124933)
(0.107395 0.000693934 -0.00119468)
(0.107718 0.00065952 -0.00113765)
(0.108061 0.000624721 -0.00107375)
(0.108448 0.000575124 -0.000999691)
(0.108528 0.00027565 -0.00147603)
(0.108939 0.000242477 -0.00144053)
(0.109343 0.000206146 -0.0014143)
(0.109745 0.000163259 -0.00139496)
(0.110157 0.00010985 -0.00137864)
(0.110619 5.00179e-05 -0.00135798)
(0.108504 -0.000318433 -0.00150264)
(0.108903 -0.000308168 -0.00148181)
(0.109288 -0.000306301 -0.00147588)
(0.109663 -0.000315232 -0.00148438)
(0.110041 -0.000334537 -0.00150246)
(0.110509 -0.000355624 -0.00151937)
(0.106443 -0.000835609 -0.00141085)
(0.10673 -0.00077048 -0.0013721)
(0.107011 -0.000714218 -0.00135359)
(0.107284 -0.000664536 -0.00135711)
(0.107551 -0.000619572 -0.00138439)
(0.107827 -0.000575826 -0.00142702)
(0.108234 -0.000535789 -0.00146579)
(0.10291 -0.00106945 -0.00111964)
(0.102993 -0.000992905 -0.00107434)
(0.103092 -0.000917435 -0.00104832)
(0.103201 -0.000835765 -0.00104376)
(0.103315 -0.000738709 -0.0010642)
(0.103434 -0.000615444 -0.00109982)
(0.10368 -0.000477583 -0.00112378)
(0.0969595 -0.000950677 -0.000903227)
(0.0967494 -0.000900655 -0.000848317)
(0.0965802 -0.000843098 -0.000803309)
(0.0964494 -0.000761852 -0.000761352)
(0.0963507 -0.000633746 -0.00071595)
(0.0962657 -0.000433474 -0.000647316)
(0.096182 -7.91695e-05 -0.000481815)
(0.0828317 -0.000877693 -0.00113547)
(0.0819032 -0.000866629 -0.00106137)
(0.0810396 -0.000848668 -0.000985212)
(0.0802641 -0.000807223 -0.000891064)
(0.0796192 -0.000709272 -0.000737861)
(0.0791944 -0.000553587 -0.000475517)
(0.0782616 -6.55092e-06 0.00021471)
(0.06647 0.000386891 -0.000507734)
(0.0652242 0.000394029 -0.000422571)
(0.0640167 0.000403444 -0.000290013)
(0.0628265 0.000405016 -8.51915e-05)
(0.0616638 0.000376093 0.000285052)
(0.0604634 0.000885469 0.00077187)
(0.0875198 0.000406962 -0.000304221)
(0.0869708 0.000399612 -0.00022717)
(0.0864634 0.000411255 -0.000110757)
(0.0859703 0.00044144 7.49816e-05)
(0.0854475 0.000426632 0.000449621)
(0.085095 0.000139318 0.00130558)
(0.0967494 0.000848396 -0.000900668)
(0.0965803 0.000803476 -0.00084315)
(0.0964495 0.000761649 -0.000761952)
(0.0963508 0.000716391 -0.000633851)
(0.096266 0.000648103 -0.000433794)
(0.0961824 0.000483147 -7.99042e-05)
(0.102354 0.000675568 -0.0013173)
(0.102405 0.000597624 -0.00128357)
(0.10247 0.000512848 -0.00124675)
(0.102545 0.000413001 -0.00120005)
(0.102636 0.000286798 -0.00113779)
(0.10277 0.000112648 -0.00102562)
(0.104837 0.000232641 -0.00151111)
(0.105 0.000177353 -0.0015001)
(0.105155 0.000108072 -0.00149471)
(0.1053 1.82057e-05 -0.00149427)
(0.105443 -9.63595e-05 -0.00149562)
(0.105688 -0.000233037 -0.00148781)
(0.10479 -0.000335769 -0.00153543)
(0.104926 -0.000338527 -0.00153783)
(0.105043 -0.00035912 -0.00155239)
(0.105138 -0.000403172 -0.00158051)
(0.105215 -0.000473983 -0.00161921)
(0.105465 -0.000565611 -0.00166566)
(0.10224 -0.000771488 -0.00139228)
(0.102235 -0.000708137 -0.00138016)
(0.102219 -0.000655621 -0.00138627)
(0.102184 -0.000614625 -0.00141375)
(0.102118 -0.000588765 -0.00146845)
(0.102016 -0.000586092 -0.00154847)
(0.102192 -0.000616411 -0.00163321)
(0.0968898 -0.000861099 -0.00100584)
(0.0966363 -0.000779107 -0.000992091)
(0.0963961 -0.000696005 -0.000996202)
(0.0961498 -0.000605161 -0.0010232)
(0.0958703 -0.00049843 -0.00108042)
(0.0955044 -0.000361129 -0.00115632)
(0.0954409 -0.000223119 -0.00121684)
(0.0881193 -0.000365784 -0.000429778)
(0.0875197 -0.000304297 -0.000406946)
(0.0869708 -0.00022718 -0.000399446)
(0.0864636 -0.00011073 -0.00041093)
(0.0859706 7.50395e-05 -0.000440891)
(0.0854483 0.000449835 -0.000425712)
(0.0850963 0.00130577 -0.000138071)
(0.0678266 -0.000359742 -0.000643945)
(0.0665865 -0.000350623 -0.000617956)
(0.0654304 -0.000331961 -0.00060737)
(0.0643997 -0.000269711 -0.000603616)
(0.0635954 -0.000114434 -0.000582657)
(0.0633458 5.48859e-05 -0.000597531)
(0.0610549 0.00065981 -0.000226032)
(0.0459477 0.000122254 -4.80879e-05)
(0.0449376 0.000130328 -9.14312e-06)
(0.0440362 0.000154908 2.93857e-05)
(0.0432878 0.00020178 0.000135351)
(0.043036 0.000242784 0.000390956)
(0.0414506 -0.000815413 0.00206564)
(0.0665865 0.000618024 -0.000350639)
(0.0654304 0.000607493 -0.000331959)
(0.0643996 0.000603847 -0.000269694)
(0.0635951 0.000583024 -0.000114407)
(0.0633452 0.000598251 5.48886e-05)
(0.0610538 0.000227138 0.000659228)
(0.0819033 0.00106143 -0.00086663)
(0.0810398 0.000985318 -0.000848673)
(0.0802644 0.000891228 -0.000807224)
(0.0796196 0.000738149 -0.000709318)
(0.0791949 0.000475948 -0.000553719)
(0.0782619 -0.000212862 -7.04963e-06)
(0.09098 0.000788523 -0.00113137)
(0.0904228 0.000687279 -0.00112334)
(0.0898782 0.000560448 -0.00110596)
(0.0893421 0.000383238 -0.00107006)
(0.0888216 0.000123226 -0.00101466)
(0.0882936 -0.000257103 -0.000930346)
(0.0947837 0.000228133 -0.00118132)
(0.0944154 0.000164012 -0.00119398)
(0.0940217 7.92393e-05 -0.00120931)
(0.0936015 -3.65337e-05 -0.00122614)
(0.0931452 -0.000185216 -0.00124411)
(0.092641 -0.000370451 -0.00128934)
(0.0947175 -0.000364299 -0.00120066)
(0.094312 -0.0003809 -0.00122452)
(0.0938663 -0.000423581 -0.00125689)
(0.093381 -0.000502735 -0.00129908)
(0.0928194 -0.000625879 -0.00134308)
(0.0921767 -0.000866339 -0.00141387)
(0.0914413 -0.000928572 -0.00116104)
(0.0908056 -0.000869844 -0.00117001)
(0.0901437 -0.000827931 -0.00118829)
(0.0894409 -0.000808196 -0.00121835)
(0.088677 -0.000822568 -0.0012676)
(0.087785 -0.000891834 -0.00135033)
(0.0868645 -0.0012483 -0.00155863)
(0.0827128 -0.00111801 -0.00090455)
(0.081702 -0.00103894 -0.000912872)
(0.0806962 -0.000961693 -0.000930935)
(0.0796708 -0.00088359 -0.000962295)
(0.0785652 -0.000798597 -0.00101113)
(0.077288 -0.000738362 -0.00111199)
(0.0759953 -0.000946326 -0.00167375)
(0.0677592 -0.000577152 -0.000387562)
(0.0664701 -0.000507739 -0.000386829)
(0.0652244 -0.000422617 -0.00039395)
(0.0640171 -0.000290089 -0.00040331)
(0.0628273 -8.52852e-05 -0.000404794)
(0.0616653 0.000285001 -0.000375588)
(0.0604664 0.000771856 -0.000884753)
(0.0470543 -7.83706e-05 -0.000124004)
(0.0459477 -4.81197e-05 -0.000122239)
(0.0449376 -9.16908e-06 -0.000130255)
(0.0440363 2.93263e-05 -0.000154774)
(0.0432881 0.000135246 -0.000201568)
(0.0430368 0.000390846 -0.000242414)
(0.0414525 0.00206576 0.000816231)
(0.0436963 -0.00234375 0.000660381)
(0.0378284 -0.000916979 -9.22922e-05)
(0.03542 -0.00019106 -0.000154967)
(0.0337109 -5.31508e-05 -5.82314e-05)
(0.0653442 -0.0024046 0.00107345)
(0.0606213 -0.00254233 0.000867526)
(0.0575057 -0.00199223 0.000490834)
(0.0549136 -0.00145815 0.000309811)
(0.0825309 -0.00284074 0.00166329)
(0.0797333 -0.00307959 0.00141487)
(0.0771256 -0.00259869 0.000913945)
(0.0528641 -0.00162494 -0.000493866)
(0.0523526 -0.00126796 -0.000139805)
(0.051273 -0.000380162 -0.000162632)
(0.0500607 2.24055e-05 -0.000118407)
(0.0803297 -0.00254464 0.000642097)
(0.0810955 -0.0025319 0.000527171)
(0.0808406 -0.00180243 0.000249212)
(0.0801787 -0.0011767 0.000122317)
(0.0945111 -0.00243114 0.000972369)
(0.0950626 -0.00283364 0.000828076)
(0.0951684 -0.00259336 0.000582108)
(0.0655485 -0.000427749 -0.00113427)
(0.0653201 -0.000726431 -0.00046935)
(0.064988 -0.0005444 -4.63348e-05)
(0.0902458 -0.00107412 -0.000244453)
(0.0905482 -0.0012692 0.000121096)
(0.0907018 -0.00118027 0.000287182)
(0.101028 -0.00162045 0.000455209)
(0.101428 -0.00182084 0.000478527)
(0.101754 -0.001804 0.000464045)
(0.074896 -0.000174687 -0.000566225)
(0.0751422 -0.000466074 -0.000171474)
(0.0751702 -0.00044114 0.000197177)
(0.0970894 -0.000653934 0.000111077)
(0.0970949 -0.000662818 0.000328529)
(0.097187 -0.000634656 0.000531404)
(0.105436 -0.00107941 0.000516881)
(0.105777 -0.00105846 0.000598875)
(0.106098 -0.00105653 0.000659089)
)
;

boundaryField
{
    inlet
    {
        type            fixedValue;
        value           nonuniform List<vector> 0();
    }
    ami1
    {
        type            cyclicAMI;
        value           nonuniform List<vector> 
100
(
(0.0493903 -0.00137815 0.000191633)
(0.0583932 -0.000324291 0.00146414)
(0.0746063 0.000924072 0.00207016)
(0.0866527 0.00131895 0.00210216)
(0.0922521 0.00101215 0.00178105)
(0.0924671 0.000564641 0.00143928)
(0.0878196 0.000375984 0.000908921)
(0.0791271 0.000170141 -9.92081e-06)
(0.0657284 -0.00026067 -0.000750131)
(0.0493963 -0.000189935 -0.00137858)
(0.0657247 -0.000748858 0.000264442)
(0.0837269 -0.000860943 0.000530935)
(0.094444 0.000279179 0.00146146)
(0.101572 0.000654204 0.00180998)
(0.105102 0.000575948 0.00177199)
(0.105491 0.000269763 0.00151406)
(0.102604 -6.55589e-05 0.000995173)
(0.0958004 -0.000468648 0.00013808)
(0.0837298 -0.000529315 -0.000861404)
(0.0583986 -0.00146352 -0.000324545)
(0.0791301 -9.51701e-06 -0.000166019)
(0.0958003 0.000140692 0.000470779)
(0.103425 0.000454884 0.00108835)
(0.108064 0.000521231 0.00142606)
(0.110481 0.000343444 0.00148021)
(0.110724 -4.08855e-05 0.00132413)
(0.108553 -0.000532563 0.000971938)
(0.103423 -0.00109 0.000454679)
(0.0944443 -0.00146126 0.000278719)
(0.0746102 -0.00206899 0.000922668)
(0.0878234 0.000907645 -0.000376277)
(0.102602 0.000999383 6.85879e-05)
(0.108553 0.000973408 0.000531448)
(0.111742 0.000672196 0.000849275)
(0.113346 0.000265588 0.00092219)
(0.11337 -0.000259456 0.000838621)
(0.111741 -0.000850858 0.000671824)
(0.108061 -0.00142731 0.000521399)
(0.101571 -0.00180931 0.000653459)
(0.0866547 -0.00209999 0.00131688)
(0.0924681 0.00143858 -0.000565809)
(0.105491 0.00151514 -0.000268745)
(0.110723 0.00132518 4.09058e-05)
(0.113371 0.000839024 0.000258654)
(0.114558 0.000283437 0.000308819)
(0.114558 -0.000309646 0.000283598)
(0.113345 -0.000923476 0.000266092)
(0.110479 -0.00148117 0.000344109)
(0.105101 -0.00177169 0.000575545)
(0.0922532 -0.00177919 0.0010109)
(0.092252 0.00178132 -0.00101288)
(0.105103 0.00177227 -0.000575631)
(0.110481 0.00148061 -0.000343406)
(0.113346 0.000922404 -0.000265881)
(0.114558 0.000308688 -0.000283808)
(0.114558 -0.000284277 -0.000309134)
(0.11337 -0.000839686 -0.000258725)
(0.110723 -0.00132534 -4.02708e-05)
(0.105489 -0.00151473 0.000269166)
(0.0924671 -0.00143807 0.00056407)
(0.086652 0.00210259 -0.00131949)
(0.101573 0.00181006 -0.000654347)
(0.108064 0.00142619 -0.000521387)
(0.111742 0.000849213 -0.00067222)
(0.113371 0.000258356 -0.000839052)
(0.113346 -0.000266505 -0.000922672)
(0.111742 -0.000672879 -0.000849767)
(0.108552 -0.000973649 -0.000531525)
(0.102601 -0.000998563 -6.7502e-05)
(0.0878205 -0.00090837 0.000375232)
(0.074605 0.00207021 -0.000924425)
(0.0944443 0.00146176 -0.000279733)
(0.103426 0.0010886 -0.000455391)
(0.108553 0.00053146 -0.000973637)
(0.110724 4.04004e-05 -0.00132498)
(0.11048 -0.00034417 -0.00148053)
(0.108063 -0.000522086 -0.00142642)
(0.103424 -0.000455732 -0.00108879)
(0.0957993 -0.0001402 -0.000469258)
(0.0791278 8.96619e-06 0.00016748)
(0.0583912 0.00146426 0.000324003)
(0.0837263 0.000531243 0.000860179)
(0.0958001 0.000470635 -0.000140953)
(0.102602 6.86141e-05 -0.000999396)
(0.105491 -0.000269029 -0.00151472)
(0.105103 -0.000575856 -0.00177179)
(0.101572 -0.000654545 -0.00180963)
(0.0944443 -0.000280089 -0.00146157)
(0.0837276 0.000860203 -0.000530047)
(0.065725 0.000748711 -0.00026234)
(0.0493886 0.000191859 0.00137774)
(0.0657231 0.000264531 0.00074789)
(0.0791286 -0.000165549 8.36384e-06)
(0.0878217 -0.000375388 -0.000908501)
(0.0924677 -0.000564913 -0.00143864)
(0.0922527 -0.00101198 -0.00178051)
(0.0866535 -0.0013185 -0.00210125)
(0.0746078 -0.000924025 -0.00206953)
(0.0583947 0.000323857 -0.00146384)
(0.0493918 0.00137786 -0.000190697)
)
;
    }
    walls
    {
        type            noSlip;
    }
    ami2
    {
        type            cyclicAMI;
        value           nonuniform List<vector> 
12
(
(0.0526807 -0.00162404 3.27269e-05)
(0.0710353 -0.00202416 0.00100468)
(0.084688 -0.00219709 0.00144192)
(0.0530892 -0.000916604 -0.000890041)
(0.0795035 -0.00190723 0.000436346)
(0.0940358 -0.00198299 0.000870619)
(0.0657757 -0.000218581 -0.00114218)
(0.0901136 -0.000845696 -0.000429143)
(0.100714 -0.00148972 0.000437778)
(0.0746194 -0.000125449 -0.000451931)
(0.0971519 -0.000630479 9.67482e-05)
(0.105135 -0.00111304 0.000517966)
)
;
    }
    outlet
    {
        type            zeroGradient;
    }
    procBoundary2to0
    {
        type            processor;
        value           nonuniform List<vector> 
28
(
(0.0326858 -2.46372e-05 1.19234e-05)
(0.0531653 -0.00105809 0.000231963)
(0.074571 -0.00211131 0.000493495)
(0.0897549 -0.00220093 0.00130571)
(0.0884021 -0.00264742 0.00136442)
(0.074571 -0.00211131 0.000493495)
(0.0870386 -0.00249807 0.00109013)
(0.0491621 0.000106747 -3.44221e-05)
(0.0643565 -0.000423707 0.000221097)
(0.0794606 -0.000780986 9.01048e-05)