/*--------------------------------*- C++ -*----------------------------------*\
| =========                 |                                                 |
| \\      /  F ield         | OpenFOAM: The Open Source CFD Toolbox           |
|  \\    /   O peration     | Version:  2212                                  |
|   \\  /    A nd           | Website:  www.openfoam.com                      |
|    \\/     M anipulation  |                                                 |
\*---------------------------------------------------------------------------*/
FoamFile
{
    version     2.0;
    format      ascii;
    arch        "LSB;label=32;scalar=64";
    class       surfaceVectorField;
    location    "1.8";
    object      Uf;
}
// * * * * * * * * * * * * * * * * * * * * * * * * * * * * * * * * * * * * * //

dimensions      [0 1 -1 0 0 0 0];

internalField   nonuniform List<vector> 
1769
(
(0.0454413 2.85674e-05 0.000126305)
(0.0541699 0.000163949 0.000188462)
(0.0542165 0.000143467 0.000276702)
(0.0444847 -1.01742e-05 0.000142634)
(0.0530654 0.000100436 0.000192634)
(0.053148 0.000119851 0.000289686)
(0.0436463 -8.24412e-05 0.00017836)
(0.0520414 1.29875e-05 0.000204583)
(0.0521949 8.24618e-05 0.000321236)
(0.0430299 -0.00026324 0.000222317)
(0.0511163 -0.000149494 0.000223441)
(0.0514242 -1.18291e-05 0.000394914)
(0.0429359 -0.00122846 -0.000286354)
(0.0504998 -0.000520045 0.000196166)
(0.0511733 -0.000157965 0.000553978)
(0.0490691 -0.00215415 -0.000488047)
(0.0493057 -0.00131754 -8.08277e-05)
(0.0658495 0.000465057 0.000390441)
(0.0732803 0.0008043 0.00064524)
(0.0758008 0.000389299 0.000329618)
(0.064619 0.000356163 0.000398707)
(0.0721418 0.000724763 0.000658097)
(0.0748639 0.000313584 0.000344153)
(0.0634245 0.000187419 0.000404167)
(0.0710157 0.000623136 0.000679924)
(0.0739669 0.000197808 0.000377258)
(0.0622686 -0.000100211 0.000390415)
(0.0698634 0.000473113 0.000703138)
(0.0730858 1.38934e-05 0.000420907)
(0.0611491 -0.00052874 0.000630714)
(0.0686495 0.000233485 0.000729134)
(0.072207 -0.000349285 0.000419597)
(0.0674078 0.000190118 0.00131426)
(0.0713829 -0.000980221 0.000621887)
(0.0812019 0.00100026 0.000921982)
(0.0859839 0.000927202 0.00102608)
(0.0885739 0.00090585 0.000903087)
(0.0801885 0.000922557 0.000946724)
(0.0851398 0.000867399 0.00104448)
(0.0879204 0.000827571 0.000920525)
(0.0791327 0.000841009 0.000986895)
(0.084266 0.000819308 0.00107589)
(0.0872533 0.000745125 0.000955205)
(0.0779686 0.00076845 0.00106187)
(0.083321 0.000791135 0.00112747)
(0.0865278 0.000651301 0.00101205)
(0.0765449 0.00084253 0.00139354)
(0.0822247 0.00083263 0.00122983)
(0.0856696 0.000557264 0.00110702)
(0.0811064 0.00122186 0.00165273)
(0.084942 0.000614399 0.00146666)
(0.0904771 0.000848842 0.00117922)
(0.0927083 0.000642593 0.00118714)
(0.0961544 0.000787181 0.00122753)
(0.0897957 0.000818017 0.00120343)
(0.0921711 0.000631371 0.00120843)
(0.095795 0.000740728 0.00124266)
(0.0890614 0.000815359 0.00124317)
(0.0915932 0.000645648 0.00124009)
(0.0954045 0.000711235 0.00127269)
(0.0882473 0.000857235 0.00130929)
(0.0909648 0.0006982 0.00128679)
(0.0949671 0.000706633 0.00132355)
(0.0873509 0.00107023 0.00145502)
(0.0902333 0.000802836 0.00135188)
(0.0944448 0.000740924 0.00139692)
(0.0894476 0.00110576 0.0014938)
(0.0940371 0.000943141 0.00153735)
(0.0945159 0.000372569 0.00121266)
(0.0947505 6.99806e-05 0.00119105)
(0.0994641 0.000348996 0.00132575)
(0.0940902 0.000402214 0.00124082)
(0.0943636 0.000110637 0.00120936)
(0.0993138 0.000359128 0.00134039)
(0.0936214 0.000463147 0.00127818)
(0.0939438 0.000173722 0.00123328)
(0.0991332 0.000391421 0.0013645)
(0.0931076 0.000564334 0.0013214)
(0.0934909 0.000268304 0.00126291)
(0.0989214 0.000453943 0.0013979)
(0.0925622 0.000746205 0.0013789)
(0.0929818 0.000395094 0.00129409)
(0.0986607 0.000551906 0.0014288)
(0.0924082 0.00059234 0.00135227)
(0.0984384 0.000721456 0.00147253)
(0.0945999 -0.000196063 0.00118775)
(0.09283 -0.000529755 0.00115734)
(0.0995212 -0.000228556 0.00130653)
(0.0942191 -0.000121627 0.00120182)
(0.0923647 -0.000446503 0.00115942)
(0.0994032 -0.000168709 0.00131015)
(0.0938119 -2.1384e-05 0.00121801)
(0.0918934 -0.000341203 0.00115817)
(0.0992682 -9.13116e-05 0.00131722)
(0.0933751 0.00011078 0.00123561)
(0.0914134 -0.000200047 0.00114881)
(0.0991143 1.22655e-05 0.00132582)
(0.0929039 0.000277513 0.00126746)
(0.0909237 -1.34956e-05 0.00113158)
(0.0989401 0.000145184 0.00133092)
(0.0904073 0.000242416 0.00111394)
(0.098789 0.000307945 0.00134338)
(0.0912635 -0.000835078 0.00113423)
(0.0869319 -0.000981552 0.000991292)
(0.0965877 -0.000813981 0.00119653)
(0.0907004 -0.000737848 0.00112744)
(0.0861726 -0.000894835 0.000981924)
(0.0963029 -0.000729331 0.00118131)
(0.0901503 -0.000623811 0.00111481)
(0.0854531 -0.000800612 0.00096715)
(0.0960305 -0.000639679 0.00116544)
(0.0896132 -0.000471797 0.00108833)
(0.0847862 -0.00067773 0.000933853)
(0.0957711 -0.000533155 0.00114276)
(0.0890802 -0.000253202 0.00104291)
(0.0841922 -0.000490882 0.000859803)
(0.0955206 -0.000392738 0.00110554)
(0.0885343 6.69439e-05 0.000973294)
(0.083722 -0.000210399 0.000746727)
(0.0952861 -0.000195875 0.00105084)
(0.0829805 0.000300557 0.000425551)
(0.0950681 8.76761e-05 0.000961027)
(0.0823647 -0.00109837 0.000872151)
(0.0745355 -0.000921776 0.000614064)
(0.0893326 -0.00101319 0.000858212)
(0.0814667 -0.00102322 0.000857643)
(0.0734348 -0.000872364 0.000603338)
(0.0887347 -0.000949681 0.000835328)
(0.0806447 -0.000938014 0.000827957)
(0.0724095 -0.000830687 0.000584307)
(0.0881907 -0.000888995 0.000803117)
(0.0799343 -0.000814246 0.000758289)
(0.071493 -0.000785368 0.000530941)
(0.0877119 -0.000818723 0.00074299)
(0.0793796 -0.000606287 0.00063145)
(0.0707601 -0.000682086 0.000392254)
(0.0873184 -0.000712477 0.000622263)
(0.0790248 -0.000128862 0.000279791)
(0.0704322 -0.000457426 0.000183775)
(0.0870498 -0.000533662 0.000427202)
(0.0687501 0.000233735 -0.000464876)
(0.0865089 -8.01098e-05 -4.30184e-05)
(0.0672052 -0.000630917 0.000355172)
(0.0553767 -0.000278069 0.00015943)
(0.0768219 -0.0005122 0.000275873)
(0.0660042 -0.0006126 0.000341279)
(0.0542166 -0.000276654 0.000143514)
(0.0758657 -0.000488278 0.000245125)
(0.0648988 -0.000605364 0.000300808)
(0.0531481 -0.000289558 0.000119905)
(0.0749789 -0.000478343 0.000198905)
(0.0639547 -0.000592886 0.000192014)
(0.0521951 -0.000320987 8.25505e-05)
(0.0741803 -0.000478785 0.000106721)
(0.0633583 -0.000589547 2.96195e-05)
(0.0514247 -0.00039448 -1.17009e-05)
(0.0735143 -0.00047413 -7.65737e-05)
(0.0634868 -0.000410843 -0.000357948)
(0.0511744 -0.000553114 -0.000157858)
(0.0731441 -0.000433191 -0.000436355)
(0.0493085 8.28611e-05 -0.00131834)
(0.0717139 0.000221012 -0.00190433)
(0.0465014 -0.000123119 6.32164e-05)
(0.0553497 -0.000190299 0.000210821)
(0.0454414 -0.00012624 2.86128e-05)
(0.05417 -0.000188435 0.000163987)
(0.0444849 -0.000142496 -1.01107e-05)
(0.0530656 -0.000192576 0.000100504)
(0.0436468 -0.000178125 -8.23322e-05)
(0.0520419 -0.000204473 1.31106e-05)
(0.0430307 -0.000221887 -0.000263106)
(0.0511171 -0.000223267 -0.000149271)
(0.0429378 0.000287254 -0.00122851)
(0.0505015 -0.000195795 -0.00051971)
(0.049073 0.00048893 -0.00215404)
(0.0660041 0.000341251 0.000612773)
(0.0758657 0.000245085 0.000488346)
(0.0734348 0.000603305 0.000872461)
(0.0648986 0.000300755 0.000605681)
(0.0749787 0.00019886 0.000478518)
(0.0724096 0.000584244 0.000830855)
(0.0639544 0.000191942 0.000593446)
(0.07418 0.00010665 0.000479124)
(0.0714931 0.000530825 0.000785683)
(0.0633577 2.95828e-05 0.000590618)
(0.0735137 -7.66847e-05 0.000474736)
(0.0707602 0.000392108 0.000682701)
(0.0634853 -0.000357519 0.000412525)
(0.073143 -0.00043642 0.000434351)
(0.0704324 0.000183722 0.000458762)
(0.0717116 -0.00190427 -0.000219594)
(0.0687493 -0.000463584 -0.000229056)
(0.0872445 0.000265606 0.000403279)
(0.0917524 0.000582845 0.000695429)
(0.0918049 0.000600118 0.000677992)
(0.0867173 0.000168836 0.000405411)
(0.0913468 0.0004998 0.000692523)
(0.0914323 0.000532716 0.000655326)
(0.0862259 1.76972e-05 0.000426299)
(0.0909606 0.000388998 0.000709543)
(0.0910999 0.000433094 0.000643838)
(0.0857283 -0.000262561 0.000433972)
(0.0905667 0.000233504 0.000750464)
(0.0907899 0.000275128 0.000642806)
(0.0851222 -0.000878052 0.000282791)
(0.0901168 -1.21726e-05 0.000783325)
(0.0904706 -1.17448e-05 0.000626868)
(0.0898984 -0.000465445 0.000677499)
(0.0902431 -0.000616113 0.000461775)
(0.0965172 0.000737442 0.000994222)
(0.099315 0.00072812 0.00117476)
(0.0996428 0.000887562 0.00106866)
(0.0962758 0.000650485 0.00100989)
(0.0991823 0.000659391 0.00117986)
(0.0995628 0.000808597 0.00106122)
(0.0960161 0.000551686 0.0010521)
(0.0990369 0.000593941 0.00120748)
(0.0994845 0.000723079 0.00107837)
(0.0957026 0.000429708 0.00111887)
(0.0988595 0.000532045 0.00126472)
(0.0993913 0.000622802 0.00112794)
(0.095287 0.000292116 0.00118732)
(0.0986199 0.000471571 0.00134505)
(0.0992546 0.000495526 0.00120182)
(0.0986707 0.000441196 0.0014222)
(0.0993373 0.000368101 0.00129853)
(0.102228 0.000681803 0.0013833)
(0.103486 0.000537687 0.00145729)
(0.104381 0.000742301 0.00141503)
(0.102203 0.000635053 0.00140018)
(0.103545 0.000512861 0.00146169)
(0.104507 0.000688246 0.00141159)
(0.102154 0.000601642 0.00144139)
(0.103584 0.000503717 0.00148306)
(0.104619 0.000643543 0.00143154)
(0.102069 0.000587446 0.00150891)
(0.103597 0.000514827 0.00152508)
(0.104712 0.000609338 0.00147995)
(0.101936 0.000601358 0.00159148)
(0.103583 0.00055164 0.0015853)
(0.104791 0.000588317 0.00155283)
(0.103795 0.00061061 0.00165125)
(0.105077 0.000586868 0.00163199)
(0.104859 0.000337112 0.0015367)
(0.104814 5.36343e-05 0.00152331)
(0.106571 0.000328619 0.00155169)
(0.104986 0.000348807 0.00154522)
(0.104963 8.35901e-05 0.00151903)
(0.106833 0.000325212 0.00154503)
(0.105093 0.000381168 0.00156661)
(0.105099 0.000129129 0.00152365)
(0.107078 0.000335131 0.00155214)
(0.105177 0.000438675 0.0016001)
(0.105219 0.000196264 0.00153753)
(0.107308 0.000362511 0.00157501)
(0.105231 0.000520002 0.00164272)
(0.105329 0.000288785 0.00155758)
(0.107529 0.000408943 0.00161184)
(0.105577 0.00040205 0.00157674)
(0.107883 0.000467199 0.00165697)
(0.104919 -0.000204969 0.00150564)
(0.10357 -0.000467909 0.00141303)
(0.106607 -0.000254423 0.00152437)
(0.105078 -0.000142661 0.00149746)
(0.103676 -0.000400176 0.00139037)
(0.106888 -0.000209771 0.00150269)
(0.10523 -6.30456e-05 0.00149457)
(0.103785 -0.000321523 0.00136885)
(0.107163 -0.000156326 0.00148849)
(0.105371 3.92736e-05 0.00149501)
(0.103895 -0.000224349 0.00134462)
(0.107431 -8.90704e-05 0.00148179)
(0.105495 0.00016515 0.00149159)
(0.104011 -0.000100955 0.00131302)
(0.107703 -4.02129e-06 0.00148151)
(0.1042 6.11617e-05 0.00124928)
(0.108052 9.55237e-05 0.00147884)
(0.102334 -0.000713884 0.00133563)
(0.0995224 -0.00081447 0.00114065)
(0.104301 -0.000800039 0.00139595)
(0.102379 -0.000636543 0.00130041)
(0.0994311 -0.000746137 0.00109644)
(0.104466 -0.00073139 0.0013461)
(0.102438 -0.000555159 0.00126516)
(0.0993674 -0.000681733 0.00104963)
(0.104639 -0.000666976 0.00130078)
(0.102509 -0.000462805 0.00122341)
(0.0993304 -0.000614717 0.000988804)
(0.104822 -0.000603131 0.00125477)
(0.102588 -0.000349573 0.00116869)
(0.0993146 -0.000537668 0.000898592)
(0.105015 -0.000534523 0.00120304)
(0.102661 -0.000197819 0.00107915)
(0.099314 -0.000430826 0.000762062)
(0.105227 -0.000452199 0.00114272)
(0.099335 -0.000237162 0.000516609)
(0.105481 -0.000336903 0.0010529)
(0.0968536 -0.000875786 0.000925588)
(0.0922237 -0.000713899 0.000655815)
(0.0997736 -0.00101189 0.00103845)
(0.0966639 -0.000825829 0.000871773)
(0.091805 -0.00067798 0.00060015)
(0.0997024 -0.000961089 0.000973639)
(0.0965147 -0.000782347 0.000802336)
(0.0914325 -0.00065521 0.000532697)
(0.0996599 -0.000924498 0.000904645)
(0.0964014 -0.000738664 0.000697589)
(0.0911001 -0.000643575 0.000433035)
(0.0996425 -0.000899542 0.000819583)
(0.0963077 -0.000681586 0.000533169)
(0.0907904 -0.000642292 0.000275027)
(0.0996446 -0.000884732 0.000703123)
(0.0962023 -0.00056383 0.000254688)
(0.0904713 -0.00062585 -1.21389e-05)
(0.0996559 -0.000865585 0.000539602)
(0.0902445 -0.000459715 -0.000617363)
(0.099728 -0.000791945 0.000299772)
(0.0878194 -0.000418381 0.000334975)
(0.0767843 -0.000329971 0.000450936)
(0.0921913 -0.000714483 0.000655415)
(0.0872446 -0.000403212 0.000265641)
(0.0758009 -0.00032963 0.00038935)
(0.0917525 -0.000695421 0.000582818)
(0.0867176 -0.000405189 0.00016881)
(0.0748642 -0.000344101 0.000313618)
(0.091347 -0.000692392 0.000499687)
(0.0862264 -0.000425853 1.76192e-05)
(0.0739674 -0.000377109 0.000197837)
(0.090961 -0.000709255 0.000388793)
(0.0857293 -0.000433176 -0.000262758)
(0.0730868 -0.000420606 1.39125e-05)
(0.0905673 -0.000749913 0.000233137)
(0.085124 -0.000281668 -0.000878278)
(0.0722089 -0.000418955 -0.000349359)
(0.0901178 -0.000782391 -1.28424e-05)
(0.0713866 -0.000620822 -0.000980418)
(0.0899001 -0.000676485 -0.000466124)
(0.0671165 -0.000387213 0.000542383)
(0.0744451 -0.000641651 0.000877422)
(0.0658498 -0.000390409 0.000465084)
(0.0732805 -0.000645177 0.000804194)
(0.0646195 -0.00039865 0.000356217)
(0.0721422 -0.00065801 0.000724638)
(0.0634255 -0.000404052 0.000187497)
(0.0710164 -0.000679773 0.000622967)
(0.0622703 -0.000390136 -0.000100131)
(0.0698646 -0.000702843 0.000472816)
(0.0611524 -0.000630083 -0.0005288)
(0.0686518 -0.000728503 0.000232861)
(0.0674122 -0.00131298 0.000188858)
(0.0814669 0.000857586 0.00102333)
(0.0887348 0.000835316 0.000949745)
(0.0861727 0.00098185 0.000894867)
(0.080645 0.000827841 0.00093821)
(0.0881908 0.000803072 0.000889111)
(0.0854533 0.000967021 0.00080067)
(0.0799348 0.000758088 0.000814597)
(0.0877121 0.000742879 0.000818926)
(0.0847866 0.000933602 0.000677816)
(0.0793806 0.000631188 0.000606926)
(0.0873187 0.000622047 0.000712829)
(0.0841931 0.000859357 0.000491052)
(0.0790267 0.000279798 0.000131344)
(0.0870506 0.000427018 0.000534341)
(0.0837237 0.000746037 0.000210627)
(0.0865091 -4.22345e-05 8.31882e-05)
(0.0829822 0.000424913 -0.000298884)
(0.0966639 0.0008718 0.00082589)
(0.0997024 0.0009737 0.00096109)
(0.0994311 0.00109643 0.000746127)
(0.0965147 0.000802387 0.000782488)
(0.09966 0.000904765 0.000924555)
(0.0993674 0.0010496 0.000681751)
(0.0964013 0.000697648 0.000738906)
(0.0996425 0.000819781 0.000899685)
(0.0993303 0.000988755 0.000614773)
(0.0963076 0.000533401 0.000682061)
(0.0996447 0.000703412 0.000884959)
(0.0993144 0.00089849 0.000537748)
(0.0962023 0.00025601 0.000565198)
(0.0996562 0.000540218 0.00086595)
(0.0993137 0.000762265 0.000431112)
(0.0997286 0.000301341 0.00079267)
(0.0993343 0.000519467 0.000239106)
(0.103042 0.000955052 0.00106138)
(0.104798 0.000877806 0.00121724)
(0.104821 0.00114332 0.000927287)
(0.103147 0.000876478 0.00104617)
(0.104985 0.000810721 0.0011948)
(0.10502 0.00107664 0.000888843)
(0.103259 0.000787096 0.00105422)
(0.105173 0.000744262 0.00119419)
(0.105227 0.00100784 0.000865554)
(0.103373 0.000676918 0.00108237)
(0.105361 0.000673112 0.00121813)
(0.105442 0.00092989 0.000857972)
(0.103475 0.000546246 0.00111212)
(0.105556 0.000588575 0.00125725)
(0.105669 0.000835058 0.000857974)
(0.10588 0.000497463 0.00128816)
(0.105983 0.000726769 0.000837768)
(0.10687 0.00074224 0.00136287)
(0.107602 0.000550965 0.00143647)
(0.107963 0.000845137 0.00116538)
(0.107148 0.000689256 0.00135543)
(0.107942 0.000517856 0.00141687)
(0.108336 0.000791076 0.00113841)
(0.10742 0.000641909 0.0013709)
(0.10827 0.000492158 0.00141581)
(0.108701 0.000742978 0.00112855)
(0.107686 0.00059751 0.0014059)
(0.10859 0.000474211 0.00143393)
(0.109061 0.000698728 0.00113553)
(0.107944 0.000555478 0.00144654)
(0.108916 0.000462698 0.00146455)
(0.10943 0.000653992 0.00115449)
(0.109353 0.000453927 0.00149253)
(0.109893 0.000611121 0.00116904)
(0.108703 0.000313212 0.00149221)
(0.108516 2.25636e-05 0.00148929)
(0.109447 0.000331847 0.00127215)
(0.109096 0.000307128 0.00147884)
(0.108921 3.46578e-05 0.00146112)
(0.109926 0.000317925 0.00124417)
(0.109477 0.000310631 0.00148013)
(0.109316 5.27325e-05 0.00144503)
(0.11039 0.00030959 0.0012298)
(0.10985 0.000324683 0.00149341)
(0.109704 7.99283e-05 0.00143957)
(0.110843 0.000307745 0.00122687)
(0.110214 0.000344722 0.00151082)
(0.1101 0.000118598 0.00144035)
(0.111299 0.000311443 0.00123159)
(0.110564 0.00016194 0.00143823)
(0.111824 0.000315458 0.00123569)
(0.108733 -0.000259113 0.00145821)
(0.107638 -0.000534945 0.0013897)
(0.109462 -0.000309405 0.00125097)
(0.109141 -0.000224373 0.00142731)
(0.107996 -0.000492765 0.00134322)
(0.109948 -0.000283551 0.00121146)
(0.109544 -0.000184782 0.00140447)
(0.108353 -0.000452723 0.00130239)
(0.110423 -0.00025688 0.00118096)
(0.109949 -0.000136655 0.00138651)
(0.108715 -0.00041176 0.00126362)
(0.110892 -0.000227133 0.00115569)
(0.110359 -8.00806e-05 0.00136777)
(0.109092 -0.000363396 0.00122259)
(0.111367 -0.000191647 0.00113102)
(0.109516 -0.000300615 0.00117367)
(0.111886 -0.000153623 0.00110394)
(0.106625 -0.00081412 0.00133804)
(0.104631 -0.00098088 0.00121383)
(0.107597 -0.000921304 0.0011779)
(0.106929 -0.000759499 0.00127763)
(0.104821 -0.000927359 0.00114325)
(0.107987 -0.000867166 0.00111525)
(0.107239 -0.000714391 0.00122175)
(0.10502 -0.000888907 0.00107651)
(0.108373 -0.000824575 0.0010599)
(0.107556 -0.00067684 0.00116577)
(0.105227 -0.000865617 0.00100762)
(0.108758 -0.000792348 0.0010083)
(0.107887 -0.000642328 0.00110503)
(0.105442 -0.000858084 0.000929515)
(0.109147 -0.00076837 0.000956284)
(0.108236 -0.000600261 0.00103542)
(0.105669 -0.000858307 0.00083443)
(0.10955 -0.000747221 0.000896749)
(0.105982 -0.000838901 0.000725909)
(0.110002 -0.000716949 0.000828301)
(0.102951 -0.00109703 0.001031)
(0.0997368 -0.00109611 0.00096671)
(0.104617 -0.00125956 0.000950021)
(0.103042 -0.00106139 0.00095492)
(0.0996428 -0.00106867 0.000887477)
(0.104798 -0.00121729 0.000877696)
(0.103147 -0.00104613 0.000876239)
(0.0995629 -0.00106114 0.000808414)
(0.104985 -0.00119481 0.000810519)
(0.103259 -0.00105412 0.000786712)
(0.0994846 -0.00107816 0.00072276)
(0.105173 -0.00119416 0.000743935)
(0.103372 -0.0010823 0.000676333)
(0.0993914 -0.00112753 0.000622276)
(0.105361 -0.00121806 0.000672628)
(0.103474 -0.00111254 0.000545627)
(0.0992546 -0.00120125 0.000494713)
(0.105555 -0.00125731 0.000587913)
(0.099337 -0.0012982 0.000367315)
(0.105878 -0.00128886 0.000496929)
(0.0967634 -0.000998986 0.000819929)
(0.0892363 -0.000898335 0.000984302)
(0.0994499 -0.00118789 0.00080211)
(0.0965172 -0.000994167 0.00073731)
(0.0885741 -0.000903058 0.000905733)
(0.099315 -0.00117474 0.000728)
(0.0962759 -0.00100971 0.000650233)
(0.0879206 -0.000920445 0.000827381)
(0.0991824 -0.00117974 0.000659165)
(0.0960164 -0.00105174 0.000551252)
(0.0872538 -0.000955021 0.00074482)
(0.0990369 -0.0012072 0.000593564)
(0.0957031 -0.00111824 0.000429007)
(0.0865286 -0.00101166 0.00065078)
(0.0988596 -0.00126419 0.000531425)
(0.0952875 -0.00118661 0.000291259)
(0.085671 -0.00110629 0.000556342)
(0.0986199 -0.00134421 0.000470586)
(0.0849443 -0.00146543 0.000613033)
(0.0986703 -0.0014213 0.000440015)
(0.082209 -0.000908714 0.0010783)
(0.0868184 -0.00101753 0.000997165)
(0.0812022 -0.000921897 0.00100008)
(0.0859841 -0.001026 0.000927013)
(0.080189 -0.000946582 0.000922299)
(0.0851401 -0.00104435 0.00086713)
(0.0791336 -0.000986618 0.000840597)
(0.0842665 -0.00107566 0.000818901)
(0.0779702 -0.00106133 0.000767698)
(0.083322 -0.00112701 0.000790487)
(0.0765476 -0.00139245 0.000841177)
(0.0822263 -0.00122898 0.000831551)
(0.0811094 -0.00165104 0.00121993)
(0.0907007 0.00112729 0.000737833)
(0.096303 0.00118123 0.000729319)
(0.0928302 0.00115724 0.000529714)
(0.0901507 0.00111454 0.000623757)
(0.0960306 0.00116527 0.000639653)
(0.092365 0.00115925 0.000446433)
(0.089614 0.00108782 0.000471674)
(0.0957714 0.00114244 0.000533088)
(0.0918939 0.00115786 0.000341046)
(0.0890817 0.00104201 0.000252959)
(0.0955211 0.00110493 0.000392626)
(0.0914142 0.00114824 0.000199734)
(0.0885369 0.000971963 -6.73566e-05)
(0.0952869 0.00104996 0.00019577)
(0.0909251 0.00113063 1.28923e-05)
(0.0950691 0.000961325 -8.67946e-05)
(0.0904091 0.00111265 -0.00024343)
(0.102379 0.00130036 0.000636528)
(0.104466 0.00134611 0.000731349)
(0.10357 0.00141299 0.000467882)
(0.102438 0.00126504 0.000555137)
(0.104639 0.00130079 0.000666922)
(0.103676 0.00139029 0.000400143)
(0.102509 0.0012232 0.000462787)
(0.104822 0.00125477 0.000603061)
(0.103785 0.0013687 0.000321485)
(0.102588 0.00116859 0.000349694)
(0.105015 0.00120307 0.00053443)
(0.103894 0.00134441 0.000224329)
(0.10266 0.00108102 0.000199282)
(0.105226 0.00114307 0.000452187)
(0.10401 0.001313 0.000101172)
(0.10548 0.00105556 0.000338042)
(0.104199 0.00125147 -5.93697e-05)
(0.106929 0.0012777 0.000759416)
(0.107987 0.00111532 0.000867064)
(0.107638 0.00138974 0.000534876)
(0.107239 0.00122188 0.000714284)
(0.108373 0.00106002 0.000824441)
(0.107996 0.00134328 0.000492684)
(0.107556 0.001166 0.000676687)
(0.108758 0.0010085 0.000792161)
(0.108353 0.0013025 0.000452631)
(0.107887 0.00110548 0.000642078)
(0.109147 0.000956626 0.000768083)
(0.108715 0.00126383 0.000411655)
(0.108235 0.00103638 0.000599822)
(0.10955 0.000897345 0.000746751)
(0.109092 0.00122305 0.000363297)
(0.110003 0.00082945 0.000716128)
(0.109515 0.00117474 0.000300552)
(0.109505 0.000899199 0.000938161)
(0.109847 0.000640107 0.000996257)
(0.10985 0.000973486 0.000654094)
(0.109971 0.0008502 0.000908982)
(0.110363 0.000605338 0.000961368)
(0.110367 0.000926421 0.00062684)
(0.110432 0.000805365 0.000890958)
(0.110867 0.000574592 0.000938161)
(0.110872 0.000886076 0.000606133)
(0.110891 0.000760823 0.000881287)
(0.111364 0.000546481 0.000924274)
(0.11137 0.000849522 0.000590362)
(0.111351 0.000715194 0.000873439)
(0.111866 0.000517935 0.000915862)
(0.111875 0.000812205 0.00057631)
(0.112419 0.00048983 0.000904943)
(0.112426 0.000775585 0.000559652)
(0.110722 0.000337421 0.0010206)
(0.110444 1.22275e-06 0.00103061)
(0.110875 0.000358286 0.000710716)
(0.111277 0.000320983 0.000991669)
(0.111008 1.7514e-06 0.000992174)
(0.11148 0.000340805 0.00068545)
(0.111819 0.000306831 0.000972564)
(0.111556 2.85873e-06 0.000963457)
(0.112064 0.000325532 0.000666734)
(0.112353 0.000293901 0.000959849)
(0.112094 4.76488e-06 0.000941241)
(0.112634 0.000310971 0.000651823)
(0.112881 0.000280634 0.000948218)
(0.112634 7.4914e-06 0.000921718)
(0.113199 0.000293403 0.00063529)
(0.113216 8.60775e-06 0.000901688)
(0.113813 0.000282321 0.000621688)
(0.110728 -0.000336135 0.00100219)
(0.10985 -0.000654223 0.00097344)
(0.110878 -0.000359776 0.000701676)
(0.111286 -0.000318841 0.000963962)
(0.110367 -0.000627009 0.000926347)
(0.111483 -0.000343118 0.000671694)
(0.111831 -0.000302669 0.000932134)
(0.110872 -0.00060637 0.000885958)
(0.112069 -0.000328485 0.000646531)
(0.112369 -0.000286491 0.00090311)
(0.11137 -0.00059071 0.000849343)
(0.112641 -0.000314217 0.000623259)
(0.112901 -0.00027077 0.000875187)
(0.111874 -0.000576855 0.000811943)
(0.113208 -0.000296782 0.000596977)
(0.112425 -0.000560558 0.000775183)
(0.11382 -0.000287518 0.000576368)
(0.109028 -0.000979904 0.000954546)
(0.107581 -0.00120936 0.000907359)
(0.109314 -0.00104399 0.000680061)
(0.109505 -0.000938318 0.000899111)
(0.107963 -0.00116548 0.000845053)
(0.109847 -0.000996406 0.000640078)
(0.109971 -0.000909203 0.000850056)
(0.108336 -0.00113854 0.000790933)
(0.110363 -0.000961568 0.000605291)
(0.110431 -0.00089129 0.000805142)
(0.108701 -0.00112873 0.000742754)
(0.110867 -0.000938444 0.00057452)
(0.11089 -0.000881813 0.00076051)
(0.10906 -0.00113581 0.000698408)
(0.111363 -0.000924696 0.000546391)
(0.11135 -0.000874328 0.000714771)
(0.109429 -0.00115499 0.000653594)
(0.111866 -0.000916522 0.000517865)
(0.109892 -0.00117007 0.000610763)
(0.112419 -0.00090605 0.000489846)
(0.106587 -0.00139153 0.000802863)
(0.104247 -0.00143863 0.000806294)
(0.107254 -0.0014751 0.000592075)
(0.10687 -0.00136292 0.0007421)
(0.104381 -0.00141502 0.000742182)
(0.107602 -0.00143654 0.000550895)
(0.107148 -0.00135546 0.000689031)
(0.104507 -0.00141152 0.000688045)
(0.107941 -0.00141695 0.000517743)
(0.107419 -0.00137091 0.000641582)
(0.104619 -0.00143135 0.000643226)
(0.10827 -0.00141589 0.000492002)
(0.107685 -0.00140599 0.000597095)
(0.104711 -0.00147961 0.000608854)
(0.108589 -0.00143404 0.000474021)
(0.107942 -0.00144691 0.000555123)
(0.10479 -0.00155235 0.000587602)
(0.108915 -0.0014648 0.000462551)
(0.105075 -0.0016315 0.000586078)
(0.109351 -0.00149316 0.000454081)
(0.102238 -0.00138623 0.000739629)
(0.0964952 -0.00122417 0.000847259)
(0.103414 -0.00146925 0.000575005)
(0.102228 -0.0013832 0.000681628)
(0.0961544 -0.00122746 0.000787016)
(0.103486 -0.00145724 0.000537569)
(0.102203 -0.00139996 0.00063477)
(0.0957951 -0.00124251 0.000740475)
(0.103545 -0.00146158 0.00051267)
(0.102154 -0.00144097 0.000601186)
(0.0954046 -0.00127239 0.000710844)
(0.103584 -0.00148283 0.000503415)
(0.102069 -0.0015082 0.000586696)
(0.0949673 -0.00132298 0.00070602)
(0.103597 -0.00152465 0.00051436)
(0.101935 -0.00159048 0.000600273)
(0.0944451 -0.00139594 0.000739973)
(0.103582 -0.0015846 0.000550921)
(0.0940375 -0.00153569 0.000941608)
(0.103793 -0.00165048 0.000609747)
(0.091125 -0.00116551 0.00089901)
(0.0932137 -0.0011739 0.000671371)
(0.0904772 -0.00117911 0.000848605)
(0.0927084 -0.00118707 0.000642422)
(0.089796 -0.00120322 0.000817665)
(0.0921712 -0.00120829 0.000631122)
(0.0890619 -0.00124277 0.000814825)
(0.0915935 -0.00123982 0.000645274)
(0.0882482 -0.00130855 0.000856443)
(0.0909652 -0.00128627 0.000697645)
(0.0873523 -0.00145364 0.00106889)
(0.0902341 -0.00135099 0.000802044)
(0.0894491 -0.00149232 0.00110453)
(0.0946001 0.00118764 0.00019599)
(0.0995213 0.00130645 0.000228505)
(0.0947506 0.00119101 -7.00627e-05)
(0.0942194 0.00120162 0.000121503)
(0.0994034 0.00131003 0.000168636)
(0.0943637 0.00120929 -0.000110765)
(0.0938123 0.00121767 2.1156e-05)
(0.0992684 0.001317 9.12009e-05)
(0.093944 0.00123315 -0.000173928)
(0.0933758 0.00123502 -0.000111198)
(0.0991145 0.00132545 -1.24372e-05)
(0.0934912 0.00126268 -0.000268629)
(0.0929048 0.00126661 -0.000278361)
(0.0989403 0.00133034 -0.000145411)
(0.0929822 0.00129371 -0.000395577)
(0.0987892 0.00134289 -0.000308242)
(0.0924087 0.0013518 -0.000593147)
(0.104919 0.00150558 0.000204921)
(0.106607 0.00152436 0.000254367)
(0.104814 0.00152329 -5.36992e-05)
(0.105078 0.00149737 0.000142609)
(0.106888 0.00150266 0.000209709)
(0.104963 0.001519 -8.36625e-05)
(0.105229 0.00149443 6.30076e-05)
(0.107163 0.00148846 0.000156262)
(0.105099 0.00152359 -0.0001292)
(0.10537 0.00149487 -3.92149e-05)
(0.107431 0.00148178 8.90301e-05)
(0.105219 0.00153744 -0.000196293)
(0.105494 0.00149185 -0.000164731)
(0.107703 0.00148167 4.09844e-06)
(0.105329 0.00155754 -0.000288646)
(0.108052 0.00147965 -9.50952e-05)
(0.105576 0.00157716 -0.00040146)
(0.108733 0.00145823 0.000259043)
(0.109462 0.00125101 0.000309313)
(0.108516 0.00148932 -2.26355e-05)
(0.109141 0.00142735 0.000224298)
(0.109948 0.0012115 0.000283439)
(0.108921 0.00146115 -3.47324e-05)
(0.109544 0.00140455 0.000184714)
(0.110423 0.00118102 0.000256742)
(0.109316 0.00144507 -5.28027e-05)
(0.109949 0.00138673 0.000136626)
(0.110892 0.00115581 0.000226967)
(0.109704 0.00143965 -7.99745e-05)
(0.110359 0.00136833 8.0147e-05)
(0.111367 0.00113128 0.000191455)
(0.110099 0.00144056 -0.000118584)
(0.111886 0.00110453 0.000153392)
(0.110564 0.00143878 -0.000161841)
(0.110729 0.00100222 0.000335999)
(0.110878 0.00070168 0.000359646)
(0.110444 0.00103063 -1.33897e-06)
(0.111286 0.000964008 0.000318663)
(0.111483 0.000671697 0.000342948)
(0.111008 0.000992195 -1.89507e-06)
(0.111831 0.000932206 0.000302428)
(0.112069 0.000646535 0.000328259)
(0.111556 0.000963483 -3.03763e-06)
(0.112369 0.000903236 0.000286153)
(0.112641 0.00062327 0.000313909)
(0.112094 0.000941284 -4.99106e-06)
(0.112901 0.000875428 0.000270266)
(0.113208 0.000597016 0.000296352)
(0.112634 0.000921809 -7.78657e-06)
(0.11382 0.000576465 0.000286869)
(0.113216 0.000901913 -9.03483e-06)
(0.111644 0.000361991 0.000366991)
(0.111321 -1.85044e-06 0.000372607)
(0.111321 0.000372586 1.7248e-06)
(0.112279 0.000345686 0.000352988)
(0.111968 -2.75449e-06 0.0003564)
(0.111968 0.000356368 2.59483e-06)
(0.112894 0.000330003 0.000340238)
(0.11259 -3.94613e-06 0.000342311)
(0.11259 0.00034226 3.74067e-06)
(0.11349 0.000310759 0.000324628)
(0.113195 -5.43505e-06 0.000327986)
(0.113195 0.000327911 5.16889e-06)
(0.114067 0.000295435 0.000313578)
(0.113788 -7.22882e-06 0.000307476)
(0.113788 0.000307377 6.88171e-06)
(0.114432 -9.39742e-06 0.000301641)
(0.114432 0.000301513 8.90459e-06)
(0.111644 -0.000367155 0.000362015)
(0.110875 -0.00071087 0.000358297)
(0.111321 -0.000372748 -1.80801e-06)
(0.112279 -0.000353206 0.000345724)
(0.111479 -0.000685655 0.000340824)
(0.111967 -0.000356587 -2.68929e-06)
(0.112893 -0.000340532 0.00033006)
(0.112064 -0.000667014 0.000325565)
(0.11259 -0.000342561 -3.84696e-06)
(0.11349 -0.000325028 0.000310835)
(0.112634 -0.000652218 0.000311031)
(0.113195 -0.000328321 -5.28973e-06)
(0.114066 -0.000314154 0.00029554)
(0.113199 -0.000635864 0.000293514)
(0.113788 -0.000307928 -7.02623e-06)
(0.113813 -0.000622584 0.000282552)
(0.114432 -0.000302284 -9.11e-06)
(0.110149 -0.00106162 0.00035661)
(0.108951 -0.00131629 0.000351023)
(0.109859 -0.00108051 1.00861e-06)
(0.110722 -0.00102079 0.000337427)
(0.109447 -0.00127228 0.000331828)
(0.110444 -0.00103079 1.25166e-06)
(0.111277 -0.000991932 0.000320998)
(0.109925 -0.00124435 0.0003179)
(0.111008 -0.000992407 1.79772e-06)
(0.111819 -0.000972937 0.000306869)
(0.110389 -0.00123004 0.000309563)
(0.111556 -0.000963778 2.93718e-06)
(0.112352 -0.000960402 0.000293997)
(0.110842 -0.00122723 0.00030774)
(0.112094 -0.000941696 4.9023e-06)
(0.112881 -0.00094909 0.00028087)
(0.111298 -0.00123214 0.000311536)
(0.112634 -0.000922386 7.73651e-06)
(0.111823 -0.00123664 0.000315809)
(0.113216 -0.000902708 9.06853e-06)
(0.108298 -0.00152195 0.000327197)
(0.106293 -0.00157389 0.00034224)
(0.108101 -0.00153282 1.47543e-05)
(0.108703 -0.00149231 0.000313163)
(0.10657 -0.0015517 0.000328543)