/*--------------------------------*- C++ -*----------------------------------*\
| =========                 |                                                 |
| \\      /  F ield         | OpenFOAM: The Open Source CFD Toolbox           |
|  \\    /   O peration     | Version:  2212                                  |
|   \\  /    A nd           | Website:  www.openfoam.com                      |
|    \\/     M anipulation  |                                                 |
\*---------------------------------------------------------------------------*/
FoamFile
{
    version     2.0;
    format      ascii;
    arch        "LSB;label=32;scalar=64";
    class       volScalarField;
    location    "1.85";
    object      nut;
}
// * * * * * * * * * * * * * * * * * * * * * * * * * * * * * * * * * * * * * //

dimensions      [0 2 -1 0 0 0 0];

internalField   nonuniform List<scalar> 
678
(
3.39442e-06
3.37692e-06
3.35928e-06
3.3412e-06
3.3254e-06
3.2969e-06
6.72564e-06
6.6848e-06
6.6466e-06
6.60877e-06
6.57276e-06
6.53074e-06
9.65895e-06
9.59522e-06
9.53248e-06
9.46976e-06
9.40962e-06
9.34657e-06
1.16607e-05
1.15838e-05
1.15004e-05
1.1423e-05
1.13427e-05
1.29401e-05
1.28507e-05
1.27549e-05
1.26669e-05
1.25825e-05
1.32346e-05
1.31284e-05
1.30336e-05
1.29448e-05
1.26791e-05
1.25865e-05
1.24945e-05
1.24052e-05
1.12726e-05
1.11884e-05
1.11053e-05
1.1023e-05
9.15075e-06
9.08733e-06
9.02649e-06
8.96267e-06
6.50317e-06
6.46427e-06
6.42663e-06
6.39252e-06
6.35147e-06
3.37622e-06
3.35836e-06
3.33981e-06
3.32369e-06
3.29365e-06
6.50278e-06
6.46662e-06
6.43093e-06
6.39769e-06
6.35814e-06
6.36469e-06
6.221e-06
6.1558e-06
6.07455e-06
5.99086e-06
5.98753e-06
1.25653e-05
1.20956e-05
1.16483e-05
1.1465e-05
1.09868e-05
1.86455e-05
1.78707e-05
1.70463e-05
1.67945e-05
1.58053e-05
2.26731e-05
2.16693e-05
2.06093e-05
2.01752e-05
1.89245e-05
2.44432e-05
2.32104e-05
2.24134e-05
2.12033e-05
2.03654e-05
2.31679e-05
2.19818e-05
2.11417e-05
1.98831e-05
1.90163e-05
1.71324e-05
1.61951e-05
1.52463e-05
1.47201e-05
1.09453e-05
1.05524e-05
1.01391e-05
1.01693e-05
6.01846e-06
5.91016e-06
5.89588e-06
5.94243e-06
6.68597e-06
6.64686e-06
6.60832e-06
6.57151e-06
6.52812e-06
9.15206e-06
9.09049e-06
9.03289e-06
8.97222e-06
1.1673e-05
1.11103e-05
1.08498e-05
1.06479e-05
1.03673e-05
2.30641e-05
2.18533e-05
2.05717e-05
2.01799e-05
1.8788e-05
3.31419e-05
3.138e-05
2.96616e-05
2.83855e-05
2.63787e-05
3.93914e-05
3.73527e-05
3.5478e-05
3.35923e-05
3.10528e-05
4.19714e-05
3.97641e-05
3.77536e-05
3.57249e-05
3.3053e-05
4.01446e-05
3.78645e-05
3.60691e-05
3.40032e-05
3.22172e-05
3.365e-05
3.16351e-05
2.97568e-05
2.82363e-05
2.62772e-05
2.289e-05
2.13871e-05
2.07944e-05
1.94711e-05
1.86638e-05
1.19792e-05
1.15472e-05
1.11702e-05
1.09064e-05
9.59736e-06
9.53511e-06
9.47263e-06
9.41194e-06
9.34702e-06
1.1278e-05
1.11942e-05
1.11124e-05
1.10325e-05
1.7134e-05
1.61929e-05
1.57515e-05
1.48194e-05
3.36195e-05
3.16797e-05
2.99121e-05
2.83117e-05
2.64615e-05
4.66242e-05
4.34903e-05
4.16759e-05
3.96916e-05
3.80425e-05
5.44194e-05
5.08114e-05
4.8845e-05
4.65639e-05
4.46668e-05
5.71098e-05
5.34362e-05
5.15405e-05
4.92011e-05
4.72192e-05
5.84659e-05
5.47457e-05
5.21653e-05
5.01983e-05
4.77391e-05
4.56806e-05
4.6793e-05
4.35819e-05
4.19166e-05
3.98275e-05
3.81219e-05
3.28534e-05
3.08738e-05
2.96331e-05
2.78282e-05
2.66305e-05
1.85962e-05
1.76012e-05
1.734e-05
1.65466e-05
1.59824e-05
1.16659e-05
1.15858e-05
1.15034e-05
1.14259e-05
1.13457e-05
1.27876e-05
1.26909e-05
1.25962e-05
1.25046e-05
1.24154e-05
2.32757e-05
2.20753e-05
2.12455e-05
2.01099e-05
1.92692e-05
4.253e-05
4.03498e-05
3.82694e-05
3.62675e-05
3.4384e-05
3.23734e-05
5.83927e-05
5.46483e-05
5.21129e-05
5.02827e-05
4.79566e-05
4.59847e-05
6.75347e-05
6.32707e-05
6.04537e-05
5.83272e-05
5.57215e-05
5.34908e-05
7.08415e-05
6.62898e-05
6.34004e-05
6.11193e-05
5.83737e-05
5.60612e-05
6.7845e-05
6.35161e-05
6.06244e-05
5.84602e-05
5.57916e-05
5.35348e-05
5.81261e-05
5.43466e-05
5.18238e-05
4.99017e-05
4.74909e-05
4.54452e-05
4.14198e-05
3.93524e-05
3.73508e-05
3.54733e-05
3.34865e-05
3.182e-05
2.37401e-05
2.26949e-05
2.15547e-05
2.11901e-05
2.0109e-05
1.93378e-05
1.295e-05
1.28549e-05
1.27596e-05
1.26723e-05
1.25886e-05
1.32676e-05
1.32294e-05
1.31351e-05
1.3043e-05
1.29553e-05
2.45037e-05
2.33957e-05
2.22167e-05
2.18234e-05
2.04833e-05
4.63892e-05
4.40118e-05
4.2217e-05
4.00785e-05
3.80431e-05
3.62529e-05
3.38277e-05
6.40108e-05
6.00278e-05
5.75075e-05
5.51879e-05
5.32034e-05
5.07121e-05
4.86e-05
7.42256e-05
6.9768e-05
6.69423e-05
6.42904e-05
6.19899e-05
5.92244e-05
5.68424e-05
7.3884e-05
6.92419e-05
6.64692e-05
6.41844e-05
6.14194e-05
5.90894e-05
7.09639e-05
6.6414e-05
6.35608e-05
6.1304e-05
5.85801e-05
5.6291e-05
6.11886e-05
5.7211e-05
5.46908e-05
5.27134e-05
5.02616e-05
4.81454e-05
4.42836e-05
4.20966e-05
3.99855e-05
3.8002e-05
3.60529e-05
3.36986e-05
2.56708e-05
2.4535e-05
2.32516e-05
2.28545e-05
2.16401e-05
2.07963e-05
1.35162e-05
1.32935e-05
1.32325e-05
1.31331e-05
1.3041e-05
1.29541e-05
1.30517e-05
1.29491e-05
1.28583e-05
1.27645e-05
1.2677e-05
1.25927e-05
2.37996e-05
2.27751e-05
2.1665e-05
2.12765e-05
2.02282e-05
1.94328e-05
4.14626e-05
3.94489e-05
3.75083e-05
3.56439e-05
3.37974e-05
3.2141e-05
5.79333e-05
5.41653e-05
5.18873e-05
5.01202e-05
4.78564e-05
4.59349e-05
6.80264e-05
6.37251e-05
6.1044e-05
5.89673e-05
5.641e-05
5.42231e-05
7.10771e-05
6.65679e-05
6.36922e-05
6.14871e-05
5.88135e-05
5.65612e-05
6.79342e-05
6.35673e-05
6.07929e-05
5.86551e-05
5.6043e-05
5.3854e-05
5.8585e-05
5.47793e-05
5.22373e-05
5.03928e-05
4.80546e-05
4.60861e-05
4.2664e-05
4.04892e-05
3.83853e-05
3.63917e-05
3.4515e-05
3.25128e-05
2.44765e-05
2.33316e-05
2.20654e-05
2.16753e-05
2.04642e-05
1.95859e-05
1.29089e-05
1.27757e-05
1.26853e-05
1.25942e-05
1.25047e-05
1.24181e-05
1.1748e-05
1.1676e-05
1.15883e-05
1.15101e-05
1.14323e-05
1.13524e-05
1.96125e-05
1.87943e-05
1.79524e-05
1.76962e-05
1.68965e-05
1.62823e-05
3.51678e-05
3.33816e-05
3.15514e-05
3.03695e-05
2.86506e-05
2.74374e-05
5.02886e-05
4.69398e-05
4.46907e-05
4.30803e-05
4.10456e-05
3.93068e-05
5.92731e-05
5.54634e-05
5.28581e-05
5.1022e-05
4.87375e-05
4.67402e-05
6.15335e-05
5.76205e-05
5.50451e-05
5.31374e-05
5.07655e-05
4.86687e-05
5.8311e-05
5.45408e-05
5.21589e-05
5.03166e-05
4.80033e-05
4.60344e-05
4.98209e-05
4.65631e-05
4.43374e-05
4.2813e-05
4.07509e-05
3.90212e-05
3.56243e-05
3.3673e-05
3.15154e-05
3.06187e-05
2.87147e-05
2.73554e-05
1.93612e-05
1.83904e-05
1.73013e-05
1.70343e-05
1.60998e-05
1.54676e-05
1.14474e-05
1.13635e-05
1.12793e-05
1.11971e-05
1.11178e-05
1.104e-05
9.66513e-06
9.60194e-06
9.53883e-06
9.47752e-06
9.41853e-06
9.35613e-06
1.32422e-05
1.26763e-05
1.22957e-05
1.19866e-05
1.16706e-05
1.12762e-05
2.45268e-05
2.32674e-05
2.19846e-05
2.15849e-05
2.04243e-05
1.95741e-05
3.61659e-05
3.42372e-05
3.22882e-05
3.09078e-05
2.91316e-05
2.78242e-05
4.32841e-05
4.11029e-05
3.90264e-05
3.70915e-05
3.51629e-05
3.31103e-05
4.45832e-05
4.24329e-05
4.03922e-05
3.84417e-05
3.66183e-05
3.41025e-05
4.16614e-05
3.9652e-05
3.77128e-05
3.59039e-05
3.40149e-05
3.22574e-05
3.49576e-05
3.31854e-05
3.12796e-05
3.03265e-05
2.85747e-05
2.73543e-05
2.43202e-05
2.3036e-05
2.17407e-05
2.13373e-05
2.01595e-05
1.93213e-05
1.2447e-05
1.18158e-05
1.13006e-05
1.11227e-05
1.07904e-05
1.05361e-05
9.28775e-06
9.22328e-06
9.15918e-06
9.09862e-06
9.04119e-06
8.98063e-06
6.72989e-06
6.69022e-06
6.65238e-06
6.61493e-06
6.57917e-06
6.53798e-06
6.40569e-06
6.24852e-06
6.19182e-06
6.12257e-06
6.04554e-06
6.0354e-06
1.25008e-05
1.18982e-05
1.14813e-05
1.11537e-05
1.08695e-05
1.07348e-05
1.96135e-05
1.86723e-05
1.76166e-05
1.73497e-05
1.6448e-05
1.58202e-05
2.47958e-05
2.3692e-05
2.24863e-05
2.20889e-05
2.09654e-05
2.00939e-05
2.59224e-05
2.47043e-05
2.38824e-05
2.2764e-05
2.23646e-05
2.10583e-05
2.38985e-05
2.29002e-05
2.18259e-05
2.14849e-05
2.04977e-05
1.97234e-05
1.96239e-05
1.88266e-05
1.80018e-05
1.77646e-05
1.7009e-05
1.641e-05
1.32277e-05
1.26552e-05
1.23375e-05
1.19784e-05
1.17273e-05
1.12848e-05
6.40724e-06
6.25532e-06
6.20052e-06
6.1299e-06
6.04741e-06
6.03424e-06
6.54718e-06
6.50903e-06
6.47297e-06
6.43732e-06
6.40387e-06
6.36469e-06
3.39796e-06
3.38051e-06
3.36267e-06
3.34431e-06
3.32861e-06
3.3004e-06
6.54906e-06
6.51116e-06
6.47515e-06
6.43961e-06
6.40647e-06
6.36808e-06
9.41931e-06
9.35586e-06
9.29395e-06
9.23086e-06
9.16743e-06
9.10698e-06
9.05001e-06
8.99064e-06
1.15398e-05
1.14579e-05
1.13748e-05
1.12919e-05
1.12109e-05
1.11328e-05
1.10565e-05
1.29434e-05
1.28968e-05
1.27862e-05
1.26981e-05
1.26094e-05
1.25219e-05
1.24375e-05
1.33651e-05
1.33519e-05
1.32324e-05
1.31445e-05
1.30566e-05
1.29724e-05
1.30475e-05
1.29606e-05
1.28623e-05
1.27722e-05
1.26868e-05
1.26048e-05
1.17584e-05
1.16751e-05
1.15929e-05
1.15141e-05
1.14383e-05
1.13602e-05
9.66581e-06
9.60263e-06
9.54048e-06
9.47992e-06
9.42181e-06
9.36034e-06
6.72968e-06
6.69033e-06
6.65289e-06
6.61572e-06
6.58019e-06
6.53898e-06
3.39754e-06
3.3802e-06
3.36243e-06
3.34403e-06
3.32827e-06
3.30016e-06
)
;

boundaryField
{
    inlet
    {
        type            calculated;
        value           nonuniform List<scalar> 0();
    }
    ami1
    {
        type            cyclicAMI;
        value           nonuniform List<scalar> 0();
    }
    walls
    {
        type            nutkWallFunction;
        blending        stepwise;
        value           uniform 0;
    }
    ami2
    {
        type            cyclicAMI;
        value           nonuniform List<scalar> 0();
    }
    outlet
    {
        type            calculated;
        value           nonuniform List<scalar> 
121
(
3.2969e-06
6.53074e-06
9.34657e-06
1.13427e-05
1.25825e-05
1.29448e-05
1.24052e-05
1.1023e-05
8.96267e-06
6.35147e-06
3.29365e-06
6.35814e-06
5.98753e-06
1.09868e-05
1.58053e-05
1.89245e-05
2.03654e-05
1.90163e-05
1.47201e-05
1.01693e-05
5.94243e-06
6.52812e-06
8.97222e-06
1.03673e-05
1.8788e-05
2.63787e-05
3.10528e-05
3.3053e-05
3.22172e-05
2.62772e-05
1.86638e-05
1.09064e-05
9.34702e-06
1.10325e-05
1.48194e-05
2.64615e-05
3.80425e-05
4.46668e-05
4.72192e-05
4.56806e-05
3.81219e-05
2.66305e-05
1.59824e-05
1.13457e-05
1.24154e-05
1.92692e-05
3.23734e-05
4.59847e-05
5.34908e-05
5.60612e-05
5.35348e-05
4.54452e-05
3.182e-05
1.93378e-05
1.25886e-05
1.29553e-05
2.04833e-05
3.38277e-05
4.86e-05
5.68424e-05
5.90894e-05
5.6291e-05
4.81454e-05
3.36986e-05
2.07963e-05
1.29541e-05
1.25927e-05
1.94328e-05
3.2141e-05
4.59349e-05
5.42231e-05
5.65612e-05
5.3854e-05
4.60861e-05
3.25128e-05
1.95859e-05
1.24181e-05
1.13524e-05
1.62823e-05
2.74374e-05
3.93068e-05
4.67402e-05
4.86687e-05
4.60344e-05
3.90212e-05
2.73554e-05
1.54676e-05
1.104e-05
9.35613e-06
1.12762e-05
1.95741e-05
2.78242e-05
3.31103e-05
3.41025e-05
3.22574e-05
2.73543e-05
1.93213e-05
1.05361e-05
8.98063e-06
6.53798e-06
6.0354e-06
1.07348e-05
1.58202e-05
2.00939e-05
2.10583e-05
1.97234e-05
1.641e-05
1.12848e-05
6.03424e-06
6.36469e-06
3.3004e-06
6.36808e-06
8.99064e-06
1.10565e-05
1.24375e-05
1.29724e-05
1.26048e-05
1.13602e-05
9.36034e-06
6.53898e-06
3.30016e-06
)
;
    }
    procBoundary6to5
    {
        type            processor;
        value           nonuniform List<scalar> 
177
(
3.41547e-06
6.54371e-06
6.76793e-06
9.72553e-06
1.17556e-05
1.3416e-05
1.17556e-05
1.3058e-05
1.32927e-05
1.32927e-05
1.32927e-05
1.27716e-05
1.27716e-05
1.13605e-05
9.21882e-06
9.21882e-06
6.5463e-06
6.32205e-06
3.39574e-06
6.54371e-06
6.54371e-06
9.2202e-06
6.62525e-06
1.3416e-05
1.26558e-05
1.3416e-05
2.00473e-05
2.44559e-05
2.64514e-05
2.52528e-05
1.90347e-05
1.90347e-05
1.90347e-05
1.20599e-05
1.20599e-05
6.32205e-06
6.32205e-06
6.72815e-06
9.2202e-06
9.2202e-06
1.26558e-05
1.90055e-05
2.52504e-05
3.6267e-05
4.30249e-05
4.58587e-05
4.40818e-05
4.40818e-05
3.71046e-05
2.51407e-05
1.29049e-05
1.29049e-05
1.29049e-05
1.29049e-05
9.66273e-06
1.13666e-05
1.13666e-05
1.90055e-05
1.90055e-05
1.90055e-05
3.71038e-05
3.71038e-05
5.18073e-05
5.18073e-05
6.03611e-05
6.03611e-05
6.26762e-05
6.26762e-05
6.26762e-05
6.42054e-05
5.15866e-05
5.15866e-05
5.15866e-05
3.59543e-05
3.59543e-05
1.9966e-05
1.9966e-05
1.17574e-05
1.28652e-05
2.53484e-05
2.53484e-05
4.62952e-05
4.62952e-05
6.41747e-05
6.41747e-05
7.41578e-05
7.41578e-05
7.77838e-05
7.442e-05
6.37943e-05
4.49241e-05
2.53161e-05
1.30475e-05
1.30475e-05
1.30475e-05
1.34905e-05
1.34905e-05
2.78276e-05
2.64046e-05
2.64046e-05
2.64046e-05
5.04179e-05
4.50751e-05
7.00233e-05
6.37729e-05
8.12274e-05
8.09527e-05
7.46276e-05
8.09527e-05
7.78964e-05
6.71847e-05
4.81231e-05
2.76377e-05
1.3482e-05
1.31575e-05
2.55732e-05
4.50751e-05
6.37729e-05
7.46276e-05
7.80129e-05
7.46029e-05
6.44119e-05
4.63504e-05
2.62566e-05
1.29393e-05
1.18537e-05
2.08943e-05
3.83052e-05
5.53314e-05
6.51746e-05
6.75541e-05
6.40594e-05
5.47311e-05
3.87971e-05
2.08193e-05
1.15334e-05
9.73179e-06
1.40509e-05
2.66893e-05
3.95847e-05
4.69783e-05
4.83846e-05
4.51546e-05
3.78392e-05
2.6288e-05
1.31775e-05
9.35205e-06
6.77165e-06
6.65012e-06
1.36363e-05
1.33337e-05
1.33337e-05
2.12346e-05
2.12346e-05
2.65818e-05
2.65818e-05
2.77305e-05
2.54609e-05
2.08749e-05
1.40134e-05
6.6431e-06
6.58838e-06
3.41769e-06
6.63082e-06
6.59041e-06
6.59041e-06
9.48567e-06
1.16262e-05
1.16262e-05
1.31046e-05
1.3597e-05
1.3597e-05
1.31654e-05
1.18462e-05
9.73127e-06
6.7711e-06
3.41717e-06
)
;
    }
}


// ************************************************************************* //
