/*--------------------------------*- C++ -*----------------------------------*\
| =========                 |                                                 |
| \\      /  F ield         | OpenFOAM: The Open Source CFD Toolbox           |
|  \\    /   O peration     | Version:  2212                                  |
|   \\  /    A nd           | Website:  www.openfoam.com                      |
|    \\/     M anipulation  |                                                 |
\*---------------------------------------------------------------------------*/
FoamFile
{
    version     2.0;
    format      ascii;
    arch        "LSB;label=32;scalar=64";
    class       volScalarField;
    location    "0.3";
    object      k;
}
// * * * * * * * * * * * * * * * * * * * * * * * * * * * * * * * * * * * * * //

dimensions      [0 2 -2 0 0 0 0];

internalField   nonuniform List<scalar> 
678
(
0.00418573
0.00418578
0.0041858
0.00418578
0.00418607
0.00472375
0.00472383
0.0047239
0.00472395
0.00472364
0.00502697
0.00502708
0.00502722
0.00502738
0.00502775
0.0053672
0.00536736
0.00536753
0.00536769
0.00536766
0.00536706
0.00556004
0.00556023
0.00556046
0.00556069
0.00556085
0.00556092
0.00563778
0.00563801
0.00563828
0.00563855
0.0056387
0.00563868
0.00563877
0.00559438
0.00559463
0.0055949
0.00559516
0.00559526
0.00559511
0.00559496
0.00541799
0.00541819
0.0054184
0.00541858
0.00541861
0.00541837
0.00541779
0.00510358
0.00510372
0.00510386
0.00510395
0.00510387
0.0051033
0.00510113
0.00475263
0.00475271
0.00475279
0.00475284
0.00475275
0.0047523
0.00418567
0.00418573
0.00418575
0.00418576
0.0041857
0.00418563
0.00475269
0.00475276
0.00475281
0.0047528
0.00475232
0.00474983
0.00784533
0.00784552
0.00784573
0.00784587
0.00784556
0.00906034
0.00906066
0.00906103
0.00906147
0.00906203
0.00906349
0.00987091
0.00987136
0.00987193
0.00987244
0.00987264
0.00987244
0.0103738
0.0103744
0.010375
0.0103757
0.0103761
0.0103764
0.0105916
0.0105922
0.0105929
0.0105936
0.010594
0.0105943
0.0104978
0.0104984
0.0104991
0.0104997
0.0105001
0.0105002
0.0100712
0.0100717
0.0100724
0.0100729
0.0100732
0.0100731
0.0100735
0.00926739
0.00926777
0.00926818
0.00926855
0.00926857
0.00926802
0.00926633
0.00784522
0.00784544
0.0078457
0.00784592
0.0078458
0.00784486
0.00784129
0.00472365
0.00472375
0.00472385
0.00472393
0.00472388
0.00472352
0.00510363
0.00510375
0.00510384
0.00510388
0.00510372
0.00510299
0.00510117
0.00926752
0.00926785
0.00926819
0.00926845
0.00926846
0.00926824
0.0113236
0.0113241
0.0113247
0.0113252
0.0113257
0.0113261
0.0125579
0.0125586
0.0125593
0.0125601
0.0125608
0.0125617
0.0132711
0.0132718
0.0132727
0.0132736
0.0132745
0.0132757
0.0135332
0.013534
0.0135348
0.0135358
0.0135368
0.0135382
0.0133339
0.0133347
0.0133356
0.0133366
0.0133376
0.0133393
0.0126293
0.01263
0.0126308
0.0126316
0.0126324
0.0126331
0.0113234
0.011324
0.0113246
0.0113252
0.0113256
0.0113259
0.00906022
0.00906058
0.00906098
0.00906135
0.00906143
0.00906116
0.00906051
0.00502686
0.00502701
0.00502716
0.00502729
0.00502732
0.00502713
0.00541807
0.00541823
0.00541836
0.00541845
0.00541839
0.00541817
0.00541842
0.0100714
0.0100718
0.0100723
0.0100726
0.0100728
0.010073
0.010074
0.0126296
0.0126303
0.0126309
0.0126316
0.0126323
0.0126334
0.014207
0.0142078
0.0142087
0.0142097
0.0142112
0.0142135
0.015108
0.0151087
0.0151097
0.015111
0.015113
0.0151161
0.0154148
0.0154155
0.0154165
0.0154179
0.0154202
0.015424
0.0151276
0.0151284
0.0151294
0.0151309
0.0151337
0.0142065
0.0142073
0.0142082
0.0142093
0.0142108
0.0142133
0.0125576
0.0125584
0.0125591
0.0125599
0.0125605
0.0125614
0.00987087
0.00987137
0.00987191
0.00987238
0.0098726
0.00987271
0.00536711
0.00536731
0.00536753
0.00536771
0.0053678
0.00536775
0.00559446
0.00559464
0.00559482
0.00559491
0.0055948
0.00559446
0.010498
0.0104985
0.010499
0.0104993
0.0104994
0.0104998
0.0133344
0.0133351
0.0133358
0.0133367
0.0133383
0.0151285
0.0151292
0.0151302
0.015132
0.0151351
0.0161593
0.01616
0.0161613
0.0161635
0.0161678
0.0165007
0.0165014
0.0165027
0.0165048
0.0165087
0.0161583
0.0161591
0.0161603
0.0161621
0.0161654
0.0151073
0.0151081
0.0151091
0.0151105
0.0151129
0.0132708
0.0132716
0.0132724
0.0132732
0.0132743
0.0103739
0.0103744
0.0103751
0.0103756
0.0103758
0.00556003
0.00556027
0.00556052
0.00556072
0.00556083
0.00556121
0.00563781
0.00563801
0.00563821
0.00563828
0.00563819
0.00563809
0.0105917
0.0105922
0.0105927
0.010593
0.0105935
0.0105939
0.0135337
0.0135342
0.0135351
0.0135364
0.0154159
0.0154164
0.0154177
0.0154204
0.0165019
0.0165023
0.016504
0.0165077
0.016859
0.0168597
0.016861
0.0168633
0.0168677
0.0165001
0.0165009
0.016502
0.0165039
0.0165073
0.0154142
0.0154149
0.0154159
0.0154173
0.0154197
0.0135329
0.0135337
0.0135345
0.0135354
0.0135365
0.0105918
0.0105924
0.010593
0.0105935
0.0105937
0.00563794
0.00563818
0.00563843
0.00563862
0.00563866
0.00556004
0.00556039
0.00556059
0.00556072
0.00556078
0.0055608
0.0103733
0.010374
0.0103746
0.0103751
0.0103755
0.0103758
0.0132699
0.0132708
0.0132717
0.0132726
0.0132735
0.013275
0.0151067
0.0151076
0.0151085
0.0151097
0.0151113
0.0151143
0.0161578
0.0161584
0.0161595
0.0161608
0.0161628
0.0161667
0.0165011
0.0165015
0.0165025
0.0165043
0.0165076
0.0161583
0.0161589
0.01616
0.0161616
0.0161644
0.0151272
0.0151279
0.0151289
0.0151302
0.0151321
0.0133338
0.0133345
0.0133353
0.0133361
0.013337
0.010498
0.0104986
0.0104993
0.0104997
0.0104999
0.0055946
0.00559484
0.0055951
0.00559528
0.00559526
0.00536703
0.00536734
0.00536758
0.00536779
0.00536798
0.00536808
0.00987024
0.00987095
0.00987159
0.00987218
0.00987257
0.00987278
0.0125565
0.0125574
0.0125584
0.0125592
0.01256
0.0125609
0.0142053
0.0142063
0.0142073
0.0142083
0.0142095
0.0142111
0.0151264
0.0151272
0.0151282
0.0151293
0.0151308
0.015133
0.015415
0.0154154
0.0154163
0.0154176
0.0154198
0.0151075
0.0151081
0.015109
0.0151102
0.0151122
0.0142064
0.0142071
0.014208
0.0142089
0.0142102
0.0126293
0.01263
0.0126308
0.0126314
0.0126319
0.0100715
0.010072
0.0100726
0.010073
0.010073
0.00541822
0.0054184
0.0054186
0.00541875
0.00541876
0.00502672
0.00502693
0.00502715
0.00502743
0.00502785
0.00502813
0.00905951
0.00906005
0.00906066
0.00906135
0.00906208
0.00906254
0.0113221
0.011323
0.0113239
0.0113248
0.0113257
0.0113264
0.0126279
0.0126289
0.0126299
0.0126308
0.0126317
0.0126324
0.0133325
0.0133335
0.0133345
0.0133355
0.0133364
0.0133374
0.0135332
0.0135338
0.0135347
0.0135355
0.0135366
0.013271
0.0132716
0.0132724
0.0132732
0.0132741
0.0125578
0.0125585
0.0125592
0.0125598
0.0125604
0.0113237
0.0113242
0.0113248
0.0113253
0.0113255
0.00926776
0.00926813
0.00926851
0.0092688
0.00926883
0.00510379
0.00510393
0.00510407
0.00510418
0.00510422
0.00472343
0.00472359
0.0047238
0.00472422
0.00472581
0.00472702
0.00784437
0.0078448
0.00784532
0.00784612
0.00784832
0.0078489
0.009266
0.00926675
0.00926742
0.00926764
0.00926682
0.00926542
0.0100701
0.0100709
0.0100717
0.0100721
0.0100719
0.010072
0.0104972
0.010498
0.0104988
0.0104995
0.0104999
0.0105002
0.0105919
0.0105925
0.0105931
0.0105936
0.0105939
0.0103741
0.0103746
0.0103752
0.0103757
0.0103758
0.00987122
0.00987165
0.00987214
0.00987252
0.0098726
0.00906067
0.00906097
0.00906132
0.00906161
0.00906164
0.00784567
0.00784585
0.00784607
0.00784627
0.0078463
0.00475286
0.00475294
0.00475302
0.00475311
0.00475313
0.00418548
0.00418561
0.00418576
0.00418601
0.00418711
0.00418761
0.00475213
0.00475235
0.0047526
0.004753
0.00475453
0.00475535
0.00510275
0.00510314
0.00510344
0.00510345
0.00541741
0.00541781
0.0054181
0.00541806
0.00541714
0.00559444
0.00559482
0.00559508
0.00559519
0.00559512
0.00563807
0.00563831
0.00563854
0.0056387
0.00563878
0.00556029
0.00556046
0.00556066
0.00556082
0.00556085
0.00536744
0.00536757
0.00536773
0.00536786
0.00536787
0.00502717
0.00502727
0.00502739
0.00502748
0.0050275
0.00472393
0.004724
0.00472408
0.00472415
0.00472417
0.00418585
0.00418591
0.00418594
0.00418599
0.00418603
)
;

boundaryField
{
    inlet
    {
        type            fixedValue;
        value           nonuniform List<scalar> 0();
    }
    ami1
    {
        type            cyclicAMI;
        value           nonuniform List<scalar> 0();
    }
    walls
    {
        type            kqRWallFunction;
        value           nonuniform List<scalar> 
250
(
0.00418573
0.00472375
0.00502697
0.0053672
0.00556004
0.00563778
0.00559438
0.00541799
0.00510358
0.00475263
0.00418567
0.00418578
0.00472383
0.00502708
0.00536736
0.00556023
0.00563801
0.00559463
0.00541819
0.00510372
0.00475271
0.00418573
0.0041858
0.0047239
0.00502722
0.00536753
0.00556046
0.00563828
0.0055949
0.0054184
0.00510386
0.00475279
0.00418575
0.00418578
0.00472395
0.00502738
0.00536769
0.00556069
0.00563855
0.00559516
0.00541858
0.00510395
0.00475284
0.00418576
0.00418607
0.00472364
0.00502775
0.00536766
0.00556085
0.0056387
0.00559526
0.00541861
0.00510387
0.00475275
0.0041857
0.00536706
0.00556092
0.00563868
0.00559511
0.00541837
0.0051033
0.0047523
0.00418563
0.00563877
0.00559496
0.00541779
0.00510113
0.00418567
0.00472365
0.00502686
0.00536711
0.00556003
0.00563794
0.0055946
0.00541822
0.00510379
0.00475286
0.00418585
0.00418573
0.00472375
0.00502701
0.00536731
0.00556027
0.00563818
0.00559484
0.0054184
0.00510393
0.00475294
0.00418591
0.00418575
0.00472385
0.00502716
0.00536753
0.00556052
0.00563843
0.0055951
0.0054186
0.00510407
0.00475302
0.00418594
0.00418576
0.00472393
0.00502729
0.00536771
0.00556072
0.00563862
0.00559528
0.00541875
0.00510418
0.00475311
0.00418599
0.0041857
0.00472388
0.00502732
0.0053678
0.00556083
0.00563866
0.00559526
0.00541876
0.00510422
0.00475313
0.00418603
0.00418563
0.00472352
0.00502713
0.00536775
0.00556121
0.00418548
0.00475213
0.00510275
0.00541741
0.00559444
0.00418561
0.00475235
0.00510314
0.00541781
0.00559482
0.00563807
0.00556029
0.00536744
0.00502717
0.00472393
0.00418585
0.00418576
0.0047526
0.00510344
0.0054181
0.00559508
0.00563831
0.00556046
0.00536757
0.00502727
0.004724
0.00418591
0.00418601
0.004753
0.00510345
0.00541806
0.00559519
0.00563854
0.00556066
0.00536773
0.00502739
0.00472408
0.00418594
0.00418711
0.00475453
0.00541714
0.00559512
0.0056387
0.00556082
0.00536786
0.00502748
0.00472415
0.00418599
0.00418761
0.00475535
0.00563878
0.00556085
0.00536787
0.0050275
0.00472417
0.00418603
0.00556004
0.00536703
0.00502672
0.00472343
0.00418548
0.00418573
0.00475269
0.00510363
0.00541807
0.00559446
0.00563781
0.00556039
0.00536734
0.00502693
0.00472359
0.00418561
0.00418578
0.00475276
0.00510375
0.00541823
0.00559464
0.00563801
0.00556059
0.00536758
0.00502715
0.0047238
0.00418576
0.0041858
0.00475281
0.00510384
0.00541836
0.00559482
0.00563821
0.00556072
0.00536779
0.00502743
0.00472422
0.00418601
0.00418578
0.0047528
0.00510388
0.00541845
0.00559491
0.00563828
0.00556078
0.00536798
0.00502785
0.00472581
0.00418711
0.00418607
0.00475232
0.00510372
0.00541839
0.0055948
0.00563819
0.0055608
0.00536808
0.00502813
0.00472702
0.00418761
0.00474983
0.00510299
0.00541817
0.00559446
0.00563809
0.00510117
0.00541842
)
;
    }
    ami2
    {
        type            cyclicAMI;
        value           nonuniform List<scalar> 0();
    }
    outlet
    {
        type            zeroGradient;
    }
    procBoundary5to6
    {
        type            processor;
        value           nonuniform List<scalar> 
177
(
0.00418475
0.00418475
0.00472191
0.00502911
0.00502911
0.00502911
0.00536725
0.00556129
0.00556129
0.00563886
0.0105945
0.00559493
0.0105005
0.00541758
0.00510117
0.00475049
0.00475049
0.00475049
0.00418499
0.00475159
0.007843
0.00475159
0.007843
0.007843
0.007843
0.00906321
0.00987273
0.0103768
0.0105945
0.0105005
0.0105005
0.0100733
0.0126338
0.00926623
0.0113264
0.00784153
0.00472208
0.00472208
0.0051015
0.0092667
0.0092667
0.0092667
0.0113267
0.0125622
0.0132764
0.0135391
0.0133398
0.0151362
0.0126338
0.0113264
0.0113264
0.00906052
0.00502637
0.00987289
0.00502637
0.00541832
0.00559405
0.0100739
0.0126338
0.0104998
0.0126338
0.0133392
0.0142142
0.0151365
0.0151169
0.0161695
0.0154245
0.0151362
0.0165112
0.0151362
0.0151362
0.0142138
0.0151147
0.0125619
0.0132753
0.00987289
0.0103763
0.00536771
0.00559405
0.0104998
0.0133392
0.0133392
0.0135379
0.0151365
0.015423
0.0161695
0.0165114
0.0165112
0.0161675
0.0151147
0.0132753
0.0103763
0.0103763
0.00556135
0.00563871
0.00563804
0.0055611
0.0135379
0.0105943
0.013538
0.0103764
0.0135379
0.0135379
0.015423
0.015423
0.0165114
0.0165114
0.0165114
0.0168694
0.0165093
0.0154213
0.0135374
0.010594
0.00563871
0.0055611
0.0103764
0.0132757
0.0151153
0.0161679
0.0165096
0.0161663
0.0151336
0.0133379
0.0105001
0.00559524
0.00536815
0.00987308
0.0125615
0.0142123
0.0151345
0.0154215
0.0151137
0.0142113
0.0126325
0.0100731
0.00541874
0.00502816
0.00906261
0.0113264
0.012633
0.0133383
0.0135376
0.013275
0.012561
0.0113257
0.00926883
0.00510419
0.00472602
0.00784789
0.00510243
0.00926599
0.00510051
0.0100721
0.00541689
0.0105004
0.0055953
0.0105942
0.0103761
0.00987272
0.00906163
0.00784624
0.00475312
0.00418732
0.00510243
0.00475419
0.00510051
0.00510243
0.00510243
0.00541689
0.0055953
0.0055953
0.00563879
0.00556086
0.00536786
0.00502748
0.00472416
0.00418604
)
;
    }
    procBoundary5to7
    {
        type            processor;
        value           nonuniform List<scalar> 
131
(
0.00418566
0.00472364
0.00502683
0.00536705
0.00555987
0.00563754
0.00559415
0.00541777
0.0051034
0.00475249
0.00418558
0.00475256
0.0078451
0.00905996
0.00987038
0.0103731
0.0105908
0.010497
0.0100705
0.0092669
0.00784494
0.0047235
0.00510346
0.00926708
0.0113228
0.0125566
0.0132695
0.0135314
0.0133322
0.0126279
0.0113225
0.00905978
0.00502666
0.00541788
0.0100708
0.0126284
0.0142051
0.0151055
0.015412
0.015125
0.0142044
0.0125563
0.00987025
0.00536686
0.00559428
0.0104973
0.0133329
0.015126
0.0161561
0.0164972
0.016155
0.0151047
0.0132691
0.0103731
0.00555976
0.00563758
0.00563758
0.010591
0.010591
0.0135322
0.0135322
0.0154135
0.0154135
0.0164988
0.0164988
0.0168553
0.0164966
0.0154114
0.0135311
0.010591
0.00563768
0.0055592
0.0103719
0.0132678
0.0151034
0.0161531
0.016498
0.016498
0.016155
0.0151246
0.0133321
0.0104973
0.00559438
0.00536663
0.00986924
0.0125548
0.0142027
0.0151229
0.0154125
0.0154125
0.0151049
0.0142043
0.012628
0.0100709
0.00541801
0.00502648
0.00905887
0.0113209
0.0126261
0.0133303
0.0135315
0.0135315
0.0132693
0.0125565
0.0113229
0.00926734
0.00510363
0.00472326
0.00784389
0.00926501
0.0100689
0.0104957
0.010591
0.010591
0.0103734
0.00987073
0.00906035
0.00784548
0.00475275
0.00418533
0.00475183
0.00510219
0.00541687
0.00559366
0.00563779
0.00563779
0.00556014
0.00536731
0.00502706
0.00472383
0.00418578
)
;
    }
}


// ************************************************************************* //
