/*--------------------------------*- C++ -*----------------------------------*\
| =========                 |                                                 |
| \\      /  F ield         | OpenFOAM: The Open Source CFD Toolbox           |
|  \\    /   O peration     | Version:  2212                                  |
|   \\  /    A nd           | Website:  www.openfoam.com                      |
|    \\/     M anipulation  |                                                 |
\*---------------------------------------------------------------------------*/
FoamFile
{
    version     2.0;
    format      ascii;
    arch        "LSB;label=32;scalar=64";
    class       volScalarField;
    location    "1.3";
    object      epsilon;
}
// * * * * * * * * * * * * * * * * * * * * * * * * * * * * * * * * * * * * * //

dimensions      [0 2 -3 0 0 0 0];

internalField   nonuniform List<scalar> 
689
(
0.16718
0.158832
0.152311
0.146604
0.141615
0.137412
0.133641
0.130063
0.0695142
0.0658227
0.0626563
0.0598072
0.0571945
0.0549474
0.0529675
0.0511507
0.0583217
0.0537723
0.0500601
0.0469696
0.0443402
0.0420479
0.0399997
0.0381767
0.0365512
0.074947
0.0644812
0.0572342
0.0518517
0.0475492
0.0440038
0.0409846
0.0383747
0.0360897
0.0340701
0.0322718
0.030657
0.0691433
0.0609934
0.0545944
0.0494258
0.0451545
0.0415621
0.0385139
0.0358895
0.0335807
0.0315337
0.0297073
0.0280672
0.0664479
0.0597463
0.0539636
0.0490021
0.0447551
0.0410978
0.0379456
0.0352173
0.0328163
0.0306814
0.0287821
0.0270858
0.0709331
0.0629682
0.056366
0.0508019
0.0461063
0.0420879
0.0386435
0.0356774
0.0331016
0.0308554
0.0288906
0.0271597
0.0795752
0.0689267
0.0605015
0.0538069
0.0485478
0.0441099
0.0404082
0.0373102
0.0346841
0.0324319
0.0304943
0.0287868
0.0942205
0.0796113
0.0684367
0.0597678
0.0536025
0.0490249
0.0453244
0.0422596
0.0396543
0.0374173
0.035471
0.12468
0.105845
0.0900115
0.078804
0.0711492
0.0658135
0.0616794
0.0582194
0.055274
0.0528271
0.0506904
0.280558
0.235882
0.199698
0.179428
0.167241
0.159113
0.152608
0.146839
0.141763
0.137471
0.133685
0.0711448
0.0656684
0.0615178
0.0580999
0.0551954
0.0527875
0.0506616
0.0488431
0.0349769
0.0321746
0.0299588
0.0280595
0.0263943
0.0249853
0.0237313
0.0225858
0.0316948
0.0284801
0.0259463
0.0237948
0.0219601
0.0204057
0.0190256
0.0178397
0.0166449
0.0470124
0.0405466
0.0353371
0.0310858
0.0274175
0.0244198
0.0222394
0.0203942
0.01878
0.0173621
0.0161141
0.0150104
0.0455485
0.0400325
0.0352224
0.0311359
0.0276832
0.0246845
0.0220455
0.019855
0.0182369
0.0167962
0.0155196
0.0143886
0.0456785
0.0400625
0.0352756
0.0311991
0.0277278
0.0247753
0.0220709
0.0197881
0.0179995
0.0165687
0.0152859
0.0141413
0.0474113
0.040969
0.0356732
0.0312926
0.027643
0.024477
0.0217939
0.0195803
0.0179218
0.0164691
0.0151811
0.014044
0.0500685
0.0420881
0.0359382
0.0311244
0.0271327
0.023941
0.0215943
0.0197381
0.0181207
0.0167098
0.0154759
0.0143935
0.0524379
0.0431262
0.0362996
0.0311803
0.0277404
0.0251982
0.0230466
0.0212084
0.0196255
0.0182554
0.0170654
0.0597474
0.0498833
0.0430612
0.0384098
0.034836
0.0322098
0.0300189
0.0281267
0.0264381
0.0250079
0.0237456
0.101374
0.0895266
0.0803864
0.0741662
0.0696306
0.0660085
0.0628287
0.0599363
0.0572875
0.0549973
0.0530111
0.0598395
0.0536071
0.0489958
0.0452651
0.0422156
0.0396299
0.0374075
0.0354678
0.0337671
0.0312454
0.0277706
0.0251949
0.0230328
0.0211932
0.019614
0.0182477
0.0170568
0.0159893
0.0300348
0.0264484
0.0235247
0.0211013
0.0190686
0.0173447
0.0158637
0.0145814
0.0134542
0.0473619
0.0412297
0.0359917
0.031557
0.0278102
0.0246505
0.0220058
0.0197616
0.017842
0.0161883
0.0147547
0.0135034
0.0495198
0.0429488
0.0374692
0.0328656
0.0289788
0.0256795
0.0228616
0.0204511
0.0184032
0.0166445
0.0151198
0.0137893
0.0506365
0.0437897
0.0381311
0.0334046
0.0294259
0.0260561
0.0231734
0.0207008
0.0185894
0.0167847
0.0152268
0.0138698
0.0501472
0.0433332
0.037672
0.0329431
0.0289703
0.0256108
0.0227578
0.0203301
0.0182675
0.0164988
0.0149729
0.0136478
0.0479332
0.0414611
0.0360229
0.0314623
0.027638
0.0244346
0.0217567
0.019507
0.0175978
0.0159641
0.0145524
0.01332
0.0460492
0.0397352
0.0344286
0.0300176
0.0264313
0.0235158
0.0210993
0.0190701
0.0173474
0.0158662
0.0145846
0.0472379
0.0420199
0.0361206
0.0315503
0.0284116
0.0259283
0.0238002
0.0219735
0.0204202
0.019033
0.0178853
0.0859396
0.0720318
0.0640501
0.0583645
0.0538365
0.0501224
0.0470332
0.0444001
0.0420978
0.0400378
0.0382001
0.0537789
0.0485385
0.0441093
0.0404081
0.0373068
0.0346833
0.0324354
0.0305006
0.0287976
0.0310739
0.0270833
0.0239156
0.0215935
0.0197381
0.0181211
0.0167104
0.0154763
0.0143929
0.0314497
0.0276253
0.0244256
0.0217519
0.0195047
0.0175969
0.015964
0.0145528
0.0133198
0.0517815
0.044911
0.0391327
0.0342576
0.0301351
0.02664
0.0236677
0.0211363
0.0189684
0.0171019
0.0154865
0.0140804
0.0558178
0.048193
0.041874
0.036598
0.0321618
0.0284085
0.0252159
0.0224856
0.020139
0.0181147
0.0163624
0.0148379
0.0574656
0.0494823
0.0429194
0.0374687
0.0329017
0.0290461
0.0257686
0.0229663
0.0205587
0.0184814
0.0166817
0.0151162
0.0558026
0.0481874
0.0418729
0.0365948
0.0321537
0.028395
0.025197
0.0224636
0.0201176
0.0180949
0.0163431
0.0148192
0.0517842
0.0449286
0.039147
0.0342666
0.0301407
0.0266435
0.0236697
0.0211373
0.0189689
0.0171021
0.0154863
0.0140815
0.0473812
0.0412211
0.0359712
0.031536
0.0277932
0.0246404
0.0220004
0.0197589
0.0178409
0.0161881
0.0147538
0.0469087
0.0404979
0.035295
0.0310566
0.0273906
0.0244154
0.0222459
0.0204003
0.0187856
0.0173672
0.0161204
0.0750157
0.0645567
0.0572917
0.0518992
0.0475903
0.0440401
0.0410156
0.0384004
0.0361103
0.0340855
0.0322793
0.0506615
0.0460318
0.0420538
0.0386323
0.0356777
0.033107
0.030863
0.028899
0.0271683
0.0311418
0.0275675
0.0244284
0.0217768
0.0195787
0.0179223
0.0164698
0.0151823
0.0140456
0.0329147
0.0289484
0.0255958
0.0227497
0.0203267
0.0182667
0.0164996
0.0149745
0.0136499
0.0558022
0.0481737
0.0418563
0.0365798
0.0321421
0.0283868
0.0251917
0.0224606
0.0201162
0.0180946
0.0163434
0.0148198
0.0603952
0.0520817
0.0451998
0.0394601
0.0346397
0.0305651
0.0271006
0.0241386
0.0215933
0.0193956
0.0174899
0.0158309
0.062038
0.0534994
0.0464187
0.0405105
0.0355491
0.0313569
0.0277934
0.0247474
0.02213
0.0198701
0.01791
0.0162036
0.0603985
0.0520834
0.0452016
0.0394622
0.0346417
0.0305669
0.027102
0.0241397
0.021594
0.0193962
0.0174903
0.0158315
0.0558228
0.0481962
0.0418762
0.0365993
0.0321626
0.0284089
0.0252163
0.022486
0.0201395
0.0181152
0.0163631
0.0148409
0.0495183
0.0429621
0.037478
0.0328683
0.0289778
0.0256767
0.0228598
0.0204498
0.0184017
0.016643
0.0151181
0.0455345
0.0400168
0.0352148
0.0311312
0.0276799
0.0246816
0.0220453
0.0198563
0.0182382
0.0167974
0.0155206
0.069148
0.0610043
0.0546049
0.0494352
0.0451624
0.0415687
0.0385194
0.0358939
0.0335838
0.031535
0.0297019
0.0574456
0.0494677
0.0429097
0.0374623
0.0328977
0.029044
0.0257682
0.0229672
0.0205605
0.0184841
0.0166853
0.0151207
0.0620313
0.0534961
0.0464171
0.0405098
0.0355489
0.031357
0.027794
0.0247482
0.0221312
0.0198715
0.0179118
0.0162057
0.0635991
0.0549032
0.0476637
0.0416067
0.0365118
0.0322025
0.0285378
0.0254045
0.0227118
0.0203866
0.0183696
0.0166134
0.0620315
0.0534912
0.0464116
0.0405054
0.0355459
0.0313552
0.0277929
0.0247477
0.0221309
0.0198713
0.0179117
0.0162059
0.0574574
0.0494647
0.0429055
0.0374595
0.0328961
0.0290429
0.0257671
0.0229661
0.0205594
0.0184827
0.0166836
0.015121
0.0506409
0.0437932
0.0381331
0.0334038
0.0294229
0.0260526
0.0231699
0.0206994
0.018588
0.0167831
0.0152252
0.0455962
0.0400235
0.0352538
0.0311811
0.027713
0.0247715
0.0220652
0.0197804
0.0179926
0.016565
0.015284
0.0664084
0.0597196
0.0539405
0.0489871
0.0447419
0.0410859
0.037935
0.0352082
0.0328081
0.0306733
0.0287691
)
;

boundaryField
{
    inlet
    {
        type            fixedValue;
        value           nonuniform List<scalar> 0();
    }
    ami1
    {
        type            cyclicAMI;
        value           nonuniform List<scalar> 0();
    }
    walls
    {
        type            epsilonWallFunction;
        blending        stepwise;
        value           nonuniform List<scalar> 
227
(
0.074947
0.0691433
0.0664479
0.0709331
0.0795752
0.0942205
0.12468
0.280558
0.0644812
0.0609934
0.0597463
0.0629682
0.0689267
0.0796113
0.105845
0.235882
0.0572342
0.0545944
0.0539636
0.056366
0.0605015
0.0684367
0.0900115
0.199698
0.0583217
0.0518517
0.0494258
0.0490021
0.0508019
0.0538069
0.0597678
0.078804
0.179428
0.16718
0.0695142
0.0537723
0.0475492
0.0451545
0.0447551
0.0461063
0.0485478
0.0536025
0.0711492
0.167241
0.158832
0.0658227
0.0500601
0.0440038
0.0415621
0.0410978
0.0420879
0.0441099
0.0490249
0.0658135
0.159113
0.152311
0.0626563
0.0469696
0.0409846
0.0385139
0.0379456
0.0386435
0.0404082
0.0453244
0.0616794
0.152608
0.146604
0.0598072
0.0443402
0.0383747
0.0358895
0.0352173
0.0356774
0.0373102
0.0422596
0.0582194
0.146839
0.141615
0.0571945
0.0420479
0.0360897
0.0335807
0.0328163
0.0331016
0.0346841
0.0396543
0.055274
0.141763
0.137412
0.0549474
0.0399997
0.0340701
0.0315337
0.0306814
0.0308554
0.0324319
0.0374173
0.0528271
0.137471
0.133641
0.0529675
0.0381767
0.0322718
0.0297073
0.0287821
0.0288906
0.0304943
0.035471
0.0506904
0.133685
0.130063
0.0511507
0.0365512
0.030657
0.0280672
0.0270858
0.0271597
0.0287868
0.280558
0.101374
0.0859396
0.0750157
0.069148
0.0664084
0.235882
0.0895266
0.0720318
0.0645567
0.0610043
0.0597196
0.199698
0.0803864
0.0640501
0.0572917
0.0546049
0.0539405
0.179428
0.0741662
0.0583645
0.0518992
0.0494352
0.0489871
0.167241
0.0696306
0.0538365
0.0475903
0.0451624
0.0447419
0.159113
0.0660085
0.0501224
0.0440401
0.0415687
0.0410859
0.152608
0.0628287
0.0470332
0.0410156
0.0385194
0.037935
0.146839
0.0599363
0.0444001
0.0384004
0.0358939
0.0352082
0.141763
0.0572875
0.0420978
0.0361103
0.0335838
0.0328081
0.137471
0.0549973
0.0400378
0.0340855
0.031535
0.0306733
0.133685
0.0530111
0.0382001
0.0322793
0.0297019
0.0287691
0.0598395
0.0537789
0.0506615
0.16718
0.0711448
0.0536071
0.0485385
0.0460318
0.158832
0.0656684
0.0489958
0.0441093
0.0420538
0.152311
0.0615178
0.0452651
0.0404081
0.0386323
0.146604
0.0580999
0.0422156
0.0373068
0.0356777
0.141615
0.0551954
0.0396299
0.0346833
0.033107
0.137412
0.0527875
0.0374075
0.0324354
0.030863
0.133641
0.0506616
0.0354678
0.0305006
0.028899
0.130063
0.0488431
0.0337671
0.0287976
0.0271683
)
;
    }
    ami2
    {
        type            cyclicAMI;
        value           nonuniform List<scalar> 
48
(
0.0787067
0.0720849
0.0697671
0.0716402
0.0758833
0.0834242
0.100121
0.184425
0.0493514
0.0484053
0.0490355
0.0514664
0.0539841
0.0567292
0.0661529
0.110314
0.0507359
0.0534974
0.0548982
0.0542434
0.0516554
0.0487909
0.0498426
0.0968041
0.0559184
0.0604393
0.0623626
0.0604822
0.0559197
0.0507453
0.0492992
0.0787449
0.0604821
0.0654695
0.067187
0.0654711
0.0604419
0.0534966
0.0483986
0.0720884
0.0623527
0.0671837
0.0688473
0.0671837
0.0623584
0.0549004
0.0489949
0.0697474
)
;
    }
    outlet
    {
        type            zeroGradient;
    }
    procBoundary0to1
    {
        type            processor;
        value           nonuniform List<scalar> 
138
(
0.0563309
0.049
0.0447444
0.0410869
0.0379375
0.0352125
0.0328142
0.030681
0.0287829
0.0270873
0.0356832
0.0312012
0.0277158
0.0247693
0.0220636
0.0197806
0.0179944
0.0165665
0.0152862
0.0141436
0.0501388
0.0433191
0.0376585
0.0376585
0.0334023
0.0294228
0.026054
0.0231727
0.0207013
0.018591
0.0167875
0.0152308
0.0138748
0.050635
0.043788
0.0381323
0.0334023
0.0294228
0.026054
0.0231727
0.0207013
0.018591
0.0167875
0.0152308
0.0138748
0.0558123
0.0481954
0.0418784
0.036602
0.0321649
0.0284109
0.025218
0.0224877
0.0201413
0.0181173
0.0163656
0.0148417
0.0604108
0.0520893
0.0452044
0.0394634
0.0346422
0.0305672
0.0271025
0.0241404
0.021595
0.0193975
0.0174921
0.0158334
0.0620429
0.0535
0.046418
0.0405098
0.0355488
0.0313571
0.0277941
0.0247484
0.0221313
0.0198716
0.0179119
0.0162058
0.0604086
0.052085
0.0452014
0.0394618
0.0346416
0.0305672
0.0271027
0.0241406
0.0215951
0.0193975
0.017492
0.0158335
0.0557935
0.0481786
0.0418636
0.0365864
0.0321471
0.0283904
0.0251944
0.0224625
0.0201176
0.0180957
0.0163446
0.0148236
0.0501213
0.0432935
0.0376374
0.0329165
0.0289508
0.0255969
0.0227504
0.0203254
0.0182636
0.0164959
0.0149703
0.0474106
0.0409668
0.0356692
0.0312855
0.0276336
0.0244681
0.0217894
0.019576
0.0179161
0.0164649
0.0151793
0.07093
0.0629428
0.0563367
0.0507802
0.046091
0.0420774
0.0386367
0.0356732
0.0330985
0.0308523
0.0288835
)
;
    }
    procBoundary0to2
    {
        type            processor;
        value           nonuniform List<scalar> 
28
(
0.179305
0.0740931
0.0740931
0.0860229
0.0720444
0.0640038
0.0640038
0.078751
0.078751
0.0383537
0.0383537
0.0383537
0.0472218
0.0419997
0.0360692
0.0360692
0.0683155
0.0361846
0.0460765
0.0396863
0.0343817
0.0343817
0.0604685
0.0358692
0.0479455
0.0414668
0.0360107
0.0360107
)
;
    }
    procBoundary0to8
    {
        type            processor;
        value           nonuniform List<scalar> 
29
(
0.126572
0.0494676
0.0351155
0.0291887
0.0265811
0.047069
0.0215983
0.0159243
0.0140346
0.0133807
0.0322654
0.0151009
0.012476
0.0124095
0.0126322
0.0272785
0.0134378
0.0122467
0.0128568
0.0135137
0.0256303
0.0130377
0.0125022
0.0134957
0.0143865
0.0147194
0.0137604
0.0147196
0.0150841
)
;
    }
    procBoundary0to9
    {
        type            processor;
        value           nonuniform List<scalar> 
40
(
0.025555
0.0256216
0.027266
0.0337606
0.0337606
0.0488633
0.130077
0.0131164
0.0130353
0.0134361
0.0159935
0.0159935
0.0225701
0.0511759
0.0126917
0.0125005
0.0122482
0.0134504
0.0134504
0.0165917
0.0365541
0.0137575
0.0134953
0.0128592
0.0135076
0.0135076
0.0150071
0.0306466
0.0143884
0.0135163
0.0137956
0.0137956
0.0143804
0.0280447
0.0147211
0.0137613
0.013878
0.013878
0.0141304
0.0270572
)
;
    }
}


// ************************************************************************* //
