/*--------------------------------*- C++ -*----------------------------------*\
| =========                 |                                                 |
| \\      /  F ield         | OpenFOAM: The Open Source CFD Toolbox           |
|  \\    /   O peration     | Version:  2212                                  |
|   \\  /    A nd           | Website:  www.openfoam.com                      |
|    \\/     M anipulation  |                                                 |
\*---------------------------------------------------------------------------*/
FoamFile
{
    version     2.0;
    format      ascii;
    arch        "LSB;label=32;scalar=64";
    class       volScalarField;
    location    "1.3";
    object      k;
}
// * * * * * * * * * * * * * * * * * * * * * * * * * * * * * * * * * * * * * //

dimensions      [0 2 -2 0 0 0 0];

internalField   nonuniform List<scalar> 
689
(
0.002834
0.00274223
0.00266809
0.00260153
0.00254218
0.00249169
0.00244599
0.00240236
0.00263142
0.00253938
0.00245782
0.00238254
0.00231199
0.00225065
0.00219602
0.00214578
0.00300716
0.00285063
0.00271885
0.00260629
0.00250827
0.00242108
0.00234168
0.00226958
0.00220471
0.004089
0.00371112
0.0034337
0.00321564
0.00303545
0.00288255
0.00274891
0.00263066
0.00252487
0.0024295
0.002343
0.00226394
0.00417704
0.00385667
0.00358877
0.00336151
0.0031661
0.00299632
0.00284787
0.00271662
0.00259844
0.00249142
0.00239398
0.00230475
0.00419178
0.00390818
0.00365336
0.00342648
0.00322556
0.00304718
0.00288914
0.00274851
0.00262162
0.00250626
0.00240141
0.00230581
0.00428834
0.00395559
0.00367179
0.00342514
0.00320996
0.00302032
0.00285289
0.00270464
0.00257259
0.00245465
0.0023491
0.00225412
0.00427281
0.00388068
0.00355809
0.00329231
0.00307289
0.00288287
0.00271995
0.0025795
0.00245724
0.00234973
0.00225508
0.00217005
0.00411866
0.00368736
0.00333766
0.00305019
0.00284227
0.00267866
0.00254282
0.00242757
0.00232704
0.00223873
0.00216035
0.00384209
0.00345601
0.00311085
0.00285209
0.0026681
0.00253535
0.00242975
0.00233845
0.00225866
0.00219155
0.0021319
0.00393619
0.00352436
0.00317461
0.00296578
0.00283481
0.00274526
0.00267156
0.00260442
0.00254407
0.00249255
0.00244658
0.00266744
0.0025321
0.00242556
0.00233519
0.00225638
0.00219024
0.00213113
0.00208004
0.00305094
0.00287087
0.00269661
0.00252944
0.00237618
0.00225044
0.00213101
0.00202287
0.0044627
0.00411122
0.0038073
0.00354038
0.00330374
0.00309171
0.00290052
0.00272736
0.00257286
0.00690118
0.00621897
0.0056454
0.00515828
0.00474202
0.0043826
0.00406478
0.00378218
0.00352942
0.00330238
0.00309844
0.00291449
0.00728716
0.00662279
0.00603888
0.00552838
0.00508138
0.0046893
0.00434575
0.00404337
0.00377173
0.00352685
0.00330614
0.00310647
0.00745297
0.00676952
0.00617216
0.00564923
0.0051908
0.0047875
0.0044343
0.00412435
0.00384864
0.00360002
0.00337564
0.00317255
0.00728511
0.00659595
0.00599969
0.00548377
0.00503627
0.00464786
0.00431007
0.004014
0.00374933
0.00351153
0.00329756
0.00310405
0.00671071
0.00603368
0.0054708
0.005
0.00460402
0.00426689
0.00397191
0.00370882
0.00347293
0.00326039
0.00306827
0.00289295
0.00569361
0.00507774
0.00460934
0.00424144
0.00393613
0.00367058
0.00343271
0.0032135
0.00301638
0.00283608
0.0026714
0.00430457
0.00385543
0.0035252
0.00327481
0.00307029
0.00288498
0.00270865
0.00253668
0.00238042
0.0022526
0.00213325
0.00336802
0.00310676
0.00289585
0.00274697
0.00263504
0.00254368
0.00246218
0.00238593
0.00231454
0.00225217
0.00219721
0.00305357
0.00284261
0.00267778
0.00254073
0.00242579
0.00232592
0.00223819
0.00216012
0.00209053
0.00423126
0.00392898
0.00366523
0.00342823
0.00321048
0.00301479
0.00283556
0.0026703
0.0025185
0.00570179
0.00525423
0.00486178
0.00451434
0.00420426
0.00392587
0.00367414
0.00344546
0.00323745
0.00890895
0.00809971
0.0073864
0.00676054
0.00621114
0.00572785
0.00530092
0.00492159
0.00458279
0.00427869
0.0040041
0.00375538
0.00974432
0.00883951
0.00805304
0.0073655
0.00676177
0.00622943
0.00575819
0.0053397
0.00496666
0.00463236
0.00433132
0.00405919
0.0100026
0.00907037
0.00826112
0.00755437
0.006934
0.00638696
0.00590258
0.00547245
0.0050893
0.00474647
0.00443816
0.00415976
0.00964177
0.0087593
0.00798754
0.00731082
0.00671565
0.00619053
0.0057258
0.0053132
0.00494557
0.00461637
0.00432022
0.00405269
0.0087626
0.00797038
0.00727572
0.00666674
0.00613219
0.00566183
0.00524629
0.00487705
0.00454701
0.00425036
0.00398258
0.00373952
0.00745883
0.00680299
0.00621688
0.00570351
0.00525634
0.00486404
0.00451648
0.00420606
0.00392728
0.00367505
0.00344646
0.00598333
0.00537815
0.00487652
0.00446641
0.00411699
0.00381305
0.00354528
0.00330776
0.00309487
0.00290284
0.00272957
0.00393712
0.00347387
0.00319932
0.00300819
0.00285245
0.00272078
0.00260833
0.00251031
0.00242289
0.00234316
0.00227045
0.00329206
0.00307308
0.00288325
0.00272009
0.00257935
0.00245711
0.0023498
0.0022553
0.00217056
0.00500204
0.00460634
0.00426917
0.00397372
0.0037104
0.00347449
0.00326205
0.00306979
0.0028952
0.00666527
0.00613181
0.00566201
0.00524676
0.0048777
0.00454777
0.00425124
0.00398347
0.0037409
0.0103708
0.00945084
0.00863637
0.00791575
0.00727782
0.00671231
0.0062099
0.00576212
0.00536159
0.00500198
0.00467787
0.00438475
0.0114605
0.0104097
0.00949271
0.00868858
0.00798033
0.00735392
0.00679775
0.00630214
0.00585897
0.00546129
0.00510315
0.00477955
0.0118287
0.0107286
0.00977545
0.00894318
0.00821179
0.00756566
0.00699223
0.00648132
0.0060245
0.00561463
0.00524562
0.00491236
0.0114085
0.0103716
0.00946493
0.00866817
0.00796504
0.00734228
0.00678881
0.00629531
0.00585386
0.00545762
0.00510077
0.00477835
0.0103716
0.00945269
0.00863782
0.00791659
0.00727821
0.00671241
0.00620982
0.00576192
0.00536131
0.00500164
0.00467751
0.00438421
0.00890955
0.00810006
0.00738688
0.00676121
0.00621206
0.00572895
0.00530208
0.00492269
0.00458377
0.00427948
0.00400483
0.00689942
0.00621802
0.00564598
0.00515975
0.00474426
0.00438503
0.00406703
0.00378419
0.00353114
0.00330378
0.00309948
0.00409125
0.00371383
0.00343567
0.00321735
0.00303704
0.002884
0.00275019
0.00263175
0.00252578
0.00243022
0.00234334
0.00342075
0.00320764
0.00301929
0.00285263
0.00270476
0.00257289
0.00245505
0.00234955
0.00225462
0.00548892
0.00504065
0.00465163
0.0043132
0.00401659
0.00375162
0.00351366
0.00329953
0.00310599
0.00731054
0.00671614
0.00619142
0.00572691
0.00531441
0.00494683
0.00461766
0.0043215
0.004054
0.0114082
0.0103717
0.0094652
0.00866848
0.00796542
0.00734272
0.00678932
0.00629588
0.00585447
0.00545826
0.00510142
0.00477902
0.0125228
0.0113836
0.0103879
0.00951309
0.00874108
0.00805701
0.00744858
0.00690551
0.00641914
0.00598215
0.00558828
0.00523229
0.0128801
0.0117164
0.0106952
0.00979631
0.00900215
0.00829799
0.00767137
0.00711183
0.00661052
0.00615996
0.00575377
0.0053866
0.0125226
0.0113833
0.0103875
0.00951269
0.00874067
0.00805661
0.00744819
0.00690514
0.0064188
0.00598183
0.00558799
0.00523202
0.0114607
0.0104095
0.00949233
0.00868818
0.00797995
0.00735361
0.00679751
0.00630196
0.00585883
0.00546118
0.00510307
0.00477955
0.00974437
0.00883927
0.0080528
0.00736547
0.00676203
0.00622993
0.00575882
0.00534037
0.00496733
0.004633
0.00433193
0.00728734
0.00662447
0.00604081
0.00553019
0.00508304
0.00469078
0.00434703
0.00404445
0.00377263
0.00352764
0.00330639
0.00417727
0.00385721
0.00358938
0.00336208
0.00316658
0.00299671
0.00284817
0.00271686
0.00259862
0.0024915
0.00239369
0.0118283
0.0107285
0.00977532
0.008943
0.00821164
0.00756561
0.00699232
0.00648153
0.00602481
0.00561503
0.00524609
0.00491284
0.0128803
0.0117166
0.0106954
0.00979647
0.00900229
0.00829813
0.00767153
0.00711201
0.00661072
0.00616017
0.00575399
0.0053868
0.0132268
0.0120455
0.0110045
0.0100851
0.00927096
0.00854782
0.00790353
0.00732769
0.00681141
0.00634712
0.00592837
0.0055497
0.0128802
0.0117165
0.0106952
0.00979618
0.00900198
0.00829781
0.00767121
0.0071117
0.00661043
0.0061599
0.00575375
0.0053866
0.0118276
0.0107275
0.00977461
0.00894254
0.00821132
0.00756534
0.00699204
0.00648123
0.00602448
0.00561468
0.00524574
0.00491262
0.0100021
0.00906968
0.00826071
0.00755425
0.00693412
0.00638726
0.00590299
0.0054729
0.00508978
0.00474699
0.00443874
0.00745572
0.00677267
0.00617474
0.00565117
0.00519228
0.00478851
0.00443503
0.00412497
0.00384921
0.0036006
0.00337571
0.00419059
0.00390762
0.00365284
0.00342611
0.00322517
0.00304675
0.00288871
0.00274812
0.00262125
0.00250588
0.00240074
)
;

boundaryField
{
    inlet
    {
        type            fixedValue;
        value           nonuniform List<scalar> 0();
    }
    ami1
    {
        type            cyclicAMI;
        value           nonuniform List<scalar> 0();
    }
    walls
    {
        type            kqRWallFunction;
        value           nonuniform List<scalar> 
227
(
0.004089
0.00417704
0.00419178
0.00428834
0.00427281
0.00411866
0.00384209
0.00393619
0.00371112
0.00385667
0.00390818
0.00395559
0.00388068
0.00368736
0.00345601
0.00352436
0.0034337
0.00358877
0.00365336
0.00367179
0.00355809
0.00333766
0.00311085
0.00317461
0.00300716
0.00321564
0.00336151
0.00342648
0.00342514
0.00329231
0.00305019
0.00285209
0.00296578
0.002834
0.00263142
0.00285063
0.00303545
0.0031661
0.00322556
0.00320996
0.00307289
0.00284227
0.0026681
0.00283481
0.00274223
0.00253938
0.00271885
0.00288255
0.00299632
0.00304718
0.00302032
0.00288287
0.00267866
0.00253535
0.00274526
0.00266809
0.00245782
0.00260629
0.00274891
0.00284787
0.00288914
0.00285289
0.00271995
0.00254282
0.00242975
0.00267156
0.00260153
0.00238254
0.00250827
0.00263066
0.00271662
0.00274851
0.00270464
0.0025795
0.00242757
0.00233845
0.00260442
0.00254218
0.00231199
0.00242108
0.00252487
0.00259844
0.00262162
0.00257259
0.00245724
0.00232704
0.00225866
0.00254407
0.00249169
0.00225065
0.00234168
0.0024295
0.00249142
0.00250626
0.00245465
0.00234973
0.00223873
0.00219155
0.00249255
0.00244599
0.00219602
0.00226958
0.002343
0.00239398
0.00240141
0.0023491
0.00225508
0.00216035
0.0021319
0.00244658
0.00240236
0.00214578
0.00220471
0.00226394
0.00230475
0.00230581
0.00225412
0.00217005
0.00393619
0.00336802
0.00393712
0.00409125
0.00417727
0.00419059
0.00352436
0.00310676
0.00347387
0.00371383
0.00385721
0.00390762
0.00317461
0.00289585
0.00319932
0.00343567
0.00358938
0.00365284
0.00296578
0.00274697
0.00300819
0.00321735
0.00336208
0.00342611
0.00283481
0.00263504
0.00285245
0.00303704
0.00316658
0.00322517
0.00274526
0.00254368
0.00272078
0.002884
0.00299671
0.00304675
0.00267156
0.00246218
0.00260833
0.00275019
0.00284817
0.00288871
0.00260442
0.00238593
0.00251031
0.00263175
0.00271686
0.00274812
0.00254407
0.00231454
0.00242289
0.00252578
0.00259862
0.00262125
0.00249255
0.00225217
0.00234316
0.00243022
0.0024915
0.00250588
0.00244658
0.00219721
0.00227045
0.00234334
0.00239369
0.00240074
0.00305357
0.00329206
0.00342075
0.002834
0.00266744
0.00284261
0.00307308
0.00320764
0.00274223
0.0025321
0.00267778
0.00288325
0.00301929
0.00266809
0.00242556
0.00254073
0.00272009
0.00285263
0.00260153
0.00233519
0.00242579
0.00257935
0.00270476
0.00254218
0.00225638
0.00232592
0.00245711
0.00257289
0.00249169
0.00219024
0.00223819
0.0023498
0.00245505
0.00244599
0.00213113
0.00216012
0.0022553
0.00234955
0.00240236
0.00208004
0.00209053
0.00217056
0.00225462
)
;
    }
    ami2
    {
        type            cyclicAMI;
        value           nonuniform List<scalar> 
48
(
0.00432093
0.00436659
0.00434252
0.00448607
0.00448772
0.00432076
0.00401649
0.00386426
0.00729738
0.00765366
0.00784459
0.00767279
0.00707235
0.00601053
0.00451268
0.003474
0.00936054
0.0102696
0.0105453
0.0101469
0.0092125
0.00781674
0.00630698
0.00418782
0.0108883
0.0120649
0.0124704
0.0120055
0.0108886
0.00936074
0.00729647
0.00432212
0.0120054
0.013179
0.0135443
0.0131789
0.0120649
0.0102696
0.00765378
0.00436676
0.0124702
0.0135445
0.0138978
0.0135444
0.0124698
0.010545
0.00784602
0.00434193
)
;
    }
    outlet
    {
        type            zeroGradient;
    }
    procBoundary0to1
    {
        type            processor;
        value           nonuniform List<scalar> 
138
(
0.00367053
0.0034262
0.00322503
0.00304666
0.00288876
0.0027483
0.00262154
0.00250628
0.00240149
0.00230593
0.00599829
0.00564842
0.00519092
0.00478809
0.00443519
0.00412546
0.00384987
0.00360128
0.00337683
0.00317368
0.00963966
0.00875781
0.00798658
0.00798658
0.00755371
0.00693362
0.00638688
0.00590275
0.00547281
0.00508982
0.00474709
0.00443884
0.00416046
0.0100028
0.00906983
0.00826032
0.00755371
0.00693362
0.00638688
0.00590275
0.00547281
0.00508982
0.00474709
0.00443884
0.00416046
0.0114613
0.01041
0.00949276
0.00868851
0.00798022
0.00735385
0.00679773
0.00630218
0.00585906
0.00546141
0.00510328
0.00477966
0.0125233
0.0113837
0.0103879
0.0095131
0.00874112
0.00805707
0.00744865
0.00690559
0.00641923
0.00598224
0.00558838
0.00523237
0.0128805
0.011717
0.0106957
0.00979671
0.00900246
0.00829823
0.00767158
0.00711201
0.00661069
0.00616013
0.00575393
0.00538675
0.0125234
0.0113835
0.0103876
0.00951276
0.00874077
0.00805672
0.00744832
0.00690527
0.00641892
0.00598194
0.0055881
0.00523213
0.011409
0.0103719
0.0094651
0.00866828
0.00796514
0.00734238
0.00678893
0.00629545
0.005854
0.00545778
0.00510096
0.0047786
0.00964126
0.0087599
0.00798851
0.00731178
0.00671648
0.00619124
0.00572641
0.00531372
0.00494608
0.0046169
0.00432081
0.00728491
0.00659576
0.0059997
0.00548393
0.00503655
0.00464822
0.00431042
0.00401437
0.00374979
0.00351211
0.00329789
0.00428825
0.00395475
0.00367069
0.00342421
0.00320927
0.00301985
0.00285258
0.00270446
0.00257247
0.00245453
0.00234878
)
;
    }
    procBoundary0to2
    {
        type            processor;
        value           nonuniform List<scalar> 
28
(
0.00296481
0.00274558
0.00274558
0.00393904
0.00347487
0.00319831
0.00319831
0.00285109
0.00285109
0.00327279
0.00327279
0.00327279
0.00598132
0.00537671
0.00487682
0.00487682
0.00333296
0.00461894
0.00746212
0.00680374
0.00621767
0.00621767
0.00355669
0.00547688
0.00876198
0.0079704
0.00727604
0.00727604
)
;
    }
    procBoundary0to8
    {
        type            processor;
        value           nonuniform List<scalar> 
29
(
0.002359
0.00209768
0.00214588
0.00219083
0.00222239
0.00202943
0.00191304
0.00242613
0.00274797
0.00292727
0.0020279
0.00237422
0.00304527
0.00352892
0.00381284
0.00209348
0.00273439
0.00351932
0.00411844
0.00448633
0.00216859
0.00293123
0.0038114
0.00448675
0.00490962
0.00505391
0.0046109
0.00505397
0.00520645
)
;
    }
    procBoundary0to9
    {
        type            processor;
        value           nonuniform List<scalar> 
40
(
0.00221788
0.00216807
0.00209285
0.00209026
0.00209026
0.00208065
0.00240265
0.00299049
0.00292962
0.00273236
0.00251596
0.00251596
0.00202553
0.00214658
0.00390807
0.00381023
0.00351795
0.00323621
0.00323621
0.00257405
0.00220494
0.00461062
0.00448613
0.00411781
0.00375527
0.00375527
0.00291547
0.00226342
0.00490942
0.00448615
0.00405998
0.00405998
0.00310812
0.00230355
0.00505386
0.00461071
0.00416081
0.00416081
0.00317434
0.0023043
)
;
    }
}


// ************************************************************************* //
