/*--------------------------------*- C++ -*----------------------------------*\
| =========                 |                                                 |
| \\      /  F ield         | OpenFOAM: The Open Source CFD Toolbox           |
|  \\    /   O peration     | Version:  2212                                  |
|   \\  /    A nd           | Website:  www.openfoam.com                      |
|    \\/     M anipulation  |                                                 |
\*---------------------------------------------------------------------------*/
FoamFile
{
    version     2.0;
    format      ascii;
    arch        "LSB;label=32;scalar=64";
    class       surfaceVectorField;
    location    "1.3";
    object      Uf;
}
// * * * * * * * * * * * * * * * * * * * * * * * * * * * * * * * * * * * * * //

dimensions      [0 1 -1 0 0 0 0];

internalField   nonuniform List<vector> 
1812
(
(0.0314205 0.000171017 8.98693e-05)
(0.0388587 0.00036945 -4.5969e-05)
(0.0391018 3.14453e-05 0.000699345)
(0.0308322 8.2004e-05 6.35752e-05)
(0.0383441 0.000201088 -3.5468e-05)
(0.0381118 5.4303e-06 0.000474565)
(0.0303209 2.79568e-05 4.36673e-05)
(0.0378831 8.84315e-05 -3.06245e-05)
(0.0373651 -2.36216e-05 0.000353307)
(0.0298497 -2.76269e-06 3.29234e-05)
(0.03742 1.81719e-05 -2.45466e-05)
(0.0367172 -4.06252e-05 0.000279311)
(0.0294124 -1.80388e-05 2.84794e-05)
(0.0369626 -2.63494e-05 -1.26724e-05)
(0.0361386 -4.48801e-05 0.000222968)
(0.0290033 -2.46357e-05 2.79883e-05)
(0.0365239 -5.45721e-05 2.57218e-06)
(0.0356221 -4.10718e-05 0.000179272)
(0.0286137 -2.7453e-05 3.05534e-05)
(0.0360947 -7.31033e-05 1.80278e-05)
(0.035143 -3.46006e-05 0.000146474)
(0.035672 -8.50903e-05 3.42721e-05)
(0.0346882 -2.58565e-05 0.000121485)
(0.049417 0.000403776 -5.16939e-05)
(0.0569323 0.000461015 7.95691e-05)
(0.0626972 0.000378503 0.00062529)
(0.0490515 0.000196168 -2.86111e-05)
(0.0566431 0.000184352 0.000116492)
(0.0621904 0.000240775 0.000466085)
(0.0486493 5.4912e-05 -7.24101e-06)
(0.0563207 -1.33275e-05 0.00014661)
(0.0617303 0.000135269 0.000353677)
(0.0482096 -3.75565e-05 1.40488e-05)
(0.055944 -0.000149462 0.000172798)
(0.0612795 5.80415e-05 0.000278691)
(0.0477471 -0.000100072 3.53613e-05)
(0.0555259 -0.000243183 0.000189734)
(0.0608355 2.1987e-06 0.000231435)
(0.0472729 -0.000143942 5.81043e-05)
(0.0550842 -0.000309047 0.000201318)
(0.0603969 -3.86258e-05 0.000200128)
(0.0467921 -0.000174465 8.19872e-05)
(0.0546211 -0.000356779 0.000214486)
(0.0599585 -6.55051e-05 0.000176476)
(0.054142 -0.000390586 0.000227851)
(0.0595204 -8.37293e-05 0.000160271)
(0.0661659 0.000594799 0.000179544)
(0.0707818 0.000553871 7.10646e-05)
(0.0780451 0.000505488 0.000772984)
(0.0659888 0.000232989 0.00020085)
(0.070805 0.000202948 5.02615e-05)
(0.077928 0.000256353 0.000678677)
(0.0657426 -3.7683e-05 0.000222851)
(0.070739 -7.39547e-05 6.12309e-05)
(0.0778023 4.26864e-05 0.000604202)
(0.0654461 -0.000234106 0.00024152)
(0.0705897 -0.000284559 7.48697e-05)
(0.0776744 -0.000117342 0.00053763)
(0.0651028 -0.000376168 0.000257312)
(0.0703546 -0.000444168 9.69813e-05)
(0.0775294 -0.000239252 0.000485071)
(0.0647149 -0.000478123 0.000267671)
(0.0700414 -0.000564321 0.000120723)
(0.0773621 -0.000332372 0.000442157)
(0.0642881 -0.000552135 0.000275464)
(0.0696617 -0.000654848 0.000143275)
(0.0771709 -0.00040392 0.000407207)
(0.0638272 -0.000606785 0.000283887)
(0.0692268 -0.000723971 0.000165974)
(0.0769568 -0.000461153 0.000382239)
(0.0687436 -0.000775328 0.000188482)
(0.0767197 -0.000505115 0.000362968)
(0.0741144 0.000999772 1.26125e-05)
(0.0778449 0.000475635 -0.000540735)
(0.0846762 0.000651598 0.000296398)
(0.0750311 0.000761896 -2.23135e-05)
(0.0783323 0.000297701 -0.000474697)
(0.085184 0.000460278 0.000389992)
(0.0756256 0.0004372 -0.000110918)
(0.0788824 4.33962e-05 -0.000458954)
(0.0857334 0.000266225 0.000309277)
(0.0760012 0.000132585 -0.000151772)
(0.0792406 -0.000189877 -0.000447743)
(0.0861583 6.72534e-05 0.000205252)
(0.0762141 -0.000127108 -0.000136299)
(0.0794085 -0.000392827 -0.000392514)
(0.0864637 -0.000146561 0.000154516)
(0.0762744 -0.000340461 -9.41998e-05)
(0.0794392 -0.000565179 -0.000304833)
(0.0866851 -0.000326894 0.000128077)
(0.0761946 -0.000512879 -4.42302e-05)
(0.079347 -0.000708311 -0.000208739)
(0.0868286 -0.000471574 0.000113016)
(0.0759961 -0.000650383 4.85501e-06)
(0.0791415 -0.000825604 -0.000119067)
(0.0868977 -0.000591163 0.000109659)
(0.0756978 -0.000759624 5.10294e-05)
(0.0788309 -0.000920138 -4.02739e-05)
(0.0868965 -0.000688888 0.000114876)
(0.0753127 -0.000846094 9.55386e-05)
(0.0784305 -0.000995857 3.00982e-05)
(0.086832 -0.000768812 0.000127292)
(0.0748543 -0.000912714 0.000137385)
(0.0779517 -0.00105303 9.13556e-05)
(0.0867109 -0.000833492 0.000145229)
(0.0774058 -0.00109316 0.000150533)
(0.086537 -0.000884742 0.000165958)
(0.0823218 -0.000241796 -0.000801856)
(0.0851854 -0.000657299 -0.000924514)
(0.0912217 -0.000410083 -0.000400802)
(0.0825775 -0.000450429 -0.000823374)
(0.0850951 -0.000866376 -0.00102711)
(0.0913886 -0.00060098 -0.000468523)
(0.0827769 -0.000617529 -0.000791877)
(0.0851076 -0.00103188 -0.00101562)
(0.0916679 -0.000723695 -0.000518939)
(0.0828745 -0.00074701 -0.000716811)
(0.0850251 -0.00114514 -0.00093303)
(0.0919303 -0.000814035 -0.000533142)
(0.0828623 -0.000859682 -0.000606048)
(0.0848117 -0.00123149 -0.000809605)
(0.092124 -0.000900793 -0.000503531)
(0.0827422 -0.000959501 -0.000476373)
(0.0844869 -0.0012958 -0.000666051)
(0.0922445 -0.000983395 -0.000441037)
(0.0825164 -0.00104522 -0.000344434)
(0.0840708 -0.00134157 -0.000518898)
(0.0922982 -0.00105997 -0.000361627)
(0.0821916 -0.00111707 -0.000220885)
(0.083573 -0.00137353 -0.000376918)
(0.0922849 -0.00112313 -0.000279017)
(0.0817768 -0.00117565 -0.000109667)
(0.0829963 -0.0013959 -0.000245536)
(0.0922041 -0.00117253 -0.000197654)
(0.0812788 -0.00121949 -1.07639e-05)
(0.0823532 -0.00140912 -0.000123694)
(0.0920616 -0.00121235 -0.000116471)
(0.0807077 -0.00124831 7.42389e-05)
(0.081657 -0.001411 -1.47215e-05)
(0.0918614 -0.00124095 -3.80415e-05)
(0.0809215 -0.00140301 7.64523e-05)
(0.091611 -0.00126057 3.37652e-05)
(0.0880202 -0.00129817 -0.00117431)
(0.0895675 -0.00154891 -0.00123313)
(0.095659 -0.00131172 -0.000773373)
(0.0877634 -0.00146669 -0.00125827)
(0.0890076 -0.00186621 -0.00146909)
(0.0955945 -0.00150173 -0.000951208)
(0.0874311 -0.00157559 -0.00118571)
(0.0884467 -0.00202916 -0.00140446)
(0.0955607 -0.00159997 -0.00100382)
(0.0870016 -0.00164291 -0.00104442)
(0.0877135 -0.00207066 -0.00124479)
(0.0954804 -0.00165771 -0.000968478)
(0.0864722 -0.00167855 -0.000880875)
(0.0868424 -0.00205643 -0.00104664)
(0.095329 -0.00169731 -0.000884204)
(0.0858514 -0.00168647 -0.000713509)
(0.0858786 -0.00200966 -0.000837581)
(0.0951044 -0.0017184 -0.000767525)
(0.0851557 -0.00167636 -0.000551152)
(0.0848615 -0.00194882 -0.000639643)
(0.0948144 -0.00172519 -0.000641833)
(0.0843985 -0.00165716 -0.000398007)
(0.0838159 -0.00188074 -0.00045266)
(0.094468 -0.00171647 -0.000513973)
(0.0835916 -0.00163265 -0.000252984)
(0.0827567 -0.00180982 -0.000282019)
(0.0940734 -0.00169515 -0.000384422)
(0.0827481 -0.00160266 -0.000118778)
(0.081701 -0.00173587 -0.000131124)
(0.0936406 -0.00166494 -0.000257022)
(0.0818838 -0.00156723 -4.2703e-06)
(0.0806662 -0.00166146 -8.8833e-06)
(0.093182 -0.00162986 -0.000138928)
(0.0796622 -0.00158857 8.46115e-05)
(0.0927077 -0.00159098 -3.61627e-05)
(0.0906366 -0.00210289 -0.00150898)
(0.0901562 -0.00220695 -0.00158633)
(0.0971973 -0.0019789 -0.00106741)
(0.0897521 -0.00240966 -0.00158625)
(0.0889534 -0.00281172 -0.00176722)
(0.096918 -0.00231866 -0.00127451)
(0.0887122 -0.00250365 -0.00143034)
(0.0875947 -0.00293222 -0.00158229)
(0.096562 -0.00243812 -0.00125404)
(0.0875334 -0.00246272 -0.00120845)
(0.0859198 -0.00281911 -0.00127876)
(0.0960429 -0.00244134 -0.00114099)
(0.0862454 -0.00236723 -0.000964733)
(0.0841201 -0.00264014 -0.000947197)
(0.0953916 -0.0023927 -0.000974152)
(0.0848973 -0.0022546 -0.000730512)
(0.0823313 -0.00244017 -0.000654851)
(0.0946477 -0.00231551 -0.000785161)
(0.0835373 -0.00213931 -0.000515495)
(0.0806167 -0.00224471 -0.000421981)
(0.0938538 -0.00221709 -0.000598941)
(0.0821939 -0.00202296 -0.000318564)
(0.0790052 -0.00206083 -0.000234401)
(0.093039 -0.00211534 -0.000418913)
(0.0808939 -0.00190598 -0.000149344)
(0.0775118 -0.00188989 -8.37972e-05)
(0.0922271 -0.00200095 -0.000255066)
(0.0796529 -0.00179058 -1.64206e-05)
(0.0761404 -0.00173718 3.33973e-05)
(0.0914389 -0.00188758 -0.000116075)
(0.078483 -0.00168075 8.13978e-05)
(0.0748869 -0.00160389 0.00010803)
(0.0906884 -0.00178038 -5.10435e-06)
(0.0737412 -0.00148788 0.000156088)
(0.0899825 -0.0016801 8.14734e-05)
(0.0888851 -0.00287767 -0.00181015)
(0.0857631 -0.00292942 -0.00184273)
(0.0950602 -0.00255663 -0.00141062)
(0.0870426 -0.00325975 -0.00166336)
(0.0832305 -0.00365972 -0.00175253)
(0.0944135 -0.00310492 -0.00139899)
(0.0849011 -0.00318024 -0.00133892)
(0.0804781 -0.00345487 -0.00128143)
(0.0935135 -0.00310818 -0.00119203)
(0.0826405 -0.00295126 -0.000964872)
(0.0774934 -0.00304587 -0.000777898)
(0.0923033 -0.00294152 -0.000916402)
(0.0803968 -0.00268488 -0.000612544)
(0.0747235 -0.00262524 -0.000392839)
(0.0909451 -0.00273965 -0.00062405)
(0.0782761 -0.00241343 -0.000335641)
(0.0723339 -0.00224223 -0.000139749)
(0.0895716 -0.00250138 -0.00036862)
(0.0763317 -0.00215821 -0.000138124)
(0.0703078 -0.00192351 1.27799e-05)
(0.0882637 -0.00225696 -0.000169621)
(0.0745843 -0.00192729 -2.41082e-06)
(0.0685924 -0.0016592 9.48185e-05)
(0.0870595 -0.00202902 -2.39809e-05)
(0.0730305 -0.00172623 9.29544e-05)
(0.0671332 -0.00143916 0.000134244)
(0.0859723 -0.0018275 7.77041e-05)
(0.071653 -0.00155888 0.000151363)
(0.0658721 -0.00127235 0.000155035)
(0.0850028 -0.00165591 0.00015028)
(0.0704264 -0.00142105 0.000177337)
(0.0647647 -0.00114922 0.000154153)
(0.0841421 -0.00151389 0.000187637)
(0.0833793 -0.00139519 0.000205091)
(0.081409 -0.00356123 -0.00162314)
(0.0737997 -0.00331395 -0.00155149)
(0.0880522 -0.00328959 -0.00134889)
(0.0775337 -0.00371678 -0.00122108)
(0.0690566 -0.00356136 -0.00102825)
(0.0864992 -0.00379909 -0.0011308)
(0.0736719 -0.00326003 -0.000672662)
(0.0649293 -0.00288298 -0.000321693)
(0.0845873 -0.00336555 -0.000651551)
(0.0702933 -0.00274386 -0.000268266)
(0.0612427 -0.00226162 9.55068e-06)
(0.0824075 -0.00286177 -0.000238819)
(0.0674731 -0.00226283 -4.37034e-05)
(0.058469 -0.00168518 0.000125154)
(0.080382 -0.00236301 1.26254e-05)
(0.0652006 -0.00185854 6.71676e-05)
(0.0564912 -0.00129764 0.000136786)
(0.0786841 -0.00193212 0.000149829)
(0.0633952 -0.00153758 0.000109927)
(0.0549941 -0.00106278 0.00010599)
(0.0772978 -0.00159273 0.000206565)
(0.0619504 -0.00127973 0.000114279)
(0.0537869 -0.000898855 6.58005e-05)
(0.0761719 -0.00133089 0.000211419)
(0.0607629 -0.00108366 0.00010241)
(0.0527841 -0.000761505 3.47282e-05)
(0.0752512 -0.00113243 0.000195552)
(0.0597515 -0.000949838 8.37506e-05)
(0.0519291 -0.000656582 1.42725e-05)
(0.0744776 -0.000991734 0.000167631)
(0.0511734 -0.000583242 -3.45939e-06)
(0.0738112 -0.00089227 0.000134293)
(0.065528 -0.00316729 -0.000808566)
(0.0535606 -0.00271142 -0.000500569)
(0.072746 -0.00440006 -0.000931565)
(0.0588241 -0.00304106 -0.000506173)
(0.0469898 -0.00196155 3.88757e-05)
(0.0699797 -0.00370026 -0.000579243)
(0.054236 -0.00238535 -0.000197368)
(0.0433272 -0.0013838 6.96723e-05)
(0.0672991 -0.0026 -0.000108194)
(0.0513234 -0.00162779 -4.235e-06)
(0.0407282 -0.00105508 3.11182e-05)
(0.0648222 -0.00171809 0.000154773)
(0.0494453 -0.00102991 7.37864e-05)
(0.0391236 -0.000700062 3.20229e-05)
(0.0630511 -0.00108885 0.000250178)
(0.0481461 -0.000716794 6.31908e-05)
(0.0381379 -0.000474789 5.91405e-06)
(0.0618801 -0.000723755 0.000236898)
(0.0471502 -0.00056519 2.70808e-05)
(0.0373928 -0.000353369 -2.43216e-05)
(0.0610211 -0.000525022 0.000185829)
(0.0463206 -0.000468633 -6.62778e-07)
(0.0367408 -0.00027958 -4.16594e-05)
(0.0603108 -0.000410506 0.000129221)
(0.0456035 -0.000389545 -1.49297e-05)
(0.0361563 -0.000223407 -4.57228e-05)
(0.0596952 -0.000335389 8.04882e-05)
(0.0449641 -0.000325503 -2.08771e-05)
(0.0356321 -0.000179734 -4.1548e-05)
(0.0591437 -0.000281677 4.14636e-05)
(0.0351488 -0.000146912 -3.47731e-05)
(0.058633 -0.00023984 1.39234e-05)
(0.0423934 -0.00204013 -8.57772e-05)
(0.0478473 -0.00317061 -4.57012e-07)
(0.0360932 -0.000797909 0.000393139)
(0.043266 -0.00150849 0.000507467)
(0.0335504 -0.000207077 0.000435008)
(0.041098 -0.00033212 0.000677921)
(0.0322284 -0.000117123 0.000298344)
(0.0396848 2.91607e-05 0.000551897)
(0.0314371 -9.00235e-05 0.000171291)
(0.0388828 4.84134e-05 0.000371172)
(0.0308562 -6.31908e-05 8.16393e-05)
(0.0383728 3.84887e-05 0.000201741)
(0.0303454 -4.33485e-05 2.71089e-05)
(0.0379133 3.17195e-05 8.74727e-05)
(0.0298699 -3.3054e-05 -3.60648e-06)
(0.0374454 2.40114e-05 1.6692e-05)
(0.0294265 -2.89148e-05 -1.85756e-05)
(0.0369818 1.12483e-05 -2.76121e-05)
(0.0290114 -2.86098e-05 -2.48398e-05)
(0.0365353 -4.30229e-06 -5.53468e-05)
(0.0361019 -1.97119e-05 -7.3543e-05)
(0.0494157 7.1911e-05 0.00103)
(0.063036 0.000251438 0.00108668)
(0.0584455 0.000117968 0.00169288)
(0.0481135 6.35637e-05 0.000715163)
(0.0618668 0.000237412 0.00072356)
(0.056467 0.000134324 0.00129913)
(0.0471215 2.91023e-05 0.000563091)
(0.0610083 0.00018681 0.000525101)
(0.0549707 0.000108435 0.00105992)
(0.0462989 1.58272e-06 0.000466694)
(0.0603001 0.000129912 0.000410856)
(0.0537687 7.04374e-05 0.00089381)
(0.0455892 -1.31137e-05 0.00038803)
(0.0596871 8.09308e-05 0.000335857)
(0.0527718 3.95058e-05 0.000755965)
(0.0449561 -1.95544e-05 0.000324434)
(0.0591402 4.21853e-05 0.000281479)
(0.0519237 1.78231e-05 0.000652321)
(0.0443732 -2.11972e-05 0.00027503)
(0.0586321 1.46682e-05 0.000238987)
(0.0511716 -9.45353e-07 0.000580141)
(0.0581492 -4.1387e-06 0.000205322)
(0.0504838 -1.70275e-05 0.000530538)
(0.0788704 0.00040126 0.00111993)
(0.0850574 0.000348011 0.00128394)
(0.0860944 0.000373014 0.00183753)
(0.0782162 0.000349367 0.000816697)
(0.0846687 0.000277093 0.00099874)
(0.0853806 0.000377385 0.00146225)
(0.0776857 0.000277905 0.000614448)
(0.0843751 0.000186793 0.000805148)
(0.084769 0.000334712 0.00118337)
(0.0772339 0.000198466 0.000488131)
(0.0841417 9.11417e-05 0.000675036)
(0.0842438 0.000263849 0.000985969)
(0.0768216 0.000122784 0.000410824)
(0.0839447 1.92275e-07 0.000588737)
(0.0837909 0.000191826 0.000854153)
(0.076426 6.03467e-05 0.000354987)
(0.0837589 -8.00373e-05 0.000527771)
(0.083385 0.000124081 0.00075933)
(0.0760394 1.37258e-05 0.000308768)
(0.0835765 -0.00014484 0.000479343)
(0.0830164 6.76656e-05 0.000683265)
(0.0833906 -0.00019484 0.00043961)
(0.0826752 2.13341e-05 0.000622476)
(0.0918111 0.000299008 0.00125408)
(0.0946908 0.000143654 0.00100486)
(0.0968979 0.000227034 0.00175623)
(0.0918064 0.000214726 0.0010496)
(0.0948413 4.99312e-05 0.000817618)
(0.0969953 0.000219246 0.0015616)
(0.0918319 0.000100664 0.000887593)
(0.0949996 -6.7093e-05 0.000670756)
(0.0970653 0.000156009 0.00138273)
(0.0918785 -1.6894e-05 0.000764072)
(0.0951724 -0.000184635 0.000555446)
(0.0971355 6.96223e-05 0.00122768)
(0.0919396 -0.000125971 0.000669932)
(0.0953492 -0.000296215 0.000470455)
(0.0972156 -2.12848e-05 0.00109983)
(0.0920067 -0.000222955 0.000598345)
(0.0955196 -0.000396885 0.000411166)
(0.0973063 -0.000110968 0.000994742)
(0.0920684 -0.000307158 0.000544876)
(0.0956751 -0.000484807 0.0003715)
(0.0974034 -0.000195659 0.000911279)
(0.0921176 -0.000377051 0.000502991)
(0.095811 -0.000560226 0.000345647)
(0.0975039 -0.000271756 0.000844827)
(0.0959225 -0.000621755 0.000327584)
(0.0976028 -0.000336453 0.000788867)
(0.0971374 9.14413e-05 0.00069795)
(0.0991161 -0.000272123 0.000320521)
(0.101272 -0.000128101 0.000936289)
(0.0973659 5.12496e-05 0.00069851)
(0.0992956 -0.00032293 0.000293995)
(0.10152 -9.43192e-05 0.000956776)
(0.0976846 -1.84631e-05 0.000611659)
(0.0995659 -0.000389302 0.000220744)
(0.101819 -9.07224e-05 0.000933257)
(0.0980058 -0.000127466 0.000500189)
(0.0998986 -0.00047092 0.000131784)
(0.102188 -0.000127529 0.000861622)
(0.0983348 -0.000254503 0.000400773)
(0.100244 -0.000571777 6.49107e-05)
(0.102566 -0.000204173 0.000777919)
(0.0986628 -0.000374581 0.000316654)
(0.100576 -0.000672557 2.10613e-05)
(0.102932 -0.000293976 0.000693218)
(0.0989788 -0.000485231 0.000252919)
(0.100893 -0.000768358 -3.98328e-06)
(0.10329 -0.000384888 0.000614283)
(0.0992748 -0.000587648 0.000213018)
(0.101186 -0.000853237 -1.1368e-05)
(0.103635 -0.000476965 0.000551175)
(0.0995442 -0.00067871 0.000192693)
(0.101452 -0.000924082 -2.92763e-06)
(0.103963 -0.000565027 0.000505258)
(0.0997829 -0.00075739 0.000186297)
(0.101685 -0.000985528 1.99722e-05)
(0.104273 -0.00064532 0.000473707)
(0.0999892 -0.000824102 0.000189768)
(0.101886 -0.00103748 5.19836e-05)
(0.104562 -0.000716613 0.000453137)
(0.102052 -0.00108047 8.90427e-05)
(0.104829 -0.000778512 0.0004413)
(0.101279 -0.000701605 -6.32606e-05)
(0.102595 -0.0010476 -0.000252928)
(0.104836 -0.000768532 0.000216165)
(0.101562 -0.000780461 -0.000172184)
(0.102806 -0.00115687 -0.000382604)
(0.105103 -0.000776295 0.000128864)
(0.101903 -0.000860781 -0.00025944)
(0.103055 -0.00125346 -0.000479386)
(0.105418 -0.000829653 6.99337e-05)
(0.102253 -0.000935147 -0.000314563)
(0.103343 -0.00132516 -0.000539224)
(0.105795 -0.000882605 2.26788e-05)
(0.102597 -0.00100965 -0.000332496)
(0.103629 -0.00138576 -0.000554616)
(0.106197 -0.000939233 -6.8452e-06)
(0.10292 -0.00108572 -0.000319634)
(0.103885 -0.00144096 -0.000524967)
(0.10659 -0.000999699 -1.71098e-05)
(0.103213 -0.00115508 -0.000288746)
(0.104102 -0.00149249 -0.0004724)
(0.106966 -0.00106374 -1.19867e-05)
(0.103475 -0.00120739 -0.000247904)
(0.10428 -0.00152355 -0.000407861)
(0.107321 -0.00111963 2.12889e-06)
(0.103703 -0.00124747 -0.00019572)
(0.104424 -0.00153286 -0.000330974)
(0.107654 -0.00116403 2.51693e-05)
(0.103898 -0.00128109 -0.00013324)
(0.104535 -0.00153305 -0.000246078)
(0.107962 -0.00120254 5.91537e-05)
(0.104058 -0.00130826 -6.58892e-05)
(0.104618 -0.00152921 -0.000158644)
(0.108244 -0.00123483 9.98459e-05)
(0.104673 -0.00152168 -7.27801e-05)
(0.108501 -0.00126089 0.000143899)
(0.104062 -0.0014974 -0.000523699)
(0.104091 -0.00170652 -0.000575514)
(0.106931 -0.00143112 -0.000226189)
(0.104285 -0.00163131 -0.000668986)
(0.10435 -0.00195177 -0.0007352)
(0.107217 -0.00153136 -0.000337437)
(0.104525 -0.00172317 -0.000754513)
(0.104559 -0.00209423 -0.000835088)
(0.107506 -0.00162525 -0.000422891)
(0.104747 -0.00178156 -0.000776848)
(0.104738 -0.00215777 -0.000853517)
(0.107824 -0.00169165 -0.00046582)
(0.104937 -0.00182205 -0.000742046)
(0.104855 -0.00217967 -0.000807843)
(0.10814 -0.00173795 -0.000468469)
(0.105085 -0.00185173 -0.000669693)
(0.1049 -0.00217652 -0.000713857)
(0.108432 -0.00177182 -0.000433118)
(0.105187 -0.00186414 -0.000581588)
(0.104882 -0.00214353 -0.000599139)
(0.108691 -0.00179331 -0.000379693)
(0.105246 -0.00185168 -0.000480635)
(0.104815 -0.00209311 -0.000477061)
(0.108916 -0.00179519 -0.000314867)
(0.105269 -0.00182074 -0.000371608)
(0.104715 -0.00201709 -0.000353946)
(0.109112 -0.00177818 -0.000239485)
(0.105267 -0.00178305 -0.000262182)
(0.104597 -0.00193723 -0.000236532)
(0.109282 -0.0017508 -0.000160807)
(0.105243 -0.00174405 -0.00015637)
(0.104469 -0.00186146 -0.000127303)
(0.109431 -0.00171985 -8.18275e-05)
(0.104338 -0.00178938 -2.91806e-05)
(0.109563 -0.00168657 -5.74698e-06)
(0.104315 -0.00216013 -0.0008)
(0.102787 -0.00221237 -0.000858396)
(0.106795 -0.00190921 -0.000541544)
(0.104593 -0.00240629 -0.000893998)
(0.103146 -0.00266844 -0.000932483)
(0.10716 -0.00218196 -0.000604299)
(0.10478 -0.00251556 -0.000912691)
(0.103323 -0.0028358 -0.000901423)
(0.107454 -0.00234813 -0.000640559)
(0.104851 -0.00254154 -0.000859541)
(0.103348 -0.00282812 -0.000793468)
(0.107726 -0.00241812 -0.000628774)
(0.104818 -0.00252002 -0.000754316)
(0.103215 -0.00275223 -0.000647512)
(0.107933 -0.00243086 -0.00057119)
(0.104699 -0.00245535 -0.000619564)
(0.102958 -0.00261693 -0.000485962)
(0.108065 -0.00240338 -0.000482958)
(0.104516 -0.00236127 -0.000473917)
(0.102638 -0.00244117 -0.000327444)
(0.108135 -0.00233357 -0.000377337)
(0.104293 -0.00224885 -0.000332186)
(0.102294 -0.00226666 -0.000186077)
(0.108162 -0.00224782 -0.000271386)
(0.104054 -0.00212534 -0.00020285)
(0.101948 -0.00209562 -6.92752e-05)
(0.108161 -0.00214399 -0.000171145)
(0.103812 -0.00200905 -8.87081e-05)
(0.101618 -0.00194268 2.43092e-05)
(0.108147 -0.0020392 -8.07929e-05)
(0.103578 -0.0019019 9.42082e-06)
(0.101314 -0.00181001 9.67549e-05)
(0.108129 -0.0019395 -1.85549e-06)
(0.101041 -0.00169314 0.000151205)
(0.108115 -0.00184561 6.56156e-05)
(0.101614 -0.00269109 -0.000949747)
(0.097825 -0.00263786 -0.00092534)
(0.104101 -0.00223622 -0.000709864)
(0.101934 -0.00305168 -0.00087063)
(0.0983257 -0.00326719 -0.000827137)
(0.104509 -0.00270855 -0.000667237)
(0.101986 -0.00310282 -0.000715584)
(0.0984141 -0.0032912 -0.000585734)
(0.104771 -0.00288903 -0.000576057)
(0.101798 -0.00300229 -0.000531874)
(0.0981506 -0.00305958 -0.000328235)
(0.104929 -0.00287431 -0.000448542)
(0.101444 -0.00282348 -0.000347731)
(0.0976641 -0.0027365 -0.000118512)
(0.10495 -0.00277657 -0.000311723)
(0.100996 -0.00258801 -0.000178644)
(0.0970956 -0.00239918 4.06599e-05)
(0.104856 -0.00260685 -0.00017935)
(0.100522 -0.00234113 -3.68851e-05)
(0.0965287 -0.00208909 0.000143529)
(0.104706 -0.00240239 -6.47323e-05)
(0.10006 -0.00211484 7.12881e-05)
(0.0960045 -0.00182765 0.00020185)
(0.104541 -0.00219765 2.52134e-05)
(0.0996287 -0.00191889 0.000147507)
(0.095537 -0.00162161 0.000232573)
(0.104381 -0.00201674 8.8623e-05)
(0.0992406 -0.00175251 0.000197265)
(0.0951276 -0.00145892 0.000238623)
(0.104237 -0.0018567 0.000127733)
(0.098901 -0.00161213 0.00022518)
(0.0947735 -0.00132806 0.00022937)
(0.104121 -0.00171718 0.00014941)
(0.104035 -0.00159595 0.000157469)
(0.0948101 -0.00317101 -0.00077261)
(0.0868647 -0.00309047 -0.000508124)
(0.097765 -0.00244694 -0.000555927)
(0.0951438 -0.00345898 -0.000505406)
(0.0877304 -0.00344975 -0.000349107)
(0.0983205 -0.00302704 -0.000449776)
(0.0949258 -0.00322563 -0.000191759)
(0.0875881 -0.00300371 1.22515e-05)
(0.0984983 -0.00301068 -0.000228204)
(0.094364 -0.0028058 5.23174e-05)
(0.0868859 -0.00235738 0.000269529)
(0.0984143 -0.0027625 -2.03424e-05)
(0.0936804 -0.0023513 0.000211551)
(0.086082 -0.00184218 0.000369199)
(0.0981625 -0.00242622 0.000121815)
(0.0930039 -0.00195475 0.000293834)
(0.0853651 -0.0014616 0.000375338)
(0.0978596 -0.00209588 0.000199073)
(0.092393 -0.00163688 0.000312567)
(0.084754 -0.00118166 0.000333339)
(0.0975666 -0.00180776 0.000217123)
(0.0918666 -0.00139724 0.000297515)
(0.0842315 -0.000984183 0.000263463)
(0.0973149 -0.00157452 0.000197091)
(0.0914209 -0.0012222 0.000265616)
(0.0837813 -0.000852952 0.000191675)
(0.0971156 -0.00139361 0.000160729)
(0.0910462 -0.00109064 0.000222264)
(0.0833766 -0.000760153 0.000123291)
(0.096964 -0.00125644 0.000110152)
(0.0830082 -0.000684639 6.68514e-05)
(0.0968541 -0.00114788 5.62516e-05)
(0.0809676 -0.003551 -0.000427122)
(0.0647836 -0.00309528 0.000159138)
(0.0854348 -0.00234916 -3.44543e-05)
(0.0812386 -0.00318897 -0.000123205)
(0.0647899 -0.00276682 0.000163138)
(0.0861598 -0.00264174 -3.72779e-05)
(0.0805416 -0.00234505 0.000224691)
(0.0641922 -0.00165633 0.000441718)
(0.0860428 -0.00228476 0.000193515)
(0.0796643 -0.0016001 0.000385)
(0.063368 -0.000908 0.000471396)
(0.0855485 -0.00171423 0.000339801)
(0.0788613 -0.00112457 0.000396593)
(0.0627155 -0.000624769 0.000378136)
(0.0850463 -0.0012885 0.00034511)
(0.0782059 -0.000814408 0.000348208)
(0.0622075 -0.000463465 0.000240019)
(0.0846546 -0.000997978 0.000276657)
(0.0776773 -0.000610265 0.000278734)
(0.0617465 -0.000352452 0.000133834)
(0.0843614 -0.000803274 0.000187199)
(0.0772282 -0.000484119 0.000200119)
(0.0612928 -0.000278605 5.69977e-05)
(0.0841305 -0.000673292 9.19133e-05)
(0.0768174 -0.000408814 0.000123722)
(0.0608457 -0.000231839 1.85872e-06)
(0.083936 -0.000587676 7.78615e-07)
(0.0764212 -0.000355324 6.02749e-05)
(0.0604024 -0.000201407 -3.87826e-05)
(0.0837513 -0.000528634 -8.04523e-05)
(0.0599614 -0.000178099 -6.5405e-05)
(0.083569 -0.000481306 -0.000145824)
(0.0529472 -0.0021767 0.000937828)
(0.0582091 -0.00156591 0.00145711)
(0.0512165 -0.00126005 0.000847479)
(0.0579822 -0.00117155 0.00117361)
(0.0502082 -0.000283469 0.00082322)
(0.0577135 -0.000353907 0.00105795)
(0.0497801 5.46539e-05 0.000644005)
(0.0572983 -4.88648e-05 0.000780665)
(0.0494526 5.78634e-05 0.000406079)
(0.0569636 -6.79683e-05 0.000466328)
(0.0490907 3.06523e-05 0.000195608)
(0.0566749 -0.000111805 0.000185707)
(0.0486835 5.57158e-06 5.25939e-05)
(0.0563504 -0.000149357 -1.54534e-05)
(0.0482354 -1.74729e-05 -4.00543e-05)
(0.0559681 -0.000179318 -0.000153069)
(0.0477649 -3.90245e-05 -0.000101921)
(0.0555442 -0.000196898 -0.000246732)
(0.0472844 -6.14808e-05 -0.000145166)
(0.0550957 -0.000206913 -0.000311666)
(0.0546292 -0.000219338 -0.000359017)
(0.0702857 -0.000275503 0.00275559)
(0.0824086 -0.00024152 0.00286794)
(0.0774914 -0.000782213 0.00305473)
(0.0674606 -4.94357e-05 0.00227084)
(0.0803841 8.64889e-06 0.00237068)
(0.0747191 -0.000396803 0.00263345)
(0.0651866 6.65612e-05 0.00185913)
(0.0786862 0.000148401 0.00193402)
(0.0723289 -0.000140878 0.00224509)
(0.0633831 0.000113683 0.00153267)
(0.0772998 0.000208529 0.00159009)
(0.0703027 1.51284e-05 0.00192153)
(0.0619424 0.000119876 0.00127201)
(0.0761749 0.000214838 0.00132613)
(0.0685894 9.90788e-05 0.00165397)
(0.0607602 0.000107781 0.00107592)
(0.0752556 0.0001992 0.00112735)
(0.0671332 0.000139162 0.00143269)
(0.0597536 8.79645e-05 0.000943664)
(0.0744836 0.000170649 0.000987386)
(0.0658756 0.00015869 0.00126656)
(0.0588633 6.49141e-05 0.00085724)
(0.0738182 0.000136515 0.000889042)
(0.0647708 0.000157104 0.00114434)
(0.0732278 0.000103047 0.000819158)
(0.0637822 0.000147571 0.00105208)
(0.0943788 5.36764e-05 0.00280461)
(0.098424 -1.81167e-05 0.00275921)
(0.0981576 -0.00032522 0.00305811)
(0.0936993 0.000212402 0.0023524)
(0.0981778 0.000123322 0.00242455)
(0.0976759 -0.000115791 0.00273733)
(0.0930245 0.000295024 0.0019554)
(0.0978771 0.000200184 0.00209539)
(0.0971091 4.22674e-05 0.00239946)
(0.0924125 0.000313902 0.00163681)
(0.0975847 0.000218155 0.00180775)
(0.0965429 0.000144657 0.00208833)
(0.0918837 0.000298568 0.00139677)
(0.097332 0.000197744 0.00157469)
(0.0960178 0.000202391 0.00182653)
(0.0914354 0.000266555 0.00122105)
(0.0971309 0.00016109 0.00139355)
(0.0955487 0.000232829 0.00162015)
(0.0910586 0.000223032 0.00108925)
(0.096977 0.00011061 0.00125534)
(0.0951375 0.000238876 0.00145675)
(0.0907391 0.00017759 0.000987482)
(0.0968652 5.63191e-05 0.00114734)
(0.0947821 0.00022957 0.00132606)
(0.096787 4.24288e-06 0.00106115)
(0.0944772 0.00021168 0.00121961)
(0.102694 4.3707e-05 0.00216355)
(0.104682 -0.000112923 0.00177047)
(0.105287 -0.000123656 0.0023591)
(0.102865 9.78557e-05 0.0019774)
(0.105004 -7.39264e-05 0.00163713)
(0.105572 -3.40124e-05 0.00224207)
(0.102991 0.000106503 0.00178324)
(0.105275 -7.35604e-05 0.00148606)
(0.105776 2.59647e-05 0.00208764)
(0.1031 8.34292e-05 0.00160353)
(0.105521 -0.000101958 0.00133834)
(0.105932 5.48767e-05 0.00192078)
(0.103211 4.07085e-05 0.00144753)
(0.105762 -0.000147626 0.00120673)
(0.10607 6.14773e-05 0.00175966)
(0.103336 -1.53363e-05 0.00131682)
(0.106004 -0.000204215 0.00109442)
(0.106207 5.13746e-05 0.00161824)
(0.103477 -7.73657e-05 0.00121009)
(0.10625 -0.000266402 0.00100316)
(0.106347 2.63396e-05 0.00149519)
(0.103634 -0.000139049 0.00112219)
(0.106502 -0.000328209 0.000929336)
(0.1065 -5.06506e-06 0.00138823)
(0.106757 -0.000386754 0.000869237)
(0.106664 -3.9087e-05 0.00129636)
(0.105946 -0.000330976 0.00121803)
(0.107261 -0.000624056 0.000806759)
(0.107998 -0.00035829 0.00130403)
(0.106332 -0.000296676 0.00123621)
(0.107604 -0.000588881 0.000801742)
(0.108409 -0.000335309 0.00133309)
(0.106756 -0.000258141 0.0012331)
(0.10795 -0.000556618 0.000813909)
(0.1088 -0.000300091 0.00137136)
(0.107177 -0.000243737 0.0011863)
(0.108367 -0.000543648 0.000794465)
(0.109262 -0.000267159 0.00136845)
(0.107589 -0.000259063 0.00110987)
(0.108805 -0.000555446 0.000751191)
(0.109729 -0.000250867 0.0013266)
(0.10799 -0.000296049 0.00102125)
(0.109236 -0.00058612 0.000696906)
(0.110173 -0.00025193 0.00126033)
(0.108379 -0.000347106 0.000933511)
(0.109657 -0.000628531 0.000640934)
(0.110596 -0.000266312 0.00118137)
(0.10876 -0.000406478 0.000855271)
(0.110068 -0.000677008 0.00059214)
(0.111004 -0.000292675 0.00110037)
(0.109133 -0.000468856 0.000789952)
(0.11047 -0.000726653 0.000554041)
(0.111399 -0.000325547 0.00102499)
(0.109499 -0.000530371 0.000737339)
(0.110861 -0.000774806 0.000526515)
(0.111786 -0.000361998 0.000958789)
(0.109858 -0.000588586 0.000695854)
(0.111239 -0.000819809 0.00050808)
(0.112164 -0.000399902 0.000901578)
(0.111606 -0.000860531 0.000497209)
(0.112535 -0.00043721 0.00085283)
(0.108901 -0.000881652 0.000440129)
(0.109431 -0.00114985 0.000230439)
(0.110557 -0.000802937 0.000605597)
(0.109235 -0.000853102 0.000403481)
(0.109779 -0.00115138 0.000182332)
(0.110956 -0.000775553 0.000559961)
(0.109634 -0.000850959 0.000378182)
(0.110138 -0.00117407 0.000141332)
(0.111357 -0.00075897 0.000543807)
(0.110067 -0.000866866 0.000351609)
(0.11055 -0.0012026 0.000109863)
(0.111812 -0.000754893 0.000530312)
(0.110515 -0.000895485 0.000325046)
(0.110989 -0.00123312 8.81691e-05)
(0.112295 -0.000760803 0.000512396)
(0.110966 -0.00093211 0.000301891)
(0.111426 -0.00126401 7.72788e-05)
(0.112783 -0.000774819 0.000491952)
(0.111411 -0.000971979 0.00028486)
(0.111853 -0.00129142 7.72196e-05)
(0.113265 -0.00079433 0.000471365)
(0.111845 -0.0010106 0.000275962)
(0.112266 -0.00131283 8.62183e-05)
(0.113739 -0.000815242 0.000452715)
(0.112264 -0.00104564 0.000275928)
(0.112663 -0.00132677 0.000103393)
(0.114202 -0.000835014 0.000438394)
(0.112668 -0.00107666 0.000283703)
(0.113041 -0.00133406 0.000127668)
(0.114651 -0.000853798 0.000429623)
(0.113057 -0.00110345 0.000297315)
(0.113402 -0.00133656 0.000156507)
(0.115086 -0.000871465 0.0004258)
(0.113747 -0.00133518 0.000187916)