/*--------------------------------*- C++ -*----------------------------------*\
| =========                 |                                                 |
| \\      /  F ield         | OpenFOAM: The Open Source CFD Toolbox           |
|  \\    /   O peration     | Version:  2212                                  |
|   \\  /    A nd           | Website:  www.openfoam.com                      |
|    \\/     M anipulation  |                                                 |
\*---------------------------------------------------------------------------*/
FoamFile
{
    version     2.0;
    format      ascii;
    arch        "LSB;label=32;scalar=64";
    class       surfaceVectorField;
    location    "2.3";
    object      Uf;
}
// * * * * * * * * * * * * * * * * * * * * * * * * * * * * * * * * * * * * * //

dimensions      [0 1 -1 0 0 0 0];

internalField   nonuniform List<vector> 
1786
(
(0.0791162 -0.000723503 -0.000676696)
(0.0774763 -0.000679705 -0.000677577)
(0.0911492 -0.00074573 -0.000676944)
(0.0785315 -0.000768619 -0.00070358)
(0.0768759 -0.000725396 -0.00069548)
(0.0908915 -0.000791394 -0.000698797)
(0.0779159 -0.000804052 -0.000723207)
(0.0762523 -0.000760631 -0.000708303)
(0.0906031 -0.0008288 -0.000714432)
(0.0772768 -0.000830545 -0.000737051)
(0.0756119 -0.000786599 -0.00071621)
(0.0902899 -0.000858864 -0.000725035)
(0.0766205 -0.000849001 -0.000746106)
(0.0749603 -0.000803964 -0.000720305)
(0.0899576 -0.000881931 -0.000731782)
(0.0759525 -0.000861025 -0.000751171)
(0.0743024 -0.000813969 -0.000720869)
(0.0896112 -0.000898913 -0.000734515)
(0.0752767 -0.000867643 -0.000753435)
(0.0736424 -0.000818236 -0.000718852)
(0.0892538 -0.000910747 -0.000734689)
(0.0745964 -0.000869875 -0.000753732)
(0.072983 -0.000817753 -0.000715797)
(0.0888877 -0.000918325 -0.000733647)
(0.0739141 -0.000868826 -0.000752522)
(0.0723259 -0.00081375 -0.000712261)
(0.0885157 -0.000922899 -0.000731486)
(0.0732318 -0.000864614 -0.000750956)
(0.0716728 -0.00080682 -0.000708039)
(0.0881396 -0.000924465 -0.000728522)
(0.0710238 -0.000797791 -0.000702637)
(0.0877621 -0.000920535 -0.000724126)
(0.0752786 -0.000683629 -0.000694189)
(0.071747 -0.000646418 -0.000651716)
(0.088089 -0.000654966 -0.000779187)
(0.0746402 -0.000719669 -0.000698127)
(0.0710806 -0.000670458 -0.000647645)
(0.0877576 -0.000702736 -0.000762782)
(0.0739918 -0.000745764 -0.000699159)
(0.0704218 -0.000683217 -0.000639767)
(0.0874156 -0.000739693 -0.000747277)
(0.0733389 -0.000762761 -0.000697428)
(0.0697709 -0.000686237 -0.000630037)
(0.0870665 -0.00076684 -0.000732098)
(0.0726858 -0.000771586 -0.000693421)
(0.0691308 -0.000682645 -0.000620198)
(0.0867133 -0.000785355 -0.000717548)
(0.0720359 -0.000773513 -0.000687565)
(0.0685005 -0.000674336 -0.000609525)
(0.0863589 -0.000796171 -0.000703245)
(0.0713919 -0.000770205 -0.000681058)
(0.0678853 -0.000662694 -0.000598753)
(0.0860054 -0.000800778 -0.000689472)
(0.0707552 -0.000763137 -0.000674807)
(0.0672813 -0.000648755 -0.000589527)
(0.0856546 -0.000800764 -0.000677252)
(0.0701264 -0.000753063 -0.000668677)
(0.0666898 -0.000633495 -0.00058146)
(0.0853067 -0.00079729 -0.000666852)
(0.069506 -0.000740815 -0.000661416)
(0.0661105 -0.00061716 -0.000573224)
(0.0849624 -0.000790476 -0.000657475)
(0.0655365 -0.000601041 -0.000561862)
(0.0846224 -0.000780591 -0.000647688)
(0.0678102 -0.000634476 -0.000608923)
(0.0625283 -0.000538009 -0.000496613)
(0.0820833 -0.000587464 -0.000747939)
(0.0671264 -0.000631401 -0.000601582)
(0.0618538 -0.000520605 -0.000481865)
(0.0816614 -0.000602566 -0.000712372)
(0.0664643 -0.000618391 -0.000589752)
(0.0612127 -0.000490139 -0.000456301)
(0.0812605 -0.00060568 -0.000679232)
(0.0658248 -0.000600391 -0.000574963)
(0.0605953 -0.000462233 -0.000434745)
(0.0808775 -0.000601614 -0.000648374)
(0.0652071 -0.000580331 -0.000559403)
(0.0600126 -0.000438555 -0.000418781)
(0.0805094 -0.000593365 -0.000621193)
(0.0646099 -0.000559431 -0.000543873)
(0.0594367 -0.000417813 -0.000404471)
(0.0801566 -0.000581777 -0.000596876)
(0.0640319 -0.000538089 -0.000530166)
(0.0588985 -0.00039816 -0.000392464)
(0.079816 -0.000567661 -0.000576101)
(0.0634709 -0.000516929 -0.000518562)
(0.0583629 -0.000378911 -0.000382827)
(0.0794875 -0.000552138 -0.000559402)
(0.0629243 -0.000496628 -0.00050722)
(0.0578558 -0.000361582 -0.00037445)
(0.0791667 -0.000536505 -0.000545225)
(0.0623915 -0.000477226 -0.000494214)
(0.0573539 -0.000345156 -0.000364202)
(0.0788563 -0.000519517 -0.000529894)
(0.0568682 -0.000328832 -0.000353165)
(0.0785482 -0.000503494 -0.000519207)
(0.057925 -0.000438476 -0.000440614)
(0.0504937 -0.00030793 -0.00027101)
(0.0733199 -0.00039212 -0.000614338)
(0.0572525 -0.000417205 -0.000424574)
(0.0498663 -0.000294311 -0.00027579)
(0.0728091 -0.000387235 -0.000583947)
(0.0566173 -0.000379967 -0.000382822)
(0.0492749 -0.000272405 -0.000266036)
(0.0723364 -0.000371764 -0.000548941)
(0.0560205 -0.000340705 -0.000340446)
(0.0487004 -0.000245949 -0.000242355)
(0.0719001 -0.000348429 -0.000508594)
(0.0554525 -0.00030998 -0.000314261)
(0.0481534 -0.000223582 -0.000224863)
(0.071489 -0.00032702 -0.000481542)
(0.0549085 -0.00028645 -0.000298329)
(0.0476356 -0.000205566 -0.000212331)
(0.0711044 -0.00030797 -0.000459512)
(0.054386 -0.000266828 -0.000287342)
(0.0471279 -0.000189837 -0.000204032)
(0.0707286 -0.000290502 -0.000443106)
(0.0538834 -0.000249081 -0.000278967)
(0.0466516 -0.000175479 -0.000197692)
(0.0703734 -0.000273427 -0.000428322)
(0.053399 -0.000233102 -0.00027268)
(0.0461842 -0.000161921 -0.000192206)
(0.0700202 -0.000256704 -0.000413978)
(0.0529292 -0.000218828 -0.000265981)
(0.0457402 -0.000149711 -0.000188804)
(0.0696811 -0.000242067 -0.00040434)
(0.0524746 -0.000205365 -0.000256897)
(0.0453067 -0.000138776 -0.000182065)
(0.0693495 -0.00022701 -0.000392465)
(0.044891 -0.000128381 -0.000175236)
(0.0690216 -0.0002131 -0.000385095)
(0.0439558 -0.000213028 -7.29424e-05)
(0.0349118 -0.000135007 -3.2433e-05)
(0.0586736 -0.000202487 -0.000259474)
(0.043397 -0.000200911 -7.29384e-05)
(0.03442 -0.000128424 -2.77953e-05)
(0.0580999 -0.000186038 -0.000232776)
(0.0428541 -0.000189209 -7.04175e-05)
(0.0339611 -0.000123938 -2.16305e-05)
(0.0575737 -0.000173671 -0.000221062)
(0.042331 -0.000177627 -6.46601e-05)
(0.0335098 -0.000120489 -1.31525e-05)
(0.0570527 -0.000164067 -0.000214936)
(0.0418239 -0.000165998 -5.8325e-05)
(0.0330827 -0.000115765 -7.78093e-06)
(0.0565602 -0.00015439 -0.000210635)
(0.0413368 -0.00015438 -5.26244e-05)
(0.0326692 -0.000109627 -4.00495e-06)
(0.0560798 -0.000143626 -0.000201651)
(0.0408682 -0.000143019 -4.82387e-05)
(0.0322737 -0.000102741 -1.50246e-06)
(0.0556154 -0.000132426 -0.000192005)
(0.0404183 -0.0001321 -4.43168e-05)
(0.0318922 -9.57176e-05 5.88468e-07)
(0.0551658 -0.00012116 -0.000181187)
(0.0399877 -0.000121788 -4.11025e-05)
(0.0315299 -8.91018e-05 2.88316e-06)
(0.0547317 -0.000109871 -0.000168944)
(0.0395735 -0.000111935 -3.86763e-05)
(0.0311773 -8.29184e-05 4.16482e-06)
(0.0543072 -9.9037e-05 -0.000158239)
(0.0391775 -0.00010196 -3.83711e-05)
(0.0308398 -7.62712e-05 3.62177e-06)
(0.0538975 -8.81608e-05 -0.000152014)
(0.0305086 -6.83033e-05 -4.30994e-07)
(0.0534895 -7.71994e-05 -0.000154418)
(0.0284725 -7.15807e-05 -3.43268e-05)
(0.0360353 -3.8937e-05 -0.000180297)
(0.0280544 -6.89218e-05 -3.36452e-05)
(0.0355308 -3.37614e-05 -0.000173632)
(0.0276568 -6.84514e-05 -3.2248e-05)
(0.0350611 -3.247e-05 -0.000170336)
(0.0272786 -6.82198e-05 -3.08211e-05)
(0.0346039 -3.39399e-05 -0.000169199)
(0.026914 -6.64928e-05 -2.97683e-05)
(0.0341746 -3.41876e-05 -0.000167605)
(0.0265644 -6.32931e-05 -2.88339e-05)
(0.0337575 -3.25138e-05 -0.00016408)
(0.0262289 -5.92478e-05 -2.80798e-05)
(0.0333619 -2.91044e-05 -0.000160087)
(0.0259073 -5.51287e-05 -2.72118e-05)
(0.0329776 -2.50195e-05 -0.000155838)
(0.0255995 -5.13297e-05 -2.64121e-05)
(0.0326131 -2.14642e-05 -0.000151832)
(0.025301 -4.74576e-05 -2.60213e-05)
(0.0322526 -1.85356e-05 -0.000148703)
(0.0250098 -4.26033e-05 -2.6333e-05)
(0.0319038 -1.56307e-05 -0.000144436)
(0.0315566 -1.14931e-05 -0.000136609)
(0.104256 -0.000839657 -0.000719053)
(0.103121 -0.000736259 -0.000804663)
(0.108995 -0.000849908 -0.000737906)
(0.104329 -0.000884463 -0.000735228)
(0.103167 -0.000791117 -0.000796122)
(0.109192 -0.000889607 -0.000752962)
(0.104379 -0.000922522 -0.00074666)
(0.103195 -0.00083637 -0.000787178)
(0.10937 -0.000924286 -0.000764343)
(0.104408 -0.000954305 -0.000754178)
(0.103208 -0.000872951 -0.000777838)
(0.109532 -0.00095385 -0.0007725)
(0.104421 -0.000980334 -0.000757927)
(0.103209 -0.000901603 -0.000768462)
(0.109681 -0.000978588 -0.000777729)
(0.10442 -0.0010011 -0.000758674)
(0.103202 -0.000923646 -0.000758293)
(0.10982 -0.000998863 -0.000779952)
(0.104408 -0.00101729 -0.000757973)
(0.103185 -0.000939936 -0.000748209)
(0.109949 -0.00101513 -0.000780571)
(0.104385 -0.00102966 -0.000756058)
(0.103163 -0.00095123 -0.000739048)
(0.11007 -0.00102826 -0.000780225)
(0.104354 -0.00103811 -0.000752715)
(0.103134 -0.000958253 -0.000730568)
(0.110185 -0.00103813 -0.000778664)
(0.104316 -0.00104049 -0.000746857)
(0.103101 -0.000960794 -0.000721891)
(0.110294 -0.00104472 -0.000776472)
(0.103066 -0.000957083 -0.000712572)
(0.110399 -0.00104558 -0.00077154)
(0.102051 -0.000691811 -0.000876949)
(0.099916 -0.00060261 -0.000904255)
(0.10725 -0.000645047 -0.000989548)
(0.102052 -0.000746408 -0.000844464)
(0.0998627 -0.000649163 -0.000854274)
(0.107378 -0.000697143 -0.000953821)
(0.102044 -0.000789592 -0.000815758)
(0.0998129 -0.00068419 -0.000811311)
(0.107501 -0.000739522 -0.000922905)
(0.10203 -0.000822634 -0.00079029)
(0.0997668 -0.00070981 -0.000775357)
(0.107619 -0.000772517 -0.000896035)
(0.102011 -0.000846951 -0.000767665)
(0.0997204 -0.000727312 -0.000744191)
(0.107734 -0.000797409 -0.000872619)
(0.101987 -0.000863941 -0.000747589)
(0.0996787 -0.000738053 -0.000718531)
(0.107847 -0.000815875 -0.000852422)
(0.101961 -0.000874804 -0.000729881)
(0.0996342 -0.000743075 -0.000697448)
(0.107958 -0.00082916 -0.000834876)
(0.101933 -0.000880541 -0.000714607)
(0.0995931 -0.000743461 -0.00067945)
(0.108067 -0.000837822 -0.000819546)
(0.101903 -0.000881484 -0.000701156)
(0.0995493 -0.000740281 -0.000664105)
(0.108176 -0.00084195 -0.000806505)
(0.101871 -0.000877787 -0.00068931)
(0.0995071 -0.000732232 -0.00064789)
(0.108283 -0.000841876 -0.000795439)
(0.0994656 -0.000723484 -0.000640314)
(0.108392 -0.000837936 -0.000786685)
(0.0978397 -0.000561822 -0.000883709)
(0.0941236 -0.000447758 -0.000830564)
(0.103716 -0.000487056 -0.00108814)
(0.0977393 -0.000589088 -0.0008246)
(0.0939358 -0.00046379 -0.000774095)
(0.103738 -0.000512917 -0.00102138)
(0.0976521 -0.000606954 -0.000775326)
(0.0937722 -0.000472451 -0.000727156)
(0.103775 -0.000529888 -0.000966311)
(0.0975762 -0.000617385 -0.000734447)
(0.0936282 -0.000476355 -0.000695658)
(0.103824 -0.000540328 -0.000922965)
(0.097508 -0.000621664 -0.000700799)
(0.0934893 -0.000474503 -0.000666488)
(0.103881 -0.000545191 -0.000886918)
(0.0974459 -0.000620898 -0.000674319)
(0.0933683 -0.000469613 -0.000646406)
(0.103948 -0.000546297 -0.00085859)
(0.0973877 -0.000615834 -0.000653087)
(0.0932395 -0.000461502 -0.000630021)
(0.104018 -0.000543899 -0.000835919)
(0.0973318 -0.000607787 -0.000634926)
(0.0931222 -0.000450676 -0.000612795)
(0.104095 -0.000538111 -0.000816353)
(0.0972773 -0.000596208 -0.000616572)
(0.0929959 -0.000439338 -0.000597635)
(0.104173 -0.00053 -0.000800011)
(0.0972238 -0.000583557 -0.000604333)
(0.0928828 -0.000424402 -0.000582054)
(0.104253 -0.000518397 -0.000784271)
(0.0927574 -0.000412235 -0.000581693)
(0.104336 -0.000508228 -0.000779544)
(0.0908439 -0.000345492 -0.000808112)
(0.0833921 -0.000242051 -0.000690019)
(0.0975479 -0.000279587 -0.00109913)
(0.0905643 -0.000345995 -0.000751774)
(0.0829473 -0.000229405 -0.000632966)
(0.0973874 -0.000270924 -0.00102662)
(0.0903213 -0.000342692 -0.000710469)
(0.0825546 -0.000217311 -0.000599308)
(0.0972605 -0.000258312 -0.000970956)
(0.0901042 -0.000337416 -0.0006822)
(0.082184 -0.000206165 -0.000579553)
(0.0971655 -0.000243013 -0.000925292)
(0.0899048 -0.000330235 -0.000660844)
(0.08184 -0.000198046 -0.00056993)
(0.0970907 -0.000229908 -0.000895743)
(0.0897175 -0.000320946 -0.000642592)
(0.0815018 -0.000188732 -0.000555651)
(0.0970269 -0.000216646 -0.000871303)
(0.0895351 -0.000310777 -0.000629128)
(0.0811793 -0.000179477 -0.000541909)
(0.0969786 -0.00020412 -0.000854056)
(0.0893537 -0.000298683 -0.000613911)
(0.0808574 -0.000169622 -0.000526422)
(0.0969286 -0.00019119 -0.000837488)
(0.0891734 -0.000285329 -0.000598649)
(0.0805454 -0.00015788 -0.000507842)
(0.0968892 -0.000176791 -0.000819488)
(0.0889936 -0.000271114 -0.000585393)
(0.0802306 -0.000146173 -0.000492991)
(0.0968456 -0.000163049 -0.000809356)
(0.0888131 -0.000257855 -0.000579346)
(0.0799285 -0.000134844 -0.00048384)
(0.0968087 -0.000149706 -0.000802483)
(0.0796106 -0.000126569 -0.000487897)
(0.0967623 -0.000139267 -0.000804718)
(0.0765527 -0.000171483 -0.000466112)
(0.0602394 -7.78176e-05 -0.000350216)
(0.08472 -9.91918e-05 -0.000773445)
(0.0760152 -0.000152762 -0.000419448)
(0.059648 -6.67885e-05 -0.000317418)
(0.0842905 -6.76509e-05 -0.000714713)
(0.075514 -0.00013898 -0.000393959)
(0.0591068 -6.07087e-05 -0.000295624)
(0.0839014 -4.15345e-05 -0.000675181)
(0.0750363 -0.000129048 -0.000383135)
(0.0585775 -5.85853e-05 -0.000280775)
(0.0835381 -2.0669e-05 -0.000647708)
(0.0745723 -0.000120506 -0.000375888)
(0.0580819 -5.6297e-05 -0.00027147)
(0.0831916 -3.03028e-06 -0.000629142)
(0.0741188 -0.000111541 -0.000364819)
(0.0575967 -5.2806e-05 -0.000260225)
(0.0828586 1.19454e-05 -0.000610768)
(0.0736751 -0.00010192 -0.000350564)
(0.0571319 -4.7281e-05 -0.000249183)
(0.0825303 2.66197e-05 -0.000592437)
(0.0732407 -9.17566e-05 -0.000333058)
(0.0566785 -4.11561e-05 -0.000237878)
(0.0822112 4.00939e-05 -0.000574466)
(0.0728149 -8.1443e-05 -0.000315076)
(0.0562413 -3.52864e-05 -0.000226142)
(0.0818927 5.24478e-05 -0.000557001)
(0.0723943 -7.19042e-05 -0.000304942)
(0.0558058 -3.03273e-05 -0.000217535)
(0.0815775 6.28732e-05 -0.000543863)
(0.0719735 -6.33849e-05 -0.000309267)
(0.0553804 -2.63271e-05 -0.000214757)
(0.0812678 7.13069e-05 -0.000540619)
(0.05495 -2.22637e-05 -0.000217493)
(0.0809462 7.82078e-05 -0.000545703)
(0.0467486 3.61799e-05 -0.000325617)
(0.0547905 0.000161482 -0.000477826)
(0.0461627 3.85585e-05 -0.000319897)
(0.0541398 0.000170718 -0.000476421)
(0.0456007 3.77076e-05 -0.000316191)
(0.0535371 0.000175106 -0.000474456)
(0.0450635 3.6293e-05 -0.000311324)
(0.0529342 0.000178304 -0.000468118)
(0.044549 3.62861e-05 -0.000303837)
(0.0523709 0.000182007 -0.000457106)
(0.0440576 3.80363e-05 -0.000295186)
(0.0518076 0.000185999 -0.000445098)
(0.0435855 4.10256e-05 -0.000287046)
(0.0512749 0.000189958 -0.000434465)
(0.0431302 4.37169e-05 -0.000280289)
(0.0507406 0.000192997 -0.000425273)
(0.0426872 4.51162e-05 -0.000275917)
(0.0502329 0.000193719 -0.00041986)
(0.042249 4.51073e-05 -0.000272219)
(0.049714 0.000192586 -0.000418437)
(0.0418158 4.42673e-05 -0.000264482)
(0.0492141 0.000187503 -0.000408051)
(0.0487082 0.000177244 -0.000379672)
(0.114329 -0.000854456 -0.000731206)
(0.113529 -0.000710865 -0.00088915)
(0.116584 -0.000740867 -0.000644066)
(0.11464 -0.000879731 -0.000737946)
(0.113819 -0.000744297 -0.0008722)
(0.11695 -0.000754762 -0.000644939)
(0.114941 -0.000902366 -0.00074318)
(0.114101 -0.000773151 -0.000857679)
(0.117307 -0.000767731 -0.000645403)
(0.115233 -0.000922073 -0.00074681)
(0.114378 -0.00079684 -0.000845143)
(0.117656 -0.000779262 -0.000645513)
(0.115519 -0.000938799 -0.000748752)
(0.114652 -0.000816015 -0.000834043)
(0.117998 -0.000789297 -0.000645069)
(0.115798 -0.000952601 -0.000749314)
(0.114922 -0.000831318 -0.000824089)
(0.118335 -0.000797649 -0.000643987)
(0.116072 -0.000964163 -0.000749001)
(0.115189 -0.000843431 -0.0008151)
(0.118667 -0.000804436 -0.000642446)
(0.116342 -0.00097374 -0.00074821)
(0.115454 -0.000852977 -0.000807091)
(0.118995 -0.000810219 -0.000640684)
(0.116609 -0.000981342 -0.000747583)
(0.115717 -0.000859508 -0.000800166)
(0.119321 -0.000814611 -0.000638888)
(0.116873 -0.000986293 -0.000746298)
(0.115979 -0.000863722 -0.000795362)
(0.119644 -0.000818004 -0.000637695)
(0.11624 -0.000864167 -0.000790968)
(0.119965 -0.000818863 -0.000635186)
(0.113028 -0.000603112 -0.0010273)
(0.111468 -0.000481498 -0.00113903)
(0.115512 -0.000462161 -0.000989973)
(0.113289 -0.000639474 -0.000990079)
(0.111682 -0.000509299 -0.00108198)
(0.115834 -0.000486505 -0.000950426)
(0.113548 -0.000668882 -0.000958582)
(0.111901 -0.000530651 -0.00103558)
(0.116153 -0.000506604 -0.00091671)
(0.113807 -0.000691634 -0.000931985)
(0.112124 -0.000546004 -0.000998758)
(0.116469 -0.000522172 -0.000888303)
(0.114065 -0.000709023 -0.000909586)
(0.112353 -0.000556608 -0.000968713)
(0.116785 -0.000533826 -0.000864533)
(0.114323 -0.00072232 -0.000890599)
(0.112585 -0.000563604 -0.00094383)
(0.117099 -0.000542399 -0.000844596)
(0.114581 -0.000732208 -0.000874288)
(0.112822 -0.000567612 -0.000922343)
(0.117414 -0.000548534 -0.000827582)
(0.114839 -0.000738532 -0.00086047)
(0.113061 -0.000568733 -0.000903811)
(0.117727 -0.000552446 -0.000813025)
(0.115098 -0.000741499 -0.000849688)
(0.113303 -0.000567037 -0.000890011)
(0.118041 -0.000553824 -0.000801142)
(0.115356 -0.000741255 -0.000841807)
(0.113544 -0.000563097 -0.000880274)
(0.118354 -0.000553235 -0.000792581)
(0.113789 -0.000557208 -0.000875248)
(0.118668 -0.00055031 -0.000786112)
(0.110183 -0.000390741 -0.00119218)
(0.10739 -0.000267653 -0.00123023)
(0.112927 -0.00024055 -0.00120738)
(0.110356 -0.000403777 -0.00112691)
(0.107481 -0.00026353 -0.00116173)
(0.113164 -0.000243705 -0.00114036)
(0.110541 -0.000411348 -0.00107587)
(0.107596 -0.000256512 -0.001107)
(0.113408 -0.000243692 -0.0010861)
(0.110736 -0.000414811 -0.00103609)
(0.107722 -0.000247989 -0.00106608)
(0.113658 -0.000240872 -0.0010435)
(0.11094 -0.000415176 -0.00100405)
(0.107864 -0.00023933 -0.00103565)
(0.113916 -0.000236325 -0.00100932)
(0.111153 -0.000412809 -0.000977379)
(0.108012 -0.000229377 -0.00101033)
(0.11418 -0.000230485 -0.00098154)
(0.111371 -0.00040803 -0.000954267)
(0.108171 -0.000217985 -0.000986176)
(0.114449 -0.000223499 -0.000958082)
(0.111593 -0.000401554 -0.000935656)
(0.108335 -0.000205827 -0.000964297)
(0.11472 -0.00021547 -0.000938245)
(0.11182 -0.000393688 -0.000922276)
(0.108506 -0.000194789 -0.000953371)
(0.114996 -0.000206877 -0.000923895)
(0.112047 -0.00038495 -0.000914499)
(0.108671 -0.000183914 -0.000947872)
(0.115271 -0.000197518 -0.000914406)
(0.108843 -0.000174067 -0.000946961)
(0.11555 -0.000189042 -0.000910441)
(0.104877 -0.000158394 -0.0012932)
(0.0990622 -4.82653e-05 -0.00120613)
(0.10788 -4.42446e-05 -0.00134923)
(0.104886 -0.000135618 -0.0012209)
(0.0989191 -1.08168e-05 -0.00113571)
(0.107966 -7.43366e-06 -0.00127277)
(0.104924 -0.000112304 -0.00116341)
(0.0987964 2.23404e-05 -0.00108297)
(0.108068 2.70658e-05 -0.0012121)
(0.104983 -9.03298e-05 -0.00111852)
(0.0987097 5.16198e-05 -0.00104055)
(0.108191 5.86877e-05 -0.00116399)
(0.105062 -7.09786e-05 -0.001086)
(0.0986321 7.63936e-05 -0.00100764)
(0.108324 8.59176e-05 -0.00112792)
(0.105151 -5.3257e-05 -0.00106112)
(0.0985742 9.74328e-05 -0.000981136)
(0.108469 0.000109845 -0.00110221)
(0.105251 -3.5479e-05 -0.00103724)
(0.0985193 0.000116625 -0.000958897)
(0.10862 0.000131566 -0.00108096)
(0.10536 -1.74579e-05 -0.00101393)
(0.0984724 0.000135079 -0.000937957)
(0.108778 0.00015278 -0.00106094)
(0.105475 -1.26981e-06 -0.000999326)
(0.0984256 0.000151969 -0.000920042)
(0.108938 0.000172688 -0.00104375)
(0.10559 1.21364e-05 -0.000995261)
(0.0983816 0.000165083 -0.000909226)
(0.109103 0.000189227 -0.00103649)
(0.105702 2.35537e-05 -0.000995604)
(0.098336 0.000175194 -0.000903907)
(0.109261 0.000203144 -0.00103575)
(0.0982854 0.000182474 -0.000900703)
(0.109422 0.000213376 -0.0010382)
(0.093729 5.46795e-05 -0.00100475)
(0.0779596 0.000176402 -0.000797572)
(0.0974511 0.000133833 -0.00109035)
(0.0934688 9.83065e-05 -0.000947475)
(0.0774571 0.000208461 -0.000761288)
(0.097278 0.000196756 -0.00102578)
(0.0932369 0.000133737 -0.000903512)
(0.0769925 0.000231053 -0.000733404)
(0.0971124 0.000248296 -0.000978572)
(0.0930263 0.000162887 -0.000867914)
(0.0765389 0.000248145 -0.000707742)
(0.0969713 0.000289977 -0.000942155)
(0.09283 0.00018739 -0.000837819)
(0.0761094 0.000262063 -0.000683703)
(0.0968294 0.000322841 -0.000914835)
(0.0926419 0.000208529 -0.000811847)
(0.0756806 0.000274354 -0.000661483)
(0.0967002 0.000350269 -0.000891832)
(0.0924566 0.000227156 -0.00079023)
(0.0752691 0.000284655 -0.000642449)
(0.0965655 0.000372847 -0.000873506)
(0.0922704 0.000243345 -0.000772122)
(0.0748509 0.000292714 -0.000625677)
(0.0964336 0.000393226 -0.000860973)
(0.0920828 0.000257207 -0.000757826)
(0.0744462 0.000298401 -0.000613534)
(0.0962905 0.000409683 -0.000849173)
(0.0918949 0.000268482 -0.000748503)
(0.0740291 0.000302952 -0.000607567)
(0.0961483 0.000424653 -0.000840605)
(0.0917023 0.000276451 -0.000743258)
(0.0736283 0.000302439 -0.00059584)
(0.0959979 0.000434872 -0.000834696)
(0.0732145 0.000294489 -0.000568386)
(0.0958426 0.000439451 -0.000828309)
(0.0640667 0.000336045 -0.000648113)
(0.0694371 0.000422692 -0.00066291)
(0.0633936 0.000352099 -0.000643481)
(0.0687372 0.00045463 -0.000663392)
(0.0627407 0.000361789 -0.000638526)
(0.0680666 0.000476453 -0.000666007)
(0.0621026 0.000368899 -0.000630241)
(0.067386 0.00049206 -0.000668096)
(0.0614756 0.000374981 -0.000619213)
(0.0667254 0.000503647 -0.000666959)
(0.0608573 0.000380065 -0.000608125)
(0.0660516 0.000512686 -0.000665138)
(0.0602466 0.000383236 -0.000598067)
(0.0653943 0.000518878 -0.000661803)
(0.0596427 0.000383865 -0.000590603)
(0.0647232 0.000521053 -0.000657513)
(0.0590441 0.00038213 -0.00058737)
(0.0640735 0.0005208 -0.000654911)
(0.0584466 0.000375689 -0.000577596)
(0.0634061 0.00051801 -0.000655009)
(0.0578552 0.000359853 -0.000542993)
(0.0627644 0.000508569 -0.000645647)
(0.0621133 0.000489452 -0.00061837)
(0.119342 -0.000648445 -0.00056478)
(0.118704 -0.000496679 -0.000755784)
(0.119757 -0.00064978 -0.000559404)
(0.119106 -0.0005018 -0.000733624)
(0.120165 -0.000651397 -0.000554764)
(0.119502 -0.000506208 -0.000714523)
(0.120566 -0.000652994 -0.000550803)
(0.119893 -0.000509686 -0.000698405)
(0.120963 -0.000654427 -0.000547358)
(0.12028 -0.000512221 -0.000684956)
(0.121356 -0.000655639 -0.000544269)
(0.120664 -0.000513927 -0.000673701)
(0.121745 -0.000656624 -0.000541447)
(0.121046 -0.000514928 -0.000664137)
(0.122132 -0.000657264 -0.000538889)
(0.121427 -0.000515274 -0.000655968)
(0.122517 -0.000657574 -0.000536779)
(0.121805 -0.000514823 -0.000649208)
(0.122901 -0.000657147 -0.000534716)
(0.122183 -0.000513779 -0.000644346)
(0.12256 -0.00051143 -0.000640106)
(0.118473 -0.000351397 -0.000922966)
(0.117088 -0.000223792 -0.00107462)
(0.119542 -0.000201778 -0.000821537)
(0.118856 -0.000359278 -0.00088758)
(0.117435 -0.000223112 -0.00102515)
(0.11996 -0.000205737 -0.000791584)
(0.119235 -0.000365301 -0.000857412)
(0.117781 -0.000221249 -0.000983543)
(0.120373 -0.000208629 -0.000765704)
(0.119612 -0.000369522 -0.000832143)
(0.118127 -0.000218044 -0.000949317)
(0.120781 -0.000210427 -0.000743741)
(0.119987 -0.000372201 -0.000811131)
(0.118474 -0.000213926 -0.000921556)
(0.121185 -0.000211275 -0.000725362)
(0.120361 -0.000373633 -0.000793559)
(0.118822 -0.000209513 -0.000898972)
(0.121587 -0.000211399 -0.000710056)
(0.120734 -0.000373955 -0.000778771)
(0.119171 -0.000205005 -0.000880385)
(0.121987 -0.000210953 -0.000697303)
(0.121106 -0.00037311 -0.000766584)
(0.11952 -0.000199983 -0.000865124)
(0.122385 -0.000209977 -0.000686784)
(0.121478 -0.000371148 -0.000757314)
(0.119869 -0.000194036 -0.000853423)
(0.122782 -0.0002084 -0.000678479)
(0.12185 -0.000368064 -0.00075046)
(0.120219 -0.000187681 -0.000846224)
(0.123178 -0.000206404 -0.000672748)
(0.120569 -0.000181223 -0.000841628)
(0.123573 -0.0002037 -0.000668202)
(0.116094 -0.000100141 -0.0011722)
(0.113544 6.24086e-06 -0.00125539)
(0.117213 4.06442e-05 -0.00109508)
(0.116405 -8.99539e-05 -0.00111699)
(0.113792 3.45802e-05 -0.00119638)
(0.117565 5.30049e-05 -0.0010503)
(0.116719 -7.91876e-05 -0.00107158)
(0.114045 6.05888e-05 -0.00114865)
(0.117915 6.5082e-05 -0.00101324)
(0.117037 -6.80812e-05 -0.00103488)
(0.114303 8.40387e-05 -0.00111088)
(0.118265 7.69448e-05 -0.00098307)
(0.117358 -5.73338e-05 -0.00100542)
(0.114565 0.000105216 -0.0010818)
(0.118614 8.81586e-05 -0.000958846)
(0.117681 -4.73507e-05 -0.000981736)
(0.11483 0.000123978 -0.00105859)
(0.118964 9.82773e-05 -0.000939392)
(0.118007 -3.78048e-05 -0.000962598)
(0.115099 0.000141053 -0.00104046)
(0.119315 0.00010726 -0.00092393)
(0.118334 -2.8023e-05 -0.000947649)
(0.115366 0.0001566 -0.00102632)
(0.119665 0.000115479 -0.000911874)
(0.118662 -1.81614e-05 -0.000937611)
(0.115636 0.000171097 -0.0010172)
(0.120014 0.000123241 -0.000903305)
(0.11899 -9.05271e-06 -0.000932003)
(0.115902 0.000183684 -0.00101451)
(0.120364 0.000130098 -0.000898869)
(0.11617 0.000193486 -0.00101413)
(0.120714 0.000135983 -0.000896374)
(0.111205 9.60337e-05 -0.00135578)
(0.106031 0.000166831 -0.00130338)
(0.11232 0.000198374 -0.00128212)
(0.11139 0.000144968 -0.00129195)
(0.106082 0.000233977 -0.00124063)
(0.11256 0.000249329 -0.00123507)
(0.111583 0.000188525 -0.00124091)
(0.106135 0.000291389 -0.00119233)
(0.112801 0.000294268 -0.00119815)
(0.111784 0.000226641 -0.00120104)
(0.106196 0.000339867 -0.0011556)
(0.113041 0.000333471 -0.00116988)
(0.11199 0.000259688 -0.00117098)
(0.106257 0.000379638 -0.0011274)
(0.113281 0.000367077 -0.00114902)
(0.1122 0.000288583 -0.0011483)
(0.106322 0.000412904 -0.00110683)
(0.113521 0.00039558 -0.00113491)
(0.112413 0.000314253 -0.00113089)
(0.106383 0.000440995 -0.00109018)
(0.113761 0.000420043 -0.0011247)
(0.112628 0.000337129 -0.00111786)
(0.106446 0.0004665 -0.00108073)
(0.114001 0.000441232 -0.00111768)
(0.11284 0.000356854 -0.00110905)
(0.106498 0.000487217 -0.00107183)
(0.114237 0.000459489 -0.00111291)
(0.113052 0.000373207 -0.00110614)
(0.106554 0.000504182 -0.00106747)
(0.114473 0.000473633 -0.00111141)
(0.113261 0.000385853 -0.00110772)
(0.106594 0.00051625 -0.0010649)
(0.114702 0.000484399 -0.00111427)
(0.106639 0.000523263 -0.00106048)
(0.114931 0.000492149 -0.0011167)
(0.101362 0.00026434 -0.00114773)
(0.0874397 0.000358326 -0.000939001)
(0.102752 0.000307631 -0.00110973)
(0.101291 0.000335514 -0.00109475)
(0.0870367 0.000416481 -0.000910196)
(0.102759 0.000383763 -0.001076)
(0.101224 0.00039417 -0.00105564)
(0.0866321 0.000462381 -0.000889944)
(0.102754 0.000446213 -0.00105351)
(0.101158 0.000441456 -0.00102638)
(0.0862277 0.000498543 -0.000875471)
(0.102743 0.000496901 -0.00103905)
(0.101091 0.000479381 -0.00100447)
(0.0858183 0.000526362 -0.000863894)
(0.102719 0.000536862 -0.00102962)
(0.10102 0.000510265 -0.000987393)
(0.0854055 0.000548447 -0.000855922)
(0.102689 0.000569037 -0.00102457)
(0.100944 0.000536724 -0.000976225)
(0.0849869 0.000565199 -0.000847827)
(0.102646 0.000594794 -0.00102065)
(0.100859 0.000558897 -0.000968794)
(0.0845628 0.000578006 -0.000841431)
(0.102597 0.0006168 -0.00102081)
(0.100767 0.000576444 -0.000963405)
(0.0841368 0.000586858 -0.000834817)
(0.102531 0.000633952 -0.00101925)
(0.100667 0.000589523 -0.000959791)
(0.0837053 0.000593236 -0.000830132)
(0.102463 0.000646497 -0.00101897)
(0.100558 0.0005966 -0.000952231)
(0.083277 0.000595406 -0.00082202)
(0.102377 0.000652708 -0.00101394)
(0.0828476 0.000591762 -0.000807802)
(0.102293 0.000656409 -0.00100703)
(0.0747991 0.000509686 -0.000752451)
(0.0774442 0.000500828 -0.000742481)
(0.0741021 0.000549183 -0.000760567)
(0.0768145 0.000555486 -0.000765923)
(0.0734006 0.000579006 -0.000769915)
(0.0761648 0.000595791 -0.000787884)
(0.0726935 0.000601447 -0.000778057)
(0.0754965 0.000626081 -0.000806721)
(0.0719801 0.00061828 -0.00078476)
(0.0748134 0.000648673 -0.000821962)
(0.0712601 0.000630312 -0.000789443)
(0.0741154 0.000665872 -0.000833931)
(0.0705356 0.000637333 -0.000790079)
(0.0734085 0.000677712 -0.000841906)
(0.0698093 0.000640456 -0.00078839)
(0.0726903 0.000685276 -0.000844113)
(0.0690844 0.000641321 -0.000786013)
(0.0719738 0.00068993 -0.000844557)
(0.0683654 0.000639793 -0.000780582)
(0.0712481 0.000694062 -0.000840867)
(0.0676565 0.000634229 -0.00076984)
(0.0705334 0.00069757 -0.000830667)
(0.069812 0.000697928 -0.000814057)
(0.121073 -5.17877e-05 -0.000686847)
(0.119672 7.20899e-05 -0.00084137)
(0.121209 0.000131806 -0.000530999)
(0.121522 -5.04752e-05 -0.000666527)
(0.120095 8.0196e-05 -0.000816287)
(0.121672 0.000129074 -0.000517326)
(0.121964 -4.88832e-05 -0.000648936)
(0.120512 8.79288e-05 -0.00079511)
(0.122127 0.000126894 -0.000505391)
(0.1224 -4.70795e-05 -0.000633911)
(0.120923 9.53165e-05 -0.000777411)
(0.122576 0.000125239 -0.000495088)
(0.122833 -4.51547e-05 -0.000621244)
(0.12133 0.000102208 -0.000762792)
(0.123019 0.000124028 -0.000486295)
(0.123261 -4.31765e-05 -0.000610717)
(0.121734 0.000108411 -0.000750889)
(0.123458 0.000123183 -0.000478886)
(0.123687 -4.11818e-05 -0.000602134)
(0.122136 0.000113834 -0.000741452)
(0.123893 0.000122654 -0.000472745)
(0.124111 -3.91981e-05 -0.000595343)
(0.122535 0.000118512 -0.000734287)
(0.124325 0.000122417 -0.000467773)
(0.124532 -3.72554e-05 -0.000590333)
(0.122932 0.000122532 -0.000729159)
(0.124755 0.000122438 -0.000463874)
(0.124952 -3.53261e-05 -0.00058665)
(0.123328 0.000126026 -0.000726244)
(0.125183 0.000122713 -0.000461129)
(0.123722 0.000128846 -0.000724052)
(0.125609 0.000123049 -0.000458737)
(0.118733 0.000201111 -0.000967617)
(0.116142 0.000286494 -0.00105837)
(0.118833 0.000379579 -0.000814818)
(0.119125 0.000215315 -0.000941643)
(0.116485 0.000315594 -0.00103632)
(0.11924 0.000384076 -0.000800905)
(0.119512 0.000228524 -0.000920271)
(0.116821 0.000341207 -0.00101943)
(0.11964 0.000388462 -0.00078974)
(0.119895 0.000240647 -0.000902804)
(0.11715 0.000363443 -0.00100673)
(0.120034 0.000392791 -0.000780748)
(0.120275 0.000251417 -0.000888674)
(0.117476 0.00038234 -0.000997584)
(0.120424 0.000396836 -0.000773539)
(0.120652 0.000260661 -0.000877536)