/*--------------------------------*- C++ -*----------------------------------*\
| =========                 |                                                 |
| \\      /  F ield         | OpenFOAM: The Open Source CFD Toolbox           |
|  \\    /   O peration     | Version:  2212                                  |
|   \\  /    A nd           | Website:  www.openfoam.com                      |
|    \\/     M anipulation  |                                                 |
\*---------------------------------------------------------------------------*/
FoamFile
{
    version     2.0;
    format      ascii;
    arch        "LSB;label=32;scalar=64";
    class       volScalarField;
    location    "1.95";
    object      p;
}
// * * * * * * * * * * * * * * * * * * * * * * * * * * * * * * * * * * * * * //

dimensions      [0 2 -2 0 0 0 0];

internalField   nonuniform List<scalar> 
690
(
0.00326961
0.00313915
0.00300906
0.00287956
0.00275033
0.00262271
0.00249618
0.00237151
0.00224744
0.00212444
0.00200278
0.00325395
0.00312421
0.00299418
0.00286459
0.00273565
0.00260843
0.00248244
0.00235813
0.00223458
0.00211244
0.00199214
0.00324369
0.00311364
0.00298396
0.00285504
0.00272698
0.00260032
0.00247468
0.00235049
0.00222676
0.00210449
0.00198405
0.0032611
0.00312953
0.00299888
0.00286924
0.00274066
0.00261328
0.00248681
0.00236158
0.00223705
0.0021132
0.0019901
0.00327003
0.00313743
0.00300614
0.00287606
0.00274718
0.00261951
0.002493
0.0023677
0.00224369
0.00212073
0.00199836
0.00328457
0.00315324
0.00302358
0.00289475
0.00276554
0.00263746
0.00251039
0.00238523
0.00226063
0.00213683
0.00201386
0.00327942
0.00314912
0.00301944
0.00288991
0.00276096
0.00263354
0.00250717
0.00238271
0.00225829
0.00213513
0.00201323
0.00326068
0.00312956
0.00300002
0.00287141
0.00274387
0.00261749
0.0024923
0.00236773
0.00224379
0.0021208
0.00199912
0.00327231
0.00314007
0.00300946
0.00288005
0.00275179
0.00262448
0.00249843
0.00237321
0.00224935
0.00212601
0.00200359
0.00327942
0.00314684
0.0030158
0.00288601
0.00275733
0.00262975
0.0025034
0.00237805
0.00225366
0.00213006
0.00200769
0.0032761
0.00314363
0.00301318
0.00288354
0.00275447
0.00262679
0.00250012
0.00237534
0.00225084
0.00212754
0.00200546
0.00327127
0.00313897
0.00300696
0.00287588
0.00274693
0.00261997
0.0024947
0.00237002
0.00224615
0.00212369
0.00200271
0.00323723
0.00310493
0.00297435
0.00284574
0.00271859
0.0025921
0.0024668
0.00234191
0.00221925
0.00209748
0.00197701
0.00323777
0.00310529
0.00297458
0.00284561
0.00271797
0.00259101
0.00246513
0.00234045
0.00221759
0.00209571
0.00197454
0.00323721
0.00310474
0.00297392
0.00284461
0.00271657
0.0025896
0.00246372
0.0023389
0.00221502
0.00209222
0.00197068
0.00328373
0.00314942
0.00301573
0.00288334
0.00275313
0.0026249
0.00249818
0.00237297
0.00224882
0.00212596
0.00200407
0.00328058
0.00314706
0.00301434
0.0028831
0.00275351
0.00262536
0.00249873
0.00237299
0.00224886
0.00212587
0.00200422
0.0032384
0.00310537
0.00297396
0.00284433
0.00271615
0.00258882
0.00246251
0.00233751
0.00221437
0.00209237
0.00197181
0.00322921
0.00309681
0.00296599
0.00283674
0.00270883
0.00258199
0.00245622
0.00233167
0.00220852
0.00208668
0.00196561
0.00322279
0.00309079
0.00296024
0.00283106
0.00270314
0.00257638
0.00245072
0.00232616
0.00220266
0.0020803
0.00195877
0.00328325
0.00314934
0.00301663
0.00288532
0.0027556
0.00262735
0.00250045
0.00237489
0.00225059
0.00212754
0.00200574
0.0032863
0.00315313
0.00302102
0.00289015
0.00276057
0.00263227
0.00250524
0.00237935
0.00225468
0.00213106
0.00200877
0.00324031
0.00310753
0.0029762
0.00284631
0.00271772
0.0025903
0.002464
0.00233888
0.00221501
0.00209225
0.00197059
0.00322371
0.00309155
0.00296083
0.00283149
0.00270343
0.00257653
0.00245075
0.0023261
0.00220257
0.00208016
0.00195855
0.00321431
0.00308247
0.002952
0.00282284
0.00269491
0.00256814
0.00244248
0.00231788
0.00219432
0.00207179
0.00195004
0.00321193
0.00308029
0.00295
0.00282096
0.00269312
0.00256642
0.0024408
0.00231623
0.00219266
0.00207009
0.00194831
0.0032784
0.00314499
0.00301293
0.00288222
0.00275287
0.00262481
0.00249802
0.00237249
0.00224822
0.00212521
0.0020035
0.00328534
0.00315253
0.00302098
0.00289064
0.00276149
0.00263351
0.00250668
0.00238094
0.00225623
0.0021325
0.00200994
0.00323964
0.00310712
0.00297636
0.00284696
0.0027187
0.00259154
0.00246544
0.00234038
0.0022163
0.00209315
0.00197086
0.00322229
0.00309051
0.00296012
0.00283101
0.0027031
0.00257632
0.00245062
0.00232598
0.00220237
0.00207979
0.00195798
0.00321199
0.00308036
0.00295006
0.00282102
0.00269318
0.00256647
0.00244086
0.00231628
0.00219272
0.00207015
0.00194836
0.00320841
0.00307699
0.00294686
0.00281795
0.00269022
0.0025636
0.00243806
0.00231354
0.00219001
0.00206745
0.00194568
0.00326976
0.00313713
0.0030058
0.00287566
0.00274674
0.00261902
0.00249247
0.00236715
0.00224311
0.00212019
0.00199791
0.00327926
0.00314668
0.00301562
0.00288578
0.00275706
0.00262945
0.00250305
0.00237765
0.00225323
0.00212956
0.00200715
0.0032373
0.00310484
0.00297402
0.00284468
0.00271659
0.00258959
0.00246368
0.00233882
0.00221492
0.00209207
0.00197046
0.00322297
0.00309098
0.00296042
0.00283121
0.00270327
0.00257647
0.00245079
0.0023262
0.00220268
0.00208029
0.00195873
0.00321445
0.00308262
0.00295215
0.00282297
0.00269503
0.00256824
0.00244255
0.00231794
0.00219435
0.0020718
0.00195003
0.00321199
0.00308036
0.00295006
0.00282102
0.00269318
0.00256646
0.00244084
0.00231625
0.00219268
0.0020701
0.0019483
0.0032608
0.00312928
0.00299864
0.00286897
0.00274036
0.00261291
0.00248642
0.00236121
0.00223671
0.00211299
0.0019899
0.00186806
0.00327216
0.00313994
0.00300931
0.00287989
0.00275159
0.00262426
0.00249814
0.00237295
0.00224898
0.00212543
0.00200305
0.00188223
0.00323809
0.00310556
0.0029748
0.00284578
0.00271806
0.00259106
0.00246511
0.00234032
0.00221738
0.00209535
0.00197412
0.00322956
0.00309713
0.00296628
0.00283697
0.00270901
0.00258211
0.00245628
0.00233166
0.00220845
0.00208654
0.00196541
0.00322388
0.00309173
0.002961
0.00283165
0.00270356
0.00257663
0.00245081
0.00232612
0.00220254
0.00208009
0.00195843
0.00322229
0.00309051
0.00296013
0.00283102
0.00270311
0.00257632
0.00245061
0.00232595
0.0022023
0.00207969
0.00195786
0.00324367
0.00311373
0.00298404
0.00285505
0.00272691
0.00260014
0.00247448
0.00235013
0.00222649
0.00210448
0.00198392
0.00186476
0.00326099
0.00312976
0.00300013
0.00287145
0.00274381
0.00261736
0.00249209
0.00236756
0.00224352
0.00212046
0.00199872
0.00187827
0.00323809
0.0031056
0.00297485
0.00284611
0.00271882
0.00259224
0.00246683
0.00234195
0.00221911
0.00209708
0.00197659
0.00323911
0.003106
0.00297448
0.00284477
0.00271649
0.00258909
0.00246269
0.00233759
0.00221438
0.00209228
0.00197161
0.00324068
0.00310789
0.00297654
0.00284662
0.002718
0.00259052
0.00246417
0.002339
0.00221505
0.00209223
0.00197048
0.00323981
0.00310726
0.0029765
0.00284711
0.00271884
0.00259166
0.00246552
0.00234043
0.00221631
0.00209311
0.00197078
0.00325325
0.0031239
0.00299406
0.00286448
0.00273555
0.00260824
0.00248224
0.00235784
0.00223433
0.00211229
0.001992
0.00187293
0.00327867
0.00314861
0.0030191
0.00288965
0.00276075
0.00263331
0.00250696
0.00238238
0.00225803
0.00213503
0.00201303
0.00189194
0.00327135
0.00313898
0.00300695
0.0028759
0.00274689
0.0026199
0.00249457
0.00236987
0.00224593
0.00212343
0.00200238
0.00328064
0.00314714
0.00301443
0.00288321
0.0027536
0.00262542
0.00249876
0.00237296
0.00224878
0.00212577
0.00200404
0.00328629
0.00315316
0.0030211
0.00289027
0.0027607
0.0026324
0.00250535
0.00237942
0.00225471
0.00213105
0.00200868
0.00328541
0.00315263
0.00302111
0.00289079
0.00276165
0.00263368
0.00250683
0.00238107
0.00225632
0.00213255
0.00200994
0.00326863
0.00313865
0.00300882
0.00287935
0.0027502
0.00262252
0.00249601
0.00237127
0.00224724
0.00212428
0.00200262
0.00188209
0.00328329
0.00315253
0.00302321
0.00289445
0.00276535
0.00263727
0.00251025
0.00238504
0.00226048
0.00213668
0.00201373
0.00189179
0.00327529
0.00314317
0.00301293
0.00288335
0.00275433
0.00262665
0.00249998
0.0023752
0.00225071
0.00212732
0.00200518
0.00328303
0.00314895
0.00301548
0.00288323
0.00275308
0.00262486
0.00249813
0.00237289
0.00224871
0.00212579
0.00200388
0.00328287
0.00314911
0.00301652
0.0028853
0.00275562
0.00262739
0.00250049
0.00237491
0.00225058
0.00212748
0.00200562
0.0032783
0.003145
0.00301301
0.00288233
0.002753
0.00262496
0.00249818
0.00237263
0.00224835
0.00212528
0.00200349
)
;

boundaryField
{
    inlet
    {
        type            zeroGradient;
    }
    ami1
    {
        type            cyclicAMI;
        value           nonuniform List<scalar> 0();
    }
    walls
    {
        type            zeroGradient;
    }
    ami2
    {
        type            cyclicAMI;
        value           nonuniform List<scalar> 0();
    }
    outlet
    {
        type            fixedValue;
        value           nonuniform List<scalar> 0();
    }
    procBoundary8to0
    {
        type            processor;
        value           nonuniform List<scalar> 
29
(
0.00340109
0.00338424
0.00337498
0.00339399
0.00340428
0.00341764
0.00341096
0.00339341
0.00340593
0.00341338
0.00341028
0.00340456
0.0033709
0.00337154
0.0033711
0.00341923
0.00341502
0.00337267
0.00336296
0.00335625
0.00341858
0.00342039
0.00337428
0.00335726
0.00334758
0.00334498
0.00335551
0.00334502
0.00334124
)
;
    }
    procBoundary8to1
    {
        type            processor;
        value           nonuniform List<scalar> 
33
(
0.00341331
0.00341925
0.00337367
0.00340402
0.00341319
0.00337115
0.00335639
0.00334769
0.00334503
0.00339359
0.00340569
0.00337186
0.00336328
0.00335741
0.00335552
0.00337478
0.00339367
0.00337173
0.00337328
0.00337456
0.0033738
0.00338326
0.00341009
0.00340459
0.00341492
0.00342025
0.00341924
0.00339978
0.00341601
0.00340929
0.00341842
0.00341811
0.00341311
)
;
    }
    procBoundary8to7
    {
        type            processor;
        value           nonuniform List<scalar> 
68
(
0.0018824
0.00187325
0.00186516
0.00186834
0.00187662
0.00189208
0.00189236
0.00187866
0.00188269
0.0018867
0.00188471
0.001883
0.00185809
0.00185425
0.00185043
0.00188359
0.00188379
0.00185219
0.00184485
0.00183812
0.00188492
0.00188753
0.00185001
0.00183775
0.00182918
0.00182743
0.00188266
0.00188861
0.00184998
0.00183715
0.00182746
0.00182479
0.00187617
0.00187617
0.00188619
0.00188619
0.00185022
0.00183806
0.00182914
0.00182741
0.00174806
0.00176259
0.00185385
0.00185385
0.00184466
0.0018376
0.00183701
0.00174661
0.00175931
0.00185779
0.00185779
0.00185198
0.00184984
0.00184985
0.00175456
0.00177251
0.00188257
0.00188257
0.00188355
0.00188737
0.00188854
0.00176292
0.00177173
0.00188429
0.00188429
0.00188327
0.00188471
0.00188254
)
;
    }
    procBoundary8to9
    {
        type            processor;
        value           nonuniform List<scalar> 
132
(
0.00327865
0.00314534
0.00301336
0.0028827
0.00275339
0.00262536
0.0024986
0.00237308
0.00224885
0.00212585
0.00200414
0.00328553
0.00315276
0.00302125
0.00289094
0.00276183
0.00263389
0.00250709
0.00238138
0.00225669
0.00213297
0.00201039
0.00323973
0.00310718
0.00297642
0.00284704
0.00271879
0.00259164
0.00246555
0.00234049
0.00221641
0.00209325
0.00197095
0.00322226
0.00309046
0.00296007
0.00283097
0.00270307
0.0025763
0.00245061
0.00232597
0.00220235
0.00207977
0.00195795
0.00322226
0.00309046
0.00296007
0.00283097
0.00270307
0.0025763
0.00245061
0.00232597
0.00220235
0.00207977
0.00195795
0.00321437
0.00308256
0.00295211
0.00282295
0.00269501
0.00256823
0.00244255
0.00231794
0.00219435
0.00207179
0.00195
0.00321196
0.00308034
0.00295005
0.00282102
0.00269318
0.00256648
0.00244086
0.00231628
0.0021927
0.00207012
0.00194832
0.00321435
0.00308254
0.00295209
0.00282292
0.00269498
0.0025682
0.00244251
0.00231789
0.0021943
0.00207175
0.00194997
0.00322284
0.00309088
0.00296036
0.00283118
0.00270324
0.00257645
0.00245075
0.00232617
0.00220264
0.00208023
0.00195862
0.0032373
0.00310486
0.00297409
0.00284477
0.00271668
0.00258969
0.00246372
0.00233888
0.00221494
0.0020921
0.00197041
0.00327937
0.00314685
0.00301582
0.002886
0.00275727
0.00262969
0.00250319
0.00237786
0.00225332
0.00212962
0.00200719
0.00326988
0.00313732
0.00300599
0.00287584
0.00274692
0.00261921
0.00249271
0.00236736
0.00224336
0.00212037
0.00199799
)
;
    }
}


// ************************************************************************* //
