/*--------------------------------*- C++ -*----------------------------------*\
| =========                 |                                                 |
| \\      /  F ield         | OpenFOAM: The Open Source CFD Toolbox           |
|  \\    /   O peration     | Version:  2212                                  |
|   \\  /    A nd           | Website:  www.openfoam.com                      |
|    \\/     M anipulation  |                                                 |
\*---------------------------------------------------------------------------*/
FoamFile
{
    version     2.0;
    format      ascii;
    arch        "LSB;label=32;scalar=64";
    class       volScalarField;
    location    "2.35";
    object      epsilon;
}
// * * * * * * * * * * * * * * * * * * * * * * * * * * * * * * * * * * * * * //

dimensions      [0 2 -3 0 0 0 0];

internalField   nonuniform List<scalar> 
689
(
0.181466
0.168563
0.159152
0.151443
0.145232
0.139959
0.135463
0.131406
0.0759134
0.0700874
0.0655944
0.0618484
0.0588044
0.0561939
0.0538494
0.051777
0.0622373
0.0566507
0.0522716
0.0486213
0.0455734
0.0429536
0.0406911
0.0387233
0.036998
0.0708681
0.0639035
0.0579163
0.05282
0.0484898
0.0447855
0.0415953
0.0388349
0.0364305
0.0343211
0.0324578
0.0308091
0.0710001
0.0608053
0.0540473
0.0488006
0.0445537
0.0410337
0.0380568
0.0354902
0.0332396
0.0312508
0.0294833
0.02791
0.0704129
0.0598206
0.0528832
0.047521
0.0432129
0.0396671
0.0366969
0.0341672
0.0319551
0.0299931
0.0282461
0.0266875
0.0714491
0.060212
0.0531505
0.047856
0.0435675
0.040009
0.0370108
0.0344406
0.0321855
0.030192
0.028425
0.0268574
0.0698349
0.062396
0.0559704
0.0505991
0.046096
0.0423477
0.0391859
0.0364721
0.0341216
0.0320677
0.0302585
0.0286633
0.0880024
0.0749753
0.0653781
0.0580888
0.0524834
0.0481047
0.0446108
0.0417403
0.0393047
0.0371982
0.035338
0.1383
0.114662
0.094079
0.080518
0.0717563
0.0658064
0.0614399
0.0579497
0.0551987
0.0528239
0.0506902
0.387226
0.30369
0.237727
0.202005
0.181025
0.167864
0.158423
0.150845
0.144806
0.13982
0.135389
0.071851
0.0661241
0.0618083
0.0582348
0.0554075
0.0529185
0.0507516
0.0489161
0.0368999
0.0337503
0.0314989
0.0293856
0.0275109
0.0258831
0.0244908
0.0232102
0.0325944
0.0293882
0.0266915
0.024422
0.0224825
0.0208242
0.0193851
0.0181478
0.0168926
0.0499064
0.0418847
0.0360659
0.0314336
0.0278179
0.024938
0.0226878
0.0207356
0.0190446
0.017571
0.0162799
0.015133
0.0459722
0.0403568
0.0354839
0.0313522
0.0278729
0.0247595
0.0221365
0.020057
0.0184004
0.0169258
0.015619
0.014458
0.0457488
0.0402095
0.0353823
0.0312651
0.0277755
0.0247853
0.0221316
0.0197782
0.0180302
0.0166143
0.0153268
0.0141702
0.0461755
0.0403467
0.0353571
0.0311308
0.0275832
0.0245392
0.0218289
0.0195763
0.0179352
0.0165133
0.0152314
0.0140849
0.0454597
0.0400694
0.0350329
0.0307412
0.0272221
0.0240246
0.021646
0.0198586
0.0182582
0.016842
0.0155905
0.0144756
0.0508035
0.0417226
0.0364471
0.0314569
0.0280514
0.025559
0.0234001
0.0215453
0.019921
0.0185063
0.0172619
0.0641935
0.053362
0.0467729
0.0415562
0.0372636
0.0340672
0.0314018
0.0292911
0.0273327
0.025735
0.0243542
0.139093
0.11515
0.0963304
0.0838413
0.0755072
0.0696827
0.065219
0.0615618
0.0585721
0.0560732
0.0537191
0.0579161
0.052407
0.0481296
0.0446822
0.0418106
0.0393593
0.0372312
0.0353579
0.0337248
0.0313335
0.0280422
0.0255784
0.0234433
0.021592
0.0199711
0.0185539
0.0173238
0.016194
0.0300837
0.0265606
0.0236697
0.021255
0.0192162
0.0174765
0.015977
0.014678
0.013542
0.0477987
0.0414094
0.0360657
0.0315865
0.0278396
0.0246975
0.0220544
0.0198058
0.0178793
0.0162179
0.0147771
0.0135207
0.0500841
0.0432591
0.0376371
0.0329589
0.0290346
0.0257079
0.0228806
0.0204742
0.0184249
0.0166595
0.0151283
0.0137926
0.0503283
0.0437272
0.0381488
0.0334419
0.0294637
0.0260841
0.0231958
0.0207182
0.0186066
0.0167994
0.0152368
0.0138754
0.049362
0.0429535
0.0375097
0.0328894
0.0289701
0.025636
0.0227906
0.020363
0.0182976
0.0165259
0.0149964
0.0136673
0.0476054
0.0412055
0.0358932
0.0314245
0.027669
0.0244944
0.0218243
0.0195762
0.0176644
0.0160237
0.0146017
0.0133574
0.0457453
0.039372
0.0343137
0.0300525
0.026535
0.0236469
0.0212348
0.0191986
0.0174613
0.0159624
0.0146691
0.0546326
0.0433799
0.0375858
0.033125
0.0296239
0.0267984
0.0244621
0.0224929
0.0208258
0.019365
0.0181382
0.0915909
0.0790123
0.0691832
0.0619027
0.0564407
0.0521561
0.0485248
0.0454719
0.0428598
0.0406045
0.0386776
0.0505331
0.0460546
0.0423323
0.0391863
0.036478
0.0341273
0.0320704
0.0302572
0.0286509
0.0309187
0.0272958
0.0240523
0.021667
0.0198749
0.0182735
0.0168564
0.0156056
0.0144926
0.0314691
0.0276923
0.0245066
0.0218324
0.0195831
0.0176709
0.0160301
0.0146075
0.0133676
0.0521015
0.0450495
0.0391846
0.0342721
0.0301388
0.0266413
0.0236717
0.0211414
0.0189735
0.0171059
0.0154885
0.0140805
0.0557429
0.0481518
0.0418474
0.0365763
0.0321419
0.0283899
0.0251974
0.0224675
0.0201219
0.0180993
0.0163474
0.0148226
0.0572028
0.0493433
0.0428466
0.0374284
0.0328765
0.029027
0.025752
0.0229507
0.0205438
0.0184671
0.0166675
0.0151015
0.0558976
0.0482086
0.041868
0.0365832
0.0321423
0.0283852
0.0251887
0.0224562
0.0201104
0.0180875
0.016335
0.0148098
0.0520965
0.0450277
0.0391636
0.0342574
0.0301295
0.0266349
0.0236666
0.0211372
0.0189698
0.0171026
0.0154855
0.014077
0.0478024
0.0413106
0.0359812
0.0315316
0.0278074
0.0246754
0.0220345
0.0197906
0.0178675
0.0162085
0.0147688
0.0501767
0.0420491
0.036174
0.0315034
0.0278483
0.0249583
0.0227
0.0207424
0.019048
0.0175706
0.0162694
0.0708101
0.0638509
0.057857
0.0527778
0.0484565
0.0447565
0.041569
0.0388116
0.0364106
0.0343067
0.0324564
0.0478396
0.0435607
0.0400063
0.0370103
0.0344388
0.0321826
0.0301887
0.028422
0.0268533
0.0312401
0.0276209
0.0245468
0.021817
0.0195874
0.0179473
0.0165215
0.0152375
0.0140902
0.0329484
0.0289917
0.025642
0.0227909
0.0203638
0.0182997
0.0165288
0.0149998
0.0136714
0.0559419
0.0482501
0.0418962
0.0365989
0.0321498
0.0283882
0.0251898
0.0224569
0.0201114
0.0180888
0.0163365
0.0148116
0.0602
0.0519605
0.0451212
0.0394052
0.034598
0.0305312
0.0270715
0.0241127
0.0215696
0.0193737
0.0174691
0.0158105
0.0621648
0.0534896
0.0463716
0.0404592
0.0355028
0.031317
0.0277589
0.0247171
0.0221028
0.0198452
0.0178868
0.0161814
0.0601955
0.0519632
0.0451218
0.0394039
0.0345962
0.0305296
0.0270702
0.0241117
0.0215688
0.019373
0.0174684
0.0158101
0.055735
0.0481372
0.041831
0.0365619
0.0321307
0.0283813
0.0251911
0.022463
0.0201183
0.0180963
0.0163449
0.014821
0.050069
0.0432507
0.0376215
0.032942
0.0290191
0.025694
0.0228697
0.0204669
0.0184183
0.0166533
0.0151221
0.0459902
0.0403804
0.0355022
0.0313639
0.0278788
0.0247596
0.0221377
0.0200598
0.0184016
0.0169253
0.0156128
0.0710003
0.0607931
0.0540375
0.0487947
0.0445511
0.0410335
0.0380581
0.0354922
0.0332422
0.0312549
0.0294955
0.0572354
0.0493699
0.0428611
0.0374344
0.032878
0.0290267
0.0257514
0.0229505
0.0205441
0.0184678
0.0166687
0.0151032
0.0621731
0.0534969
0.0463771
0.040463
0.0355056
0.031319
0.0277606
0.0247186
0.0221043
0.0198468
0.0178884
0.016183
0.0635529
0.0548317
0.0475913
0.0415421
0.0364567
0.0321559
0.0284981
0.0253701
0.0226813
0.020359
0.018344
0.0165892
0.0621723
0.0534968
0.0463759
0.040461
0.0355031
0.0313167
0.0277586
0.0247169
0.022103
0.0198456
0.0178874
0.0161823
0.0571927
0.0493533
0.0428511
0.0374267
0.0328715
0.0290213
0.0257468
0.0229464
0.0205405
0.0184645
0.0166655
0.0151005
0.0503709
0.0437643
0.0381645
0.0334443
0.0294596
0.0260776
0.0231886
0.0207116
0.018602
0.0167955
0.0152324
0.0457599
0.0402266
0.0353954
0.0312739
0.0277806
0.0247792
0.0221232
0.019784
0.0180336
0.0166132
0.0153222
0.0704179
0.0598354
0.0528931
0.0475249
0.0432136
0.0396676
0.0366981
0.0341683
0.0319566
0.029996
0.0282534
)
;

boundaryField
{
    inlet
    {
        type            fixedValue;
        value           nonuniform List<scalar> 0();
    }
    ami1
    {
        type            cyclicAMI;
        value           nonuniform List<scalar> 0();
    }
    walls
    {
        type            epsilonWallFunction;
        blending        stepwise;
        value           nonuniform List<scalar> 
227
(
0.0708681
0.0710001
0.0704129
0.0714491
0.0698349
0.0880024
0.1383
0.387226
0.0639035
0.0608053
0.0598206
0.060212
0.062396
0.0749753
0.114662
0.30369
0.0579163
0.0540473
0.0528832
0.0531505
0.0559704
0.0653781
0.094079
0.237727
0.0622373
0.05282
0.0488006
0.047521
0.047856
0.0505991
0.0580888
0.080518
0.202005
0.181466
0.0759134
0.0566507
0.0484898
0.0445537
0.0432129
0.0435675
0.046096
0.0524834
0.0717563
0.181025
0.168563
0.0700874
0.0522716
0.0447855
0.0410337
0.0396671
0.040009
0.0423477
0.0481047
0.0658064
0.167864
0.159152
0.0655944
0.0486213
0.0415953
0.0380568
0.0366969
0.0370108
0.0391859
0.0446108
0.0614399
0.158423
0.151443
0.0618484
0.0455734
0.0388349
0.0354902
0.0341672
0.0344406
0.0364721
0.0417403
0.0579497
0.150845
0.145232
0.0588044
0.0429536
0.0364305
0.0332396
0.0319551
0.0321855
0.0341216
0.0393047
0.0551987
0.144806
0.139959
0.0561939
0.0406911
0.0343211
0.0312508
0.0299931
0.030192
0.0320677
0.0371982
0.0528239
0.13982
0.135463
0.0538494
0.0387233
0.0324578
0.0294833
0.0282461
0.028425
0.0302585
0.035338
0.0506902
0.135389
0.131406
0.051777
0.036998
0.0308091
0.02791
0.0266875
0.0268574
0.0286633
0.387226
0.139093
0.0915909
0.0708101
0.0710003
0.0704179
0.30369
0.11515
0.0790123
0.0638509
0.0607931
0.0598354
0.237727
0.0963304
0.0691832
0.057857
0.0540375
0.0528931
0.202005
0.0838413
0.0619027
0.0527778
0.0487947
0.0475249
0.181025
0.0755072
0.0564407
0.0484565
0.0445511
0.0432136
0.167864
0.0696827
0.0521561
0.0447565
0.0410335
0.0396676
0.158423
0.065219
0.0485248
0.041569
0.0380581
0.0366981
0.150845
0.0615618
0.0454719
0.0388116
0.0354922
0.0341683
0.144806
0.0585721
0.0428598
0.0364106
0.0332422
0.0319566
0.13982
0.0560732
0.0406045
0.0343067
0.0312549
0.029996
0.135389
0.0537191
0.0386776
0.0324564
0.0294955
0.0282534
0.0579161
0.0505331
0.0478396
0.181466
0.071851
0.052407
0.0460546
0.0435607
0.168563
0.0661241
0.0481296
0.0423323
0.0400063
0.159152
0.0618083
0.0446822
0.0391863
0.0370103
0.151443
0.0582348
0.0418106
0.036478
0.0344388
0.145232
0.0554075
0.0393593
0.0341273
0.0321826
0.139959
0.0529185
0.0372312
0.0320704
0.0301887
0.135463
0.0507516
0.0353579
0.0302572
0.028422
0.131406
0.0489161
0.0337248
0.0286509
0.0268533
)
;
    }
    ami2
    {
        type            cyclicAMI;
        value           nonuniform List<scalar> 
48
(
0.0755164
0.0779687
0.0834478
0.078574
0.0749394
0.0811679
0.105071
0.229259
0.0517849
0.0485692
0.0489833
0.0485309
0.0493819
0.0579814
0.0677434
0.105629
0.0516298
0.0538628
0.0543097
0.0534527
0.0515155
0.0494174
0.0600954
0.0831055
0.0564061
0.0606499
0.0616193
0.0607343
0.0564037
0.0516332
0.0519213
0.0754862
0.0607568
0.0650538
0.0676206
0.0650514
0.0606459
0.0538546
0.0485796
0.0779711
0.0616362
0.0676252
0.0688046
0.0676249
0.0616138
0.0543295
0.0489874
0.0834514
)
;
    }
    outlet
    {
        type            zeroGradient;
    }
    procBoundary0to1
    {
        type            processor;
        value           nonuniform List<scalar> 
138
(
0.0531293
0.0475177
0.0432163
0.0396749
0.0367065
0.0341751
0.0319618
0.0299995
0.0282526
0.0266938
0.0353943
0.031264
0.027772
0.0247703
0.0221145
0.0197811
0.0180315
0.0166113
0.015323
0.0141673
0.0493522
0.0429662
0.0375181
0.0375181
0.0334245
0.0294506
0.0260736
0.0231878
0.0207128
0.0186028
0.0167967
0.0152351
0.0138747
0.0503279
0.0437007
0.0381215
0.0334245
0.0294506
0.0260736
0.0231878
0.0207128
0.0186028
0.0167967
0.0152351
0.0138747
0.0557373
0.0481467
0.0418435
0.036574
0.0321409
0.0283894
0.0251973
0.0224676
0.0201221
0.0180998
0.0163482
0.0148239
0.0601752
0.0519486
0.0451163
0.0394036
0.0345979
0.0305318
0.0270723
0.0241136
0.0215706
0.0193748
0.0174703
0.0158119
0.0621647
0.0534935
0.0463756
0.0404623
0.0355051
0.0313187
0.0277604
0.0247185
0.0221043
0.0198467
0.0178883
0.016183
0.0601784
0.051958
0.0451211
0.0394047
0.0345974
0.0305307
0.0270712
0.0241126
0.0215697
0.0193738
0.0174693
0.0158111
0.0559015
0.0482239
0.041882
0.0365915
0.0321456
0.0283852
0.0251869
0.0224538
0.0201082
0.0180855
0.0163333
0.014808
0.0493839
0.0429749
0.037528
0.0328999
0.0289746
0.0256358
0.0227863
0.0203585
0.0182947
0.0165233
0.0149936
0.046254
0.040383
0.0353725
0.0311394
0.0275886
0.0245395
0.0218247
0.0195826
0.0179409
0.0165154
0.0152277
0.071445
0.0601828
0.0531189
0.0478301
0.0435457
0.0399906
0.0369953
0.0344266
0.0321731
0.030182
0.0284199
)
;
    }
    procBoundary0to2
    {
        type            processor;
        value           nonuniform List<scalar> 
28
(
0.202182
0.0840345
0.0840345
0.0916704
0.0791246
0.0691466
0.0691466
0.0805517
0.0805517
0.0413438
0.0413438
0.0413438
0.054364
0.0432676
0.0374319
0.0374319
0.0654438
0.0366667
0.0457519
0.0395513
0.034445
0.034445
0.0560005
0.0350556
0.0476535
0.0412677
0.0359304
0.0359304
)
;
    }
    procBoundary0to8
    {
        type            processor;
        value           nonuniform List<scalar> 
29
(
0.127599
0.0499901
0.0355732
0.0293731
0.0265171
0.0469929
0.0221123
0.0161059
0.0141061
0.0134212
0.0322802
0.0152507
0.0125223
0.0124111
0.01262
0.0272394
0.0134943
0.0122615
0.0128474
0.0134941
0.0254614
0.0130666
0.0124998
0.0134794
0.0143651
0.0146968
0.0137383
0.0146965
0.0150606
)
;
    }
    procBoundary0to9
    {
        type            processor;
        value           nonuniform List<scalar> 
40
(
0.0252966
0.0254637
0.0272479
0.0337499
0.0337499
0.0489749
0.131541
0.0131412
0.0130657
0.0134872
0.0161552
0.0161552
0.0230529
0.0518239
0.0126809
0.0124975
0.0122582
0.0135029
0.0135029
0.0168159
0.0370009
0.0137373
0.0134784
0.0128468
0.0135101
0.0135101
0.0150985
0.0308479
0.0143661
0.0134941
0.0137851
0.0137851
0.0144424
0.0279441
0.0146975
0.0137378
0.0138676
0.0138676
0.0141715
0.0267027
)
;
    }
}


// ************************************************************************* //
