/*--------------------------------*- C++ -*----------------------------------*\
| =========                 |                                                 |
| \\      /  F ield         | OpenFOAM: The Open Source CFD Toolbox           |
|  \\    /   O peration     | Version:  2212                                  |
|   \\  /    A nd           | Website:  www.openfoam.com                      |
|    \\/     M anipulation  |                                                 |
\*---------------------------------------------------------------------------*/
FoamFile
{
    version     2.0;
    format      ascii;
    arch        "LSB;label=32;scalar=64";
    class       volScalarField;
    location    "2.35";
    object      p;
}
// * * * * * * * * * * * * * * * * * * * * * * * * * * * * * * * * * * * * * //

dimensions      [0 2 -2 0 0 0 0];

internalField   nonuniform List<scalar> 
689
(
0.00426936
0.00414286
0.004012
0.00388203
0.00375193
0.00362252
0.0034931
0.00336413
0.00426115
0.00413416
0.00400498
0.00387596
0.00374632
0.00361689
0.00348718
0.00335767
0.00449672
0.0043294
0.00417665
0.00403241
0.00389424
0.0037589
0.00362495
0.00349158
0.00335929
0.00515635
0.00498667
0.00476643
0.00456673
0.00439412
0.00423424
0.00408163
0.00393474
0.00379199
0.00365232
0.00351499
0.00337986
0.0049827
0.00491238
0.00476401
0.00458879
0.00441813
0.00425655
0.00410176
0.00395259
0.00380773
0.00366579
0.0035265
0.00339022
0.00493011
0.00487432
0.00475489
0.00459042
0.00442174
0.0042599
0.0041045
0.00395507
0.00381065
0.00366935
0.00353085
0.00339494
0.0049771
0.00490406
0.00475228
0.00457695
0.00440784
0.00424744
0.004094
0.00394693
0.00380461
0.00366536
0.00352858
0.00339349
0.00513003
0.00497162
0.00475188
0.00455391
0.00438222
0.00422454
0.00407481
0.00393124
0.00379173
0.00365495
0.00351971
0.00338566
0.00542485
0.00506235
0.00471516
0.00448968
0.00432378
0.00417554
0.00403492
0.00389935
0.00376622
0.00363397
0.0035019
0.00569407
0.00504789
0.00458869
0.00441507
0.00428975
0.0041517
0.00401649
0.00388563
0.00375585
0.00362695
0.0034977
0.00570314
0.00497693
0.00447765
0.00436685
0.0042704
0.00414175
0.00401001
0.00388041
0.00375072
0.0036218
0.00349225
0.00428859
0.0041526
0.00401831
0.00388731
0.00375725
0.0036279
0.00349875
0.00337028
0.0043121
0.00416357
0.00402333
0.00388967
0.0037588
0.00362896
0.00349947
0.00337083
0.00453087
0.00435204
0.00419017
0.00403943
0.00389758
0.00376082
0.00362659
0.00349417
0.00336302
0.00509587
0.00491456
0.00472768
0.00453888
0.0043665
0.00420817
0.00405837
0.00391476
0.00377557
0.00363941
0.00350575
0.00337348
0.00487643
0.00474504
0.00463466
0.00449179
0.00434254
0.00419773
0.00405612
0.00391637
0.00377883
0.00364353
0.00351025
0.00337851
0.00483068
0.00469609
0.00460667
0.00447943
0.0043365
0.00419645
0.00405828
0.00392011
0.00378288
0.00364784
0.00351467
0.00338263
0.00488346
0.00475043
0.00464165
0.00450368
0.00435615
0.00421117
0.0040683
0.00392706
0.0037882
0.00365196
0.00351748
0.00338426
0.00512361
0.00493863
0.00474585
0.00455694
0.00438431
0.00422356
0.00407088
0.00392517
0.00378479
0.00364742
0.00351223
0.00337863
0.00524576
0.00500119
0.00476187
0.00454799
0.00436528
0.00420019
0.00404775
0.00390518
0.00376803
0.00363309
0.00350008
0.0054866
0.00505117
0.0046918
0.00447406
0.00431137
0.00416224
0.00402211
0.00388871
0.00375799
0.0036283
0.00349865
0.00575115
0.00505608
0.00456603
0.00438327
0.00426204
0.00413244
0.00400234
0.00387386
0.00374491
0.00361614
0.00348639
0.0044888
0.00432366
0.0041765
0.00403611
0.0039002
0.00376674
0.00363422
0.00350222
0.00337094
0.00454913
0.00436642
0.00420061
0.00404763
0.00390484
0.00376761
0.00363274
0.00349967
0.00336798
0.00456774
0.00437748
0.00420551
0.00404662
0.00389712
0.00375398
0.00361469
0.00347862
0.00334501
0.0050167
0.00484392
0.0046967
0.00452864
0.0043594
0.00419867
0.00404521
0.00389756
0.00375468
0.00361531
0.00347894
0.00334503
0.00494741
0.00478452
0.00464649
0.00449385
0.00433711
0.0041853
0.00403748
0.0038924
0.00375037
0.00361172
0.00347597
0.00334251
0.00489451
0.00473685
0.00461532
0.00447504
0.00432578
0.00417911
0.00403537
0.00389253
0.00375099
0.00361246
0.00347696
0.00334366
0.00495525
0.00479088
0.00465189
0.00450016
0.00434429
0.00419285
0.0040452
0.00389937
0.00375606
0.00361653
0.00348022
0.00334617
0.00503445
0.00485584
0.00470312
0.00453456
0.00436641
0.00420588
0.00405123
0.00390194
0.00375787
0.00361786
0.00348115
0.00334669
0.00520137
0.0049867
0.00477435
0.00456568
0.00437678
0.00420579
0.00404716
0.00389774
0.00375472
0.0036155
0.0034799
0.00524011
0.0049825
0.00474159
0.00452939
0.00435082
0.00418974
0.00403957
0.00389786
0.00376115
0.00362687
0.00349458
0.00545851
0.0050755
0.00472226
0.00449745
0.00432821
0.0041744
0.00403035
0.00389291
0.00375821
0.00362471
0.00349132
0.00455362
0.00438191
0.00422453
0.00407525
0.00393183
0.00379222
0.00365527
0.00351994
0.00338572
0.00455709
0.00438433
0.00422359
0.00407097
0.00392528
0.0037848
0.00364735
0.00351197
0.00337835
0.00453512
0.00436696
0.00420625
0.00405139
0.00390191
0.00375764
0.00361748
0.0034805
0.00334616
0.00497078
0.00480029
0.00465662
0.0044995
0.00433903
0.00418383
0.00403387
0.00388803
0.00374568
0.00360653
0.00347026
0.00333639
0.00493442
0.00476165
0.00461977
0.00447028
0.00431707
0.00416719
0.00402099
0.00387756
0.00373673
0.00359851
0.00346276
0.00332908
0.00489887
0.00473289
0.00459907
0.00445562
0.00430678
0.00416008
0.00401628
0.00387447
0.00373461
0.00359699
0.00346161
0.00332817
0.00493682
0.00476291
0.00462026
0.00447103
0.00431849
0.0041691
0.00402328
0.00387996
0.00373906
0.0036007
0.00346481
0.00333097
0.00497089
0.00480041
0.0046565
0.00449918
0.00433873
0.00418367
0.00403382
0.0038881
0.00374585
0.00360677
0.0034706
0.0033367
0.00501638
0.00484381
0.00469627
0.00452805
0.00435915
0.00419868
0.00404528
0.0038977
0.00375497
0.00361576
0.00347965
0.00509548
0.00491419
0.00472701
0.00453833
0.00436671
0.00420862
0.00405855
0.00391473
0.00377551
0.00363943
0.00350603
0.00515706
0.00498709
0.00476661
0.00456658
0.00439364
0.00423348
0.00408064
0.00393373
0.00379113
0.00365167
0.00351449
0.00457675
0.0044075
0.00424724
0.00409414
0.00394725
0.00380487
0.00366549
0.00352864
0.00339347
0.00450368
0.00435618
0.00421122
0.00406833
0.00392706
0.00378817
0.00365189
0.00351737
0.00338416
0.00450025
0.00434454
0.00419305
0.00404522
0.00389924
0.00375589
0.00361633
0.00347997
0.00334595
0.00493676
0.00476283
0.00462022
0.00447109
0.00431862
0.0041692
0.00402329
0.00387989
0.00373894
0.00360055
0.00346463
0.0033308
0.00489365
0.00472779
0.00459407
0.00445113
0.00430289
0.00415629
0.00401221
0.00387014
0.00373004
0.00359205
0.00345621
0.00332232
0.00490291
0.00473235
0.0045907
0.00444527
0.00429717
0.00415112
0.00400769
0.00386627
0.00372671
0.00358914
0.00345357
0.00331987
0.00489367
0.0047278
0.00459405
0.00445107
0.00430283
0.00415625
0.0040122
0.00387017
0.0037301
0.00359213
0.0034563
0.00332241
0.00493441
0.00476165
0.00461972
0.00447017
0.00431696
0.00416711
0.00402094
0.00387758
0.0037368
0.00359863
0.00346291
0.00332922
0.00494719
0.00478436
0.0046463
0.00449362
0.00433696
0.00418521
0.00403742
0.00389238
0.00375046
0.00361192
0.00347624
0.00487621
0.00474491
0.00463452
0.00449165
0.00434246
0.00419761
0.00405592
0.00391615
0.00377869
0.00364349
0.00351032
0.00498307
0.00491265
0.00476411
0.00458872
0.00441781
0.004256
0.00410109
0.00395194
0.00380719
0.00366539
0.0035262
0.00489889
0.00473289
0.00459904
0.00445558
0.00430676
0.00416005
0.00401623
0.00387441
0.00373454
0.00359691
0.00346152
0.00332808
0.00490289
0.00473233
0.0045907
0.00444526
0.00429716
0.00415111
0.00400768
0.00386625
0.00372669
0.00358911
0.00345354
0.00331984
0.00487421
0.00471032
0.00457745
0.00443634
0.00429041
0.00414552
0.00400276
0.0038618
0.00372262
0.00358534
0.00345
0.00331646
0.00490289
0.00473232
0.00459069
0.00444526
0.00429716
0.00415113
0.00400771
0.00386629
0.00372674
0.00358917
0.00345361
0.00331989
0.00489878
0.00473284
0.00459906
0.00445563
0.0043068
0.0041601
0.0040163
0.0038745
0.00373465
0.00359705
0.00346168
0.00332821
0.00489435
0.00473671
0.00461522
0.00447497
0.00432574
0.00417911
0.00403534
0.0038925
0.00375102
0.00361255
0.00347706
0.00483061
0.00469598
0.0046065
0.00447923
0.00433629
0.00419626
0.0040581
0.00391994
0.00378276
0.00364777
0.00351465
0.0049303
0.00487443
0.00475486
0.00459026
0.00442145
0.00425953
0.00410413
0.00395474
0.00381032
0.00366906
0.00353063
)
;

boundaryField
{
    inlet
    {
        type            zeroGradient;
    }
    ami1
    {
        type            cyclicAMI;
        value           nonuniform List<scalar> 0();
    }
    walls
    {
        type            zeroGradient;
    }
    ami2
    {
        type            cyclicAMI;
        value           nonuniform List<scalar> 
48
(
0.00517406
0.0049927
0.00498627
0.00498309
0.0051357
0.00540417
0.00563907
0.00569062
0.00521129
0.00503828
0.00500669
0.00504391
0.00522755
0.00539018
0.00558239
0.00568752
0.00518187
0.00507068
0.0050378
0.00507834
0.00519364
0.00532659
0.00539893
0.00544535
0.00510468
0.00506277
0.00503235
0.00506504
0.0051047
0.0051816
0.005211
0.00517465
0.00506499
0.00502929
0.00502265
0.00502931
0.00506272
0.00507045
0.00503814
0.00499302
0.00503234
0.00502262
0.0050048
0.00502262
0.00503226
0.00503765
0.00500665
0.00498646
)
;
    }
    outlet
    {
        type            fixedValue;
        value           nonuniform List<scalar> 0();
    }
    procBoundary0to1
    {
        type            processor;
        value           nonuniform List<scalar> 
138
(
0.00475231
0.00459022
0.00442144
0.00425961
0.00410435
0.00395504
0.00381064
0.00366934
0.00353084
0.00339497
0.00464169
0.00447938
0.00433648
0.00419642
0.00405821
0.00392
0.00378278
0.00364775
0.0035146
0.00338258
0.00495507
0.00479068
0.00465183
0.00465183
0.00447502
0.0043258
0.00417913
0.00403529
0.0038924
0.00375089
0.00361237
0.00347685
0.00334352
0.0048945
0.00473684
0.0046153
0.00447502
0.0043258
0.00417913
0.00403529
0.0038924
0.00375089
0.00361237
0.00347685
0.00334352
0.00493436
0.00476156
0.00461958
0.00447005
0.00431688
0.00416706
0.00402089
0.00387752
0.00373673
0.00359852
0.00346277
0.00332909
0.00489362
0.00472774
0.00459398
0.004451
0.00430276
0.00415618
0.00401213
0.0038701
0.00373003
0.00359204
0.00345621
0.00332233
0.00490288
0.00473231
0.00459066
0.00444522
0.00429712
0.00415109
0.00400767
0.00386626
0.00372671
0.00358914
0.00345358
0.00331988
0.00489365
0.00472778
0.00459404
0.00445106
0.00430283
0.00415625
0.00401221
0.00387018
0.0037301
0.00359213
0.00345629
0.00332238
0.00493673
0.00476286
0.00462024
0.00447106
0.00431855
0.00416918
0.00402335
0.00388001
0.00373911
0.00360075
0.00346486
0.00333093
0.00495505
0.00479078
0.00465188
0.00450019
0.00434435
0.00419291
0.00404523
0.00389938
0.00375611
0.00361662
0.00348036
0.00488344
0.00475035
0.00464156
0.00450355
0.004356
0.00421102
0.00406815
0.00392694
0.00378811
0.0036519
0.00351748
0.00497735
0.00490412
0.00475216
0.00457676
0.00440761
0.00424718
0.00409377
0.00394671
0.00380437
0.00366512
0.00352834
)
;
    }
    procBoundary0to2
    {
        type            processor;
        value           nonuniform List<scalar> 
28
(
0.00436445
0.00438073
0.00438073
0.00545803
0.00507504
0.00472113
0.00472113
0.00441276
0.00441276
0.0044734
0.0044734
0.0044734
0.00524032
0.00498295
0.00474248
0.00474248
0.0047147
0.00476224
0.0052015
0.00498679
0.00477584
0.00477584
0.00475186
0.00474588
0.00503418
0.00485567
0.00470339
0.00470339
)
;
    }
    procBoundary0to8
    {
        type            processor;
        value           nonuniform List<scalar> 
29
(
0.00323588
0.00322851
0.00322769
0.0032465
0.00325629
0.00324301
0.00324247
0.00323326
0.00324279
0.00324786
0.00324114
0.00323711
0.00321392
0.00321311
0.00321083
0.00325269
0.00324617
0.00321369
0.00320433
0.00319717
0.00325978
0.00325225
0.00321364
0.00319868
0.00319019
0.00318787
0.00319632
0.00318786
0.0031846
)
;
    }
    procBoundary0to9
    {
        type            processor;
        value           nonuniform List<scalar> 
40
(
0.00326092
0.0032599
0.00325297
0.00337087
0.00337087
0.00336951
0.00336348
0.00325165
0.00325232
0.0032462
0.00336848
0.00336848
0.00337021
0.00335713
0.00321202
0.00321377
0.0032138
0.00334619
0.00334619
0.00336358
0.00335923
0.0031964
0.0031988
0.00320446
0.00334552
0.00334552
0.00337379
0.00337968
0.00319026
0.00319726
0.00334269
0.00334269
0.00337853
0.00339009
0.00318789
0.0031964
0.0033437
0.0033437
0.0033826
0.00339483
)
;
    }
}


// ************************************************************************* //
