/*--------------------------------*- C++ -*----------------------------------*\
| =========                 |                                                 |
| \\      /  F ield         | OpenFOAM: The Open Source CFD Toolbox           |
|  \\    /   O peration     | Version:  2212                                  |
|   \\  /    A nd           | Website:  www.openfoam.com                      |
|    \\/     M anipulation  |                                                 |
\*---------------------------------------------------------------------------*/
FoamFile
{
    version     2.0;
    format      ascii;
    arch        "LSB;label=32;scalar=64";
    class       volVectorField;
    location    "1.05";
    object      U;
}
// * * * * * * * * * * * * * * * * * * * * * * * * * * * * * * * * * * * * * //

dimensions      [0 1 -1 0 0 0 0];

internalField   nonuniform List<vector> 
678
(
(0.0236914 2.57335e-05 2.23453e-05)
(0.0235595 2.42231e-05 2.26171e-05)
(0.0234244 2.23568e-05 2.25323e-05)
(0.023286 2.0381e-05 2.16411e-05)
(0.0231582 1.86981e-05 1.92016e-05)
(0.0400245 -1.99813e-05 0.000121412)
(0.0398137 -1.65702e-05 0.000115677)
(0.0396149 -1.4821e-05 0.000109951)
(0.0394179 -1.42528e-05 0.000102887)
(0.0392364 -1.38329e-05 9.43026e-05)
(0.0556404 -0.000191575 0.000192765)
(0.0553554 -0.000173048 0.000178893)
(0.0550969 -0.000155093 0.000162319)
(0.0548499 -0.00013995 0.000146311)
(0.0546258 -0.000128562 0.000135538)
(0.0651133 -0.000396542 0.000272083)
(0.0647836 -0.000364997 0.000250516)
(0.0644841 -0.000332224 0.00022349)
(0.0641995 -0.000302556 0.000197473)
(0.0639391 -0.000277193 0.000176984)
(0.0637019 -0.000254892 0.000161552)
(0.070084 -0.000509779 0.000275253)
(0.069732 -0.000474269 0.000250457)
(0.0694062 -0.000436977 0.000222123)
(0.0690959 -0.000400949 0.000195658)
(0.0688088 -0.000368628 0.000174561)
(0.0685456 -0.000338118 0.000158306)
(0.0702377 -0.000533538 0.000241256)
(0.0698865 -0.000495607 0.000217838)
(0.0695566 -0.000455178 0.000196329)
(0.0692405 -0.000415289 0.000177771)
(0.0689419 -0.000378382 0.000161427)
(0.0686724 -0.000344762 0.000146153)
(0.0684133 -0.000310928 0.000128627)
(0.0662727 -0.000482056 0.000193946)
(0.0659147 -0.000443025 0.000172742)
(0.0655843 -0.000399162 0.00015486)
(0.0652699 -0.000355806 0.000140754)
(0.064984 -0.000315866 0.000128984)
(0.0647225 -0.000281551 0.000118389)
(0.0644718 -0.000257267 0.000103713)
(0.0593386 -0.000292163 0.000120061)
(0.0590232 -0.000257617 0.00010561)
(0.0587374 -0.00022491 9.32045e-05)
(0.0584634 -0.000197825 8.30812e-05)
(0.0582136 -0.000174798 7.53413e-05)
(0.0579865 -0.00015361 6.93873e-05)
(0.0577827 -0.000142132 6.15595e-05)
(0.0497914 -0.000169843 6.02472e-05)
(0.0495158 -0.000153843 5.53892e-05)
(0.0492653 -0.000138682 4.99635e-05)
(0.0490218 -0.000126276 4.48268e-05)
(0.0487959 -0.000114452 4.06859e-05)
(0.0485898 -0.000100703 3.79298e-05)
(0.0484094 -9.0098e-05 3.57044e-05)
(0.0370175 -3.46769e-05 5.1749e-05)
(0.03681 -3.44733e-05 4.73114e-05)
(0.0366138 -3.60037e-05 4.24146e-05)
(0.0364186 -3.63358e-05 3.77979e-05)
(0.0362327 -3.37446e-05 3.37485e-05)
(0.0360696 -2.63999e-05 3.07484e-05)
(0.0236909 -2.20764e-05 2.4046e-05)
(0.0235588 -2.19731e-05 2.15412e-05)
(0.0234246 -2.15003e-05 1.88376e-05)
(0.0232897 -2.00625e-05 1.62396e-05)
(0.0231634 -1.7965e-05 1.3632e-05)
(0.023057 -1.47454e-05 1.17074e-05)
(0.0370316 5.30287e-05 3.33016e-05)
(0.0368249 4.99775e-05 3.33868e-05)
(0.0366279 4.65096e-05 3.56825e-05)
(0.0364272 4.33905e-05 3.76399e-05)
(0.0362392 4.08619e-05 3.60439e-05)
(0.0360636 3.89257e-05 2.38736e-05)
(0.0694475 1.72239e-05 0.000200639)
(0.0691597 1.64465e-05 0.000200447)
(0.0688983 1.40412e-05 0.000201875)
(0.0686411 1.10735e-05 0.000200104)
(0.0684054 1.15133e-05 0.000179034)
(0.0905514 -0.000225351 0.000371979)
(0.0903975 -0.000213162 0.000363729)
(0.090246 -0.000201851 0.000353326)
(0.0900926 -0.000191547 0.00034158)
(0.0899429 -0.000178564 0.00032136)
(0.0898083 -0.000154694 0.00027416)
(0.100042 -0.000446984 0.000400924)
(0.0999699 -0.000426265 0.000391254)
(0.0998905 -0.000405699 0.000379409)
(0.0998074 -0.000385991 0.000366086)
(0.0997217 -0.000362922 0.000346811)
(0.0996416 -0.000321628 0.000303292)
(0.103927 -0.000590765 0.000425647)
(0.103873 -0.000565612 0.000410446)
(0.103812 -0.000537908 0.000393374)
(0.103749 -0.000511621 0.000376046)
(0.103681 -0.000481224 0.000353212)
(0.10362 -0.000426554 0.000310499)
(0.104129 -0.000636781 0.000402021)
(0.104075 -0.000606487 0.000382184)
(0.104018 -0.000574278 0.000361071)
(0.103959 -0.000540431 0.000338436)
(0.103898 -0.000505026 0.000313192)
(0.103843 -0.000445919 0.00027597)
(0.101662 -0.000573173 0.000315145)
(0.101616 -0.000552592 0.000297053)
(0.101562 -0.000530538 0.000278981)
(0.101502 -0.00051161 0.000262724)
(0.101437 -0.000484709 0.000243409)
(0.101374 -0.000423672 0.000212667)
(0.0966486 -0.000491621 0.00018262)
(0.0965671 -0.000479069 0.000169057)
(0.0964769 -0.000465377 0.000157383)
(0.096381 -0.000451145 0.000147273)
(0.0962824 -0.000437452 0.000137499)
(0.0961824 -0.000404238 0.000125011)
(0.0960733 -0.000337206 0.000108283)
(0.0873067 -0.000421928 4.84684e-05)
(0.0871202 -0.000414335 4.36769e-05)
(0.0869394 -0.000403454 4.00394e-05)
(0.0867564 -0.000388352 3.64129e-05)
(0.086582 -0.000371758 3.31199e-05)
(0.0864108 -0.000338477 3.20065e-05)
(0.0862364 -0.000282227 3.0539e-05)
(0.0694381 -0.000201329 1.575e-05)
(0.0691498 -0.000199938 1.19298e-05)
(0.0688891 -0.000198811 6.9532e-06)
(0.0686364 -0.000192135 2.21789e-06)
(0.0684021 -0.000181845 -2.55474e-06)
(0.0681838 -0.000159394 -3.87186e-06)
(0.0679826 -0.000123229 1.27007e-06)
(0.0400365 -0.000119281 -2.34022e-05)
(0.0398261 -0.000112086 -2.14079e-05)
(0.0396287 -0.000104975 -2.05829e-05)
(0.0394358 -9.6079e-05 -2.03894e-05)
(0.0392566 -8.39995e-05 -2.02911e-05)
(0.0391047 -6.93071e-05 -1.8257e-05)
(0.0498239 6.14755e-05 0.000168751)
(0.0495506 5.78467e-05 0.000153015)
(0.0493007 5.36494e-05 0.000138834)
(0.0490545 4.99167e-05 0.000129064)
(0.0488278 4.63491e-05 0.000124597)
(0.0486126 4.43032e-05 0.000112341)
(0.0484154 4.47489e-05 8.76482e-05)
(0.0873189 4.88782e-05 0.000418487)
(0.087134 4.61063e-05 0.000412455)
(0.0869539 4.45179e-05 0.000403918)
(0.0867736 4.32044e-05 0.000394288)
(0.0866015 4.28175e-05 0.000370452)
(0.0864483 4.33245e-05 0.000312103)
(0.106101 -0.000169941 0.000620991)
(0.106149 -0.000163339 0.000604774)
(0.10618 -0.000156278 0.000588725)
(0.106204 -0.00014896 0.000572394)
(0.10622 -0.000138999 0.000545972)
(0.106233 -0.00012268 0.000483984)
(0.114288 -0.000401555 0.000574886)
(0.114412 -0.000386235 0.000557968)
(0.114528 -0.00036969 0.000543654)
(0.114639 -0.000354506 0.000533382)
(0.114739 -0.000335809 0.000513552)
(0.114826 -0.000301853 0.000463124)
(0.117684 -0.000558678 0.000515986)
(0.11783 -0.000538633 0.000500843)
(0.117969 -0.000516494 0.000486343)
(0.118103 -0.000493084 0.000471238)
(0.118231 -0.000467505 0.000451903)
(0.118344 -0.000423514 0.000411253)
(0.118219 -0.000635753 0.000412812)
(0.118372 -0.000611359 0.000398479)
(0.118519 -0.000589586 0.000382777)
(0.118661 -0.000567058 0.000364616)
(0.118798 -0.00053885 0.000343741)
(0.118921 -0.000486804 0.000312422)
(0.116732 -0.000654989 0.000255593)
(0.116887 -0.000632987 0.000243425)
(0.117034 -0.000612403 0.000229078)
(0.117177 -0.000595662 0.000214085)
(0.117309 -0.000568583 0.000197264)
(0.117431 -0.00051196 0.000176315)
(0.113199 -0.000651206 4.41704e-05)
(0.113331 -0.000628353 3.86236e-05)
(0.113454 -0.000609687 3.22938e-05)
(0.11357 -0.000599531 2.65606e-05)
(0.113674 -0.000582642 2.19673e-05)
(0.113769 -0.000521489 1.7785e-05)
(0.106105 -0.000624192 -0.000172135)
(0.106153 -0.000607437 -0.000166827)
(0.106183 -0.000589759 -0.000160907)
(0.106203 -0.000572556 -0.000154709)
(0.106215 -0.000548791 -0.000146507)
(0.106221 -0.000492838 -0.000130673)
(0.090551 -0.000371993 -0.000227749)
(0.0903971 -0.000362187 -0.000217906)
(0.0902453 -0.000350148 -0.000208981)
(0.090088 -0.000334707 -0.000200016)
(0.0899359 -0.000315963 -0.000190406)
(0.089782 -0.000281132 -0.000171737)
(0.0896232 -0.000234088 -0.000144452)
(0.0556707 -0.00019037 -0.000196167)
(0.0553855 -0.000174753 -0.000179459)
(0.0551269 -0.000156317 -0.000162804)
(0.0548815 -0.000137233 -0.00014828)
(0.0546602 -0.000116187 -0.000135783)
(0.0544646 -9.79143e-05 -0.000123055)
(0.0593845 0.000121749 0.00029165)
(0.0590723 0.000108546 0.000257711)
(0.0587868 9.74364e-05 0.000225364)
(0.0585136 8.89077e-05 0.000198275)
(0.0582657 8.2283e-05 0.000178344)
(0.0580407 7.66025e-05 0.000162237)
(0.0578346 7.09914e-05 0.000145445)
(0.096651 0.000183756 0.000488925)
(0.0965689 0.00017195 0.000477871)
(0.0964789 0.000162317 0.000464699)
(0.0963839 0.000155138 0.000452281)
(0.0962876 0.000149071 0.000435073)
(0.0961907 0.000137115 0.000394002)
(0.0960915 0.000115823 0.000326338)
(0.113184 4.66323e-05 0.000650014)
(0.113315 4.19716e-05 0.000627994)
(0.113436 3.63785e-05 0.000610148)
(0.113552 3.11619e-05 0.000599379)
(0.113656 2.66926e-05 0.00057428)
(0.113748 2.19642e-05 0.000509102)
(0.120641 -0.000161643 0.000545529)
(0.120846 -0.000158156 0.000528237)
(0.121043 -0.000156227 0.00052288)
(0.121234 -0.00015438 0.000519608)
(0.121413 -0.000149006 0.000497654)
(0.121578 -0.000136022 0.000444951)
(0.123958 -0.000321367 0.000430257)
(0.124183 -0.000311334 0.000416858)
(0.124399 -0.000304181 0.000409928)
(0.12461 -0.000296656 0.000403765)
(0.124811 -0.000282548 0.000386368)
(0.124997 -0.000256327 0.000349619)
(0.124775 -0.000430424 0.000270602)
(0.125006 -0.000415006 0.000261479)
(0.125227 -0.000405687 0.000255128)
(0.125444 -0.000395966 0.000248327)
(0.12565 -0.00037575 0.000236926)
(0.125841 -0.000338311 0.000215907)
(0.123706 -0.000500272 6.86354e-05)
(0.123934 -0.000483385 6.50661e-05)
(0.124153 -0.000477165 6.21592e-05)
(0.124368 -0.000466776 5.86579e-05)
(0.124574 -0.000436026 5.42268e-05)
(0.120644 -0.000546671 -0.000164277)
(0.12085 -0.000530298 -0.000160248)
(0.121046 -0.000525879 -0.000157408)
(0.121237 -0.000523248 -0.000153176)
(0.121416 -0.000504435 -0.000143365)
(0.12158 -0.00045506 -0.000127277)
(0.114282 -0.000577087 -0.000404431)
(0.114407 -0.000560742 -0.000389592)
(0.114521 -0.000547243 -0.000373319)
(0.114632 -0.0005393 -0.000357994)
(0.114731 -0.00051709 -0.000333471)
(0.114823 -0.000468862 -0.000295739)
(0.100044 -0.000400619 -0.000450157)
(0.0999705 -0.000390103 -0.000431451)
(0.0998892 -0.00037852 -0.000413234)
(0.0998018 -0.000365695 -0.000395047)
(0.0997143 -0.000339736 -0.000365922)
(0.0996272 -0.000292778 -0.000317892)
(0.0651633 -0.000268724 -0.000400648)
(0.0648315 -0.000246548 -0.000371498)
(0.0645285 -0.000218686 -0.00034115)
(0.064239 -0.000190583 -0.000313837)
(0.0639775 -0.000165581 -0.00029053)
(0.0637296 -0.000153425 -0.000267521)
(0.0663374 0.000196552 0.000475607)
(0.0659822 0.000175189 0.000437916)
(0.0656525 0.000158217 0.000394784)
(0.0653394 0.000145611 0.000351127)
(0.0650529 0.000134719 0.000310879)
(0.0647933 0.000124397 0.000280397)
(0.101662 0.000317105 0.000572959)
(0.101613 0.000300323 0.000551443)
(0.101556 0.000284647 0.000530863)
(0.101493 0.000270713 0.000509843)
(0.101427 0.000252564 0.000478734)
(0.101354 0.000218459 0.000411656)
(0.116711 0.000256352 0.000656861)
(0.116863 0.000245108 0.000634817)
(0.117009 0.000231278 0.000614575)
(0.117153 0.000214764 0.000591326)
(0.117287 0.00019161 0.000544368)
(0.12369 6.90439e-05 0.000501974)
(0.123918 6.51027e-05 0.000484298)
(0.124139 6.05241e-05 0.000477741)
(0.124354 5.23587e-05 0.000464462)
(0.124558 4.14552e-05 0.00042902)
(0.126953 -8.97606e-05 0.000335293)
(0.127201 -8.75142e-05 0.000323289)
(0.12744 -8.74975e-05 0.000317385)
(0.127674 -8.87094e-05 0.000308404)
(0.127898 -8.78216e-05 0.000288271)
(0.127896 -0.000221601 0.000133433)
(0.128148 -0.000214206 0.000129217)
(0.128392 -0.000210705 0.000127399)
(0.128629 -0.000205117 0.000124513)
(0.128856 -0.000192429 0.000117827)
(0.126957 -0.000335233 -8.88649e-05)
(0.127206 -0.000324049 -8.55374e-05)
(0.127447 -0.000319059 -8.29249e-05)
(0.127682 -0.00031126 -7.84109e-05)
(0.127906 -0.000291606 -7.02961e-05)
(0.123948 -0.000432646 -0.000322845)
(0.124174 -0.000420411 -0.000311916)
(0.124392 -0.000416054 -0.000304049)
(0.124605 -0.000407083 -0.000289964)
(0.124808 -0.000380689 -0.000262564)
(0.117668 -0.000518496 -0.000561189)
(0.117814 -0.000504843 -0.000541735)
(0.117954 -0.000492329 -0.00051999)
(0.118092 -0.000477229 -0.000493886)
(0.118219 -0.000444891 -0.000451237)
(0.103925 -0.000425998 -0.000594173)
(0.103869 -0.0004114 -0.000570477)
(0.103808 -0.000397207 -0.000546396)
(0.103742 -0.000378416 -0.000517773)
(0.103678 -0.000340226 -0.00046595)
(0.0701414 -0.000273855 -0.000513193)
(0.0697845 -0.000249784 -0.000480538)
(0.0694512 -0.000222763 -0.000446676)
(0.0691322 -0.000197491 -0.000414578)
(0.0688386 -0.00017856 -0.000384887)
(0.0685508 -0.000168662 -0.000351825)
(0.0703084 0.000244175 0.000526951)
(0.0699566 0.00021634 0.000491219)
(0.0696231 0.000193968 0.000451193)
(0.0693064 0.000176683 0.000409587)
(0.0690088 0.000163648 0.000371572)
(0.0687404 0.000150373 0.000344755)
(0.104129 0.000402976 0.000634392)
(0.104072 0.000382556 0.000604771)
(0.10401 0.000360765 0.000574517)
(0.103945 0.000336328 0.0005409)
(0.103875 0.000309318 0.000504184)
(0.103816 0.000272774 0.000440725)
(0.118197 0.00041093 0.000637855)
(0.118349 0.000398626 0.000613641)
(0.118498 0.000381722 0.000588902)
(0.118642 0.000354526 0.000550275)
(0.124754 0.000267202 0.000432129)
(0.124987 0.000261428 0.000416429)
(0.125213 0.000254354 0.000403631)
(0.125433 0.000236658 0.000378095)
(0.127884 0.000129044 0.000220456)
(0.128139 0.000127312 0.000211668)
(0.128386 0.000123953 0.000204478)
(0.128626 0.000114129 0.000191595)
(0.128834 -2.85466e-06 -7.53462e-07)
(0.129092 -2.05274e-06 5.47781e-08)
(0.129342 -2.20024e-06 3.5883e-07)
(0.129585 -4.02776e-06 -2.65434e-08)
(0.129815 -5.78779e-06 6.92702e-07)
(0.127893 -0.000135193 -0.00022135)
(0.128147 -0.000130571 -0.000212426)
(0.128392 -0.000128161 -0.00020699)
(0.128631 -0.000124415 -0.000198023)
(0.128858 -0.000115948 -0.000180555)
(0.124764 -0.000273243 -0.000431836)
(0.124996 -0.000264708 -0.000415532)
(0.125221 -0.000259754 -0.000406201)
(0.12544 -0.00025073 -0.000388497)
(0.125648 -0.00023181 -0.000351561)
(0.118202 -0.000415089 -0.000638548)
(0.118356 -0.000402602 -0.000615856)
(0.118505 -0.000389039 -0.000594733)
(0.118652 -0.000372063 -0.000568118)
(0.118787 -0.000344504 -0.000518817)
(0.104124 -0.000403367 -0.000639968)
(0.104068 -0.000385506 -0.000611738)
(0.104011 -0.000367341 -0.000583171)
(0.103951 -0.000345156 -0.000547991)
(0.103896 -0.000312657 -0.00048899)
(0.0702794 -0.000243217 -0.000535192)
(0.0699235 -0.000221305 -0.000500197)
(0.069586 -0.000201907 -0.0004637)
(0.0692621 -0.000185305 -0.000427727)
(0.0689616 -0.000170644 -0.000393468)
(0.0705268 0.000308499 0.00053658)
(0.0701475 0.000277869 0.000505798)
(0.0697967 0.000242614 0.000472312)
(0.0694635 0.000212034 0.000438194)
(0.0691497 0.000188839 0.000404962)
(0.0688591 0.000175168 0.000373707)
(0.103988 0.000451196 0.00062407)
(0.103934 0.00043243 0.000596776)
(0.103876 0.000414027 0.000571221)
(0.103812 0.00039376 0.000546212)
(0.103746 0.000367839 0.000517697)
(0.103681 0.00032465 0.000466686)
(0.117511 0.000531203 0.000585724)
(0.117668 0.000518489 0.000566554)
(0.117816 0.000506111 0.000545347)
(0.117959 0.000492195 0.000522692)
(0.118096 0.000470703 0.000494703)
(0.118221 0.000429202 0.000450305)
(0.123705 0.000441144 0.000337114)
(0.123944 0.000428976 0.000325423)
(0.124171 0.000424314 0.000316467)
(0.124394 0.000419651 0.000306934)
(0.124608 0.000402803 0.000289246)
(0.12481 0.000366018 0.000261551)
(0.126688 0.000341162 8.90184e-05)
(0.12695 0.000331237 8.7397e-05)
(0.127198 0.000327563 8.67937e-05)
(0.127441 0.000322976 8.5082e-05)
(0.127676 0.000311201 8.03367e-05)
(0.127898 0.000285441 7.30141e-05)
(0.127888 0.000216245 -0.000135798)
(0.128142 0.000211277 -0.00012762)
(0.128389 0.000208554 -0.000123127)
(0.128628 0.000200919 -0.000118275)
(0.128854 0.000184264 -0.000108967)
(0.126957 8.66817e-05 -0.000337325)
(0.127206 8.45597e-05 -0.000323608)
(0.127448 8.34965e-05 -0.000316086)
(0.127684 8.07061e-05 -0.000304117)
(0.127908 7.45239e-05 -0.000279381)
(0.123702 -7.12847e-05 -0.000502363)
(0.123932 -6.75727e-05 -0.000484771)
(0.124155 -6.46031e-05 -0.000478476)
(0.124373 -6.03603e-05 -0.000461042)
(0.12458 -5.44182e-05 -0.000419052)
(0.116722 -0.000258977 -0.000659032)
(0.116878 -0.000247953 -0.000638387)
(0.117028 -0.000235028 -0.000619505)
(0.117177 -0.000220648 -0.000597565)
(0.117312 -0.000202141 -0.000548041)
(0.101656 -0.000318512 -0.000578149)
(0.101608 -0.000302115 -0.000558475)
(0.101553 -0.000287013 -0.000541973)
(0.101493 -0.000271875 -0.000522116)
(0.101434 -0.000246194 -0.000463688)
(0.0662943 -0.00019692 -0.000482526)
(0.0659323 -0.000177641 -0.000446176)
(0.0655953 -0.000162208 -0.000406441)
(0.0652734 -0.000150757 -0.000368738)
(0.0649834 -0.000139763 -0.000337304)
(0.0655 0.000301464 0.000421593)
(0.0651424 0.000274635 0.000392408)
(0.0648157 0.000241737 0.000362164)
(0.0645139 0.000209664 0.000333734)
(0.0642266 0.000183861 0.000308427)
(0.0639721 0.000169355 0.000287091)
(0.100132 0.000423465 0.000475386)
(0.100062 0.000408945 0.000453287)
(0.0999853 0.000399005 0.000436568)
(0.0998995 0.000382917 0.000417245)
(0.0998147 0.000363478 0.000395461)
(0.0997308 0.000320772 0.000356188)
(0.114154 0.000592231 0.000419443)
(0.11429 0.000577067 0.000406436)
(0.114417 0.00056516 0.000392221)
(0.114537 0.000556408 0.000378258)
(0.114648 0.000539835 0.000361748)
(0.114743 0.000494989 0.000329672)
(0.120422 0.000563204 0.000165414)
(0.12064 0.000545844 0.00016263)
(0.12085 0.000540961 0.000161455)
(0.121053 0.00053938 0.000159817)
(0.121246 0.000521188 0.000153971)
(0.121424 0.000470309 0.000140705)
(0.123454 0.000517954 -7.99912e-05)
(0.123694 0.000500419 -7.37893e-05)
(0.123924 0.000492735 -6.74619e-05)
(0.124149 0.000486291 -6.18516e-05)
(0.124365 0.000466585 -5.64615e-05)
(0.124569 0.000421926 -5.05618e-05)
(0.124761 0.000426288 -0.000274392)
(0.124994 0.000414034 -0.000262018)
(0.12522 0.000407314 -0.000254174)
(0.125439 0.000391955 -0.000243609)
(0.125644 0.000357256 -0.000223668)
(0.123953 0.000320426 -0.000434439)
(0.12418 0.000310273 -0.000419869)
(0.1244 0.000304213 -0.000413808)
(0.124614 0.000292099 -0.000400978)
(0.124816 0.000266625 -0.000367348)
(0.120649 0.000162034 -0.000549476)
(0.120856 0.00015826 -0.000533385)
(0.121056 0.00015648 -0.000531424)
(0.121252 0.000151546 -0.000518801)
(0.121433 0.00013921 -0.000471871)
(0.113196 -4.80849e-05 -0.000655357)
(0.11333 -4.33063e-05 -0.000634901)
(0.113455 -3.73238e-05 -0.000620677)
(0.113578 -3.19409e-05 -0.000606925)
(0.113686 -2.82458e-05 -0.000556272)
(0.0966416 -0.000186762 -0.000495353)
(0.0965583 -0.000175174 -0.000484659)
(0.0964669 -0.000166039 -0.000477949)
(0.0963689 -0.000157973 -0.000467166)
(0.0962744 -0.000144862 -0.000412585)
(0.0593412 -0.000124143 -0.000293941)
(0.0590225 -0.000111631 -0.000260875)
(0.0587289 -0.000101456 -0.000230416)
(0.0584459 -9.42709e-05 -0.000207313)
(0.0581925 -8.75919e-05 -0.000189087)
(0.0559444 0.000215471 0.000208011)
(0.0556359 0.000196159 0.000188468)
(0.0553576 0.000174447 0.000171009)
(0.0550952 0.000152809 0.000156592)
(0.0548539 0.000134568 0.000145317)
(0.0546403 0.000121624 0.000135625)
(0.0907159 0.000392306 0.000239097)
(0.0905611 0.000384369 0.000228146)
(0.0904063 0.000373449 0.000218372)
(0.0902504 0.000358686 0.000209049)
(0.0900949 0.000342717 0.00020027)
(0.0899479 0.000296734 0.000178435)
(0.10606 0.000643941 0.000175702)
(0.106118 0.000629429 0.000171226)
(0.106158 0.000614779 0.000166315)
(0.10619 0.000600602 0.00016145)
(0.106211 0.000578794 0.000154771)
(0.106229 0.00052054 0.000140316)
(0.11305 0.000676169 -5.47566e-05)
(0.113192 0.000653963 -4.88788e-05)
(0.113326 0.000635605 -4.18065e-05)
(0.113454 0.000625544 -3.45852e-05)
(0.11357 0.000608809 -2.86784e-05)
(0.113675 0.000545375 -2.45857e-05)
(0.116551 0.000683342 -0.000274306)
(0.116714 0.000660863 -0.000261909)
(0.116871 0.000640697 -0.000247538)
(0.117022 0.000621113 -0.000231903)
(0.11717 0.000599462 -0.0002168)
(0.1173 0.000545988 -0.000197704)
(0.118201 0.000633097 -0.000415865)
(0.118356 0.000611656 -0.000400151)
(0.118506 0.000591469 -0.000384707)
(0.118652 0.000565901 -0.000366904)
(0.118784 0.000516965 -0.000338335)
(0.117673 0.000558167 -0.000520435)
(0.11782 0.000538131 -0.000505277)
(0.117961 0.000516615 -0.000491741)
(0.1181 0.000491766 -0.000475414)
(0.118225 0.000450471 -0.000439793)
(0.11429 0.000402125 -0.000580515)
(0.114414 0.000386969 -0.000564579)
(0.114532 0.000371489 -0.000553431)
(0.114646 0.000355254 -0.000541917)
(0.114745 0.000325329 -0.000500182)
(0.106105 0.000168196 -0.000628256)
(0.106153 0.000161987 -0.000613269)
(0.106186 0.000156606 -0.000602089)
(0.106208 0.000150196 -0.000583838)
(0.106226 0.000136093 -0.000537569)
(0.0872964 -5.32925e-05 -0.000425374)
(0.0871083 -5.06295e-05 -0.00041856)
(0.0869238 -4.88986e-05 -0.000414129)
(0.0867368 -4.76862e-05 -0.000405678)
(0.0865633 -4.70655e-05 -0.000356996)
(0.0497864 -6.4682e-05 -0.000170969)
(0.0495083 -6.17138e-05 -0.000155468)
(0.0492495 -5.84624e-05 -0.000141309)
(0.0489985 -5.61069e-05 -0.000131129)
(0.048774 -5.44009e-05 -0.000119376)
(0.0402547 0.000133105 2.24645e-05)
(0.0400236 0.000125339 1.83401e-05)
(0.0398087 0.000117141 1.73481e-05)
(0.0395999 0.000107165 1.82128e-05)
(0.0394042 9.58293e-05 1.91723e-05)
(0.0392389 8.11023e-05 1.71243e-05)
(0.0697359 0.000209285 -1.85256e-05)
(0.0694317 0.000210477 -1.70484e-05)
(0.0691537 0.000212609 -1.35724e-05)
(0.0688834 0.000210124 -9.07805e-06)
(0.0686292 0.000203668 -4.6305e-06)
(0.0683966 0.000167329 -7.2158e-06)
(0.0874977 0.000438391 -5.22228e-05)
(0.0873099 0.000432496 -4.78166e-05)
(0.0871266 0.000423929 -4.50286e-05)
(0.0869406 0.000415659 -4.25458e-05)
(0.0867614 0.000401301 -4.00873e-05)
(0.0865898 0.000343477 -3.90706e-05)
(0.0967363 0.000517805 -0.000198056)
(0.0966569 0.000504835 -0.000185214)
(0.0965694 0.000491415 -0.000174273)
(0.0964762 0.000482458 -0.000164972)
(0.0963765 0.000465606 -0.000154494)
(0.096284 0.000402681 -0.00013825)
(0.101711 0.00061093 -0.000335331)
(0.101664 0.000585188 -0.000319452)
(0.101613 0.000565274 -0.000304809)
(0.101556 0.000543122 -0.000288923)
(0.101493 0.000517814 -0.000271731)
(0.101435 0.000454773 -0.000242966)
(0.10413 0.000636302 -0.000401732)
(0.104075 0.000605382 -0.000384496)
(0.104018 0.000573247 -0.000366093)
(0.103959 0.000541123 -0.00034612)
(0.1039 0.000483244 -0.000312575)
(0.103931 0.000591471 -0.000427231)
(0.103877 0.000565326 -0.000411874)
(0.103816 0.000539985 -0.00039887)
(0.103752 0.000510223 -0.000381882)
(0.103689 0.000459294 -0.000343392)
(0.100045 0.000446576 -0.000404807)
(0.0999725 0.000426203 -0.00039454)
(0.0998933 0.000408029 -0.000386406)
(0.099807 0.000387974 -0.000374636)
(0.0997238 0.000347501 -0.000334507)
(0.0905431 0.000222308 -0.000377389)
(0.0903891 0.000210276 -0.000367463)
(0.0902366 0.000201804 -0.000362221)
(0.0900783 0.000192483 -0.000351978)
(0.0899305 0.000169201 -0.000310155)
(0.0694239 -2.35057e-05 -0.000204368)
(0.0691341 -2.18444e-05 -0.000205247)
(0.0688647 -1.86845e-05 -0.000208668)
(0.0686055 -1.63046e-05 -0.000206142)
(0.0683703 -2.08866e-05 -0.000174127)
(0.0370068 -5.67373e-05 -3.41111e-05)
(0.0367969 -5.40338e-05 -3.34687e-05)
(0.0365958 -5.10961e-05 -3.56289e-05)
(0.0363921 -4.87488e-05 -3.61378e-05)
(0.0362122 -4.69236e-05 -2.76752e-05)
(0.0238436 2.40479e-05 -2.66034e-05)
(0.0236972 2.41126e-05 -2.50726e-05)
(0.0235507 2.38268e-05 -2.28073e-05)
(0.0234036 2.25518e-05 -2.02163e-05)
(0.0232641 2.05958e-05 -1.76836e-05)
(0.023152 1.58465e-05 -1.6118e-05)
(0.0372573 3.75048e-05 -5.20171e-05)
(0.0370312 3.66728e-05 -4.95535e-05)
(0.0368175 3.85168e-05 -4.67062e-05)
(0.0366039 4.00985e-05 -4.37838e-05)
(0.0363988 3.81632e-05 -4.15084e-05)
(0.0362251 2.74456e-05 -3.98022e-05)
(0.0501037 0.000184152 -5.88186e-05)
(0.0498105 0.000167407 -5.62557e-05)
(0.0495414 0.000151541 -5.33254e-05)
(0.0492791 0.000139122 -5.05574e-05)
(0.0597042 0.000332957 -0.000132384)
(0.0593662 0.000292011 -0.000118358)
(0.059059 0.000252277 -0.000106099)
(0.0587664 0.000220999 -9.64257e-05)
(0.0584968 0.000200336 -8.89859e-05)
(0.0667105 0.000521525 -0.000212941)
(0.0663269 0.000480174 -0.000194254)
(0.0659731 0.000433535 -0.000178684)
(0.0656413 0.000388487 -0.000164339)
(0.065328 0.000350017 -0.000150328)
(0.0703042 0.000533083 -0.000240676)
(0.0699499 0.000490514 -0.000224517)
(0.0696153 0.000449114 -0.000207149)
(0.0692943 0.000410781 -0.000189152)
(0.0690056 0.000376222 -0.000171486)
(0.0701449 0.000509668 -0.000272676)
(0.0697917 0.000473201 -0.000251739)
(0.0694617 0.000436241 -0.000227495)
(0.0691467 0.000401412 -0.0002047)
(0.0688593 0.000369546 -0.000187861)
(0.0651496 0.000396186 -0.000272058)
(0.0648208 0.000364883 -0.000251471)
(0.0645186 0.000332254 -0.000225579)
(0.0642308 0.000303645 -0.000201612)
(0.0639718 0.000280218 -0.00018593)
(0.0556499 0.000190899 -0.000195727)
(0.0553653 0.00017293 -0.000181267)
(0.0551025 0.000154888 -0.000164334)
(0.0548569 0.000139832 -0.000148494)
(0.0546365 0.000127724 -0.00013607)
(0.0400191 1.87962e-05 -0.000124521)
(0.0398074 1.54998e-05 -0.000118204)
(0.0396071 1.35221e-05 -0.000113004)
(0.0394092 1.22257e-05 -0.00010589)
(0.0392358 9.04049e-06 -9.33532e-05)
(0.0236806 -2.76932e-05 -2.3108e-05)
(0.0235471 -2.61369e-05 -2.32628e-05)
(0.0234101 -2.43522e-05 -2.33436e-05)
(0.0232693 -2.2763e-05 -2.22802e-05)
(0.0231497 -2.21232e-05 -1.80689e-05)
)
;

boundaryField
{
    inlet
    {
        type            fixedValue;
        value           nonuniform List<vector> 0();
    }
    ami1
    {
        type            cyclicAMI;
        value           nonuniform List<vector> 0();
    }
    walls
    {
        type            noSlip;
    }
    ami2
    {
        type            cyclicAMI;
        value           nonuniform List<vector> 0();
    }
    outlet
    {
        type            zeroGradient;
    }
    procBoundary5to6
    {
        type            processor;
        value           nonuniform List<vector> 
177
(
(0.023052 1.72573e-05 1.47001e-05)
(0.023052 1.72573e-05 1.47001e-05)
(0.0390657 -1.00929e-05 7.80859e-05)
(0.0544195 -0.000117136 0.000121373)
(0.0544195 -0.000117136 0.000121373)
(0.0544195 -0.000117136 0.000121373)
(0.0634753 -0.000230306 0.000144465)
(0.0682948 -0.000304344 0.000141285)
(0.0682948 -0.000304344 0.000141285)
(0.0682007 -0.000273649 0.00010816)
(0.103793 -0.000390632 0.000243548)
(0.064261 -0.00023495 8.40554e-05)
(0.101316 -0.000367297 0.000186057)
(0.0575788 -0.000135527 5.08608e-05)
(0.0482348 -8.25865e-05 3.17789e-05)
(0.0359403 -1.72006e-05 2.85133e-05)
(0.0359403 -1.72006e-05 2.85133e-05)
(0.0359403 -1.72006e-05 2.85133e-05)
(0.0229814 -1.11977e-05 1.16186e-05)
(0.0359364 3.54868e-05 1.28922e-05)
(0.0681831 1.32551e-05 0.000148583)
(0.0359364 3.54868e-05 1.28922e-05)
(0.0681831 1.32551e-05 0.000148583)
(0.0681831 1.32551e-05 0.000148583)
(0.0681831 1.32551e-05 0.000148583)
(0.0896677 -0.000135444 0.00023596)
(0.0995647 -0.000281997 0.000262967)
(0.103563 -0.000375109 0.000271665)
(0.103793 -0.000390632 0.000243548)
(0.101316 -0.000367297 0.000186057)
(0.101316 -0.000367297 0.000186057)
(0.0960067 -0.000280408 9.24132e-05)
(0.113863 -0.00046158 1.54113e-05)
(0.0860977 -0.000243269 2.45216e-05)
(0.106229 -0.00043669 -0.000116939)
(0.0677831 -0.000106512 4.441e-06)
(0.0389811 -6.09416e-05 -1.28012e-05)
(0.0389811 -6.09416e-05 -1.28012e-05)
(0.048268 4.16845e-05 6.56077e-05)
(0.0862921 3.95155e-05 0.000269972)
(0.0862921 3.95155e-05 0.000269972)
(0.0862921 3.95155e-05 0.000269972)
(0.106249 -0.000111231 0.000426812)
(0.114911 -0.000270089 0.000410377)
(0.118451 -0.000378289 0.000367887)
(0.119037 -0.000432137 0.000282012)
(0.117551 -0.000457139 0.000159355)
(0.124769 -0.00039576 4.9798e-05)
(0.113863 -0.00046158 1.54113e-05)
(0.106229 -0.00043669 -0.000116939)
(0.106229 -0.00043669 -0.000116939)
(0.0895121 -0.000206681 -0.000124215)
(0.0542829 -9.83933e-05 -0.000109829)
(0.0995534 -0.000260897 -0.000280112)
(0.0542829 -9.83933e-05 -0.000109829)
(0.0576319 6.22901e-05 0.000124968)
(0.0645375 0.000110905 0.000262637)
(0.0960216 9.49211e-05 0.000274664)
(0.113841 1.68546e-05 0.000453888)
(0.101307 0.00018556 0.000354825)
(0.113841 1.68546e-05 0.000453888)
(0.117416 0.000170424 0.000494554)
(0.121733 -0.000122058 0.000393078)
(0.124753 3.53666e-05 0.000386023)
(0.125169 -0.000228615 0.000312501)
(0.128108 -8.11571e-05 0.000263048)
(0.126017 -0.000299778 0.00019241)
(0.124769 -0.00039576 4.9798e-05)
(0.12907 -0.000176089 0.000108499)
(0.124769 -0.00039576 4.9798e-05)
(0.124769 -0.00039576 4.9798e-05)
(0.121737 -0.000399908 -0.000113807)
(0.124999 -0.000346291 -0.000235786)
(0.114913 -0.000417782 -0.000266858)
(0.11834 -0.000406686 -0.000409293)
(0.0995534 -0.000260897 -0.000280112)
(0.10362 -0.000304134 -0.00041263)
(0.0634923 -0.00015638 -0.000239025)
(0.0645375 0.000110905 0.000262637)
(0.101307 0.00018556 0.000354825)
(0.117416 0.000170424 0.000494554)
(0.117416 0.000170424 0.000494554)
(0.118781 0.000326288 0.000511516)
(0.124753 3.53666e-05 0.000386023)
(0.125645 0.000214998 0.000348489)
(0.128108 -8.11571e-05 0.000263048)
(0.128857 0.000102403 0.000177693)
(0.12907 -0.000176089 0.000108499)
(0.128117 -0.000266595 -6.33603e-05)
(0.124999 -0.000346291 -0.000235786)
(0.11834 -0.000406686 -0.000409293)
(0.10362 -0.000304134 -0.00041263)
(0.10362 -0.000304134 -0.00041263)
(0.0683058 -0.000160964 -0.000311272)
(0.0686727 -0.000156924 -0.000358035)
(0.0684766 0.000131112 0.000321113)
(0.0685784 0.0001609 0.000343803)
(0.118781 0.000326288 0.000511516)
(0.103777 0.000238188 0.000380888)
(0.118907 0.000306049 0.000480779)
(0.103624 0.000288103 0.000414327)
(0.118781 0.000326288 0.000511516)
(0.118781 0.000326288 0.000511516)
(0.125645 0.000214998 0.000348489)
(0.125645 0.000214998 0.000348489)
(0.128857 0.000102403 0.000177693)
(0.128857 0.000102403 0.000177693)
(0.128857 0.000102403 0.000177693)
(0.130029 -4.75891e-06 2.61533e-06)