/*--------------------------------*- C++ -*----------------------------------*\
| =========                 |                                                 |
| \\      /  F ield         | OpenFOAM: The Open Source CFD Toolbox           |
|  \\    /   O peration     | Version:  2212                                  |
|   \\  /    A nd           | Website:  www.openfoam.com                      |
|    \\/     M anipulation  |                                                 |
\*---------------------------------------------------------------------------*/
FoamFile
{
    version     2.0;
    format      ascii;
    arch        "LSB;label=32;scalar=64";
    class       surfaceScalarField;
    location    "2.4";
    object      phi;
}
// * * * * * * * * * * * * * * * * * * * * * * * * * * * * * * * * * * * * * //

dimensions      [0 3 -1 0 0 0 0];

oriented        oriented;

internalField   nonuniform List<scalar> 
1800
(
3.3225e-07
1.09686e-09
1.09677e-09
2.79191e-07
2.65295e-08
2.65294e-08
2.49218e-07
1.49864e-08
1.4986e-08
2.29255e-07
9.98187e-09
9.98139e-09
2.14836e-07
7.20978e-09
7.20905e-09
2.03201e-07
5.81793e-09
5.8168e-09
4.71434e-09
4.71243e-09
6.3138e-07
3.58751e-09
7.40287e-09
6.14564e-07
2.26454e-08
2.07002e-08
5.86446e-07
2.43751e-08
1.8729e-08
5.61728e-07
1.88531e-08
1.58466e-08
5.39623e-07
1.55662e-08
1.37489e-08
5.20646e-07
1.35045e-08
1.12904e-08
1.19422e-08
8.71164e-09
8.90375e-07
2.85246e-09
6.33234e-09
8.82486e-07
1.34078e-08
1.71258e-08
8.7036e-07
1.78655e-08
1.86359e-08
8.55114e-07
1.6952e-08
1.71471e-08
8.39986e-07
1.53344e-08
1.53604e-08
8.25539e-07
1.41601e-08
1.37907e-08
1.33624e-08
1.23441e-08
1.07432e-06
1.06465e-09
5.56888e-09
1.06824e-06
5.58593e-09
1.39002e-08
1.06138e-06
8.46281e-09
1.62618e-08
1.05338e-06
9.0378e-09
1.59092e-08
1.0451e-06
8.61439e-09
1.50032e-08
1.03721e-06
8.11458e-09
1.39355e-08
7.77639e-09
1.29811e-08
1.16914e-06
-5.22507e-14
4.90655e-09
1.16312e-06
-2.26354e-13
1.16084e-08
1.15731e-06
-4.31823e-13
1.42757e-08
1.15201e-06
-6.68596e-13
1.43345e-08
1.1469e-06
-1.01911e-12
1.37328e-08
1.14204e-06
-1.54271e-12
1.29742e-08
-2.29587e-12
1.21086e-08
1.16914e-06
-1.06476e-09
4.90656e-09
1.16312e-06
-5.58629e-09
1.16085e-08
1.15731e-06
-8.46348e-09
1.42758e-08
1.15201e-06
-9.03886e-09
1.43346e-08
1.14689e-06
-8.61601e-09
1.3733e-08
1.14203e-06
-8.11696e-09
1.29744e-08
-7.77988e-09
1.21088e-08
1.07432e-06
-2.85249e-09
5.5689e-09
1.06824e-06
-1.34079e-08
1.39003e-08
1.06138e-06
-1.78658e-08
1.6262e-08
1.05338e-06
-1.69524e-08
1.59094e-08
1.0451e-06
-1.53351e-08
1.50034e-08
1.0372e-06
-1.41609e-08
1.39358e-08
-1.33634e-08
1.29816e-08
8.90375e-07
-3.58749e-09
6.33236e-09
8.82486e-07
-2.26453e-08
1.71258e-08
8.70359e-07
-2.4375e-08
1.86359e-08
8.55113e-07
-1.88529e-08
1.71471e-08
8.39983e-07
-1.55658e-08
1.53605e-08
8.25535e-07
-1.35039e-08
1.37909e-08
-1.19411e-08
1.23444e-08
6.3138e-07
-1.0968e-09
7.40288e-09
6.14564e-07
-2.65294e-08
2.07003e-08
5.86446e-07
-1.49861e-08
1.87291e-08
5.61728e-07
-9.98146e-09
1.58467e-08
5.39622e-07
-7.20913e-09
1.3749e-08
5.20644e-07
-5.81688e-09
1.12908e-08
-4.71251e-09
8.71219e-09
3.3225e-07
1.09683e-09
2.79191e-07
2.65295e-08
2.49218e-07
1.49863e-08
2.29255e-07
9.98183e-09
2.14836e-07
7.20973e-09
2.03201e-07
5.8179e-09
4.71431e-09
6.3138e-07
7.40288e-09
3.58746e-09
6.14564e-07
2.07003e-08
2.26452e-08
5.86446e-07
1.87291e-08
2.43749e-08
5.61728e-07
1.58467e-08
1.88528e-08
5.39622e-07
1.3749e-08
1.55657e-08
5.20644e-07
1.12907e-08
1.35038e-08
8.71213e-09
1.1941e-08
9.23617e-07
7.03377e-09
7.03373e-09
9.25318e-07
1.98493e-08
1.98493e-08
9.17185e-07
2.27958e-08
2.27956e-08
9.04277e-07
2.23006e-08
2.23004e-08
8.90538e-07
2.06187e-08
2.06185e-08
8.77417e-07
1.78514e-08
1.78509e-08
1.46939e-08
1.46932e-08
1.1589e-06
5.28113e-09
6.10243e-09
1.1657e-06
1.39979e-08
1.61823e-08
1.16845e-06
1.79764e-08
2.07055e-08
1.16661e-06
1.91764e-08
2.21031e-08
1.16222e-06
1.88724e-08
2.15041e-08
1.15655e-06
1.75391e-08
1.97685e-08
1.56741e-08
1.74233e-08
1.32763e-06
2.718e-09
4.93103e-09
1.33539e-06
7.12015e-09
1.30088e-08
1.34286e-06
9.55214e-09
1.72156e-08
1.34847e-06
1.05759e-08
1.88997e-08
1.35198e-06
1.08717e-08
1.95031e-08
1.35376e-06
1.05747e-08
1.91191e-08
9.88228e-09
1.81077e-08
1.41518e-06
-7.6883e-14
4.19285e-09
1.42279e-06
-2.13115e-13
1.1116e-08
1.43152e-06
-3.55092e-13
1.50988e-08
1.4398e-06
-5.45239e-13
1.66304e-08
1.44713e-06
-8.18147e-13
1.72786e-08
1.45316e-06
-1.18877e-12
1.75162e-08
-1.72552e-12
1.71638e-08
1.41518e-06
-2.7181e-09
4.19289e-09
1.42279e-06
-7.12044e-09
1.1116e-08
1.43152e-06
-9.55264e-09
1.50989e-08
1.4398e-06
-1.05767e-08
1.66305e-08
1.44712e-06
-1.0873e-08
1.72788e-08
1.45316e-06
-1.05765e-08
1.75164e-08
-9.88474e-09
1.7164e-08
1.32762e-06
-5.28115e-09
4.93108e-09
1.33539e-06
-1.3998e-08
1.30089e-08
1.34286e-06
-1.79765e-08
1.72158e-08
1.34847e-06
-1.91767e-08
1.89e-08
1.35197e-06
-1.88727e-08
1.95034e-08
1.35375e-06
-1.75395e-08
1.91194e-08
-1.56745e-08
1.81082e-08
1.1589e-06
-7.03374e-09
6.10248e-09
1.1657e-06
-1.98493e-08
1.61824e-08
1.16845e-06
-2.27957e-08
2.07055e-08
1.16661e-06
-2.23004e-08
2.21032e-08
1.16222e-06
-2.06185e-08
2.15043e-08
1.15655e-06
-1.78509e-08
1.97689e-08
-1.46932e-08
1.74239e-08
9.23617e-07
-7.40287e-09
7.03377e-09
9.25318e-07
-2.07002e-08
1.98494e-08
9.17185e-07
-1.8729e-08
2.27958e-08
9.04277e-07
-1.58466e-08
2.23006e-08
8.90538e-07
-1.37488e-08
2.06188e-08
8.77417e-07
-1.12904e-08
1.78515e-08
-8.71161e-09
1.46941e-08
6.3138e-07
3.5875e-09
6.14564e-07
2.26454e-08
5.86446e-07
2.43751e-08
5.61728e-07
1.88532e-08
5.39623e-07
1.55662e-08
5.20646e-07
1.35046e-08
1.19423e-08
8.90375e-07
6.33236e-09
2.85247e-09
8.82486e-07
1.71258e-08
1.34078e-08
8.7036e-07
1.86359e-08
1.78657e-08
8.55113e-07
1.71471e-08
1.69523e-08
8.39983e-07
1.53605e-08
1.53349e-08
8.25535e-07
1.37908e-08
1.41607e-08
1.23444e-08
1.33633e-08
1.1589e-06
6.10247e-09
5.28113e-09
1.1657e-06
1.61824e-08
1.3998e-08
1.16845e-06
2.07055e-08
1.79765e-08
1.16661e-06
2.21032e-08
1.91766e-08
1.16222e-06
2.15042e-08
1.88726e-08
1.15655e-06
1.97688e-08
1.75395e-08
1.74237e-08
1.56744e-08
1.37712e-06
4.57703e-09
4.57702e-09
1.38565e-06
1.19162e-08
1.19162e-08
1.39417e-06
1.64452e-08
1.64452e-08
1.40126e-06
1.85575e-08
1.85576e-08
1.40642e-06
1.89257e-08
1.89259e-08
1.40953e-06
1.82156e-08
1.82158e-08
1.67054e-08
1.67057e-08
1.53312e-06
2.36575e-09
3.64918e-09
1.54218e-06
6.23808e-09
9.6335e-09
1.55328e-06
8.87206e-09
1.36912e-08
1.56445e-06
1.03451e-08
1.59361e-08
1.57507e-06
1.08966e-08
1.69112e-08
1.58471e-06
1.07501e-08
1.69453e-08
1.01366e-08
1.63774e-08
1.61424e-06
-5.91165e-14
3.09281e-09
1.62332e-06
-1.48759e-13
8.27396e-09
1.63533e-06
-2.40994e-13
1.19571e-08
1.64819e-06
-3.6208e-13
1.41147e-08
1.66117e-06
-5.25178e-13
1.52011e-08
1.67385e-06
-7.59496e-13
1.5585e-08
-1.07134e-12
1.54337e-08
1.61424e-06
-2.36583e-09
3.09284e-09
1.62332e-06
-6.23827e-09
8.27401e-09
1.63533e-06
-8.87239e-09
1.19572e-08
1.64819e-06
-1.03456e-08
1.41148e-08
1.66117e-06
-1.08974e-08
1.52011e-08
1.67385e-06
-1.07512e-08
1.55849e-08
-1.01382e-08
1.54337e-08
1.53312e-06
-4.57703e-09
3.64921e-09
1.54218e-06
-1.19162e-08
9.63356e-09
1.55327e-06
-1.64453e-08
1.36913e-08
1.56445e-06
-1.85576e-08
1.59361e-08
1.57507e-06
-1.89259e-08
1.69112e-08
1.58471e-06
-1.82158e-08
1.69453e-08
-1.67058e-08
1.63774e-08
1.37712e-06
-6.10244e-09
4.57704e-09
1.38565e-06
-1.61824e-08
1.19162e-08
1.39417e-06
-2.07055e-08
1.64453e-08
1.40126e-06
-2.21031e-08
1.85576e-08
1.40642e-06
-2.15041e-08
1.89259e-08
1.40953e-06
-1.97685e-08
1.82158e-08
-1.74233e-08
1.67057e-08
1.1589e-06
-6.33235e-09
5.28114e-09
1.1657e-06
-1.71258e-08
1.3998e-08
1.16845e-06
-1.86359e-08
1.79765e-08
1.16661e-06
-1.71471e-08
1.91766e-08
1.16222e-06
-1.53604e-08
1.88725e-08
1.15655e-06
-1.37907e-08
1.75393e-08
-1.23441e-08
1.56743e-08
8.90375e-07
2.85246e-09
8.82486e-07
1.34078e-08
8.7036e-07
1.78656e-08
8.55114e-07
1.69521e-08
8.39985e-07
1.53346e-08
8.25539e-07
1.41603e-08
1.33626e-08
1.07432e-06
5.5689e-09
1.06473e-09
1.06824e-06
1.39003e-08
5.58623e-09
1.06138e-06
1.62619e-08
8.46338e-09
1.05338e-06
1.59094e-08
9.03875e-09
1.0451e-06
1.50034e-08
8.61587e-09
1.03721e-06
1.39357e-08
8.1168e-09
1.29815e-08
7.7797e-09
1.32762e-06
4.93107e-09
2.71809e-09
1.33539e-06
1.30088e-08
7.12041e-09
1.34286e-06
1.72157e-08
9.55261e-09
1.34847e-06
1.88999e-08
1.05767e-08
1.35197e-06
1.95033e-08
1.08729e-08
1.35375e-06
1.91192e-08
1.05764e-08
1.8108e-08
9.88464e-09
1.53312e-06
3.6492e-09
2.36581e-09
1.54218e-06
9.63351e-09
6.23825e-09
1.55328e-06
1.36912e-08
8.87237e-09
1.56445e-06
1.5936e-08
1.03456e-08
1.57507e-06
1.6911e-08
1.08974e-08
1.58471e-06
1.6945e-08
1.07512e-08
1.63771e-08
1.01382e-08
1.68027e-06
1.89085e-09
1.89088e-09
1.68934e-06
5.09882e-09
5.09893e-09
1.7018e-06
7.46335e-09
7.46357e-09
1.71578e-06
8.94463e-09
8.94498e-09
1.73022e-06
9.69076e-09
9.6913e-09
1.74439e-06
9.85778e-09
9.85858e-09
9.64788e-09
9.64902e-09
1.7569e-06
-3.43612e-14
1.61311e-09
1.76589e-06
-8.9671e-14
4.38387e-09
1.77878e-06
-1.49287e-13
6.53142e-09
1.79389e-06
-2.29963e-13
7.95063e-09
1.81002e-06
-3.46977e-13
8.75524e-09
1.82638e-06
-5.13971e-13
9.08536e-09
-7.42495e-13
9.07217e-09
1.7569e-06
-1.8909e-09
1.61312e-09
1.76589e-06
-5.09895e-09
4.38387e-09
1.77878e-06
-7.46358e-09
6.5314e-09
1.79389e-06
-8.94499e-09
7.95055e-09
1.81002e-06
-9.69131e-09
8.75511e-09
1.82638e-06
-9.8586e-09
9.08515e-09
-9.64905e-09
9.07188e-09
1.68027e-06
-3.64919e-09
1.89088e-09
1.68934e-06
-9.63352e-09
5.0989e-09
1.7018e-06
-1.36912e-08
7.46348e-09
1.71578e-06
-1.59361e-08
8.94482e-09
1.73022e-06
-1.69112e-08
9.69102e-09
1.74439e-06
-1.69453e-08
9.85812e-09
-1.63774e-08
9.64831e-09
1.53312e-06
-4.93104e-09
2.36577e-09
1.54218e-06
-1.30088e-08
6.23814e-09
1.55328e-06
-1.72156e-08
8.87218e-09
1.56445e-06
-1.88997e-08
1.03453e-08
1.57507e-06
-1.95031e-08
1.08968e-08
1.58471e-06
-1.91191e-08
1.07504e-08
-1.81077e-08
1.0137e-08
1.32763e-06
-5.56889e-09
2.71802e-09
1.33539e-06
-1.39002e-08
7.12021e-09
1.34286e-06
-1.62619e-08
9.55224e-09
1.34847e-06
-1.59092e-08
1.0576e-08
1.35198e-06
-1.50032e-08
1.0872e-08
1.35376e-06
-1.39355e-08
1.0575e-08
-1.29811e-08
9.88265e-09
1.07432e-06
1.06466e-09
1.06824e-06
5.58596e-09
1.06138e-06
8.46288e-09
1.05338e-06
9.03792e-09
1.0451e-06
8.61457e-09
1.03721e-06
8.11482e-09
7.77672e-09
1.16914e-06
4.90657e-09
4.34865e-14
1.16312e-06
1.16085e-08
1.74328e-13
1.15731e-06
1.42758e-08
3.23608e-13
1.15201e-06
1.43346e-08
5.48694e-13
1.14689e-06
1.3733e-08
8.77896e-13
1.14204e-06
1.29743e-08
1.37564e-12
1.21087e-08
2.09762e-12
1.41518e-06
4.19288e-09
6.00448e-14
1.42279e-06
1.1116e-08
1.69148e-13
1.43152e-06
1.50988e-08
3.10745e-13
1.4398e-06
1.66304e-08
4.96795e-13
1.44712e-06
1.72786e-08
7.56591e-13
1.45316e-06
1.75162e-08
1.10666e-12
1.71637e-08
1.61732e-12
1.61424e-06
3.09282e-09
4.09541e-14
1.62332e-06
8.27395e-09
1.20494e-13
1.63533e-06
1.19571e-08
2.20055e-13
1.64819e-06
1.41146e-08
3.44094e-13
1.66117e-06
1.52009e-08
5.01219e-13
1.67385e-06
1.55846e-08
7.21722e-13
1.54333e-08
1.01307e-12
1.7569e-06
1.6131e-09
1.45952e-14
1.76589e-06
4.38379e-09
6.62786e-14
1.77878e-06
6.53126e-09
1.37081e-13
1.79389e-06
7.95035e-09
2.24546e-13
1.81002e-06
8.75483e-09
3.39074e-13
1.82638e-06
9.08479e-09
4.95673e-13
9.07143e-09
7.06747e-13
1.83127e-06
-2.48106e-14
3.56128e-15
1.84004e-06
-6.42109e-14
4.2789e-14
1.8531e-06
-1.02216e-13
1.01142e-13
1.86901e-06
-1.5478e-13
1.61153e-13
1.88652e-06
-2.24505e-13
2.30947e-13
1.90469e-06
-3.15635e-13
3.15332e-13
-4.31601e-13
4.18686e-13
1.83127e-06
-1.61313e-09
9.1845e-16
1.84004e-06
-4.38389e-09
2.87363e-14
1.8531e-06
-6.53143e-09
5.19251e-14
1.86901e-06
-7.95062e-09
6.9856e-14
1.88652e-06
-8.75524e-09
7.66416e-14
1.90469e-06
-9.08536e-09
7.20535e-14
-9.07218e-09
5.68379e-14
1.7569e-06
-3.09283e-09
-6.1049e-15
1.76589e-06
-8.27398e-09
-3.87297e-15
1.77878e-06
-1.19571e-08
1.08238e-15
1.79389e-06
-1.41147e-08
-1.05734e-14
1.81002e-06
-1.52011e-08
-5.15377e-14
1.82638e-06
-1.5585e-08
-1.31297e-13
-1.54337e-08
-2.56445e-13
1.61424e-06
-4.19287e-09
-3.25e-14
1.62332e-06
-1.1116e-08
-6.87953e-14
1.63533e-06
-1.50988e-08
-1.01951e-13
1.64819e-06
-1.66304e-08
-1.58539e-13
1.66117e-06
-1.72786e-08
-2.4975e-13
1.67385e-06
-1.75162e-08
-3.99906e-13
-1.71638e-08
-6.07964e-13
1.41518e-06
-4.90656e-09
-5.50595e-14
1.42279e-06
-1.16085e-08
-1.44173e-13
1.43152e-06
-1.42757e-08
-2.32901e-13
1.4398e-06
-1.43345e-08
-3.64066e-13
1.44713e-06
-1.37329e-08
-5.66522e-13
1.45316e-06
-1.29742e-08
-8.51498e-13
-1.21086e-08
-1.28581e-12
1.16914e-06
-4.21266e-14
1.16312e-06
-1.79079e-13
1.15731e-06
-3.34964e-13
1.15201e-06
-5.18907e-13
1.1469e-06
-8.07928e-13
1.14204e-06
-1.26022e-12
-1.92149e-12
1.16914e-06
4.90655e-09
-1.06467e-09
1.16312e-06
1.16085e-08
-5.58599e-09
1.15731e-06
1.42757e-08
-8.4629e-09
1.15201e-06
1.43344e-08
-9.03791e-09
1.1469e-06
1.37328e-08
-8.61452e-09
1.14204e-06
1.29741e-08
-8.11474e-09
1.21085e-08
-7.77659e-09
1.41518e-06
4.19285e-09
-2.71802e-09
1.42279e-06
1.11159e-08
-7.12019e-09
1.43152e-06
1.50987e-08
-9.55217e-09
1.4398e-06
1.66303e-08
-1.05759e-08
1.44713e-06
1.72784e-08
-1.08718e-08
1.45316e-06
1.7516e-08
-1.05748e-08
1.71635e-08
-9.88237e-09
1.61424e-06
3.0928e-09
-2.36577e-09
1.62332e-06
8.27391e-09
-6.2381e-09
1.63533e-06
1.1957e-08
-8.87208e-09
1.64819e-06
1.41146e-08
-1.03451e-08
1.66117e-06
1.52009e-08
-1.08966e-08
1.67385e-06
1.55847e-08
-1.07501e-08
1.54333e-08
-1.01366e-08
1.7569e-06
1.61309e-09
-1.89087e-09
1.76589e-06
4.38381e-09
-5.09885e-09
1.77878e-06
6.53129e-09
-7.46336e-09
1.79389e-06
7.95043e-09
-8.94463e-09
1.81002e-06
8.75497e-09
-9.69076e-09
1.82638e-06
9.08501e-09
-9.85779e-09
9.07173e-09
-9.64791e-09
1.83127e-06
-1.59379e-14
-1.61311e-09
1.84004e-06
-2.94999e-14
-4.38381e-09
1.8531e-06
-4.56949e-14
-6.53126e-09
1.86901e-06
-5.12823e-14
-7.95034e-09
1.88652e-06
-5.38533e-14
-8.75482e-09
1.90469e-06
-5.1285e-14
-9.08479e-09
-4.15575e-14
-9.07144e-09
1.83127e-06
-1.61313e-09
-1.6131e-09
1.84004e-06
-4.38388e-09
-4.38381e-09
1.8531e-06
-6.5314e-09
-6.53129e-09
1.86901e-06
-7.95054e-09
-7.95041e-09
1.88652e-06
-8.75509e-09
-8.75495e-09
1.90469e-06
-9.08514e-09
-9.08499e-09
-9.07187e-09
1.7569e-06
-3.09285e-09
-1.89087e-09
1.76589e-06
-8.27402e-09
-5.09887e-09
1.77878e-06
-1.19572e-08
-7.46343e-09
1.79389e-06
-1.41148e-08
-8.94478e-09
1.81002e-06
-1.52011e-08
-9.69103e-09
1.82638e-06
-1.55849e-08
-9.85823e-09
-1.54337e-08
1.61424e-06
-4.19289e-09
-2.3658e-09
1.62332e-06
-1.1116e-08
-6.23819e-09
1.63533e-06
-1.50989e-08
-8.87226e-09
1.64819e-06
-1.66305e-08
-1.03454e-08
1.66117e-06
-1.72787e-08
-1.08971e-08
1.67385e-06
-1.75164e-08
-1.07509e-08
-1.7164e-08
1.41518e-06
-4.90657e-09
-2.71808e-09
1.42279e-06
-1.16085e-08
-7.12038e-09
1.43152e-06
-1.42758e-08
-9.55253e-09
1.4398e-06
-1.43346e-08
-1.05765e-08
1.44712e-06
-1.3733e-08
-1.08727e-08
1.45316e-06
-1.29744e-08
-1.05761e-08
-1.21088e-08
1.16914e-06
-1.06474e-09
1.16312e-06
-5.58623e-09
1.15731e-06
-8.46337e-09
1.15201e-06
-9.0387e-09
1.14689e-06
-8.61579e-09
1.14203e-06
-8.11667e-09
1.07432e-06
5.56888e-09
-2.85248e-09
1.06824e-06
1.39002e-08
-1.34078e-08
1.06138e-06
1.62618e-08
-1.78656e-08
1.05338e-06
1.59092e-08
-1.69521e-08
1.0451e-06
1.50031e-08
-1.53346e-08
1.03721e-06
1.39354e-08
-1.41603e-08
1.2981e-08
-1.33626e-08
1.32763e-06
4.93102e-09
-5.28115e-09
1.33539e-06
1.30087e-08
-1.39979e-08
1.34286e-06
1.72156e-08
-1.79765e-08
1.34847e-06
1.88996e-08
-1.91765e-08
1.35198e-06
1.9503e-08
-1.88724e-08
1.35376e-06
1.91189e-08
-1.75392e-08
1.81075e-08
-1.56741e-08
1.53312e-06
3.64916e-09
-4.57704e-09
1.54218e-06
9.63345e-09
-1.19162e-08
1.55328e-06
1.36911e-08
-1.64452e-08
1.56445e-06
1.59359e-08
-1.85575e-08
1.57507e-06
1.6911e-08
-1.89257e-08
1.58471e-06
1.6945e-08
-1.82156e-08
1.6377e-08
-1.67054e-08
1.68027e-06
1.89086e-09
-3.64921e-09
1.68934e-06
5.09887e-09
-9.63352e-09
1.7018e-06
7.46345e-09
-1.36912e-08
1.71578e-06
8.94481e-09
-1.59359e-08
1.73022e-06
9.69107e-09
-1.6911e-08
1.74439e-06
9.85828e-09
-1.6945e-08
9.64863e-09
-1.63771e-08
1.7569e-06
-1.52801e-15
-3.09283e-09
1.76589e-06
5.62276e-17
-8.27396e-09
1.77878e-06
1.38242e-14
-1.19571e-08
1.79389e-06
4.05076e-14
-1.41146e-08
1.81002e-06
8.9469e-14
-1.52009e-08
1.82638e-06
1.72434e-13
-1.55846e-08
-1.54333e-08
1.7569e-06
-1.89089e-09
-3.09281e-09
1.76589e-06
-5.0989e-09
-8.27392e-09
1.77878e-06
-7.46347e-09
-1.1957e-08
1.79389e-06
-8.94481e-09
-1.41146e-08
1.81002e-06
-9.691e-09
-1.52009e-08
-9.8581e-09
-1.55846e-08
1.68027e-06
-3.64922e-09
-3.64917e-09
1.68934e-06
-9.63357e-09
-9.63346e-09
1.7018e-06
-1.36913e-08
-1.36911e-08
1.71578e-06
-1.59361e-08
-1.59359e-08
1.73022e-06
-1.69112e-08
-1.6911e-08
-1.69452e-08
-1.6945e-08
1.53312e-06
-4.93109e-09
-4.57702e-09
1.54218e-06
-1.30089e-08
-1.19162e-08
1.55328e-06
-1.72158e-08
-1.64451e-08
1.56445e-06
-1.89e-08
-1.85574e-08
1.57507e-06
-1.95034e-08
-1.89257e-08
-1.91193e-08
-1.82155e-08
1.32762e-06
-5.5689e-09
-5.28113e-09
1.33539e-06
-1.39003e-08
-1.39979e-08
1.34286e-06
-1.6262e-08
-1.79765e-08
1.34847e-06
-1.59094e-08
-1.91765e-08
1.35197e-06
-1.50034e-08
-1.88725e-08
-1.39358e-08
-1.75393e-08
1.07432e-06
-2.85248e-09
1.06824e-06
-1.34078e-08
1.06138e-06
-1.78657e-08
1.05338e-06
-1.69523e-08
1.0451e-06
-1.53349e-08
-1.41606e-08
8.90375e-07
6.33235e-09
-3.58753e-09
8.82486e-07
1.71258e-08
-2.26454e-08
8.7036e-07
1.86359e-08
-2.43752e-08
8.55114e-07
1.7147e-08
-1.88532e-08
8.39986e-07
1.53604e-08
-1.55663e-08
8.25539e-07
1.37906e-08
-1.35046e-08
1.2344e-08
-1.19424e-08
1.1589e-06
6.10243e-09
-7.03377e-09
1.1657e-06
1.61823e-08
-1.98494e-08
1.16845e-06
2.07054e-08
-2.27958e-08
1.16661e-06
2.2103e-08
-2.23006e-08
1.16222e-06
2.1504e-08
-2.06187e-08
1.15655e-06
1.97684e-08
-1.78514e-08
1.74231e-08
-1.46939e-08
1.37712e-06
4.57701e-09
-6.10248e-09
1.38565e-06
1.19162e-08
-1.61824e-08
1.39417e-06
1.64452e-08
-2.07055e-08
1.40126e-06
1.85575e-08
-2.21031e-08
1.40642e-06
1.89258e-08
-2.15042e-08
1.40953e-06
1.82156e-08
-1.97688e-08
1.67055e-08
-1.74237e-08
1.53312e-06
2.3658e-09
-4.93108e-09
1.54218e-06
6.2382e-09
-1.30089e-08
1.55328e-06
8.87228e-09
-1.72157e-08
1.56445e-06
1.03454e-08
-1.88999e-08
1.57507e-06
1.08972e-08
-1.95032e-08
1.58471e-06
1.07509e-08
-1.91192e-08
1.01379e-08
-1.81079e-08
1.61424e-06
2.83804e-14
-4.19289e-09
1.62332e-06
7.03531e-14
-1.1116e-08
1.63533e-06
1.21405e-13
-1.50988e-08
1.64819e-06
1.94175e-13
-1.66304e-08
1.66117e-06
2.97392e-13
-1.72786e-08
1.67385e-06
4.57372e-13
-1.75162e-08
-1.71637e-08
1.61424e-06
-2.36578e-09
-4.19285e-09
1.62332e-06
-6.23815e-09
-1.11159e-08
1.63533e-06
-8.87217e-09
-1.50987e-08
1.64819e-06
-1.03452e-08
-1.66303e-08
1.66117e-06
-1.08968e-08
-1.72784e-08
-1.07504e-08
-1.7516e-08
1.53312e-06
-4.57705e-09
-4.93103e-09
1.54218e-06
-1.19162e-08
-1.30087e-08
1.55328e-06
-1.64453e-08
-1.72155e-08
1.56445e-06
-1.85576e-08
-1.88996e-08
1.57507e-06
-1.89259e-08
-1.95029e-08
-1.82158e-08
-1.91189e-08
1.37712e-06
-6.10248e-09
-6.10243e-09
1.38565e-06
-1.61824e-08
-1.61823e-08
1.39417e-06
-2.07055e-08
-2.07054e-08
1.40126e-06
-2.21032e-08
-2.2103e-08
1.40642e-06
-2.15043e-08
-2.1504e-08
-1.9769e-08
-1.97684e-08
1.1589e-06
-6.33236e-09
-7.03373e-09
1.1657e-06
-1.71258e-08
-1.98492e-08
1.16845e-06
-1.86359e-08
-2.27956e-08
1.16661e-06
-1.71471e-08
-2.23003e-08
1.16222e-06
-1.53605e-08
-2.06183e-08
-1.37909e-08
-1.78508e-08
8.90375e-07
-3.58747e-09
8.82486e-07
-2.26452e-08
8.70359e-07
-2.43749e-08
8.55113e-07
-1.88528e-08
8.39983e-07
-1.55657e-08
-1.35037e-08
6.3138e-07
7.40286e-09
-1.09687e-09
6.14564e-07
2.07002e-08
-2.65296e-08
5.86446e-07
1.8729e-08
-1.49864e-08
5.61728e-07
1.58466e-08
-9.98192e-09
5.39623e-07
1.37488e-08
-7.20984e-09
5.20646e-07
1.12904e-08
-5.818e-09
8.71155e-09
-4.71442e-09
9.23617e-07
7.03373e-09
-7.40288e-09
9.25318e-07
1.98492e-08
-2.07003e-08
9.17185e-07
2.27956e-08
-1.87291e-08
9.04278e-07
2.23004e-08
-1.58467e-08
8.90538e-07
2.06184e-08
-1.3749e-08
8.77417e-07
1.78508e-08
-1.12907e-08
1.4693e-08
-8.71212e-09
1.1589e-06
5.28112e-09
-6.33236e-09
1.1657e-06
1.39979e-08
-1.71258e-08
1.16845e-06
1.79765e-08
-1.86359e-08
1.16661e-06
1.91765e-08
-1.71471e-08
1.16222e-06
1.88725e-08
-1.53605e-08
1.15655e-06
1.75393e-08
-1.37908e-08
1.56742e-08
-1.23443e-08
1.32762e-06
2.71808e-09
-5.5689e-09
1.33539e-06
7.12038e-09
-1.39003e-08
1.34286e-06
9.55255e-09
-1.62619e-08
1.34847e-06
1.05766e-08
-1.59093e-08
1.35197e-06
1.08728e-08
-1.50033e-08
1.35375e-06
1.05762e-08
-1.39357e-08
9.88441e-09
-1.29815e-08
1.41518e-06
5.35637e-14
-4.90657e-09
1.42279e-06
1.41622e-13
-1.16085e-08
1.43152e-06
2.47038e-13
-1.42758e-08
1.4398e-06
3.96209e-13
-1.43345e-08
1.44712e-06
6.16377e-13
-1.37329e-08
1.45316e-06
9.20026e-13
-1.29742e-08
-1.21087e-08
1.41518e-06
-2.71802e-09
-4.90655e-09
1.42279e-06
-7.12021e-09
-1.16084e-08
1.43152e-06
-9.55223e-09
-1.42756e-08
1.4398e-06
-1.0576e-08
-1.43344e-08
1.44713e-06
-1.08719e-08
-1.37328e-08
-1.0575e-08
-1.29741e-08
1.32763e-06
-5.28114e-09
-5.56888e-09
1.33539e-06
-1.3998e-08
-1.39002e-08
1.34286e-06
-1.79765e-08
-1.62618e-08
1.34847e-06
-1.91766e-08
-1.59092e-08
1.35198e-06
-1.88725e-08
-1.50031e-08
-1.75393e-08
-1.39354e-08
1.1589e-06
-7.03377e-09
-6.33235e-09
1.1657e-06
-1.98494e-08
-1.71258e-08
1.16845e-06
-2.27958e-08
-1.86359e-08
1.16661e-06
-2.23006e-08
-1.7147e-08
1.16222e-06
-2.06188e-08
-1.53604e-08
-1.78515e-08
-1.37906e-08
9.23617e-07
-7.40288e-09
-7.40286e-09
9.25318e-07
-2.07003e-08
-2.07002e-08
9.17185e-07
-1.87291e-08
-1.8729e-08
9.04277e-07
-1.58467e-08
-1.58466e-08
8.90538e-07
-1.3749e-08
-1.37488e-08
-1.12908e-08
-1.12904e-08
6.3138e-07
-1.09678e-09
6.14564e-07
-2.65294e-08
5.86446e-07
-1.4986e-08
5.61728e-07
-9.98139e-09
5.39622e-07
-7.20904e-09
-5.81677e-09
3.3225e-07
1.09676e-09
2.79191e-07
2.65293e-08
2.49218e-07
1.4986e-08
2.29255e-07
9.98135e-09
2.14836e-07
7.20899e-09
2.03201e-07
5.81674e-09
4.71235e-09
6.3138e-07
3.58745e-09
6.14564e-07
2.26452e-08
5.86446e-07
2.43749e-08
5.61728e-07
1.88528e-08
5.39622e-07
1.55657e-08
5.20644e-07
1.35037e-08
1.19409e-08
8.90375e-07
2.85247e-09
8.82486e-07
1.34078e-08
8.70359e-07
1.78657e-08
8.55113e-07
1.69523e-08
8.39983e-07
1.53349e-08
8.25535e-07
1.41607e-08
1.33632e-08
1.07432e-06
1.06473e-09
1.06824e-06
5.58622e-09
1.06138e-06
8.46337e-09
1.05338e-06
9.03872e-09
1.0451e-06
8.61582e-09
1.03721e-06
8.11673e-09
7.77958e-09
1.16914e-06
4.42586e-14
1.16312e-06
1.75472e-13
1.15731e-06
3.22159e-13
1.15201e-06
5.28019e-13
1.14689e-06
8.38667e-13
1.14204e-06
1.31473e-12
1.16914e-06
-1.06466e-09
1.16312e-06
-5.58598e-09
1.15731e-06
-8.4629e-09
1.15201e-06
-9.03792e-09
1.1469e-06
-8.61456e-09
-8.11479e-09
1.07432e-06
-2.85247e-09
1.06824e-06
-1.34078e-08
1.06138e-06
-1.78656e-08
1.05338e-06
-1.69521e-08
1.0451e-06
-1.53346e-08
-1.41603e-08
8.90375e-07
-3.58751e-09
8.82486e-07
-2.26454e-08
8.7036e-07
-2.43752e-08
8.55114e-07
-1.88532e-08
8.39986e-07
-1.55663e-08
-1.35046e-08
6.3138e-07
-1.09685e-09
6.14564e-07
-2.65295e-08
5.86446e-07
-1.49864e-08
5.61728e-07
-9.98189e-09
5.39623e-07
-7.20981e-09
-5.81798e-09
3.3225e-07
2.79191e-07
2.49218e-07
2.29255e-07
2.14836e-07
)
;

boundaryField
{
    inlet
    {
        type            calculated;
        value           nonuniform List<scalar> 
100
(
-3.34443e-07
-6.41274e-07
-8.95972e-07
-1.0781e-06
-1.17299e-06
-1.17299e-06
-1.0781e-06
-8.95972e-07
-6.41274e-07
-3.34443e-07
-6.41274e-07
-9.22878e-07
-1.15692e-06
-1.32442e-06
-1.41174e-06
-1.41174e-06
-1.32442e-06
-1.15692e-06
-9.22878e-07
-6.41274e-07
-8.95972e-07
-1.15692e-06
-1.37407e-06
-1.52963e-06
-1.61077e-06
-1.61077e-06
-1.52963e-06
-1.37407e-06
-1.15692e-06
-8.95972e-07
-1.0781e-06
-1.32442e-06
-1.52963e-06
-1.67675e-06
-1.75353e-06
-1.75353e-06
-1.67675e-06
-1.52963e-06
-1.32442e-06
-1.0781e-06
-1.17299e-06
-1.41174e-06
-1.61077e-06
-1.75353e-06
-1.82805e-06
-1.82805e-06
-1.75353e-06
-1.61077e-06
-1.41174e-06
-1.17299e-06
-1.17299e-06
-1.41174e-06
-1.61077e-06
-1.75353e-06
-1.82805e-06
-1.82805e-06
-1.75353e-06
-1.61077e-06
-1.41174e-06
-1.17299e-06
-1.0781e-06
-1.32442e-06
-1.52963e-06
-1.67675e-06
-1.75353e-06
-1.75353e-06
-1.67675e-06
-1.52963e-06
-1.32442e-06
-1.0781e-06
-8.95972e-07
-1.15692e-06
-1.37407e-06
-1.52963e-06
-1.61077e-06
-1.61077e-06
-1.52963e-06
-1.37407e-06
-1.15692e-06
-8.95972e-07
-6.41274e-07
-9.22878e-07
-1.15692e-06
-1.32442e-06
-1.41174e-06
-1.41174e-06
-1.32442e-06
-1.15692e-06
-9.22878e-07
-6.41274e-07
-3.34443e-07
-6.41274e-07
-8.95972e-07
-1.0781e-06
-1.17299e-06
-1.17299e-06
-1.0781e-06
-8.95972e-07
-6.41274e-07
-3.34443e-07
)
;
    }
    ami1
    {
        type            cyclicAMI;
        value           nonuniform List<scalar> 0();
    }
    walls
    {
        type            calculated;
        value           uniform 0;
    }
    ami2
    {
        type            cyclicAMI;
        value           nonuniform List<scalar> 0();
    }
    outlet
    {
        type            calculated;
        value           nonuniform List<scalar> 0();
    }
    procBoundary4to3
    {
        type            processor;
        value           nonuniform List<scalar> 
109
(
1.93775e-07
5.04706e-07
8.11775e-07
1.02981e-06
1.13771e-06
1.1377e-06
1.02981e-06
8.11768e-07
5.04703e-07
1.93774e-07
5.04704e-07
8.65454e-07
1.15049e-06
1.35442e-06
1.45799e-06
1.45799e-06
1.35442e-06
1.15049e-06
8.65453e-07
5.04706e-07
8.11769e-07
1.15049e-06
1.41096e-06
1.59301e-06
1.68572e-06
1.68572e-06
1.59301e-06
1.41096e-06
1.15049e-06
8.11774e-07
1.02981e-06
1.35442e-06
1.59301e-06
1.75785e-06
1.84239e-06
1.84239e-06
1.75785e-06
1.59301e-06
1.35442e-06
1.02981e-06
1.1377e-06
1.45799e-06
1.68572e-06
1.84239e-06
1.92283e-06
1.92283e-06
1.84239e-06
1.68572e-06
1.45799e-06
1.13771e-06
1.13771e-06
1.45799e-06
1.68572e-06
1.84239e-06
1.92283e-06
1.92283e-06
-9.07171e-09
1.84239e-06
-9.64858e-09
1.68572e-06
-1.01378e-08
1.45799e-06
-9.88431e-09
1.1377e-06
-7.77949e-09
1.02981e-06
1.35442e-06
1.59301e-06
1.75785e-06
1.84239e-06
3.00642e-13
1.82638e-06
1.74439e-06
1.58471e-06
1.35375e-06
1.0372e-06
8.11775e-07
1.15049e-06
1.41096e-06
1.59301e-06
1.68572e-06
6.78359e-13
1.67385e-06
1.58471e-06
1.40953e-06
1.15655e-06
8.25535e-07
5.04707e-07
8.65454e-07
1.15049e-06
1.35442e-06
1.45799e-06
1.37601e-12
1.45316e-06
1.35376e-06
1.15655e-06
8.77417e-07
5.20644e-07
1.93775e-07
5.04704e-07
8.11769e-07
1.02981e-06
1.1377e-06
2.00988e-12
1.14204e-06
1.03721e-06
8.25539e-07
5.20646e-07
2.03201e-07
)
;
    }
}


// ************************************************************************* //
