/*--------------------------------*- C++ -*----------------------------------*\
| =========                 |                                                 |
| \\      /  F ield         | OpenFOAM: The Open Source CFD Toolbox           |
|  \\    /   O peration     | Version:  2212                                  |
|   \\  /    A nd           | Website:  www.openfoam.com                      |
|    \\/     M anipulation  |                                                 |
\*---------------------------------------------------------------------------*/
FoamFile
{
    version     2.0;
    format      ascii;
    arch        "LSB;label=32;scalar=64";
    class       volScalarField;
    location    "0.4";
    object      k;
}
// * * * * * * * * * * * * * * * * * * * * * * * * * * * * * * * * * * * * * //

dimensions      [0 2 -2 0 0 0 0];

internalField   nonuniform List<scalar> 
690
(
0.00505819
0.00471773
0.00448153
0.00876375
0.00828956
0.00789896
0.011313
0.0106871
0.0101671
0.00491686
0.00468339
0.00449742
0.00435148
0.00423764
0.00414951
0.00408208
0.00403118
0.00399325
0.00396536
0.00394505
0.00393037
0.00888333
0.00839714
0.00799666
0.00767146
0.0074121
0.00720825
0.00705004
0.00692875
0.00683689
0.00676819
0.00671726
0.00667934
0.0115882
0.0109229
0.010378
0.00993555
0.00957916
0.00929492
0.00907042
0.00889486
0.00875903
0.00865518
0.00857684
0.00851872
0.00484052
0.00462473
0.00444632
0.00430273
0.00419005
0.00410322
0.00403733
0.003988
0.00395154
0.00392493
0.00390573
0.00389193
0.00867818
0.00814656
0.00773934
0.00742181
0.00717641
0.00698832
0.00684531
0.00673751
0.00665694
0.0065973
0.0065534
0.00652074
0.0112488
0.0105958
0.0100708
0.00964992
0.0093143
0.00904875
0.00884047
0.00867855
0.00855392
0.00845912
0.00838774
0.00833443
0.0130506
0.0123049
0.0116887
0.0111848
0.0107763
0.010448
0.0101862
0.00997938
0.00981756
0.00969242
0.00959712
0.00952656
0.0142206
0.0133751
0.0126815
0.0121152
0.0116553
0.0112839
0.010986
0.0107489
0.010562
0.0104162
0.0103045
0.0102217
0.0146175
0.0137348
0.0130133
0.012425
0.011947
0.0115606
0.0112502
0.0110026
0.0108069
0.010654
0.0105368
0.01045
0.0142203
0.0133748
0.0126812
0.012115
0.0116551
0.0112838
0.0109859
0.0107489
0.010562
0.0104164
0.0103049
0.0102225
0.0131483
0.0123659
0.0117319
0.0112188
0.0108052
0.0104736
0.0102098
0.0100014
0.00983838
0.00971233
0.00961643
0.00954522
0.0113126
0.0106865
0.0101662
0.00974186
0.00940038
0.00912869
0.00891474
0.00874787
0.00861907
0.00852075
0.00844657
0.00876435
0.0082909
0.00790117
0.00758574
0.00733466
0.00713763
0.00698495
0.0068681
0.00677961
0.00671324
0.00666308
0.00505882
0.00471884
0.00448327
0.00431579
0.00419441
0.00410552
0.00404016
0.00399214
0.00395692
0.00393113
0.0039122
0.00484505
0.00454103
0.00432474
0.00416801
0.00405382
0.00397074
0.00391055
0.00386713
0.00383595
0.00381366
0.00379779
0.00378664
0.00788732
0.00742919
0.00709245
0.00683882
0.00665016
0.00651037
0.00640682
0.00633024
0.0062736
0.00623157
0.00620045
0.00617745
0.0102496
0.00970733
0.00926754
0.0089167
0.00864006
0.008424
0.00825684
0.00812805
0.00802966
0.00795513
0.0078986
0.00785627
0.0119927
0.0113401
0.010798
0.0103553
0.0099983
0.00971347
0.00948842
0.0093121
0.00917529
0.00907042
0.00899077
0.00893144
0.0131482
0.0123657
0.0117317
0.0112186
0.010805
0.0104734
0.0102095
0.010001
0.00983791
0.00971171
0.00961546
0.00954372
0.0135259
0.0126962
0.0120291
0.0114914
0.0110586
0.0107115
0.0104349
0.010216
0.0100443
0.00991111
0.00980939
0.00973369
0.01305
0.0123042
0.011688
0.0111842
0.0107759
0.0104477
0.0101861
0.00997943
0.00981769
0.00969259
0.00959722
0.00952627
0.0119926
0.01134
0.010798
0.0103553
0.00999843
0.00971372
0.00948879
0.00931259
0.00917586
0.00907102
0.0089913
0.00893164
0.010553
0.00991738
0.00942611
0.00904437
0.00874792
0.00851843
0.00834164
0.00820569
0.00810184
0.00802264
0.00796234
0.00822525
0.00779015
0.00742128
0.00713302
0.00691322
0.00674729
0.00662249
0.00652912
0.00645924
0.00640701
0.00636752
0.00494267
0.00450392
0.00427268
0.00412406
0.00402132
0.00394812
0.00389604
0.00385858
0.00383162
0.00381197
0.00379774
0.00476678
0.004328
0.00408341
0.00392203
0.00381997
0.00375237
0.00370651
0.00367483
0.00365238
0.00363664
0.00362558
0.00361803
0.00654274
0.00625779
0.00607508
0.00595237
0.00586674
0.0058034
0.00575485
0.00571696
0.00568807
0.00566589
0.0056487
0.00563619
0.00883496
0.00839936
0.0080554
0.00779239
0.00759351
0.00744319
0.00732919
0.00724082
0.00717357
0.00712264
0.00708414
0.00705526
0.010553
0.00991733
0.00942603
0.00904423
0.00874771
0.00851812
0.00834123
0.00820521
0.00810133
0.00802233
0.00796247
0.00791761
0.0113124
0.0106863
0.0101661
0.00974178
0.00940029
0.00912856
0.00891456
0.00874763
0.00861879
0.00852044
0.00844617
0.00839031
0.0115876
0.0109224
0.0103776
0.00993525
0.0095793
0.00929547
0.00907125
0.00889583
0.00876005
0.00865613
0.00857754
0.00851876
0.0112486
0.0105958
0.010071
0.0096503
0.00931499
0.00904973
0.00884167
0.00867991
0.00855536
0.00846056
0.00838904
0.0083352
0.0102496
0.00970741
0.00926776
0.00891712
0.00864069
0.00842484
0.00825786
0.0081292
0.00803089
0.00795632
0.00789954
0.00785664
0.00883509
0.00839954
0.00805566
0.00779276
0.00759402
0.00744385
0.00732996
0.00724167
0.00717445
0.00712337
0.00708443
0.00728509
0.00678531
0.00646855
0.00626228
0.00612478
0.00602868
0.00595764
0.00590351
0.00586301
0.00583228
0.00580893
0.00431576
0.00410987
0.00393969
0.00382844
0.00375711
0.00371141
0.00368006
0.0036576
0.00364123
0.00362934
0.00362064
0.00451518
0.00403735
0.00374787
0.00362507
0.00354934
0.00350567
0.00347972
0.00346261
0.00345122
0.00344317
0.0034377
0.0034342
0.0048877
0.00484088
0.00483409
0.00485571
0.00487131
0.0048748
0.00486989
0.00485959
0.00485226
0.00484359
0.00483648
0.00483075
0.00728489
0.00678504
0.00646821
0.00626183
0.00612423
0.00602803
0.00595692
0.00590272
0.0058622
0.00583153
0.00580875
0.00579175
0.00822503
0.00778986
0.00742092
0.00713257
0.00691266
0.00674663
0.00662175
0.00652831
0.00645847
0.00640645
0.00636775
0.00633906
0.00876412
0.00829049
0.00790067
0.00758518
0.00733401
0.00713688
0.00698409
0.00686715
0.00677866
0.0067125
0.00666331
0.00662661
0.0088835
0.00839764
0.00799766
0.00767303
0.00741419
0.00721065
0.00705254
0.0069312
0.00683922
0.00677035
0.00671922
0.00668105
0.00867824
0.00814687
0.00774002
0.00742293
0.00717796
0.00699019
0.00684739
0.00673968
0.00665912
0.00659943
0.00655531
0.00652227
0.00788738
0.00742942
0.00709292
0.00683958
0.00665121
0.00651167
0.00640832
0.00633186
0.00627526
0.00623322
0.00620175
0.00617805
0.00654287
0.00625803
0.00607545
0.00595291
0.00586746
0.00580428
0.00575586
0.00571805
0.00568921
0.00566696
0.00564949
0.00488785
0.00484111
0.00483442
0.00485617
0.00487189
0.00487548
0.00487065
0.00486042
0.00485313
0.00484434
0.00483701
0.00403271
0.00370451
0.00355965
0.00348855
0.00345866
0.00344617
0.00343883
0.00343271
0.0034278
0.00342377
0.00342086
0.004733
0.00414523
0.00373501
0.00355754
0.00347914
0.00344194
0.00342343
0.00341089
0.00340229
0.00339626
0.0033923
0.00338983
0.00403262
0.00370441
0.0035595
0.00348835
0.00345841
0.00344589
0.00343852
0.00343237
0.00342746
0.00342344
0.00342061
0.00341796
0.00431563
0.0041097
0.00393948
0.00382818
0.0037568
0.00371106
0.00367968
0.00365719
0.00364083
0.00362899
0.00362046
0.00361436
0.00494249
0.0045037
0.00427239
0.00412371
0.0040209
0.00394764
0.00389551
0.00385802
0.00383107
0.00381154
0.0037975
0.00378744
0.00505858
0.00471844
0.00448274
0.00431513
0.00419369
0.00410471
0.00403927
0.00399118
0.00395595
0.00393027
0.00391169
0.00389825
0.00491709
0.00468384
0.00449814
0.00435251
0.00423889
0.00415083
0.00408337
0.00403236
0.00399429
0.00396624
0.00394579
0.00393099
0.00484064
0.00462496
0.00444671
0.00430332
0.00419082
0.00410413
0.00403832
0.00398902
0.00395254
0.00392588
0.00390659
0.00389267
0.00484512
0.00454115
0.00432496
0.00416835
0.00405428
0.00397132
0.00391122
0.00386785
0.00383671
0.00381442
0.00379849
0.00378707
0.00476681
0.0043281
0.00408356
0.00392225
0.00382027
0.00375273
0.00370693
0.00367529
0.00365287
0.00363713
0.00362615
0.00451526
0.00403744
0.00374799
0.00362525
0.00354956
0.00350594
0.00348002
0.00346294
0.00345156
0.00344351
0.00343802
0.00473308
0.0041453
0.0037351
0.00355765
0.00347928
0.0034421
0.00342361
0.00341107
0.00340246
0.00339645
0.00339246
)
;

boundaryField
{
    inlet
    {
        type            fixedValue;
        value           nonuniform List<scalar> 0();
    }
    ami1
    {
        type            cyclicAMI;
        value           nonuniform List<scalar> 0();
    }
    walls
    {
        type            kqRWallFunction;
        value           nonuniform List<scalar> 
259
(
0.00505882
0.00494267
0.00431576
0.00403271
0.00473308
0.00471884
0.00450392
0.00410987
0.00370451
0.0041453
0.00448327
0.00427268
0.00393969
0.00355965
0.0037351
0.00431579
0.00412406
0.00382844
0.00348855
0.00355765
0.00419441
0.00402132
0.00375711
0.00345866
0.00347928
0.00410552
0.00394812
0.00371141
0.00344617
0.0034421
0.00404016
0.00389604
0.00368006
0.00343883
0.00342361
0.00399214
0.00385858
0.0036576
0.00343271
0.00341107
0.00395692
0.00383162
0.00364123
0.0034278
0.00340246
0.00393113
0.00381197
0.00362934
0.00342377
0.00339645
0.0039122
0.00379774
0.00362064
0.00342086
0.00339246
0.004733
0.00403262
0.00431563
0.00494249
0.00505858
0.00491709
0.00484064
0.00484512
0.00476681
0.00451526
0.00473308
0.00414523
0.00370441
0.0041097
0.0045037
0.00471844
0.00468384
0.00462496
0.00454115
0.0043281
0.00403744
0.0041453
0.00373501
0.0035595
0.00393948
0.00427239
0.00448274
0.00449814
0.00444671
0.00432496
0.00408356
0.00374799
0.0037351
0.00355754
0.00348835
0.00382818
0.00412371
0.00431513
0.00435251
0.00430332
0.00416835
0.00392225
0.00362525
0.00355765
0.00347914
0.00345841
0.0037568
0.0040209
0.00419369
0.00423889
0.00419082
0.00405428
0.00382027
0.00354956
0.00347928
0.00344194
0.00344589
0.00371106
0.00394764
0.00410471
0.00415083
0.00410413
0.00397132
0.00375273
0.00350594
0.0034421
0.00342343
0.00343852
0.00367968
0.00389551
0.00403927
0.00408337
0.00403832
0.00391122
0.00370693
0.00348002
0.00342361
0.00341089
0.00343237
0.00365719
0.00385802
0.00399118
0.00403236
0.00398902
0.00386785
0.00367529
0.00346294
0.00341107
0.00340229
0.00342746
0.00364083
0.00383107
0.00395595
0.00399429
0.00395254
0.00383671
0.00365287
0.00345156
0.00340246
0.00339626
0.00342344
0.00362899
0.00381154
0.00393027
0.00396624
0.00392588
0.00381442
0.00363713
0.00344351
0.00339645
0.0033923
0.00342061
0.00362046
0.0037975
0.00391169
0.00394579
0.00390659
0.00379849
0.00362615
0.00343802
0.00339246
0.00338983
0.00341796
0.00361436
0.00378744
0.00389825
0.00393099
0.00389267
0.00378707
0.00505819
0.00491686
0.00484052
0.00484505
0.00476678
0.00451518
0.004733
0.00471773
0.00468339
0.00462473
0.00454103
0.004328
0.00403735
0.00414523
0.00448153
0.00449742
0.00444632
0.00432474
0.00408341
0.00374787
0.00373501
0.00435148
0.00430273
0.00416801
0.00392203
0.00362507
0.00355754
0.00423764
0.00419005
0.00405382
0.00381997
0.00354934
0.00347914
0.00414951
0.00410322
0.00397074
0.00375237
0.00350567
0.00344194
0.00408208
0.00403733
0.00391055
0.00370651
0.00347972
0.00342343
0.00403118
0.003988
0.00386713
0.00367483
0.00346261
0.00341089
0.00399325
0.00395154
0.00383595
0.00365238
0.00345122
0.00340229
0.00396536
0.00392493
0.00381366
0.00363664
0.00344317
0.00339626
0.00394505
0.00390573
0.00379779
0.00362558
0.0034377
0.0033923
0.00393037
0.00389193
0.00378664
0.00361803
0.0034342
0.00338983
)
;
    }
    ami2
    {
        type            cyclicAMI;
        value           nonuniform List<scalar> 
61
(
0.00530181
0.00904839
0.011679
0.00505884
0.00917238
0.01199
0.00496487
0.00900364
0.0116534
0.0134952
0.0147328
0.0151561
0.0147326
0.0136324
0.0116786
0.00904877
0.00530223
0.00505832
0.00816958
0.0105732
0.0123759
0.0136323
0.0140448
0.0134947
0.0123757
0.0109725
0.008457
0.00523877
0.00501173
0.00674318
0.00908839
0.0109724
0.0116785
0.0119896
0.0116532
0.0105731
0.00908852
0.00762339
0.00444843
0.00476503
0.00494909
0.00762319
0.0084568
0.00904858
0.00917247
0.00900366
0.00816961
0.00674329
0.00494924
0.00419521
0.00469303
0.00419511
0.00444831
0.00523861
0.00530205
0.00505901
0.00496497
0.00505838
0.00501176
0.00476513
0.00469313
)
;
    }
    outlet
    {
        type            zeroGradient;
    }
    procBoundary1to0
    {
        type            processor;
        value           nonuniform List<scalar> 
138
(
0.0043136
0.0043136
0.00419217
0.00410336
0.00403816
0.00399035
0.00395539
0.00392996
0.00391157
0.00389827
0.00758289
0.00758289
0.00733138
0.0071343
0.00698178
0.00686519
0.00677706
0.00671124
0.00666235
0.00662585
0.0131486
0.0123663
0.00974263
0.0117324
0.00974263
0.00940006
0.00912779
0.00891356
0.00874657
0.00861776
0.00851951
0.0084454
0.00838992
0.0135268
0.0126972
0.0120301
0.0114923
0.0110594
0.0107121
0.0104353
0.0102163
0.0100445
0.00991134
0.00980975
0.00973448
0.0135268
0.0126972
0.0120301
0.0114923
0.0110594
0.0107121
0.0104353
0.0102163
0.0100445
0.00991134
0.00980975
0.00973448
0.0146176
0.013735
0.0130135
0.0124252
0.0119472
0.0115608
0.0112503
0.0110027
0.0108069
0.0106539
0.0105365
0.0104492
0.0149558
0.0140727
0.0133402
0.0127377
0.0122455
0.011846
0.0115239
0.0112663
0.0110621
0.0109021
0.0107793
0.0106882
0.0146173
0.0137346
0.0130131
0.0124248
0.0119468
0.0115605
0.0112501
0.0110025
0.0108069
0.0106541
0.0105369
0.01045
0.0135262
0.0126965
0.0120293
0.0114916
0.0110588
0.0107118
0.0104352
0.0102163
0.0100447
0.00991169
0.00981032
0.00973507
0.0115878
0.0109226
0.0103777
0.00993533
0.00957935
0.00929552
0.00907132
0.00889594
0.00876019
0.00865634
0.00857817
0.00888363
0.00839772
0.00799771
0.00767306
0.00741423
0.00721074
0.00705268
0.00693137
0.00683937
0.00677027
0.00671834
0.00491718
0.00468395
0.00449826
0.00435266
0.00423913
0.00415115
0.00408375
0.00403279
0.00399472
0.00396656
0.00394578
)
;
    }
    procBoundary1to2
    {
        type            processor;
        value           nonuniform List<scalar> 9(0.00494263 0.00450389 0.00427233 0.00822508 0.00778996 0.00742066 0.0105533 0.00991763 0.00942649);
    }
    procBoundary1to8
    {
        type            processor;
        value           nonuniform List<scalar> 
33
(
0.00392004
0.00665177
0.00847486
0.00388235
0.00649722
0.00829486
0.00947313
0.0101582
0.0103838
0.00377891
0.00616083
0.00782522
0.00888725
0.00948989
0.00967706
0.00361305
0.00562708
0.00703421
0.0078847
0.00834884
0.00847499
0.00343169
0.00482759
0.00577945
0.0063185
0.00659989
0.00665319
0.00338857
0.00341682
0.00361038
0.00378029
0.0038888
0.00392056
)
;
    }
    procBoundary1to9
    {
        type            processor;
        value           nonuniform List<scalar> 
30
(
0.0101598
0.00949077
0.00839044
0.00839044
0.00662562
0.00389842
0.00947332
0.00888681
0.00791714
0.00791714
0.00633821
0.00378738
0.00829527
0.00782483
0.007055
0.007055
0.00579119
0.00361424
0.00649843
0.00616083
0.00563714
0.00563714
0.00483119
0.00341815
0.00388302
0.00377892
0.00361863
0.00361863
0.00343464
0.00339007
)
;
    }
}


// ************************************************************************* //
