/*--------------------------------*- C++ -*----------------------------------*\
| =========                 |                                                 |
| \\      /  F ield         | OpenFOAM: The Open Source CFD Toolbox           |
|  \\    /   O peration     | Version:  2212                                  |
|   \\  /    A nd           | Website:  www.openfoam.com                      |
|    \\/     M anipulation  |                                                 |
\*---------------------------------------------------------------------------*/
FoamFile
{
    version     2.0;
    format      ascii;
    arch        "LSB;label=32;scalar=64";
    class       volScalarField;
    location    "0.75";
    object      epsilon;
}
// * * * * * * * * * * * * * * * * * * * * * * * * * * * * * * * * * * * * * //

dimensions      [0 2 -3 0 0 0 0];

internalField   nonuniform List<scalar> 
6840
(
90.5034
12.1248
4.3887
2.46659
1.63316
1.18308
0.902016
0.720681
0.5946
0.502526
0.432714
0.379339
0.336395
0.300041
0.270461
0.24657
0.227216
0.211964
0.203233
0.195281
58.5856
14.5696
6.08947
3.33295
2.08218
1.40267
0.998657
0.74029
0.565912
0.443936
0.356037
0.290951
0.241449
0.203036
0.173169
0.149937
0.131548
0.116976
0.10602
0.098925
45.0226
13.4729
5.73075
3.07323
1.86023
1.22699
0.873574
0.649776
0.49701
0.389474
0.311284
0.252971
0.208975
0.175214
0.148826
0.127905
0.111165
0.0976529
0.0867468
0.0782787
38.7028
13.0541
5.74336
3.08733
1.88066
1.2275
0.869472
0.645377
0.492583
0.38477
0.30701
0.249026
0.204954
0.170955
0.144355
0.123267
0.106334
0.0925742
0.0813421
0.0730855
36.0571
12.8529
5.76645
3.10211
1.89475
1.22669
0.866496
0.643979
0.492245
0.383958
0.305789
0.247912
0.203912
0.169937
0.143318
0.122177
0.105161
0.091287
0.0799041
0.0712625
36.0571
12.8529
5.76645
3.10211
1.89476
1.22669
0.8665
0.643983
0.492251
0.383966
0.305802
0.247929
0.203935
0.169971
0.143368
0.122251
0.105272
0.0914517
0.0801594
0.0717468
38.7028
13.0541
5.74336
3.08733
1.88066
1.2275
0.869479
0.645387
0.492596
0.384786
0.307035
0.249061
0.205003
0.171026
0.144458
0.123418
0.106559
0.0929123
0.0818229
0.0735664
45.0226
13.4729
5.73075
3.07323
1.86023
1.227
0.87358
0.649785
0.497022
0.389496
0.311312
0.253009
0.209028
0.175287
0.148934
0.128064
0.111401
0.0980103
0.0872959
0.0792149
58.5856
14.5696
6.08947
3.33296
2.08218
1.40267
0.998659
0.740293
0.565916
0.443944
0.35605
0.290971
0.24148
0.203099
0.173255
0.15006
0.131746
0.117319
0.106641
0.0997045
90.5034
12.1248
4.3887
2.46659
1.63316
1.18308
0.902016
0.720681
0.594601
0.502526
0.432715
0.379339
0.336396
0.300041
0.270462
0.246571
0.227217
0.211966
0.203236
0.195285
58.5856
14.5696
6.08947
3.33296
2.08218
1.40267
0.998659
0.740293
0.565916
0.443944
0.356049
0.290971
0.241479
0.203099
0.173254
0.150059
0.131745
0.117318
0.106639
0.0997028
16.5373
9.49239
5.01271
2.8606
1.75746
1.1476
0.786935
0.562054
0.415373
0.315955
0.246343
0.196237
0.15924
0.131278
0.109814
0.0932538
0.0802218
0.069694
0.060775
0.056708
13.6679
8.73671
5.07741
3.05388
1.92224
1.2661
0.869292
0.618634
0.453964
0.34204
0.263659
0.207323
0.165917
0.134865
0.111165
0.0927103
0.0781946
0.0666506
0.0571837
0.04996
12.9054
8.33993
5.07879
3.15547
2.02775
1.3512
0.933537
0.666458
0.489546
0.368596
0.283605
0.222389
0.17733
0.14353
0.117746
0.097769
0.0820818
0.0696138
0.0595877
0.0513613
12.6882
8.1544
5.07113
3.20038
2.07939
1.39506
0.967828
0.692718
0.509633
0.384012
0.295498
0.231641
0.184585
0.149252
0.122279
0.101374
0.0849561
0.0719073
0.0614285
0.0529944
12.6882
8.1544
5.07113
3.20038
2.07939
1.39506
0.96783
0.692721
0.509636
0.384015
0.295503
0.231648
0.184593
0.149265
0.122294
0.101393
0.0849789
0.0719354
0.0614633
0.0530353
12.9054
8.33993
5.07879
3.15547
2.02775
1.35121
0.933541
0.666463
0.489552
0.368603
0.283615
0.222402
0.177348
0.143555
0.117776
0.0978067
0.0821298
0.0696756
0.0596669
0.0514587
13.6679
8.73671
5.07741
3.05388
1.92224
1.2661
0.869295
0.618638
0.453968
0.342046
0.263666
0.207333
0.16593
0.134884
0.111188
0.092739
0.0782306
0.066695
0.0572358
0.0501416
16.5373
9.49239
5.01271
2.8606
1.75746
1.1476
0.786935
0.562054
0.415373
0.315955
0.246343
0.196237
0.159241
0.131279
0.109813
0.0932535
0.0802216
0.0696936
0.0607751
0.056708
58.5856
14.5696
6.08947
3.33295
2.08218
1.40267
0.998657
0.740291
0.565913
0.443936
0.356037
0.290951
0.241449
0.203036
0.17317
0.149938
0.131549
0.116978
0.106022
0.0989266
45.0226
13.4729
5.73075
3.07323
1.86023
1.227
0.87358
0.649785
0.497022
0.389496
0.311312
0.253009
0.209027
0.175287
0.148934
0.128063
0.1114
0.0980098
0.0872952
0.0792142
13.6679
8.73671
5.07741
3.05388
1.92224
1.2661
0.869295
0.618638
0.453968
0.342046
0.263666
0.207333
0.16593
0.134883
0.111189
0.0927397
0.0782309
0.0666951
0.0572365
0.0501414
11.8601
7.76395
4.99734
3.24076
2.1442
1.45499
1.01411
0.725639
0.532162
0.399157
0.305556
0.238234
0.188841
0.151936
0.123901
0.102274
0.0853649
0.0719812
0.0612538
0.0526693
11.6229
7.60535
5.0103
3.34209
2.26848
1.57142
1.11236
0.804588
0.594205
0.447519
0.343213
0.267636
0.211903
0.170125
0.138331
0.113793
0.0946113
0.0794413
0.0673151
0.0575455
11.5726
7.56718
5.02065
3.38344
2.32103
1.62326
1.15828
0.843153
0.625688
0.472846
0.36348
0.283848
0.2249
0.180583
0.146784
0.120659
0.100216
0.0840379
0.0711024
0.0606562
11.5726
7.56718
5.02065
3.38344
2.32103
1.62326
1.15828
0.843155
0.62569
0.472848
0.363483
0.283853
0.224906
0.180591
0.146793
0.120669
0.100229
0.0840533
0.0711216
0.0606809
11.6229
7.60535
5.01031
3.34209
2.26848
1.57142
1.11236
0.804591
0.594209
0.447523
0.343218
0.267643
0.211912
0.170137
0.138345
0.11381
0.0946333
0.0794683
0.0673483
0.0575973
11.8601
7.76395
4.99734
3.24076
2.1442
1.45499
1.01411
0.725639
0.532162
0.399157
0.305556
0.238235
0.188842
0.151936
0.123901
0.102273
0.0853645
0.0719809
0.0612536
0.0526689
13.6679
8.73671
5.07741
3.05388
1.92224
1.2661
0.869292
0.618634
0.453964
0.342041
0.263659
0.207323
0.165917
0.134866
0.111164
0.0927099
0.0781943
0.0666503
0.0571835
0.0499581
45.0226
13.4729
5.73075
3.07323
1.86023
1.22699
0.873574
0.649776
0.49701
0.389474
0.311284
0.252971
0.208975
0.175214
0.148827
0.127906
0.111165
0.0976535
0.0867476
0.0782796
38.7028
13.0541
5.74336
3.08733
1.88066
1.2275
0.869479
0.645386
0.492596
0.384786
0.307035
0.249061
0.205003
0.171026
0.144458
0.123418
0.106558
0.092912
0.0818226
0.0735659
12.9054
8.33993
5.07879
3.15547
2.02775
1.35121
0.933541
0.666463
0.489552
0.368603
0.283615
0.222402
0.177347
0.143553
0.117777
0.0978074
0.0821302
0.0696757
0.0596671
0.051459
11.6229
7.60535
5.01031
3.34209
2.26848
1.57142
1.11236
0.804591
0.594208
0.447523
0.343218
0.267643
0.211911
0.170137
0.138346
0.113811
0.0946337
0.0794685
0.0673485
0.0575978
11.4933
7.5119
5.02843
3.434
2.3892
1.6928
1.22112
0.896488
0.669458
0.508125
0.39166
0.30629
0.242791
0.194896
0.158292
0.129969
0.107798
0.0902546
0.0762269
0.0648579
11.4757
7.50136
5.04297
3.47002
2.43665
1.74299
1.26863
0.938712
0.705583
0.538335
0.416593
0.326728
0.2595
0.208559
0.169488
0.139174
0.115397
0.0965557
0.081465
0.0691522
11.4757
7.50136
5.04297
3.47002
2.43665
1.74299
1.26863
0.938712
0.705584
0.538336
0.416594
0.326729
0.259501
0.208561
0.169491
0.139177
0.1154
0.0965594
0.0814686
0.0691416
11.4933
7.5119
5.02843
3.434
2.3892
1.6928
1.22112
0.896488
0.669458
0.508125
0.39166
0.30629
0.242791
0.194896
0.158292
0.129969
0.107798
0.0902544
0.0762267
0.0648569
11.6229
7.60535
5.0103
3.34209
2.26848
1.57142
1.11236
0.804588
0.594205
0.447519
0.343213
0.267636
0.211903
0.170125
0.13833
0.113792
0.0946111
0.0794412
0.0673152
0.0575448
12.9054
8.33993
5.07879
3.15547
2.02775
1.3512
0.933537
0.666458
0.489546
0.368596
0.283606
0.222389
0.17733
0.14353
0.117745
0.0977686
0.0820815
0.0696136
0.0595875
0.0513608
38.7028
13.0541
5.74336
3.08733
1.88066
1.2275
0.869472
0.645377
0.492583
0.38477
0.30701
0.249026
0.204954
0.170955
0.144355
0.123267
0.106334
0.0925745
0.0813424
0.0730857
36.0571
12.8529
5.76645
3.10211
1.89476
1.22669
0.8665
0.643983
0.492251
0.383966
0.305802
0.247929
0.203935
0.169971
0.143368
0.122251
0.105272
0.0914517
0.0801594
0.0717468
12.6882
8.1544
5.07113
3.20038
2.07939
1.39506
0.96783
0.692721
0.509636
0.384015
0.295503
0.231648
0.184593
0.149264
0.122294
0.101392
0.0849787
0.0719352
0.061463
0.0530352
11.5726
7.56718
5.02065
3.38344
2.32103
1.62326
1.15828
0.843155
0.62569
0.472848
0.363483
0.283853
0.224905
0.18059
0.146793
0.120669
0.100228
0.0840531
0.0711214
0.0606809
11.4757
7.50136
5.04297
3.47002
2.43665
1.74299
1.26863
0.938712
0.705584
0.538336
0.416594
0.326729
0.259501
0.208561
0.16949
0.139176
0.1154
0.0965594
0.0814687
0.0691424
11.4647
7.49683
5.0577
3.50272
2.48038
1.79068
1.31522
0.981305
0.742924
0.57021
0.443351
0.348968
0.27789
0.223738
0.182024
0.149551
0.124016
0.103743
0.0874747
0.0741575
11.4647
7.49683
5.0577
3.50272
2.48038
1.79068
1.31522
0.981305
0.742924
0.57021
0.443351
0.348968
0.27789
0.223738
0.182024
0.149551
0.124016
0.103743
0.0874747
0.0741572
11.4757
7.50136
5.04297
3.47002
2.43665
1.74299
1.26863
0.938712
0.705583
0.538335
0.416593
0.326728
0.2595
0.208559
0.169488
0.139174
0.115397
0.0965558
0.0814651
0.0691521
11.5726
7.56718
5.02065
3.38344
2.32103
1.62326
1.15828
0.843153
0.625688
0.472846
0.36348
0.283849
0.224901
0.180584
0.146783
0.120658
0.100216
0.084038
0.0711028
0.0606562
12.6882
8.1544
5.07113
3.20038
2.07939
1.39506
0.967828
0.692718
0.509633
0.384012
0.295499
0.231641
0.184585
0.149253
0.122278
0.101373
0.0849557
0.071907
0.0614283
0.052994
36.0571
12.8529
5.76645
3.10211
1.89475
1.22669
0.866497
0.643979
0.492245
0.383959
0.30579
0.247912
0.203912
0.169937
0.143318
0.122177
0.105161
0.0912871
0.0799041
0.0712624
36.0571
12.8529
5.76645
3.10211
1.89475
1.22669
0.866497
0.643979
0.492245
0.383959
0.30579
0.247912
0.203912
0.169937
0.143318
0.122177
0.105161
0.0912872
0.0799043
0.0712625
12.6882
8.1544
5.07113
3.20038
2.07939
1.39506
0.967828
0.692718
0.509633
0.384012
0.295498
0.231641
0.184584
0.149252
0.122279
0.101374
0.0849559
0.071907
0.0614281
0.0529939
11.5726
7.56718
5.02065
3.38344
2.32103
1.62326
1.15828
0.843153
0.625688
0.472846
0.36348
0.283848
0.2249
0.180583
0.146784
0.120658
0.100216
0.0840376
0.071102
0.0606555
11.4757
7.50136
5.04297
3.47002
2.43665
1.74299
1.26863
0.938712
0.705583
0.538335
0.416593
0.326728
0.2595
0.208559
0.169488
0.139174
0.115397
0.0965557
0.081465
0.0691522
11.4647
7.49683
5.0577
3.50272
2.48038
1.79068
1.31522
0.981305
0.742924
0.57021
0.443351
0.348968
0.27789
0.223738
0.182024
0.149551
0.124017
0.103743
0.087475
0.0741576
11.4647
7.49683
5.0577
3.50272
2.48038
1.79068
1.31522
0.981305
0.742924
0.57021
0.443351
0.348968
0.27789
0.223738
0.182024
0.149551
0.124017
0.103743
0.0874751
0.0741579
11.4757
7.50136
5.04297
3.47002
2.43665
1.74299
1.26863
0.938712
0.705584
0.538336
0.416594
0.32673
0.259502
0.208561
0.16949
0.139176
0.1154
0.0965597
0.0814692
0.0691425
11.5726
7.56718
5.02065
3.38344
2.32103
1.62326
1.15828
0.843155
0.62569
0.472848
0.363483
0.283853
0.224907
0.180591
0.146792
0.120669
0.100229
0.0840537
0.0711223
0.0606817
12.6882
8.1544
5.07113
3.20038
2.07939
1.39506
0.96783
0.692721
0.509637
0.384016
0.295503
0.231648
0.184594
0.149265
0.122292
0.101391
0.0849781
0.071935
0.0614629
0.0530348
36.0571
12.8529
5.76645
3.10211
1.89476
1.22669
0.8665
0.643983
0.492251
0.383966
0.305802
0.247929
0.203935
0.169971
0.143368
0.122251
0.105272
0.0914516
0.0801592
0.0717465
38.7028
13.0541
5.74336
3.08733
1.88066
1.2275
0.869472
0.645377
0.492583
0.38477
0.30701
0.249026
0.204954
0.170955
0.144355
0.123267
0.106334
0.0925745
0.0813425
0.0730858
12.9054
8.33993
5.07879
3.15547
2.02775
1.3512
0.933537
0.666458
0.489546
0.368596
0.283606
0.222389
0.17733
0.14353
0.117746
0.0977691
0.0820818
0.0696139
0.0595875
0.0513611
11.6229
7.60535
5.0103
3.34209
2.26848
1.57142
1.11236
0.804588
0.594205
0.447519
0.343213
0.267636
0.211903
0.170125
0.138331
0.113793
0.0946115
0.0794415
0.0673153
0.057545
11.4933
7.5119
5.02843
3.434
2.3892
1.6928
1.22112
0.896488
0.669458
0.508125
0.39166
0.30629
0.242791
0.194896
0.158292
0.129969
0.107798
0.0902551
0.0762275
0.0648578
11.4757
7.50136
5.04297
3.47002
2.43665
1.74299
1.26863
0.938712
0.705584
0.538336
0.416594
0.32673
0.259501
0.208561
0.169491
0.139177
0.115401
0.09656
0.0814694
0.0691426
11.4757
7.50136
5.04297
3.47002
2.43665
1.74299
1.26863
0.938712
0.705583
0.538335
0.416593
0.326728
0.2595
0.20856
0.169489
0.139174
0.115398
0.0965562
0.0814657
0.0691533
11.4933
7.5119
5.02843
3.434
2.3892
1.6928
1.22112
0.896488
0.669458
0.508125
0.39166
0.30629
0.242791
0.194896
0.158292
0.129969
0.107798
0.0902551
0.0762276
0.0648584
11.6229
7.60535
5.01031
3.34209
2.26848
1.57142
1.11236
0.804591
0.594209
0.447523
0.343218
0.267643
0.211913
0.170137
0.138345
0.113811
0.0946338
0.079469
0.0673494
0.0575984
12.9054
8.33993
5.07879
3.15547
2.02775
1.35121
0.933541
0.666463
0.489552
0.368603
0.283616
0.222402
0.177348
0.143554
0.117775
0.0978064
0.0821295
0.0696753
0.0596666
0.0514582
38.7028
13.0541
5.74336
3.08733
1.88066
1.2275
0.869479
0.645387
0.492596
0.384786
0.307035
0.249061
0.205003
0.171026
0.144458
0.123418
0.106558
0.092912
0.0818226
0.0735658
45.0226
13.4729
5.73075
3.07323
1.86023
1.22699
0.873574
0.649776
0.49701
0.389474
0.311284
0.252971
0.208975
0.175214
0.148827
0.127906
0.111165
0.0976534
0.0867475
0.0782795
13.6679
8.73671
5.07741
3.05388
1.92224
1.2661
0.869292
0.618634
0.453964
0.342041
0.263659
0.207323
0.165917
0.134866
0.111165
0.0927107
0.078195
0.0666512
0.0571836
0.0499592
11.8601
7.76395
4.99734
3.24076
2.1442
1.45499
1.01411
0.725639
0.532162
0.399157
0.305556
0.238235
0.188841
0.151936
0.123902
0.102274
0.0853655
0.0719819
0.0612547
0.0526698
11.6229
7.60535
5.01031
3.34209
2.26848
1.57142
1.11236
0.804591
0.594209
0.447523
0.343218
0.267643
0.211912
0.170137
0.138346
0.113812
0.0946345
0.0794695
0.0673497
0.0575986
11.5726
7.56718
5.02065
3.38344
2.32103
1.62326
1.15828
0.843155
0.62569
0.472848
0.363483
0.283853
0.224906
0.180591
0.146793
0.12067
0.100229
0.0840541
0.0711226
0.0606819
11.5726
7.56718
5.02065
3.38344
2.32103
1.62326
1.15828
0.843153
0.625688
0.472846
0.36348
0.283848
0.2249
0.180584
0.146784
0.120659
0.100216
0.0840384
0.0711031
0.0606568
11.6229
7.60535
5.0103
3.34209
2.26848
1.57142
1.11236
0.804589
0.594205
0.447519
0.343213
0.267636
0.211903
0.170125
0.138331
0.113793
0.0946115
0.0794417
0.0673158
0.0575459
11.8601
7.76395
4.99734
3.24076
2.1442
1.45499
1.01411
0.725639
0.532162
0.399157
0.305556
0.238235
0.188842
0.151937
0.123901
0.102274
0.0853651
0.0719817
0.0612544
0.05267
13.6679
8.73671
5.07741
3.05388
1.92224
1.2661
0.869295
0.618638
0.453968
0.342046
0.263666
0.207333
0.16593
0.134884
0.111187
0.0927389
0.0782304
0.0666948
0.0572356
0.0501415
45.0226
13.4729
5.73075
3.07323
1.86023
1.227
0.87358
0.649785
0.497022
0.389496
0.311312
0.253009
0.209027
0.175287
0.148934
0.128064
0.1114
0.0980099
0.0872955
0.0792146
58.5856
14.5696
6.08947
3.33295
2.08218
1.40267
0.998657
0.740291
0.565913
0.443936
0.356037
0.290951
0.241449
0.203037
0.17317
0.149937
0.131549
0.116977
0.106022
0.0989267
16.5373
9.49239
5.01271
2.8606
1.75746
1.1476
0.786935
0.562054
0.415373
0.315955
0.246343
0.196237
0.159241
0.131279
0.109815
0.0932542
0.0802221
0.0696942
0.0607754
0.0567082
13.6679
8.73671
5.07741
3.05388
1.92224
1.2661
0.869295
0.618638
0.453969
0.342046
0.263667
0.207333
0.16593
0.134883
0.111189
0.09274
0.0782312
0.0666953
0.0572367
0.0501415
12.9054
8.33993
5.07879
3.15547
2.02775
1.35121
0.933541
0.666463
0.489552
0.368604
0.283616
0.222402
0.177347
0.143553
0.117778
0.0978077
0.0821304
0.0696759
0.0596671
0.0514587
12.6882
8.1544
5.07113
3.20038
2.07939
1.39506
0.96783
0.692721
0.509637
0.384016
0.295503
0.231648
0.184593
0.149264
0.122294
0.101393
0.0849788
0.0719352
0.061463
0.0530347
12.6882
8.1544
5.07113
3.20038
2.07939
1.39506
0.967828
0.692719
0.509634
0.384012
0.295498
0.231641
0.184585
0.149253
0.122279
0.101374
0.084956
0.071907
0.061428
0.0529935
12.9054
8.33993
5.07879
3.15547
2.02775
1.3512
0.933537
0.666458
0.489546
0.368596
0.283606
0.222389
0.17733
0.14353
0.117746
0.0977689
0.0820816
0.0696137
0.0595873
0.0513607
13.6679
8.73671
5.07741
3.05388
1.92224
1.2661
0.869292
0.618634
0.453964
0.342041
0.263659
0.207323
0.165917
0.134866
0.111165
0.0927102
0.0781947
0.0666508
0.0571832
0.0499593
16.5373
9.49239
5.01271
2.8606
1.75746
1.1476
0.786935
0.562054
0.415373
0.315955
0.246343
0.196237
0.159241
0.131279
0.109813
0.0932533
0.0802214
0.0696934
0.0607746
0.0567074
58.5856
14.5696
6.08947
3.33296
2.08218
1.40267
0.998659
0.740293
0.565916
0.443944
0.356049
0.290971
0.24148
0.203099
0.173255
0.15006
0.131746
0.117319
0.10664
0.0997038
90.5034
12.1248
4.3887
2.46659
1.63316
1.18308
0.902016
0.720681
0.594601
0.502526
0.432715
0.379339
0.336396
0.300042
0.270462
0.246571
0.227218
0.211966
0.203236
0.195286
58.5856
14.5696
6.08947
3.33296
2.08218
1.40267
0.998659
0.740294
0.565916
0.443944
0.35605
0.290971
0.24148
0.2031
0.173255
0.15006
0.131746
0.117319
0.10664
0.0997045
45.0226
13.4729
5.73075
3.07323
1.86023
1.227
0.87358
0.649785
0.497022
0.389496
0.311312
0.253009
0.209028
0.175287
0.148934
0.128064
0.111401
0.0980103
0.0872958
0.0792151
38.7028
13.0541
5.74336
3.08733
1.88066
1.2275
0.869479
0.645387
0.492596
0.384786
0.307036
0.249061
0.205003
0.171026
0.144458
0.123418
0.106558
0.0929122
0.0818228
0.073566
36.0571
12.8529
5.76645
3.10211
1.89476
1.22669
0.8665
0.643983
0.492251
0.383966
0.305802
0.247929
0.203935
0.169971
0.143368
0.122251
0.105272
0.0914517
0.0801593
0.0717466
36.0571
12.8529
5.76645
3.10211
1.89475
1.22669
0.866497
0.643979
0.492245
0.383959
0.30579
0.247912
0.203912
0.169937
0.143319
0.122177
0.105161
0.091287
0.0799041
0.0712624
38.7028
13.0541
5.74336
3.08733
1.88066
1.2275
0.869472
0.645377
0.492583
0.38477
0.30701
0.249026
0.204954
0.170955
0.144355
0.123267
0.106334
0.0925743
0.0813422
0.0730854
45.0226
13.4729
5.73075
3.07323
1.86023
1.22699
0.873574
0.649776
0.49701
0.389474
0.311284
0.252971
0.208975
0.175214
0.148827
0.127906
0.111165
0.0976531
0.0867471
0.078279
58.5856
14.5696
6.08947
3.33295
2.08218
1.40267
0.998657
0.740291
0.565913
0.443936
0.356037
0.290951
0.241449
0.203036
0.17317
0.149937
0.131549
0.116977
0.106021
0.098926
90.5034
12.1248
4.3887
2.46659
1.63316
1.18308
0.902016
0.720681
0.594601
0.502526
0.432715
0.379339
0.336396
0.300041
0.270461
0.246571
0.227217
0.211965
0.203235
0.195283
0.38667
0.303192
0.237629
0.202385
0.182328
0.170227
0.161777
0.155265
0.150045
0.145953
0.142551
0.139739
0.137291
0.135117
0.133214
0.131582
0.130199
0.129044
0.128077
0.127269
0.12659
0.126016
0.125583
0.125218
0.124904
0.124582
0.12427
0.124004
0.123833
0.123699
0.123592
0.123469
0.123341
0.123248
0.123244
0.123211
0.123219
0.123193
0.123149
0.123066
0.140191
0.115587
0.0966806
0.0844157
0.0764993
0.0710715
0.067
0.0636749
0.0608404
0.0584696
0.0565504
0.0550007
0.0536626
0.0525314
0.051562
0.0507351
0.0500307
0.0494359
0.0489379
0.0485232
0.0481771
0.0478829
0.0476561
0.0474425
0.0472655
0.0471066
0.046966
0.0468491
0.0467642
0.0466734
0.0466067
0.0465557
0.0465127
0.0464813
0.0464571
0.0464471
0.0464437
0.046442
0.0464416
0.0464385
0.0929209
0.0798411
0.0700231
0.0624859
0.0572147
0.0530226
0.0495263
0.0466648
0.0443206
0.042364
0.0407213
0.0393228
0.0381375
0.037138
0.0362955
0.0355747
0.0349644
0.0344521
0.0340212
0.0336598
0.0333577
0.0331052
0.0328971
0.0327145
0.0325461
0.0324043
0.0322925
0.0321998
0.0321234
0.0320534
0.0319909
0.031944
0.0319109
0.0318973
0.0319202
0.0318926
0.0318719
0.0318643
0.0318608
0.0318635
0.0718187
0.0648015
0.0587048
0.053565
0.0492772
0.0456578
0.042593
0.0399912
0.0377772
0.0358908
0.0342825
0.0329134
0.0317411
0.0307391
0.0298903
0.0291716
0.0285646
0.0280545
0.0276247
0.0272657
0.0269642
0.0267142
0.0265101
0.02633
0.0261592
0.0260198
0.0259012
0.0258079
0.0257354
0.025675
0.0256095
0.0255639
0.0255315
0.0255123
0.0255092
0.0255166
0.0254977
0.0254896
0.0254802
0.0254829
0.070245
0.0609937
0.0544563
0.0493541
0.0452334
0.0418556
0.0390399
0.036628
0.0345532
0.0327657
0.0312259
0.0299016
0.0287602
0.0277742
0.0269328
0.0262182
0.0256137
0.0251041
0.024676
0.0243171
0.0240155
0.0237605
0.0235517
0.0233713
0.023196
0.0230531
0.0229371
0.0228444
0.0227727
0.0227148
0.0226489
0.0226019
0.0225683
0.022547
0.0225401
0.0225563
0.022541
0.0225254
0.0225247
0.0225224
0.0705983
0.0600677
0.0532387
0.0479927
0.0438206
0.0404243
0.0376464
0.0352895
0.0332525
0.0314919
0.0299715
0.0286609
0.027529
0.0265559
0.0257299
0.0250277
0.0244333
0.0239326
0.0235121
0.0231598
0.022864
0.0226153
0.0224091
0.0222303
0.0220597
0.021921
0.0218075
0.0217162
0.021645
0.021587
0.0215212
0.0214744
0.0214407
0.021419
0.0214081
0.0214278
0.021451
0.0214238
0.0214092
0.0214005
0.0715904
0.0603739
0.0534987
0.0483194
0.0441801
0.0407932
0.0379872
0.0355834
0.0335135
0.031734
0.0302063
0.028897
0.027773
0.0268094
0.0259934
0.0253031
0.0247214
0.0242323
0.0238222
0.0234784
0.0231904
0.0229483
0.0227463
0.0225654
0.0223976
0.0222618
0.0221506
0.0220615
0.0219906
0.0219299
0.0218632
0.0218166
0.0217838
0.0217648
0.0217536
0.0217664
0.0217873
0.021764
0.021753
0.0217406
0.0700944
0.0624914
0.056111
0.0508753
0.0465893
0.043068
0.0401077
0.0376096
0.035493
0.0336957
0.0321681
0.0308663
0.0297522
0.0287963
0.0279907
0.0273119
0.0267427
0.0262644
0.0258655
0.0255282
0.0252475
0.0250113
0.0248129
0.0246297
0.024462
0.0243277
0.0242182
0.0241325
0.0240613
0.023995
0.0239267
0.023881
0.0238503
0.0238339
0.023826
0.0238296
0.0238425
0.0238278
0.023817
0.0238115
0.0862456
0.0738904
0.0648114
0.0579565
0.0527607
0.0488028
0.0456313
0.0430235
0.0408447
0.0390233
0.0374984
0.0361976
0.0350874
0.0341585
0.0333549
0.0326693
0.0320885
0.031602
0.0311952
0.0308544
0.0305696
0.0303322
0.0301372
0.0299491
0.0297767
0.0296385
0.0295256
0.0294379
0.0293629
0.0292873
0.0292165
0.0291716
0.0291423
0.0291261
0.0291168
0.0291288
0.0291416
0.0291154
0.0290992
0.0290906
0.136941
0.113402
0.0931137
0.0802622
0.0721131
0.0667975
0.0629889
0.0599914
0.0573713
0.0553098
0.0536701
0.0522595
0.0509855
0.0498636
0.0487981
0.0479228
0.0472022
0.0466118
0.046121
0.0457121
0.0453716
0.0450873
0.0448681
0.0446484
0.0444731
0.0443183
0.0441803
0.0440667
0.0439692
0.0438694
0.0438077
0.0437616
0.0437226
0.0436938
0.0436783
0.0437018
0.0436676
0.0436449
0.0436289
0.0436112
0.38667
0.303192
0.237632
0.202382
0.18233
0.170236
0.161794
0.155289
0.150075
0.145975
0.142606
0.139772
0.137308
0.135117
0.133207
0.131578
0.130204
0.129059
0.128102
0.127302
0.126628
0.126061
0.12564
0.125274
0.124958
0.124629
0.124311
0.124044
0.123872
0.123736
0.123629
0.123497
0.123369
0.123275
0.123236
0.123272
0.123258
0.123194
0.123113
0.122995
0.13694
0.1134
0.0931117
0.0802638
0.0721071
0.0667893
0.0629775
0.0599767
0.057354
0.0552954
0.0536377
0.052258
0.0509881
0.0498625
0.048801
0.0479276
0.0472053
0.0466121
0.0461171
0.0457041
0.0453606
0.0450727
0.0448509
0.0446356
0.0444624
0.044309
0.0441717
0.0440583
0.0439665
0.0438732
0.04381
0.0437644
0.0437239
0.043682
0.0436858
0.0436896
0.0436605
0.0436507
0.0436462
0.0436373
0.0640653
0.055797
0.047194
0.0405877
0.0364198
0.0334089
0.0311164
0.0292393
0.0276265
0.0262664
0.0250906
0.0240669
0.0233852
0.0226976
0.0220161
0.0214925
0.0210256
0.0206481
0.0203297
0.0200489
0.019842
0.0196337
0.0195467
0.0197612
0.019507
0.0192398
0.0190875
0.0189898
0.0190522
0.0193199
0.0191043
0.0188962
0.0187945
0.0188706
0.0192673
0.0190144
0.0188502
0.0187806
0.0187356
0.018732
0.0547415
0.0447813
0.0378072
0.0325929
0.0293267
0.0266866
0.024505
0.0227231
0.0211576
0.0199321
0.0186111
0.0177605
0.0168847
0.0163688
0.0155821
0.0151869
0.0146298
0.0143309
0.0140073
0.0136632
0.0135439
0.0132972
0.0132136
0.0134391
0.0132188
0.0130385
0.0128292
0.0126889
0.0127325
0.0130701
0.0128927
0.0127468
0.0125562
0.0125871
0.0127311
0.0130192
0.0128308
0.0126838
0.0125107
0.0125386
0.0473043
0.0410584
0.0358529
0.0315745
0.0277125
0.0248762
0.0227985
0.0209864
0.0194255
0.0180794
0.0169227
0.0159749
0.0152454
0.0144547
0.0137736
0.0131877
0.0127238
0.012238
0.0119787
0.0115806
0.0114309
0.0111575
0.0110911
0.011268
0.0110596
0.0108558
0.0107352
0.0105521
0.010639
0.010929
0.0107512
0.0106275
0.010395
0.0104034
0.0105012
0.0108297
0.0106725
0.0105626
0.0103514
0.0103587
0.0461509
0.0403222
0.0354243
0.0313247
0.0278694
0.0248789
0.0221823
0.0202932
0.0187686
0.0174236
0.0162543
0.0152931
0.0145628
0.0137433
0.0130456
0.012454
0.011954
0.0115318
0.0111767
0.010886
0.0106048
0.0104378
0.0102896
0.0104421
0.0102017
0.0100346
0.00977732
0.00971484
0.00976196
0.0100241
0.00984771
0.00971875
0.00950883
0.00948469
0.00958438
0.0099077
0.00976017
0.00965128
0.00945533
0.00942492
0.046398
0.0404677
0.0354777
0.0313056
0.0278121
0.0248899
0.0222048
0.0199523
0.0184777
0.0171541
0.015988
0.0150198
0.0142689
0.0134455
0.0127432
0.0121474
0.0116436
0.0112184
0.0108598
0.0105598
0.0103075
0.0101191
0.00998798
0.0101297
0.00989051
0.00969734
0.00952633
0.00942383
0.00946762
0.00972428
0.00954015
0.00939343
0.00925538
0.0091464
0.00927512
0.00961249
0.0094581
0.00933474
0.0092111
0.00908038
0.0462403
0.0402505
0.0352336
0.0310493
0.0275523
0.024618
0.0218808
0.0199082
0.0184354
0.0171193
0.0159732
0.015036
0.0143036
0.0134886
0.0127977
0.0122146
0.0117223
0.0113111
0.0109578
0.0106908
0.0103784
0.0102068
0.0101625
0.0103098
0.0100906
0.00992564
0.009696
0.0096276
0.00968658
0.00995669
0.00977866
0.00963127
0.00947094
0.00943548
0.00952769
0.00987438
0.00971141
0.0095748
0.00946919
0.00940744
0.0464677
0.0402932
0.0350766
0.0307382
0.0271156
0.0240126
0.0219476
0.0202472
0.0187668
0.0174884
0.0163951
0.0155274
0.0148308
0.0140384
0.0133831
0.0128347
0.0123206
0.011994
0.01153
0.0113554
0.0110375
0.0109124
0.0108937
0.0110672
0.010851
0.0106639
0.0104772
0.0103129
0.0104215
0.010728
0.0105496
0.0104143
0.0101789
0.0101816
0.0101763
0.0103608
0.0106522
0.0104773
0.0103218
0.0101355
0.0537104
0.0435813
0.036842
0.0315097
0.027965
0.0255648
0.0235371
0.0218235
0.020373
0.0191581
0.0180962
0.0172442
0.0164523
0.0156822
0.01515
0.0145112
0.0142148
0.0137404
0.0135195
0.0132003
0.0129925
0.0127931
0.0128009
0.0129884
0.0127686
0.0126036
0.0123552
0.0122656
0.0123559
0.0126681
0.012476
0.0123014
0.0121024
0.0121131
0.0121349
0.0122963
0.0125913
0.0124011
0.0121738
0.0120515
0.0640635
0.0557981
0.0471913
0.0406009
0.0363837
0.0334009
0.0311171
0.0292431
0.0276338
0.026277
0.0250317
0.0242804
0.0233403
0.0226452
0.0219925
0.0214813
0.0210167
0.0206521
0.0203191
0.0200647
0.019834
0.0196467
0.0195576
0.0197785
0.0195191
0.0192466
0.0190919
0.018998
0.0190634
0.0193492
0.0191188
0.0188924
0.0187968
0.0187758
0.0188058
0.0188699
0.0192158
0.0189952
0.0188046
0.0187292
0.140191
0.115588
0.0966795
0.0844143
0.0765012
0.0710777
0.0670082
0.0636845
0.0608522
0.0584758
0.0565809
0.054995
0.053663
0.0525294
0.0515578
0.0507313
0.0500302
0.0494393
0.0489471
0.0485374
0.0481966
0.0479076
0.0476838
0.0474682
0.0472918
0.047133
0.0469928
0.0468786
0.0467888
0.0466898
0.0466246
0.0465713
0.0465271
0.046498
0.0464805
0.0464951
0.0464694
0.0464416
0.0464234
0.0464127
0.0862451
0.0738882
0.0648103
0.0579519
0.0527546
0.048795
0.0456224
0.0430132
0.0408333
0.0390115
0.0374824
0.0361941
0.035091
0.034156
0.0333574
0.0326745
0.0320949
0.0316088
0.0311998
0.0308575
0.0305711
0.0303324
0.0301412
0.0299572
0.0297907
0.0296554
0.0295428
0.0294537
0.0293798
0.0293072
0.0292389
0.0291965
0.0291635
0.0291433
0.0291354
0.0291626
0.0291728
0.0291334
0.0291177
0.0291107
0.0537124
0.0435882
0.0368402
0.0315241
0.0279747
0.025564
0.0235291
0.0218105
0.0203521
0.019139
0.0180386
0.0171539
0.0163193
0.0157609
0.0150419
0.0145615
0.0141691
0.0136979
0.0134915
0.0131507
0.0130037
0.0127618
0.0127075
0.0129654
0.0127366
0.0125504
0.0123251
0.0122125
0.0123227
0.0126574
0.0124551
0.0122504
0.0120947
0.0120481
0.0122399
0.0125853
0.0123925
0.0121598
0.0120225
0.0120511
0.0466956
0.0404071
0.034967
0.0304178
0.0267583
0.023829
0.0214383
0.0194634
0.0178072
0.0164105
0.0152181
0.0141454
0.0134193
0.0126021
0.0119818
0.0115453
0.0110351
0.01064
0.0102506
0.00995146
0.00971966
0.0095192
0.00947585
0.00969959
0.00952659
0.00936743
0.00911677
0.00898906
0.00908604
0.00940625
0.00926306
0.00908756
0.00887299
0.00888936
0.00900757
0.00933593
0.00919607
0.00903678
0.0088509
0.00875742
0.0479597
0.0416191
0.0362902
0.0318153
0.0280372
0.0248971
0.0222813
0.0200801
0.0182168
0.016631
0.01528
0.0140801
0.0132599
0.0123722
0.0116165
0.0109758
0.0104238
0.00987401
0.00955489
0.00929518
0.00907396
0.00883106
0.00874828
0.00893112
0.00873974
0.00856754
0.00837669
0.00818507
0.00827425
0.00856716
0.00842474
0.00828334
0.00807902
0.00798336
0.0081522
0.0084923
0.00836006
0.00823463
0.00802602
0.00791488
0.0498231
0.0431968
0.0376755
0.0330547
0.0291666
0.0258795
0.023083
0.0207353
0.018755
0.0170662
0.0156209
0.0143595
0.013485
0.0125519
0.0117458
0.0110543
0.01046
0.00994915
0.00951862
0.00912002
0.00885394
0.00871733
0.00863885
0.00878096
0.00856091
0.00836153
0.0082008
0.00806097
0.00812117
0.0083599
0.00819403
0.00804855
0.00791935
0.00777806
0.00793466
0.00825287
0.00811412
0.0079948
0.00783892
0.00776008
0.0503581
0.0437093
0.0381534
0.0334875
0.029553
0.0262232
0.0233775
0.0209594
0.018929
0.0172047
0.0157304
0.0144511
0.0135451
0.0126
0.0117802
0.0110761
0.0104746
0.009959
0.00951419
0.00913814
0.00878947
0.00863876
0.00863852
0.00875274
0.00853935
0.00829783
0.00815125
0.00803204
0.00808784
0.00832184
0.008153
0.00800937
0.00786283
0.00777537
0.00791141
0.00822228
0.00808036
0.00794793
0.00782912
0.00771358
0.049663
0.043083
0.0375724
0.0329457
0.0290504
0.0257615
0.0229665
0.0206143
0.0186316
0.0169482
0.0155143
0.0142753
0.0133891
0.0124568
0.0116535
0.0109688
0.0103812
0.00986852
0.00943433
0.00905666
0.00876008
0.00864285
0.00857115
0.00874308
0.00854523
0.00836423
0.00820262
0.00805568
0.008129
0.00837708
0.00821955
0.00808291
0.00791716
0.00780532
0.00799786
0.00831115
0.00818468
0.00796834
0.0078543
0.00768959
0.0477554
0.0413819
0.0360348
0.0315358
0.0277729
0.0246247
0.0220183
0.0198431
0.0180152
0.0164682
0.0151363