/*--------------------------------*- C++ -*----------------------------------*\
| =========                 |                                                 |
| \\      /  F ield         | OpenFOAM: The Open Source CFD Toolbox           |
|  \\    /   O peration     | Version:  2212                                  |
|   \\  /    A nd           | Website:  www.openfoam.com                      |
|    \\/     M anipulation  |                                                 |
\*---------------------------------------------------------------------------*/
FoamFile
{
    version     2.0;
    format      ascii;
    arch        "LSB;label=32;scalar=64";
    class       volScalarField;
    location    "0.75";
    object      k;
}
// * * * * * * * * * * * * * * * * * * * * * * * * * * * * * * * * * * * * * //

dimensions      [0 2 -2 0 0 0 0];

internalField   nonuniform List<scalar> 
6840
(
0.213564
0.055916
0.0283994
0.0193412
0.0146928
0.0118512
0.00989074
0.0085162
0.00749153
0.00669665
0.00606112
0.00555184
0.00512452
0.00474828
0.00443081
0.00416585
0.0039447
0.00376642
0.00366108
0.00356788
0.264759
0.104702
0.0585298
0.0391631
0.02862
0.0219935
0.0175362
0.0143635
0.0120085
0.0102142
0.008817
0.00770675
0.00680572
0.00606328
0.00545306
0.00495372
0.00453999
0.00419824
0.00393267
0.00375812
0.283364
0.126774
0.071702
0.0473282
0.0338663
0.0256617
0.0204608
0.0167971
0.0140486
0.0119411
0.010284
0.00895585
0.00788479
0.0070109
0.00628806
0.00568407
0.00517674
0.00474855
0.00438825
0.00409741
0.292299
0.141633
0.0819301
0.0541654
0.038923
0.0292874
0.0232722
0.0190784
0.0159338
0.0135145
0.0116261
0.0101118
0.0088805
0.00786904
0.00703
0.00632749
0.00573394
0.0052281
0.00479637
0.00446534
0.295943
0.148782
0.0871941
0.0576749
0.0415193
0.0310721
0.0246448
0.0202207
0.0169045
0.0143242
0.0123073
0.0107007
0.00939372
0.00831884
0.00742561
0.00667594
0.0060405
0.00549647
0.00502898
0.00465665
0.295943
0.148782
0.0871941
0.0576749
0.0415193
0.0310721
0.0246449
0.0202207
0.0169046
0.0143244
0.0123075
0.010701
0.00939429
0.00831972
0.00742699
0.0066781
0.00604386
0.0055017
0.0050375
0.00467571
0.292299
0.141633
0.0819301
0.0541654
0.0389231
0.0292874
0.0232723
0.0190786
0.015934
0.0135148
0.0116266
0.0101126
0.00888163
0.00787077
0.00703265
0.0063316
0.00574035
0.00523821
0.00481143
0.00448193
0.283364
0.126774
0.071702
0.0473282
0.0338663
0.0256617
0.0204609
0.0167972
0.0140488
0.0119414
0.0102845
0.00895656
0.00788583
0.00701243
0.00629046
0.00568779
0.00518254
0.00475776
0.00440362
0.00412945
0.264759
0.104702
0.0585298
0.0391631
0.02862
0.0219935
0.0175362
0.0143635
0.0120086
0.0102143
0.00881718
0.00770703
0.00680619
0.00606428
0.00545449
0.00495588
0.00454357
0.0042046
0.00394477
0.00377307
0.213564
0.055916
0.0283994
0.0193412
0.0146928
0.0118512
0.00989074
0.0085162
0.00749153
0.00669666
0.00606112
0.00555185
0.00512453
0.00474828
0.00443083
0.00416587
0.00394473
0.00376644
0.00366112
0.00356793
0.264759
0.104702
0.0585298
0.0391631
0.02862
0.0219935
0.0175362
0.0143635
0.0120086
0.0102143
0.00881717
0.00770703
0.00680618
0.00606429
0.00545447
0.00495586
0.00454354
0.00420457
0.00394474
0.00377303
0.311746
0.197541
0.130357
0.0911457
0.0668023
0.0508112
0.0397946
0.0319124
0.0260946
0.0216878
0.0182774
0.0155897
0.0134427
0.0117007
0.010271
0.00908526
0.00809255
0.00725765
0.00656285
0.00588655
0.31754
0.217754
0.151085
0.108549
0.0807156
0.0618726
0.0486773
0.0391417
0.0320585
0.0266714
0.0224899
0.019187
0.0165385
0.0143862
0.0126167
0.0111482
0.0099185
0.00888031
0.00800061
0.00724758
0.319723
0.227073
0.162232
0.118772
0.089361
0.0689926
0.0545303
0.0439841
0.0360993
0.0300741
0.0253812
0.0216639
0.0186759
0.0162428
0.0142385
0.0125704
0.011169
0.0099812
0.00896608
0.00809122
0.320484
0.23086
0.167176
0.123531
0.0935157
0.0724823
0.0574403
0.0464208
0.0381531
0.0318162
0.0268695
0.0229447
0.0197852
0.0172089
0.0150841
0.0133132
0.0118229
0.010557
0.00947207
0.00852806
0.320484
0.23086
0.167176
0.123531
0.0935158
0.0724823
0.0574404
0.0464209
0.0381533
0.0318165
0.0268699
0.0229453
0.0197862
0.0172103
0.0150861
0.0133161
0.0118271
0.0105631
0.00948044
0.00854236
0.319723
0.227073
0.162232
0.118772
0.0893611
0.0689927
0.0545305
0.0439844
0.0360997
0.0300746
0.025382
0.0216652
0.0186777
0.0162454
0.0142423
0.0125759
0.0111772
0.00999328
0.0089833
0.00812046
0.31754
0.217754
0.151086
0.108549
0.0807156
0.0618727
0.0486774
0.0391419
0.0320588
0.0266718
0.0224905
0.0191879
0.0165399
0.0143882
0.0126195
0.0111522
0.00992443
0.00888932
0.00801476
0.00726754
0.311746
0.197541
0.130357
0.0911457
0.0668023
0.0508112
0.0397946
0.0319124
0.0260946
0.0216878
0.0182774
0.0155897
0.0134427
0.0117007
0.010271
0.00908529
0.00809258
0.00725769
0.0065629
0.00588659
0.264759
0.104702
0.0585298
0.0391631
0.02862
0.0219935
0.0175362
0.0143635
0.0120085
0.0102142
0.00881701
0.00770675
0.00680573
0.00606328
0.00545307
0.00495375
0.00454001
0.00419827
0.0039327
0.00375816
0.283364
0.126774
0.071702
0.0473282
0.0338663
0.0256617
0.0204609
0.0167972
0.0140488
0.0119414
0.0102845
0.00895656
0.00788583
0.00701243
0.00629046
0.00568778
0.00518253
0.00475774
0.0044036
0.00412944
0.31754
0.217754
0.151086
0.108549
0.0807156
0.0618727
0.0486774
0.0391419
0.0320588
0.0266718
0.0224905
0.0191879
0.0165398
0.0143882
0.0126195
0.0111522
0.00992441
0.00888931
0.00801473
0.00726753
0.322005
0.239026
0.177588
0.133616
0.102323
0.079867
0.0635106
0.0513822
0.0422219
0.0351798
0.0296762
0.0253101
0.0217992
0.0189413
0.0165892
0.0146343
0.012995
0.0116091
0.0104253
0.00937047
0.323293
0.245617
0.187499
0.144537
0.112864
0.0894039
0.0718632
0.0585864
0.0483995
0.0404742
0.0342247
0.0292334
0.0251993
0.021903
0.0191824
0.016916
0.0150117
0.0133984
0.012018
0.0108116
0.323714
0.247819
0.191099
0.14881
0.117249
0.0935706
0.0756572
0.0619603
0.0513624
0.0430609
0.0364787
0.0311988
0.0269168
0.0234084
0.0205063
0.0180844
0.0160463
0.0143168
0.012834
0.0115323
0.323714
0.247819
0.191099
0.14881
0.117249
0.0935707
0.0756572
0.0619604
0.0513626
0.043061
0.036479
0.0311992
0.0269173
0.0234091
0.0205072
0.0180857
0.016048
0.0143191
0.0128364
0.0115308
0.323293
0.245617
0.187499
0.144537
0.112864
0.0894039
0.0718633
0.0585866
0.0483997
0.0404745
0.0342251
0.0292339
0.0252001
0.0219042
0.019184
0.0169182
0.0150148
0.0134026
0.0120239
0.010821
0.322005
0.239026
0.177588
0.133616
0.102323
0.079867
0.0635106
0.0513822
0.0422219
0.0351798
0.0296762
0.0253101
0.0217992
0.0189413
0.0165892
0.0146343
0.012995
0.0116091
0.0104253
0.00937042
0.31754
0.217754
0.151085
0.108549
0.0807156
0.0618726
0.0486773
0.0391417
0.0320585
0.0266714
0.0224899
0.019187
0.0165385
0.0143862
0.0126167
0.0111482
0.00991852
0.00888033
0.00800064
0.00724759
0.283364
0.126774
0.071702
0.0473282
0.0338663
0.0256617
0.0204608
0.0167971
0.0140486
0.0119411
0.010284
0.00895585
0.0078848
0.00701091
0.00628807
0.00568409
0.00517676
0.00474857
0.00438828
0.00409744
0.292299
0.141633
0.0819301
0.0541654
0.0389231
0.0292874
0.0232723
0.0190786
0.015934
0.0135148
0.0116266
0.0101126
0.00888162
0.00787076
0.00703264
0.00633159
0.00574034
0.0052382
0.00481142
0.00448191
0.319723
0.227073
0.162232
0.118772
0.0893611
0.0689927
0.0545305
0.0439844
0.0360997
0.0300746
0.025382
0.0216651
0.0186777
0.0162454
0.0142423
0.0125759
0.0111772
0.00999326
0.00898329
0.00812044
0.323293
0.245617
0.187499
0.144537
0.112864
0.0894039
0.0718633
0.0585866
0.0483997
0.0404745
0.0342251
0.0292339
0.0252001
0.0219041
0.019184
0.0169182
0.0150148
0.0134026
0.0120239
0.0108211
0.324288
0.250862
0.19613
0.154888
0.123591
0.09968
0.0812742
0.0669839
0.0557849
0.0469225
0.0398398
0.0341241
0.0294681
0.025641
0.0224685
0.0198171
0.0175842
0.0156884
0.0140613
0.0126289
0.32459
0.252403
0.19891
0.158543
0.12769
0.103871
0.08532
0.0707498
0.0592099
0.0499926
0.0425684
0.0365383
0.0316005
0.0275251
0.0241356
0.0212957
0.018899
0.0168603
0.0151052
0.0135464
0.32459
0.252403
0.19891
0.158543
0.12769
0.103871
0.08532
0.0707499
0.0592099
0.0499927
0.0425684
0.0365384
0.0316007
0.0275253
0.0241358
0.021296
0.0188993
0.0168606
0.0151046
0.0135394
0.324288
0.250862
0.19613
0.154888
0.123591
0.09968
0.0812742
0.0669839
0.0557849
0.0469226
0.0398398
0.0341241
0.0294681
0.0256411
0.0224685
0.0198171
0.0175842
0.0156884
0.0140613
0.0126287
0.323293
0.245617
0.187499
0.144537
0.112864
0.0894039
0.0718632
0.0585864
0.0483995
0.0404743
0.0342247
0.0292334
0.0251993
0.021903
0.0191824
0.016916
0.0150117
0.0133984
0.012018
0.0108115
0.319723
0.227073
0.162232
0.118772
0.089361
0.0689926
0.0545303
0.0439841
0.0360993
0.0300741
0.0253812
0.021664
0.0186759
0.0162428
0.0142385
0.0125704
0.011169
0.0099812
0.00896609
0.00809118
0.292299
0.141633
0.0819301
0.0541654
0.038923
0.0292874
0.0232722
0.0190784
0.0159338
0.0135145
0.0116261
0.0101119
0.00888051
0.00786905
0.00703001
0.0063275
0.00573395
0.00522811
0.00479639
0.00446534
0.295943
0.148782
0.0871941
0.0576749
0.0415193
0.0310721
0.0246449
0.0202207
0.0169046
0.0143244
0.0123075
0.010701
0.00939429
0.00831972
0.00742698
0.0066781
0.00604386
0.0055017
0.0050375
0.00467571
0.320484
0.23086
0.167176
0.123531
0.0935158
0.0724823
0.0574404
0.0464209
0.0381533
0.0318165
0.0268699
0.0229453
0.0197861
0.0172103
0.015086
0.0133161
0.0118271
0.0105631
0.00948045
0.00854234
0.323714
0.247819
0.191099
0.14881
0.117249
0.0935707
0.0756572
0.0619604
0.0513626
0.043061
0.036479
0.0311992
0.0269173
0.0234091
0.0205072
0.0180857
0.016048
0.0143191
0.0128364
0.0115308
0.32459
0.252403
0.19891
0.158543
0.12769
0.103871
0.08532
0.0707499
0.0592099
0.0499927
0.0425684
0.0365384
0.0316007
0.0275252
0.0241358
0.021296
0.0188993
0.0168606
0.0151046
0.0135394
0.324844
0.253685
0.20131
0.161836
0.131535
0.107943
0.0893701
0.0746126
0.0627921
0.0532535
0.0455014
0.0391575
0.0339306
0.029595
0.0259749
0.0229327
0.0203592
0.0181658
0.0162739
0.0145937
0.324844
0.253685
0.20131
0.161836
0.131535
0.107943
0.0893701
0.0746126
0.0627921
0.0532535
0.0455014
0.0391575
0.0339306
0.029595
0.0259749
0.0229327
0.0203592
0.0181658
0.0162739
0.0145937
0.32459
0.252403
0.19891
0.158543
0.12769
0.103871
0.08532
0.0707498
0.0592099
0.0499926
0.0425684
0.0365383
0.0316006
0.0275251
0.0241355
0.0212956
0.018899
0.0168603
0.0151052
0.0135463
0.323714
0.247819
0.191099
0.14881
0.117249
0.0935706
0.0756572
0.0619603
0.0513624
0.0430609
0.0364787
0.0311988
0.0269168
0.0234084
0.0205063
0.0180844
0.0160463
0.0143168
0.012834
0.0115322
0.320484
0.23086
0.167176
0.123531
0.0935157
0.0724823
0.0574403
0.0464208
0.0381531
0.0318162
0.0268695
0.0229448
0.0197853
0.0172089
0.0150841
0.0133132
0.0118229
0.010557
0.00947207
0.008528
0.295943
0.148782
0.0871941
0.0576749
0.0415193
0.0310721
0.0246448
0.0202207
0.0169045
0.0143242
0.0123073
0.0107007
0.00939373
0.00831884
0.00742561
0.00667595
0.0060405
0.00549647
0.00502898
0.00465665
0.295943
0.148782
0.0871941
0.0576749
0.0415193
0.0310721
0.0246448
0.0202207
0.0169045
0.0143242
0.0123073
0.0107007
0.00939372
0.00831885
0.00742562
0.00667595
0.0060405
0.00549647
0.00502899
0.00465665
0.320484
0.23086
0.167176
0.123531
0.0935157
0.0724823
0.0574403
0.0464208
0.0381531
0.0318162
0.0268695
0.0229447
0.0197852
0.0172089
0.0150841
0.0133132
0.0118229
0.0105571
0.00947208
0.00852803
0.323714
0.247819
0.191099
0.14881
0.117249
0.0935706
0.0756572
0.0619603
0.0513624
0.0430609
0.0364787
0.0311988
0.0269168
0.0234084
0.0205063
0.0180844
0.0160463
0.0143168
0.012834
0.0115323
0.32459
0.252403
0.19891
0.158543
0.12769
0.103871
0.08532
0.0707498
0.0592099
0.0499926
0.0425684
0.0365383
0.0316005
0.0275251
0.0241356
0.0212957
0.018899
0.0168603
0.0151052
0.0135464
0.324844
0.253685
0.20131
0.161836
0.131535
0.107943
0.0893701
0.0746126
0.0627921
0.0532535
0.0455014
0.0391575
0.0339306
0.029595
0.0259749
0.0229327
0.0203592
0.0181658
0.016274
0.0145937
0.324844
0.253685
0.20131
0.161836
0.131535
0.107943
0.0893701
0.0746126
0.0627921
0.0532535
0.0455014
0.0391576
0.0339306
0.029595
0.0259749
0.0229327
0.0203592
0.0181658
0.0162739
0.0145937
0.32459
0.252403
0.19891
0.158543
0.12769
0.103871
0.08532
0.0707499
0.0592099
0.0499927
0.0425684
0.0365384
0.0316007
0.0275253
0.0241358
0.0212959
0.0188993
0.0168606
0.0151046
0.0135394
0.323714
0.247819
0.191099
0.14881
0.117249
0.0935707
0.0756572
0.0619604
0.0513626
0.043061
0.036479
0.0311992
0.0269173
0.0234091
0.0205072
0.0180856
0.016048
0.0143191
0.0128364
0.0115308
0.320484
0.23086
0.167176
0.123531
0.0935158
0.0724823
0.0574404
0.0464209
0.0381533
0.0318165
0.0268699
0.0229454
0.0197862
0.0172103
0.015086
0.013316
0.0118271
0.0105631
0.00948043
0.00854232
0.295943
0.148782
0.0871941
0.0576749
0.0415193
0.0310721
0.0246449
0.0202207
0.0169046
0.0143244
0.0123075
0.010701
0.0093943
0.00831972
0.00742698
0.00667809
0.00604386
0.0055017
0.0050375
0.0046757
0.292299
0.141633
0.0819301
0.0541654
0.038923
0.0292874
0.0232722
0.0190784
0.0159338
0.0135145
0.0116261
0.0101119
0.00888051
0.00786905
0.00703001
0.0063275
0.00573395
0.00522812
0.00479639
0.00446535
0.319723
0.227073
0.162232
0.118772
0.089361
0.0689926
0.0545303
0.0439841
0.0360993
0.0300741
0.0253812
0.0216639
0.0186759
0.0162428
0.0142385
0.0125704
0.011169
0.00998122
0.00896611
0.00809121
0.323293
0.245617
0.187499
0.144537
0.112864
0.0894039
0.0718632
0.0585864
0.0483995
0.0404743
0.0342247
0.0292334
0.0251993
0.0219031
0.0191824
0.016916
0.0150118
0.0133984
0.012018
0.0108115
0.324288
0.250862
0.19613
0.154888
0.123591
0.09968
0.0812742
0.0669839
0.0557849
0.0469226
0.0398398
0.0341241
0.0294681
0.0256411
0.0224685
0.0198171
0.0175842
0.0156885
0.0140613
0.0126288
0.32459
0.252403
0.19891
0.158543
0.12769
0.103871
0.08532
0.0707499
0.0592099
0.0499927
0.0425684
0.0365384
0.0316007
0.0275253
0.0241358
0.021296
0.0188994
0.0168606
0.0151046
0.0135394
0.32459
0.252403
0.19891
0.158543
0.12769
0.103871
0.08532
0.0707498
0.0592099
0.0499926
0.0425684
0.0365383
0.0316005
0.0275251
0.0241356
0.0212957
0.018899
0.0168603
0.0151053
0.0135464
0.324288
0.250862
0.19613
0.154888
0.123591
0.09968
0.0812742
0.0669839
0.0557849
0.0469226
0.0398398
0.0341241
0.0294681
0.0256411
0.0224685
0.0198171
0.0175842
0.0156884
0.0140613
0.0126288
0.323293
0.245617
0.187499
0.144537
0.112864
0.0894039
0.0718633
0.0585866
0.0483997
0.0404745
0.0342251
0.0292339
0.0252001
0.0219042
0.0191839
0.0169182
0.0150148
0.0134026
0.0120239
0.010821
0.319723
0.227073
0.162232
0.118772
0.0893611
0.0689927
0.0545305
0.0439844
0.0360997
0.0300746
0.0253821
0.0216652
0.0186777
0.0162454
0.0142423
0.0125759
0.0111772
0.00999326
0.00898328
0.00812042
0.292299
0.141633
0.0819301
0.0541654
0.0389231
0.0292874
0.0232723
0.0190786
0.015934
0.0135148
0.0116266
0.0101126
0.00888163
0.00787076
0.00703264
0.00633159
0.00574035
0.0052382
0.00481142
0.0044819
0.283364
0.126774
0.071702
0.0473282
0.0338663
0.0256617
0.0204608
0.0167971
0.0140486
0.0119411
0.010284
0.00895585
0.0078848
0.00701091
0.00628807
0.00568408
0.00517675
0.00474856
0.00438828
0.00409744
0.31754
0.217754
0.151085
0.108549
0.0807156
0.0618726
0.0486773
0.0391417
0.0320586
0.0266714
0.0224899
0.019187
0.0165385
0.0143863
0.0126168
0.0111482
0.00991852
0.00888032
0.00800064
0.00724759
0.322005
0.239026
0.177588
0.133616
0.102323
0.079867
0.0635106
0.0513822
0.0422219
0.0351798
0.0296762
0.0253101
0.0217992
0.0189413
0.0165893
0.0146343
0.012995
0.0116091
0.0104253
0.00937044
0.323293
0.245617
0.187499
0.144537
0.112864
0.0894039
0.0718633
0.0585866
0.0483997
0.0404745
0.0342251
0.0292339
0.0252001
0.0219042
0.019184
0.0169182
0.0150148
0.0134027
0.0120239
0.010821
0.323714
0.247819
0.191099
0.14881
0.117249
0.0935707
0.0756572
0.0619604
0.0513626
0.043061
0.036479
0.0311992
0.0269173
0.0234091
0.0205072
0.0180857
0.0160481
0.0143191
0.0128364
0.0115308
0.323714
0.247819
0.191099
0.14881
0.117249
0.0935706
0.0756572
0.0619603
0.0513624
0.0430609
0.0364787
0.0311988
0.0269168
0.0234084
0.0205063
0.0180844
0.0160463
0.0143169
0.012834
0.0115323
0.323293
0.245617
0.187499
0.144537
0.112864
0.0894039
0.0718632
0.0585864
0.0483995
0.0404743
0.0342247
0.0292334
0.0251993
0.0219031
0.0191824
0.016916
0.0150117
0.0133984
0.012018
0.0108115
0.322005
0.239026
0.177588
0.133616
0.102323
0.079867
0.0635106
0.0513822
0.0422219
0.0351798
0.0296762
0.0253101
0.0217992
0.0189413
0.0165892
0.0146343
0.012995
0.0116091
0.0104253
0.00937043
0.31754
0.217754
0.151086
0.108549
0.0807156
0.0618727
0.0486774
0.0391419
0.0320588
0.0266718
0.0224905
0.0191879
0.0165399
0.0143882
0.0126195
0.0111522
0.00992442
0.0088893
0.00801473
0.00726751
0.283364
0.126774
0.071702
0.0473282
0.0338663
0.0256617
0.0204609
0.0167972
0.0140488
0.0119414
0.0102845
0.00895656
0.00788583
0.00701243
0.00629046
0.00568779
0.00518253
0.00475775
0.00440361
0.00412944
0.264759
0.104702
0.0585298
0.0391631
0.02862
0.0219935
0.0175362
0.0143635
0.0120085
0.0102142
0.00881701
0.00770675
0.00680573
0.00606329
0.00545307
0.00495374
0.00454
0.00419827
0.0039327
0.00375816
0.311746
0.197541
0.130357
0.0911457
0.0668023
0.0508112
0.0397946
0.0319124
0.0260946
0.0216878
0.0182774
0.0155897
0.0134427
0.0117007
0.010271
0.00908528
0.00809257
0.00725767
0.00656288
0.00588658
0.31754
0.217754
0.151086
0.108549
0.0807156
0.0618727
0.0486774
0.0391419
0.0320588
0.0266718
0.0224905
0.0191879
0.0165398
0.0143882
0.0126195
0.0111522
0.00992443
0.00888933
0.00801475
0.00726754
0.319723
0.227073
0.162232
0.118772
0.0893611
0.0689927
0.0545305
0.0439844
0.0360997
0.0300746
0.0253821
0.0216652
0.0186777
0.0162454
0.0142423
0.012576
0.0111772
0.00999328
0.0089833
0.00812044
0.320484
0.23086
0.167176
0.123531
0.0935158
0.0724823
0.0574404
0.0464209
0.0381533
0.0318165
0.0268699
0.0229454
0.0197862
0.0172103
0.0150861
0.0133161
0.0118271
0.0105631
0.00948044
0.00854234
0.320484
0.23086
0.167176
0.123531
0.0935157
0.0724823
0.0574403
0.0464208
0.0381531
0.0318162
0.0268695
0.0229447
0.0197853
0.017209
0.0150841
0.0133132
0.0118229
0.010557
0.00947207
0.00852801
0.319723
0.227073
0.162232
0.118772
0.089361
0.0689926
0.0545303
0.0439841
0.0360993
0.0300741
0.0253812
0.021664
0.0186759
0.0162428
0.0142385
0.0125704
0.011169
0.0099812
0.00896608
0.00809118
0.31754
0.217754
0.151085
0.108549
0.0807156
0.0618726
0.0486773
0.0391417
0.0320585
0.0266714
0.0224899
0.019187
0.0165385
0.0143862
0.0126167
0.0111482
0.0099185
0.0088803
0.00800061
0.00724756
0.311746
0.197541
0.130357
0.0911457
0.0668023
0.0508112
0.0397946
0.0319124
0.0260946
0.0216878
0.0182774
0.0155897
0.0134427
0.0117007
0.010271
0.00908528
0.00809257
0.00725766
0.00656287
0.00588657
0.264759
0.104702
0.0585298
0.0391631
0.02862
0.0219935
0.0175362
0.0143635
0.0120086
0.0102143
0.00881717
0.00770703
0.00680618
0.00606428
0.00545448
0.00495588
0.00454356
0.00420458
0.00394476
0.00377305
0.213564
0.055916
0.0283994
0.0193412
0.0146928
0.0118512
0.00989074
0.0085162
0.00749153
0.00669666
0.00606112
0.00555185
0.00512453
0.00474828
0.00443083
0.00416587
0.00394473
0.00376644
0.00366112
0.00356794
0.264759
0.104702
0.0585298
0.0391631
0.02862
0.0219935
0.0175362
0.0143635
0.0120086
0.0102143
0.00881718
0.00770703
0.00680618
0.00606429
0.00545449
0.00495587
0.00454356
0.00420459
0.00394477
0.00377308
0.283364
0.126774
0.071702
0.0473282
0.0338663
0.0256617
0.0204609
0.0167972
0.0140488
0.0119415
0.0102845
0.00895656
0.00788583
0.00701244
0.00629047
0.00568779
0.00518254
0.00475776
0.00440362
0.00412946
0.292299
0.141633
0.0819301
0.0541654
0.0389231
0.0292874
0.0232723
0.0190786
0.015934
0.0135148
0.0116266
0.0101126
0.00888163
0.00787077
0.00703265
0.0063316
0.00574035
0.00523821
0.00481143
0.00448192
0.295943
0.148782
0.0871941
0.0576749
0.0415193
0.0310721
0.0246449
0.0202207
0.0169046
0.0143244
0.0123075
0.010701
0.0093943
0.00831973
0.00742699
0.0066781
0.00604386
0.0055017
0.0050375
0.00467571
0.295943
0.148782
0.0871941
0.0576749
0.0415193
0.0310721
0.0246448
0.0202207
0.0169045
0.0143242
0.0123073
0.0107007
0.00939373
0.00831885
0.00742562
0.00667594
0.0060405
0.00549647
0.00502898
0.00465665
0.292299
0.141633
0.0819301
0.0541654
0.038923
0.0292874
0.0232722
0.0190784
0.0159338
0.0135145
0.0116261
0.0101119
0.00888051
0.00786905
0.00703
0.00632749
0.00573394
0.00522811
0.00479638
0.00446533
0.283364
0.126774
0.071702
0.0473282
0.0338663
0.0256617
0.0204608
0.0167971
0.0140486
0.0119411
0.010284
0.00895585
0.0078848
0.0070109
0.00628807
0.00568408
0.00517675
0.00474855
0.00438826
0.00409741
0.264759
0.104702
0.0585298
0.0391631
0.02862
0.0219935
0.0175362
0.0143635
0.0120085
0.0102142
0.00881701
0.00770675
0.00680573
0.00606327
0.00545306
0.00495374
0.00454
0.00419826
0.00393269
0.00375814
0.213564
0.055916
0.0283994
0.0193412
0.0146928
0.0118512
0.00989074
0.0085162
0.00749153
0.00669665
0.00606112
0.00555184
0.00512453
0.00474827
0.00443082
0.00416586
0.00394472
0.00376643
0.0036611
0.00356791
0.00497241
0.00422678
0.00358768
0.00322259
0.00300384
0.00286657
0.00276819
0.00269027
0.00262631
0.00257545
0.00253318
0.00249751
0.00246512
0.00243606
0.00241084
0.00238913
0.00237047
0.00235456
0.00234102
0.00232956
0.00231981
0.00231134
0.00230502
0.00229921
0.00229445
0.00228959
0.00228479
0.00228072
0.00227816
0.00227601
0.00227433
0.00227228
0.0022701
0.0022686
0.00226849
0.00226797
0.00226815
0.00226768
0.00226694
0.00226577
0.00418248
0.00368248
0.00326483
0.00298229
0.00279325
0.00265839
0.00255402
0.00246699
0.00239077
0.00232712
0.00227403
0.00222966
0.00219054
0.00215688
0.00212793
0.00210291
0.00208129
0.00206276
0.00204704
0.00203373
0.00202249
0.00201279
0.00200517
0.00199729
0.00199083
0.00198558
0.00198097
0.00197707
0.00197398
0.00197093
0.00196858
0.0019669
0.00196531
0.00196419
0.00196321
0.00196273
0.00196269
0.00196251
0.00196242
0.00196233
0.00407294
0.00368882
0.00337901
0.00313722
0.0029581
0.00281088
0.00268462
0.00257859
0.00248947
0.00241353
0.00234761
0.00229084
0.00224162
0.00219926
0.00216292
0.00213163
0.00210469
0.00208166
0.00206212
0.00204553
0.00203148
0.00201939
0.00200952
0.00199994
0.00199181
0.00198514
0.00197935
0.00197472
0.0019713
0.00196808
0.00196472
0.00196221
0.00196051
0.00195956
0.0019603
0.00195882
0.0019578
0.00195743
0.00195723
0.00195721
0.00397067
0.00370966
0.00347374
0.00326764
0.00309016
0.00293593
0.00280155
0.00268442
0.00258217
0.00249291
0.00241505
0.00234728
0.00228792
0.00223622
0.00219164
0.00215324
0.00212028
0.00209208
0.00206808
0.00204764
0.00203046
0.0020159
0.00200369
0.00199294
0.00198298
0.00197463
0.0019676
0.00196185
0.00195725
0.00195334
0.00194908
0.00194597
0.00194375
0.00194234
0.00194145
0.00194181
0.00194058
0.00193986
0.00193965
0.00193959
0.00427491
0.00386342
0.00357613
0.00334566
0.00315426
0.00299259
0.00285459
0.00273363
0.00262693
0.00253277
0.00244974
0.00237671
0.00231237
0.00225569
0.00220637
0.00216369
0.00212695
0.00209548
0.00206862
0.0020458
0.00202627
0.00200969
0.00199592
0.00198396
0.00197242
0.00196289
0.00195497
0.00194854
0.00194344
0.00193926
0.00193457
0.00193111
0.00192854
0.00192682
0.00192588
0.00192666
0.00192566
0.00192514
0.00192434
0.00192429
0.00435761
0.00391145
0.00360861
0.00336593
0.00316594
0.00299762
0.00285582
0.00273295
0.00262397
0.00252738
0.00244195
0.00236661
0.00230007
0.00224176
0.00219132
0.0021477
0.0021101
0.00207786
0.00205035
0.00202699
0.00200713
0.00199026
0.00197614
0.00196379
0.001952
0.00194228
0.0019342
0.00192761
0.00192236
0.00191801
0.00191316
0.00190958
0.00190693
0.00190509
0.00190392
0.0019045
0.00190637
0.00190479
0.00190374
0.00190308
0.0042977
0.00383614
0.0035357
0.00330188
0.00310827
0.00294439
0.00280491
0.00268264
0.00257446
0.00247903
0.0023951
0.00232153
0.00225695
0.00220054
0.00215189
0.00211002
0.00207411
0.00204345
0.00201734
0.00199517
0.00197631
0.00196042
0.00194687
0.00193472
0.00192338
0.00191411
0.00190645
0.00190023
0.00189517
0.00189075
0.00188595
0.00188251
0.00188006
0.0018784
0.00187736
0.00187802
0.00187957
0.00187799
0.001877
0.00187634
0.00391791
0.00363619
0.00338484
0.00316894
0.00298508
0.00282943
0.00269505
0.0025785
0.00247722
0.00238912
0.00231252
0.00224582
0.00218755
0.00213666
0.00209307
0.00205572
0.00202373
0.0019967
0.00197362
0.00195404
0.00193733
0.00192328
0.00191118
0.00189996
0.00188968
0.00188142
0.00187471
0.00186927
0.00186473
0.00186042
0.00185596
0.00185288
0.00185085
0.00184953
0.00184888
0.00184909
0.00184992
0.00184892
0.00184812
0.00184762
0.00395288
0.00354517
0.00323503
0.0029965
0.00281027
0.00266348
0.00254412
0.00244293
0.00235649
0.00228242
0.00221903
0.00216384
0.00211636
0.00207525
0.00203947
0.00200836
0.00198171
0.001959
0.00193978
0.00192352
0.00190973
0.00189814
0.00188827
0.00187876
0.00187011
0.00186326
0.00185766
0.00185316
0.00184926
0.00184522
0.0018414
0.00183894
0.00183739
0.00183639
0.00183584
0.00183634
0.00183696
0.00183559
0.00183474
0.00183425
0.00416163
0.00366802
0.00320794
0.00289949
0.00269621
0.00255762
0.00245538
0.0023729
0.00230014
0.00224128
0.0021946
0.00215302
0.00211532
0.00207836
0.00204685
0.00202063
0.00199845
0.00197972
0.00196394
0.00195061
0.00193935
0.00192975
0.00192205
0.00191385
0.00190765
0.0019027
0.00189823
0.00189428
0.00189055
0.00188704
0.0018848
0.00188318
0.00188179
0.00188071
0.0018801
0.00188073
0.0018796
0.00187872
0.00187816
0.00187752
0.00497241
0.0042268
0.00358771
0.00322258
0.0030039
0.00286669
0.00276838
0.00269052
0.00262662
0.00257555
0.00253388
0.00249766
0.00246515
0.00243593
0.00241064
0.00238904
0.00237052
0.00235472
0.00234129
0.00232991
0.0023202
0.00231185
0.00230564
0.00229986
0.00229509
0.0022901
0.00228521
0.00228113
0.00227849
0.00227629
0.00227464
0.00227251
0.00227042
0.00226901
0.00226841
0.00226904
0.00226873
0.00226769
0.0022664
0.00226461
0.00416162
0.00366797
0.0032079
0.00289948
0.00269599
0.00255735
0.00245508
0.00237257
0.00229976
0.00224113
0.00219365
0.00215319
0.00211578
0.00207866
0.00204691
0.00202073
0.00199856
0.0019798
0.00196394
0.00195052
0.00193916
0.00192945
0.00192166
0.00191355
0.00190741
0.00190249
0.00189808
0.00189422
0.00189065
0.00188733
0.00188509
0.00188345
0.00188195
0.0018803
0.00188016
0.00188013
0.00187936
0.00187901
0.00187888
0.00187857
0.00423735
0.00376496
0.00336598
0.00316141
0.00299142
0.00282471
0.00267442
0.00253491
0.00240284
0.00229052
0.00218999
0.00210531
0.00202621
0.00195643
0.00189771
0.00184704
0.00180307
0.00176527
0.00173334
0.00170612
0.00168271
0.00166306
0.00164648
0.00162193
0.00160405
0.00159497
0.0015878
0.00158175
0.00157444
0.00156102
0.00155381
0.00155251
0.00155229
0.00155048
0.00154491
0.00154244
0.00154406
0.00154661
0.00154921
0.00155096
0.00550219
0.00503019
0.00461143
0.00425835
0.00395479
0.00369242
0.00346234
0.00325907
0.0030793
0.0029193
0.00277826
0.00265499
0.00254038
0.00244135
0.00235684
0.00228221
0.00221853
0.00216333
0.00211661
0.00207662
0.00204125
0.00201168
0.00198571
0.00195328
0.00192896
0.00191141
0.00189876
0.00188951
0.00187864
0.00186079
0.00184877
0.00184384
0.00184347
0.0018422
0.00184078
0.00183719
0.00183298
0.00183393
0.00183746
0.00183985
0.00686072
0.00614261
0.00556259
0.00508164
0.00468242
0.00434128
0.00404331
0.00378137
0.00355045
0.003347
0.003168
0.0030107
0.00286718
0.00274475
0.00263904
0.00254744
0.0024682
0.0024005
0.00234115
0.00229108
0.00224706
0.00221018
0.00217714
0.00213886
0.00211111
0.00208961
0.00207259
0.0020605
0.0020461
0.00202637
0.00201351
0.00200704
0.00200546
0.00200382
0.00200131
0.00199561
0.00199227
0.00199381
0.00199751
0.00200034
0.00726513
0.00662848
0.0060542
0.0055481
0.0051056
0.00472133
0.00439149
0.00410142
0.0038434
0.00361471
0.00341275
0.00323451
0.00307392
0.00293565
0.00281566
0.00271155
0.00262142
0.00254374
0.00247687
0.00241992
0.00237089
0.0023287
0.0022902
0.00224866
0.00221877
0.00219508
0.00217685
0.00216203
0.00214643
0.00212577
0.00211268
0.00210524
0.00210206
0.00210019
0.00209733
0.00209271
0.00209081
0.00209243
0.00209468
0.00209671
0.00757733
0.00685749
0.00624497
0.00571775
0.00526098
0.00486294
0.00451971
0.00422271
0.00395747
0.00372134
0.00351234
0.00332768
0.00316157
0.00301792
0.00289323
0.00278496
0.00269115
0.00261019
0.00254061
0.00248117
0.00243037
0.00238637
0.00234624
0.00230408
0.00227247
0.00224773
0.00222799
0.00221228
0.00219584
0.0021749
0.00216165
0.00215391
0.00214975
0.00214763
0.00214584
0.00214136
0.00214156
0.00214231
0.00214339
0.00214498
0.0072624
0.00663189
0.00606117
0.00555869
0.00512042
0.00473936
0.00441347
0.00412798
0.00387319
0.00364693
0.00344692
0.00327008
0.00311049
0.00297299
0.00285383
0.00275046
0.00266098
0.00258379
0.00251759
0.00246081
0.00241224
0.00237057
0.00233195
0.00229011
0.0022586
0.00223407
0.00221527
0.00220017
0.00218411
0.0021631
0.00214946
0.00214171
0.00213817
0.00213646
0.00213538
0.00213588
0.0021324
0.00213112
0.00213233
0.00213294
0.00685352
0.00614174
0.00556252
0.00508437
0.00468677
0.00435407
0.00406436
0.00380819
0.00358141
0.00338057
0.00320334
0.00304524
0.00290332
0.0027813
0.00267582
0.00258449
0.00250532
0.0024376
0.00237991
0.00232901
0.00228568
0.00224914
0.00221415
0.00217433
0.00214496
0.00212316
0.00210701
0.00209493
0.00208039
0.00205977
0.00204598
0.00203896
0.00203735
0.0020363
0.00203631
0.00203823
0.00203863
0.00203376
0.00203154
0.00203357
0.00548783
0.00499595
0.00455775
0.00421103
0.00392801
0.00367897
0.00345601
0.00325512
0.00307555
0.00291428
0.00277174
0.0026402
0.00252626
0.00242871
0.0023426
0.00226752
0.00220121
0.00214585
0.00209765
0.0020572
0.00202207
0.00199331
0.00196509
0.00193046
0.00190444
0.00188653
0.00187423
0.00186486
0.00185305
0.00183276
0.0018199
0.00181558
0.00181607
0.00181637
0.00181606
0.00181628
0.00181458
0.00180958
0.00181022
0.00181279
0.00423743
0.00376518
0.00336601
0.00316168
0.00299236
0.00282572
0.00267539
0.00253572
0.00240363
0.00229062
0.00219379
0.00210169
0.00202281
0.00195647
0.0018986
0.00184734
0.00180303
0.00176515
0.00173331
0.00170622
0.00168324
0.00166393
0.00164734
0.00162227
0.00160419
0.00159536
0.00158813
0.00158207
0.00157365
0.00155915
0.00155228
0.00155122
0.00155129
0.00155175
0.00155121
0.00155052
0.00154531
0.00154294
0.00154493
0.00154768
0.00418249
0.00368251
0.00326481
0.00298233
0.00279335
0.00265862
0.00255427
0.00246723
0.00239107
0.00232708
0.00227491
0.00222931
0.00219016