/*--------------------------------*- C++ -*----------------------------------*\
| =========                 |                                                 |
| \\      /  F ield         | OpenFOAM: The Open Source CFD Toolbox           |
|  \\    /   O peration     | Version:  2212                                  |
|   \\  /    A nd           | Website:  www.openfoam.com                      |
|    \\/     M anipulation  |                                                 |
\*---------------------------------------------------------------------------*/
FoamFile
{
    version     2.0;
    format      ascii;
    arch        "LSB;label=32;scalar=64";
    class       surfaceScalarField;
    location    "0.75";
    object      phi;
}
// * * * * * * * * * * * * * * * * * * * * * * * * * * * * * * * * * * * * * //

dimensions      [0 3 -1 0 0 0 0];

oriented        oriented;

internalField   nonuniform List<scalar> 
19019
(
3.3225e-07
1.09686e-09
1.09679e-09
2.79191e-07
2.65295e-08
2.65295e-08
2.49218e-07
1.49863e-08
1.49862e-08
2.29255e-07
9.98177e-09
9.98166e-09
2.14836e-07
7.20947e-09
7.20962e-09
2.03201e-07
5.81739e-09
5.81764e-09
1.93774e-07
4.71307e-09
4.71394e-09
1.86007e-07
3.88238e-09
3.88413e-09
1.7936e-07
3.32171e-09
3.32501e-09
1.73535e-07
2.90984e-09
2.91595e-09
1.68367e-07
2.57878e-09
2.58883e-09
1.63754e-07
2.29813e-09
2.31479e-09
1.59611e-07
2.05535e-09
2.08794e-09
1.55868e-07
1.83889e-09
1.90364e-09
1.52546e-07
1.60574e-09
1.71632e-09
1.49705e-07
1.33207e-09
1.50939e-09
1.47508e-07
9.71324e-10
1.22545e-09
1.47226e-07
-1.87942e-11
3.00784e-10
1.51091e-07
-2.13333e-09
-1.7325e-09
-2.39755e-08
-1.97179e-08
6.3138e-07
3.58749e-09
7.4029e-09
6.14564e-07
2.26452e-08
2.07004e-08
5.86446e-07
2.4375e-08
1.87294e-08
5.61727e-07
1.8853e-08
1.58472e-08
5.39621e-07
1.55659e-08
1.37497e-08
5.20643e-07
1.35041e-08
1.12915e-08
5.04702e-07
1.19414e-08
8.71318e-09
4.90956e-07
1.07821e-08
6.84602e-09
4.78747e-07
9.91745e-09
5.61322e-09
4.67685e-07
9.1881e-09
4.7834e-09
4.57541e-07
8.53133e-09
4.19169e-09
4.4818e-07
7.91595e-09
3.74295e-09
4.39513e-07
7.31685e-09
3.40609e-09
4.31476e-07
6.7125e-09
3.16312e-09
4.24095e-07
6.04051e-09
2.94599e-09
4.17515e-07
5.20706e-09
2.70531e-09
4.12252e-07
3.94833e-09
2.28602e-09
4.10026e-07
1.31083e-09
8.9631e-10
4.15524e-07
-4.163e-09
-3.46909e-09
-2.24005e-08
-2.32685e-08
8.90375e-07
2.85246e-09
6.33238e-09
8.82486e-07
1.34078e-08
1.7126e-08
8.70359e-07
1.78656e-08
1.86364e-08
8.55112e-07
1.69522e-08
1.71478e-08
8.39982e-07
1.53349e-08
1.53615e-08
8.25533e-07
1.41611e-08
1.37921e-08
8.11763e-07
1.33641e-08
1.23464e-08
7.98768e-07
1.26488e-08
1.11284e-08
7.86694e-07
1.18424e-08
1.01491e-08
7.7555e-07
1.09676e-08
9.36442e-09
7.65196e-07
1.01104e-08
8.77523e-09
7.55481e-07
9.27819e-09
8.3533e-09
7.46281e-07
8.4598e-09
8.05614e-09
7.37544e-07
7.61432e-09
7.83589e-09
7.29267e-07
6.64644e-09
7.67068e-09
7.21565e-07
5.40532e-09
7.50378e-09
7.14684e-07
3.6017e-09
7.22748e-09
7.08615e-07
7.8175e-10
6.59837e-09
7.03172e-07
-4.16724e-09
5.44652e-09
-1.10052e-08
2.54513e-09
1.07432e-06
1.06471e-09
5.56891e-09
1.06824e-06
5.58615e-09
1.39003e-08
1.06138e-06
8.46327e-09
1.62622e-08
1.05338e-06
9.03859e-09
1.59099e-08
1.0451e-06
8.61583e-09
1.50044e-08
1.0372e-06
8.11713e-09
1.39373e-08
1.0298e-06
7.78084e-09
1.29837e-08
1.02278e-06
7.54467e-09
1.21258e-08
1.01591e-06
7.35325e-09
1.13633e-08
1.00909e-06
7.05672e-09
1.07238e-08
1.00236e-06
6.5971e-09
1.02502e-08
9.95645e-07
6.06473e-09
9.92487e-09
9.88861e-07
5.51455e-09
9.72894e-09
9.81864e-07
4.9443e-09
9.66664e-09
9.74447e-07
4.31737e-09
9.74609e-09
9.66323e-07
3.52673e-09
1.00031e-08
9.57009e-07
2.40048e-09
1.05149e-08
9.45671e-07
7.53718e-10
1.13658e-08
9.31036e-07
-1.95107e-09
1.24189e-08
-4.46386e-09
1.59396e-08
1.16914e-06
4.06383e-15
4.90659e-09
1.16312e-06
4.36437e-14
1.16086e-08
1.15731e-06
1.77121e-13
1.42759e-08
1.15201e-06
3.81082e-13
1.43349e-08
1.14689e-06
7.42277e-13
1.37336e-08
1.14203e-06
1.4743e-12
1.29754e-08
1.1377e-06
2.94692e-12
1.21103e-08
1.13392e-06
5.44859e-12
1.13239e-08
1.13058e-06
9.8394e-12
1.06768e-08
1.12739e-06
1.71899e-11
1.02352e-08
1.12399e-06
2.95163e-11
9.96932e-09
1.12019e-06
4.99238e-11
9.81355e-09
1.11583e-06
8.38259e-11
9.79253e-09
1.11067e-06
1.44709e-10
9.95826e-09
1.10439e-06
2.45766e-10
1.03506e-08
1.09643e-06
4.05769e-10
1.1078e-08
1.08581e-06
6.55378e-10
1.23617e-08
1.07102e-06
1.07824e-09
1.44648e-08
1.04995e-06
1.74346e-09
1.73774e-08
3.65854e-09
2.58828e-08
1.16914e-06
-1.06468e-09
4.90659e-09
1.16312e-06
-5.58605e-09
1.16086e-08
1.15731e-06
-8.4631e-09
1.4276e-08
1.15201e-06
-9.03827e-09
1.43348e-08
1.14689e-06
-8.61496e-09
1.37331e-08
1.14204e-06
-8.11506e-09
1.29743e-08
1.13771e-06
-7.77652e-09
1.21084e-08
1.13393e-06
-7.53661e-09
1.13207e-08
1.13061e-06
-7.33816e-09
1.0671e-08
1.12743e-06
-7.03096e-09
1.02251e-08
1.12406e-06
-6.55444e-09
9.95254e-09
1.12032e-06
-5.99561e-09
9.78549e-09
1.11606e-06
-5.40037e-09
9.74144e-09
1.1111e-06
-4.7484e-09
9.86082e-09
1.10516e-06
-3.99949e-09
1.01805e-08
1.09776e-06
-2.97622e-09
1.07842e-08
1.08804e-06
-1.48727e-09
1.18588e-08
1.07471e-06
7.68934e-10
1.36402e-08
1.05601e-06
4.27961e-09
1.61616e-08
1.03299e-08
2.1597e-08
1.07432e-06
-2.85248e-09
5.56893e-09
1.06824e-06
-1.34079e-08
1.39004e-08
1.06138e-06
-1.78658e-08
1.6262e-08
1.05338e-06
-1.69525e-08
1.59093e-08
1.0451e-06
-1.53351e-08
1.50031e-08
1.03721e-06
-1.41609e-08
1.39352e-08
1.02982e-06
-1.33634e-08
1.29805e-08
1.02281e-06
-1.26477e-08
1.21206e-08
1.01595e-06
-1.18402e-08
1.13543e-08
1.00918e-06
-1.09636e-08
1.07076e-08
1.00251e-06
-1.01044e-08
1.02224e-08
9.95906e-07
-9.26958e-09
9.87533e-09
9.8931e-07
-8.44659e-09
9.64303e-09
9.82634e-07
-7.5926e-09
9.51943e-09
9.75757e-07
-6.61634e-09
9.49447e-09
9.68538e-07
-5.31233e-09
9.55537e-09
9.60776e-07
-3.4388e-09
9.71316e-09
9.51957e-07
-4.41014e-10
1.00292e-08
9.40971e-07
4.64862e-09
1.06168e-08
1.41801e-08
1.15657e-08
8.90375e-07
-3.58748e-09
6.33236e-09
8.82486e-07
-2.26453e-08
1.71258e-08
8.7036e-07
-2.43751e-08
1.86358e-08
8.55114e-07
-1.88532e-08
1.71469e-08
8.39985e-07
-1.55665e-08
1.53602e-08
8.25539e-07
-1.35052e-08
1.37904e-08
8.11775e-07
-1.19433e-08
1.23436e-08
7.98789e-07
-1.07852e-08
1.11233e-08
7.86731e-07
-9.92278e-09
1.01409e-08
7.75614e-07
-9.19759e-09
9.35083e-09
7.65305e-07
-8.54821e-09
8.75262e-09
7.55664e-07
-7.94311e-09
8.31473e-09
7.46584e-07
-7.35922e-09
7.99245e-09
7.3804e-07
-6.78173e-09
7.73395e-09
7.30072e-07
-6.14984e-09
7.50145e-09
7.22935e-07
-5.37242e-09
7.19689e-09
7.17038e-07
-4.21249e-09
6.67051e-09
7.12577e-07
-1.50336e-09
5.52376e-09
7.0974e-07
3.91197e-09
3.5738e-09
2.0609e-08
-1.51406e-09
6.3138e-07
-1.09679e-09
7.40288e-09
6.14564e-07
-2.65295e-08
2.07003e-08
5.86446e-07
-1.49862e-08
1.87291e-08
5.61728e-07
-9.98167e-09
1.58467e-08
5.39622e-07
-7.20962e-09
1.3749e-08
5.20644e-07
-5.81764e-09
1.12902e-08
5.04704e-07
-4.71394e-09
8.71106e-09
4.9096e-07
-3.88412e-09
6.84244e-09
4.78755e-07
-3.32499e-09
5.6071e-09
4.67701e-07
-2.91592e-09
4.77265e-09
4.57572e-07
-2.58878e-09
4.1701e-09
4.48238e-07
-2.31472e-09
3.70521e-09
4.39609e-07
-2.08783e-09
3.35717e-09
4.31623e-07
-1.9035e-09
3.10853e-09
4.24322e-07
-1.71615e-09
2.86736e-09
4.17882e-07
-1.50907e-09
2.57622e-09
4.12875e-07
-1.22499e-09
2.01953e-09
4.11368e-07
-3.00049e-10
3.04401e-10
4.18014e-07
1.73357e-09
-4.46737e-09
1.97215e-08
-2.26618e-08
3.3225e-07
1.09686e-09
2.79191e-07
2.65295e-08
2.49218e-07
1.49863e-08
2.29255e-07
9.98176e-09
2.14836e-07
7.20945e-09
2.03201e-07
5.81738e-09
1.93774e-07
4.71306e-09
1.86007e-07
3.88237e-09
1.7936e-07
3.3217e-09
1.73535e-07
2.90983e-09
1.68367e-07
2.57878e-09
1.63754e-07
2.29812e-09
1.59611e-07
2.05532e-09
1.55869e-07
1.83889e-09
1.52547e-07
1.60582e-09
1.49706e-07
1.33218e-09
1.47509e-07
9.71542e-10
1.47228e-07
-1.84829e-11
1.51094e-07
-2.13284e-09
-2.39743e-08
6.3138e-07
7.40288e-09
3.58748e-09
6.14564e-07
2.07003e-08
2.26453e-08
5.86446e-07
1.87291e-08
2.43751e-08
5.61728e-07
1.58467e-08
1.88531e-08
5.39622e-07
1.3749e-08
1.55665e-08
5.20644e-07
1.12902e-08
1.35052e-08
5.04704e-07
8.71107e-09
1.19433e-08
4.9096e-07
6.84245e-09
1.07852e-08
4.78755e-07
5.60711e-09
9.92284e-09
4.67701e-07
4.77266e-09
9.19769e-09
4.57571e-07
4.17012e-09
8.54835e-09
4.48237e-07
3.70525e-09
7.94331e-09
4.39609e-07
3.35728e-09
7.35949e-09
4.31622e-07
3.10859e-09
6.78218e-09
4.2432e-07
2.86731e-09
6.15048e-09
4.1788e-07
2.57624e-09
5.37329e-09
4.12872e-07
2.01948e-09
4.21373e-09
4.11363e-07
3.04316e-10
1.50515e-09
4.18008e-07
-4.46763e-09
-3.90934e-09
-2.26607e-08
-2.06043e-08
9.23617e-07
7.03375e-09
7.03378e-09
9.25318e-07
1.98494e-08
1.98495e-08
9.17185e-07
2.27958e-08
2.27961e-08
9.04277e-07
2.23007e-08
2.23013e-08
8.90537e-07
2.06187e-08
2.06197e-08
8.77416e-07
1.78508e-08
1.78527e-08
8.65451e-07
1.46926e-08
1.46959e-08
8.54783e-07
1.21761e-08
1.21812e-08
8.45359e-07
1.03176e-08
1.03268e-08
8.3704e-07
8.92909e-09
8.94566e-09
8.29649e-07
7.86182e-09
7.89062e-09
8.23013e-07
7.01831e-09
7.06625e-09
8.17054e-07
6.32363e-09
6.39914e-09
8.11819e-07
5.69404e-09
5.81248e-09
8.07401e-07
5.02254e-09
5.20875e-09
8.03959e-07
4.22061e-09
4.50288e-09
8.01682e-07
3.07775e-09
3.50425e-09
7.99936e-07
1.15291e-09
1.79389e-09
7.95542e-07
-2.16493e-09
-1.37725e-09
-7.98669e-09
-6.91814e-09
1.1589e-06
5.28115e-09
6.10254e-09
1.1657e-06
1.3998e-08
1.61827e-08
1.16845e-06
1.79767e-08
2.07063e-08
1.16661e-06
1.91768e-08
2.21044e-08
1.16221e-06
1.88729e-08
2.15059e-08
1.15655e-06
1.75396e-08
1.97709e-08
1.15048e-06
1.56748e-08
1.74269e-08
1.14459e-06
1.38676e-08
1.53327e-08
1.13917e-06
1.22519e-08
1.36356e-08
1.13435e-06
1.08303e-08
1.22791e-08
1.13015e-06
9.63498e-09
1.12063e-08
1.12653e-06
8.62614e-09
1.03659e-08
1.12348e-06
7.72819e-09
9.7002e-09
1.12101e-06
6.85903e-09
9.14266e-09
1.11913e-06
5.92641e-09
8.64774e-09
1.11788e-06
4.82611e-09
8.14069e-09
1.11728e-06
3.3945e-09
7.51879e-09
1.117e-06
1.40717e-09
6.61793e-09
1.11654e-06
-1.46181e-09
5.20849e-09
-5.40399e-09
3.45053e-09
1.32762e-06
2.71808e-09
4.93114e-09
1.33539e-06
7.1204e-09
1.30091e-08
1.34286e-06
9.55258e-09
1.72162e-08
1.34847e-06
1.05767e-08
1.8901e-08
1.35197e-06
1.08731e-08
1.95052e-08
1.35375e-06
1.0577e-08
1.9122e-08
1.35441e-06
9.88578e-09
1.81119e-08
1.35454e-06
9.03574e-09
1.68296e-08
1.35448e-06
8.17672e-09
1.5493e-08
1.35439e-06
7.36736e-09
1.42808e-08
1.35432e-06
6.63172e-09
1.33274e-08
1.3543e-06
5.9659e-09
1.26043e-08
1.35433e-06
5.34395e-09
1.20769e-08
1.3544e-06
4.73217e-09
1.17237e-08
1.35447e-06
4.07334e-09
1.15359e-08
1.35445e-06
3.32173e-09
1.1526e-08
1.35422e-06
2.39904e-09
1.17381e-08
1.35354e-06
1.23628e-09
1.22178e-08
1.35174e-06
-2.22431e-10
1.2976e-08
-1.50157e-09
1.43274e-08
1.41518e-06
2.98467e-14
4.19296e-09
1.42279e-06
9.31847e-14
1.11162e-08
1.43152e-06
1.61077e-13
1.50992e-08
1.4398e-06
3.71405e-13
1.66311e-08
1.44712e-06
8.37657e-13
1.72798e-08
1.45316e-06
1.66359e-12
1.75182e-08
1.45798e-06
2.94632e-12
1.71665e-08
1.46188e-06
5.02523e-12
1.64584e-08
1.46514e-06
8.82169e-12
1.55845e-08
1.468e-06
1.6139e-11
1.47262e-08
1.47062e-06
2.86928e-11
1.39506e-08
1.47303e-06
4.99524e-11
1.33183e-08
1.47516e-06
8.01851e-11
1.29267e-08
1.47694e-06
1.26129e-10
1.27842e-08
1.47832e-06
1.99962e-10
1.28486e-08
1.47919e-06
3.12223e-10
1.32153e-08
1.47946e-06
4.8059e-10
1.40082e-08
1.47909e-06
7.2796e-10
1.53437e-08
1.47795e-06
1.10165e-09
1.71963e-08
1.7754e-09
1.92777e-08
1.41518e-06
-2.71805e-09
4.19294e-09
1.42279e-06
-7.12032e-09
1.11162e-08
1.43152e-06
-9.55245e-09
1.50991e-08
1.4398e-06
-1.05764e-08
1.66308e-08
1.44713e-06
-1.08723e-08
1.7279e-08
1.45316e-06
-1.05752e-08
1.75165e-08
1.45799e-06
-9.88255e-09
1.71636e-08
1.46189e-06
-9.03012e-09
1.64538e-08
1.46516e-06
-8.16682e-09
1.55775e-08
1.46804e-06
-7.34795e-09
1.47145e-08
1.47068e-06
-6.59682e-09
1.39303e-08
1.47315e-06
-5.90633e-09
1.32817e-08
1.47536e-06
-5.25586e-09
1.28635e-08
1.47726e-06
-4.59744e-09
1.26853e-08
1.47879e-06
-3.85273e-09
1.26984e-08
1.47989e-06
-2.95979e-09
1.29557e-08
1.48046e-06
-1.80844e-09
1.35816e-08
1.48045e-06
-2.9695e-10
1.46706e-08
1.47983e-06
1.73432e-09
1.61557e-08
4.13744e-09
1.76516e-08
1.32763e-06
-5.28118e-09
4.9311e-09
1.33539e-06
-1.39981e-08
1.30089e-08
1.34286e-06
-1.79768e-08
1.72158e-08
1.34848e-06
-1.91771e-08
1.88997e-08
1.35198e-06
-1.88733e-08
1.95028e-08
1.35376e-06
-1.75404e-08
1.91182e-08
1.35443e-06
-1.56757e-08
1.8106e-08
1.35457e-06
-1.38685e-08
1.68202e-08
1.35453e-06
-1.22537e-08
1.54786e-08
1.35446e-06
-1.08338e-08
1.42574e-08
1.35444e-06
-9.64197e-09
1.32867e-08
1.35452e-06
-8.64033e-09
1.25356e-08
1.3547e-06
-7.75962e-09
1.1965e-08
1.355e-06
-6.91737e-09
1.15425e-08
1.35542e-06
-6.01572e-09
1.12393e-08
1.35593e-06
-4.95453e-09
1.10357e-08
1.35647e-06
-3.56275e-09
1.09273e-08
1.35691e-06
-1.62463e-09
1.09202e-08
1.35709e-06
1.13849e-09
1.10278e-08
4.99759e-09
1.12269e-08
1.1589e-06
-7.03378e-09
6.10247e-09
1.1657e-06
-1.98495e-08
1.61824e-08
1.16845e-06
-2.27961e-08
2.07054e-08
1.16661e-06
-2.23012e-08
2.2103e-08
1.16222e-06
-2.06197e-08
2.15038e-08
1.15655e-06
-1.78527e-08
1.9768e-08
1.15049e-06
-1.46958e-08
1.74222e-08
1.14461e-06
-1.21811e-08
1.53243e-08
1.1392e-06
-1.03267e-08
1.36212e-08
1.13441e-06
-8.94549e-09
1.22553e-08
1.13024e-06
-7.8904e-09
1.1167e-08
1.12668e-06
-7.06593e-09
1.03029e-08
1.12371e-06
-6.39862e-09
9.60035e-09
1.12135e-06
-5.812e-09
8.9869e-09
1.11964e-06
-5.20825e-09
8.40504e-09
1.11862e-06
-4.50196e-09
7.75948e-09
1.11833e-06
-3.50303e-09
6.9035e-09
1.11838e-06
-1.79217e-09
5.64563e-09
1.11796e-06
1.37962e-09
3.74859e-09
6.92238e-09
1.26248e-09
9.23617e-07
-7.4029e-09
7.03375e-09
9.25318e-07
-2.07004e-08
1.98494e-08
9.17185e-07
-1.87294e-08
2.27958e-08
9.04277e-07
-1.58472e-08
2.23006e-08
8.90537e-07
-1.37497e-08
2.06187e-08
8.77416e-07
-1.12915e-08
1.78507e-08
8.65451e-07
-8.71315e-09
1.46926e-08
8.54783e-07
-6.84598e-09
1.2176e-08
8.45359e-07
-5.61317e-09
1.03175e-08
8.3704e-07
-4.78333e-09
8.92904e-09
8.2965e-07
-4.19159e-09
7.86175e-09
8.23014e-07
-3.74281e-09
7.01819e-09
8.17055e-07
-3.40584e-09
6.32338e-09
8.1182e-07
-3.16292e-09
5.69388e-09
8.07403e-07
-2.94588e-09
5.02246e-09
8.03962e-07
-2.70505e-09
4.22029e-09
8.01687e-07
-2.28571e-09
3.07734e-09
7.99943e-07
-8.9588e-10
1.15221e-09
7.95551e-07
3.46979e-09
-2.16597e-09
2.327e-08
-7.98856e-09
6.3138e-07
3.58749e-09
6.14564e-07
2.26452e-08
5.86446e-07
2.4375e-08
5.61727e-07
1.8853e-08
5.39621e-07
1.55659e-08
5.20643e-07
1.35041e-08
5.04702e-07
1.19414e-08
4.90956e-07
1.07821e-08
4.78747e-07
9.91742e-09
4.67686e-07
9.18807e-09
4.57542e-07
8.53129e-09
4.48181e-07
7.91589e-09
4.39514e-07
7.31676e-09
4.31477e-07
6.71229e-09
4.24097e-07
6.04018e-09
4.17517e-07
5.20675e-09
4.12255e-07
3.94786e-09
4.10031e-07
1.31009e-09
4.15532e-07
-4.16415e-09
-2.24022e-08
8.90375e-07
6.33236e-09
2.85248e-09
8.82486e-07
1.71258e-08
1.34079e-08
8.7036e-07
1.86358e-08
1.78657e-08
8.55114e-07
1.71469e-08
1.69525e-08
8.39985e-07
1.53602e-08
1.53351e-08
8.25539e-07
1.37904e-08
1.41609e-08
8.11775e-07
1.23436e-08
1.33634e-08
7.98789e-07
1.11233e-08
1.26478e-08
7.86731e-07
1.01409e-08
1.18403e-08
7.75614e-07
9.35085e-09
1.09638e-08
7.65305e-07
8.75263e-09
1.01047e-08
7.55664e-07
8.31476e-09
9.26993e-09
7.46584e-07
7.9925e-09
8.4471e-09
7.38039e-07
7.73401e-09
7.59334e-09
7.3007e-07
7.50154e-09
6.61735e-09
7.22933e-07
7.19706e-09
5.31377e-09
7.17035e-07
6.67072e-09
3.44071e-09
7.12573e-07
5.52393e-09
4.43565e-10
7.09735e-07
3.57398e-09
-4.64511e-09
-1.51435e-09
-1.41749e-08
1.1589e-06
6.10247e-09
5.28118e-09
1.1657e-06
1.61824e-08
1.39981e-08
1.16845e-06
2.07054e-08
1.79768e-08
1.16661e-06
2.2103e-08
1.91771e-08
1.16222e-06
2.15038e-08
1.88733e-08
1.15655e-06
1.9768e-08
1.75405e-08
1.15049e-06
1.74222e-08
1.56758e-08
1.14461e-06
1.53243e-08
1.38686e-08
1.1392e-06
1.36212e-08
1.22539e-08
1.1344e-06
1.22553e-08
1.08341e-08
1.13024e-06
1.1167e-08
9.64231e-09
1.12668e-06
1.0303e-08
8.64082e-09
1.12371e-06
9.60052e-09
7.76031e-09
1.12135e-06
8.98701e-09
6.91816e-09
1.11964e-06
8.40516e-09
6.01672e-09
1.11862e-06
7.75979e-09
4.95603e-09
1.11833e-06
6.904e-09
3.56477e-09
1.11837e-06
5.64632e-09
1.62722e-09
1.11795e-06
3.74966e-09
-1.13497e-09
1.26391e-09
-4.9931e-09
1.37712e-06
4.57705e-09
4.57713e-09
1.38565e-06
1.19162e-08
1.19165e-08
1.39417e-06
1.64453e-08
1.64458e-08
1.40126e-06
1.85576e-08
1.85586e-08
1.40642e-06
1.89257e-08
1.89273e-08
1.40953e-06
1.82152e-08
1.82177e-08
1.41096e-06
1.67047e-08
1.67088e-08
1.41156e-06
1.50247e-08
1.50312e-08
1.41187e-06
1.34697e-08
1.34803e-08
1.41216e-06
1.21148e-08
1.21318e-08
1.41261e-06
1.09475e-08
1.0975e-08
1.41334e-06
9.94562e-09
9.98988e-09
1.41443e-06
9.06881e-09
9.14056e-09
1.41592e-06
8.26445e-09
8.37895e-09
1.41782e-06
7.48701e-09
7.66209e-09
1.42013e-06
6.66877e-09
6.93022e-09
1.4227e-06
5.73383e-09
6.11891e-09
1.42516e-06
4.62485e-09
5.17703e-09
1.42664e-06
3.35577e-09
4.12312e-09
2.29707e-09
3.35112e-09
1.53312e-06
2.36584e-09
3.64932e-09
1.54218e-06
6.23829e-09
9.6339e-09
1.55327e-06
8.87243e-09
1.36919e-08
1.56445e-06
1.03457e-08
1.59372e-08
1.57507e-06
1.08974e-08
1.6913e-08
1.58471e-06
1.07512e-08
1.69478e-08
1.59301e-06
1.01383e-08
1.6381e-08
1.60008e-06
9.32344e-09
1.54542e-08
1.60624e-06
8.44767e-09
1.43574e-08
1.61174e-06
7.62034e-09
1.32714e-08
1.61684e-06
6.88453e-09
1.22946e-08
1.6217e-06
6.23809e-09
1.14556e-08
1.62643e-06
5.65432e-09
1.07591e-08
1.63112e-06
5.09797e-09
1.0196e-08
1.63584e-06
4.54838e-09
9.75347e-09
1.64064e-06
3.97734e-09
9.4236e-09
1.64555e-06
3.35422e-09
9.20542e-09
1.65065e-06
2.65093e-09
9.09587e-09
1.65605e-06
1.86707e-09
9.06056e-09
1.14315e-09
9.16092e-09
1.61424e-06
2.73118e-14
3.09292e-09
1.62332e-06
5.96382e-14
8.27426e-09
1.63533e-06
1.12469e-13
1.19576e-08
1.64819e-06
2.40613e-13
1.41155e-08
1.66117e-06
5.08794e-13
1.52023e-08
1.67385e-06
8.88634e-13
1.55866e-08
1.68572e-06
1.59133e-12
1.54358e-08
1.69653e-06
2.61929e-12
1.49681e-08
1.70625e-06
4.51467e-12
1.43009e-08
1.71506e-06
7.88964e-12
1.35382e-08
1.7231e-06
1.33394e-11
1.27728e-08
1.73056e-06
2.15073e-11
1.20777e-08
1.7376e-06
3.22629e-11
1.15085e-08
1.74434e-06
4.66442e-11
1.11003e-08
1.75079e-06
7.14263e-11
1.08771e-08
1.75701e-06
1.15397e-10
1.08523e-08
1.76315e-06
1.77827e-10
1.10466e-08
1.76941e-06
2.62037e-10
1.14669e-08
1.77606e-06
3.73475e-10
1.20415e-08
5.47913e-10
1.262e-08
1.61424e-06
-2.36582e-09
3.09289e-09
1.62332e-06
-6.23829e-09
8.27413e-09
1.63533e-06
-8.87244e-09
1.19573e-08
1.64819e-06
-1.03457e-08
1.41149e-08
1.66117e-06
-1.08974e-08
1.52011e-08
1.67385e-06
-1.07513e-08
1.55846e-08
1.68572e-06
-1.01382e-08
1.5433e-08
1.69654e-06
-9.3229e-09
1.49638e-08
1.70627e-06
-8.44654e-09
1.42943e-08
1.71509e-06
-7.61728e-09
1.35276e-08
1.72315e-06
-6.87792e-09
1.27555e-08
1.73063e-06
-6.22609e-09
1.20492e-08
1.7377e-06
-5.63716e-09
1.14626e-08
1.74448e-06
-5.07593e-09
1.10289e-08
1.751e-06
-4.51167e-09
1.07666e-08
1.7573e-06
-3.90718e-09
1.06796e-08
1.7635e-06
-3.2267e-09
1.07838e-08
1.76978e-06
-2.4304e-09
1.10804e-08
1.77631e-06
-1.50229e-09
1.1498e-08
-5.32543e-10
1.18787e-08
1.53312e-06
-4.57713e-09
3.64922e-09
1.54218e-06
-1.19165e-08
9.63355e-09
1.55328e-06
-1.64458e-08
1.36912e-08
1.56445e-06
-1.85586e-08
1.59359e-08
1.57507e-06
-1.89273e-08
1.69107e-08
1.58472e-06
-1.82177e-08
1.69442e-08
1.59302e-06
-1.67087e-08
1.63755e-08
1.6001e-06
-1.5031e-08
1.54452e-08
1.60627e-06
-1.34801e-08
1.43436e-08
1.61179e-06
-1.21316e-08
1.325e-08
1.61691e-06
-1.09747e-08
1.226e-08
1.62181e-06
-9.9894e-09
1.14e-08
1.62661e-06
-9.13992e-09
1.06682e-08
1.63141e-06
-8.37816e-09
1.00494e-08
1.63627e-06
-7.66108e-09
9.52271e-09
1.64127e-06
-6.92882e-09
9.06438e-09
1.64643e-06
-6.11703e-09
8.65466e-09
1.65182e-06
-5.17458e-09
8.27553e-09
1.65756e-06
-4.11998e-09
7.90693e-09
-3.3474e-09
7.60395e-09
1.37712e-06
-6.10254e-09
4.57705e-09
1.38565e-06
-1.61827e-08
1.19162e-08
1.39417e-06
-2.07063e-08
1.64453e-08
1.40126e-06
-2.21044e-08
1.85576e-08
1.40642e-06
-2.15059e-08
1.89257e-08
1.40953e-06
-1.97708e-08
1.82152e-08
1.41096e-06
-1.74269e-08
1.67046e-08
1.41156e-06
-1.53326e-08
1.50247e-08
1.41187e-06
-1.36355e-08
1.34696e-08
1.41216e-06
-1.22789e-08
1.21147e-08
1.41261e-06
-1.1206e-08
1.09474e-08
1.41334e-06
-1.03656e-08
9.94547e-09
1.41443e-06
-9.69974e-09
9.06859e-09
1.41592e-06
-9.14214e-09
8.26419e-09
1.41783e-06
-8.64709e-09
7.48666e-09
1.42013e-06
-8.13972e-09
6.66818e-09
1.4227e-06
-7.51744e-09
5.73291e-09
1.42516e-06
-6.61605e-09
4.62344e-09
1.42664e-06
-5.206e-09
3.35369e-09
-3.44764e-09
2.29424e-09
1.1589e-06
-6.33238e-09
5.28115e-09
1.1657e-06
-1.7126e-08
1.3998e-08
1.16845e-06
-1.86364e-08
1.79767e-08
1.16661e-06
-1.71478e-08
1.91768e-08
1.16221e-06
-1.53615e-08
1.88728e-08
1.15655e-06
-1.37921e-08
1.75396e-08
1.15048e-06
-1.23464e-08
1.56748e-08
1.14459e-06
-1.11284e-08
1.38676e-08
1.13917e-06
-1.01491e-08
1.22519e-08
1.13435e-06
-9.36433e-09
1.08302e-08
1.13015e-06
-8.77512e-09
9.63485e-09
1.12653e-06
-8.35316e-09
8.62594e-09
1.12348e-06
-8.05596e-09
7.72788e-09
1.12101e-06
-7.83562e-09
6.8587e-09
1.11913e-06
-7.67029e-09
5.92598e-09
1.11789e-06
-7.50326e-09
4.82539e-09
1.11728e-06
-7.22674e-09
3.39338e-09
1.11701e-06
-6.59729e-09
1.4055e-09
1.11654e-06
-5.44502e-09
-1.46434e-09
-2.54315e-09
-5.40714e-09
8.90375e-07
2.85246e-09
8.82486e-07
1.34078e-08
8.70359e-07
1.78656e-08
8.55112e-07
1.69522e-08
8.39982e-07
1.53349e-08
8.25533e-07
1.4161e-08
8.11764e-07
1.33641e-08
7.98769e-07
1.26487e-08
7.86695e-07
1.18424e-08
7.75551e-07
1.09675e-08
7.65197e-07
1.01103e-08
7.55481e-07
9.27801e-09
7.46283e-07
8.45955e-09
7.37545e-07
7.61392e-09
7.29269e-07
6.64585e-09
7.21568e-07
5.40456e-09
7.14689e-07
3.60045e-09
7.08622e-07
7.80151e-10
7.03182e-07
-4.16995e-09
-1.10092e-08
1.07432e-06
5.56893e-09
1.06468e-09
1.06824e-06
1.39004e-08
5.58604e-09
1.06138e-06
1.6262e-08
8.46308e-09
1.05338e-06
1.59093e-08
9.03825e-09
1.0451e-06
1.50031e-08
8.61495e-09
1.03721e-06
1.39352e-08
8.11506e-09
1.02982e-06
1.29805e-08
7.77654e-09
1.02281e-06
1.21206e-08
7.53667e-09
1.01595e-06
1.13543e-08
7.33828e-09
1.00918e-06
1.07076e-08
7.03114e-09
1.00251e-06
1.02224e-08
6.55473e-09
9.95906e-07
9.87537e-09
5.99603e-09
9.89309e-07
9.6431e-09
5.40099e-09
9.82634e-07
9.51951e-09
4.74929e-09
9.75756e-07
9.49454e-09
4.00071e-09
9.68537e-07
9.55547e-09
2.97793e-09
9.60775e-07
9.7132e-09
1.48946e-09
9.51956e-07
1.0029e-08
-7.66057e-10
9.4097e-07
1.06164e-08
-4.27612e-09
1.15653e-08
-1.03244e-08
1.32763e-06
4.9311e-09
2.71805e-09
1.33539e-06
1.30089e-08
7.12032e-09
1.34286e-06
1.72158e-08
9.55246e-09
1.34848e-06
1.88997e-08
1.05764e-08
1.35198e-06
1.95028e-08
1.08723e-08
1.35376e-06
1.91182e-08
1.05753e-08
1.35443e-06
1.8106e-08
9.88265e-09
1.35457e-06
1.68202e-08
9.03028e-09
1.35453e-06
1.54786e-08
8.16704e-09
1.35446e-06
1.42574e-08
7.34825e-09
1.35444e-06
1.32867e-08
6.59724e-09
1.35452e-06
1.25356e-08
5.90692e-09
1.3547e-06
1.19651e-08
5.25668e-09
1.355e-06
1.15426e-08
4.5985e-09
1.35541e-06
1.12393e-08
3.85412e-09
1.35593e-06
1.10358e-08
2.96171e-09
1.35647e-06
1.09276e-08
1.81098e-09
1.3569e-06
1.09206e-08
3.00028e-10
1.35709e-06
1.10283e-08
-1.73018e-09
1.12279e-08
-4.13217e-09
1.53312e-06
3.64922e-09
2.36583e-09
1.54218e-06
9.63355e-09
6.2383e-09
1.55328e-06
1.36912e-08
8.87246e-09
1.56445e-06
1.59358e-08
1.03457e-08
1.57507e-06
1.69107e-08
1.08975e-08
1.58472e-06
1.69442e-08
1.07514e-08
1.59302e-06
1.63755e-08
1.01383e-08
1.6001e-06
1.54452e-08
9.32309e-09
1.60627e-06
1.43436e-08
8.44678e-09
1.61179e-06
1.325e-08
7.61761e-09
1.61691e-06
1.226e-08
6.87837e-09
1.62181e-06
1.14e-08
6.22669e-09
1.62661e-06
1.06683e-08
5.63796e-09
1.63141e-06
1.00495e-08
5.07694e-09
1.63627e-06
9.52285e-09
4.51298e-09
1.64126e-06
9.06465e-09
3.90891e-09
1.64643e-06
8.65512e-09
3.22893e-09
1.65182e-06
8.27624e-09
2.4332e-09
1.65755e-06
7.90798e-09
1.50568e-09
7.60533e-09
5.36131e-10
1.68027e-06
1.8909e-09
1.89096e-09
1.68934e-06
5.09893e-09
5.09914e-09
1.7018e-06
7.46348e-09
7.46391e-09
1.71578e-06
8.94478e-09
8.94552e-09
1.73022e-06
9.69089e-09
9.6921e-09
1.74439e-06
9.8578e-09
9.85974e-09
1.75785e-06
9.6477e-09
9.65066e-09
1.77036e-06
9.19235e-09
9.19677e-09
1.78185e-06
8.60327e-09
8.60973e-09
1.79242e-06
7.97336e-09
7.9829e-09
1.80222e-06
7.36632e-09
7.38091e-09
1.81143e-06
6.81215e-09
6.83523e-09
1.82019e-06
6.31773e-09
6.35525e-09
1.82862e-06
5.87605e-09
5.93651e-09
1.83686e-06
5.47233e-09
5.56463e-09
1.84502e-06
5.09618e-09
5.22953e-09
1.85322e-06
4.73837e-09
4.92324e-09
1.86157e-06
4.38762e-09
4.63619e-09
1.87014e-06
4.04139e-09
4.3517e-09
3.76618e-09
4.10018e-09
1.7569e-06
1.09189e-15
1.61319e-09
1.76589e-06
-2.60258e-14
4.38406e-09
1.77878e-06
-6.50324e-14
6.53173e-09
1.79389e-06
-1.1804e-13
7.95108e-09
1.81003e-06
-2.02663e-13
8.75588e-09
1.82638e-06
-3.39227e-13
9.08623e-09
1.8424e-06
-5.24197e-13
9.07326e-09
1.85772e-06
-6.51366e-13
8.83813e-09
1.87216e-06
-7.27385e-13
8.46601e-09
1.88565e-06
-8.36931e-13
8.02341e-09
1.89822e-06
-1.21822e-12
7.56244e-09
1.90999e-06
-2.33758e-12
7.12176e-09
1.9211e-06
-4.96271e-12
6.72886e-09
1.93168e-06
-9.43669e-12
6.40401e-09
1.94188e-06
-1.40631e-11
6.1657e-09
1.95182e-06
-1.69582e-11
6.02038e-09
1.96166e-06
-1.77141e-11
5.96783e-09
1.97153e-06
-1.81609e-11
6.00096e-09
1.98153e-06
-1.27471e-11
6.09869e-09
1.91714e-11
6.20288e-09
1.7569e-06
-1.89095e-09
1.61315e-09
1.76589e-06
-5.09913e-09
4.38392e-09
1.77878e-06
-7.4639e-09
6.53144e-09
1.79389e-06
-8.94548e-09
7.95056e-09
1.81003e-06
-9.69204e-09
8.75502e-09
1.82639e-06
-9.85966e-09
9.08491e-09
1.8424e-06
-9.65055e-09
9.07137e-09
1.85772e-06
-9.1966e-09
8.83536e-09
1.87216e-06
-8.60951e-09
8.46191e-09
1.88566e-06
-7.98261e-09
8.01726e-09
1.89824e-06
-7.38052e-09
7.55309e-09
1.91001e-06
-6.83473e-09
7.10743e-09
1.92112e-06
-6.3546e-09
6.7068e-09
1.9317e-06
-5.93569e-09
6.37002e-09
1.9419e-06
-5.56359e-09
6.11354e-09
1.95185e-06
-5.22822e-09
5.94332e-09
1.96168e-06
-4.92161e-09
5.8596e-09
1.97152e-06
-4.63423e-09
5.85589e-09
1.98144e-06
-4.34947e-09
5.91239e-09
-4.09793e-09
5.96679e-09
1.68027e-06
-3.64932e-09
1.8909e-09
1.68934e-06
-9.63389e-09
5.09893e-09
1.7018e-06
-1.36919e-08
7.46349e-09
1.71578e-06
-1.59372e-08
8.9448e-09
1.73022e-06
-1.69129e-08
9.69091e-09
1.74439e-06
-1.69478e-08
9.85783e-09
1.75785e-06
-1.63809e-08
9.64774e-09
1.77036e-06
-1.5454e-08
9.19238e-09
1.78185e-06
-1.43573e-08
8.6033e-09
1.79242e-06
-1.32712e-08
7.97339e-09
1.80222e-06
-1.22943e-08
7.36633e-09
1.81143e-06
-1.14552e-08
6.81212e-09
1.82019e-06
-1.07585e-08
6.31766e-09
1.82862e-06
-1.01953e-08
5.87594e-09
1.83686e-06
-9.75262e-09
5.47215e-09
1.84502e-06
-9.42248e-09
5.09588e-09
1.85322e-06
-9.20398e-09
4.73791e-09
1.86157e-06
-9.09405e-09
4.38695e-09
1.87014e-06
-9.0584e-09
4.04047e-09
-9.15877e-09
3.76511e-09
1.53312e-06
-4.93114e-09
2.36583e-09
1.54218e-06
-1.30091e-08
6.23829e-09
1.55327e-06
-1.72162e-08
8.87243e-09
1.56445e-06
-1.8901e-08
1.03457e-08
1.57507e-06
-1.95051e-08
1.08974e-08
1.58471e-06
-1.9122e-08
1.07512e-08
1.59301e-06
-1.81119e-08
1.01383e-08
1.60008e-06
-1.68295e-08
9.32342e-09
1.60624e-06
-1.54928e-08
8.44764e-09
1.61174e-06
-1.42806e-08
7.62028e-09
1.61684e-06
-1.33272e-08
6.88443e-09
1.6217e-06
-1.2604e-08
6.23793e-09
1.62643e-06
-1.20765e-08
5.65407e-09
1.63112e-06
-1.17232e-08
5.09762e-09
1.63585e-06
-1.15353e-08
4.54789e-09
1.64064e-06
-1.15252e-08
3.97661e-09
1.64555e-06
-1.17369e-08
3.35316e-09
1.65065e-06
-1.22162e-08
2.64943e-09
1.65605e-06
-1.29739e-08
1.86506e-09
-1.43252e-08
1.14073e-09
1.32762e-06
-5.56891e-09
2.71808e-09
1.33539e-06
-1.39003e-08
7.12039e-09
1.34286e-06
-1.62622e-08
9.55258e-09
1.34847e-06
-1.59099e-08
1.05767e-08
1.35197e-06
-1.50044e-08
1.08731e-08
1.35375e-06
-1.39373e-08
1.0577e-08
1.35441e-06
-1.29837e-08
9.88576e-09
1.35454e-06
-1.21257e-08
9.03569e-09
1.35448e-06
-1.13632e-08
8.17665e-09
1.35439e-06
-1.07237e-08
7.36725e-09
1.35432e-06
-1.02501e-08
6.63155e-09
1.3543e-06
-9.9247e-09
5.96565e-09
1.35433e-06
-9.72871e-09
5.34358e-09
1.3544e-06
-9.66633e-09
4.73168e-09
1.35447e-06
-9.74568e-09
4.07267e-09
1.35445e-06
-1.00025e-08
3.32073e-09
1.35422e-06
-1.05141e-08
2.39757e-09
1.35354e-06
-1.13648e-08
1.23414e-09
1.35175e-06
-1.24175e-08
-2.2544e-10
-1.5938e-08
-1.50537e-09
1.07432e-06
1.06471e-09
1.06824e-06
5.58615e-09
1.06138e-06
8.46327e-09
1.05338e-06
9.03858e-09
1.0451e-06
8.61581e-09
1.0372e-06
8.11711e-09
1.0298e-06
7.78081e-09
1.02278e-06
7.54462e-09
1.01591e-06
7.35318e-09
1.00909e-06
7.05661e-09
1.00236e-06
6.59694e-09
9.95645e-07
6.0645e-09
9.88862e-07
5.51422e-09
9.81866e-07
4.94381e-09
9.74449e-07
4.31667e-09
9.66325e-07
3.52577e-09
9.57013e-07
2.39897e-09
9.45676e-07
7.51576e-10
9.31043e-07
-1.9541e-09
-4.46787e-09
1.16914e-06
4.9066e-09
-2.08745e-15
1.16312e-06
1.16086e-08
-4.76561e-14
1.15731e-06
1.4276e-08
-2.02052e-13
1.15201e-06
1.43348e-08
-4.04587e-13
1.14689e-06
1.37331e-08
-7.5905e-13
1.14204e-06
1.29742e-08
-1.47933e-12
1.13771e-06
1.21084e-08
-2.93172e-12
1.13393e-06
1.13206e-08
-5.40219e-12
1.13061e-06
1.0671e-08
-9.74711e-12
1.12743e-06
1.0225e-08
-1.70314e-11
1.12406e-06
9.95253e-09
-2.92648e-11
1.12032e-06
9.78548e-09
-4.95406e-11
1.11606e-06
9.74143e-09
-8.32547e-11
1.1111e-06
9.86081e-09
-1.43882e-10
1.10516e-06
1.01805e-08
-2.44604e-10
1.09776e-06
1.07841e-08
-4.04195e-10
1.08804e-06
1.18585e-08
-6.53267e-10
1.07471e-06
1.36395e-08
-1.07527e-09
1.05602e-06
1.61606e-08
-1.73955e-09
2.15967e-08
-3.6532e-09
1.41518e-06
4.19294e-09
-2.75144e-14
1.42279e-06
1.11162e-08
-9.3405e-14
1.43152e-06
1.50991e-08
-1.54723e-13
1.4398e-06
1.66307e-08
-3.5011e-13
1.44713e-06
1.72789e-08
-7.95159e-13
1.45316e-06
1.75165e-08
-1.5923e-12
1.45799e-06
1.71635e-08
-2.83652e-12
1.46189e-06
1.64537e-08
-4.8642e-12
1.46516e-06
1.55775e-08
-8.59256e-12
1.46804e-06
1.47144e-08
-1.58188e-11
1.47069e-06
1.39302e-08
-2.82481e-11
1.47315e-06
1.32817e-08
-4.9333e-11
1.47536e-06
1.28634e-08
-7.93314e-11
1.47726e-06
1.26852e-08
-1.24974e-10
1.47879e-06
1.26983e-08
-1.98416e-10
1.47989e-06
1.29555e-08
-3.1016e-10
1.48046e-06
1.35813e-08
-4.77868e-10
1.48045e-06
1.46701e-08
-7.24384e-10
1.47983e-06
1.61552e-08
-1.09697e-09
1.76517e-08
-1.76957e-09
1.61424e-06
3.09289e-09
-2.20342e-14
1.62332e-06
8.27412e-09
-4.94183e-14
1.63533e-06
1.19573e-08
-9.13084e-14
1.64819e-06