/*--------------------------------*- C++ -*----------------------------------*\
| =========                 |                                                 |
| \\      /  F ield         | OpenFOAM: The Open Source CFD Toolbox           |
|  \\    /   O peration     | Version:  2212                                  |
|   \\  /    A nd           | Website:  www.openfoam.com                      |
|    \\/     M anipulation  |                                                 |
\*---------------------------------------------------------------------------*/
FoamFile
{
    version     2.0;
    format      ascii;
    arch        "LSB;label=32;scalar=64";
    class       volVectorField;
    location    "0.75";
    object      U;
}
// * * * * * * * * * * * * * * * * * * * * * * * * * * * * * * * * * * * * * //

dimensions      [0 1 -1 0 0 0 0];

internalField   nonuniform List<vector> 
6840
(
(0.0956456 -0.00836005 -0.00836005)
(0.090494 0.00152201 0.00152203)
(0.0790685 0.00242967 0.00242969)
(0.0713015 0.00148767 0.00148774)
(0.06618 0.000830327 0.000830505)
(0.0623237 0.000563292 0.000563596)
(0.0592225 0.000425585 0.000426385)
(0.0566876 0.000322658 0.000324134)
(0.0545543 0.000250911 0.000253354)
(0.0527047 0.000199164 0.000203169)
(0.0510711 0.000160641 0.00016753)
(0.0496172 0.000130799 0.000142325)
(0.0483137 0.000105114 0.000122808)
(0.0471353 8.07161e-05 0.000106733)
(0.0460788 5.26386e-05 9.3247e-05)
(0.0451521 2.50935e-05 8.13098e-05)
(0.0443897 1.3887e-06 6.6969e-05)
(0.0439677 -0.000109797 2.26765e-05)
(0.0444608 -0.000266186 -0.000104101)
(0.0431075 -0.00268033 -0.00211951)
(0.0999088 0.001297 0.000712564)
(0.0969669 0.00365582 0.00274726)
(0.0935347 0.00264014 0.00211818)
(0.0895895 0.00182024 0.00162061)
(0.0858327 0.0015284 0.00139065)
(0.082591 0.00135063 0.00116141)
(0.0798666 0.00117844 0.000897452)
(0.0775691 0.00103897 0.00069285)
(0.0755611 0.000940178 0.000561688)
(0.0737565 0.000861366 0.000481882)
(0.0721097 0.00078573 0.000436538)
(0.0705928 0.000707535 0.000411494)
(0.0691892 0.000630291 0.00039771)
(0.0678873 0.000557178 0.000393144)
(0.0666863 0.000474909 0.000397622)
(0.0655942 0.000366426 0.000407073)
(0.0646572 0.000198408 0.000405381)
(0.0640409 -0.000117072 0.000301424)
(0.064158 -0.000745082 1.6616e-05)
(0.063069 -0.00318913 -0.00191723)
(0.099413 0.00034521 0.000270233)
(0.0988664 0.00201892 0.00187492)
(0.0979215 0.0025729 0.00218906)
(0.0963661 0.00237946 0.00190844)
(0.0946338 0.00211344 0.00162677)
(0.0929729 0.00192569 0.0014189)
(0.091365 0.0017996 0.00127167)
(0.0898554 0.00170231 0.00116078)
(0.088457 0.00159967 0.00107111)
(0.0871619 0.00148585 0.00100032)
(0.0859631 0.00136976 0.000953756)
(0.0848464 0.0012565 0.000928859)
(0.0837939 0.00114287 0.000921393)
(0.0827948 0.00101981 0.000927109)
(0.0818451 0.000875423 0.000943736)
(0.0809497 0.000692636 0.0009683)
(0.0801281 0.000435223 0.000991442)
(0.0793952 -2.19744e-05 0.000996597)
(0.0787618 -0.000828883 0.000987155)
(0.0776238 -0.00238081 0.000781099)
(0.0995405 0.000245009 0.000321901)
(0.0992576 0.00105545 0.00154094)
(0.0988489 0.001502 0.00211454)
(0.0981248 0.00157885 0.0020918)
(0.0973367 0.00151386 0.00188649)
(0.0965845 0.00144475 0.00166651)
(0.0958645 0.00140722 0.00149906)
(0.095196 0.00137406 0.00137334)
(0.0945657 0.00132522 0.001288)
(0.0939177 0.0012486 0.0012353)
(0.0932844 0.00115016 0.00120152)
(0.0926622 0.00103978 0.001185)
(0.0920391 0.000923928 0.00118388)
(0.0914029 0.000800603 0.00119909)
(0.0907384 0.000658844 0.00123281)
(0.0900247 0.000479874 0.00129082)
(0.0892296 0.000219773 0.00138697)
(0.0882764 -0.000172415 0.00153982)
(0.0870959 -0.000807627 0.0017181)
(0.0858277 -0.00161318 0.00246592)
(0.0993801 3.37609e-05 5.89354e-05)
(0.0992677 0.000274311 0.00120003)
(0.0989803 0.000432218 0.00188853)
(0.0984744 0.000483193 0.0020066)
(0.097995 0.000478377 0.00191494)
(0.0975697 0.000464713 0.00173519)
(0.0971788 0.000451455 0.00154801)
(0.096827 0.000439979 0.00138982)
(0.0965235 0.000432219 0.00127231)
(0.096263 0.000421621 0.00120355)
(0.0959785 0.00039996 0.00117942)
(0.0956677 0.000368692 0.00118285)
(0.0953229 0.000331633 0.00120217)
(0.0949209 0.000292235 0.00124016)
(0.0944409 0.000254131 0.00130852)
(0.0938465 0.000205776 0.00141843)
(0.0930777 0.000137073 0.00160316)
(0.0920098 4.22988e-05 0.00189217)
(0.0905293 -0.000103717 0.00225198)
(0.0887887 0.000110042 0.00361619)
(0.0993801 -3.37571e-05 5.89293e-05)
(0.0992677 -0.000274293 0.00120003)
(0.0989803 -0.000432169 0.00188853)
(0.0984744 -0.000483097 0.00200658)
(0.0979951 -0.000478188 0.00191488)
(0.09757 -0.000464324 0.00173505)
(0.0971792 -0.000450656 0.00154782)
(0.0968278 -0.000438493 0.00138949)
(0.096525 -0.000429554 0.00127166)
(0.0962656 -0.000416987 0.00120231)
(0.0959832 -0.000392036 0.00117726)
(0.095676 -0.000355393 0.00117923)
(0.0953377 -0.000309407 0.0011957)
(0.094948 -0.000253789 0.001227)
(0.0944887 -0.000189667 0.00128362)
(0.0939305 -0.000101589 0.00137813)
(0.093219 3.04985e-05 0.00153485)
(0.092253 0.000237434 0.00178354)
(0.0909163 0.000556655 0.00211252)
(0.0895796 0.000899183 0.00290122)
(0.0995405 -0.000245008 0.000321902)
(0.0992576 -0.00105545 0.00154095)
(0.0988489 -0.00150201 0.00211451)
(0.0981249 -0.00157885 0.00209174)
(0.097337 -0.0015138 0.00188638)
(0.0965851 -0.00144456 0.00166635)
(0.0958655 -0.00140682 0.00149889)
(0.0951978 -0.00137335 0.00137305)
(0.094569 -0.00132383 0.00128729)
(0.0939236 -0.00124635 0.00123352)
(0.0932948 -0.0011467 0.00119809)
(0.0926802 -0.00103469 0.00117829)
(0.0920702 -0.000915806 0.00117256)
(0.0914567 -0.000787287 0.00118049)
(0.0908303 -0.000639731 0.00120035)
(0.0901782 -0.000439838 0.00123164)
(0.0894863 -0.000152288 0.00127772)
(0.0887191 0.000283215 0.00135666)
(0.0878218 0.000958288 0.00149452)
(0.0868848 0.00212318 0.00170875)
(0.099413 -0.000345212 0.000270232)
(0.0988664 -0.00201894 0.0018749)
(0.0979216 -0.00257294 0.00218897)
(0.0963662 -0.00237955 0.00190831)
(0.0946341 -0.00211359 0.00162658)
(0.0929733 -0.00192593 0.00141862)
(0.091366 -0.00179997 0.00127121)
(0.0898571 -0.00170293 0.00116001)
(0.0884601 -0.00160072 0.00106988)
(0.0871671 -0.00148761 0.000998265)
(0.0859721 -0.00137274 0.000950561)
(0.0848619 -0.00126144 0.000923268)
(0.0838198 -0.00115072 0.000911685)
(0.0828373 -0.00103176 0.000910751)
(0.0819138 -0.00089318 0.000916087)
(0.0810633 -0.000715538 0.000916334)
(0.0803229 -0.000471682 0.000901461)
(0.0797287 -2.14072e-05 0.000823996)
(0.0793372 0.000752309 0.000685128)
(0.0785104 0.00256952 8.20972e-05)
(0.0999088 -0.001297 0.000712557)
(0.0969669 -0.00365584 0.00274723)
(0.0935347 -0.00264016 0.00211812)
(0.0895895 -0.00182029 0.00162049)
(0.0858327 -0.00152855 0.00139046)
(0.0825911 -0.00135087 0.00116108)
(0.0798668 -0.00117885 0.000896929)
(0.0775695 -0.00103966 0.00069198)
(0.075562 -0.000941407 0.000560205)
(0.0737582 -0.000863621 0.000479336)
(0.072113 -0.000789798 0.000431497)
(0.0705994 -0.000714413 0.000402574)
(0.0692009 -0.000641291 0.000386397)
(0.0679054 -0.000575724 0.000381218)
(0.0667143 -0.000505989 0.000380962)
(0.0656378 -0.000424323 0.000375707)
(0.0647298 -0.000300603 0.00033891)
(0.064172 -1.41573e-05 0.000151681)
(0.0645155 0.000537712 -0.000215767)
(0.0630082 0.00197049 -0.00167903)
(0.0956456 0.00836005 -0.00836005)
(0.090494 -0.00152203 0.00152201)
(0.0790685 -0.0024297 0.00242967)
(0.0713015 -0.00148774 0.00148767)
(0.06618 -0.000830506 0.000830324)
(0.0623237 -0.000563596 0.000563289)
(0.0592225 -0.000426382 0.000425585)
(0.0566876 -0.000324128 0.000322661)
(0.0545543 -0.000253346 0.000250916)
(0.0527047 -0.000203158 0.000199172)
(0.0510711 -0.000167517 0.000160654)
(0.0496172 -0.000142307 0.000130818)
(0.0483138 -0.000122782 0.000105137)
(0.0471354 -0.000106708 8.07522e-05)
(0.046079 -9.32215e-05 5.2689e-05)
(0.0451524 -8.12706e-05 2.51219e-05)
(0.0443901 -6.68983e-05 1.44574e-06)
(0.0439682 -2.25911e-05 -0.000109717)
(0.0444615 0.000104209 -0.000266084)
(0.0431083 0.0021198 -0.00268031)
(0.0999088 0.000712557 0.001297)
(0.0969669 0.00274723 0.00365584)
(0.0935347 0.00211812 0.00264016)
(0.0895895 0.00162049 0.00182028)
(0.0858327 0.00139046 0.00152855)
(0.0825911 0.00116108 0.00135087)
(0.0798668 0.000896931 0.00117885)
(0.0775695 0.000691981 0.00103966)
(0.075562 0.000560205 0.000941411)
(0.0737582 0.000479333 0.00086363)
(0.0721129 0.00043149 0.000789815)
(0.0705994 0.000402562 0.00071444)
(0.0692008 0.000386379 0.00064133)
(0.0679053 0.000381202 0.000575781)
(0.066714 0.000380941 0.000506062)
(0.0656375 0.000375666 0.000424434)
(0.0647294 0.000338849 0.000300763)
(0.0641714 0.000151596 1.44065e-05)
(0.0645147 -0.000215889 -0.000537302)
(0.0630071 -0.00167878 -0.00196953)
(0.100226 0.0007208 0.000720805)
(0.0999601 0.00198268 0.00198272)
(0.0997824 0.00245174 0.00245183)
(0.0987885 0.00241944 0.00241959)
(0.0972762 0.00220057 0.00220081)
(0.0957758 0.00181126 0.0018117)
(0.0943947 0.00138203 0.00138277)
(0.0931672 0.00106928 0.00107055)
(0.0920824 0.000852408 0.000854625)
(0.0911242 0.000698994 0.000702908)
(0.0902782 0.000584593 0.000591856)
(0.0895226 0.000496571 0.000508429)
(0.0888386 0.000429421 0.000446231)
(0.0882301 0.000374651 0.000398669)
(0.0877061 0.000314691 0.000352742)
(0.0872771 0.000243849 0.000302912)
(0.0869617 0.000135381 0.000236442)
(0.0867447 -7.91513e-05 8.61241e-05)
(0.0864422 -0.000587896 -0.000354181)
(0.0865275 -0.00199597 -0.00161282)
(0.10014 0.000774986 0.00086926)
(0.100454 0.00196229 0.0019636)
(0.100911 0.00242731 0.0023346)
(0.100978 0.0025262 0.00244145)
(0.100694 0.00242566 0.00233711)
(0.100225 0.00219645 0.00211304)
(0.0997099 0.00191491 0.00182418)
(0.0991853 0.00166285 0.00157713)
(0.0986918 0.00145778 0.00139259)
(0.0982461 0.00128768 0.00125478)
(0.097856 0.00114494 0.00115495)
(0.0975182 0.00102241 0.00108613)
(0.0972302 0.000911583 0.00103984)
(0.0969917 0.000801562 0.00100734)
(0.0968028 0.000681923 0.00098747)
(0.0966674 0.000535595 0.000973798)
(0.0965882 0.000337735 0.000957928)
(0.0965545 5.18653e-05 0.000925535)
(0.0965226 -0.00036887 0.000850802)
(0.0966466 -0.000957848 0.000686144)
(0.100093 0.000445885 0.000763212)
(0.100504 0.00119435 0.00174905)
(0.101105 0.00158654 0.00212965)
(0.101635 0.00174002 0.00223498)
(0.101979 0.00178161 0.00228778)
(0.102171 0.00172794 0.0022371)
(0.102252 0.00160635 0.00211778)
(0.102276 0.00145742 0.00196757)
(0.102277 0.00130029 0.00180688)
(0.102268 0.00114895 0.0016605)
(0.10226 0.0010155 0.00155705)
(0.102256 0.0008985 0.00148902)
(0.102256 0.000787957 0.00144903)
(0.10226 0.000675786 0.00143478)
(0.102266 0.000550571 0.00144693)
(0.10227 0.000402646 0.00148999)
(0.102262 0.000213047 0.00157601)
(0.10223 -4.124e-05 0.00171662)
(0.10215 -0.000379405 0.00191679)
(0.102278 -0.000722128 0.00221701)
(0.100087 0.000144372 0.000707023)
(0.100477 0.000390451 0.00161781)
(0.101065 0.000541032 0.00203469)
(0.101694 0.000610037 0.00211778)
(0.102268 0.000635846 0.00215075)
(0.102741 0.000626568 0.00218095)
(0.103122 0.000594401 0.00213596)
(0.103425 0.000548657 0.00204735)
(0.103676 0.000502926 0.00194026)
(0.103891 0.000459637 0.0018383)
(0.104082 0.000414919 0.00174584)
(0.104261 0.000369885 0.00167003)
(0.104423 0.000326999 0.00162992)
(0.10456 0.000284449 0.00162894)
(0.104673 0.000239241 0.00165815)
(0.104757 0.000189532 0.00173566)
(0.104798 0.000130356 0.00188298)
(0.104789 5.77931e-05 0.00212707)
(0.104743 -2.72451e-05 0.00247359)
(0.10501 -7.83762e-05 0.00286254)
(0.100087 -0.000144364 0.000707024)
(0.100477 -0.000390426 0.00161781)
(0.101066 -0.00054099 0.0020347)
(0.101694 -0.000609952 0.00211777)
(0.102269 -0.000635648 0.00215066)
(0.102741 -0.000626165 0.00218077)
(0.103123 -0.000593689 0.00213562)
(0.103426 -0.000547433 0.00204682)
(0.103677 -0.000500732 0.00193947)
(0.103893 -0.000455599 0.00183698)
(0.104085 -0.000407755 0.00174364)
(0.104266 -0.000357572 0.00166605)
(0.104434 -0.000307315 0.00162267)
(0.104579 -0.000253093 0.00161703)
(0.1047 -0.000189432 0.00164021)
(0.104796 -0.00011207 0.00170203)
(0.104857 -1.04518e-05 0.00182537)
(0.104873 0.000127622 0.00203227)
(0.10486 0.000313951 0.00232077)
(0.105159 0.000545216 0.0026235)
(0.100093 -0.000445886 0.000763212)
(0.100504 -0.00119436 0.00174905)
(0.101105 -0.00158656 0.00212961)
(0.101635 -0.00174002 0.00223483)
(0.101979 -0.00178161 0.00228745)
(0.102172 -0.00172793 0.0022366)
(0.102253 -0.00160626 0.00211702)
(0.102277 -0.00145723 0.00196642)
(0.10228 -0.0013 0.00180515)
(0.102273 -0.00114818 0.00165774)
(0.102266 -0.00101419 0.00155219)
(0.102268 -0.000896305 0.00148068)
(0.102278 -0.000786064 0.00143493)
(0.102295 -0.000674485 0.00141108)
(0.102322 -0.000547412 0.00140748)
(0.102358 -0.000394715 0.00142406)
(0.102398 -0.000197212 0.00146395)
(0.102435 6.86424e-05 0.00153288)
(0.102471 0.000419778 0.00163974)
(0.102683 0.000816041 0.00178062)
(0.10014 -0.000774993 0.00086925)
(0.100454 -0.00196231 0.00196354)
(0.100911 -0.00242736 0.00233445)
(0.100979 -0.00252632 0.0024412)
(0.100694 -0.00242587 0.00233675)
(0.100225 -0.00219681 0.00211259)
(0.0997105 -0.00191548 0.00182347)
(0.0991864 -0.00166369 0.00157584)
(0.0986936 -0.00145927 0.00139035)
(0.0982495 -0.00129039 0.00125103)
(0.0978619 -0.00114945 0.0011486)
(0.0975283 -0.00103034 0.00107576)
(0.0972462 -0.000925614 0.00102322)
(0.0970154 -0.000825211 0.000981445)
(0.0968386 -0.000719147 0.000946914)
(0.0967197 -0.000592512 0.000909279)
(0.0966634 -0.000420269 0.000848883)
(0.0966589 -0.000171882 0.000743567)
(0.0966598 0.000197491 0.000561415)
(0.0967756 0.000722944 0.000238628)
(0.100226 -0.000720804 0.0007208)
(0.0999601 -0.00198272 0.00198268)
(0.0997824 -0.00245183 0.00245174)
(0.0987885 -0.00241959 0.00241944)
(0.0972762 -0.00220081 0.00220057)
(0.0957758 -0.0018117 0.00181126)
(0.0943947 -0.00138277 0.00138203)
(0.0931672 -0.00107054 0.00106928)
(0.0920825 -0.000854613 0.000852407)
(0.0911243 -0.000702891 0.000698994)
(0.0902782 -0.000591832 0.000584595)
(0.0895227 -0.000508393 0.000496573)
(0.0888387 -0.000446167 0.000429409)
(0.0882302 -0.000398625 0.000374666)
(0.0877063 -0.000352711 0.000314741)
(0.0872774 -0.000302825 0.000243876)
(0.0869621 -0.000236329 0.000135425)
(0.0867452 -8.59522e-05 -7.90938e-05)
(0.0864431 0.00035445 -0.000587822)
(0.0865287 0.00161349 -0.00199594)
(0.0999088 -0.000712565 0.001297)
(0.0969669 -0.00274726 0.00365582)
(0.0935347 -0.00211818 0.00264014)
(0.0895895 -0.00162061 0.00182024)
(0.0858327 -0.00139065 0.0015284)
(0.082591 -0.00116141 0.00135063)
(0.0798666 -0.000897448 0.00117844)
(0.0775691 -0.000692846 0.00103897)
(0.0755611 -0.000561682 0.000940172)
(0.0737566 -0.000481876 0.000861361)
(0.0721097 -0.00043653 0.000785726)
(0.0705929 -0.000411483 0.000707531)
(0.0691894 -0.000397693 0.000630285)
(0.0678875 -0.000393127 0.00055717)
(0.0666865 -0.000397607 0.000474905)
(0.0655946 -0.000407064 0.000366448)
(0.0646577 -0.000405374 0.000198436)
(0.0640416 -0.000301407 -0.000117046)
(0.0641589 -1.6578e-05 -0.000745047)
(0.0630703 0.00191698 -0.00318877)
(0.099413 0.000270232 0.000345212)
(0.0988664 0.0018749 0.00201894)
(0.0979216 0.00218897 0.00257294)
(0.0963662 0.00190831 0.00237955)
(0.0946341 0.00162658 0.00211359)
(0.0929733 0.00141862 0.00192593)
(0.091366 0.00127122 0.00179997)
(0.0898571 0.00116001 0.00170293)
(0.08846 0.00106987 0.00160073)
(0.0871671 0.00099826 0.00148763)
(0.0859721 0.000950553 0.00137277)
(0.0848618 0.000923255 0.00126149)
(0.0838198 0.000911666 0.00115079)
(0.0828372 0.000910732 0.00103185)
(0.0819136 0.000916069 0.00089332)
(0.0810631 0.000916314 0.000715726)
(0.0803226 0.000901434 0.00047195)
(0.0797283 0.000823952 2.17824e-05)
(0.0793366 0.00068505 -0.000751765)
(0.0785097 8.19323e-05 -0.00256888)
(0.10014 0.00086925 0.000774993)
(0.100454 0.00196354 0.00196231)
(0.100911 0.00233446 0.00242736)
(0.100979 0.0024412 0.00252632)
(0.100694 0.00233675 0.00242587)
(0.100225 0.00211259 0.00219682)
(0.0997105 0.00182347 0.00191549)
(0.0991864 0.00157584 0.00166371)
(0.0986936 0.00139035 0.00145929)
(0.0982495 0.00125102 0.00129042)
(0.0978618 0.0011486 0.00114949)
(0.0975283 0.00107575 0.00103039)
(0.0972461 0.00102322 0.000925696)
(0.0970153 0.000981422 0.000825306)
(0.0968384 0.00094688 0.000719271)
(0.0967195 0.000909257 0.000592697)
(0.0966631 0.000848861 0.000420519)
(0.0966585 0.000743525 0.000172209)
(0.0966593 0.00056137 -0.000197037)
(0.0967749 0.00023856 -0.000722363)
(0.10006 0.000641372 0.000641387)
(0.100502 0.00164496 0.00164502)
(0.101149 0.00221225 0.00221236)
(0.101738 0.00243971 0.00243992)
(0.102205 0.00244165 0.00244199)
(0.102502 0.00231314 0.00231367)
(0.102647 0.00209186 0.00209275)
(0.102717 0.00186794 0.00186935)
(0.102744 0.0016693 0.00167162)
(0.102761 0.0015019 0.00150571)
(0.102785 0.0013618 0.00136803)
(0.102827 0.00124398 0.00125405)
(0.102892 0.00114297 0.00115908)
(0.102985 0.00105193 0.00107739)
(0.103108 0.000963051 0.00100266)
(0.103261 0.000866568 0.000927269)
(0.10344 0.000750312 0.000841707)
(0.103628 0.000599762 0.000734024)
(0.103807 0.000404937 0.000595977)
(0.104121 0.000228371 0.000504913)
(0.100046 0.000395676 0.000540253)
(0.10048 0.00104474 0.00138413)
(0.101154 0.00147514 0.00192303)
(0.101913 0.00170489 0.00219271)
(0.102632 0.00177952 0.00229438)
(0.103301 0.00174398 0.00227881)
(0.103894 0.00163287 0.00218655)
(0.104391 0.00148944 0.00205419)
(0.104819 0.00134165 0.00190765)
(0.105197 0.00120444 0.00177)
(0.105541 0.00108179 0.00165087)
(0.105863 0.000973373 0.00155215)
(0.106175 0.000874698 0.00147454)
(0.106482 0.00078041 0.00141696)
(0.106789 0.000687332 0.00137804)
(0.107099 0.000588442 0.00135844)
(0.107415 0.000476824 0.00136063)
(0.107741 0.0003477 0.00138724)
(0.108089 0.000203303 0.00143562)
(0.108547 6.29872e-05 0.00151993)
(0.100039 0.000131317 0.000478781)
(0.100448 0.000350451 0.00123482)
(0.101114 0.000504999 0.00174657)
(0.101909 0.000597059 0.002027)
(0.102728 0.000638407 0.00215245)
(0.103529 0.000637983 0.00218708)
(0.104297 0.000604124 0.00215437)
(0.105006 0.000558624 0.00208121)
(0.105641 0.000509198 0.00198389)
(0.106213 0.000460664 0.00187907)
(0.106734 0.000415639 0.00177932)
(0.107213 0.000374642 0.00169363)
(0.10766 0.000336746 0.00162928)
(0.108087 0.000299569 0.0015895)
(0.108497 0.000262292 0.00157543)
(0.108889 0.000224917 0.00159065)
(0.109269 0.000184784 0.00164356)
(0.10965 0.000139457 0.00174038)
(0.110058 9.12995e-05 0.00187251)
(0.110589 5.7337e-05 0.00202034)
(0.100039 -0.000131311 0.000478777)
(0.100448 -0.000350435 0.00123481)
(0.101114 -0.000504971 0.00174653)
(0.101909 -0.000597009 0.00202693)
(0.102728 -0.000638307 0.00215231)
(0.103529 -0.000637803 0.00218684)
(0.104297 -0.000603776 0.002154)
(0.105007 -0.000558037 0.00208064)
(0.105642 -0.000508173 0.00198301)
(0.106215 -0.000458851 0.00187764)
(0.106736 -0.000412529 0.00177688)
(0.107217 -0.00036957 0.00168941)
(0.107665 -0.000329047 0.00162223)
(0.108095 -0.000288416 0.00157854)
(0.108508 -0.000245251 0.00155857)
(0.108905 -0.000197373 0.00156387)
(0.109289 -0.000141734 0.00160151)
(0.109673 -7.45129e-05 0.00167646)
(0.110081 4.40758e-06 0.001779)
(0.110609 8.74119e-05 0.00188532)
(0.100046 -0.000395682 0.00054024)
(0.10048 -0.00104476 0.00138408)
(0.101154 -0.00147519 0.00192294)
(0.101913 -0.00170495 0.00219252)
(0.102632 -0.00177964 0.00229405)
(0.103302 -0.00174418 0.00227827)
(0.103895 -0.00163321 0.0021857)
(0.104391 -0.00148997 0.00205279)
(0.10482 -0.00134251 0.0019055)
(0.105199 -0.00120571 0.00176666)
(0.105544 -0.00108371 0.00164539)
(0.105869 -0.000976312 0.00154328)
(0.106184 -0.000879688 0.00145994)
(0.106497 -0.000788689 0.00139321)
(0.106812 -0.000699412 0.00134028)
(0.107133 -0.00060522 0.00129847)
(0.107464 -0.000499526 0.00126649)
(0.107807 -0.00037693 0.00124352)
(0.108178 -0.000238681 0.00122739)
(0.108651 -9.82445e-05 0.00122208)
(0.10006 -0.000641387 0.000641372)
(0.100502 -0.00164502 0.00164496)
(0.101149 -0.00221236 0.00221224)
(0.101738 -0.00243992 0.00243971)
(0.102205 -0.00244198 0.00244165)
(0.102502 -0.00231366 0.00231314)
(0.102647 -0.00209273 0.00209186)
(0.102717 -0.00186933 0.00186794)
(0.102745 -0.0016716 0.0016693)
(0.102761 -0.00150568 0.0015019)
(0.102785 -0.00136799 0.00136179)
(0.102827 -0.001254 0.00124398)
(0.102892 -0.001159 0.00114296)
(0.102985 -0.00107731 0.00105192)
(0.103108 -0.00100255 0.000963033)
(0.103262 -0.000927113 0.000866531)
(0.10344 -0.000841496 0.000750246)
(0.103629 -0.000733741 0.000599653)
(0.103807 -0.000595605 0.000404763)
(0.104122 -0.000504466 0.000228126)
(0.10014 -0.00086926 0.000774986)
(0.100454 -0.0019636 0.00196229)
(0.100911 -0.0023346 0.0024273)
(0.100978 -0.00244145 0.00252619)
(0.100694 -0.0023371 0.00242566)
(0.100225 -0.00211304 0.00219645)
(0.0997099 -0.00182418 0.00191491)
(0.0991854 -0.00157712 0.00166285)
(0.0986918 -0.00139258 0.00145778)
(0.0982461 -0.00125477 0.00128768)
(0.097856 -0.00115492 0.00114493)
(0.0975183 -0.0010861 0.0010224)
(0.0972303 -0.0010398 0.000911559)
(0.0969918 -0.0010073 0.00080154)
(0.0968029 -0.000987414 0.000681894)
(0.0966676 -0.000973712 0.000535542)
(0.0965885 -0.000957808 0.000337648)
(0.096555 -0.000925369 5.17232e-05)
(0.0965232 -0.00085059 -0.000369085)
(0.0966475 -0.000685937 -0.00095814)
(0.099413 -0.000270233 0.00034521)
(0.0988664 -0.00187492 0.00201892)
(0.0979215 -0.00218906 0.0025729)
(0.0963661 -0.00190844 0.00237945)
(0.0946339 -0.00162677 0.00211343)
(0.0929729 -0.0014189 0.00192568)
(0.0913651 -0.00127167 0.00179959)
(0.0898554 -0.00116078 0.00170231)
(0.088457 -0.00107111 0.00159967)
(0.0871619 -0.00100031 0.00148585)
(0.0859632 -0.000953747 0.00136975)
(0.0848464 -0.000928848 0.00125649)
(0.083794 -0.000921382 0.00114286)
(0.0827949 -0.000927087 0.00101978)
(0.0818453 -0.0009437 0.000875366)
(0.08095 -0.000968256 0.000692563)
(0.0801285 -0.00099138 0.000435097)
(0.0793959 -0.000996506 -2.21751e-05)
(0.0787627 -0.000987027 -0.00082918)
(0.0776251 -0.000780922 -0.00238128)
(0.0995405 0.000321902 0.000245008)
(0.0992576 0.00154095 0.00105545)
(0.0988489 0.00211451 0.001502)
(0.0981249 0.00209174 0.00157885)
(0.097337 0.00188638 0.0015138)
(0.0965851 0.00166635 0.00144456)
(0.0958655 0.00149889 0.00140682)
(0.0951978 0.00137305 0.00137337)
(0.094569 0.00128729 0.00132384)
(0.0939236 0.00123352 0.00124637)
(0.0932948 0.00119808 0.00114675)
(0.0926802 0.00117829 0.00103475)
(0.0920702 0.00117255 0.000915898)
(0.0914566 0.00118049 0.000787418)
(0.0908303 0.00120035 0.000639904)
(0.0901781 0.00123164 0.000440098)
(0.0894862 0.00127769 0.00015262)
(0.088719 0.00135659 -0.000282791)
(0.0878217 0.0014944 -0.000957757)
(0.0868846 0.00170862 -0.00212224)
(0.100093 0.000763212 0.000445886)
(0.100504 0.00174905 0.00119436)
(0.101105 0.00212961 0.00158656)
(0.101635 0.00223483 0.00174003)
(0.101979 0.00228745 0.00178161)
(0.102172 0.0022366 0.00172794)
(0.102253 0.00211702 0.00160627)
(0.102277 0.00196642 0.00145725)
(0.10228 0.00180515 0.00130003)
(0.102273 0.00165774 0.00114822)
(0.102266 0.00155219 0.00101425)
(0.102268 0.00148068 0.00089638)
(0.102278 0.00143493 0.000786167)
(0.102295 0.00141107 0.000674614)
(0.102322 0.00140745 0.000547579)
(0.102358 0.00142404 0.000394953)
(0.102398 0.00146392 0.00019753)
(0.102435 0.00153283 -6.82306e-05)
(0.102471 0.00163967 -0.000419255)
(0.102683 0.00178058 -0.000815364)
(0.100046 0.00054024 0.000395683)
(0.10048 0.00138408 0.00104477)
(0.101154 0.00192293 0.00147519)
(0.101913 0.00219252 0.00170496)
(0.102632 0.00229405 0.00177964)
(0.103302 0.00227826 0.00174419)
(0.103895 0.0021857 0.00163323)
(0.104391 0.00205279 0.00148999)
(0.10482 0.0019055 0.00134254)
(0.105199 0.00176666 0.00120575)
(0.105544 0.00164539 0.00108376)
(0.105869 0.00154328 0.000976382)
(0.106184 0.00145995 0.00087978)
(0.106497 0.00139321 0.000788804)
(0.106811 0.00134028 0.000699562)
(0.107133 0.00129848 0.00060542)
(0.107464 0.00126651 0.000499787)
(0.107806 0.00124356 0.000377261)
(0.108177 0.00122747 0.000239088)
(0.108651 0.0012222 9.87052e-05)
(0.100036 0.000323122 0.000323134)
(0.100429 0.000868608 0.00086865)
(0.10108 0.00126227 0.00126235)
(0.101891 0.00150415 0.0015043)
(0.102756 0.0016212 0.00162144)
(0.103616 0.00164221 0.00164258)
(0.104446 0.0016039 0.00160446)
(0.105224 0.00152523 0.0015261)
(0.105939 0.00142512 0.00142648)
(0.106595 0.00131936 0.00132146)
(0.107201 0.00121819 0.0012215)
(0.107765 0.00112631 0.00113155)
(0.108299 0.00104473 0.00105304)
(0.10881 0.000972544 0.000985598)
(0.109305 0.000908011 0.000928105)
(0.109793 0.00084893 0.000879109)
(0.110278 0.00079306 0.000837136)
(0.110769 0.000738187 0.000800257)
(0.111285 0.000683699 0.000766148)
(0.111882 0.000640248 0.000741564)
(0.100031 0.000107066 0.000281383)
(0.100395 0.000293014 0.000768635)
(0.101024 0.000434023 0.00113308)
(0.101843 0.000526135 0.00136924)
(0.102751 0.000576205 0.00150153)
(0.103688 0.000591523 0.00155441)
(0.104617 0.000582005 0.00154956)
(0.105515 0.000557217 0.00150889)
(0.106366 0.000523351 0.00144565)
(0.107163 0.000485878 0.0013702)
(0.107905 0.00044896 0.00129136)
(0.108598 0.000414765 0.00121605)
(0.109248 0.000383872 0.00114935)
(0.109864 0.000355624 0.0010953)
(0.110455 0.000328278 0.00105792)
(0.111028 0.000301603 0.00103843)
(0.111589 0.000275546 0.00103629)
(0.112148 0.000249881 0.00104924)
(0.112726 0.000224924 0.00107265)
(0.113375 0.00020691 0.00109866)
(0.100031 -0.000107068 0.000281377)
(0.100395 -0.000293023 0.000768616)
(0.101024 -0.000434042 0.00113304)
(0.101843 -0.000526168 0.00136916)
(0.102751 -0.00057626 0.00150139)
(0.103688 -0.000591615 0.00155419)
(0.104617 -0.000582149 0.00154927)
(0.105515 -0.000557401 0.00150845)
(0.106366 -0.000523561 0.00144499)
(0.107163 -0.000486121 0.00136917)
(0.107906 -0.000449299 0.00128976)
(0.108599 -0.000415374 0.00121354)
(0.109249 -0.000385113 0.00114548)
(0.109865 -0.000357962 0.00108932)
(0.110457 -0.000331776 0.00104859)
(0.111029 -0.000305816 0.00102425)
(0.11159 -0.000279817 0.00101576)
(0.112149 -0.00025386 0.0010209)
(0.112724 -0.000226774 0.00103518)
(0.113372 -0.000200121 0.00105038)
(0.100036 -0.000323134 0.000323122)
(0.100429 -0.000868649 0.000868609)
(0.10108 -0.00126235 0.00126227)
(0.101891 -0.0015043 0.00150416)
(0.102756 -0.00162144 0.00162121)
(0.103616 -0.00164257 0.00164221)
(0.104446 -0.00160445 0.00160391)
(0.105224 -0.00152608 0.00152523)
(0.105939 -0.00142645 0.00142513)
(0.106595 -0.00132142 0.00131936)
(0.107201 -0.00122146 0.0012182)
(0.107765 -0.00113149 0.00112631)
(0.108299 -0.00105296 0.00104473)
(0.10881 -0.000985507 0.000972534)
(0.109305 -0.00092799 0.000907995)
(0.109793 -0.000878962 0.000848899)
(0.110278 -0.000836951 0.000793007)
(0.110769 -0.000800033 0.000738103)
(0.111285 -0.000765892 0.000683576)
(0.111882 -0.000741309 0.000640092)
(0.100046 -0.000540253 0.000395676)
(0.10048 -0.00138413 0.00104474)
(0.101154 -0.00192303 0.00147514)
(0.101913 -0.00219271 0.00170489)
(0.102632 -0.00229437 0.00177952)
(0.103301 -0.0022788 0.00174398)
(0.103894 -0.00218654 0.00163287)
(0.104391 -0.00205417 0.00148944)
(0.104819 -0.00190763 0.00134165)
(0.105197 -0.00176998 0.00120443)
(0.105541 -0.00165083 0.00108178)
(0.105864 -0.00155211 0.000973357)
(0.106175 -0.00147449 0.000874673)
(0.106482 -0.00141689 0.000780376)
(0.106789 -0.00137795 0.000687283)
(0.107099 -0.00135832 0.000588365)
(0.107415 -0.00136046 0.000476704)
(0.107741 -0.00138703 0.000347519)
(0.108089 -0.00143536 0.000203044)
(0.108548 -0.00151965 6.26483e-05)
(0.100093 -0.000763213 0.000445885)
(0.100504 -0.00174906 0.00119435)
(0.101105 -0.00212965 0.00158654)
(0.101635 -0.00223498 0.00174002)
(0.101979 -0.00228777 0.00178161)
(0.102171 -0.0022371 0.00172794)
(0.102252 -0.00211778 0.00160635)
(0.102276 -0.00196757 0.00145742)
(0.102277 -0.00180687 0.00130029)
(0.102268 -0.00166049 0.00114894)
(0.10226 -0.00155703 0.00101548)
(0.102256 -0.00148899 0.000898473)
(0.102256 -0.00144899 0.000787916)
(0.102261 -0.00143474 0.000675734)
(0.102266 -0.00144687 0.000550502)
(0.10227 -0.00148991 0.000402536)
(0.102263 -0.0015759 0.000212877)
(0.10223 -0.00171647 -4.14945e-05)
(0.10215 -0.00191659 -0.000379771)
(0.102279 -0.00221685 -0.000722592)
(0.0995405 -0.000321901 0.000245009)
(0.0992576 -0.00154094 0.00105545)
(0.0988489 -0.00211454 0.001502)
(0.0981248 -0.0020918 0.00157884)
(0.0973367 -0.00188649 0.00151386)
(0.0965845 -0.00166651 0.00144475)
(0.0958645 -0.00149906 0.00140722)
(0.095196 -0.00137334 0.00137405)
(0.0945657 -0.00128799 0.00132521)
(0.0939177 -0.00123529 0.00124859)
(0.0932845 -0.0012015 0.00115014)
(0.0926622 -0.00118498 0.00103975)
(0.0920392 -0.00118385 0.000923886)
(0.091403 -0.00119906 0.000800539)
(0.0907386 -0.00123277 0.000658753)
(0.0900249 -0.00129076 0.000479759)
(0.0892299 -0.0013869 0.000219566)
(0.0882768 -0.00153973 -0.000172709)
(0.0870964 -0.00171797 -0.000808026)
(0.0858284 -0.00246576 -0.00161374)
(0.0993801 5.89308e-05 3.37568e-05)
(0.0992677 0.00120002 0.000274292)
(0.0989803 0.00188853 0.000432165)
(0.0984744 0.00200658 0.000483094)
(0.0979951 0.00191488 0.000478186)
(0.09757 0.00173505 0.000464324)
(0.0971792 0.00154782 0.000450659)
(0.0968279 0.00138949 0.0004385)
(0.096525 0.00127166 0.000429567)
(0.0962656 0.00120231 0.000417011)
(0.0959833 0.00117726 0.000392073)
(0.095676 0.00117923 0.000355449)
(0.0953378 0.0011957 0.000309489)
(0.0949481 0.001227 0.000253907)
(0.0944888 0.00128362 0.000189834)
(0.0939306 0.00137811 0.000101814)
(0.0932191 0.0015348 -3.01965e-05)
(0.0922532 0.00178345 -0.000237032)
(0.0909165 0.00211239 -0.000556142)
(0.0895795 0.0029012 -0.000898303)
(0.100087 0.000707024 0.000144365)
(0.100477 0.00161781 0.000390426)
(0.101066 0.0020347 0.000540991)
(0.101694 0.00211777 0.000609955)
(0.102269 0.00215066 0.000635654)
(0.102741 0.00218076 0.000626175)
(0.103123 0.00213562 0.000593704)
(0.103426 0.00204681 0.000547454)
(0.103677 0.00193946 0.000500762)
(0.103893 0.00183697 0.000455641)
(0.104085 0.00174363 0.000407814)
(0.104266 0.00166604 0.000357653)
(0.104434 0.00162266 0.000307427)
(0.104579 0.00161701 0.000253244)
(0.1047 0.00164018 0.000189634)
(0.104796 0.00170198 0.000112339)
(0.104857 0.0018253 1.08058e-05)
(0.104873 0.00203217 -0.000127163)
(0.10486 0.00232065 -0.000313366)
(0.105159 0.00262343 -0.000544486)
(0.100039 0.000478778 0.000131311)