/*--------------------------------*- C++ -*----------------------------------*\
| =========                 |                                                 |
| \\      /  F ield         | OpenFOAM: The Open Source CFD Toolbox           |
|  \\    /   O peration     | Version:  2212                                  |
|   \\  /    A nd           | Website:  www.openfoam.com                      |
|    \\/     M anipulation  |                                                 |
\*---------------------------------------------------------------------------*/
FoamFile
{
    version     2.0;
    format      ascii;
    arch        "LSB;label=32;scalar=64";
    class       volScalarField;
    location    "1.1";
    object      p;
}
// * * * * * * * * * * * * * * * * * * * * * * * * * * * * * * * * * * * * * //

dimensions      [0 2 -2 0 0 0 0];

internalField   nonuniform List<scalar> 
680
(
0.0070019
0.00684071
0.0066812
0.00652347
0.00636725
0.00621124
0.0060543
0.00704975
0.00687513
0.00670745
0.00654415
0.00638327
0.00622281
0.0060615
0.00704004
0.0068613
0.00669222
0.00652778
0.00636563
0.00620494
0.00604473
0.00700427
0.00683616
0.00667826
0.00652184
0.00636532
0.00620919
0.00605361
0.00698622
0.00681535
0.00665846
0.0065083
0.00635795
0.00620657
0.00605591
0.00698663
0.00681604
0.0066596
0.00651019
0.00636108
0.00621174
0.00606437
0.00700524
0.00683779
0.00668095
0.00652624
0.00637252
0.00622092
0.00704102
0.0068629
0.00669487
0.0065322
0.00637285
0.00621665
0.00705026
0.00687599
0.0067089
0.00654651
0.00638717
0.00622948
0.00700191
0.00684072
0.00668121
0.00652347
0.00636726
0.00621125
0.00705025
0.00687598
0.00670889
0.00654651
0.00638716
0.00622947
0.00607308
0.00718056
0.00697594
0.0067875
0.00660971
0.00643869
0.00627123
0.00610559
0.00717636
0.0069635
0.0067685
0.00658452
0.00640809
0.00623695
0.00606885
0.00714162
0.00693835
0.00675135
0.00657357
0.00640188
0.00623485
0.00607093
0.0071196
0.00691886
0.00673161
0.00655532
0.00638672
0.00622417
0.00606605
0.00712016
0.00691972
0.00673303
0.00655772
0.00639072
0.00623053
0.00607555
0.00714261
0.00694002
0.00675426
0.00657857
0.00640995
0.00624696
0.00717713
0.00696481
0.00677064
0.00658787
0.00641332
0.0062452
0.00718057
0.00697595
0.00678751
0.00660972
0.0064387
0.00627124
0.00704975
0.00687514
0.00670746
0.00654416
0.00638328
0.00622282
0.00704101
0.00686289
0.00669487
0.00653219
0.00637284
0.00621664
0.0060638
0.00717712
0.00696481
0.00677064
0.00658786
0.00641331
0.00624518
0.00608198
0.00715477
0.0069369
0.00673666
0.00654906
0.00637092
0.00619955
0.00603287
0.00709798
0.0068968
0.00670425
0.00652142
0.00634646
0.00617732
0.00601256
0.00705706
0.00687093
0.00668749
0.00650826
0.0063342
0.0061657
0.0060026
0.00705749
0.00687158
0.00668848
0.00650976
0.00633644
0.00616894
0.00600741
0.00709858
0.00689771
0.00670569
0.00652376
0.00635008
0.00618275
0.00715477
0.00693691
0.00673666
0.00654907
0.00637093
0.00619957
0.00717637
0.00696351
0.00676851
0.00658453
0.0064081
0.00623696
0.00704005
0.00686131
0.00669223
0.00652779
0.00636564
0.00620495
0.00700524
0.00683778
0.00668094
0.00652624
0.00637251
0.00622091
0.0060728
0.00714261
0.00694002
0.00675425
0.00657856
0.00640994
0.00624694
0.00608897
0.00709857
0.00689771
0.00670569
0.00652375
0.00635007
0.00618274
0.00602062
0.00702117
0.00683722
0.00665688
0.00648179
0.00631178
0.00614623
0.00598455
0.00698014
0.006806
0.00663242
0.00646123
0.00629331
0.00612896
0.00596814
0.00698031
0.00680622
0.00663273
0.00646166
0.00629391
0.00612983
0.00596944
0.00702118
0.00683723
0.00665689
0.00648179
0.00631178
0.00614624
0.00709799
0.00689681
0.00670425
0.00652143
0.00634647
0.00617734
0.00714162
0.00693836
0.00675136
0.00657358
0.00640189
0.00623486
0.00700428
0.00683617
0.00667827
0.00652184
0.00636533
0.0062092
0.00698663
0.00681603
0.0066596
0.00651018
0.00636107
0.00621172
0.00606435
0.00712016
0.00691972
0.00673303
0.00655771
0.00639071
0.00623052
0.00607553
0.00705749
0.00687158
0.00668848
0.00650975
0.00633643
0.00616893
0.0060074
0.0069803
0.00680622
0.00663272
0.00646165
0.0062939
0.00612982
0.00596944
0.00694118
0.00677468
0.00660633
0.0064385
0.00627262
0.00610944
0.00594928
0.00694118
0.00677468
0.00660633
0.0064385
0.00627262
0.00610944
0.00594929
0.00698015
0.006806
0.00663242
0.00646123
0.00629332
0.00612897
0.00705706
0.00687093
0.0066875
0.00650827
0.00633421
0.00616572
0.0071196
0.00691887
0.00673162
0.00655533
0.00638673
0.00622419
0.00698623
0.00681535
0.00665847
0.0065083
0.00635796
0.00620658
0.00698622
0.00681534
0.00665846
0.00650829
0.00635794
0.00620656
0.00605589
0.0071196
0.00691886
0.00673161
0.00655532
0.00638671
0.00622417
0.00606604
0.00705706
0.00687093
0.00668749
0.00650826
0.0063342
0.0061657
0.0060026
0.00698014
0.006806
0.00663242
0.00646123
0.00629331
0.00612896
0.00596814
0.00694119
0.00677468
0.00660633
0.0064385
0.00627262
0.00610944
0.00594929
0.00694119
0.00677468
0.00660633
0.00643851
0.00627262
0.00610945
0.00594929
0.00698031
0.00680623
0.00663273
0.00646166
0.00629391
0.00612983
0.0070575
0.00687158
0.00668849
0.00650977
0.00633644
0.00616895
0.00712017
0.00691973
0.00673304
0.00655773
0.00639073
0.00623054
0.00698664
0.00681604
0.00665961
0.0065102
0.00636109
0.00621175
0.00700428
0.00683616
0.00667827
0.00652184
0.00636532
0.00620919
0.00605361
0.00714162
0.00693835
0.00675135
0.00657357
0.00640188
0.00623485
0.00607093
0.00709799
0.00689681
0.00670425
0.00652143
0.00634646
0.00617733
0.00601256
0.00702118
0.00683723
0.00665689
0.0064818
0.00631179
0.00614624
0.00598456
0.00698031
0.00680623
0.00663273
0.00646166
0.00629391
0.00612983
0.00596945
0.00715157
0.00698015
0.00680601
0.00663242
0.00646124
0.00629332
0.00612897
0.00596816
0.00720563
0.00702118
0.00683723
0.00665689
0.0064818
0.00631179
0.00614625
0.00730531
0.00709858
0.00689772
0.0067057
0.00652376
0.00635009
0.00618276
0.00736874
0.00714261
0.00694003
0.00675426
0.00657858
0.00640996
0.00624697
0.00719382
0.00700525
0.00683779
0.00668096
0.00652625
0.00637253
0.00622093
0.00704005
0.00686131
0.00669223
0.00652779
0.00636563
0.00620494
0.00604473
0.00717637
0.00696351
0.00676851
0.00658453
0.0064081
0.00623696
0.00606886
0.00715478
0.00693691
0.00673667
0.00654907
0.00637094
0.00619957
0.00603289
0.00709858
0.00689772
0.0067057
0.00652376
0.00635009
0.00618275
0.00602064
0.0070575
0.00687159
0.00668849
0.00650977
0.00633645
0.00616895
0.00600742
0.00724506
0.00705707
0.00687094
0.0066875
0.00650827
0.00633422
0.00616572
0.00600262
0.00730492
0.00709799
0.00689681
0.00670426
0.00652144
0.00634648
0.00617735
0.00739637
0.00715478
0.00693691
0.00673667
0.00654907
0.00637094
0.00619958
0.00741741
0.00717713
0.00696482
0.00677065
0.00658788
0.00641333
0.0062452
0.00723375
0.00704102
0.0068629
0.00669488
0.00653221
0.00637286
0.00621666
0.00704976
0.00687514
0.00670746
0.00654416
0.00638328
0.00622282
0.00606151
0.00718057
0.00697595
0.00678751
0.00660972
0.0064387
0.00627124
0.00610561
0.00717713
0.00696482
0.00677065
0.00658788
0.00641332
0.0062452
0.006082
0.00714262
0.00694003
0.00675427
0.00657858
0.00640996
0.00624697
0.006089
0.00712017
0.00691973
0.00673304
0.00655773
0.00639074
0.00623055
0.00607556
0.00733276
0.00711961
0.00691887
0.00673163
0.00655534
0.00638674
0.00622419
0.00606608
0.00736812
0.00714162
0.00693836
0.00675136
0.00657359
0.0064019
0.00623487
0.00741698
0.00717637
0.00696351
0.00676852
0.00658453
0.00640811
0.00623697
0.00740825
0.00718057
0.00697595
0.00678751
0.00660973
0.00643871
0.00627125
0.00723639
0.00705026
0.006876
0.00670891
0.00654652
0.00638718
0.00622949
0.00700191
0.00684072
0.00668121
0.00652348
0.00636726
0.00621125
0.00605431
0.00705026
0.006876
0.00670891
0.00654652
0.00638717
0.00622949
0.0060731
0.00704102
0.0068629
0.00669488
0.0065322
0.00637286
0.00621666
0.00606382
0.00700526
0.0068378
0.00668096
0.00652626
0.00637253
0.00622093
0.00607283
0.00698664
0.00681605
0.00665962
0.0065102
0.0063611
0.00621175
0.00606439
0.00717695
0.00698623
0.00681536
0.00665847
0.00650831
0.00635797
0.00620658
0.00605593
0.00719326
0.00700428
0.00683617
0.00667828
0.00652185
0.00636533
0.00620921
0.00723317
0.00704005
0.00686131
0.00669223
0.00652779
0.00636564
0.00620496
0.0072361
0.00704975
0.00687514
0.00670746
0.00654416
0.00638329
0.00622283
0.00716836
0.00700191
0.00684072
0.00668121
0.00652348
0.00636727
0.00621125
)
;

boundaryField
{
    inlet
    {
        type            zeroGradient;
    }
    ami1
    {
        type            cyclicAMI;
        value           nonuniform List<scalar> 0();
    }
    walls
    {
        type            zeroGradient;
    }
    ami2
    {
        type            cyclicAMI;
        value           nonuniform List<scalar> 0();
    }
    outlet
    {
        type            fixedValue;
        value           nonuniform List<scalar> 0();
    }
    procBoundary3to2
    {
        type            processor;
        value           nonuniform List<scalar> 
110
(
0.00589635
0.00589896
0.00588322
0.00589819
0.00590767
0.00592176
0.00607282
0.00607282
0.00606382
0.0060731
0.00605432
0.00591841
0.00594079
0.0059017
0.00590862
0.0059114
0.00592567
0.006089
0.006089
0.006082
0.00610561
0.00606152
0.00591459
0.00592236
0.00586946
0.00585101
0.00584476
0.00585198
0.00602063
0.00602063
0.00603289
0.00606887
0.00604475
0.00593013
0.00593662
0.00586306
0.00582613
0.00581064
0.00581256
0.00598456
0.00598456
0.00601257
0.00607094
0.00605363
0.00592174
0.00592564
0.00585197
0.00581255
0.00579212
0.00579212
0.00596815
0.00596815
0.00600262
0.00606607
0.00605592
0.00590765
0.00591139
0.00584476
0.00581064
0.00579212
0.00579213
0.00596945
0.00596945
0.00600742
0.00607556
0.00606438
0.00589819
0.00590863
0.00585102
0.00582614
0.00581256
0.00581066
0.00598457
0.00598457
0.00602064
0.00608901
0.00607283
0.00588323
0.00590172
0.00586948
0.00586308
0.00585199
0.00584479
0.00601258
0.00601258
0.0060329
0.00608201
0.00606383
0.00589898
0.00594081
0.00592239
0.00593666
0.00592568
0.00591142
0.00607095
0.00607095
0.00606887
0.00610562
0.00607311
0.00589637
0.00591843
0.00591462
0.00593017
0.00592178
0.0059077
0.00605363
0.00605363
0.00604475
0.00606152
0.00605432
)
;
    }
    procBoundary3to4
    {
        type            processor;
        value           nonuniform List<scalar> 
109
(
0.00716836
0.00723609
0.00723316
0.00719325
0.00717694
0.00717718
0.00719381
0.00723375
0.00723639
0.00716836
0.00723639
0.00740824
0.00741697
0.00736811
0.00733275
0.00733312
0.00736873
0.00741741
0.00740824
0.0072361
0.00723374
0.00741741
0.00739637
0.00730491
0.00724505
0.00724536
0.0073053
0.00739637
0.00741698
0.00723317
0.00719381
0.00736873
0.0073053
0.00720562
0.00715156
0.00715167
0.00720563
0.00730491
0.00736812
0.00719326
0.00717718
0.00733312
0.00724536
0.00715167
0.00710217
0.00710217
0.00715156
0.00724505
0.00733275
0.00717694
0.00717694
0.00733275
0.00724505
0.00715156
0.00710217
0.00710217
0.00710217
0.00715168
0.00715168
0.00724537
0.00724537
0.00733312
0.00733312
0.00717719
0.00717719
0.00719325
0.00736811
0.00730491
0.00720563
0.00715168
0.00715168
0.00731445
0.0073858
0.00751588
0.00761959
0.0074133
0.00723317
0.00741698
0.00739638
0.00730531
0.00724537
0.00724537
0.00743131
0.00751558
0.00765475
0.00769587
0.00744929
0.0072361
0.00740825
0.00741742
0.00736874
0.00733313
0.00733313
0.00755558
0.00761919
0.00769561
0.00766715
0.00744752
0.00716837
0.0072364
0.00723375
0.00719382
0.00717719
0.00717719
0.00739852
0.00741297
0.00744894
0.00744734
0.00735501
)
;
    }
}


// ************************************************************************* //
