/*--------------------------------*- C++ -*----------------------------------*\
| =========                 |                                                 |
| \\      /  F ield         | OpenFOAM: The Open Source CFD Toolbox           |
|  \\    /   O peration     | Version:  2212                                  |
|   \\  /    A nd           | Website:  www.openfoam.com                      |
|    \\/     M anipulation  |                                                 |
\*---------------------------------------------------------------------------*/
FoamFile
{
    version     2.0;
    format      ascii;
    arch        "LSB;label=32;scalar=64";
    class       volScalarField;
    location    "2.5";
    object      p;
}
// * * * * * * * * * * * * * * * * * * * * * * * * * * * * * * * * * * * * * //

dimensions      [0 2 -2 0 0 0 0];

internalField   nonuniform List<scalar> 
690
(
0.0049954
0.00488707
0.00472115
0.00499461
0.00483211
0.00468173
0.00496679
0.00479542
0.00464834
0.00489785
0.00483939
0.00471598
0.00455796
0.00439567
0.0042364
0.00408233
0.00393394
0.00379043
0.00365021
0.00351229
0.00337681
0.00484738
0.00470299
0.00460008
0.00446874
0.00432526
0.00418511
0.00404609
0.00390709
0.00376919
0.00363348
0.00349994
0.00336776
0.00489791
0.00473294
0.00460258
0.00445976
0.0043103
0.00416366
0.00401978
0.00387685
0.00373543
0.0035969
0.00346136
0.00332816
0.00493181
0.00486597
0.00473646
0.00456818
0.00440086
0.00424138
0.0040875
0.00393893
0.00379424
0.00365236
0.00351288
0.00337636
0.00481107
0.00468169
0.00458954
0.00445764
0.00431325
0.00417294
0.00403543
0.00389802
0.00376179
0.0036275
0.00349488
0.00336342
0.00489452
0.00473547
0.00460992
0.00446368
0.00431067
0.00416188
0.0040164
0.00387281
0.00373186
0.00359407
0.00345902
0.0033261
0.00490664
0.00473634
0.00459595
0.0044481
0.00429652
0.00414795
0.00400273
0.00385994
0.00371965
0.00358194
0.00344657
0.00331325
0.00487433
0.00470963
0.00457636
0.00443372
0.00428587
0.00413978
0.00399603
0.00385414
0.00371409
0.00357622
0.00344057
0.00330692
0.00488367
0.00471451
0.00457385
0.00442869
0.0042809
0.00413535
0.0039922
0.00385087
0.00371128
0.00357368
0.00343819
0.00330465
0.00487438
0.00470969
0.00457641
0.00443376
0.0042859
0.0041398
0.00399606
0.00385417
0.00371413
0.00357627
0.00344064
0.00330698
0.00491262
0.00474299
0.00460493
0.00445698
0.00430443
0.00415493
0.00400885
0.00386518
0.00372406
0.00358569
0.00344979
0.00331593
0.0049668
0.00479559
0.0046485
0.00449317
0.00433552
0.00418265
0.0040335
0.00388635
0.00374223
0.00360201
0.00346537
0.00499459
0.004832
0.00468157
0.00452289
0.00436533
0.00421316
0.00406469
0.00391918
0.00377723
0.00363853
0.00350273
0.00499526
0.0048867
0.0047208
0.0045461
0.00437938
0.00422049
0.00406764
0.00392133
0.00378011
0.00364204
0.00350622
0.00506476
0.00494289
0.00474522
0.00455388
0.0043857
0.00422892
0.00407732
0.00393001
0.0037864
0.00364567
0.00350724
0.00337107
0.00497704
0.00481908
0.004661
0.00448786
0.00432666
0.00417756
0.00403432
0.00389483
0.00375821
0.00362374
0.00349116
0.00335943
0.00496963
0.00480506
0.00466335
0.00449871
0.00433282
0.0041752
0.00402407
0.00387796
0.00373616
0.00359778
0.00346226
0.00332893
0.00495041
0.0047815
0.00463759
0.00448085
0.00432101
0.00416662
0.0040171
0.00387123
0.00372915
0.00359041
0.00345434
0.0033206
0.00491254
0.00474287
0.00460483
0.0044569
0.00430435
0.00415485
0.00400876
0.00386509
0.00372395
0.00358557
0.00344964
0.00331586
0.0048896
0.00472201
0.0045852
0.00444066
0.00429155
0.00414472
0.00400087
0.00385904
0.0037192
0.00358163
0.00344632
0.00331302
0.00490672
0.00473647
0.00459606
0.00444817
0.00429657
0.00414799
0.00400277
0.00386
0.00371973
0.00358204
0.00344668
0.00331334
0.00495074
0.00478189
0.00463782
0.00448096
0.00432107
0.00416668
0.00401717
0.0038713
0.00372923
0.00359053
0.00345451
0.0033207
0.00501549
0.00484101
0.00469198
0.00452368
0.00435484
0.00419356
0.00403788
0.00388721
0.003742
0.00360146
0.0034647
0.00513083
0.00495145
0.00475855
0.00456571
0.00438909
0.00422409
0.00406633
0.00391571
0.00377157
0.00363184
0.00349548
0.00519406
0.00498334
0.00473922
0.00453375
0.00435798
0.00419745
0.00404675
0.00390319
0.00376445
0.00362884
0.00349516
0.00536629
0.00502909
0.00469913
0.00448509
0.00432553
0.00417761
0.00403437
0.00389526
0.00375833
0.00362256
0.00348738
0.00335359
0.00518645
0.00493772
0.00469961
0.00449118
0.00431915
0.00416472
0.0040191
0.00388016
0.00374523
0.00361227
0.00348079
0.00335007
0.00516546
0.00495939
0.00475272
0.00454575
0.00435764
0.00418722
0.00402903
0.00387957
0.00373655
0.003598
0.00346284
0.00332958
0.00501504
0.00484057
0.00469172
0.0045235
0.00435474
0.00419345
0.00403773
0.00388708
0.00374186
0.00360127
0.00346437
0.00333021
0.00496683
0.00479558
0.00464848
0.00449308
0.00433535
0.00418243
0.00403328
0.00388614
0.003742
0.00360176
0.00346505
0.0033309
0.00489793
0.00473305
0.00460268
0.00445976
0.00431017
0.00416349
0.00401968
0.00387682
0.00373542
0.0035969
0.00346139
0.00332825
0.00489458
0.00473558
0.00461001
0.00446375
0.00431071
0.0041619
0.0040164
0.00387282
0.00373188
0.00359411
0.00345908
0.00332619
0.00496993
0.00480541
0.0046636
0.00449886
0.00433288
0.0041752
0.00402404
0.00387793
0.00373614
0.00359782
0.00346235
0.00332908
0.00516588
0.00496
0.0047534
0.00454629
0.00435789
0.00418725
0.00402899
0.00387952
0.00373652
0.00359812
0.00346299
0.00523091
0.00499236
0.00475726
0.00454244
0.00435765
0.00419093
0.00403628
0.0038911
0.00375196
0.00361639
0.00348341
0.0054483
0.00505709
0.00469984
0.00447067
0.00429969
0.00414744
0.00400475
0.00386958
0.00373859
0.00360857
0.00347879
0.00568906
0.00502673
0.00456262
0.00439492
0.00427408
0.00414014
0.00400695
0.00387654
0.0037458
0.00361463
0.00348284
0.00335152
0.00543684
0.00501247
0.00466762
0.00445467
0.00429317
0.00414529
0.00400668
0.00387459
0.00374458
0.00361508
0.00348568
0.00335716
0.00523125
0.00499253
0.00475702
0.00454202
0.00435734
0.00419081
0.00403626
0.00389106
0.00375194
0.00361641
0.00348341
0.00335178
0.00513078
0.00495147
0.00475859
0.00456577
0.00438923
0.00422426
0.00406648
0.00391582
0.00377165
0.00363187
0.00349541
0.00336148
0.00499466
0.00483222
0.00468185
0.00452315
0.00436557
0.00421336
0.00406486
0.00391932
0.00377734
0.00363859
0.00350269
0.003369
0.00484735
0.00470299
0.00460009
0.00446874
0.00432526
0.00418514
0.00404617
0.00390721
0.00376931
0.00363357
0.00350002
0.00336781
0.00481096
0.00468159
0.00458947
0.00445763
0.00431329
0.00417302
0.00403553
0.00389813
0.0037619
0.00362761
0.00349499
0.00336353
0.00497679
0.00481877
0.00466085
0.00448782
0.00432666
0.00417759
0.00403438
0.00389493
0.00375831
0.0036239
0.00349126
0.00335973
0.00518604
0.00493739
0.00469969
0.00449147
0.00431942
0.00416492
0.00401926
0.00388032
0.00374535
0.00361238
0.00348088
0.00543618
0.0050117
0.00466706
0.00445436
0.00429311
0.00414543
0.0040069
0.00387482
0.00374475
0.00361505
0.00348569
0.00568113
0.00502259
0.00455391
0.00438191
0.00425938
0.00412161
0.00398706
0.00385851
0.00373189
0.00360516
0.00347776
0.00566443
0.00495245
0.00447371
0.00435985
0.00426237
0.00413024
0.00399723
0.00386776
0.00373872
0.0036096
0.00348003
0.0033511
0.00568172
0.00502335
0.00455495
0.00438294
0.0042599
0.00412162
0.00398681
0.0038583
0.00373175
0.00360514
0.0034779
0.00335108
0.00544902
0.00505789
0.00470059
0.00447125
0.00429991
0.00414737
0.00400453
0.00386937
0.00373848
0.00360859
0.00347897
0.00334993
0.00519451
0.00498383
0.00473963
0.00453415
0.00435831
0.0041977
0.00404693
0.00390331
0.00376458
0.00362902
0.00349546
0.00336301
0.00499526
0.00488679
0.00472099
0.0045464
0.00437972
0.00422083
0.00406795
0.00392161
0.0037804
0.00364235
0.00350654
0.00337251
0.00489772
0.00483924
0.00471593
0.00455806
0.0043959
0.00423662
0.00408242
0.00393396
0.00379047
0.0036503
0.00351239
0.00337689
0.0049317
0.00486587
0.00473638
0.00456817
0.00440095
0.00424154
0.00408765
0.00393904
0.00379432
0.00365242
0.00351292
0.00337639
0.0050645
0.00494263
0.00474497
0.0045537
0.00438567
0.00422903
0.00407749
0.00393018
0.00378651
0.00364573
0.00350728
0.00337108
0.00536588
0.00502863
0.00469877
0.004485
0.0043257
0.00417794
0.0040347
0.00389551
0.0037585
0.00362254
0.00348745
0.00568853
0.00502605
0.00456172
0.00439416
0.0042739
0.0041404
0.00400736
0.00387685
0.00374603
0.00361472
0.00348286
0.00566387
0.00495174
0.00447266
0.00435888
0.00426203
0.00413038
0.00399755
0.003868
0.00373888
0.00360965
0.00347998
)
;

boundaryField
{
    inlet
    {
        type            zeroGradient;
    }
    ami1
    {
        type            cyclicAMI;
        value           nonuniform List<scalar> 0();
    }
    walls
    {
        type            zeroGradient;
    }
    ami2
    {
        type            cyclicAMI;
        value           nonuniform List<scalar> 
61
(
0.00501825
0.00511209
0.00508545
0.0049233
0.00500979
0.0050302
0.00498716
0.00499181
0.0050405
0.00503186
0.00500782
0.00500312
0.00500785
0.00504658
0.00508541
0.00511206
0.00501817
0.00506921
0.00511557
0.00513071
0.00507855
0.00504654
0.00501858
0.00503191
0.00507877
0.00517558
0.00523703
0.00522066
0.00533822
0.00533477
0.00529264
0.00517534
0.00508543
0.00503018
0.00504053
0.00513086
0.00529289
0.00537115
0.00543866
0.00560871
0.00554147
0.00537143
0.00523704
0.00511211
0.00500976
0.0049917
0.00511538
0.00533447
0.00554097
0.00563106
0.00565094
0.00563152
0.00543917
0.00522098
0.00501818
0.0049232
0.00498704
0.00506897
0.00533788
0.00560828
0.0056505
)
;
    }
    outlet
    {
        type            fixedValue;
        value           nonuniform List<scalar> 0();
    }
    procBoundary1to0
    {
        type            processor;
        value           nonuniform List<scalar> 
138
(
0.00454626
0.00454626
0.00437933
0.00422051
0.00406785
0.00392166
0.00378045
0.00364233
0.00350649
0.00337247
0.00452309
0.00452309
0.00436557
0.0042134
0.00406488
0.00391931
0.00377732
0.00363858
0.00350268
0.00336904
0.00491263
0.00474293
0.00449312
0.00460485
0.00449312
0.00433564
0.00418277
0.00403348
0.00388621
0.003742
0.00360173
0.00346499
0.0033308
0.00488962
0.00472203
0.00458521
0.00444069
0.00429159
0.00414476
0.00400088
0.00385902
0.00371915
0.00358157
0.00344623
0.00331291
0.00488962
0.00472203
0.00458521
0.00444069
0.00429159
0.00414476
0.00400088
0.00385902
0.00371915
0.00358157
0.00344623
0.00331291
0.00488367
0.00471452
0.00457387
0.00442872
0.00428092
0.00413536
0.0039922
0.00385086
0.00371126
0.00357366
0.00343815
0.00330461
0.00485628
0.00469368
0.00456121
0.00441993
0.00427407
0.0041297
0.00398728
0.00384647
0.00370733
0.0035701
0.00343485
0.00330147
0.00488369
0.00471453
0.00457389
0.00442873
0.00428093
0.00413537
0.00399222
0.00385088
0.00371129
0.00357369
0.0034382
0.00330466
0.00488956
0.00472202
0.00458527
0.00444076
0.00429165
0.0041448
0.00400093
0.00385909
0.00371924
0.00358168
0.00344637
0.00331303
0.00489774
0.00473287
0.00460262
0.00445984
0.00431033
0.00416369
0.00401983
0.00387694
0.00373555
0.00359705
0.00346156
0.00484736
0.00470288
0.00459991
0.00446855
0.00432508
0.00418496
0.00404598
0.00390703
0.00376915
0.00363346
0.00349995
0.00489796
0.00483941
0.00471591
0.00455786
0.0043956
0.00423631
0.00408217
0.00393373
0.00379021
0.00365
0.00351211
)
;
    }
    procBoundary1to2
    {
        type            processor;
        value           nonuniform List<scalar> 9(0.00519442 0.00498362 0.00473943 0.0051308 0.00495139 0.00475875 0.00501524 0.0048409 0.00469234);
    }
    procBoundary1to8
    {
        type            processor;
        value           nonuniform List<scalar> 
33
(
0.00324352
0.00323671
0.00319669
0.00324248
0.00323293
0.0031949
0.00318171
0.00317509
0.0031729
0.00323688
0.00322905
0.00319752
0.00318877
0.00318385
0.00318142
0.00322042
0.00322036
0.00319853
0.00319802
0.00319861
0.00319681
0.0032206
0.00322868
0.00322049
0.00322921
0.00323679
0.00323676
0.0032228
0.0032256
0.0032221
0.00323115
0.00323984
0.00324357
)
;
    }
    procBoundary1to9
    {
        type            processor;
        value           nonuniform List<scalar> 
30
(
0.00317511
0.00318382
0.00333107
0.00333107
0.00336907
0.00337236
0.00318176
0.00318869
0.00333048
0.00333048
0.00336168
0.00336293
0.00319495
0.00319734
0.0033301
0.0033301
0.00335196
0.00334966
0.003233
0.00322899
0.0033503
0.0033503
0.00335681
0.00335066
0.00324254
0.00323708
0.00335337
0.00335337
0.00335134
0.00335078
)
;
    }
}


// ************************************************************************* //
