/*--------------------------------*- C++ -*----------------------------------*\
| =========                 |                                                 |
| \\      /  F ield         | OpenFOAM: The Open Source CFD Toolbox           |
|  \\    /   O peration     | Version:  2212                                  |
|   \\  /    A nd           | Website:  www.openfoam.com                      |
|    \\/     M anipulation  |                                                 |
\*---------------------------------------------------------------------------*/
FoamFile
{
    version     2.0;
    format      ascii;
    arch        "LSB;label=32;scalar=64";
    class       surfaceVectorField;
    location    "2.5";
    object      Uf;
}
// * * * * * * * * * * * * * * * * * * * * * * * * * * * * * * * * * * * * * //

dimensions      [0 1 -1 0 0 0 0];

internalField   nonuniform List<vector> 
1805
(
(0.0803306 -0.00105112 -0.00242585)
(0.0903311 -0.00126584 -0.00176821)
(0.0782102 0.000204811 -0.00225762)
(0.0810339 -0.00146864 -0.00223058)
(0.0907271 -0.0017689 -0.00178173)
(0.0791557 -0.000247699 -0.0021945)
(0.0911624 -0.00196721 -0.00161425)
(0.0801446 -0.00059848 -0.00187639)
(0.101876 -0.00199858 -0.0010714)
(0.105455 -0.00184324 -0.000603734)
(0.101273 -0.00124626 -0.000768868)
(0.102088 -0.00221349 -0.00116295)
(0.105702 -0.00204057 -0.00074941)
(0.101458 -0.00145689 -0.000943215)
(0.106006 -0.00216395 -0.000757291)
(0.101728 -0.00157633 -0.000930027)
(0.109516 -0.00189748 -0.000237072)
(0.109294 -0.00140596 -2.57135e-05)
(0.109901 -0.00200832 -0.000291626)
(0.109679 -0.00145221 -0.000102845)
(0.110069 -0.00149581 -0.000115807)
(0.0768986 0.00106118 -0.00198605)
(0.0878778 0.000309716 -0.00123751)
(0.0752385 0.00222809 -0.00195795)
(0.0783618 0.000673914 -0.00180242)
(0.0886571 -5.5175e-06 -0.00121023)
(0.0766808 0.00175059 -0.00159054)
(0.0796318 0.000254079 -0.00151034)
(0.0895239 -0.000267811 -0.00108411)
(0.0781189 0.00118167 -0.00119636)
(0.0805747 -9.11458e-05 -0.00121073)
(0.0903677 -0.000483183 -0.000920173)
(0.0793489 0.000664725 -0.000937376)
(0.0811846 -0.000354261 -0.000903091)
(0.0910372 -0.000655288 -0.000732553)
(0.0802064 0.000249469 -0.000715097)
(0.0814801 -0.000542351 -0.000605655)
(0.0914948 -0.000801478 -0.00050927)
(0.0807141 -6.36623e-05 -0.000485673)
(0.0815274 -0.000670062 -0.00034272)
(0.0917708 -0.000889161 -0.000305787)
(0.0809461 -0.000290881 -0.000275319)
(0.0813823 -0.000757072 -0.000115379)
(0.0918988 -0.000940827 -0.00012072)
(0.0809632 -0.000457 -8.60206e-05)
(0.081089 -0.000817219 7.39214e-05)
(0.0919056 -0.000965094 4.16977e-05)
(0.080807 -0.000580758 7.79099e-05)
(0.080683 -0.000855654 0.000234856)
(0.0918177 -0.00097531 0.000177574)
(0.0805183 -0.000676552 0.000214352)
(0.0801894 -0.000876226 0.000367181)
(0.0916555 -0.00097439 0.000301275)
(0.0801258 -0.000744693 0.000336216)
(0.091436 -0.000969353 0.000402684)
(0.0796515 -0.000789639 0.000434047)
(0.100681 -0.000624077 -0.000551674)
(0.104784 -0.000688591 -0.00019333)
(0.100155 -5.15736e-05 -2.3398e-05)
(0.10101 -0.000749135 -0.000634347)
(0.105099 -0.000715989 -0.000328037)
(0.10038 -8.29088e-05 -1.50349e-05)
(0.101485 -0.000858217 -0.000599404)
(0.10545 -0.00080314 -0.000319414)
(0.10071 -0.000169765 3.11929e-05)
(0.101992 -0.000953089 -0.000509343)
(0.105935 -0.000886831 -0.000260894)
(0.101234 -0.000290238 6.23072e-05)
(0.102477 -0.00103384 -0.000389722)
(0.106455 -0.000961678 -0.000179868)
(0.101789 -0.000425685 9.70453e-05)
(0.102921 -0.00109546 -0.00025202)
(0.106944 -0.00102769 -7.96813e-05)
(0.102288 -0.000556541 0.000145072)
(0.103295 -0.00113114 -0.000111279)
(0.107388 -0.00107705 2.91157e-05)
(0.10272 -0.000666586 0.000203086)
(0.103597 -0.00113649 1.92398e-05)
(0.10778 -0.0011024 0.000133606)
(0.103087 -0.000746184 0.000261021)
(0.103838 -0.00112239 0.000135968)
(0.108124 -0.00110519 0.000228925)
(0.103392 -0.000796744 0.000319489)
(0.104026 -0.00110413 0.000242077)
(0.108423 -0.00109805 0.000314928)
(0.103641 -0.000833372 0.000379425)
(0.104172 -0.00108741 0.000341941)
(0.108684 -0.0010883 0.000394945)
(0.103841 -0.000862542 0.000441033)
(0.108913 -0.0010777 0.000469685)
(0.104 -0.000886076 0.000504074)
(0.109392 -0.000920116 0.000153723)
(0.10892 -0.000496401 0.000661005)
(0.109796 -0.000903562 0.000111574)
(0.109317 -0.000423682 0.000614938)
(0.110265 -0.000925193 0.000115136)
(0.109712 -0.000423089 0.000617519)
(0.110765 -0.000958702 0.000141384)
(0.110202 -0.000459147 0.000620865)
(0.111267 -0.000993129 0.000182042)
(0.110721 -0.000511351 0.000620191)
(0.111759 -0.00102296 0.000232964)
(0.111223 -0.000570889 0.000621282)
(0.112228 -0.00104345 0.000288753)
(0.111701 -0.000629979 0.000624778)
(0.112667 -0.00105263 0.000344822)
(0.112153 -0.000680967 0.000631441)
(0.113074 -0.0010519 0.000398715)
(0.112576 -0.000721031 0.000642209)
(0.113452 -0.00104457 0.000449631)
(0.112971 -0.000751621 0.000656575)
(0.113805 -0.00103424 0.000497253)
(0.113341 -0.000775576 0.000673436)
(0.11369 -0.000794921 0.000691821)
(0.0747741 0.00287468 -0.00160061)
(0.0861826 0.00176977 -0.000651922)
(0.0735275 0.00314827 -0.00103096)
(0.0765468 0.00220936 -0.00104071)
(0.0871342 0.00140852 -0.000188757)
(0.0751487 0.0026707 -0.000154415)
(0.0779705 0.00154506 -0.000681862)
(0.0880946 0.00104849 4.974e-05)
(0.076475 0.00202962 9.37612e-05)
(0.0790226 0.000974998 -0.000477559)
(0.0890421 0.000688901 0.000127472)
(0.0774058 0.00140241 7.80118e-05)
(0.0797516 0.000520854 -0.000318366)
(0.0898007 0.000366815 0.00016583)
(0.077934 0.000864112 6.5229e-05)
(0.0801939 0.000172371 -0.000171368)
(0.0903492 9.07384e-05 0.00021046)
(0.0781873 0.000442382 9.01117e-05)
(0.0803909 -9.18133e-05 -3.33753e-05)
(0.0907259 -0.000139808 0.000266756)
(0.078244 0.00012303 0.00013836)
(0.0803944 -0.00029319 9.39514e-05)
(0.0909615 -0.000312608 0.000316529)
(0.0781468 -0.000119336 0.000198346)
(0.0802433 -0.000449581 0.00020876)
(0.0910773 -0.000445699 0.000368039)
(0.0779249 -0.0003027 0.000263664)
(0.0799705 -0.000571554 0.000310676)
(0.0910956 -0.000551568 0.000420882)
(0.0776066 -0.000443127 0.000331189)
(0.0795933 -0.000661435 0.000401299)
(0.0910328 -0.000633605 0.000473013)
(0.077207 -0.000554563 0.000395998)
(0.0909012 -0.000695096 0.000525511)
(0.0767388 -0.000629115 0.000456503)
(0.0995907 0.000518545 0.000560237)
(0.103945 0.000317589 0.000716605)
(0.0993045 0.000822292 0.00130312)
(0.0999633 0.000506598 0.000669827)
(0.104244 0.000399787 0.000779131)
(0.0995122 0.000854828 0.00164311)
(0.100505 0.000393277 0.000690312)
(0.104615 0.000341206 0.000837767)
(0.0998233 0.000765264 0.00164071)
(0.101068 0.000227719 0.000659676)
(0.105146 0.000224699 0.000838441)
(0.100248 0.000605771 0.0014831)
(0.101604 4.30204e-05 0.000624091)
(0.105701 8.35391e-05 0.000813922)
(0.100642 0.000416096 0.00130877)
(0.102091 -0.000134521 0.000594954)
(0.106212 -6.76122e-05 0.000788002)
(0.100974 0.000221519 0.00114985)
(0.102521 -0.000287049 0.000572202)
(0.106677 -0.000210469 0.000763394)
(0.101262 4.02843e-05 0.00101161)
(0.102889 -0.000410453 0.000559879)
(0.107099 -0.000332217 0.000742199)
(0.101515 -0.000116711 0.000905937)
(0.1032 -0.000510778 0.000562498)
(0.107479 -0.000432995 0.000730433)
(0.101733 -0.000247986 0.000832031)
(0.10346 -0.000593945 0.000578731)
(0.107818 -0.000518287 0.000730345)
(0.101918 -0.000358882 0.000784401)
(0.103674 -0.000662655 0.000604136)
(0.10812 -0.000590055 0.000738941)
(0.102074 -0.000451894 0.00075797)
(0.108391 -0.000649805 0.000753196)
(0.1022 -0.000529829 0.000745914)
(0.108751 -5.12251e-06 0.00111726)
(0.110629 -0.000173615 0.00116018)
(0.107886 0.000138535 0.00166858)
(0.109174 4.81125e-05 0.00111102)
(0.11108 -9.67278e-05 0.00116398)
(0.108353 0.000232597 0.00179299)
(0.109666 3.31184e-05 0.00111181)
(0.111517 -8.06717e-05 0.00117973)
(0.108789 0.000254323 0.00183127)
(0.110176 -2.07457e-05 0.00108964)
(0.112031 -9.66294e-05 0.00116967)
(0.109276 0.000229039 0.00177035)
(0.11068 -9.69178e-05 0.00105117)
(0.112563 -0.000131842 0.00113695)
(0.109738 0.000171986 0.0016604)
(0.111167 -0.000184248 0.00100701)
(0.113078 -0.000179613 0.00109314)
(0.110152 9.36225e-05 0.0015353)
(0.11163 -0.000271892 0.000964177)
(0.113571 -0.000232352 0.00104447)
(0.110528 4.56603e-06 0.00141214)
(0.112067 -0.000352199 0.000927702)
(0.114042 -0.000283345 0.000996385)
(0.110879 -8.25677e-05 0.0013032)
(0.112477 -0.000422827 0.000899877)
(0.114491 -0.000329439 0.000953503)
(0.111209 -0.000164416 0.00121353)
(0.112863 -0.00048426 0.000880621)
(0.114918 -0.000370792 0.000917868)
(0.111523 -0.000239228 0.00114114)
(0.113229 -0.000537427 0.000868696)
(0.115325 -0.000407739 0.000889591)
(0.111826 -0.000306554 0.00108465)
(0.115716 -0.000440419 0.0008679)
(0.112119 -0.000366158 0.00104124)
(0.112991 -0.000254245 0.00119414)
(0.113617 -0.000210085 0.00107375)
(0.112004 -0.000151121 0.00162806)
(0.113491 -0.000216484 0.00122214)
(0.114177 -0.000170172 0.00108402)
(0.112492 -0.000107753 0.00168812)
(0.114017 -0.000202643 0.00122892)
(0.114694 -0.000146286 0.00108832)
(0.112967 -8.40304e-05 0.00172397)
(0.114554 -0.00020243 0.00121179)
(0.115247 -0.000136921 0.00108211)
(0.113485 -6.93894e-05 0.00170947)
(0.115086 -0.000211507 0.00117729)
(0.115809 -0.000135808 0.00106187)
(0.113999 -6.24377e-05 0.00165369)
(0.115606 -0.000226816 0.0011324)
(0.116359 -0.000139697 0.00103222)
(0.114484 -6.35695e-05 0.00157513)
(0.11611 -0.00024537 0.00108193)
(0.116892 -0.000146888 0.000995408)
(0.114939 -7.15027e-05 0.00148453)
(0.116596 -0.00026457 0.00103046)
(0.117409 -0.000155712 0.000954115)
(0.115371 -8.42386e-05 0.00138981)
(0.117062 -0.000283193 0.000981895)
(0.117908 -0.000164855 0.000911714)
(0.115782 -9.94312e-05 0.00129922)
(0.117512 -0.000300999 0.000938354)
(0.118391 -0.000173932 0.000871117)
(0.116175 -0.000116389 0.00121698)
(0.117946 -0.000317723 0.000900655)
(0.118857 -0.000182783 0.00083441)
(0.116555 -0.000134032 0.00114495)
(0.119309 -0.000191202 0.000802214)
(0.116927 -0.000151309 0.00108332)
(0.114771 -9.24567e-05 0.000934838)
(0.114817 0.000132025 0.000696332)
(0.113664 -2.17092e-05 0.00123526)
(0.11537 -8.03385e-05 0.000931577)
(0.115413 0.000134202 0.000693435)
(0.11424 -1.82045e-05 0.00125654)
(0.11596 -7.2192e-05 0.000931639)
(0.11596 0.000133526 0.000700038)
(0.114764 -1.52715e-05 0.00127116)
(0.116543 -6.63342e-05 0.000926089)
(0.116534 0.00013339 0.000700925)
(0.115319 -8.25629e-06 0.00126921)
(0.117116 -6.21116e-05 0.000912876)
(0.117118 0.000134085 0.000694832)
(0.115878 2.87445e-06 0.00124925)
(0.117678 -5.90857e-05 0.000892919)
(0.117691 0.000134203 0.000684407)
(0.116419 1.59684e-05 0.00121682)
(0.118225 -5.6819e-05 0.000866161)
(0.118253 0.000133411 0.000668766)
(0.116941 2.96512e-05 0.00117418)
(0.118758 -5.51933e-05 0.000834232)
(0.118802 0.000131808 0.000648926)
(0.117443 4.23294e-05 0.00112455)
(0.119273 -5.41602e-05 0.000799793)
(0.119336 0.000129564 0.000626192)
(0.117926 5.30635e-05 0.00107046)
(0.119773 -5.37348e-05 0.000765998)
(0.119855 0.000126842 0.000602709)
(0.118391 6.17615e-05 0.00101682)
(0.120258 -5.3848e-05 0.000734778)
(0.120358 0.000123867 0.000580366)
(0.11884 6.8676e-05 0.000966679)
(0.120847 0.000120853 0.000559821)
(0.119276 7.42283e-05 0.000921305)
(0.115407 0.000339287 0.000468957)
(0.114817 0.000627244 0.000294448)
(0.114156 0.000416561 0.000641305)
(0.115968 0.000338459 0.000468426)
(0.115413 0.000625622 0.000282543)
(0.114719 0.000399747 0.000636329)
(0.11654 0.000338491 0.000468972)
(0.11596 0.000632595 0.000274857)
(0.115239 0.00039485 0.000642654)
(0.117119 0.000336865 0.000466504)
(0.116534 0.000634395 0.00026849)
(0.115794 0.00039288 0.000646631)
(0.117696 0.000334539 0.000462396)
(0.117118 0.000629443 0.000263476)
(0.116362 0.000392302 0.000647015)
(0.118269 0.00033104 0.00045618)
(0.117691 0.000620378 0.000258883)
(0.116924 0.00039241 0.000644138)
(0.118833 0.000326162 0.000447692)
(0.118253 0.000606519 0.000253666)
(0.117474 0.000392624 0.000638131)
(0.119385 0.000320242 0.000437476)
(0.118802 0.000588808 0.000247911)
(0.118011 0.000392456 0.000629011)
(0.119922 0.000313719 0.000426192)
(0.119336 0.000568398 0.000241801)
(0.118532 0.000391702 0.000617052)
(0.120444 0.000307135 0.000414607)
(0.119855 0.000547481 0.000235688)
(0.119036 0.00039065 0.000603392)
(0.120951 0.000300863 0.000403325)
(0.120358 0.00052787 0.000229932)
(0.119523 0.000389754 0.000589286)
(0.120846 0.000509887 0.000224692)
(0.119995 0.000389211 0.000575612)
(0.114771 0.000934889 9.21031e-05)
(0.113663 0.00123522 2.16326e-05)
(0.113617 0.00107386 0.000209568)
(0.11537 0.000931817 7.98911e-05)
(0.114239 0.00125684 1.81671e-05)
(0.114177 0.00108452 0.000169522)
(0.11596 0.000932019 7.15925e-05)
(0.114764 0.00127156 1.51199e-05)
(0.114694 0.00108897 0.000145481)
(0.116542 0.000926631 6.5543e-05)
(0.115318 0.00126967 7.89289e-06)
(0.115246 0.00108284 0.000135934)
(0.117116 0.000913534 6.11183e-05)
(0.115878 0.00124978 -3.4951e-06)
(0.115809 0.00106263 0.000134606)
(0.117677 0.000893633 5.7922e-05)
(0.116418 0.00121741 -1.68304e-05)
(0.116358 0.00103297 0.000138299)
(0.118225 0.000866892 5.55277e-05)
(0.116939 0.00117485 -3.06933e-05)
(0.116891 0.000996127 0.000145341)
(0.118757 0.000834881 5.37992e-05)
(0.117441 0.00112528 -4.35042e-05)
(0.117408 0.000954768 0.000154072)
(0.119272 0.000800383 5.26925e-05)
(0.117924 0.00107116 -5.43518e-05)
(0.117907 0.00091227 0.000163151)
(0.119772 0.000766735 5.224e-05)
(0.118388 0.00101763 -6.31223e-05)
(0.118389 0.0008717 0.000172193)
(0.120256 0.00073567 5.23735e-05)
(0.118836 0.000967769 -7.00734e-05)
(0.118855 0.000835167 0.000181037)
(0.119272 0.000922415 -7.55897e-05)
(0.119307 0.000802996 0.000189537)
(0.113089 0.00153746 -4.3256e-05)
(0.111056 0.00168424 7.253e-05)
(0.112048 0.00179837 -1.96215e-06)
(0.113618 0.00158061 -4.09554e-05)
(0.11151 0.00177974 0.000116907)
(0.112552 0.00186525 -1.53351e-05)
(0.114158 0.0015958 -4.49763e-05)
(0.11195 0.00183651 0.000132884)
(0.113034 0.00190345 -3.01617e-05)
(0.114693 0.00158165 -5.88866e-05)
(0.112432 0.00184373 0.000114277)
(0.113553 0.00189089 -4.81562e-05)
(0.115212 0.00154447 -8.00181e-05)
(0.112911 0.00181143 7.16614e-05)
(0.114063 0.00183522 -6.88513e-05)
(0.115712 0.00149088 -0.000104285)
(0.113361 0.00175347 1.47506e-05)
(0.11454 0.00175365 -8.70708e-05)
(0.11619 0.00142616 -0.000128235)
(0.113777 0.00167667 -4.65379e-05)
(0.114983 0.00165675 -0.000100965)
(0.116644 0.00135457 -0.000149441)
(0.114163 0.00158769 -0.000104498)
(0.1154 0.00155316 -0.000109759)
(0.117076 0.00128136 -0.000167177)
(0.114521 0.00149453 -0.000155243)
(0.115794 0.00145069 -0.000113682)
(0.11749 0.00121179 -0.00018191)
(0.114858 0.00140604 -0.000199078)
(0.116169 0.00135564 -0.000113653)
(0.117891 0.00114803 -0.000194197)
(0.115178 0.00132535 -0.000237158)
(0.116532 0.00127103 -0.000111312)
(0.116887 0.00119694 -0.000107424)
(0.109517 0.00189684 0.000237805)
(0.105457 0.00184248 0.000604429)
(0.108535 0.00225286 0.000233523)
(0.109903 0.00200799 0.00029175)
(0.105704 0.00204138 0.000749403)
(0.10903 0.00248246 0.000269908)
(0.110339 0.00205961 0.000290471)
(0.106009 0.00216533 0.000756214)
(0.109467 0.00258355 0.000271566)
(0.110771 0.00205153 0.000242105)
(0.106352 0.00218902 0.000670103)
(0.109895 0.00254934 0.000217134)
(0.111174 0.00200156 0.000163498)
(0.106668 0.00214873 0.000533994)
(0.110265 0.00243815 0.00013418)
(0.111542 0.00192363 6.98252e-05)
(0.106921 0.00206893 0.000371159)
(0.110562 0.00229381 4.18769e-05)
(0.111873 0.00182705 -2.58407e-05)
(0.107115 0.00196037 0.000205029)
(0.110801 0.00212903 -4.69534e-05)
(0.112168 0.00172209 -0.000114551)
(0.107261 0.00182997 5.40657e-05)
(0.111001 0.00196187 -0.000123965)
(0.112434 0.00161865 -0.000192469)
(0.107375 0.00169749 -7.55352e-05)
(0.111175 0.00180626 -0.00018659)
(0.11268 0.00152235 -0.000259871)
(0.107464 0.00157759 -0.000186935)
(0.111337 0.00166803 -0.000237463)
(0.107539 0.00147308 -0.000283004)
(0.111497 0.0015488 -0.000276541)
(0.101878 0.0019993 0.00107132)
(0.0903322 0.00126438 0.00176797)
(0.101454 0.00247091 0.00101554)
(0.10209 0.00221619 0.00116161)
(0.0907298 0.00176788 0.00178083)
(0.101706 0.00286918 0.00111745)
(0.102361 0.00229546 0.00109616)
(0.0911656 0.00196698 0.00161277)
(0.101942 0.0029749 0.0010537)
(0.102593 0.00227307 0.000936093)
(0.0914081 0.00198588 0.00133553)
(0.102063 0.00287189 0.000878728)
(0.102758 0.00219224 0.000728663)
(0.0914255 0.00192198 0.00102065)
(0.102038 0.00268552 0.000663262)
(0.102849 0.00207382 0.000504851)
(0.091261 0.00181148 0.000698037)
(0.101896 0.00245474 0.000439158)
(0.102874 0.00192592 0.000293041)
(0.0909727 0.00168419 0.000405415)
(0.101691 0.00220093 0.000232138)
(0.102851 0.00176391 0.000109186)
(0.0906049 0.00154913 0.000161654)
(0.10146 0.00195225 5.75096e-05)
(0.1028 0.00161174 -4.73355e-05)
(0.090185 0.00141896 -3.65568e-05)
(0.101225 0.00173519 -8.47427e-05)
(0.10273 0.00148122 -0.000182203)
(0.0897406 0.00130346 -0.000191266)
(0.100999 0.00155705 -0.000201918)
(0.089292 0.00120642 -0.000317443)
(0.100793 0.00141507 -0.00029869)
(0.080333 0.00104845 0.00242465)
(0.0820896 0.00185377 0.00248939)
(0.0810379 0.00146533 0.00222936)
(0.0819797 0.0025976 0.00236407)
(0.081411 0.0016285 0.0018496)
(0.081695 0.00263723 0.0019594)
(0.0814167 0.00163411 0.00141503)
(0.080946 0.0023928 0.00143779)
(0.0811234 0.00156258 0.000983937)
(0.0799001 0.00212465 0.000932294)
(0.0806169 0.00146042 0.000591088)
(0.0787526 0.00185683 0.000505025)
(0.0799705 0.00135458 0.000266261)
(0.0776035 0.00161535 0.000175732)
(0.0792428 0.00125253 9.50855e-06)
(0.0764942 0.0014052 -6.63357e-05)
(0.0784716 0.0011581 -0.000186074)
(0.0754425 0.00122996 -0.000249675)
(0.0776881 0.00107589 -0.000332905)
(0.0744592 0.00109295 -0.000369713)
(0.0735448 0.000991579 -0.000455178)
(0.07385 0.00296355 0.000388511)
(0.0851468 0.0021354 0.000971592)
(0.0735753 0.00293472 0.00190729)
(0.0753022 0.00243115 0.000815288)
(0.0861079 0.00185086 0.00169055)
(0.0739043 0.00242789 0.00243543)
(0.076066 0.00182427 0.000703655)
(0.086852 0.00150315 0.00167761)
(0.073697 0.00177197 0.00184274)
(0.0764001 0.00124014 0.000505649)
(0.0873053 0.00112068 0.00142484)
(0.0730505 0.00117222 0.00118365)
(0.0764703 0.000742859 0.000382046)
(0.0874949 0.00074746 0.00119467)
(0.0723461 0.000706778 0.000773019)
(0.0763685 0.000357599 0.000326863)
(0.0875424 0.00043369 0.00101267)
(0.0717404 0.000362065 0.000541738)
(0.0761452 6.77425e-05 0.000315336)
(0.0875095 0.000181481 0.000873995)
(0.0712087 0.000106183 0.000415549)
(0.0758336 -0.000150066 0.00032875)
(0.0874189 -1.99498e-05 0.000778295)
(0.0707053 -8.61794e-05 0.000362471)
(0.075454 -0.000313857 0.000356263)
(0.0872813 -0.000179128 0.000714757)
(0.0702045 -0.000232056 0.000351841)
(0.0750175 -0.000442407 0.000391156)
(0.0871057 -0.000304491 0.000674991)
(0.069697 -0.000342664 0.000363303)
(0.0745285 -0.000537677 0.000428938)
(0.0868961 -0.00040887 0.000651496)
(0.0691707 -0.000432739 0.000383434)
(0.0866535 -0.000484661 0.000642046)
(0.0686344 -0.000494332 0.000411746)
(0.0989797 0.0010647 0.00220301)
(0.102896 0.000761852 0.00204846)
(0.0969424 0.000977527 0.00293202)
(0.0993128 0.00102538 0.00243655)
(0.103259 0.000808326 0.0024119)
(0.0976537 0.000959622 0.00346794)
(0.0996378 0.000914147 0.00230325)
(0.103629 0.000772057 0.00242563)
(0.0979747 0.000917269 0.0032318)
(0.0998688 0.000747795 0.00203844)
(0.104011 0.000683412 0.00224328)
(0.0980063 0.00080819 0.00273557)
(0.100046 0.000557516 0.00176317)
(0.104316 0.000556638 0.00201447)
(0.0978455 0.000663442 0.00227258)
(0.100191 0.000365782 0.00151187)
(0.104553 0.000410806 0.00178752)
(0.0976331 0.000502954 0.00188593)
(0.100315 0.00018532 0.00130353)
(0.104756 0.000261246 0.00158063)
(0.0974375 0.000343115 0.00157289)
(0.100425 2.42175e-05 0.00114501)
(0.104938 0.00012044 0.00141094)
(0.0972745 0.000193496 0.00133728)
(0.100522 -0.000114639 0.0010275)
(0.105107 -6.72241e-06 0.00127886)
(0.0971432 6.01333e-05 0.00116599)
(0.100607 -0.000233122 0.000942223)
(0.105267 -0.000119103 0.00117632)
(0.097039 -5.4217e-05 0.00103884)
(0.10068 -0.000333411 0.000882542)
(0.10542 -0.000217725 0.00109949)
(0.0969566 -0.000154026 0.000950409)
(0.105564 -0.000302119 0.00104145)
(0.0968791 -0.000236598 0.00087983)
(0.107368 0.000388421 0.00235134)
(0.109167 0.000172065 0.00214332)
(0.105974 0.000261264 0.00291222)
(0.107929 0.000437664 0.00249528)
(0.10967 0.000226767 0.0023103)
(0.106399 0.000327335 0.00320883)
(0.108449 0.000438014 0.00245524)
(0.110141 0.000238651 0.0023628)
(0.106802 0.00037498 0.00314703)
(0.10888 0.000405529 0.00230354)
(0.110631 0.000239772 0.00229242)
(0.10713 0.000400243 0.00290285)
(0.109239 0.000345766 0.00211001)
(0.111076 0.000227385 0.00215598)
(0.107326 0.000393735 0.0026069)
(0.109546 0.000266312 0.00191055)
(0.11146 0.000198843 0.00199379)
(0.107425 0.000357818 0.00231239)
(0.109815 0.000178409 0.00172537)
(0.1118 0.000157318 0.00182678)
(0.107476 0.000300141 0.00204422)
(0.110064 9.02949e-05 0.0015665)
(0.112111 0.000110371 0.00166974)
(0.107515 0.00023454 0.0018158)
(0.110302 5.18327e-06 0.00143547)
(0.112404 6.10611e-05 0.00153162)
(0.107561 0.000165339 0.00163131)
(0.110535 -7.4328e-05 0.00132902)
(0.112685 1.19966e-05 0.00141296)
(0.107624 9.66226e-05 0.00148278)
(0.110769 -0.000146989 0.00124373)
(0.112961 -3.51499e-05 0.00131395)
(0.107708 3.1555e-05 0.00136545)
(0.113235 -7.90894e-05 0.00123205)
(0.10781 -2.80324e-05 0.00127136)
(0.11147 -1.09526e-05 0.00210256)
(0.112049 1.92722e-06 0.00179804)
(0.109455 -0.000196327 0.00238941)
(0.111953 1.60748e-05 0.00216603)
(0.112553 1.53582e-05 0.00186428)
(0.109999 -0.00017136 0.00258121)
(0.112471 4.01473e-05 0.00218007)
(0.113035 2.99954e-05 0.00190242)
(0.110476 -0.000117745 0.00266035)
(0.112968 6.20965e-05 0.00212901)
(0.113555 4.76929e-05 0.00188999)
(0.110941 -5.44013e-05 0.00260397)
(0.113427 7.77132e-05 0.00203208)
(0.114065 6.80449e-05 0.00183454)
(0.111341 7.6355e-06 0.00246776)
(0.113848 8.40884e-05 0.00191004)
(0.114543 8.6035e-05 0.00175306)
(0.111663 6.0634e-05 0.00229875)
(0.114235 8.17855e-05 0.00177687)
(0.114987 9.97396e-05 0.0016562)
(0.111928 9.99303e-05 0.00211301)
(0.114593 7.28268e-05 0.00164445)
(0.115404 0.000108372 0.00155268)
(0.112157 0.000125152 0.00192872)
(0.114933 5.91229e-05 0.00152142)
(0.115799 0.000112168 0.00145025)
(0.112364 0.000139314 0.00176004)
(0.115259 4.23589e-05 0.00141197)
(0.116176 0.000112052 0.00135512)
(0.112563 0.000145779 0.00161245)
(0.115579 2.43293e-05 0.00131727)
(0.116539 0.00010964 0.00127011)
(0.112763 0.000144906 0.0014869)
(0.116895 0.000105786 0.00119587)
(0.112968 0.000141962 0.00138152)
(0.113089 4.3537e-05 0.00153734)
(0.113029 0.000264632 0.00116951)
(0.111056 -7.19908e-05 0.00168447)
(0.113619 4.12567e-05 0.00158023)
(0.113573 0.000248744 0.00119148)
(0.11151 -0.000116025 0.00177947)
(0.114158 4.50751e-05 0.00159535)
(0.114072 0.000241233 0.00121013)
(0.111951 -0.000131981 0.00183626)
(0.114694 5.86729e-05 0.00158119)
(0.114607 0.000244028 0.00121362)
(0.112433 -0.000113654 0.00184352)
(0.115214 7.9495e-05 0.00154397)
(0.115152 0.00025399 0.00120145)
(0.112913 -7.1416e-05 0.0018113)
(0.115714 0.000103516 0.00149029)
(0.115682 0.000267851 0.00117751)
(0.113363 -1.48911e-05 0.00175332)
(0.116193 0.000127288 0.00142547)
(0.116192 0.00028319 0.00114458)
(0.11378 4.615e-05 0.00167649)
(0.116648 0.000148359 0.00135378)
(0.116684 0.000297614 0.00110489)
(0.114167 0.000103936 0.00158748)
(0.117081 0.000165986 0.00128043)
(0.117154 0.000309852 0.00106035)
(0.114528 0.000154545 0.00149425)
(0.117496 0.000180629 0.00121061)
(0.117606 0.000320164 0.00101552)
(0.114865 0.000198274 0.00140558)
(0.117897 0.000192881 0.00114669)
(0.118039 0.000329266 0.000973033)
(0.115187 0.00023613 0.00132424)
(0.118459 0.000337475 0.000934124)
(0.115498 0.000268935 0.00125219)
(0.113447 0.000481523 0.000812241)
(0.112983 0.000842395 0.000544353)
(0.111165 0.000351446 0.000896698)
(0.113983 0.000458642 0.000810982)
(0.113511 0.000842719 0.000514604)
(0.111635 0.000295253 0.000865267)
(0.114527 0.000449935 0.000818024)
(0.114002 0.000844612 0.000507451)
(0.112082 0.000279317 0.000869235)
(0.115077 0.000448495 0.000824029)
(0.114536 0.000839257 0.000508722)
(0.112591 0.000285339 0.00088695)
(0.115623 0.000450607 0.000825984)
(0.115084 0.00082555 0.000513267)
(0.113125 0.000302299 0.000905268)
(0.116161 0.000454736 0.000823828)
(0.115621 0.000806455 0.000519673)
(0.113649 0.000327101 0.000920669)
(0.116686 0.000459546 0.000817215)
(0.116144 0.00078412 0.000526544)
(0.114156 0.000356622 0.000930782)
(0.117194 0.000463986 0.000805845)
(0.116649 0.00075999 0.000531908)
(0.11464 0.000386765 0.000932304)
(0.117683 0.000467978 0.000790828)
(0.117136 0.000736367 0.000534702)
(0.115101 0.000415507 0.000925463)
(0.118152 0.000472025 0.000774169)
(0.117604 0.000714925 0.000535795)
(0.115536 0.000443033 0.00091334)
(0.118605 0.000476448 0.000757442)
(0.118055 0.000696553 0.000536118)
(0.115947 0.000469635 0.000899244)
(0.118491 0.000681348 0.00053613)
(0.11634 0.000495115 0.00088526)
(0.112991 0.00119466 0.000253406)
(0.112003 0.00162855 0.000150479)
(0.110629 0.00116018 0.000172604)
(0.11349 0.00122301 0.000215432)
(0.112491 0.00168931 0.000106953)
(0.11108 0.00116455 9.54261e-05)
(0.114017 0.00122987 0.000201408)
(0.112966 0.00172523 8.3113e-05)
(0.111517 0.00118062 7.92345e-05)
(0.114554 0.00121269 0.000201007)
(0.113483 0.00171057 6.83117e-05)
(0.112031 0.00117069 9.50964e-05)
(0.115086 0.00117811 0.000209879)
(0.113997 0.00165452 6.10958e-05)
(0.112563 0.00113798 0.000130155)
(0.115606 0.00113313 0.00022501)
(0.114481 0.0015758 6.20197e-05)
(0.113078 0.00109409 0.000177771)
(0.11611 0.00108255 0.000243448)
(0.114937 0.00148506 6.97838e-05)
(0.11357 0.00104526 0.000230428)
(0.116595 0.00103098 0.000262582)
(0.115368 0.00139016 8.24077e-05)
(0.114042 0.000997023 0.00028141)
(0.117061 0.0009824 0.00028117)
(0.115778 0.00129946 9.75155e-05)
(0.114491 0.000954057 0.000327498)
(0.11751 0.000938921 0.00029897)
(0.11617 0.00121724 0.000114424)
(0.114917 0.000918426 0.000368828)
(0.117945 0.000901276 0.000315758)
(0.11655 0.00114548 0.000132021)
(0.115325 0.000890224 0.000405765)
(0.116921 0.00108399 0.000149427)
(0.115716 0.000868615 0.000438557)
(0.111469 0.00210354 1.04563e-05)
(0.109454 0.00239002 0.000196202)
(0.109166 0.00214401 -0.000172773)
(0.111952 0.00216749 -1.66695e-05)
(0.109996 0.00258272 0.000171466)
(0.109668 0.00231211 -0.000227602)
(0.112469 0.00218148 -4.09214e-05)
(0.110473 0.00266176 0.000117996)
(0.110138 0.00236439 -0.00023999)
(0.112965 0.0021301 -6.31457e-05)
(0.110937 0.00260518 5.4537e-05)
(0.110628 0.0022936 -0.000241485)
(0.113423 0.00203283 -7.90269e-05)
(0.111335 0.00246827 -7.86769e-06)
(0.111072 0.0021567 -0.000229294)
(0.113843 0.00191057 -8.5593e-05)
(0.111656 0.00229902 -6.12636e-05)
(0.111455 0.00199414 -0.000200745)
(0.114229 0.00177719 -8.34538e-05)
(0.111919 0.00211285 -0.000100919)
(0.111794 0.00182686 -0.000159118)
(0.114587 0.00164458 -7.46277e-05)
(0.112147 0.00192812 -0.000126382)
(0.112104 0.00166958 -0.000112197)
(0.114925 0.00152148 -6.10215e-05)
(0.112353 0.00175922 -0.000140704)
(0.112396 0.00153133 -6.28721e-05)
(0.115251 0.00141225 -4.43419e-05)
(0.11255 0.00161157 -0.000147327)
(0.112677 0.00141275 -1.38376e-05)
(0.11557 0.00131793 -2.63107e-05)
(0.112748 0.00148708 -0.000146603)
(0.112952 0.00131418 3.3268e-05)
(0.113226 0.00123298 7.72134e-05)
(0.107973 0.00287586 0.000328682)
(0.104252 0.00292654 0.000682914)
(0.106241 0.00312846 0.000188672)
(0.10857 0.00306731 0.000285495)
(0.104736 0.00333048 0.000654584)
(0.106702 0.00346289 0.000144619)
(0.109067 0.0030573 0.00020607)
(0.105094 0.00339386 0.000558915)
(0.107109 0.0034268 3.72154e-05)
(0.109429 0.00291344 0.00010761)
(0.105289 0.00323262 0.00041092)
(0.10741 0.00319522 -7.4081e-05)
(0.109684 0.0027094 9.38743e-06)
(0.10531 0.00298484 0.000245659)
(0.107561 0.00289686 -0.000163489)
(0.109856 0.00248287 -7.66057e-05)
(0.105201 0.00269861 8.98567e-05)
(0.1076 0.00259346 -0.000222931)
(0.109971 0.002253 -0.000144438)
(0.10503 0.00239728 -3.93971e-05)
(0.10758 0.00230779 -0.000252819)
(0.110054 0.00203939 -0.000194121)
(0.104842 0.00211914 -0.000140728)
(0.107539 0.00205618 -0.000262985)
(0.110127 0.00185184 -0.000229451)
(0.104657 0.0018847 -0.000218892)
(0.107504 0.00184529 -0.000259052)
(0.110205 0.00169276 -0.000252147)
(0.104493 0.00169228 -0.000278397)
(0.107489 0.00167099 -0.000246455)
(0.10436 0.00153859 -0.000320976)
(0.1075 0.00153045 -0.000227156)
(0.101208 0.00327121 0.00102568)
(0.0920058 0.00292708 0.00180596)
(0.0986552 0.00365495 0.000860895)
(0.101567 0.00353252 0.0009523)
(0.0917494 0.0035821 0.00167144)
(0.099519 0.00422805 0.000779727)
(0.101685 0.00346231 0.000784211)
(0.0912629 0.00347283 0.00136597)
(0.0997543 0.00404154 0.000585172)
(0.101535 0.00321393 0.000568434)
(0.0903754 0.00310849 0.00096392)
(0.0994601 0.00353804 0.00033835)
(0.101212 0.00289501 0.00034815)
(0.0892618 0.00273459 0.000571171)
(0.0988479 0.0030087 0.000124042)
(0.100792 0.0025455 0.000151078)
(0.0881078 0.00236323 0.000249379)
(0.0981255 0.0025265 -4.09721e-05)
(0.100344 0.00220577 -9.94554e-06)
(0.0870106 0.00201479 7.43257e-06)
(0.097412 0.00211947 -0.000158776)
(0.0999097 0.00191248 -0.000137249)
(0.0860058 0.00171316 -0.000164467)
(0.0967559 0.00179581 -0.000238352)
(0.0995108 0.00167616 -0.000237018)
(0.0851053 0.00146934 -0.000290919)
(0.0961734 0.00155217 -0.000291791)
(0.0991552 0.00149117 -0.000314342)
(0.0843067 0.00128266 -0.000372812)
(0.0956701 0.00136758 -0.000327894)
(0.0836 0.00114481 -0.000427702)
(0.0952424 0.00122863 -0.000351144)
(0.0838087 0.00325295 0.00236067)
(0.0840457 0.00388346 0.00225457)
(0.0827711 0.00358033 0.00199117)
(0.0817173 0.00453656 0.00192134)
(0.0812506 0.00323606 0.00145584)
(0.0790539 0.00393362 0.00125621)
(0.0794734 0.00276458 0.000896663)
(0.0761021 0.00308288 0.000619647)
(0.07764 0.00233848 0.000421588)
(0.07338 0.00240029 0.000179143)
(0.0759007 0.00195632 7.10659e-05)
(0.0710777 0.00188174 -9.50333e-05)
(0.0743187 0.00162818 -0.0001689)
(0.0691801 0.00148856 -0.000266708)
(0.0729092 0.0013605 -0.000331326)
(0.0676121 0.00119082 -0.000366985)