/*--------------------------------*- C++ -*----------------------------------*\
| =========                 |                                                 |
| \\      /  F ield         | OpenFOAM: The Open Source CFD Toolbox           |
|  \\    /   O peration     | Version:  2212                                  |
|   \\  /    A nd           | Website:  www.openfoam.com                      |
|    \\/     M anipulation  |                                                 |
\*---------------------------------------------------------------------------*/
FoamFile
{
    version     2.0;
    format      ascii;
    arch        "LSB;label=32;scalar=64";
    class       volScalarField;
    location    "2.5";
    object      p;
}
// * * * * * * * * * * * * * * * * * * * * * * * * * * * * * * * * * * * * * //

dimensions      [0 2 -2 0 0 0 0];

internalField   nonuniform List<scalar> 
689
(
0.00426175
0.00413219
0.00399992
0.00386952
0.00373975
0.00361003
0.00348017
0.0033511
0.00427383
0.00414257
0.00401007
0.00387859
0.00374693
0.00361504
0.00348284
0.00335137
0.00448495
0.00432709
0.00417992
0.0040363
0.00389636
0.00375875
0.00362254
0.00348712
0.00335316
0.00506409
0.00494273
0.00474511
0.00455394
0.00438626
0.00422988
0.00407838
0.00393088
0.00378695
0.00364593
0.00350731
0.00337102
0.00493179
0.0048661
0.0047365
0.00456826
0.00440118
0.00424194
0.00408811
0.0039394
0.00379452
0.00365246
0.00351285
0.00337627
0.00489782
0.0048394
0.00471605
0.00455813
0.00439597
0.00423674
0.00408256
0.00393406
0.00379052
0.00365028
0.00351231
0.0033768
0.0049952
0.00488679
0.00472096
0.0045463
0.00437962
0.00422076
0.00406789
0.00392156
0.00378036
0.00364229
0.00350647
0.00337246
0.00519403
0.00498334
0.0047393
0.00453392
0.00435819
0.00419769
0.00404699
0.00390343
0.00376468
0.00362906
0.0034954
0.00336296
0.00544829
0.00505706
0.00469991
0.00447085
0.00429987
0.00414763
0.00400494
0.00386975
0.00373875
0.00360873
0.00347886
0.00568111
0.00502256
0.00455398
0.00438213
0.00425971
0.00412195
0.00398738
0.00385879
0.00373206
0.00360541
0.0034777
0.00566388
0.00495175
0.00447282
0.00435908
0.0042623
0.00413057
0.00399768
0.00386811
0.00373886
0.00360976
0.00347979
0.00425882
0.00412312
0.00398946
0.00386029
0.00373307
0.00360583
0.00347818
0.00335118
0.00429414
0.00414683
0.00400807
0.00387565
0.00374528
0.00361551
0.00348594
0.00335722
0.00449274
0.0043204
0.00416494
0.00401868
0.00387975
0.00374481
0.00361192
0.00348049
0.00334974
0.00497714
0.00481904
0.00466129
0.00448809
0.00432647
0.00417731
0.00403423
0.00389487
0.00375825
0.00362373
0.00349113
0.00335939
0.00481113
0.00468168
0.0045896
0.00445777
0.00431338
0.00417311
0.00403561
0.00389817
0.00376187
0.00362753
0.00349489
0.00336342
0.00484743
0.00470305
0.00460015
0.00446881
0.00432531
0.00418516
0.00404617
0.00390718
0.00376924
0.0036335
0.00349997
0.00336779
0.00499464
0.0048321
0.00468171
0.00452307
0.00436552
0.00421335
0.00406486
0.00391932
0.00377733
0.00363859
0.00350274
0.0033691
0.0051309
0.00495161
0.00475872
0.0045659
0.00438928
0.00422425
0.00406645
0.00391577
0.00377162
0.00363186
0.00349554
0.0033617
0.00523104
0.00499248
0.00475732
0.00454248
0.00435768
0.00419092
0.00403626
0.0038911
0.003752
0.0036164
0.00348351
0.0054363
0.0050118
0.0046672
0.00445458
0.00429331
0.00414557
0.00400699
0.00387491
0.00374479
0.00361517
0.00348549
0.0056886
0.00502616
0.00456192
0.00439444
0.00427418
0.00414056
0.00400739
0.00387683
0.0037459
0.0036147
0.00348253
0.00447024
0.00430016
0.00414851
0.00400581
0.00387023
0.0037389
0.00360869
0.0034789
0.00334971
0.00454368
0.00435873
0.00419108
0.00403575
0.0038906
0.00375155
0.00361612
0.00348319
0.00335154
0.00454769
0.00435802
0.00418653
0.00402808
0.00387872
0.00373576
0.0035973
0.00346221
0.00332908
0.00496997
0.00480518
0.0046638
0.00449919
0.00433288
0.00417497
0.00402375
0.00387764
0.00373582
0.00359745
0.00346197
0.00332872
0.00489452
0.00473539
0.00461006
0.00446396
0.00431089
0.00416199
0.00401642
0.00387279
0.00373181
0.00359401
0.00345898
0.0033261
0.00489789
0.00473295
0.00460266
0.00445986
0.00431033
0.00416366
0.00401983
0.00387694
0.00373549
0.00359694
0.00346142
0.00332829
0.00496693
0.00479566
0.00464855
0.00449321
0.00433552
0.00418261
0.00403346
0.0038863
0.00374213
0.00360186
0.00346517
0.00333101
0.00501558
0.00484119
0.00469216
0.00452376
0.00435481
0.00419345
0.00403773
0.00388703
0.0037418
0.00360124
0.00346453
0.00333042
0.00516587
0.00496002
0.00475336
0.00454617
0.00435773
0.00418711
0.00402884
0.00387935
0.00373639
0.00359793
0.00346318
0.00518623
0.00493749
0.00469959
0.00449133
0.0043193
0.00416481
0.00401915
0.0038802
0.00374524
0.00361218
0.00348082
0.00536612
0.00502888
0.00469901
0.00448525
0.00432586
0.00417792
0.00403455
0.0038953
0.00375823
0.00362237
0.00348697
0.00453376
0.00435786
0.00419761
0.0040472
0.00390373
0.00376493
0.00362924
0.00349557
0.00336304
0.0045661
0.00438936
0.00422423
0.00406644
0.00391581
0.00377163
0.00363185
0.00349539
0.00336147
0.00452421
0.00435514
0.00419362
0.00403777
0.00388698
0.00374164
0.00360098
0.00346406
0.00332995
0.00495063
0.00478175
0.00463793
0.00448117
0.00432114
0.0041666
0.004017
0.00387107
0.00372895
0.00359019
0.00345411
0.00332039
0.0049067
0.00473642
0.00459611
0.00444829
0.00429665
0.00414802
0.00400274
0.00385993
0.00371961
0.00358189
0.00344652
0.0033132
0.00488962
0.00472204
0.00458525
0.00444074
0.00429162
0.00414477
0.00400089
0.00385905
0.00371918
0.0035816
0.00344628
0.00331298
0.00491271
0.00474306
0.00460496
0.00445697
0.00430437
0.00415485
0.00400876
0.00386509
0.00372397
0.00358559
0.00344968
0.00331591
0.0049508
0.00478198
0.00463791
0.00448097
0.00432097
0.00416652
0.00401699
0.00387113
0.00372907
0.00359037
0.00345438
0.00332065
0.00496964
0.00480515
0.00466354
0.00449881
0.00433277
0.00417509
0.00402395
0.00387785
0.0037361
0.00359781
0.00346247
0.00497676
0.0048187
0.00466074
0.0044877
0.00432656
0.00417753
0.00403435
0.00389487
0.00375825
0.00362377
0.00349132
0.00506493
0.00494303
0.00474509
0.00455371
0.00438565
0.00422894
0.00407732
0.00392994
0.00378623
0.00364542
0.0035069
0.00454626
0.00437933
0.00422051
0.00406785
0.00392166
0.00378045
0.00364233
0.00350649
0.00337247
0.00452309
0.00436557
0.0042134
0.00406488
0.00391931
0.00377732
0.00363858
0.00350268
0.00336904
0.00449312
0.00433564
0.00418277
0.00403348
0.00388621
0.003742
0.00360173
0.00346499
0.0033308
0.00491263
0.00474293
0.00460485
0.00445694
0.00430442
0.0041549
0.00400876
0.00386504
0.00372388
0.00358548
0.00344953
0.00331574
0.00487436
0.00470968
0.00457642
0.00443379
0.00428593
0.00413981
0.00399604
0.00385412
0.00371406
0.00357618
0.00344053
0.00330689
0.0048837
0.00471454
0.00457388
0.00442872
0.00428092
0.00413535
0.00399219
0.00385085
0.00371126
0.00357365
0.00343816
0.00330462
0.0048744
0.00470971
0.00457643
0.00443377
0.0042859
0.00413979
0.00399605
0.00385415
0.00371411
0.00357625
0.00344061
0.00330698
0.0049067
0.00473646
0.00459611
0.00444823
0.0042966
0.00414799
0.00400274
0.00385995
0.00371968
0.00358199
0.00344665
0.00331332
0.0048943
0.00473528
0.00460992
0.00446381
0.0043108
0.00416196
0.00401642
0.00387283
0.00373191
0.00359418
0.00345919
0.0048109
0.00468149
0.00458939
0.00445754
0.00431319
0.00417292
0.00403542
0.00389801
0.00376179
0.00362751
0.00349494
0.00493213
0.00486624
0.00473644
0.00456802
0.00440071
0.00424129
0.00408743
0.00393881
0.00379405
0.00365212
0.00351262
0.00488962
0.00472203
0.00458521
0.00444069
0.00429159
0.00414476
0.00400088
0.00385902
0.00371915
0.00358157
0.00344623
0.00331291
0.00488367
0.00471452
0.00457387
0.00442872
0.00428092
0.00413536
0.0039922
0.00385086
0.00371126
0.00357366
0.00343815
0.00330461
0.00485628
0.00469368
0.00456121
0.00441993
0.00427407
0.0041297
0.00398728
0.00384647
0.00370733
0.0035701
0.00343485
0.00330147
0.00488369
0.00471453
0.00457389
0.00442873
0.00428093
0.00413537
0.00399222
0.00385088
0.00371129
0.00357369
0.0034382
0.00330466
0.00488956
0.00472202
0.00458527
0.00444076
0.00429165
0.0041448
0.00400093
0.00385909
0.00371924
0.00358168
0.00344637
0.00331303
0.00489774
0.00473287
0.00460262
0.00445984
0.00431033
0.00416369
0.00401983
0.00387694
0.00373555
0.00359705
0.00346156
0.00484736
0.00470288
0.00459991
0.00446855
0.00432508
0.00418496
0.00404598
0.00390703
0.00376915
0.00363346
0.00349995
0.00489796
0.00483941
0.00471591
0.00455786
0.0043956
0.00423631
0.00408217
0.00393373
0.00379021
0.00365
0.00351211
)
;

boundaryField
{
    inlet
    {
        type            zeroGradient;
    }
    ami1
    {
        type            cyclicAMI;
        value           nonuniform List<scalar> 0();
    }
    walls
    {
        type            zeroGradient;
    }
    ami2
    {
        type            cyclicAMI;
        value           nonuniform List<scalar> 
48
(
0.00506862
0.00498701
0.00492322
0.00501811
0.00522063
0.00543867
0.00563108
0.00565054
0.00511564
0.00499184
0.00500983
0.00511208
0.00523708
0.00537124
0.00554107
0.00560837
0.00513101
0.00504061
0.00503019
0.00508552
0.00517564
0.00529289
0.00533459
0.00533807
0.00507876
0.00503194
0.00501862
0.00504666
0.00507883
0.00513072
0.0051154
0.00506926
0.0050466
0.00500786
0.00500315
0.00500788
0.0050319
0.00504037
0.0049917
0.00498734
0.0050186
0.00500311
0.00498565
0.00500314
0.00501855
0.00503005
0.00500978
0.00492336
)
;
    }
    outlet
    {
        type            fixedValue;
        value           nonuniform List<scalar> 0();
    }
    procBoundary0to1
    {
        type            processor;
        value           nonuniform List<scalar> 
138
(
0.00472115
0.00455796
0.00439567
0.0042364
0.00408233
0.00393394
0.00379043
0.00365021
0.00351229
0.00337681
0.00468173
0.00446874
0.00432526
0.00418511
0.00404609
0.00390709
0.00376919
0.00363348
0.00349994
0.00336776
0.00496679
0.00479542
0.00464834
0.00464834
0.00445976
0.0043103
0.00416366
0.00401978
0.00387685
0.00373543
0.0035969
0.00346136
0.00332816
0.00489791
0.00473294
0.00460258
0.00445976
0.0043103
0.00416366
0.00401978
0.00387685
0.00373543
0.0035969
0.00346136
0.00332816
0.00490664
0.00473634
0.00459595
0.0044481
0.00429652
0.00414795
0.00400273
0.00385994
0.00371965
0.00358194
0.00344657
0.00331325
0.00487433
0.00470963
0.00457636
0.00443372
0.00428587
0.00413978
0.00399603
0.00385414
0.00371409
0.00357622
0.00344057
0.00330692
0.00488367
0.00471451
0.00457385
0.00442869
0.0042809
0.00413535
0.0039922
0.00385087
0.00371128
0.00357368
0.00343819
0.00330465
0.00487438
0.00470969
0.00457641
0.00443376
0.0042859
0.0041398
0.00399606
0.00385417
0.00371413
0.00357627
0.00344064
0.00330698
0.00491262
0.00474299
0.00460493
0.00445698
0.00430443
0.00415493
0.00400885
0.00386518
0.00372406
0.00358569
0.00344979
0.00331593
0.0049668
0.00479559
0.0046485
0.00449317
0.00433552
0.00418265
0.0040335
0.00388635
0.00374223
0.00360201
0.00346537
0.00499459
0.004832
0.00468157
0.00452289
0.00436533
0.00421316
0.00406469
0.00391918
0.00377723
0.00363853
0.00350273
0.00499526
0.0048867
0.0047208
0.0045461
0.00437938
0.00422049
0.00406764
0.00392133
0.00378011
0.00364204
0.00350622
)
;
    }
    procBoundary0to2
    {
        type            processor;
        value           nonuniform List<scalar> 
28
(
0.00435708
0.00439243
0.00439243
0.00536558
0.0050285
0.00469815
0.00469815
0.00438014
0.00438014
0.00445427
0.00445427
0.00445427
0.00518638
0.00493802
0.00470058
0.00470058
0.0046996
0.00475768
0.00516601
0.00496002
0.00475454
0.00475454
0.00473943
0.00475875
0.00501524
0.0048409
0.00469234
0.00469234
)
;
    }
    procBoundary0to8
    {
        type            processor;
        value           nonuniform List<scalar> 
29
(
0.00322272
0.00322038
0.00322
0.00323679
0.00324238
0.00322562
0.00322871
0.00322009
0.00322901
0.00323294
0.0032219
0.00322029
0.00319811
0.00319733
0.00319491
0.00323116
0.0032292
0.00319776
0.00318858
0.00318167
0.00323983
0.00323683
0.00319847
0.00318373
0.00317505
0.00317287
0.00318132
0.00317287
0.00316984
)
;
    }
    procBoundary0to9
    {
        type            processor;
        value           nonuniform List<scalar> 
40
(
0.00324348
0.00323985
0.00323132
0.00334971
0.00334971
0.00335058
0.00335064
0.00323676
0.00323687
0.00322929
0.00335203
0.00335203
0.0033568
0.00335114
0.00319684
0.00319869
0.00319802
0.00333009
0.00333009
0.00335026
0.00335322
0.0031814
0.00318389
0.00318876
0.00332909
0.00332909
0.00335963
0.00337087
0.00317513
0.00318176
0.00332623
0.00332623
0.00336344
0.00337619
0.0031729
0.0031814
0.00332834
0.00332834
0.00336777
0.0033767
)
;
    }
}


// ************************************************************************* //
