/*--------------------------------*- C++ -*----------------------------------*\
| =========                 |                                                 |
| \\      /  F ield         | OpenFOAM: The Open Source CFD Toolbox           |
|  \\    /   O peration     | Version:  2212                                  |
|   \\  /    A nd           | Website:  www.openfoam.com                      |
|    \\/     M anipulation  |                                                 |
\*---------------------------------------------------------------------------*/
FoamFile
{
    version     2.0;
    format      ascii;
    arch        "LSB;label=32;scalar=64";
    class       volScalarField;
    location    "0.35";
    object      epsilon;
}
// * * * * * * * * * * * * * * * * * * * * * * * * * * * * * * * * * * * * * //

dimensions      [0 2 -3 0 0 0 0];

internalField   nonuniform List<scalar> 
682
(
0.0881053
0.0881457
0.0882179
0.0883102
0.0884132
0.0885194
0.0886232
0.0887206
0.0888078
0.0888811
0.0889358
0.0903288
0.0903733
0.0904485
0.0905431
0.0906479
0.0907555
0.0908603
0.0909584
0.0910463
0.0911207
0.0911775
0.0967045
0.0967805
0.0968802
0.096993
0.0971109
0.0972278
0.0973395
0.0974426
0.0975346
0.0976127
0.0976745
0.110301
0.110398
0.110504
0.110623
0.110752
0.110884
0.111013
0.111136
0.111248
0.111348
0.111433
0.111501
0.144868
0.145075
0.145269
0.145457
0.145639
0.145814
0.145979
0.146132
0.146269
0.14639
0.146492
0.146575
0.271425
0.271664
0.271903
0.272134
0.272356
0.272567
0.272765
0.272946
0.273107
0.273249
0.27337
0.27347
0.0486186
0.0485666
0.0485398
0.0485328
0.0485414
0.0485619
0.0485911
0.0486271
0.0486702
0.0487275
0.0488265
0.0493725
0.04932
0.0492948
0.0492911
0.0493031
0.0493258
0.0493573
0.0493949
0.0494379
0.049492
0.0495799
0.0514769
0.0514389
0.0514318
0.0514436
0.0514679
0.0515011
0.0515402
0.051583
0.0516286
0.0516795
0.0517425
0.0563676
0.0564382
0.0564929
0.0565388
0.0565851
0.0566335
0.0566844
0.0567365
0.0567881
0.0568386
0.0568892
0.0569417
0.0714046
0.0714702
0.0715406
0.071614
0.0716894
0.0717654
0.0718401
0.0719116
0.0719785
0.07204
0.0720961
0.0721473
0.144171
0.144357
0.144544
0.14473
0.144913
0.14509
0.145257
0.145411
0.145549
0.145671
0.145774
0.145857
0.0459028
0.0457827
0.0456776
0.0455998
0.0455458
0.0455141
0.0455056
0.0455165
0.0455502
0.0456252
0.0457908
0.0459642
0.0458379
0.0457441
0.0456773
0.0456358
0.0456034
0.0456073
0.0456226
0.0456555
0.0457211
0.0458601
0.0463371
0.0462591
0.0461942
0.0461508
0.0461289
0.0461251
0.0461357
0.0461578
0.046192
0.0462477
0.0463533
0.0481519
0.0480941
0.0480622
0.0480474
0.0480446
0.0480554
0.0480774
0.0481069
0.0481412
0.0481806
0.0482291
0.0482941
0.0560728
0.056073
0.056094
0.0561282
0.0561716
0.0562211
0.0562741
0.0563281
0.0563812
0.056433
0.0564844
0.0565385
0.108246
0.108341
0.108456
0.108585
0.108718
0.108852
0.108981
0.109101
0.109212
0.10931
0.109394
0.109461
0.0468951
0.0467301
0.0465275
0.0463781
0.0462703
0.0462012
0.0461857
0.0461812
0.0462003
0.0462552
0.0464084
0.0465119
0.0463524
0.0462042
0.0460866
0.0460011
0.045948
0.0459355
0.0459345
0.045949
0.0459952
0.0461233
0.046063
0.0458859
0.0457374
0.0456353
0.0455812
0.0455533
0.0455436
0.045549
0.045567
0.0456083
0.0457136
0.046275
0.046138
0.0460406
0.0459762
0.0459298
0.0459153
0.0459155
0.0459279
0.0459502
0.0459834
0.0460385
0.0461469
0.0510305
0.0509661
0.0509521
0.0509569
0.050977
0.0510081
0.0510469
0.0510901
0.0511358
0.0511837
0.0512365
0.051302
0.0955185
0.095569
0.0956511
0.0957536
0.0958675
0.0959857
0.0961027
0.0962145
0.0963179
0.0964105
0.0964894
0.0965523
0.0475025
0.0473186
0.0471256
0.0469685
0.0468483
0.0467666
0.046724
0.0467242
0.0467303
0.046791
0.0469473
0.0465095
0.0463203
0.0461495
0.0460217
0.0459313
0.0458735
0.0458573
0.0458516
0.0458649
0.0459116
0.0460365
0.0459913
0.0458014
0.0456595
0.0455558
0.0454844
0.0454404
0.0454197
0.0454175
0.0454307
0.0454616
0.045525
0.0456595
0.0491365
0.0490616
0.0489951
0.0489803
0.0489835
0.0490012
0.0490294
0.0490647
0.0491046
0.0491492
0.0492033
0.0492823
0.0895706
0.0895838
0.0896376
0.0897185
0.089816
0.0899219
0.0900297
0.0901345
0.0902327
0.0903211
0.0903967
0.090456
0.0479606
0.0477312
0.047509
0.047329
0.0471909
0.0470949
0.0470426
0.0470382
0.047043
0.0471075
0.0472709
0.0468434
0.0466241
0.0464148
0.0462602
0.0461506
0.0460802
0.0460447
0.0460429
0.0460523
0.0461054
0.0462359
0.0460946
0.0458831
0.0457183
0.0455934
0.0455043
0.0454462
0.0454134
0.0454038
0.0454125
0.0454425
0.045509
0.0456519
0.0487091
0.0486133
0.0485242
0.0484976
0.048491
0.0485011
0.0485233
0.0485542
0.0485912
0.0486342
0.0486887
0.0487716
0.088131
0.0881228
0.0881599
0.088228
0.0883162
0.0884152
0.088518
0.0886191
0.0887144
0.0888006
0.0888741
0.0889313
0.047591
0.0473799
0.0471571
0.0469793
0.0468453
0.0467542
0.0467069
0.0467032
0.0467093
0.0467708
0.0469247
0.0467295
0.0464717
0.0462458
0.046088
0.0459807
0.045914
0.0458844
0.0458844
0.0458978
0.0459441
0.0460666
0.046213
0.046008
0.0458479
0.0457283
0.0456459
0.0455964
0.04556
0.0455598
0.0455726
0.0456031
0.0456658
0.0457981
0.0494667
0.0493721
0.0492907
0.0492678
0.049264
0.049276
0.0492998
0.0493323
0.0493703
0.0494136
0.0494676
0.04955
0.090374
0.0903659
0.0904034
0.0904725
0.090562
0.0906625
0.0907668
0.0908691
0.0909655
0.0910524
0.0911263
0.0911834
0.0465986
0.0464346
0.0462361
0.0460912
0.0459882
0.0459234
0.0459066
0.0458941
0.045915
0.0459663
0.0461041
0.0461058
0.0459451
0.0457752
0.0456614
0.0455869
0.0455576
0.0455445
0.0455476
0.0455633
0.045606
0.0457131
0.0464989
0.0463599
0.0462565
0.0461768
0.0461327
0.04611
0.0461058
0.046116
0.0461376
0.0461706
0.0462261
0.0463315
0.0514978
0.0514444
0.0514173
0.0514129
0.0514261
0.0514518
0.0514864
0.0515267
0.0515703
0.0516165
0.0516681
0.0517304
0.0967068
0.0967423
0.096812
0.096905
0.0970122
0.097126
0.09724
0.0973497
0.0974516
0.0975428
0.0976204
0.097682
0.0458537
0.0457242
0.0456202
0.0455436
0.0454937
0.0454685
0.0454631
0.0454754
0.0455075
0.0455784
0.0457345
0.0461839
0.0460771
0.0460033
0.0459575
0.0459351
0.0459314
0.0459415
0.0459629
0.0459965
0.0460544
0.0461654
0.0481608
0.0481015
0.048066
0.0480485
0.0480445
0.0480543
0.0480756
0.0481053
0.04814
0.0481806
0.0482312
0.0482978
0.0564918
0.0564934
0.0565103
0.0565408
0.0565813
0.0566288
0.0566802
0.0567333
0.0567858
0.0568371
0.0568881
0.0569414
0.110279
0.110374
0.11049
0.110619
0.110754
0.11089
0.111021
0.111144
0.111256
0.111356
0.111441
0.111509
0.0490177
0.0489655
0.0489388
0.0489359
0.04895
0.0489761
0.0490104
0.0490505
0.0490967
0.0491566
0.0492555
0.0509767
0.0509575
0.0509601
0.050979
0.0510094
0.0510478
0.0510913
0.0511377
0.0511869
0.0512421
0.0513116
0.0559561
0.0560245
0.0560788
0.0561263
0.0561738
0.056225
0.0562786
0.0563333
0.0563875
0.0564403
0.0564927
0.0565474
0.0713943
0.0714632
0.0715381
0.0716141
0.071691
0.0717682
0.071844
0.0719167
0.0719847
0.0720471
0.0721039
0.0721554
0.144875
0.145079
0.145273
0.145462
0.145647
0.145824
0.145992
0.146146
0.146284
0.146406
0.146509
0.146591
0.0895929
0.0896577
0.0897497
0.0898573
0.0899719
0.0900867
0.0901971
0.0902994
0.0903903
0.0904657
0.0905197
0.095561
0.0956511
0.0957638
0.0958877
0.0960147
0.096139
0.0962567
0.0963646
0.09646
0.0965397
0.0966004
0.108276
0.108371
0.108479
0.108603
0.108737
0.108873
0.109006
0.10913
0.109244
0.109345
0.109429
0.109496
0.144189
0.144382
0.144567
0.14475
0.144933
0.145111
0.14528
0.145436
0.145578
0.145701
0.145805
0.145889
0.271445
0.271686
0.271924
0.272154
0.272376
0.272589
0.272789
0.272973
0.273137
0.27328
0.273402
0.273502
)
;

boundaryField
{
    inlet
    {
        type            fixedValue;
        value           nonuniform List<scalar> 0();
    }
    ami1
    {
        type            cyclicAMI;
        value           nonuniform List<scalar> 0();
    }
    walls
    {
        type            epsilonWallFunction;
        blending        stepwise;
        value           nonuniform List<scalar> 
259
(
0.110301
0.144868
0.271425
0.0881053
0.0903288
0.0967045
0.110398
0.145075
0.271664
0.0881457
0.0903733
0.0967805
0.110504
0.145269
0.271903
0.0882179
0.0904485
0.0968802
0.110623
0.145457
0.272134
0.0883102
0.0905431
0.096993
0.110752
0.145639
0.272356
0.0884132
0.0906479
0.0971109
0.110884
0.145814
0.272567
0.0885194
0.0907555
0.0972278
0.111013
0.145979
0.272765
0.0886232
0.0908603
0.0973395
0.111136
0.146132
0.272946
0.0887206
0.0909584
0.0974426
0.111248
0.146269
0.273107
0.0888078
0.0910463
0.0975346
0.111348
0.14639
0.273249
0.0888811
0.0911207
0.0976127
0.111433
0.146492
0.27337
0.0889358
0.0911775
0.0976745
0.111501
0.146575
0.27347
0.271425
0.144171
0.108246
0.0955185
0.0895706
0.088131
0.090374
0.0967068
0.110279
0.144875
0.271445
0.271664
0.144357
0.108341
0.095569
0.0895838
0.0881228
0.0903659
0.0967423
0.110374
0.145079
0.271686
0.271903
0.144544
0.108456
0.0956511
0.0896376
0.0881599
0.0904034
0.096812
0.11049
0.145273
0.271924
0.272134
0.14473
0.108585
0.0957536
0.0897185
0.088228
0.0904725
0.096905
0.110619
0.145462
0.272154
0.272356
0.144913
0.108718
0.0958675
0.089816
0.0883162
0.090562
0.0970122
0.110754
0.145647
0.272376
0.272567
0.14509
0.108852
0.0959857
0.0899219
0.0884152
0.0906625
0.097126
0.11089
0.145824
0.272589
0.272765
0.145257
0.108981
0.0961027
0.0900297
0.088518
0.0907668
0.09724
0.111021
0.145992
0.272789
0.272946
0.145411
0.109101
0.0962145
0.0901345
0.0886191
0.0908691
0.0973497
0.111144
0.146146
0.272973
0.273107
0.145549
0.109212
0.0963179
0.0902327
0.0887144
0.0909655
0.0974516
0.111256
0.146284
0.273137
0.273249
0.145671
0.10931
0.0964105
0.0903211
0.0888006
0.0910524
0.0975428
0.111356
0.146406
0.27328
0.27337
0.145774
0.109394
0.0964894
0.0903967
0.0888741
0.0911263
0.0976204
0.111441
0.146509
0.273402
0.27347
0.145857
0.109461
0.0965523
0.090456
0.0889313
0.0911834
0.097682
0.111509
0.146591
0.273502
0.108276
0.144189
0.271445
0.0895929
0.095561
0.108371
0.144382
0.271686
0.0896577
0.0956511
0.108479
0.144567
0.271924
0.0897497
0.0957638
0.108603
0.14475
0.272154
0.0898573
0.0958877
0.108737
0.144933
0.272376
0.0899719
0.0960147
0.108873
0.145111
0.272589
0.0900867
0.096139
0.109006
0.14528
0.272789
0.0901971
0.0962567
0.10913
0.145436
0.272973
0.0902994
0.0963646
0.109244
0.145578
0.273137
0.0903903
0.09646
0.109345
0.145701
0.27328
0.0904657
0.0965397
0.109429
0.145805
0.273402
0.0905197
0.0966004
0.109496
0.145889
0.273502
)
;
    }
    ami2
    {
        type            cyclicAMI;
        value           nonuniform List<scalar> 0();
    }
    outlet
    {
        type            zeroGradient;
    }
    procBoundary9to0
    {
        type            processor;
        value           nonuniform List<scalar> 
40
(
0.0881104
0.0903282
0.0966647
0.0966647
0.1102
0.14465
0.271186
0.0486784
0.0494244
0.0515375
0.0515375
0.0564668
0.0713443
0.143992
0.0459648
0.0460581
0.0464215
0.0464215
0.0482043
0.0560734
0.108183
0.0469665
0.046645
0.0461645
0.0461645
0.0463966
0.0510857
0.095512
0.0476649
0.0466672
0.0466672
0.0461625
0.0493122
0.0896146
0.0481422
0.0470202
0.0470202
0.0462625
0.048905
0.0882033
)
;
    }
    procBoundary9to1
    {
        type            processor;
        value           nonuniform List<scalar> 
30
(
0.0477479
0.0468603
0.0468603
0.0463621
0.0495603
0.090447
0.0466844
0.0461826
0.0461826
0.0466135
0.0515507
0.0967171
0.0459189
0.0462402
0.0462402
0.0482032
0.0564854
0.110213
0.0491068
0.0510425
0.0510425
0.0560496
0.0713438
0.144662
0.0895694
0.0955071
0.0955071
0.108185
0.143997
0.271198
)
;
    }
    procBoundary9to7
    {
        type            processor;
        value           nonuniform List<scalar> 
59
(
0.0889783
0.0912227
0.0977229
0.111554
0.146639
0.27355
0.0489073
0.0496542
0.0518046
0.0569956
0.0721965
0.145922
0.0458986
0.045967
0.0464435
0.0483709
0.0565932
0.109514
0.0465297
0.0462588
0.0458331
0.0462393
0.0513662
0.0966026
0.0470833
0.0461719
0.0457674
0.049354
0.0905041
0.0474142
0.0463775
0.0457646
0.0488482
0.0889775
0.0470659
0.0462037
0.0459055
0.0496246
0.0912293
0.0462394
0.0458386
0.0464242
0.0517936
0.0977305
0.045846
0.0462636
0.0483772
0.0569952
0.111562
0.0493682
0.0513817
0.0566021
0.0722043
0.146654
0.0905539
0.0966442
0.109546
0.145952
0.27358
)
;
    }
    procBoundary9to8
    {
        type            processor;
        value           nonuniform List<scalar> 
132
(
0.0895916
0.0896563
0.0897475
0.0898538
0.0899668
0.0900801
0.0901891
0.0902902
0.0903801
0.0904549
0.0905087
0.0490168
0.0489785
0.0489603
0.0489607
0.0489755
0.0490011
0.0490344
0.0490735
0.0491188
0.049178
0.0492801
0.0458613
0.0457422
0.0456469
0.0455764
0.0455302
0.0455062
0.0455029
0.0455164
0.0455511
0.0456238
0.0457791
0.0465984
0.0464351
0.0462455
0.0461097
0.0460149
0.045956
0.0459427
0.0459326
0.0459552
0.0460071
0.0461448
0.0479569
0.0477809
0.0475514
0.0473712
0.0472345
0.0471411
0.0470931
0.0470924
0.0471046
0.0471657
0.0473389
0.0479569
0.0477809
0.0475514
0.0473712
0.0472345
0.0471411
0.0470931
0.0470924
0.0471046
0.0471657
0.0473389
0.0484106
0.0481493
0.0479142
0.0477241
0.0475783
0.0474765
0.0474209
0.0474148
0.0474192
0.0474868
0.0476558
0.0479496
0.0477075
0.0474797
0.0472989
0.0471622
0.0470683
0.0470182
0.0470123
0.0470193
0.047082
0.0472389
0.0467688
0.0466146
0.0464238
0.0462792
0.0461749
0.0461083
0.0460786
0.0460795
0.0460951
0.0461474
0.0462873
0.0458702
0.0457315
0.04562
0.0455368
0.0454823
0.0454527
0.0454451
0.0454556
0.0454874
0.0455603
0.0457177
0.048608
0.0485479
0.048501
0.0484965
0.0485071
0.0485299
0.0485614
0.0485993
0.0486439
0.0487024
0.048795
0.0881091
0.0881508
0.0882244
0.0883181
0.0884223
0.0885295
0.0886341
0.0887321
0.0888197
0.0888931
0.0889477
)
;
    }
}


// ************************************************************************* //
