/*--------------------------------*- C++ -*----------------------------------*\
| =========                 |                                                 |
| \\      /  F ield         | OpenFOAM: The Open Source CFD Toolbox           |
|  \\    /   O peration     | Version:  2212                                  |
|   \\  /    A nd           | Website:  www.openfoam.com                      |
|    \\/     M anipulation  |                                                 |
\*---------------------------------------------------------------------------*/
FoamFile
{
    version     2.0;
    format      ascii;
    arch        "LSB;label=32;scalar=64";
    class       surfaceScalarField;
    location    "2.15";
    object      phi;
}
// * * * * * * * * * * * * * * * * * * * * * * * * * * * * * * * * * * * * * //

dimensions      [0 3 -1 0 0 0 0];

oriented        oriented;

internalField   nonuniform List<scalar> 
1815
(
7.14054e-08
-3.35304e-08
3.46102e-08
7.03812e-08
-3.3578e-08
3.46019e-08
6.94044e-08
-3.36024e-08
3.45791e-08
6.84616e-08
-3.36168e-08
3.45595e-08
6.75431e-08
-3.36381e-08
3.45563e-08
6.66518e-08
-3.36677e-08
3.4559e-08
6.57942e-08
-3.37043e-08
3.45617e-08
6.49664e-08
-3.37351e-08
3.45628e-08
6.41663e-08
-3.37651e-08
3.45651e-08
6.33779e-08
-3.37967e-08
3.45848e-08
-3.38569e-08
3.46197e-08
2.2648e-07
-6.30336e-08
3.25197e-08
2.23622e-07
-6.31112e-08
3.23918e-08
2.20895e-07
-6.31793e-08
3.23031e-08
2.18282e-07
-6.32512e-08
3.2248e-08
2.1576e-07
-6.33308e-08
3.22143e-08
2.13325e-07
-6.34103e-08
3.21774e-08
2.10976e-07
-6.34891e-08
3.21341e-08
2.08682e-07
-6.35388e-08
3.20974e-08
2.06421e-07
-6.35604e-08
3.2056e-08
2.04162e-07
-6.35968e-08
3.20589e-08
-6.37378e-08
3.20763e-08
4.38605e-07
-8.81578e-08
3.02501e-08
4.33734e-07
-8.8326e-08
3.0085e-08
4.29031e-07
-8.84346e-08
2.99588e-08
4.24447e-07
-8.85233e-08
2.98562e-08
4.19954e-07
-8.86036e-08
2.97651e-08
4.15533e-07
-8.86733e-08
2.96845e-08
4.11177e-07
-8.87341e-08
2.96009e-08
4.06853e-07
-8.87634e-08
2.95481e-08
4.02554e-07
-8.87708e-08
2.95094e-08
3.98298e-07
-8.88019e-08
2.94607e-08
-8.88881e-08
2.92735e-08
6.28494e-07
-1.06171e-07
2.48366e-08
6.21799e-07
-1.06359e-07
2.47284e-08
6.15181e-07
-1.06488e-07
2.46708e-08
6.08606e-07
-1.0658e-07
2.4632e-08
6.0205e-07
-1.06651e-07
2.46029e-08
5.95509e-07
-1.06707e-07
2.45744e-08
5.88994e-07
-1.06756e-07
2.4537e-08
5.82517e-07
-1.06799e-07
2.45136e-08
5.76116e-07
-1.06846e-07
2.4476e-08
5.69817e-07
-1.06918e-07
2.44144e-08
-1.07005e-07
2.42955e-08
7.46926e-07
1.67416e-08
7.40316e-07
1.68739e-08
7.33548e-07
1.69921e-08
7.26651e-07
1.70917e-08
7.19652e-07
1.71689e-08
7.12575e-07
1.72231e-08
7.05442e-07
1.72515e-08
6.98274e-07
1.72612e-08
6.91086e-07
1.72451e-08
6.83891e-07
1.71963e-08
1.71321e-08
2.12588e-07
-2.93446e-08
6.65768e-08
2.10037e-07
-2.94593e-08
6.66116e-08
2.07531e-07
-2.95022e-08
6.65878e-08
2.05065e-07
-2.9511e-08
6.65364e-08
2.02628e-07
-2.95305e-08
6.6524e-08
2.00247e-07
-2.95786e-08
6.65178e-08
1.97938e-07
-2.96413e-08
6.65122e-08
1.95705e-07
-2.97114e-08
6.65066e-08
1.93554e-07
-2.97876e-08
6.65042e-08
1.91462e-07
-2.98308e-08
6.65072e-08
-2.98529e-08
6.64797e-08
5.34741e-07
-5.4214e-08
6.09523e-08
5.31396e-07
-5.44659e-08
6.07428e-08
5.28194e-07
-5.46489e-08
6.0652e-08
5.2508e-07
-5.4775e-08
6.06261e-08
5.22016e-07
-5.48797e-08
6.06275e-08
5.18981e-07
-5.4976e-08
6.06093e-08
5.15966e-07
-5.50756e-08
6.05834e-08
5.12958e-07
-5.51611e-08
6.05546e-08
5.09956e-07
-5.52424e-08
6.05127e-08
5.06945e-07
-5.52773e-08
6.05161e-08
-5.52749e-08
6.05541e-08
8.30934e-07
-7.54775e-08
5.38828e-08
8.28818e-07
-7.58824e-08
5.36181e-08
8.26915e-07
-7.62162e-08
5.34284e-08
8.25172e-07
-7.64801e-08
5.3305e-08
8.23529e-07
-7.66943e-08
5.32221e-08
8.21932e-07
-7.68568e-08
5.31626e-08
8.20337e-07
-7.69839e-08
5.3104e-08
8.18731e-07
-7.70758e-08
5.30686e-08
8.17126e-07
-7.71691e-08
5.30409e-08
8.15457e-07
-7.72096e-08
5.3062e-08
-7.72609e-08
5.30497e-08
1.04791e-06
-9.13477e-08
4.19333e-08
1.04678e-06
-9.1788e-08
4.1761e-08
1.04574e-06
-9.21466e-08
4.16457e-08
1.04475e-06
-9.24353e-08
4.15801e-08
1.04377e-06
-9.26596e-08
4.15468e-08
1.04278e-06
-9.283e-08
4.15319e-08
1.04177e-06
-9.29571e-08
4.1527e-08
1.0407e-06
-9.30383e-08
4.15431e-08
1.03958e-06
-9.31051e-08
4.15377e-08
1.03839e-06
-9.31532e-08
4.15456e-08
-9.3204e-08
4.15078e-08
1.17381e-06
2.62587e-08
1.17384e-06
2.63476e-08
1.17373e-06
2.64353e-08
1.1735e-06
2.65167e-08
1.17315e-06
2.65919e-08
1.17268e-06
2.6658e-08
1.17211e-06
2.67116e-08
1.17144e-06
2.67559e-08
1.17069e-06
2.67654e-08
1.16989e-06
2.67411e-08
2.67155e-08
3.94964e-07
-2.10393e-08
9.1958e-08
3.90738e-07
-2.11648e-08
9.20027e-08
3.86681e-07
-2.13675e-08
9.20121e-08
3.82808e-07
-2.15922e-08
9.20011e-08
3.79065e-07
-2.17352e-08
9.20022e-08
3.7542e-07
-2.18532e-08
9.20166e-08
3.71859e-07
-2.19577e-08
9.20307e-08
3.68375e-07
-2.20538e-08
9.20437e-08
3.64972e-07
-2.21536e-08
9.20604e-08
3.61658e-07
-2.22201e-08
9.20417e-08
-2.23151e-08
9.20055e-08
8.02162e-07
-4.10287e-08
8.28445e-08
8.00482e-07
-4.12735e-08
8.25316e-08
7.98962e-07
-4.14894e-08
8.22943e-08
7.97539e-07
-4.1672e-08
8.21282e-08
7.96164e-07
-4.17729e-08
8.20404e-08
7.94805e-07
-4.1872e-08
8.19875e-08
7.93434e-07
-4.19718e-08
8.19682e-08
7.92048e-07
-4.20677e-08
8.1954e-08
7.90669e-07
-4.21805e-08
8.1919e-08
7.89232e-07
-4.22103e-08
8.19429e-08
-4.22375e-08
8.19795e-08
1.11096e-06
-5.84011e-08
7.07029e-08
1.11174e-06
-5.87694e-08
7.03377e-08
1.1127e-06
-5.90882e-08
7.00624e-08
1.11381e-06
-5.93432e-08
6.98672e-08
1.11503e-06
-5.9522e-08
6.97497e-08
1.11635e-06
-5.96849e-08
6.96584e-08
1.11776e-06
-5.98525e-08
6.95701e-08
1.11925e-06
-5.99947e-08
6.95108e-08
1.12073e-06
-6.01052e-08
6.94816e-08
1.12222e-06
-6.01398e-08
6.95096e-08
-6.01608e-08
6.95498e-08
1.33095e-06
-7.1935e-08
5.32276e-08
1.33329e-06
-7.23128e-08
5.29635e-08
1.33572e-06
-7.26314e-08
5.27545e-08
1.33823e-06
-7.28875e-08
5.26112e-08
1.34082e-06
-7.30869e-08
5.25223e-08
1.34347e-06
-7.32537e-08
5.24559e-08
1.34614e-06
-7.33967e-08
5.24042e-08
1.34882e-06
-7.35096e-08
5.23726e-08
1.35149e-06
-7.3593e-08
5.23552e-08
1.35414e-06
-7.36271e-08
5.23794e-08
-7.36498e-08
5.23992e-08
1.45948e-06
3.15654e-08
1.46304e-06
3.15066e-08
1.46657e-06
3.14698e-08
1.47004e-06
3.14485e-08
1.47349e-06
3.14414e-08
1.47691e-06
3.14421e-08
1.48028e-06
3.14463e-08
1.48361e-06
3.14524e-08
1.4869e-06
3.14527e-08
1.49014e-06
3.14557e-08
3.14514e-08
5.71807e-07
-1.19956e-08
1.09574e-07
5.6623e-07
-1.19959e-08
1.09576e-07
5.60724e-07
-1.20506e-08
1.09568e-07
5.55329e-07
-1.2157e-08
1.09553e-07
5.50069e-07
-1.22856e-08
1.09547e-07
5.44947e-07
-1.2413e-08
1.09551e-07
5.39954e-07
-1.25363e-08
1.09561e-07
5.35072e-07
-1.26532e-08
1.09578e-07
5.30301e-07
-1.27637e-08
1.09595e-07
5.25627e-07
-1.2882e-08
1.09598e-07
-1.30123e-08
1.09584e-07
1.00608e-06
-2.58772e-08
9.72865e-08
1.00557e-06
-2.59544e-08
9.70012e-08
1.00509e-06
-2.60427e-08
9.67666e-08
1.00463e-06
-2.61418e-08
9.65785e-08
1.00419e-06
-2.62402e-08
9.64331e-08
1.00378e-06
-2.63367e-08
9.6322e-08
1.00339e-06
-2.64271e-08
9.62449e-08
1.00303e-06
-2.6528e-08
9.61897e-08
1.00267e-06
-2.66365e-08
9.61499e-08
1.00232e-06
-2.6726e-08
9.61411e-08
-2.68118e-08
9.61408e-08
1.31301e-06
-3.85194e-08
8.08885e-08
1.31556e-06
-3.87151e-08
8.05543e-08
1.31819e-06
-3.88861e-08
8.02789e-08
1.32089e-06
-3.90374e-08
8.00595e-08
1.32368e-06
-3.91721e-08
7.98935e-08
1.32654e-06
-3.93004e-08
7.97631e-08
1.32945e-06
-3.94283e-08
7.96553e-08
1.33242e-06
-3.95513e-08
7.9571e-08
1.3354e-06
-3.96595e-08
7.95162e-08
1.33843e-06
-3.97379e-08
7.94999e-08
-3.97887e-08
7.95155e-08
1.53124e-06
-4.88389e-08
5.92133e-08
1.5356e-06
-4.90715e-08
5.89595e-08
1.53999e-06
-4.92675e-08
5.87463e-08
1.54442e-06
-4.9433e-08
5.85749e-08
1.5489e-06
-4.95764e-08
5.84427e-08
1.55342e-06
-4.97036e-08
5.83388e-08
1.55796e-06
-4.98193e-08
5.82557e-08
1.56251e-06
-4.99219e-08
5.81923e-08
1.56707e-06
-5.00073e-08
5.81503e-08
1.57163e-06
-5.00639e-08
5.81375e-08
-5.01052e-08
5.81395e-08
1.66141e-06
3.33885e-08
1.66697e-06
3.32682e-08
1.67249e-06
3.31676e-08
1.67798e-06
3.30856e-08
1.68345e-06
3.30203e-08
1.68889e-06
3.29684e-08
1.69431e-06
3.29273e-08
1.69971e-06
3.28954e-08
1.70507e-06
3.28713e-08
1.71042e-06
3.28583e-08
3.28468e-08
7.08178e-07
-2.56555e-09
1.17894e-07
7.02187e-07
-2.36254e-09
1.17929e-07
6.96024e-07
-2.21766e-09
1.17949e-07
6.89754e-07
-2.1317e-09
1.17955e-07
6.83442e-07
-2.09535e-09
1.17954e-07
6.77136e-07
-2.09564e-09
1.17953e-07
6.70868e-07
-2.1229e-09
1.17952e-07
6.64659e-07
-2.16714e-09
1.17954e-07
6.58524e-07
-2.22802e-09
1.17958e-07
6.52468e-07
-2.30464e-09
1.17959e-07
-2.40375e-09
1.17957e-07
1.14326e-06
-9.10442e-09
1.03406e-07
1.14349e-06
-8.93967e-09
1.03346e-07
1.14357e-06
-8.81262e-09
1.03283e-07
1.14353e-06
-8.72777e-09
1.03216e-07
1.1434e-06
-8.68202e-09
1.03149e-07
1.14321e-06
-8.66677e-09
1.03085e-07
1.14298e-06
-8.67404e-09
1.03028e-07
1.14272e-06
-8.70065e-09
1.02979e-07
1.14245e-06
-8.74578e-09
1.02939e-07
1.14218e-06
-8.79936e-09
1.02912e-07
-8.87944e-09
1.02893e-07
1.44318e-06
-1.61145e-08
8.41901e-08
1.44682e-06
-1.61007e-08
8.40783e-08
1.45041e-06
-1.60956e-08
8.39746e-08
1.45396e-06
-1.61014e-08
8.38798e-08
1.45749e-06
-1.61186e-08
8.37957e-08
1.46102e-06
-1.61474e-08
8.37219e-08
1.46453e-06
-1.61873e-08
8.36578e-08
1.46803e-06
-1.62361e-08
8.36037e-08
1.47153e-06
-1.62907e-08
8.35628e-08
1.47503e-06
-1.63395e-08
8.35403e-08
-1.63932e-08
8.35328e-08
1.65656e-06
-2.2617e-08
6.00652e-08
1.66215e-06
-2.26939e-08
5.9967e-08
1.66769e-06
-2.27643e-08
5.98781e-08
1.67319e-06
-2.28292e-08
5.97996e-08
1.67867e-06
-2.28899e-08
5.97324e-08
1.68414e-06
-2.29485e-08
5.96758e-08
1.68958e-06
-2.30063e-08
5.96287e-08
1.69501e-06
-2.30626e-08
5.95913e-08
1.70042e-06
-2.3115e-08
5.95643e-08
1.70583e-06
-2.31575e-08
5.95497e-08
-2.31986e-08
5.95434e-08
1.78586e-06
-2.81427e-08
3.20592e-08
1.79262e-06
-2.81861e-08
3.19976e-08
1.79931e-06
-2.82254e-08
3.19428e-08
1.80593e-06
-2.82608e-08
3.18952e-08
1.8125e-06
-2.82929e-08
3.18543e-08
1.81902e-06
-2.83228e-08
3.18199e-08
1.8255e-06
-2.8351e-08
3.17915e-08
1.83195e-06
-2.83777e-08
3.17688e-08
1.83835e-06
-2.84019e-08
3.17521e-08
1.84473e-06
-2.84218e-08
3.17419e-08
-2.844e-08
3.1735e-08
1.82859e-06
1.93899e-09
1.83577e-06
1.91029e-09
1.84285e-06
1.88404e-09
1.84985e-06
1.86011e-09
1.85679e-06
1.83839e-09
1.86366e-06
1.81862e-09
1.87048e-06
1.80056e-09
1.87726e-06
1.78415e-09
1.88399e-06
1.76954e-09
1.89068e-06
1.75774e-09
1.74612e-09
7.721e-07
7.12951e-09
1.16554e-07
7.65957e-07
7.39526e-09
1.16678e-07
7.5954e-07
7.6044e-09
1.16761e-07
7.52917e-07
7.76196e-09
1.16816e-07
7.46145e-07
7.87346e-09
1.16853e-07
7.39275e-07
7.94637e-09
1.16877e-07
7.32349e-07
7.98689e-09
1.16892e-07
7.25402e-07
7.99953e-09
1.16902e-07
7.18463e-07
7.9892e-09
1.16907e-07
7.11546e-07
7.95838e-09
1.16917e-07
7.8916e-09
1.16957e-07
1.20331e-06
8.56775e-09
1.01097e-07
1.2039e-06
8.80821e-09
1.01342e-07
1.20425e-06
9.00774e-09
1.01529e-07
1.20439e-06
9.16829e-09
1.01666e-07
1.20436e-06
9.29251e-09
1.01761e-07
1.20419e-06
9.38576e-09
1.01823e-07
1.20389e-06
9.45445e-09
1.01856e-07
1.2035e-06
9.49951e-09
1.0187e-07
1.20303e-06
9.51858e-09
1.01876e-07
1.20251e-06
9.51476e-09
1.01882e-07
9.45935e-09
1.01881e-07
1.49504e-06
7.68747e-09
8.08871e-08
1.4991e-06
7.76119e-09
8.10731e-08
1.50304e-06
7.82672e-09
8.12133e-08
1.50689e-06
7.88118e-09
8.13182e-08
1.51065e-06
7.92373e-09
8.13963e-08
1.51435e-06
7.95463e-09
8.14542e-08
1.51799e-06
7.97429e-09
8.14979e-08
1.52159e-06
7.98232e-09
8.1529e-08
1.52514e-06
7.97785e-09
8.15512e-08
1.52866e-06
7.96935e-09
8.15618e-08
7.93905e-09
8.1559e-08
1.70207e-06
5.32362e-09
5.63135e-08
1.70808e-06
5.29177e-09
5.64233e-08
1.71401e-06
5.26467e-09
5.65096e-08
1.71988e-06
5.2408e-09
5.65774e-08
1.72568e-06
5.21888e-09
5.66312e-08
1.73144e-06
5.19773e-09
5.66749e-08
1.73715e-06
5.17626e-09
5.67123e-08
1.74283e-06
5.1541e-09
5.67447e-08
1.74847e-06
5.13134e-09
5.67721e-08
1.75408e-06
5.11157e-09
5.67916e-08
5.08601e-09
5.68054e-08
1.8286e-06
1.926e-09
2.81743e-08
1.83578e-06
1.8983e-09
2.82154e-08
1.84286e-06
1.87353e-09
2.82509e-08
1.84987e-06
1.85145e-09
2.82814e-08
1.8568e-06
1.83166e-09
2.83077e-08
1.86367e-06
1.81375e-09
2.8331e-08
1.87049e-06
1.79732e-09
2.83526e-08
1.87726e-06
1.78224e-09
2.83729e-08
1.88398e-06
1.76868e-09
2.83918e-08
1.89067e-06
1.75747e-09
2.84078e-08
1.74606e-09
2.84235e-08
1.87124e-06
-1.90244e-09
1.87882e-06
-1.87509e-09
1.88629e-06
-1.85131e-09
1.89368e-06
-1.83092e-09
1.90098e-06
-1.81347e-09
1.90822e-06
-1.79834e-09
1.9154e-06
-1.78495e-09
1.92253e-06
-1.77291e-09
1.9296e-06
-1.7621e-09
1.93663e-06
-1.75318e-09
-1.74338e-09
7.46919e-07
1.67277e-08
1.06233e-07
7.4032e-07
1.68592e-08
1.06417e-07
7.33565e-07
1.69761e-08
1.06539e-07
7.26685e-07
1.70741e-08
1.06623e-07
7.19704e-07
1.71496e-08
1.06683e-07
7.1265e-07
1.72012e-08
1.0673e-07
7.05545e-07
1.7227e-08
1.0677e-07
6.98408e-07
1.72347e-08
1.06804e-07
6.91256e-07
1.72172e-08
1.06842e-07
6.841e-07
1.71687e-08
1.06905e-07
1.71039e-08
1.06988e-07
1.17387e-06
2.62426e-08
9.13965e-08
1.1739e-06
2.63321e-08
9.18323e-08
1.1738e-06
2.64198e-08
9.21861e-08
1.17357e-06
2.65005e-08
9.24686e-08
1.17322e-06
2.65745e-08
9.26854e-08
1.17276e-06
2.66388e-08
9.2848e-08
1.17219e-06
2.66903e-08
9.29665e-08
1.17152e-06
2.67325e-08
9.30414e-08
1.17077e-06
2.67405e-08
9.31005e-08
1.16996e-06
2.67152e-08
9.31442e-08
2.66882e-08
9.31861e-08
1.45958e-06
3.15539e-08
7.19651e-08
1.46315e-06
3.14963e-08
7.23368e-08
1.46668e-06
3.1461e-08
7.26488e-08
1.47015e-06
3.14411e-08
7.28985e-08
1.4736e-06
3.14347e-08
7.30911e-08
1.47701e-06
3.14356e-08
7.3251e-08
1.48037e-06
3.14395e-08
7.33874e-08
1.48369e-06
3.14445e-08
7.34956e-08
1.48696e-06
3.14441e-08
7.35744e-08
1.49019e-06
3.14459e-08
7.36048e-08
3.144e-08
7.36254e-08
1.66152e-06
3.3374e-08
4.88711e-08
1.66709e-06
3.32562e-08
4.90987e-08
1.67261e-06
3.31589e-08
4.92888e-08
1.6781e-06
3.30805e-08
4.94474e-08
1.68356e-06
3.30186e-08
4.95833e-08
1.689e-06
3.29699e-08
4.97028e-08
1.69441e-06
3.29313e-08
4.9811e-08
1.69979e-06
3.29013e-08
4.99073e-08
1.70514e-06
3.28784e-08
4.99873e-08
1.71048e-06
3.28656e-08
5.00401e-08
3.28535e-08
5.00797e-08
1.78593e-06
3.20392e-08
2.26494e-08
1.7927e-06
3.19803e-08
2.27244e-08
1.79939e-06
3.19293e-08
2.27917e-08
1.80601e-06
3.18859e-08
2.28521e-08
1.81258e-06
3.18498e-08
2.29074e-08
1.8191e-06
3.182e-08
2.29598e-08
1.82558e-06
3.17959e-08
2.30111e-08
1.83202e-06
3.17769e-08
2.30613e-08
1.83842e-06
3.17629e-08
2.31087e-08
1.84479e-06
3.17542e-08
2.31475e-08
3.17481e-08
2.31864e-08
1.82863e-06
-5.29915e-09
1.83581e-06
-5.26652e-09
1.84289e-06
-5.23939e-09
1.84989e-06
-5.2164e-09
1.85683e-06
-5.19622e-09
1.86371e-06
-5.17753e-09
1.87053e-06
-5.15903e-09
1.8773e-06
-5.14007e-09
1.88402e-06
-5.12039e-09
1.89071e-06
-5.1033e-09
-5.07936e-09
6.28416e-07
2.48105e-08
8.82214e-08
6.21746e-07
2.47003e-08
8.83867e-08
6.15157e-07
2.46402e-08
8.84884e-08
6.08612e-07
2.46e-08
8.85677e-08
6.02087e-07
2.45711e-08
8.86371e-08
5.95577e-07
2.4542e-08
8.86977e-08
5.89093e-07
2.45063e-08
8.87477e-08
5.82645e-07
2.44827e-08
8.8769e-08
5.76269e-07
2.44439e-08
8.87742e-08
5.69995e-07
2.4387e-08
8.87917e-08
5.6384e-07
2.42788e-08
8.8863e-08
2.41235e-08
8.89633e-08
1.04807e-06
4.19141e-08
7.5515e-08
1.04695e-06
4.17411e-08
7.59145e-08
1.04591e-06
4.16235e-08
7.62463e-08
1.04491e-06
4.15558e-08
7.65067e-08
1.04393e-06
4.15215e-08
7.67169e-08
1.04294e-06
4.15051e-08
7.68733e-08
1.04192e-06
4.15005e-08
7.6994e-08
1.04085e-06
4.15129e-08
7.70838e-08
1.03972e-06
4.1506e-08
7.71628e-08
1.03854e-06
4.15118e-08
7.72045e-08
1.03726e-06
4.14832e-08
7.72572e-08
7.7307e-08
1.33124e-06
5.32181e-08
5.84189e-08
1.33358e-06
5.29562e-08
5.87795e-08
1.33601e-06
5.27489e-08
5.90933e-08
1.33852e-06
5.26063e-08
5.93443e-08
1.34109e-06
5.25178e-08
5.9519e-08
1.34372e-06
5.24516e-08
5.96771e-08
1.34637e-06
5.23993e-08
5.98404e-08
1.34903e-06
5.23654e-08
5.9981e-08
1.35168e-06
5.23457e-08
6.00872e-08
1.35431e-06
5.2368e-08
6.01188e-08
5.23855e-08
6.01449e-08
1.53151e-06
5.91981e-08
3.8548e-08
1.53588e-06
5.89487e-08
3.87388e-08
1.54027e-06
5.87405e-08
3.89054e-08
1.5447e-06
5.85737e-08
3.90512e-08
1.54918e-06
5.84456e-08
3.91793e-08
1.55369e-06
5.83453e-08
3.93005e-08
1.55821e-06
5.82646e-08
3.94215e-08
1.56274e-06
5.82023e-08
3.9539e-08
1.56727e-06
5.81604e-08
3.96422e-08
1.57182e-06
5.81467e-08
3.97163e-08
5.81462e-08
3.97664e-08
1.65674e-06
6.00407e-08
1.61461e-08
1.66233e-06
5.99469e-08
1.61328e-08
1.66788e-06
5.98633e-08
1.61268e-08
1.67338e-06
5.97907e-08
1.61299e-08
1.67886e-06
5.97294e-08
1.61425e-08
1.68432e-06
5.96784e-08
1.61656e-08
1.68976e-06
5.96361e-08
1.61993e-08
1.69518e-06
5.96022e-08
1.62418e-08
1.70058e-06
5.95776e-08
1.62909e-08
1.70598e-06
5.95641e-08
1.63351e-08
5.95573e-08
1.63864e-08
1.70214e-06
-7.66517e-09
1.70815e-06
-7.73585e-09
1.71409e-06
-7.79935e-09
1.71995e-06
-7.85323e-09
1.72576e-06
-7.89657e-09
1.73152e-06
-7.92937e-09
1.73724e-06
-7.95184e-09
1.74292e-06
-7.96333e-09
1.74856e-06
-7.96249e-09
1.75418e-06
-7.95706e-09
-7.92854e-09
4.38538e-07
3.02111e-08
6.3099e-08
4.33701e-07
3.00435e-08
6.31802e-08
4.2903e-07
2.99174e-08
6.32422e-08
4.24475e-07
2.98166e-08
6.33061e-08
4.20007e-07
2.97273e-08
6.33771e-08
4.15608e-07
2.96491e-08
6.34477e-08
4.1127e-07
2.95693e-08
6.35165e-08
4.06965e-07
2.95149e-08
6.35586e-08
4.02683e-07
2.94827e-08
6.35732e-08
3.98434e-07
2.94379e-08
6.36034e-08
3.9431e-07
2.9254e-08
6.37325e-08
2.90189e-08
6.3907e-08
8.31243e-07
5.38718e-08
5.42288e-08
8.29116e-07
5.36082e-08
5.44767e-08
8.272e-07
5.34151e-08
5.46643e-08
8.25442e-07
5.32886e-08
5.47929e-08
8.23783e-07
5.32023e-08
5.49004e-08
8.22168e-07
5.31415e-08
5.49962e-08
8.20557e-07
5.30808e-08
5.50937e-08
8.18936e-07
5.30383e-08
5.51815e-08
8.1731e-07
5.30196e-08
5.52512e-08
8.15638e-07
5.3033e-08
5.5282e-08
8.13854e-07
5.30052e-08
5.5289e-08
5.52751e-08
1.11151e-06
7.07063e-08
4.1037e-08
1.11228e-06
7.03469e-08
4.12754e-08
1.11322e-06
7.00735e-08
4.14916e-08
1.1143e-06
6.98786e-08
4.16716e-08
1.11549e-06
6.97598e-08
4.17722e-08
1.11677e-06
6.96667e-08
4.18712e-08
1.11815e-06
6.95756e-08
4.19702e-08
1.11959e-06
6.95105e-08
4.20672e-08
1.12104e-06
6.94785e-08
4.21818e-08
1.12248e-06
6.95022e-08
4.22046e-08
6.95318e-08
4.22304e-08
1.31351e-06
8.08762e-08
2.59078e-08
1.31607e-06
8.05491e-08
2.59855e-08
1.31869e-06
8.02797e-08
2.60764e-08
1.32138e-06
8.00653e-08
2.61745e-08
1.32415e-06
7.99034e-08
2.62686e-08
1.32698e-06
7.97761e-08
2.63592e-08
1.32986e-06
7.96701e-08
2.64432e-08
1.33279e-06
7.95857e-08
2.65378e-08
1.33574e-06
7.95298e-08
2.66412e-08
1.33872e-06
7.95114e-08
2.67252e-08
7.95217e-08
2.68022e-08
1.44349e-06
8.41619e-08
9.13317e-09
1.44714e-06
8.4055e-08
8.97673e-09
1.45073e-06
8.3957e-08
8.85676e-09
1.45428e-06
8.38684e-08
8.77413e-09
1.45781e-06
8.37908e-08
8.7264e-09
1.46132e-06
8.3723e-08
8.70697e-09
1.46482e-06
8.36638e-08
8.70881e-09
1.4683e-06
8.36133e-08
8.72902e-09
1.47178e-06
8.35745e-08
8.76785e-09
1.47526e-06
8.35522e-08
8.81636e-09
8.3543e-08
8.89098e-09
1.49517e-06
-8.55401e-09
1.49923e-06
-8.78722e-09
1.50318e-06
-8.97977e-09
1.50703e-06
-9.13537e-09
1.5108e-06
-9.25698e-09
1.5145e-06
-9.34957e-09
1.51813e-06
-9.41893e-09
1.52172e-06
-9.46606e-09
1.52527e-06
-9.48837e-09
1.52879e-06
-9.48767e-09
-9.43514e-09
2.26279e-07
3.25126e-08
3.35481e-08
2.23471e-07
3.23894e-08
3.35979e-08
2.20789e-07
3.23037e-08
3.36204e-08
2.18211e-07
3.22506e-08
3.36333e-08
2.15721e-07
3.22146e-08
3.36528e-08
2.13313e-07
3.21757e-08
3.36803e-08
2.10984e-07
3.21306e-08
3.37141e-08
2.0871e-07
3.20901e-08
3.3743e-08
2.06463e-07
3.20502e-08
3.37696e-08
2.04213e-07
3.20539e-08
3.37991e-08
2.02021e-07
3.20658e-08
3.38583e-08
3.20796e-08
3.39314e-08
5.34763e-07
6.09672e-08
2.93468e-08
5.31412e-07
6.07719e-08
2.94448e-08
5.28214e-07
6.06794e-08
2.94876e-08
5.25106e-07
6.06451e-08
2.95057e-08
5.22051e-07
6.06367e-08
2.95331e-08
5.19028e-07
6.06113e-08
2.95837e-08
5.16025e-07
6.05805e-08
2.96465e-08
5.13034e-07
6.05445e-08
2.9718e-08
5.10048e-07
6.04978e-08
2.97902e-08
5.07047e-07
6.05055e-08
2.98309e-08
5.04008e-07
6.05363e-08
2.9857e-08
2.98512e-08
8.02627e-07
8.28454e-08
2.10733e-08
8.00919e-07
8.25409e-08
2.12146e-08
7.99361e-07
8.23035e-08
2.14252e-08
7.97909e-07
8.21378e-08
2.16308e-08
7.96506e-07
8.20479e-08
2.17644e-08
7.95119e-07
8.19919e-08
2.18776e-08
7.93722e-07
8.19695e-08
2.19783e-08
7.92311e-07
8.19506e-08
2.20714e-08
7.90911e-07
8.191e-08
2.21702e-08
7.89458e-07
8.1932e-08
2.22314e-08
8.19689e-08
2.2317e-08
1.00655e-06
9.72638e-08
1.20373e-08
1.00604e-06
9.69822e-08
1.20559e-08
1.00555e-06
9.67479e-08
1.21218e-08
1.00508e-06
9.6561e-08
1.22288e-08
1.00462e-06
9.64189e-08
1.23533e-08
1.00419e-06
9.63111e-08
1.24744e-08
1.00377e-06
9.62364e-08
1.25906e-08
1.00338e-06
9.61823e-08
1.27001e-08
1.00298e-06
9.61417e-08
1.28035e-08
1.00259e-06
9.61315e-08
1.29159e-08
9.61323e-08
1.30361e-08
1.14355e-06
1.03372e-07
2.58496e-09
1.1438e-06
1.03312e-07
2.40028e-09
1.14389e-06
1.03248e-07
2.2691e-09
1.14385e-06
1.03183e-07
2.19058e-09
1.14372e-06
1.0312e-07
2.15687e-09
1.14352e-06
1.0306e-07
2.15684e-09
1.14327e-06
1.03007e-07
2.18172e-09
1.143e-06
1.02961e-07
2.22187e-09
1.14271e-06
1.02923e-07
2.27776e-09
1.14241e-06
1.02897e-07
2.35029e-09
1.02879e-07
2.44439e-09
1.20344e-06
-7.1284e-09
1.20404e-06
-7.383e-09
1.20439e-06
-7.58141e-09
1.20454e-06
-7.73014e-09
1.20451e-06
-7.83543e-09
1.20434e-06
-7.90445e-09
1.20404e-06
-7.94361e-09
1.20365e-06
-7.95711e-09
1.20318e-06
-7.94876e-09
1.20265e-06
-7.92041e-09
-7.85605e-09
7.13064e-08
3.46065e-08
7.0302e-08
3.46022e-08
6.93442e-08
3.45781e-08
6.84175e-08
3.456e-08
6.7513e-08
3.45572e-08
6.6634e-08
3.45592e-08
6.57863e-08
3.45618e-08
6.49679e-08
3.45613e-08
6.41743e-08
3.45632e-08
6.33904e-08
3.45829e-08
6.26312e-08
3.46174e-08
3.46608e-08
2.12308e-07
6.65349e-08
2.09794e-07
6.65605e-08
2.07329e-07
6.65312e-08
2.04903e-07
6.64918e-08
2.02506e-07
6.64866e-08
2.00164e-07
6.64851e-08
1.97889e-07
6.64837e-08
1.95685e-07
6.64826e-08
1.93558e-07
6.6481e-08
1.91484e-07
6.64875e-08
1.89488e-07
6.64701e-08
3.94503e-07
9.19036e-08
3.90351e-07
9.19275e-08
3.86379e-07
9.19283e-08
3.82573e-07
9.19292e-08
3.78886e-07
9.19376e-08
3.75292e-07
9.19564e-08
3.7178e-07
9.19745e-08
3.68342e-07
9.19922e-08
3.64979e-07
9.20134e-08
3.617e-07
9.19982e-08
9.19687e-08
5.71341e-07
1.09524e-07
5.65816e-07
1.09509e-07
5.60373e-07
1.09493e-07
5.5505e-07
1.09481e-07
5.49862e-07
1.09479e-07
5.44807e-07
1.09486e-07
5.39874e-07
1.09498e-07
5.35048e-07
1.09518e-07
5.30328e-07
1.09537e-07
5.25701e-07
1.09541e-07
1.0953e-07
7.07904e-07
1.17865e-07
7.01926e-07
1.17887e-07
6.95791e-07
1.17897e-07
6.89563e-07
1.17899e-07
6.83301e-07
1.17898e-07
6.77047e-07
1.17897e-07
6.70829e-07
1.17897e-07
6.6467e-07
1.179e-07
6.58581e-07
1.17903e-07
6.52567e-07
1.17905e-07
1.17905e-07
7.7201e-07
7.65872e-07
7.5947e-07
7.52867e-07
7.46121e-07
7.3928e-07
7.32382e-07
7.25464e-07
7.18552e-07
7.11661e-07
)
;

boundaryField
{
    inlet
    {
        type            calculated;
        value           nonuniform List<scalar> 0();
    }
    ami1
    {
        type            cyclicAMI;
        value           nonuniform List<scalar> 0();
    }
    walls
    {
        type            calculated;
        value           nonuniform List<scalar> 
248
(
2.90979e-14
2.43942e-14
1.84387e-14
1.28555e-14
6.40674e-15
2.90979e-14
2.43942e-14
1.84387e-14
1.28555e-14
6.40674e-15
2.90979e-14
2.43942e-14
1.84387e-14
1.28555e-14
6.40674e-15
2.90979e-14
2.43942e-14
1.84387e-14
1.28555e-14
6.40674e-15
2.90979e-14
2.43942e-14
1.84387e-14
1.28555e-14
6.40674e-15
2.90979e-14
2.43942e-14
1.84387e-14
1.28555e-14
6.40674e-15
2.90979e-14
2.43942e-14
1.84387e-14
1.28555e-14
6.40674e-15
2.90979e-14
2.43942e-14
1.84387e-14
1.28555e-14
6.40674e-15
2.90979e-14
2.43942e-14
1.84387e-14
1.28555e-14
6.40674e-15
2.90979e-14
2.43942e-14
1.84387e-14
1.28555e-14
6.40674e-15
2.90979e-14
2.43942e-14
1.84387e-14
1.28555e-14
6.40674e-15
-2.90979e-14
-2.43942e-14
-1.84387e-14
-1.28555e-14
-6.40674e-15
1.07016e-22
-2.90979e-14
-2.43942e-14
-1.84387e-14
-1.28555e-14
-6.40674e-15
1.07016e-22
-2.90979e-14
-2.43942e-14
-1.84387e-14
-1.28555e-14
-6.40674e-15
1.07016e-22
-2.90979e-14
-2.43942e-14
-1.84387e-14
-1.28555e-14
-6.40674e-15
4.72171e-22
-2.90979e-14
-2.43942e-14
-1.84387e-14
-1.28555e-14
-6.40674e-15
1.06063e-22
-2.90979e-14
-2.43942e-14
-1.84387e-14
-1.28555e-14
-6.40674e-15
1.06063e-22
-2.90979e-14
-2.43942e-14
-1.84387e-14
-1.28555e-14
-6.40674e-15
1.06063e-22
-2.90979e-14
-2.43942e-14
-1.84387e-14
-1.28555e-14
-6.40674e-15
1.06063e-22
-2.90979e-14
-2.43942e-14
-1.84387e-14
-1.28555e-14
-6.40674e-15
1.06063e-22
-2.90979e-14
-2.43942e-14
-1.84387e-14
-1.28555e-14
-6.40674e-15
1.06063e-22
-2.90979e-14
-2.43942e-14
-1.84387e-14
-1.28555e-14
-6.40674e-15
1.79912e-22
-2.90979e-14
-2.43942e-14
-2.90979e-14
-2.43942e-14
-1.84387e-14
-1.28555e-14
-6.40674e-15
1.07016e-22
6.40674e-15
1.28555e-14
1.84387e-14
2.43942e-14
2.90979e-14
-2.90979e-14
-2.43942e-14
-1.84387e-14
-1.28555e-14
-6.40674e-15
1.07016e-22
6.40674e-15
1.28555e-14
1.84387e-14
2.43942e-14
2.90979e-14
-2.90979e-14
-2.43942e-14
-1.84387e-14
-1.28555e-14
-6.40674e-15
1.07016e-22
6.40674e-15
1.28555e-14
1.84387e-14
2.43942e-14
2.90979e-14
-2.90979e-14
-2.43942e-14
-1.84387e-14
-1.28555e-14
-6.40674e-15
4.72171e-22
6.40674e-15
1.28555e-14
1.84387e-14
2.43942e-14
2.90979e-14
-2.90979e-14
-2.43942e-14
-1.84387e-14
-1.28555e-14
-6.40674e-15
1.06063e-22
6.40674e-15
1.28555e-14
1.84387e-14
2.43942e-14
2.90979e-14
-2.90979e-14
-2.43942e-14
-1.84387e-14
-1.28555e-14
-6.40674e-15
1.06063e-22
6.40674e-15
1.28555e-14
1.84387e-14
2.43942e-14
2.90979e-14
-2.90979e-14
-2.43942e-14
-1.84387e-14
-1.28555e-14
-6.40674e-15
1.06063e-22
6.40674e-15
1.28555e-14
1.84387e-14
2.43942e-14
2.90979e-14
-2.90979e-14
-2.43942e-14
-1.84387e-14
-1.28555e-14
-6.40674e-15
1.06063e-22
6.40674e-15
1.28555e-14
1.84387e-14
2.43942e-14
2.90979e-14
-2.90979e-14
-2.43942e-14
-1.84387e-14
-1.28555e-14
-6.40674e-15
1.06063e-22
6.40674e-15
1.28555e-14
1.84387e-14
2.43942e-14
2.90979e-14
-2.90979e-14
-2.43942e-14
-1.84387e-14
-1.28555e-14
-6.40674e-15
1.06063e-22
6.40674e-15
1.28555e-14
1.84387e-14
2.43942e-14
2.90979e-14
-2.90979e-14
-2.43942e-14
-1.84387e-14
-1.28555e-14
-6.40674e-15
1.79912e-22
6.40674e-15
1.28555e-14
1.84387e-14
2.43942e-14
2.90979e-14
1.28555e-14
1.84387e-14
2.43942e-14
2.90979e-14
)
;
    }
    ami2
    {
        type            cyclicAMI;
        value           nonuniform List<scalar> 0();
    }
    outlet
    {
        type            calculated;
        value           nonuniform List<scalar> 0();
    }
    procBoundary8to0
    {
        type            processor;
        value           nonuniform List<scalar> 
29
(
-7.24857e-08
-2.29497e-07
-4.43731e-07
-6.35318e-07
-7.53342e-07
-2.15211e-07
-5.38304e-07
-8.33304e-07
-1.04914e-06
-1.17363e-06
-3.99306e-07
-8.04065e-07
-1.11041e-06
-1.32871e-06
-1.45587e-06
-5.77427e-07
-1.00664e-06
-1.31056e-06
-1.5269e-06
-1.6558e-06
-7.13932e-07
-1.14284e-06
-1.43947e-06
-1.65091e-06
-1.77901e-06
-1.82131e-06
-1.69595e-06
-1.82132e-06
-1.86356e-06
)
;
    }
    procBoundary8to1
    {
        type            processor;
        value           nonuniform List<scalar> 
33
(
-7.77889e-07
-1.20244e-06
-1.49086e-06
-7.53326e-07
-1.17368e-06
-1.45597e-06
-1.6559e-06
-1.77907e-06
-1.82135e-06
-6.35214e-07
-1.0493e-06
-1.329e-06
-1.52717e-06
-1.65108e-06
-1.69602e-06
-4.43627e-07
-8.33617e-07
-1.11096e-06
-1.31104e-06
-1.43976e-06
-1.49098e-06
-2.29241e-07
-5.38336e-07
-8.04542e-07
-1.0071e-06
-1.14311e-06
-1.20256e-06
-7.23649e-08
-2.1489e-07
-3.98799e-07
-5.76925e-07
-7.1366e-07
-7.77803e-07
)
;
    }
    procBoundary8to7
    {
        type            processor;
        value           nonuniform List<scalar> 
68
(
6.26148e-08
2.01966e-07
3.94175e-07
5.63639e-07
6.76721e-07
1.89454e-07
5.03889e-07
8.13667e-07
1.03712e-06
1.16899e-06
3.58447e-07
7.87729e-07
1.12364e-06
1.35674e-06
1.49334e-06
5.21061e-07
1.00196e-06
1.34144e-06
1.57621e-06
1.71576e-06
6.46498e-07
1.1419e-06
1.47852e-06
1.71123e-06
1.85109e-06
1.89735e-06
7.04655e-07
1.20195e-06
1.53216e-06
1.75968e-06
1.89732e-06
1.94362e-06
6.76966e-07
-1.0706e-07
1.16907e-06
-9.32197e-08
1.49337e-06
1.71579e-06
1.85113e-06
1.89737e-06
5.57814e-07
1.0359e-06
4.13986e-08
1.35689e-06
1.57637e-06
1.71137e-06
1.75977e-06
3.90347e-07
8.11925e-07
5.29805e-08
1.12387e-06
1.34169e-06
1.47873e-06
1.53229e-06
1.99917e-07
5.00909e-07
6.06026e-08
7.87938e-07
1.0022e-06
1.14211e-06
1.20208e-06
6.19017e-08
1.87558e-07
6.64425e-08
3.58518e-07
5.21176e-07
6.46636e-07
7.04793e-07
)
;
    }
    procBoundary8to9
    {
        type            processor;
        value           nonuniform List<scalar> 
132
(
-1.16496e-07
-1.16623e-07
-1.16712e-07
-1.16775e-07
-1.1682e-07
-1.16853e-07
-1.16875e-07
-1.16892e-07
-1.16903e-07
-1.16919e-07
-1.16967e-07
-1.01044e-07
-1.01292e-07
-1.01484e-07
-1.01627e-07
-1.0173e-07
-1.018e-07
-1.01843e-07
-1.01864e-07
-1.01879e-07
-1.01891e-07
-1.01894e-07
-8.08497e-08
-8.10401e-08
-8.11863e-08
-8.12984e-08
-8.13842e-08
-8.14503e-08
-8.1502e-08
-8.15405e-08
-8.15697e-08
-8.15854e-08
-8.15842e-08
-5.62792e-08
-5.63931e-08
-5.64851e-08
-5.65599e-08
-5.66214e-08
-5.66733e-08
-5.67186e-08
-5.67585e-08
-5.67925e-08
-5.6817e-08
-5.68334e-08
-5.33382e-09
-5.30081e-09
-5.27215e-09
-5.2466e-09
-5.22313e-09
-5.20074e-09
-5.17842e-09
-5.15585e-09
-5.13298e-09
-5.11371e-09
-5.08854e-09
-3.20284e-08
-3.19695e-08
-3.19192e-08
-3.18774e-08
-3.18432e-08
-3.18161e-08
-3.17949e-08
-3.17793e-08
-3.17686e-08
-3.1763e-08
-3.17589e-08
-1.91603e-09
-1.88857e-09
-1.86454e-09
-1.84369e-09
-1.82556e-09
-1.80967e-09
-1.79554e-09
-1.78288e-09
-1.77159e-09
-1.76233e-09
-1.75219e-09
2.81524e-08
2.81954e-08
2.82335e-08
2.8267e-08
2.82968e-08
2.8324e-08
2.83494e-08
2.83732e-08
2.83948e-08
2.84128e-08
2.84299e-08
5.62873e-08
5.64007e-08
5.64909e-08
5.65629e-08
5.66213e-08
5.66699e-08
5.67116e-08
5.67475e-08
5.67772e-08
5.67978e-08
5.68124e-08
8.08585e-08
8.10482e-08
8.11917e-08
8.12997e-08
8.13817e-08
8.1444e-08
8.1492e-08
8.15266e-08
8.15506e-08
8.15616e-08
8.15588e-08
1.01066e-07
1.01309e-07
1.01495e-07