/*--------------------------------*- C++ -*----------------------------------*\
| =========                 |                                                 |
| \\      /  F ield         | OpenFOAM: The Open Source CFD Toolbox           |
|  \\    /   O peration     | Version:  2212                                  |
|   \\  /    A nd           | Website:  www.openfoam.com                      |
|    \\/     M anipulation  |                                                 |
\*---------------------------------------------------------------------------*/
FoamFile
{
    version     2.0;
    format      ascii;
    arch        "LSB;label=32;scalar=64";
    class       volVectorField;
    location    "2.15";
    object      U;
}
// * * * * * * * * * * * * * * * * * * * * * * * * * * * * * * * * * * * * * //

dimensions      [0 1 -1 0 0 0 0];

internalField   nonuniform List<vector> 
690
(
(0.0284744 -1.88738e-05 8.69981e-05)
(0.0280544 -1.82144e-05 8.31263e-05)
(0.0276612 -1.69704e-05 8.16812e-05)
(0.0272801 -1.59964e-05 8.08971e-05)
(0.0269134 -1.61638e-05 7.82067e-05)
(0.0265546 -1.63472e-05 7.39132e-05)
(0.0262078 -1.67286e-05 6.8965e-05)
(0.0258762 -1.68989e-05 6.4301e-05)
(0.0255536 -1.69632e-05 5.98963e-05)
(0.0252401 -1.8156e-05 5.49854e-05)
(0.0249309 -1.96425e-05 4.84199e-05)
(0.0467982 -0.000362973 3.79123e-05)
(0.0461949 -0.000352996 3.42625e-05)
(0.0456192 -0.000345945 3.23808e-05)
(0.0450734 -0.000339527 3.0449e-05)
(0.044546 -0.000332616 2.59863e-05)
(0.04404 -0.000324416 2.00786e-05)
(0.043547 -0.000315599 1.38096e-05)
(0.0430747 -0.000308432 9.49209e-06)
(0.0426068 -0.000303534 7.21395e-06)
(0.0421427 -0.000299637 5.90882e-06)
(0.0416835 -0.000286834 3.59482e-06)
(0.064118 -0.000785715 -0.000255584)
(0.0634016 -0.00076619 -0.000266283)
(0.0627001 -0.000753732 -0.000274789)
(0.0620318 -0.000742426 -0.000282888)
(0.0613676 -0.000730024 -0.000291636)
(0.0607262 -0.000718008 -0.000299215)
(0.0600836 -0.000704446 -0.000304219)
(0.0594581 -0.000696184 -0.000305443)
(0.0588283 -0.00069072 -0.000303182)
(0.0582036 -0.000671333 -0.000296214)
(0.0575963 -0.000615758 -0.000282045)
(0.0750691 -0.000994916 -0.000468422)
(0.074267 -0.000975923 -0.000498135)
(0.0734767 -0.000965913 -0.000520926)
(0.072694 -0.000959481 -0.000538614)
(0.0719143 -0.000954619 -0.000552227)
(0.0711366 -0.000949033 -0.000561352)
(0.0703607 -0.000941037 -0.000565816)
(0.0695875 -0.000934176 -0.000566994)
(0.0688238 -0.000926577 -0.000565939)
(0.0680642 -0.00091357 -0.000562701)
(0.0673257 -0.000894765 -0.000553985)
(0.0799509 -0.00102817 -0.00052137)
(0.0792554 -0.00103923 -0.000565244)
(0.0785414 -0.00105077 -0.000599056)
(0.0778124 -0.00106105 -0.000625098)
(0.0770714 -0.00106868 -0.000644627)
(0.0763205 -0.00107331 -0.000658475)
(0.0755628 -0.00107438 -0.000667198)
(0.0747999 -0.00107236 -0.000672528)
(0.0740361 -0.00106763 -0.000675336)
(0.0732688 -0.001058 -0.000676832)
(0.0725004 -0.00104248 -0.000678168)
(0.0439094 -1.41054e-05 0.000197322)
(0.0433797 -1.7107e-05 0.000185707)
(0.0428621 -2.09162e-05 0.000175309)
(0.0423477 -2.33649e-05 0.000165238)
(0.041843 -2.54377e-05 0.000154854)
(0.0413501 -2.52367e-05 0.000143905)
(0.0408662 -2.43249e-05 0.00013339)
(0.0404039 -2.27338e-05 0.000122728)
(0.0399517 -2.16778e-05 0.000112555)
(0.0395158 -2.40347e-05 0.000102993)
(0.0390929 -2.73069e-05 9.24642e-05)
(0.0762121 -0.000373402 0.000169575)
(0.0757297 -0.000337 0.000158998)
(0.0752609 -0.00031911 0.00015201)
(0.0748178 -0.000314428 0.000148061)
(0.0743736 -0.000313007 0.000143996)
(0.0739497 -0.000309074 0.000137691)
(0.0735119 -0.000302124 0.000129307)
(0.0730928 -0.000293724 0.000119656)
(0.0726602 -0.000283369 0.000108754)
(0.0722327 -0.0002807 9.90809e-05)
(0.0718102 -0.000292822 9.22618e-05)
(0.0935199 -0.00100452 -4.56976e-05)
(0.0932654 -0.000959159 -6.9804e-05)
(0.093045 -0.000922565 -9.28853e-05)
(0.0928384 -0.000895985 -0.000114178)
(0.092651 -0.000873301 -0.000133706)
(0.0924702 -0.00085615 -0.000150795)
(0.0922936 -0.000841329 -0.000166363)
(0.0921101 -0.000831211 -0.000179546)
(0.0919323 -0.000820405 -0.000190698)
(0.091748 -0.000821949 -0.000197983)
(0.0915587 -0.000815633 -0.000202271)
(0.101582 -0.00126178 -0.000263996)
(0.101466 -0.00121295 -0.000319286)
(0.101364 -0.00117811 -0.000368467)
(0.101265 -0.00115169 -0.000410087)
(0.101171 -0.00113178 -0.000442648)
(0.101075 -0.00111788 -0.000467839)
(0.10098 -0.00110805 -0.000486619)
(0.100879 -0.00110564 -0.000501204)
(0.100773 -0.00109994 -0.00051112)
(0.100661 -0.00109452 -0.000516907)
(0.10054 -0.00108022 -0.000516746)
(0.104642 -0.00128214 -0.00036909)
(0.104651 -0.00127026 -0.000430227)
(0.104648 -0.00126244 -0.000481336)
(0.104632 -0.00125769 -0.000523035)
(0.104606 -0.00125491 -0.000556255)
(0.10457 -0.0012533 -0.000581906)
(0.104523 -0.001252 -0.000600458)
(0.104468 -0.00125133 -0.000613524)
(0.104403 -0.00124618 -0.000620128)
(0.104334 -0.00123607 -0.000620502)
(0.10426 -0.00122945 -0.000619866)
(0.0577277 -0.000379117 0.000465739)
(0.0571046 -0.000377092 0.000450709)
(0.0564995 -0.000347543 0.000411241)
(0.0559228 -0.000311206 0.000362703)
(0.0553679 -0.000293363 0.00032655)
(0.0548387 -0.000285954 0.000301265)
(0.0543076 -0.000281475 0.00028178)
(0.0538043 -0.000277218 0.000264778)
(0.0532974 -0.000274922 0.000249583)
(0.0528081 -0.000270059 0.000234936)
(0.0523384 -0.000259713 0.000219589)
(0.0902603 -0.000650451 0.000386092)
(0.0900583 -0.000606855 0.000389163)
(0.0898805 -0.000578365 0.000386363)
(0.0897166 -0.00055998 0.000379907)
(0.0895619 -0.000554568 0.000374344)
(0.0894086 -0.000547556 0.000364705)
(0.0892578 -0.000542254 0.000354341)
(0.0890987 -0.000536288 0.000341634)
(0.0889446 -0.000522886 0.000324399)
(0.0887882 -0.000525886 0.000313266)
(0.0886252 -0.000527495 0.000300638)
(0.10449 -0.00119637 0.000194793)
(0.104551 -0.00113991 0.000186958)
(0.104637 -0.00109725 0.000174348)
(0.104733 -0.00106632 0.00015927)
(0.104847 -0.00104911 0.000146568)
(0.104962 -0.00103309 0.000133246)
(0.105094 -0.00101342 0.000117738)
(0.105229 -0.000999664 0.000103019)
(0.105371 -0.000993159 9.00673e-05)
(0.105512 -0.000997238 8.05543e-05)
(0.105647 -0.00100073 7.24732e-05)
(0.111207 -0.00138153 -8.18907e-05)
(0.111399 -0.00132865 -0.000117761)
(0.111599 -0.00128483 -0.000151153)
(0.111806 -0.00125425 -0.000181393)
(0.11202 -0.00123487 -0.000207423)
(0.112238 -0.00121969 -0.000229979)
(0.112461 -0.00120736 -0.000249983)
(0.112686 -0.00119797 -0.000267655)
(0.11291 -0.00119068 -0.000282268)
(0.113134 -0.00119305 -0.000292225)
(0.113352 -0.0011947 -0.000297815)
(0.113941 -0.00131787 -0.000295429)
(0.114222 -0.00129727 -0.000335402)
(0.1145 -0.00128282 -0.000368834)
(0.114773 -0.00127241 -0.000396784)
(0.115044 -0.00126566 -0.000420592)
(0.115312 -0.00126124 -0.000440798)
(0.115577 -0.0012583 -0.000457888)
(0.115839 -0.00125674 -0.000471699)
(0.116097 -0.00125525 -0.000481574)
(0.116353 -0.0012551 -0.000487397)
(0.116605 -0.00125376 -0.000489143)
(0.0682684 -0.000514381 0.00069138)
(0.0675997 -0.000523838 0.000702973)
(0.0669381 -0.000530878 0.000699899)
(0.0662907 -0.000531137 0.000684136)
(0.0656589 -0.000526037 0.000662289)
(0.0650424 -0.000519853 0.000638809)
(0.0644408 -0.000513087 0.00061462)
(0.0638559 -0.000507836 0.000591266)
(0.0632812 -0.000502684 0.000569028)
(0.0627212 -0.000492441 0.000547565)
(0.0621722 -0.000478359 0.000526356)
(0.0974975 -0.000709751 0.000658774)
(0.0974457 -0.000666391 0.000688553)
(0.0973986 -0.000628784 0.000707537)
(0.0973524 -0.000597526 0.000716466)
(0.0973096 -0.000572621 0.000717928)
(0.0972669 -0.000553556 0.000713888)
(0.0972303 -0.000540457 0.000706565)
(0.0971921 -0.000529032 0.000695619)
(0.0971588 -0.000518624 0.000682446)
(0.097125 -0.000512104 0.000668203)
(0.0970888 -0.00050604 0.000650535)
(0.109698 -0.00106504 0.000488672)
(0.109908 -0.00101225 0.000508705)
(0.110125 -0.000968847 0.000522516)
(0.110348 -0.000934111 0.000530302)
(0.110578 -0.000908013 0.000533435)
(0.110813 -0.000887459 0.000532616)
(0.111055 -0.000869715 0.000528595)
(0.111301 -0.00085428 0.000521826)
(0.111551 -0.000842184 0.000513225)
(0.111802 -0.00083611 0.000503801)
(0.112054 -0.000836362 0.000494835)
(0.115714 -0.00115338 0.00018348)
(0.116043 -0.0011032 0.000177912)
(0.116374 -0.0010616 0.000172231)
(0.116708 -0.001028 0.000165628)
(0.117046 -0.00100117 0.000157152)
(0.117386 -0.0009791 0.000147529)
(0.117729 -0.000960338 0.000137213)
(0.118074 -0.000944962 0.00012655)
(0.118418 -0.000933305 0.000116318)
(0.118764 -0.000927632 0.000107736)
(0.119109 -0.00092481 0.000100441)
(0.118437 -0.0010425 -0.000110609)
(0.118836 -0.00101398 -0.000124622)
(0.119231 -0.000990754 -0.000136367)
(0.119624 -0.000972119 -0.000146498)
(0.120015 -0.000957345 -0.000155388)
(0.120404 -0.00094544 -0.000163415)
(0.120792 -0.000935593 -0.000170789)
(0.121178 -0.000927518 -0.000177367)
(0.121562 -0.000920907 -0.000182736)
(0.121945 -0.000916717 -0.0001867)
(0.122326 -0.000913406 -0.000189279)
(0.0757879 -0.00060339 0.000798922)
(0.0751594 -0.000622636 0.000836225)
(0.0745093 -0.000635167 0.00086256)
(0.0738456 -0.000641185 0.000879206)
(0.0731739 -0.000642706 0.000887472)
(0.0725004 -0.000641906 0.000888855)
(0.0718294 -0.00063969 0.000884902)
(0.0711642 -0.000636952 0.000877213)
(0.0705062 -0.000632857 0.000866182)
(0.0698565 -0.000626345 0.000852449)
(0.0692158 -0.000617746 0.000837173)
(0.101909 -0.000669716 0.000869367)
(0.101937 -0.000659842 0.000915696)
(0.101951 -0.000649992 0.000953571)
(0.101952 -0.000638973 0.000982252)
(0.101944 -0.000627015 0.00100204)
(0.101929 -0.000614988 0.0010145)
(0.101909 -0.000604054 0.00102094)
(0.101887 -0.000594101 0.00102273)
(0.101864 -0.000584827 0.00102036)
(0.101839 -0.000577103 0.00101402)
(0.101814 -0.000568222 0.00100183)
(0.112665 -0.000852068 0.000770678)
(0.112951 -0.000829535 0.000803291)
(0.113234 -0.000809368 0.000830276)
(0.113512 -0.000791379 0.00085151)
(0.113789 -0.000775668 0.000867319)
(0.114065 -0.000761595 0.000878581)
(0.11434 -0.000748599 0.000886061)
(0.114614 -0.000736772 0.000889999)
(0.114887 -0.000726671 0.000890353)
(0.115161 -0.000720377 0.00088829)
(0.115434 -0.000716092 0.000882632)
(0.118089 -0.000835345 0.00046726)
(0.11849 -0.000808655 0.000475124)
(0.118887 -0.000785127 0.000481458)
(0.119281 -0.000764669 0.000486018)
(0.119673 -0.000747094 0.000488626)
(0.120064 -0.000731769 0.000489395)
(0.120453 -0.000718157 0.000488502)
(0.120842 -0.000706304 0.000486116)
(0.121228 -0.000696565 0.000482475)
(0.121615 -0.000690004 0.000478202)
(0.122 -0.000685088 0.000472825)
(0.120711 -0.00068247 0.000130369)
(0.121172 -0.000664211 0.000128973)
(0.121627 -0.000648111 0.00012749)
(0.122078 -0.000634105 0.000125902)
(0.122524 -0.000622027 0.000124172)
(0.122967 -0.000611598 0.00012222)
(0.123408 -0.00060258 0.000120002)
(0.123845 -0.000594923 0.000117573)
(0.12428 -0.000588718 0.000115104)
(0.124713 -0.000584324 0.0001128)
(0.125144 -0.000580727 0.000110481)
(0.121452 -0.000413222 -0.000263623)
(0.121933 -0.00040767 -0.000259387)
(0.122407 -0.000402649 -0.000255611)
(0.122875 -0.000398105 -0.000252291)
(0.123339 -0.000393973 -0.000249408)
(0.123798 -0.000390169 -0.000246951)
(0.124254 -0.000386608 -0.000244889)
(0.124706 -0.000383263 -0.000243197)
(0.125155 -0.000380173 -0.00024184)
(0.125602 -0.000377587 -0.000240876)
(0.126046 -0.000374987 -0.000239866)
(0.0798044 -0.000591601 0.000910601)
(0.0791877 -0.000627572 0.000945091)
(0.078539 -0.000653549 0.000972157)
(0.0778662 -0.000671201 0.000992439)
(0.0771752 -0.000682518 0.00100645)
(0.0764717 -0.000688972 0.00101503)
(0.0757604 -0.000691098 0.00101891)
(0.0750453 -0.000690236 0.00101863)
(0.07433 -0.00068707 0.00101519)
(0.0736161 -0.000682468 0.00100899)
(0.072907 -0.000678731 0.000999581)
(0.104404 -0.000535336 0.0010805)
(0.104466 -0.000570863 0.00110815)
(0.104506 -0.00059746 0.0011324)
(0.104527 -0.000616307 0.00115323)
(0.104531 -0.000628513 0.00117037)
(0.104521 -0.000635276 0.00118426)
(0.1045 -0.000637764 0.00119562)
(0.10447 -0.0006371 0.0012039)
(0.104433 -0.000634046 0.00120849)
(0.104389 -0.000629547 0.00120855)
(0.104342 -0.00062036 0.00119977)
(0.114159 -0.000566269 0.00106174)
(0.114473 -0.000582939 0.00107634)
(0.114778 -0.000595755 0.00109034)
(0.115076 -0.000604843 0.00110309)
(0.115367 -0.00061084 0.00111428)
(0.115652 -0.00061448 0.00112378)
(0.115933 -0.000616526 0.00113151)
(0.116209 -0.000617145 0.00113745)
(0.116482 -0.000616624 0.001141)
(0.116752 -0.000615983 0.00114315)
(0.11702 -0.000612924 0.00114138)
(0.119031 -0.000459369 0.000768828)
(0.119456 -0.000459657 0.000766744)
(0.119874 -0.000459258 0.000765523)
(0.120287 -0.000458248 0.000764805)
(0.120695 -0.000456779 0.000764242)
(0.1211 -0.000454986 0.000763515)
(0.121502 -0.000452988 0.000762326)
(0.121901 -0.00045091 0.000760495)
(0.122297 -0.000448791 0.000758017)
(0.122692 -0.000446928 0.000755541)
(0.123084 -0.000444396 0.000751955)
(0.121453 -0.000266169 0.000409712)
(0.121934 -0.000261735 0.00040448)
(0.122408 -0.000257654 0.000399937)
(0.122876 -0.000253922 0.000395995)
(0.12334 -0.000250531 0.000392535)
(0.123799 -0.000247492 0.000389422)
(0.124255 -0.000244811 0.000386533)
(0.124707 -0.000242501 0.000383802)
(0.125155 -0.000240585 0.00038124)
(0.125602 -0.000239169 0.000379033)
(0.126045 -0.000237873 0.000376646)
(0.122189 -2.32448e-06 -8.3021e-07)
(0.122688 -2.23543e-06 -7.91653e-07)
(0.12318 -2.07012e-06 -7.29512e-07)
(0.123666 -1.83399e-06 -6.50133e-07)
(0.124146 -1.54511e-06 -5.66125e-07)
(0.124622 -1.22524e-06 -4.88356e-07)
(0.125094 -8.96544e-07 -4.23516e-07)
(0.125562 -5.82307e-07 -3.74882e-07)
(0.126026 -3.05872e-07 -3.39934e-07)
(0.126487 -8.82265e-08 -3.15705e-07)
(0.126945 5.39609e-08 -2.97922e-07)
(0.0799495 -0.000528694 0.00102206)
(0.0792551 -0.000572033 0.00103326)
(0.0785424 -0.000604846 0.0010451)
(0.0778151 -0.000629533 0.00105579)
(0.0770759 -0.000647509 0.00106386)
(0.0763272 -0.000659728 0.00106879)
(0.0755721 -0.000666908 0.00107012)
(0.0748123 -0.000670766 0.00106836)
(0.0740522 -0.000672253 0.00106398)
(0.0732888 -0.000672686 0.00105508)
(0.0725248 -0.000673204 0.00104016)
(0.104647 -0.000374365 0.00127621)
(0.104657 -0.000435145 0.00126468)
(0.104654 -0.000485601 0.00125716)
(0.104639 -0.000526404 0.00125277)
(0.104613 -0.000558521 0.00125038)
(0.104576 -0.000582873 0.00124917)
(0.10453 -0.000600068 0.00124824)
(0.104475 -0.000611855 0.00124796)
(0.10441 -0.000617249 0.0012433)
(0.104341 -0.00061685 0.0012336)
(0.104267 -0.00061553 0.00122695)
(0.113949 -0.000298644 0.00131415)
(0.114231 -0.000338032 0.00129391)
(0.114508 -0.000370777 0.00127992)
(0.114781 -0.000397906 0.00126996)
(0.115052 -0.000420778 0.00126362)
(0.11532 -0.000439958 0.00125958)
(0.115584 -0.00045601 0.00125696)
(0.115846 -0.000468871 0.00125558)
(0.116103 -0.000477908 0.0012543)
(0.116358 -0.000483071 0.00125418)
(0.116608 -0.000484465 0.00125281)
(0.118444 -0.000113518 0.00103902)
(0.118844 -0.000127213 0.00101102)
(0.119239 -0.000138514 0.000988446)
(0.119632 -0.000148075 0.000970537)
(0.120023 -0.000156276 0.000956512)
(0.120413 -0.000163535 0.000945325)
(0.1208 -0.000170113 0.000936111)
(0.121185 -0.000175929 0.000928534)
(0.121568 -0.000180629 0.000922332)
(0.12195 -0.000184059 0.000918378)
(0.122329 -0.000186298 0.000915074)
(0.120716 0.000128188 0.000678354)
(0.121177 0.000126817 0.000660558)
(0.121633 0.000125418 0.000645115)
(0.122083 0.000124005 0.000631926)
(0.12253 0.000122551 0.000620761)
(0.122973 0.000120959 0.000611278)
(0.123413 0.000119155 0.000603172)
(0.12385 0.000117149 0.000596308)
(0.124285 0.000115048 0.000590681)
(0.124717 0.000113029 0.000586623)
(0.125147 0.000110927 0.000583181)
(0.121454 0.000408707 0.00026211)
(0.121935 0.000403291 0.00025792)
(0.12241 0.00039856 0.000254214)
(0.122878 0.00039446 0.000250981)
(0.123342 0.000390884 0.000248189)
(0.123801 0.000387707 0.000245802)
(0.124257 0.000384806 0.000243781)
(0.124709 0.000382108 0.000242088)
(0.125158 0.000379604 0.000240701)
(0.125605 0.000377474 0.000239692)
(0.126048 0.000375154 0.00023866)
(0.075058 -0.000474228 0.000987178)
(0.0742591 -0.000502906 0.000968244)
(0.0734721 -0.000524402 0.000958524)
(0.0726929 -0.000540595 0.00095258)
(0.0719168 -0.000552658 0.000948443)
(0.0711429 -0.000560315 0.000943477)
(0.0703704 -0.00056339 0.000936241)
(0.0696014 -0.000563367 0.000930188)
(0.0688404 -0.000561469 0.000923021)
(0.0680844 -0.000557361 0.000911534)
(0.0673466 -0.000547864 0.00089409)
(0.0666233 -0.000533814 0.000872707)
(0.101597 -0.000267498 0.00125652)
(0.101482 -0.000321825 0.00120796)
(0.10138 -0.000369954 0.00117295)
(0.101281 -0.000410538 0.00114661)
(0.101187 -0.00044205 0.00112708)
(0.101091 -0.000466131 0.00111337)
(0.100995 -0.000483941 0.0011043)
(0.100893 -0.000497415 0.00110165)
(0.100787 -0.0005063 0.00109596)
(0.100675 -0.000511471 0.00109082)
(0.100556 -0.000511545 0.00107971)
(0.100431 -0.000507688 0.00106195)
(0.111231 -8.4209e-05 0.00137872)
(0.111423 -0.000119115 0.00132635)
(0.111624 -0.000151523 0.00128295)
(0.11183 -0.000180784 0.00125261)
(0.112043 -0.000205857 0.00123348)
(0.11226 -0.000227477 0.00121855)
(0.112482 -0.000246603 0.00120637)
(0.112704 -0.00026347 0.00119692)
(0.112926 -0.000277301 0.00118966)
(0.113149 -0.000286676 0.00119188)
(0.113365 -0.000292 0.00119311)
(0.115735 0.00018053 0.00115026)
(0.116065 0.000175345 0.00110091)
(0.116396 0.000170111 0.00106015)
(0.11673 0.000164101 0.00102738)
(0.117067 0.000156337 0.00100132)
(0.117407 0.000147502 0.000979958)
(0.117749 0.000137999 0.000961761)
(0.118092 0.000128141 0.000946693)
(0.118435 0.000118641 0.000935233)
(0.118779 0.000110668 0.000929573)
(0.119122 0.000103782 0.000926499)
(0.118102 0.00046513 0.000830793)
(0.118503 0.00047284 0.000804748)
(0.118901 0.000479066 0.000782049)
(0.119295 0.000483647 0.000762538)
(0.119687 0.000486419 0.000745976)
(0.120077 0.000487479 0.000731656)
(0.120467 0.00048698 0.000718957)
(0.120854 0.000485058 0.000707845)
(0.121241 0.000481896 0.000698653)
(0.121626 0.00047807 0.000692422)
(0.122011 0.000473058 0.000687527)
(0.119036 0.000768035 0.00045456)
(0.119461 0.000765558 0.000455188)
(0.119879 0.000763961 0.00045529)
(0.120292 0.000762936 0.000454926)
(0.120701 0.000762142 0.000454223)
(0.121106 0.00076129 0.000453249)
(0.121508 0.000760097 0.000452048)
(0.121907 0.000758386 0.000450664)
(0.122303 0.000756081 0.00044913)
(0.122698 0.000753823 0.00044769)
(0.12309 0.00075039 0.000445365)
(0.0641053 -0.000262494 0.000775352)
(0.0633944 -0.00027256 0.000755221)
(0.0626978 -0.000279846 0.000743194)
(0.0620338 -0.000286515 0.000732811)
(0.0613738 -0.000293692 0.000721619)
(0.0607353 -0.000299748 0.000710598)
(0.0600963 -0.000303267 0.000698631)
(0.0594732 -0.000303212 0.000690924)
(0.0588448 -0.000300095 0.000685855)
(0.0582253 -0.000292592 0.000669287)
(0.0576144 -0.000277586 0.000616303)
(0.057025 -0.000258342 0.000550198)
(0.0935552 -4.95037e-05 0.000999236)
(0.0932996 -7.33644e-05 0.000954102)
(0.0930775 -9.60223e-05 0.000917126)
(0.0928699 -0.000116708 0.000890391)
(0.0926802 -0.000135406 0.000867481)
(0.092498 -0.000151431 0.000850775)
(0.0923188 -0.00016591 0.000836186)
(0.0921343 -0.000177984 0.000825265)
(0.0919544 -0.000187672 0.000817859)
(0.0917672 -0.000194154 0.000817603)
(0.0915791 -0.000198055 0.000808991)
(0.091368 -0.000198962 0.000800291)
(0.104542 0.000192143 0.00119627)
(0.104602 0.000184594 0.00114037)
(0.104687 0.00017231 0.00109766)
(0.104781 0.000157874 0.00106662)
(0.104891 0.000146016 0.00104923)
(0.105003 0.000133614 0.00103308)
(0.105132 0.000119056 0.00101319)
(0.105262 0.000105044 0.000998574)
(0.105402 9.29111e-05 0.000991866)
(0.105538 8.44193e-05 0.000996002)
(0.10567 7.67811e-05 0.000997651)
(0.10974 0.000485331 0.00106303)
(0.10995 0.000504938 0.00101119)
(0.110167 0.000518547 0.000968442)
(0.110389 0.000526586 0.000934343)
(0.110618 0.000530303 0.000908816)
(0.110851 0.000530244 0.00088873)
(0.111091 0.000527118 0.00087132)
(0.111334 0.000521244 0.000855903)
(0.11158 0.000513507 0.000843813)
(0.111828 0.000505044 0.000837538)
(0.112077 0.000496842 0.000836932)
(0.112688 0.00076886 0.000847353)
(0.112976 0.0008006 0.000825309)
(0.113259 0.000826882 0.000805806)
(0.113538 0.000847708 0.000788649)
(0.113814 0.000863394 0.000773892)
(0.114089 0.00087478 0.000760793)
(0.114363 0.000882596 0.00074868)
(0.114636 0.00088706 0.000737574)
(0.114908 0.000888034 0.000727979)
(0.11518 0.000886619 0.000721959)
(0.115451 0.000881564 0.000717516)
(0.114168 0.00106173 0.000561118)
(0.114483 0.00107548 0.00057783)
(0.114789 0.00108873 0.000590877)
(0.115087 0.00110089 0.000600417)
(0.115378 0.00111162 0.000607107)
(0.115663 0.00112081 0.000611534)
(0.115943 0.0011284 0.000614367)
(0.116219 0.00113434 0.00061572)
(0.116492 0.0011381 0.000615792)
(0.116763 0.00114052 0.00061553)
(0.11703 0.00113898 0.000612567)
(0.0467503 3.18537e-05 0.000357377)
(0.0461592 2.77567e-05 0.000347067)
(0.0455939 2.63584e-05 0.000340844)
(0.045055 2.51994e-05 0.000335151)
(0.0445356 2.17928e-05 0.00032868)
(0.0440343 1.71064e-05 0.000320964)
(0.0435476 1.20662e-05 0.000312639)
(0.0430785 8.86429e-06 0.000305981)
(0.0426138 7.62159e-06 0.000301717)
(0.0421525 6.69199e-06 0.000297983)
(0.0416959 4.82012e-06 0.00028596)
(0.041251 3.3825e-06 0.00026651)
(0.0762155 0.000169187 0.00037653)
(0.0757324 0.000158481 0.000342389)
(0.0752629 0.000151008 0.000323957)
(0.0748211 0.000146607 0.000318206)
(0.0743779 0.000142286 0.000315179)
(0.0739555 0.000136162 0.000310008)
(0.0735195 0.000128316 0.000302238)
(0.0731025 0.000119117 0.000292212)
(0.0726715 0.000109156 0.000282072)
(0.0722478 0.000100634 0.000280274)
(0.0718243 9.39675e-05 0.000289348)
(0.0713815 8.86176e-05 0.00030678)
(0.0903137 0.000384791 0.000651721)
(0.0901089 0.000389018 0.000610475)
(0.0899276 0.000386458 0.000582225)
(0.0897602 0.000379819 0.000563369)
(0.0896016 0.000373981 0.000556844)
(0.0894456 0.000364463 0.000548877)
(0.0892914 0.000354477 0.000542898)
(0.0891298 0.00034228 0.000536129)
(0.0889728 0.00032545 0.000521374)
(0.0888145 0.000315407 0.000524846)
(0.0886491 0.000303926 0.000527184)
(0.097543 0.000655862 0.000706156)
(0.0974914 0.00068475 0.000663522)
(0.097444 0.000702933 0.000625663)
(0.0973968 0.000711666 0.000594256)
(0.0973525 0.000713386 0.000569626)
(0.0973077 0.000709927 0.000551061)
(0.0972686 0.000703453 0.000538442)
(0.0972275 0.000693535 0.000527354)
(0.0971907 0.000681345 0.000517051)
(0.0971536 0.000668285 0.000510659)
(0.0971139 0.000652455 0.000505826)
(0.101934 0.000868869 0.000664339)
(0.101964 0.000913488 0.000653591)
(0.101978 0.000949781 0.000642893)
(0.10198 0.000977596 0.000631824)
(0.101972 0.000997085 0.000620466)
(0.101956 0.0010096 0.000609248)
(0.101936 0.00101638 0.000599112)
(0.101913 0.00101879 0.00058992)
(0.101888 0.00101719 0.00058122)
(0.101861 0.00101147 0.000573776)
(0.101834 0.00100017 0.00056527)
(0.104415 0.00108231 0.000530588)
(0.104478 0.00110905 0.000565079)
(0.104518 0.0011322 0.000590745)
(0.104539 0.00115203 0.000609076)
(0.104544 0.00116834 0.000621247)
(0.104535 0.0011816 0.000628305)
(0.104514 0.00119252 0.000631297)
(0.104483 0.00120064 0.00063132)
(0.104445 0.0012054 0.000628742)
(0.104401 0.00120565 0.000624693)
(0.104354 0.00119714 0.000615912)
(0.0284301 8.49642e-05 1.9372e-05)
(0.0280197 8.10415e-05 1.82936e-05)
(0.0276338 7.9717e-05 1.69147e-05)
(0.0272596 7.88901e-05 1.59609e-05)
(0.0268992 7.64022e-05 1.60601e-05)
(0.026545 7.25586e-05 1.62035e-05)
(0.0262033 6.81282e-05 1.65003e-05)
(0.0258748 6.39595e-05 1.65548e-05)
(0.0255559 6.00782e-05 1.66176e-05)
(0.025244 5.53903e-05 1.78511e-05)
(0.0249374 4.89654e-05 1.93064e-05)
(0.0246419 4.25358e-05 2.09939e-05)
(0.0438464 0.000196235 1.15425e-05)
(0.0433274 0.000185526 1.70736e-05)
(0.042816 0.000174827 2.06134e-05)
(0.0423095 0.000164254 2.22692e-05)
(0.0418148 0.000153766 2.39307e-05)
(0.0413287 0.000143062 2.36844e-05)
(0.0408535 0.000132886 2.29804e-05)
(0.0403969 0.000122647 2.15037e-05)
(0.0399501 0.000113084 2.04412e-05)
(0.0395186 0.000103758 2.30689e-05)
(0.0391004 9.3368e-05 2.69752e-05)
(0.0386965 8.3252e-05 3.2577e-05)
(0.0576556 0.000462774 0.000367649)
(0.0570426 0.000443324 0.000358841)
(0.0564497 0.000401446 0.000326931)
(0.0558843 0.000356719 0.000297155)
(0.0553379 0.000323312 0.000283073)
(0.0548165 0.000299463 0.000277414)
(0.0542929 0.000280745 0.000274104)
(0.0537964 0.000264246 0.000270862)
(0.0532958 0.000249613 0.000269176)
(0.0528115 0.000235414 0.000265144)
(0.0523471 0.000220398 0.000256599)
(0.0682099 0.000689891 0.0005038)
(0.0675467 0.000697947 0.000509483)
(0.0668929 0.000692532 0.000514696)
(0.0662534 0.000676427 0.000514832)
(0.06563 0.000655116 0.00051043)
(0.0650218 0.000632516 0.000505261)
(0.0644279 0.000609333 0.000499547)
(0.0638499 0.000586989 0.000495462)
(0.0632815 0.000565831 0.000491484)
(0.0627271 0.000545279 0.000482092)
(0.0621835 0.000525016 0.000469218)
(0.0757583 0.00079986 0.000597919)
(0.0751305 0.000835262 0.000613413)
(0.0744827 0.000860267 0.000623399)
(0.0738227 0.000875738 0.000628235)
(0.073156 0.000883172 0.000629359)
(0.0724881 0.000884165 0.00062853)
(0.0718227 0.000880213 0.000626499)
(0.0711628 0.000872841 0.000624129)
(0.0705099 0.00086239 0.000620556)
(0.0698649 0.000849345 0.000614526)
(0.0692285 0.000834812 0.00060655)
(0.0797951 0.000913356 0.000588718)
(0.0791785 0.000946975 0.000621824)
(0.0785308 0.00097298 0.00064568)
(0.0778598 0.00099211 0.000662019)
(0.0771713 0.00100515 0.000672572)
(0.0764707 0.00101299 0.000678634)
(0.0757624 0.00101654 0.000680681)
(0.0750502 0.00101628 0.000679842)
(0.0743379 0.0010131 0.000676823)
(0.0736267 0.0010073 0.00067248)
(0.0729201 0.000998249 0.000669147)
)
;

boundaryField
{
    inlet
    {
        type            fixedValue;
        value           nonuniform List<vector> 0();
    }
    ami1
    {
        type            cyclicAMI;
        value           nonuniform List<vector> 0();
    }
    walls
    {
        type            noSlip;
    }
    ami2
    {
        type            cyclicAMI;
        value           nonuniform List<vector> 0();
    }
    outlet
    {
        type            zeroGradient;
    }
    procBoundary8to0
    {
        type            processor;
        value           nonuniform List<vector> 
29
(
(0.0289044 -1.86108e-05 9.18988e-05)
(0.0474253 -0.000378124 4.39339e-05)
(0.0648857 -0.000817809 -0.000239263)
(0.0758864 -0.0010258 -0.000430453)
(0.0806228 -0.0010187 -0.000462518)
(0.0444476 -9.13115e-06 0.00020657)
(0.0767361 -0.000411131 0.000176896)
(0.0937993 -0.0010541 -2.08362e-05)
(0.101706 -0.00132381 -0.000199566)
(0.10462 -0.00129929 -0.000295132)
(0.058361 -0.000380343 0.000467841)
(0.0904867 -0.000699304 0.000370587)
(0.104452 -0.00126342 0.000197493)
(0.111026 -0.00144651 -4.31251e-05)
(0.113659 -0.00134624 -0.000248642)
(0.068933 -0.000510769 0.000667849)
(0.0975557 -0.000757852 0.000614222)
(0.109499 -0.00112697 0.000461069)
(0.115388 -0.00121254 0.000188255)
(0.118033 -0.00107645 -9.46846e-05)
(0.0763854 -0.000579746 0.000749097)
(0.101863 -0.000679269 0.000812047)
(0.112372 -0.000876886 0.000731672)
(0.117684 -0.000865642 0.000457833)
(0.120244 -0.000702979 0.000131678)
(0.120964 -0.00041939 -0.000268354)
(0.118599 -0.000458646 0.000772096)
(0.120964 -0.000271014 0.00041574)
(0.121682 -2.34231e-06 -8.24049e-07)
)
;
    }
    procBoundary8to1
    {
        type            processor;
        value           nonuniform List<vector> 
33
(
(0.0803798 -0.000543807 0.000866901)
(0.104315 -0.000490168 0.00105013)
(0.113834 -0.000545115 0.00104652)
(0.0806209 -0.00046998 0.00101259)
(0.104624 -0.000300453 0.00129368)
(0.113666 -0.000252315 0.0013425)
(0.118041 -9.78517e-05 0.00107268)
(0.120248 0.000129483 0.000698635)
(0.120966 0.000414861 0.00026687)
(0.0758728 -0.00043718 0.00101788)
(0.101721 -0.000203766 0.00131876)
(0.11105 -4.62424e-05 0.00144372)
(0.115408 0.000185034 0.00120901)
(0.117695 0.000455846 0.0008608)
(0.118603 0.000771593 0.000453719)
(0.0648682 -0.000246353 0.000808075)
(0.0938346 -2.44884e-05 0.00104986)
(0.104504 0.000194814 0.00126345)
(0.109539 0.000458319 0.0011245)
(0.112394 0.000730712 0.000872076)
(0.113842 0.00104716 0.000540099)
(0.0473673 3.88803e-05 0.000372852)
(0.0767417 0.000177244 0.000413691)
(0.0905407 0.000369197 0.000698617)
(0.0975993 0.000612516 0.000753846)
(0.101886 0.000812938 0.000674658)
(0.104325 0.00105233 0.000486364)
(0.0288528 9.03272e-05 1.96609e-05)
(0.0443778 0.000205644 5.12608e-06)
(0.0582848 0.000466393 0.000370111)
(0.068872 0.000669035 0.000504042)
(0.0763567 0.00075226 0.000578242)
(0.0803714 0.000870559 0.000544164)
)
;
    }
    procBoundary8to7
    {
        type            processor;
        value           nonuniform List<vector> 
68
(
(0.0246357 -2.13323e-05 4.17267e-05)
(0.0412414 -0.000266591 1.4907e-06)
(0.0570053 -0.000549204 -0.000263234)
(0.0665967 -0.000872983 -0.00053992)
(0.0717389 -0.00102203 -0.000677908)
(0.0386902 -3.28926e-05 8.20498e-05)
(0.0713626 -0.000311589 8.6846e-05)
(0.0913461 -0.000803886 -0.000203765)
(0.100418 -0.00106219 -0.000513178)
(0.104176 -0.00122858 -0.000619422)
(0.0518718 -0.000247498 0.000204216)
(0.0884492 -0.000536493 0.000290418)
(0.105781 -0.00100721 6.82318e-05)
(0.113569 -0.00118478 -0.000300346)
(0.116853 -0.0012526 -0.000488289)
(0.0616333 -0.000463981 0.000506239)
(0.0970556 -0.000509621 0.000636115)
(0.112308 -0.000846202 0.000488846)
(0.119456 -0.000923328 9.48652e-05)
(0.122706 -0.00091121 -0.00019112)
(0.0685852 -0.000606048 0.000819015)
(0.10179 -0.000557426 0.000983931)
(0.115708 -0.000714448 0.000874323)
(0.122386 -0.000681544 0.000467329)
(0.125573 -0.000578041 0.000108203)
(0.126489 -0.000372718 -0.000238987)
(0.0721979 -0.000674795 0.00098414)
(0.104292 -0.000607408 0.00118496)
(0.117286 -0.000607718 0.00113675)
(0.123475 -0.000441615 0.000748141)
(0.126487 -0.000236841 0.000374363)
(0.127402 1.23037e-07 -2.99549e-07)
(0.071767 -0.000672289 0.00102027)
(0.071767 -0.000672289 0.00102027)
(0.104183 -0.000614189 0.00122483)
(0.104183 -0.000614189 0.00122483)
(0.116855 -0.000483483 0.00125109)
(0.122708 -0.000187961 0.000912552)
(0.125576 0.00010882 0.000580453)
(0.12649 0.000372981 0.000237758)
(0.0659189 -0.000517447 0.000853556)