/*--------------------------------*- C++ -*----------------------------------*\
| =========                 |                                                 |
| \\      /  F ield         | OpenFOAM: The Open Source CFD Toolbox           |
|  \\    /   O peration     | Version:  2212                                  |
|   \\  /    A nd           | Website:  www.openfoam.com                      |
|    \\/     M anipulation  |                                                 |
\*---------------------------------------------------------------------------*/
FoamFile
{
    version     2.0;
    format      ascii;
    arch        "LSB;label=32;scalar=64";
    class       surfaceVectorField;
    location    "2.15";
    object      Uf;
}
// * * * * * * * * * * * * * * * * * * * * * * * * * * * * * * * * * * * * * //

dimensions      [0 1 -1 0 0 0 0];

internalField   nonuniform List<vector> 
1815
(
(0.0282628 -1.85441e-05 8.50622e-05)
(0.0358021 -0.000185318 8.10174e-05)
(0.0346469 1.38116e-05 0.00013203)
(0.0278575 -1.75924e-05 8.24038e-05)
(0.0353088 -0.00017863 7.61448e-05)
(0.034183 1.54394e-05 0.000125134)
(0.0274708 -1.64834e-05 8.12891e-05)
(0.0348427 -0.000174825 7.44119e-05)
(0.0337401 1.94833e-05 0.000120252)
(0.0270976 -1.60801e-05 7.95519e-05)
(0.0343957 -0.000172511 7.35654e-05)
(0.0333057 2.29515e-05 0.000115868)
(0.0267341 -1.62555e-05 7.60599e-05)
(0.0339647 -0.000170056 7.02649e-05)
(0.0328838 2.36659e-05 0.00011015)
(0.0263813 -1.65379e-05 7.14391e-05)
(0.033547 -0.000166805 6.52868e-05)
(0.0324713 2.34242e-05 0.000103189)
(0.0260419 -1.68138e-05 6.6633e-05)
(0.0331418 -0.000162679 5.94179e-05)
(0.0320697 2.31721e-05 9.6003e-05)
(0.0257142 -1.69311e-05 6.20987e-05)
(0.0327539 -0.000159167 5.45388e-05)
(0.0316858 2.32002e-05 8.89252e-05)
(0.0253975 -1.75596e-05 5.74409e-05)
(0.0323732 -0.000155551 5.01817e-05)
(0.0313115 2.29967e-05 8.21965e-05)
(0.0250855 -1.88992e-05 5.17026e-05)
(0.0319995 -0.000151868 4.53685e-05)
(0.030949 1.98401e-05 7.5381e-05)
(0.0316303 -0.000143676 3.86271e-05)
(0.0305943 1.41102e-05 6.71259e-05)
(0.046494 -0.000357985 3.60874e-05)
(0.0545137 -0.000559971 -8.70622e-05)
(0.0598188 -0.000296454 0.000106768)
(0.0459072 -0.000349471 3.33217e-05)
(0.0538601 -0.00054803 -9.23289e-05)
(0.059269 -0.000274038 0.000100162)
(0.0453475 -0.000342736 3.14149e-05)
(0.0532283 -0.000537971 -9.75607e-05)
(0.0587407 -0.000258635 9.65486e-05)
(0.0448109 -0.000336071 2.82177e-05)
(0.052628 -0.000527583 -0.000103432)
(0.0582403 -0.000249078 9.43047e-05)
(0.0442932 -0.000328516 2.30325e-05)
(0.0520396 -0.000516693 -0.000110823)
(0.0577497 -0.000242825 9.02811e-05)
(0.0437933 -0.000320008 1.69441e-05)
(0.0514733 -0.000505759 -0.000118163)
(0.0572801 -0.000235768 8.43087e-05)
(0.043311 -0.000312015 1.16508e-05)
(0.0509137 -0.000494183 -0.000124298)
(0.0568115 -0.000227437 7.7154e-05)
(0.0428402 -0.000305983 8.35302e-06)
(0.0503731 -0.000486336 -0.000127365)
(0.0563628 -0.000220281 7.03926e-05)
(0.042376 -0.000301586 6.56139e-06)
(0.0498331 -0.000481903 -0.000127145)
(0.0559105 -0.000212449 6.43742e-05)
(0.0419123 -0.000293235 4.75182e-06)
(0.0492975 -0.000472467 -0.000123859)
(0.0554626 -0.000212125 5.89144e-05)
(0.0487723 -0.000440947 -0.000118605)
(0.0550196 -0.000214321 5.40167e-05)
(0.0637583 -0.000775952 -0.000260934)
(0.0692399 -0.000850742 -0.000383625)
(0.0776398 -0.000834889 -0.000145366)
(0.0630503 -0.000759961 -0.000270536)
(0.0684834 -0.000831739 -0.00040298)
(0.0771358 -0.000802811 -0.000162052)
(0.0623666 -0.000748079 -0.000278839)
(0.0677404 -0.000821222 -0.000417476)
(0.0766555 -0.000777747 -0.000176861)
(0.0617002 -0.000736225 -0.000287262)
(0.0670186 -0.000812804 -0.000429532)
(0.0761996 -0.000756988 -0.000190381)
(0.0610472 -0.000724016 -0.000295425)
(0.0663004 -0.000804698 -0.000439886)
(0.0757546 -0.000738203 -0.000203646)
(0.0604044 -0.000711227 -0.000301717)
(0.0655953 -0.00079648 -0.000447502)
(0.0753251 -0.000721685 -0.000215029)
(0.0597712 -0.000700315 -0.000304831)
(0.0648903 -0.00078674 -0.000451195)
(0.0748968 -0.000705237 -0.000224278)
(0.0591427 -0.000693452 -0.000304313)
(0.0641957 -0.000780512 -0.000451201)
(0.0744746 -0.000694709 -0.000230625)
(0.0585178 -0.000681027 -0.000299698)
(0.0635032 -0.00077599 -0.000447819)
(0.0740526 -0.000687159 -0.000234632)
(0.0578991 -0.000643545 -0.00028913)
(0.0628155 -0.000762576 -0.00044)
(0.0736305 -0.000679009 -0.000234648)
(0.0621468 -0.000729874 -0.000423454)
(0.0732154 -0.00064898 -0.000229736)
(0.0746671 -0.00098542 -0.000483278)
(0.0774246 -0.00101424 -0.000490379)
(0.0874844 -0.00108835 -0.000360513)
(0.0738716 -0.000970918 -0.00050953)
(0.0766739 -0.00101001 -0.000526638)
(0.0870039 -0.00105402 -0.000401678)
(0.0730854 -0.000962697 -0.00052977)
(0.0759205 -0.00101058 -0.00055455)
(0.0865358 -0.00103086 -0.000436237)
(0.0723043 -0.00095705 -0.00054542)
(0.0751637 -0.00101249 -0.00057596)
(0.0860729 -0.00101334 -0.000464462)
(0.0715254 -0.000951826 -0.000556789)
(0.0744026 -0.00101382 -0.000592246)
(0.0856146 -0.000999929 -0.000486368)
(0.0707483 -0.000945035 -0.000563584)
(0.0736379 -0.00101318 -0.000603632)
(0.0851561 -0.00098888 -0.000502411)
(0.0699743 -0.000937606 -0.000566405)
(0.0728707 -0.00100924 -0.000610503)
(0.084699 -0.000978432 -0.000512963)
(0.0692048 -0.000930376 -0.000566466)
(0.0721025 -0.00100377 -0.000614716)
(0.0842406 -0.000971839 -0.000519717)
(0.0684443 -0.000920073 -0.00056432)
(0.0713388 -0.00099586 -0.000617384)
(0.0837847 -0.000964012 -0.000523369)
(0.067696 -0.000904167 -0.000558343)
(0.0705754 -0.000981528 -0.000619663)
(0.0833285 -0.000953335 -0.000523885)
(0.0698225 -0.000960972 -0.00061945)
(0.0828793 -0.000935128 -0.000518591)
(0.0796026 -0.0010337 -0.000543307)
(0.0916126 -0.00112457 -0.000437351)
(0.0788981 -0.001045 -0.00058215)
(0.0912499 -0.00112197 -0.000487926)
(0.0781769 -0.00105591 -0.000612077)
(0.0908716 -0.00112193 -0.000528656)
(0.0774419 -0.00106487 -0.000634863)
(0.0904796 -0.00112292 -0.000560962)
(0.0766959 -0.00107099 -0.000651551)
(0.0900762 -0.00112372 -0.000585978)
(0.0759416 -0.00107385 -0.000662836)
(0.0896626 -0.00112375 -0.00060455)
(0.0751815 -0.00107337 -0.000669863)
(0.0892409 -0.00112228 -0.000617184)
(0.0744176 -0.00106999 -0.000673932)
(0.0888122 -0.00111969 -0.000625551)
(0.0736516 -0.00106282 -0.000676084)
(0.0883786 -0.00111455 -0.00063004)
(0.0728848 -0.00105024 -0.0006775)
(0.0879409 -0.00110527 -0.000631303)
(0.0875005 -0.00109376 -0.00063161)
(0.0436421 -1.56062e-05 0.000191514)
(0.0582088 -0.000176259 0.000186985)
(0.0500651 -0.000225443 0.000308299)
(0.0431185 -1.90116e-05 0.000180508)
(0.0577001 -0.000161096 0.000175378)
(0.0494938 -0.000228896 0.000294689)
(0.0426039 -2.21405e-05 0.000170273)
(0.057204 -0.000157444 0.000167833)
(0.0489372 -0.000220677 0.000270841)
(0.0420976 -2.44013e-05 0.000160046)
(0.0567212 -0.000159325 0.000162095)
(0.0483951 -0.000207197 0.000243396)
(0.0415973 -2.53372e-05 0.00014938)
(0.0562433 -0.000160144 0.000154692)
(0.047868 -0.000201244 0.000221383)
(0.0411086 -2.47808e-05 0.000138648)
(0.0557809 -0.000156876 0.000144912)
(0.0473589 -0.000197156 0.000204167)
(0.0406345 -2.35294e-05 0.000128059)
(0.0553174 -0.000151362 0.000134131)
(0.046854 -0.000193686 0.000189827)
(0.0401762 -2.22058e-05 0.000117641)
(0.0548742 -0.000144818 0.000122701)
(0.0463734 -0.000190383 0.000176433)
(0.0397345 -2.28562e-05 0.000107774)
(0.0544307 -0.00013738 0.000110785)
(0.0458969 -0.000187827 0.00016419)
(0.0393051 -2.56708e-05 9.77285e-05)
(0.0539985 -0.000135683 0.000100027)
(0.0454372 -0.00018626 0.000152488)
(0.0535758 -0.000138605 8.84649e-05)
(0.0449935 -0.000179519 0.000140509)
(0.0759696 -0.000355201 0.000164286)
(0.0842254 -0.000694856 9.34376e-05)
(0.0827162 -0.000547196 0.000257466)
(0.0754944 -0.000328055 0.000155504)
(0.0838485 -0.000656263 7.81708e-05)
(0.0823637 -0.000511571 0.000252093)
(0.0750395 -0.000316769 0.000150036)
(0.0834947 -0.000630428 6.43069e-05)
(0.0820295 -0.000494947 0.000245369)
(0.0745971 -0.000313718 0.000146029)
(0.0831611 -0.000615001 5.18399e-05)
(0.0817157 -0.000488957 0.000238893)
(0.0741617 -0.00031104 0.000140844)
(0.0828357 -0.000603204 4.01879e-05)
(0.0814055 -0.000487748 0.000233575)
(0.0737306 -0.000305599 0.000133499)
(0.0825244 -0.000592965 2.87409e-05)
(0.0811069 -0.000482629 0.000225662)
(0.0733023 -0.000297924 0.000124482)
(0.0822076 -0.000582304 1.69763e-05)
(0.080802 -0.000475916 0.000216504)
(0.072875 -0.000288546 0.000114205)
(0.0818976 -0.000573719 6.18187e-06)
(0.0805033 -0.000468244 0.000205546)
(0.0724485 -0.000282035 0.000103918)
(0.0815829 -0.000564974 -3.37283e-06)
(0.0801997 -0.000457585 0.000191411)
(0.0720207 -0.000286761 9.56713e-05)
(0.081268 -0.000564602 -1.16626e-05)
(0.0798977 -0.000455477 0.000181623)
(0.0809535 -0.000569062 -1.6606e-05)
(0.0795953 -0.000459343 0.000173033)
(0.0933929 -0.00098184 -5.77508e-05)
(0.0973602 -0.00111182 -0.000164714)
(0.0986978 -0.00113441 5.3512e-05)
(0.093155 -0.000940862 -8.13446e-05)
(0.097172 -0.00106458 -0.000203896)
(0.0985923 -0.00108558 3.64415e-05)
(0.0929412 -0.000909275 -0.000103532)
(0.0970078 -0.00102882 -0.000239409)
(0.0985166 -0.00104816 1.75631e-05)
(0.0927452 -0.000884643 -0.000123942)
(0.0968522 -0.00100287 -0.000269838)
(0.0984531 -0.00102137 -1.46447e-06)
(0.0925606 -0.000864726 -0.00014225)
(0.0967095 -0.000982171 -0.000294925)
(0.0984075 -0.00100199 -1.8033e-05)
(0.0923811 -0.000848739 -0.000158579)
(0.0965691 -0.000967489 -0.000314964)
(0.0983664 -0.000986657 -3.38113e-05)
(0.0922018 -0.00083627 -0.000172954)
(0.0964314 -0.000956238 -0.000330887)
(0.0983356 -0.000971342 -5.00033e-05)
(0.0920214 -0.000825808 -0.000185122)
(0.0962872 -0.000950099 -0.000344437)
(0.0983023 -0.000960446 -6.42537e-05)
(0.091841 -0.000821177 -0.000194341)
(0.0961434 -0.000941225 -0.000355489)
(0.0982757 -0.000951628 -7.62399e-05)
(0.0916534 -0.000818791 -0.000200127)
(0.0959936 -0.000939276 -0.000362234)
(0.0982447 -0.000952275 -8.38152e-05)
(0.0958371 -0.000929861 -0.000363708)
(0.0982086 -0.000948378 -8.90886e-05)
(0.101524 -0.00123736 -0.000291641)
(0.103071 -0.00127443 -0.000311905)
(0.106172 -0.0013546 -0.000193431)
(0.101415 -0.00119553 -0.000343877)
(0.103016 -0.0012434 -0.000370264)
(0.106204 -0.0013054 -0.00024017)
(0.101314 -0.0011649 -0.000389277)
(0.102962 -0.00122148 -0.000420646)
(0.106246 -0.0012675 -0.00028238)
(0.101218 -0.00114174 -0.000426367)
(0.102904 -0.00120542 -0.000462539)
(0.106292 -0.00124015 -0.000319051)
(0.101123 -0.00112483 -0.000455243)
(0.102843 -0.00119363 -0.000495672)
(0.106346 -0.00122118 -0.000348811)
(0.101028 -0.00111296 -0.000477229)
(0.102776 -0.00118539 -0.000521463)
(0.106399 -0.00120765 -0.000373193)
(0.100929 -0.00110685 -0.000493912)
(0.102704 -0.00117924 -0.000540692)
(0.106456 -0.00119779 -0.000393085)
(0.100826 -0.00110279 -0.000506162)
(0.102626 -0.00117746 -0.000554797)
(0.10651 -0.00119289 -0.000409526)
(0.100717 -0.00109723 -0.000514014)
(0.10254 -0.00117206 -0.000563052)
(0.106562 -0.00118647 -0.0004217)
(0.100602 -0.00108737 -0.000516827)
(0.102449 -0.00116456 -0.000565963)
(0.10661 -0.00118429 -0.000429258)
(0.10235 -0.00115341 -0.000566265)
(0.106651 -0.0011771 -0.000431615)
(0.104647 -0.0012762 -0.000399659)
(0.109101 -0.00133111 -0.000351347)
(0.104649 -0.00126635 -0.000455782)
(0.10924 -0.00131705 -0.000403441)
(0.10464 -0.00126006 -0.000502185)
(0.109372 -0.00130757 -0.000446913)
(0.104619 -0.0012563 -0.000539645)
(0.109495 -0.0013013 -0.000482671)
(0.104588 -0.0012541 -0.00056908)
(0.109611 -0.00129758 -0.000511916)
(0.104546 -0.00125265 -0.000591182)
(0.10972 -0.00129552 -0.00053545)
(0.104495 -0.00125167 -0.000606991)
(0.109823 -0.00129427 -0.000553759)
(0.104436 -0.00124875 -0.000616826)
(0.10992 -0.00129395 -0.000567616)
(0.104369 -0.00124112 -0.000620315)
(0.11001 -0.00129091 -0.00057598)
(0.104297 -0.00123276 -0.000620184)
(0.110097 -0.00128532 -0.00057883)
(0.110179 -0.00128091 -0.000579155)
(0.0574145 -0.000378104 0.000458224)
(0.0726892 -0.000491388 0.000419145)
(0.0626577 -0.000411785 0.000580825)
(0.0568001 -0.000362317 0.000430975)
(0.0722598 -0.000470566 0.000412695)
(0.0620132 -0.000418205 0.000577287)
(0.0562103 -0.000329375 0.000386972)
(0.0718512 -0.000444663 0.000392607)
(0.0613817 -0.000412155 0.000552847)
(0.0556474 -0.000302284 0.000344627)
(0.0714644 -0.000419556 0.00036579)
(0.0607719 -0.000399317 0.000517646)
(0.0551033 -0.000289658 0.000313907)
(0.0710935 -0.00040752 0.000343776)
(0.0601811 -0.000390052 0.000487366)
(0.0545733 -0.000283715 0.000291523)
(0.0707372 -0.000398602 0.00032434)
(0.0596111 -0.000384707 0.00046246)
(0.0540557 -0.000279346 0.000273279)
(0.070381 -0.000390948 0.000306823)
(0.059047 -0.000380202 0.000440449)
(0.0535493 -0.00027607 0.00025718)
(0.070036 -0.000384156 0.000290403)
(0.0585055 -0.000376094 0.000420284)
(0.0530547 -0.00027249 0.000242259)
(0.0696913 -0.000376522 0.000274086)
(0.0579669 -0.000373082 0.000401601)
(0.0525729 -0.000264886 0.000227262)
(0.0693551 -0.000373968 0.000260015)
(0.0574445 -0.000364474 0.000384151)
(0.0690265 -0.000366938 0.000244181)
(0.0569377 -0.000352698 0.000365962)
(0.0901591 -0.000628653 0.000387627)
(0.0969767 -0.000934425 0.000320846)
(0.0937077 -0.000666529 0.000520646)
(0.0899702 -0.00059261 0.000387763)
(0.096899 -0.000885004 0.000319003)
(0.0935773 -0.000622119 0.000536793)
(0.0897993 -0.000569173 0.000383135)
(0.0968457 -0.000848321 0.000310141)
(0.0934617 -0.000586996 0.000545248)
(0.0896395 -0.000557274 0.000377125)
(0.0968048 -0.000822 0.000297693)
(0.0933539 -0.000560721 0.000546794)
(0.0894849 -0.000551062 0.000369524)
(0.0967765 -0.00081018 0.000287962)
(0.0932525 -0.000545726 0.000544691)
(0.0893321 -0.000544905 0.000359523)
(0.09675 -0.000799643 0.000277277)
(0.0931519 -0.0005343 0.000537211)
(0.0891781 -0.000539271 0.000347988)
(0.0967327 -0.000789343 0.000266183)
(0.0930555 -0.000527448 0.000527467)
(0.0890223 -0.000529587 0.000333016)
(0.0967123 -0.000781069 0.000253832)
(0.092954 -0.000520394 0.000515019)
(0.0888673 -0.000524386 0.000318832)
(0.0966982 -0.000771474 0.000239144)
(0.0928575 -0.000508815 0.000499567)
(0.0887058 -0.000526691 0.000306952)
(0.096682 -0.000775056 0.000228845)
(0.0927595 -0.000507771 0.000486765)
(0.0966597 -0.0007785 0.000219263)
(0.0926568 -0.000507655 0.000470996)
(0.104521 -0.00116814 0.000190876)
(0.107723 -0.00127347 4.8306e-05)
(0.106997 -0.00112051 0.000341954)
(0.104594 -0.00111858 0.000180653)
(0.107847 -0.0012184 2.66048e-05)
(0.107129 -0.00106544 0.000347702)
(0.104685 -0.00108178 0.000166809)
(0.107988 -0.0011751 3.89699e-06)
(0.107279 -0.00102209 0.00034796)
(0.104789 -0.00105772 0.000152919)
(0.108138 -0.00114469 -1.80953e-05)
(0.107436 -0.000989413 0.00034385)
(0.104904 -0.0010411 0.000139907)
(0.1083 -0.00112689 -3.67046e-05)
(0.107605 -0.000968458 0.000338529)
(0.105028 -0.00102326 0.000125492)
(0.108464 -0.00111141 -5.43216e-05)
(0.107778 -0.000950674 0.000331038)
(0.105161 -0.00100654 0.000110379)
(0.10864 -0.00109515 -7.21315e-05)
(0.107963 -0.000932183 0.000320946)
(0.105301 -0.000996411 9.65429e-05)
(0.108818 -0.00108304 -8.87764e-05)
(0.108152 -0.000917862 0.000309943)
(0.105441 -0.000995198 8.53108e-05)
(0.109 -0.00107542 -0.000103343)
(0.108346 -0.00090841 0.000299201)
(0.10558 -0.000998986 7.65138e-05)
(0.109181 -0.00107871 -0.000113028)
(0.10854 -0.000908389 0.000289376)
(0.109356 -0.00108155 -0.000119661)
(0.108731 -0.000910812 0.000280649)
(0.111303 -0.00135509 -9.98259e-05)
(0.112545 -0.00135111 -0.000185448)
(0.11339 -0.00126171 5.14507e-05)
(0.111499 -0.00130674 -0.000134457)
(0.11278 -0.00131411 -0.000223225)
(0.113648 -0.00120952 3.05749e-05)
(0.111702 -0.00126954 -0.000166273)
(0.113018 -0.00128474 -0.000256529)
(0.113912 -0.00116652 1.07342e-05)
(0.111913 -0.00124456 -0.000194408)
(0.113258 -0.00126406 -0.000285618)
(0.11418 -0.00113437 -8.00371e-06)
(0.112129 -0.00122728 -0.000218701)
(0.113499 -0.00125085 -0.000310563)
(0.114454 -0.00111137 -2.55279e-05)
(0.11235 -0.00121352 -0.000239981)
(0.113742 -0.00124076 -0.00033219)
(0.114731 -0.00109261 -4.16939e-05)
(0.112573 -0.00120267 -0.000258819)
(0.113986 -0.0012327 -0.000351182)
(0.115012 -0.00107671 -5.67711e-05)
(0.112798 -0.00119433 -0.000274962)
(0.114229 -0.00122721 -0.000366883)
(0.115295 -0.00106439 -7.10297e-05)
(0.113021 -0.00119187 -0.000287247)
(0.114469 -0.00122325 -0.000378556)
(0.115577 -0.00105515 -8.36057e-05)
(0.113243 -0.00119388 -0.00029502)
(0.114709 -0.00122486 -0.000385887)
(0.115861 -0.00105402 -9.31049e-05)
(0.114943 -0.00122483 -0.000389873)
(0.11614 -0.00105375 -9.96471e-05)
(0.114082 -0.00130757 -0.000315415)
(0.116125 -0.00117611 -0.000200979)
(0.114361 -0.00129004 -0.000352118)
(0.116464 -0.00115104 -0.000227974)
(0.114636 -0.00127762 -0.000382809)
(0.116798 -0.00113197 -0.00025066)
(0.114908 -0.00126904 -0.000408688)
(0.11713 -0.00111739 -0.000269855)
(0.115178 -0.00126345 -0.000430695)
(0.117459 -0.00110663 -0.000286351)
(0.115444 -0.00125977 -0.000449343)
(0.117786 -0.00109844 -0.000300557)
(0.115708 -0.00125752 -0.000464793)
(0.118111 -0.00109194 -0.00031281)
(0.115968 -0.001256 -0.000476636)
(0.118433 -0.00108697 -0.000322963)
(0.116226 -0.00125517 -0.000484485)
(0.118752 -0.00108264 -0.000330446)
(0.116479 -0.00125443 -0.00048827)
(0.11907 -0.00108032 -0.000335243)
(0.119385 -0.00107829 -0.000337547)
(0.0679325 -0.000519109 0.000697177)
(0.0819557 -0.000597793 0.000668106)
(0.0718966 -0.000562592 0.00074093)
(0.0672699 -0.000527358 0.000701436)
(0.0815759 -0.000580128 0.000685848)
(0.0712473 -0.00057414 0.000766098)
(0.0666158 -0.000531008 0.000692018)
(0.081202 -0.000563457 0.000690322)
(0.0705912 -0.000578802 0.000779448)
(0.0659748 -0.000528587 0.000673213)
(0.0808362 -0.00054637 0.000683557)
(0.069936 -0.000577102 0.000781429)
(0.0653499 -0.000522945 0.000650549)
(0.0804802 -0.000530202 0.000670848)
(0.0692849 -0.00057316 0.000775016)
(0.0647414 -0.00051647 0.000626714)
(0.0801324 -0.000516956 0.000655449)
(0.0686409 -0.000568936 0.000763817)
(0.0641482 -0.000510462 0.000602943)
(0.0797954 -0.000506368 0.000638309)
(0.0680059 -0.000564149 0.000749488)
(0.0635683 -0.00050526 0.000580147)
(0.0794665 -0.000497923 0.000620466)
(0.0673822 -0.000560137 0.00073368)
(0.0630014 -0.000497563 0.000558297)
(0.0791453 -0.000490677 0.000602837)
(0.0667673 -0.000555562 0.00071682)
(0.0624462 -0.0004854 0.000536961)
(0.0788317 -0.00048215 0.000584727)
(0.066164 -0.000547931 0.000698726)
(0.0785228 -0.000472113 0.000565464)
(0.0655708 -0.000537329 0.000680009)
(0.0974719 -0.000688071 0.000673664)
(0.103317 -0.00090171 0.000602767)
(0.0996447 -0.000690423 0.000761193)
(0.0974223 -0.000647587 0.000698045)
(0.10339 -0.000855084 0.000629272)
(0.0996318 -0.000662557 0.00079942)
(0.0973758 -0.000613155 0.000712001)
(0.103468 -0.000815803 0.000647006)
(0.0996141 -0.000638117 0.000827765)
(0.0973307 -0.000585073 0.000717197)
(0.103551 -0.00078364 0.000656231)
(0.0995909 -0.000616516 0.000846402)
(0.0972883 -0.000563088 0.000715908)
(0.103638 -0.000758716 0.000659106)
(0.0995649 -0.000597873 0.000856801)
(0.0972484 -0.000547007 0.000710226)
(0.103728 -0.000739515 0.000657243)
(0.0995357 -0.000581781 0.000861016)
(0.0972111 -0.000534744 0.000701092)
(0.103824 -0.000724993 0.000652379)
(0.0995076 -0.000569044 0.000860727)
(0.0971761 -0.000523828 0.000689032)
(0.103921 -0.000712139 0.000643965)
(0.0994771 -0.000557833 0.000856227)
(0.0971414 -0.000515364 0.000675324)
(0.104023 -0.000700723 0.000632747)
(0.0994487 -0.000547548 0.000848523)
(0.0971071 -0.000509072 0.000659369)
(0.104125 -0.00069437 0.000620751)
(0.0994192 -0.000540917 0.000837896)
(0.104227 -0.000690969 0.000606843)
(0.0993888 -0.000533505 0.000822881)
(0.109804 -0.00103864 0.000498688)
(0.112612 -0.00110008 0.000331326)
(0.11115 -0.000960459 0.000626852)
(0.110016 -0.000990549 0.00051561)
(0.112879 -0.0010481 0.0003384)
(0.111397 -0.000921875 0.000653359)
(0.110236 -0.000951479 0.000526409)
(0.113151 -0.00100531 0.000342445)
(0.111646 -0.000889369 0.000673867)
(0.110462 -0.000921062 0.000531868)
(0.113428 -0.000971015 0.000343127)
(0.111896 -0.000862514 0.000688399)
(0.110695 -0.000897736 0.000533026)
(0.11371 -0.00094446 0.000340515)
(0.112149 -0.000841343 0.000697817)
(0.110934 -0.000878587 0.000530606)
(0.113996 -0.000922861 0.000335047)
(0.112404 -0.000823599 0.000703101)
(0.111178 -0.000861998 0.000525211)
(0.114287 -0.000904102 0.000327333)
(0.112662 -0.000807615 0.000705007)
(0.111426 -0.000848232 0.000517526)
(0.114581 -0.000888261 0.000318142)
(0.112922 -0.000793608 0.000703656)
(0.111676 -0.000839147 0.000508513)
(0.114876 -0.000876195 0.000308526)
(0.113183 -0.000782673 0.000699338)
(0.111929 -0.000836236 0.000499318)
(0.115174 -0.000870192 0.000299357)
(0.113445 -0.000776883 0.000693307)
(0.115471 -0.000868981 0.000291233)
(0.113708 -0.00077532 0.000685745)
(0.115879 -0.00112829 0.000180696)
(0.117051 -0.00109946 3.98069e-05)
(0.11688 -0.000997557 0.000322609)
(0.116209 -0.0010824 0.000175071)
(0.117414 -0.00106 3.02119e-05)
(0.117244 -0.000958892 0.000323643)
(0.116541 -0.0010448 0.000168929)
(0.117777 -0.00102745 2.16058e-05)
(0.117608 -0.000926083 0.000323903)
(0.116877 -0.00101458 0.00016139)
(0.118139 -0.00100128 1.33715e-05)
(0.117971 -0.000898931 0.000322783)
(0.117216 -0.000990134 0.000152341)
(0.118503 -0.000980478 4.85299e-06)
(0.118335 -0.000876719 0.000319703)
(0.117558 -0.000969719 0.000142371)
(0.118868 -0.000963516 -3.8286e-06)
(0.118701 -0.00085804 0.000315135)
(0.117902 -0.00095265 0.000131881)
(0.119233 -0.000949237 -1.25565e-05)
(0.119066 -0.000841892 0.000309395)
(0.118246 -0.000939133 0.000121434)
(0.119598 -0.000937571 -2.10445e-05)
(0.119432 -0.000828288 0.00030277)
(0.11859 -0.000930468 0.000112027)
(0.119961 -0.000928572 -2.86445e-05)
(0.119798 -0.000817734 0.00029568)
(0.118936 -0.000926221 0.000104088)
(0.120325 -0.000923877 -3.46227e-05)
(0.120163 -0.000811952 0.000289026)
(0.120688 -0.000920985 -3.93741e-05)
(0.120528 -0.00080849 0.00028245)
(0.118636 -0.00102824 -0.000117615)
(0.119555 -0.000864881 8.24152e-06)
(0.119033 -0.00100237 -0.000130494)
(0.119984 -0.000841513 3.69045e-07)
(0.119427 -0.000981437 -0.000141432)
(0.120409 -0.000821881 -6.3868e-06)
(0.119819 -0.000964732 -0.000150943)
(0.12083 -0.000805593 -1.23615e-05)
(0.12021 -0.000951392 -0.000159401)
(0.121249 -0.000792209 -1.77706e-05)
(0.120598 -0.000940517 -0.000167102)
(0.121665 -0.000781104 -2.28556e-05)
(0.120985 -0.000931555 -0.000174078)
(0.122078 -0.000771764 -2.77558e-05)
(0.12137 -0.000924212 -0.000180051)
(0.122489 -0.000764019 -3.23703e-05)
(0.121754 -0.000918812 -0.000184718)
(0.122899 -0.00075781 -3.6438e-05)
(0.122136 -0.000915061 -0.000187989)
(0.123306 -0.000753779 -3.97446e-05)
(0.123711 -0.000750461 -4.2277e-05)
(0.0754731 -0.000613013 0.000817573)
(0.0881252 -0.000623055 0.000817885)
(0.0777738 -0.000598651 0.000853506)
(0.0748346 -0.000628901 0.000849392)
(0.0878068 -0.000626154 0.000856515)
(0.0771511 -0.000625927 0.000889557)
(0.0741778 -0.000638176 0.000870883)
(0.08747 -0.00062615 0.00088589)
(0.0765017 -0.000645 0.000916315)
(0.0735096 -0.000641945 0.000883339)
(0.0871202 -0.000622529 0.000906267)
(0.0758335 -0.000656786 0.00093475)
(0.0728369 -0.000642306 0.000888163)
(0.0867619 -0.000616515 0.000918539)
(0.0751523 -0.000663147 0.00094586)
(0.0721649 -0.000640798 0.000886879)
(0.0863994 -0.000609579 0.000924133)
(0.074464 -0.000665818 0.000950866)
(0.0714968 -0.000638321 0.000881058)
(0.0860363 -0.0006026 0.000924294)
(0.073773 -0.000665637 0.000950853)
(0.0708351 -0.000634904 0.000871698)
(0.0856748 -0.000596087 0.000920633)
(0.0730831 -0.000663725 0.000946886)
(0.0701813 -0.000629601 0.000859315)
(0.0853165 -0.000589511 0.000913651)
(0.0723968 -0.000660099 0.000939603)
(0.0695358 -0.000622046 0.000844811)
(0.0849618 -0.000582662 0.0009037)
(0.0717153 -0.000654501 0.00092961)
(0.0846123 -0.000574344 0.000890387)
(0.0710408 -0.000647371 0.000917779)
(0.101924 -0.000664779 0.000892532)
(0.107066 -0.000778253 0.000849574)
(0.103146 -0.000604277 0.000973325)
(0.101944 -0.000654917 0.000934633)
(0.107218 -0.000763526 0.000890914)
(0.103191 -0.000616538 0.00101062)
(0.101951 -0.000644482 0.000967911)
(0.107361 -0.000749628 0.00092474)
(0.103217 -0.000624493 0.00104189)
(0.101948 -0.000632994 0.000992144)
(0.107495 -0.000735932 0.000950716)
(0.103228 -0.000628132 0.00106677)
(0.101936 -0.000621001 0.00100827)
(0.107623 -0.000722664 0.000969233)
(0.103226 -0.000627992 0.00108534)
(0.101919 -0.000609521 0.00101772)
(0.107748 -0.000710073 0.000981666)
(0.103214 -0.000625163 0.00109858)
(0.101898 -0.000599077 0.00102183)
(0.107869 -0.000698575 0.000989156)
(0.103194 -0.000620832 0.00110749)
(0.101875 -0.000589464 0.00102155)
(0.107989 -0.000688035 0.000992384)
(0.103168 -0.000615521 0.00111247)
(0.101851 -0.000580965 0.00101719)
(0.108108 -0.000678483 0.000991476)
(0.103137 -0.000609395 0.00111352)
(0.101827 -0.000572663 0.00100793)
(0.108226 -0.000671402 0.000987132)
(0.103103 -0.000603052 0.00111048)
(0.108345 -0.000664519 0.000977804)
(0.103067 -0.00059376 0.00110013)
(0.112808 -0.000840802 0.000786985)
(0.1153 -0.000838272 0.000615483)
(0.113406 -0.000710331 0.000915091)
(0.113093 -0.000819451 0.000816784)
(0.115642 -0.000813541 0.000635828)
(0.113707 -0.000706981 0.000938931)
(0.113373 -0.000800374 0.000840893)
(0.11598 -0.000791643 0.000652645)
(0.114001 -0.000702996 0.000959588)
(0.113651 -0.000783524 0.000859414)
(0.116315 -0.000772389 0.000665688)
(0.114289 -0.000698278 0.000976718)
(0.113927 -0.000768632 0.00087295)
(0.116648 -0.00075568 0.000674958)
(0.114573 -0.000693137 0.000990362)
(0.114202 -0.000755097 0.000882321)
(0.116979 -0.000740847 0.000680913)
(0.114853 -0.000687706 0.00100084)
(0.114477 -0.000742685 0.00088803)
(0.11731 -0.000727332 0.000684024)
(0.11513 -0.0006821 0.00100849)
(0.11475 -0.000731722 0.000890176)
(0.117639 -0.000715266 0.000684579)
(0.115406 -0.000676444 0.00101343)
(0.115024 -0.000723524 0.000889322)
(0.117968 -0.000705145 0.000682723)
(0.115679 -0.000671085 0.00101538)
(0.115298 -0.000718235 0.000885461)
(0.118296 -0.000698524 0.000679316)
(0.115951 -0.000667511 0.00101546)
(0.118624 -0.000693836 0.000673661)
(0.116222 -0.000663976 0.00101165)
(0.11829 -0.000822 0.000471192)
(0.119378 -0.000759833 0.000301119)
(0.118557 -0.000648239 0.000617293)
(0.118689 -0.000796891 0.000478291)
(0.119809 -0.000737322 0.00030448)
(0.11897 -0.000634842 0.000620285)
(0.119084 -0.000774898 0.000483738)
(0.120234 -0.000717488 0.00030703)
(0.119378 -0.00062268 0.000622944)
(0.119477 -0.000755881 0.000487322)
(0.120656 -0.000700262 0.000308653)
(0.119781 -0.000611743 0.000624972)
(0.119868 -0.000739431 0.000489011)
(0.121075 -0.000685467 0.00030924)
(0.120181 -0.000602011 0.000626105)
(0.120259 -0.000724963 0.000488949)
(0.121491 -0.000672638 0.000308798)
(0.120579 -0.000593278 0.000626215)
(0.120648 -0.000712231 0.000487309)
(0.121906 -0.000661381 0.000307391)
(0.120975 -0.000585335 0.000625239)
(0.121035 -0.000701434 0.000484295)
(0.122318 -0.000651694 0.000305132)
(0.121368 -0.000578234 0.000623195)
(0.121421 -0.000693284 0.000480339)
(0.122729 -0.000643808 0.000302233)
(0.12176 -0.000572171 0.000620202)
(0.121807 -0.000687546 0.000475514)
(0.123138 -0.000638466 0.000299148)
(0.12215 -0.000567825 0.000616897)
(0.123546 -0.000634328 0.000295462)
(0.122539 -0.000564044 0.000612441)
(0.120942 -0.000673341 0.000129671)
(0.12108 -0.000548342 -6.59095e-05)
(0.12108 -0.000475319 0.000269365)
(0.1214 -0.000656161 0.000128232)
(0.12155 -0.000536326 -6.46178e-05)
(0.121551 -0.000463821 0.000266135)
(0.121852 -0.000641108 0.000126696)
(0.122015 -0.000525669 -6.3586e-05)
(0.122015 -0.000453572 0.00026321)
(0.122301 -0.000628066 0.000125037)
(0.122474 -0.000516309 -6.28214e-05)
(0.122475 -0.000444557 0.000260528)
(0.122746 -0.000616813 0.000123196)
(0.122929 -0.000508128 -6.23379e-05)
(0.12293 -0.000436693 0.000258004)
(0.123187 -0.000607089 0.000121111)
(0.123381 -0.000500949 -6.21648e-05)
(0.123381 -0.000429846 0.000255535)
(0.123626 -0.000598751 0.000118788)
(0.123828 -0.000494607 -6.23104e-05)
(0.123829 -0.000423894 0.000253037)
(0.124063 -0.00059182 0.000116339)
(0.124273 -0.000489061 -6.27391e-05)
(0.124273 -0.000418814 0.000250511)
(0.124496 -0.000586521 0.000113952)
(0.124715 -0.000484373 -6.33546e-05)
(0.124715 -0.00041467 0.000248041)
(0.124928 -0.000582525 0.000111641)
(0.125155 -0.000480843 -6.40855e-05)
(0.125155 -0.000411689 0.000245829)
(0.125593 -0.000477703 -6.48072e-05)
(0.125592 -0.000409162 0.000243524)
(0.121692 -0.000410446 -0.000261505)
(0.121818 -0.000209231 -0.000133164)
(0.12217 -0.000405159 -0.000257499)
(0.122308 -0.000206293 -0.000130949)
(0.122641 -0.000400377 -0.000253951)
(0.122791 -0.000203586 -0.000128953)
(0.123107 -0.000396039 -0.00025085)
(0.123268 -0.000201088 -0.000127182)
(0.123569 -0.000392071 -0.000248179)
(0.12374 -0.00019878 -0.000125634)
(0.124026 -0.000388389 -0.00024592)
(0.124208 -0.000196627 -0.000124307)
(0.12448 -0.000384936 -0.000244043)
(0.124672 -0.000194598 -0.000123189)
(0.124931 -0.000381718 -0.000242519)
(0.125132 -0.000192692 -0.000122269)
(0.125379 -0.00037888 -0.000241358)
(0.125588 -0.000190943 -0.000121532)
(0.125824 -0.000376287 -0.000240371)
(0.126042 -0.000189485 -0.000121002)
(0.126494 -0.000188065 -0.000120459)
(0.0794957 -0.000609587 0.000927846)
(0.0914525 -0.000552736 0.000972363)
(0.0798777 -0.000559866 0.000966902)
(0.0788632 -0.000640561 0.000958624)
(0.0911573 -0.000586243 0.00100017)
(0.0792218 -0.000600072 0.000989241)
(0.0782026 -0.000662375 0.000982298)
(0.0908348 -0.000610778 0.00102325)
(0.0785408 -0.000630053 0.00100821)
(0.0775206 -0.000676859 0.000999446)
(0.0904904 -0.000627632 0.0010417)
(0.0778403 -0.000651737 0.0010233)
(0.0768234 -0.000685745 0.00101074)
(0.0901286 -0.000638312 0.00105558)
(0.077125 -0.000666675 0.00103412)
(0.0761161 -0.000690035 0.00101697)
(0.0897537 -0.000644103 0.00106543)
(0.0763986 -0.000676182 0.00104075)
(0.0754029 -0.000690667 0.00101877)
(0.0893692 -0.000645783 0.00107192)
(0.0756652 -0.000680923 0.00104329)
(0.0746876 -0.000688653 0.00101691)
(0.0889784 -0.000644599 0.00107505)
(0.0749275 -0.000682236 0.00104242)
(0.0739732 -0.000684769 0.00101209)