/*--------------------------------*- C++ -*----------------------------------*\
| =========                 |                                                 |
| \\      /  F ield         | OpenFOAM: The Open Source CFD Toolbox           |
|  \\    /   O peration     | Version:  2212                                  |
|   \\  /    A nd           | Website:  www.openfoam.com                      |
|    \\/     M anipulation  |                                                 |
\*---------------------------------------------------------------------------*/
FoamFile
{
    version     2.0;
    format      ascii;
    arch        "LSB;label=32;scalar=64";
    class       volScalarField;
    location    "1.85";
    object      k;
}
// * * * * * * * * * * * * * * * * * * * * * * * * * * * * * * * * * * * * * //

dimensions      [0 2 -2 0 0 0 0];

internalField   nonuniform List<scalar> 
678
(
0.00183955
0.0018173
0.00179512
0.00177315
0.00175091
0.0015756
0.00155469
0.00153436
0.00151465
0.00149532
0.00154382
0.00152083
0.00149825
0.0014767
0.00145575
0.00149635
0.00147168
0.00144703
0.00142429
0.00140191
0.00138123
0.00147092
0.00144582
0.00142079
0.0013979
0.00137466
0.00135345
0.00144822
0.00142421
0.00140067
0.00137799
0.00135217
0.00133301
0.00130925
0.00142909
0.00140517
0.00138139
0.00135901
0.00133503
0.00131536
0.0012948
0.00141536
0.0013913
0.00136899
0.00134849
0.00132799
0.00130781
0.00128745
0.00142297
0.00140186
0.00138126
0.00136158
0.00134225
0.00132318
0.00130303
0.00148978
0.00147002
0.00145091
0.00143236
0.00141395
0.00139572
0.00183956
0.00181739
0.00179531
0.0017735
0.00175159
0.00173001
0.00149
0.00147025
0.0014511
0.00143247
0.00141368
0.00139413
0.000979317
0.000952153
0.000926081
0.000902811
0.000880568
0.00118855
0.00114928
0.00110912
0.00107582
0.00104219
0.0010112
0.00131958
0.00127588
0.00123145
0.00119297
0.00115385
0.00111858
0.00138383
0.00133833
0.00129303
0.0012516
0.00120947
0.0011707
0.00141083
0.00136549
0.00132267
0.00127706
0.00123033
0.00118831
0.00138552
0.00133595
0.00128629
0.00124131
0.00119586
0.00115461
0.00128024
0.00123073
0.00118023
0.00113724
0.00109359
0.00105435
0.00101421
0.00109828
0.00105836
0.00101731
0.000984395
0.000950594
0.000920287
0.000884037
0.000978802
0.00095174
0.000925831
0.000902823
0.000880797
0.000859584
0.000838096
0.00157585
0.00155503
0.0015348
0.0015152
0.00149603
0.00147734
0.00142348
0.00140247
0.00138198
0.00136236
0.00134307
0.0013238
0.00130311
0.00109927
0.00105972
0.00101904
0.000986302
0.000953205
0.000921223
0.00134139
0.00128842
0.00123542
0.00118883
0.00114228
0.00110013
0.00153301
0.00147215
0.00141286
0.00135738
0.00130334
0.00125378
0.00165101
0.00158506
0.00152196
0.001462
0.00140409
0.00134983
0.00170089
0.00163293
0.00156811
0.00150612
0.00144633
0.00138956
0.00167288
0.00160512
0.00154003
0.00147798
0.00141816
0.00136143
0.00154587
0.00148223
0.00141969
0.0013618
0.00130538
0.00125336
0.0013406
0.00128745
0.0012341
0.00118759
0.00114094
0.00109905
0.00118823
0.00114914
0.00110915
0.00107609
0.0010425
0.00101234
0.000981197
0.00154433
0.00152141
0.00149893
0.00147748
0.00145675
0.00143669
0.00141647
0.00139247
0.00137023
0.00134982
0.00132947
0.00130928
0.00128882
0.00128241
0.00123352
0.00118382
0.00114107
0.00109813
0.00105853
0.00101729
0.00154749
0.0014842
0.00142268
0.00136431
0.00130799
0.00125541
0.00177436
0.00170121
0.00163154
0.001565
0.00150242
0.00144238
0.00191811
0.00183987
0.00176526
0.00169399
0.0016269
0.00156257
0.00197146
0.00189127
0.00181486
0.00174182
0.0016735
0.00160705
0.00192642
0.00184779
0.00177271
0.00170116
0.00163407
0.00177422
0.00170105
0.0016313
0.00156475
0.0015022
0.00144175
0.0015336
0.00147272
0.00141336
0.00135781
0.00130432
0.00125381
0.0013207
0.00127691
0.00123253
0.00119408
0.00115571
0.00111925
0.00149717
0.00147249
0.00144792
0.0014252
0.00140294
0.00138217
0.00143037
0.00140641
0.00138357
0.00135934
0.00133802
0.00131614
0.00138833
0.00133903
0.00129042
0.00124515
0.00120047
0.00115844
0.00167532
0.00160772
0.00154283
0.0014807
0.00142134
0.00192758
0.001849
0.00177388
0.00170266
0.00163528
0.00208998
0.00200555
0.00192461
0.00184773
0.00177484
0.00214712
0.00206046
0.00197758
0.00189876
0.00182431
0.00208959
0.00200516
0.00192427
0.00184728
0.00177473
0.00191857
0.00184039
0.00176579
0.00169477
0.0016281
0.00165232
0.00158636
0.00152337
0.00146319
0.00140612
0.001386
0.00133947
0.00129471
0.00125272
0.00121182
0.00147185
0.00144673
0.00142175
0.00139885
0.00137571
0.00135379
0.00144972
0.00142573
0.0014024
0.00137962
0.00135425
0.00133474
0.00141434
0.00136867
0.001326
0.00127941
0.00123478
0.00119127
0.0017035
0.00163544
0.00157061
0.00150877
0.00197322
0.00189289
0.00181631
0.00174433
0.00214786
0.00206102
0.00197813
0.00189978
0.00220859
0.00211954
0.0020344
0.00195367
0.00187723
0.00214718
0.0020605
0.00197766
0.00189889
0.00182456
0.00197198
0.0018919
0.00181549
0.00174288
0.00167461
0.00170212
0.00163425
0.00156959
0.0015075
0.00144832
0.00141282
0.00136736
0.00132458
0.00127822
0.00123351
0.001449
0.00142502
0.00140156
0.00137893
0.00135307
0.00149836
0.00147264
0.00144698
0.00142329
0.00139908
0.00137676
0.00143572
0.00138733
0.00134002
0.00129703
0.00125374
0.0012137
0.00172239
0.00165328
0.00158731
0.00152454
0.0014643
0.00140706
0.00200092
0.00191919
0.00184134
0.00176702
0.00169675
0.00162968
0.00217903
0.00208998
0.00200544
0.00192483
0.00184847
0.00177589
0.00214743
0.00206058
0.00197774
0.00189909
0.00182488
0.00208966
0.00200524
0.0019244
0.00184752
0.0017751
0.00192651
0.00184803
0.00177307
0.00170179
0.00163489
0.00167337
0.00160576
0.00154101
0.00147889
0.00142003
0.00138686
0.00133742
0.00128852
0.0012431
0.00119934
0.00142967
0.00140581
0.00138225
0.00135996
0.00133589
0.00152293
0.00149774
0.00147281
0.00144901
0.00142532
0.00140414
0.00136647
0.00132029
0.0012768
0.00123404
0.00119515
0.00115835
0.001598
0.00153419
0.00147269
0.00141465
0.00135844
0.00130705
0.0018506
0.00177477
0.00170233
0.00163327
0.00156754
0.00150576
0.00200899
0.00192697
0.00184898
0.00177455
0.0017038
0.00163715
0.00197232
0.00189262
0.00181637
0.00174389
0.00167581
0.00191863
0.00184058
0.00176611
0.0016953
0.00162888
0.00177398
0.00170103
0.00163147
0.00156523
0.00150329
0.00154588
0.00148241
0.0014205
0.00136208
0.00130746
0.00128097
0.00123183
0.00118195
0.00113867
0.00109742
0.00141585
0.00139191
0.00136979
0.00134937
0.00132886
0.00156848
0.00154499
0.00152194
0.00149966
0.00147814
0.00145752
0.00123022
0.00118968
0.00114875
0.00111336
0.0010777
0.00104695
0.00139784
0.00134271
0.00128752
0.00123886
0.00119007
0.00114671
0.00161342
0.0015477
0.00148358
0.00142354
0.001365
0.00131139
0.00174467
0.00167419
0.00160689
0.00154272
0.001481
0.00142292
0.00170256
0.0016348
0.00157034
0.00150858
0.00144984
0.00165264
0.00158679
0.00152399
0.00146403
0.00140732
0.00153357
0.00147285
0.00141395
0.00135819
0.00130596
0.00134108
0.00128774
0.00123536
0.00118784
0.00114359
0.00109911
0.00105948
0.00101901
0.000985628
0.000954399
0.00142347
0.00140249
0.00138208
0.00136249
0.00134333
0.00159802
0.00157675
0.00155602
0.00153585
0.00151619
0.00149707
0.0010084
0.000980278
0.000953279
0.000928864
0.000905221
0.000883514
0.00114161
0.00110072
0.00105871
0.00102428
0.000988593
0.000958188
0.00133368
0.00128363
0.00123298
0.0011884
0.00114341
0.00110344
0.00143938
0.00138821
0.00133899
0.00129148
0.00124687
0.001204
0.00141343
0.00136775
0.0013254
0.00128017
0.00123603
0.00138644
0.00134009
0.00129556
0.00125408
0.0012137
0.00132111
0.00127755
0.00123372
0.00119484
0.00115789
0.0011893
0.00114924
0.00111197
0.00107593
0.00104532
0.00097958
0.00095242
0.000927177
0.000903722
0.000882327
0.00149029
0.00147065
0.00145171
0.00143322
0.00141489
0.00186431
0.00184155
0.00181901
0.001797
0.00177476
0.00175338
0.00151141
0.00149125
0.0014717
0.00145281
0.00143398
0.0014156
0.00144632
0.00142463
0.0014036
0.00138351
0.00144284
0.00141724
0.00139332
0.00137147
0.00135083
0.00145599
0.001431
0.0014071
0.00138381
0.00136145
0.00144993
0.00142593
0.00140314
0.00137877
0.00135768
0.00147248
0.00144739
0.00142257
0.00139958
0.00137739
0.00149757
0.00147294
0.00144865
0.0014258
0.00140412
0.00154472
0.00152185
0.0014996
0.00147816
0.00145759
0.00157633
0.00155557
0.00153551
0.00151597
0.00149697
0.00184034
0.00181822
0.00179641
0.00177444
0.00175289
)
;

boundaryField
{
    inlet
    {
        type            fixedValue;
        value           nonuniform List<scalar> 0();
    }
    ami1
    {
        type            cyclicAMI;
        value           nonuniform List<scalar> 0();
    }
    walls
    {
        type            kqRWallFunction;
        value           nonuniform List<scalar> 
250
(
0.00183955
0.0015756
0.00154382
0.00149635
0.00147092
0.00144822
0.00142909
0.00141536
0.00142297
0.00148978
0.00183956
0.0018173
0.00155469
0.00152083
0.00147168
0.00144582
0.00142421
0.00140517
0.0013913
0.00140186
0.00147002
0.00181739
0.00179512
0.00153436
0.00149825
0.00144703
0.00142079
0.00140067
0.00138139
0.00136899
0.00138126
0.00145091
0.00179531
0.00177315
0.00151465
0.0014767
0.00142429
0.0013979
0.00137799
0.00135901
0.00134849
0.00136158
0.00143236
0.0017735
0.00175091
0.00149532
0.00145575
0.00140191
0.00137466
0.00135217
0.00133503
0.00132799
0.00134225
0.00141395
0.00175159
0.00138123
0.00135345
0.00133301
0.00131536
0.00130781
0.00132318
0.00139572
0.00173001
0.00130925
0.0012948
0.00128745
0.00130303
0.00183956
0.00157585
0.00154433
0.00149717
0.00147185
0.001449
0.00142967
0.00141585
0.00142347
0.00149029
0.00184034
0.00181739
0.00155503
0.00152141
0.00147249
0.00144673
0.00142502
0.00140581
0.00139191
0.00140249
0.00147065
0.00181822
0.00179531
0.0015348
0.00149893
0.00144792
0.00142175
0.00140156
0.00138225
0.00136979
0.00138208
0.00145171
0.00179641
0.0017735
0.0015152
0.00147748
0.0014252
0.00139885
0.00137893
0.00135996
0.00134937
0.00136249
0.00143322
0.00177444
0.00175159
0.00149603
0.00145675
0.00140294
0.00137571
0.00135307
0.00133589
0.00132886
0.00134333
0.00141489
0.00175289
0.00173001
0.00147734
0.00143669
0.00138217
0.00135379
0.00186431
0.00151141
0.00144632
0.00144284
0.00145599
0.00184155
0.00149125
0.00142463
0.00141724
0.001431
0.00144993
0.00147248
0.00149757
0.00154472
0.00157633
0.00184034
0.00181901
0.0014717
0.0014036
0.00139332
0.0014071
0.00142593
0.00144739
0.00147294
0.00152185
0.00155557
0.00181822
0.001797
0.00145281
0.00138351
0.00137147
0.00138381
0.00140314
0.00142257
0.00144865
0.0014996
0.00153551
0.00179641
0.00177476
0.00143398
0.00135083
0.00136145
0.00137877
0.00139958
0.0014258
0.00147816
0.00151597
0.00177444
0.00175338
0.0014156
0.00135768
0.00137739
0.00140412
0.00145759
0.00149697
0.00175289
0.00149836
0.00152293
0.00156848
0.00159802
0.00186431
0.00183955
0.00149
0.00142348
0.00141647
0.00143037
0.00144972
0.00147264
0.00149774
0.00154499
0.00157675
0.00184155
0.0018173
0.00147025
0.00140247
0.00139247
0.00140641
0.00142573
0.00144698
0.00147281
0.00152194
0.00155602
0.00181901
0.00179512
0.0014511
0.00138198
0.00137023
0.00138357
0.0014024
0.00142329
0.00144901
0.00149966
0.00153585
0.001797
0.00177315
0.00143247
0.00136236
0.00134982
0.00135934
0.00137962
0.00139908
0.00142532
0.00147814
0.00151619
0.00177476
0.00175091
0.00141368
0.00134307
0.00132947
0.00133802
0.00135425
0.00137676
0.00140414
0.00145752
0.00149707
0.00175338
0.00139413
0.0013238
0.00130928
0.00131614
0.00133474
0.00130311
0.00128882
)
;
    }
    ami2
    {
        type            cyclicAMI;
        value           nonuniform List<scalar> 0();
    }
    outlet
    {
        type            zeroGradient;
    }
    procBoundary5to6
    {
        type            processor;
        value           nonuniform List<scalar> 
177
(
0.00172819
0.00172819
0.0014759
0.00143531
0.00143531
0.00143531
0.00136033
0.00133142
0.00133142
0.0012901
0.00114376
0.00127478
0.00110982
0.00126643
0.00128259
0.001376
0.001376
0.001376
0.00170907
0.00137559
0.000854394
0.00137559
0.000854394
0.000854394
0.000854394
0.000976313
0.00108019
0.00112922
0.00114376
0.00110982
0.00110982
0.00096778
0.00119971
0.000841829
0.00105435
0.000810941
0.001458
0.001458
0.00128271
0.000880008
0.000880008
0.000880008
0.00105511
0.00120287
0.00129472
0.00133209
0.00130396
0.00156725
0.00119971
0.00105435
0.00105435
0.00094468
0.00141673
0.00108028
0.00141673
0.00126774
0.0012962
0.000969132
0.00120126
0.00111331
0.00120126
0.00136145
0.00138184
0.00156814
0.00149813
0.0017032
0.00154091
0.00156725
0.00175141
0.00156725
0.00156725
0.00138111
0.00156174
0.00120239
0.00134863
0.00108028
0.00116944
0.00136121
0.0012962
0.00111331
0.00136145
0.00136145
0.00144671
0.00156814
0.00167364
0.0017032
0.00182377
0.00175141
0.0017035
0.00156174
0.00134863
0.00116944
0.00116944
0.00133238
0.00133494
0.00131011
0.00135445
0.00144671
0.00114571
0.00138677
0.00117144
0.00144671
0.00144671
0.00167364
0.00167364
0.00182377
0.00182377
0.00182377
0.00180251
0.00175178
0.00160686
0.0013887
0.00118747
0.00133494
0.00135445
0.00117144
0.0013493
0.00156278
0.00170453
0.00175218
0.00170399
0.00156823
0.00136065
0.00115372
0.00131666
0.00138225
0.00111937
0.00125458
0.00144374
0.00157074
0.00160823
0.00156272
0.00144108
0.00125184
0.00105345
0.00130798
0.00143729
0.00101292
0.00110113
0.00125656
0.0013643
0.0013906
0.00135013
0.00125299
0.00109766
0.000919534
0.00132371
0.00147793
0.000858093
0.00136317
0.00092314
0.00134398
0.00105998
0.00133006
0.0011589
0.00133736
0.00119026
0.00117164
0.00111905
0.00101167
0.000857339
0.00139596
0.00173217
0.00136317
0.00139678
0.00134398
0.00136317
0.00136317
0.00133006
0.00133736
0.00133736
0.0013315
0.00135489
0.00138297
0.00143753
0.0014779
0.00173162
)
;
    }
    procBoundary5to7
    {
        type            processor;
        value           nonuniform List<scalar> 
131
(
0.00186322
0.00159728
0.00156765
0.00152197
0.00149719
0.00147403
0.00145468
0.00144121
0.00144511
0.00151048
0.00186319
0.00151071
0.00100638
0.00122851
0.0013642
0.00143259
0.00145787
0.00143752
0.00133105
0.0011395
0.00100571
0.00159747
0.00144553
0.00114017
0.00139642
0.00159605
0.00172022
0.00177197
0.00174392
0.00161207
0.00139596
0.00122821
0.00156807
0.00144226
0.00133328
0.00161286
0.00184976
0.00199934
0.00205472
0.00200797
0.00184971
0.00159666
0.00136519
0.00152268
0.00145587
0.00143993
0.00174579
0.00200906
0.00217833
0.00223784
0.0021779
0.00199977
0.00172146
0.00143441
0.00149803
0.00147545
0.00147545
0.00146113
0.00146113
0.00177479
0.00177479
0.00205661
0.00205661
0.00223876
0.00223876
0.0023019
0.00223784
0.00205515
0.00177306
0.00145957
0.00147475
0.00152624
0.00148718
0.00179509
0.00208652
0.00227249
0.00223833
0.00223833
0.00217793
0.00200793
0.00174421
0.00143842
0.00145517
0.00154987
0.00141251
0.00166458
0.00193009
0.00209493
0.0020557
0.0020557
0.0019997
0.00184932
0.00161189
0.00133162
0.00144161
0.00159299
0.00127079
0.00145513
0.00168232
0.001819
0.00177379
0.00177379
0.00172177
0.00159645
0.00139633
0.00114031
0.00144554
0.00162006
0.00103655
0.00118407
0.00138547
0.00149356
0.00146064
0.00146064
0.00143485
0.00136555
0.00122922
0.00100658
0.00151098
0.00188822
0.00153252
0.00146923
0.0014688
0.00148244
0.0014756
0.0014756
0.00149866
0.00152302
0.00156839
0.0015979
0.00186384
)
;
    }
}


// ************************************************************************* //
