/*--------------------------------*- C++ -*----------------------------------*\
| =========                 |                                                 |
| \\      /  F ield         | OpenFOAM: The Open Source CFD Toolbox           |
|  \\    /   O peration     | Version:  2212                                  |
|   \\  /    A nd           | Website:  www.openfoam.com                      |
|    \\/     M anipulation  |                                                 |
\*---------------------------------------------------------------------------*/
FoamFile
{
    version     2.0;
    format      ascii;
    arch        "LSB;label=32;scalar=64";
    class       volScalarField;
    location    "1.85";
    object      k;
}
// * * * * * * * * * * * * * * * * * * * * * * * * * * * * * * * * * * * * * //

dimensions      [0 2 -2 0 0 0 0];

internalField   nonuniform List<scalar> 
682
(
0.00222837
0.00214947
0.00207709
0.00201069
0.00194962
0.0018939
0.00184232
0.00179444
0.00175019
0.00170888
0.00167134
0.00217918
0.00210311
0.0020333
0.00196913
0.00191009
0.00185585
0.0018062
0.00176063
0.00171861
0.0016795
0.00164241
0.00211254
0.00204223
0.00197776
0.00191856
0.00186442
0.00181479
0.00176902
0.00172678
0.00168827
0.00165133
0.00161486
0.00211848
0.00205343
0.00199301
0.0019382
0.00188541
0.00183285
0.00178767
0.00174565
0.00170729
0.00167081
0.00163694
0.00160478
0.00211019
0.00205809
0.00200154
0.00195098
0.00190391
0.00185955
0.00181847
0.00177999
0.00174444
0.00171074
0.00167953
0.00165101
0.00243946
0.00239154
0.00234415
0.00229979
0.0022577
0.00221834
0.00218045
0.0021449
0.00211102
0.00207821
0.00204666
0.00201711
0.00299398
0.0028273
0.0026755
0.00253696
0.00241018
0.00229393
0.00218707
0.00208848
0.00199768
0.00191286
0.00183478
0.00296799
0.00280396
0.00265421
0.0025173
0.0023917
0.00227633
0.00217005
0.00207192
0.00198126
0.00189653
0.00181929
0.00279907
0.00264385
0.00250149
0.00237122
0.00225085
0.00214069
0.00203864
0.00194461
0.00185731
0.00177523
0.00170082
0.00260235
0.00244893
0.00230746
0.00217696
0.00206005
0.00194679
0.0018509
0.00175558
0.00167378
0.00159236
0.00152027
0.00145148
0.00208246
0.00196748
0.0018543
0.001757
0.00166515
0.00158406
0.00150899
0.00144182
0.00138045
0.00131876
0.00126145
0.00121397
0.00219009
0.00213493
0.00208282
0.00203375
0.00198752
0.00194535
0.00190583
0.00186941
0.00183479
0.00180209
0.00177068
0.00174155
0.00390612
0.00367601
0.00346621
0.0032744
0.00309856
0.00293698
0.00278817
0.00265077
0.00252372
0.00240557
0.00229637
0.00383132
0.00360718
0.00340261
0.00321543
0.00304369
0.00288578
0.00274027
0.00260585
0.00248147
0.00236577
0.00225891
0.00355499
0.00334779
0.00315834
0.00298473
0.00282514
0.00267844
0.00254323
0.00241815
0.00230227
0.00219422
0.00209435
0.00327184
0.00307571
0.00289568
0.00273139
0.00257997
0.00244174
0.0023149
0.00219804
0.00208806
0.00198836
0.00189319
0.00180848
0.00258595
0.00244744
0.00231373
0.00219895
0.00208691
0.00199106
0.00189735
0.00181697
0.00173579
0.00166582
0.0015945
0.00153298
0.00224712
0.00218276
0.00212277
0.0020647
0.00201221
0.00196493
0.00192135
0.00188034
0.00184069
0.0018043
0.00176695
0.00173218
0.00459857
0.00432424
0.00407414
0.00384546
0.0036358
0.00344309
0.00326553
0.00310155
0.00294981
0.00280895
0.00267829
0.00448409
0.00421742
0.00397421
0.0037518
0.00354783
0.00336033
0.00318755
0.00302796
0.00288024
0.00274308
0.00261585
0.00412206
0.00387807
0.00365539
0.00345159
0.00326455
0.00309251
0.00293394
0.00278743
0.0026518
0.00252571
0.00240884
0.00375264
0.00352565
0.00331877
0.00312985
0.00295677
0.00279791
0.00265173
0.00251732
0.00239274
0.00227777
0.00217009
0.00207172
0.00290425
0.00274009
0.00259066
0.00245472
0.00233046
0.00221705
0.00211224
0.00201771
0.00192679
0.00184818
0.00176989
0.00170086
0.00230351
0.00222535
0.00215433
0.00208943
0.00203019
0.00197532
0.00192624
0.00187554
0.00182783
0.00178605
0.00174583
0.00170802
0.0048923
0.00459955
0.00433262
0.00408853
0.00386473
0.00365902
0.00346948
0.00329444
0.00313244
0.00298212
0.00284263
0.0044741
0.00420741
0.0039642
0.00374179
0.00353785
0.00335037
0.00317763
0.00301809
0.00287047
0.00273337
0.00260616
0.00404751
0.00380099
0.00357677
0.00337226
0.00318522
0.00301372
0.00285609
0.00271095
0.0025769
0.00245316
0.00233712
0.00222967
0.00309442
0.00291634
0.00275452
0.00260726
0.00247293
0.00235014
0.00223751
0.00213426
0.00203856
0.00195199
0.00186398
0.00178278
0.00233217
0.00224747
0.0021702
0.00210006
0.00203562
0.001976
0.00192063
0.00186952
0.00182141
0.00177939
0.00173475
0.00169279
0.00503282
0.00473128
0.00445631
0.00420487
0.00397435
0.00376247
0.00356725
0.00338699
0.00322018
0.00306542
0.00292183
0.00459858
0.00432419
0.004074
0.00384524
0.00363552
0.00344277
0.00326519
0.00310123
0.00294952
0.00280874
0.00267817
0.00415985
0.00390672
0.00367655
0.00346665
0.00327472
0.00309879
0.00293714
0.00278829
0.00265088
0.00252387
0.00240582
0.00229672
0.00317946
0.00299582
0.0028289
0.0026769
0.00253817
0.00241126
0.0022949
0.002188
0.00208941
0.00199866
0.00191395
0.00183608
0.00231555
0.00222929
0.00215033
0.00207787
0.00201139
0.00195025
0.00189449
0.00184287
0.00179497
0.00175071
0.00170944
0.00167179
0.00489225
0.0045995
0.00433254
0.00408842
0.0038646
0.00365887
0.00346931
0.00329426
0.00313226
0.00298195
0.00284247
0.00448373
0.00421704
0.00397379
0.00375132
0.0035473
0.00335975
0.00318695
0.00302735
0.00287964
0.00274251
0.00261532
0.00407773
0.00383143
0.00360721
0.00340252
0.00321521
0.00304335
0.00288534
0.00273976
0.00260531
0.00248091
0.00236525
0.00225844
0.00314966
0.00296949
0.00280531
0.00265536
0.00251825
0.00239245
0.00227692
0.0021705
0.0020723
0.00198156
0.00189686
0.00181962
0.00226309
0.00218003
0.00210393
0.00203406
0.00196981
0.00191069
0.00185639
0.00180669
0.00176107
0.00171903
0.00167987
0.00164273
0.00447422
0.00420747
0.00396424
0.00374182
0.00353787
0.00335038
0.00317762
0.00301805
0.00287041
0.00273327
0.00260602
0.00412162
0.00387754
0.00365476
0.0034509
0.00326381
0.00309175
0.00293315
0.00278665
0.00265102
0.00252494
0.00240808
0.00378196
0.0035546
0.00334727
0.00315758
0.00298387
0.00282412
0.00267739
0.00254207
0.00241709
0.00230108
0.00219317
0.00209335
0.0029696
0.00279974
0.00264445
0.0025017
0.00237131
0.00225072
0.00214052
0.0020383
0.0019444
0.00185663
0.00177505
0.00170045
0.00218998
0.00211312
0.00204277
0.00197824
0.00191893
0.00186475
0.00181505
0.00176922
0.00172695
0.00168842
0.00165137
0.00161488
0.0038014
0.00357704
0.00337247
0.00318543
0.00301394
0.00285633
0.00271118
0.0025771
0.00245334
0.0023372
0.00222967
0.00352548
0.00331842
0.00312925
0.00295614
0.00279715
0.00265107
0.00251658
0.00239215
0.00227714
0.00216943
0.00207106
0.00327168
0.00307463
0.00289501
0.0027296
0.00257897
0.0024395
0.00231369
0.00219565
0.00208786
0.0019855
0.0018932
0.00180685
0.00260206
0.00244706
0.00230738
0.00217439
0.00205928
0.0019453
0.00185006
0.00175432
0.001673
0.00159058
0.00152002
0.00145043
0.00211817
0.00205326
0.00199291
0.00193829
0.00188507
0.00183261
0.00178754
0.0017455
0.0017072
0.00167058
0.0016369
0.00160464
0.0029164
0.00275472
0.00260756
0.00247337
0.00235064
0.00223811
0.00213485
0.00203916
0.00195248
0.00186424
0.00178286
0.0027397
0.00259043
0.00245411
0.00233013
0.00221631
0.00211232
0.00201718
0.00192718
0.00184795
0.00176962
0.00170051
0.00258951
0.00244426
0.00231658
0.00219335
0.00208864
0.0019862
0.00189894
0.0018131
0.00173785
0.00166276
0.00159567
0.00153169
0.00208584
0.00196318
0.00185678
0.00175301
0.00166643
0.00158105
0.00150961
0.00143979
0.00137992
0.00131708
0.00126146
0.00121383
0.00211021
0.0020575
0.00200158
0.00195026
0.00190391
0.00185894
0.00181832
0.00177954
0.00174414
0.00171042
0.00167941
0.00165098
0.0022474
0.00217024
0.00210018
0.00203588
0.00197637
0.0019211
0.00187004
0.00182197
0.00177992
0.00173525
0.00169322
0.00222492
0.00215377
0.002089
0.00202988
0.00197521
0.00192622
0.0018756
0.00182797
0.00178625
0.001746
0.00170819
0.00224707
0.00218263
0.00212265
0.00206353
0.002012
0.00196407
0.00192127
0.00187974
0.00184074
0.00180414
0.00176693
0.00173208
0.00219023
0.00213417
0.00208295
0.00203272
0.00198734
0.00194447
0.00190557
0.00186875
0.00183455
0.00180172
0.00177054
0.00174151
0.0024394
0.00239082
0.00234426
0.00229914
0.00225771
0.00221749
0.00218045
0.00214423
0.00211094
0.00207785
0.00204675
0.0020171
)
;

boundaryField
{
    inlet
    {
        type            fixedValue;
        value           nonuniform List<scalar> 0();
    }
    ami1
    {
        type            cyclicAMI;
        value           nonuniform List<scalar> 0();
    }
    walls
    {
        type            kqRWallFunction;
        value           nonuniform List<scalar> 
259
(
0.00211848
0.00211019
0.00243946
0.00222837
0.00217918
0.00211254
0.00205343
0.00205809
0.00239154
0.00214947
0.00210311
0.00204223
0.00199301
0.00200154
0.00234415
0.00207709
0.0020333
0.00197776
0.0019382
0.00195098
0.00229979
0.00201069
0.00196913
0.00191856
0.00188541
0.00190391
0.0022577
0.00194962
0.00191009
0.00186442
0.00183285
0.00185955
0.00221834
0.0018939
0.00185585
0.00181479
0.00178767
0.00181847
0.00218045
0.00184232
0.0018062
0.00176902
0.00174565
0.00177999
0.0021449
0.00179444
0.00176063
0.00172678
0.00170729
0.00174444
0.00211102
0.00175019
0.00171861
0.00168827
0.00167081
0.00171074
0.00207821
0.00170888
0.0016795
0.00165133
0.00163694
0.00167953
0.00204666
0.00167134
0.00164241
0.00161486
0.00160478
0.00165101
0.00201711
0.00243946
0.00219009
0.00224712
0.00230351
0.00233217
0.00231555
0.00226309
0.00218998
0.00211817
0.00211021
0.0024394
0.00239154
0.00213493
0.00218276
0.00222535
0.00224747
0.00222929
0.00218003
0.00211312
0.00205326
0.0020575
0.00239082
0.00234415
0.00208282
0.00212277
0.00215433
0.0021702
0.00215033
0.00210393
0.00204277
0.00199291
0.00200158
0.00234426
0.00229979
0.00203375
0.0020647
0.00208943
0.00210006
0.00207787
0.00203406
0.00197824
0.00193829
0.00195026
0.00229914
0.0022577
0.00198752
0.00201221
0.00203019
0.00203562
0.00201139
0.00196981
0.00191893
0.00188507
0.00190391
0.00225771
0.00221834
0.00194535
0.00196493
0.00197532
0.001976
0.00195025
0.00191069
0.00186475
0.00183261
0.00185894
0.00221749
0.00218045
0.00190583
0.00192135
0.00192624
0.00192063
0.00189449
0.00185639
0.00181505
0.00178754
0.00181832
0.00218045
0.0021449
0.00186941
0.00188034
0.00187554
0.00186952
0.00184287
0.00180669
0.00176922
0.0017455
0.00177954
0.00214423
0.00211102
0.00183479
0.00184069
0.00182783
0.00182141
0.00179497
0.00176107
0.00172695
0.0017072
0.00174414
0.00211094
0.00207821
0.00180209
0.0018043
0.00178605
0.00177939
0.00175071
0.00171903
0.00168842
0.00167058
0.00171042
0.00207785
0.00204666
0.00177068
0.00176695
0.00174583
0.00173475
0.00170944
0.00167987
0.00165137
0.0016369
0.00167941
0.00204675
0.00201711
0.00174155
0.00173218
0.00170802
0.00169279
0.00167179
0.00164273
0.00161488
0.00160464
0.00165098
0.0020171
0.00224707
0.00219023
0.0024394
0.0022474
0.00222492
0.00218263
0.00213417
0.00239082
0.00217024
0.00215377
0.00212265
0.00208295
0.00234426
0.00210018
0.002089
0.00206353
0.00203272
0.00229914
0.00203588
0.00202988
0.002012
0.00198734
0.00225771
0.00197637
0.00197521
0.00196407
0.00194447
0.00221749
0.0019211
0.00192622
0.00192127
0.00190557
0.00218045
0.00187004
0.0018756
0.00187974
0.00186875
0.00214423
0.00182197
0.00182797
0.00184074
0.00183455
0.00211094
0.00177992
0.00178625
0.00180414
0.00180172
0.00207785
0.00173525
0.001746
0.00176693
0.00177054
0.00204675
0.00169322
0.00170819
0.00173208
0.00174151
0.0020171
)
;
    }
    ami2
    {
        type            cyclicAMI;
        value           nonuniform List<scalar> 0();
    }
    outlet
    {
        type            zeroGradient;
    }
    procBoundary9to0
    {
        type            processor;
        value           nonuniform List<scalar> 
40
(
0.00231314
0.00226148
0.00218943
0.00218943
0.00219076
0.0021693
0.00249126
0.00317889
0.00315014
0.00297053
0.00297053
0.00277116
0.00221171
0.00225236
0.00416039
0.00407884
0.00378269
0.00378269
0.00348586
0.0027461
0.00232091
0.00490102
0.00477796
0.00439014
0.00439014
0.00400141
0.00308428
0.00239067
0.00521467
0.00476761
0.00476761
0.00431962
0.00329133
0.00242487
0.00536478
0.00490089
0.00490089
0.0044402
0.00338354
0.00240828
)
;
    }
    procBoundary9to1
    {
        type            processor;
        value           nonuniform List<scalar> 
30
(
0.00521447
0.00477743
0.00477743
0.00435006
0.00334951
0.00235272
0.00476801
0.00439001
0.00439001
0.00403172
0.00315607
0.00227345
0.00404879
0.00375272
0.00375272
0.00348567
0.00276922
0.00218987
0.00309532
0.00290413
0.00290413
0.00274548
0.00220808
0.00216818
0.00233156
0.0023038
0.0023038
0.00232074
0.00225136
0.00249046
)
;
    }
    procBoundary9to7
    {
        type            processor;
        value           nonuniform List<scalar> 
59
(
0.00163502
0.00160818
0.0015808
0.00157368
0.00162452
0.00198913
0.00175385
0.00174211
0.0016252
0.0013883
0.00117469
0.00171427
0.00219315
0.00215803
0.00200056
0.00172624
0.00147024
0.00170015
0.0025564
0.0024971
0.00229969
0.0019789
0.00163178
0.00167176
0.0027128
0.00248763
0.00212965
0.00171434
0.00165434
0.00278825
0.00255646
0.00219372
0.00175561
0.00163563
0.00271267
0.00249666
0.00215769
0.00174268
0.00160849
0.00248742
0.00229894
0.00199961
0.00162505
0.00158088
0.00212951
0.00197816
0.00172574
0.00138882
0.00157375
0.00171443
0.00163136
0.00147022
0.00117493
0.00162456
0.00165473
0.00167187
0.00170012
0.00171429
0.00198931
)
;
    }
    procBoundary9to8
    {
        type            processor;
        value           nonuniform List<scalar> 
132
(
0.00224689
0.00216961
0.00209951
0.00203506
0.00197545
0.00192008
0.00186897
0.00182085
0.00177872
0.001734
0.001692
0.00291471
0.00275302
0.00260586
0.00247163
0.00234885
0.00223634
0.00213291
0.00203741
0.00195041
0.00186216
0.00178055
0.00380007
0.00357585
0.0033714
0.00318442
0.00301298
0.00285543
0.00271029
0.00257628
0.00245247
0.00233633
0.00222876
0.00447361
0.004207
0.00396388
0.00374154
0.00353766
0.00335023
0.00317752
0.00301801
0.00287039
0.00273328
0.00260603
0.00503273
0.00473121
0.00445628
0.00420488
0.00397439
0.00376254
0.00356735
0.00338709
0.00322028
0.00306551
0.0029219
0.00503273
0.00473121
0.00445628
0.00420488
0.00397439
0.00376254
0.00356735
0.00338709
0.00322028
0.00306551
0.0029219
0.00518176
0.00487103
0.00458766
0.00432852
0.00409094
0.00387257
0.00367138
0.00348561
0.00331371
0.00315425
0.00300628
0.00503287
0.00473134
0.00445637
0.00420492
0.0039744
0.00376251
0.00356731
0.00338706
0.00322026
0.00306553
0.00292196
0.004599
0.00432463
0.00407447
0.00384574
0.00363604
0.00344329
0.00326571
0.00310174
0.00295001
0.00280921
0.00267862
0.00390735
0.00367725
0.00346746
0.00327562
0.00309976
0.00293816
0.00278933
0.00265192
0.00252489
0.00240679
0.00229763
0.00299611
0.0028296
0.00267792
0.00253945
0.00241271
0.00229648
0.00218965
0.00209107
0.00200029
0.00191552
0.0018375
0.00222961
0.00215081
0.00207852
0.00201213
0.00195108
0.00189537
0.00184381
0.00179594
0.00175167
0.00171039
0.00167273
)
;
    }
}


// ************************************************************************* //
