/*--------------------------------*- C++ -*----------------------------------*\
| =========                 |                                                 |
| \\      /  F ield         | OpenFOAM: The Open Source CFD Toolbox           |
|  \\    /   O peration     | Version:  2212                                  |
|   \\  /    A nd           | Website:  www.openfoam.com                      |
|    \\/     M anipulation  |                                                 |
\*---------------------------------------------------------------------------*/
FoamFile
{
    version     2.0;
    format      ascii;
    arch        "LSB;label=32;scalar=64";
    class       surfaceScalarField;
    location    "1.85";
    object      phi;
}
// * * * * * * * * * * * * * * * * * * * * * * * * * * * * * * * * * * * * * //

dimensions      [0 3 -1 0 0 0 0];

oriented        oriented;

internalField   nonuniform List<scalar> 
1786
(
7.81008e-07
-1.18675e-07
9.58651e-09
7.73003e-07
-1.18693e-07
9.57927e-09
7.64964e-07
-1.18658e-07
9.53957e-09
7.56928e-07
-1.18587e-07
9.46958e-09
7.48934e-07
-1.18502e-07
9.37381e-09
7.41015e-07
-1.18414e-07
9.25539e-09
7.33199e-07
-1.18331e-07
9.11684e-09
7.25508e-07
-1.18259e-07
8.96533e-09
7.17955e-07
-1.18198e-07
8.80653e-09
7.10534e-07
-1.18148e-07
8.64494e-09
-1.18115e-07
8.46263e-09
7.14374e-07
-1.10624e-07
-6.03238e-10
7.0688e-07
-1.10576e-07
-6.23141e-10
6.99392e-07
-1.10473e-07
-6.96744e-10
6.91972e-07
-1.10354e-07
-8.12965e-10
6.84678e-07
-1.10248e-07
-9.61039e-10
6.77552e-07
-1.10156e-07
-1.13093e-09
6.70616e-07
-1.1008e-07
-1.31574e-09
6.63878e-07
-1.10014e-07
-1.5073e-09
6.57332e-07
-1.09953e-07
-1.70039e-09
6.50959e-07
-1.09887e-07
-1.88709e-09
-1.09832e-07
-2.08168e-09
5.73923e-07
-9.30071e-08
-1.11657e-08
5.6757e-07
-9.29742e-08
-1.12482e-08
5.61368e-07
-9.28606e-08
-1.14103e-08
5.55379e-07
-9.27335e-08
-1.16323e-08
5.49637e-07
-9.26285e-08
-1.18771e-08
5.44142e-07
-9.25463e-08
-1.21149e-08
5.38875e-07
-9.24805e-08
-1.23318e-08
5.33803e-07
-9.24191e-08
-1.25232e-08
5.28901e-07
-9.23567e-08
-1.26943e-08
5.24142e-07
-9.22862e-08
-1.28417e-08
-9.22004e-08
-1.30046e-08
3.9972e-07
-6.72575e-08
-2.10354e-08
3.95067e-07
-6.72569e-08
-2.10981e-08
3.90521e-07
-6.72326e-08
-2.1196e-08
3.86188e-07
-6.71259e-08
-2.14013e-08
3.82103e-07
-6.6985e-08
-2.16632e-08
3.78196e-07
-6.68985e-08
-2.18233e-08
3.74433e-07
-6.68357e-08
-2.19479e-08
3.70807e-07
-6.6779e-08
-2.20759e-08
3.67304e-07
-6.67469e-08
-2.21688e-08
3.63919e-07
-6.67173e-08
-2.22545e-08
3.60636e-07
-6.66808e-08
-2.23224e-08
-6.66118e-08
-2.24201e-08
2.15007e-07
-3.45612e-08
-2.99088e-08
2.12302e-07
-3.45799e-08
-2.99721e-08
2.09653e-07
-3.45849e-08
-2.99988e-08
2.07049e-07
-3.45738e-08
-2.99479e-08
2.04514e-07
-3.4552e-08
-2.98983e-08
2.02033e-07
-3.45475e-08
-2.98701e-08
1.99631e-07
-3.45496e-08
-2.98836e-08
1.97326e-07
-3.45534e-08
-2.9921e-08
1.95105e-07
-3.45599e-08
-2.99661e-08
1.92968e-07
-3.4567e-08
-3.00129e-08
1.90912e-07
-3.4585e-08
-3.00402e-08
-3.46189e-08
-3.0033e-08
7.22848e-08
-3.34368e-08
7.12166e-08
-3.35119e-08
7.01931e-08
-3.35614e-08
6.9208e-08
-3.35888e-08
6.82643e-08
-3.36084e-08
6.73486e-08
-3.36318e-08
6.64642e-08
-3.36653e-08
6.56166e-08
-3.37058e-08
6.47997e-08
-3.37431e-08
6.40046e-08
-3.3772e-08
6.32262e-08
-3.38066e-08
-3.38688e-08
1.21066e-06
-1.03356e-07
1.11594e-08
1.21025e-06
-1.03385e-07
1.11459e-08
1.20973e-06
-1.03374e-07
1.11108e-08
1.20911e-06
-1.03331e-07
1.10534e-08
1.20841e-06
-1.0327e-07
1.09755e-08
1.20765e-06
-1.03204e-07
1.08806e-08
1.20684e-06
-1.03141e-07
1.07711e-08
1.206e-06
-1.03088e-07
1.0651e-08
1.20515e-06
-1.03043e-07
1.05182e-08
1.20428e-06
-1.03011e-07
1.03768e-08
-1.02971e-07
1.01939e-08
1.14732e-06
-9.65065e-08
-7.25459e-09
1.14702e-06
-9.64367e-08
-7.26924e-09
1.14664e-06
-9.63609e-08
-7.32553e-09
1.14618e-06
-9.62723e-08
-7.41968e-09
1.14569e-06
-9.62013e-08
-7.54005e-09
1.14519e-06
-9.61538e-08
-7.67599e-09
1.14468e-06
-9.61274e-08
-7.82219e-09
1.14418e-06
-9.61244e-08
-7.97308e-09
1.1437e-06
-9.61293e-08
-8.1312e-09
1.14324e-06
-9.61562e-08
-8.28038e-09
-9.61627e-08
-8.46173e-09
1.00512e-06
-8.18778e-08
-2.56083e-08
1.00491e-06
-8.18036e-08
-2.56736e-08
1.00469e-06
-8.17691e-08
-2.57731e-08
1.00442e-06
-8.17202e-08
-2.59159e-08
1.00414e-06
-8.17395e-08
-2.60614e-08
1.00386e-06
-8.17871e-08
-2.61987e-08
1.00356e-06
-8.18356e-08
-2.633e-08
1.00325e-06
-8.18811e-08
-2.64557e-08
1.00292e-06
-8.19152e-08
-2.65797e-08
1.00257e-06
-8.19791e-08
-2.66651e-08
-8.20356e-08
-2.67753e-08
7.99883e-07
-6.02333e-08
-4.18413e-08
7.98948e-07
-6.013e-08
-4.19113e-08
7.9804e-07
-6.01039e-08
-4.19877e-08
7.97111e-07
-6.01872e-08
-4.20546e-08
7.96156e-07
-6.02723e-08
-4.21557e-08
7.95149e-07
-6.03686e-08
-4.21869e-08
7.94065e-07
-6.04254e-08
-4.22257e-08
7.92906e-07
-6.04477e-08
-4.23052e-08
7.91672e-07
-6.04584e-08
-4.23574e-08
7.90372e-07
-6.04615e-08
-4.2408e-08
7.88974e-07
-6.04987e-08
-4.24053e-08
-6.05548e-08
-4.23969e-08
5.35753e-07
-3.21141e-08
-5.50542e-08
5.32835e-07
-3.20257e-08
-5.51591e-08
5.29947e-07
-3.19724e-08
-5.52416e-08
5.27058e-07
-3.19643e-08
-5.52821e-08
5.24167e-07
-3.19645e-08
-5.5316e-08
5.21262e-07
-3.19838e-08
-5.53495e-08
5.18347e-07
-3.19897e-08
-5.54044e-08
5.15426e-07
-3.19784e-08
-5.54695e-08
5.12495e-07
-3.19614e-08
-5.55317e-08
5.09547e-07
-3.19506e-08
-5.55763e-08
5.06552e-07
-3.19619e-08
-5.55819e-08
-3.19914e-08
-5.55294e-08
2.29006e-07
-6.2458e-08
2.2606e-07
-6.25913e-08
2.23246e-07
-6.27198e-08
2.2055e-07
-6.28571e-08
2.17968e-07
-6.29912e-08
2.15473e-07
-6.31204e-08
2.13063e-07
-6.32451e-08
2.10737e-07
-6.33584e-08
2.08461e-07
-6.34289e-08
2.06198e-07
-6.34596e-08
2.03945e-07
-6.35149e-08
-6.36755e-08
1.49716e-06
-8.37283e-08
9.23518e-09
1.50104e-06
-8.37118e-08
9.18602e-09
1.50485e-06
-8.36879e-08
9.12995e-09
1.50858e-06
-8.36586e-08
9.06694e-09
1.51226e-06
-8.3628e-08
8.99731e-09
1.51589e-06
-8.35982e-08
8.92159e-09
1.51947e-06
-8.35696e-08
8.84015e-09
1.52301e-06
-8.35461e-08
8.75442e-09
1.52652e-06
-8.35314e-08
8.66354e-09
1.53001e-06
-8.35303e-08
8.57552e-09
-8.35362e-08
8.46709e-09
1.44286e-06
-7.96058e-08
-1.52377e-08
1.44666e-06
-7.94973e-08
-1.52854e-08
1.45041e-06
-7.94152e-08
-1.53498e-08
1.45412e-06
-7.93563e-08
-1.54293e-08
1.45779e-06
-7.93244e-08
-1.55192e-08
1.46144e-06
-7.93073e-08
-1.56164e-08
1.46506e-06
-7.92949e-08
-1.57197e-08
1.46867e-06
-7.93011e-08
-1.58232e-08
1.47226e-06
-7.9327e-08
-1.59259e-08
1.47584e-06
-7.93809e-08
-1.60136e-08
-7.94521e-08
-1.61073e-08
1.30845e-06
-6.95093e-08
-3.90686e-08
1.31182e-06
-6.938e-08
-3.91603e-08
1.31519e-06
-6.93034e-08
-3.92554e-08
1.31855e-06
-6.92706e-08
-3.93539e-08
1.3219e-06
-6.92916e-08
-3.94452e-08
1.32524e-06
-6.93117e-08
-3.95363e-08
1.32856e-06
-6.93067e-08
-3.96345e-08
1.33186e-06
-6.93387e-08
-3.97209e-08
1.33513e-06
-6.9387e-08
-3.97953e-08
1.33839e-06
-6.94648e-08
-3.98381e-08
-6.95598e-08
-3.98573e-08
1.10262e-06
-5.35645e-08
-5.98311e-08
1.10455e-06
-5.33725e-08
-5.99812e-08
1.10653e-06
-5.32465e-08
-6.01068e-08
1.10856e-06
-5.31713e-08
-6.02121e-08
1.11056e-06
-5.31261e-08
-6.0298e-08
1.11253e-06
-5.31111e-08
-6.03449e-08
1.11449e-06
-5.30893e-08
-6.04005e-08
1.11642e-06
-5.30591e-08
-6.0485e-08
1.1183e-06
-5.30493e-08
-6.05296e-08
1.12011e-06
-5.30537e-08
-6.05509e-08
1.12183e-06
-5.30668e-08
-6.05184e-08
-5.30688e-08
-6.04776e-08
8.28167e-07
-3.05459e-08
-7.67095e-08
8.26924e-07
-3.0364e-08
-7.69251e-08
8.25756e-07
-3.02204e-08
-7.70996e-08
8.24626e-07
-3.00943e-08
-7.72297e-08
8.23507e-07
-2.99803e-08
-7.73422e-08
8.22359e-07
-2.98849e-08
-7.74284e-08
8.21143e-07
-2.97885e-08
-7.74884e-08
8.19836e-07
-2.96916e-08
-7.75307e-08
8.18439e-07
-2.96303e-08
-7.75533e-08
8.16965e-07
-2.95977e-08
-7.75589e-08
8.15391e-07
-2.95196e-08
-7.75541e-08
-2.93091e-08
-7.75421e-08
4.43377e-07
-8.7845e-08
4.38482e-07
-8.80602e-08
4.33763e-07
-8.82216e-08
4.29161e-07
-8.83499e-08
4.24643e-07
-8.84532e-08
4.2018e-07
-8.85417e-08
4.15758e-07
-8.8612e-08
4.11375e-07
-8.86675e-08
4.07006e-07
-8.869e-08
4.02636e-07
-8.86879e-08
3.983e-07
-8.8698e-08
-8.8777e-08
1.70061e-06
-5.97143e-08
1.70685e-06
-5.96719e-08
1.71301e-06
-5.96352e-08
1.7191e-06
-5.96045e-08
1.72513e-06
-5.958e-08
1.7311e-06
-5.95613e-08
1.73701e-06
-5.95473e-08
1.74286e-06
-5.95392e-08
1.74867e-06
-5.95382e-08
1.75445e-06
-5.95468e-08
-5.95593e-08
1.65386e-06
-5.84797e-08
-2.25201e-08
1.65984e-06
-5.83526e-08
-2.2584e-08
1.66576e-06
-5.82548e-08
-2.26495e-08
1.67162e-06
-5.81831e-08
-2.27159e-08
1.67744e-06
-5.81347e-08
-2.2782e-08
1.68321e-06
-5.81028e-08
-2.28471e-08
1.68894e-06
-5.80811e-08
-2.29111e-08
1.69462e-06
-5.80733e-08
-2.29719e-08
1.70027e-06
-5.80809e-08
-2.30273e-08
1.70589e-06
-5.81112e-08
-2.30711e-08
-5.81441e-08
-2.31154e-08
1.52652e-06
-5.2932e-08
-4.97117e-08
1.5316e-06
-5.277e-08
-4.98193e-08
1.53666e-06
-5.26551e-08
-4.99151e-08
1.5417e-06
-5.25774e-08
-4.99997e-08
1.54672e-06
-5.25297e-08
-5.00719e-08
1.55171e-06
-5.25001e-08
-5.01347e-08
1.55667e-06
-5.2474e-08
-5.01921e-08
1.56158e-06
-5.24706e-08
-5.0238e-08
1.56645e-06
-5.24777e-08
-5.02696e-08
1.5713e-06
-5.2518e-08
-5.02767e-08
-5.25345e-08
-5.02791e-08
1.32337e-06
-4.26736e-08
-7.33602e-08
1.32646e-06
-4.24434e-08
-7.35666e-08
1.3296e-06
-4.22795e-08
-7.37316e-08
1.33275e-06
-4.21604e-08
-7.38602e-08
1.3359e-06
-4.20693e-08
-7.39552e-08
1.33904e-06
-4.19929e-08
-7.40194e-08
1.34215e-06
-4.19533e-08
-7.4062e-08
1.3452e-06
-4.19086e-08
-7.40967e-08
1.3482e-06
-4.18985e-08
-7.41039e-08
1.35114e-06
-4.18725e-08
-7.40919e-08
1.35399e-06
-4.18437e-08
-7.40463e-08
-4.17676e-08
-7.40095e-08
1.04789e-06
-2.57677e-08
-9.27062e-08
1.04708e-06
-2.55513e-08
-9.301e-08
1.04633e-06
-2.53949e-08
-9.32339e-08
1.0456e-06
-2.52726e-08
-9.33884e-08
1.04485e-06
-2.51742e-08
-9.34899e-08
1.04407e-06
-2.50841e-08
-9.35539e-08
1.04321e-06
-2.50068e-08
-9.35783e-08
1.04228e-06
-2.4918e-08
-9.35864e-08
1.04123e-06
-2.48526e-08
-9.35573e-08
1.0401e-06
-2.47761e-08
-9.35231e-08
1.03888e-06
-2.46747e-08
-9.34979e-08
-2.45144e-08
-9.34784e-08
6.38774e-07
-1.06172e-07
6.31572e-07
-1.0641e-07
6.2452e-07
-1.06565e-07
6.17558e-07
-1.0666e-07
6.10644e-07
-1.06714e-07
6.03757e-07
-1.06739e-07
5.96891e-07
-1.06753e-07
5.90061e-07
-1.06755e-07
5.83282e-07
-1.06763e-07
5.76594e-07
-1.06777e-07
5.70033e-07
-1.06811e-07
-1.0687e-07
1.78294e-06
-3.35024e-08
-2.82159e-08
1.79007e-06
-3.34056e-08
-2.82442e-08
1.79712e-06
-3.33246e-08
-2.82717e-08
1.80409e-06
-3.32577e-08
-2.82982e-08
1.81099e-06
-3.32029e-08
-2.83236e-08
1.81781e-06
-3.31578e-08
-2.83476e-08
1.82458e-06
-3.31201e-08
-2.83703e-08
1.83129e-06
-3.30896e-08
-2.83912e-08
1.83794e-06
-3.30648e-08
-2.84096e-08
1.84455e-06
-3.30487e-08
-2.84241e-08
-3.30306e-08
-2.8438e-08
1.65881e-06
-3.25073e-08
-5.67225e-08
1.66476e-06
-3.23982e-08
-5.67779e-08
1.67065e-06
-3.23093e-08
-5.68235e-08
1.67649e-06
-3.22354e-08
-5.68603e-08
1.68227e-06
-3.21723e-08
-5.68889e-08
1.68801e-06
-3.21167e-08
-5.69106e-08
1.69369e-06
-3.20648e-08
-5.69272e-08
1.69932e-06
-3.20174e-08
-5.69387e-08
1.7049e-06
-3.19661e-08
-5.69452e-08
1.71043e-06
-3.19191e-08
-5.69448e-08
-3.18622e-08
-5.69419e-08
1.45585e-06
-2.82398e-08
-8.15166e-08
1.45957e-06
-2.81271e-08
-8.16579e-08
1.46324e-06
-2.80411e-08
-8.1763e-08
1.46688e-06
-2.79682e-08
-8.18366e-08
1.47047e-06
-2.78996e-08
-8.1882e-08
1.47401e-06
-2.78316e-08
-8.19035e-08
1.4775e-06
-2.77651e-08
-8.19068e-08
1.48093e-06
-2.76949e-08
-8.18981e-08
1.48432e-06
-2.76253e-08
-8.18791e-08
1.48765e-06
-2.75311e-08
-8.18553e-08
1.49092e-06
-2.74169e-08
-8.1824e-08
-2.73024e-08
-8.17841e-08
1.17926e-06
-1.86653e-08
-1.01822e-07
1.17876e-06
-1.85794e-08
-1.02056e-07
1.17822e-06
-1.85111e-08
-1.02216e-07
1.17761e-06
-1.84455e-08
-1.02309e-07
1.17695e-06
-1.83745e-08
-1.02349e-07
1.1762e-06
-1.82949e-08
-1.02349e-07
1.17539e-06
-1.82032e-08
-1.02321e-07
1.17448e-06
-1.81004e-08
-1.02276e-07
1.17351e-06
-1.79896e-08
-1.0222e-07
1.17249e-06
-1.78647e-08
-1.02167e-07
1.17142e-06
-1.77248e-08
-1.02123e-07
-1.75759e-08
-1.02075e-07
7.62482e-07
-1.16843e-07
7.54511e-07
-1.17018e-07
7.4655e-07
-1.17114e-07
7.38596e-07
-1.17152e-07
7.30654e-07
-1.17147e-07
7.22735e-07
-1.17115e-07
7.1485e-07
-1.17071e-07
7.07018e-07
-1.17024e-07
6.99244e-07
-1.16979e-07
6.91541e-07
-1.16938e-07
6.83917e-07
-1.16911e-07
-1.16923e-07
1.82591e-06
-5.87486e-09
-3.19587e-08
1.83341e-06
-5.81471e-09
-3.19173e-08
1.84082e-06
-5.75589e-09
-3.18821e-08
1.84814e-06
-5.69819e-09
-3.18528e-08
1.85537e-06
-5.64164e-09
-3.18288e-08
1.86253e-06
-5.58625e-09
-3.18096e-08
1.86962e-06
-5.53186e-09
-3.17943e-08
1.87664e-06
-5.47895e-09
-3.17827e-08
1.8836e-06
-5.42782e-09
-3.17747e-08
1.89051e-06
-5.38192e-09
-3.17714e-08
-5.33013e-09
-3.17694e-08
1.70061e-06
-9.23191e-09
-5.96934e-08
1.70685e-06
-9.18348e-09
-5.96497e-08
1.71301e-06
-9.12816e-09
-5.96125e-08
1.7191e-06
-9.06539e-09
-5.95821e-08
1.72512e-06
-8.99574e-09
-5.95584e-08
1.73109e-06
-8.91994e-09
-5.95403e-08
1.73699e-06
-8.83841e-09
-5.95268e-08
1.74284e-06
-8.75279e-09
-5.95184e-08
1.74865e-06
-8.66226e-09
-5.95168e-08
1.75442e-06
-8.57385e-09
-5.9525e-08
-8.46492e-09
-5.95373e-08
1.4932e-06
-1.11332e-08
-8.3718e-08
1.49716e-06
-1.11444e-08
-8.37093e-08
1.50104e-06
-1.11349e-08
-8.36907e-08
1.50485e-06
-1.11025e-08
-8.36656e-08
1.50858e-06
-1.10465e-08
-8.36363e-08
1.51226e-06
-1.09694e-08
-8.36063e-08
1.51588e-06
-1.08746e-08
-8.35772e-08
1.51946e-06
-1.07647e-08
-8.35493e-08
1.523e-06
-1.0644e-08
-8.35256e-08
1.5265e-06
-1.05106e-08
-8.35111e-08
1.52998e-06
-1.03689e-08
-8.35108e-08
-1.01863e-08
-8.35167e-08
1.21096e-06
-9.53998e-09
-1.03274e-07
1.21067e-06
-9.57292e-09
-1.03346e-07
1.21026e-06
-9.56991e-09
-1.03372e-07
1.20974e-06
-9.532e-09
-1.0336e-07
1.20913e-06
-9.46304e-09
-1.03316e-07
1.20843e-06
-9.36769e-09
-1.03255e-07
1.20768e-06
-9.24864e-09
-1.03189e-07
1.20687e-06
-9.10933e-09
-1.03125e-07
1.20603e-06
-8.95612e-09
-1.03072e-07
1.20518e-06
-8.79588e-09
-1.03027e-07
1.20432e-06
-8.63383e-09
-1.02995e-07
-8.45239e-09
-1.02956e-07
7.89039e-07
-1.1859e-07
7.81116e-07
-1.18668e-07
7.73115e-07
-1.18683e-07
7.65079e-07
-1.18648e-07
7.57047e-07
-1.18578e-07
7.49057e-07
-1.18493e-07
7.41144e-07
-1.18407e-07
7.33337e-07
-1.18326e-07
7.25657e-07
-1.18255e-07
7.18117e-07
-1.18194e-07
7.10714e-07
-1.18142e-07
-1.18106e-07
1.78295e-06
2.25199e-08
-3.34875e-08
1.79009e-06
2.25841e-08
-3.33904e-08
1.79714e-06
2.26499e-08
-3.3309e-08
1.80411e-06
2.27168e-08
-3.32416e-08
1.81101e-06
2.27834e-08
-3.31861e-08
1.81784e-06
2.28491e-08
-3.314e-08
1.82461e-06
2.29137e-08
-3.31009e-08
1.83131e-06
2.29754e-08
-3.30682e-08
1.83797e-06
2.30315e-08
-3.30409e-08
1.84458e-06
2.30761e-08
-3.30226e-08
2.31218e-08
-3.30026e-08
1.65389e-06
1.52376e-08
-5.84616e-08
1.65987e-06
1.52857e-08
-5.83334e-08
1.66579e-06
1.53508e-08
-5.82356e-08
1.67166e-06
1.5431e-08
-5.81645e-08
1.67748e-06
1.55216e-08
-5.81169e-08
1.68326e-06
1.56196e-08
-5.80856e-08
1.68899e-06
1.57233e-08
-5.80643e-08
1.69467e-06
1.58281e-08
-5.80548e-08
1.70031e-06
1.59308e-08
-5.8061e-08
1.70594e-06
1.60191e-08
-5.80903e-08
1.61143e-08
-5.81208e-08
1.43903e-06
7.29084e-09
-7.9734e-08
1.44289e-06
7.25936e-09
-7.95914e-08
1.44669e-06
7.27283e-09
-7.94792e-08
1.45044e-06
7.32888e-09
-7.93963e-08
1.45415e-06
7.42318e-09
-7.93383e-08
1.45783e-06
7.54428e-09
-7.93072e-08
1.46148e-06
7.68139e-09
-7.92908e-08
1.46511e-06
7.82873e-09
-7.92806e-08
1.46871e-06
7.9812e-09
-7.92829e-08
1.47231e-06
8.1402e-09
-7.93113e-08
1.47589e-06
8.2915e-09
-7.93684e-08
8.47362e-09
-7.94346e-08
1.14755e-06
6.51831e-10
-9.65669e-08
1.14735e-06
6.11051e-10
-9.64997e-08
1.14705e-06
6.28686e-10
-9.64269e-08
1.14667e-06
7.01368e-10
-9.63491e-08
1.14622e-06
8.17757e-10
-9.62626e-08
1.14573e-06
9.65697e-10
-9.61899e-08
1.14523e-06
1.13554e-09
-9.61409e-08
1.14473e-06
1.32056e-09
-9.61127e-08
1.14423e-06
1.51294e-09
-9.6108e-08
1.14375e-06
1.70804e-09
-9.61149e-08
1.14329e-06
1.89709e-09
-9.6142e-08
2.09259e-09
-9.61498e-08
7.21884e-07
-1.10618e-07
7.14442e-07
-1.10615e-07
7.06952e-07
-1.10566e-07
6.99469e-07
-1.10463e-07
6.92051e-07
-1.10342e-07
6.84759e-07
-1.10235e-07
6.77633e-07
-1.10146e-07
6.707e-07
-1.10072e-07
6.63966e-07
-1.10008e-07
6.57426e-07
-1.09946e-07
6.51058e-07
-1.09878e-07
-1.09821e-07
1.65882e-06
4.97142e-08
-3.24953e-08
1.66477e-06
4.98223e-08
-3.23864e-08
1.67067e-06
4.99177e-08
-3.2297e-08
1.67651e-06
5.00016e-08
-3.22224e-08
1.6823e-06
5.00731e-08
-3.21587e-08
1.68804e-06
5.01356e-08
-3.21019e-08
1.69373e-06
5.01927e-08
-3.20481e-08
1.69936e-06
5.02403e-08
-3.19976e-08
1.70494e-06
5.02727e-08
-3.19424e-08
1.71048e-06
5.02799e-08
-3.18923e-08
5.02847e-08
-3.18324e-08
1.52656e-06
3.90684e-08
-5.29164e-08
1.53164e-06
3.91614e-08
-5.2753e-08
1.53671e-06
3.92559e-08
-5.26391e-08
1.54175e-06
3.93543e-08
-5.25623e-08
1.54678e-06
3.94457e-08
-5.25167e-08
1.55178e-06
3.95374e-08
-5.24876e-08
1.55674e-06
3.96339e-08
-5.24631e-08
1.56165e-06
3.97264e-08
-5.2454e-08
1.56652e-06
3.97975e-08
-5.24586e-08
1.57137e-06
3.98387e-08
-5.24983e-08
3.98651e-08
-5.25105e-08
1.30515e-06
2.55737e-08
-6.96894e-08
1.30852e-06
2.56062e-08
-6.94951e-08
1.31189e-06
2.56723e-08
-6.9359e-08
1.31526e-06
2.57728e-08
-6.92882e-08
1.31862e-06
2.59136e-08
-6.92572e-08
1.32198e-06
2.60606e-08
-6.92772e-08
1.32532e-06
2.62011e-08
-6.92978e-08
1.32864e-06
2.63348e-08
-6.9304e-08
1.33194e-06
2.64657e-08
-6.93166e-08
1.33521e-06
2.6588e-08
-6.93755e-08
1.33847e-06
2.6676e-08
-6.94638e-08
2.67884e-08
-6.95367e-08
1.00536e-06
1.11385e-08
-8.19794e-08
1.00517e-06
1.11699e-08
-8.18763e-08
1.00497e-06
1.1251e-08
-8.17976e-08
1.00474e-06
1.14142e-08
-8.17599e-08
1.00447e-06
1.16402e-08
-8.17221e-08
1.00419e-06
1.18834e-08
-8.17312e-08
1.0039e-06
1.21193e-08
-8.17751e-08
1.00361e-06
1.23346e-08
-8.18184e-08
1.0033e-06
1.25287e-08
-8.18639e-08
1.00297e-06
1.27002e-08
-8.18983e-08
1.00262e-06
1.28524e-08
-8.19654e-08
1.302e-08
-8.20278e-08
5.80354e-07
-9.30204e-08
5.73914e-07
-9.30043e-08
5.67569e-07
-9.297e-08
5.61374e-07
-9.28532e-08
5.5539e-07
-9.2718e-08
5.49654e-07
-9.26154e-08
5.44163e-07
-9.25361e-08
5.38898e-07
-9.2473e-08
5.33831e-07
-9.24129e-08
5.28935e-07
-9.23487e-08
5.24182e-07
-9.22727e-08
-9.21827e-08
1.45957e-06
7.35704e-08
-2.81216e-08
1.46324e-06
7.37364e-08
-2.8033e-08
1.46688e-06
7.38632e-08
-2.79579e-08
1.47047e-06
7.39563e-08
-2.78878e-08
1.47402e-06
7.40179e-08
-2.78187e-08
1.47752e-06
7.40596e-08
-2.77504e-08
1.48095e-06
7.40926e-08
-2.76785e-08
1.48434e-06
7.41044e-08
-2.76067e-08
1.48767e-06
7.40942e-08
-2.75079e-08
1.49095e-06
7.40468e-08
-2.73916e-08
7.40138e-08
-2.72732e-08
1.32649e-06
5.9984e-08
-4.24372e-08
1.32963e-06
6.01153e-08
-4.22685e-08
1.33279e-06
6.02125e-08
-4.21498e-08
1.33595e-06
6.02961e-08
-4.20589e-08
1.33909e-06
6.03443e-08
-4.19864e-08
1.34221e-06
6.03998e-08
-4.1943e-08
1.34526e-06
6.04731e-08
-4.1898e-08
1.34826e-06
6.05388e-08
-4.18855e-08
1.35119e-06
6.05492e-08
-4.18455e-08
1.35405e-06
6.05069e-08
-4.18172e-08
6.049e-08
-4.17409e-08
1.10266e-06
4.18432e-08
-5.35476e-08
1.1046e-06
4.19036e-08
-5.33596e-08
1.10659e-06
4.19852e-08
-5.32204e-08
1.10862e-06
4.20509e-08
-5.31558e-08
1.11064e-06
4.21442e-08
-5.31195e-08
1.11261e-06
4.21842e-08
-5.3096e-08
1.11457e-06
4.22276e-08
-5.30809e-08
1.11649e-06
4.2302e-08
-5.30567e-08
1.11838e-06
4.23735e-08
-5.30353e-08
1.12017e-06
4.24147e-08
-5.30371e-08
1.12188e-06
4.24052e-08
-5.30656e-08
4.24055e-08
-5.30307e-08
7.99921e-07
2.10405e-08
-6.02282e-08
7.98981e-07
2.10962e-08
-6.01296e-08
7.98078e-07
2.12024e-08
-6.01114e-08
7.97144e-07
2.14049e-08
-6.01803e-08
7.96176e-07
2.16607e-08
-6.02706e-08
7.95159e-07
2.18241e-08
-6.03535e-08
7.94077e-07
2.19491e-08
-6.04146e-08
7.92922e-07
2.20733e-08
-6.04354e-08
7.91699e-07
2.21761e-08
-6.04429e-08
7.90406e-07
2.22596e-08
-6.04502e-08
7.89016e-07
2.23263e-08
-6.04969e-08
2.24268e-08
-6.05478e-08
3.9966e-07
-6.726e-08
3.95014e-07
-6.72618e-08
3.90474e-07
-6.72285e-08
3.8615e-07
-6.71238e-08
3.82076e-07
-6.69832e-08
3.78179e-07
-6.68947e-08
3.74421e-07
-6.68287e-08
3.70795e-07
-6.67741e-08
3.67298e-07
-6.67396e-08
3.6392e-07
-6.67114e-08
3.60647e-07
-6.66732e-08
-6.66049e-08
1.17877e-06
9.30028e-08
-1.85735e-08
1.17822e-06
9.32292e-08
-1.85023e-08
1.17761e-06
9.33816e-08
-1.84348e-08
1.17695e-06
9.34813e-08
-1.83612e-08
1.17621e-06
9.35451e-08
-1.82796e-08
1.17539e-06
9.35722e-08
-1.81876e-08
1.17449e-06
9.35825e-08
-1.80857e-08
1.17352e-06
9.35563e-08
-1.79769e-08
1.1725e-06
9.35306e-08
-1.78536e-08
1.17145e-06
9.35038e-08
-1.77124e-08
9.34873e-08
-1.75596e-08
1.04708e-06
7.69213e-08
-2.55581e-08
1.04634e-06
7.71042e-08
-2.54013e-08
1.04561e-06
7.72286e-08
-2.52739e-08
1.04487e-06
7.73266e-08
-2.51653e-08
1.04408e-06
7.74222e-08
-2.50749e-08
1.04323e-06
7.74796e-08
-2.49927e-08
1.04229e-06
7.75294e-08
-2.49047e-08
1.04125e-06
7.75492e-08
-2.4839e-08
1.04012e-06
7.7574e-08
-2.47599e-08
1.0389e-06
7.75584e-08
-2.4656e-08
7.75649e-08
-2.44971e-08
8.28134e-07
5.50663e-08
-3.0539e-08
8.26903e-07
5.51612e-08
-3.03679e-08
8.25765e-07
5.52384e-08
-3.02169e-08
8.24647e-07
5.52838e-08
-3.00937e-08
8.23526e-07
5.53084e-08
-2.99799e-08
8.22375e-07
5.53531e-08
-2.98754e-08
8.21156e-07
5.53983e-08
-2.97809e-08
8.19846e-07
5.54671e-08
-2.9685e-08
8.18448e-07
5.55325e-08
-2.96203e-08
8.16978e-07
5.55878e-08
-2.95814e-08
8.15403e-07
5.55791e-08
-2.95106e-08
5.55522e-08
-2.92837e-08
5.35744e-07
2.99173e-08
-3.21073e-08
5.32815e-07
2.99794e-08
-3.20189e-08
5.29906e-07
3.0003e-08
-3.19673e-08
5.27012e-07
2.9953e-08
-3.19548e-08
5.24125e-07
2.98902e-08
-3.19658e-08
5.2123e-07
2.98707e-08
-3.19768e-08
5.18321e-07
2.98799e-08
-3.19872e-08
5.15407e-07
2.992e-08
-3.19742e-08
5.12487e-07
2.99671e-08
-3.19575e-08
5.09551e-07
3.00175e-08
-3.19439e-08
5.06564e-07
3.00347e-08
-3.19654e-08
3.00361e-08
-3.1987e-08
2.14981e-07
-3.4562e-08
2.12278e-07
-3.45796e-08
2.09635e-07
-3.4583e-08
2.07035e-07
-3.4571e-08
2.04494e-07
-3.45514e-08
2.02014e-07
-3.45449e-08
1.99613e-07
-3.45471e-08
1.97309e-07
-3.45507e-08
1.95094e-07
-3.45573e-08
1.92966e-07
-3.45659e-08
1.90914e-07
-3.45865e-08
-3.46194e-08
7.54518e-07
1.06387e-07
7.46571e-07
1.06537e-07
7.38632e-07
1.06635e-07
7.30704e-07
1.06697e-07
7.22797e-07
1.06731e-07
7.14922e-07
1.06751e-07
7.07096e-07
1.06758e-07
6.99327e-07
1.06766e-07
6.9163e-07
1.06776e-07
6.84009e-07
1.06813e-07
1.06872e-07
6.31535e-07
8.80334e-08
6.24487e-07
8.81842e-08
6.17528e-07
8.83202e-08
6.10621e-07
8.84388e-08
6.03744e-07
8.85332e-08
5.9689e-07
8.8612e-08
5.90071e-07
8.86726e-08
5.83299e-07
8.86984e-08
5.76617e-07
8.86983e-08
5.70058e-07
8.87162e-08
8.87872e-08
4.43386e-07
6.24594e-08
4.38467e-07
6.25845e-08
4.3372e-07
6.27138e-08
4.29103e-07
6.28438e-08
4.24584e-07
6.29781e-08
4.20129e-07
6.31124e-08
4.15719e-07
6.3241e-08
4.1135e-07
6.33563e-08
4.06997e-07
6.34318e-08
4.02644e-07
6.34696e-08
3.98322e-07
6.35278e-08
6.36927e-08
2.28992e-07
3.34413e-08
2.26044e-07
3.35137e-08
2.23229e-07
3.35608e-08
2.20531e-07
3.35873e-08
2.17939e-07
3.36037e-08
2.15445e-07
3.36294e-08
2.13037e-07
3.36627e-08
2.10714e-07
3.37044e-08
2.08445e-07
3.37432e-08
2.06196e-07
3.37751e-08
2.03949e-07
3.38091e-08
3.38738e-08
7.22749e-08
7.1209e-08
7.01868e-08
6.92031e-08
6.82554e-08
6.73399e-08
6.64555e-08
6.56092e-08
6.47951e-08
6.40043e-08
6.3227e-08
)
;

boundaryField
{
    inlet
    {
        type            calculated;
        value           nonuniform List<scalar> 0();
    }
    ami1
    {
        type            cyclicAMI;
        value           nonuniform List<scalar> 0();
    }
    walls
    {
        type            calculated;
        value           nonuniform List<scalar> 
259
(
-1.84387e-14
-2.43942e-14
-2.90979e-14
-8.14514e-22
-6.40674e-15
-1.28555e-14
-1.84387e-14
-2.43942e-14
-2.90979e-14
-8.14514e-22
-6.40674e-15
-1.28555e-14
-1.84387e-14
-2.43942e-14
-2.90979e-14
-8.14514e-22
-6.40674e-15
-1.28555e-14
-1.84387e-14
-2.43942e-14
-2.90979e-14
-8.32609e-22
-6.40674e-15
-1.28555e-14
-1.84387e-14
-2.43942e-14
-2.90979e-14
-8.14514e-22
-6.40674e-15
-1.28555e-14
-1.84387e-14
-2.43942e-14
-2.90979e-14
-8.14514e-22
-6.40674e-15
-1.28555e-14
-1.84387e-14
-2.43942e-14
-2.90979e-14
-8.14256e-22
-6.40674e-15
-1.28555e-14
-1.84387e-14
-2.43942e-14
-2.90979e-14
-8.14256e-22
-6.40674e-15
-1.28555e-14
-1.84387e-14
-2.43942e-14
-2.90979e-14
-8.14256e-22
-6.40674e-15
-1.28555e-14
-1.84387e-14
-2.43942e-14
-2.90979e-14
-8.14256e-22
-6.40674e-15
-1.28555e-14
-1.84387e-14
-2.43942e-14
-2.90979e-14
-5.59381e-22
-6.40674e-15
-1.28555e-14
-1.84387e-14
-2.43942e-14
-2.90979e-14
2.90979e-14
2.43942e-14
1.84387e-14
1.28555e-14
6.40674e-15
-8.14514e-22
-6.40674e-15
-1.28555e-14
-1.84387e-14
-2.43942e-14
-2.90979e-14
2.90979e-14
2.43942e-14
1.84387e-14
1.28555e-14
6.40674e-15
-8.14514e-22
-6.40674e-15
-1.28555e-14
-1.84387e-14
-2.43942e-14
-2.90979e-14
2.90979e-14
2.43942e-14
1.84387e-14
1.28555e-14
6.40674e-15
-8.14514e-22
-6.40674e-15
-1.28555e-14
-1.84387e-14
-2.43942e-14
-2.90979e-14
2.90979e-14
2.43942e-14
1.84387e-14
1.28555e-14
6.40674e-15
-8.14514e-22
-6.40674e-15
-1.28555e-14
-1.84387e-14
-2.43942e-14
-2.90979e-14
2.90979e-14
2.43942e-14
1.84387e-14
1.28555e-14
6.40674e-15
-8.32609e-22
-6.40674e-15
-1.28555e-14
-1.84387e-14
-2.43942e-14
-2.90979e-14
2.90979e-14
2.43942e-14
1.84387e-14
1.28555e-14
6.40674e-15
-8.14514e-22
-6.40674e-15
-1.28555e-14
-1.84387e-14
-2.43942e-14
-2.90979e-14
2.90979e-14
2.43942e-14
1.84387e-14
1.28555e-14
6.40674e-15
-8.14514e-22
-6.40674e-15
-1.28555e-14
-1.84387e-14
-2.43942e-14
-2.90979e-14
2.90979e-14
2.43942e-14
1.84387e-14
1.28555e-14
6.40674e-15
-8.14256e-22
-6.40674e-15
-1.28555e-14
-1.84387e-14
-2.43942e-14
-2.90979e-14
2.90979e-14
2.43942e-14
1.84387e-14
1.28555e-14
6.40674e-15
-8.14256e-22
-6.40674e-15
-1.28555e-14
-1.84387e-14
-2.43942e-14
-2.90979e-14
2.90979e-14
2.43942e-14
1.84387e-14
1.28555e-14
6.40674e-15
-8.14256e-22
-6.40674e-15
-1.28555e-14
-1.84387e-14
-2.43942e-14
-2.90979e-14
2.90979e-14
2.43942e-14
1.84387e-14
1.28555e-14
6.40674e-15
-8.14256e-22
-6.40674e-15
-1.28555e-14
-1.84387e-14
-2.43942e-14
-2.90979e-14
2.90979e-14
2.43942e-14
1.84387e-14
1.28555e-14
6.40674e-15
-5.59381e-22
-6.40674e-15
-1.28555e-14
-1.84387e-14
-2.43942e-14
-2.90979e-14
1.84387e-14
2.43942e-14
2.90979e-14
6.40674e-15
1.28555e-14
1.84387e-14
2.43942e-14
2.90979e-14
6.40674e-15
1.28555e-14
1.84387e-14
2.43942e-14
2.90979e-14
6.40674e-15
1.28555e-14
1.84387e-14
2.43942e-14
2.90979e-14
6.40674e-15
1.28555e-14
1.84387e-14
2.43942e-14
2.90979e-14
6.40674e-15
1.28555e-14
1.84387e-14
2.43942e-14
2.90979e-14
6.40674e-15
1.28555e-14
1.84387e-14
2.43942e-14
2.90979e-14
6.40674e-15
1.28555e-14
1.84387e-14
2.43942e-14
2.90979e-14
6.40674e-15
1.28555e-14
1.84387e-14
2.43942e-14
2.90979e-14
6.40674e-15
1.28555e-14
1.84387e-14
2.43942e-14
2.90979e-14
6.40674e-15
1.28555e-14
1.84387e-14
2.43942e-14
2.90979e-14
6.40674e-15
1.28555e-14
1.84387e-14
2.43942e-14
2.90979e-14
)
;
    }
    ami2
    {
        type            cyclicAMI;
        value           nonuniform List<scalar> 0();
    }
    outlet
    {
        type            calculated;
        value           nonuniform List<scalar> 0();
    }
    procBoundary9to0
    {
        type            processor;
        value           nonuniform List<scalar> 
40
(
-7.88936e-07
-7.21822e-07
-5.80374e-07
9.30238e-08
-4.04451e-07
-2.17796e-07
-7.34094e-08
-1.21095e-06
-1.14752e-06
-1.00531e-06
8.19836e-08
-8.00828e-07
-5.38727e-07
-2.32099e-07
-1.49319e-06
-1.43899e-06
-1.30509e-06
6.9701e-08
-1.10076e-06
-8.2953e-07
-4.48536e-07
-1.69428e-06
-1.64781e-06
-1.52143e-06
5.31516e-08
-1.32032e-06
-1.04879e-06
-6.46214e-07
-1.77572e-06
-1.65279e-06
3.26425e-08
-1.4521e-06
-1.17972e-06
-7.70476e-07
-1.8183e-06
-1.69428e-06
9.27462e-09
-1.48914e-06
-1.2111e-06
-7.96832e-07
)
;
    }
    procBoundary9to1
    {
        type            processor;
        value           nonuniform List<scalar> 
30
(
-1.77573e-06
-1.64784e-06
-1.52073e-08
-1.4351e-06
-1.14762e-06
-7.29204e-07
-1.6528e-06
-1.52146e-06
-3.89774e-08
-1.30179e-06
-1.00551e-06
-5.86813e-07
-1.45585e-06
-1.32339e-06
-5.98322e-08
-1.10081e-06
-8.0087e-07
-4.0438e-07
-1.17927e-06
-1.04787e-06
-7.67148e-08
-8.29495e-07
-5.38717e-07
-2.17762e-07
-7.62481e-07
-6.3874e-07
-8.78333e-08
-4.48552e-07
-2.32082e-07
-7.33957e-08
)
;
    }
    procBoundary9to7
    {
        type            processor;
        value           nonuniform List<scalar> 
59
(
7.03244e-07
6.44758e-07
5.19515e-07
3.57467e-07
1.88952e-07
6.2476e-08
1.20343e-06
1.14281e-06
1.00221e-06
7.8747e-07
5.03485e-07
2.0176e-07
1.53347e-06
1.4794e-06
1.34158e-06
1.12342e-06
8.13643e-07
3.94092e-07
1.76019e-06
1.71148e-06
1.57611e-06
1.35676e-06
1.03756e-06
5.63611e-07
1.85111e-06
1.71593e-06
1.49414e-06
1.17029e-06
6.76394e-07
1.89737e-06
1.76015e-06
1.53344e-06
1.20346e-06
7.03444e-07
1.85114e-06
1.71153e-06
1.47945e-06
1.14287e-06
6.44865e-07
1.71598e-06
1.57618e-06
1.34165e-06
1.00227e-06
5.19564e-07
1.49417e-06
1.3568e-06
1.12346e-06
7.87515e-07
3.57496e-07
1.17032e-06
1.03758e-06
8.13668e-07
5.03519e-07
1.88965e-07
6.76492e-07
5.63646e-07
3.94133e-07
2.01781e-07
6.24814e-08
)
;
    }
    procBoundary9to8
    {
        type            processor;
        value           nonuniform List<scalar> 
132
(
1.17017e-07
1.17119e-07
1.17158e-07
1.17153e-07
1.17122e-07
1.17078e-07
1.1703e-07
1.16985e-07
1.16945e-07
1.16923e-07
1.16943e-07
1.02067e-07
1.0223e-07
1.02326e-07
1.02366e-07
1.02366e-07
1.02339e-07
1.02293e-07
1.0224e-07
1.02187e-07
1.02142e-07
1.02092e-07
8.16852e-08
8.17901e-08
8.18635e-08
8.19079e-08
8.19275e-08
8.19297e-08
8.19196e-08
8.19012e-08
8.18785e-08
8.18463e-08
8.18033e-08
5.67493e-08
5.68051e-08
5.68503e-08
5.68856e-08
5.69121e-08
5.69321e-08
5.69471e-08
5.69581e-08
5.69645e-08
5.69636e-08
5.69592e-08
5.8714e-09
5.81116e-09
5.75241e-09
5.69501e-09
5.63894e-09
5.58402e-09
5.53001e-09
5.47728e-09
5.42618e-09
5.38071e-09
5.32983e-09
3.19751e-08
3.19349e-08
3.19004e-08
3.18715e-08
3.18478e-08
3.18288e-08
3.18139e-08
3.18029e-08
3.17955e-08
3.17925e-08
3.17905e-08
2.0125e-09
1.98551e-09
1.95977e-09
1.93523e-09
1.91193e-09
1.8899e-09
1.86912e-09
1.84973e-09
1.83193e-09
1.81661e-09
1.80073e-09
-2.8216e-08
-2.82444e-08
-2.8272e-08
-2.82991e-08
-2.83253e-08