/*--------------------------------*- C++ -*----------------------------------*\
| =========                 |                                                 |
| \\      /  F ield         | OpenFOAM: The Open Source CFD Toolbox           |
|  \\    /   O peration     | Version:  2212                                  |
|   \\  /    A nd           | Website:  www.openfoam.com                      |
|    \\/     M anipulation  |                                                 |
\*---------------------------------------------------------------------------*/
FoamFile
{
    version     2.0;
    format      ascii;
    arch        "LSB;label=32;scalar=64";
    class       volScalarField;
    location    "0.45";
    object      epsilon;
}
// * * * * * * * * * * * * * * * * * * * * * * * * * * * * * * * * * * * * * //

dimensions      [0 2 -3 0 0 0 0];

internalField   nonuniform List<scalar> 
6840
(
90.5034
12.1248
4.38868
2.46658
1.63311
1.18314
0.902043
0.720753
0.59493
0.502927
0.433677
0.380525
0.338415
0.304332
0.27657
0.254672
0.237862
0.224054
0.215989
0.21165
58.5856
14.5696
6.08946
3.33296
2.08224
1.4028
0.99894
0.7408
0.566709
0.445262
0.357963
0.293701
0.245292
0.208564
0.179936
0.158101
0.141534
0.128487
0.118014
0.110217
45.0226
13.4729
5.73074
3.07323
1.86023
1.22705
0.873722
0.650056
0.497468
0.39033
0.312533
0.254718
0.211346
0.178406
0.1531
0.13343
0.118019
0.105865
0.0962772
0.0894408
38.7028
13.0541
5.74335
3.08733
1.88066
1.22756
0.869629
0.645663
0.493044
0.385514
0.308336
0.250783
0.207304
0.174061
0.148368
0.128323
0.11255
0.100022
0.0900105
0.082542
36.0571
12.8529
5.76644
3.10212
1.89476
1.22675
0.866652
0.644256
0.492696
0.384669
0.307084
0.249611
0.20616
0.172891
0.147139
0.127017
0.111164
0.0985873
0.0886474
0.0819204
36.0571
12.8529
5.76644
3.10212
1.89476
1.22676
0.86666
0.644267
0.49271
0.384687
0.30711
0.249646
0.206208
0.172957
0.147232
0.12715
0.111356
0.098861
0.0890189
0.0822019
38.7028
13.0541
5.74336
3.08734
1.88067
1.22758
0.869647
0.645687
0.493075
0.385555
0.308394
0.250861
0.207413
0.174216
0.148589
0.128644
0.113024
0.100744
0.0910907
0.0838562
45.0226
13.4729
5.73075
3.07324
1.86024
1.22707
0.873739
0.650078
0.497498
0.39038
0.312597
0.254804
0.211466
0.178579
0.15335
0.133808
0.118594
0.10677
0.0977517
0.0914493
58.5856
14.5696
6.08946
3.33297
2.08224
1.40281
0.998945
0.740807
0.566718
0.445281
0.35799
0.293742
0.24536
0.208666
0.180144
0.15842
0.142073
0.129569
0.120345
0.114619
90.5034
12.1248
4.38868
2.46658
1.63311
1.18314
0.902042
0.720754
0.594931
0.502926
0.433678
0.380526
0.338415
0.304332
0.27657
0.254674
0.237865
0.224058
0.215996
0.211658
58.5856
14.5696
6.08946
3.33296
2.08224
1.40281
0.998944
0.740806
0.566718
0.44528
0.35799
0.293742
0.24536
0.208666
0.180143
0.158417
0.14207
0.129565
0.120341
0.114614
16.5373
9.49238
5.0127
2.8606
1.75748
1.14764
0.787029
0.562227
0.415666
0.31642
0.24705
0.197265
0.160695
0.133344
0.11265
0.0968448
0.0843498
0.07448
0.0683491
0.0644816
13.6679
8.73671
5.0774
3.05388
1.92224
1.26612
0.869357
0.618758
0.454176
0.342388
0.264186
0.208094
0.167007
0.136365
0.113067
0.0951696
0.0812286
0.0703099
0.0620009
0.0554692
12.9054
8.33993
5.07879
3.15547
2.02775
1.35123
0.933595
0.666566
0.489728
0.36889
0.284063
0.223053
0.178262
0.144806
0.11944
0.099959
0.0848432
0.0730188
0.0636955
0.056267
12.6882
8.1544
5.07113
3.20038
2.0794
1.39508
0.967885
0.692823
0.509807
0.38429
0.295934
0.232274
0.18547
0.150462
0.123886
0.103452
0.0875799
0.0751466
0.0653474
0.0576427
12.6882
8.1544
5.07113
3.20039
2.0794
1.39509
0.967891
0.69283
0.509816
0.3843
0.295947
0.23229
0.185491
0.150491
0.123919
0.103489
0.087622
0.075193
0.0653915
0.0576907
12.9054
8.33993
5.07879
3.15547
2.02776
1.35124
0.933606
0.666579
0.489744
0.368911
0.28409
0.223087
0.178306
0.144855
0.119499
0.100032
0.0849284
0.0731104
0.0637438
0.0563752
13.6679
8.73671
5.07741
3.05388
1.92225
1.26613
0.869365
0.618767
0.454187
0.342403
0.264205
0.208119
0.167039
0.136405
0.113113
0.0952241
0.0812894
0.0703692
0.062057
0.0565974
16.5373
9.49238
5.0127
2.8606
1.75748
1.14764
0.787029
0.562227
0.415666
0.31642
0.247051
0.197265
0.160696
0.133346
0.11265
0.0968443
0.0843487
0.0744799
0.0683495
0.0644818
58.5856
14.5696
6.08946
3.33296
2.08224
1.4028
0.99894
0.7408
0.566709
0.445263
0.357963
0.293701
0.245291
0.208563
0.179936
0.158101
0.141536
0.128489
0.118017
0.11022
45.0226
13.4729
5.73075
3.07324
1.86024
1.22707
0.873739
0.650078
0.497497
0.39038
0.312597
0.254804
0.211465
0.178577
0.153348
0.133805
0.118591
0.106767
0.0977481
0.0914446
13.6679
8.73671
5.07741
3.05388
1.92225
1.26613
0.869365
0.618767
0.454187
0.342402
0.264205
0.208118
0.167036
0.136402
0.113114
0.0952254
0.0812908
0.0703703
0.0620576
0.0566014
11.8601
7.76395
4.99734
3.24077
2.1442
1.45501
1.01415
0.725719
0.5323
0.399385
0.305912
0.238768
0.189611
0.153013
0.125346
0.104156
0.0877405
0.074933
0.0648986
0.0571116
11.6229
7.60535
5.01031
3.34209
2.26849
1.57144
1.11239
0.804647
0.594308
0.44769
0.343487
0.268053
0.212514
0.170995
0.139521
0.115362
0.096629
0.08198
0.0704501
0.0613487
11.5726
7.56718
5.02065
3.38345
2.32103
1.62328
1.15831
0.843207
0.62578
0.473001
0.363728
0.284228
0.22546
0.181385
0.147887
0.122118
0.102102
0.0864222
0.0740543
0.0642374
11.5726
7.56718
5.02065
3.38345
2.32104
1.62328
1.15832
0.843212
0.625786
0.473008
0.363737
0.28424
0.225476
0.181407
0.147912
0.122144
0.102131
0.0864538
0.0740878
0.0642924
11.6229
7.60535
5.01031
3.3421
2.26849
1.57144
1.1124
0.804654
0.594317
0.447702
0.343502
0.268074
0.212546
0.171031
0.139552
0.1154
0.096674
0.0820314
0.0705049
0.0614318
11.8601
7.76395
4.99734
3.24077
2.1442
1.45501
1.01415
0.725719
0.5323
0.399386
0.305913
0.238771
0.189618
0.153019
0.125343
0.104151
0.0877363
0.0749293
0.0648951
0.0571037
13.6679
8.73671
5.0774
3.05388
1.92224
1.26612
0.869357
0.618758
0.454176
0.342388
0.264187
0.208095
0.167009
0.136368
0.113066
0.095167
0.0812258
0.0703076
0.0619992
0.055466
45.0226
13.4729
5.73074
3.07323
1.86023
1.22705
0.873722
0.650056
0.497468
0.39033
0.312533
0.254718
0.211346
0.178405
0.153098
0.133429
0.11802
0.105866
0.0962789
0.0894428
38.7028
13.0541
5.74336
3.08734
1.88067
1.22758
0.869647
0.645686
0.493074
0.385554
0.308394
0.25086
0.207412
0.174213
0.148585
0.128641
0.113022
0.100741
0.0910885
0.0838539
12.9054
8.33993
5.07879
3.15547
2.02776
1.35124
0.933606
0.666579
0.489744
0.368911
0.284089
0.223086
0.178303
0.144857
0.119502
0.100034
0.0849295
0.0731112
0.0637444
0.0563769
11.6229
7.60535
5.01031
3.3421
2.26849
1.57144
1.1124
0.804654
0.594317
0.447702
0.343501
0.268071
0.212537
0.171023
0.139555
0.115403
0.0966773
0.0820345
0.0705086
0.0614422
11.4933
7.5119
5.02843
3.434
2.38921
1.69281
1.22113
0.89652
0.669518
0.508232
0.391841
0.30658
0.243236
0.195557
0.159225
0.131225
0.109445
0.0923647
0.0788718
0.0681277
11.4757
7.50136
5.04297
3.47002
2.43665
1.74299
1.26864
0.938732
0.705625
0.538416
0.416736
0.326966
0.259877
0.209133
0.170312
0.140294
0.116883
0.0984762
0.0838902
0.0721635
11.4757
7.50136
5.04297
3.47002
2.43665
1.74299
1.26864
0.938733
0.705627
0.538418
0.416739
0.326971
0.259884
0.209144
0.170322
0.140302
0.11689
0.0984838
0.0838987
0.0721852
11.4933
7.5119
5.02843
3.434
2.38921
1.69281
1.22113
0.896521
0.669519
0.508233
0.391842
0.306585
0.243248
0.195566
0.15922
0.131219
0.10944
0.0923599
0.0788658
0.0681131
11.6229
7.60535
5.01031
3.34209
2.26849
1.57144
1.11239
0.804647
0.594308
0.447691
0.343488
0.268057
0.212523
0.171001
0.139515
0.115355
0.0966227
0.0819744
0.0704444
0.0613367
12.9054
8.33993
5.07879
3.15547
2.02775
1.35123
0.933595
0.666566
0.489728
0.36889
0.284063
0.223054
0.178265
0.14481
0.119437
0.0999552
0.0848393
0.0730154
0.0636928
0.0562634
38.7028
13.0541
5.74335
3.08733
1.88066
1.22756
0.869629
0.645663
0.493044
0.385514
0.308336
0.250783
0.207304
0.17406
0.148367
0.128323
0.112551
0.100023
0.0900121
0.0825435
36.0571
12.8529
5.76644
3.10212
1.89476
1.22676
0.866659
0.644266
0.492709
0.384687
0.30711
0.249645
0.206207
0.172957
0.147233
0.127151
0.111357
0.0988617
0.0890193
0.082202
12.6882
8.1544
5.07113
3.20039
2.0794
1.39509
0.967891
0.692829
0.509815
0.3843
0.295947
0.232289
0.185489
0.150485
0.123915
0.103487
0.0876211
0.0751928
0.0653918
0.0576916
11.5726
7.56718
5.02065
3.38345
2.32104
1.62328
1.15832
0.843212
0.625786
0.473007
0.363737
0.284239
0.225473
0.1814
0.147905
0.122141
0.10213
0.086454
0.0740895
0.0642987
11.4757
7.50136
5.04297
3.47002
2.43665
1.74299
1.26864
0.938733
0.705627
0.538418
0.416738
0.326969
0.25988
0.209137
0.170316
0.1403
0.11689
0.0984849
0.0839024
0.0721979
11.4647
7.49683
5.0577
3.50272
2.48037
1.79068
1.31522
0.981308
0.742942
0.570257
0.443448
0.349146
0.27819
0.224216
0.182729
0.150526
0.125329
0.105461
0.0896612
0.0768678
11.4647
7.49683
5.0577
3.50272
2.48037
1.79068
1.31522
0.981308
0.742942
0.570257
0.443448
0.349148
0.278193
0.224222
0.182733
0.150527
0.125329
0.105459
0.089659
0.0768619
11.4757
7.50136
5.04297
3.47002
2.43665
1.74299
1.26864
0.938732
0.705626
0.538417
0.416738
0.326971
0.259889
0.209141
0.170304
0.140287
0.116876
0.098471
0.0838853
0.0721565
11.5726
7.56718
5.02065
3.38345
2.32103
1.62328
1.15831
0.843207
0.625781
0.473001
0.36373
0.284232
0.225469
0.18139
0.147878
0.122109
0.102094
0.0864157
0.0740486
0.0642293
12.6882
8.1544
5.07113
3.20038
2.0794
1.39508
0.967886
0.692823
0.509808
0.38429
0.295935
0.232275
0.185474
0.150465
0.123883
0.103447
0.0875751
0.0751426
0.0653442
0.0576392
36.0571
12.8529
5.76644
3.10212
1.89476
1.22675
0.866652
0.644256
0.492696
0.384669
0.307084
0.249611
0.20616
0.172891
0.147138
0.127017
0.111165
0.0985887
0.0886492
0.0819219
36.0571
12.8529
5.76644
3.10212
1.89476
1.22675
0.866652
0.644256
0.492696
0.384669
0.307084
0.249611
0.20616
0.172891
0.147139
0.127017
0.111165
0.098588
0.0886481
0.0819204
12.6882
8.1544
5.07113
3.20038
2.0794
1.39508
0.967885
0.692823
0.509807
0.38429
0.295934
0.232274
0.18547
0.150461
0.123885
0.103451
0.0875793
0.0751464
0.0653474
0.0576428
11.5726
7.56718
5.02065
3.38345
2.32103
1.62328
1.15831
0.843207
0.62578
0.473
0.363728
0.284228
0.225459
0.181383
0.147885
0.122117
0.102101
0.0864218
0.0740543
0.0642374
11.4757
7.50136
5.04297
3.47002
2.43665
1.74299
1.26864
0.938732
0.705625
0.538416
0.416736
0.326966
0.259876
0.209132
0.170311
0.140294
0.116882
0.0984764
0.0838911
0.0721671
11.4647
7.49683
5.0577
3.50272
2.48037
1.79068
1.31522
0.981308
0.742942
0.570257
0.443448
0.349146
0.27819
0.224216
0.182729
0.150527
0.125329
0.105461
0.0896615
0.0768684
11.4647
7.49683
5.0577
3.50272
2.48037
1.79068
1.31522
0.981308
0.742942
0.570257
0.443448
0.349148
0.278193
0.224222
0.182733
0.150528
0.125329
0.10546
0.0896603
0.076867
11.4757
7.50136
5.04297
3.47002
2.43665
1.74299
1.26864
0.938734
0.705628
0.538419
0.416741
0.326974
0.259893
0.209146
0.17031
0.140294
0.116884
0.0984799
0.0838971
0.0721885
11.5726
7.56718
5.02065
3.38345
2.32104
1.62328
1.15832
0.843212
0.625786
0.473008
0.363739
0.284243
0.225483
0.181407
0.147899
0.122134
0.102123
0.0864479
0.0740837
0.0642901
12.6882
8.1544
5.07113
3.20039
2.0794
1.39509
0.967891
0.69283
0.509816
0.3843
0.295947
0.232291
0.185493
0.150489
0.123912
0.103483
0.0876169
0.075189
0.0653885
0.0576879
36.0571
12.8529
5.76644
3.10212
1.89476
1.22676
0.86666
0.644267
0.49271
0.384687
0.30711
0.249646
0.206208
0.172957
0.147232
0.127151
0.111357
0.0988626
0.0890208
0.0822039
38.7028
13.0541
5.74335
3.08733
1.88066
1.22756
0.869629
0.645663
0.493044
0.385514
0.308336
0.250783
0.207304
0.174061
0.148368
0.128324
0.112551
0.100023
0.0900111
0.0825421
12.9054
8.33993
5.07879
3.15547
2.02775
1.35123
0.933595
0.666566
0.489728
0.36889
0.284063
0.223053
0.178262
0.144806
0.11944
0.0999588
0.084843
0.0730187
0.0636954
0.0562661
11.6229
7.60535
5.01031
3.34209
2.26849
1.57144
1.11239
0.804647
0.594308
0.447691
0.343487
0.268053
0.212514
0.170995
0.139522
0.115362
0.0966288
0.0819797
0.0704489
0.0613419
11.4933
7.5119
5.02843
3.434
2.38921
1.69281
1.22113
0.896521
0.669519
0.508233
0.391841
0.306581
0.243237
0.195558
0.159226
0.131225
0.109446
0.0923644
0.07887
0.0681182
11.4757
7.50136
5.04297
3.47002
2.43665
1.74299
1.26864
0.938734
0.705627
0.538418
0.416739
0.32697
0.259881
0.209139
0.170319
0.140302
0.116891
0.0984849
0.0839004
0.0721886
11.4757
7.50136
5.04297
3.47002
2.43665
1.74299
1.26864
0.938732
0.705625
0.538416
0.416737
0.326968
0.259881
0.20914
0.170317
0.140296
0.116883
0.0984758
0.0838896
0.0721635
11.4933
7.5119
5.02843
3.434
2.38921
1.69281
1.22113
0.89652
0.669518
0.508233
0.391842
0.306585
0.243248
0.195567
0.159221
0.13122
0.10944
0.0923601
0.0788672
0.0681195
11.6229
7.60535
5.01031
3.3421
2.26849
1.57144
1.1124
0.804654
0.594317
0.447702
0.343502
0.268075
0.212546
0.17103
0.13955
0.115397
0.096671
0.0820287
0.0705032
0.0614335
12.9054
8.33993
5.07879
3.15547
2.02776
1.35124
0.933606
0.666579
0.489744
0.368911
0.28409
0.223087
0.178307
0.144861
0.1195
0.10003
0.0849256
0.0731076
0.0637414
0.0563734
38.7028
13.0541
5.74336
3.08734
1.88067
1.22758
0.869648
0.645687
0.493075
0.385555
0.308395
0.250861
0.207412
0.174212
0.148585
0.128641
0.113022
0.100743
0.0910907
0.0838569
45.0226
13.4729
5.73074
3.07323
1.86023
1.22705
0.873722
0.650056
0.497468
0.39033
0.312533
0.254718
0.211346
0.178406
0.1531
0.13343
0.11802
0.105866
0.0962779
0.0894415
13.6679
8.73671
5.0774
3.05388
1.92224
1.26612
0.869358
0.618758
0.454176
0.342388
0.264186
0.208095
0.167007
0.136365
0.113068
0.0951695
0.0812284
0.0703096
0.0620006
0.0554677
11.8601
7.76395
4.99734
3.24077
2.1442
1.45501
1.01415
0.725719
0.5323
0.399386
0.305912
0.238769
0.189612
0.153014
0.125347
0.104156
0.08774
0.0749322
0.0648974
0.0571059
11.6229
7.60535
5.01031
3.3421
2.26849
1.57144
1.1124
0.804654
0.594317
0.447702
0.343501
0.268072
0.212537
0.171024
0.139557
0.115404
0.096677
0.0820336
0.0705065
0.061433
11.5726
7.56718
5.02065
3.38345
2.32104
1.62328
1.15832
0.843212
0.625786
0.473008
0.363737
0.28424
0.225474
0.181402
0.147908
0.122143
0.10213
0.0864534
0.0740875
0.0642914
11.5726
7.56718
5.02065
3.38345
2.32103
1.62328
1.15831
0.843207
0.62578
0.473001
0.363729
0.284229
0.225463
0.181391
0.147892
0.12212
0.102102
0.0864207
0.0740523
0.0642324
11.6229
7.60535
5.01031
3.34209
2.26849
1.57144
1.11239
0.804646
0.594308
0.447691
0.343488
0.268056
0.212523
0.171004
0.139518
0.115358
0.0966245
0.0819757
0.0704456
0.0613387
11.8601
7.76395
4.99734
3.24077
2.1442
1.45501
1.01415
0.725719
0.5323
0.399386
0.305913
0.238771
0.189618
0.15302
0.125342
0.10415
0.0877351
0.074928
0.0648941
0.0571037
13.6679
8.73671
5.07741
3.05388
1.92225
1.26613
0.869365
0.618767
0.454187
0.342403
0.264205
0.208119
0.167039
0.136405
0.113112
0.0952224
0.0812875
0.0703674
0.0620555
0.0565984
45.0226
13.4729
5.73075
3.07324
1.86024
1.22707
0.873739
0.650078
0.497498
0.390381
0.312598
0.254805
0.211466
0.178577
0.153348
0.133806
0.118592
0.106769
0.0977517
0.09145
58.5856
14.5696
6.08946
3.33296
2.08224
1.4028
0.99894
0.7408
0.56671
0.445262
0.357963
0.293701
0.245292
0.208565
0.179937
0.158102
0.141535
0.128488
0.118016
0.110219
16.5373
9.49238
5.0127
2.8606
1.75748
1.14764
0.787029
0.562227
0.415666
0.31642
0.247051
0.197265
0.160695
0.133345
0.11265
0.0968449
0.0843497
0.0744799
0.0683489
0.0644817
13.6679
8.73671
5.07741
3.05388
1.92225
1.26613
0.869365
0.618767
0.454187
0.342403
0.264205
0.208118
0.167037
0.136402
0.113114
0.0952251
0.08129
0.0703694
0.062057
0.0565972
12.9054
8.33993
5.07879
3.15547
2.02776
1.35124
0.933606
0.66658
0.489744
0.368911
0.284089
0.223086
0.178304
0.144857
0.119502
0.100033
0.0849285
0.07311
0.0637432
0.0563742
12.6882
8.1544
5.07113
3.20039
2.0794
1.39509
0.967891
0.69283
0.509816
0.3843
0.295947
0.23229
0.18549
0.150486
0.123916
0.103487
0.0876202
0.0751914
0.0653902
0.0576889
12.6882
8.1544
5.07113
3.20038
2.0794
1.39508
0.967886
0.692823
0.509807
0.38429
0.295935
0.232274
0.185472
0.150467
0.12389
0.103452
0.0875785
0.0751448
0.0653457
0.0576401
12.9054
8.33993
5.07879
3.15547
2.02775
1.35123
0.933595
0.666566
0.489728
0.36889
0.284063
0.223054
0.178264
0.144804
0.119436
0.0999558
0.0848403
0.0730163
0.0636934
0.0562639
13.6679
8.73671
5.0774
3.05388
1.92224
1.26612
0.869358
0.618758
0.454176
0.342388
0.264187
0.208095
0.167009
0.136367
0.113066
0.0951669
0.0812258
0.0703075
0.0619992
0.0554662
16.5373
9.49238
5.0127
2.8606
1.75748
1.14764
0.787029
0.562227
0.415666
0.31642
0.247051
0.197265
0.160696
0.133346
0.11265
0.0968438
0.0843483
0.0744796
0.0683495
0.0644822
58.5856
14.5696
6.08946
3.33297
2.08224
1.40281
0.998945
0.740807
0.566719
0.445282
0.357991
0.293743
0.245361
0.208666
0.180144
0.158419
0.142073
0.129569
0.120347
0.114621
90.5034
12.1248
4.38868
2.46658
1.63311
1.18314
0.902043
0.720753
0.59493
0.502928
0.433677
0.380525
0.338415
0.304333
0.276571
0.254674
0.237865
0.224057
0.215994
0.211656
58.5856
14.5696
6.08946
3.33297
2.08224
1.40281
0.998944
0.740807
0.566718
0.445281
0.35799
0.293742
0.24536
0.208666
0.180144
0.158418
0.142071
0.129567
0.120343
0.114617
45.0226
13.4729
5.73075
3.07324
1.86024
1.22707
0.873739
0.650078
0.497497
0.39038
0.312597
0.254804
0.211466
0.178578
0.153349
0.133806
0.118592
0.106768
0.0977498
0.0914477
38.7028
13.0541
5.74336
3.08734
1.88067
1.22758
0.869647
0.645687
0.493075
0.385555
0.308394
0.250861
0.207412
0.174213
0.148586
0.128641
0.113022
0.100742
0.0910892
0.0838554
36.0571
12.8529
5.76644
3.10212
1.89476
1.22676
0.86666
0.644267
0.49271
0.384687
0.30711
0.249646
0.206208
0.172958
0.147233
0.127151
0.111357
0.0988616
0.0890195
0.0822026
36.0571
12.8529
5.76644
3.10212
1.89476
1.22675
0.866653
0.644257
0.492697
0.384669
0.307085
0.249611
0.206161
0.172891
0.147138
0.127016
0.111164
0.0985877
0.0886483
0.081921
38.7028
13.0541
5.74335
3.08733
1.88067
1.22756
0.869629
0.645664
0.493044
0.385514
0.308336
0.250783
0.207305
0.174064
0.148371
0.128326
0.112553
0.100026
0.0900136
0.0825445
45.0226
13.4729
5.73074
3.07323
1.86023
1.22705
0.873722
0.650056
0.497468
0.390331
0.312534
0.254719
0.211347
0.178407
0.153101
0.133432
0.118022
0.105869
0.0962812
0.0894447
58.5856
14.5696
6.08946
3.33296
2.08224
1.4028
0.998941
0.7408
0.56671
0.445264
0.357964
0.293702
0.245292
0.208565
0.179938
0.158104
0.141538
0.128492
0.118019
0.110223
90.5034
12.1248
4.38868
2.46658
1.63311
1.18314
0.902042
0.720754
0.594931
0.502926
0.433679
0.380527
0.338416
0.304333
0.276571
0.254675
0.237867
0.22406
0.215998
0.211661
0.35853
0.292151
0.246364
0.225876
0.216679
0.212278
0.209854
0.208195
0.207054
0.206245
0.205665
0.20525
0.204972
0.204806
0.20472
0.204695
0.204712
0.20476
0.204828
0.204909
0.204994
0.20508
0.20516
0.205227
0.205281
0.205322
0.205356
0.205387
0.205415
0.205434
0.205445
0.205449
0.205448
0.205459
0.205413
0.205434
0.205445
0.205453
0.20546
0.205466
0.15144
0.127233
0.112739
0.105631
0.101698
0.0992347
0.097688
0.0966437
0.0959121
0.0953907
0.0950143
0.0947468
0.0945547
0.0944293
0.0943556
0.0943227
0.0943239
0.0943497
0.0943924
0.0944455
0.094503
0.0945593
0.0946087
0.0946467
0.0946787
0.0947082
0.094736
0.0947608
0.0947789
0.0947878
0.0947941
0.0948001
0.0948061
0.094805
0.0947757
0.0947909
0.0948007
0.0948102
0.0948221
0.0948361
0.112416
0.095377
0.0871641
0.0815182
0.0778254
0.0753303
0.0736008
0.0723741
0.071487
0.0708418
0.0703729
0.0700335
0.0697899
0.0696197
0.0695142
0.069439
0.0694158
0.0694174
0.0694368
0.0694679
0.0695054
0.0695435
0.0695759
0.0696004
0.0696229
0.0696457
0.0696687
0.0696893
0.0697032
0.0697097
0.0697154
0.0697224
0.0697308
0.0697401
0.0697506
0.0697471
0.0697461
0.0697495
0.0697575
0.069768
0.0913151
0.0824899
0.0762474
0.0716946
0.0683392
0.0658623
0.0640358
0.0626918
0.0617044
0.0609813
0.0604512
0.0600613
0.0597763
0.0595759
0.0594388
0.0593642
0.0593056
0.0592963
0.0593048
0.0593259
0.0593543
0.0593839
0.0594069
0.0594235
0.0594421
0.059463
0.0594853
0.0595053
0.0595173
0.0595228
0.0595291
0.059538
0.0595485
0.059557
0.0595572
0.0595576
0.05956
0.0595668
0.0595773
0.0595894
0.0807137
0.075113
0.0705067
0.0667693
0.0638108
0.0615076
0.0597369
0.0583898
0.0573744
0.0566152
0.0560509
0.0556306
0.0553205
0.0550997
0.05495
0.0548549
0.0548023
0.054781
0.0547813
0.0547957
0.0548183
0.0548423
0.0548585
0.0548686
0.0548833
0.0549028
0.054925
0.0549451
0.0549567
0.0549621
0.0549691
0.054979
0.0549906
0.0550007
0.0550046
0.0550063
0.0550079
0.0550135
0.0550228
0.0550335
0.0804801
0.0740563
0.0691496
0.0653687
0.0624388
0.0601729
0.0584306
0.0570993
0.0560893
0.0553294
0.0547607
0.0543341
0.0540165
0.0537882
0.0536305
0.0535286
0.0534726
0.0534474
0.0534452
0.0534577
0.0534785
0.0535011
0.0535167
0.0535283
0.0535455
0.0535678
0.0535916
0.0536125
0.053624
0.0536292
0.0536363
0.0536465
0.0536582
0.0536675
0.0536688
0.0536682
0.053671
0.0536762
0.0536859
0.0536969
0.086674
0.0774186
0.0711291
0.0667297
0.0635635
0.0612347
0.0595051
0.0582156
0.0572531
0.0565355
0.0560003
0.0555988
0.0552983
0.0550843
0.0549375
0.0548443
0.0547949
0.054775
0.0547768
0.0547926
0.0548163
0.0548416
0.0548601
0.0548742
0.054893
0.054916
0.0549394
0.0549596
0.0549701
0.054974
0.0549805
0.0549901
0.0550013
0.0550098
0.0550095
0.0550063
0.055007
0.0550112
0.0550209
0.0550324
0.0940123
0.080502
0.0738504
0.0697426
0.0668348
0.0647186
0.0631721
0.0620402
0.0612043
0.0605867
0.060124
0.0597711
0.0595084
0.0593253
0.059205
0.0591311
0.0590978
0.0590916
0.0591035
0.0591274
0.0591579
0.0591895
0.0592151
0.0592348
0.0592565
0.0592799
0.0593032
0.0593232
0.0593344
0.0593382
0.0593435
0.0593514
0.0593611
0.0593685
0.0593687
0.0593613
0.0593569
0.059359
0.0593685
0.0593815
0.0940703
0.0870774
0.0815081
0.0775914
0.0750275
0.073317
0.0721299
0.0712571
0.0705979
0.0701043
0.0697343
0.0694643
0.0692564
0.0691094
0.0690192
0.0689553
0.068944
0.0689531
0.0689778
0.069013
0.0690538
0.0690948
0.0691302
0.0691573
0.0691822
0.0692069
0.0692308
0.0692516
0.069265
0.0692702
0.0692747
0.0692804
0.0692872
0.0692918
0.069288
0.0692632
0.0692521
0.0692576
0.0692734
0.0692923
0.128404
0.112207
0.103199
0.0991531
0.097
0.0958931
0.0952427
0.0947524
0.0943593
0.0940456
0.0937944
0.0936037
0.0934661
0.0933727
0.0933194
0.0933019
0.0933134
0.0933463
0.0933942
0.0934513
0.0935119
0.093571
0.0936231
0.0936632
0.093697
0.0937278
0.0937564
0.0937815
0.0937997
0.0938075
0.0938126
0.0938174
0.0938228
0.0938261
0.0938206
0.0937944
0.0937744
0.0937756
0.093791
0.0938141
0.358536
0.292151
0.24639
0.225825
0.216634
0.212258
0.209862
0.208215
0.207086
0.206279
0.205689
0.205275
0.204994
0.204823
0.204734
0.204706
0.204722
0.20477
0.204839
0.204919
0.205004
0.205089
0.205169
0.205236
0.205291
0.205333
0.205367
0.205398
0.205426
0.205444
0.205454
0.205457
0.205457
0.205456
0.205463
0.205447
0.205424
0.205415
0.205421
0.205436
0.128403
0.112209
0.103202
0.0991913
0.0970237
0.0958941
0.0952275
0.0947284
0.094335
0.0940241
0.0937817
0.0935889
0.093454
0.093363
0.0933099
0.0932928
0.0933043
0.0933373
0.0933855
0.0934429
0.093504
0.0935636
0.093616
0.0936564
0.09369
0.0937205
0.0937491
0.0937746
0.0937934
0.0938022
0.0938079
0.0938128
0.093817
0.0938115
0.0937707
0.0937803
0.0937876
0.0937983
0.0938131
0.0938303
0.0707876
0.0612291
0.0547962
0.0511842
0.0492881
0.0480385
0.0471687
0.0465493
0.0460774
0.0457204
0.045443
0.0452409
0.0450981
0.0449885
0.0449121
0.0448625
0.0448348
0.0448281
0.0448324
0.0448477
0.0448698
0.0448962
0.0449283
0.0449672
0.0449883
0.0450005
0.0450109
0.0450228
0.0450403
0.0450649
0.0450702
0.0450722
0.0450716
0.0450873
0.0452676
0.0450813
0.045088
0.0450873
0.0450789
0.0450775
0.061898
0.0522052
0.0457247
0.0420817
0.0396694
0.0380519
0.0367509
0.0358974
0.0351696
0.0346758
0.0342757
0.0339931
0.0337957
0.0336463
0.0335366
0.0334533
0.0334011
0.0333664
0.0333558
0.0333546
0.033364
0.0333834
0.033422
0.033471
0.0334829
0.0334877
0.0334916
0.0335022
0.033527
0.0335665
0.0335697
0.0335618
0.0335561
0.0335559
0.0335751
0.0336177
0.0336065
0.03358
0.0335706
0.0335581
0.0575937
0.0498127
0.0437257
0.0400033
0.0375104
0.0355657
0.0340566
0.0328889
0.0319969
0.0313048
0.0307727
0.0303924
0.0301122
0.0299205
0.0297713
0.0296346
0.0295582
0.0294958
0.0294562
0.0294483
0.0294509
0.0294709
0.0295332
0.0296041
0.0296009
0.0295907
0.029581
0.0295861
0.0296318
0.0296884
0.029677
0.0296581
0.0296411
0.0296309
0.0296725
0.0297006
0.0296953
0.0296748
0.0296555
0.0296311
0.0535737
0.0478442
0.0428878
0.0391745
0.0367752
0.0347906
0.0331852
0.0319061
0.0308984
0.0301139
0.0295154
0.0291039
0.0288122
0.0285402
0.0283349
0.028185
0.0280665
0.0279951
0.0279263
0.0279074
0.0279031
0.0279252
0.0280121
0.0281076
0.0280893
0.0280474
0.0280395
0.0280425
0.0281011
0.028167
0.0281453
0.0281195
0.0280962
0.0280885
0.0281392
0.0281861
0.0281705
0.0281251
0.0281079
0.0280881
0.0523367
0.0470462
0.0424003
0.0390377
0.0366395
0.0346258
0.0329797
0.0316621
0.0306206
0.0298071
0.029187
0.0287602
0.0284587
0.0281726
0.0279566
0.0277966
0.0276803
0.0275971
0.0275284
0.0275022
0.027495
0.0275155
0.0276064
0.0276939
0.0276662
0.0276369
0.0276136
0.0276155
0.0276801
0.0277505
0.0277239
0.0276947
0.0276716
0.0276693
0.02773
0.0277964
0.0277644
0.0277277
0.0276941
0.0276691
0.0522924
0.0472513
0.0427623
0.0394479
0.0369309
0.034891
0.0332659
0.0319841
0.0309807
0.0302017
0.0296098
0.0292019
0.0289077
0.0286418
0.0284414
0.0282884
0.0281737
0.0281055
0.028037
0.0280181
0.028013
0.0280329
0.0281149
0.0281965
0.0281824
0.0281483
0.0281452
0.0281533
0.0282204
0.0282896
0.0282638
0.0282367
0.0282136
0.0282146
0.0282777
0.0283533
0.0283171
0.0282805
0.0282464
0.0282205
0.0524467
0.0474727
0.0430537
0.0398879
0.037415
0.0355051
0.0340349
0.0329075
0.0320541
0.0313711
0.0308883
0.030525
0.0302828
0.030075
0.0299069
0.0298006
0.0297003
0.0296397
0.029603
0.029595
0.0295987
0.0296195
0.0296785
0.0297472
0.0297449
0.0297388
0.0297338
0.0297423
0.0297896
0.0298482
0.0298361
0.0298168
0.0297977
0.0297934
0.0298225
0.0298888
0.029908
0.0298806
0.0298438
0.0298114
0.055359
0.0491197
0.0448178
0.0417441
0.0394679
0.0378335
0.0366212
0.0357635
0.035117
0.0346429
0.0342846
0.0339741
0.0338175
0.0336813
0.0335859
0.0335061
0.0334532
0.0334204
0.0334111
0.0334132
0.0334234
0.0334419
0.0334798
0.0335296
0.0335401
0.0335466
0.0335526
0.0335642
0.0335922
0.0336342
0.0336348
0.0336229
0.0336201
0.0336237
0.0336515
0.0337811
0.0337637
0.0337093
0.0336544
0.0336239
0.0707919
0.0612263
0.0547794
0.0512799
0.0492902
0.0480285
0.0471662
0.0465515
0.046084
0.0457272
0.0454543
0.045252
0.0450992
0.0449894
0.0449103
0.0448595
0.0448315
0.044825
0.0448289
0.0448448
0.0448672
0.0448937
0.0449257
0.044966
0.0449858
0.0449982
0.0450095
0.0450223
0.0450398
0.0450665
0.0450703
0.0450712
0.0450686
0.0450707
0.0450792
0.045068
0.0451048
0.0450995
0.0450793
0.0450691
0.151441
0.127225
0.112736
0.105591
0.101674
0.0992315
0.0976991
0.0966617
0.0959319
0.0954087
0.0950265
0.0947541
0.0945594
0.0944331
0.0943608
0.0943287
0.0943309
0.0943573
0.0944
0.0944527
0.0945096
0.0945655
0.0946148
0.0946531
0.094686
0.0947165
0.094745
0.0947699
0.0947877
0.0947957
0.0948011
0.0948065
0.0948127
0.0948166
0.0948119
0.09479
0.0947747
0.0947775
0.0947935
0.0948165
0.0940669
0.0870735
0.0814992
0.0775679
0.0749975
0.0732848
0.0720984
0.0712273
0.0705715
0.0700825
0.0697178
0.0694457
0.0692449
0.0691036
0.0690115
0.0689508
0.06894
0.0689495
0.0689743
0.0690097
0.0690509
0.0690924
0.0691283
0.0691559
0.0691809
0.0692057
0.0692298
0.0692507
0.0692642
0.0692697
0.0692739
0.0692788
0.0692844
0.0692858
0.0692759
0.0692544
0.0692489
0.0692592
0.0692763
0.0692953
0.0553624
0.0491316
0.044861
0.0418206
0.0395213
0.0378667
0.036635
0.0357699
0.0351177
0.0346428
0.0342785
0.0340163
0.0338343
0.0336928
0.0335876
0.0335094
0.0334585
0.0334262
0.033417
0.0334165
0.0334259
0.0334453
0.0334825
0.0335301
0.0335443
0.0335515
0.0335568
0.0335681
0.0335929
0.0336319
0.0336366
0.0336313
0.0336266
0.0336331
0.0336875
0.0337981
0.033736
0.0336759
0.033643
0.0336224
0.0516482
0.0459533
0.0413671
0.0378825
0.0352251
0.0332189
0.0316764
0.0304
0.0296896
0.0290875
0.0285387
0.0281786
0.0279416
0.0277422
0.0275813
0.0274557
0.0273623
0.0272956
0.0272534
0.0272303
0.0272332
0.0272491
0.0273013
0.0273811
0.0273812
0.0273863
0.0273692
0.0273812
0.0274168
0.0274891
0.027494
0.0274645
0.0274568
0.0274569
0.0274735
0.0275427
0.0275492
0.0275033
0.0274743
0.0274329
0.0534068
0.0475227
0.0426505
0.0387885
0.0357675
0.0333964
0.0315199
0.0300409
0.0289133
0.0280279
0.0272978
0.0269378
0.0266511
0.0263623
0.0261348
0.0259568
0.025822
0.0257224
0.0256522
0.0256062
0.0255968
0.0256224
0.0257337
0.025837
0.0258098
0.0257783
0.0257457
0.0257581
0.0258527
0.025943
0.0259023
0.0258623
0.0258305
0.025835
0.0259245
0.0260076
0.0259551
0.0258965
0.0258406
0.0257956
0.0549631
0.0488089
0.0437999
0.0397876
0.0366073
0.034067
0.0320355
0.0304151
0.0291278
0.0281055
0.0273077
0.0267426
0.0264013
0.0261009
0.0258462
0.0256398
0.0254764
0.0253514
0.0252609
0.0252059
0.0251693
0.0252121
0.02536
0.0254731
0.0254117
0.0253515
0.0253083
0.0253107
0.0254215
0.0255231
0.0254684
0.0254142
0.0253763
0.0253844
0.025501
0.0256005
0.025534
0.0254591
0.0253877
0.0253345
0.054906
0.0489663
0.0440698
0.0401003
0.0369081
0.0343334
0.03226
0.0305966
0.0292688
0.0282151
0.0273949
0.0268004
0.0264116
0.0260613
0.0258161
0.025616
0.0254484
0.0253164
0.0252185
0.0251551
0.0251294
0.0251624
0.0253181
0.0254375
0.025369
0.0253035
0.0252561
0.0252584
0.0253763
0.025482
0.0254226
0.0253651
0.0253267
0.0253403
0.0254745
0.0255824
0.0255088
0.0254239
0.0253434
0.0252836
0.0540242
0.0482617
0.0435195
0.0396665
0.0365559
0.0340503
0.0320432
0.0304412
0.0291701
0.0281609
0.0273745
0.0268192
0.0264687
0.0261625
0.0259
0.0256863
0.0255175
0.0253888
0.0252949
0.0252373
0.0252015
0.0252388
0.0253733
0.0254929
0.0254537
0.02541
0.0253778
0.0253872
0.0255001
0.0256047
0.0255518
0.0255016
0.0254712
0.0254964
0.025657
0.0257481
0.0256562
0.0255678
0.0254895
0.0254317
0.0526078
0.0468995
0.0422727
0.0385831
0.0356641
0.033363
0.0315296
0.0300775
0.0289695
0.0280917
0.0274015
0.0270714
0.0267942
0.0264848
0.026242
0.0260548
0.0259082
0.0258053
0.0257167
0.0256759
0.0256736
0.0257013
0.025805
0.0259107
0.0258892
0.0258625
0.02583
0.0258498
0.0259328
0.0260283
0.0259985
0.0259576