/*--------------------------------*- C++ -*----------------------------------*\
| =========                 |                                                 |
| \\      /  F ield         | OpenFOAM: The Open Source CFD Toolbox           |
|  \\    /   O peration     | Version:  2212                                  |
|   \\  /    A nd           | Website:  www.openfoam.com                      |
|    \\/     M anipulation  |                                                 |
\*---------------------------------------------------------------------------*/
FoamFile
{
    version     2.0;
    format      ascii;
    arch        "LSB;label=32;scalar=64";
    class       volScalarField;
    location    "0.45";
    object      k;
}
// * * * * * * * * * * * * * * * * * * * * * * * * * * * * * * * * * * * * * //

dimensions      [0 2 -2 0 0 0 0];

internalField   nonuniform List<scalar> 
6840
(
0.213564
0.055916
0.0283993
0.0193412
0.0146925
0.0118513
0.00989095
0.0085163
0.00749318
0.0066985
0.00606675
0.00555937
0.00513531
0.0047801
0.00447659
0.00422753
0.00403208
0.00386688
0.00376606
0.00370871
0.264759
0.104702
0.0585297
0.039163
0.0286202
0.0219942
0.017538
0.0143673
0.0120151
0.0102265
0.00883637
0.00773678
0.00685168
0.00613513
0.00554534
0.00507239
0.00469311
0.00438773
0.004134
0.00394471
0.283364
0.126774
0.0717019
0.0473281
0.0338662
0.025662
0.0204621
0.0167998
0.0140537
0.0119515
0.0103008
0.00898129
0.00792209
0.00706471
0.00636668
0.00579249
0.00531897
0.00492895
0.0046096
0.00437356
0.292299
0.141633
0.08193
0.0541653
0.038923
0.0292878
0.0232737
0.0190816
0.0159397
0.0135247
0.0116469
0.0101417
0.00892381
0.00793078
0.00711563
0.00644287
0.00588497
0.00541973
0.00503073
0.00472697
0.295943
0.148782
0.087194
0.0576748
0.0415193
0.0310727
0.0246465
0.0202241
0.0169107
0.014335
0.012329
0.0107317
0.00943824
0.00838198
0.00751346
0.00679526
0.00619862
0.00570128
0.00528958
0.00499472
0.295943
0.148782
0.087194
0.0576749
0.0415193
0.0310728
0.0246467
0.0202243
0.016911
0.0143354
0.0123297
0.0107327
0.00943971
0.00838415
0.00751671
0.0068002
0.00620612
0.00571249
0.00530577
0.00501292
0.292299
0.141633
0.0819301
0.0541654
0.0389231
0.0292881
0.023274
0.0190821
0.0159404
0.0135256
0.0116483
0.0101439
0.00892697
0.00793553
0.00712282
0.00645386
0.00590197
0.00544656
0.00507221
0.00477879
0.283364
0.126774
0.0717019
0.0473282
0.0338664
0.0256622
0.0204623
0.0168002
0.0140542
0.0119525
0.0103022
0.00898334
0.00792511
0.00706933
0.00637366
0.00580357
0.00533661
0.00495723
0.00465505
0.0044364
0.264759
0.104702
0.0585297
0.0391631
0.0286202
0.0219943
0.017538
0.0143674
0.0120153
0.0102268
0.00883683
0.00773752
0.00685294
0.00613777
0.0055493
0.00507932
0.00470537
0.00441243
0.00418722
0.00404125
0.213564
0.055916
0.0283993
0.0193412
0.0146925
0.0118513
0.00989095
0.0085163
0.00749319
0.0066985
0.00606675
0.00555938
0.00513532
0.0047801
0.0044766
0.00422755
0.00403211
0.00386692
0.00376614
0.00370882
0.264759
0.104702
0.0585297
0.0391631
0.0286202
0.0219943
0.017538
0.0143674
0.0120153
0.0102268
0.00883681
0.0077375
0.00685293
0.00613777
0.00554929
0.00507928
0.00470531
0.00441235
0.00418711
0.00404112
0.311746
0.197541
0.130357
0.0911458
0.0668031
0.0508134
0.0397993
0.0319217
0.0261115
0.0217161
0.0183225
0.0156587
0.0135433
0.0118448
0.0104691
0.00934888
0.00844127
0.00770245
0.00707908
0.00647619
0.31754
0.217754
0.151085
0.108549
0.0807162
0.0618744
0.0486815
0.0391501
0.0320738
0.0266975
0.022532
0.0192521
0.0166353
0.0145251
0.0128102
0.0114081
0.0102572
0.00931128
0.00852702
0.00785604
0.319723
0.227073
0.162232
0.118772
0.0893616
0.0689945
0.0545347
0.0439926
0.0361146
0.0301001
0.0254231
0.0217284
0.0187714
0.0163795
0.0144283
0.012826
0.0115035
0.010407
0.00949224
0.00870829
0.320484
0.23086
0.167175
0.123531
0.0935165
0.0724843
0.0574448
0.0464294
0.0381684
0.0318422
0.0269114
0.023009
0.0198807
0.0173462
0.0152754
0.013572
0.0121638
0.0109943
0.0100167
0.00917464
0.320484
0.23086
0.167176
0.123531
0.0935166
0.0724845
0.0574451
0.0464298
0.038169
0.031843
0.0269125
0.0230106
0.0198829
0.0173494
0.0152799
0.0135786
0.0121734
0.0110083
0.0100386
0.00922685
0.319723
0.227073
0.162232
0.118773
0.0893619
0.068995
0.0545353
0.0439934
0.0361157
0.0301017
0.0254254
0.0217317
0.0187761
0.0163863
0.014438
0.0128403
0.0115245
0.0104383
0.00954017
0.00879364
0.31754
0.217754
0.151085
0.108549
0.0807164
0.0618747
0.0486819
0.0391507
0.0320747
0.0266987
0.0225337
0.0192546
0.0166389
0.0145303
0.0128178
0.0114195
0.0102745
0.00933771
0.00856884
0.00791048
0.311746
0.197541
0.130357
0.0911458
0.0668031
0.0508134
0.0397993
0.0319217
0.0261115
0.0217161
0.0183225
0.0156587
0.0135433
0.0118448
0.0104691
0.0093489
0.00844134
0.00770256
0.00707921
0.00647637
0.264759
0.104702
0.0585297
0.039163
0.0286202
0.0219942
0.017538
0.0143673
0.0120151
0.0102265
0.00883637
0.00773678
0.00685167
0.00613511
0.00554532
0.00507239
0.00469314
0.00438779
0.00413407
0.00394481
0.283364
0.126774
0.0717019
0.0473282
0.0338664
0.0256622
0.0204623
0.0168001
0.0140542
0.0119525
0.0103022
0.00898332
0.00792509
0.00706931
0.00637363
0.00580351
0.00533654
0.00495714
0.00465494
0.00443626
0.31754
0.217754
0.151085
0.108549
0.0807164
0.0618747
0.0486819
0.0391507
0.0320747
0.0266986
0.0225336
0.0192545
0.0166388
0.0145303
0.0128178
0.0114195
0.0102744
0.0093376
0.00856873
0.00791033
0.322005
0.239026
0.177588
0.133616
0.102324
0.0798688
0.0635146
0.05139
0.0422361
0.0352043
0.0297165
0.0253734
0.0218948
0.0190805
0.016785
0.0149014
0.0133492
0.0120661
0.0109982
0.0100769
0.323293
0.245617
0.187499
0.144537
0.112864
0.0894057
0.071867
0.0585938
0.0484128
0.0404972
0.0342625
0.0292931
0.0252902
0.0220364
0.0193714
0.0171758
0.0153585
0.0138478
0.0125822
0.0114917
0.323714
0.247819
0.191099
0.14881
0.11725
0.0935726
0.0756611
0.0619677
0.0513756
0.0430834
0.0365158
0.0312574
0.027006
0.0235395
0.0206928
0.0183415
0.0163906
0.0147645
0.0133961
0.0122003
0.323714
0.247819
0.191099
0.14881
0.11725
0.0935727
0.0756613
0.061968
0.051376
0.0430839
0.0365165
0.0312583
0.0270073
0.0235414
0.0206952
0.0183447
0.0163951
0.014771
0.013408
0.0122344
0.323293
0.245617
0.187499
0.144537
0.112865
0.0894059
0.0718673
0.0585942
0.0484134
0.040498
0.0342637
0.0292947
0.0252924
0.0220393
0.0193753
0.0171812
0.0153661
0.0138588
0.012599
0.0115228
0.322005
0.239026
0.177588
0.133616
0.102324
0.0798688
0.0635146
0.05139
0.0422361
0.0352043
0.0297165
0.0253735
0.0218949
0.0190805
0.0167849
0.0149013
0.0133492
0.0120661
0.0109982
0.0100768
0.31754
0.217754
0.151085
0.108549
0.0807162
0.0618744
0.0486815
0.0391501
0.0320738
0.0266975
0.022532
0.0192521
0.0166353
0.014525
0.0128101
0.0114081
0.0102573
0.00931136
0.00852713
0.00785619
0.283364
0.126774
0.0717019
0.0473281
0.0338662
0.025662
0.0204621
0.0167998
0.0140537
0.0119515
0.0103008
0.00898129
0.00792208
0.00706468
0.00636665
0.00579248
0.00531899
0.00492899
0.00460966
0.00437364
0.292299
0.141633
0.0819301
0.0541654
0.0389231
0.0292881
0.023274
0.0190821
0.0159404
0.0135256
0.0116483
0.0101439
0.00892695
0.00793548
0.00712275
0.00645378
0.0059019
0.00544649
0.00507214
0.00477871
0.319723
0.227073
0.162232
0.118773
0.0893619
0.068995
0.0545353
0.0439934
0.0361157
0.0301017
0.0254254
0.0217317
0.0187761
0.0163862
0.014438
0.0128402
0.0115244
0.0104382
0.00954011
0.0087936
0.323293
0.245617
0.187499
0.144537
0.112865
0.0894059
0.0718673
0.0585942
0.0484134
0.040498
0.0342636
0.0292946
0.0252922
0.0220392
0.0193754
0.0171813
0.0153662
0.0138588
0.0125991
0.0115231
0.324288
0.250862
0.19613
0.154888
0.123591
0.0996817
0.0812776
0.0669904
0.0557968
0.0469432
0.0398742
0.0341792
0.029553
0.0257673
0.0226496
0.0200687
0.0179236
0.016133
0.0146271
0.0133317
0.32459
0.252403
0.19891
0.158543
0.127691
0.103872
0.0853232
0.070756
0.059221
0.0500121
0.042601
0.0365909
0.031682
0.0276469
0.0243112
0.0215408
0.019231
0.0172967
0.0156617
0.0142369
0.32459
0.252403
0.19891
0.158543
0.127691
0.103873
0.0853233
0.0707561
0.0592212
0.0500123
0.0426013
0.0365912
0.0316825
0.0276476
0.024312
0.0215417
0.0192322
0.0172985
0.0156652
0.0142469
0.324288
0.250862
0.19613
0.154888
0.123591
0.0996817
0.0812776
0.0669904
0.0557968
0.0469433
0.0398743
0.0341794
0.0295533
0.0257674
0.0226494
0.0200686
0.0179234
0.0161329
0.0146269
0.0133312
0.323293
0.245617
0.187499
0.144537
0.112864
0.0894057
0.0718671
0.0585938
0.0484129
0.0404972
0.0342626
0.0292932
0.0252903
0.0220364
0.0193713
0.0171756
0.0153584
0.0138478
0.0125821
0.0114915
0.319723
0.227073
0.162232
0.118772
0.0893616
0.0689946
0.0545347
0.0439926
0.0361146
0.0301001
0.0254232
0.0217284
0.0187714
0.0163795
0.0144282
0.012826
0.0115035
0.0104071
0.00949233
0.00870837
0.292299
0.141633
0.08193
0.0541653
0.038923
0.0292878
0.0232737
0.0190816
0.0159397
0.0135247
0.0116469
0.0101417
0.0089238
0.00793075
0.00711561
0.00644287
0.00588499
0.00541978
0.0050308
0.00472706
0.295943
0.148782
0.087194
0.0576749
0.0415193
0.0310728
0.0246467
0.0202243
0.016911
0.0143354
0.0123297
0.0107327
0.0094397
0.00838416
0.00751674
0.00680023
0.00620615
0.00571251
0.00530578
0.00501292
0.320484
0.23086
0.167176
0.123531
0.0935166
0.0724845
0.0574451
0.0464298
0.038169
0.031843
0.0269124
0.0230106
0.0198829
0.0173494
0.01528
0.0135787
0.0121734
0.0110084
0.0100386
0.00922689
0.323714
0.247819
0.191099
0.14881
0.11725
0.0935727
0.0756613
0.061968
0.0513759
0.0430839
0.0365164
0.0312583
0.0270072
0.0235412
0.0206951
0.0183447
0.0163951
0.0147711
0.0134081
0.0122347
0.32459
0.252403
0.19891
0.158543
0.127691
0.103873
0.0853233
0.070756
0.0592211
0.0500123
0.0426012
0.0365911
0.0316823
0.0276474
0.0243119
0.0215417
0.0192322
0.0172986
0.0156654
0.0142474
0.324844
0.253685
0.20131
0.161837
0.131536
0.107945
0.0893728
0.074618
0.0628022
0.0532714
0.0455318
0.0392069
0.0340079
0.0297116
0.0261442
0.0231702
0.0206824
0.0185922
0.0168184
0.0152652
0.324844
0.253685
0.20131
0.161837
0.131536
0.107945
0.0893728
0.074618
0.0628022
0.0532714
0.0455318
0.039207
0.034008
0.0297117
0.0261443
0.0231702
0.0206824
0.0185921
0.0168183
0.015265
0.32459
0.252403
0.19891
0.158543
0.127691
0.103872
0.0853232
0.070756
0.0592211
0.0500122
0.0426011
0.0365911
0.0316823
0.027647
0.024311
0.0215406
0.0192309
0.0172966
0.0156615
0.0142367
0.323714
0.247819
0.191099
0.14881
0.11725
0.0935726
0.0756611
0.0619677
0.0513756
0.0430835
0.0365159
0.0312575
0.0270062
0.0235395
0.0206925
0.0183413
0.0163905
0.0147644
0.0133961
0.0122002
0.320484
0.23086
0.167175
0.123531
0.0935165
0.0724843
0.0574448
0.0464294
0.0381685
0.0318422
0.0269114
0.023009
0.0198807
0.0173462
0.0152753
0.013572
0.0121638
0.0109943
0.0100168
0.00917472
0.295943
0.148782
0.087194
0.0576748
0.0415193
0.0310727
0.0246465
0.0202241
0.0169107
0.014335
0.012329
0.0107317
0.00943823
0.00838196
0.00751344
0.00679527
0.00619866
0.00570133
0.00528965
0.00499477
0.295943
0.148782
0.087194
0.0576748
0.0415193
0.0310727
0.0246465
0.0202241
0.0169107
0.014335
0.012329
0.0107317
0.00943824
0.00838199
0.00751347
0.00679528
0.00619864
0.0057013
0.00528961
0.00499471
0.320484
0.23086
0.167175
0.123531
0.0935165
0.0724843
0.0574448
0.0464294
0.0381684
0.0318422
0.0269113
0.023009
0.0198807
0.0173462
0.0152754
0.013572
0.0121638
0.0109943
0.0100168
0.00917466
0.323714
0.247819
0.191099
0.14881
0.11725
0.0935726
0.0756611
0.0619677
0.0513756
0.0430834
0.0365158
0.0312574
0.027006
0.0235395
0.0206927
0.0183414
0.0163906
0.0147645
0.0133962
0.0122003
0.32459
0.252403
0.19891
0.158543
0.127691
0.103872
0.0853232
0.070756
0.059221
0.0500121
0.042601
0.0365909
0.031682
0.0276469
0.0243112
0.0215408
0.019231
0.0172968
0.0156617
0.0142371
0.324844
0.253685
0.20131
0.161837
0.131536
0.107945
0.0893728
0.074618
0.0628022
0.0532714
0.0455318
0.0392069
0.0340079
0.0297116
0.0261442
0.0231702
0.0206824
0.0185922
0.0168184
0.0152652
0.324844
0.253685
0.20131
0.161837
0.131536
0.107945
0.0893729
0.074618
0.0628022
0.0532714
0.0455318
0.039207
0.034008
0.0297117
0.0261443
0.0231702
0.0206824
0.0185921
0.0168183
0.0152651
0.32459
0.252403
0.19891
0.158543
0.127691
0.103873
0.0853233
0.0707561
0.0592212
0.0500123
0.0426013
0.0365913
0.0316827
0.0276475
0.0243116
0.0215415
0.019232
0.0172984
0.0156652
0.014247
0.323714
0.247819
0.191099
0.14881
0.11725
0.0935727
0.0756613
0.061968
0.051376
0.0430839
0.0365165
0.0312584
0.0270074
0.0235412
0.0206949
0.0183445
0.016395
0.014771
0.013408
0.0122345
0.320484
0.23086
0.167176
0.123531
0.0935166
0.0724845
0.0574451
0.0464298
0.038169
0.031843
0.0269125
0.0230106
0.019883
0.0173494
0.0152799
0.0135786
0.0121734
0.0110084
0.0100387
0.00922695
0.295943
0.148782
0.087194
0.0576749
0.0415193
0.0310728
0.0246467
0.0202243
0.016911
0.0143354
0.0123297
0.0107327
0.0094397
0.00838414
0.00751672
0.00680023
0.00620617
0.00571255
0.00530584
0.00501299
0.292299
0.141633
0.08193
0.0541653
0.038923
0.0292878
0.0232737
0.0190816
0.0159397
0.0135247
0.0116469
0.0101417
0.00892381
0.00793078
0.00711564
0.00644288
0.00588499
0.00541975
0.00503076
0.00472701
0.319723
0.227073
0.162232
0.118772
0.0893616
0.0689945
0.0545347
0.0439926
0.0361146
0.0301001
0.0254231
0.0217284
0.0187714
0.0163795
0.0144283
0.012826
0.0115035
0.010407
0.00949226
0.00870829
0.323293
0.245617
0.187499
0.144537
0.112864
0.0894057
0.0718671
0.0585938
0.0484128
0.0404972
0.0342626
0.0292931
0.0252902
0.0220364
0.0193714
0.0171758
0.0153584
0.0138478
0.0125821
0.0114915
0.324288
0.250862
0.19613
0.154888
0.123591
0.0996817
0.0812776
0.0669904
0.0557968
0.0469432
0.0398743
0.0341792
0.029553
0.0257673
0.0226496
0.0200687
0.0179235
0.016133
0.014627
0.0133313
0.32459
0.252403
0.19891
0.158543
0.127691
0.103873
0.0853233
0.0707561
0.0592212
0.0500123
0.0426012
0.0365911
0.0316824
0.0276474
0.0243119
0.0215416
0.0192322
0.0172985
0.0156652
0.014247
0.32459
0.252403
0.19891
0.158543
0.127691
0.103873
0.0853232
0.070756
0.0592211
0.0500122
0.0426011
0.036591
0.0316821
0.0276471
0.0243113
0.0215407
0.0192309
0.0172966
0.0156616
0.0142368
0.324288
0.250862
0.19613
0.154888
0.123591
0.0996818
0.0812776
0.0669904
0.0557968
0.0469433
0.0398743
0.0341794
0.0295533
0.0257674
0.0226494
0.0200685
0.0179234
0.0161329
0.0146269
0.0133314
0.323293
0.245617
0.187499
0.144537
0.112865
0.0894059
0.0718674
0.0585942
0.0484134
0.040498
0.0342637
0.0292947
0.0252924
0.0220392
0.0193752
0.0171812
0.0153661
0.0138588
0.012599
0.0115229
0.319723
0.227073
0.162232
0.118773
0.0893619
0.068995
0.0545353
0.0439934
0.0361158
0.0301017
0.0254255
0.0217317
0.0187761
0.0163862
0.0144379
0.0128402
0.0115245
0.0104383
0.00954021
0.0087937
0.292299
0.141633
0.0819301
0.0541654
0.0389231
0.0292881
0.023274
0.0190821
0.0159404
0.0135256
0.0116483
0.0101439
0.00892695
0.00793546
0.00712274
0.00645379
0.00590193
0.00544655
0.00507222
0.00477881
0.283364
0.126774
0.0717019
0.0473281
0.0338662
0.025662
0.0204621
0.0167998
0.0140537
0.0119515
0.0103008
0.0089813
0.0079221
0.00706472
0.00636669
0.0057925
0.00531899
0.00492897
0.00460963
0.0043736
0.31754
0.217754
0.151085
0.108549
0.0807162
0.0618744
0.0486815
0.0391501
0.0320738
0.0266975
0.022532
0.0192521
0.0166353
0.0145251
0.0128102
0.0114081
0.0102573
0.00931131
0.00852705
0.0078561
0.322005
0.239026
0.177588
0.133616
0.102324
0.0798688
0.0635146
0.05139
0.0422361
0.0352043
0.0297165
0.0253734
0.0218948
0.0190805
0.016785
0.0149014
0.0133492
0.0120661
0.0109981
0.0100767
0.323293
0.245617
0.187499
0.144537
0.112865
0.0894059
0.0718674
0.0585942
0.0484134
0.040498
0.0342636
0.0292946
0.0252923
0.0220393
0.0193754
0.0171813
0.0153662
0.0138588
0.0125989
0.0115228
0.323714
0.247819
0.191099
0.14881
0.11725
0.0935727
0.0756613
0.061968
0.051376
0.0430839
0.0365165
0.0312583
0.0270073
0.0235413
0.0206952
0.0183447
0.016395
0.014771
0.0134079
0.0122344
0.323714
0.247819
0.191099
0.14881
0.11725
0.0935726
0.0756611
0.0619677
0.0513756
0.0430834
0.0365158
0.0312575
0.0270061
0.0235396
0.0206928
0.0183414
0.0163905
0.0147643
0.013396
0.0122001
0.323293
0.245617
0.187499
0.144537
0.112864
0.0894057
0.0718671
0.0585938
0.0484129
0.0404972
0.0342626
0.0292932
0.0252903
0.0220364
0.0193713
0.0171756
0.0153583
0.0138477
0.0125821
0.0114915
0.322005
0.239026
0.177588
0.133616
0.102324
0.0798688
0.0635146
0.05139
0.0422361
0.0352043
0.0297166
0.0253735
0.0218949
0.0190805
0.0167849
0.0149013
0.0133492
0.0120661
0.0109982
0.0100768
0.31754
0.217754
0.151085
0.108549
0.0807164
0.0618747
0.0486819
0.0391507
0.0320747
0.0266987
0.0225337
0.0192546
0.0166389
0.0145302
0.0128177
0.0114195
0.0102744
0.0093377
0.00856887
0.00791051
0.283364
0.126774
0.0717019
0.0473282
0.0338664
0.0256622
0.0204623
0.0168002
0.0140542
0.0119525
0.0103022
0.00898334
0.0079251
0.0070693
0.00637362
0.00580353
0.00533658
0.00495722
0.00465505
0.00443642
0.264759
0.104702
0.0585297
0.039163
0.0286202
0.0219942
0.017538
0.0143673
0.0120152
0.0102265
0.00883637
0.00773678
0.00685168
0.00613514
0.00554535
0.0050724
0.00469313
0.00438777
0.00413404
0.00394478
0.311746
0.197541
0.130357
0.0911458
0.0668031
0.0508134
0.0397993
0.0319217
0.0261115
0.0217161
0.0183225
0.0156587
0.0135433
0.0118448
0.0104692
0.00934891
0.0084413
0.0077025
0.00707913
0.00647629
0.31754
0.217754
0.151085
0.108549
0.0807164
0.0618747
0.0486819
0.0391507
0.0320747
0.0266987
0.0225337
0.0192545
0.0166388
0.0145303
0.0128178
0.0114195
0.0102744
0.00933763
0.00856876
0.0079104
0.319723
0.227073
0.162232
0.118773
0.0893619
0.068995
0.0545353
0.0439934
0.0361158
0.0301017
0.0254254
0.0217317
0.0187761
0.0163863
0.014438
0.0128402
0.0115244
0.0104382
0.00954012
0.0087936
0.320484
0.23086
0.167176
0.123531
0.0935166
0.0724846
0.0574451
0.0464298
0.038169
0.031843
0.0269125
0.0230106
0.0198829
0.0173494
0.01528
0.0135787
0.0121734
0.0110083
0.0100386
0.00922685
0.320484
0.23086
0.167175
0.123531
0.0935165
0.0724844
0.0574448
0.0464294
0.0381685
0.0318422
0.0269114
0.023009
0.0198807
0.0173462
0.0152753
0.0135719
0.0121637
0.0109943
0.0100167
0.00917463
0.319723
0.227073
0.162232
0.118772
0.0893616
0.0689946
0.0545347
0.0439926
0.0361146
0.0301001
0.0254232
0.0217284
0.0187714
0.0163795
0.0144283
0.012826
0.0115035
0.0104071
0.00949233
0.00870836
0.31754
0.217754
0.151085
0.108549
0.0807162
0.0618744
0.0486815
0.0391501
0.0320739
0.0266975
0.022532
0.0192521
0.0166353
0.0145251
0.0128102
0.0114082
0.0102573
0.00931143
0.00852719
0.00785625
0.311746
0.197541
0.130357
0.0911458
0.0668031
0.0508134
0.0397994
0.0319217
0.0261115
0.0217161
0.0183225
0.0156587
0.0135434
0.0118448
0.0104691
0.00934893
0.00844138
0.00770261
0.00707927
0.00647643
0.264759
0.104702
0.0585297
0.0391631
0.0286202
0.0219943
0.017538
0.0143674
0.0120153
0.0102268
0.00883683
0.00773753
0.00685295
0.00613777
0.00554929
0.00507931
0.00470537
0.00441244
0.00418724
0.00404128
0.213564
0.055916
0.0283993
0.0193412
0.0146925
0.0118513
0.00989095
0.0085163
0.00749318
0.00669851
0.00606675
0.00555937
0.00513532
0.00478011
0.00447661
0.00422755
0.00403211
0.00386692
0.00376612
0.0037088
0.264759
0.104702
0.0585297
0.0391631
0.0286202
0.0219943
0.017538
0.0143674
0.0120153
0.0102268
0.00883682
0.00773751
0.00685294
0.00613778
0.0055493
0.0050793
0.00470534
0.0044124
0.00418718
0.00404121
0.283364
0.126774
0.0717019
0.0473282
0.0338664
0.0256622
0.0204623
0.0168001
0.0140542
0.0119525
0.0103022
0.00898333
0.00792511
0.00706933
0.00637364
0.00580353
0.00533657
0.00495718
0.004655
0.00443636
0.292299
0.141633
0.0819301
0.0541654
0.0389231
0.0292881
0.023274
0.0190821
0.0159404
0.0135256
0.0116483
0.0101439
0.00892696
0.00793549
0.00712277
0.00645379
0.00590191
0.00544651
0.00507217
0.00477876
0.295943
0.148782
0.087194
0.0576749
0.0415193
0.0310728
0.0246467
0.0202243
0.016911
0.0143354
0.0123297
0.0107327
0.00943972
0.00838417
0.00751674
0.00680022
0.00620614
0.00571251
0.00530579
0.00501294
0.295943
0.148782
0.087194
0.0576749
0.0415193
0.0310727
0.0246465
0.0202241
0.0169107
0.014335
0.012329
0.0107317
0.00943825
0.00838197
0.00751343
0.00679524
0.00619862
0.00570129
0.00528961
0.00499473
0.292299
0.141633
0.08193
0.0541653
0.038923
0.0292879
0.0232737
0.0190817
0.0159397
0.0135247
0.0116469
0.0101417
0.00892382
0.00793082
0.00711569
0.00644295
0.00588505
0.00541982
0.00503083
0.00472708
0.283364
0.126774
0.0717019
0.0473281
0.0338663
0.0256621
0.0204621
0.0167998
0.0140537
0.0119515
0.0103008
0.00898131
0.0079221
0.00706472
0.00636671
0.00579255
0.00531905
0.00492905
0.00460971
0.00437369
0.264759
0.104702
0.0585297
0.039163
0.0286202
0.0219943
0.017538
0.0143673
0.0120152
0.0102265
0.00883638
0.0077368
0.00685169
0.00613514
0.00554536
0.00507243
0.00469319
0.00438783
0.00413412
0.00394485
0.213564
0.055916
0.0283993
0.0193412
0.0146925
0.0118513
0.00989095
0.0085163
0.00749319
0.0066985
0.00606675
0.00555938
0.00513533
0.00478011
0.00447661
0.00422756
0.00403213
0.00386694
0.00376615
0.00370885
0.00472307
0.00410788
0.00363952
0.00340606
0.00329402
0.00323854
0.00320674
0.00318415
0.00316826
0.00315691
0.00314889
0.00314314
0.00313904
0.00313618
0.00313426
0.00313308
0.00313243
0.00313228
0.00313248
0.00313291
0.00313348
0.00313414
0.00313483
0.00313545
0.00313596
0.00313633
0.00313661
0.00313688
0.00313716
0.00313737
0.00313751
0.00313755
0.0031375
0.00313761
0.00313719
0.00313741
0.00313754
0.0031376
0.00313763
0.00313762
0.00436084
0.0038628
0.00355735
0.00335745
0.00326311
0.00319905
0.00315596
0.0031264
0.00310464
0.00308847
0.00307641
0.00306743
0.00306073
0.00305589
0.00305254
0.0030504
0.00304934
0.00304906
0.00304932
0.00304993
0.00305075
0.00305166
0.00305249
0.00305311
0.00305364
0.00305417
0.00305469
0.00305519
0.00305556
0.00305572
0.00305583
0.00305595
0.00305608
0.00305612
0.00305557
0.0030558
0.00305598
0.00305619
0.00305645
0.00305677
0.00455977
0.00407224
0.00381441
0.00363386
0.00350548
0.00341671
0.0033529
0.0033063
0.00327179
0.00324597
0.00322659
0.00321205
0.00320113
0.00319308
0.00318743
0.0031837
0.00318103
0.0031799
0.00317957
0.0031798
0.00318039
0.00318114
0.00318181
0.00318228
0.00318278
0.00318337
0.00318402
0.00318464
0.00318504
0.0031852
0.00318537
0.0031856
0.00318588
0.00318619
0.00318648
0.00318634
0.00318639
0.00318654
0.00318682
0.0031872
0.00455381
0.00424541
0.00401602
0.00383997
0.00370429
0.00360011
0.00352056
0.00346011
0.00341438
0.00337994
0.00335402
0.0033344
0.00331952
0.0033085
0.00330059
0.00329525
0.00329192
0.00328932
0.00328859
0.00328851
0.00328885
0.00328938
0.00328974
0.00328993
0.00329038
0.003291
0.00329176
0.00329247
0.00329284
0.00329297
0.00329319
0.00329354
0.00329399
0.00329437
0.00329454
0.00329458
0.00329466
0.0032949
0.00329531
0.00329577
0.00451368
0.00429012
0.0041009
0.00394206
0.00381121
0.00370572
0.003622
0.00355639
0.00350552
0.00346644
0.00343658
0.00341365
0.00339611
0.00338312
0.00337374
0.0033672
0.00336287
0.00336034
0.00335907
0.00335865
0.00335877
0.0033591
0.00335919
0.00335913
0.00335949
0.00336012
0.00336094
0.00336173
0.00336213
0.00336227
0.00336253
0.00336297
0.00336351
0.00336401
0.00336417
0.00336424
0.00336437
0.00336464
0.00336506
0.00336555
0.00464666
0.00436488
0.00414839
0.00397799
0.00384229
0.00373475
0.00365004
0.00358373
0.00353214
0.00349229
0.00346167
0.00343802
0.00341982
0.00340624
0.00339635
0.00338939
0.00338477
0.00338203
0.00338062
0.00338012
0.00338018
0.00338048
0.00338054
0.00338052
0.00338093
0.00338167
0.00338263
0.00338347
0.00338386
0.00338398
0.00338425
0.00338472
0.00338528
0.00338575
0.00338582
0.00338586
0.00338602
0.00338622
0.00338666
0.00338717
0.00474466
0.00437707
0.00411669
0.00392835
0.0037886
0.00368259
0.00360153
0.00353935
0.00349166
0.00345514
0.00342718
0.00340559
0.00338896
0.00337652
0.00336753
0.00336125
0.00335715
0.00335474
0.00335358
0.00335327
0.00335348
0.00335389
0.00335409
0.00335417
0.00335469
0.00335543
0.0033563
0.00335708
0.00335741
0.00335747
0.0033577
0.00335813
0.00335864
0.00335906
0.00335906
0.00335898
0.00335905
0.0033592
0.00335961
0.00336013
0.00462125
0.00414679
0.00389871
0.00374153
0.00362484
0.00353655
0.00346965
0.00341904
0.00338074
0.00335158
0.00332931
0.00331196
0.00329859
0.00328861
0.00328146
0.00327665
0.00327376
0.00327188
0.00327131
0.00327139
0.00327187
0.00327252
0.00327301
0.00327333
0.0032739
0.00327461
0.00327541
0.00327612
0.00327646
0.0032765
0.00327667
0.00327699
0.00327739
0.00327772
0.00327777
0.0032775
0.00327732
0.00327739
0.00327775
0.00327828
0.00401139
0.00379206
0.00361912
0.00348678
0.00339436
0.00333076
0.00328547
0.00325208
0.00322614
0.0032061
0.00319067
0.00317889
0.00316961
0.00316258
0.00315764
0.00315453
0.00315214
0.00315143
0.00315139
0.00315182
0.00315257
0.00315345
0.00315425
0.00315483
0.00315541
0.00315606
0.00315674
0.00315736
0.00315775
0.00315786
0.00315798
0.00315816
0.00315838
0.00315856
0.00315846
0.00315773
0.00315733
0.00315746
0.00315793
0.00315854
0.00391761
0.00356421
0.00332346
0.00321279
0.00314856
0.00311218
0.00308922
0.0030724
0.00305894
0.00304818
0.00303947
0.00303262
0.00302733
0.00302339
0.00302066
0.00301898
0.00301824
0.00301818
0.00301859
0.00301932
0.00302025
0.00302124
0.00302215
0.00302283
0.00302341
0.00302397
0.00302451
0.00302502
0.00302539
0.00302553
0.00302561
0.00302569
0.00302579
0.00302587
0.00302583
0.00302541
0.0030249
0.00302482
0.0030251
0.00302557
0.00472314
0.00410787
0.00363982
0.00340567
0.00329361
0.00323838
0.00320693
0.00318443
0.00316862
0.00315728
0.0031492
0.00314342
0.00313928
0.00313636
0.00313441
0.00313322
0.00313257
0.00313243
0.00313264
0.00313308
0.00313365
0.00313431
0.003135
0.00313562
0.00313613
0.0031365
0.00313678
0.00313704
0.00313732
0.00313752
0.00313765
0.00313766
0.00313763
0.00313759
0.00313771
0.00313763
0.00313742
0.00313728
0.00313724
0.0031373
0.00391756
0.00356424
0.00332335
0.00321335
0.00314886
0.00311205
0.00308879
0.00307182
0.00305831
0.0030476
0.00303904
0.00303226
0.00302704
0.00302318
0.00302044
0.00301875
0.00301801
0.00301794
0.00301834
0.00301907
0.00302
0.003021
0.00302192
0.00302261
0.00302319
0.00302375
0.00302429
0.00302481
0.0030252
0.00302536
0.00302545
0.00302554
0.00302564
0.00302559
0.0030248
0.00302494
0.00302504
0.00302526
0.00302557
0.00302594
0.00453147
0.00433754
0.00422428
0.00417148
0.00413607
0.00410904
0.00407835
0.0040519
0.00402518
0.00400276
0.00398405
0.00396856
0.0039559
0.00394616
0.00393903
0.00393432
0.00393257
0.00393205
0.00393263
0.00393404
0.00393597
0.00393809
0.00393975
0.00394051
0.00394133
0.00394243
0.00394377
0.00394513
0.00394593
0.0039458
0.00394585
0.00394612
0.00394663
0.00394664
0.00394439
0.00394465
0.00394512
0.00394588
0.00394704
0.00394857
0.00605152
0.00567052
0.0054119
0.00522253
0.00508099
0.00497347
0.00489161
0.00482508
0.00477156
0.00472883
0.00469501
0.00466779
0.00464574
0.00462864
0.00461612
0.00460752
0.00460184
0.00459969
0.00459887
0.00459914
0.00460021
0.00460168
0.00460256
0.00460271
0.00460344
0.00460466
0.00460625
0.00460781
0.00460848
0.00460827
0.00460848
0.00460903
0.00460993
0.00461079
0.00461113
0.00461074
0.00461071
0.0046113
0.00461233
0.00461376
0.007335
0.00679298
0.0063922
0.00608229
0.00583853
0.00564847
0.00550138
0.00538758
0.00529924
0.00523103
0.00517804
0.00513611
0.00510309
0.0050779
0.00505934
0.00504646
0.00503776
0.0050324
0.00503045
0.00502969
0.00502978
0.00503036
0.00503013
0.00502963
0.00503022
0.00503157
0.00503338
0.00503513
0.00503561
0.00503546
0.0050359
0.00503682
0.00503807
0.0050393
0.00503966
0.00503968
0.00503982
0.00504051
0.00504168
0.0050432
0.00805485
0.00746311
0.00699941
0.00663242
0.00633558
0.00609821
0.00591022
0.00576248
0.0056472
0.00555782
0.00548876
0.0054346
0.00539209
0.00535996
0.00533629
0.0053194
0.00530786
0.00530078
0.00529668
0.00529531
0.00529481
0.00529477
0.00529398
0.00529314
0.00529355
0.00529496
0.00529681
0.00529864
0.00529918
0.00529923
0.0052998
0.00530086
0.00530226
0.00530354
0.005304
0.00530404
0.00530419
0.00530506
0.00530632
0.00530781
0.00823191
0.00768466
0.00723252
0.00685861
0.0065495
0.00629826
0.00609659
0.00593627
0.00580994
0.0057112
0.00563448
0.00557443
0.00552738
0.00549153
0.00546495
0.00544582
0.00543272
0.0054243
0.00541925
0.00541743
0.00541659
0.00541627
0.00541536
0.00541466
0.00541514
0.00541653
0.00541848
0.00542035
0.00542093
0.00542107
0.00542168
0.00542277
0.00542416
0.00542544
0.00542589
0.00542587
0.00542595
0.00542668
0.00542798
0.0054295
0.00813896
0.00758508
0.00713452
0.00676537
0.0064642
0.00622138
0.00602745
0.00587381
0.00575302
0.0056588
0.00558558
0.00552805
0.00548288
0.00544865
0.00542338
0.00540529
0.00539302
0.00538516
0.00538058
0.00537896
0.00537827
0.00537815
0.00537748
0.00537692
0.00537745
0.0053789
0.00538072
0.00538243
0.00538288
0.00538287
0.00538341
0.00538442
0.00538573
0.00538689
0.00538726
0.00538723
0.00538714
0.0053878
0.00538901
0.00539048
0.00753502
0.00706501
0.00665485
0.00632112
0.00605608
0.00584794
0.00568548
0.00555883
0.00546026
0.00538403
0.00532429
0.00527704
0.00523993
0.00521197
0.0051916
0.00517718
0.00516775
0.00516223
0.0051592
0.00515837
0.00515833
0.00515881
0.00515877
0.00515855
0.00515928
0.0051607
0.00516251
0.00516413
0.00516458
0.0051644
0.00516479
0.00516563
0.00516682
0.00516784
0.00516786
0.00516777
0.00516765
0.00516795
0.00516891
0.00517038
0.0066869
0.00612935
0.00575122
0.00549275
0.0053074
0.00517105
0.00506788
0.00498722
0.0049231
0.00487252
0.00483261
0.00480118
0.00477583
0.00475644
0.00474228
0.00473264
0.00472689
0.00472372
0.00472284
0.004723
0.00472397
0.00472539
0.00472637
0.00472669
0.00472755
0.00472883
0.00473042
0.00473191
0.00473254
0.00473229
0.00473247
0.004733
0.0047338
0.00473444
0.00473424
0.00473287
0.00473195
0.00473235
0.00473369
0.00473568
0.00453136
0.00433702
0.00422431
0.0041699
0.00413571
0.00411001
0.00407974
0.00405333
0.00402683
0.00400409
0.00398485
0.00396903
0.00395622
0.00394634
0.00393939
0.00393488
0.00393324
0.0039328
0.00393344
0.00393486
0.00393677
0.00393885
0.00394049
0.00394122
0.00394205
0.00394315
0.00394448
0.0039458
0.00394654
0.00394637
0.00394634
0.00394654
0.00394702
0.00394745
0.00394714
0.00394569
0.00394404
0.00394425
0.00394551
0.00394765
0.00436086
0.00386266
0.00355736
0.00335686
0.00326276
0.00319907
0.00315619
0.0031268
0.0031051
0.0030889
0.00307673
0.00306762
0.00306086
0.00305598
0.00305267
0.00305058