/*--------------------------------*- C++ -*----------------------------------*\
| =========                 |                                                 |
| \\      /  F ield         | OpenFOAM: The Open Source CFD Toolbox           |
|  \\    /   O peration     | Version:  2212                                  |
|   \\  /    A nd           | Website:  www.openfoam.com                      |
|    \\/     M anipulation  |                                                 |
\*---------------------------------------------------------------------------*/
FoamFile
{
    version     2.0;
    format      ascii;
    arch        "LSB;label=32;scalar=64";
    class       volScalarField;
    location    "0.45";
    object      nut;
}
// * * * * * * * * * * * * * * * * * * * * * * * * * * * * * * * * * * * * * //

dimensions      [0 2 -1 0 0 0 0];

internalField   nonuniform List<scalar> 
6840
(
4.5356e-05
2.3208e-05
1.65396e-05
1.36494e-05
1.18966e-05
1.06841e-05
9.76094e-06
9.05644e-06
8.49393e-06
8.02958e-06
7.63814e-06
7.30988e-06
7.01337e-06
6.75723e-06
6.52128e-06
6.31589e-06
6.15141e-06
6.00634e-06
5.90996e-06
5.84884e-06
0.000107685
6.77183e-05
5.0631e-05
4.14157e-05
3.54044e-05
3.10359e-05
2.77116e-05
2.50779e-05
2.29266e-05
2.11387e-05
1.96314e-05
1.83424e-05
1.72248e-05
1.62424e-05
1.53808e-05
1.46465e-05
1.40056e-05
1.34854e-05
1.30332e-05
1.27065e-05
0.000160509
0.00010736
8.07408e-05
6.55973e-05
5.54893e-05
4.83016e-05
4.31289e-05
3.90749e-05
3.57319e-05
3.29346e-05
3.05551e-05
2.8501e-05
2.67256e-05
2.5178e-05
2.38284e-05
2.26319e-05
2.15747e-05
2.06538e-05
1.9863e-05
1.92476e-05
0.000198681
0.0001383
0.000105187
8.55267e-05
7.25008e-05
6.28889e-05
5.60583e-05
5.07538e-05
4.63787e-05
4.27027e-05
3.95946e-05
3.69122e-05
3.45728e-05
3.25217e-05
3.07136e-05
2.91136e-05
2.7694e-05
2.64303e-05
2.53053e-05
2.43631e-05
0.000218609
0.000155003
0.000118661
9.65066e-05
8.1882e-05
7.08343e-05
6.30825e-05
5.71376e-05
5.22381e-05
4.80782e-05
4.45492e-05
4.15254e-05
3.88884e-05
3.65732e-05
3.45299e-05
3.27185e-05
3.11077e-05
2.96733e-05
2.84066e-05
2.74077e-05
0.000218609
0.000155003
0.000118661
9.65066e-05
8.1882e-05
7.08344e-05
6.30827e-05
5.71379e-05
5.22386e-05
4.8079e-05
4.45505e-05
4.15274e-05
3.88915e-05
3.65782e-05
3.4538e-05
3.27318e-05
3.11292e-05
2.97076e-05
2.84615e-05
2.75132e-05
0.000198681
0.0001383
0.000105187
8.55267e-05
7.2501e-05
6.28891e-05
5.60587e-05
5.07544e-05
4.63797e-05
4.27041e-05
3.95972e-05
3.69162e-05
3.45792e-05
3.25317e-05
3.07299e-05
2.91402e-05
2.77373e-05
2.65015e-05
2.54193e-05
2.45099e-05
0.000160509
0.00010736
8.07408e-05
6.55974e-05
5.54894e-05
4.83018e-05
4.31292e-05
3.90754e-05
3.57326e-05
3.2936e-05
3.05573e-05
2.85043e-05
2.67308e-05
2.51866e-05
2.38417e-05
2.26544e-05
2.16128e-05
2.07143e-05
1.99511e-05
1.93697e-05
0.000107685
6.77183e-05
5.0631e-05
4.14157e-05
3.54044e-05
3.10359e-05
2.77117e-05
2.5078e-05
2.29268e-05
2.11391e-05
1.9632e-05
1.83434e-05
1.72263e-05
1.62485e-05
1.5385e-05
1.4657e-05
1.40255e-05
1.35238e-05
1.31118e-05
1.28238e-05
4.5356e-05
2.3208e-05
1.65396e-05
1.36494e-05
1.18966e-05
1.06841e-05
9.76094e-06
9.05643e-06
8.49394e-06
8.02959e-06
7.63813e-06
7.30989e-06
7.01338e-06
6.75723e-06
6.52129e-06
6.31591e-06
6.15144e-06
6.00637e-06
5.91003e-06
5.84898e-06
0.000107685
6.77183e-05
5.0631e-05
4.14157e-05
3.54044e-05
3.10359e-05
2.77117e-05
2.5078e-05
2.29268e-05
2.1139e-05
1.96319e-05
1.83434e-05
1.72263e-05
1.62485e-05
1.53851e-05
1.4657e-05
1.40254e-05
1.35237e-05
1.31117e-05
1.28236e-05
0.000528907
0.000369984
0.000305096
0.000261371
0.000228531
0.000202485
0.000181136
0.000163119
0.000147625
0.000134135
0.000122299
0.000111868
0.000102728
9.4694e-05
8.75658e-05
8.12242e-05
7.6028e-05
7.16904e-05
6.59878e-05
5.85391e-05
0.000663952
0.000488458
0.000404618
0.000347248
0.000305039
0.000272137
0.000245342
0.000222939
0.000203855
0.000187354
0.000172954
0.000160302
0.000149132
0.000139244
0.000130622
0.000123075
0.000116572
0.00011098
0.000105545
0.000100138
0.00071288
0.000556432
0.000466396
0.000402355
0.000354429
0.000317062
0.000286701
0.000261312
0.000239692
0.000221045
0.000204779
0.000190498
0.0001779
0.000166747
0.000156864
0.000148116
0.000140373
0.000133493
0.000127312
0.000121298
0.000728543
0.000588231
0.000496001
0.000429132
0.000378514
0.000338946
0.000306846
0.000280031
0.000257185
0.000237459
0.000220251
0.000205134
0.000191792
0.00017998
0.000169512
0.000160247
0.000152046
0.000144766
0.000138187
0.000131424
0.000728543
0.000588231
0.000496002
0.000429132
0.000378514
0.000338947
0.000306847
0.000280033
0.000257188
0.000237465
0.00022026
0.000205148
0.000191815
0.000180013
0.000169569
0.000160346
0.000152213
0.000145046
0.000138696
0.000132814
0.00071288
0.000556432
0.000466397
0.000402356
0.00035443
0.000317063
0.000286704
0.000261316
0.000239699
0.000221056
0.000204797
0.000190527
0.000177946
0.000166828
0.000156997
0.000148337
0.000140745
0.000134128
0.000128504
0.00012345
0.000663952
0.000488458
0.000404619
0.000347249
0.00030504
0.000272139
0.000245344
0.000222943
0.00020386
0.000187363
0.000172968
0.000160324
0.000149167
0.000139303
0.000130724
0.000123251
0.000116876
0.000111517
0.000106487
9.95065e-05
0.000528907
0.000369984
0.000305096
0.000261371
0.000228531
0.000202485
0.000181136
0.000163119
0.000147625
0.000134135
0.000122299
0.000111868
0.000102728
9.46923e-05
8.75652e-05
8.1225e-05
7.60304e-05
7.16925e-05
6.59897e-05
5.85421e-05
0.000107685
6.77183e-05
5.0631e-05
4.14157e-05
3.54044e-05
3.10359e-05
2.77116e-05
2.5078e-05
2.29266e-05
2.11387e-05
1.96315e-05
1.83425e-05
1.72248e-05
1.62424e-05
1.53808e-05
1.46465e-05
1.40057e-05
1.34855e-05
1.30333e-05
1.27067e-05
0.000160509
0.00010736
8.07408e-05
6.55974e-05
5.54894e-05
4.83018e-05
4.31292e-05
3.90754e-05
3.57326e-05
3.2936e-05
3.05573e-05
2.85043e-05
2.67308e-05
2.51866e-05
2.38417e-05
2.26543e-05
2.16127e-05
2.07142e-05
1.99509e-05
1.93695e-05
0.000663952
0.000488458
0.000404619
0.000347249
0.00030504
0.000272139
0.000245344
0.000222943
0.00020386
0.000187363
0.000172968
0.000160324
0.000149169
0.000139306
0.000130723
0.000123248
0.000116872
0.000111512
0.000106483
9.94958e-05
0.000786827
0.000662293
0.000567975
0.000495807
0.000439468
0.000394575
0.000358005
0.000327515
0.000301615
0.000279281
0.000259801
0.000242674
0.000227542
0.000214138
0.000202289
0.000191873
0.000182791
0.000174865
0.000167744
0.000160018
0.000809324
0.000713906
0.000631505
0.000562576
0.000505383
0.0004578
0.000417874
0.000384008
0.000354938
0.000329697
0.00030759
0.000288106
0.000270868
0.000255587
0.000242061
0.00023015
0.0002197
0.000210522
0.000202242
0.000193733
0.000814958
0.000730426
0.000654635
0.000589046
0.000533073
0.000485454
0.000444797
0.000409863
0.000379607
0.000353184
0.000329934
0.000309372
0.000291134
0.00027494
0.000260586
0.000247931
0.000236808
0.000227014
0.000218097
0.000208543
0.000814958
0.000730426
0.000654635
0.000589046
0.000533074
0.000485454
0.000444798
0.000409865
0.000379609
0.000353187
0.000329938
0.000309378
0.000291142
0.000274949
0.000260602
0.000247965
0.000236871
0.000227133
0.000218385
0.000209533
0.000809324
0.000713906
0.000631505
0.000562576
0.000505383
0.000457801
0.000417875
0.00038401
0.00035494
0.000329701
0.000307596
0.000288115
0.000270876
0.000255601
0.000242105
0.000230222
0.000219818
0.000210724
0.000202625
0.00019452
0.000786827
0.000662293
0.000567975
0.000495807
0.000439468
0.000394575
0.000358005
0.000327515
0.000301615
0.000279281
0.000259801
0.000242674
0.000227536
0.000214129
0.000202293
0.00019188
0.0001828
0.000174874
0.000167754
0.000160037
0.000663952
0.000488458
0.000404618
0.000347248
0.000305039
0.000272137
0.000245342
0.000222939
0.000203855
0.000187355
0.000172954
0.000160301
0.00014913
0.00013924
0.000130622
0.000123078
0.000116577
0.000110986
0.000105551
0.000100147
0.000160509
0.00010736
8.07408e-05
6.55973e-05
5.54893e-05
4.83016e-05
4.31289e-05
3.90749e-05
3.57319e-05
3.29346e-05
3.05551e-05
2.8501e-05
2.67256e-05
2.5178e-05
2.38284e-05
2.26319e-05
2.15748e-05
2.06539e-05
1.98632e-05
1.92479e-05
0.000198681
0.0001383
0.000105187
8.55267e-05
7.2501e-05
6.28891e-05
5.60586e-05
5.07544e-05
4.63797e-05
4.27041e-05
3.95972e-05
3.69162e-05
3.45792e-05
3.25319e-05
3.073e-05
2.91402e-05
2.77373e-05
2.65014e-05
2.54192e-05
2.45099e-05
0.00071288
0.000556432
0.000466397
0.000402356
0.00035443
0.000317063
0.000286704
0.000261316
0.000239699
0.000221056
0.000204797
0.000190527
0.000177948
0.000166825
0.000156993
0.000148334
0.000140742
0.000134125
0.000128501
0.000123445
0.000809324
0.000713906
0.000631505
0.000562576
0.000505383
0.000457801
0.000417875
0.00038401
0.00035494
0.000329701
0.000307596
0.000288116
0.000270884
0.000255612
0.000242102
0.000230217
0.000219812
0.000210717
0.000202617
0.000194498
0.000823497
0.000753988
0.000688492
0.00062875
0.000575394
0.000528282
0.00048688
0.000450513
0.000418503
0.000390235
0.000365189
0.000342944
0.00032316
0.000305567
0.000289969
0.000276228
0.000264176
0.000253611
0.000244139
0.000234795
0.000826292
0.000764347
0.000706103
0.000651939
0.000602237
0.000557119
0.000516463
0.000479984
0.000447322
0.000418095
0.000391942
0.00036854
0.000347616
0.000328937
0.000312329
0.000297664
0.000284772
0.000273426
0.000263153
0.000252788
0.000826292
0.000764347
0.000706103
0.000651939
0.000602237
0.000557119
0.000516463
0.000479985
0.000447323
0.000418096
0.000391943
0.000368542
0.000347617
0.000328935
0.000312329
0.00029767
0.000284788
0.000273461
0.000263244
0.000253065
0.000823497
0.000753988
0.000688492
0.00062875
0.000575394
0.000528282
0.00048688
0.000450513
0.000418503
0.000390235
0.000365189
0.000342942
0.000323151
0.000305556
0.000289974
0.000276235
0.000264185
0.00025362
0.00024415
0.000234828
0.000809324
0.000713906
0.000631505
0.000562576
0.000505383
0.0004578
0.000417874
0.000384008
0.000354938
0.000329697
0.00030759
0.000288105
0.00027086
0.000255577
0.000242068
0.000230161
0.000219712
0.000210535
0.000202257
0.000193764
0.00071288
0.000556432
0.000466396
0.000402355
0.000354429
0.000317062
0.000286701
0.000261312
0.000239692
0.000221045
0.000204779
0.000190497
0.000177897
0.000166742
0.000156865
0.000148121
0.00014038
0.000133501
0.000127321
0.000121308
0.000198681
0.0001383
0.000105187
8.55267e-05
7.25009e-05
6.28889e-05
5.60583e-05
5.07538e-05
4.63787e-05
4.27027e-05
3.95946e-05
3.69122e-05
3.45728e-05
3.25216e-05
3.07136e-05
2.91137e-05
2.76941e-05
2.64304e-05
2.53055e-05
2.43636e-05
0.000218609
0.000155003
0.000118661
9.65066e-05
8.1882e-05
7.08344e-05
6.30827e-05
5.71379e-05
5.22385e-05
4.8079e-05
4.45505e-05
4.15274e-05
3.88915e-05
3.65783e-05
3.4538e-05
3.27318e-05
3.11293e-05
2.97076e-05
2.84615e-05
2.75132e-05
0.000728543
0.000588231
0.000496002
0.000429132
0.000378514
0.000338947
0.000306847
0.000280033
0.000257188
0.000237465
0.00022026
0.000205148
0.000191815
0.000180019
0.000169576
0.000160351
0.000152216
0.000145048
0.000138697
0.000132813
0.000814958
0.000730426
0.000654635
0.000589046
0.000533074
0.000485454
0.000444798
0.000409865
0.000379609
0.000353187
0.000329938
0.000309378
0.000291144
0.000274956
0.000260612
0.000247971
0.000236874
0.000227135
0.000218384
0.000209522
0.000826292
0.000764347
0.000706103
0.000651939
0.000602237
0.000557119
0.000516463
0.000479985
0.000447323
0.000418096
0.000391943
0.000368542
0.000347619
0.000328942
0.000312337
0.000297675
0.00028479
0.000273461
0.00026324
0.000253039
0.000828382
0.000772601
0.000721138
0.000672963
0.000627788
0.000585636
0.000546582
0.000510651
0.00047779
0.000447878
0.000420755
0.000396243
0.000374163
0.000354346
0.000336657
0.000320989
0.000307181
0.000294994
0.000283927
0.000272839
0.000828382
0.000772601
0.000721138
0.000672963
0.000627788
0.000585636
0.000546582
0.000510651
0.00047779
0.000447878
0.000420755
0.000396243
0.000374161
0.000354341
0.000336651
0.000320986
0.00030718
0.000294995
0.00028393
0.00027285
0.000826292
0.000764347
0.000706103
0.000651939
0.000602237
0.000557119
0.000516463
0.000479985
0.000447322
0.000418096
0.000391942
0.000368539
0.000347608
0.000328928
0.000312337
0.000297673
0.000284782
0.000273436
0.000263163
0.000252804
0.000814958
0.000730426
0.000654635
0.000589046
0.000533073
0.000485454
0.000444797
0.000409864
0.000379607
0.000353184
0.000329934
0.00030937
0.000291126
0.000274932
0.000260595
0.000247944
0.000236823
0.000227029
0.000218112
0.000208565
0.000728543
0.000588231
0.000496001
0.000429132
0.000378514
0.000338946
0.000306846
0.000280031
0.000257185
0.000237459
0.000220251
0.000205134
0.000191789
0.000179976
0.000169516
0.000160254
0.000152055
0.000144776
0.000138196
0.000131435
0.000218609
0.000155003
0.000118661
9.65066e-05
8.1882e-05
7.08343e-05
6.30825e-05
5.71376e-05
5.22381e-05
4.80782e-05
4.45492e-05
4.15254e-05
3.88883e-05
3.65731e-05
3.45298e-05
3.27185e-05
3.11078e-05
2.96735e-05
2.84067e-05
2.74077e-05
0.000218609
0.000155003
0.000118661
9.65066e-05
8.1882e-05
7.08343e-05
6.30825e-05
5.71376e-05
5.22381e-05
4.80782e-05
4.45492e-05
4.15254e-05
3.88883e-05
3.65732e-05
3.45299e-05
3.27185e-05
3.11078e-05
2.96734e-05
2.84066e-05
2.74076e-05
0.000728543
0.000588231
0.000496001
0.000429132
0.000378514
0.000338946
0.000306846
0.000280031
0.000257185
0.000237459
0.000220251
0.000205134
0.000191792
0.000179981
0.000169514
0.000160249
0.000152048
0.000144767
0.000138188
0.000131425
0.000814958
0.000730426
0.000654635
0.000589046
0.000533073
0.000485454
0.000444797
0.000409863
0.000379607
0.000353184
0.000329934
0.000309372
0.000291135
0.000274941
0.000260588
0.000247933
0.00023681
0.000227015
0.000218098
0.000208544
0.000826292
0.000764347
0.000706103
0.000651939
0.000602237
0.000557119
0.000516463
0.000479984
0.000447322
0.000418095
0.000391942
0.00036854
0.000347617
0.000328938
0.00031233
0.000297665
0.000284772
0.000273426
0.000263152
0.000252781
0.000828382
0.000772601
0.000721138
0.000672963
0.000627788
0.000585636
0.000546582
0.000510651
0.00047779
0.000447878
0.000420755
0.000396243
0.000374163
0.000354346
0.000336656
0.000320988
0.00030718
0.000294993
0.000283926
0.000272836
0.000828382
0.000772601
0.000721138
0.000672963
0.000627788
0.000585636
0.000546582
0.000510651
0.00047779
0.000447878
0.000420755
0.000396242
0.000374161
0.00035434
0.000336651
0.000320985
0.000307179
0.000294993
0.000283927
0.000272837
0.000826292
0.000764347
0.000706103
0.000651939
0.000602237
0.00055712
0.000516463
0.000479985
0.000447323
0.000418096
0.000391943
0.00036854
0.00034761
0.000328931
0.000312342
0.000297682
0.000284798
0.000273469
0.000263249
0.000253058
0.000814958
0.000730426
0.000654635
0.000589046
0.000533074
0.000485454
0.000444798
0.000409865
0.000379609
0.000353187
0.000329938
0.000309376
0.000291136
0.000274946
0.000260618
0.000247981
0.000236886
0.000227148
0.000218398
0.000209542
0.000728543
0.000588231
0.000496002
0.000429132
0.000378514
0.000338947
0.000306847
0.000280033
0.000257188
0.000237465
0.00022026
0.000205148
0.000191813
0.000180014
0.000169578
0.000160356
0.000152223
0.000145056
0.000138705
0.000132823
0.000218609
0.000155003
0.000118661
9.65066e-05
8.1882e-05
7.08344e-05
6.30827e-05
5.71379e-05
5.22386e-05
4.8079e-05
4.45505e-05
4.15274e-05
3.88915e-05
3.65782e-05
3.4538e-05
3.27319e-05
3.11293e-05
2.97078e-05
2.84616e-05
2.75133e-05
0.000198681
0.0001383
0.000105187
8.55267e-05
7.25009e-05
6.28889e-05
5.60583e-05
5.07538e-05
4.63787e-05
4.27027e-05
3.95946e-05
3.69122e-05
3.45728e-05
3.25217e-05
3.07136e-05
2.91136e-05
2.7694e-05
2.64303e-05
2.53054e-05
2.43635e-05
0.00071288
0.000556432
0.000466396
0.000402355
0.000354429
0.000317062
0.000286701
0.000261312
0.000239692
0.000221045
0.000204779
0.000190498
0.0001779
0.000166747
0.000156864
0.000148117
0.000140374
0.000133494
0.000127313
0.0001213
0.000809324
0.000713906
0.000631505
0.000562576
0.000505383
0.0004578
0.000417874
0.000384008
0.000354938
0.000329697
0.00030759
0.000288106
0.000270868
0.000255587
0.000242061
0.00023015
0.0002197
0.000210522
0.000202244
0.000193749
0.000823497
0.000753988
0.000688492
0.00062875
0.000575394
0.000528282
0.00048688
0.000450513
0.000418503
0.000390235
0.000365189
0.000342943
0.00032316
0.000305567
0.000289968
0.000276226
0.000264175
0.00025361
0.00024414
0.000234815
0.000826292
0.000764347
0.000706103
0.000651939
0.000602237
0.00055712
0.000516463
0.000479985
0.000447323
0.000418096
0.000391943
0.000368542
0.000347619
0.000328941
0.000312333
0.000297671
0.000284786
0.000273458
0.00026324
0.000253057
0.000826292
0.000764347
0.000706103
0.000651939
0.000602237
0.00055712
0.000516463
0.000479985
0.000447322
0.000418096
0.000391942
0.00036854
0.000347614
0.00032893
0.00031232
0.000297658
0.000284768
0.000273423
0.000263151
0.000252785
0.000823497
0.000753988
0.000688492
0.00062875
0.000575394
0.000528282
0.00048688
0.000450514
0.000418503
0.000390235
0.000365189
0.000342942
0.00032315
0.000305555
0.000289973
0.000276233
0.000264183
0.000253619
0.000244147
0.000234812
0.000809324
0.000713906
0.000631505
0.000562576
0.000505383
0.000457801
0.000417875
0.00038401
0.000354941
0.000329701
0.000307596
0.000288115
0.000270875
0.000255601
0.000242107
0.000230226
0.000219823
0.00021073
0.000202631
0.000194518
0.00071288
0.000556432
0.000466397
0.000402356
0.00035443
0.000317063
0.000286704
0.000261316
0.000239699
0.000221057
0.000204797
0.000190527
0.000177945
0.00016682
0.000156995
0.000148338
0.000140749
0.000134133
0.00012851
0.000123456
0.000198681
0.0001383
0.000105187
8.55267e-05
7.2501e-05
6.28891e-05
5.60586e-05
5.07544e-05
4.63797e-05
4.27041e-05
3.95972e-05
3.69162e-05
3.45792e-05
3.25318e-05
3.073e-05
2.91402e-05
2.77374e-05
2.65016e-05
2.54194e-05
2.451e-05
0.000160509
0.00010736
8.07408e-05
6.55974e-05
5.54893e-05
4.83016e-05
4.31289e-05
3.90749e-05
3.57319e-05
3.29346e-05
3.05551e-05
2.8501e-05
2.67256e-05
2.5178e-05
2.38284e-05
2.26319e-05
2.15748e-05
2.06538e-05
1.98631e-05
1.92478e-05
0.000663952
0.000488458
0.000404618
0.000347248
0.000305039
0.000272137
0.000245342
0.000222939
0.000203855
0.000187354
0.000172954
0.000160302
0.000149131
0.000139244
0.000130621
0.000123076
0.000116573
0.000110981
0.000105547
0.000100142
0.000786827
0.000662293
0.000567975
0.000495807
0.000439468
0.000394575
0.000358005
0.000327515
0.000301615
0.000279281
0.000259801
0.000242674
0.000227541
0.000214138
0.000202289
0.000191873
0.000182792
0.000174866
0.000167747
0.00016003
0.000809324
0.000713906
0.000631505
0.000562576
0.000505383
0.000457801
0.000417875
0.00038401
0.00035494
0.000329701
0.000307596
0.000288116
0.000270883
0.000255611
0.0002421
0.000230216
0.000219811
0.000210718
0.00020262
0.000194516
0.000814958
0.000730426
0.000654635
0.000589046
0.000533074
0.000485454
0.000444798
0.000409865
0.000379609
0.000353187
0.000329938
0.000309378
0.000291143
0.000274954
0.000260608
0.000247967
0.000236871
0.000227133
0.000218385
0.000209535
0.000814958
0.000730426
0.000654635
0.000589046
0.000533073
0.000485454
0.000444797
0.000409864
0.000379607
0.000353184
0.000329934
0.000309372
0.000291132
0.000274933
0.000260577
0.000247925
0.000236806
0.000227014
0.0002181
0.000208553
0.000809324
0.000713906
0.000631505
0.000562576
0.000505383
0.0004578
0.000417874
0.000384008
0.000354938
0.000329697
0.00030759
0.000288105
0.00027086
0.000255575
0.000242064
0.000230155
0.000219707
0.00021053
0.000202253
0.000193758
0.000786827
0.000662293
0.000567975
0.000495807
0.000439468
0.000394575
0.000358005
0.000327516
0.000301615
0.000279281
0.000259801
0.000242674
0.000227535
0.000214128
0.000202293
0.00019188
0.000182801
0.000174877
0.000167757
0.000160039
0.000663952
0.000488458
0.000404619
0.000347249
0.00030504
0.000272139
0.000245344
0.000222943
0.000203861
0.000187363
0.000172968
0.000160324
0.000149167
0.000139301
0.000130724
0.000123252
0.000116878
0.00011152
0.00010649
9.95056e-05
0.000160509
0.00010736
8.07408e-05
6.55974e-05
5.54894e-05
4.83018e-05
4.31292e-05
3.90754e-05
3.57326e-05
3.2936e-05
3.05573e-05
2.85043e-05
2.67308e-05
2.51866e-05
2.38417e-05
2.26544e-05
2.16129e-05
2.07144e-05
1.99511e-05
1.93697e-05
0.000107685
6.77183e-05
5.0631e-05
4.14157e-05
3.54044e-05
3.10359e-05
2.77116e-05
2.5078e-05
2.29266e-05
2.11388e-05
1.96315e-05
1.83425e-05
1.72248e-05
1.62424e-05
1.53808e-05
1.46465e-05
1.40057e-05
1.34855e-05
1.30333e-05
1.27066e-05
0.000528907
0.000369984
0.000305096
0.000261371
0.000228531
0.000202485
0.000181136
0.000163119
0.000147625
0.000134135
0.000122299
0.000111868
0.000102728
9.46941e-05
8.75656e-05
8.12245e-05
7.60287e-05
7.16913e-05
6.5989e-05
5.85408e-05
0.000663952
0.000488458
0.000404619
0.000347249
0.00030504
0.000272139
0.000245344
0.000222943
0.00020386
0.000187363
0.000172968
0.000160324
0.000149169
0.000139306
0.000130723
0.000123249
0.000116874
0.000111515
0.000106485
9.9505e-05
0.00071288
0.000556432
0.000466397
0.000402356
0.00035443
0.000317063
0.000286704
0.000261316
0.000239699
0.000221056
0.000204797
0.000190527
0.000177948
0.000166825
0.000156993
0.000148335
0.000140744
0.000134127
0.000128504
0.000123451
0.000728543
0.000588231
0.000496002
0.000429133
0.000378514
0.000338947
0.000306847
0.000280033
0.000257188
0.000237465
0.00022026
0.000205149
0.000191815
0.000180018
0.000169574
0.00016035
0.000152216
0.000145049
0.000138699
0.000132818
0.000728543
0.000588231
0.000496001
0.000429132
0.000378514
0.000338946
0.000306846
0.000280031
0.000257185
0.000237459
0.000220251
0.000205134
0.000191791
0.000179975
0.000169506
0.000160245
0.000152047
0.000144769
0.00013819
0.00013143
0.00071288
0.000556432
0.000466396
0.000402355
0.000354429
0.000317062
0.000286701
0.000261312
0.000239693
0.000221046
0.00020478
0.000190498
0.000177898
0.00016675
0.000156868
0.000148122
0.000140379
0.0001335
0.000127319
0.000121307
0.000663952
0.000488458
0.000404618
0.000347248
0.000305039
0.000272138
0.000245342
0.00022294
0.000203855
0.000187355
0.000172954
0.000160302
0.00014913
0.000139242
0.000130623
0.00012308
0.000116578
0.000110987
0.000105552
0.000100148
0.000528907
0.000369984
0.000305096
0.000261371
0.000228531
0.000202485
0.000181136
0.000163119
0.000147625
0.000134135
0.0001223
0.000111868
0.000102728
9.46926e-05
8.75658e-05
8.12259e-05
7.60315e-05
7.16937e-05
6.5991e-05
5.85428e-05
0.000107685
6.77183e-05
5.0631e-05
4.14157e-05
3.54044e-05
3.10359e-05
2.77117e-05
2.5078e-05
2.29268e-05
2.11391e-05
1.9632e-05
1.83434e-05
1.72263e-05
1.62484e-05
1.5385e-05
1.4657e-05
1.40255e-05
1.35238e-05
1.31119e-05
1.28238e-05
4.5356e-05
2.3208e-05
1.65396e-05
1.36494e-05
1.18966e-05
1.06841e-05
9.76094e-06
9.05644e-06
8.49393e-06
8.02958e-06
7.63815e-06
7.30989e-06
7.01338e-06
6.75724e-06
6.5213e-06
6.31592e-06
6.15144e-06
6.00638e-06
5.91003e-06
5.84898e-06
0.000107685
6.77183e-05
5.0631e-05
4.14157e-05
3.54044e-05
3.10359e-05
2.77117e-05
2.5078e-05
2.29268e-05
2.1139e-05
1.96319e-05
1.83434e-05
1.72263e-05
1.62485e-05
1.53851e-05
1.4657e-05
1.40255e-05
1.35238e-05
1.31118e-05
1.28237e-05
0.000160509
0.00010736
8.07408e-05
6.55974e-05
5.54894e-05
4.83018e-05
4.31292e-05
3.90754e-05
3.57326e-05
3.2936e-05
3.05573e-05
2.85043e-05
2.67308e-05
2.51867e-05
2.38418e-05
2.26544e-05
2.16128e-05
2.07143e-05
1.9951e-05
1.93697e-05
0.000198681
0.0001383
0.000105187
8.55267e-05
7.2501e-05
6.28892e-05
5.60587e-05
5.07544e-05
4.63797e-05
4.27041e-05
3.95972e-05
3.69162e-05
3.45792e-05
3.25319e-05
3.073e-05
2.91402e-05
2.77373e-05
2.65015e-05
2.54193e-05
2.45099e-05
0.000218609
0.000155003
0.000118661
9.65066e-05
8.1882e-05
7.08344e-05
6.30827e-05
5.71379e-05
5.22386e-05
4.8079e-05
4.45505e-05
4.15274e-05
3.88915e-05
3.65783e-05
3.4538e-05
3.27318e-05
3.11292e-05
2.97076e-05
2.84615e-05
2.75132e-05
0.000218609
0.000155003
0.000118661
9.65066e-05
8.1882e-05
7.08343e-05
6.30825e-05
5.71376e-05
5.22381e-05
4.80782e-05
4.45492e-05
4.15254e-05
3.88883e-05
3.65732e-05
3.45298e-05
3.27184e-05
3.11077e-05
2.96733e-05
2.84066e-05
2.74076e-05
0.000198681
0.0001383
0.000105187
8.55267e-05
7.25009e-05
6.28889e-05
5.60583e-05
5.07538e-05
4.63787e-05
4.27027e-05
3.95946e-05
3.69122e-05
3.45728e-05
3.25215e-05
3.07135e-05
2.91136e-05
2.76939e-05
2.64303e-05
2.53054e-05
2.43636e-05
0.000160509
0.00010736
8.07408e-05
6.55974e-05
5.54893e-05
4.83016e-05
4.31289e-05
3.9075e-05
3.57319e-05
3.29346e-05
3.05552e-05
2.8501e-05
2.67256e-05
2.51779e-05
2.38283e-05
2.26319e-05
2.15748e-05
2.06539e-05
1.98632e-05
1.92479e-05
0.000107685
6.77183e-05
5.0631e-05
4.14157e-05
3.54044e-05
3.10359e-05
2.77116e-05
2.5078e-05
2.29266e-05
2.11388e-05
1.96315e-05
1.83425e-05
1.72248e-05
1.62424e-05
1.53808e-05
1.46465e-05
1.40057e-05
1.34855e-05
1.30333e-05
1.27067e-05
4.5356e-05
2.3208e-05
1.65396e-05
1.36494e-05
1.18966e-05
1.06841e-05
9.76094e-06
9.05643e-06
8.49394e-06
8.02959e-06
7.63813e-06
7.30989e-06
7.01338e-06
6.75723e-06
6.52128e-06
6.31591e-06
6.15144e-06
6.00638e-06
5.91003e-06
5.84899e-06
5.5997e-06
5.1984e-06
4.83897e-06
4.6225e-06
4.50689e-06
4.44668e-06
4.41013e-06
4.38288e-06
4.36315e-06
4.34894e-06
4.33906e-06
4.33199e-06
4.32654e-06
4.32218e-06
4.31868e-06
4.31598e-06
4.31383e-06
4.31241e-06
4.31151e-06
4.31099e-06
4.31077e-06
4.31078e-06
4.311e-06
4.31129e-06
4.31156e-06
4.31171e-06
4.31178e-06
4.31186e-06
4.31204e-06
4.31222e-06
4.31238e-06
4.3124e-06
4.31229e-06
4.31236e-06
4.31218e-06
4.31234e-06
4.31246e-06
4.31245e-06
4.31239e-06
4.31225e-06
1.13016e-05
1.05547e-05
1.01023e-05
9.60439e-06
9.42308e-06
9.28159e-06
9.17625e-06
9.10242e-06
9.04464e-06
8.99959e-06
8.96481e-06
8.93772e-06
8.91679e-06
8.90043e-06
8.88785e-06
8.87851e-06
8.87224e-06
8.8682e-06
8.86565e-06
8.86422e-06
8.86363e-06
8.86363e-06
8.8638e-06
8.86382e-06
8.86394e-06
8.86422e-06
8.86468e-06
8.86526e-06
8.8657e-06
8.86578e-06
8.86583e-06
8.86595e-06
8.86619e-06
8.8665e-06
8.86605e-06
8.86598e-06
8.8661e-06
8.86641e-06
8.86683e-06
8.86736e-06
1.66456e-05
1.56482e-05
1.50231e-05
1.45789e-05
1.42107e-05
1.39473e-05
1.37468e-05
1.35939e-05
1.34768e-05
1.33857e-05
1.33145e-05
1.32587e-05
1.32147e-05
1.31805e-05
1.31538e-05
1.31372e-05
1.31196e-05
1.31099e-05
1.31036e-05
1.30996e-05
1.30974e-05
1.30964e-05
1.30958e-05
1.30951e-05
1.3095e-05
1.30955e-05
1.30965e-05
1.30977e-05
1.30984e-05
1.30985e-05
1.30988e-05
1.30994e-05
1.31002e-05
1.31009e-05
1.31014e-05
1.31009e-05
1.31015e-05
1.31021e-05
1.31029e-05
1.3104e-05
2.04385e-05
1.96644e-05
1.90375e-05
1.85102e-05
1.8071e-05
1.77108e-05
1.74198e-05
1.71874e-05
1.7004e-05
1.68603e-05
1.67482e-05
1.66604e-05
1.65906e-05
1.65362e-05
1.64951e-05
1.64624e-05
1.64454e-05
1.6422e-05
1.64124e-05
1.64057e-05
1.64013e-05
1.63984e-05
1.63956e-05
1.6393e-05
1.63923e-05
1.63927e-05
1.63942e-05
1.63957e-05
1.63961e-05
1.63959e-05
1.63963e-05
1.63974e-05
1.6399e-05
1.64004e-05
1.6402e-05
1.64024e-05
1.64024e-05
1.6403e-05
1.64041e-05
1.64055e-05
2.27173e-05
2.2053e-05
2.1467e-05
2.09466e-05
2.04868e-05
2.00936e-05
1.9765e-05
1.9495e-05
1.92766e-05
1.91019e-05
1.89633e-05
1.88524e-05
1.87638e-05
1.86951e-05
1.86423e-05
1.86023e-05
1.85723e-05
1.85515e-05
1.85374e-05
1.85278e-05
1.85215e-05
1.85171e-05
1.85126e-05
1.85085e-05
1.85076e-05
1.85079e-05
1.85095e-05
1.85114e-05
1.85119e-05
1.85116e-05
1.85121e-05
1.85136e-05
1.85156e-05
1.85178e-05
1.85183e-05
1.85184e-05
1.85193e-05
1.85204e-05
1.85219e-05
1.85237e-05
2.41455e-05
2.3154e-05
2.23981e-05
2.17871e-05
2.12798e-05
2.08624e-05
2.0521e-05
2.02433e-05
2.00188e-05
1.98385e-05
1.96945e-05
1.95788e-05
1.9486e-05
1.94136e-05
1.93578e-05
1.93152e-05
1.92828e-05
1.92607e-05
1.92454e-05
1.92352e-05
1.92284e-05
1.92236e-05
1.92187e-05
1.92144e-05
1.92129e-05
1.92133e-05
1.92156e-05
1.92176e-05
1.9218e-05
1.92175e-05
1.92181e-05
1.92197e-05
1.92218e-05
1.92239e-05
1.92242e-05
1.92248e-05
1.92257e-05
1.92261e-05
1.92276e-05
1.92295e-05
2.33756e-05
2.22723e-05
2.14433e-05
2.08134e-05
2.03233e-05
1.99321e-05
1.96184e-05
1.93665e-05
1.91649e-05
1.90043e-05
1.88767e-05
1.87742e-05
1.86924e-05
1.86275e-05
1.85779e-05
1.85401e-05
1.85116e-05
1.84918e-05
1.84783e-05
1.84695e-05
1.84639e-05
1.846e-05
1.84559e-05
1.84521e-05
1.84514e-05
1.84519e-05
1.84535e-05
1.84553e-05
1.84555e-05
1.84548e-05
1.84552e-05
1.84566e-05
1.84585e-05
1.84602e-05
1.84604e-05
1.84606e-05
1.84611e-05
1.84613e-05
1.84626e-05
1.84644e-05
2.04445e-05
1.92247e-05
1.85238e-05
1.80652e-05
1.76937e-05
1.7393e-05
1.71509e-05
1.69581e-05
1.68068e-05
1.66865e-05
1.65922e-05
1.65166e-05
1.64558e-05
1.64069e-05
1.63689e-05
1.63413e-05
1.63217e-05
1.63047e-05
1.62957e-05
1.62899e-05
1.62863e-05
1.62841e-05
1.62819e-05
1.62797e-05
1.62794e-05
1.628e-05
1.62816e-05
1.62831e-05
1.62834e-05
1.62828e-05
1.6283e-05
1.6284e-05
1.62853e-05
1.62866e-05
1.6287e-05
1.62864e-05
1.62858e-05
1.62859e-05
1.62869e-05
1.62886e-05
1.5395e-05
1.48623e-05
1.44626e-05
1.41019e-05
1.38209e-05
1.36183e-05
1.34686e-05
1.33578e-05
1.32683e-05
1.31963e-05
1.31389e-05
1.30928e-05
1.30555e-05
1.30253e-05
1.30017e-05
1.2988e-05
1.29705e-05
1.2963e-05
1.2958e-05
1.29549e-05
1.29534e-05
1.2953e-05
1.29529e-05
1.29526e-05
1.29527e-05
1.29534e-05
1.29545e-05
1.29557e-05
1.29564e-05
1.29563e-05
1.29565e-05
1.29569e-05
1.29574e-05
1.2958e-05
1.29579e-05
1.29565e-05
1.29554e-05
1.29554e-05
1.29563e-05
1.29578e-05
1.07574e-05
1.01894e-05
9.63268e-06
9.36914e-06
9.19804e-06
9.09044e-06
9.01794e-06
8.96616e-06
8.92485e-06
8.8917e-06
8.86465e-06
8.84271e-06
8.82487e-06
8.81069e-06
8.79983e-06
8.79167e-06
8.7863e-06
8.78285e-06
8.78073e-06
8.77963e-06
8.77931e-06
8.77955e-06
8.77995e-06
8.78012e-06
8.78036e-06
8.7807e-06
8.78117e-06
8.78174e-06
8.7822e-06
8.78226e-06
8.78227e-06
8.78229e-06
8.78238e-06
8.78255e-06
8.78279e-06
8.78282e-06
8.78171e-06
8.78115e-06
8.78132e-06
8.7819e-06
5.59978e-06
5.19839e-06
4.83927e-06
4.62249e-06
4.50672e-06
4.44667e-06
4.41049e-06
4.38324e-06
4.36347e-06
4.34925e-06
4.33944e-06
4.33222e-06
4.32674e-06
4.32232e-06
4.31882e-06
4.31612e-06
4.31399e-06
4.31259e-06
4.31172e-06
4.31123e-06
4.31102e-06
4.31104e-06
4.31127e-06
4.31155e-06
4.31181e-06
4.31196e-06
4.31201e-06
4.31208e-06
4.31225e-06
4.31243e-06
4.31256e-06
4.31256e-06
4.31246e-06
4.31237e-06
4.31255e-06
4.31268e-06
4.31257e-06
4.31239e-06
4.31214e-06
4.31198e-06
1.07572e-05
1.01894e-05
9.63174e-06
9.36881e-06
9.19754e-06
9.08958e-06
9.01692e-06
8.96506e-06
8.92343e-06