/*--------------------------------*- C++ -*----------------------------------*\
| =========                 |                                                 |
| \\      /  F ield         | OpenFOAM: The Open Source CFD Toolbox           |
|  \\    /   O peration     | Version:  2212                                  |
|   \\  /    A nd           | Website:  www.openfoam.com                      |
|    \\/     M anipulation  |                                                 |
\*---------------------------------------------------------------------------*/
FoamFile
{
    version     2.0;
    format      ascii;
    arch        "LSB;label=32;scalar=64";
    class       volScalarField;
    location    "0.45";
    object      p;
}
// * * * * * * * * * * * * * * * * * * * * * * * * * * * * * * * * * * * * * //

dimensions      [0 2 -2 0 0 0 0];

internalField   nonuniform List<scalar> 
6840
(
0.0182529
0.0111385
0.00884708
0.00830932
0.00803507
0.007813
0.00762634
0.00745991
0.00729873
0.0071391
0.00698061
0.00682322
0.00666618
0.00650869
0.00634931
0.00618749
0.00602518
0.00585446
0.00563108
0.00520034
0.0110741
0.0103403
0.00924742
0.00858152
0.00817905
0.0079054
0.00769426
0.00750807
0.00733368
0.00716627
0.00700309
0.00684251
0.00668361
0.00652593
0.00636932
0.00621354
0.00605852
0.00590126
0.00572344
0.00547349
0.0107259
0.00987446
0.0091102
0.00855111
0.00817504
0.00790707
0.0076914
0.0074984
0.00731994
0.00715151
0.00698852
0.0068287
0.00667178
0.00651804
0.00636813
0.00622282
0.00608421
0.00595597
0.00584865
0.00578326
0.0103167
0.00955402
0.00893529
0.00848399
0.00814008
0.00787112
0.00765145
0.00746238
0.00729426
0.00713666
0.00698103
0.00682612
0.00667319
0.00652389
0.00638037
0.00624603
0.00612646
0.00603073
0.00597797
0.00599976
0.0101825
0.00944134
0.00885322
0.00844515
0.00812321
0.00785653
0.00763504
0.00744426
0.00727308
0.00711582
0.00696541
0.00681518
0.0066646
0.00651625
0.00637277
0.00623695
0.00611291
0.00600646
0.00592652
0.00588861
0.0101825
0.00944132
0.00885318
0.00844508
0.00812311
0.00785639
0.00763481
0.00744386
0.00727241
0.00711471
0.00696357
0.00681212
0.00665956
0.00650787
0.00635882
0.00621364
0.00607434
0.00594232
0.00581981
0.00571499
0.0103167
0.00955395
0.0089352
0.00848387
0.00813989
0.00787081
0.0076509
0.00746142
0.00729263
0.00713397
0.00697661
0.00681889
0.00666136
0.00650444
0.00634806
0.00619199
0.00603611
0.00588067
0.00572821
0.00558396
0.0107259
0.00987439
0.00911013
0.008551
0.00817486
0.00790674
0.00769082
0.00749744
0.00731836
0.00714891
0.0069842
0.00682167
0.00666036
0.00649933
0.00633724
0.00617182
0.0059992
0.00581438
0.00561024
0.00536119
0.0110741
0.0103403
0.00924739
0.00858147
0.00817895
0.00790524
0.00769398
0.00750759
0.00733286
0.0071649
0.00700079
0.00683884
0.00667766
0.00651595
0.00635235
0.00618557
0.00601217
0.00581828
0.00555504
0.00511615
0.0182528
0.0111385
0.00884707
0.00830931
0.00803506
0.00781299
0.00762633
0.0074599
0.00729873
0.0071391
0.0069806
0.00682321
0.00666617
0.00650867
0.00634928
0.00618743
0.0060251
0.00585433
0.00563088
0.00520006
0.0110741
0.0103403
0.0092474
0.00858148
0.00817896
0.00790525
0.00769399
0.00750759
0.00733287
0.00716491
0.0070008
0.00683884
0.00667767
0.00651597
0.00635239
0.00618564
0.00601226
0.00581841
0.00555524
0.00511649
0.0103575
0.0103259
0.00959764
0.00888718
0.00844088
0.00812488
0.00786579
0.00763775
0.00743259
0.00724323
0.00706366
0.00689039
0.00672084
0.00655257
0.0063844
0.00621571
0.00604393
0.00586566
0.00569287
0.00557508
0.00943212
0.00955835
0.00925549
0.00883927
0.00847217
0.00815352
0.00787479
0.00763403
0.00742099
0.00722584
0.00704188
0.00686578
0.00669576
0.00653048
0.00636931
0.00621169
0.00605556
0.00589877
0.00574959
0.00562597
0.00901381
0.00905738
0.00889188
0.00862895
0.00834848
0.00807702
0.00782571
0.00759893
0.00739556
0.00720861
0.00703124
0.00686063
0.00669549
0.00653559
0.00638172
0.00623492
0.00609614
0.00596714
0.00585095
0.00574997
0.00879781
0.00881969
0.00869255
0.0084751
0.00824265
0.00801332
0.00779025
0.00757683
0.00737558
0.00718774
0.00701098
0.00684182
0.00667877
0.0065217
0.00637084
0.00622634
0.00608903
0.00596136
0.00584783
0.00574736
0.00879776
0.00881964
0.00869248
0.00847498
0.00824248
0.00801308
0.00778988
0.00757626
0.0073747
0.00718629
0.00700857
0.0068379
0.00667268
0.00651221
0.00635581
0.00620348
0.00605535
0.00591194
0.00577624
0.00564766
0.00901371
0.00905727
0.00889174
0.00862875
0.00834819
0.00807662
0.00782509
0.00759791
0.0073938
0.00720558
0.00702607
0.00685221
0.00668272
0.00651628
0.00635173
0.00618828
0.00602517
0.00586209
0.00570158
0.00554083
0.00943206
0.00955828
0.00925539
0.00883915
0.008472
0.00815326
0.00787434
0.00763325
0.00741965
0.00722368
0.00703847
0.00686057
0.00668769
0.0065177
0.00634898
0.00618
0.00600756
0.00582894
0.00565281
0.00548924
0.0103575
0.0103259
0.00959762
0.00888716
0.00844087
0.00812487
0.00786578
0.00763773
0.00743257
0.00724321
0.00706365
0.00689037
0.00672081
0.00655252
0.00638434
0.00621562
0.00604381
0.00586549
0.00569264
0.00557473
0.0110741
0.0103403
0.00924741
0.00858151
0.00817904
0.00790539
0.00769425
0.00750806
0.00733366
0.00716626
0.00700308
0.00684249
0.00668359
0.00652591
0.00636927
0.00621346
0.00605843
0.00590113
0.00572326
0.00547325
0.0107259
0.00987441
0.00911014
0.00855102
0.00817487
0.00790676
0.00769085
0.00749746
0.00731839
0.00714894
0.00698422
0.00682171
0.0066604
0.00649939
0.00633731
0.00617191
0.0059993
0.00581451
0.00561044
0.00536147
0.00943208
0.0095583
0.00925541
0.00883917
0.00847202
0.00815328
0.00787437
0.00763328
0.00741968
0.00722372
0.00703851
0.00686062
0.00668775
0.00651778
0.00634906
0.0061801
0.00600769
0.0058291
0.00565303
0.00548954
0.0088625
0.00896351
0.00885196
0.00862644
0.00837066
0.0081122
0.00785354
0.00761147
0.00739297
0.00719206
0.00700359
0.00682447
0.00665242
0.00648553
0.00632235
0.00616197
0.0060028
0.00584417
0.0056928
0.00554801
0.00849444
0.00856252
0.00851013
0.00836316
0.00817823
0.00797304
0.0077622
0.00755507
0.00735389
0.0071616
0.00697925
0.00680533
0.00663808
0.00647632
0.00631911
0.00616612
0.00601754
0.00587297
0.00573223
0.00558668
0.00831132
0.00837576
0.00834626
0.00822134
0.00806222
0.00788838
0.007702
0.00751407
0.00732791
0.0071442
0.00696523
0.00679254
0.00662656
0.00646652
0.0063111
0.00616033
0.00601476
0.00587397
0.00573814
0.00559854
0.00831128
0.00837573
0.00834621
0.00822124
0.00806202
0.00788811
0.00770171
0.00751369
0.0073273
0.00714319
0.00696365
0.00679009
0.00662279
0.00646113
0.00630389
0.0061503
0.00599984
0.00585202
0.00570779
0.0055606
0.00849437
0.00856245
0.00851003
0.00836299
0.00817799
0.00797273
0.0077618
0.00755446
0.00735293
0.00716006
0.00697676
0.00680144
0.00663222
0.00646765
0.00630658
0.00614801
0.00599078
0.00583426
0.00568004
0.00552163
0.00886248
0.0089635
0.00885195
0.00862643
0.00837065
0.00811219
0.00785352
0.00761145
0.00739295
0.00719204
0.00700357
0.00682444
0.00665238
0.00648549
0.0063223
0.00616191
0.00600272
0.00584407
0.00569267
0.00554786
0.00943211
0.00955834
0.00925548
0.00883926
0.00847217
0.00815351
0.00787478
0.00763403
0.00742098
0.00722584
0.00704188
0.00686578
0.00669575
0.00653046
0.00636926
0.00621163
0.00605547
0.00589865
0.00574941
0.00562573
0.0107259
0.00987444
0.00911019
0.0085511
0.00817503
0.00790707
0.0076914
0.0074984
0.00731994
0.00715151
0.00698852
0.00682871
0.00667178
0.00651803
0.0063681
0.00622277
0.00608415
0.00595589
0.00584853
0.00578311
0.0103167
0.00955397
0.00893522
0.0084839
0.00813992
0.00787084
0.00765094
0.00746145
0.00729267
0.00713402
0.00697666
0.00681895
0.00666143
0.00650452
0.00634815
0.00619208
0.00603621
0.00588078
0.00572834
0.00558411
0.00901373
0.00905729
0.00889177
0.00862878
0.00834822
0.00807665
0.00782513
0.00759795
0.00739385
0.00720563
0.00702612
0.00685227
0.00668279
0.00651636
0.00635182
0.00618838
0.00602528
0.00586221
0.00570171
0.00554099
0.00849439
0.00856246
0.00851005
0.00836301
0.00817801
0.00797275
0.00776183
0.00755449
0.00735296
0.00716009
0.00697679
0.00680148
0.00663226
0.00646769
0.00630662
0.00614807
0.00599083
0.00583431
0.00568008
0.00552163
0.00819644
0.00825559
0.00824364
0.00814819
0.00800843
0.00784269
0.00766235
0.00747774
0.00729376
0.0071135
0.00693859
0.00676905
0.00660439
0.00644406
0.00628739
0.00613366
0.00598212
0.00583218
0.00568426
0.00553002
0.00804529
0.00810819
0.00811193
0.00803823
0.00791803
0.00777148
0.00760839
0.00743687
0.00726289
0.00708958
0.00691893
0.00675211
0.00658958
0.00643122
0.00627645
0.00612481
0.0059759
0.00582951
0.00568649
0.00553625
0.00804527
0.00810817
0.0081119
0.0080382
0.00791798
0.00777141
0.00760828
0.00743672
0.00726268
0.00708927
0.00691846
0.0067514
0.00658852
0.00642971
0.00627448
0.0061222
0.00597234
0.00582467
0.00568016
0.00552984
0.00819643
0.00825558
0.00824363
0.00814818
0.00800842
0.00784268
0.00766234
0.00747773
0.00729375
0.00711348
0.00693857
0.00676903
0.00660438
0.00644405
0.00628739
0.00613365
0.00598212
0.00583219
0.00568432
0.00553014
0.00849443
0.00856251
0.00851013
0.00836315
0.00817823
0.00797304
0.0077622
0.00755506
0.00735389
0.0071616
0.00697925
0.00680532
0.00663806
0.00647632
0.00631911
0.00616611
0.00601752
0.00587295
0.00573221
0.00558669
0.0090138
0.00905737
0.00889188
0.00862895
0.00834848
0.00807702
0.00782572
0.00759894
0.00739556
0.00720862
0.00703124
0.00686064
0.00669549
0.00653558
0.00638171
0.0062349
0.00609611
0.00596709
0.00585087
0.00574985
0.0103167
0.00955401
0.00893528
0.00848399
0.00814008
0.00787113
0.00765146
0.00746239
0.00729428
0.00713667
0.00698104
0.00682614
0.00667321
0.0065239
0.00638037
0.00624602
0.00612644
0.0060307
0.00597794
0.00599974
0.0101825
0.00944134
0.00885321
0.00844511
0.00812314
0.00785643
0.00763485
0.00744391
0.00727246
0.00711476
0.00696362
0.00681217
0.00665962
0.00650794
0.00635889
0.00621371
0.00607441
0.00594239
0.00581989
0.00571507
0.00879778
0.00881966
0.00869251
0.008475
0.00824251
0.00801312
0.00778992
0.0075763
0.00737475
0.00718634
0.00700862
0.00683795
0.00667274
0.00651227
0.00635588
0.00620355
0.00605541
0.00591201
0.0057763
0.00564771
0.0083113
0.00837575
0.00834623
0.00822126
0.00806204
0.00788813
0.00770173
0.00751371
0.00732733
0.00714322
0.00696368
0.00679013
0.00662283
0.00646117
0.00630393
0.00615034
0.00599988
0.00585205
0.00570781
0.00556059
0.00804528
0.00810817
0.00811191
0.00803821
0.00791799
0.00777142
0.00760829
0.00743673
0.00726269
0.00708929
0.00691847
0.00675142
0.00658854
0.00642972
0.00627449
0.0061222
0.00597234
0.00582466
0.00568012
0.00552978
0.00790243
0.00797194
0.00799404
0.00794144
0.00784015
0.00770917
0.00755927
0.00739839
0.00723218
0.00706431
0.00689732
0.00673281
0.0065716
0.00641388
0.00625942
0.00610775
0.00595817
0.00581006
0.00566301
0.00551672
0.00790243
0.00797194
0.00799403
0.00794144
0.00784014
0.00770917
0.00755926
0.00739839
0.00723218
0.00706431
0.00689731
0.00673281
0.0065716
0.00641388
0.00625942
0.00610775
0.00595818
0.00581008
0.00566304
0.00551677
0.00804528
0.00810818
0.00811192
0.00803823
0.00791802
0.00777148
0.00760838
0.00743686
0.00726288
0.00708958
0.00691893
0.00675211
0.00658958
0.00643123
0.00627646
0.00612483
0.00597592
0.00582954
0.00568655
0.00553633
0.00831131
0.00837576
0.00834625
0.00822134
0.00806222
0.00788838
0.00770201
0.00751408
0.00732792
0.00714421
0.00696524
0.00679254
0.00662657
0.00646654
0.00631112
0.00616035
0.00601478
0.00587399
0.00573816
0.00559858
0.0087978
0.00881968
0.00869255
0.00847509
0.00824266
0.00801333
0.00779026
0.00757684
0.0073756
0.00718776
0.007011
0.00684183
0.00667878
0.00652172
0.00637085
0.00622635
0.00608903
0.00596136
0.00584781
0.00574733
0.0101825
0.00944134
0.00885322
0.00844515
0.00812321
0.00785654
0.00763506
0.00744428
0.0072731
0.00711585
0.00696544
0.00681521
0.00666463
0.00651627
0.00637278
0.00623696
0.00611292
0.00600647
0.00592654
0.00588864
0.0101825
0.00944136
0.00885324
0.00844517
0.00812323
0.00785656
0.00763508
0.0074443
0.00727312
0.00711586
0.00696545
0.00681522
0.00666464
0.00651629
0.00637281
0.00623699
0.00611294
0.00600649
0.00592654
0.00588863
0.00879782
0.0088197
0.00869257
0.00847512
0.00824268
0.00801335
0.00779028
0.00757686
0.00737562
0.00718778
0.00701102
0.00684185
0.00667881
0.00652174
0.00637087
0.00622637
0.00608904
0.00596137
0.00584782
0.00574733
0.00831133
0.00837577
0.00834627
0.00822135
0.00806223
0.0078884
0.00770202
0.00751409
0.00732794
0.00714423
0.00696525
0.00679256
0.00662659
0.00646655
0.00631112
0.00616034
0.00601478
0.00587399
0.00573816
0.00559857
0.00804529
0.00810819
0.00811193
0.00803823
0.00791803
0.00777149
0.00760839
0.00743687
0.00726289
0.00708959
0.00691894
0.00675212
0.00658959
0.00643123
0.00627646
0.00612482
0.00597591
0.00582953
0.00568653
0.0055363
0.00790243
0.00797194
0.00799403
0.00794144
0.00784014
0.00770917
0.00755926
0.00739839
0.00723218
0.00706431
0.00689731
0.00673281
0.0065716
0.00641388
0.00625942
0.00610775
0.00595818
0.00581008
0.00566304
0.00551676
0.00790242
0.00797193
0.00799403
0.00794144
0.00784014
0.00770917
0.00755926
0.00739839
0.00723217
0.0070643
0.00689731
0.00673281
0.0065716
0.00641388
0.00625942
0.00610775
0.00595818
0.00581008
0.00566304
0.00551676
0.00804526
0.00810816
0.0081119
0.00803819
0.00791797
0.0077714
0.00760827
0.00743671
0.00726268
0.00708927
0.00691845
0.0067514
0.00658852
0.00642971
0.00627449
0.00612221
0.00597235
0.00582468
0.00568017
0.00552985
0.00831128
0.00837572
0.00834621
0.00822123
0.00806202
0.00788811
0.00770171
0.00751369
0.0073273
0.00714319
0.00696365
0.0067901
0.0066228
0.00646115
0.00630391
0.00615032
0.00599986
0.00585204
0.00570781
0.00556062
0.00879776
0.00881963
0.00869248
0.00847498
0.00824248
0.00801309
0.00778989
0.00757627
0.00737471
0.00718631
0.00700858
0.00683791
0.0066727
0.00651223
0.00635584
0.0062035
0.00605537
0.00591196
0.00577626
0.00564767
0.0101825
0.00944132
0.00885318
0.00844508
0.00812312
0.0078564
0.00763482
0.00744388
0.00727243
0.00711473
0.00696359
0.00681214
0.00665959
0.00650789
0.00635883
0.00621366
0.00607436
0.00594234
0.00581984
0.00571503
0.0103167
0.00955404
0.00893531
0.00848401
0.0081401
0.00787114
0.00765148
0.00746241
0.00729429
0.00713668
0.00698105
0.00682615
0.00667321
0.00652391
0.00638038
0.00624603
0.00612644
0.0060307
0.00597794
0.00599972
0.00901382
0.00905739
0.0088919
0.00862897
0.0083485
0.00807704
0.00782573
0.00759895
0.00739557
0.00720863
0.00703125
0.00686064
0.0066955
0.00653559
0.00638171
0.0062349
0.00609611
0.00596709
0.00585087
0.00574984
0.00849444
0.00856252
0.00851013
0.00836316
0.00817824
0.00797304
0.0077622
0.00755507
0.00735389
0.0071616
0.00697925
0.00680533
0.00663807
0.00647631
0.0063191
0.0061661
0.00601752
0.00587295
0.00573222
0.00558669
0.00819642
0.00825557
0.00824362
0.00814818
0.00800841
0.00784267
0.00766233
0.00747772
0.00729374
0.00711348
0.00693857
0.00676903
0.00660438
0.00644404
0.00628738
0.00613365
0.00598213
0.0058322
0.00568433
0.00553016
0.00804525
0.00810815
0.00811189
0.00803818
0.00791797
0.00777139
0.00760826
0.0074367
0.00726267
0.00708926
0.00691845
0.00675139
0.00658852
0.0064297
0.00627448
0.0061222
0.00597234
0.00582469
0.00568018
0.00552988
0.00804527
0.00810817
0.00811191
0.00803821
0.00791801
0.00777146
0.00760837
0.00743685
0.00726287
0.00708957
0.00691891
0.00675209
0.00658957
0.00643121
0.00627645
0.00612482
0.00597591
0.00582954
0.00568655
0.00553633
0.00819641
0.00825557
0.00824361
0.00814817
0.0080084
0.00784266
0.00766232
0.00747771
0.00729373
0.00711347
0.00693856
0.00676902
0.00660437
0.00644404
0.00628739
0.00613365
0.00598213
0.0058322
0.00568432
0.00553014
0.00849436
0.00856244
0.00851002
0.00836298
0.00817798
0.00797272
0.00776179
0.00755445
0.00735292
0.00716005
0.00697675
0.00680144
0.00663221
0.00646765
0.00630659
0.00614803
0.0059908
0.00583428
0.00568007
0.00552166
0.0090137
0.00905726
0.00889174
0.00862875
0.00834819
0.00807662
0.00782509
0.00759791
0.00739381
0.00720559
0.00702607
0.00685222
0.00668273
0.00651629
0.00635175
0.0061883
0.0060252
0.00586211
0.00570161
0.00554088
0.0103166
0.00955394
0.0089352
0.00848387
0.00813989
0.00787081
0.00765091
0.00746142
0.00729264
0.00713398
0.00697662
0.0068189
0.00666138
0.00650445
0.00634807
0.006192
0.00603612
0.00588069
0.00572824
0.005584
0.0107259
0.00987446
0.00911021
0.00855112
0.00817505
0.00790709
0.00769141
0.00749841
0.00731995
0.00715152
0.00698852
0.00682871
0.00667178
0.00651804
0.00636811
0.00622278
0.00608415
0.00595589
0.00584853
0.0057831
0.00943211
0.00955835
0.00925548
0.00883927
0.00847217
0.00815352
0.00787479
0.00763403
0.00742098
0.00722584
0.00704187
0.00686577
0.00669574
0.00653046
0.00636926
0.00621163
0.00605547
0.00589865
0.0057494
0.00562571
0.00886248
0.00896349
0.00885194
0.00862642
0.00837064
0.00811218
0.00785352
0.00761144
0.00739295
0.00719204
0.00700357
0.00682444
0.00665238
0.00648549
0.0063223
0.00616191
0.00600272
0.00584406
0.00569267
0.00554786
0.00849435
0.00856243
0.00851002
0.00836297
0.00817797
0.00797271
0.00776179
0.00755444
0.00735292
0.00716005
0.00697675
0.00680144
0.00663221
0.00646764
0.00630657
0.00614801
0.00599078
0.00583427
0.00568006
0.00552165
0.00831126
0.00837571
0.00834619
0.00822121
0.008062
0.00788808
0.00770169
0.00751366
0.00732728
0.00714317
0.00696363
0.00679008
0.00662278
0.00646113
0.00630388
0.0061503
0.00599985
0.00585203
0.00570781
0.00556063
0.00831129
0.00837573
0.00834623
0.00822131
0.00806219
0.00788835
0.00770198
0.00751405
0.00732789
0.00714418
0.00696521
0.00679251
0.00662654
0.00646651
0.00631109
0.00616032
0.00601476
0.00587398
0.00573816
0.00559859
0.00849441
0.00856249
0.0085101
0.00836313
0.0081782
0.00797301
0.00776217
0.00755503
0.00735386
0.00716157
0.00697922
0.0068053
0.00663804
0.0064763
0.00631909
0.00616609
0.00601751
0.00587295
0.00573222
0.00558671
0.00886247
0.00896348
0.00885193
0.00862641
0.00837063
0.00811217
0.0078535
0.00761143
0.00739294
0.00719202
0.00700355
0.00682442
0.00665236
0.00648547
0.00632229
0.00616191
0.00600272
0.00584408
0.00569269
0.0055479
0.00943205
0.00955827
0.00925538
0.00883914
0.00847199
0.00815325
0.00787434
0.00763325
0.00741964
0.00722368
0.00703847
0.00686056
0.00668768
0.00651769
0.00634897
0.00617999
0.00600757
0.00582895
0.00565283
0.00548928
0.0107259
0.00987438
0.00911012
0.00855099
0.00817485
0.00790673
0.00769082
0.00749743
0.00731836
0.0071489
0.00698419
0.00682166
0.00666035
0.00649932
0.00633722
0.00617181
0.00599919
0.00581438
0.00561026
0.00536123
0.0110741
0.0103403
0.00924742
0.00858152
0.00817905
0.0079054
0.00769426
0.00750806
0.00733367
0.00716627
0.00700309
0.0068425
0.00668359
0.00652591
0.00636928
0.00621348
0.00605844
0.00590114
0.00572326
0.00547324
0.0103575
0.0103258
0.00959762
0.00888715
0.00844086
0.00812486
0.00786577
0.00763772
0.00743256
0.00724321
0.00706364
0.00689036
0.0067208
0.00655252
0.00638434
0.00621562
0.0060438
0.00586548
0.00569263
0.00557472
0.00943205
0.00955826
0.00925537
0.00883913
0.00847198
0.00815324
0.00787433
0.00763324
0.00741964
0.00722367
0.00703847
0.00686057
0.00668769
0.00651771
0.00634898
0.00617999
0.00600756
0.00582893
0.00565279
0.00548922
0.00901368
0.00905724
0.00889171
0.00862872
0.00834817
0.0080766
0.00782507
0.00759789
0.00739379
0.00720557
0.00702606
0.00685221
0.00668272
0.00651629
0.00635174
0.00618829
0.00602517
0.00586208
0.00570157
0.00554082
0.00879773
0.0088196
0.00869245
0.00847494
0.00824245
0.00801305
0.00778985
0.00757624
0.00737468
0.00718628
0.00700855
0.00683789
0.00667268
0.00651221
0.00635581
0.00620347
0.00605534
0.00591193
0.00577622
0.00564763
0.00879777
0.00881965
0.00869252
0.00847506
0.00824262
0.00801329
0.00779022
0.0075768
0.00737556
0.00718772
0.00701096
0.0068418
0.00667875
0.00652168
0.00637081
0.00622631
0.00608899
0.00596132
0.00584777
0.00574729
0.00901378
0.00905734
0.00889185
0.00862892
0.00834845
0.00807699
0.00782568
0.0075989
0.00739553
0.00720858
0.00703121
0.0068606
0.00669546
0.00653555
0.00638168
0.00623486
0.00609607
0.00596706
0.00585084
0.00574983
0.00943209
0.00955832
0.00925545
0.00883924
0.00847214
0.00815349
0.00787476
0.007634
0.00742095
0.00722581
0.00704184
0.00686574
0.00669571
0.00653042
0.00636923
0.00621161
0.00605545
0.00589864
0.0057494
0.00562572
0.0103575
0.0103258
0.00959761
0.00888715
0.00844085
0.00812485
0.00786576
0.00763772
0.00743255
0.00724319
0.00706362
0.00689035
0.00672078
0.00655249
0.00638431
0.0062156
0.0060438
0.00586549
0.00569264
0.00557474
0.0110741
0.0103402
0.00924737
0.00858146
0.00817894
0.00790522
0.00769397
0.00750757
0.00733284
0.00716488
0.00700076
0.00683881
0.00667762
0.00651591
0.00635231
0.00618554
0.00601215
0.00581827
0.00555503
0.00511616
0.0182528
0.0111385
0.00884707
0.00830931
0.00803506
0.00781298
0.00762633
0.00745989
0.00729872
0.00713909
0.00698059
0.0068232
0.00666616
0.00650866
0.00634927
0.00618743
0.00602509
0.00585432
0.00563087
0.00520004
0.0110741
0.0103402
0.00924736
0.00858145
0.00817893
0.00790521
0.00769396
0.00750756
0.00733284
0.00716487
0.00700076
0.00683881
0.00667763
0.00651593
0.00635233
0.00618555
0.00601214
0.00581825
0.005555
0.00511611
0.0107259
0.00987436
0.0091101
0.00855097
0.00817483
0.00790671
0.0076908
0.00749741
0.00731834
0.00714889
0.00698417
0.00682166
0.00666035
0.00649933
0.00633724
0.00617181
0.00599918
0.00581435
0.00561022
0.00536116
0.0103166
0.00955392
0.00893517
0.00848384
0.00813986
0.00787078
0.00765088
0.00746139
0.00729261
0.00713396
0.0069766
0.00681888
0.00666136
0.00650445
0.00634807
0.00619199
0.0060361
0.00588065
0.00572818
0.00558392
0.0101824
0.00944129
0.00885315
0.00844505
0.00812308
0.00785636
0.00763478
0.00744384
0.00727239
0.0071147
0.00696356
0.00681211
0.00665956
0.00650787
0.00635881
0.00621364
0.00607433
0.0059423
0.00581979
0.00571496
0.0101825
0.00944131
0.00885319
0.00844511
0.00812317
0.0078565
0.00763502
0.00744424
0.00727306
0.00711581
0.0069654
0.00681517
0.00666459
0.00651623
0.00637275
0.00623693
0.00611288
0.00600643
0.00592648
0.00588858
0.0103167
0.00955399
0.00893526
0.00848396
0.00814005
0.00787109
0.00765143
0.00746236
0.00729424
0.00713664
0.006981
0.0068261
0.00667317
0.00652386
0.00638033
0.00624598
0.0061264
0.00603067
0.0059779
0.0059997
0.0107259
0.00987443
0.00911017
0.00855108
0.00817501
0.00790705
0.00769137
0.00749837
0.00731991
0.00715148
0.00698849
0.00682867
0.00667174
0.00651799
0.00636807
0.00622274
0.00608412
0.00595587
0.00584851
0.0057831
0.0110741
0.0103403
0.0092474
0.0085815
0.00817903
0.00790538
0.00769424
0.00750804
0.00733365
0.00716625
0.00700306
0.00684247
0.00668356
0.00652588
0.00636924
0.00621345
0.00605842
0.00590113
0.00572326
0.00547325
0.0182528
0.0111385
0.00884706
0.0083093
0.00803505
0.00781298
0.00762632
0.00745989
0.00729871
0.00713908
0.00698058
0.00682318
0.00666614
0.00650864
0.00634925
0.00618741
0.00602508
0.00585432
0.00563088
0.00520007
0.00593532
0.00529485
0.00489002
0.00476052
0.0046524
0.00452807
0.00440181
0.00427542
0.00414701
0.00401703
0.00388657
0.00375574
0.00362439
0.00349262
0.00336065
0.00322862
0.00309673
0.00296503
0.00283351
0.00270211
0.00257082
0.00243956
0.00230819
0.00217641
0.0020443
0.00191223
0.00178042
0.00164883
0.00151724
0.00138532
0.00125312
0.00112103
0.000989232
0.00085766
0.000725736
0.000593329
0.000460916
0.000328676
0.000196859
6.5489e-05
0.00606361
0.00540132
0.00492219
0.0047411
0.00462544
0.00450398
0.00438064
0.00425785
0.00413331
0.00400669
0.00387883
0.00374998
0.0036202
0.00348961
0.00335851
0.00322712
0.00309569
0.00296436
0.00283308
0.00270185
0.00257066
0.00243946
0.0023081
0.00217633
0.00204423
0.00191217
0.00178035
0.00164874
0.00151714
0.00138521
0.00125301
0.00112092
0.000989144
0.000857658
0.000725623
0.000593133
0.000460903
0.000328824
0.000197003
6.55685e-05
0.00584847
0.00544096
0.00507349
0.00485595
0.00469783
0.00455038
0.00441039
0.00427692
0.00414591
0.00401525
0.00388465
0.00375395
0.00362291
0.00349145
0.00335979
0.00322811
0.00309646
0.00296495
0.00283353
0.0027022
0.00257092
0.00243964
0.00230819
0.00217632
0.00204419
0.00191216
0.00178037
0.00164876
0.00151711
0.00138512
0.00125291
0.00112085
0.000989016
0.000857338
0.000725457
0.000593218
0.000460993
0.00032897
0.000197154
6.56533e-05
0.00562884
0.00537462
0.00511196
0.0049062
0.00473675
0.0045817
0.00443481
0.00429455
0.00415845
0.00402426
0.00389115
0.00375863
0.0036262
0.00349374
0.00336145
0.00322933
0.00309732
0.00296555
0.00283398
0.00270253
0.00257115
0.00243981
0.00230827
0.00217624
0.00204403
0.00191203
0.00178029
0.00164873
0.00151707
0.00138502
0.00125279
0.00112075
0.000988947
0.000857289
0.000725475
0.000593312
0.00046107
0.000329015
0.000197214
6.56905e-05
0.00544977
0.00528127
0.00509511
0.00491972
0.00475789
0.00460456
0.00445683
0.00431334
0.00417325
0.00403569
0.00389994
0.0037653
0.00363115
0.00349736
0.00336408
0.00323126
0.00309873
0.00296654
0.00283472
0.0027031
0.00257159
0.00244016
0.00230853
0.00217636
0.00204403
0.00191201
0.00178028
0.00164874
0.00151707
0.001385
0.00125276
0.00112073
0.000988949
0.000857319
0.000725537
0.000593344
0.000461064
0.000329026
0.000197229
6.5695e-05
0.00531996
0.00521627
0.00507576
0.00491973
0.00476442
0.00461369
0.00446666
0.0043226
0.00418129
0.00404238
0.00390534
0.00376955
0.0036344
0.0034998
0.00336587
0.00323254
0.00309966
0.00296721
0.00283519
0.00270344
0.00257186
0.00244037
0.00230866
0.00217642
0.00204404
0.00191198
0.00178028
0.00164878
0.00151712
0.00138502
0.00125276
0.00112075
0.000989015
0.000857426
0.000725662
0.000593431
0.000461042
0.000328928
0.000197141
6.56589e-05
0.00521467
0.00516357
0.00505735
0.00491197
0.00476168
0.00461474
0.00446963
0.00432614
0.00418476
0.00404548
0.00390795
0.00377165
0.00363605
0.00350106
0.0033668
0.00323321
0.00310014
0.00296754
0.00283542
0.00270361
0.00257199
0.00244048
0.00230876
0.00217651
0.00204414
0.00191212
0.00178041
0.0016489
0.00151724
0.00138511
0.00125281
0.0011208
0.000989091
0.000857543
0.000725802
0.00059351
0.000460998
0.000328803
0.000197018
6.56065e-05
0.00530462
0.00521591
0.00506799
0.00490411
0.00475309
0.00460848
0.0044649
0.00432273
0.00418243
0.00404396
0.00390701
0.00377111
0.00363574
0.00350085
0.00336657
0.00323296
0.00309993
0.0029674
0.00283529
0.00270347
0.00257187
0.00244039
0.00230872
0.00217657
0.00204425
0.00191222
0.00178048
0.00164895
0.00151731
0.0013852
0.0012529
0.00112086
0.000989128
0.000857565
0.000725895
0.000593683
0.000461074
0.000328715
0.000196876
6.55359e-05
0.005482
0.00529021
0.00506295
0.00488613
0.0047361
0.00459271
0.00445172
0.00431263
0.00417495
0.00403826
0.00390257
0.00376775
0.00363336
0.00349916
0.00336532
0.003232
0.0030992
0.00296687
0.00283487
0.00270314
0.0025716
0.00244015
0.00230858
0.00217661
0.00204438
0.00191231
0.00178053
0.00164895
0.00151732
0.00138529
0.00125303
0.00112098
0.000989216
0.00085767
0.000726136
0.000593898
0.000460999
0.00032846
0.000196668
6.54576e-05
0.00580732
0.00530572
0.00495916
0.0048174
0.00469687
0.0045625
0.00442821
0.00429592
0.0041629
0.00402915
0.00389566
0.00376243
0.00362923
0.00349601
0.00336295
0.00323018
0.00309779
0.00296575
0.00283398
0.00270243
0.00257104
0.00243973
0.00230831
0.00217647
0.00204432
0.00191225
0.00178044
0.00164886
0.00151728
0.00138534
0.0012531
0.00112101
0.000989215
0.000857668
0.000726143
0.000593997
0.000461153
0.000328486
0.000196575
6.53733e-05
0.00593524
0.00529466
0.00488989
0.00476014
0.00465212
0.00452809
0.00440206
0.00427574
0.00414735
0.00401734
0.00388679
0.00375581
0.00362434
0.00349246
0.00336044
0.00322846
0.00309662
0.00296497
0.0028335
0.00270214
0.00257087
0.00243962
0.00230824
0.00217645
0.00204433
0.00191228
0.00178047
0.00164889
0.0015173
0.00138536
0.00125314
0.00112103
0.000989217
0.000857633
0.000726056
0.000593857
0.000461038
0.000328442
0.000196606
6.54137e-05
0.0058075
0.00530602
0.00495943
0.00481777
0.00469723
0.00456259
0.00442804
0.0042956
0.00416252
0.00402876
0.00389531
0.00376218
0.00362906
0.00349593
0.00336296
0.0032302
0.00309777
0.0029657
0.00283391
0.00270233
0.00257093
0.00243963
0.00230823
0.00217644
0.00204433
0.00191228
0.0017805
0.00164893
0.00151735
0.00138543
0.00125323
0.00112116
0.00098943
0.000858018
0.00072596
0.000593225
0.000460716
0.000328467
0.000196684
6.54094e-05
0.00570261
0.00533237
0.00502768
0.00483765
0.00468777
0.00454447
0.00440811
0.00427692
0.00414677
0.00401629
0.00388564
0.00375478
0.00362345
0.00349171
0.00335981
0.00322792
0.00309612
0.00296449
0.00283302
0.00270167
0.00257042
0.00243922
0.00230789
0.00217611
0.00204401
0.00191203
0.00178031
0.0016488
0.00151723
0.00138525
0.00125303
0.001121
0.000989224
0.000857651
0.000725968
0.000593519
0.000460783
0.000328537
0.000196786
6.54672e-05
0.00559919
0.0053597
0.00512907
0.00492837
0.00475285
0.00459153
0.004441
0.00429862
0.00416066
0.00402503
0.00389102
0.00375799
0.00362528
0.00349273
0.00336046
0.00322844
0.0030966
0.00296494
0.00283346
0.00270208
0.00257079
0.0024395
0.00230798
0.002176
0.00204387
0.00191198
0.00178032
0.0016488
0.00151712
0.00138503
0.00125282
0.00112082
0.000988983
0.000857184
0.000725515
0.00059347
0.000461014
0.000328883
0.00019713
6.56542e-05
0.0054782
0.00530271
0.00512154
0.00493852
0.00476873
0.00460979
0.00445754
0.00431095
0.00416932
0.00403126
0.00389552
0.0037611
0.00362735
0.00349416
0.0033615
0.00322921
0.00309719
0.00296534
0.00283368
0.00270218
0.00257076
0.00243931
0.00230764
0.00217562
0.00204359
0.00191179
0.00178014
0.00164855
0.0015168
0.00138477
0.0012527
0.00112081
0.000989056
0.000857352
0.000725483
0.000593295
0.000461051
0.000329068
0.000197344
6.57494e-05
0.0053852
0.00522433
0.00506989
0.00490746
0.00474988
0.00459939
0.00445337
0.00431047
0.00417041
0.0040329
0.00389721
0.0037627
0.0036289
0.00349559
0.00336272
0.00323022
0.00309802
0.00296601
0.00283414
0.00270243
0.0025708
0.00243915
0.00230735
0.00217544
0.00204356
0.00191178
0.00178009
0.0016484
0.00151659
0.00138466
0.00125273
0.00112089
0.000989118
0.000857326
0.000725398
0.000593293
0.000461172
0.000329234
0.000197475
6.57977e-05
0.00527655
0.00513043
0.00500599
0.00486474
0.00471982
0.00457846
0.00443954
0.00430187
0.00416541
0.00403015
0.0038958
0.00376211
0.00362887
0.00349588
0.00336311
0.00323061
0.00309838
0.00296633
0.00283439
0.00270261
0.00257093
0.00243922