/*--------------------------------*- C++ -*----------------------------------*\
| =========                 |                                                 |
| \\      /  F ield         | OpenFOAM: The Open Source CFD Toolbox           |
|  \\    /   O peration     | Version:  2212                                  |
|   \\  /    A nd           | Website:  www.openfoam.com                      |
|    \\/     M anipulation  |                                                 |
\*---------------------------------------------------------------------------*/
FoamFile
{
    version     2.0;
    format      ascii;
    arch        "LSB;label=32;scalar=64";
    class       volVectorField;
    location    "0.45";
    object      U;
}
// * * * * * * * * * * * * * * * * * * * * * * * * * * * * * * * * * * * * * //

dimensions      [0 1 -1 0 0 0 0];

internalField   nonuniform List<vector> 
6840
(
(0.0956456 -0.00836001 -0.00836001)
(0.0904937 0.00152195 0.00152205)
(0.0790678 0.00242967 0.00242986)
(0.0713006 0.00148765 0.00148804)
(0.0661789 0.000830255 0.000830995)
(0.0623227 0.00056289 0.000564101)
(0.0592223 0.000425137 0.000427758)
(0.0566888 0.000321902 0.000326501)
(0.0545589 0.0002495 0.000257064)
(0.0527159 0.000196152 0.000208416)
(0.0510923 0.000154496 0.000174203)
(0.0496513 0.000119474 0.000151606)
(0.0483626 8.63337e-05 0.000138698)
(0.0472179 5.0093e-05 0.000134557)
(0.0461923 1.48775e-05 0.000138681)
(0.0453059 -2.37517e-05 0.000156381)
(0.0446106 -0.000115042 0.000186192)
(0.0442041 -0.000291507 0.000237849)
(0.0445919 -0.000557504 0.000229488)
(0.0437652 -0.00321488 -0.00162351)
(0.0999089 0.00129698 0.000712614)
(0.0969668 0.00365575 0.00274751)
(0.0935342 0.00264006 0.0021186)
(0.0895885 0.00182002 0.00162108)
(0.0858316 0.00152781 0.0013909)
(0.0825899 0.00134963 0.00116136)
(0.0798665 0.00117681 0.00089671)
(0.0775717 0.00103636 0.000690164)
(0.0755688 0.000935866 0.000556043)
(0.0737735 0.000853791 0.000472348)
(0.07214 0.000777362 0.000420513)
(0.0706418 0.000697951 0.00039067)
(0.0692636 0.000613952 0.000374106)
(0.0679938 0.0005235 0.000366846)
(0.0668227 0.000414575 0.000365951)
(0.0657471 0.000262198 0.000376446)
(0.0647995 5.07869e-05 0.000405965)
(0.0639996 -0.000298058 0.000419986)
(0.0635396 -0.00105992 0.000286275)
(0.0625136 -0.00344712 -0.00066221)
(0.099413 0.000345191 0.000270273)
(0.0988663 0.00201887 0.00187522)
(0.0979209 0.00257284 0.00218954)
(0.096365 0.00237925 0.00190898)
(0.0946324 0.00211295 0.00162706)
(0.0929713 0.00192457 0.00141819)
(0.0913644 0.00179762 0.00126868)
(0.0898575 0.00169928 0.00115367)
(0.0884647 0.00159506 0.00105716)
(0.0871811 0.00147836 0.000976064)
(0.0860007 0.0013565 0.00091212)
(0.0849107 0.00123434 0.0008651)
(0.0838966 0.00111048 0.000829559)
(0.0829434 0.000979152 0.000803646)
(0.082041 0.000831305 0.000788894)
(0.0811704 0.000655891 0.000793213)
(0.0803063 0.000436649 0.000837373)
(0.0793715 0.000115018 0.000947472)
(0.0782801 -0.000460572 0.00106139)
(0.0770231 -0.000897034 0.00248934)
(0.0995405 0.000245022 0.00032197)
(0.0992574 0.0010555 0.00154134)
(0.0988483 0.00150204 0.00211506)
(0.0981237 0.00157883 0.00209213)
(0.0973354 0.0015136 0.00188637)
(0.0965835 0.00144476 0.00166542)
(0.0958642 0.00140765 0.001496)
(0.0951979 0.00137513 0.00136555)
(0.0945755 0.00132478 0.00126944)
(0.0939402 0.00124785 0.0012013)
(0.0933262 0.00115028 0.0011474)
(0.0927322 0.00104347 0.00110321)
(0.0921482 0.000936224 0.00106453)
(0.0915631 0.00083059 0.00103283)
(0.0909601 0.000725053 0.0010136)
(0.0903095 0.000616494 0.00101893)
(0.0895539 0.000508937 0.00108101)
(0.0885699 0.000412353 0.00125337)
(0.087214 0.000323964 0.00152776)
(0.0856933 0.000719947 0.00233892)
(0.0993802 3.37842e-05 5.9038e-05)
(0.0992676 0.000274415 0.00120042)
(0.09898 0.000432417 0.00188916)
(0.0984736 0.00048351 0.00200706)
(0.0979938 0.000478901 0.00191458)
(0.0975693 0.000465513 0.0017334)
(0.0971801 0.000452686 0.00154441)
(0.0968315 0.000441927 0.00138249)
(0.096534 0.000435895 0.00125769)
(0.0962845 0.000429163 0.00117643)
(0.0960192 0.000414378 0.00113289)
(0.0957371 0.00039459 0.00110774)
(0.0954391 0.000376225 0.00108618)
(0.0951147 0.000365543 0.00106555)
(0.0947505 0.000370105 0.00105041)
(0.0943275 0.000401619 0.00104938)
(0.0938178 0.000489199 0.00108412)
(0.0931721 0.000634103 0.00117961)
(0.0923285 0.00093684 0.00135504)
(0.0916343 0.00176282 0.00173231)
(0.0993801 -3.37439e-05 5.89812e-05)
(0.0992676 -0.000274213 0.00120037)
(0.09898 -0.000431982 0.00188914)
(0.0984738 -0.000482758 0.00200698)
(0.0979944 -0.000477608 0.00191438)
(0.0975704 -0.000463222 0.00173299)
(0.0971821 -0.000448602 0.0015438)
(0.096835 -0.000434881 0.00138147)
(0.09654 -0.000423944 0.00125584)
(0.0962947 -0.000409178 0.00117326)
(0.0960366 -0.000381276 0.00112755)
(0.0957665 -0.000340209 0.00109853)
(0.0954895 -0.000286825 0.00106986)
(0.0952001 -0.00021898 0.00103744)
(0.0948949 -0.00012911 0.00100301)
(0.0945686 -3.21943e-06 0.000973449)
(0.0942168 0.000181004 0.000957406)
(0.0938223 0.000452283 0.000958925)
(0.0933651 0.000858794 0.000984214)
(0.0929532 0.00149048 0.0010667)
(0.0995405 -0.000245004 0.00032197)
(0.0992575 -0.00105541 0.00154133)
(0.0988486 -0.00150188 0.00211494)
(0.0981243 -0.00157856 0.00209192)
(0.0973369 -0.00151297 0.00188602)
(0.0965862 -0.0014435 0.00166488)
(0.095869 -0.00140541 0.00149536)
(0.0952061 -0.00137149 0.00136455)
(0.09459 -0.00131864 0.00126697)
(0.093965 -0.00123821 0.00119602)
(0.0933683 -0.00113524 0.00113787)
(0.0928034 -0.00101993 0.00108571)
(0.092268 -0.000897749 0.00103538)
(0.0917636 -0.000767059 0.000983547)
(0.0912941 -0.000621282 0.000926082)
(0.0908672 -0.000432537 0.000859287)
(0.0904892 -0.000183384 0.000781155)
(0.0901689 0.000164323 0.00069924)
(0.0899007 0.000665914 0.000608615)
(0.0895551 0.00142082 0.000464148)
(0.099413 -0.000345205 0.000270266)
(0.0988663 -0.00201894 0.00187513)
(0.0979212 -0.002573 0.00218929)
(0.0963657 -0.00237956 0.00190856)
(0.0946337 -0.00211346 0.0016265)
(0.0929738 -0.00192541 0.00141733)
(0.0913691 -0.00179889 0.00126723)
(0.0898656 -0.00170145 0.00115126)
(0.0884787 -0.0015988 0.00105325)
(0.0872044 -0.00148465 0.000969612)
(0.0860396 -0.00136692 0.000902155)
(0.0849759 -0.00125123 0.000847953)
(0.084006 -0.00113711 0.000799901)
(0.0831274 -0.00101987 0.000752157)
(0.0823505 -0.000891253 0.000697121)
(0.081699 -0.000739477 0.000623086)
(0.0812156 -0.000556002 0.000525293)
(0.0809566 -0.00027259 0.000340507)
(0.0810533 0.000294261 3.26825e-05)
(0.0805879 0.00165179 -0.000777481)
(0.0999088 -0.00129699 0.000712594)
(0.0969668 -0.00365588 0.00274742)
(0.0935343 -0.00264027 0.00211839)
(0.0895888 -0.00182041 0.00162068)
(0.0858321 -0.00152866 0.00139033)
(0.0825909 -0.00135099 0.00116031)
(0.0798682 -0.00117938 0.000894978)
(0.0775749 -0.00104084 0.00068727)
(0.0755746 -0.000943605 0.000551165)
(0.0737836 -0.000867112 0.000464238)
(0.072157 -0.000799759 0.000407769)
(0.0706715 -0.000736112 0.000366659)
(0.0693159 -0.00067667 0.00033304)
(0.0680846 -0.000624256 0.000303893)
(0.0669757 -0.000581866 0.000270691)
(0.066014 -0.000535096 0.000216626)
(0.065276 -0.000470688 0.00013461)
(0.0648989 -0.000380959 -8.82802e-05)
(0.0653382 -0.000262474 -0.00042276)
(0.0633426 0.000219606 -0.00124869)
(0.0956456 0.00836 -0.00836001)
(0.0904937 -0.00152204 0.00152196)
(0.0790678 -0.00242984 0.00242969)
(0.0713006 -0.00148801 0.00148768)
(0.0661789 -0.000830964 0.000830301)
(0.0623227 -0.000564062 0.00056294)
(0.0592223 -0.000427704 0.000425216)
(0.0566888 -0.000326438 0.000321996)
(0.0545589 -0.00025699 0.0002496)
(0.0527159 -0.000208332 0.000196256)
(0.0510924 -0.000174116 0.00015461)
(0.0496514 -0.000151512 0.000119589)
(0.0483628 -0.000138603 8.64503e-05)
(0.0472181 -0.000134469 5.02176e-05)
(0.0461926 -0.0001386 1.49807e-05)
(0.0453063 -0.000156275 -2.36387e-05)
(0.0446112 -0.000186069 -0.000114948)
(0.044205 -0.000237751 -0.000291448)
(0.0445931 -0.000229393 -0.000557502)
(0.043767 0.00162348 -0.00321518)
(0.0999088 0.000712593 0.00129699)
(0.0969668 0.00274741 0.00365589)
(0.0935343 0.00211838 0.0026403)
(0.0895888 0.00162067 0.00182044)
(0.0858321 0.00139031 0.0015287)
(0.0825909 0.00116027 0.00135104)
(0.0798682 0.000894942 0.00117945)
(0.0775749 0.000687234 0.00104092)
(0.0755746 0.000551128 0.000943701)
(0.0737836 0.000464197 0.000867223)
(0.0721569 0.000407729 0.000799888)
(0.0706713 0.000366614 0.000736255)
(0.0693157 0.000332986 0.000676822)
(0.0680844 0.00030383 0.000624419)
(0.0669753 0.000270609 0.000582058)
(0.0660133 0.000216565 0.000535366)
(0.0652751 0.000134567 0.000471025)
(0.0648977 -8.82826e-05 0.000381332)
(0.0653364 -0.000422787 0.000262851)
(0.0633407 -0.0012485 -0.000219044)
(0.100226 0.00072082 0.000720853)
(0.09996 0.0019828 0.00198295)
(0.0997821 0.00245199 0.00245236)
(0.0987882 0.00241958 0.00242023)
(0.0972756 0.00220049 0.00220148)
(0.0957752 0.00181055 0.00181237)
(0.0943949 0.00138028 0.0013833)
(0.093169 0.00106639 0.00107149)
(0.092087 0.000847879 0.000856614)
(0.0911307 0.000692241 0.00070702)
(0.0902874 0.000576902 0.000601774)
(0.0895419 0.000484193 0.000527519)
(0.0888787 0.000406216 0.000476767)
(0.0882901 0.000334875 0.00044494)
(0.0877869 0.000262009 0.000432832)
(0.0873723 0.000169635 0.000450196)
(0.0870342 1.27942e-05 0.000472349)
(0.0867827 -0.000303726 0.000432524)
(0.0865331 -0.000891444 0.000235954)
(0.0864139 -0.0022516 -0.000657606)
(0.10014 0.000775017 0.000869396)
(0.100454 0.00196243 0.00196409)
(0.100911 0.00242754 0.00233541)
(0.100978 0.00252626 0.00244228)
(0.100694 0.00242531 0.00233774)
(0.100224 0.00219515 0.00211276)
(0.099709 0.00191225 0.00182208)
(0.0991846 0.00165829 0.00157188)
(0.0986911 0.00145133 0.00138198)
(0.0982451 0.00127788 0.00123672)
(0.0978539 0.00112965 0.00112598)
(0.0975129 0.000999487 0.00104259)
(0.0972178 0.000880531 0.000981683)
(0.0969628 0.000763618 0.000940268)
(0.0967426 0.000637206 0.000918256)
(0.0965524 0.000490906 0.000925712)
(0.0963832 0.000303093 0.000970786)
(0.0962229 4.4785e-05 0.00105124)
(0.0960639 -0.000304667 0.00115894)
(0.0961601 -0.000669737 0.00135805)
(0.100093 0.000445928 0.000763374)
(0.100504 0.00119446 0.00174948)
(0.101105 0.00158671 0.00213029)
(0.101634 0.00174024 0.0022357)
(0.101978 0.00178151 0.00228724)
(0.102171 0.00172708 0.00223403)
(0.102252 0.00160404 0.00211079)
(0.102277 0.00145352 0.00195444)
(0.10228 0.00129654 0.00178505)
(0.102271 0.00114528 0.0016269)
(0.10226 0.00101095 0.00150404)
(0.102251 0.000894247 0.00141019)
(0.10224 0.000786446 0.00133698)
(0.102226 0.000685735 0.00128314)
(0.102202 0.000588358 0.00125369)
(0.102157 0.000488309 0.00126099)
(0.102078 0.000380221 0.00132372)
(0.101959 0.000257862 0.00146922)
(0.101807 0.000121137 0.00170278)
(0.101925 4.12158e-05 0.00200174)
(0.100087 0.000144424 0.000707212)
(0.100477 0.000390593 0.00161831)
(0.101065 0.000541242 0.00203527)
(0.101694 0.000610373 0.00211811)
(0.102268 0.000636428 0.0021501)
(0.102741 0.000627269 0.00217725)
(0.103123 0.000594796 0.0021267)
(0.103426 0.000548964 0.00202984)
(0.103676 0.000503422 0.00191039)
(0.103893 0.000461736 0.0017921)
(0.104086 0.000421505 0.00168048)
(0.104265 0.000383861 0.00157422)
(0.10443 0.000352739 0.00148221)
(0.104574 0.000330962 0.00141267)
(0.104692 0.000320815 0.00136901)
(0.104773 0.000326738 0.00135666)
(0.104812 0.000355838 0.00138315)
(0.104807 0.000414082 0.00146149)
(0.104769 0.000511866 0.00159202)
(0.104974 0.000673193 0.00174068)
(0.100087 -0.000144356 0.000707205)
(0.100477 -0.000390391 0.0016183)
(0.101066 -0.000540895 0.00203527)
(0.101694 -0.000609762 0.00211803)
(0.102269 -0.00063529 0.00214975)
(0.102742 -0.000625248 0.00217658)
(0.103124 -0.000591438 0.00212563)
(0.103429 -0.000543386 0.00202815)
(0.103681 -0.000493816 0.00190784)
(0.103901 -0.000445204 0.00178814)
(0.104099 -0.00039391 0.00167462)
(0.104286 -0.000338619 0.00156439)
(0.104465 -0.000281 0.00146438)
(0.104631 -0.000218782 0.00138274)
(0.104781 -0.000144038 0.00131672)
(0.104913 -4.77763e-05 0.00126548)
(0.105026 8.20199e-05 0.00123182)
(0.105115 0.000256837 0.00121866)
(0.105192 0.000487463 0.00122268)
(0.105401 0.00076021 0.00123407)
(0.100093 -0.000445919 0.000763361)
(0.100504 -0.00119443 0.00174943)
(0.101105 -0.00158666 0.00213012)
(0.101635 -0.00174009 0.00223512)
(0.10198 -0.00178124 0.00228608)
(0.102173 -0.00172665 0.00223236)
(0.102256 -0.00160326 0.00210839)
(0.102284 -0.00145215 0.0019507)
(0.102291 -0.00129437 0.0017793)
(0.102288 -0.00114142 0.00161778)
(0.102289 -0.0010045 0.00148822)
(0.102301 -0.000883324 0.00138327)
(0.102323 -0.000771776 0.00129139)
(0.102358 -0.000662702 0.00120593)
(0.102407 -0.000547881 0.00112206)
(0.102473 -0.000418616 0.0010365)
(0.102558 -0.000260745 0.000944157)
(0.102659 -5.57619e-05 0.000837001)
(0.10278 0.000210378 0.000709504)
(0.102962 0.000539997 0.000563807)
(0.10014 -0.000775052 0.00086935)
(0.100454 -0.00196254 0.00196388)
(0.100911 -0.00242775 0.00233492)
(0.100978 -0.0025267 0.00244146)
(0.100695 -0.00242605 0.00233653)
(0.100226 -0.00219648 0.00211109)
(0.0997118 -0.0019144 0.0018195)
(0.0991893 -0.00166162 0.00156732)
(0.0986994 -0.00145719 0.00137418)
(0.0982594 -0.00128814 0.00122378)
(0.0978777 -0.00114663 0.00110431)
(0.097553 -0.00102602 0.00100679)
(0.0972827 -0.000921525 0.000921952)
(0.0970654 -0.000828715 0.000840463)
(0.0969036 -0.00074224 0.000751893)
(0.0968023 -0.000655725 0.000647001)
(0.0967624 -0.000556611 0.000504477)
(0.0967777 -0.000412684 0.00027823)
(0.0968162 -0.000179611 -6.96797e-05)
(0.0969004 0.000233368 -0.000591649)
(0.100226 -0.000720853 0.000720822)
(0.09996 -0.00198294 0.0019828)
(0.0997821 -0.00245235 0.00245201)
(0.0987882 -0.00242022 0.00241961)
(0.0972756 -0.00220146 0.00220052)
(0.0957752 -0.00181235 0.00181059)
(0.094395 -0.00138327 0.00138033)
(0.0931691 -0.00107147 0.00106644)
(0.092087 -0.000856584 0.000847935)
(0.0911308 -0.000706979 0.000692301)
(0.0902875 -0.000601716 0.00057696)
(0.0895421 -0.000527428 0.000484238)
(0.0888789 -0.000476639 0.000406237)
(0.0882904 -0.000444818 0.000334914)
(0.0877874 -0.000432747 0.000262098)
(0.0873729 -0.000450111 0.000169729)
(0.087035 -0.000472216 1.28339e-05)
(0.0867838 -0.000432354 -0.000303757)
(0.0865346 -0.000235787 -0.00089158)
(0.0864165 0.000657948 -0.00225239)
(0.0999089 -0.000712612 0.00129698)
(0.0969668 -0.00274751 0.00365576)
(0.0935342 -0.00211859 0.00264008)
(0.0895886 -0.00162108 0.00182004)
(0.0858316 -0.0013909 0.00152785)
(0.0825899 -0.00116136 0.00134967)
(0.0798665 -0.000896714 0.00117687)
(0.0775717 -0.000690166 0.00103642)
(0.0755689 -0.000556047 0.000935944)
(0.0737736 -0.000472352 0.000853884)
(0.07214 -0.00042051 0.000777461)
(0.0706419 -0.000390651 0.000698052)
(0.0692638 -0.000374079 0.00061405)
(0.0679941 -0.000366819 0.000523593)
(0.0668231 -0.000365937 0.000414683)
(0.0657476 -0.000376432 0.000262292)
(0.0648002 -0.000405937 5.08181e-05)
(0.0640006 -0.000419973 -0.000298128)
(0.0635408 -0.000286322 -0.00106015)
(0.0625154 0.000662163 -0.00344778)
(0.099413 0.000270264 0.000345207)
(0.0988663 0.00187513 0.00201896)
(0.0979212 0.00218928 0.00257302)
(0.0963657 0.00190855 0.00237959)
(0.0946337 0.00162648 0.0021135)
(0.0929738 0.0014173 0.00192545)
(0.091369 0.0012672 0.00179895)
(0.0898656 0.00115123 0.00170152)
(0.0884787 0.00105322 0.00159888)
(0.0872043 0.000969577 0.00148474)
(0.0860395 0.000902121 0.00136703)
(0.0849758 0.00084792 0.00125135)
(0.0840058 0.000799862 0.00113725)
(0.0831272 0.00075212 0.00102005)
(0.0823501 0.000697108 0.000891522)
(0.0816984 0.000623131 0.000739867)
(0.0812148 0.000525378 0.000556508)
(0.0809553 0.000340673 0.000273344)
(0.0810515 3.29465e-05 -0.00029325)
(0.0805853 -0.000777149 -0.00165044)
(0.10014 0.000869348 0.000775054)
(0.100454 0.00196388 0.00196254)
(0.100911 0.00233492 0.00242776)
(0.100978 0.00244144 0.00252672)
(0.100695 0.00233651 0.00242607)
(0.100226 0.00211107 0.0021965)
(0.0997118 0.00181947 0.00191443)
(0.0991893 0.00156729 0.00166165)
(0.0986993 0.00137416 0.00145723)
(0.0982593 0.00122376 0.00128819)
(0.0978776 0.0011043 0.0011467)
(0.0975529 0.0010068 0.00102613)
(0.0972825 0.000921966 0.000921663)
(0.0970652 0.00084045 0.000828863)
(0.0969032 0.000751874 0.000742411)
(0.0968019 0.000647041 0.000655972)
(0.0967618 0.000504608 0.000556962)
(0.0967769 0.000278475 0.000413181)
(0.0968151 -6.94112e-05 0.000180204)
(0.096899 -0.000591512 -0.000232769)
(0.10006 0.000641494 0.000641558)
(0.100502 0.00164529 0.0016455)
(0.101149 0.00221268 0.00221309)
(0.101738 0.00244009 0.0024408)
(0.102205 0.00244144 0.0024426)
(0.102502 0.00231189 0.00231372)
(0.102647 0.00208857 0.00209162)
(0.102716 0.00186064 0.00186547)
(0.102741 0.00165582 0.00166372)
(0.102753 0.00147928 0.0014922)
(0.102769 0.0013264 0.00134741)
(0.102798 0.00119123 0.00122504)
(0.102842 0.00106773 0.00112191)
(0.102904 0.000949129 0.00103575)
(0.102982 0.000827751 0.000965511)
(0.103077 0.00069319 0.000911088)
(0.103188 0.000532627 0.000867208)
(0.103304 0.000329472 0.000824978)
(0.103423 8.11979e-05 0.000774981)
(0.10366 -0.000153466 0.000741569)
(0.100046 0.000395782 0.000540433)
(0.10048 0.00104501 0.00138457)
(0.101154 0.00147553 0.00192355)
(0.101913 0.00170532 0.00219295)
(0.102633 0.00177979 0.00229364)
(0.103302 0.00174364 0.00227618)
(0.103893 0.00163145 0.00218065)
(0.104387 0.00148611 0.00204214)
(0.104811 0.00133627 0.0018878)
(0.105182 0.00119517 0.00173892)
(0.105513 0.00106718 0.00160417)
(0.105816 0.00095257 0.0014852)
(0.106098 0.000847835 0.00138342)
(0.106362 0.000749422 0.00129953)
(0.106608 0.000653373 0.001236)
(0.10684 0.000556084 0.0011971)
(0.10706 0.000451623 0.00118877)
(0.107266 0.00033669 0.00121114)
(0.107479 0.000212802 0.00125704)
(0.107793 0.000106344 0.001313)
(0.100039 0.000131381 0.000478939)
(0.100449 0.000350609 0.00123517)
(0.101114 0.000505241 0.00174688)
(0.10191 0.00059737 0.00202681)
(0.10273 0.000638687 0.00215103)
(0.10353 0.000638217 0.0021831)
(0.104298 0.000604428 0.00214606)
(0.105005 0.000559135 0.00206649)
(0.105635 0.000509836 0.00195899)
(0.1062 0.000460953 0.0018375)
(0.106711 0.000416087 0.00171666)
(0.107174 0.000376401 0.00160331)
(0.107596 0.000342057 0.00150117)
(0.10798 0.000313063 0.0014135)
(0.108332 0.000289488 0.00134247)
(0.108657 0.000272281 0.00129393)
(0.108957 0.000261409 0.00127258)
(0.10923 0.000257561 0.00127649)
(0.109497 0.000262243 0.00129979)
(0.109853 0.000279445 0.00132957)
(0.100039 -0.000131333 0.000478917)
(0.100449 -0.000350487 0.0012351)
(0.101114 -0.000505027 0.00174674)
(0.10191 -0.00059701 0.00202657)
(0.10273 -0.000638066 0.00215055)
(0.103531 -0.000637187 0.00218231)
(0.104299 -0.000602673 0.00214487)
(0.105007 -0.000556396 0.00206466)
(0.105638 -0.000505313 0.0019561)
(0.106205 -0.000453465 0.00183267)
(0.106719 -0.000403787 0.00170891)
(0.107187 -0.000356583 0.00159079)
(0.107615 -0.000311037 0.00148101)
(0.108011 -0.00026512 0.0013812)
(0.108378 -0.0002156 0.00129171)
(0.108722 -0.000159236 0.00121285)
(0.109044 -9.3391e-05 0.00114686)
(0.109348 -1.33883e-05 0.00109023)
(0.109648 8.4126e-05 0.00104108)
(0.110001 0.000191266 0.000997874)
(0.100046 -0.000395798 0.000540376)
(0.10048 -0.00104507 0.00138439)
(0.101155 -0.00147563 0.0019232)
(0.101914 -0.00170543 0.0021923)
(0.102633 -0.00178 0.0022925)
(0.103303 -0.00174394 0.00227423)
(0.103895 -0.00163223 0.00217784)
(0.104391 -0.00148751 0.00203777)
(0.104816 -0.00133834 0.00188084)
(0.10519 -0.0011981 0.00172784)
(0.105527 -0.00107158 0.00158602)
(0.105838 -0.000959326 0.00145574)
(0.106132 -0.00085916 0.00133508)
(0.106413 -0.000767867 0.00122104)
(0.106687 -0.000681944 0.00111028)
(0.106955 -0.000597813 0.000998558)
(0.107221 -0.000511145 0.000880817)
(0.107485 -0.000415111 0.000752263)
(0.107758 -0.000304606 0.000613183)
(0.108087 -0.000177728 0.00048432)
(0.10006 -0.000641556 0.000641495)
(0.100502 -0.00164549 0.00164529)
(0.101149 -0.00221308 0.00221268)
(0.101738 -0.0024408 0.0024401)
(0.102205 -0.0024426 0.00244144)
(0.102502 -0.00231372 0.0023119)
(0.102647 -0.00209162 0.00208857)
(0.102716 -0.00186547 0.00186064)
(0.102741 -0.00166371 0.00165582)
(0.102753 -0.00149218 0.00147927)
(0.102769 -0.00134737 0.00132637)
(0.102798 -0.00122496 0.00119116)
(0.102842 -0.00112179 0.00106763)
(0.102904 -0.00103563 0.000949039)
(0.102982 -0.000965398 0.000827655)
(0.103077 -0.000910916 0.000693026)
(0.103188 -0.000866951 0.000532363)
(0.103305 -0.000824618 0.000329086)
(0.103423 -0.000774555 8.07386e-05)
(0.10366 -0.000741197 -0.000153825)
(0.10014 -0.000869394 0.000775017)
(0.100454 -0.00196409 0.00196244)
(0.100911 -0.00233541 0.00242755)
(0.100978 -0.00244228 0.00252628)
(0.100694 -0.00233774 0.00242532)
(0.100224 -0.00211276 0.00219517)
(0.0997091 -0.00182208 0.00191226)
(0.0991846 -0.00157188 0.00165831)
(0.0986911 -0.00138198 0.00145135)
(0.0982451 -0.00123672 0.0012779)
(0.0978539 -0.00112596 0.00112965)
(0.097513 -0.00104254 0.00099946)
(0.097218 -0.000981594 0.000880467)
(0.096963 -0.000940189 0.000763551)
(0.0967429 -0.000918207 0.000637146)
(0.0965528 -0.000925645 0.000490803)
(0.0963837 -0.000970677 0.000302906)
(0.0962236 -0.00105108 4.4473e-05)
(0.0960649 -0.00115876 -0.000305133)
(0.0961614 -0.00135779 -0.000670482)
(0.099413 -0.000270272 0.00034519)
(0.0988663 -0.00187521 0.00201887)
(0.0979209 -0.00218953 0.00257284)
(0.0963651 -0.00190897 0.00237925)
(0.0946324 -0.00162705 0.00211296)
(0.0929713 -0.00141819 0.00192458)
(0.0913644 -0.00126868 0.00179763)
(0.0898575 -0.00115367 0.0016993)
(0.0884648 -0.00105716 0.00159508)
(0.0871811 -0.00097606 0.00147838)
(0.0860008 -0.000912112 0.00135651)
(0.0849108 -0.000865084 0.00123436)
(0.0838967 -0.000829535 0.00111049)
(0.0829436 -0.00080361 0.000979136)
(0.0820414 -0.000788843 0.000831246)
(0.0811708 -0.000793139 0.000655767)
(0.0803069 -0.00083729 0.000436426)
(0.0793722 -0.000947402 0.00011466)
(0.078281 -0.00106136 -0.000461111)
(0.0770243 -0.00248932 -0.000897891)
(0.0995405 0.000321969 0.000245006)
(0.0992575 0.00154133 0.00105542)
(0.0988486 0.00211493 0.00150191)
(0.0981243 0.00209191 0.00157859)
(0.0973369 0.00188602 0.00151302)
(0.0965862 0.00166487 0.00144355)
(0.095869 0.00149535 0.00140548)
(0.0952061 0.00136454 0.00137157)
(0.0945899 0.00126697 0.00131874)
(0.093965 0.00119602 0.00123833)
(0.0933683 0.00113788 0.00113539)
(0.0928033 0.00108574 0.00102012)
(0.0922678 0.00103544 0.000897996)
(0.0917633 0.000983638 0.000767387)
(0.0912937 0.0009262 0.000621689)
(0.0908667 0.00085944 0.000433109)
(0.0904885 0.000781345 0.000184088)
(0.0901679 0.000699463 -0.00016345)
(0.0898995 0.00060892 -0.000664783)
(0.0895536 0.000464536 -0.00141928)
(0.100093 0.000763359 0.000445921)
(0.100504 0.00174943 0.00119444)
(0.101105 0.00213012 0.00158667)
(0.101635 0.00223511 0.00174011)
(0.10198 0.00228608 0.00178126)
(0.102173 0.00223236 0.00172667)
(0.102256 0.00210839 0.00160329)
(0.102284 0.00195071 0.00145218)
(0.102291 0.00177931 0.00129442)
(0.102288 0.00161779 0.00114149)
(0.102289 0.00148826 0.00100459)
(0.102301 0.00138333 0.000883457)
(0.102323 0.00129144 0.000771938)
(0.102358 0.00120599 0.0006629)
(0.102406 0.00112219 0.000548154)
(0.102473 0.0010367 0.000418995)
(0.102558 0.000944432 0.000261253)
(0.102659 0.000837363 5.64336e-05)
(0.10278 0.000709937 -0.000209527)
(0.102961 0.000564206 -0.000539007)
(0.100046 0.000540376 0.0003958)
(0.10048 0.00138439 0.00104507)
(0.101155 0.0019232 0.00147563)
(0.101914 0.0021923 0.00170544)
(0.102633 0.0022925 0.00178)
(0.103303 0.00227423 0.00174395)
(0.103895 0.00217785 0.00163223)
(0.104391 0.00203779 0.00148751)
(0.104816 0.00188087 0.00133836)
(0.10519 0.00172787 0.00119813)
(0.105526 0.00158607 0.00107164)
(0.105838 0.00145583 0.000959423)
(0.106131 0.00133519 0.000859292)
(0.106413 0.00122115 0.000768005)
(0.106687 0.00111042 0.000682101)
(0.106955 0.00099878 0.000598027)
(0.107221 0.000881119 0.000511435)
(0.107485 0.000752641 0.000415474)
(0.107758 0.000613579 0.00030498)
(0.108088 0.000484591 0.000177958)
(0.100036 0.000323171 0.000323214)
(0.100429 0.000868699 0.000868826)
(0.10108 0.00126228 0.00126252)
(0.101891 0.00150387 0.00150428)
(0.102756 0.00162032 0.00162099)
(0.103616 0.00164 0.00164107)
(0.104445 0.00159932 0.00160096)
(0.105219 0.00151682 0.00151933)
(0.105927 0.0014111 0.00141502)
(0.106573 0.00129737 0.00130355)
(0.107162 0.00118525 0.00119509)
(0.107703 0.00107908 0.00109469)
(0.108202 0.000979662 0.00100427)
(0.108665 0.000886178 0.000924386)
(0.109097 0.00079713 0.000855114)
(0.109502 0.000710905 0.00079652)
(0.109886 0.000622284 0.000749059)
(0.110254 0.000529315 0.000710243)
(0.110623 0.000434195 0.000672258)
(0.11103 0.000351467 0.000624713)
(0.100031 0.000107091 0.000281417)
(0.100395 0.000293059 0.000768662)
(0.101024 0.000434041 0.00113294)
(0.101844 0.000526049 0.00136862)
(0.102751 0.00057587 0.00149996)
(0.103687 0.000590719 0.0015512)
(0.104614 0.000580486 0.0015438)
(0.105509 0.00055456 0.00149914)
(0.106353 0.000518918 0.00142969)
(0.107138 0.000479115 0.0013448)
(0.107863 0.000439121 0.00125373)
(0.10853 0.00040091 0.00116368)
(0.109143 0.000365231 0.00107925)
(0.109708 0.000332203 0.00100311)
(0.11023 0.000301683 0.000936435)
(0.110714 0.000272992 0.000880791)
(0.111166 0.000245374 0.000838305)
(0.111591 0.000218517 0.000807618)
(0.112006 0.000192117 0.000782407)
(0.112453 0.000173728 0.000753157)
(0.100031 -0.000107086 0.000281396)
(0.100395 -0.000293054 0.000768598)
(0.101025 -0.000434043 0.00113281)
(0.101844 -0.000526057 0.00136838)
(0.102751 -0.000575891 0.00149956)
(0.103688 -0.000590772 0.00155058)
(0.104615 -0.000580581 0.00154294)
(0.105509 -0.000554619 0.00149787)
(0.106354 -0.000518845 0.0014277)
(0.10714 -0.000478855 0.00134158)
(0.107865 -0.000438589 0.00124862)
(0.108533 -0.000399989 0.00115561)
(0.109148 -0.000363773 0.00106668)
(0.109716 -0.000329981 0.000983957)
(0.110242 -0.000298259 0.00090811)
(0.11073 -0.000267931 0.000839175)
(0.111187 -0.000237188 0.000776929)
(0.111617 -0.000204235 0.000719883)
(0.112036 -0.000166251 0.000667152)
(0.112477 -0.000125523 0.000621641)
(0.100036 -0.000323212 0.000323171)
(0.100429 -0.000868823 0.000868698)
(0.10108 -0.00126252 0.00126228)
(0.101891 -0.00150428 0.00150387)
(0.102756 -0.001621 0.00162032)
(0.103616 -0.00164107 0.00164)
(0.104445 -0.00160096 0.00159931)
(0.105219 -0.00151933 0.00151681)
(0.105927 -0.00141502 0.00141108)
(0.106573 -0.00130353 0.00129733)
(0.107162 -0.00119506 0.0011852)
(0.107703 -0.00109462 0.001079)
(0.108202 -0.00100418 0.000979565)
(0.108665 -0.000924304 0.000886075)
(0.109097 -0.000855035 0.000797002)
(0.109502 -0.000796419 0.000710732)
(0.109886 -0.00074893 0.000622071)
(0.110254 -0.000710097 0.000529086)
(0.110622 -0.000672153 0.000434025)
(0.11103 -0.00062476 0.000351482)
(0.100046 -0.000540431 0.000395781)
(0.10048 -0.00138457 0.00104501)
(0.101154 -0.00192355 0.00147553)
(0.101913 -0.00219295 0.00170532)
(0.102633 -0.00229364 0.00177979)
(0.103302 -0.00227619 0.00174364)
(0.103893 -0.00218066 0.00163145)
(0.104387 -0.00204215 0.00148611)
(0.104811 -0.00188781 0.00133627)
(0.105182 -0.00173892 0.00119515)
(0.105513 -0.00160414 0.00106714)
(0.105816 -0.00148515 0.000952502)
(0.106098 -0.00138335 0.000847741)
(0.106362 -0.00129947 0.000749324)
(0.106608 -0.00123594 0.000653253)
(0.10684 -0.00119699 0.000555905)
(0.10706 -0.00118859 0.000451372)
(0.107266 -0.00121088 0.000336363)
(0.107479 -0.00125672 0.000212451)
(0.107793 -0.00131268 0.000106102)
(0.100093 -0.000763372 0.000445927)
(0.100504 -0.00174947 0.00119446)
(0.101105 -0.00213029 0.00158671)
(0.101634 -0.0022357 0.00174024)
(0.101978 -0.00228724 0.00178151)
(0.102171 -0.00223404 0.00172709)
(0.102252 -0.0021108 0.00160404)
(0.102277 -0.00195445 0.00145352)
(0.10228 -0.00178506 0.00129654)
(0.102271 -0.00162691 0.00114527)
(0.10226 -0.00150405 0.00101093)
(0.102251 -0.00141017 0.000894208)
(0.10224 -0.00133694 0.000786372)
(0.102227 -0.00128311 0.00068565)
(0.102203 -0.00125367 0.000588252)
(0.102157 -0.00126093 0.000488148)
(0.102079 -0.00132362 0.000379978)
(0.10196 -0.00146907 0.000257501)
(0.101807 -0.00170258 0.000120648)
(0.101926 -0.00200143 4.06228e-05)
(0.0995405 -0.000321969 0.000245021)
(0.0992574 -0.00154133 0.00105549)
(0.0988483 -0.00211505 0.00150204)
(0.0981237 -0.00209213 0.00157883)
(0.0973355 -0.00188636 0.0015136)
(0.0965835 -0.00166542 0.00144476)
(0.0958642 -0.001496 0.00140765)
(0.0951979 -0.00136556 0.00137513)
(0.0945756 -0.00126946 0.00132478)
(0.0939402 -0.00120131 0.00124785)
(0.0933263 -0.00114742 0.00115027)
(0.0927323 -0.00110322 0.00104345)
(0.0921483 -0.00106453 0.000936198)
(0.0915633 -0.00103282 0.000830533)
(0.0909604 -0.00101356 0.00072495)
(0.0903098 -0.00101887 0.000616323)
(0.0895543 -0.00108093 0.000508682)
(0.0885705 -0.0012533 0.000411988)
(0.0872145 -0.00152787 0.000323437)
(0.085694 -0.00233863 0.000719463)
(0.0993801 5.89775e-05 3.37463e-05)
(0.0992676 0.00120038 0.000274226)
(0.09898 0.00188914 0.000432009)
(0.0984738 0.00200698 0.000482792)
(0.0979944 0.00191438 0.000477651)
(0.0975704 0.00173299 0.000463275)
(0.0971821 0.0015438 0.000448666)
(0.096835 0.00138148 0.000434959)
(0.09654 0.00125586 0.000424038)
(0.0962947 0.00117328 0.000409293)
(0.0960366 0.00112759 0.000381418)
(0.0957665 0.00109859 0.000340389)
(0.0954895 0.00106994 0.000287065)
(0.0952001 0.00103754 0.000219298)
(0.0948948 0.00100314 0.000129511)
(0.0945685 0.000973598 3.71316e-06)
(0.0942166 0.000957571 -0.000180396)
(0.093822 0.000959119 -0.000451531)
(0.0933647 0.000984449 -0.00085785)
(0.0929527 0.00106697 -0.00148928)
(0.100087 0.000707204 0.00014436)
(0.100477 0.00161829 0.000390401)
(0.101066 0.00203527 0.000540909)
(0.101694 0.00211803 0.000609778)
(0.102269 0.00214975 0.00063531)
(0.102742 0.00217659 0.000625275)
(0.103124 0.00212564 0.000591473)
(0.103429 0.00202818 0.000543431)
(0.103681 0.00190787 0.000493876)
(0.103901 0.00178818 0.000445284)
(0.104099 0.00167467 0.000394017)
(0.104286 0.00156446 0.000338763)
(0.104465 0.0014645 0.000281195)
(0.104631 0.00138289 0.000219035)
(0.10478 0.00131688 0.000144357)
(0.104913 0.00126565 4.81818e-05)
(0.105025 0.00123202 -8.1503e-05)
(0.105115 0.0012189 -0.00025619)
(0.105192 0.00122296 -0.000486677)
(0.105401 0.00123434 -0.000759316)