/*--------------------------------*- C++ -*----------------------------------*\
| =========                 |                                                 |
| \\      /  F ield         | OpenFOAM: The Open Source CFD Toolbox           |
|  \\    /   O peration     | Version:  2212                                  |
|   \\  /    A nd           | Website:  www.openfoam.com                      |
|    \\/     M anipulation  |                                                 |
\*---------------------------------------------------------------------------*/
FoamFile
{
    version     2.0;
    format      ascii;
    arch        "LSB;label=32;scalar=64";
    class       surfaceVectorField;
    location    "0.45";
    object      Uf;
}
// * * * * * * * * * * * * * * * * * * * * * * * * * * * * * * * * * * * * * //

dimensions      [0 1 -1 0 0 0 0];

internalField   nonuniform List<vector> 
19019
(
(0.099344 -0.00341903 -0.00341898)
(0.0973536 0.00106247 -0.00148424)
(0.0973536 -0.00148425 0.00106247)
(0.0834791 0.00197581 0.00197596)
(0.0930871 0.00326889 0.0025336)
(0.0930871 0.00253351 0.00326901)
(0.0745168 0.00195866 0.00195895)
(0.0848636 0.00163571 0.00179263)
(0.0848637 0.00179243 0.00163593)
(0.0685472 0.00115895 0.00115952)
(0.0786275 0.00107326 0.0012218)
(0.0786276 0.00122141 0.00107368)
(0.0642356 0.000696573 0.000697548)
(0.0740525 0.000784769 0.000865675)
(0.0740527 0.00086503 0.000785624)
(0.0607575 0.000494013 0.00049593)
(0.0704425 0.000649452 0.000669957)
(0.0704429 0.000668854 0.000650841)
(0.0579397 0.000373519 0.00037713)
(0.0674932 0.000544906 0.000509788)
(0.0674939 0.000507622 0.000547726)
(0.0556198 0.000285701 0.000291783)
(0.0650553 0.000465742 0.000389097)
(0.0650566 0.000385392 0.00047071)
(0.0536369 0.000222826 0.00023274)
(0.0629763 0.000409981 0.000310024)
(0.0629786 0.000303956 0.000418398)
(0.051904 0.000175324 0.00019131)
(0.0611524 0.000363698 0.000258175)
(0.0611564 0.000248354 0.000377793)
(0.050371 0.000136985 0.000162904)
(0.0595248 0.00032075 0.000224278)
(0.0595316 0.000208746 0.000343987)
(0.0490061 0.000102904 0.000145152)
(0.0580609 0.000277695 0.000204468)
(0.0580728 0.000177789 0.0003161)
(0.0477884 6.82134e-05 0.000136627)
(0.0567364 0.000232155 0.00019475)
(0.0567572 0.000150565 0.000295024)
(0.0467047 3.24853e-05 0.000136619)
(0.0555415 0.000180644 0.000193123)
(0.0555778 0.000123808 0.000282936)
(0.0457515 -4.43706e-06 0.000147531)
(0.0544576 0.000118846 0.000196957)
(0.0545188 9.6352e-05 0.000280362)
(0.0449479 -6.93969e-05 0.000171287)
(0.0534954 3.5823e-05 0.000212458)
(0.0536021 5.97156e-05 0.000286262)
(0.0443518 -0.000203275 0.000212021)
(0.0526991 -9.22066e-05 0.000248796)
(0.0528896 -9.74327e-06 0.000309382)
(0.0442018 -0.000424505 0.000233669)
(0.052135 -0.00034483 0.000281233)
(0.0524948 -0.000167543 0.000368237)
(0.0451288 -0.00188619 -0.00069701)
(0.0521831 -0.00085344 0.000197005)
(0.0529029 -0.000401386 0.000417886)
(0.0512765 -0.00370959 -0.00147278)
(0.0516079 -0.00226792 -0.000788104)
(0.0984572 0.00247636 0.00173006)
(0.0996872 0.000439188 0.00034553)
(0.100049 0.00105637 0.000751022)
(0.0958346 0.0031479 0.00243306)
(0.097816 0.00273258 0.00228257)
(0.0982936 0.00280916 0.00216174)
(0.0914494 0.00223004 0.00186984)
(0.0954955 0.00300142 0.00230364)
(0.0963037 0.00244258 0.00199831)
(0.0875945 0.00167392 0.00150599)
(0.0926183 0.00229879 0.0018394)
(0.0936664 0.0019804 0.0017276)
(0.0841473 0.00143872 0.00127613)
(0.0897664 0.00189075 0.00153617)
(0.0909043 0.00171891 0.00149851)
(0.0811884 0.00126322 0.00102903)
(0.0872314 0.00165437 0.00129487)
(0.0884345 0.00145303 0.00121273)
(0.0787043 0.00110659 0.000793437)
(0.0850072 0.00148864 0.00107644)
(0.0863065 0.00118084 0.000909855)
(0.0765646 0.000986113 0.000623104)
(0.0830647 0.00136604 0.000910437)
(0.0844855 0.00097862 0.000692189)
(0.0746677 0.000894829 0.000514196)
(0.0813346 0.00126927 0.000795242)
(0.0828908 0.000837963 0.000550824)
(0.0729546 0.000815576 0.000446431)
(0.079768 0.00117778 0.000715085)
(0.0814674 0.000732558 0.000459727)
(0.0713897 0.000737656 0.000405591)
(0.0783371 0.00108509 0.000659424)
(0.0801841 0.000646175 0.000401361)
(0.0699522 0.000655951 0.000382388)
(0.0770214 0.000988468 0.000622645)
(0.0790196 0.000566735 0.000365619)
(0.0686286 0.000568726 0.000370476)
(0.075806 0.000886373 0.00059749)
(0.0779583 0.000490739 0.000346437)
(0.067408 0.000469037 0.000366399)
(0.0746778 0.000775495 0.000581048)
(0.0769905 0.00041493 0.000342796)
(0.0662858 0.000338387 0.000371199)
(0.0736268 0.000646992 0.000573106)
(0.0761154 0.000330056 0.000355894)
(0.0652679 0.000156493 0.000391205)
(0.0726428 0.000482168 0.000579998)
(0.0753328 0.000214599 0.000393695)
(0.0643704 -0.000123635 0.000412975)
(0.0717326 0.000262487 0.000614195)
(0.0746554 4.18964e-05 0.000454078)
(0.063685 -0.00067899 0.000353131)
(0.0708723 -8.4421e-05 0.000667165)
(0.0740986 -0.0002746 0.000486588)
(0.0636675 -0.00225352 -0.000187967)
(0.0701301 -0.000792621 0.000632569)
(0.0737318 -0.000965107 0.000311295)
(0.0690008 -0.00234901 0.000730384)
(0.0731078 -0.00297552 -0.000797284)
(0.0993752 0.00118203 0.00107274)
(0.099473 0.000349729 0.000307114)
(0.0997475 0.000610958 0.000779965)
(0.0984944 0.00229585 0.00203238)
(0.0990503 0.00157667 0.00172082)
(0.099597 0.00201823 0.00200329)
(0.0971405 0.00247604 0.00204926)
(0.0983571 0.00213083 0.00216946)
(0.0992968 0.00246138 0.00210313)
(0.0954383 0.0022461 0.00176802)
(0.0971922 0.00203526 0.00200301)
(0.0984876 0.002374 0.00190346)
(0.0937493 0.00201876 0.00152263)
(0.0959038 0.0018546 0.00175474)
(0.0974215 0.00217981 0.00168948)
(0.0921371 0.00186109 0.00134344)
(0.0946703 0.00173107 0.00154228)
(0.0963086 0.00198243 0.00150841)
(0.0906023 0.00174845 0.00121118)
(0.0934809 0.00165021 0.00138433)
(0.0952041 0.00179747 0.00134127)
(0.0891561 0.00164717 0.00110542)
(0.0923694 0.00157321 0.00125973)
(0.0941493 0.00163783 0.00119949)
(0.0878173 0.00153671 0.00101661)
(0.091339 0.0014747 0.00115865)
(0.0931703 0.00149412 0.00108681)
(0.0865881 0.00141743 0.000944092)
(0.0903602 0.00135971 0.00107952)
(0.0922721 0.00135777 0.000998459)
(0.0854554 0.00129542 0.00088861)
(0.0894463 0.00124186 0.00101851)
(0.0914548 0.00122923 0.000931771)
(0.0844042 0.00117241 0.000847329)
(0.0885896 0.00112342 0.000971969)
(0.0907095 0.00110794 0.000883657)
(0.0834211 0.00104482 0.000816602)
(0.0877778 0.00100458 0.000934274)
(0.0900262 0.00099029 0.000850058)
(0.0824938 0.000905229 0.00079627)
(0.0869977 0.000882482 0.000904949)
(0.0893943 0.000869395 0.000830091)
(0.0816094 0.000743598 0.000791054)
(0.0862362 0.000750193 0.000887038)
(0.0888058 0.000735382 0.000825668)
(0.0807443 0.00054627 0.000815293)
(0.085469 0.000596565 0.00088949)
(0.0882483 0.000578125 0.000847816)
(0.079857 0.000275833 0.000892423)
(0.084656 0.00040971 0.000937194)
(0.087704 0.000380934 0.000918521)
(0.0788607 -0.000172777 0.00100443)
(0.083698 0.000160569 0.00106849)
(0.0871255 0.000101635 0.00106039)
(0.0775574 -0.000678803 0.00177537)
(0.0824822 -0.000200724 0.00125428)
(0.0864632 -0.00034792 0.0012471)
(0.0811012 -0.000354858 0.00236564)
(0.0858289 -0.000714005 0.00223878)
(0.0996492 0.00065026 0.000931654)
(0.0994625 0.000129391 0.000192581)
(0.0997993 0.00037512 0.000741464)
(0.099085 0.00127877 0.0018282)
(0.0992623 0.000636903 0.00137102)
(0.0998407 0.00115032 0.0018146)
(0.0984483 0.00154044 0.0021036)
(0.0989124 0.000973389 0.00200421)
(0.0999043 0.00153633 0.0020907)
(0.0977062 0.00154622 0.00198925)
(0.0982939 0.00104988 0.0020512)
(0.0997665 0.00163138 0.00202363)
(0.0969376 0.00147918 0.00177589)
(0.0976557 0.00100717 0.00189972)
(0.0995083 0.00160879 0.00189582)
(0.0962059 0.00142621 0.00158071)
(0.097063 0.000959737 0.00169747)
(0.0991984 0.00154624 0.00175063)
(0.0955213 0.00139139 0.00143078)
(0.0965043 0.000932568 0.00151832)
(0.0988536 0.00147227 0.00162265)
(0.094875 0.00134996 0.0013175)
(0.0959925 0.000915391 0.00137311)
(0.098511 0.00138916 0.00150744)
(0.0942475 0.00128632 0.00123537)
(0.0955282 0.000899421 0.00126454)
(0.0981813 0.00129343 0.00140369)
(0.0936317 0.00119907 0.00117435)
(0.0950805 0.00086586 0.00119109)
(0.0978388 0.00118557 0.00131621)
(0.0930309 0.00109688 0.00112531)
(0.0946361 0.000807593 0.00114211)
(0.0975072 0.00107376 0.00124755)
(0.0924425 0.000989846 0.00108387)
(0.0941938 0.000740083 0.00110683)
(0.0971869 0.000964553 0.00119328)
(0.0918588 0.000883407 0.00104868)
(0.0937489 0.000674914 0.00107635)
(0.0968713 0.000858869 0.00114919)
(0.0912667 0.000777822 0.00102322)
(0.0932906 0.000615809 0.00105007)
(0.0965535 0.000757208 0.00111697)
(0.0906432 0.000670774 0.00101627)
(0.0928038 0.000565782 0.00103306)
(0.0962215 0.000657158 0.00110281)
(0.0899456 0.000562716 0.00104997)
(0.0922639 0.000531339 0.00103599)
(0.0958542 0.000554678 0.00112143)
(0.0890917 0.000460645 0.00116719)
(0.0916279 0.00053309 0.00108645)
(0.0954153 0.00045039 0.00120458)
(0.0879427 0.000368158 0.00139057)
(0.0908085 0.000584448 0.00122496)
(0.0948362 0.000348143 0.00140215)
(0.0862675 0.000521955 0.00193334)
(0.0897018 0.000753671 0.00145904)
(0.0940432 0.000249805 0.00173221)
(0.088583 0.00142061 0.00206633)
(0.0932897 0.00047896 0.00263355)
(0.0996724 0.0001541 0.000629729)
(0.0993802 2.00458e-08 5.90096e-05)
(0.0997132 0.000103947 0.000688069)
(0.0991588 0.000353416 0.00154479)
(0.0992676 9.89836e-08 0.0012004)
(0.0998375 0.000341717 0.00162272)
(0.0986629 0.000457963 0.00194811)
(0.09898 2.3165e-07 0.00188915)
(0.0999627 0.000485592 0.00199198)
(0.098211 0.000481206 0.00196082)
(0.0984737 4.09e-07 0.00200702)
(0.0999912 0.000539821 0.00199707)
(0.0977747 0.000472207 0.00182399)
(0.0979941 6.98073e-07 0.00191448)
(0.100008 0.000546742 0.0019108)
(0.0973614 0.0004591 0.0016389)
(0.0975698 1.21421e-06 0.00173319)
(0.100006 0.000533928 0.00180233)
(0.0969946 0.000447306 0.00146345)
(0.0971811 2.13685e-06 0.0015441)
(0.0999804 0.000511812 0.00167803)
(0.0966768 0.000438911 0.00132009)
(0.0968332 3.66525e-06 0.00138198)
(0.0999389 0.000485418 0.0015628)
(0.0964011 0.000432529 0.00121706)
(0.096537 6.22736e-06 0.00125677)
(0.0998996 0.000462039 0.00146335)
(0.0961437 0.00042177 0.00115466)
(0.0962896 1.04408e-05 0.00117484)
(0.0998697 0.000440158 0.00138839)
(0.0958775 0.000404484 0.00112031)
(0.0960279 1.73472e-05 0.00113022)
(0.0998204 0.000414556 0.00133385)
(0.0955914 0.000385407 0.00109696)
(0.0957518 2.86025e-05 0.00110314)
(0.0997557 0.000387219 0.001286)
(0.0952805 0.000370884 0.00107586)
(0.0954643 4.71097e-05 0.00107802)
(0.0996759 0.000363421 0.00124163)
(0.0949366 0.000367824 0.00105798)
(0.0951574 7.74663e-05 0.00105149)
(0.0995722 0.000347915 0.00120522)
(0.0945448 0.000385862 0.00104989)
(0.0948227 0.000127607 0.00102671)
(0.0994352 0.000345877 0.00118257)
(0.0940809 0.000445409 0.00106675)
(0.094448 0.000211077 0.00101142)
(0.09925 0.000365719 0.00118318)
(0.0935074 0.000561651 0.00113187)
(0.0940173 0.000353858 0.00102076)
(0.0989989 0.000426384 0.00122558)
(0.0927728 0.000785472 0.00126732)
(0.0934972 0.000574036 0.00106927)
(0.0986548 0.00053152 0.00133218)
(0.0918118 0.00134983 0.00154367)
(0.0928468 0.000946969 0.00116963)
(0.0981909 0.000739314 0.00151587)
(0.0922937 0.00169312 0.00139951)
(0.0979203 0.00125507 0.00183915)
(0.0996724 -0.000153979 0.000629676)
(0.0994625 -0.000129346 0.000192551)
(0.0997132 -0.000103895 0.000688066)
(0.0991588 -0.000353098 0.00154476)
(0.0992624 -0.000636739 0.00137099)
(0.0998376 -0.000341516 0.0016227)
(0.098663 -0.00045737 0.00194806)
(0.0989125 -0.00097308 0.00200413)
(0.0999628 -0.0004852 0.00199199)
(0.0982114 -0.000480183 0.00196068)
(0.0982943 -0.00104937 0.00205105)
(0.0999915 -0.000539138 0.00199702)
(0.0977755 -0.000470415 0.00182369)
(0.0976567 -0.00100621 0.00189945)
(0.100009 -0.000545524 0.00191058)
(0.0973629 -0.000455912 0.00163839)
(0.0970649 -0.000957951 0.00169699)
(0.100008 -0.000531767 0.00180185)
(0.0969973 -0.000441742 0.00146263)
(0.0965077 -0.000929336 0.00151768)
(0.0999823 -0.000508077 0.00167731)
(0.0966815 -0.000429413 0.00131866)
(0.0959984 -0.000909834 0.00137207)
(0.0999422 -0.000479073 0.00156163)
(0.0964091 -0.000416561 0.00121455)
(0.0955385 -0.000889963 0.00126231)
(0.0999052 -0.000451207 0.00146141)
(0.0961572 -0.000395227 0.0011504)
(0.0950982 -0.000850382 0.00118674)
(0.0998789 -0.000421823 0.00138525)
(0.0959005 -0.000360742 0.00111304)
(0.0946662 -0.00078248 0.00113447)
(0.0998359 -0.00038409 0.00132898)
(0.0956305 -0.000313517 0.0010842)
(0.0942447 -0.00069943 0.00109312)
(0.0997814 -0.00033721 0.00127769)
(0.0953472 -0.000252903 0.00105365)
(0.093835 -0.000608123 0.00105303)
(0.0997192 -0.000282436 0.00122627)
(0.0950493 -0.000174045 0.00102022)
(0.0934352 -0.000506089 0.00101041)
(0.0996442 -0.000217684 0.00117857)
(0.0947345 -6.61649e-05 0.00098823)
(0.0930455 -0.000385328 0.000963901)
(0.0995534 -0.000135335 0.00113631)
(0.0943947 8.88925e-05 0.000965428)
(0.0926676 -0.000225421 0.000915015)
(0.0994434 -2.38091e-05 0.00110375)
(0.0940228 0.000316644 0.000958166)
(0.0923024 -8.35843e-06 0.000867143)
(0.0993104 0.000134254 0.0010886)
(0.0936055 0.000655539 0.00097157)
(0.0919459 0.000292309 0.000826957)
(0.099144 0.000359422 0.00109494)
(0.0931547 0.00117464 0.00102546)
(0.0915858 0.00071316 0.00079672)
(0.0989386 0.000682354 0.00112269)
(0.091208 0.00131884 0.00077302)
(0.0988192 0.00114378 0.00119178)
(0.0996492 -0.000650208 0.000931652)
(0.099473 -0.000349731 0.000307111)
(0.0997993 -0.000375107 0.000741466)
(0.0990852 -0.00127865 0.00182813)
(0.0990503 -0.00157668 0.00172078)
(0.0998408 -0.00115027 0.0018146)
(0.0984488 -0.00154022 0.00210343)
(0.0983574 -0.00213086 0.00216927)
(0.0999046 -0.00153623 0.0020906)
(0.0977072 -0.00154576 0.00198897)
(0.0971929 -0.00203531 0.00200269)
(0.0997671 -0.00163117 0.00202329)
(0.0969396 -0.00147824 0.00177545)
(0.0959052 -0.00185457 0.00175428)
(0.0995096 -0.00160835 0.00189517)
(0.0962096 -0.00142445 0.00158012)
(0.0946729 -0.00173085 0.00154155)
(0.0992009 -0.00154537 0.00174964)
(0.0955278 -0.00138845 0.00142996)
(0.0934856 -0.00164975 0.00138324)
(0.098858 -0.00147073 0.0016213)
(0.0948861 -0.00134507 0.00131576)
(0.0923775 -0.00157263 0.00125798)
(0.0985184 -0.00138661 0.00150532)
(0.0942668 -0.00127842 0.00123149)
(0.0913532 -0.00147388 0.00115544)
(0.0981939 -0.0012892 0.0014)
(0.0936646 -0.00118672 0.00116694)
(0.0903843 -0.00135865 0.00107366)
(0.0978603 -0.00117876 0.00130987)
(0.0930866 -0.00107758 0.00111179)
(0.0894867 -0.00124049 0.00100879)
(0.0975434 -0.001063 0.0012366)
(0.0925363 -0.000958838 0.00106054)
(0.0886577 -0.0011216 0.00095473)
(0.0972482 -0.000947357 0.00117397)
(0.0920157 -0.000832404 0.00100946)
(0.087892 -0.00100116 0.000904994)
(0.0969738 -0.000832081 0.00111557)
(0.0915285 -0.000694171 0.000954815)
(0.0871895 -0.000875257 0.000854761)
(0.0967216 -0.000713209 0.00105804)
(0.0910804 -0.00052691 0.000892685)
(0.0865572 -0.000735742 0.000797897)
(0.0964947 -0.000583594 0.000998104)
(0.0906785 -0.000307961 0.000820221)
(0.0860113 -0.000559772 0.000725616)
(0.0962989 -0.000424462 0.000933011)
(0.0903326 -9.53023e-06 0.000740197)
(0.0855775 -0.000329384 0.000633187)
(0.0961375 -0.000220078 0.000860331)
(0.0900425 0.000415119 0.000653927)
(0.0852897 -3.86243e-06 0.000493909)
(0.0960144 5.83647e-05 0.000781182)
(0.0897517 0.00104336 0.000536382)
(0.0852148 0.000549468 0.000284081)
(0.0959282 0.000446729 0.000691221)
(0.0848057 0.00157316 -0.000200751)
(0.0958294 0.000997267 0.000577658)
(0.0993752 -0.00118208 0.0010727)
(0.0996872 -0.000439207 0.000345518)
(0.0997475 -0.000610982 0.000779942)
(0.0984946 -0.00229597 0.00203221)
(0.0978161 -0.00273271 0.00228248)
(0.099597 -0.00201832 0.00200315)
(0.0971409 -0.00247628 0.00204892)
(0.0954957 -0.00300162 0.00230341)
(0.0992971 -0.00246157 0.0021028)
(0.0954393 -0.00224651 0.00176753)
(0.0926188 -0.00229916 0.001839)
(0.0984882 -0.00237438 0.00190289)
(0.0937512 -0.00201944 0.00152191)
(0.0897673 -0.00189148 0.00153562)
(0.0974226 -0.00218044 0.00168865)
(0.0921406 -0.00186215 0.00134228)
(0.0872331 -0.00165562 0.00129395)
(0.0963108 -0.0019835 0.00150717)
(0.0906086 -0.00175017 0.00120924)
(0.0850103 -0.00149083 0.00107491)
(0.0952079 -0.00179915 0.00133928)
(0.0891669 -0.00165013 0.00110226)
(0.0830701 -0.00136975 0.000907862)
(0.0941558 -0.00164054 0.00119613)
(0.0878356 -0.00154173 0.00101143)
(0.081344 -0.00127555 0.00079093)
(0.0931816 -0.00149888 0.00108128)
(0.0866187 -0.00142578 0.000935884)
(0.079784 -0.00118844 0.000707907)
(0.0922912 -0.00136596 0.000989272)
(0.0855064 -0.00130907 0.000875054)
(0.0783639 -0.0011029 0.000648223)
(0.0914868 -0.00124273 0.000916628)
(0.0844897 -0.00119417 0.000823927)
(0.077067 -0.00101855 0.000602265)
(0.0907632 -0.00112922 0.000857777)
(0.0835647 -0.00107849 0.000776029)
(0.0758838 -0.000935279 0.000562435)
(0.0901151 -0.00102324 0.000805571)
(0.0827356 -0.00095556 0.000724639)
(0.0748103 -0.000852468 0.00052442)
(0.0895409 -0.000920573 0.000753767)
(0.0820188 -0.000815365 0.000660103)
(0.0738498 -0.000769309 0.000480587)
(0.089047 -0.000814363 0.000693676)
(0.0814488 -0.00064774 0.000574189)
(0.0730268 -0.000675002 0.000417363)
(0.0886487 -0.00069501 0.000613681)
(0.0810746 -0.000414296 0.0004329)
(0.0724026 -0.00055557 0.000327592)
(0.0883693 -0.000552039 0.000501108)
(0.0809623 1.08354e-05 0.000186595)
(0.0720783 -0.000349099 0.00010993)
(0.0882366 -0.00033355 0.000299794)
(0.0812271 0.000973023 -0.000372399)
(0.0723644 9.96596e-05 -0.00026348)
(0.0883065 8.29494e-05 -3.76054e-05)
(0.0710529 0.00151882 -0.00129611)
(0.088094 0.00102372 -0.000776673)
(0.0984572 -0.00247644 0.00173001)
(0.0973536 -0.00106247 -0.00148425)
(0.100049 -0.00105639 0.000750997)
(0.0958347 -0.00314808 0.00243291)
(0.0930871 -0.003269 0.00253352)
(0.0982936 -0.00280929 0.0021616)
(0.0914496 -0.00223034 0.00186954)
(0.0848637 -0.00163591 0.00179245)
(0.0963037 -0.00244286 0.00199804)
(0.0875949 -0.00167453 0.00150551)
(0.0786276 -0.00107366 0.00122144)
(0.0936666 -0.00198089 0.00172709)
(0.084148 -0.00143982 0.00127532)
(0.0740528 -0.000785592 0.000865067)
(0.0909046 -0.00171979 0.00149772)
(0.0811897 -0.00126519 0.00102764)
(0.0704429 -0.000650805 0.000668903)
(0.0884351 -0.00145453 0.00121124)
(0.0787067 -0.00111011 0.000791124)
(0.0674939 -0.000547676 0.000507688)
(0.0863074 -0.00118351 0.000907374)
(0.076569 -0.000992221 0.000619217)
(0.0650566 -0.000470649 0.000385468)
(0.0844873 -0.000983222 0.000687997)
(0.0746755 -0.000905358 0.000507701)
(0.0629786 -0.000418324 0.000304036)
(0.082894 -0.000845884 0.000543684)
(0.072968 -0.000833435 0.000436003)
(0.0611565 -0.00037771 0.000248439)
(0.081473 -0.000746058 0.000447632)
(0.0714124 -0.000767936 0.000387214)
(0.0595317 -0.000343898 0.000208838)
(0.0801936 -0.000668808 0.000381303)
(0.0699919 -0.000706391 0.000349849)
(0.0580729 -0.000316009 0.00017789)
(0.0790362 -0.000605699 0.000329667)
(0.0686981 -0.000650463 0.000318467)
(0.0567574 -0.000294939 0.000150675)
(0.0779875 -0.000554339 0.000286357)
(0.0675281 -0.000603061 0.000287292)
(0.0555781 -0.000282857 0.000123932)
(0.0770412 -0.00051513 0.000248097)
(0.0664897 -0.000558481 0.000243659)
(0.0545192 -0.000280277 9.64704e-05)
(0.0762008 -0.000490168 0.00020671)
(0.0656208 -0.000502892 0.000175618)
(0.0536026 -0.000286125 5.98287e-05)
(0.0754817 -0.000475092 0.000143343)
(0.0650044 -0.000425824 2.3165e-05)
(0.0528903 -0.00030921 -9.64786e-06)
(0.074921 -0.000450619 3.18636e-05)
(0.0649389 -0.000321717 -0.00025552)
(0.0524958 -0.00036806 -0.000167488)
(0.0745998 -0.000377779 -0.000244819)
(0.0660658 -2.14343e-05 -0.000835727)
(0.0529044 -0.000417742 -0.000401337)
(0.0747339 -0.000151173 -0.000864387)
(0.0516098 0.000788104 -0.00226805)
(0.0735704 0.000989341 -0.00304618)
(0.099344 0.00341898 -0.00341902)
(0.0973536 0.00148424 0.00106247)
(0.0834791 -0.00197594 0.00197583)
(0.0930871 -0.00253359 0.0032689)
(0.0745168 -0.00195893 0.00195868)
(0.0848636 -0.00179261 0.00163572)
(0.0685472 -0.00115949 0.00115899)
(0.0786275 -0.00122178 0.00107328)
(0.0642356 -0.000697513 0.000696621)
(0.0740525 -0.000865652 0.000784798)
(0.0607575 -0.000495883 0.000494078)
(0.0704425 -0.000669926 0.000649481)
(0.0579397 -0.000377071 0.000373606)
(0.0674932 -0.000509745 0.000544953)
(0.0556198 -0.000291714 0.000285798)
(0.0650553 -0.000389045 0.000465797)
(0.053637 -0.000232661 0.000222928)
(0.0629763 -0.000309967 0.000410047)
(0.0519041 -0.000191224 0.000175433)
(0.0611525 -0.000258111 0.000363773)
(0.0503711 -0.000162814 0.0001371)
(0.0595249 -0.000224206 0.000320827)
(0.0490062 -0.000145057 0.00010302)
(0.058061 -0.000204381 0.000277764)
(0.0477887 -0.000136536 6.83339e-05)
(0.0567366 -0.000194654 0.000232216)
(0.046705 -0.000136534 3.25991e-05)
(0.0555418 -0.00019303 0.000180706)
(0.0457519 -0.000147437 -4.32904e-06)
(0.054458 -0.000196881 0.000118913)
(0.0449484 -0.000171172 -6.92934e-05)
(0.0534959 -0.000212377 3.59083e-05)
(0.0443526 -0.00021191 -0.000203198)
(0.0526997 -0.000248707 -9.21463e-05)
(0.0442029 -0.000233572 -0.000424475)
(0.0521359 -0.000281165 -0.000344832)
(0.0451303 0.000697043 -0.00188634)
(0.0521843 -0.000196962 -0.000853537)
(0.0512784 0.00147274 -0.00371004)
(0.0984572 0.00173 0.00247644)
(0.100049 0.000750995 0.00105639)
(0.0996872 0.000345516 0.000439208)
(0.0958347 0.00243289 0.00314809)
(0.0982936 0.00216159 0.0028093)
(0.0978161 0.00228247 0.00273271)
(0.0914496 0.00186952 0.00223037)
(0.0963037 0.00199803 0.00244288)
(0.0954957 0.0023034 0.00300164)
(0.0875949 0.00150549 0.00167457)
(0.0936666 0.00172708 0.00198092)
(0.0926188 0.00183898 0.00229918)
(0.084148 0.00127529 0.00143987)
(0.0909046 0.00149771 0.00171983)
(0.0897673 0.00153559 0.00189151)
(0.0811897 0.00102761 0.00126524)
(0.088435 0.00121123 0.00145458)
(0.0872331 0.00129391 0.00165565)
(0.0787067 0.000791088 0.00111018)
(0.0863074 0.00090736 0.00118356)
(0.0850102 0.00107487 0.00149086)
(0.0765689 0.000619181 0.000992308)
(0.0844872 0.000687984 0.000983288)
(0.08307 0.000907815 0.00136979)
(0.0746754 0.000507662 0.000905462)
(0.082894 0.000543669 0.000845964)
(0.081344 0.000790881 0.00127561)
(0.072968 0.000435963 0.000833555)
(0.081473 0.000447617 0.000746152)
(0.079784 0.000707853 0.0011885)
(0.0714123 0.000387171 0.000768072)
(0.0801936 0.000381295 0.000668922)
(0.0783638 0.000648168 0.00110297)
(0.0699917 0.0003498 0.000706539)
(0.079036 0.000329672 0.000605841)
(0.0770669 0.000602203 0.00101863)
(0.0686979 0.000318408 0.000650621)
(0.0779873 0.000286379 0.000554507)
(0.0758836 0.000562363 0.000935363)
(0.0675278 0.000287219 0.000603238)
(0.0770409 0.000248107 0.000515301)
(0.07481 0.000524343 0.000852576)
(0.0664892 0.000243587 0.000558712)
(0.0762004 0.000206681 0.000490336)
(0.0738494 0.000480514 0.00076948)
(0.06562 0.000175566 0.000503196)
(0.0754811 0.000143302 0.000475295)
(0.0730262 0.00041733 0.000675277)
(0.0650033 2.31421e-05 0.000426178)
(0.0749202 3.18336e-05 0.00045087)
(0.0724017 0.000327588 0.000555937)
(0.0649374 -0.000255535 0.000322091)
(0.0745986 -0.000244807 0.000378061)
(0.0720771 0.000109983 0.000349591)
(0.0660635 -0.000835644 2.19035e-05)
(0.0747322 -0.00086437 0.000151444)
(0.0723626 -0.000263348 -9.89248e-05)
(0.0735682 -0.00304598 -0.000988983)
(0.0710508 -0.00129582 -0.00151782)
(0.10008 0.00135181 0.0013519)
(0.100186 0.000798767 0.000805041)
(0.100186 0.000805001 0.000798804)
(0.100264 0.00221739 0.00221765)
(0.100189 0.00231191 0.00207184)
(0.100189 0.00207166 0.00231206)
(0.0993827 0.00243578 0.00243629)
(0.100306 0.00263379 0.00245377)
(0.100306 0.00245334 0.0026341)
(0.0979839 0.00231004 0.00231085)
(0.0998048 0.00256025 0.00245675)
(0.099805 0.00245602 0.00256082)
(0.096495 0.00200552 0.00200692)
(0.0988625 0.00236383 0.00228174)
(0.0988629 0.00228065 0.00236473)
(0.0950736 0.00159541 0.00159783)
(0.0978407 0.00204746 0.00196866)
(0.0978415 0.00196691 0.00204911)
(0.0937785 0.00122333 0.0012274)
(0.0968621 0.00168802 0.00160454)
(0.0968634 0.00160174 0.00169076)
(0.0926245 0.000957133 0.000964055)
(0.0959619 0.00139899 0.00132048)
(0.0959641 0.00131568 0.00140353)
(0.0916054 0.00077006 0.000781817)
(0.0951531 0.00118288 0.00111634)
(0.0951569 0.00110816 0.00119077)
(0.0907069 0.000634572 0.000654397)
(0.0944337 0.00101798 0.000968474)
(0.0944403 0.00095475 0.00103142)
(0.089913 0.000530547 0.000564647)
(0.0938003 0.000887443 0.000860697)
(0.0938113 0.000837606 0.000909727)
(0.0892086 0.000445205 0.000502143)
(0.0932426 0.000777629 0.000782282)
(0.0932612 0.000742874 0.000814661)
(0.0885834 0.000370546 0.000460854)
(0.0927503 0.000679927 0.000726614)
(0.0927803 0.000661772 0.000739172)
(0.0880381 0.000298442 0.000438886)
(0.0923166 0.000584276 0.000689426)
(0.0923641 0.000585274 0.000677536)
(0.0875773 0.000215822 0.000441514)
(0.0919448 0.000480704 0.000671034)
(0.0920194 0.000504127 0.000627491)
(0.0871999 9.12145e-05 0.000461273)
(0.0916344 0.000355667 0.000681599)
(0.0917502 0.000404701 0.000592267)
(0.08692 -0.000145466 0.000452436)
(0.0913747 0.000176132 0.000711995)
(0.0915504 0.00025299 0.000552762)
(0.0867068 -0.000597585 0.000334239)
(0.0911655 -0.000115734 0.000727326)
(0.0914227 -2.31052e-05 0.000459336)
(0.0862632 -0.00157152 -0.000210826)
(0.090958 -0.000536288 0.000688328)
(0.0913067 -0.000493303 0.000267267)
(0.0909388 -0.00119503 0.000371112)
(0.0912818 -0.00141228 -0.000222541)
(0.100171 0.00136873 0.00141674)
(0.100118 0.000577413 0.000811458)
(0.100102 0.000699818 0.000700847)
(0.100758 0.00219499 0.00214975)
(0.100478 0.00158289 0.00185924)
(0.100477 0.0018227 0.00186515)
(0.100996 0.0024769 0.00238885)
(0.101004 0.00205878 0.0022433)
(0.101024 0.00234697 0.00238373)
(0.100837 0.00247579 0.00239001)
(0.101292 0.00220335 0.00235299)
(0.101338 0.00250593 0.0025446)
(0.100457 0.00231023 0.00222525)
(0.101308 0.0021668 0.00232248)
(0.101409 0.00244993 0.00247305)
(0.099967 0.0020537 0.00196742)
(0.101156 0.00200916 0.0021776)
(0.101302 0.00226279 0.00227053)
(0.0994429 0.00178527 0.00169698)
(0.100926 0.00179025 0.00196479)
(0.101098 0.00200511 0.00199734)
(0.0989335 0.00155481 0.00147693)
(0.100664 0.00157757 0.00175802)
(0.100855 0.00176252 0.00175379)
(0.0984648 0.00136461 0.00130935)
(0.100408 0.00138679 0.00157654)
(0.100606 0.00155607 0.00155571)
(0.0980478 0.00120376 0.00118135)
(0.100171 0.00121631 0.00142374)
(0.100377 0.00138073 0.00139587)
(0.0976825 0.00106457 0.00108428)
(0.099962 0.00106836 0.00130606)
(0.100179 0.0012299 0.00126704)
(0.0973647 0.000940009 0.00101214)
(0.0997799 0.000939394 0.00121672)
(0.100012 0.001097 0.00116335)
(0.09709 0.000822075 0.000960975)
(0.0996209 0.000821795 0.00114922)
(0.0998778 0.00097554 0.00108067)
(0.0968524 0.000700412 0.000929262)
(0.0994812 0.0007098 0.00110134)
(0.0997724 0.000857472 0.00101629)
(0.096646 0.000564056 0.000921984)
(0.0993549 0.000594749 0.00107532)
(0.0996933 0.000733137 0.000969942)
(0.0964664 0.000396999 0.000948249)
(0.0992341 0.000466829 0.00108203)
(0.0996382 0.000592078 0.000946568)
(0.0963097 0.000173939 0.00101101)
(0.0991081 0.000309475 0.00113417)
(0.0996013 0.000416364 0.000945595)
(0.0961582 -0.000129941 0.00110509)
(0.0989676 0.000102307 0.00124325)
(0.0995719 0.000182107 0.000957766)
(0.0959583 -0.000487202 0.00125849)
(0.0988116 -0.000157819 0.00140893)
(0.0995442 -0.00012315 0.000972451)
(0.0989185 -0.00040411 0.00165264)
(0.0997071 -0.00042994 0.00104447)
(0.100242 0.000820192 0.00125643)
(0.10009 0.000294373 0.000735531)
(0.100071 0.000415723 0.000602976)
(0.100828 0.00139058 0.00193988)
(0.100491 0.000792072 0.00168449)
(0.100492 0.00112453 0.00158748)
(0.101392 0.00166347 0.00218299)
(0.101086 0.00107784 0.00208402)
(0.101128 0.00154096 0.00209479)
(0.101815 0.00176087 0.00226147)
(0.101663 0.00120446 0.00217963)
(0.101767 0.0017328 0.00229486)
(0.102079 0.00175429 0.00226064)
(0.102121 0.00123965 0.00222171)
(0.102291 0.00178957 0.00236683)
(0.102214 0.00166556 0.00217241)
(0.10245 0.00120133 0.00220734)
(0.102711 0.00174255 0.00231929)
(0.102265 0.00152878 0.00203261)
(0.102678 0.00111657 0.00211917)
(0.103036 0.00162313 0.0021959)
(0.102276 0.00137503 0.00186974)
(0.10284 0.00101406 0.00199168)
(0.103285 0.00147385 0.00203744)
(0.102272 0.00122091 0.00170597)
(0.102964 0.000912803 0.00184684)
(0.103488 0.00131971 0.00187026)
(0.102264 0.00107811 0.00156547)
(0.103065 0.000817907 0.00170845)
(0.103661 0.00117312 0.00171503)
(0.102255 0.000952599 0.00145712)
(0.103154 0.000731323 0.00159125)
(0.103813 0.00104174 0.00158578)
(0.102246 0.000840347 0.00137359)
(0.103237 0.000654139 0.00149138)
(0.103953 0.00092596 0.00147932)
(0.102234 0.000736091 0.00131006)
(0.103313 0.000583887 0.00140897)
(0.104082 0.000819531 0.00139168)
(0.102215 0.000637046 0.00126841)
(0.103376 0.000521073 0.00134737)
(0.104201 0.000719812 0.00132258)
(0.102181 0.000538333 0.00125734)
(0.103422 0.000465494 0.00131088)
(0.104306 0.000623035 0.00127657)
(0.102119 0.000434265 0.00129235)
(0.103439 0.000417349 0.00130855)
(0.104393 0.000524346 0.00126217)
(0.102021 0.000319042 0.00139647)
(0.103417 0.000378565 0.00135371)
(0.104457 0.000417938 0.00129053)
(0.101885 0.000189499 0.001586)
(0.103354 0.000349469 0.00146674)
(0.104493 0.00029881 0.00137454)
(0.101719 8.11764e-05 0.00185226)
(0.103257 0.000331019 0.00165013)
(0.104515 0.000167105 0.00150894)
(0.103418 0.000367095 0.00187529)
(0.104727 7.19448e-05 0.00166975)
(0.100243 0.000267508 0.00116276)
(0.100087 3.65302e-08 0.000707208)
(0.100064 0.000135868 0.000537544)
(0.100782 0.000465917 0.00182679)
(0.100477 1.0602e-07 0.0016183)
(0.100463 0.000371042 0.00142465)
(0.101401 0.000575808 0.00207669)
(0.101066 1.81211e-07 0.00203527)
(0.101089 0.000525403 0.00193417)
(0.101987 0.000623401 0.00213411)
(0.101694 3.31619e-07 0.00211807)
(0.101798 0.000606228 0.00212897)
(0.102506 0.000631849 0.00216367)
(0.102269 6.14884e-07 0.00214992)
(0.10249 0.000639806 0.00221058)
(0.102933 0.000611033 0.00215198)
(0.102742 1.07878e-06 0.00217692)
(0.103119 0.000634762 0.00223876)
(0.103276 0.00057188 0.00207827)
(0.103123 1.78909e-06 0.00212616)
(0.103686 0.000601456 0.00218938)
(0.103552 0.000526193 0.00197011)
(0.103427 2.95157e-06 0.002029)
(0.104183 0.00055554 0.00209188)
(0.103783 0.000482579 0.00185124)
(0.103679 5.02984e-06 0.00190911)