/*--------------------------------*- C++ -*----------------------------------*\
| =========                 |                                                 |
| \\      /  F ield         | OpenFOAM: The Open Source CFD Toolbox           |
|  \\    /   O peration     | Version:  2212                                  |
|   \\  /    A nd           | Website:  www.openfoam.com                      |
|    \\/     M anipulation  |                                                 |
\*---------------------------------------------------------------------------*/
FoamFile
{
    version     2.0;
    format      ascii;
    arch        "LSB;label=32;scalar=64";
    class       volScalarField;
    location    "0.55";
    object      epsilon;
}
// * * * * * * * * * * * * * * * * * * * * * * * * * * * * * * * * * * * * * //

dimensions      [0 2 -3 0 0 0 0];

internalField   nonuniform List<scalar> 
680
(
0.720653
0.594642
0.502562
0.43275
0.379649
0.33653
0.300802
0.740343
0.565998
0.444099
0.3563
0.291311
0.24206
0.203924
0.649798
0.497056
0.389574
0.311444
0.253211
0.209304
0.175707
0.645403
0.492635
0.384857
0.307194
0.249286
0.205323
0.171473
0.64401
0.492302
0.384055
0.305984
0.248182
0.204292
0.170465
0.64402
0.492315
0.384073
0.30601
0.248217
0.20434
0.170532
0.645426
0.492664
0.384896
0.307251
0.249362
0.205429
0.64982
0.497083
0.389621
0.311505
0.253294
0.209418
0.74035
0.566006
0.444117
0.356327
0.291353
0.242125
0.720653
0.594642
0.502563
0.43275
0.379649
0.336531
0.74035
0.566006
0.444116
0.356327
0.291352
0.242124
0.204056
0.56207
0.415405
0.316011
0.246433
0.19638
0.159455
0.13161
0.618644
0.453985
0.342079
0.263723
0.207423
0.16607
0.135091
0.666467
0.489564
0.368629
0.283663
0.222478
0.177463
0.143724
0.69273
0.509654
0.384048
0.295559
0.231734
0.184722
0.14945
0.692736
0.509662
0.384057
0.295571
0.231749
0.184741
0.149476
0.666479
0.48958
0.368648
0.283687
0.222509
0.177503
0.618652
0.453995
0.342093
0.263741
0.207446
0.166099
0.56207
0.415405
0.316011
0.246433
0.196381
0.159456
0.740344
0.565998
0.444099
0.3563
0.291311
0.24206
0.649819
0.497083
0.389621
0.311505
0.253293
0.209418
0.175867
0.618652
0.453995
0.342093
0.26374
0.207446
0.166098
0.135128
0.725647
0.532176
0.399183
0.305599
0.238304
0.188948
0.152096
0.804594
0.594215
0.447537
0.343244
0.267687
0.211982
0.170247
0.843161
0.6257
0.472865
0.363512
0.283899
0.224978
0.180702
0.843165
0.625705
0.472872
0.36352
0.28391
0.224992
0.18072
0.804601
0.594224
0.447548
0.343258
0.267705
0.212007
0.725647
0.532177
0.399184
0.3056
0.238305
0.188951
0.618644
0.453985
0.342079
0.263723
0.207424
0.166071
0.649798
0.497056
0.389574
0.311444
0.253211
0.209304
0.645425
0.492664
0.384895
0.30725
0.249361
0.205429
0.171622
0.666479
0.489579
0.368648
0.283687
0.222509
0.177502
0.143773
0.8046
0.594224
0.447547
0.343257
0.267703
0.212003
0.170273
0.896492
0.669464
0.508136
0.391679
0.306322
0.242844
0.194982
0.938715
0.705587
0.538342
0.416606
0.326752
0.259541
0.208628
0.938716
0.705589
0.538345
0.416609
0.326755
0.259545
0.208635
0.896492
0.669465
0.508136
0.391679
0.306324
0.242848
0.804594
0.594216
0.447537
0.343244
0.267688
0.211986
0.666467
0.489564
0.368629
0.283663
0.222478
0.177464
0.645403
0.492635
0.384857
0.307194
0.249286
0.205323
0.644019
0.492315
0.384072
0.30601
0.248216
0.20434
0.170532
0.692736
0.509662
0.384057
0.295571
0.231748
0.18474
0.149474
0.843165
0.625705
0.472872
0.36352
0.283909
0.224991
0.180717
0.938716
0.705589
0.538344
0.416608
0.326754
0.259544
0.208632
0.981305
0.742924
0.57021
0.443354
0.348979
0.277913
0.223785
0.981305
0.742924
0.570211
0.443354
0.348979
0.277915
0.223787
0.938715
0.705588
0.538343
0.416607
0.326753
0.259544
0.843161
0.6257
0.472866
0.363513
0.2839
0.224982
0.69273
0.509655
0.384048
0.295559
0.231735
0.184723
0.64401
0.492302
0.384055
0.305984
0.248183
0.204292
0.64401
0.492302
0.384055
0.305984
0.248182
0.204292
0.170465
0.69273
0.509654
0.384048
0.295559
0.231734
0.184721
0.14945
0.843161
0.6257
0.472865
0.363512
0.283899
0.224978
0.180701
0.938715
0.705587
0.538342
0.416606
0.326751
0.25954
0.208628
0.981305
0.742924
0.57021
0.443354
0.348979
0.277914
0.223785
0.981305
0.742924
0.570211
0.443354
0.348979
0.277915
0.223787
0.938716
0.705589
0.538345
0.416609
0.326756
0.259548
0.843165
0.625705
0.472872
0.363521
0.283911
0.224995
0.692736
0.509662
0.384057
0.295571
0.231749
0.184742
0.64402
0.492315
0.384073
0.30601
0.248217
0.20434
0.645403
0.492635
0.384857
0.307194
0.249286
0.205323
0.171473
0.666467
0.489564
0.368629
0.283663
0.222478
0.177463
0.143724
0.804594
0.594215
0.447537
0.343244
0.267687
0.211982
0.170247
0.896492
0.669465
0.508136
0.391679
0.306323
0.242844
0.194983
0.938716
0.705589
0.538345
0.416609
0.326755
0.259545
0.208633
1.26863
0.938715
0.705588
0.538343
0.416606
0.326752
0.259542
0.208631
1.22112
0.896492
0.669465
0.508136
0.39168
0.306324
0.242848
1.11237
0.8046
0.594224
0.447548
0.343258
0.267705
0.212007
0.93355
0.666479
0.48958
0.368648
0.283687
0.22251
0.177504
0.869499
0.645426
0.492664
0.384896
0.307251
0.249362
0.205429
0.649799
0.497056
0.389574
0.311444
0.253211
0.209305
0.175707
0.618644
0.453985
0.342079
0.263723
0.207424
0.16607
0.135092
0.725647
0.532177
0.399184
0.305599
0.238304
0.188948
0.152097
0.804601
0.594224
0.447548
0.343257
0.267704
0.212004
0.170274
0.843165
0.625705
0.472872
0.36352
0.28391
0.224992
0.180719
1.15829
0.843161
0.6257
0.472866
0.363512
0.2839
0.224979
0.180704
1.11236
0.804594
0.594215
0.447537
0.343244
0.267688
0.211986
1.01411
0.725647
0.532177
0.399184
0.3056
0.238305
0.188951
0.869301
0.618652
0.453995
0.342093
0.263741
0.207446
0.166099
0.873596
0.64982
0.497084
0.389622
0.311505
0.253294
0.209418
0.740344
0.565998
0.444099
0.3563
0.291311
0.24206
0.203924
0.56207
0.415405
0.316011
0.246433
0.19638
0.159455
0.131611
0.618652
0.453995
0.342093
0.263741
0.207446
0.166098
0.135128
0.666479
0.48958
0.368648
0.283687
0.222509
0.177502
0.143774
0.692736
0.509662
0.384057
0.295571
0.231749
0.184741
0.149474
0.967833
0.69273
0.509655
0.384048
0.295559
0.231734
0.184722
0.149452
0.933539
0.666467
0.489564
0.368629
0.283663
0.222478
0.177464
0.869294
0.618644
0.453985
0.342079
0.263723
0.207424
0.166071
0.786941
0.56207
0.415405
0.316011
0.246434
0.196381
0.159456
0.998679
0.74035
0.566007
0.444117
0.356327
0.291353
0.242125
0.720653
0.594642
0.502563
0.43275
0.379649
0.33653
0.300804
0.74035
0.566006
0.444116
0.356327
0.291352
0.242125
0.204057
0.64982
0.497083
0.389621
0.311505
0.253294
0.209418
0.175868
0.645426
0.492664
0.384896
0.307251
0.249362
0.205429
0.171623
0.64402
0.492315
0.384073
0.30601
0.248217
0.20434
0.170533
0.866511
0.64401
0.492302
0.384055
0.305984
0.248183
0.204293
0.170465
0.869482
0.645403
0.492635
0.384857
0.307195
0.249286
0.205323
0.87358
0.649799
0.497056
0.389574
0.311444
0.253211
0.209304
0.998674
0.740344
0.565999
0.4441
0.356301
0.291312
0.24206
0.90203
0.720653
0.594642
0.502563
0.43275
0.379649
0.336531
)
;

boundaryField
{
    inlet
    {
        type            fixedValue;
        value           nonuniform List<scalar> 0();
    }
    ami1
    {
        type            cyclicAMI;
        value           nonuniform List<scalar> 0();
    }
    walls
    {
        type            epsilonWallFunction;
        blending        stepwise;
        value           nonuniform List<scalar> 
271
(
0.869499
0.873596
0.998679
0.90203
0.720653
0.740344
0.649798
0.645403
0.64401
0.64402
0.645426
0.64982
0.74035
0.720653
0.594642
0.565998
0.497056
0.492635
0.492302
0.492315
0.492664
0.497084
0.566007
0.594642
0.502563
0.444099
0.389574
0.384857
0.384055
0.384073
0.384896
0.389622
0.444117
0.502563
0.43275
0.3563
0.311444
0.307194
0.305984
0.30601
0.307251
0.311505
0.356327
0.43275
0.379649
0.291311
0.253211
0.249286
0.248183
0.248217
0.249362
0.253294
0.291353
0.379649
0.336531
0.24206
0.209304
0.205323
0.204292
0.20434
0.205429
0.209418
0.242125
0.336531
0.720653
0.740343
0.649798
0.645403
0.64401
0.64402
0.645426
0.64982
0.74035
0.720653
0.594642
0.565998
0.497056
0.492635
0.492302
0.492315
0.492664
0.497083
0.566006
0.594642
0.502562
0.444099
0.389574
0.384857
0.384055
0.384073
0.384896
0.389621
0.444117
0.502563
0.43275
0.3563
0.311444
0.307194
0.305984
0.30601
0.307251
0.311505
0.356327
0.43275
0.379649
0.291311
0.253211
0.249286
0.248182
0.248217
0.249362
0.253294
0.291353
0.379649
0.33653
0.24206
0.209304
0.205323
0.204292
0.20434
0.205429
0.209418
0.242125
0.336531
0.300802
0.203924
0.175707
0.171473
0.170465
0.170532
0.720653
0.74035
0.649819
0.645425
0.644019
0.64401
0.645403
0.649799
0.740344
0.720653
0.594642
0.566006
0.497083
0.492664
0.492315
0.492302
0.492635
0.497056
0.565998
0.594642
0.502562
0.444116
0.389621
0.384895
0.384072
0.384055
0.384857
0.389574
0.444099
0.502563
0.43275
0.356327
0.311505
0.30725
0.30601
0.305984
0.307194
0.311444
0.3563
0.43275
0.379649
0.291352
0.253293
0.249361
0.248216
0.248182
0.249286
0.253211
0.291311
0.379649
0.33653
0.242124
0.209418
0.205429
0.20434
0.204292
0.205323
0.209305
0.24206
0.33653
0.300802
0.204056
0.175867
0.171622
0.170532
0.170465
0.171473
0.175707
0.203924
0.300804
0.866511
0.869482
0.87358
0.998674
0.90203
0.720653
0.74035
0.64982
0.645426
0.64402
0.64401
0.645403
0.649799
0.740344
0.720653
0.594642
0.566006
0.497083
0.492664
0.492315
0.492302
0.492635
0.497056
0.565999
0.594642
0.502563
0.444116
0.389621
0.384896
0.384073
0.384055
0.384857
0.389574
0.4441
0.502563
0.43275
0.356327
0.311505
0.307251
0.30601
0.305984
0.307195
0.311444
0.356301
0.43275
0.379649
0.291352
0.253294
0.249362
0.248217
0.248183
0.249286
0.253211
0.291312
0.379649
0.33653
0.242125
0.209418
0.205429
0.20434
0.204293
0.205323
0.209304
0.24206
0.336531
0.300804
0.204057
0.175868
0.171623
0.170533
0.170465
)
;
    }
    ami2
    {
        type            cyclicAMI;
        value           nonuniform List<scalar> 0();
    }
    outlet
    {
        type            zeroGradient;
    }
    procBoundary3to2
    {
        type            processor;
        value           nonuniform List<scalar> 
110
(
0.27163
0.174274
0.149557
0.145062
0.144044
0.144141
0.171623
0.171623
0.175867
0.204055
0.300803
0.174463
0.110294
0.111471
0.118021
0.122555
0.122587
0.143775
0.143775
0.13513
0.131611
0.203922
0.149793
0.111517
0.12413
0.138509
0.146955
0.146977
0.170277
0.170277
0.152099
0.135093
0.175706
0.145277
0.118082
0.138542
0.158422
0.169595
0.169602
0.194985
0.194985
0.170249
0.143726
0.171472
0.144141
0.122585
0.146975
0.1696
0.182102
0.182103
0.20863
0.20863
0.180703
0.149452
0.170464
0.144044
0.122554
0.146954
0.169595
0.182102
0.182103
0.208635
0.208635
0.18072
0.149476
0.170532
0.145062
0.118021
0.138509
0.158423
0.169601
0.169597
0.194985
0.194985
0.170276
0.143776
0.171622
0.149557
0.111471
0.124131
0.138543
0.146976
0.146957
0.170251
0.170251
0.152099
0.13513
0.175866
0.174274
0.110295
0.111518
0.118083
0.122586
0.122557
0.143726
0.143726
0.135093
0.131611
0.204055
0.271631
0.174464
0.149794
0.145278
0.144141
0.144043
0.171473
0.171473
0.175706
0.203923
0.300803
)
;
    }
    procBoundary3to4
    {
        type            processor;
        value           nonuniform List<scalar> 
109
(
0.90203
0.998674
0.87358
0.869481
0.86651
0.866518
0.869499
0.873596
0.998679
0.90203
0.998679
0.786941
0.869294
0.933539
0.967833
0.967838
0.93355
0.869301
0.786941
0.998674
0.873596
0.869301
1.01411
1.11236
1.15829
1.15829
1.11237
1.01411
0.869294
0.87358
0.869498
0.93355
1.11237
1.22112
1.26863
1.26863
1.22112
1.11236
0.933539
0.869481
0.866518
0.967838
1.15829
1.26863
1.31522
1.31522
1.26863
1.15829
0.967833
0.86651
0.86651
0.967833
1.15829
1.26863
1.31522
1.31522
1.31522
1.26863
1.26863
1.15829
1.15829
0.967838
0.967838
0.866518
0.866518
0.869481
0.933539
1.11236
1.22112
1.26863
1.26863
1.74299
1.6928
1.57143
1.35121
1.22751
0.87358
0.869294
1.01411
1.11237
1.15829
1.15829
1.62326
1.57142
1.455
1.2661
1.227
0.998674
0.786941
0.869301
0.93355
0.967838
0.967838
1.39506
1.3512
1.26609
1.1476
1.40268
0.90203
0.998679
0.873596
0.869499
0.866518
0.866518
1.22669
1.2275
1.22699
1.40268
1.18306
)
;
    }
}


// ************************************************************************* //
