/*--------------------------------*- C++ -*----------------------------------*\
| =========                 |                                                 |
| \\      /  F ield         | OpenFOAM: The Open Source CFD Toolbox           |
|  \\    /   O peration     | Version:  2212                                  |
|   \\  /    A nd           | Website:  www.openfoam.com                      |
|    \\/     M anipulation  |                                                 |
\*---------------------------------------------------------------------------*/
FoamFile
{
    version     2.0;
    format      ascii;
    arch        "LSB;label=32;scalar=64";
    class       volScalarField;
    location    "0.55";
    object      p;
}
// * * * * * * * * * * * * * * * * * * * * * * * * * * * * * * * * * * * * * //

dimensions      [0 2 -2 0 0 0 0];

internalField   nonuniform List<scalar> 
680
(
0.00724943
0.00708819
0.00692857
0.00677038
0.00661353
0.00645695
0.00629907
0.0072977
0.00712331
0.00695598
0.00679309
0.00663298
0.0064742
0.00631605
0.00728847
0.00711023
0.00694204
0.00677914
0.00661936
0.00646236
0.00630823
0.00725284
0.0070853
0.00692834
0.00677347
0.00661949
0.00646758
0.00631922
0.00723449
0.00706394
0.00690756
0.00675825
0.00660937
0.00646061
0.00631462
0.00723415
0.00706336
0.0069066
0.00675663
0.00660664
0.00645597
0.00630678
0.00725204
0.00708395
0.0069261
0.00676975
0.00661338
0.00645758
0.00728769
0.00710895
0.00693991
0.00677558
0.00661355
0.00645298
0.00729732
0.00712267
0.00695489
0.00679132
0.00663009
0.00646936
0.00724942
0.00708818
0.00692856
0.00677038
0.00661353
0.00645695
0.00729733
0.00712268
0.0069549
0.00679133
0.0066301
0.00646936
0.0063077
0.00742793
0.00722311
0.00703429
0.00685576
0.00668369
0.00651488
0.00634717
0.00742441
0.00721183
0.00701722
0.00683378
0.00665818
0.00648846
0.00632293
0.00738996
0.00718716
0.007001
0.0068247
0.0066552
0.00649106
0.00633173
0.00736782
0.00716732
0.00698044
0.00680475
0.00663713
0.00647632
0.00632164
0.00736733
0.00716658
0.0069792
0.00680266
0.00663361
0.00647059
0.00631244
0.00738912
0.00718573
0.00699848
0.00682029
0.00664804
0.00648029
0.00742378
0.00721073
0.00701544
0.00683103
0.00665397
0.00648194
0.00742791
0.00722309
0.00703428
0.00685574
0.00668368
0.00651486
0.00729768
0.0071233
0.00695597
0.00679308
0.00663297
0.00647419
0.0072877
0.00710896
0.00693992
0.0067756
0.00661356
0.006453
0.00629307
0.0074238
0.00721075
0.00701546
0.00683105
0.006654
0.00648197
0.00631271
0.00740196
0.00718382
0.00698317
0.00679496
0.00661603
0.0064437
0.00627582
0.00734577
0.00714472
0.00695246
0.00677016
0.00659604
0.00642815
0.00626533
0.00730475
0.00711875
0.00693559
0.00675687
0.0065837
0.00641654
0.00625495
0.00730436
0.00711817
0.00693468
0.00675546
0.00658161
0.00641356
0.00625053
0.00734524
0.00714391
0.00695116
0.00676805
0.00659275
0.00642323
0.00740195
0.0071838
0.00698315
0.00679494
0.006616
0.00644367
0.0074244
0.00721181
0.00701721
0.00683377
0.00665817
0.00648844
0.00728845
0.00711022
0.00694203
0.00677913
0.00661935
0.00646236
0.00725206
0.00708396
0.00692612
0.00676977
0.00661341
0.00645761
0.00630281
0.00738913
0.00718575
0.0069985
0.00682032
0.00664807
0.00648033
0.00631565
0.00734526
0.00714393
0.00695118
0.00676808
0.00659278
0.00642327
0.00625799
0.0072684
0.00708436
0.00690393
0.00672873
0.00655862
0.006393
0.00623129
0.00722754
0.00705339
0.00687989
0.00670891
0.00654136
0.00637754
0.00621742
0.00722738
0.00705318
0.0068796
0.0067085
0.00654079
0.00637677
0.00621631
0.00726839
0.00708435
0.00690392
0.00672872
0.00655861
0.00639298
0.00734575
0.00714471
0.00695245
0.00677015
0.00659602
0.00642813
0.00738995
0.00718715
0.00700099
0.00682468
0.00665519
0.00649104
0.00725283
0.00708529
0.00692834
0.00677346
0.00661948
0.00646758
0.00723417
0.00706338
0.00690662
0.00675665
0.00660667
0.006456
0.00630681
0.00736734
0.00716659
0.00697922
0.00680268
0.00663364
0.00647062
0.00631247
0.00730437
0.00711818
0.00693469
0.00675547
0.00658163
0.00641359
0.00625055
0.00722739
0.00705318
0.0068796
0.00670851
0.0065408
0.00637678
0.00621632
0.0071886
0.00702214
0.00685391
0.00668628
0.0065207
0.00635792
0.00619819
0.0071886
0.00702214
0.00685391
0.00668628
0.0065207
0.00635791
0.00619819
0.00722753
0.00705338
0.00687988
0.00670891
0.00654135
0.00637753
0.00730474
0.00711874
0.00693558
0.00675686
0.00658369
0.00641653
0.00736781
0.00716731
0.00698043
0.00680475
0.00663712
0.00647631
0.00723449
0.00706394
0.00690756
0.00675825
0.00660937
0.00646061
0.00723451
0.00706396
0.00690758
0.00675826
0.00660938
0.00646062
0.00631463
0.00736783
0.00716733
0.00698045
0.00680477
0.00663714
0.00647633
0.00632165
0.00730475
0.00711876
0.0069356
0.00675688
0.00658371
0.00641654
0.00625496
0.00722754
0.00705339
0.00687989
0.00670891
0.00654136
0.00637754
0.00621741
0.0071886
0.00702214
0.0068539
0.00668628
0.0065207
0.00635791
0.00619819
0.00718859
0.00702213
0.0068539
0.00668628
0.00652069
0.00635791
0.00619819
0.00722738
0.00705317
0.00687959
0.00670849
0.00654078
0.00637676
0.00730435
0.00711816
0.00693467
0.00675545
0.00658161
0.00641356
0.00736732
0.00716657
0.0069792
0.00680266
0.00663361
0.00647059
0.00723415
0.00706336
0.00690659
0.00675663
0.00660664
0.00645597
0.00725285
0.00708531
0.00692835
0.00677347
0.00661949
0.00646758
0.00631921
0.00738996
0.00718716
0.007001
0.00682469
0.00665519
0.00649105
0.00633171
0.00734576
0.00714471
0.00695245
0.00677015
0.00659602
0.00642814
0.00626531
0.00726839
0.00708434
0.00690391
0.00672872
0.00655861
0.00639298
0.00623127
0.00722737
0.00705316
0.00687959
0.00670849
0.00654078
0.00637676
0.0062163
0.00739899
0.00722752
0.00705337
0.00687988
0.0067089
0.00654134
0.00637753
0.0062174
0.00745292
0.00726838
0.00708434
0.00690391
0.00672871
0.0065586
0.00639298
0.00755228
0.00734523
0.0071439
0.00695116
0.00676805
0.00659275
0.00642323
0.00761568
0.00738911
0.00718573
0.00699847
0.00682029
0.00664804
0.00648029
0.007441
0.00725203
0.00708394
0.00692609
0.00676975
0.00661338
0.00645758
0.00728847
0.00711023
0.00694204
0.00677913
0.00661935
0.00646235
0.00630821
0.0074244
0.00721182
0.00701721
0.00683376
0.00665816
0.00648843
0.0063229
0.00740194
0.0071838
0.00698314
0.00679494
0.006616
0.00644366
0.00627577
0.00734522
0.0071439
0.00695115
0.00676804
0.00659275
0.00642323
0.00625795
0.00730434
0.00711815
0.00693466
0.00675544
0.0065816
0.00641355
0.00625052
0.00749269
0.00730473
0.00711873
0.00693557
0.00675685
0.00658368
0.00641652
0.00625493
0.00755262
0.00734574
0.00714469
0.00695243
0.00677014
0.00659601
0.00642812
0.00764371
0.00740194
0.00718379
0.00698314
0.00679493
0.00661599
0.00644366
0.00766449
0.00742377
0.00721073
0.00701544
0.00683102
0.00665396
0.00648193
0.0074808
0.00728768
0.00710894
0.0069399
0.00677557
0.00661354
0.00645297
0.00729769
0.0071233
0.00695597
0.00679308
0.00663296
0.00647418
0.00631602
0.00742791
0.00722309
0.00703427
0.00685573
0.00668366
0.00651485
0.00634712
0.00742376
0.00721072
0.00701543
0.00683102
0.00665396
0.00648193
0.00631266
0.00738909
0.00718571
0.00699846
0.00682028
0.00664803
0.00648028
0.0063156
0.0073673
0.00716655
0.00697918
0.00680264
0.0066336
0.00647058
0.00631242
0.00758077
0.00736779
0.00716729
0.00698042
0.00680473
0.00663711
0.00647629
0.00632162
0.00761618
0.00738993
0.00718713
0.00700098
0.00682467
0.00665517
0.00649103
0.00766483
0.00742439
0.0072118
0.00701719
0.00683375
0.00665815
0.00648842
0.00765571
0.0074279
0.00722309
0.00703427
0.00685573
0.00668366
0.00651485
0.00748367
0.00729731
0.00712266
0.00695488
0.00679131
0.00663008
0.00646934
0.00724941
0.00708817
0.00692855
0.00677036
0.00661351
0.00645693
0.00629904
0.0072973
0.00712265
0.00695487
0.0067913
0.00663007
0.00646933
0.00630766
0.00728766
0.00710893
0.00693989
0.00677556
0.00661353
0.00645296
0.00629302
0.00725201
0.00708392
0.00692608
0.00676973
0.00661337
0.00645757
0.00630276
0.00723413
0.00706334
0.00690658
0.00675661
0.00660663
0.00645596
0.00630677
0.00742495
0.00723447
0.00706392
0.00690754
0.00675823
0.00660935
0.00646059
0.00631461
0.00744143
0.00725282
0.00708528
0.00692832
0.00677345
0.00661947
0.00646756
0.00748125
0.00728845
0.00711021
0.00694202
0.00677912
0.00661933
0.00646234
0.00748388
0.00729768
0.00712329
0.00695596
0.00679307
0.00663296
0.00647418
0.00741589
0.00724942
0.00708818
0.00692855
0.00677037
0.00661351
0.00645694
)
;

boundaryField
{
    inlet
    {
        type            zeroGradient;
    }
    ami1
    {
        type            cyclicAMI;
        value           nonuniform List<scalar> 0();
    }
    walls
    {
        type            zeroGradient;
    }
    ami2
    {
        type            cyclicAMI;
        value           nonuniform List<scalar> 0();
    }
    outlet
    {
        type            fixedValue;
        value           nonuniform List<scalar> 0();
    }
    procBoundary3to2
    {
        type            processor;
        value           nonuniform List<scalar> 
110
(
0.00613919
0.00615849
0.00615682
0.00617631
0.00617433
0.00616106
0.00630277
0.00630277
0.00629304
0.00630769
0.00629906
0.0061444
0.00617924
0.00616004
0.0061777
0.00617263
0.0061583
0.00631561
0.00631561
0.00631267
0.00634714
0.00631603
0.00613218
0.0061441
0.00611091
0.00610701
0.00609899
0.0060922
0.00625796
0.00625796
0.00627578
0.0063229
0.00630822
0.00614892
0.00615273
0.00609586
0.00607296
0.00606085
0.00605918
0.00623127
0.00623127
0.00626531
0.00633171
0.00631921
0.0061611
0.00615833
0.00609222
0.00605919
0.00604148
0.00604148
0.00621741
0.00621741
0.00625494
0.00632163
0.00631462
0.00617434
0.00617264
0.00609899
0.00606085
0.00604148
0.00604148
0.0062163
0.0062163
0.00625053
0.00631244
0.00630678
0.0061763
0.00617767
0.00610698
0.00607293
0.00605917
0.00606084
0.00623126
0.00623126
0.00625796
0.00631561
0.00630277
0.00615679
0.00616
0.00611086
0.00609581
0.00609218
0.00609897
0.0062653
0.0062653
0.00627577
0.00631266
0.00629303
0.00615845
0.00617918
0.00614403
0.00615267
0.00615828
0.0061726
0.0063317
0.0063317
0.00632289
0.00634712
0.00630767
0.00613915
0.00614436
0.00613212
0.00614887
0.00616105
0.00617431
0.00631919
0.00631919
0.0063082
0.00631602
0.00629905
)
;
    }
    procBoundary3to4
    {
        type            processor;
        value           nonuniform List<scalar> 
109
(
0.00741591
0.0074839
0.00748127
0.00744146
0.00742497
0.00742477
0.007441
0.00748081
0.00748368
0.0074159
0.00748369
0.00765573
0.00766485
0.00761621
0.0075808
0.00758047
0.00761568
0.00766449
0.00765572
0.00748388
0.00748082
0.00766451
0.00764374
0.00755264
0.00749271
0.00749243
0.00755229
0.00764372
0.00766484
0.00748126
0.00744102
0.0076157
0.0075523
0.00745294
0.007399
0.00739889
0.00745293
0.00755263
0.0076162
0.00744145
0.00742479
0.00758049
0.00749244
0.0073989
0.00734958
0.00734958
0.00739899
0.0074927
0.00758079
0.00742496
0.00742498
0.00758081
0.00749272
0.007399
0.00734958
0.00734957
0.00734957
0.00739888
0.00739888
0.00749242
0.00749242
0.00758047
0.00758047
0.00742477
0.00742477
0.00744146
0.00761621
0.00755264
0.00745293
0.00739888
0.00739888
0.00756192
0.00763318
0.00776303
0.0078668
0.00766067
0.00748127
0.00766485
0.00764372
0.00755227
0.00749241
0.00749241
0.00767897
0.00776329
0.0079022
0.00794317
0.00769656
0.00748389
0.00765571
0.00766448
0.00761566
0.00758045
0.00758045
0.00780349
0.00786712
0.00794337
0.00791467
0.00769491
0.00741589
0.00748366
0.00748078
0.00744098
0.00742475
0.00742475
0.00764635
0.00766091
0.00769682
0.00769503
0.00760256
)
;
    }
}


// ************************************************************************* //
