/*--------------------------------*- C++ -*----------------------------------*\
| =========                 |                                                 |
| \\      /  F ield         | OpenFOAM: The Open Source CFD Toolbox           |
|  \\    /   O peration     | Version:  2212                                  |
|   \\  /    A nd           | Website:  www.openfoam.com                      |
|    \\/     M anipulation  |                                                 |
\*---------------------------------------------------------------------------*/
FoamFile
{
    version     2.0;
    format      ascii;
    arch        "LSB;label=32;scalar=64";
    class       volScalarField;
    location    "0.8";
    object      epsilon;
}
// * * * * * * * * * * * * * * * * * * * * * * * * * * * * * * * * * * * * * //

dimensions      [0 2 -3 0 0 0 0];

internalField   nonuniform List<scalar> 
6840
(
90.5034
12.1248
4.3887
2.46659
1.63316
1.18308
0.90202
0.720676
0.594606
0.502528
0.432715
0.37934
0.336399
0.300036
0.270455
0.24656
0.227176
0.211945
0.203046
0.19552
58.5856
14.5696
6.08947
3.33296
2.08218
1.40267
0.998658
0.740293
0.565914
0.443938
0.356039
0.290953
0.241451
0.203041
0.173176
0.149946
0.131563
0.116999
0.106109
0.0992207
45.0226
13.4729
5.73075
3.07323
1.86023
1.22699
0.873576
0.649779
0.497013
0.389478
0.311289
0.252977
0.208982
0.175222
0.148837
0.12792
0.111188
0.0976936
0.0868033
0.0783654
38.7028
13.0541
5.74336
3.08733
1.88066
1.2275
0.869474
0.645379
0.492586
0.384772
0.307012
0.249029
0.204957
0.170959
0.14436
0.123273
0.106346
0.0925957
0.0813756
0.073065
36.0571
12.8529
5.76645
3.10211
1.89475
1.22669
0.866497
0.643979
0.492245
0.383958
0.305788
0.247909
0.203906
0.169928
0.143305
0.122159
0.105136
0.091254
0.0798615
0.0711957
36.0571
12.8529
5.76645
3.10211
1.89475
1.22669
0.866498
0.643981
0.492248
0.383962
0.305794
0.247918
0.20392
0.169947
0.143335
0.122202
0.1052
0.0913478
0.080003
0.0714587
38.7028
13.0541
5.74336
3.08733
1.88066
1.2275
0.869477
0.645384
0.492592
0.384781
0.307027
0.249049
0.204985
0.170999
0.144419
0.123361
0.106475
0.092791
0.0816556
0.0734079
45.0226
13.4729
5.73075
3.07323
1.86023
1.227
0.873579
0.649783
0.497019
0.389491
0.311305
0.252999
0.209012
0.175263
0.148899
0.128011
0.111324
0.0979028
0.0871526
0.0790443
58.5856
14.5696
6.08947
3.33296
2.08218
1.40267
0.998659
0.740295
0.565915
0.443943
0.356046
0.290965
0.241469
0.203079
0.173226
0.150017
0.131675
0.117188
0.106467
0.0996228
90.5034
12.1248
4.3887
2.46659
1.63316
1.18308
0.90202
0.720676
0.594606
0.502528
0.432715
0.37934
0.3364
0.300037
0.270456
0.246561
0.227178
0.211947
0.20305
0.195524
58.5856
14.5696
6.08947
3.33296
2.08218
1.40267
0.998659
0.740294
0.565915
0.443943
0.356046
0.290965
0.241469
0.203079
0.173226
0.150016
0.131674
0.117187
0.106466
0.0996214
16.5373
9.49239
5.01271
2.8606
1.75746
1.1476
0.786936
0.562055
0.415374
0.315956
0.246343
0.196237
0.159239
0.131275
0.109808
0.0932454
0.080209
0.0696933
0.0607404
0.0566631
13.6679
8.73671
5.07741
3.05388
1.92224
1.2661
0.869293
0.618635
0.453966
0.342042
0.26366
0.207324
0.165918
0.134866
0.111164
0.0927089
0.0781899
0.0666457
0.0571659
0.0500201
12.9054
8.33993
5.07879
3.15547
2.02775
1.3512
0.933538
0.666459
0.489547
0.368597
0.283607
0.22239
0.177331
0.143531
0.117745
0.0977678
0.0820788
0.0696084
0.0595785
0.0513559
12.6882
8.1544
5.07113
3.20038
2.07939
1.39506
0.967829
0.692719
0.509634
0.384012
0.295498
0.23164
0.184583
0.149249
0.122273
0.101366
0.0849451
0.0718914
0.0614049
0.0529559
12.6882
8.1544
5.07113
3.20038
2.07939
1.39506
0.96783
0.69272
0.509635
0.384014
0.295501
0.231644
0.184587
0.149256
0.122283
0.101378
0.0849603
0.0719121
0.0614344
0.0530003
12.9054
8.33993
5.07879
3.15547
2.02775
1.35121
0.93354
0.666462
0.48955
0.368601
0.283612
0.222397
0.177341
0.143545
0.117763
0.0977911
0.08211
0.0696512
0.0596372
0.0514234
13.6679
8.73671
5.07741
3.05388
1.92224
1.2661
0.869294
0.618637
0.453968
0.342045
0.263665
0.20733
0.165926
0.134877
0.111178
0.0927279
0.0782156
0.0666816
0.0572202
0.050051
16.5373
9.49239
5.01271
2.8606
1.75746
1.1476
0.786936
0.562055
0.415374
0.315956
0.246343
0.196237
0.159239
0.131276
0.109808
0.0932454
0.080209
0.0696932
0.0607406
0.0566634
58.5856
14.5696
6.08947
3.33296
2.08218
1.40267
0.998658
0.740293
0.565914
0.443938
0.356039
0.290954
0.241452
0.203041
0.173176
0.149946
0.131564
0.117
0.10611
0.0992223
45.0226
13.4729
5.73075
3.07323
1.86023
1.227
0.873579
0.649783
0.497019
0.389491
0.311305
0.252998
0.209012
0.175263
0.148898
0.128011
0.111324
0.0979024
0.087152
0.0790441
13.6679
8.73671
5.07741
3.05388
1.92224
1.2661
0.869294
0.618637
0.453968
0.342045
0.263664
0.20733
0.165926
0.134876
0.111179
0.0927284
0.0782159
0.0666818
0.0572207
0.0500506
11.8601
7.76395
4.99734
3.24076
2.1442
1.45499
1.01411
0.72564
0.532162
0.399157
0.305556
0.238234
0.18884
0.151934
0.123898
0.102269
0.0853584
0.0719729
0.0612405
0.0526493
11.6229
7.60535
5.0103
3.34209
2.26848
1.57142
1.11236
0.804589
0.594206
0.44752
0.343214
0.267637
0.211904
0.170125
0.13833
0.113792
0.0946094
0.0794377
0.0673084
0.057537
11.5726
7.56718
5.02065
3.38344
2.32103
1.62326
1.15828
0.843153
0.625688
0.472846
0.36348
0.283848
0.224899
0.180581
0.146781
0.120654
0.10021
0.0840295
0.0710905
0.060638
11.5726
7.56718
5.02065
3.38344
2.32103
1.62326
1.15828
0.843154
0.625689
0.472847
0.363481
0.28385
0.224902
0.180586
0.146786
0.120661
0.100218
0.0840393
0.0711035
0.0606561
11.6229
7.60535
5.0103
3.34209
2.26848
1.57142
1.11236
0.804591
0.594208
0.447522
0.343216
0.267641
0.211909
0.170132
0.138338
0.113802
0.094622
0.0794538
0.0673293
0.0575682
11.8601
7.76395
4.99734
3.24076
2.1442
1.45499
1.01411
0.72564
0.532162
0.399157
0.305556
0.238234
0.18884
0.151934
0.123898
0.102269
0.0853581
0.0719725
0.0612401
0.0526489
13.6679
8.73671
5.07741
3.05388
1.92224
1.2661
0.869293
0.618636
0.453966
0.342042
0.263661
0.207324
0.165918
0.134866
0.111164
0.0927088
0.0781899
0.0666456
0.0571658
0.0500206
45.0226
13.4729
5.73075
3.07323
1.86023
1.22699
0.873576
0.649779
0.497013
0.389479
0.311289
0.252977
0.208982
0.175222
0.148837
0.12792
0.111189
0.0976942
0.086804
0.0783664
38.7028
13.0541
5.74336
3.08733
1.88066
1.2275
0.869477
0.645384
0.492592
0.384781
0.307027
0.249049
0.204985
0.170999
0.144419
0.123361
0.106475
0.0927907
0.0816554
0.0734075
12.9054
8.33993
5.07879
3.15547
2.02775
1.35121
0.93354
0.666462
0.48955
0.368601
0.283612
0.222397
0.177341
0.143544
0.117764
0.0977916
0.0821102
0.0696514
0.0596373
0.0514237
11.6229
7.60535
5.0103
3.34209
2.26848
1.57142
1.11236
0.804591
0.594208
0.447521
0.343216
0.26764
0.211908
0.170131
0.138339
0.113802
0.0946223
0.0794541
0.0673295
0.0575686
11.4933
7.5119
5.02843
3.434
2.3892
1.6928
1.22112
0.896488
0.669458
0.508125
0.391659
0.30629
0.24279
0.194894
0.15829
0.129966
0.107794
0.0902486
0.0762176
0.0648401
11.4757
7.50136
5.04297
3.47002
2.43665
1.74299
1.26863
0.938712
0.705583
0.538335
0.416593
0.326728
0.259499
0.208558
0.169487
0.139172
0.115394
0.0965509
0.0814571
0.0691324
11.4757
7.50136
5.04297
3.47002
2.43665
1.74299
1.26863
0.938712
0.705583
0.538335
0.416593
0.326729
0.2595
0.208559
0.169488
0.139173
0.115396
0.0965535
0.0814604
0.0691359
11.4933
7.5119
5.02843
3.434
2.3892
1.6928
1.22112
0.896488
0.669458
0.508125
0.391659
0.30629
0.24279
0.194895
0.15829
0.129966
0.107794
0.0902484
0.0762173
0.0648393
11.6229
7.60535
5.0103
3.34209
2.26848
1.57142
1.11236
0.804589
0.594206
0.44752
0.343214
0.267637
0.211904
0.170125
0.13833
0.113791
0.0946092
0.0794375
0.0673082
0.0575362
12.9054
8.33993
5.07879
3.15547
2.02775
1.3512
0.933538
0.666459
0.489547
0.368597
0.283607
0.222391
0.177331
0.14353
0.117745
0.0977678
0.0820788
0.0696084
0.0595785
0.0513558
38.7028
13.0541
5.74336
3.08733
1.88066
1.2275
0.869474
0.645379
0.492586
0.384773
0.307012
0.249029
0.204957
0.170959
0.14436
0.123274
0.106346
0.092596
0.0813759
0.0730652
36.0571
12.8529
5.76645
3.10211
1.89475
1.22669
0.866498
0.643981
0.492248
0.383962
0.305794
0.247918
0.20392
0.169947
0.143334
0.122202
0.1052
0.0913479
0.0800031
0.0714588
12.6882
8.1544
5.07113
3.20038
2.07939
1.39506
0.96783
0.69272
0.509635
0.384014
0.2955
0.231644
0.184587
0.149255
0.122282
0.101378
0.0849601
0.0719119
0.0614342
0.0530002
11.5726
7.56718
5.02065
3.38344
2.32103
1.62326
1.15828
0.843154
0.625689
0.472847
0.363481
0.28385
0.224902
0.180585
0.146786
0.12066
0.100218
0.0840391
0.0711033
0.060656
11.4757
7.50136
5.04297
3.47002
2.43665
1.74299
1.26863
0.938712
0.705583
0.538335
0.416593
0.326728
0.2595
0.208559
0.169488
0.139173
0.115396
0.0965534
0.0814605
0.0691364
11.4647
7.49683
5.0577
3.50272
2.48038
1.79068
1.31522
0.981305
0.742924
0.57021
0.44335
0.348968
0.277889
0.223737
0.182023
0.149549
0.124014
0.10374
0.0874698
0.0741489
11.4647
7.49683
5.0577
3.50272
2.48038
1.79068
1.31522
0.981305
0.742924
0.57021
0.44335
0.348968
0.277889
0.223738
0.182023
0.149549
0.124014
0.10374
0.0874698
0.0741487
11.4757
7.50136
5.04297
3.47002
2.43665
1.74299
1.26863
0.938712
0.705583
0.538335
0.416593
0.326728
0.259499
0.208558
0.169486
0.139171
0.115394
0.0965509
0.0814571
0.0691324
11.5726
7.56718
5.02065
3.38344
2.32103
1.62326
1.15828
0.843153
0.625688
0.472846
0.36348
0.283848
0.224899
0.180581
0.14678
0.120654
0.10021
0.0840295
0.0710906
0.060638
12.6882
8.1544
5.07113
3.20038
2.07939
1.39506
0.967829
0.692719
0.509634
0.384012
0.295498
0.23164
0.184583
0.149249
0.122272
0.101366
0.0849449
0.0718913
0.0614048
0.0529557
36.0571
12.8529
5.76645
3.10211
1.89475
1.22669
0.866497
0.643979
0.492245
0.383958
0.305788
0.247909
0.203906
0.169928
0.143305
0.122159
0.105136
0.0912541
0.0798616
0.0711957
36.0571
12.8529
5.76645
3.10211
1.89475
1.22669
0.866497
0.643979
0.492245
0.383958
0.305788
0.247909
0.203906
0.169928
0.143306
0.122159
0.105136
0.0912542
0.0798618
0.071196
12.6882
8.1544
5.07113
3.20038
2.07939
1.39506
0.967829
0.692719
0.509634
0.384012
0.295498
0.23164
0.184583
0.149249
0.122273
0.101366
0.0849449
0.0718911
0.0614044
0.0529554
11.5726
7.56718
5.02065
3.38344
2.32103
1.62326
1.15828
0.843153
0.625688
0.472846
0.36348
0.283848
0.224899
0.180581
0.14678
0.120654
0.10021
0.0840292
0.0710901
0.0606374
11.4757
7.50136
5.04297
3.47002
2.43665
1.74299
1.26863
0.938712
0.705583
0.538335
0.416593
0.326728
0.259499
0.208558
0.169487
0.139172
0.115394
0.0965509
0.081457
0.0691324
11.4647
7.49683
5.0577
3.50272
2.48038
1.79068
1.31522
0.981305
0.742924
0.57021
0.44335
0.348968
0.277889
0.223738
0.182023
0.149549
0.124015
0.10374
0.08747
0.074149
11.4647
7.49683
5.0577
3.50272
2.48038
1.79068
1.31522
0.981305
0.742924
0.57021
0.44335
0.348968
0.277889
0.223738
0.182023
0.149549
0.124015
0.10374
0.0874701
0.0741492
11.4757
7.50136
5.04297
3.47002
2.43665
1.74299
1.26863
0.938712
0.705583
0.538335
0.416593
0.326729
0.2595
0.208559
0.169488
0.139173
0.115396
0.0965537
0.0814609
0.0691366
11.5726
7.56718
5.02065
3.38344
2.32103
1.62326
1.15828
0.843154
0.625689
0.472847
0.363481
0.28385
0.224903
0.180586
0.146785
0.12066
0.100218
0.0840395
0.0711039
0.0606567
12.6882
8.1544
5.07113
3.20038
2.07939
1.39506
0.96783
0.69272
0.509635
0.384014
0.295501
0.231644
0.184588
0.149256
0.122281
0.101377
0.0849598
0.0719118
0.0614342
0.053
36.0571
12.8529
5.76645
3.10211
1.89475
1.22669
0.866498
0.643981
0.492248
0.383962
0.305794
0.247918
0.20392
0.169947
0.143334
0.122202
0.1052
0.0913478
0.0800029
0.0714586
38.7028
13.0541
5.74336
3.08733
1.88066
1.2275
0.869474
0.645379
0.492586
0.384773
0.307012
0.249029
0.204957
0.170959
0.14436
0.123274
0.106346
0.0925961
0.0813761
0.0730654
12.9054
8.33993
5.07879
3.15547
2.02775
1.3512
0.933538
0.666459
0.489547
0.368597
0.283607
0.22239
0.177331
0.143531
0.117745
0.0977678
0.0820788
0.0696084
0.0595783
0.0513557
11.6229
7.60535
5.0103
3.34209
2.26848
1.57142
1.11236
0.804589
0.594206
0.44752
0.343214
0.267637
0.211904
0.170125
0.13833
0.113792
0.0946096
0.0794378
0.0673084
0.0575365
11.4933
7.5119
5.02843
3.434
2.3892
1.6928
1.22112
0.896488
0.669458
0.508125
0.391659
0.30629
0.24279
0.194895
0.15829
0.129966
0.107794
0.090249
0.0762181
0.0648401
11.4757
7.50136
5.04297
3.47002
2.43665
1.74299
1.26863
0.938712
0.705583
0.538335
0.416593
0.326729
0.2595
0.208559
0.169488
0.139174
0.115396
0.0965539
0.081461
0.0691367
11.4757
7.50136
5.04297
3.47002
2.43665
1.74299
1.26863
0.938712
0.705583
0.538335
0.416593
0.326728
0.259499
0.208558
0.169487
0.139172
0.115394
0.0965512
0.0814575
0.0691332
11.4933
7.5119
5.02843
3.434
2.3892
1.6928
1.22112
0.896488
0.669458
0.508125
0.391659
0.30629
0.24279
0.194895
0.15829
0.129966
0.107794
0.0902488
0.076218
0.0648404
11.6229
7.60535
5.0103
3.34209
2.26848
1.57142
1.11236
0.80459
0.594208
0.447522
0.343216
0.267641
0.211909
0.170132
0.138338
0.113802
0.0946223
0.0794543
0.06733
0.057569
12.9054
8.33993
5.07879
3.15547
2.02775
1.35121
0.93354
0.666462
0.48955
0.368601
0.283612
0.222397
0.177341
0.143545
0.117763
0.0977908
0.0821097
0.069651
0.059637
0.0514231
38.7028
13.0541
5.74336
3.08733
1.88066
1.2275
0.869477
0.645384
0.492592
0.384781
0.307027
0.249049
0.204985
0.170999
0.144419
0.123361
0.106475
0.0927907
0.0816553
0.0734073
45.0226
13.4729
5.73075
3.07323
1.86023
1.22699
0.873576
0.649779
0.497013
0.389479
0.311289
0.252977
0.208982
0.175222
0.148837
0.12792
0.111189
0.0976941
0.086804
0.0783664
13.6679
8.73671
5.07741
3.05388
1.92224
1.2661
0.869293
0.618636
0.453966
0.342042
0.263661
0.207325
0.165918
0.134866
0.111164
0.0927091
0.0781902
0.0666461
0.057166
0.0500213
11.8601
7.76395
4.99734
3.24076
2.1442
1.45499
1.01411
0.72564
0.532162
0.399157
0.305556
0.238234
0.188841
0.151934
0.123898
0.10227
0.0853589
0.0719734
0.0612411
0.0526498
11.6229
7.60535
5.0103
3.34209
2.26848
1.57142
1.11236
0.804591
0.594208
0.447522
0.343216
0.267641
0.211908
0.170132
0.138339
0.113803
0.0946229
0.0794548
0.0673304
0.0575693
11.5726
7.56718
5.02065
3.38344
2.32103
1.62326
1.15828
0.843154
0.625689
0.472847
0.363481
0.28385
0.224902
0.180586
0.146786
0.120661
0.100218
0.0840398
0.0711041
0.0606567
11.5726
7.56718
5.02065
3.38344
2.32103
1.62326
1.15828
0.843153
0.625688
0.472846
0.36348
0.283848
0.224899
0.180581
0.146781
0.120654
0.10021
0.0840297
0.0710908
0.0606384
11.6229
7.60535
5.0103
3.34209
2.26848
1.57142
1.11236
0.804589
0.594206
0.44752
0.343214
0.267637
0.211904
0.170125
0.13833
0.113792
0.0946095
0.0794379
0.0673086
0.0575372
11.8601
7.76395
4.99734
3.24076
2.1442
1.45499
1.01411
0.72564
0.532162
0.399157
0.305556
0.238234
0.188841
0.151934
0.123898
0.102269
0.0853584
0.0719731
0.0612407
0.0526496
13.6679
8.73671
5.07741
3.05388
1.92224
1.2661
0.869294
0.618637
0.453968
0.342045
0.263665
0.20733
0.165926
0.134877
0.111178
0.0927278
0.0782155
0.0666815
0.0572201
0.0500505
45.0226
13.4729
5.73075
3.07323
1.86023
1.227
0.873579
0.649783
0.497019
0.389491
0.311305
0.252999
0.209012
0.175263
0.148898
0.128011
0.111324
0.0979025
0.0871522
0.0790441
58.5856
14.5696
6.08947
3.33296
2.08218
1.40267
0.998658
0.740293
0.565914
0.443938
0.356039
0.290954
0.241451
0.203041
0.173176
0.149946
0.131564
0.117
0.10611
0.0992225
16.5373
9.49239
5.01271
2.8606
1.75746
1.1476
0.786936
0.562055
0.415374
0.315956
0.246343
0.196237
0.159239
0.131276
0.109809
0.0932458
0.0802094
0.0696936
0.060741
0.0566636
13.6679
8.73671
5.07741
3.05388
1.92224
1.2661
0.869295
0.618637
0.453968
0.342045
0.263665
0.20733
0.165926
0.134877
0.11118
0.0927287
0.0782162
0.0666821
0.057221
0.0500511
12.9054
8.33993
5.07879
3.15547
2.02775
1.35121
0.93354
0.666462
0.48955
0.368601
0.283612
0.222397
0.177341
0.143544
0.117765
0.0977918
0.0821104
0.0696515
0.0596374
0.0514236
12.6882
8.1544
5.07113
3.20038
2.07939
1.39506
0.96783
0.69272
0.509635
0.384014
0.295501
0.231644
0.184587
0.149255
0.122282
0.101378
0.0849601
0.0719119
0.0614341
0.0529999
12.6882
8.1544
5.07113
3.20038
2.07939
1.39506
0.967829
0.692719
0.509634
0.384012
0.295498
0.23164
0.184583
0.149249
0.122273
0.101366
0.0849449
0.071891
0.0614044
0.0529552
12.9054
8.33993
5.07879
3.15547
2.02775
1.3512
0.933538
0.66646
0.489548
0.368597
0.283607
0.22239
0.177331
0.14353
0.117746
0.0977678
0.0820788
0.0696083
0.0595782
0.0513556
13.6679
8.73671
5.07741
3.05388
1.92224
1.2661
0.869293
0.618636
0.453966
0.342042
0.263661
0.207325
0.165918
0.134866
0.111164
0.092709
0.0781901
0.0666459
0.0571657
0.0500213
16.5373
9.49239
5.01271
2.8606
1.75746
1.1476
0.786936
0.562055
0.415374
0.315956
0.246343
0.196237
0.159239
0.131276
0.109808
0.0932453
0.0802089
0.0696931
0.0607404
0.056663
58.5856
14.5696
6.08947
3.33296
2.08218
1.40267
0.998659
0.740294
0.565915
0.443943
0.356046
0.290965
0.241469
0.203079
0.173226
0.150017
0.131674
0.117187
0.106466
0.099622
90.5034
12.1248
4.3887
2.46659
1.63316
1.18308
0.90202
0.720676
0.594606
0.502528
0.432715
0.37934
0.336399
0.300037
0.270456
0.246561
0.227178
0.211947
0.20305
0.195525
58.5856
14.5696
6.08947
3.33296
2.08218
1.40267
0.998659
0.740295
0.565916
0.443943
0.356046
0.290965
0.241469
0.203079
0.173226
0.150017
0.131675
0.117188
0.106467
0.0996231
45.0226
13.4729
5.73075
3.07323
1.86023
1.227
0.873579
0.649783
0.497019
0.389491
0.311305
0.252999
0.209012
0.175263
0.148899
0.128011
0.111324
0.0979028
0.0871525
0.0790446
38.7028
13.0541
5.74336
3.08733
1.88066
1.2275
0.869477
0.645384
0.492592
0.384781
0.307027
0.249049
0.204985
0.171
0.144419
0.123361
0.106475
0.0927909
0.0816555
0.0734076
36.0571
12.8529
5.76645
3.10211
1.89475
1.22669
0.866498
0.643981
0.492248
0.383962
0.305794
0.247918
0.20392
0.169948
0.143335
0.122202
0.1052
0.0913478
0.080003
0.0714586
36.0571
12.8529
5.76645
3.10211
1.89475
1.22669
0.866497
0.643979
0.492245
0.383958
0.305788
0.247909
0.203906
0.169928
0.143306
0.122159
0.105136
0.091254
0.0798616
0.0711957
38.7028
13.0541
5.74336
3.08733
1.88066
1.2275
0.869474
0.645379
0.492586
0.384773
0.307012
0.249029
0.204957
0.170959
0.14436
0.123273
0.106346
0.0925959
0.0813758
0.073065
45.0226
13.4729
5.73075
3.07323
1.86023
1.22699
0.873576
0.649779
0.497013
0.389479
0.311289
0.252977
0.208982
0.175222
0.148837
0.12792
0.111188
0.0976937
0.0868035
0.0783657
58.5856
14.5696
6.08947
3.33296
2.08218
1.40267
0.998658
0.740293
0.565914
0.443938
0.356039
0.290953
0.241451
0.203041
0.173176
0.149946
0.131564
0.117
0.106109
0.0992216
90.5034
12.1248
4.3887
2.46659
1.63316
1.18308
0.90202
0.720676
0.594606
0.502528
0.432715
0.379339
0.336399
0.300036
0.270455
0.246561
0.227177
0.211946
0.203048
0.195522
0.387381
0.303395
0.236963
0.201675
0.18141
0.168965
0.160147
0.1532
0.147576
0.143133
0.139465
0.13634
0.133468
0.130908
0.128712
0.126816
0.125178
0.123762
0.122542
0.1215
0.120605
0.119819
0.119225
0.118658
0.118205
0.117759
0.11731
0.116924
0.116674
0.116465
0.116306
0.116104
0.115883
0.115728
0.115703
0.115659
0.115678
0.115632
0.115557
0.115449
0.13815
0.114355
0.0954253
0.0832792
0.0755391
0.0701474
0.0660035
0.0626089
0.0596783
0.0572856
0.0552721
0.053575
0.0520945
0.050808
0.0497025
0.0487503
0.0479287
0.0472223
0.0466067
0.0460824
0.045637
0.0452511
0.0449384
0.0446165
0.0443635
0.0441694
0.0439961
0.0438441
0.0437148
0.0435951
0.0435006
0.0434275
0.0433621
0.043305
0.0432655
0.043243
0.0432313
0.0432288
0.0432227
0.0432161
0.0907104
0.0784608
0.0687742
0.0616939
0.0565219
0.052348
0.0488425
0.0459449
0.0435487
0.041511
0.0397706
0.0382736
0.0369892
0.0358791
0.034928
0.0341118
0.0334103
0.0328212
0.0322828
0.0318401
0.031472
0.0311542
0.0308901
0.030616
0.0303927
0.03023
0.0300864
0.0299656
0.0298691
0.0297822
0.0296918
0.0296205
0.0295694
0.0295398
0.029539
0.0295013
0.0294745
0.0294615
0.0294565
0.0294553
0.0708363
0.0639834
0.0579845
0.0529023
0.0486436
0.0450359
0.0419574
0.0393246
0.0370626
0.0351146
0.0334338
0.031983
0.0307198
0.0296255
0.0286844
0.0278758
0.0271819
0.026589
0.026082
0.0256535
0.0252871
0.0249765
0.0247169
0.0244859
0.0242702
0.0240876
0.0239348
0.0238089
0.0237012
0.0236038
0.0235166
0.0234356
0.0233814
0.023345
0.0233174
0.0233193
0.0232974
0.0232768
0.0232701
0.0232697
0.071578
0.0609691
0.0541951
0.0489859
0.0448047
0.0413646
0.0385003
0.0360459
0.0339178
0.032067
0.0304549
0.0290506
0.0278226
0.0267493
0.0258193
0.0250166
0.0243272
0.0237367
0.0232321
0.0228005
0.0224324
0.0221191
0.0218583
0.0216307
0.0214139
0.0212321
0.0210808
0.020956
0.0208555
0.020771
0.0206814
0.0206095
0.0205559
0.0205173
0.0204922
0.0204965
0.0204798
0.0204667
0.0204596
0.0204497
0.0703291
0.0598377
0.0530136
0.0477294
0.0435055
0.0400428
0.0371857
0.0347738
0.0326711
0.0308353
0.0292323
0.0278334
0.0266087
0.0255437
0.0246275
0.0238392
0.0231611
0.0225799
0.0220834
0.0216606
0.0213008
0.0209947
0.020737
0.0205109
0.0202981
0.0201203
0.0199718
0.0198495
0.0197508
0.0196671
0.0195775
0.019508
0.0194554
0.0194176
0.0193899
0.019391
0.0194175
0.019393
0.0193744
0.019363
0.0715021
0.0603845
0.0533726
0.0481329
0.0439194
0.0404425
0.0375488
0.0350749
0.0329246
0.0310555
0.0294327
0.0280252
0.0268002
0.025739
0.0248287
0.0240484
0.0233808
0.0228109
0.0223255
0.0219123
0.0215618
0.0212637
0.0210092
0.0207798
0.0205675
0.0203915
0.0202464
0.0201274
0.0200298
0.0199428
0.0198519
0.0197817
0.0197308
0.0196955
0.0196713
0.0196766
0.0196985
0.0196726
0.019654
0.0196431
0.0698789
0.0625966
0.0561981
0.050853
0.0464177
0.0427639
0.0396912
0.0370814
0.0348532
0.0329436
0.0313037
0.0298897
0.0286639
0.0276024
0.0266964
0.0259225
0.0252623
0.0247
0.0242244
0.0238173
0.0234712
0.0231769
0.0229227
0.0226874
0.0224719
0.0222958
0.0221524
0.0220375
0.0219412
0.0218495
0.0217542
0.0216838
0.0216364
0.0216036
0.0215849
0.021583
0.0215905
0.0215735
0.0215591
0.0215493
0.0892456
0.075583
0.0652988
0.0580197
0.0525952
0.0484287
0.0451408
0.0424094
0.0401108
0.0381576
0.0365017
0.035076
0.0338548
0.032791
0.0318728
0.0310825
0.0304013
0.029821
0.0293272
0.0289082
0.0285523
0.0282521
0.0279927
0.0277544
0.0275271
0.0273303
0.0271736
0.027059
0.0269596
0.0268504
0.026727
0.0266516
0.0266086
0.0265792
0.0265597
0.0265609
0.0265669
0.0265476
0.0265223
0.0265102
0.139392
0.11527
0.0940386
0.080531
0.0720945
0.0664947
0.06241
0.0591601
0.0563929
0.0541363
0.0523669
0.0508008
0.0493444
0.0479296
0.0467875
0.0458251
0.0450017
0.044294
0.0436903
0.0431779
0.0427415
0.0423715
0.0420604
0.0417475
0.0415086
0.0413188
0.0411459
0.0409892
0.0408371
0.040693
0.0405988
0.0405329
0.0404771
0.040432
0.0404038
0.0404155
0.0403753
0.0403401
0.040317
0.040292
0.387382
0.303398
0.236966
0.201677
0.181419
0.16898
0.160165
0.153219
0.147598
0.143126
0.139521
0.13634
0.133453
0.130887
0.128689
0.126806
0.125179
0.12377
0.122558
0.12152
0.120628
0.119853
0.119267
0.118703
0.118249
0.117793
0.117335
0.116947
0.116687
0.116472
0.116315
0.116112
0.115906
0.115768
0.115709
0.115758
0.115727
0.115627
0.115502
0.115331
0.139391
0.115268
0.094037
0.0805299
0.0720831
0.0664817
0.0623975
0.0591488
0.0563808
0.0541384
0.0523345
0.0508006
0.0493855
0.0479483
0.0467924
0.0458279
0.045006
0.0442984
0.0436936
0.0431797
0.0427409
0.0423667
0.0420532
0.0417402
0.0415032
0.041317
0.0411462
0.0409929
0.0408454
0.0407081
0.0406151
0.0405485
0.040486
0.0404185
0.0403913
0.0403863
0.0403597
0.0403498
0.0403464
0.0403368
0.0640007
0.0557198
0.0470348
0.0403039
0.0361553
0.0331429
0.0307726
0.0288081
0.0271198
0.0257171
0.0245011
0.0234069
0.0225712
0.021846
0.0210619
0.0204714
0.0199408
0.0195005
0.0191115
0.0187747
0.0185067
0.018255
0.0180932
0.0181777
0.0179158
0.0176467
0.0174868
0.0173673
0.0173904
0.0175846
0.0173698
0.0171715
0.0170679
0.0171184
0.0174306
0.0172094
0.017066
0.0170094
0.0169798
0.0169671
0.054293
0.0444734
0.0376651
0.0323868
0.0290911
0.0264583
0.024255
0.0224263
0.0208442
0.0195365
0.0182492
0.0173344
0.0163232
0.0157593
0.0149153
0.0144836
0.0138712
0.0135526
0.0131463
0.0127713
0.0125841
0.0123001
0.0122115
0.0123069
0.0120892
0.011904
0.0116677
0.0115582
0.0115833
0.0117959
0.0116199
0.0114848
0.011313
0.0112457
0.0113985
0.0116652
0.0114972
0.0113693
0.0112247
0.0111678
0.0467728
0.0407497
0.0356409
0.0313896
0.0276016
0.0246585
0.022572
0.0207294
0.019137
0.0177565
0.0165612
0.0155597
0.0147397
0.0139162
0.0132137
0.0125942
0.0120929
0.0115646
0.0112527
0.0107967
0.0106082
0.0102965
0.0102001
0.0102762
0.0100795
0.00985059
0.0097258
0.00952325
0.00956119
0.0097779
0.00961547
0.00949518
0.00929662
0.00921561
0.00931666
0.00961339
0.00947704
0.00938164
0.00920558
0.00916045
0.0462825
0.0403123
0.0353526
0.0312183
0.0277418
0.0247914
0.0220711
0.0200268
0.0184796
0.0171092
0.0159074
0.0148946
0.0140797
0.0132385
0.0125096
0.0118792
0.011336
0.0108691
0.0104699
0.0101361
0.00982632
0.00961719
0.00940673
0.00948525
0.0092486
0.00906401
0.00883875
0.00872487
0.00872732
0.00892325
0.00876175
0.00864132
0.008463
0.00841014
0.00846897
0.00873781
0.00861275
0.008526
0.00837214
0.0083344
0.0463414
0.040406
0.0354023
0.0312127
0.0276992
0.0247544
0.0221568
0.0197758
0.0181665
0.0168323
0.0156403
0.0146247
0.0137939
0.012947
0.0122124
0.0115773
0.0110302
0.0105603
0.0101578
0.00981474
0.00952569
0.00930677
0.00910404
0.00918237
0.0089456
0.00874394
0.008573
0.00844745
0.00844306
0.00863672
0.0084673
0.00832967
0.00821719
0.00814068
0.00818818
0.00845499
0.00832531
0.00822117
0.0081388
0.00807277
0.0460612
0.0401249
0.0351254
0.0309368
0.0274332
0.0244809
0.0217874
0.0196401
0.0181373
0.0167895
0.0156052
0.0146098
0.0137936
0.012957
0.0122344
0.011612
0.0110775
0.0106212
0.0102264
0.00990037
0.00959482
0.00939261
0.00918581
0.00929912
0.00909504
0.00892681
0.00872057
0.00860897
0.00862181
0.00882914
0.00866835
0.00854983
0.008368
0.00831444
0.00838258
0.00869132
0.00855721
0.00843924
0.00835241
0.00827386
0.0469115
0.0404613
0.0351069
0.0306945
0.027056
0.0238974
0.0216899
0.0199593
0.018443
0.0171238
0.0159857
0.015048
0.0142661
0.0134494
0.0127563
0.0121606
0.0116379
0.0112438
0.0107692
0.0105208
0.0101537
0.0100039
0.00983667
0.00997934
0.00978166
0.00961589
0.00935921
0.00926745
0.00929193
0.00951555
0.009351
0.00922949
0.00903394
0.00891676
0.008906
0.00911401
0.00940972
0.00925699
0.00912197
0.0089296
0.0540025
0.0437563
0.0368721
0.0314657
0.0277879
0.0253497
0.0232772
0.0215128
0.0200035
0.0187284
0.0176315
0.0167075
0.0158457
0.0150243
0.0144601
0.0137326
0.0133802
0.0128555
0.0125982
0.012206
0.0120246
0.0117509
0.0116306
0.0118015
0.0115701
0.011377
0.0111194
0.011034
0.0110562
0.0112856
0.0111029
0.0109429
0.0107643
0.0106772
0.0107376
0.0108946
0.0111709
0.011
0.010816
0.010656
0.0639999
0.0557206
0.047035
0.0403217
0.0361211
0.033138
0.0307757
0.0288126
0.0271262
0.0257213
0.0244641
0.0235579
0.0225585
0.0217713
0.0210411
0.0204622
0.0199357
0.0195008
0.0191005
0.0187846
0.0185009
0.0182634
0.0180987
0.0181908
0.017923
0.0176513
0.0174908
0.017369
0.0173881
0.0175844
0.0173657
0.0171598
0.0170633
0.0170181
0.0170522
0.0171066
0.017389
0.0171979
0.0170281
0.0169583
0.138151
0.114357
0.0954241
0.0832824
0.0755449
0.0701587
0.0660146
0.0626182
0.0596888
0.0572786
0.0553037
0.0535666
0.0520715
0.0507952
0.049698
0.0487486
0.0479289
0.047224
0.0466134
0.0460916
0.0456505
0.045271
0.0449599
0.0446382
0.0443865
0.0441959
0.0440192
0.0438668
0.0437321
0.0436055
0.0435086
0.0434344
0.0433715
0.0433265
0.0432982
0.0433064
0.0432735
0.0432318
0.0432035
0.0431802
0.0892452
0.0755811
0.0652974
0.0580154
0.0525864
0.0484195
0.045133
0.0424034
0.0401062
0.0381558
0.0364953
0.0350829
0.03387
0.0328001
0.0318807
0.0310899
0.0304117
0.0298342
0.0293412
0.0289226
0.0285652
0.0282629
0.028006
0.0277696
0.0275488
0.0273591
0.0272029
0.0270855
0.0269844
0.0268733
0.0267528
0.0266807
0.0266354
0.0266042
0.0265806
0.0265817
0.0265878
0.0265639
0.0265464
0.0265394
0.0540044
0.0437538
0.0368648
0.0314598
0.0277857
0.0253444
0.0232693
0.0215033
0.0199915
0.0187106
0.0175926
0.0166661
0.0157367
0.0151472
0.0142845
0.0138273
0.0133202
0.012835
0.012575
0.0121734
0.0120098
0.0117267
0.0116166
0.0117593
0.0115326
0.0113463
0.0110949
0.0110013
0.0110336
0.0112765
0.0110898
0.0109092
0.0107413
0.0106666
0.0108307
0.0111339
0.0109711
0.0107832
0.0106647
0.0106748
0.0466553
0.0403613
0.0349176
0.0303429
0.0266554
0.0237014
0.0212806
0.0192715
0.0175794
0.0161431
0.0149119
0.0138102
0.0130029
0.0121983
0.0113719
0.0108668
0.0104174
0.01002
0.00957814
0.00920994
0.00893457
0.00868764
0.00858744
0.00874214
0.0085752
0.00839598
0.00814382
0.00802382
0.00806741
0.00830052
0.00816577
0.00801282
0.00779965
0.0077125
0.0078449
0.00816703
0.00805112
0.0079191
0.00773026
0.00765888
0.0478579
0.0415206
0.0361997
0.031725
0.0279464
0.0247856
0.0221516
0.0199262
0.0180343
0.0164165
0.01503
0.0138015
0.0128794
0.0119737
0.0111753
0.0104929
0.00990728
0.00939274
0.00887679
0.00855166
0.00830828
0.00809576
0.00793172
0.00803291
0.00784215
0.00766616
0.00749595
0.00730402
0.00734148
0.00754371
0.00740586
0.00728131
0.00707717
0.00698748
0.00708439
0.0073703
0.00727091
0.00717064
0.00699746
0.00692249
0.0497172
0.0431198
0.0376051
0.0329807
0.0290839
0.0257883
0.0229754
0.0205942
0.0185831
0.0168641
0.0153862
0.0140932
0.013116
0.0121604
0.0113249
0.0105969
0.00996448
0.00941374
0.00893199
0.0085231
0.0081264
0.00790857
0.00785175
0.00791129
0.00769713
0.0074898
0.00731342
0.00717278
0.00718388
0.00736317
0.00720937
0.00707079
0.00695555
0.00682224
0.00691011
0.00717994
0.00706718
0.00696189
0.00685458
0.00675433
0.0503034
0.0436524
0.0380932
0.0334202
0.029475
0.0261319
0.0232766
0.0208283
0.0187613
0.017004
0.0154967
0.0141844
0.0131803
0.0122107
0.0113624
0.0106213
0.00997749
0.0094202
0.0089352
0.00851363
0.00814906
0.00782806
0.00780612
0.00788451
0.00772511
0.00739976
0.00720422
0.00711292
0.0071397
0.00732967
0.00717347
0.00703588
0.00691874
0.00680788
0.00689157
0.00715583
0.00704038
0.00692988
0.0068286
0.00670588
0.0497095
0.0430819
0.0375422
0.0328939
0.0289804
0.0256722
0.0228576
0.0204709
0.0184554
0.0167372
0.0152674
0.0139921
0.0130117
0.0120599
0.0112261
0.0105028
0.00987727
0.0093344
0.00885298
0.0084406
0.00806255
0.0078172
0.00777817
0.00786596
0.00766862
0.00748212
0.00731452
0.0071674
0.00718457
0.00736841
0.00722252
0.00708825
0.00695646
0.00684092
0.00698248
0.00723602
0.00712407
0.0069721
0.00683284
0.00666847
0.0477772
0.0413812
0.0360096
0.0314874
0.0277024
0.0245278
0.0218864
0.0196774
0.0178142
0.0162313