/*--------------------------------*- C++ -*----------------------------------*\
| =========                 |                                                 |
| \\      /  F ield         | OpenFOAM: The Open Source CFD Toolbox           |
|  \\    /   O peration     | Version:  2212                                  |
|   \\  /    A nd           | Website:  www.openfoam.com                      |
|    \\/     M anipulation  |                                                 |
\*---------------------------------------------------------------------------*/
FoamFile
{
    version     2.0;
    format      ascii;
    arch        "LSB;label=32;scalar=64";
    class       volScalarField;
    location    "0.8";
    object      k;
}
// * * * * * * * * * * * * * * * * * * * * * * * * * * * * * * * * * * * * * //

dimensions      [0 2 -2 0 0 0 0];

internalField   nonuniform List<scalar> 
6840
(
0.213564
0.055916
0.0283994
0.0193412
0.0146928
0.0118512
0.00989077
0.00851619
0.00749155
0.00669668
0.00606113
0.00555184
0.00512455
0.00474824
0.00443077
0.00416576
0.00394433
0.00376584
0.00365924
0.00356976
0.264759
0.104702
0.0585298
0.0391631
0.02862
0.0219935
0.0175362
0.0143635
0.0120086
0.0102142
0.00881706
0.00770682
0.00680582
0.00606347
0.00545333
0.00495413
0.00454064
0.00419936
0.00393552
0.00376418
0.283364
0.126774
0.071702
0.0473282
0.0338663
0.0256617
0.0204609
0.0167971
0.0140487
0.0119412
0.0102842
0.00895602
0.00788502
0.00701121
0.00628851
0.00568475
0.00517782
0.00475036
0.00439131
0.00410536
0.292299
0.141633
0.0819301
0.0541654
0.038923
0.0292874
0.0232722
0.0190785
0.0159339
0.0135146
0.0116262
0.010112
0.00888068
0.00786929
0.00703036
0.00632804
0.00573483
0.00522959
0.00479859
0.00446498
0.295943
0.148782
0.0871941
0.0576749
0.0415193
0.0310721
0.0246449
0.0202207
0.0169045
0.0143242
0.0123073
0.0107006
0.00939365
0.00831872
0.00742542
0.00667566
0.00604012
0.00549601
0.00502874
0.00466054
0.295943
0.148782
0.0871941
0.0576749
0.0415193
0.0310721
0.0246449
0.0202207
0.0169046
0.0143243
0.0123074
0.0107008
0.00939391
0.00831911
0.00742604
0.00667663
0.0060416
0.00549822
0.00503185
0.00466333
0.292299
0.141633
0.0819301
0.0541654
0.038923
0.0292874
0.0232722
0.0190785
0.015934
0.0135147
0.0116264
0.0101123
0.00888117
0.00787005
0.00703153
0.00632986
0.00573767
0.00523403
0.00480532
0.00447601
0.283364
0.126774
0.071702
0.0473282
0.0338663
0.0256617
0.0204609
0.0167971
0.0140488
0.0119413
0.0102844
0.00895633
0.00788548
0.00701188
0.00628957
0.0056864
0.0051804
0.00475452
0.00439836
0.004117
0.264759
0.104702
0.0585298
0.0391631
0.02862
0.0219935
0.0175362
0.0143635
0.0120086
0.0102143
0.00881714
0.00770695
0.00680603
0.00606396
0.005454
0.00495509
0.00454216
0.00420195
0.00394063
0.00376984
0.213564
0.055916
0.0283994
0.0193412
0.0146928
0.0118512
0.00989077
0.00851619
0.00749155
0.00669668
0.00606113
0.00555184
0.00512456
0.00474825
0.00443077
0.00416578
0.00394435
0.00376586
0.00365927
0.0035698
0.264759
0.104702
0.0585298
0.0391631
0.02862
0.0219935
0.0175362
0.0143635
0.0120086
0.0102143
0.00881713
0.00770695
0.00680602
0.00606396
0.00545399
0.00495508
0.00454214
0.00420193
0.0039406
0.00376981
0.311746
0.197541
0.130357
0.0911458
0.0668024
0.0508112
0.0397946
0.0319124
0.0260946
0.0216878
0.0182774
0.0155896
0.0134426
0.0117004
0.0102706
0.00908458
0.00809136
0.00725549
0.00656027
0.00588335
0.31754
0.217754
0.151086
0.108549
0.0807156
0.0618726
0.0486774
0.0391418
0.0320586
0.0266715
0.02249
0.0191871
0.0165387
0.0143864
0.0126169
0.0111484
0.00991884
0.00888085
0.00800177
0.00725008
0.319723
0.227073
0.162232
0.118772
0.089361
0.0689927
0.0545304
0.0439842
0.0360994
0.0300742
0.0253814
0.0216641
0.0186761
0.016243
0.0142387
0.0125707
0.0111694
0.00998193
0.00896717
0.00809468
0.320484
0.23086
0.167176
0.123531
0.0935158
0.0724823
0.0574403
0.0464208
0.0381531
0.0318162
0.0268695
0.0229446
0.019785
0.0172086
0.0150835
0.0133124
0.0118217
0.0105554
0.00946982
0.00852518
0.320484
0.23086
0.167176
0.123531
0.0935158
0.0724823
0.0574404
0.0464208
0.0381532
0.0318164
0.0268697
0.0229449
0.0197855
0.0172092
0.0150845
0.0133137
0.0118237
0.0105582
0.00947344
0.00853193
0.319723
0.227073
0.162232
0.118772
0.089361
0.0689927
0.0545305
0.0439843
0.0360996
0.0300744
0.0253817
0.0216647
0.0186769
0.0162442
0.0142405
0.0125733
0.0111734
0.00998767
0.00897509
0.00810704
0.31754
0.217754
0.151086
0.108549
0.0807156
0.0618727
0.0486774
0.0391419
0.0320588
0.0266717
0.0224903
0.0191876
0.0165393
0.0143873
0.0126183
0.0111503
0.0099217
0.0088852
0.00800847
0.00726133
0.311746
0.197541
0.130357
0.0911458
0.0668024
0.0508112
0.0397946
0.0319124
0.0260946
0.0216879
0.0182774
0.0155896
0.0134426
0.0117004
0.0102706
0.0090846
0.00809139
0.00725552
0.0065603
0.00588338
0.264759
0.104702
0.0585298
0.0391631
0.02862
0.0219935
0.0175362
0.0143635
0.0120086
0.0102142
0.00881706
0.00770683
0.00680583
0.00606347
0.00545333
0.00495415
0.00454066
0.00419938
0.00393555
0.00376421
0.283364
0.126774
0.071702
0.0473282
0.0338663
0.0256617
0.0204609
0.0167971
0.0140488
0.0119413
0.0102844
0.00895633
0.00788548
0.00701187
0.00628957
0.00568639
0.00518039
0.00475451
0.00439834
0.004117
0.31754
0.217754
0.151086
0.108549
0.0807156
0.0618727
0.0486774
0.0391419
0.0320588
0.0266717
0.0224903
0.0191876
0.0165393
0.0143873
0.0126183
0.0111503
0.00992169
0.00888519
0.00800845
0.00726132
0.322005
0.239026
0.177588
0.133616
0.102323
0.079867
0.0635107
0.0513823
0.0422219
0.0351798
0.0296762
0.0253101
0.0217991
0.0189411
0.0165888
0.0146336
0.012994
0.0116076
0.0104234
0.00936921
0.323293
0.245617
0.187499
0.144537
0.112864
0.0894039
0.0718633
0.0585865
0.0483996
0.0404743
0.0342248
0.0292334
0.0251993
0.021903
0.0191823
0.0169158
0.0150114
0.0133978
0.0120172
0.0108116
0.323714
0.247819
0.191099
0.14881
0.117249
0.0935707
0.0756572
0.0619603
0.0513624
0.0430608
0.0364787
0.0311987
0.0269167
0.0234081
0.0205058
0.0180837
0.0160453
0.0143153
0.0128314
0.0115256
0.323714
0.247819
0.191099
0.14881
0.117249
0.0935707
0.0756572
0.0619604
0.0513625
0.0430609
0.0364788
0.0311989
0.0269169
0.0234085
0.0205063
0.0180844
0.0160462
0.0143166
0.0128333
0.0115293
0.323293
0.245617
0.187499
0.144537
0.112864
0.0894039
0.0718633
0.0585865
0.0483997
0.0404744
0.0342249
0.0292337
0.0251997
0.0219036
0.0191831
0.0169169
0.0150129
0.0134
0.0120202
0.0108153
0.322005
0.239026
0.177588
0.133616
0.102323
0.079867
0.0635107
0.0513823
0.0422219
0.0351798
0.0296762
0.0253101
0.0217991
0.0189411
0.0165888
0.0146336
0.012994
0.0116076
0.0104234
0.00936918
0.31754
0.217754
0.151086
0.108549
0.0807156
0.0618726
0.0486774
0.0391418
0.0320586
0.0266715
0.02249
0.0191871
0.0165387
0.0143864
0.0126169
0.0111484
0.00991885
0.00888087
0.00800179
0.0072501
0.283364
0.126774
0.071702
0.0473282
0.0338663
0.0256617
0.0204609
0.0167971
0.0140487
0.0119412
0.0102842
0.00895602
0.00788503
0.00701121
0.00628852
0.00568476
0.00517784
0.00475038
0.00439133
0.0041054
0.292299
0.141633
0.0819301
0.0541654
0.038923
0.0292874
0.0232722
0.0190785
0.015934
0.0135147
0.0116264
0.0101123
0.00888117
0.00787005
0.00703153
0.00632986
0.00573767
0.00523402
0.00480531
0.00447599
0.319723
0.227073
0.162232
0.118772
0.089361
0.0689927
0.0545305
0.0439843
0.0360996
0.0300744
0.0253817
0.0216647
0.0186769
0.0162442
0.0142405
0.0125733
0.0111733
0.00998767
0.00897508
0.00810703
0.323293
0.245617
0.187499
0.144537
0.112864
0.0894039
0.0718633
0.0585865
0.0483996
0.0404744
0.0342249
0.0292336
0.0251997
0.0219035
0.0191831
0.0169169
0.0150129
0.0134
0.0120202
0.0108153
0.324288
0.250862
0.19613
0.154888
0.123591
0.09968
0.0812742
0.0669839
0.0557849
0.0469225
0.0398398
0.034124
0.0294679
0.0256408
0.0224681
0.0198165
0.0175833
0.0156871
0.0140593
0.0126256
0.32459
0.252403
0.19891
0.158543
0.12769
0.103871
0.08532
0.0707498
0.0592099
0.0499926
0.0425683
0.0365382
0.0316004
0.0275248
0.0241352
0.0212951
0.0188981
0.0168589
0.0151027
0.0135392
0.32459
0.252403
0.19891
0.158543
0.12769
0.103871
0.08532
0.0707498
0.0592099
0.0499926
0.0425683
0.0365383
0.0316005
0.0275249
0.0241353
0.0212953
0.0188984
0.0168593
0.0151033
0.0135415
0.324288
0.250862
0.19613
0.154888
0.123591
0.09968
0.0812742
0.0669839
0.0557849
0.0469225
0.0398398
0.034124
0.0294679
0.0256408
0.022468
0.0198165
0.0175833
0.0156871
0.0140592
0.0126255
0.323293
0.245617
0.187499
0.144537
0.112864
0.0894039
0.0718633
0.0585865
0.0483996
0.0404743
0.0342248
0.0292334
0.0251993
0.021903
0.0191823
0.0169158
0.0150114
0.0133978
0.0120172
0.0108115
0.319723
0.227073
0.162232
0.118772
0.089361
0.0689927
0.0545304
0.0439842
0.0360994
0.0300742
0.0253814
0.0216641
0.0186761
0.016243
0.0142387
0.0125707
0.0111694
0.00998194
0.00896718
0.00809466
0.292299
0.141633
0.0819301
0.0541654
0.038923
0.0292874
0.0232722
0.0190785
0.0159339
0.0135146
0.0116262
0.010112
0.00888069
0.0078693
0.00703037
0.00632805
0.00573484
0.0052296
0.00479861
0.00446498
0.295943
0.148782
0.0871941
0.0576749
0.0415193
0.0310721
0.0246449
0.0202207
0.0169046
0.0143243
0.0123074
0.0107008
0.00939391
0.00831911
0.00742604
0.00667663
0.0060416
0.00549823
0.00503186
0.00466333
0.320484
0.23086
0.167176
0.123531
0.0935158
0.0724823
0.0574404
0.0464208
0.0381532
0.0318164
0.0268697
0.0229449
0.0197855
0.0172092
0.0150845
0.0133137
0.0118237
0.0105582
0.00947344
0.00853191
0.323714
0.247819
0.191099
0.14881
0.117249
0.0935707
0.0756572
0.0619604
0.0513625
0.0430609
0.0364788
0.0311989
0.0269169
0.0234084
0.0205063
0.0180844
0.0160462
0.0143166
0.0128333
0.0115293
0.32459
0.252403
0.19891
0.158543
0.12769
0.103871
0.08532
0.0707498
0.0592099
0.0499926
0.0425683
0.0365383
0.0316004
0.0275249
0.0241353
0.0212953
0.0188984
0.0168593
0.0151034
0.0135415
0.324844
0.253685
0.20131
0.161836
0.131535
0.107943
0.08937
0.0746125
0.062792
0.0532534
0.0455014
0.0391575
0.0339304
0.0295947
0.0259746
0.0229322
0.0203585
0.0181647
0.0162724
0.0145915
0.324844
0.253685
0.20131
0.161836
0.131535
0.107943
0.08937
0.0746125
0.062792
0.0532534
0.0455014
0.0391575
0.0339304
0.0295947
0.0259746
0.0229322
0.0203585
0.0181647
0.0162724
0.0145915
0.32459
0.252403
0.19891
0.158543
0.12769
0.103871
0.08532
0.0707498
0.0592099
0.0499926
0.0425683
0.0365382
0.0316004
0.0275248
0.0241352
0.0212951
0.0188981
0.0168589
0.0151027
0.0135392
0.323714
0.247819
0.191099
0.14881
0.117249
0.0935707
0.0756572
0.0619603
0.0513624
0.0430608
0.0364787
0.0311987
0.0269167
0.0234081
0.0205058
0.0180837
0.0160453
0.0143153
0.0128313
0.0115255
0.320484
0.23086
0.167176
0.123531
0.0935158
0.0724823
0.0574403
0.0464208
0.0381531
0.0318162
0.0268695
0.0229446
0.019785
0.0172086
0.0150835
0.0133124
0.0118217
0.0105554
0.00946982
0.00852514
0.295943
0.148782
0.0871941
0.0576749
0.0415193
0.0310721
0.0246449
0.0202207
0.0169045
0.0143242
0.0123073
0.0107006
0.00939366
0.00831872
0.00742542
0.00667566
0.00604012
0.00549601
0.00502874
0.00466054
0.295943
0.148782
0.0871941
0.0576749
0.0415193
0.0310721
0.0246449
0.0202207
0.0169045
0.0143242
0.0123073
0.0107006
0.00939366
0.00831872
0.00742542
0.00667567
0.00604013
0.00549602
0.00502875
0.00466056
0.320484
0.23086
0.167176
0.123531
0.0935158
0.0724823
0.0574403
0.0464208
0.0381531
0.0318162
0.0268695
0.0229446
0.019785
0.0172086
0.0150835
0.0133124
0.0118217
0.0105554
0.00946984
0.00852517
0.323714
0.247819
0.191099
0.14881
0.117249
0.0935707
0.0756572
0.0619603
0.0513624
0.0430608
0.0364787
0.0311987
0.0269167
0.0234081
0.0205059
0.0180837
0.0160453
0.0143153
0.0128313
0.0115255
0.32459
0.252403
0.19891
0.158543
0.12769
0.103871
0.08532
0.0707498
0.0592099
0.0499926
0.0425683
0.0365382
0.0316004
0.0275248
0.0241352
0.0212951
0.0188981
0.0168589
0.0151027
0.0135392
0.324844
0.253685
0.20131
0.161836
0.131535
0.107943
0.08937
0.0746125
0.062792
0.0532535
0.0455014
0.0391575
0.0339304
0.0295947
0.0259746
0.0229322
0.0203585
0.0181647
0.0162724
0.0145915
0.324844
0.253685
0.20131
0.161836
0.131535
0.107943
0.08937
0.0746125
0.062792
0.0532535
0.0455014
0.0391575
0.0339304
0.0295947
0.0259746
0.0229322
0.0203585
0.0181647
0.0162724
0.0145915
0.32459
0.252403
0.19891
0.158543
0.12769
0.103871
0.08532
0.0707498
0.0592099
0.0499926
0.0425683
0.0365383
0.0316005
0.0275249
0.0241353
0.0212953
0.0188984
0.0168593
0.0151033
0.0135415
0.323714
0.247819
0.191099
0.14881
0.117249
0.0935707
0.0756572
0.0619604
0.0513625
0.0430609
0.0364788
0.0311989
0.0269169
0.0234084
0.0205063
0.0180844
0.0160462
0.0143166
0.0128333
0.0115293
0.320484
0.23086
0.167176
0.123531
0.0935158
0.0724823
0.0574404
0.0464208
0.0381532
0.0318164
0.0268697
0.0229449
0.0197855
0.0172092
0.0150845
0.0133137
0.0118237
0.0105582
0.00947343
0.00853189
0.295943
0.148782
0.0871941
0.0576749
0.0415193
0.0310721
0.0246449
0.0202207
0.0169046
0.0143243
0.0123074
0.0107008
0.00939391
0.00831911
0.00742603
0.00667662
0.0060416
0.00549822
0.00503185
0.00466332
0.292299
0.141633
0.0819301
0.0541654
0.038923
0.0292874
0.0232722
0.0190785
0.0159339
0.0135146
0.0116262
0.010112
0.00888069
0.0078693
0.00703037
0.00632805
0.00573484
0.00522961
0.00479861
0.00446499
0.319723
0.227073
0.162232
0.118772
0.089361
0.0689927
0.0545304
0.0439842
0.0360994
0.0300742
0.0253814
0.0216641
0.0186761
0.016243
0.0142387
0.0125707
0.0111694
0.00998195
0.0089672
0.00809469
0.323293
0.245617
0.187499
0.144537
0.112864
0.0894039
0.0718633
0.0585865
0.0483996
0.0404743
0.0342248
0.0292334
0.0251993
0.021903
0.0191823
0.0169158
0.0150114
0.0133978
0.0120172
0.0108116
0.324288
0.250862
0.19613
0.154888
0.123591
0.09968
0.0812742
0.0669839
0.0557849
0.0469225
0.0398398
0.034124
0.0294679
0.0256408
0.0224681
0.0198165
0.0175833
0.0156871
0.0140593
0.0126255
0.32459
0.252403
0.19891
0.158543
0.12769
0.103871
0.08532
0.0707498
0.0592099
0.0499926
0.0425683
0.0365383
0.0316005
0.0275249
0.0241353
0.0212953
0.0188984
0.0168593
0.0151034
0.0135415
0.32459
0.252403
0.19891
0.158543
0.12769
0.103871
0.08532
0.0707498
0.0592099
0.0499926
0.0425683
0.0365382
0.0316004
0.0275248
0.0241352
0.0212951
0.0188981
0.0168589
0.0151027
0.0135392
0.324288
0.250862
0.19613
0.154888
0.123591
0.09968
0.0812742
0.0669839
0.0557849
0.0469225
0.0398398
0.034124
0.0294679
0.0256408
0.022468
0.0198165
0.0175833
0.0156871
0.0140593
0.0126256
0.323293
0.245617
0.187499
0.144537
0.112864
0.0894039
0.0718633
0.0585865
0.0483997
0.0404744
0.0342249
0.0292337
0.0251997
0.0219035
0.0191831
0.0169169
0.0150129
0.0134
0.0120202
0.0108153
0.319723
0.227073
0.162232
0.118772
0.089361
0.0689927
0.0545305
0.0439843
0.0360996
0.0300744
0.0253817
0.0216647
0.0186769
0.0162442
0.0142405
0.0125733
0.0111733
0.00998766
0.00897507
0.00810701
0.292299
0.141633
0.0819301
0.0541654
0.038923
0.0292874
0.0232722
0.0190785
0.015934
0.0135147
0.0116264
0.0101123
0.00888117
0.00787005
0.00703153
0.00632986
0.00573767
0.00523402
0.00480531
0.00447599
0.283364
0.126774
0.071702
0.0473282
0.0338663
0.0256617
0.0204609
0.0167971
0.0140487
0.0119412
0.0102842
0.00895602
0.00788503
0.00701121
0.00628852
0.00568476
0.00517783
0.00475037
0.00439133
0.0041054
0.31754
0.217754
0.151086
0.108549
0.0807156
0.0618726
0.0486774
0.0391418
0.0320586
0.0266715
0.02249
0.0191871
0.0165387
0.0143864
0.012617
0.0111484
0.00991886
0.00888087
0.00800179
0.0072501
0.322005
0.239026
0.177588
0.133616
0.102323
0.079867
0.0635107
0.0513823
0.0422219
0.0351798
0.0296762
0.0253101
0.0217991
0.0189411
0.0165889
0.0146336
0.0129941
0.0116077
0.0104234
0.0093692
0.323293
0.245617
0.187499
0.144537
0.112864
0.0894039
0.0718633
0.0585865
0.0483997
0.0404744
0.0342249
0.0292337
0.0251997
0.0219036
0.0191831
0.0169169
0.0150129
0.0134
0.0120202
0.0108153
0.323714
0.247819
0.191099
0.14881
0.117249
0.0935707
0.0756572
0.0619604
0.0513625
0.0430609
0.0364788
0.0311989
0.0269169
0.0234085
0.0205063
0.0180844
0.0160462
0.0143166
0.0128333
0.0115293
0.323714
0.247819
0.191099
0.14881
0.117249
0.0935707
0.0756572
0.0619603
0.0513624
0.0430608
0.0364787
0.0311987
0.0269167
0.0234081
0.0205059
0.0180837
0.0160453
0.0143153
0.0128313
0.0115255
0.323293
0.245617
0.187499
0.144537
0.112864
0.0894039
0.0718633
0.0585865
0.0483996
0.0404743
0.0342248
0.0292334
0.0251993
0.021903
0.0191823
0.0169158
0.0150114
0.0133978
0.0120172
0.0108116
0.322005
0.239026
0.177588
0.133616
0.102323
0.079867
0.0635107
0.0513823
0.0422219
0.0351798
0.0296762
0.0253101
0.0217991
0.0189411
0.0165888
0.0146336
0.012994
0.0116076
0.0104234
0.00936918
0.31754
0.217754
0.151086
0.108549
0.0807156
0.0618727
0.0486774
0.0391419
0.0320588
0.0266717
0.0224903
0.0191876
0.0165393
0.0143873
0.0126183
0.0111503
0.00992169
0.00888519
0.00800845
0.00726131
0.283364
0.126774
0.071702
0.0473282
0.0338663
0.0256617
0.0204609
0.0167971
0.0140488
0.0119413
0.0102844
0.00895633
0.00788548
0.00701187
0.00628957
0.00568639
0.00518039
0.00475451
0.00439835
0.004117
0.264759
0.104702
0.0585298
0.0391631
0.02862
0.0219935
0.0175362
0.0143635
0.0120086
0.0102142
0.00881706
0.00770683
0.00680583
0.00606348
0.00545333
0.00495414
0.00454066
0.00419938
0.00393555
0.00376422
0.311746
0.197541
0.130357
0.0911458
0.0668024
0.0508112
0.0397946
0.0319124
0.0260946
0.0216879
0.0182774
0.0155896
0.0134426
0.0117004
0.0102706
0.0090846
0.00809138
0.00725551
0.00656029
0.00588338
0.31754
0.217754
0.151086
0.108549
0.0807156
0.0618727
0.0486774
0.0391419
0.0320588
0.0266717
0.0224903
0.0191876
0.0165393
0.0143874
0.0126183
0.0111503
0.0099217
0.00888521
0.00800847
0.00726133
0.319723
0.227073
0.162232
0.118772
0.089361
0.0689927
0.0545305
0.0439843
0.0360996
0.0300744
0.0253817
0.0216647
0.0186769
0.0162442
0.0142406
0.0125733
0.0111734
0.00998768
0.00897509
0.00810703
0.320484
0.23086
0.167176
0.123531
0.0935158
0.0724823
0.0574404
0.0464208
0.0381532
0.0318164
0.0268697
0.0229449
0.0197855
0.0172092
0.0150845
0.0133137
0.0118237
0.0105582
0.00947344
0.00853191
0.320484
0.23086
0.167176
0.123531
0.0935158
0.0724823
0.0574403
0.0464208
0.0381531
0.0318162
0.0268695
0.0229446
0.019785
0.0172086
0.0150835
0.0133124
0.0118217
0.0105554
0.00946983
0.00852516
0.319723
0.227073
0.162232
0.118772
0.089361
0.0689927
0.0545304
0.0439842
0.0360994
0.0300742
0.0253814
0.0216641
0.0186761
0.016243
0.0142387
0.0125707
0.0111694
0.00998193
0.00896718
0.00809466
0.31754
0.217754
0.151086
0.108549
0.0807156
0.0618726
0.0486774
0.0391418
0.0320586
0.0266715
0.02249
0.0191871
0.0165387
0.0143864
0.0126169
0.0111484
0.00991884
0.00888085
0.00800177
0.00725008
0.311746
0.197541
0.130357
0.0911458
0.0668024
0.0508112
0.0397946
0.0319124
0.0260946
0.0216878
0.0182774
0.0155896
0.0134426
0.0117004
0.0102706
0.00908459
0.00809137
0.0072555
0.00656028
0.00588336
0.264759
0.104702
0.0585298
0.0391631
0.02862
0.0219935
0.0175362
0.0143635
0.0120086
0.0102143
0.00881714
0.00770695
0.00680603
0.00606396
0.00545399
0.00495508
0.00454215
0.00420194
0.00394061
0.00376982
0.213564
0.055916
0.0283994
0.0193412
0.0146928
0.0118512
0.00989077
0.00851619
0.00749155
0.00669668
0.00606113
0.00555185
0.00512456
0.00474825
0.00443078
0.00416578
0.00394434
0.00376586
0.00365927
0.00356981
0.264759
0.104702
0.0585298
0.0391631
0.02862
0.0219935
0.0175362
0.0143635
0.0120086
0.0102143
0.00881714
0.00770695
0.00680603
0.00606397
0.005454
0.00495509
0.00454215
0.00420195
0.00394062
0.00376984
0.283364
0.126774
0.071702
0.0473282
0.0338663
0.0256617
0.0204609
0.0167971
0.0140488
0.0119413
0.0102844
0.00895633
0.00788548
0.00701188
0.00628957
0.0056864
0.0051804
0.00475452
0.00439836
0.00411701
0.292299
0.141633
0.0819301
0.0541654
0.038923
0.0292874
0.0232722
0.0190785
0.015934
0.0135147
0.0116264
0.0101123
0.00888117
0.00787005
0.00703154
0.00632987
0.00573767
0.00523403
0.00480531
0.004476
0.295943
0.148782
0.0871941
0.0576749
0.0415193
0.0310721
0.0246449
0.0202207
0.0169046
0.0143243
0.0123074
0.0107008
0.00939391
0.00831912
0.00742604
0.00667663
0.0060416
0.00549823
0.00503185
0.00466333
0.295943
0.148782
0.0871941
0.0576749
0.0415193
0.0310721
0.0246449
0.0202207
0.0169045
0.0143242
0.0123073
0.0107006
0.00939366
0.00831872
0.00742542
0.00667566
0.00604012
0.00549601
0.00502875
0.00466055
0.292299
0.141633
0.0819301
0.0541654
0.038923
0.0292874
0.0232722
0.0190785
0.0159339
0.0135146
0.0116262
0.010112
0.00888069
0.0078693
0.00703037
0.00632805
0.00573484
0.0052296
0.0047986
0.00446498
0.283364
0.126774
0.071702
0.0473282
0.0338663
0.0256617
0.0204609
0.0167971
0.0140487
0.0119412
0.0102842
0.00895602
0.00788502
0.00701121
0.00628852
0.00568475
0.00517783
0.00475036
0.00439131
0.00410538
0.264759
0.104702
0.0585298
0.0391631
0.02862
0.0219935
0.0175362
0.0143635
0.0120086
0.0102142
0.00881706
0.00770682
0.00680583
0.00606347
0.00545333
0.00495414
0.00454065
0.00419937
0.00393554
0.0037642
0.213564
0.055916
0.0283994
0.0193412
0.0146928
0.0118512
0.00989077
0.00851619
0.00749155
0.00669668
0.00606113
0.00555184
0.00512456
0.00474825
0.00443077
0.00416577
0.00394434
0.00376585
0.00365925
0.00356977
0.00496905
0.00421929
0.00357759
0.00321292
0.00299336
0.00285446
0.00275271
0.00267048
0.00260311
0.00254885
0.00250341
0.0024637
0.00242672
0.00239341
0.00236447
0.00233911
0.00231685
0.00229726
0.00228007
0.00226518
0.0022522
0.00224072
0.00223179
0.00222318
0.00221643
0.00220987
0.00220322
0.00219739
0.00219337
0.00219004
0.00218755
0.00218441
0.00218096
0.0021784
0.00217763
0.00217699
0.00217721
0.00217651
0.00217537
0.00217372
0.00413373
0.00364863
0.00323564
0.00295434
0.0027698
0.00263767
0.00253245
0.00244368
0.0023665
0.00230213
0.00224629
0.00219819
0.00215572
0.00211794
0.00208478
0.00205595
0.00203035
0.00200793
0.0019883
0.0019714
0.00195683
0.00194413
0.00193355
0.00192337
0.0019151
0.00190865
0.00190289
0.00189771
0.00189306
0.00188886
0.00188548
0.00188282
0.00188046
0.00187826
0.00187648
0.00187564
0.00187511
0.00187489
0.00187473
0.00187442
0.00400287
0.00364038
0.00334008
0.00311078
0.00293643
0.00278987
0.00266381
0.00255671
0.00246581
0.00238674
0.00231768
0.00225739
0.00220443
0.00215801
0.00211735
0.00208269
0.0020507
0.00202327
0.00199943
0.00197924
0.00196212
0.00194724
0.00193309
0.00192161
0.0019116
0.00190349
0.00189626
0.00189012
0.00188503
0.00188008
0.00187527
0.00187143
0.00186861
0.0018667
0.00186513
0.00186385
0.00186264
0.00186191
0.0018616
0.00186161
0.00394261
0.00368222
0.00344789
0.00324338
0.00306679
0.00291307
0.00277818
0.00265985
0.00255562
0.00246373
0.00238261
0.00231103
0.0022474
0.00219116
0.00214181
0.00209861
0.00206092
0.0020282
0.00200002
0.00197562
0.00195456
0.0019365
0.00192104
0.00190719
0.00189487
0.00188383
0.00187322
0.00186496
0.00185887
0.00185172
0.00184695
0.00184249
0.00183902
0.00183652
0.00183475
0.00183435
0.00183312
0.00183169
0.00183112
0.00183117
0.00431487
0.00386245
0.00356539
0.00333175
0.00313826
0.00297418
0.00283383
0.00271084
0.0026015
0.00250413
0.00241735
0.00234005
0.00227101
0.00220948
0.00215507
0.00210721
0.00206534
0.00202889
0.00199717
0.00196968
0.0019459
0.00192555
0.00190826
0.001893
0.00187856
0.00186636
0.00185597
0.00184727
0.00183984
0.00183333
0.00182769
0.00182249
0.00181835
0.00181529
0.00181291
0.001813
0.00181191
0.0018107
0.00180992
0.00180944
0.00435289
0.00390764
0.00360361
0.0033588
0.00315621
0.0029849
0.00283904
0.0027131
0.00260077
0.00250024
0.00241035
0.00233011
0.00225834
0.00219461
0.00213867
0.00208967
0.0020468
0.00200942
0.00197696
0.00194888
0.00192465
0.0019038
0.00188598
0.00187019
0.0018554
0.00184282
0.00183221
0.00182333
0.0018159
0.00180945
0.0018033
0.00179788
0.00179367
0.00179053
0.00178814
0.00178733
0.00178868
0.00178722
0.00178591
0.00178502
0.00428167
0.00383805
0.00353496
0.0032989
0.00310194
0.00293405
0.00279001
0.00266402
0.00255178
0.00245182
0.00236295
0.00228412
0.00221402
0.00215207
0.00209783
0.00205047
0.00200923
0.00197345
0.00194249
0.00191578
0.00189277
0.001873
0.00185595
0.0018404
0.00182598
0.00181383
0.00180358
0.00179514
0.00178807
0.00178173
0.00177551
0.00177022
0.00176623
0.00176342
0.00176137
0.00176055
0.00176173
0.00176028
0.00175908
0.00175833
0.00392679
0.00365011
0.00339587
0.00317434
0.00298394
0.00282231
0.00268286
0.00256144
0.00245519
0.00236195
0.00228004
0.00220788
0.00214404
0.0020877
0.00203866
0.00199604
0.00195901
0.00192705
0.00189948
0.00187579
0.00185524
0.00183761
0.00182228
0.00180789
0.00179473
0.00178373
0.00177462
0.00176723
0.00176104
0.00175514
0.00174918
0.00174454
0.00174119
0.00173885
0.00173746
0.00173652
0.00173688
0.00173573
0.00173479
0.00173418
0.0040302
0.0036079
0.00326216
0.00300293
0.00280921
0.00265585
0.00253145
0.0024264
0.00233576
0.00225678
0.0021883
0.00212848
0.00207587
0.00202907
0.0019884
0.00195277
0.00192161
0.00189454
0.00187121
0.00185119
0.00183394
0.0018191
0.00180579
0.00179244
0.00178104
0.00177134
0.00176338
0.00175718
0.00175183
0.0017457
0.00174024
0.00173603
0.00173346
0.00173177
0.00173046
0.00173018
0.00173018
0.00172905
0.00172789
0.00172726
0.00420554
0.00370347
0.00323068
0.00290671
0.00269692
0.00255351
0.00244526
0.00235649
0.00228157
0.00221762
0.00216667
0.00212158
0.00207716
0.00203494
0.00200047
0.00197065
0.00194463
0.00192186
0.00190214
0.00188514
0.00187056
0.0018582
0.00184723
0.0018365
0.00182812
0.00182139
0.00181535
0.00180981
0.00180434
0.00179916
0.00179564
0.00179315
0.00179105
0.00178932
0.00178806
0.00178804
0.00178671
0.00178549
0.00178465
0.0017837
0.00496906
0.00421933
0.00357764
0.00321296
0.00299351
0.00285468
0.00275295
0.00267069
0.00260336
0.00254869
0.00250399
0.00246363
0.00242635
0.002393
0.00236412
0.00233896
0.00231684
0.00229732
0.00228021
0.00226536
0.0022524
0.00224103
0.00223219
0.00222367
0.00221689
0.00221021
0.00220344
0.00219757
0.00219342
0.00218998
0.0021875
0.0021844
0.00218125
0.00217903
0.002178
0.00217847
0.00217793
0.00217643
0.00217452
0.00217186
0.00420552
0.00370341
0.00323064
0.00290669
0.00269658
0.00255313
0.00244491
0.0023562
0.00228124
0.00221781
0.00216593
0.00212144
0.00207827
0.00203589
0.00200079
0.00197075
0.00194474
0.00192201
0.0019023
0.0018853
0.0018707
0.00185819
0.00184721
0.00183648
0.00182813
0.00182147
0.00181551
0.00181006
0.00180471
0.00179973
0.00179626
0.00179376
0.00179142
0.00178891
0.00178739
0.00178695
0.00178605
0.00178571
0.00178557
0.00178525
0.00423359
0.00376021
0.00335893
0.00313339
0.00296969
0.00280939
0.00265177
0.00250062
0.00236812
0.00225241
0.00214474
0.002052
0.00196634
0.00188693
0.00181893
0.0017582
0.00170611
0.00166039
0.00162122
0.00158804
0.00155862
0.00153251
0.00151207
0.00148078
0.00145921
0.00144653
0.00143717
0.00142967
0.0014196
0.00140333
0.00139289
0.00138913
0.00138819
0.0013857
0.00137798
0.00137387
0.00137409
0.00137654
0.00137989
0.00138292
0.00552262
0.00504582
0.0046198
0.00426438
0.00395625
0.00368778
0.00345108
0.00324069
0.00305281
0.00288402
0.00273318
0.0026002
0.00247653
0.00236729
0.00227316
0.00218861
0.0021153
0.00205064
0.0019953
0.00194786
0.00190564
0.00186902
0.00183536
0.00179586
0.00176225
0.00173774
0.00171997
0.00170699
0.00169307
0.00167207
0.00165436
0.00164446
0.00164129
0.00163942
0.00163513
0.00162467
0.00161933
0.0016209
0.00162461
0.00162999
0.00686742
0.00615235
0.00557044
0.00508587
0.00468069
0.00433417
0.00402976
0.00376134
0.00352314
0.00331173
0.00312388
0.00295738
0.00280492
0.00267145
0.0025543
0.00245148
0.00236125
0.00228291
0.00221437
0.0021553
0.00210254
0.00205763
0.00201634
0.00197112
0.00193442
0.00190543
0.00188227
0.00186553
0.00184742
0.00182426
0.00180596
0.00179396
0.00178827
0.00178502
0.00178008
0.00177109
0.00176483
0.0017653
0.00176803
0.00177215
0.00725716
0.00662224
0.00604826
0.00554118
0.00509644
0.00470717
0.00437051
0.00407523
0.00381131
0.00357551
0.00336527
0.00317829
0.00300859
0.00285936
0.00272795
0.00261242
0.002511
0.00242227
0.00234469
0.00227725
0.00221877
0.00216795
0.00212141
0.00207211
0.00203306
0.00200125
0.00197583
0.00195586
0.0019357
0.00191136
0.00189233
0.00187911
0.00187153
0.00186647
0.00186231
0.00185648
0.0018499
0.00184986
0.0018514
0.00185414
0.00758693
0.0068603
0.00624177
0.00570937
0.00524785
0.00484488
0.00449356
0.00419028
0.00392013
0.00367759
0.00346084
0.00326766
0.00309255
0.00293815
0.00280209
0.0026824
0.00257725
0.00248509
0.00240458
0.00233445
0.0022736
0.00222075
0.00217266
0.00212195
0.002081
0.00204796
0.00202092
0.00199944
0.00197832
0.00195266
0.00193347
0.00192
0.00191125
0.00190591
0.00190174
0.00189168
0.00188979
0.00189008
0.00189149
0.00189346
0.00724104
0.00661152
0.00604182
0.00553851
0.00509794
0.00471293
0.00438046
0.00409077
0.00383122
0.00359893
0.00339161
0.00320669
0.00303845
0.00289027
0.00275981
0.00264512
0.00254439
0.00245611
0.00237917
0.0023121
0.00225411
0.0022033
0.00215741
0.00210779
0.00206649
0.00203288
0.00200623
0.00198557
0.00196528
0.00193972
0.00192019
0.00190638
0.00189832
0.00189387
0.00189072
0.00188177
0.00188119
0.00187982
0.00188081
0.00188254
0.00684246
0.00612774
0.00554537
0.00506344
0.00466056
0.0043228
0.00402947
0.00376938
0.00353758
0.00333057
0.00314591
0.00297982
0.00282862
0.00269559
0.00257883
0.0024765
0.00238633
0.00230739
0.00223975
0.00218005
0.00212791
0.00208256
0.00204066
0.00199308
0.00195346
0.00192228
0.00189939
0.00188202
0.00186412
0.00184036
0.00182077
0.00180782
0.00180198
0.00179929
0.00179799
0.00179457
0.00179346
0.00178677
0.00178592
0.00178888
0.005458
0.0049725
0.0045338
0.0041825
0.00389715
0.00364705
0.0034207
0.00321624
0.00303202
0.00286394
0.00271292
0.00257279
0.00244792
0.00233804
0.00224211
0.0021578
0.00208152
0.0020158
0.00195818
0.0019093
0.0018654
0.00182975
0.00179481
0.00175197
0.00171669
0.00169181
0.00167467
0.00166214
0.00164828
0.00162603
0.00160739
0.00159746
0.00159537
0.00159532
0.00159397
0.00158962
0.00158595
0.00158101
0.00158216
0.0015865
0.00423368
0.00376044
0.00335892
0.00313367
0.0029707
0.0028106
0.00265279
0.00250136
0.00236878
0.00225166
0.00214793
0.00205044
0.00196215
0.00188434
0.00181906
0.00175936
0.00170659
0.00166044
0.00162111
0.00158776
0.00155791
0.00153274
0.00151214
0.00148058
0.00145895
0.00144621
0.00143692
0.00142944
0.00141901
0.00140208
0.00139141
0.00138762
0.00138696
0.00138719
0.00138609
0.00138386
0.0013769
0.00137354
0.00137555
0.0013791
0.00413374
0.00364869
0.00323561
0.00295442
0.00276998
0.002638
0.00253276
0.00244393
0.0023668
0.00230189
0.00224701
0.00219816