/*--------------------------------*- C++ -*----------------------------------*\
| =========                 |                                                 |
| \\      /  F ield         | OpenFOAM: The Open Source CFD Toolbox           |
|  \\    /   O peration     | Version:  2212                                  |
|   \\  /    A nd           | Website:  www.openfoam.com                      |
|    \\/     M anipulation  |                                                 |
\*---------------------------------------------------------------------------*/
FoamFile
{
    version     2.0;
    format      ascii;
    arch        "LSB;label=32;scalar=64";
    class       volScalarField;
    location    "0.8";
    object      nut;
}
// * * * * * * * * * * * * * * * * * * * * * * * * * * * * * * * * * * * * * //

dimensions      [0 2 -1 0 0 0 0];

internalField   nonuniform List<scalar> 
6840
(
4.5356e-05
2.3208e-05
1.65396e-05
1.36494e-05
1.18966e-05
1.06844e-05
9.76082e-06
9.05717e-06
8.49487e-06
8.03159e-06
7.64096e-06
7.31288e-06
7.02587e-06
6.76293e-06
6.53289e-06
6.33446e-06
6.16348e-06
6.02204e-06
5.9351e-06
5.86581e-06
0.000107685
6.77183e-05
5.06311e-05
4.14159e-05
3.54049e-05
3.10368e-05
2.77138e-05
2.50818e-05
2.29337e-05
2.11511e-05
1.96514e-05
1.83726e-05
1.72653e-05
1.62968e-05
1.54553e-05
1.47314e-05
1.4104e-05
1.35652e-05
1.3137e-05
1.28523e-05
0.000160509
0.00010736
8.07409e-05
6.55976e-05
5.54896e-05
4.83026e-05
4.31311e-05
3.90792e-05
3.57394e-05
3.29499e-05
3.05785e-05
2.85359e-05
2.67756e-05
2.52488e-05
2.39127e-05
2.27367e-05
2.17009e-05
2.07888e-05
1.99937e-05
1.93562e-05
0.000198681
0.0001383
0.000105187
8.55269e-05
7.25012e-05
6.28901e-05
5.6061e-05
5.07592e-05
4.63878e-05
4.27214e-05
3.96246e-05
3.69543e-05
3.46316e-05
3.26004e-05
3.08142e-05
2.92356e-05
2.78333e-05
2.6582e-05
2.54669e-05
2.45568e-05
0.000218609
0.000155003
0.000118661
9.65068e-05
8.18823e-05
7.08354e-05
6.30853e-05
5.7143e-05
5.22476e-05
4.80951e-05
4.45806e-05
4.1569e-05
3.89476e-05
3.66514e-05
3.46275e-05
3.28327e-05
3.12307e-05
2.9791e-05
2.84986e-05
2.74575e-05
0.000218609
0.000155003
0.000118661
9.65068e-05
8.18822e-05
7.08354e-05
6.30852e-05
5.71429e-05
5.22475e-05
4.80949e-05
4.45804e-05
4.15687e-05
3.89472e-05
3.66507e-05
3.46263e-05
3.28306e-05
3.1227e-05
2.97844e-05
2.84834e-05
2.73892e-05
0.000198681
0.0001383
0.000105187
8.55269e-05
7.25012e-05
6.28901e-05
5.60609e-05
5.0759e-05
4.63876e-05
4.27211e-05
3.96242e-05
3.69537e-05
3.46307e-05
3.25989e-05
3.08119e-05
2.92317e-05
2.78269e-05
2.65711e-05
2.54508e-05
2.4563e-05
0.000160509
0.00010736
8.07409e-05
6.55976e-05
5.54896e-05
4.83026e-05
4.3131e-05
3.90791e-05
3.57393e-05
3.29497e-05
3.05782e-05
2.85355e-05
2.67749e-05
2.52476e-05
2.39108e-05
2.27337e-05
2.1696e-05
2.07808e-05
1.99776e-05
1.9299e-05
0.000107685
6.77183e-05
5.06311e-05
4.14159e-05
3.54049e-05
3.10368e-05
2.77138e-05
2.50818e-05
2.29337e-05
2.11511e-05
1.96513e-05
1.83724e-05
1.72651e-05
1.62964e-05
1.54546e-05
1.47301e-05
1.41015e-05
1.35601e-05
1.31268e-05
1.28389e-05
4.5356e-05
2.3208e-05
1.65396e-05
1.36494e-05
1.18966e-05
1.06844e-05
9.76082e-06
9.05717e-06
8.49487e-06
8.03159e-06
7.64096e-06
7.31288e-06
7.02587e-06
6.76293e-06
6.53289e-06
6.33446e-06
6.16349e-06
6.02205e-06
5.93511e-06
5.86582e-06
0.000107685
6.77183e-05
5.06311e-05
4.14159e-05
3.54049e-05
3.10368e-05
2.77138e-05
2.50818e-05
2.29337e-05
2.11511e-05
1.96513e-05
1.83724e-05
1.72651e-05
1.62964e-05
1.54546e-05
1.47301e-05
1.41015e-05
1.35601e-05
1.31268e-05
1.28389e-05
0.000528907
0.000369984
0.000305097
0.000261371
0.000228528
0.000202476
0.000181114
0.000163073
0.000147539
0.000133983
0.000122048
0.000111464
0.000102131
9.38563e-05
8.64565e-05
7.96572e-05
7.3462e-05
6.79807e-05
6.37688e-05
5.49782e-05
0.000663952
0.000488458
0.000404619
0.000347248
0.000305036
0.000272128
0.000245318
0.000222889
0.000203756
0.000187179
0.000172654
0.000159813
0.000148371
0.000138116
0.00012888
0.000120655
0.000113243
0.000106507
0.000100804
9.45765e-05
0.00071288
0.000556432
0.000466397
0.000402355
0.000354425
0.00031705
0.000286674
0.000261253
0.000239579
0.00022084
0.000204435
0.000189936
0.000177023
0.000165435
0.000154968
0.000145467
0.000136796
0.000128828
0.000121469
0.000114829
0.000728543
0.000588231
0.000496002
0.000429131
0.000378509
0.000338933
0.000306816
0.000279969
0.000257066
0.000237244
0.00021989
0.000204546
0.000190865
0.000178575
0.000167463
0.000157347
0.000148069
0.000139481
0.000131439
0.000123519
0.000728543
0.000588231
0.000496002
0.000429131
0.000378509
0.000338933
0.000306816
0.000279969
0.000257066
0.000237245
0.000219892
0.000204548
0.000190868
0.000178581
0.000167471
0.000157362
0.000148093
0.000139514
0.000131476
0.000123612
0.00071288
0.000556432
0.000466397
0.000402355
0.000354425
0.00031705
0.000286674
0.000261254
0.000239579
0.000220842
0.000204437
0.00018994
0.000177029
0.000165444
0.000154983
0.000145494
0.00013684
0.000128897
0.000121563
0.000115029
0.000663952
0.000488458
0.000404619
0.000347248
0.000305036
0.000272128
0.000245319
0.000222889
0.000203756
0.00018718
0.000172656
0.000159816
0.000148376
0.000138123
0.00012889
0.000120672
0.000113272
0.000106554
0.000100877
9.48118e-05
0.000528907
0.000369984
0.000305097
0.000261371
0.000228528
0.000202476
0.000181114
0.000163073
0.000147539
0.000133983
0.000122048
0.000111464
0.000102132
9.38561e-05
8.64569e-05
7.96575e-05
7.34624e-05
6.79813e-05
6.37693e-05
5.49786e-05
0.000107685
6.77183e-05
5.06311e-05
4.14159e-05
3.54049e-05
3.10368e-05
2.77138e-05
2.50818e-05
2.29337e-05
2.11511e-05
1.96514e-05
1.83726e-05
1.72653e-05
1.62968e-05
1.54553e-05
1.47314e-05
1.4104e-05
1.35652e-05
1.31371e-05
1.28523e-05
0.000160509
0.00010736
8.07409e-05
6.55976e-05
5.54896e-05
4.83026e-05
4.3131e-05
3.90791e-05
3.57393e-05
3.29497e-05
3.05782e-05
2.85355e-05
2.67749e-05
2.52476e-05
2.39108e-05
2.27337e-05
2.1696e-05
2.07807e-05
1.99776e-05
1.9299e-05
0.000663952
0.000488458
0.000404619
0.000347248
0.000305036
0.000272128
0.000245319
0.000222889
0.000203756
0.00018718
0.000172656
0.000159816
0.000148376
0.000138123
0.00012889
0.000120672
0.000113271
0.000106554
0.000100876
9.48123e-05
0.000786828
0.000662293
0.000567975
0.000495805
0.000439464
0.000394562
0.000357975
0.000327452
0.000301491
0.000279051
0.000259399
0.000242005
0.000226477
0.000212518
0.000199899
0.000188452
0.000178026
0.000168485
0.000159669
0.000150057
0.000809324
0.000713906
0.000631505
0.000562574
0.000505377
0.000457786
0.000417841
0.00038394
0.000354804
0.00032945
0.000307156
0.000287379
0.0002697
0.000253794
0.000239402
0.000226317
0.000214363
0.000203368
0.000193098
0.000182843
0.000814958
0.000730426
0.000654634
0.000589043
0.000533067
0.000485438
0.000444763
0.000409792
0.000379469
0.00035293
0.000329489
0.000308625
0.000289932
0.000273087
0.000257828
0.000243936
0.000231221
0.000219489
0.000208438
0.000197162
0.000814958
0.000730426
0.000654634
0.000589043
0.000533067
0.000485438
0.000444763
0.000409792
0.000379469
0.00035293
0.000329489
0.000308626
0.000289934
0.000273089
0.00025783
0.000243941
0.00023123
0.000219504
0.000208462
0.000197231
0.000809324
0.000713906
0.000631505
0.000562574
0.000505377
0.000457786
0.000417841
0.00038394
0.000354804
0.00032945
0.000307157
0.00028738
0.000269702
0.000253796
0.000239406
0.000226326
0.000214378
0.000203394
0.000193135
0.000182868
0.000786828
0.000662293
0.000567975
0.000495805
0.000439464
0.000394562
0.000357975
0.000327452
0.000301491
0.000279051
0.0002594
0.000242005
0.000226477
0.000212518
0.000199899
0.000188453
0.000178027
0.000168486
0.00015967
0.000150057
0.000663952
0.000488458
0.000404619
0.000347248
0.000305036
0.000272128
0.000245318
0.000222889
0.000203756
0.000187179
0.000172654
0.000159813
0.000148371
0.000138117
0.00012888
0.000120656
0.000113244
0.000106508
0.000100805
9.45761e-05
0.000160509
0.00010736
8.07409e-05
6.55976e-05
5.54896e-05
4.83026e-05
4.31311e-05
3.90792e-05
3.57394e-05
3.29499e-05
3.05785e-05
2.85359e-05
2.67756e-05
2.52488e-05
2.39127e-05
2.27367e-05
2.17009e-05
2.07888e-05
1.99938e-05
1.93564e-05
0.000198681
0.0001383
0.000105187
8.55269e-05
7.25012e-05
6.28901e-05
5.60609e-05
5.0759e-05
4.63876e-05
4.27212e-05
3.96242e-05
3.69537e-05
3.46307e-05
3.25989e-05
3.08119e-05
2.92317e-05
2.78269e-05
2.65711e-05
2.54508e-05
2.4563e-05
0.00071288
0.000556432
0.000466397
0.000402355
0.000354425
0.00031705
0.000286674
0.000261254
0.000239579
0.000220842
0.000204437
0.00018994
0.000177029
0.000165446
0.000154982
0.000145493
0.00013684
0.000128896
0.000121563
0.000115028
0.000809324
0.000713906
0.000631505
0.000562574
0.000505377
0.000457786
0.000417841
0.00038394
0.000354804
0.00032945
0.000307157
0.00028738
0.000269702
0.000253797
0.000239406
0.000226325
0.000214378
0.000203393
0.000193134
0.000182868
0.000823497
0.000753987
0.000688491
0.000628748
0.000575387
0.000528266
0.000486845
0.000450441
0.000418362
0.000389973
0.000364727
0.000342161
0.000321893
0.000303602
0.000287025
0.000271936
0.000258135
0.000245407
0.000233406
0.000221259
0.000826292
0.000764347
0.000706102
0.000651936
0.00060223
0.000557103
0.000516427
0.000479911
0.00044718
0.000417832
0.000391475
0.000367748
0.000346331
0.000326937
0.00030932
0.000293259
0.000278545
0.000264939
0.000252012
0.000238642
0.000826292
0.000764347
0.000706102
0.000651936
0.00060223
0.000557103
0.000516428
0.000479912
0.00044718
0.000417832
0.000391475
0.000367749
0.000346331
0.000326938
0.00030932
0.00029326
0.000278548
0.000264944
0.000252024
0.00023871
0.000823497
0.000753987
0.000688491
0.000628748
0.000575387
0.000528266
0.000486845
0.000450441
0.000418362
0.000389973
0.000364727
0.000342161
0.000321893
0.000303602
0.000287025
0.000271937
0.000258136
0.000245407
0.000233406
0.000221259
0.000809324
0.000713906
0.000631505
0.000562574
0.000505377
0.000457786
0.000417841
0.00038394
0.000354804
0.00032945
0.000307156
0.000287379
0.0002697
0.000253794
0.000239402
0.000226317
0.000214363
0.000203369
0.000193098
0.000182842
0.00071288
0.000556432
0.000466397
0.000402355
0.000354425
0.00031705
0.000286674
0.000261254
0.000239579
0.00022084
0.000204435
0.000189936
0.000177023
0.000165436
0.000154968
0.000145467
0.000136796
0.000128828
0.000121469
0.000114829
0.000198681
0.0001383
0.000105187
8.55269e-05
7.25012e-05
6.28901e-05
5.6061e-05
5.07592e-05
4.63878e-05
4.27214e-05
3.96246e-05
3.69543e-05
3.46316e-05
3.26004e-05
3.08143e-05
2.92356e-05
2.78333e-05
2.6582e-05
2.54669e-05
2.45568e-05
0.000218609
0.000155003
0.000118661
9.65068e-05
8.18822e-05
7.08354e-05
6.30852e-05
5.71429e-05
5.22475e-05
4.80949e-05
4.45804e-05
4.15687e-05
3.89472e-05
3.66507e-05
3.46263e-05
3.28306e-05
3.1227e-05
2.97845e-05
2.84834e-05
2.73892e-05
0.000728543
0.000588231
0.000496002
0.000429131
0.000378509
0.000338933
0.000306816
0.000279969
0.000257066
0.000237245
0.000219892
0.000204548
0.000190868
0.000178581
0.000167471
0.000157362
0.000148093
0.000139515
0.000131477
0.000123611
0.000814958
0.000730426
0.000654634
0.000589043
0.000533067
0.000485438
0.000444763
0.000409792
0.000379469
0.00035293
0.000329489
0.000308626
0.000289934
0.00027309
0.00025783
0.000243941
0.00023123
0.000219504
0.000208463
0.000197231
0.000826292
0.000764347
0.000706102
0.000651936
0.00060223
0.000557103
0.000516428
0.000479912
0.00044718
0.000417832
0.000391475
0.000367749
0.000346331
0.000326938
0.000309321
0.00029326
0.000278548
0.000264944
0.000252024
0.000238709
0.000828382
0.0007726
0.000721137
0.00067296
0.000627782
0.00058562
0.000546547
0.000510578
0.000477647
0.000447614
0.000420286
0.000395445
0.000372863
0.000352316
0.00033359
0.000316483
0.000300788
0.000286255
0.00027245
0.000258426
0.000828382
0.0007726
0.000721137
0.00067296
0.000627782
0.00058562
0.000546547
0.000510578
0.000477647
0.000447614
0.000420286
0.000395445
0.000372863
0.000352316
0.00033359
0.000316482
0.000300788
0.000286255
0.00027245
0.000258426
0.000826292
0.000764347
0.000706102
0.000651936
0.00060223
0.000557103
0.000516428
0.000479912
0.00044718
0.000417832
0.000391475
0.000367749
0.000346331
0.000326937
0.00030932
0.000293259
0.000278546
0.000264939
0.000252012
0.000238641
0.000814958
0.000730426
0.000654634
0.000589043
0.000533067
0.000485438
0.000444763
0.000409792
0.000379469
0.00035293
0.000329489
0.000308625
0.000289932
0.000273087
0.000257828
0.000243936
0.000231221
0.000219489
0.000208436
0.00019716
0.000728543
0.000588231
0.000496002
0.000429131
0.000378509
0.000338933
0.000306816
0.000279969
0.000257066
0.000237244
0.00021989
0.000204546
0.000190865
0.000178575
0.000167463
0.000157348
0.00014807
0.000139481
0.000131439
0.000123519
0.000218609
0.000155003
0.000118661
9.65068e-05
8.18823e-05
7.08354e-05
6.30853e-05
5.7143e-05
5.22476e-05
4.80951e-05
4.45806e-05
4.1569e-05
3.89476e-05
3.66514e-05
3.46275e-05
3.28327e-05
3.12307e-05
2.9791e-05
2.84986e-05
2.74576e-05
0.000218609
0.000155003
0.000118661
9.65068e-05
8.18823e-05
7.08354e-05
6.30853e-05
5.7143e-05
5.22476e-05
4.80951e-05
4.45806e-05
4.1569e-05
3.89477e-05
3.66514e-05
3.46275e-05
3.28327e-05
3.12307e-05
2.9791e-05
2.84987e-05
2.74576e-05
0.000728543
0.000588231
0.000496002
0.000429131
0.000378509
0.000338933
0.000306816
0.000279969
0.000257066
0.000237244
0.000219891
0.000204546
0.000190865
0.000178576
0.000167463
0.000157348
0.00014807
0.000139482
0.00013144
0.00012352
0.000814958
0.000730426
0.000654634
0.000589043
0.000533067
0.000485438
0.000444763
0.000409792
0.000379469
0.00035293
0.000329489
0.000308625
0.000289933
0.000273088
0.000257828
0.000243936
0.000231221
0.00021949
0.000208438
0.000197163
0.000826292
0.000764347
0.000706102
0.000651936
0.00060223
0.000557103
0.000516428
0.000479912
0.00044718
0.000417832
0.000391475
0.000367749
0.000346331
0.000326937
0.00030932
0.000293259
0.000278546
0.00026494
0.000252013
0.000238642
0.000828382
0.0007726
0.000721137
0.00067296
0.000627782
0.00058562
0.000546547
0.000510578
0.000477647
0.000447614
0.000420286
0.000395445
0.000372863
0.000352316
0.00033359
0.000316482
0.000300788
0.000286255
0.00027245
0.000258426
0.000828382
0.0007726
0.000721137
0.00067296
0.000627782
0.00058562
0.000546547
0.000510578
0.000477647
0.000447614
0.000420286
0.000395445
0.000372863
0.000352316
0.00033359
0.000316482
0.000300788
0.000286255
0.000272449
0.000258425
0.000826292
0.000764347
0.000706102
0.000651936
0.00060223
0.000557103
0.000516428
0.000479912
0.00044718
0.000417832
0.000391475
0.000367749
0.000346331
0.000326938
0.000309321
0.00029326
0.000278548
0.000264943
0.000252023
0.000238708
0.000814958
0.000730426
0.000654634
0.000589043
0.000533067
0.000485438
0.000444763
0.000409792
0.000379469
0.00035293
0.000329489
0.000308626
0.000289933
0.000273089
0.000257831
0.000243941
0.00023123
0.000219503
0.00020846
0.000197228
0.000728543
0.000588231
0.000496002
0.000429131
0.000378509
0.000338933
0.000306816
0.000279969
0.000257066
0.000237245
0.000219892
0.000204548
0.000190868
0.00017858
0.000167472
0.000157363
0.000148093
0.000139515
0.000131476
0.000123611
0.000218609
0.000155003
0.000118661
9.65068e-05
8.18822e-05
7.08354e-05
6.30852e-05
5.71429e-05
5.22475e-05
4.80949e-05
4.45804e-05
4.15687e-05
3.89472e-05
3.66507e-05
3.46263e-05
3.28306e-05
3.1227e-05
2.97844e-05
2.84834e-05
2.73892e-05
0.000198681
0.0001383
0.000105187
8.55269e-05
7.25012e-05
6.28901e-05
5.6061e-05
5.07592e-05
4.63878e-05
4.27214e-05
3.96246e-05
3.69543e-05
3.46316e-05
3.26004e-05
3.08143e-05
2.92356e-05
2.78333e-05
2.6582e-05
2.5467e-05
2.45568e-05
0.00071288
0.000556432
0.000466397
0.000402355
0.000354425
0.00031705
0.000286674
0.000261254
0.000239579
0.00022084
0.000204435
0.000189936
0.000177023
0.000165436
0.000154968
0.000145467
0.000136796
0.000128828
0.00012147
0.00011483
0.000809324
0.000713906
0.000631505
0.000562574
0.000505377
0.000457786
0.000417841
0.00038394
0.000354804
0.00032945
0.000307156
0.000287379
0.0002697
0.000253794
0.000239402
0.000226317
0.000214363
0.000203369
0.000193098
0.000182843
0.000823497
0.000753987
0.000688491
0.000628748
0.000575387
0.000528266
0.000486845
0.000450441
0.000418362
0.000389973
0.000364727
0.000342161
0.000321893
0.000303602
0.000287025
0.000271936
0.000258135
0.000245406
0.000233405
0.000221258
0.000826292
0.000764347
0.000706102
0.000651936
0.00060223
0.000557103
0.000516428
0.000479912
0.00044718
0.000417832
0.000391475
0.000367749
0.000346331
0.000326938
0.000309321
0.00029326
0.000278547
0.000264943
0.000252023
0.000238708
0.000826292
0.000764347
0.000706102
0.000651936
0.00060223
0.000557103
0.000516427
0.000479912
0.00044718
0.000417832
0.000391475
0.000367749
0.000346331
0.000326937
0.00030932
0.000293258
0.000278545
0.000264939
0.000252011
0.00023864
0.000823497
0.000753987
0.000688491
0.000628748
0.000575387
0.000528266
0.000486845
0.000450441
0.000418362
0.000389973
0.000364727
0.000342161
0.000321893
0.000303602
0.000287025
0.000271936
0.000258135
0.000245406
0.000233405
0.000221257
0.000809324
0.000713906
0.000631505
0.000562574
0.000505377
0.000457786
0.000417841
0.00038394
0.000354804
0.00032945
0.000307157
0.00028738
0.000269702
0.000253796
0.000239406
0.000226326
0.000214378
0.000203392
0.000193132
0.000182866
0.00071288
0.000556432
0.000466397
0.000402355
0.000354425
0.00031705
0.000286674
0.000261254
0.000239579
0.000220842
0.000204437
0.00018994
0.000177029
0.000165444
0.000154983
0.000145494
0.00013684
0.000128897
0.000121563
0.000115029
0.000198681
0.0001383
0.000105187
8.55269e-05
7.25012e-05
6.28901e-05
5.60609e-05
5.0759e-05
4.63876e-05
4.27211e-05
3.96242e-05
3.69537e-05
3.46307e-05
3.25989e-05
3.08119e-05
2.92317e-05
2.78269e-05
2.65711e-05
2.54508e-05
2.4563e-05
0.000160509
0.00010736
8.07409e-05
6.55976e-05
5.54896e-05
4.83026e-05
4.31311e-05
3.90792e-05
3.57394e-05
3.29499e-05
3.05785e-05
2.85359e-05
2.67756e-05
2.52488e-05
2.39127e-05
2.27367e-05
2.1701e-05
2.07888e-05
1.99938e-05
1.93564e-05
0.000663952
0.000488458
0.000404619
0.000347248
0.000305036
0.000272128
0.000245318
0.000222889
0.000203756
0.000187179
0.000172654
0.000159813
0.000148371
0.000138116
0.000128881
0.000120656
0.000113244
0.000106507
0.000100804
9.45749e-05
0.000786828
0.000662293
0.000567975
0.000495805
0.000439464
0.000394562
0.000357975
0.000327452
0.000301491
0.000279051
0.000259399
0.000242005
0.000226477
0.000212518
0.000199899
0.000188452
0.000178026
0.000168484
0.000159668
0.000150055
0.000809324
0.000713906
0.000631505
0.000562574
0.000505377
0.000457786
0.000417841
0.00038394
0.000354804
0.00032945
0.000307157
0.00028738
0.000269702
0.000253797
0.000239405
0.000226325
0.000214377
0.000203391
0.000193132
0.000182865
0.000814958
0.000730426
0.000654634
0.000589043
0.000533067
0.000485438
0.000444763
0.000409792
0.000379469
0.00035293
0.000329489
0.000308626
0.000289934
0.000273089
0.00025783
0.000243941
0.000231229
0.000219503
0.00020846
0.000197228
0.000814958
0.000730426
0.000654634
0.000589043
0.000533067
0.000485438
0.000444763
0.000409792
0.000379469
0.00035293
0.000329489
0.000308625
0.000289933
0.000273088
0.000257827
0.000243935
0.000231221
0.000219488
0.000208437
0.00019716
0.000809324
0.000713906
0.000631505
0.000562574
0.000505377
0.000457786
0.000417841
0.00038394
0.000354804
0.00032945
0.000307156
0.000287379
0.0002697
0.000253794
0.000239402
0.000226317
0.000214363
0.000203368
0.000193097
0.00018284
0.000786828
0.000662293
0.000567975
0.000495805
0.000439464
0.000394562
0.000357975
0.000327452
0.000301491
0.000279051
0.000259399
0.000242005
0.000226477
0.000212518
0.000199899
0.000188452
0.000178026
0.000168484
0.000159669
0.000150055
0.000663952
0.000488458
0.000404619
0.000347248
0.000305036
0.000272128
0.000245319
0.000222889
0.000203756
0.00018718
0.000172656
0.000159816
0.000148376
0.000138123
0.00012889
0.000120672
0.000113272
0.000106554
0.000100877
9.48123e-05
0.000160509
0.00010736
8.07409e-05
6.55976e-05
5.54896e-05
4.83026e-05
4.3131e-05
3.90791e-05
3.57393e-05
3.29497e-05
3.05782e-05
2.85355e-05
2.67749e-05
2.52476e-05
2.39108e-05
2.27337e-05
2.1696e-05
2.07807e-05
1.99776e-05
1.9299e-05
0.000107685
6.77183e-05
5.06311e-05
4.14159e-05
3.54049e-05
3.10368e-05
2.77138e-05
2.50818e-05
2.29338e-05
2.11511e-05
1.96514e-05
1.83726e-05
1.72653e-05
1.62968e-05
1.54553e-05
1.47314e-05
1.4104e-05
1.35652e-05
1.31371e-05
1.28523e-05
0.000528907
0.000369984
0.000305097
0.000261371
0.000228528
0.000202476
0.000181114
0.000163073
0.000147539
0.000133983
0.000122048
0.000111464
0.000102131
9.38563e-05
8.64566e-05
7.96572e-05
7.3462e-05
6.79808e-05
6.37687e-05
5.49783e-05
0.000663952
0.000488458
0.000404619
0.000347248
0.000305036
0.000272128
0.000245319
0.000222889
0.000203756
0.00018718
0.000172656
0.000159816
0.000148376
0.000138123
0.000128889
0.000120672
0.000113271
0.000106554
0.000100876
9.48116e-05
0.00071288
0.000556432
0.000466397
0.000402355
0.000354425
0.00031705
0.000286674
0.000261254
0.000239579
0.000220842
0.000204437
0.00018994
0.000177029
0.000165446
0.000154982
0.000145493
0.00013684
0.000128896
0.000121563
0.000115028
0.000728543
0.000588231
0.000496002
0.000429131
0.000378509
0.000338933
0.000306816
0.000279969
0.000257066
0.000237245
0.000219892
0.000204548
0.000190868
0.000178582
0.000167471
0.000157362
0.000148093
0.000139515
0.000131477
0.000123612
0.000728543
0.000588231
0.000496002
0.000429131
0.000378509
0.000338933
0.000306816
0.000279969
0.000257066
0.000237244
0.000219891
0.000204546
0.000190865
0.000178576
0.000167463
0.000157348
0.00014807
0.000139482
0.00013144
0.00012352
0.00071288
0.000556432
0.000466397
0.000402355
0.000354425
0.00031705
0.000286674
0.000261253
0.000239579
0.00022084
0.000204435
0.000189936
0.000177023
0.000165436
0.000154968
0.000145467
0.000136796
0.000128828
0.000121469
0.000114829
0.000663952
0.000488458
0.000404619
0.000347248
0.000305036
0.000272128
0.000245318
0.000222889
0.000203756
0.000187179
0.000172654
0.000159813
0.000148371
0.000138117
0.00012888
0.000120655
0.000113243
0.000106507
0.000100804
9.45741e-05
0.000528907
0.000369984
0.000305097
0.000261371
0.000228528
0.000202476
0.000181114
0.000163073
0.000147539
0.000133983
0.000122048
0.000111464
0.000102131
9.38561e-05
8.64568e-05
7.96574e-05
7.34623e-05
6.7981e-05
6.37691e-05
5.49786e-05
0.000107685
6.77183e-05
5.06311e-05
4.14159e-05
3.54049e-05
3.10368e-05
2.77138e-05
2.50818e-05
2.29337e-05
2.11511e-05
1.96513e-05
1.83724e-05
1.72651e-05
1.62964e-05
1.54546e-05
1.47301e-05
1.41015e-05
1.35601e-05
1.31268e-05
1.28389e-05
4.5356e-05
2.3208e-05
1.65396e-05
1.36494e-05
1.18966e-05
1.06844e-05
9.76082e-06
9.05717e-06
8.49487e-06
8.03159e-06
7.64096e-06
7.31289e-06
7.02587e-06
6.76293e-06
6.53289e-06
6.33447e-06
6.16349e-06
6.02205e-06
5.93511e-06
5.86584e-06
0.000107685
6.77183e-05
5.06311e-05
4.14159e-05
3.54049e-05
3.10368e-05
2.77138e-05
2.50818e-05
2.29337e-05
2.11511e-05
1.96513e-05
1.83724e-05
1.72651e-05
1.62964e-05
1.54546e-05
1.47301e-05
1.41015e-05
1.35601e-05
1.31268e-05
1.28389e-05
0.000160509
0.00010736
8.07409e-05
6.55976e-05
5.54896e-05
4.83026e-05
4.3131e-05
3.90791e-05
3.57393e-05
3.29497e-05
3.05782e-05
2.85355e-05
2.67749e-05
2.52476e-05
2.39108e-05
2.27337e-05
2.1696e-05
2.07807e-05
1.99776e-05
1.9299e-05
0.000198681
0.0001383
0.000105187
8.55269e-05
7.25012e-05
6.28901e-05
5.60609e-05
5.0759e-05
4.63876e-05
4.27211e-05
3.96242e-05
3.69537e-05
3.46307e-05
3.25989e-05
3.08119e-05
2.92317e-05
2.78269e-05
2.65711e-05
2.54508e-05
2.4563e-05
0.000218609
0.000155003
0.000118661
9.65068e-05
8.18822e-05
7.08354e-05
6.30852e-05
5.71429e-05
5.22475e-05
4.80949e-05
4.45804e-05
4.15687e-05
3.89472e-05
3.66507e-05
3.46263e-05
3.28306e-05
3.1227e-05
2.97844e-05
2.84834e-05
2.73892e-05
0.000218609
0.000155003
0.000118661
9.65068e-05
8.18823e-05
7.08354e-05
6.30853e-05
5.7143e-05
5.22476e-05
4.80951e-05
4.45806e-05
4.1569e-05
3.89477e-05
3.66514e-05
3.46275e-05
3.28327e-05
3.12307e-05
2.9791e-05
2.84986e-05
2.74576e-05
0.000198681
0.0001383
0.000105187
8.55269e-05
7.25012e-05
6.28901e-05
5.6061e-05
5.07592e-05
4.63878e-05
4.27214e-05
3.96246e-05
3.69543e-05
3.46316e-05
3.26004e-05
3.08143e-05
2.92356e-05
2.78333e-05
2.6582e-05
2.54669e-05
2.45568e-05
0.000160509
0.00010736
8.07409e-05
6.55976e-05
5.54896e-05
4.83026e-05
4.31311e-05
3.90792e-05
3.57394e-05
3.29499e-05
3.05785e-05
2.85359e-05
2.67756e-05
2.52488e-05
2.39127e-05
2.27367e-05
2.17009e-05
2.07888e-05
1.99937e-05
1.93563e-05
0.000107685
6.77183e-05
5.06311e-05
4.14159e-05
3.54049e-05
3.10368e-05
2.77138e-05
2.50818e-05
2.29337e-05
2.11511e-05
1.96514e-05
1.83726e-05
1.72653e-05
1.62968e-05
1.54553e-05
1.47314e-05
1.4104e-05
1.35652e-05
1.3137e-05
1.28523e-05
4.5356e-05
2.3208e-05
1.65396e-05
1.36494e-05
1.18966e-05
1.06844e-05
9.76082e-06
9.05717e-06
8.49487e-06
8.03159e-06
7.64096e-06
7.31288e-06
7.02586e-06
6.76293e-06
6.53289e-06
6.33446e-06
6.16348e-06
6.02204e-06
5.93509e-06
5.8658e-06
5.73656e-06
5.28096e-06
4.8612e-06
4.60669e-06
4.44529e-06
4.34004e-06
4.25839e-06
4.18951e-06
4.1325e-06
4.085e-06
4.04428e-06
4.00676e-06
3.97104e-06
3.93834e-06
3.90925e-06
3.88303e-06
3.85932e-06
3.83772e-06
3.81817e-06
3.80077e-06
3.78524e-06
3.7713e-06
3.75993e-06
3.74883e-06
3.74036e-06
3.73236e-06
3.72411e-06
3.71668e-06
3.71101e-06
3.70639e-06
3.70301e-06
3.69882e-06
3.69419e-06
3.69043e-06
3.68863e-06
3.68786e-06
3.68803e-06
3.68711e-06
3.68563e-06
3.68348e-06
1.1132e-05
1.04773e-05
9.87412e-06
9.43249e-06
9.14048e-06
8.92634e-06
8.74495e-06
8.58409e-06
8.44575e-06
8.32641e-06
8.21614e-06
8.11727e-06
8.0285e-06
7.94577e-06
7.87021e-06
7.80348e-06
7.74086e-06
7.68409e-06
7.63408e-06
7.59025e-06
7.55146e-06
7.51732e-06
7.48747e-06
7.46234e-06
7.44045e-06
7.42291e-06
7.40719e-06
7.39251e-06
7.37806e-06
7.36556e-06
7.35517e-06
7.34672e-06
7.33936e-06
7.33191e-06
7.32466e-06
7.32193e-06
7.31977e-06
7.31848e-06
7.31823e-06
7.31694e-06
1.58975e-05
1.52014e-05
1.45992e-05
1.41169e-05
1.37299e-05
1.33817e-05
1.30753e-05
1.28046e-05
1.25656e-05
1.23506e-05
1.21559e-05
1.19827e-05
1.18239e-05
1.16817e-05
1.1552e-05
1.14443e-05
1.13284e-05
1.12252e-05
1.11451e-05
1.1073e-05
1.10095e-05
1.09538e-05
1.08875e-05
1.08549e-05
1.0821e-05
1.07871e-05
1.07564e-05
1.073e-05
1.07068e-05
1.06816e-05
1.06594e-05
1.06414e-05
1.06277e-05
1.06165e-05
1.0599e-05
1.0598e-05
1.05939e-05
1.05902e-05
1.05885e-05
1.0589e-05
1.97494e-05
1.9072e-05
1.84517e-05
1.78963e-05
1.74014e-05
1.69584e-05
1.6556e-05
1.61917e-05
1.58599e-05
1.55576e-05
1.52814e-05
1.50291e-05
1.47974e-05
1.45856e-05
1.43932e-05
1.42193e-05
1.40632e-05
1.39239e-05
1.38029e-05
1.36932e-05
1.3597e-05
1.35128e-05
1.34376e-05
1.33695e-05
1.33146e-05
1.32597e-05
1.31944e-05
1.31474e-05
1.3121e-05
1.30741e-05
1.3055e-05
1.30369e-05
1.30181e-05
1.30029e-05
1.29932e-05
1.29865e-05
1.29813e-05
1.29725e-05
1.29682e-05
1.2969e-05
2.34098e-05
2.20221e-05
2.11104e-05
2.03947e-05
1.97832e-05
1.92463e-05
1.87727e-05
1.83482e-05
1.79582e-05
1.75994e-05
1.72688e-05
1.69644e-05
1.66833e-05
1.64252e-05
1.61891e-05
1.59746e-05
1.5781e-05
1.56077e-05
1.5452e-05
1.5314e-05
1.51918e-05
1.50863e-05
1.49935e-05
1.49098e-05
1.48319e-05
1.47652e-05
1.47061e-05
1.46553e-05
1.46077e-05
1.45635e-05
1.45368e-05
1.45046e-05
1.44764e-05
1.44549e-05
1.44347e-05
1.4433e-05
1.44275e-05
1.44175e-05
1.441e-05
1.44093e-05
2.42472e-05
2.29666e-05
2.2046e-05
2.12728e-05
2.06078e-05
2.00252e-05
1.95079e-05
1.90511e-05
1.8633e-05
1.82455e-05
1.78871e-05
1.75562e-05
1.72503e-05
1.69697e-05
1.67152e-05
1.64856e-05
1.62792e-05
1.60939e-05
1.59284e-05
1.57813e-05
1.56514e-05
1.55374e-05
1.54374e-05
1.53472e-05
1.52637e-05
1.51906e-05
1.51278e-05
1.50739e-05
1.50259e-05
1.49829e-05
1.49493e-05
1.49124e-05
1.48829e-05
1.48597e-05
1.48412e-05
1.48269e-05
1.4829e-05
1.48236e-05
1.48162e-05
1.48101e-05
2.30755e-05
2.19553e-05
2.10714e-05
2.03488e-05
1.97176e-05
1.91576e-05
1.86577e-05
1.82105e-05
1.77996e-05
1.74213e-05
1.70735e-05
1.67545e-05
1.64615e-05
1.61943e-05
1.59525e-05
1.57348e-05
1.55397e-05
1.53657e-05
1.5211e-05
1.50746e-05
1.49538e-05
1.48484e-05
1.47559e-05
1.46698e-05
1.45899e-05
1.45206e-05
1.44599e-05
1.44095e-05
1.43659e-05
1.43265e-05
1.42918e-05
1.42571e-05
1.42295e-05
1.42097e-05
1.41942e-05
1.41771e-05
1.41804e-05
1.41757e-05
1.41698e-05
1.41655e-05
1.98596e-05
1.91559e-05
1.84681e-05
1.78333e-05
1.72639e-05
1.67638e-05
1.6321e-05
1.5924e-05
1.55657e-05
1.52409e-05
1.49462e-05
1.46781e-05
1.44335e-05
1.42112e-05
1.40114e-05
1.38326e-05
1.36723e-05
1.3531e-05
1.34048e-05
1.32959e-05
1.3198e-05
1.31128e-05
1.30378e-05
1.29659e-05
1.29003e-05
1.28434e-05
1.27948e-05
1.27547e-05
1.2721e-05
1.26889e-05
1.26581e-05
1.2632e-05
1.2611e-05
1.25963e-05
1.2587e-05
1.25745e-05
1.25754e-05
1.25686e-05
1.25633e-05
1.25602e-05
1.63798e-05
1.54998e-05
1.46672e-05
1.39881e-05
1.35041e-05
1.31083e-05
1.27765e-05
1.24941e-05
1.22416e-05
1.20127e-05
1.18071e-05
1.16244e-05
1.14557e-05
1.13001e-05
1.11642e-05
1.10415e-05
1.09315e-05
1.08325e-05
1.07452e-05
1.0669e-05
1.06017e-05
1.05416e-05
1.04841e-05
1.04184e-05
1.03712e-05
1.03324e-05
1.02988e-05
1.02698e-05
1.0245e-05
1.02149e-05
1.01979e-05
1.01773e-05
1.01636e-05
1.0155e-05
1.01472e-05
1.01434e-05
1.01411e-05
1.01352e-05
1.01313e-05
1.01285e-05
1.14195e-05
1.07088e-05
9.98903e-06
9.44241e-06
9.07981e-06
8.82531e-06
8.62261e-06
8.44781e-06
8.30782e-06
8.17575e-06
8.06811e-06
7.97424e-06
7.86942e-06
7.77576e-06
7.69794e-06
7.62709e-06
7.5629e-06
7.5048e-06
7.45318e-06
7.40747e-06
7.36776e-06
7.33421e-06
7.30144e-06
7.27098e-06
7.24626e-06
7.22603e-06
7.20839e-06
7.19183e-06
7.17502e-06
7.15916e-06
7.14769e-06
7.13948e-06
7.13265e-06
7.1268e-06
7.12171e-06
7.11946e-06
7.11601e-06
7.11244e-06
7.10982e-06
7.10666e-06
5.73657e-06
5.281e-06
4.86127e-06
4.60678e-06
4.44551e-06
4.34032e-06
4.25864e-06
4.18965e-06
4.13268e-06
4.08468e-06
4.04454e-06
4.00655e-06
3.9703e-06
3.9376e-06
3.90876e-06
3.88282e-06
3.85925e-06
3.83766e-06
3.81813e-06
3.80073e-06
3.78516e-06
3.77128e-06
3.75997e-06
3.74904e-06
3.74052e-06
3.73241e-06
3.72408e-06
3.71656e-06
3.71074e-06
3.70598e-06
3.70256e-06
3.69856e-06
3.69441e-06
3.69131e-06
3.68971e-06
3.68974e-06
3.68889e-06
3.68698e-06
3.68452e-06
3.68097e-06
1.14195e-05
1.07087e-05
9.98898e-06
9.44243e-06
9.07899e-06
8.8244e-06
8.62183e-06
8.44737e-06
8.3072e-06