/*--------------------------------*- C++ -*----------------------------------*\
| =========                 |                                                 |
| \\      /  F ield         | OpenFOAM: The Open Source CFD Toolbox           |
|  \\    /   O peration     | Version:  2212                                  |
|   \\  /    A nd           | Website:  www.openfoam.com                      |
|    \\/     M anipulation  |                                                 |
\*---------------------------------------------------------------------------*/
FoamFile
{
    version     2.0;
    format      ascii;
    arch        "LSB;label=32;scalar=64";
    class       surfaceVectorField;
    location    "0.8";
    object      Uf;
}
// * * * * * * * * * * * * * * * * * * * * * * * * * * * * * * * * * * * * * //

dimensions      [0 1 -1 0 0 0 0];

internalField   nonuniform List<vector> 
19019
(
(0.0993441 -0.00341902 -0.00341902)
(0.0973536 0.00106248 -0.00148428)
(0.0973536 -0.00148428 0.00106247)
(0.0834792 0.00197585 0.00197584)
(0.0930873 0.00326898 0.00253348)
(0.0930873 0.00253348 0.00326896)
(0.0745173 0.0019587 0.00195869)
(0.0848642 0.00163582 0.00179237)
(0.0848642 0.00179236 0.00163578)
(0.0685482 0.00115905 0.00115906)
(0.0786284 0.00107346 0.00122142)
(0.0786284 0.0012214 0.00107341)
(0.0642369 0.000696897 0.000696947)
(0.0740537 0.000785226 0.000865271)
(0.0740537 0.000865199 0.000785192)
(0.060758 0.000494616 0.000494794)
(0.0704436 0.000650318 0.000669621)
(0.0704436 0.000669494 0.000650276)
(0.0579393 0.000374456 0.000374898)
(0.0674935 0.000546388 0.000509224)
(0.0674935 0.000508919 0.000546402)
(0.0556171 0.000287346 0.000288148)
(0.0650538 0.000468191 0.000388695)
(0.0650537 0.000388104 0.000468279)
(0.0536297 0.000225967 0.0002273)
(0.0629709 0.000414035 0.000309921)
(0.0629708 0.000308923 0.000414221)
(0.0518878 0.000181467 0.000183768)
(0.0611397 0.00037072 0.000258467)
(0.0611395 0.000256803 0.000371096)
(0.0503426 0.000148346 0.000152335)
(0.0595012 0.000331104 0.000225798)
(0.0595011 0.000222752 0.000331919)
(0.0489632 0.000122184 0.000128402)
(0.0580227 0.000293582 0.000205594)
(0.0580228 0.00020031 0.000295111)
(0.0477247 9.94049e-05 0.000108238)
(0.0566805 0.000259121 0.000192756)
(0.0566808 0.000185554 0.000261328)
(0.0466057 7.68628e-05 8.98225e-05)
(0.0554543 0.000227995 0.0001852)
(0.0554544 0.000175931 0.000230947)
(0.0456115 5.2034e-05 7.15095e-05)
(0.054343 0.000193545 0.000181521)
(0.0543427 0.000167547 0.000197743)
(0.0447604 3.40869e-05 4.69855e-05)
(0.0533548 0.000152672 0.00018065)
(0.0533534 0.00015869 0.000158638)
(0.0440967 -1.5364e-05 3.06076e-06)
(0.0525265 0.000107282 0.000171741)
(0.0525227 0.00015289 0.000100463)
(0.044006 -0.000127026 -9.87476e-05)
(0.0520414 -1.89205e-05 0.000114064)
(0.0520315 5.41694e-05 -2.49447e-05)
(0.045171 -0.00134847 -0.00121052)
(0.0524007 -0.000263411 -5.15699e-05)
(0.0524159 -0.000142056 -0.00032089)
(0.0511082 -0.00266288 -0.00208033)
(0.0511656 -0.00241149 -0.00260242)
(0.0984572 0.00247642 0.00172991)
(0.0996871 0.000439217 0.000345484)
(0.100049 0.00105638 0.000750971)
(0.0958349 0.003148 0.0024327)
(0.0978162 0.0027327 0.0022823)
(0.0982937 0.00280916 0.00216148)
(0.0914502 0.00223022 0.00186936)
(0.0954961 0.00300155 0.00230318)
(0.0963041 0.00244255 0.00199783)
(0.0875957 0.00167438 0.00150557)
(0.0926194 0.00229907 0.00183886)
(0.0936672 0.00198051 0.00172702)
(0.0841485 0.00143961 0.00127594)
(0.0897678 0.00189135 0.00153584)
(0.0909053 0.00171935 0.00149799)
(0.0811892 0.00126471 0.00102929)
(0.087233 0.00165546 0.00129509)
(0.0884355 0.00145401 0.00121226)
(0.0787034 0.00110901 0.000794939)
(0.085008 0.0014903 0.00107793)
(0.0863067 0.00118267 0.000909572)
(0.0765603 0.000990093 0.000626932)
(0.083063 0.00136864 0.000914695)
(0.0844836 0.000981512 0.000692283)
(0.0746569 0.000901676 0.000521241)
(0.0813281 0.00127364 0.000804039)
(0.0828852 0.000842592 0.000551323)
(0.0729328 0.000825112 0.000458247)
(0.0797521 0.00118588 0.000730549)
(0.0814562 0.000740124 0.000460099)
(0.0713524 0.00074925 0.000422279)
(0.078307 0.00109841 0.000686491)
(0.0801651 0.000654679 0.000399929)
(0.0698951 0.000672981 0.000401924)
(0.0769714 0.00100994 0.000662566)
(0.0789871 0.000578218 0.00035875)
(0.0685476 0.000600606 0.000392281)
(0.0757286 0.000919223 0.000651414)
(0.0779045 0.000511169 0.000331404)
(0.0672999 0.000528001 0.000391517)
(0.0745677 0.000824843 0.000650214)
(0.0769126 0.000453744 0.000315864)
(0.0661587 0.000443193 0.000396924)
(0.0734884 0.000717061 0.000657476)
(0.0760166 0.000391374 0.000304683)
(0.0651466 0.000321736 0.000397686)
(0.0724996 0.000584443 0.000669881)
(0.0752263 0.000316378 0.000294244)
(0.0643514 0.000101115 0.000333348)
(0.0716402 0.000388382 0.000671672)
(0.0745768 0.000199202 0.000270564)
(0.0640601 -0.000334568 0.000125199)
(0.0710236 1.32612e-06 0.000585748)
(0.0741651 -4.48768e-05 0.000131501)
(0.0650129 -0.0016272 -0.000845288)
(0.0709004 -0.00077873 0.000357728)
(0.0741457 -0.000624403 -0.000344496)
(0.0697116 -0.00311019 -0.000886952)
(0.0734605 -0.00266516 -0.00260924)
(0.0993753 0.00118207 0.00107257)
(0.099473 0.000349735 0.00030706)
(0.0997475 0.000610958 0.000779886)
(0.0984949 0.00229592 0.00203197)
(0.0990504 0.0015767 0.00172048)
(0.0995971 0.00201821 0.00200291)
(0.0971414 0.00247619 0.00204871)
(0.0983578 0.00213088 0.00216894)
(0.0992973 0.00246132 0.00210251)
(0.0954397 0.00224647 0.00176755)
(0.0971934 0.00203538 0.00200253)
(0.0984885 0.00237411 0.00190276)
(0.0937511 0.00201959 0.00152276)
(0.0959053 0.00185497 0.00175459)
(0.0974227 0.00218028 0.00168898)
(0.0921386 0.00186268 0.00134517)
(0.0946719 0.00173164 0.00154311)
(0.0963101 0.00198369 0.0015088)
(0.0906022 0.001751 0.00121605)
(0.0934819 0.00165084 0.00138724)
(0.0952053 0.00179982 0.00134358)
(0.0891523 0.00165107 0.00111568)
(0.0923683 0.00157355 0.00126687)
(0.0941493 0.00164162 0.00120528)
(0.0878056 0.00154292 0.00103532)
(0.0913318 0.00147593 0.00117426)
(0.0931678 0.00149964 0.00109831)
(0.0865632 0.00142811 0.000976462)
(0.0903421 0.00136175 0.00110754)
(0.0922644 0.00136642 0.00101814)
(0.0854098 0.00131373 0.000940433)
(0.089411 0.00124435 0.00106445)
(0.0914393 0.00124354 0.000964394)
(0.0843291 0.0012008 0.000923694)
(0.0885296 0.00112559 0.00104149)
(0.0906834 0.00113074 0.000932747)
(0.083308 0.0010832 0.000921762)
(0.0876836 0.00100465 0.00103486)
(0.0899864 0.00102297 0.000918155)
(0.082342 0.000950569 0.000930921)
(0.0868626 0.000875872 0.00104272)
(0.0893429 0.000910773 0.000915457)
(0.0814333 0.000788424 0.000946942)
(0.0860595 0.000725326 0.00106351)
(0.0887522 0.000783589 0.000923783)
(0.0806008 0.000569871 0.000961413)
(0.08527 0.000529836 0.00109504)
(0.0882205 0.000624651 0.000937039)
(0.0798819 0.000212467 0.000955458)
(0.0844974 0.000244122 0.00113567)
(0.0877651 0.000402546 0.000943701)
(0.0792888 -0.000420826 0.000913921)
(0.0837301 -0.000199995 0.00118558)
(0.0873948 3.20877e-05 0.000922986)
(0.0788368 -0.00163236 0.000729408)
(0.0829473 -0.000975616 0.00123202)
(0.087101 -0.0005854 0.000867639)
(0.0818203 -0.00214398 0.00134617)
(0.0865884 -0.00172188 0.000628926)
(0.0996493 0.000650224 0.000931421)
(0.0994625 0.000129354 0.000192489)
(0.0997993 0.000375093 0.000741366)
(0.0990855 0.00127871 0.00182773)
(0.0992625 0.000636775 0.00137062)
(0.0998409 0.00115025 0.00181423)
(0.0984492 0.00154039 0.00210315)
(0.0989129 0.000973207 0.00200361)
(0.0999048 0.00153623 0.0020902)
(0.0977076 0.00154628 0.00198911)
(0.0982949 0.00104968 0.00205078)
(0.0997674 0.00163125 0.00202316)
(0.0969392 0.00147916 0.00177645)
(0.097657 0.00100691 0.00189993)
(0.0995095 0.00160889 0.00189603)
(0.0962072 0.00142573 0.00158272)
(0.0970639 0.0009591 0.00169885)
(0.0991994 0.00154645 0.00175233)
(0.095521 0.00139021 0.00143612)
(0.0965041 0.000931596 0.00152161)
(0.0988544 0.00147279 0.00162693)
(0.0948702 0.00134891 0.00133054)
(0.0959899 0.000914029 0.00138069)
(0.0985101 0.00138989 0.00151688)
(0.0942333 0.00128572 0.0012614)
(0.0955189 0.000897831 0.00128116)
(0.0981759 0.00129457 0.00142267)
(0.0936026 0.00119749 0.00121789)
(0.09506 0.000861709 0.00122161)
(0.0978278 0.0011863 0.00134836)
(0.0929798 0.00109199 0.0011923)
(0.0945974 0.000798371 0.00119217)
(0.0974881 0.00107363 0.00129858)
(0.0923608 0.000977144 0.0011828)
(0.0941282 0.000721292 0.00118469)
(0.0971576 0.000961202 0.00126997)
(0.0917376 0.000854812 0.00118888)
(0.0936433 0.000638552 0.0011928)
(0.0968303 0.000847875 0.00125965)
(0.0910987 0.000718181 0.00121168)
(0.0931258 0.000548907 0.0012184)
(0.0965004 0.00072896 0.00126878)
(0.0904278 0.000550981 0.00125363)
(0.0925596 0.000445409 0.00126723)
(0.0961603 0.000592874 0.00129943)
(0.0897041 0.000318186 0.00132196)
(0.0919188 0.000308652 0.00134657)
(0.0957992 0.000423713 0.00135722)
(0.088893 -2.96755e-05 0.0014311)
(0.0911623 0.000106597 0.00147749)
(0.0954004 0.000186682 0.00145504)
(0.0879284 -0.000575335 0.00158947)
(0.0902024 -0.000191658 0.00168265)
(0.0949293 -0.000155188 0.00161044)
(0.0867062 -0.00136472 0.00194682)
(0.0889603 -0.000690057 0.0019389)
(0.0943348 -0.000670406 0.00183178)
(0.0876227 -0.00127649 0.00283229)
(0.0937533 -0.00130934 0.0023097)
(0.0996725 0.000154023 0.000629474)
(0.0993801 -3.87783e-09 5.89314e-05)
(0.0997132 0.000103906 0.000687949)
(0.099159 0.000353229 0.00154427)
(0.0992677 -1.43552e-08 0.00120002)
(0.0998376 0.000341574 0.0016223)
(0.0986635 0.000457639 0.00194755)
(0.0989803 -2.18302e-08 0.00188852)
(0.0999629 0.000485345 0.00199142)
(0.098212 0.00048067 0.00196075)
(0.0984744 -3.02722e-08 0.00200659)
(0.0999917 0.000539421 0.00199673)
(0.0977756 0.000471344 0.00182503)
(0.0979951 -3.94519e-08 0.00191491)
(0.100009 0.000546053 0.00191133)
(0.0973614 0.00045773 0.00164155)
(0.0975698 -4.34152e-08 0.00173512)
(0.100007 0.000532921 0.00180484)
(0.0969921 0.000445103 0.00146885)
(0.097179 -2.70392e-08 0.00154792)
(0.0999798 0.000510529 0.00168375)
(0.0966696 0.000435049 0.00133097)
(0.0968273 9.48961e-09 0.00138968)
(0.0999366 0.000483493 0.00157403)
(0.0963856 0.00042513 0.00123779)
(0.096524 9.42758e-08 0.00127206)
(0.0998943 0.000458601 0.0014839)
(0.0961134 0.000407749 0.00119129)
(0.0962638 2.42596e-07 0.00120311)
(0.099858 0.000433038 0.00142286)
(0.0958238 0.000379189 0.00118087)
(0.0959799 4.99823e-07 0.00117871)
(0.0997979 0.000400185 0.00138707)
(0.0955006 0.000341518 0.00119217)
(0.09567 9.15023e-07 0.00118174)
(0.0997183 0.000360789 0.00136717)
(0.09513 0.000297619 0.00122088)
(0.0953269 1.55808e-06 0.0012004)
(0.0996133 0.000317534 0.00136655)
(0.0946926 0.000249758 0.00127406)
(0.0949282 2.94887e-06 0.00123704)
(0.0994665 0.000270874 0.00139246)
(0.0941627 0.000191368 0.00136292)
(0.0944544 4.65355e-06 0.00130279)
(0.0992685 0.00022022 0.00144982)
(0.0934945 0.000107526 0.00150907)
(0.0938713 6.86069e-06 0.00140962)
(0.0989988 0.000156318 0.0015541)
(0.0926078 -2.03251e-05 0.00174153)
(0.0931202 7.52577e-06 0.00158805)
(0.0986206 6.77396e-05 0.00173529)
(0.0913889 -0.000234903 0.00205189)
(0.0920821 2.02834e-06 0.00186831)
(0.0980643 -6.00725e-05 0.00202651)
(0.089673 -0.000408406 0.00286888)
(0.0906513 -1.927e-05 0.00223221)
(0.0972928 -0.000260568 0.00241856)
(0.0891086 -1.16287e-05 0.00338548)
(0.0966384 -0.000339916 0.00343914)
(0.0996725 -0.000154036 0.00062948)
(0.0994625 -0.000129358 0.000192494)
(0.0997132 -0.000103911 0.00068795)
(0.099159 -0.00035326 0.00154428)
(0.0992625 -0.000636793 0.00137063)
(0.0998376 -0.000341593 0.0016223)
(0.0986635 -0.000457688 0.00194756)
(0.0989128 -0.000973243 0.00200362)
(0.0999629 -0.000485379 0.00199143)
(0.0982119 -0.000480737 0.00196074)
(0.0982949 -0.00104974 0.00205077)
(0.0999916 -0.00053947 0.00199673)
(0.0977756 -0.000471423 0.001825)
(0.097657 -0.00100698 0.0018999)
(0.100009 -0.00054611 0.00191131)
(0.0973614 -0.000457788 0.00164149)
(0.0970639 -0.000959179 0.0016988)
(0.100007 -0.000532967 0.00180478)
(0.0969922 -0.000445096 0.00146875)
(0.0965042 -0.000931643 0.00152155)
(0.0999799 -0.000510533 0.00168366)
(0.0966697 -0.000434913 0.00133077)
(0.09599 -0.000914019 0.00138059)
(0.0999367 -0.000483416 0.00157388)
(0.0963859 -0.000424754 0.00123738)
(0.0955192 -0.000897658 0.00128091)
(0.0998945 -0.00045834 0.00148361)
(0.0961141 -0.000406956 0.00119052)
(0.0950607 -0.000861335 0.00122098)
(0.0998584 -0.000432397 0.00142235)
(0.0958251 -0.000377716 0.00117958)
(0.0945987 -0.000797718 0.00119097)
(0.0997987 -0.00039886 0.00138624)
(0.0955032 -0.000338982 0.00118997)
(0.0941308 -0.000720307 0.00118247)
(0.0997197 -0.000358363 0.00136583)
(0.0951348 -0.000292973 0.00121655)
(0.0936482 -0.000636966 0.00118903)
(0.0996164 -0.000313589 0.00136411)
(0.0947017 -0.000241927 0.00126576)
(0.0931348 -0.000545709 0.00121186)
(0.0994725 -0.000264068 0.00138775)
(0.0941791 -0.000179613 0.0013495)
(0.0925752 -0.000441054 0.0012557)
(0.0992783 -0.000209472 0.00144211)
(0.0935198 -9.17147e-05 0.00148861)
(0.0919439 -0.000299071 0.00132761)
(0.0990146 -0.000140004 0.00154233)
(0.0926426 3.80479e-05 0.00171484)
(0.0911995 -9.22931e-05 0.00144535)
(0.0986431 -4.45837e-05 0.00171813)
(0.0914206 0.000241239 0.00204864)
(0.0902604 0.000214644 0.00163752)
(0.0980999 9.119e-05 0.00200962)
(0.0896637 0.000400686 0.00274881)
(0.089025 0.000701311 0.00192278)
(0.0973231 0.000293684 0.00243648)
(0.0877052 0.00146378 0.0025823)
(0.0966104 0.000401617 0.00344557)
(0.0996493 -0.000650233 0.000931427)
(0.099473 -0.000349736 0.000307061)
(0.0997993 -0.000375096 0.000741368)
(0.0990854 -0.00127873 0.00182773)
(0.0990504 -0.0015767 0.00172048)
(0.0998409 -0.00115026 0.00181424)
(0.0984492 -0.00154044 0.00210314)
(0.0983578 -0.0021309 0.00216892)
(0.0999047 -0.00153626 0.0020902)
(0.0977075 -0.00154634 0.00198908)
(0.0971933 -0.00203543 0.0020025)
(0.0997674 -0.0016313 0.00202313)
(0.0969391 -0.00147922 0.00177641)
(0.0959053 -0.00185503 0.00175454)
(0.0995094 -0.00160895 0.00189596)
(0.0962072 -0.00142577 0.00158267)
(0.0946719 -0.00173169 0.00154302)
(0.0991994 -0.00154651 0.00175222)
(0.0955211 -0.00139022 0.00143606)
(0.093482 -0.00165089 0.00138712)
(0.0988545 -0.00147283 0.00162678)
(0.0948704 -0.00134882 0.00133038)
(0.0923684 -0.00157362 0.00126668)
(0.0985102 -0.00138991 0.00151664)
(0.094234 -0.00128546 0.00126093)
(0.0913322 -0.00147599 0.0011739)
(0.0981763 -0.00129452 0.00142225)
(0.093604 -0.00119709 0.00121682)
(0.0903428 -0.00136182 0.0011068)
(0.0978286 -0.00118613 0.00134759)
(0.0929825 -0.00109152 0.00119016)
(0.0894125 -0.00124451 0.00106314)
(0.0974896 -0.00107339 0.00129723)
(0.0923658 -0.000976562 0.00117899)
(0.0885325 -0.00112601 0.00103903)
(0.0971607 -0.000960981 0.00126754)
(0.0917465 -0.000853809 0.00118285)
(0.0876889 -0.00100542 0.00103069)
(0.0968362 -0.000847949 0.00125538)
(0.0911142 -0.000717154 0.00120182)
(0.0868715 -0.000876936 0.00103623)
(0.0965105 -0.000729427 0.00126185)
(0.0904538 -0.000547149 0.00123649)
(0.0860737 -0.000727389 0.00105287)
(0.0961772 -0.000593726 0.00128836)
(0.0897463 -0.000309469 0.00129154)
(0.0852923 -0.000529397 0.00107613)
(0.0958265 -0.000421471 0.00133945)
(0.0889613 4.41991e-05 0.00138172)
(0.0845327 -0.000243959 0.00110395)
(0.0954435 -0.000182843 0.00142556)
(0.0880315 0.00058682 0.00153475)
(0.0837843 0.00020614 0.00113384)
(0.0949975 0.000163056 0.00156811)
(0.0868315 0.00145033 0.00181483)
(0.0830328 0.000973195 0.00117318)
(0.0944523 0.000670113 0.00179896)
(0.082074 0.0023467 0.00111026)
(0.0939946 0.00140932 0.00218044)
(0.0993753 -0.00118207 0.00107257)
(0.0996871 -0.000439212 0.000345481)
(0.0997475 -0.000610957 0.000779887)
(0.0984948 -0.00229592 0.00203195)
(0.0978162 -0.0027327 0.00228229)
(0.0995971 -0.00201821 0.0020029)
(0.0971414 -0.00247621 0.00204867)
(0.0954961 -0.00300154 0.00230315)
(0.0992973 -0.00246133 0.00210247)
(0.0954397 -0.00224651 0.00176749)
(0.0926194 -0.00229906 0.00183882)
(0.0984885 -0.00237414 0.00190271)
(0.0937511 -0.00201965 0.00152267)
(0.0897678 -0.00189136 0.00153577)
(0.0974227 -0.00218033 0.0016889)
(0.0921386 -0.00186276 0.00134503)
(0.0872329 -0.00165549 0.00129499)
(0.0963101 -0.00198378 0.00150869)
(0.0906022 -0.00175114 0.00121582)
(0.0850079 -0.00149034 0.00107778)
(0.0952054 -0.00179994 0.0013434)
(0.0891525 -0.00165131 0.0011153)
(0.083063 -0.0013687 0.000914427)
(0.0941494 -0.00164182 0.00120496)
(0.0878061 -0.00154331 0.0010347)
(0.0813281 -0.00127375 0.000803581)
(0.0931681 -0.0015 0.00109779)
(0.0865642 -0.00142879 0.000975494)
(0.0797523 -0.00118614 0.000729754)
(0.0922651 -0.00136709 0.00101727)
(0.0854118 -0.00131487 0.000938822)
(0.0783075 -0.00109902 0.000685007)
(0.0914406 -0.0012447 0.000962972)
(0.0843325 -0.00120262 0.000920865)
(0.0769726 -0.00101102 0.000659829)
(0.0906858 -0.00113282 0.00093035)
(0.0833136 -0.00108582 0.000917057)
(0.0757309 -0.000920556 0.000647811)
(0.0899905 -0.00102661 0.000914329)
(0.0823509 -0.000954005 0.000923401)
(0.0745709 -0.00082645 0.000645833)
(0.0893489 -0.000916568 0.000909888)
(0.0814462 -0.000791556 0.000933827)
(0.0734923 -0.000719054 0.000651047)
(0.0887612 -0.000792251 0.000915832)
(0.0806218 -0.000572626 0.000939562)
(0.0725043 -0.000586364 0.00065774)
(0.0882344 -0.000636514 0.000925017)
(0.0799177 -0.000213018 0.000918969)
(0.0716459 -0.000397191 0.000646208)
(0.0877881 -0.000419944 0.000925631)
(0.0793393 0.000417131 0.000857394)
(0.0710259 -1.03716e-06 0.000530755)
(0.087432 -5.56666e-05 0.000894627)
(0.0788779 0.00176556 0.000563483)
(0.0709446 0.000788205 0.000265787)
(0.0871685 0.000539843 0.000836276)
(0.0698915 0.00318135 -0.00117079)
(0.0867555 0.00180119 0.000495451)
(0.0984572 -0.00247641 0.0017299)
(0.0973536 -0.00106247 -0.00148428)
(0.100049 -0.00105638 0.000750973)
(0.0958349 -0.00314798 0.00243269)
(0.0930873 -0.00326896 0.00253348)
(0.0982937 -0.00280916 0.00216148)
(0.0914502 -0.00223018 0.00186932)
(0.0848642 -0.00163578 0.00179236)
(0.0963041 -0.00244254 0.00199783)
(0.0875956 -0.00167434 0.00150551)
(0.0786284 -0.00107341 0.00122139)
(0.0936672 -0.00198051 0.001727)
(0.0841485 -0.00143957 0.00127584)
(0.0740537 -0.000785195 0.000865194)
(0.0909053 -0.00171936 0.00149796)
(0.0811891 -0.00126463 0.00102914)
(0.0704436 -0.000650279 0.00066949)
(0.0884355 -0.00145404 0.0012122)
(0.0787033 -0.00110885 0.000794692)
(0.0674935 -0.000546406 0.000508914)
(0.0863066 -0.00118271 0.000909481)
(0.0765601 -0.000989832 0.000626494)
(0.0650537 -0.000468282 0.000388101)
(0.0844835 -0.000981574 0.000692112)
(0.0746567 -0.000901325 0.000520461)
(0.0629708 -0.000414223 0.000308921)
(0.0828851 -0.000842748 0.000550991)
(0.0729326 -0.00082468 0.000456704)
(0.0611395 -0.000371095 0.000256802)
(0.0814561 -0.000740509 0.000459439)
(0.0713524 -0.000748689 0.000419308)
(0.0595011 -0.000331914 0.000222754)
(0.080165 -0.000655589 0.000398413)
(0.0698957 -0.000672087 0.000397845)
(0.0580228 -0.000295101 0.000200315)
(0.0789873 -0.000579773 0.000356023)
(0.0685485 -0.000599237 0.000388119)
(0.0566809 -0.000261311 0.000185562)
(0.0779049 -0.000512988 0.000328585)
(0.0673001 -0.000525895 0.000386811)
(0.0554545 -0.000230922 0.000175944)
(0.0769129 -0.000456198 0.000313461)
(0.0661571 -0.000440416 0.000389254)
(0.0543428 -0.000197711 0.000167568)
(0.0760163 -0.000395187 0.000301852)
(0.065143 -0.000323746 0.000379208)
(0.0533536 -0.000158581 0.000158717)
(0.0752245 -0.00032276 0.000290337)
(0.0643384 -9.59681e-05 0.000285236)
(0.052523 -0.000100373 0.00015293)
(0.0745718 -0.000218357 0.000257137)
(0.0640557 0.000378147 2.55915e-05)
(0.0520319 2.50957e-05 5.42295e-05)
(0.0741517 2.70142e-05 9.98327e-05)
(0.0650012 0.00172118 -0.00110138)
(0.0524164 0.000321099 -0.000141962)
(0.0741674 0.000621263 -0.000392178)
(0.0511664 0.00260307 -0.00241146)
(0.0735411 0.00260366 -0.00265216)
(0.0993441 0.00341902 -0.00341902)
(0.0973536 0.00148428 0.00106248)
(0.0834792 -0.00197585 0.00197585)
(0.0930873 -0.00253349 0.00326898)
(0.0745173 -0.00195869 0.00195869)
(0.0848642 -0.00179238 0.00163582)
(0.0685482 -0.00115907 0.00115905)
(0.0786284 -0.00122143 0.00107346)
(0.0642369 -0.000696951 0.000696892)
(0.0740537 -0.000865273 0.000785222)
(0.060758 -0.000494798 0.000494612)
(0.0704437 -0.000669624 0.000650315)
(0.0579393 -0.000374901 0.000374452)
(0.0674935 -0.000509227 0.000546384)
(0.0556171 -0.00028815 0.000287343)
(0.0650538 -0.000388697 0.000468187)
(0.0536297 -0.000227301 0.000225966)
(0.0629709 -0.000309922 0.000414031)
(0.0518878 -0.000183768 0.000181469)
(0.0611397 -0.000258466 0.000370717)
(0.0503426 -0.000152332 0.000148351)
(0.0595012 -0.000225797 0.000331102)
(0.0489632 -0.000128395 0.000122193)
(0.0580227 -0.000205591 0.000293582)
(0.0477247 -0.000108229 9.94216e-05)
(0.0566806 -0.000192749 0.000259122)
(0.0466058 -8.98143e-05 7.68909e-05)
(0.0554544 -0.000185193 0.000228001)
(0.0456116 -7.14943e-05 5.20693e-05)
(0.0543432 -0.000181514 0.000193562)
(0.0447606 -4.69589e-05 3.41296e-05)
(0.053355 -0.000180638 0.000152699)
(0.044097 -3.01183e-06 -1.53016e-05)
(0.0525268 -0.000171724 0.000107329)
(0.0440064 9.88249e-05 -0.000126939)
(0.0520418 -0.000114026 -1.88436e-05)
(0.0451716 0.00121079 -0.00134833)
(0.0524013 5.16336e-05 -0.000263311)
(0.051109 0.00208034 -0.00266253)
(0.0984572 0.0017299 0.00247641)
(0.100049 0.000750973 0.00105638)
(0.0996871 0.000345482 0.000439212)
(0.0958349 0.00243269 0.00314798)
(0.0982937 0.00216148 0.00280916)
(0.0978162 0.0022823 0.00273269)
(0.0914502 0.00186932 0.00223018)
(0.0963041 0.00199783 0.00244254)
(0.0954961 0.00230315 0.00300154)
(0.0875956 0.00150551 0.00167434)
(0.0936672 0.00172701 0.00198051)
(0.0926194 0.00183882 0.00229906)
(0.0841485 0.00127584 0.00143957)
(0.0909053 0.00149796 0.00171936)
(0.0897678 0.00153577 0.00189136)
(0.0811891 0.00102914 0.00126462)
(0.0884355 0.0012122 0.00145404)
(0.0872329 0.00129499 0.00165549)
(0.0787033 0.000794696 0.00110884)
(0.0863066 0.000909484 0.0011827)
(0.0850079 0.00107778 0.00149034)
(0.0765601 0.000626496 0.000989827)
(0.0844835 0.000692115 0.000981571)
(0.083063 0.000914431 0.0013687)
(0.0746567 0.000520461 0.000901321)
(0.0828851 0.000550993 0.000842747)
(0.0813281 0.000803584 0.00127376)
(0.0729326 0.000456702 0.00082468)
(0.0814561 0.00045944 0.00074051)
(0.0797523 0.000729755 0.00118615)
(0.0713523 0.000419303 0.000748695)
(0.080165 0.000398412 0.000655595)
(0.0783075 0.000685007 0.00109904)
(0.0698956 0.000397835 0.000672099)
(0.0789872 0.00035602 0.000579786)
(0.0769726 0.000659825 0.00101105)
(0.0685484 0.000388106 0.00059926)
(0.0779048 0.000328582 0.000513011)
(0.0757309 0.000647801 0.000920592)
(0.0672999 0.000386796 0.00052593)
(0.0769128 0.000313453 0.000456228)
(0.0745708 0.000645823 0.000826505)
(0.0661569 0.000389226 0.00044047)
(0.0760162 0.000301826 0.000395217)
(0.0734922 0.000651032 0.000719132)
(0.0651427 0.000379161 0.000323843)
(0.0752243 0.000290298 0.000322819)
(0.0725041 0.000657714 0.000586479)
(0.064338 0.000285164 9.61257e-05)
(0.0745715 0.00025707 0.000218456)
(0.0716456 0.000646164 0.00039737)
(0.0640553 2.54855e-05 -0.000377888)
(0.0741513 9.97275e-05 -2.68622e-05)
(0.0710255 0.000530681 1.29232e-06)
(0.0650006 -0.00110137 -0.00172058)
(0.0741668 -0.000392348 -0.000621024)
(0.0709442 0.000265668 -0.000787827)
(0.0735403 -0.00265226 -0.00260309)
(0.0698909 -0.0011708 -0.00318065)
(0.10008 0.00135174 0.00135174)
(0.100186 0.000798745 0.000804945)
(0.100186 0.000804947 0.000798742)
(0.100264 0.00221722 0.00221723)
(0.10019 0.00231178 0.00207146)
(0.10019 0.00207145 0.00231178)
(0.0993831 0.00243562 0.00243564)
(0.100307 0.00263357 0.00245306)
(0.100307 0.00245303 0.00263358)
(0.0979845 0.00231005 0.00231009)
(0.0998053 0.00256017 0.00245593)
(0.0998053 0.00245587 0.0025602)
(0.0964957 0.00200603 0.00200609)
(0.0988632 0.00236413 0.00228097)
(0.0988632 0.00228089 0.00236417)
(0.0950739 0.00159687 0.00159698)
(0.0978416 0.00204868 0.00196828)
(0.0978416 0.00196817 0.00204877)
(0.0937776 0.00122602 0.00122623)
(0.0968627 0.00169065 0.00160501)
(0.0968627 0.00160483 0.00169079)
(0.0926217 0.00096144 0.000961849)
(0.0959616 0.00140348 0.00132205)
(0.0959617 0.00132171 0.00140372)
(0.0916008 0.000776731 0.000777513)
(0.0951517 0.00118963 0.00111958)
(0.0951518 0.00111896 0.00119011)
(0.0906997 0.000643629 0.000645194)
(0.0944319 0.00102851 0.000973649)
(0.0944322 0.000972535 0.00102944)
(0.0898994 0.000543698 0.000546468)
(0.0937983 0.000903266 0.000867261)
(0.0937989 0.000865164 0.000905041)
(0.0891809 0.000467756 0.000471568)
(0.093238 0.000802809 0.000789844)
(0.0932391 0.000786428 0.000805837)
(0.0885356 0.000409185 0.000413991)
(0.0927393 0.000718463 0.000733347)
(0.0927411 0.000728692 0.000723003)
(0.0879697 0.000355823 0.000362658)
(0.0923046 0.000640722 0.00068973)
(0.092307 0.00068332 0.000647582)
(0.0874926 0.00029692 0.000306862)
(0.0919398 0.000556492 0.000650031)
(0.0919436 0.000640568 0.000567175)
(0.0871232 0.000219878 0.000237283)
(0.091652 0.000455571 0.00060747)
(0.0916579 0.000594045 0.000471768)
(0.086884 7.9138e-05 0.000110204)
(0.0914539 0.00031224 0.00054855)
(0.0914638 0.000524131 0.00033938)
(0.0867046 -0.00025528 -0.000210752)
(0.0913335 7.21671e-05 0.00042564)
(0.0913517 0.000385814 0.000117967)
(0.086253 -0.00116935 -0.00110068)
(0.0911638 -0.000331626 0.000135329)
(0.0912038 7.88482e-05 -0.000264317)
(0.0912658 -0.00100059 -0.000572108)
(0.0913122 -0.000676242 -0.000871195)
(0.100171 0.00136864 0.00141641)
(0.100118 0.000577381 0.000811303)
(0.100102 0.000699743 0.000700675)
(0.100759 0.0021948 0.00214906)
(0.100478 0.00158277 0.00185876)
(0.100477 0.00182247 0.00186461)
(0.100996 0.00247676 0.00238794)
(0.101004 0.0020586 0.00224252)
(0.101024 0.00234665 0.00238287)
(0.100838 0.00247595 0.00238915)
(0.101292 0.00220323 0.00235213)
(0.101338 0.00250573 0.00254361)
(0.100458 0.00231111 0.00222491)
(0.101309 0.00216697 0.00232225)
(0.101409 0.00245026 0.00247224)
(0.0999681 0.00205577 0.00196839)
(0.101156 0.00201014 0.00217902)
(0.101302 0.00226417 0.00227044)
(0.0994443 0.00178902 0.00170029)
(0.100927 0.00179251 0.00196893)
(0.101099 0.00200823 0.00199866)
(0.098935 0.00156053 0.00148425)
(0.100665 0.00158135 0.00176656)
(0.100856 0.00176863 0.00175789)
(0.098467 0.00137314 0.0013227)
(0.100408 0.00139144 0.00159183)
(0.100609 0.00156629 0.00156427)
(0.0980517 0.00121707 0.00120328)
(0.100172 0.0012225 0.00144818)
(0.100383 0.00139742 0.00141069)
(0.0976898 0.00108508 0.00111803)
(0.0999657 0.0010773 0.00134482)
(0.100189 0.00125616 0.00129044)
(0.0973792 0.000969655 0.00105908)
(0.0997897 0.000951837 0.00127447)
(0.100032 0.00113658 0.00119751)
(0.097119 0.000861268 0.00101729)
(0.0996427 0.000837227 0.00122904)
(0.0999126 0.00103195 0.00112516)
(0.0969101 0.000749327 0.000987062)
(0.0995248 0.000723368 0.00120208)
(0.0998334 0.000933417 0.0010654)
(0.0967544 0.000620489 0.000963602)
(0.0994357 0.000597408 0.0011924)
(0.0997959 0.000831904 0.00101332)
(0.0966564 0.00045369 0.000936721)
(0.0993764 0.00044552 0.00119725)
(0.0998023 0.000714319 0.000960279)
(0.0966163 0.000218523 0.000891961)
(0.0993455 0.000244704 0.00121458)
(0.0998525 0.000561382 0.000894057)
(0.0966012 -0.000127019 0.000806332)
(0.0993312 -3.43474e-05 0.00124075)
(0.0999332 0.000347005 0.000797023)
(0.0965462 -0.000629033 0.000642919)
(0.0992953 -0.00043167 0.00126354)
(0.100005 3.86783e-05 0.000645523)
(0.0994223 -0.000961422 0.00127519)
(0.100221 -0.000356362 0.000470475)
(0.100242 0.00082011 0.00125612)
(0.10009 0.00029431 0.00073535)
(0.100071 0.000415644 0.000602766)
(0.100828 0.00139043 0.00193933)
(0.100491 0.000791908 0.00168401)
(0.100492 0.00112432 0.00158696)
(0.101392 0.00166325 0.00218226)
(0.101086 0.00107758 0.00208338)
(0.101128 0.00154066 0.00209405)
(0.101816 0.00176076 0.00226127)
(0.101664 0.00120411 0.00217904)
(0.101767 0.00173244 0.00229417)
(0.10208 0.00175469 0.00226228)
(0.102121 0.00123936 0.00222221)
(0.102291 0.00178944 0.00236726)
(0.102215 0.001667 0.00217723)
(0.102451 0.0012013 0.00221058)
(0.102711 0.0017431 0.00232199)
(0.102265 0.00153165 0.00204238)
(0.102679 0.00111741 0.0021271)
(0.103036 0.00162494 0.00220227)
(0.102275 0.00137848 0.00188682)
(0.102839 0.00101572 0.00200675)
(0.103286 0.00147735 0.00204997)
(0.102271 0.00122396 0.00173312)
(0.102963 0.000913938 0.00187236)
(0.103491 0.00132403 0.00189112)
(0.102265 0.00108106 0.0016079)
(0.103064 0.000817533 0.00174791)
(0.103668 0.00117909 0.00174761)
(0.102261 0.000955138 0.00152164)
(0.103154 0.000728099 0.00164985)
(0.103828 0.00105044 0.00163614)
(0.102262 0.000840424 0.00146676)
(0.103241 0.00064509 0.00157783)
(0.103982 0.000937143 0.00155298)
(0.102268 0.000727898 0.00143812)
(0.103322 0.000564403 0.00153732)
(0.104133 0.000831754 0.00149427)
(0.10228 0.000607307 0.00143422)
(0.103395 0.000481299 0.00152853)
(0.104286 0.000727603 0.00145752)
(0.102295 0.000467096 0.00145648)
(0.103457 0.000387421 0.00154673)
(0.104441 0.000616465 0.00144163)
(0.102308 0.000292 0.00151106)
(0.103507 0.000274645 0.00160225)
(0.1046 0.00048932 0.00144801)
(0.102312 6.0517e-05 0.00160776)
(0.103534 0.000128796 0.00170973)
(0.104759 0.000332187 0.00148215)
(0.10229 -0.000247428 0.00175626)
(0.103527 -6.2719e-05 0.00188681)
(0.104914 0.000130665 0.00155079)
(0.102206 -0.000602605 0.00198229)
(0.10348 -0.000310122 0.00213912)
(0.105063 -0.000123359 0.00165881)
(0.103676 -0.000562572 0.00246161)
(0.105352 -0.000380017 0.00184097)
(0.100243 0.000267395 0.00116241)
(0.100087 -3.58758e-09 0.000707019)
(0.100064 0.000135802 0.000537327)
(0.100782 0.000465708 0.00182623)
(0.100477 -9.21023e-09 0.0016178)
(0.100463 0.000370869 0.00142413)
(0.101401 0.000575476 0.00207621)
(0.101065 -1.6055e-08 0.00203467)
(0.101089 0.000525137 0.00193358)
(0.101987 0.000622837 0.00213422)
(0.101694 -1.95822e-08 0.00211776)
(0.101797 0.000605834 0.00212869)
(0.102506 0.000631021 0.00216577)
(0.102268 -1.67037e-08 0.00215068)
(0.102489 0.00063925 0.00221132)
(0.102934 0.000610174 0.00215835)
(0.102741 -3.36759e-09 0.00218083)
(0.103119 0.000634089 0.00224232)
(0.103275 0.000571024 0.00209154)
(0.103123 1.96682e-08 0.00213578)
(0.103686 0.000600794 0.00219805)
(0.103552 0.000524952 0.00199371)
(0.103425 5.78702e-08 0.00204713)
(0.104183 0.000554644 0.00210817)
(0.103783 0.00047984 0.00188927)
(0.103676 1.49766e-07 0.00194005)