/*--------------------------------*- C++ -*----------------------------------*\
| =========                 |                                                 |
| \\      /  F ield         | OpenFOAM: The Open Source CFD Toolbox           |
|  \\    /   O peration     | Version:  2212                                  |
|   \\  /    A nd           | Website:  www.openfoam.com                      |
|    \\/     M anipulation  |                                                 |
\*---------------------------------------------------------------------------*/
FoamFile
{
    version     2.0;
    format      ascii;
    arch        "LSB;label=32;scalar=64";
    class       volVectorField;
    location    "0.15";
    object      U;
}
// * * * * * * * * * * * * * * * * * * * * * * * * * * * * * * * * * * * * * //

dimensions      [0 1 -1 0 0 0 0];

internalField   nonuniform List<vector> 
690
(
(0.0932249 -0.000142118 -0.000548153)
(0.0933271 -4.44471e-05 -0.000530173)
(0.0934219 9.6835e-06 -0.000451932)
(0.101908 -0.000146736 -0.000231644)
(0.101942 -7.67091e-05 -0.000242227)
(0.102001 -3.20489e-05 -0.00021084)
(0.105294 -6.82341e-05 -2.11048e-05)
(0.105332 -3.30787e-05 -2.44366e-05)
(0.10538 -9.10258e-06 -1.48584e-05)
(0.095117 6.74266e-05 -0.000517472)
(0.0951575 0.000138834 -0.000537384)
(0.0951778 0.000154891 -0.000456562)
(0.0951604 0.000135425 -0.000360196)
(0.0951253 0.000104516 -0.000268669)
(0.0950929 7.496e-05 -0.000189675)
(0.0950683 4.8127e-05 -0.00012778)
(0.0950507 2.62476e-05 -8.38245e-05)
(0.0950392 1.12272e-05 -5.38411e-05)
(0.0950329 1.71494e-06 -3.39521e-05)
(0.0950304 -3.76759e-06 -2.10071e-05)
(0.0950305 -6.67507e-06 -1.26909e-05)
(0.103022 6.79762e-05 -0.000286537)
(0.103101 0.000134469 -0.000302054)
(0.103161 0.000150446 -0.000286409)
(0.10321 0.000137104 -0.000246504)
(0.10324 0.000112686 -0.000197546)
(0.103253 8.52724e-05 -0.000149838)
(0.103257 5.93851e-05 -0.000108684)
(0.103255 3.76372e-05 -7.60565e-05)
(0.103249 2.0881e-05 -5.1779e-05)
(0.103243 8.78832e-06 -3.45466e-05)
(0.103238 5.45552e-07 -2.27594e-05)
(0.103233 -4.72502e-06 -1.49236e-05)
(0.106076 5.94938e-05 -0.00013172)
(0.106119 0.00010646 -0.00013917)
(0.106166 0.000126098 -0.000130959)
(0.106219 0.000124003 -0.000113392)
(0.106262 0.000109749 -9.22219e-05)
(0.106292 8.96392e-05 -7.12691e-05)
(0.106311 6.79928e-05 -5.28203e-05)
(0.106321 4.78002e-05 -3.78785e-05)
(0.106325 3.06879e-05 -2.65098e-05)
(0.106325 1.71668e-05 -1.82666e-05)
(0.106323 7.11187e-06 -1.25277e-05)
(0.10632 1.75494e-07 -8.64003e-06)
(0.0952163 0.0002771 -0.000677531)
(0.0952107 0.000354448 -0.000669107)
(0.0951768 0.000299766 -0.000520161)
(0.0950629 0.000219373 -0.000375133)
(0.0949299 0.000158093 -0.000254424)
(0.0948196 0.000108981 -0.00016516)
(0.0947377 6.8841e-05 -0.000102963)
(0.0946799 3.84377e-05 -6.17253e-05)
(0.0946413 1.84082e-05 -3.5469e-05)
(0.0946175 5.96594e-06 -1.93552e-05)
(0.0946041 -1.2629e-06 -9.88188e-06)
(0.0945979 -5.21373e-06 -4.37443e-06)
(0.102679 0.000295531 -0.000402094)
(0.102848 0.000371328 -0.000410816)
(0.102936 0.000343827 -0.000365091)
(0.10297 0.000279667 -0.000291508)
(0.102961 0.000212671 -0.000216649)
(0.102931 0.000152989 -0.000152478)
(0.102897 0.000104009 -0.000102349)
(0.102864 6.64979e-05 -6.58326e-05)
(0.102837 3.93271e-05 -4.06121e-05)
(0.102816 2.04987e-05 -2.38722e-05)
(0.1028 7.97602e-06 -1.31561e-05)
(0.102788 3.98069e-08 -6.6805e-06)
(0.10571 0.000204519 -0.000192625)
(0.105768 0.000258443 -0.000196319)
(0.10582 0.00026889 -0.000182186)
(0.105865 0.000244242 -0.000152852)
(0.10589 0.000203669 -0.000118794)
(0.105898 0.000159109 -8.69229e-05)
(0.105896 0.000117229 -6.03149e-05)
(0.105889 8.15595e-05 -3.97933e-05)
(0.105879 5.32564e-05 -2.48702e-05)
(0.105869 3.19511e-05 -1.44883e-05)
(0.10586 1.66445e-05 -7.58782e-06)
(0.105852 6.27038e-06 -3.37007e-06)
(0.107459 0.000149758 -7.24477e-05)
(0.107495 0.00018397 -7.13689e-05)
(0.107534 0.000191281 -6.67743e-05)
(0.107584 0.000178101 -5.8061e-05)
(0.107628 0.000153811 -4.72653e-05)
(0.107661 0.000125039 -3.62341e-05)
(0.107684 9.62486e-05 -2.61404e-05)
(0.107699 7.02729e-05 -1.76324e-05)
(0.107708 4.84878e-05 -1.09123e-05)
(0.107712 3.12088e-05 -5.88542e-06)
(0.107712 1.81757e-05 -2.34182e-06)
(0.107711 8.92454e-06 -8.0246e-08)
(0.108451 8.1153e-05 -4.32606e-05)
(0.108496 9.1916e-05 -4.40902e-05)
(0.10854 9.22715e-05 -4.26033e-05)
(0.1086 8.60396e-05 -3.92592e-05)
(0.108657 7.57343e-05 -3.43893e-05)
(0.108703 6.32738e-05 -2.85508e-05)
(0.10874 5.02622e-05 -2.23576e-05)
(0.108767 3.79506e-05 -1.63904e-05)
(0.108787 2.71318e-05 -1.10818e-05)
(0.108799 1.81656e-05 -6.6669e-06)
(0.108806 1.11246e-05 -3.23298e-06)
(0.108809 5.93405e-06 -7.82636e-07)
(0.108794 9.23329e-06 -6.51657e-05)
(0.108843 8.07855e-06 -6.55694e-05)
(0.108891 7.79834e-06 -6.37269e-05)
(0.108953 7.58041e-06 -5.94483e-05)
(0.109012 7.13294e-06 -5.29997e-05)
(0.109062 6.4047e-06 -4.49661e-05)
(0.109102 5.47891e-06 -3.6207e-05)
(0.109133 4.47289e-06 -2.75956e-05)
(0.109155 3.48317e-06 -1.97925e-05)
(0.109169 2.57407e-06 -1.31797e-05)
(0.109178 1.7823e-06 -7.91461e-06)
(0.109183 1.13456e-06 -4.0158e-06)
(0.108451 -4.32933e-05 -8.10708e-05)
(0.108496 -4.41283e-05 -9.18343e-05)
(0.10854 -4.26379e-05 -9.21867e-05)
(0.1086 -3.92904e-05 -8.59454e-05)
(0.108657 -3.44234e-05 -7.56259e-05)
(0.108703 -2.85921e-05 -6.31545e-05)
(0.10874 -2.23974e-05 -5.01371e-05)
(0.108767 -1.64117e-05 -3.78297e-05)
(0.108787 -1.10674e-05 -2.70351e-05)
(0.108799 -6.6065e-06 -1.81241e-05)
(0.108806 -3.13353e-06 -1.11785e-05)
(0.108809 -6.59924e-07 -6.10733e-06)
(0.107335 -1.31587e-05 -7.12248e-05)
(0.107373 -2.93368e-05 -8.12326e-05)
(0.107415 -3.85333e-05 -8.3455e-05)
(0.107471 -4.07976e-05 -7.74314e-05)
(0.107524 -3.82653e-05 -6.66375e-05)
(0.107565 -3.2696e-05 -5.39239e-05)
(0.107596 -2.55355e-05 -4.12023e-05)
(0.107617 -1.80131e-05 -2.96974e-05)
(0.107631 -1.10126e-05 -2.00207e-05)
(0.107639 -5.05884e-06 -1.23462e-05)
(0.107643 -4.2457e-07 -6.63755e-06)
(0.107644 2.76569e-06 -2.73794e-06)
(0.105294 6.80737e-05 2.14147e-05)
(0.105332 3.28871e-05 2.43602e-05)
(0.10538 8.96099e-06 1.41852e-05)
(0.105443 -4.38515e-06 8.03716e-06)
(0.105498 -1.05573e-05 5.49644e-06)
(0.105538 -1.16389e-05 4.65418e-06)
(0.105567 -9.30019e-06 4.69264e-06)
(0.105585 -5.22988e-06 5.12112e-06)
(0.105597 -7.31836e-07 5.66297e-06)
(0.105602 3.3897e-06 6.14137e-06)
(0.105604 6.63076e-06 6.30357e-06)
(0.101908 0.000145473 0.00023112)
(0.101942 7.60795e-05 0.000241804)
(0.102 3.26408e-05 0.0002107)
(0.102075 1.15867e-05 0.000172931)
(0.102139 1.66598e-06 0.000136122)
(0.102187 -1.39314e-06 0.000103154)
(0.10222 -3.17111e-07 7.60014e-05)
(0.102241 2.57192e-06 5.49998e-05)
(0.102255 5.7342e-06 3.9539e-05)
(0.102263 8.51874e-06 2.86263e-05)
(0.102267 1.08199e-05 2.10524e-05)
(0.0932275 0.000141972 0.000546688)
(0.0933309 4.46327e-05 0.000529421)
(0.093426 -9.07772e-06 0.000452244)
(0.0935157 -2.31587e-05 0.000357371)
(0.0935824 -2.15126e-05 0.000262145)
(0.0936317 -1.48893e-05 0.000182897)
(0.0936679 -7.28004e-06 0.000124387)
(0.0936942 -5.58078e-07 8.31889e-05)
(0.0937136 4.3593e-06 5.51317e-05)
(0.0937283 7.35531e-06 3.63253e-05)
(0.09374 8.82024e-06 2.41316e-05)
(0.0935008 0.000621436 -0.000975651)
(0.0933191 0.000658527 -0.000874886)
(0.0930809 0.000468137 -0.000617345)
(0.0927355 0.000306293 -0.000370248)
(0.0924322 0.000197776 -0.000212152)
(0.0922167 0.000125651 -0.000115536)
(0.0920727 7.42079e-05 -5.66944e-05)
(0.091979 4.00758e-05 -2.31382e-05)
(0.091921 1.90827e-05 -5.6892e-06)
(0.0918873 6.83136e-06 2.33154e-06)
(0.0918697 6.28072e-07 5.16878e-06)
(0.0918625 -2.9873e-06 5.97876e-06)
(0.100812 0.000624336 -0.000515738)
(0.101036 0.000698896 -0.000514067)
(0.101095 0.000576582 -0.000401423)
(0.101049 0.00042359 -0.00027193)
(0.100953 0.000296009 -0.000169345)
(0.100855 0.000198768 -9.79122e-05)
(0.100773 0.00012823 -5.18628e-05)
(0.100709 7.93492e-05 -2.41962e-05)
(0.100663 4.64706e-05 -8.35858e-06)
(0.100632 2.49233e-05 3.18293e-07)
(0.100611 1.11203e-05 4.89441e-06)
(0.100597 2.47771e-06 6.55901e-06)
(0.104009 0.000388008 -0.00015421)
(0.104083 0.000448909 -0.000157254)
(0.104133 0.000426717 -0.000137158)
(0.104158 0.000357773 -0.000102243)
(0.104151 0.000278291 -6.78134e-05)
(0.104128 0.000204724 -4.0392e-05)
(0.1041 0.00014337 -2.08376e-05)
(0.104075 9.57896e-05 -8.02739e-06)
(0.104053 6.07469e-05 -1.60478e-07)
(0.104036 3.57675e-05 4.54422e-06)
(0.104023 1.85356e-05 7.14238e-06)
(0.104014 7.34155e-06 7.95041e-06)
(0.10608 0.000226218 -9.88975e-06)
(0.106109 0.000253451 -9.05192e-06)
(0.106144 0.000251958 -1.54987e-05)
(0.106189 0.000224283 -1.6654e-05)
(0.106225 0.000184883 -1.39812e-05)
(0.106248 0.00014363 -9.81069e-06)
(0.106261 0.000105893 -5.3246e-06)
(0.106268 7.42522e-05 -1.22374e-06)
(0.106271 4.92942e-05 2.15169e-06)
(0.10627 3.04732e-05 4.72665e-06)
(0.106268 1.68641e-05 6.486e-06)
(0.106264 7.66349e-06 7.32481e-06)
(0.107336 7.13409e-05 -1.30058e-05)
(0.107373 8.13391e-05 -2.91538e-05)
(0.107415 8.35564e-05 -3.83579e-05)
(0.107472 7.75327e-05 -4.06442e-05)
(0.107524 6.67438e-05 -3.8136e-05)
(0.107565 5.40402e-05 -3.25942e-05)
(0.107596 4.13333e-05 -2.54728e-05)
(0.107618 2.98429e-05 -1.80105e-05)
(0.107632 2.01679e-05 -1.10989e-05)
(0.10764 1.24506e-05 -5.25411e-06)
(0.107644 6.60603e-06 -7.06197e-07)
(0.107644 2.50718e-06 2.46371e-06)
(0.107819 -3.01601e-05 -7.02133e-05)
(0.107861 -2.89006e-05 -9.959e-05)
(0.107906 -2.49585e-05 -0.000109366)
(0.107963 -2.03932e-05 -0.000105992)
(0.108016 -1.58772e-05 -9.47873e-05)
(0.108058 -1.18084e-05 -7.9344e-05)
(0.10809 -8.44278e-06 -6.24407e-05)
(0.108112 -5.86825e-06 -4.61727e-05)
(0.108127 -4.03628e-06 -3.18468e-05)
(0.108135 -2.82825e-06 -2.00729e-05)
(0.108139 -2.10086e-06 -1.0987e-05)
(0.10814 -1.68584e-06 -4.45659e-06)
(0.107459 -7.24206e-05 -0.000149677)
(0.107495 -7.13342e-05 -0.000183866)
(0.107534 -6.67354e-05 -0.000191152)
(0.107584 -5.80312e-05 -0.000177946)
(0.107629 -4.72591e-05 -0.000153629)
(0.107662 -3.62534e-05 -0.000124834)
(0.107685 -2.61712e-05 -9.60322e-05)
(0.107699 -1.76516e-05 -7.00594e-05)
(0.107708 -1.09023e-05 -4.83035e-05)
(0.107712 -5.85349e-06 -3.11065e-05)
(0.107712 -2.33727e-06 -1.82478e-05)
(0.10771 -1.22884e-07 -9.22603e-06)
(0.10608 -9.90852e-06 -0.000226023)
(0.106109 -9.08594e-06 -0.00025324)
(0.106143 -1.55423e-05 -0.000251748)
(0.106189 -1.67072e-05 -0.000224082)
(0.106225 -1.40423e-05 -0.00018469)
(0.106248 -9.86978e-06 -0.000143439)
(0.106261 -5.36137e-06 -0.000105695)
(0.106268 -1.20815e-06 -7.40364e-05)
(0.10627 2.24775e-06 -4.90638e-05)
(0.10627 4.88789e-06 -3.02964e-05)
(0.106267 6.57542e-06 -1.69599e-05)
(0.106264 7.27056e-06 -8.14777e-06)
(0.103394 0.000182776 -0.000205538)
(0.103447 0.000159279 -0.000230616)
(0.103504 0.000124088 -0.000224656)
(0.103573 9.47379e-05 -0.000189899)
(0.103621 7.11021e-05 -0.000146942)
(0.10365 5.27737e-05 -0.000106712)
(0.103667 3.95178e-05 -7.32027e-05)
(0.103677 3.04181e-05 -4.73376e-05)
(0.103682 2.43763e-05 -2.82807e-05)
(0.103684 2.05075e-05 -1.48536e-05)
(0.103684 1.77608e-05 -6.15137e-06)
(0.0989553 0.000432155 1.43812e-05)
(0.0990939 0.000323494 -1.2199e-05)
(0.0992226 0.000241539 -2.60762e-05)
(0.0993574 0.000177368 -2.06857e-05)
(0.0994573 0.000125312 -1.20877e-05)
(0.0995246 8.66111e-05 -4.79125e-06)
(0.0995706 6.01373e-05 6.92485e-07)
(0.099602 4.27696e-05 4.3492e-06)
(0.0996231 3.15333e-05 6.69376e-06)
(0.0996372 2.43676e-05 8.37424e-06)
(0.0996467 1.99508e-05 9.08513e-06)
(0.0883998 0.000568188 0.000479768)
(0.0887324 0.000390491 0.000406005)
(0.08906 0.000267197 0.000323949)
(0.0893417 0.000183041 0.000241524)
(0.0895465 0.000120596 0.000170041)
(0.0896868 7.78516e-05 0.000116062)
(0.0897827 5.11778e-05 7.85796e-05)
(0.0898481 3.51114e-05 5.33935e-05)
(0.0898929 2.50424e-05 3.65083e-05)
(0.0899246 1.83936e-05 2.48366e-05)
(0.0899479 1.44504e-05 1.75184e-05)
(0.0880697 0.00123329 -0.001086)
(0.0871819 0.00108085 -0.000843639)
(0.0864018 0.000650395 -0.00037442)
(0.0856352 0.000344565 -8.9142e-05)
(0.085126 0.000191711 2.05647e-05)
(0.0848437 0.000110125 5.52966e-05)
(0.0846854 6.20236e-05 5.78421e-05)
(0.0845959 3.33802e-05 5.03563e-05)
(0.0845487 1.63136e-05 4.05591e-05)
(0.0845267 7.2487e-06 3.05742e-05)
(0.0845191 4.81105e-06 2.00249e-05)
(0.0845181 3.27863e-06 1.2324e-05)
(0.0964656 0.00107372 -0.00045201)
(0.0966486 0.00110397 -0.000374081)
(0.0965781 0.00080944 -0.000198147)
(0.0963727 0.000533674 -6.83279e-05)
(0.0961652 0.000340898 2.4984e-07)
(0.0960105 0.000211751 3.00992e-05)
(0.0959054 0.000128339 3.86353e-05)
(0.0958361 7.62949e-05 3.69973e-05)
(0.0957926 4.42293e-05 3.1627e-05)
(0.0957675 2.429e-05 2.56657e-05)
(0.0957541 1.13649e-05 2.08847e-05)
(0.0957499 3.10136e-06 1.66603e-05)
(0.100541 0.000540623 6.77009e-05)
(0.100615 0.000618433 5.75182e-05)
(0.100654 0.000537928 6.30357e-05)
(0.100658 0.000409665 6.9841e-05)
(0.100628 0.000292633 6.82074e-05)
(0.10059 0.000199558 6.07084e-05)
(0.100556 0.000130608 5.09525e-05)
(0.10053 8.21882e-05 4.12327e-05)
(0.100512 4.93853e-05 3.29699e-05)
(0.1005 2.73666e-05 2.6663e-05)
(0.100492 1.24007e-05 2.21204e-05)
(0.100488 3.30635e-06 1.82158e-05)
(0.103394 0.00020583 0.00018269)
(0.103447 0.000230923 0.000159207)
(0.103504 0.000224937 0.000124041)
(0.103573 0.000190135 9.47215e-05)
(0.103622 0.000147137 7.11169e-05)
(0.103651 0.000106882 5.28148e-05)
(0.103668 7.33787e-05 3.95711e-05)
(0.103677 4.75691e-05 3.04489e-05)
(0.103682 2.86322e-05 2.4325e-05)
(0.103685 1.52432e-05 2.03154e-05)
(0.103685 5.96428e-06 1.76019e-05)
(0.103684 2.49175e-07 1.54399e-05)
(0.105294 -2.12777e-05 6.81722e-05)
(0.105333 -2.42306e-05 3.29903e-05)
(0.105381 -1.40564e-05 9.04326e-06)
(0.105444 -7.91151e-06 -4.32347e-06)
(0.105499 -5.37596e-06 -1.05032e-05)
(0.10554 -4.53448e-06 -1.15801e-05)
(0.105568 -4.55977e-06 -9.23606e-06)
(0.105587 -4.95529e-06 -5.17998e-06)
(0.105598 -5.45113e-06 -7.4302e-07)
(0.105604 -5.93153e-06 3.25428e-06)
(0.105606 -6.31188e-06 6.37897e-06)
(0.105606 -6.34211e-06 8.42216e-06)
(0.106076 -0.000131678 -5.96383e-05)
(0.106119 -0.000139015 -0.000106553)
(0.106166 -0.000130677 -0.00012608)
(0.106219 -0.000113075 -0.00012386)
(0.106263 -9.19961e-05 -0.000109521)
(0.106293 -7.1189e-05 -8.93772e-05)
(0.106312 -5.28609e-05 -6.77293e-05)
(0.106322 -3.79859e-05 -4.75451e-05)
(0.106326 -2.66414e-05 -3.04427e-05)
(0.106326 -1.84094e-05 -1.6953e-05)
(0.106324 -1.27099e-05 -6.98998e-06)
(0.106321 -8.88631e-06 -1.94432e-07)
(0.10571 -0.000192543 -0.000204544)
(0.105768 -0.000196218 -0.000258446)
(0.10582 -0.000182079 -0.000268851)
(0.105866 -0.000152764 -0.000244154)
(0.105891 -0.000118746 -0.00020354)
(0.105899 -8.69168e-05 -0.000158948)
(0.105897 -6.03301e-05 -0.000117041)
(0.105889 -3.97977e-05 -8.13378e-05)
(0.10588 -2.48393e-05 -5.299e-05)
(0.10587 -1.44474e-05 -3.16547e-05)
(0.105861 -7.68282e-06 -1.64314e-05)
(0.105852 -3.67383e-06 -6.29578e-06)
(0.104009 -0.000154137 -0.000387908)
(0.104083 -0.00015718 -0.0004488)
(0.104133 -0.000137089 -0.000426599)
(0.104158 -0.000102193 -0.000357651)
(0.104152 -6.7789e-05 -0.000278167)
(0.104128 -4.03843e-05 -0.000204596)
(0.104101 -2.08207e-05 -0.000143224)
(0.104075 -7.95723e-06 -9.55948e-05)
(0.104054 1.04383e-08 -6.04593e-05)
(0.104037 4.78632e-06 -3.53835e-05)
(0.104023 7.04683e-06 -1.83415e-05)
(0.104013 7.33216e-06 -7.50973e-06)
(0.10054 6.78576e-05 -0.000540442)
(0.100615 5.76852e-05 -0.000618246)
(0.100654 6.31915e-05 -0.000537745)
(0.100658 6.99634e-05 -0.000409502)
(0.100629 6.82824e-05 -0.000292501)
(0.10059 6.07337e-05 -0.000199452)
(0.100557 5.09433e-05 -0.000130498)
(0.100531 4.1251e-05 -8.19821e-05)
(0.100513 3.31563e-05 -4.88634e-05)
(0.1005 2.72313e-05 -2.63607e-05)
(0.100493 2.21055e-05 -1.23044e-05)
(0.0944959 0.000592894 -0.000305374)
(0.094666 0.000417219 -0.000461592)
(0.0947514 0.000318832 -0.000389436)
(0.0948056 0.000240884 -0.000273144)
(0.0948282 0.000173831 -0.00018123)
(0.0948399 0.00012241 -0.000115053)
(0.0948496 8.52967e-05 -7.008e-05)
(0.0948585 5.92951e-05 -4.10626e-05)
(0.094867 4.17208e-05 -2.23941e-05)
(0.0948751 3.04918e-05 -9.70867e-06)
(0.0948845 2.32525e-05 -1.62435e-06)
(0.0793291 0.00134769 0.000336031)
(0.0804611 0.000987237 0.000185326)
(0.0810913 0.000646332 0.00016495)
(0.0814621 0.000403528 0.000128494)
(0.0816879 0.000242507 8.11846e-05)
(0.0818301 0.000145252 4.94076e-05)
(0.0819214 8.9001e-05 3.27984e-05)
(0.081982 5.62102e-05 2.36884e-05)
(0.0820239 3.60582e-05 1.7285e-05)
(0.0820544 2.20033e-05 1.018e-05)
(0.0820758 1.3787e-05 6.11485e-06)
(0.0740234 0.00148773 -0.000623669)
(0.0719975 0.00127987 -0.000353025)
(0.0708577 0.000760461 -3.31107e-05)
(0.070035 0.000412132 7.01454e-05)
(0.0696789 0.000226762 9.2382e-05)
(0.0695785 0.000124833 8.25875e-05)
(0.0695587 7.13213e-05 6.54371e-05)
(0.0695629 4.21474e-05 4.84657e-05)
(0.0695764 2.50881e-05 3.44923e-05)
(0.0695917 1.54067e-05 2.34008e-05)
(0.0696073 1.16112e-05 1.35788e-05)
(0.0696073 8.94211e-06 7.57568e-06)
(0.0880012 0.00175604 -0.000333148)
(0.0883175 0.00153915 -0.000215175)
(0.088146 0.000924519 7.34166e-07)
(0.0878968 0.000520195 8.91598e-05)
(0.0877297 0.000299657 9.97869e-05)
(0.0876469 0.000174502 8.69608e-05)
(0.0876081 0.000102738 6.7561e-05)
(0.0875912 6.11941e-05 4.92751e-05)
(0.0875864 3.66533e-05 3.47506e-05)
(0.087588 2.09761e-05 2.47255e-05)
(0.0875945 5.82005e-06 2.16095e-05)
(0.0876101 -2.42875e-06 1.87701e-05)
(0.0944956 0.000305229 0.000592796)
(0.0946656 0.000461465 0.000417061)
(0.094751 0.000389359 0.000318655)
(0.0948051 0.00027309 0.000240735)
(0.0948277 0.000181175 0.000173741)
(0.0948393 0.000114973 0.000122412)
(0.0948489 6.99618e-05 8.54257e-05)
(0.0948574 4.09577e-05 5.95418e-05)
(0.0948653 2.26643e-05 4.18442e-05)
(0.0948729 1.11927e-05 2.98475e-05)
(0.0948802 3.35326e-06 2.23882e-05)
(0.094889 -1.64229e-06 1.76208e-05)
(0.0989551 -1.44492e-05 0.000432193)
(0.0990936 1.21779e-05 0.000323511)
(0.0992223 2.60974e-05 0.00024153)
(0.0993571 2.0708e-05 0.000177362)
(0.0994571 1.21019e-05 0.000125325)
(0.0995244 4.79929e-06 8.6669e-05)
(0.0995704 -6.77329e-07 6.02739e-05)
(0.0996016 -4.26699e-06 4.3e-05)
(0.0996225 -6.36709e-06 3.17948e-05)
(0.0996365 -7.57321e-06 2.44357e-05)
(0.0996458 -8.41798e-06 1.95258e-05)
(0.0996524 -8.49204e-06 1.62752e-05)
(0.101909 -0.000231282 0.000145878)
(0.101942 -0.000241896 7.62958e-05)
(0.102002 -0.000210696 3.26668e-05)
(0.102076 -0.000172867 1.15072e-05)
(0.102141 -0.00013604 1.57403e-06)
(0.102188 -0.000103083 -1.42558e-06)
(0.102221 -7.5938e-05 -2.49316e-07)
(0.102243 -5.49107e-05 2.744e-06)
(0.102256 -3.93504e-05 5.95275e-06)
(0.102264 -2.825e-05 8.59476e-06)
(0.102268 -2.05767e-05 1.04167e-05)
(0.102271 -1.52109e-05 1.14211e-05)
(0.103022 -0.000286396 -6.84467e-05)
(0.103102 -0.00030181 -0.000134797)
(0.103161 -0.000286066 -0.000150436)
(0.10321 -0.000246182 -0.000136809)
(0.103241 -0.00019735 -0.000112344)
(0.103255 -0.000149771 -8.50333e-05)
(0.103258 -0.000108696 -5.92523e-05)
(0.103256 -7.61129e-05 -3.75287e-05)
(0.103251 -5.1859e-05 -2.07068e-05)
(0.103245 -3.46374e-05 -8.49475e-06)
(0.103239 -2.28817e-05 -1.66197e-07)
(0.103234 -1.50989e-05 5.06183e-06)
(0.102679 -0.000401973 -0.000295739)
(0.102848 -0.000410652 -0.000371511)
(0.102936 -0.000364909 -0.000343931)
(0.10297 -0.000291341 -0.000279686)
(0.102961 -0.000216517 -0.000212648)
(0.102932 -0.000152387 -0.000152957)
(0.102898 -0.000102292 -0.000103969)
(0.102865 -6.5795e-05 -6.64119e-05)
(0.102838 -4.05737e-05 -3.91224e-05)
(0.102817 -2.38515e-05 -2.00975e-05)
(0.102801 -1.33441e-05 -7.43236e-06)
(0.102789 -7.13725e-06 1.96193e-07)
(0.100812 -0.000515638 -0.000624383)
(0.101036 -0.000513933 -0.000698929)
(0.101096 -0.000401274 -0.000576601)
(0.101049 -0.00027179 -0.0004236)
(0.100953 -0.000169227 -0.000296023)
(0.100855 -9.78228e-05 -0.000198794)
(0.100773 -5.17955e-05 -0.000128268)
(0.10071 -2.41139e-05 -7.93676e-05)
(0.100664 -8.15016e-06 -4.63478e-05)
(0.100633 8.51475e-07 -2.43076e-05)
(0.100612 5.2106e-06 -9.68509e-06)
(0.100598 5.75213e-06 -1.38303e-06)
(0.0964657 -0.000451822 -0.00107363)
(0.0966487 -0.000373857 -0.00110388)
(0.0965782 -0.000197913 -0.00080935)
(0.0963728 -6.81127e-05 -0.000533602)
(0.0961654 4.18609e-07 -0.000340865)
(0.0960108 3.01965e-05 -0.000211775)
(0.0959058 3.86436e-05 -0.000128437)
(0.0958369 3.69488e-05 -7.6451e-05)
(0.095794 3.17098e-05 -4.42766e-05)
(0.0957689 2.61218e-05 -2.38673e-05)
(0.095757 1.99462e-05 -1.18451e-05)
(0.0880015 -0.000332939 -0.00175616)
(0.0883179 -0.000214882 -0.00153925)
(0.0881464 1.04595e-06 -0.000924602)
(0.0878973 8.94271e-05 -0.000520287)
(0.0877301 9.99757e-05 -0.000299768)
(0.0876473 8.70433e-05 -0.000174649)
(0.0876085 6.74809e-05 -0.000102963)
(0.0875917 4.90553e-05 -6.14539e-05)
(0.0875873 3.51701e-05 -3.59645e-05)
(0.0875912 2.90819e-05 -1.51063e-05)
(0.0876054 2.33527e-05 -3.48135e-06)
(0.0665889 0.00103285 -0.000592004)
(0.0677115 0.000648335 -0.000691144)
(0.067933 0.000464604 -0.000280966)
(0.0679681 0.000304369 -8.52968e-05)
(0.0680508 0.000188696 -2.8035e-05)
(0.0681379 0.000117336 -9.04223e-06)
(0.0682011 7.36021e-05 -1.33829e-06)
(0.0682464 4.65676e-05 1.75977e-06)
(0.0682802 2.94031e-05 2.57149e-06)
(0.0683081 1.72117e-05 9.33614e-07)
(0.0683155 1.04193e-05 4.44113e-07)
(0.0519002 0.00233979 -0.000725018)
(0.0482098 0.00107215 -1.93788e-05)
(0.0472782 0.000295321 0.000240165)
(0.0468321 9.01344e-05 0.00017296)
(0.0467094 5.2323e-05 9.86601e-05)
(0.0467064 3.28882e-05 6.01925e-05)
(0.0467254 2.0377e-05 3.85494e-05)
(0.0467478 1.24467e-05 2.49894e-05)
(0.0467706 7.67566e-06 1.6197e-05)
(0.0467904 4.54232e-06 1.03662e-05)
(0.0468087 1.40715e-06 7.09982e-06)
(0.0468126 1.13783e-07 4.79716e-06)
(0.0665881 0.000591539 0.00103267)
(0.0677107 0.000690642 0.000648102)
(0.0679322 0.000280492 0.000464349)
(0.0679673 8.49173e-05 0.000304116)
(0.0680499 2.77338e-05 0.000188487)
(0.068137 8.77999e-06 0.000117218)
(0.0682004 1.04235e-06 7.36542e-05)
(0.0682463 -2.27624e-06 4.69602e-05)
(0.0682819 -3.52681e-06 3.02909e-05)
(0.0683088 -3.07097e-06 1.91539e-05)
(0.0683307 2.0411e-07 1.02733e-05)
(0.0683327 1.15414e-06 5.87633e-06)
(0.0793282 -0.000336513 0.00134742)
(0.0804602 -0.000185774 0.000986951)
(0.0810904 -0.000165345 0.00064603)
(0.081461 -0.000128827 0.000403272)
(0.0816868 -8.14388e-05 0.000242293)
(0.0818289 -4.963e-05 0.000145134)
(0.0819202 -3.30759e-05 8.90624e-05)
(0.0819811 -2.42298e-05 5.66144e-05)
(0.0820233 -1.85656e-05 3.71446e-05)
(0.0820536 -1.36393e-05 2.4368e-05)
(0.0820765 -6.77006e-06 1.45416e-05)
(0.0820925 -2.49385e-06 8.81794e-06)
(0.0883988 -0.000480264 0.000567799)
(0.0887311 -0.000406304 0.000390103)
(0.0890585 -0.000324261 0.000266814)
(0.0893399 -0.000241734 0.000182686)
(0.0895443 -0.000170167 0.000120299)
(0.0896844 -0.000116165 7.76598e-05)
(0.0897801 -7.87348e-05 5.11514e-05)
(0.0898456 -5.36917e-05 3.53264e-05)
(0.0898904 -3.70324e-05 2.56542e-05)
(0.0899218 -2.56561e-05 1.92583e-05)
(0.0899448 -1.73004e-05 1.48709e-05)
(0.0899624 -1.18948e-05 1.18324e-05)
(0.0932251 -0.000546315 0.000141235)
(0.0933276 -0.000529064 4.3801e-05)
(0.0934219 -0.00045192 -9.88591e-06)
(0.0935109 -0.000357089 -2.38601e-05)
(0.0935771 -0.000261909 -2.20563e-05)
(0.0936259 -0.000182746 -1.52481e-05)
(0.0936619 -0.000124343 -7.4307e-06)
(0.0936881 -8.32783e-05 -4.73269e-07)
(0.0937076 -5.53739e-05 4.69712e-06)
(0.0937224 -3.66539e-05 7.9985e-06)
(0.0937343 -2.41672e-05 9.65998e-06)
(0.0937443 -1.61076e-05 1.015e-05)
(0.0951172 -0.00051697 -6.79248e-05)
(0.0951577 -0.000536942 -0.000139337)
(0.095178 -0.000456088 -0.00015532)
(0.0951604 -0.0003597 -0.000135781)
(0.0951248 -0.000268154 -0.000104877)
(0.095092 -0.000189048 -7.53437e-05)
(0.095067 -0.000127198 -4.85007e-05)
(0.0950492 -8.3413e-05 -2.65433e-05)
(0.0950377 -5.36437e-05 -1.13447e-05)
(0.0950315 -3.39202e-05 -1.55344e-06)
(0.0950291 -2.10117e-05 4.33991e-06)
(0.0950294 -1.26127e-05 7.80259e-06)
(0.0952165 -0.000677422 -0.000277364)
(0.0952109 -0.000668933 -0.000354737)
(0.095177 -0.00051989 -0.000300051)
(0.095063 -0.000374741 -0.000219674)
(0.0949299 -0.000253912 -0.000158373)
(0.0948196 -0.000164658 -0.000109241)
(0.0947377 -0.000102554 -6.90699e-05)
(0.09468 -6.14925e-05 -3.86113e-05)
(0.0946416 -3.54584e-05 -1.84649e-05)
(0.0946181 -1.95834e-05 -5.80606e-06)
(0.0946053 -1.01385e-05 1.83832e-06)
(0.0945993 -4.2214e-06 6.57637e-06)
(0.0935011 -0.000975634 -0.000621599)
(0.0933193 -0.000874799 -0.000658663)
(0.093081 -0.000617206 -0.000468259)
(0.0927356 -0.000370044 -0.000306427)
(0.0924323 -0.000211892 -0.000197919)
(0.0922168 -0.000115268 -0.000125808)
(0.0920728 -5.65013e-05 -7.43961e-05)
(0.0919792 -2.31117e-05 -4.03153e-05)
(0.0919212 -5.86999e-06 -1.93842e-05)
(0.0918879 2.0444e-06 -7.11525e-06)
(0.0918708 5.71001e-06 5.34003e-07)
(0.0918627 7.52623e-06 5.75383e-06)
(0.08807 -0.00108587 -0.00123331)
(0.0871821 -0.000843503 -0.00108083)
(0.086402 -0.000374247 -0.000650385)
(0.0856354 -8.89452e-05 -0.000344564)
(0.0851262 2.07646e-05 -0.000191725)
(0.0848439 5.54487e-05 -0.000110196)
(0.0846855 5.78671e-05 -6.22096e-05)
(0.0845959 5.01005e-05 -3.38074e-05)
(0.0845488 3.9848e-05 -1.73762e-05)
(0.0845277 2.83644e-05 -9.63785e-06)
(0.0845198 1.93339e-05 -4.26873e-06)
(0.0740238 -0.000623315 -0.00148769)
(0.0719981 -0.000352611 -0.00127981)
(0.0708583 -3.2729e-05 -0.000760384)
(0.0700356 7.05244e-05 -0.000412065)
(0.0696796 9.26875e-05 -0.000226739)
(0.0695792 8.28059e-05 -0.000124873)
(0.0695593 6.55072e-05 -7.14922e-05)
(0.0695629 4.82643e-05 -4.26399e-05)
(0.0695749 3.35902e-05 -2.6175e-05)
(0.0695911 2.09523e-05 -1.81876e-05)
(0.0695936 1.27294e-05 -1.24207e-05)
(0.0519008 -0.000724848 -0.00233998)
(0.0482103 -1.91208e-05 -0.00107236)
(0.0472786 0.000240427 -0.000295528)
(0.0468325 0.00017321 -9.03683e-05)
(0.0467099 9.88629e-05 -5.24989e-05)
(0.0467069 6.03593e-05 -3.3023e-05)
(0.0467257 3.86427e-05 -2.04784e-05)
(0.0467478 2.49651e-05 -1.25289e-05)
(0.0467691 1.59672e-05 -7.53339e-06)
(0.0467906 1.05119e-05 -3.29388e-06)
(0.0467974 6.74545e-06 -1.20197e-06)
)
;

boundaryField
{
    inlet
    {
        type            fixedValue;
        value           nonuniform List<vector> 0();
    }
    ami1
    {
        type            cyclicAMI;
        value           nonuniform List<vector> 0();
    }
    walls
    {
        type            noSlip;
    }
    ami2
    {
        type            cyclicAMI;
        value           nonuniform List<vector> 
61
(
(0.0931446 -0.000159853 -0.000469344)
(0.101893 -0.000157331 -0.000191654)
(0.105232 -7.1039e-05 -7.06062e-07)
(0.095147 3.0156e-05 -0.000449564)
(0.102946 2.99798e-05 -0.000265119)
(0.106027 4.21904e-05 -0.00011483)
(0.0953669 0.000200779 -0.000595234)
(0.102496 0.000215966 -0.000369519)
(0.105646 0.000176287 -0.000181203)
(0.107395 0.000129006 -6.7765e-05)
(0.108363 7.01118e-05 -3.60236e-05)
(0.108699 8.26138e-06 -5.21797e-05)
(0.108363 -3.60514e-05 -7.00376e-05)
(0.107261 -8.52983e-06 -6.93447e-05)
(0.105232 7.09144e-05 1.02204e-06)
(0.101893 0.000156249 0.000191223)
(0.0931463 0.000159575 0.000468146)
(0.0938916 0.000477751 -0.000837052)
(0.100551 0.000474896 -0.000436965)
(0.103906 0.00033674 -0.000140548)
(0.106017 0.000207904 -1.77366e-05)
(0.107261 6.94659e-05 -8.41525e-06)
(0.107742 -2.4396e-05 -5.52388e-05)
(0.107395 -6.7739e-05 -0.000128934)
(0.106017 -1.77462e-05 -0.000207727)
(0.103277 0.000166221 -0.000197467)
(0.0987716 0.00044028 -8.00565e-07)
(0.0882465 0.000543884 0.000406663)
(0.0892664 0.000950398 -0.000883473)
(0.0961505 0.000798151 -0.000326431)
(0.100414 0.000442649 7.9061e-05)
(0.103278 0.000197725 0.000166141)
(0.105232 -8.75353e-07 7.09887e-05)
(0.106027 -0.000114809 -4.23297e-05)
(0.105646 -0.000181128 -0.000176315)
(0.103906 -0.000140473 -0.000336641)
(0.100413 7.92048e-05 -0.000442477)
(0.0942589 0.000669621 -0.000145807)
(0.0784988 0.0012439 0.000292026)
(0.0781019 0.00120242 -0.000454804)
(0.087351 0.00110372 -5.47234e-06)
(0.0942587 0.000145672 0.000669534)
(0.0987715 7.38263e-07 0.000440281)
(0.101894 -0.000191318 0.000156553)
(0.102946 -0.000264994 -3.04128e-05)
(0.102496 -0.000369424 -0.000216167)
(0.100551 -0.000436886 -0.000474947)
(0.0961506 -0.000326278 -0.000798082)
(0.0873514 -5.305e-06 -0.00110381)
(0.0654435 0.00113303 -0.000184092)
(0.0594376 0.00136432 -3.40954e-05)
(0.0654426 0.000183749 0.00113286)
(0.0784978 -0.000292501 0.00124366)
(0.0882457 -0.000407032 0.000543548)
(0.0931446 -0.000467848 0.000158971)
(0.0951472 -0.00044908 -3.06282e-05)
(0.0953671 -0.000595162 -0.000201038)
(0.0938919 -0.000837093 -0.000477947)
(0.0892667 -0.000883408 -0.000950464)
(0.0781024 -0.000454539 -0.0012024)
(0.0594384 -3.39354e-05 -0.00136448)
)
;
    }
    outlet
    {
        type            zeroGradient;
    }
    procBoundary1to0
    {
        type            processor;
        value           nonuniform List<vector> 
138
(
(0.0935127 2.40055e-05 -0.000355863)
(0.0935127 2.40055e-05 -0.000355863)
(0.0935806 2.21171e-05 -0.000260235)
(0.0936306 1.49538e-05 -0.000181869)
(0.0936672 6.88993e-06 -0.000124166)
(0.0936937 -5.39544e-08 -8.33473e-05)
(0.0937132 -4.9861e-06 -5.54146e-05)
(0.0937279 -7.94271e-06 -3.66138e-05)
(0.0937395 -9.19595e-06 -2.40999e-05)
(0.0937491 -9.30813e-06 -1.60716e-05)
(0.102075 -1.02098e-05 -0.000172808)
(0.102075 -1.02098e-05 -0.000172808)
(0.10214 -5.65708e-07 -0.000135823)
(0.102187 1.93741e-06 -0.000102714)
(0.10222 4.17269e-07 -7.55564e-05)
(0.102242 -2.70094e-06 -5.45834e-05)
(0.102255 -5.87955e-06 -3.9073e-05)
(0.102263 -8.44041e-06 -2.80202e-05)
(0.102267 -1.02679e-05 -2.04239e-05)
(0.102269 -1.15691e-05 -1.52559e-05)
(0.107335 1.3094e-05 7.12895e-05)
(0.107373 2.91759e-05 8.10852e-05)
(0.105443 4.38828e-06 -8.98696e-06)
(0.107415 3.83242e-05 8.30358e-05)
(0.105443 4.38828e-06 -8.98696e-06)
(0.105498 1.07085e-05 -6.15843e-06)
(0.105538 1.18568e-05 -4.83139e-06)
(0.105567 9.51719e-06 -4.51174e-06)
(0.105586 5.44373e-06 -4.73752e-06)
(0.105597 9.83179e-07 -5.17004e-06)
(0.105603 -3.0605e-06 -5.63498e-06)
(0.105605 -6.28547e-06 -6.01194e-06)
(0.105605 -8.48109e-06 -6.04345e-06)
(0.107819 7.02326e-05 -3.02101e-05)
(0.107861 9.96277e-05 -2.90206e-05)
(0.107905 0.000109443 -2.51526e-05)
(0.107963 0.000106126 -2.06116e-05)