/*--------------------------------*- C++ -*----------------------------------*\
| =========                 |                                                 |
| \\      /  F ield         | OpenFOAM: The Open Source CFD Toolbox           |
|  \\    /   O peration     | Version:  2212                                  |
|   \\  /    A nd           | Website:  www.openfoam.com                      |
|    \\/     M anipulation  |                                                 |
\*---------------------------------------------------------------------------*/
FoamFile
{
    version     2.0;
    format      ascii;
    arch        "LSB;label=32;scalar=64";
    class       volScalarField;
    location    "0.1";
    object      nut;
}
// * * * * * * * * * * * * * * * * * * * * * * * * * * * * * * * * * * * * * //

dimensions      [0 2 -1 0 0 0 0];

internalField   nonuniform List<scalar> 
680
(
4.5357e-05
2.32151e-05
1.65184e-05
1.36437e-05
1.18639e-05
1.05151e-05
9.75417e-06
0.000107684
6.7686e-05
5.05263e-05
4.12413e-05
3.51595e-05
3.09997e-05
2.82136e-05
0.000160508
0.000107331
8.06114e-05
6.53903e-05
5.49089e-05
4.78803e-05
4.36135e-05
0.000198678
0.000138263
0.000105046
8.51777e-05
7.17478e-05
6.23214e-05
5.67713e-05
0.000218606
0.000154962
0.000118507
9.6115e-05
8.10192e-05
7.00845e-05
6.38349e-05
0.000218606
0.000154962
0.000118507
9.6115e-05
8.10192e-05
7.00845e-05
6.3835e-05
0.000198678
0.000138263
0.000105046
8.51777e-05
7.17478e-05
6.23215e-05
5.67714e-05
0.000160508
0.000107331
8.06114e-05
6.53903e-05
5.49089e-05
4.78803e-05
4.36136e-05
0.000107684
6.7686e-05
5.05263e-05
4.12413e-05
3.51595e-05
3.09997e-05
2.82136e-05
4.5357e-05
2.32151e-05
1.65184e-05
1.36437e-05
1.18639e-05
1.05151e-05
9.75417e-06
0.000107684
6.7686e-05
5.05263e-05
4.12413e-05
3.51595e-05
3.09997e-05
2.82136e-05
0.00052895
0.000370706
0.000307946
0.000268783
0.000243113
0.000225991
0.000214505
0.000664095
0.00048958
0.000408322
0.00035642
0.000323298
0.000301927
0.000288563
0.000713101
0.000557744
0.000470722
0.00041279
0.00037515
0.000351045
0.000336226
0.000728812
0.000589653
0.000500627
0.000440159
0.000400269
0.000374733
0.0003591
0.000728812
0.000589653
0.000500627
0.000440159
0.000400269
0.000374733
0.0003591
0.000713101
0.000557744
0.000470722
0.000412791
0.00037515
0.000351045
0.000336227
0.000664095
0.00048958
0.000408322
0.00035642
0.000323298
0.000301928
0.000288563
0.00052895
0.000370706
0.000307946
0.000268783
0.000243113
0.000225991
0.000214505
0.000107684
6.7686e-05
5.05263e-05
4.12413e-05
3.51595e-05
3.09997e-05
2.82136e-05
0.000160508
0.000107331
8.06114e-05
6.53903e-05
5.49089e-05
4.78803e-05
4.36136e-05
0.000664095
0.00048958
0.000408322
0.00035642
0.000323298
0.000301928
0.000288563
0.000787204
0.000664504
0.000574402
0.0005104
0.000467382
0.000440862
0.000426222
0.000809865
0.000716901
0.000639772
0.000580561
0.000538792
0.000512438
0.000498193
0.000815589
0.000733842
0.000663873
0.000608773
0.000569213
0.000544029
0.000530555
0.000815589
0.000733842
0.000663873
0.000608773
0.000569213
0.000544029
0.000530555
0.000809865
0.000716901
0.000639772
0.000580561
0.000538792
0.000512438
0.000498192
0.000787204
0.000664504
0.000574402
0.0005104
0.000467382
0.000440862
0.000426222
0.000664095
0.00048958
0.000408322
0.00035642
0.000323298
0.000301927
0.000288563
0.000160508
0.000107331
8.06114e-05
6.53903e-05
5.49089e-05
4.78803e-05
4.36135e-05
0.000198678
0.000138263
0.000105046
8.51777e-05
7.17478e-05
6.23215e-05
5.67714e-05
0.000713101
0.000557744
0.000470722
0.000412791
0.00037515
0.000351045
0.000336227
0.000809865
0.000716901
0.000639772
0.000580561
0.000538792
0.000512438
0.000498193
0.000824305
0.000758259
0.000699695
0.000651995
0.000617035
0.000594841
0.000583628
0.000827242
0.000769305
0.000718889
0.000677987
0.000648145
0.00062959
0.000620959
0.000827242
0.000769305
0.000718889
0.000677987
0.000648145
0.00062959
0.000620959
0.000824305
0.000758259
0.000699695
0.000651995
0.000617035
0.00059484
0.000583628
0.000809865
0.000716901
0.000639772
0.000580561
0.000538792
0.000512438
0.000498192
0.000713101
0.000557744
0.000470722
0.000412791
0.00037515
0.000351045
0.000336226
0.000198678
0.000138263
0.000105046
8.51777e-05
7.17478e-05
6.23215e-05
5.67714e-05
0.000218606
0.000154962
0.000118507
9.6115e-05
8.10192e-05
7.00845e-05
6.3835e-05
0.000728812
0.000589653
0.000500628
0.000440159
0.000400269
0.000374733
0.0003591
0.000815589
0.000733842
0.000663873
0.000608773
0.000569213
0.00054403
0.000530555
0.000827242
0.000769305
0.000718889
0.000677987
0.000648145
0.00062959
0.000620959
0.000829507
0.000778394
0.000735852
0.00070242
0.000678852
0.000665166
0.000660174
0.000829507
0.000778394
0.000735852
0.00070242
0.000678852
0.000665166
0.000660173
0.000827242
0.000769305
0.000718889
0.000677987
0.000648145
0.00062959
0.000620958
0.000815589
0.000733842
0.000663873
0.000608773
0.000569213
0.00054403
0.000530555
0.000728812
0.000589653
0.000500628
0.000440159
0.000400269
0.000374733
0.0003591
0.000218606
0.000154962
0.000118507
9.6115e-05
8.10193e-05
7.00847e-05
6.38351e-05
0.000218606
0.000154962
0.000118507
9.6115e-05
8.10192e-05
7.00845e-05
6.3835e-05
0.000728812
0.000589653
0.000500627
0.000440159
0.000400269
0.000374733
0.0003591
0.000815589
0.000733842
0.000663873
0.000608773
0.000569213
0.000544029
0.000530555
0.000827242
0.000769305
0.000718889
0.000677987
0.000648145
0.00062959
0.000620959
0.000829507
0.000778394
0.000735852
0.00070242
0.000678852
0.000665166
0.000660172
0.000829507
0.000778394
0.000735852
0.00070242
0.000678852
0.000665164
0.000660169
0.000827242
0.000769305
0.000718889
0.000677987
0.000648145
0.00062959
0.000620957
0.000815589
0.000733842
0.000663874
0.000608773
0.000569214
0.000544033
0.000530561
0.000728812
0.000589653
0.000500628
0.000440159
0.00040027
0.000374738
0.000359105
0.000218606
0.000154962
0.000118507
9.6115e-05
8.10193e-05
7.00851e-05
6.38358e-05
0.000198678
0.000138263
0.000105046
8.51777e-05
7.17478e-05
6.23214e-05
5.67713e-05
0.000713101
0.000557744
0.000470722
0.000412791
0.00037515
0.000351045
0.000336226
0.000809865
0.000716901
0.000639772
0.000580561
0.000538792
0.000512438
0.000498193
0.000824305
0.000758259
0.000699695
0.000651995
0.000617035
0.000594841
0.000583628
0.000827242
0.000769305
0.000718889
0.000677987
0.000648145
0.000629589
0.000620955
0.000827242
0.000769305
0.000718889
0.000677987
0.000648144
0.000629585
0.000824305
0.000758259
0.000699695
0.000651996
0.000617036
0.000594841
0.000809865
0.000716902
0.000639772
0.000580562
0.000538797
0.000512453
0.000713101
0.000557745
0.000470722
0.000412792
0.000375158
0.000351095
0.000198678
0.000138263
0.000105046
8.51777e-05
7.17477e-05
6.23233e-05
0.000160508
0.000107331
8.06114e-05
6.53903e-05
5.49089e-05
4.78803e-05
4.36135e-05
0.000664095
0.00048958
0.000408322
0.00035642
0.000323298
0.000301928
0.000288563
0.000787204
0.000664504
0.000574402
0.000510401
0.000467383
0.000440862
0.000426222
0.000809865
0.000716902
0.000639772
0.000580561
0.000538793
0.000512439
0.000498194
0.000815589
0.000733842
0.000663874
0.000608773
0.000569214
0.000544032
0.00053056
0.000815589
0.000733842
0.000663874
0.000608773
0.000569214
0.000544033
0.000809865
0.000716902
0.000639772
0.000580562
0.000538796
0.000512447
0.000787204
0.000664504
0.000574402
0.000510402
0.000467391
0.000440892
0.000664095
0.00048958
0.000408322
0.000356422
0.000323315
0.000302064
0.000160508
0.000107331
8.06114e-05
6.53904e-05
5.49094e-05
4.78866e-05
0.000107684
6.7686e-05
5.05263e-05
4.12413e-05
3.51595e-05
3.09997e-05
2.82136e-05
0.00052895
0.000370706
0.000307946
0.000268783
0.000243113
0.000225992
0.000214506
0.000664095
0.00048958
0.000408322
0.00035642
0.000323298
0.000301929
0.000288566
0.000713101
0.000557744
0.000470722
0.000412791
0.000375151
0.000351049
0.000336236
0.000728812
0.000589653
0.000500628
0.000440159
0.000400271
0.000374742
0.000359139
0.000728812
0.000589653
0.000500628
0.000440159
0.000400272
0.000374753
0.000713101
0.000557745
0.000470722
0.000412792
0.000375155
0.000351068
0.000664095
0.00048958
0.000408322
0.000356422
0.000323314
0.000302055
0.00052895
0.000370706
0.000307947
0.000268785
0.000243123
0.00022604
0.000107684
6.76861e-05
5.05263e-05
4.12416e-05
3.51597e-05
3.1002e-05
4.5357e-05
2.32151e-05
1.65184e-05
1.36437e-05
1.18639e-05
1.05151e-05
9.75417e-06
0.000107684
6.7686e-05
5.05263e-05
4.12413e-05
3.51595e-05
3.09997e-05
2.82136e-05
0.000160508
0.000107331
8.06114e-05
6.53903e-05
5.49088e-05
4.78803e-05
4.36136e-05
0.000198678
0.000138263
0.000105046
8.51777e-05
7.17477e-05
6.23215e-05
5.67715e-05
0.000218606
0.000154962
0.000118507
9.61149e-05
8.1019e-05
7.00842e-05
6.38353e-05
0.000218606
0.000154962
0.000118507
9.61149e-05
8.10191e-05
7.00847e-05
0.000198678
0.000138263
0.000105046
8.51777e-05
7.17478e-05
6.23227e-05
0.000160508
0.000107331
8.06114e-05
6.53904e-05
5.49095e-05
4.78867e-05
0.000107684
6.76861e-05
5.05263e-05
4.12416e-05
3.51598e-05
3.1002e-05
4.5357e-05
2.32151e-05
1.65185e-05
1.36433e-05
1.1864e-05
1.05159e-05
)
;

boundaryField
{
    inlet
    {
        type            calculated;
        value           uniform 0.000851986;
    }
    ami1
    {
        type            cyclicAMI;
        value           nonuniform List<scalar> 0();
    }
    walls
    {
        type            nutkWallFunction;
        blending        stepwise;
        value           nonuniform List<scalar> 
271
(
0
9.4007e-06
1.69777e-05
2.22375e-05
2.49294e-05
2.49294e-05
2.22375e-05
1.69777e-05
9.4007e-06
0
0
3.31823e-06
9.35888e-06
1.38491e-05
1.62139e-05
1.62139e-05
1.38491e-05
9.35888e-06
3.31823e-06
0
0
5.87095e-07
5.37539e-06
9.06765e-06
1.1049e-05
1.1049e-05
9.06765e-06
5.37539e-06
5.87097e-07
0
0
0
3.07661e-06
6.19355e-06
7.86056e-06
7.86056e-06
6.19356e-06
3.07662e-06
0
0
0
0
1.52072e-06
4.25605e-06
5.71143e-06
5.71144e-06
4.25608e-06
1.52077e-06
0
0
0
0
6.16859e-07
3.07891e-06
4.37447e-06
4.3745e-06
3.0792e-06
6.17295e-07
0
0
0
0
3.73513e-08
2.34798e-06
3.56501e-06
3.56502e-06
0
9.4007e-06
1.69777e-05
2.22375e-05
2.49294e-05
2.49294e-05
2.22375e-05
1.69777e-05
9.4007e-06
0
0
3.31823e-06
9.35888e-06
1.38491e-05
1.62139e-05
1.62139e-05
1.38491e-05
9.35888e-06
3.31823e-06
0
0
5.87094e-07
5.37539e-06
9.06765e-06
1.1049e-05
1.1049e-05
9.06765e-06
5.37539e-06
5.87094e-07
0
0
0
3.07661e-06
6.19355e-06
7.86056e-06
7.86056e-06
6.19355e-06
3.07661e-06
0
0
0
0
1.52072e-06
4.25605e-06
5.71142e-06
5.71143e-06
4.25605e-06
1.52072e-06
0
0
0
0
6.16859e-07
3.07891e-06
4.37446e-06
4.37446e-06
3.07892e-06
6.16863e-07
0
0
0
0
3.73509e-08
2.34798e-06
3.56502e-06
3.56502e-06
2.34799e-06
3.7358e-08
0
0
0
9.4007e-06
1.69777e-05
2.22375e-05
2.49294e-05
2.49294e-05
2.22375e-05
1.69777e-05
9.4007e-06
0
0
3.31823e-06
9.35888e-06
1.38491e-05
1.62139e-05
1.62139e-05
1.38491e-05
9.35888e-06
3.31823e-06
0
0
5.87095e-07
5.37539e-06
9.06765e-06
1.1049e-05
1.1049e-05
9.06765e-06
5.37539e-06
5.87095e-07
0
0
0
3.07662e-06
6.19355e-06
7.86056e-06
7.86056e-06
6.19355e-06
3.07661e-06
0
0
0
0
1.52072e-06
4.25605e-06
5.71143e-06
5.71143e-06
4.25605e-06
1.52072e-06
0
0
0
0
6.16865e-07
3.07892e-06
4.37447e-06
4.37447e-06
3.07892e-06
6.16862e-07
0
0
0
0
3.73589e-08
2.34799e-06
3.56503e-06
3.56503e-06
2.34799e-06
3.73538e-08
0
0
0
9.4007e-06
1.69777e-05
2.22375e-05
2.49294e-05
2.49294e-05
2.22375e-05
1.69777e-05
9.4007e-06
0
0
3.31823e-06
9.35888e-06
1.38491e-05
1.62139e-05
1.62139e-05
1.38491e-05
9.35888e-06
3.31823e-06
0
0
5.87096e-07
5.37539e-06
9.06765e-06
1.1049e-05
1.1049e-05
9.06765e-06
5.37539e-06
5.87097e-07
0
0
0
3.07662e-06
6.19355e-06
7.86056e-06
7.86056e-06
6.19355e-06
3.07662e-06
0
0
0
0
1.52073e-06
4.25606e-06
5.71144e-06
5.71144e-06
4.25607e-06
1.52077e-06
0
0
0
0
6.16887e-07
3.07897e-06
4.37458e-06
4.3746e-06
3.07906e-06
6.17227e-07
0
0
0
0
3.74042e-08
2.34811e-06
3.56538e-06
)
;
    }
    ami2
    {
        type            cyclicAMI;
        value           nonuniform List<scalar> 0();
    }
    outlet
    {
        type            calculated;
        value           nonuniform List<scalar> 0();
    }
    procBoundary4to3
    {
        type            processor;
        value           nonuniform List<scalar> 
109
(
9.2132e-06
2.62867e-05
4.04483e-05
5.25631e-05
5.91017e-05
5.91017e-05
5.25632e-05
4.04484e-05
2.62867e-05
9.21322e-06
2.62867e-05
0.000206537
0.000280455
0.0003273
0.0003498
0.0003498
0.000327301
0.000280456
0.000206538
2.62867e-05
4.04484e-05
0.000280456
0.000419166
0.000492113
0.000525147
0.000525147
0.000492113
0.000419166
0.000280456
4.04484e-05
5.25632e-05
0.000327301
0.000492113
0.000580358
0.000619643
0.000619643
0.000580357
0.000492113
0.0003273
5.25632e-05
5.91017e-05
0.0003498
0.000525147
0.000619644
0.000661631
0.000661629
0.000619642
0.000525148
0.0003498
5.91019e-05
5.91017e-05
0.0003498
0.000525147
0.000619643
0.000661629
0.000661626
0.000620956
0.000619642
0.000583633
0.000525155
0.000498229
0.000349811
0.000336466
5.91025e-05
5.67762e-05
5.25631e-05
0.000327301
0.000492113
0.000580357
0.00061964
0.000620956
0.000620956
0.000583633
0.000498229
0.000336466
5.67762e-05
4.04483e-05
0.000280455
0.000419166
0.000492115
0.000525155
0.000530568
0.000530568
0.000498205
0.000426254
0.000288666
4.36184e-05
2.62867e-05
0.000206538
0.00028046
0.000327312
0.000349832
0.000359201
0.000359201
0.000336252
0.000288629
0.00021455
2.82163e-05
9.21321e-06
2.62868e-05
4.04486e-05
5.25635e-05
5.91026e-05
6.38373e-05
6.38373e-05
5.6773e-05
4.36176e-05
2.82162e-05
9.7537e-06
)
;
    }
}


// ************************************************************************* //
