/*--------------------------------*- C++ -*----------------------------------*\
| =========                 |                                                 |
| \\      /  F ield         | OpenFOAM: The Open Source CFD Toolbox           |
|  \\    /   O peration     | Version:  2212                                  |
|   \\  /    A nd           | Website:  www.openfoam.com                      |
|    \\/     M anipulation  |                                                 |
\*---------------------------------------------------------------------------*/
FoamFile
{
    version     2.0;
    format      ascii;
    arch        "LSB;label=32;scalar=64";
    class       surfaceVectorField;
    location    "2.75";
    object      Uf;
}
// * * * * * * * * * * * * * * * * * * * * * * * * * * * * * * * * * * * * * //

dimensions      [0 1 -1 0 0 0 0];

internalField   nonuniform List<vector> 
1763
(
(0.0218167 -2.54553e-05 3.55064e-06)
(0.0279928 -7.10552e-05 -3.04093e-05)
(0.0216337 -2.33663e-05 1.13078e-06)
(0.0277632 -6.60288e-05 -3.08845e-05)
(0.0268727 -2.67068e-05 2.15499e-05)
(0.0214618 -2.15254e-05 -1.96048e-06)
(0.0275458 -5.95347e-05 -3.21833e-05)
(0.0266699 -2.55134e-05 1.74214e-05)
(0.0212963 -1.86485e-05 -5.44503e-06)
(0.027329 -5.42717e-05 -3.5034e-05)
(0.0264699 -2.48738e-05 1.32303e-05)
(0.0211303 -1.80623e-05 -1.05592e-05)
(0.027156 -4.94747e-05 -3.6803e-05)
(0.0263129 -2.42623e-05 4.50092e-06)
(0.0268106 -4.54627e-05 -4.55862e-05)
(0.026006 -2.90036e-05 -2.35361e-06)
(0.0369739 -0.000119239 -7.97408e-05)
(0.043562 -0.000149311 -0.000157498)
(0.0501579 -0.000164372 -6.59342e-05)
(0.0366848 -0.000108531 -7.84172e-05)
(0.0432195 -0.000135102 -0.00015001)
(0.0498246 -0.000160438 -6.8372e-05)
(0.0364098 -9.91306e-05 -7.93705e-05)
(0.0428911 -0.000123047 -0.000145781)
(0.0495072 -0.000151006 -7.07519e-05)
(0.0361399 -9.01441e-05 -7.98019e-05)
(0.0425589 -0.000116802 -0.000145014)
(0.0491848 -0.000143683 -7.51166e-05)
(0.035884 -8.44348e-05 -8.60258e-05)
(0.0422836 -0.000104294 -0.000139462)
(0.0489213 -0.000136015 -7.87811e-05)
(0.0417853 -0.00010656 -0.000146085)
(0.0484528 -0.000140721 -9.78336e-05)
(0.0513781 -0.000176706 -0.000245961)
(0.0509793 -0.000161445 -0.00023447)
(0.0551311 -0.000198021 -0.000339384)
(0.0682072 -0.000288229 -0.000304585)
(0.050592 -0.000151749 -0.000227665)
(0.0547097 -0.00018631 -0.000326083)
(0.0678577 -0.000275712 -0.000296216)
(0.0502116 -0.000142569 -0.000220044)
(0.0542825 -0.000177703 -0.000312959)
(0.0674997 -0.000269662 -0.000292643)
(0.0498411 -0.000136321 -0.000213474)
(0.0539267 -0.000163145 -0.000292296)
(0.0672029 -0.000260714 -0.000285755)
(0.0533235 -0.000157359 -0.000274538)
(0.0666901 -0.000254946 -0.000281269)
(0.0594001 -0.00022457 -0.000444861)
(0.061843 -0.00026713 -0.000574757)
(0.0777538 -0.000350134 -0.000544545)
(0.0589463 -0.000215376 -0.000424185)
(0.061359 -0.000255604 -0.00054494)
(0.0774112 -0.000342388 -0.000525808)
(0.0585065 -0.000202376 -0.000396587)
(0.060882 -0.000236183 -0.000501379)
(0.0770667 -0.00033829 -0.000508376)
(0.0580849 -0.000187746 -0.000362988)
(0.0604855 -0.00021206 -0.000451026)
(0.0767739 -0.00033019 -0.000484583)
(0.0598476 -0.00019021 -0.000396849)
(0.0762924 -0.00031526 -0.000449854)
(0.0639573 -0.000304623 -0.000682284)
(0.0823751 -0.000417484 -0.000754216)
(0.0634597 -0.000280273 -0.000628924)
(0.0641641 -0.000262231 -0.000657776)
(0.0820424 -0.000405333 -0.000723138)
(0.0629902 -0.000247668 -0.00056154)
(0.0636807 -0.000240336 -0.000603736)
(0.0817178 -0.000386343 -0.000679095)
(0.0625515 -0.000215069 -0.000489407)
(0.0632752 -0.000212974 -0.000532311)
(0.0814427 -0.000365456 -0.00062767)
(0.0626511 -0.000181064 -0.000445708)
(0.0810065 -0.000334482 -0.000562799)
(0.0644026 -0.000227355 -0.000630615)
(0.0632526 -0.000187473 -0.000519429)
(0.0829329 -0.000353706 -0.000724664)
(0.0639489 -0.000207926 -0.000573682)
(0.062819 -0.000171688 -0.000484145)
(0.0826404 -0.000339744 -0.000692415)
(0.0635273 -0.000179963 -0.000488109)
(0.0624494 -0.000153867 -0.000434055)
(0.0823912 -0.000319422 -0.000640005)
(0.0618821 -0.00013318 -0.000366247)
(0.0820113 -0.000285099 -0.000556693)
(0.0617048 -0.000130978 -0.000376692)
(0.0587788 -0.000109601 -0.000322961)
(0.0804744 -0.000225057 -0.000565668)
(0.061322 -0.000119845 -0.00034646)
(0.0584025 -0.000103719 -0.000301573)
(0.0802242 -0.000210482 -0.000543227)
(0.0609587 -0.000110793 -0.000312747)
(0.0580791 -9.93445e-05 -0.000277604)
(0.0800093 -0.000196544 -0.000513982)
(0.0575751 -9.22328e-05 -0.000249865)
(0.0796743 -0.000175481 -0.000461199)
(0.0556909 -9.3176e-05 -0.000246531)
(0.0509458 -7.69143e-05 -0.000200822)
(0.0746781 -9.653e-05 -0.000454177)
(0.0553428 -9.2401e-05 -0.000231663)
(0.0506182 -7.77026e-05 -0.000189521)
(0.074415 -9.14293e-05 -0.000441263)
(0.0550134 -8.73087e-05 -0.000214639)
(0.0503359 -7.49076e-05 -0.000173264)
(0.0741889 -8.48501e-05 -0.000418212)
(0.0498898 -6.31794e-05 -0.000168548)
(0.0738387 -7.31873e-05 -0.000383875)
(0.046472 -4.97064e-05 -0.000160825)
(0.0398357 -2.88694e-05 -0.000113907)
(0.0644482 5.44653e-06 -0.000337038)
(0.0461794 -4.89829e-05 -0.000147623)
(0.0395729 -2.85383e-05 -0.000106907)
(0.0641553 5.3671e-06 -0.000325188)
(0.0459061 -4.27234e-05 -0.000140586)
(0.0393521 -2.4326e-05 -9.54469e-05)
(0.0639027 8.85717e-06 -0.000306628)
(0.0389787 -1.64272e-05 -0.000101524)
(0.0634957 1.6538e-05 -0.000298223)
(0.0345099 -3.37177e-05 -5.33851e-05)
(0.0269003 -2.4724e-05 -2.68683e-05)
(0.0342712 -3.02496e-05 -5.10829e-05)
(0.0266942 -2.15232e-05 -2.55396e-05)
(0.0483182 2.36951e-05 -0.000138335)
(0.0340453 -2.314e-05 -4.87163e-05)
(0.0264972 -1.69702e-05 -2.53984e-05)
(0.0480261 2.80892e-05 -0.000135073)
(0.0338433 -1.36758e-05 -5.31667e-05)
(0.0263402 -8.40681e-06 -2.44753e-05)
(0.0477817 3.51711e-05 -0.000124826)
(0.0260328 -1.76651e-06 -2.96912e-05)
(0.0473664 4.58046e-05 -0.00013625)
(0.0216565 -4.24116e-06 -2.43169e-05)
(0.027791 2.73012e-05 -6.76717e-05)
(0.0214848 -1.47012e-06 -2.27347e-05)
(0.0275705 2.78735e-05 -6.25352e-05)
(0.0213185 2.01525e-06 -1.97119e-05)
(0.0273567 3.0094e-05 -5.72127e-05)
(0.0211537 7.59723e-06 -1.9254e-05)
(0.0271829 3.16507e-05 -5.19489e-05)
(0.0268352 4.1058e-05 -4.87955e-05)
(0.0344766 -5.29966e-05 3.04395e-05)
(0.0485835 -0.000145436 -2.68485e-05)
(0.0342391 -5.15113e-05 2.61013e-05)
(0.0482865 -0.000138727 -3.021e-05)
(0.0398029 -0.000112171 2.61037e-05)
(0.0340132 -4.96259e-05 1.85553e-05)
(0.0479874 -0.000132272 -3.40221e-05)
(0.039534 -0.000108231 2.3845e-05)
(0.0338086 -5.36917e-05 8.18577e-06)
(0.0477463 -0.00012362 -4.2287e-05)
(0.0393131 -9.7415e-05 1.89965e-05)
(0.0473314 -0.000133339 -5.37923e-05)
(0.0389392 -0.000101494 1.05072e-05)
(0.06638 -0.000269029 -9.97673e-05)
(0.0660043 -0.000263382 -0.000103139)
(0.0763834 -0.000376493 -0.000253997)
(0.075199 -0.000427104 -0.00010304)
(0.0656378 -0.000252301 -0.000105856)
(0.0760472 -0.000362034 -0.000250241)
(0.0748742 -0.000415009 -0.000103732)
(0.0652816 -0.000242149 -0.000110179)
(0.0757009 -0.000351182 -0.000247679)
(0.0745384 -0.000399002 -0.000105546)
(0.064933 -0.000236705 -0.000119393)
(0.0754183 -0.000340091 -0.000246331)
(0.0742653 -0.000382035 -0.000109058)
(0.0749416 -0.00032251 -0.000243069)
(0.0738088 -0.000358618 -0.00011489)
(0.0880554 -0.000465803 -0.000426956)
(0.0930302 -0.000499567 -0.000561467)
(0.0968684 -0.000663857 -0.000443308)
(0.0877526 -0.000452627 -0.00041688)
(0.092771 -0.000486995 -0.000543389)
(0.0966977 -0.000648445 -0.000434339)
(0.0874535 -0.000441206 -0.000407606)
(0.0925066 -0.000477697 -0.000529598)
(0.0965206 -0.000635408 -0.000425669)
(0.0871571 -0.000422655 -0.000391468)
(0.0922822 -0.000469377 -0.000514201)
(0.0963692 -0.000616844 -0.000415406)
(0.0919058 -0.000441795 -0.000478176)
(0.0961016 -0.000568304 -0.000383448)
(0.0982262 -0.00052093 -0.00069082)
(0.100441 -0.000544747 -0.000785922)
(0.106556 -0.000682917 -0.000732613)
(0.0980159 -0.000513608 -0.000668238)
(0.100268 -0.000534475 -0.000757765)
(0.106501 -0.000674134 -0.000712167)
(0.0978045 -0.000509753 -0.000647421)
(0.100093 -0.000529203 -0.000732653)
(0.106443 -0.000665507 -0.000691735)
(0.0975944 -0.000493471 -0.000611004)
(0.0999353 -0.000521345 -0.000700879)
(0.106387 -0.000650241 -0.000665297)
(0.0996766 -0.000487463 -0.000643061)
(0.106285 -0.00060685 -0.000603277)
(0.1026 -0.00056063 -0.000856934)
(0.103015 -0.00054138 -0.000874955)
(0.110676 -0.000659765 -0.000918197)
(0.102466 -0.000549361 -0.000826855)
(0.102902 -0.000526671 -0.000847025)
(0.110696 -0.000648545 -0.000891555)
(0.102329 -0.000538059 -0.000790885)
(0.102788 -0.00051309 -0.000817737)
(0.110713 -0.000635876 -0.000859766)
(0.102191 -0.000513406 -0.000736962)
(0.102685 -0.000497591 -0.000775966)
(0.110723 -0.000616673 -0.00081428)
(0.102517 -0.000459765 -0.000704355)
(0.110722 -0.000567775 -0.000732398)
(0.103324 -0.00051098 -0.000863644)
(0.102333 -0.000437211 -0.000835279)
(0.11145 -0.000533438 -0.000948081)
(0.103231 -0.000496178 -0.000835699)
(0.102243 -0.00042314 -0.000813221)
(0.111508 -0.000521327 -0.000923204)
(0.103141 -0.000477931 -0.000800769)
(0.102153 -0.000405837 -0.000788871)
(0.111566 -0.000505743 -0.000892886)
(0.103054 -0.000446979 -0.000742085)
(0.102075 -0.000383206 -0.000751002)
(0.111617 -0.000482986 -0.000846785)
(0.101952 -0.000341938 -0.000678477)
(0.111678 -0.000437138 -0.000757544)
(0.101271 -0.000338377 -0.000791235)
(0.109714 -0.000292138 -0.000903115)
(0.101183 -0.00032069 -0.000773213)
(0.0985625 -0.000207368 -0.000748134)
(0.109778 -0.000277651 -0.00088728)
(0.101098 -0.000300809 -0.000745039)
(0.0984403 -0.000192592 -0.000728797)
(0.109838 -0.000261415 -0.000862772)
(0.101017 -0.000272477 -0.000691149)
(0.0983354 -0.000176857 -0.000693733)
(0.109891 -0.00024246 -0.000820369)
(0.0981741 -0.000153941 -0.000625278)
(0.10996 -0.000210028 -0.000737438)
(0.0959599 -9.88801e-05 -0.000697956)
(0.0904589 -1.62948e-05 -0.000633894)
(0.10515 5.01016e-06 -0.000834663)
(0.0958095 -8.65679e-05 -0.000672495)
(0.0902364 -9.437e-06 -0.000618236)
(0.105143 1.35699e-05 -0.000815546)
(0.0956651 -7.1853e-05 -0.000624982)
(0.0900451 -5.58284e-07 -0.000591739)
(0.105139 2.21505e-05 -0.000781385)
(0.0897412 9.35967e-06 -0.00054104)
(0.105121 3.24563e-05 -0.000704345)
(0.0852451 6.78612e-05 -0.000562384)
(0.0749 9.54503e-05 -0.000412634)
(0.0953601 0.000221199 -0.00071327)
(0.0849678 7.07336e-05 -0.000544635)
(0.0745715 9.72384e-05 -0.000403358)
(0.0951949 0.00021997 -0.000699047)
(0.0846938 7.61686e-05 -0.000514751)
(0.0742901 9.94442e-05 -0.000385815)
(0.0950527 0.000219365 -0.000675029)
(0.073832 0.00010486 -0.000364467)
(0.0948081 0.000214905 -0.000621033)
(0.0656789 9.69768e-05 -0.0002545)
(0.0495395 6.28641e-05 -0.000153288)
(0.0760743 0.000241115 -0.000365047)
(0.0653214 0.000101194 -0.000247368)
(0.0492239 6.73378e-05 -0.000148676)
(0.075735 0.000238437 -0.000356285)
(0.0649721 0.000109233 -0.000241719)
(0.0489562 6.96863e-05 -0.000139676)
(0.0754448 0.000234075 -0.000342275)
(0.0484847 8.89808e-05 -0.000146512)
(0.0749673 0.000232482 -0.000330182)
(0.0367197 7.33511e-05 -0.00011376)
(0.0432583 0.000145393 -0.000141326)
(0.036442 7.29145e-05 -0.0001045)
(0.0429256 0.000139435 -0.000131198)
(0.0361715 7.2141e-05 -9.413e-05)
(0.0426008 0.000136279 -0.000121081)
(0.035917 7.8257e-05 -8.92163e-05)
(0.0423201 0.000129837 -0.000108418)
(0.0418188 0.000137329 -0.000114138)
(0.0464289 -0.000160622 4.57225e-05)
(0.064421 -0.000336966 -1.05524e-05)
(0.0509028 -0.000198394 7.35711e-05)
(0.0461348 -0.000150204 4.34227e-05)
(0.064122 -0.000325885 -1.16025e-05)
(0.0505704 -0.000190959 7.17526e-05)
(0.0458594 -0.000142367 3.6678e-05)
(0.0638735 -0.000307824 -1.60811e-05)
(0.050288 -0.000175762 6.83381e-05)
(0.0634669 -0.000295648 -2.44669e-05)
(0.0498414 -0.000169679 5.60218e-05)
(0.0855102 -0.000578875 -7.42616e-05)
(0.0955177 -0.000728199 -0.000232022)
(0.0852298 -0.000562853 -7.55452e-05)
(0.0953599 -0.00071473 -0.000229661)
(0.0904594 -0.000637717 7.19743e-06)
(0.0849536 -0.000541339 -7.90053e-05)
(0.095195 -0.00069672 -0.000229305)
(0.0902344 -0.000616661 1.16842e-06)
(0.0846822 -0.000510182 -8.56141e-05)
(0.0950543 -0.000672624 -0.000230378)
(0.0900479 -0.000589429 -8.21622e-06)
(0.0948098 -0.000613166 -0.000223886)
(0.0897444 -0.000537334 -1.91918e-05)
(0.106545 -0.000840706 -0.000412534)
(0.110898 -0.000834263 -0.00056081)
(0.110632 -0.000891832 -0.000280013)
(0.106521 -0.000827296 -0.000407892)
(0.110941 -0.000823839 -0.000551214)
(0.110696 -0.00087847 -0.000279677)
(0.106487 -0.000810833 -0.000404119)
(0.110981 -0.000812338 -0.000542389)
(0.110757 -0.000864611 -0.000280796)
(0.106446 -0.000768847 -0.000389088)
(0.111007 -0.000790063 -0.000528183)
(0.110803 -0.000838824 -0.000281424)
(0.111027 -0.000735883 -0.000489711)
(0.110853 -0.000772256 -0.000265661)
(0.115636 -0.000822486 -0.000709162)
(0.117434 -0.000779665 -0.000810059)
(0.119328 -0.000820431 -0.000558768)
(0.115746 -0.000814588 -0.000694926)
(0.117583 -0.000773018 -0.000794792)
(0.119528 -0.000814465 -0.00055008)
(0.115849 -0.000797606 -0.000674981)
(0.117729 -0.00076231 -0.00077418)
(0.119724 -0.000804143 -0.00053967)
(0.115947 -0.000762686 -0.000636637)
(0.117851 -0.000739525 -0.00074147)
(0.119894 -0.000782045 -0.000522946)
(0.118024 -0.000691152 -0.000678698)
(0.12013 -0.00073815 -0.000486226)
(0.119467 -0.000727082 -0.000900116)
(0.11978 -0.00062757 -0.000937344)
(0.123062 -0.000680885 -0.000744778)
(0.119649 -0.000717654 -0.000878292)
(0.119984 -0.000619215 -0.000918965)
(0.123322 -0.000673382 -0.000729953)
(0.119824 -0.000700715 -0.000844756)
(0.120185 -0.000607067 -0.00089315)
(0.123578 -0.000661917 -0.000709571)
(0.119991 -0.000664827 -0.000787088)
(0.12036 -0.000585704 -0.000851769)
(0.123806 -0.000641481 -0.000678135)
(0.120604 -0.000541666 -0.000775937)
(0.12412 -0.000602123 -0.000626296)
(0.120306 -0.000521153 -0.000955484)
(0.11951 -0.000373047 -0.000964303)
(0.123953 -0.00043569 -0.000822855)
(0.120525 -0.000510304 -0.000933022)
(0.119733 -0.000363558 -0.000949046)
(0.12424 -0.000427783 -0.000807013)
(0.120739 -0.000493513 -0.000899445)
(0.119954 -0.000350611 -0.000925045)
(0.124525 -0.000416826 -0.000785971)
(0.120943 -0.000463098 -0.000840245)
(0.120147 -0.000332572 -0.000883899)
(0.12478 -0.000400112 -0.000753128)
(0.120417 -0.000300189 -0.000809073)
(0.125131 -0.000371215 -0.000698889)
(0.118949 -0.000211299 -0.000960661)
(0.116869 -3.48507e-05 -0.000956431)
(0.122714 -0.000103109 -0.000865695)
(0.11917 -0.000200243 -0.00094359)
(0.117061 -2.81152e-05 -0.000944802)
(0.122999 -9.57931e-05 -0.000855543)
(0.119386 -0.000187418 -0.000911385)
(0.117248 -2.14363e-05 -0.000924012)
(0.123279 -8.79451e-05 -0.000834928)
(0.119591 -0.000169343 -0.000853698)
(0.117412 -1.4508e-05 -0.000886766)
(0.12353 -7.91546e-05 -0.000799715)
(0.11764 -4.8498e-06 -0.000815151)
(0.123874 -6.65932e-05 -0.00074471)
(0.115067 0.0001334 -0.000937134)
(0.110604 0.000269227 -0.000889857)
(0.119013 0.000255872 -0.00087956)
(0.115222 0.000138122 -0.00092289)
(0.11067 0.000270079 -0.000880074)
(0.119237 0.00025773 -0.000870605)
(0.115372 0.000141771 -0.000898293)
(0.110728 0.000270273 -0.000865074)
(0.119455 0.000258768 -0.000855093)
(0.115516 0.000142036 -0.000847683)
(0.110779 0.000269187 -0.000837767)
(0.119649 0.000256763 -0.000826732)
(0.11083 0.000256587 -0.000777636)
(0.119916 0.000246339 -0.000773023)
(0.106527 0.000402373 -0.000840363)
(0.110879 0.000548935 -0.000830222)
(0.106502 0.000397617 -0.000828849)
(0.0966993 0.000425341 -0.000653377)
(0.110927 0.000540829 -0.000824711)
(0.10647 0.000392144 -0.000810145)
(0.0965218 0.000415026 -0.000638905)
(0.110963 0.000530895 -0.00081247)
(0.106431 0.00037876 -0.000772855)
(0.0963696 0.000402295 -0.000617151)
(0.110995 0.000517586 -0.000789604)
(0.0961029 0.000373856 -0.000577958)
(0.111015 0.000484868 -0.000744528)
(0.0877703 0.000407321 -0.000459116)
(0.0678876 0.000287994 -0.000283182)
(0.0927856 0.000534417 -0.000492209)
(0.0874706 0.000394687 -0.000444612)
(0.0675372 0.000281102 -0.000274801)
(0.0925229 0.0005176 -0.000483547)
(0.087174 0.000378539 -0.000428029)
(0.0672315 0.000272125 -0.000264747)
(0.0922965 0.000498939 -0.000473248)
(0.0667177 0.000270927 -0.000265086)
(0.0919218 0.000469619 -0.000453305)
(0.0510238 0.000228452 -0.000169603)
(0.055181 0.000333412 -0.000205762)
(0.0506371 0.000218774 -0.000158985)
(0.0547584 0.000318015 -0.000194006)
(0.0502564 0.000209002 -0.000149243)
(0.054341 0.000302631 -0.000186241)
(0.0498846 0.000202534 -0.000145075)
(0.0539752 0.000281103 -0.000174818)
(0.0533718 0.000264056 -0.000169695)
(0.0556411 -0.000245462 8.80813e-05)
(0.0746602 -0.000454218 8.98409e-05)
(0.0587321 -0.000320732 0.000104863)
(0.0552925 -0.00023299 8.52739e-05)
(0.074396 -0.000442519 8.34367e-05)
(0.0583544 -0.000301768 9.64256e-05)
(0.0549624 -0.00021655 7.94405e-05)
(0.0741697 -0.000419378 7.66501e-05)
(0.058031 -0.000278882 9.09823e-05)
(0.0738191 -0.000383821 6.46608e-05)
(0.0575274 -0.000251018 8.37633e-05)
(0.0959769 -0.000699953 8.88787e-05)
(0.105176 -0.00083643 -1.54171e-05)
(0.0985893 -0.000750748 0.000196877)
(0.0958256 -0.000672459 7.71666e-05)
(0.10517 -0.000815069 -2.40169e-05)
(0.0984672 -0.000730754 0.000182528)
(0.0956814 -0.000623588 6.28523e-05)
(0.105163 -0.000780034 -3.22738e-05)
(0.098362 -0.000695036 0.000167296)
(0.105146 -0.000702734 -4.19189e-05)
(0.0981998 -0.000625475 0.00014456)
(0.115104 -0.000937163 -0.000143647)
(0.119043 -0.000879226 -0.000266542)
(0.116902 -0.00095786 2.53582e-05)
(0.115259 -0.000922933 -0.0001488)
(0.119265 -0.000869973 -0.000268082)
(0.117092 -0.000945557 1.71258e-05)
(0.115408 -0.000898214 -0.000152585)
(0.119484 -0.000855205 -0.000268189)
(0.117281 -0.00092444 9.88266e-06)
(0.115551 -0.000847144 -0.000152443)
(0.119676 -0.000828048 -0.000265514)
(0.117443 -0.000886112 2.97963e-06)
(0.119944 -0.000773251 -0.000253354)
(0.117671 -0.000812842 -4.9679e-06)
(0.123469 -0.000815855 -0.000396654)
(0.125111 -0.000728652 -0.000487015)
(0.125045 -0.000794657 -0.000217564)
(0.123756 -0.000807634 -0.000392443)
(0.125426 -0.00072101 -0.000480224)
(0.125365 -0.000788384 -0.000214807)
(0.124036 -0.000792073 -0.000385343)
(0.125735 -0.00071026 -0.000471074)
(0.125679 -0.00077514 -0.000211505)
(0.124305 -0.000760843 -0.000370476)
(0.126015 -0.00069009 -0.000456471)
(0.125962 -0.00075023 -0.000206305)
(0.126398 -0.000654714 -0.000429941)
(0.12635 -0.000709368 -0.000197284)
(0.127135 -0.000628676 -0.00057443)
(0.127442 -0.000487903 -0.000632125)
(0.128683 -0.000570609 -0.000401726)
(0.12747 -0.000619555 -0.000562185)
(0.12779 -0.000481142 -0.000620918)
(0.129045 -0.00056322 -0.000392255)
(0.127799 -0.000604996 -0.000545078)
(0.128133 -0.000472003 -0.000606714)
(0.129402 -0.000551935 -0.000381377)
(0.128116 -0.000580617 -0.000518666)
(0.128446 -0.000456934 -0.00058419)
(0.12973 -0.000533533 -0.000365887)
(0.128871 -0.000432764 -0.000549987)
(0.130168 -0.000507422 -0.000345497)
(0.128102 -0.000342013 -0.00067792)
(0.127368 -0.000167015 -0.000725378)
(0.129682 -0.000257229 -0.00052713)
(0.128455 -0.000334605 -0.000665)
(0.127721 -0.000161424 -0.000716657)
(0.130057 -0.000251722 -0.000517146)
(0.128802 -0.00032415 -0.00064569)
(0.128067 -0.000155202 -0.000701118)
(0.130427 -0.000244799 -0.000504289)
(0.129137 -0.00030819 -0.000615803)
(0.128384 -0.000147084 -0.000674965)
(0.13077 -0.000235145 -0.000484712)
(0.128814 -0.000134411 -0.00063751)
(0.131226 -0.000224015 -0.00046424)
(0.126643 1.20201e-05 -0.000771324)
(0.12823 0.000107258 -0.000645756)
(0.126993 1.51959e-05 -0.000765233)
(0.125028 0.000205939 -0.000794561)
(0.128604 0.00010912 -0.000639765)
(0.127337 1.84787e-05 -0.000753388)
(0.125348 0.000205045 -0.000787778)
(0.128969 0.000110616 -0.000633005)
(0.127673 2.17692e-05 -0.000730747)
(0.125661 0.00020448 -0.000774108)
(0.129329 0.000110688 -0.000618842)
(0.127997 2.54747e-05 -0.000696529)
(0.125945 0.000201743 -0.000748689)
(0.129661 0.000109471 -0.000595343)
(0.126332 0.000195221 -0.000708649)
(0.130103 0.000106939 -0.000564715)
(0.123448 0.000386435 -0.000814961)
(0.119309 0.000546575 -0.000816962)
(0.125093 0.000477904 -0.000726699)
(0.123736 0.000383703 -0.000807197)
(0.119512 0.000539756 -0.000813219)
(0.125408 0.000474783 -0.00072046)
(0.124015 0.000377962 -0.000790965)
(0.119707 0.000529602 -0.000802919)
(0.125715 0.000467034 -0.000709469)
(0.124284 0.000365024 -0.000759538)
(0.11988 0.000514973 -0.000781738)
(0.125993 0.000453035 -0.000688702)
(0.120114 0.000483546 -0.000742274)
(0.126374 0.000428085 -0.000654166)
(0.11562 0.000697154 -0.000818875)
(0.106554 0.000719868 -0.000680557)
(0.117416 0.000798695 -0.000775544)
(0.115733 0.00068357 -0.000812716)
(0.106501 0.000702219 -0.000675903)
(0.117568 0.000784776 -0.000770872)
(0.115838 0.000665059 -0.000797505)
(0.106441 0.000679971 -0.000666878)
(0.117712 0.000764428 -0.000759405)
(0.115935 0.000631534 -0.000767669)
(0.106391 0.000653168 -0.000652566)
(0.117838 0.000734254 -0.000738292)
(0.106289 0.000598413 -0.000617088)
(0.118009 0.000676211 -0.000695578)
(0.0982371 0.000678839 -0.000522911)
(0.0777899 0.000533745 -0.000353704)
(0.100451 0.000770934 -0.000545)
(0.0980273 0.000656805 -0.000517694)
(0.0774475 0.000515143 -0.000348365)
(0.100281 0.000747846 -0.000540372)
(0.0978184 0.000633531 -0.000513319)
(0.077107 0.000496254 -0.000345654)
(0.100104 0.000722111 -0.000534445)
(0.0976114 0.000600587 -0.000501646)
(0.0768112 0.000472429 -0.000340164)
(0.0999506 0.000689754 -0.000525281)
(0.0763322 0.000441753 -0.000328816)
(0.0996942 0.000639169 -0.000497584)
(0.0594601 0.000436591 -0.000232739)
(0.061907 0.000566066 -0.000275525)
(0.0590073 0.000414523 -0.00022549)
(0.0614239 0.00053647 -0.00026636)
(0.0585673 0.000386225 -0.0002157)
(0.0609557 0.000493261 -0.000250169)
(0.0581456 0.000352413 -0.000202191)
(0.0605533 0.000441781 -0.000227378)
(0.05992 0.000386573 -0.000202813)
(0.0620561 -0.000411642 0.000139324)
(0.0807218 -0.000590731 0.000233491)
(0.0636642 -0.000553604 0.000197728)
(0.0616589 -0.000375891 0.000123713)
(0.0804684 -0.000566419 0.000216756)
(0.0632208 -0.000518781 0.000181144)
(0.0612765 -0.000346474 0.00011141)
(0.080218 -0.000544849 0.000200825)
(0.0627869 -0.000483641 0.000163815)
(0.0609141 -0.000313068 0.00010203)
(0.080003 -0.000515498 0.000186465)
(0.0624174 -0.000433518 0.000144895)
(0.0796679 -0.000462511 0.000165746)
(0.061851 -0.000366585 0.000124034)
(0.101307 -0.00079101 0.000328636)
(0.109747 -0.000902401 0.000282619)
(0.102358 -0.000835962 0.000431231)
(0.101221 -0.000776077 0.000309636)
(0.109811 -0.000888504 0.000266392)
(0.10227 -0.000816433 0.000414633)
(0.101135 -0.000749008 0.000289535)
(0.109871 -0.000864985 0.000249836)
(0.10218 -0.000792739 0.000395813)
(0.101053 -0.000694696 0.00026156)
(0.109924 -0.000822047 0.000231169)
(0.102103 -0.000754189 0.000372308)
(0.109993 -0.000737505 0.000199763)
(0.101981 -0.000681039 0.000331007)
(0.118751 -0.000974359 0.000213455)
(0.122444 -0.000872819 0.000100483)
(0.119304 -0.000977843 0.000372275)
(0.118976 -0.000963037 0.000200731)
(0.122734 -0.000865854 9.24333e-05)
(0.119531 -0.000967401 0.00036313)
(0.119197 -0.00094462 0.00018861)
(0.123019 -0.000855769 8.58086e-05)
(0.119755 -0.00095216 0.000352858)
(0.119414 -0.000910913 0.000175735)
(0.1233 -0.000835528 7.9446e-05)
(0.119977 -0.000927141 0.000340263)
(0.11962 -0.000851151 0.000158547)
(0.123552 -0.000799554 7.20864e-05)
(0.120171 -0.000884018 0.000322999)
(0.123897 -0.000743236 6.13738e-05)
(0.120442 -0.000807583 0.000292074)
(0.126654 -0.000768864 -2.35725e-05)
(0.128239 -0.000644055 -0.000118527)
(0.127022 -0.000730657 0.000159083)
(0.127005 -0.000764286 -2.4858e-05)
(0.128614 -0.000639025 -0.00011816)
(0.12738 -0.000726811 0.000158613)
(0.127351 -0.000753845 -2.49422e-05)
(0.128982 -0.000632804 -0.000115588)
(0.127732 -0.000719973 0.000157292)
(0.127688 -0.00073194 -2.5341e-05)
(0.129343 -0.000618815 -0.00011227)
(0.128078 -0.000703635 0.000153297)
(0.128013 -0.000697539 -2.6696e-05)
(0.129676 -0.000595082 -0.000108686)
(0.128395 -0.000676483 0.000146587)
(0.130119 -0.000564174 -0.00010452)
(0.128823 -0.000638144 0.000135176)
(0.130262 -0.00050806 -0.000217023)
(0.130576 -0.000338852 -0.000294829)
(0.13058 -0.00043572 -2.73379e-05)
(0.13065 -0.000502493 -0.000212272)
(0.130975 -0.000335272 -0.000290127)
(0.130977 -0.000432603 -2.40655e-05)
(0.131034 -0.000493653 -0.000205847)
(0.131366 -0.000330678 -0.000283731)
(0.131367 -0.000428027 -2.1697e-05)
(0.131408 -0.000479081 -0.000197983)
(0.131749 -0.000322631 -0.000274666)
(0.131751 -0.000418413 -2.03412e-05)
(0.131768 -0.000458989 -0.000188736)
(0.132109 -0.000311308 -0.000263591)
(0.132109 -0.000404097 -1.91302e-05)
(0.132578 -0.000298698 -0.000255072)
(0.132577 -0.000389959 -1.63244e-05)
(0.131296 -0.000167454 -0.00036745)
(0.130573 1.85126e-05 -0.000440058)
(0.131614 -8.32693e-05 -0.000186534)
(0.131693 -0.000164128 -0.000361389)
(0.13097 2.05247e-05 -0.000435571)
(0.13202 -8.22924e-05 -0.000182409)
(0.132086 -0.000159607 -0.000352639)
(0.131359 2.2585e-05 -0.000429476)
(0.132419 -8.09687e-05 -0.000178417)
(0.13247 -0.000153998 -0.000340686)
(0.131742 2.36771e-05 -0.000418422)
(0.132813 -7.86761e-05 -0.000172818)
(0.13284 -0.000149301 -0.000330714)
(0.132101 2.38579e-05 -0.000403163)
(0.133178 -7.64899e-05 -0.000167397)
(0.13257 2.17633e-05 -0.000388585)
(0.133669 -7.49139e-05 -0.000163893)
(0.130252 0.00020797 -0.000508905)
(0.128304 0.000397621 -0.000574434)
(0.130569 0.000286657 -0.000339091)
(0.130639 0.000207489 -0.000503848)
(0.128671 0.000393529 -0.000570329)
(0.130964 0.000284276 -0.000335952)
(0.131021 0.000205548 -0.000495191)
(0.129031 0.000389881 -0.000564638)
(0.131353 0.000281625 -0.000331889)
(0.131394 0.000200844 -0.000480664)
(0.129385 0.000382114 -0.000552984)
(0.131736 0.000275532 -0.000324099)
(0.131752 0.000193399 -0.000460473)
(0.129711 0.000368202 -0.000534061)
(0.132094 0.00026646 -0.000312728)
(0.130147 0.000348581 -0.000507852)
(0.132562 0.000258998 -0.00029984)
(0.126781 0.000574904 -0.000632826)
(0.12278 0.000745181 -0.000681336)
(0.127076 0.000633669 -0.000489909)
(0.127119 0.000569571 -0.000628894)
(0.123045 0.000735055 -0.000678197)
(0.127427 0.000626923 -0.000486262)
(0.127452 0.000560941 -0.000620529)
(0.123305 0.000723243 -0.000672485)
(0.127771 0.00062045 -0.000481841)
(0.127778 0.000544819 -0.000604795)
(0.123558 0.000704308 -0.000660371)
(0.12811 0.000606412 -0.000472254)
(0.128091 0.000518965 -0.0005799)
(0.123786 0.000674779 -0.000639728)
(0.128421 0.000583627 -0.000456507)
(0.124098 0.000625366 -0.000602052)
(0.128841 0.000549806 -0.0004324)
(0.119261 0.000906205 -0.000728842)
(0.110653 0.00092748 -0.000666199)
(0.119555 0.000943066 -0.000631026)
(0.119448 0.000890822 -0.000724382)
(0.110673 0.000905898 -0.000658588)
(0.119761 0.000928826 -0.000624745)
(0.11963 0.000869695 -0.000715244)
(0.110695 0.000883378 -0.000651569)
(0.119964 0.00091101 -0.000616862)
(0.119806 0.000837326 -0.000698032)
(0.11071 0.0008521 -0.000639008)
(0.120163 0.000884989 -0.000604172)
(0.119972 0.00078229 -0.000663565)
(0.110723 0.000806983 -0.000618648)
(0.120338 0.000844383 -0.000582904)
(0.110722 0.000729431 -0.000572087)
(0.12058 0.000770818 -0.000540665)
(0.102745 0.000869751 -0.000572687)
(0.103142 0.000885427 -0.000555688)
(0.102612 0.000844198 -0.000564071)
(0.0824171 0.000741505 -0.000422523)
(0.103027 0.000859861 -0.000542584)
(0.102479 0.000817854 -0.000556636)
(0.0820873 0.000713437 -0.000413973)
(0.102916 0.000836429 -0.00053214)
(0.102343 0.000782874 -0.000545192)
(0.0817661 0.000670768 -0.000397041)
(0.102801 0.000808576 -0.000519028)
(0.102207 0.000732067 -0.000520882)
(0.0814921 0.000619169 -0.000375832)
(0.102701 0.000768565 -0.00050274)
(0.0810605 0.000555978 -0.000344255)
(0.102534 0.000701718 -0.000466314)
(0.0640303 0.000673517 -0.000315083)
(0.0647326 0.00068423 -0.000285316)
(0.0635363 0.00062247 -0.000293477)
(0.0642398 0.000648401 -0.000271058)
(0.0630706 0.000554966 -0.000262442)
(0.0637652 0.000597109 -0.000250715)
(0.0626361 0.000480596 -0.000228188)
(0.0633614 0.000525767 -0.000224746)
(0.0627457 0.000436049 -0.000190758)
(0.0648581 -0.000665331 0.000236937)
(0.0832283 -0.000752212 0.000363017)
(0.0646504 -0.000694012 0.000275049)
(0.064384 -0.000630245 0.000220475)
(0.0829304 -0.000727363 0.000348907)
(0.064152 -0.00065803 0.000257688)
(0.0639303 -0.000572975 0.000198763)
(0.0826385 -0.000694296 0.000332362)
(0.0636723 -0.000603275 0.00023167)
(0.0635091 -0.00048792 0.000169887)
(0.0823904 -0.000640949 0.000310171)
(0.0632658 -0.000531858 0.000202443)
(0.0820126 -0.000558072 0.000274915)
(0.0626448 -0.00044627 0.000170255)
(0.103337 -0.00086753 0.000506865)
(0.111464 -0.000951679 0.000527495)
(0.103028 -0.000873505 0.000533489)
(0.103247 -0.000839223 0.000490255)
(0.111524 -0.000927757 0.000514819)
(0.102918 -0.000849153 0.000522419)
(0.103159 -0.000803083 0.000469954)
(0.111583 -0.000896169 0.000498111)
(0.102802 -0.000820486 0.000508703)
(0.103075 -0.000743734 0.00043724)
(0.111636 -0.000848121 0.000474502)
(0.102702 -0.000777581 0.000491186)
(0.1117 -0.000758493 0.00042873)
(0.102536 -0.000708874 0.000453245)
(0.119869 -0.00098247 0.000525601)
(0.123381 -0.00083901 0.000434415)
(0.120096 -0.000972853 0.000519678)
(0.123675 -0.000832935 0.000430683)
(0.119582 -0.000948654 0.000622383)
(0.120321 -0.000958818 0.000512252)
(0.123967 -0.000825161 0.000426699)
(0.119791 -0.000936854 0.000617302)
(0.120542 -0.000936836 0.000501773)
(0.124254 -0.000810926 0.000420839)
(0.119996 -0.00091955 0.000610616)
(0.120758 -0.000902065 0.000485495)
(0.124537 -0.000788772 0.00041133)
(0.120197 -0.000893138 0.000599267)
(0.120963 -0.000841422 0.00045629)
(0.124793 -0.0007545 0.000395992)
(0.120374 -0.000851293 0.000579326)
(0.125142 -0.000699353 0.000368767)
(0.120618 -0.000776328 0.00053779)
(0.127395 -0.000693556 0.00033935)
(0.128924 -0.000533294 0.000253154)
(0.127756 -0.000690469 0.000338082)
(0.129311 -0.000530238 0.000251351)
(0.127097 -0.000634439 0.000481487)
(0.128113 -0.000684753 0.000336667)
(0.12969 -0.00052817 0.000251239)
(0.127449 -0.000631269 0.000478977)
(0.128464 -0.000671588 0.000332359)
(0.130064 -0.000521935 0.000250247)