/*--------------------------------*- C++ -*----------------------------------*\
| =========                 |                                                 |
| \\      /  F ield         | OpenFOAM: The Open Source CFD Toolbox           |
|  \\    /   O peration     | Version:  2212                                  |
|   \\  /    A nd           | Website:  www.openfoam.com                      |
|    \\/     M anipulation  |                                                 |
\*---------------------------------------------------------------------------*/
FoamFile
{
    version     2.0;
    format      ascii;
    arch        "LSB;label=32;scalar=64";
    class       surfaceVectorField;
    location    "0.1";
    object      Uf;
}
// * * * * * * * * * * * * * * * * * * * * * * * * * * * * * * * * * * * * * //

dimensions      [0 1 -1 0 0 0 0];

internalField   nonuniform List<vector> 
1805
(
(0.094116 1.61654e-05 -0.000299364)
(0.0977086 -1.1452e-05 -0.000188211)
(0.0945737 2.38962e-05 -0.000231811)
(0.0940973 5.91777e-05 -0.000292255)
(0.0977195 4.70057e-05 -0.000214978)
(0.0945579 9.85795e-05 -0.000293434)
(0.0977402 5.51313e-05 -0.000180512)
(0.0945455 0.000110119 -0.000251295)
(0.101722 -2.40729e-05 -0.000101417)
(0.10315 -5.10579e-05 -4.98432e-05)
(0.102069 2.26206e-06 -0.000117133)
(0.101783 1.93067e-05 -9.68625e-05)
(0.103188 8.99788e-07 -4.86209e-05)
(0.10213 6.9475e-05 -0.000130842)
(0.10323 2.56157e-05 -3.98111e-05)
(0.102179 8.45228e-05 -0.000120387)
(0.104699 -9.73422e-06 1.03238e-05)
(0.104968 4.52406e-06 -3.12461e-05)
(0.104746 1.75145e-05 1.48495e-05)
(0.105002 4.58611e-05 -3.15599e-05)
(0.105043 6.47303e-05 -2.72269e-05)
(0.095091 0.000108959 -0.000259646)
(0.0985365 0.000100365 -0.000187606)
(0.0949727 0.000112398 -0.000285006)
(0.0950316 0.000151254 -0.000267174)
(0.0985663 0.000159931 -0.000226031)
(0.094971 0.000193237 -0.000317839)
(0.0949721 0.000137824 -0.00021909)
(0.0985791 0.000144331 -0.000203008)
(0.0949446 0.000181546 -0.000264331)
(0.0949219 0.000104892 -0.000161359)
(0.0985697 0.000112409 -0.00016102)
(0.094868 0.000140577 -0.00019267)
(0.0948816 7.09966e-05 -0.000109696)
(0.0985538 8.12518e-05 -0.000116714)
(0.0947926 9.928e-05 -0.000127394)
(0.0948532 4.18251e-05 -7.09746e-05)
(0.098539 5.23348e-05 -7.96954e-05)
(0.0947378 6.13829e-05 -8.01311e-05)
(0.0948351 2.11013e-05 -4.45308e-05)
(0.098527 3.00114e-05 -5.23915e-05)
(0.0947014 3.34237e-05 -4.85567e-05)
(0.0948247 7.99412e-06 -2.72815e-05)
(0.0985181 1.46522e-05 -3.34526e-05)
(0.0946786 1.52663e-05 -2.83667e-05)
(0.0948194 4.98621e-07 -1.64337e-05)
(0.0985119 5.0285e-06 -2.09203e-05)
(0.0946654 4.44394e-06 -1.60513e-05)
(0.0948176 -3.25856e-06 -9.75852e-06)
(0.0985081 -8.57492e-07 -1.29347e-05)
(0.0946586 -1.37438e-06 -8.7422e-06)
(0.0948177 -4.69873e-06 -5.65784e-06)
(0.098506 -3.81669e-06 -7.91411e-06)
(0.0946558 -4.06419e-06 -4.52743e-06)
(0.0985051 -4.95325e-06 -4.77929e-06)
(0.0946555 -4.79299e-06 -2.05939e-06)
(0.102446 9.72551e-05 -0.000153745)
(0.103776 3.901e-05 -0.000108798)
(0.102264 0.00012023 -0.000187333)
(0.102523 0.000135862 -0.000157706)
(0.103833 0.000103467 -0.00012136)
(0.102359 0.000191546 -0.000203758)
(0.102575 0.000128569 -0.000139716)
(0.103882 0.000120196 -0.000112829)
(0.102418 0.000186317 -0.000183339)
(0.102605 0.000104157 -0.000112224)
(0.103926 0.000109155 -9.39757e-05)
(0.10245 0.00015249 -0.000145502)
(0.10262 7.63598e-05 -8.39988e-05)
(0.103954 8.7598e-05 -7.25919e-05)
(0.10246 0.000113443 -0.000106524)
(0.102624 5.11365e-05 -5.94883e-05)
(0.103969 6.3933e-05 -5.28423e-05)
(0.102455 7.7921e-05 -7.3393e-05)
(0.102622 3.09726e-05 -4.04036e-05)
(0.103975 4.26485e-05 -3.67373e-05)
(0.102445 4.93462e-05 -4.80975e-05)
(0.102618 1.62633e-05 -2.66422e-05)
(0.103976 2.56662e-05 -2.47165e-05)
(0.102434 2.83259e-05 -3.02475e-05)
(0.102613 6.31932e-06 -1.72288e-05)
(0.103974 1.32294e-05 -1.62733e-05)
(0.102424 1.39193e-05 -1.83787e-05)
(0.102609 7.863e-08 -1.10252e-05)
(0.103972 4.74472e-06 -1.05983e-05)
(0.102416 4.66951e-06 -1.08515e-05)
(0.102606 -3.48442e-06 -7.05727e-06)
(0.103969 -6.18984e-07 -6.90339e-06)
(0.10241 -8.60365e-07 -6.19921e-06)
(0.103966 -3.64541e-06 -4.56062e-06)
(0.102406 -3.79629e-06 -3.4852e-06)
(0.105242 6.04549e-05 -7.14895e-05)
(0.105075 7.40271e-05 -9.59735e-05)
(0.105294 9.34771e-05 -7.2376e-05)
(0.105116 0.000126295 -0.000105461)
(0.105346 0.000100646 -6.40018e-05)
(0.105159 0.000140941 -9.61881e-05)
(0.105387 9.14761e-05 -5.20289e-05)
(0.105201 0.000130171 -7.85963e-05)
(0.105415 7.46096e-05 -3.9737e-05)
(0.105229 0.000107673 -5.95165e-05)
(0.105432 5.56743e-05 -2.88775e-05)
(0.105244 8.17875e-05 -4.23724e-05)
(0.105441 3.81264e-05 -2.02022e-05)
(0.10525 5.75192e-05 -2.85995e-05)
(0.105444 2.36599e-05 -1.37653e-05)
(0.105251 3.73642e-05 -1.84188e-05)
(0.105445 1.2714e-05 -9.2466e-06)
(0.105249 2.19937e-05 -1.13607e-05)
(0.105443 5.02731e-06 -6.20747e-06)
(0.105245 1.10492e-05 -6.71965e-06)
(0.105441 6.23645e-08 -4.2244e-06)
(0.105242 3.76443e-06 -3.81511e-06)
(0.105238 -6.59964e-07 -2.10294e-06)
(0.0949936 0.00019866 -0.000361434)
(0.0983071 0.000212809 -0.000305717)
(0.094229 0.000251076 -0.000475523)
(0.0949221 0.000222986 -0.000316107)
(0.0983655 0.000261031 -0.000305878)
(0.0942107 0.000306274 -0.000440558)
(0.094828 0.000183011 -0.000232668)
(0.09838 0.000211941 -0.000245959)
(0.0941361 0.000239838 -0.000315445)
(0.0947297 0.000134096 -0.000155244)
(0.09834 0.000157488 -0.000177235)
(0.0939814 0.000169839 -0.000190291)
(0.0946474 8.91502e-05 -9.59444e-05)
(0.0982857 0.00011049 -0.000117195)
(0.0938406 0.000113577 -0.000106639)
(0.0945874 5.26411e-05 -5.6448e-05)
(0.0982389 7.08482e-05 -7.34254e-05)
(0.0937433 6.82547e-05 -5.66344e-05)
(0.0945471 2.73795e-05 -3.16328e-05)
(0.0982032 4.14279e-05 -4.37817e-05)
(0.0936812 3.6609e-05 -2.73909e-05)
(0.094522 1.16009e-05 -1.67662e-05)
(0.0981777 2.15659e-05 -2.48158e-05)
(0.0936432 1.68096e-05 -1.13962e-05)
(0.0945076 2.51565e-06 -8.23807e-06)
(0.0981606 9.0661e-06 -1.3282e-05)
(0.0936214 5.34056e-06 -3.33354e-06)
(0.0945001 -2.20375e-06 -3.50299e-06)
(0.0981498 1.87427e-06 -6.53963e-06)
(0.09361 -7.41528e-07 4.02659e-07)
(0.0944971 -4.17441e-06 -9.1618e-07)
(0.0981435 -2.32001e-06 -2.71579e-06)
(0.0936052 -3.59738e-06 2.01766e-06)
(0.0981401 -4.0333e-06 -6.49385e-07)
(0.0936041 -4.45946e-06 2.64929e-06)
(0.102146 0.000214469 -0.000243335)
(0.103451 0.000130265 -0.000182969)
(0.101314 0.000273208 -0.000296189)
(0.102253 0.000241404 -0.000230969)
(0.103533 0.000202831 -0.000193309)
(0.101452 0.000333309 -0.000296919)
(0.1023 0.000209464 -0.00018816)
(0.103586 0.00020661 -0.000169102)
(0.101505 0.000287421 -0.00023694)
(0.102309 0.000161115 -0.000138371)
(0.103617 0.000175389 -0.00013107)
(0.101503 0.000217098 -0.000164405)
(0.102298 0.000114517 -9.47042e-05)
(0.103626 0.000134883 -9.38274e-05)
(0.101473 0.000152712 -0.000105108)
(0.10228 7.57906e-05 -6.10847e-05)
(0.103621 9.60084e-05 -6.30314e-05)
(0.101436 0.000100874 -6.27857e-05)
(0.10226 4.64751e-05 -3.73254e-05)
(0.10361 6.3569e-05 -3.99661e-05)
(0.101404 6.24203e-05 -3.48517e-05)
(0.102243 2.58431e-05 -2.16287e-05)
(0.103598 3.89396e-05 -2.39615e-05)
(0.101377 3.57722e-05 -1.76626e-05)
(0.10223 1.21833e-05 -1.17955e-05)
(0.103588 2.14924e-05 -1.35039e-05)
(0.101358 1.82744e-05 -7.72241e-06)
(0.102221 3.67445e-06 -5.89212e-06)
(0.103579 9.84502e-06 -7.00087e-06)
(0.101345 7.32547e-06 -2.24888e-06)
(0.102214 -1.20925e-06 -2.54282e-06)
(0.103572 2.53648e-06 -3.13932e-06)
(0.101336 8.63779e-07 5.77409e-07)
(0.103567 -1.62786e-06 -1.05429e-06)
(0.10133 -2.55893e-06 1.7374e-06)
(0.104923 0.000139062 -0.000127602)
(0.105673 0.000106162 -8.55745e-05)
(0.104224 0.000166248 -0.000131628)
(0.104976 0.000172953 -0.00012698)
(0.105709 0.000151781 -9.50894e-05)
(0.104265 0.000220195 -0.000137336)
(0.10502 0.000169762 -0.000108783)
(0.105748 0.000160131 -8.76294e-05)
(0.1043 0.000219953 -0.000118784)
(0.105048 0.000145795 -8.43795e-05)
(0.105787 0.000144945 -7.19305e-05)
(0.104324 0.000188714 -9.05282e-05)
(0.105061 0.000114417 -6.08125e-05)
(0.105815 0.000119284 -5.45286e-05)
(0.104331 0.000147694 -6.31619e-05)
(0.105065 8.33219e-05 -4.11125e-05)
(0.105832 9.11173e-05 -3.86484e-05)
(0.104327 0.00010746 -4.07264e-05)
(0.105063 5.65454e-05 -2.61407e-05)
(0.10584 6.50926e-05 -2.56919e-05)
(0.104318 7.31618e-05 -2.41226e-05)
(0.105058 3.55589e-05 -1.55739e-05)
(0.105843 4.34943e-05 -1.59689e-05)
(0.104309 4.65619e-05 -1.27989e-05)
(0.105052 2.02395e-05 -8.55745e-06)
(0.105842 2.69028e-05 -9.14393e-06)
(0.104299 2.73034e-05 -5.59055e-06)
(0.105047 9.72942e-06 -4.15743e-06)
(0.10584 1.49323e-05 -4.62796e-06)
(0.104292 1.41259e-05 -1.30018e-06)
(0.105042 3.00608e-06 -1.59387e-06)
(0.105837 6.80312e-06 -1.82447e-06)
(0.104285 5.58231e-06 1.04807e-06)
(0.105834 1.68918e-06 -2.53266e-07)
(0.10428 5.212e-07 2.04986e-06)
(0.106476 0.000105528 -5.15216e-05)
(0.106906 6.85534e-05 -3.98029e-05)
(0.105914 0.00011346 -4.10976e-05)
(0.106518 0.000126445 -5.42325e-05)
(0.106934 9.08415e-05 -4.54888e-05)
(0.10594 0.000147162 -4.93514e-05)
(0.106562 0.000125443 -4.95248e-05)
(0.106967 9.60143e-05 -4.46733e-05)
(0.10597 0.000150341 -4.87045e-05)
(0.106601 0.000111207 -4.1165e-05)
(0.107011 8.94176e-05 -3.97523e-05)
(0.106008 0.000134443 -4.22895e-05)
(0.106631 9.09624e-05 -3.17573e-05)
(0.10705 7.63857e-05 -3.27802e-05)
(0.106038 0.00011027 -3.33637e-05)
(0.106652 6.95267e-05 -2.28579e-05)
(0.10708 6.08182e-05 -2.52396e-05)
(0.106059 8.43839e-05 -2.41295e-05)
(0.106665 4.98828e-05 -1.5311e-05)
(0.107101 4.54299e-05 -1.81529e-05)
(0.106071 6.06491e-05 -1.58927e-05)
(0.106673 3.35226e-05 -9.42719e-06)
(0.107115 3.18684e-05 -1.2123e-05)
(0.106078 4.09627e-05 -9.27251e-06)
(0.106676 2.08488e-05 -5.15598e-06)
(0.107124 2.08613e-05 -7.38213e-06)
(0.106081 2.57874e-05 -4.38373e-06)
(0.106677 1.16229e-05 -2.263e-06)
(0.107128 1.25005e-05 -3.90625e-06)
(0.106081 1.47666e-05 -1.05155e-06)
(0.106676 5.3259e-06 -4.63047e-07)
(0.10713 6.52984e-06 -1.53659e-06)
(0.10608 7.21137e-06 1.01089e-06)
(0.10713 2.55866e-06 -7.00487e-08)
(0.106078 2.40219e-06 2.07814e-06)
(0.107344 5.52673e-05 -3.3308e-05)
(0.107493 2.61697e-05 -3.78887e-05)
(0.106878 4.87063e-05 -2.50943e-05)
(0.107386 6.13135e-05 -3.54764e-05)
(0.107521 3.1284e-05 -4.01444e-05)
(0.106904 6.09584e-05 -3.69565e-05)
(0.107433 6.02671e-05 -3.45548e-05)
(0.107553 3.27071e-05 -4.04926e-05)
(0.106937 6.29258e-05 -4.17608e-05)
(0.107477 5.44305e-05 -3.11453e-05)
(0.1076 3.09771e-05 -3.8053e-05)
(0.106982 5.80208e-05 -4.05743e-05)
(0.107515 4.587e-05 -2.61421e-05)
(0.107643 2.71532e-05 -3.33599e-05)
(0.107024 4.93927e-05 -3.55435e-05)
(0.107545 3.63111e-05 -2.0485e-05)
(0.107678 2.22693e-05 -2.73496e-05)
(0.107056 3.93034e-05 -2.85733e-05)
(0.107566 2.70612e-05 -1.49572e-05)
(0.107705 1.71705e-05 -2.09815e-05)
(0.107079 2.93638e-05 -2.11557e-05)
(0.107581 1.89458e-05 -1.00903e-05)
(0.107724 1.24565e-05 -1.50242e-05)
(0.107094 2.05846e-05 -1.43247e-05)
(0.107591 1.23445e-05 -6.15088e-06)
(0.107737 8.46239e-06 -9.94865e-06)
(0.107104 1.34294e-05 -8.64864e-06)
(0.107596 7.31425e-06 -3.19692e-06)
(0.107744 5.30709e-06 -5.94877e-06)
(0.107109 7.96943e-06 -4.31959e-06)
(0.107598 3.72382e-06 -1.15599e-06)
(0.107748 2.96922e-06 -3.02557e-06)
(0.107112 4.05585e-06 -1.28819e-06)
(0.10775 1.3535e-06 -1.06327e-06)
(0.107112 1.45312e-06 6.15867e-07)
(0.107634 4.49667e-06 -4.45518e-05)
(0.107493 -1.32338e-05 -4.7098e-05)
(0.107209 -5.34738e-06 -4.35018e-05)
(0.107677 4.16453e-06 -4.50498e-05)
(0.107521 -1.56609e-05 -5.26152e-05)
(0.107238 -5.45262e-06 -5.82227e-05)
(0.107724 4.11679e-06 -4.39508e-05)
(0.107553 -1.6102e-05 -5.37227e-05)
(0.107272 -4.33458e-06 -6.39631e-05)
(0.107769 3.95547e-06 -4.02693e-05)
(0.1076 -1.50407e-05 -5.0505e-05)
(0.107319 -3.00372e-06 -6.17549e-05)
(0.107808 3.59974e-06 -3.45885e-05)
(0.107643 -1.29439e-05 -4.42123e-05)
(0.107362 -1.82719e-06 -5.43907e-05)
(0.10784 3.09092e-06 -2.78736e-05)
(0.107678 -1.0335e-05 -3.62577e-05)
(0.107395 -9.38909e-07 -4.43851e-05)
(0.107864 2.50801e-06 -2.10752e-05)
(0.107705 -7.65791e-06 -2.79349e-05)
(0.10742 -3.6528e-07 -3.37605e-05)
(0.107881 1.92609e-06 -1.49048e-05)
(0.107724 -5.22547e-06 -2.0219e-05)
(0.107438 -6.25387e-08 -2.39318e-05)
(0.107892 1.39845e-06 -9.76332e-06)
(0.107737 -3.20789e-06 -1.3678e-05)
(0.107449 4.52866e-08 -1.56785e-05)
(0.107898 9.54656e-07 -5.78915e-06)
(0.107744 -1.65922e-06 -8.52728e-06)
(0.107455 3.41047e-08 -9.27068e-06)
(0.107902 6.05516e-07 -2.94049e-06)
(0.107748 -5.59149e-07 -4.74515e-06)
(0.107458 -3.43179e-08 -4.65309e-06)
(0.10775 1.50705e-07 -2.17032e-06)
(0.107459 -1.12873e-07 -1.59327e-06)
(0.107344 -3.34851e-05 -5.51364e-05)
(0.106878 -2.53091e-05 -4.85951e-05)
(0.106906 -3.99613e-05 -6.8413e-05)
(0.107386 -3.56813e-05 -6.11964e-05)
(0.106904 -3.72184e-05 -6.08572e-05)
(0.106934 -4.56797e-05 -9.06948e-05)
(0.107433 -3.47636e-05 -6.01569e-05)
(0.106937 -4.20287e-05 -6.2828e-05)
(0.106967 -4.48757e-05 -9.58605e-05)
(0.107477 -3.13408e-05 -5.43262e-05)
(0.106982 -4.08199e-05 -5.7925e-05)
(0.107011 -3.99507e-05 -8.92562e-05)
(0.107515 -2.63117e-05 -4.57759e-05)
(0.107023 -3.57509e-05 -4.93011e-05)
(0.107051 -3.29619e-05 -7.62216e-05)
(0.107545 -2.0618e-05 -3.62362e-05)
(0.107055 -2.87332e-05 -3.92225e-05)
(0.10708 -2.53926e-05 -6.06622e-05)
(0.107566 -1.50433e-05 -2.70185e-05)
(0.107078 -2.12599e-05 -2.93038e-05)
(0.107101 -1.82654e-05 -4.52976e-05)
(0.107581 -1.01183e-05 -1.89508e-05)
(0.107094 -1.43624e-05 -2.05583e-05)
(0.107115 -1.21839e-05 -3.17788e-05)
(0.107591 -6.10963e-06 -1.24148e-05)
(0.107104 -8.60427e-06 -1.34523e-05)
(0.107124 -7.38127e-06 -2.08383e-05)
(0.107596 -3.07863e-06 -7.46613e-06)
(0.107109 -4.17633e-06 -8.05994e-06)
(0.107128 -3.83702e-06 -1.25748e-05)
(0.107598 -9.62204e-07 -3.96461e-06)
(0.107111 -1.04064e-06 -4.2324e-06)
(0.10713 -1.39983e-06 -6.73441e-06)
(0.107112 9.50243e-07 -1.71514e-06)
(0.107129 1.33203e-07 -2.90247e-06)
(0.106417 -2.8486e-05 -5.42477e-05)
(0.105538 3.77393e-06 -2.65283e-05)
(0.105887 -2.34583e-05 -9.06673e-05)
(0.106458 -4.29141e-05 -6.23998e-05)
(0.105566 -2.44293e-05 -3.7019e-05)
(0.105911 -3.86422e-05 -0.00011443)
(0.106504 -4.74222e-05 -6.05312e-05)
(0.105601 -3.89094e-05 -3.95707e-05)
(0.105941 -4.44894e-05 -0.000115447)
(0.106546 -4.46024e-05 -5.28713e-05)
(0.105647 -4.14892e-05 -3.59354e-05)
(0.10598 -4.21329e-05 -0.000102278)
(0.10658 -3.76471e-05 -4.27543e-05)
(0.105686 -3.71565e-05 -2.94592e-05)
(0.106012 -3.53683e-05 -8.31226e-05)
(0.106605 -2.89856e-05 -3.23227e-05)
(0.105713 -2.94647e-05 -2.22137e-05)
(0.106035 -2.69127e-05 -6.30167e-05)
(0.106622 -2.03224e-05 -2.28904e-05)
(0.105731 -2.08222e-05 -1.54083e-05)
(0.106049 -1.85101e-05 -4.48336e-05)
(0.106632 -1.27027e-05 -1.51104e-05)
(0.105742 -1.28013e-05 -9.69431e-06)
(0.106057 -1.11956e-05 -2.99302e-05)
(0.106638 -6.60683e-06 -9.14458e-06)
(0.105748 -6.21133e-06 -5.29023e-06)
(0.106061 -5.41868e-06 -1.85846e-05)
(0.10664 -2.12583e-06 -4.8658e-06)
(0.105751 -1.2891e-06 -2.14571e-06)
(0.106063 -1.22916e-06 -1.04753e-05)
(0.106641 8.52253e-07 -2.01401e-06)
(0.105751 2.0231e-06 -1.04259e-07)
(0.106062 1.52162e-06 -5.04638e-06)
(0.10606 3.07119e-06 -1.67606e-06)
(0.104699 9.42648e-06 -1.01449e-05)
(0.10315 5.02816e-05 4.97801e-05)
(0.10396 5.26884e-05 -6.88924e-05)
(0.104746 -1.78366e-05 -1.50325e-05)
(0.103189 -1.65915e-06 4.83639e-05)
(0.103985 2.55963e-05 -8.5017e-05)
(0.104796 -3.06163e-05 -1.58125e-05)
(0.103231 -2.57526e-05 3.94761e-05)
(0.104018 4.85393e-06 -8.42268e-05)
(0.104838 -3.23374e-05 -1.33327e-05)
(0.10328 -3.0908e-05 3.14602e-05)
(0.104059 -4.79651e-06 -7.05437e-05)
(0.104868 -2.78739e-05 -9.64819e-06)
(0.103319 -2.7276e-05 2.45884e-05)
(0.104089 -7.43907e-06 -5.32384e-05)
(0.104889 -2.06502e-05 -5.91337e-06)
(0.103343 -2.00628e-05 1.89125e-05)
(0.104108 -6.11551e-06 -3.69824e-05)
(0.104901 -1.29643e-05 -2.70177e-06)
(0.103358 -1.21021e-05 1.45668e-05)
(0.104119 -2.95832e-06 -2.36029e-05)
(0.104907 -6.18888e-06 -2.49068e-07)
(0.103366 -5.06125e-06 1.13937e-05)
(0.104124 5.34712e-07 -1.35739e-05)
(0.10491 -9.30996e-07 1.42771e-06)
(0.10337 3.13159e-07 9.1104e-06)
(0.104126 3.49812e-06 -6.59687e-06)
(0.10491 2.7039e-06 2.40683e-06)
(0.103371 4.04047e-06 7.46743e-06)
(0.104126 5.58827e-06 -2.08767e-06)
(0.103371 6.3189e-06 6.202e-06)
(0.104125 6.71619e-06 4.93057e-07)
(0.101722 2.28125e-05 0.000100932)
(0.0977098 1.08562e-05 0.000187245)
(0.100666 0.000145914 6.31639e-05)
(0.101783 -1.98538e-05 9.64655e-05)
(0.0977212 -4.74571e-05 0.000214171)
(0.100722 8.05843e-05 4.38572e-05)
(0.101841 -3.19423e-05 8.1695e-05)
(0.097742 -5.47554e-05 0.000180251)
(0.100775 4.13021e-05 2.81913e-05)
(0.101885 -2.98587e-05 6.54566e-05)
(0.0977697 -4.46071e-05 0.000135923)
(0.100835 2.14848e-05 2.32811e-05)
(0.101915 -2.25599e-05 5.0185e-05)
(0.0977918 -3.15208e-05 9.64861e-05)
(0.100878 1.16238e-05 2.01117e-05)
(0.101933 -1.39923e-05 3.72323e-05)
(0.0978064 -1.88267e-05 6.64072e-05)
(0.100905 7.81617e-06 1.7115e-05)
(0.101944 -6.24271e-06 2.71257e-05)
(0.0978162 -8.73361e-06 4.48605e-05)
(0.100921 7.33052e-06 1.44899e-05)
(0.10195 -2.58584e-07 1.9678e-05)
(0.0978228 -1.1504e-06 3.01984e-05)
(0.100931 8.04926e-06 1.22057e-05)
(0.101952 3.87055e-06 1.44025e-05)
(0.0978274 3.32177e-06 2.03739e-05)
(0.100936 8.84684e-06 1.03248e-05)
(0.101953 6.48975e-06 1.0742e-05)
(0.0978307 5.67332e-06 1.39522e-05)
(0.100939 9.35178e-06 8.84418e-06)
(0.0978333 6.652e-06 9.80864e-06)
(0.100941 9.46297e-06 7.5144e-06)
(0.0941181 -1.61872e-05 0.000298085)
(0.0925345 0.00014855 0.000335027)
(0.0941 -5.89714e-05 0.000291555)
(0.0926091 7.13285e-05 0.000321183)
(0.0941011 -6.20982e-05 0.000227179)
(0.0926885 2.63915e-05 0.000239087)
(0.0941081 -4.75799e-05 0.000161175)
(0.0927663 9.06377e-06 0.000168214)
(0.0941149 -3.05326e-05 0.0001088)
(0.0928204 3.66568e-06 0.000113435)
(0.0941215 -1.60211e-05 7.15993e-05)
(0.0928551 3.67125e-06 7.43985e-05)
(0.0941276 -5.52731e-06 4.64781e-05)
(0.092879 5.65355e-06 4.85664e-05)
(0.0941334 1.02757e-06 3.00439e-05)
(0.0928963 7.4424e-06 3.20376e-05)
(0.0941388 4.53432e-06 1.95249e-05)
(0.0929092 8.28786e-06 2.1461e-05)
(0.0941434 5.95688e-06 1.29174e-05)
(0.092919 8.27413e-06 1.48368e-05)
(0.0929268 7.75164e-06 1.0803e-05)
(0.093686 0.000363159 -0.000585106)
(0.0968589 0.000404592 -0.00051054)
(0.0910888 0.000579918 -0.000750645)
(0.0935265 0.00032069 -0.000439266)
(0.0969111 0.00040085 -0.000445114)
(0.0908389 0.000526167 -0.00060159)
(0.0933176 0.000223989 -0.000267206)
(0.0968689 0.00028202 -0.000300043)
(0.0905553 0.000323538 -0.000312048)
(0.0931286 0.000149055 -0.000143077)
(0.096746 0.00018984 -0.00017365)
(0.0902222 0.000189112 -0.000126611)
(0.0929887 9.32789e-05 -7.0979e-05)
(0.0966247 0.000124431 -9.34837e-05)
(0.0899896 0.00011379 -4.27538e-05)
(0.0928946 5.28404e-05 -3.08139e-05)
(0.0965356 7.62306e-05 -4.57635e-05)
(0.0898571 6.43182e-05 -5.00976e-06)
(0.0928358 2.655e-05 -9.72558e-06)
(0.0964755 4.31263e-05 -1.86894e-05)
(0.0897829 3.2949e-05 1.01633e-05)
(0.0928018 1.09413e-05 6.57696e-08)
(0.0964364 2.20616e-05 -4.74204e-06)
(0.0897421 1.4739e-05 1.39492e-05)
(0.0927837 2.36782e-06 3.83896e-06)
(0.0964125 9.42503e-06 1.61673e-06)
(0.0897217 4.74302e-06 1.31881e-05)
(0.0927752 -1.92665e-06 4.81524e-06)
(0.0963988 2.39645e-06 4.06994e-06)
(0.0897132 -2.52449e-07 1.07812e-05)
(0.0927725 -3.72672e-06 4.74341e-06)
(0.0963917 -1.57464e-06 4.75408e-06)
(0.0897115 -2.37353e-06 8.43277e-06)
(0.0963886 -3.28938e-06 4.58417e-06)
(0.0897133 -3.13761e-06 6.80857e-06)
(0.100623 0.000387987 -0.000349391)
(0.101995 0.000274013 -0.000245142)
(0.0986571 0.000535734 -0.000394162)
(0.100748 0.000375057 -0.000297973)
(0.102096 0.000337996 -0.000241165)
(0.0987982 0.000552731 -0.000349638)
(0.100754 0.000291588 -0.000207047)
(0.102132 0.000302171 -0.000185046)
(0.0987957 0.000409662 -0.000218142)
(0.100709 0.000206529 -0.000127232)
(0.102123 0.000233659 -0.000122526)
(0.0987154 0.000274806 -0.000113214)
(0.100654 0.00013789 -7.1365e-05)
(0.10209 0.000167554 -7.37937e-05)
(0.0986254 0.000177115 -5.08584e-05)
(0.100605 8.6928e-05 -3.59933e-05)
(0.102055 0.000112804 -4.03166e-05)
(0.0985549 0.000109149 -1.68588e-05)
(0.100565 5.14786e-05 -1.531e-05)
(0.102023 7.14036e-05 -1.91423e-05)
(0.0985048 6.40464e-05 5.20031e-08)
(0.100537 2.81338e-05 -4.18185e-06)
(0.101998 4.22755e-05 -6.80207e-06)
(0.0984707 3.54939e-05 7.13567e-06)
(0.100518 1.34177e-05 1.32608e-06)
(0.10198 2.2847e-05 -1.70941e-07)
(0.098449 1.7956e-05 9.21571e-06)
(0.100506 4.53106e-06 3.79143e-06)
(0.101968 1.0442e-05 3.10546e-06)
(0.0984361 7.46927e-06 9.19594e-06)
(0.100498 -4.73873e-07 4.53061e-06)
(0.101959 2.86947e-06 4.50611e-06)
(0.0984289 1.26006e-06 8.52771e-06)
(0.101954 -1.27951e-06 4.6309e-06)
(0.0984258 -1.93691e-06 7.18916e-06)
(0.103575 0.000242592 -0.000128008)
(0.10444 0.000187451 -7.83536e-05)
(0.102097 0.000275519 -6.4275e-05)
(0.103617 0.00026351 -0.000120228)
(0.104471 0.000230814 -8.58432e-05)
(0.102138 0.000324071 -7.13273e-05)
(0.103638 0.000236374 -9.50925e-05)
(0.104498 0.000222862 -7.68491e-05)
(0.102159 0.000290088 -5.56401e-05)
(0.103639 0.000188977 -6.60151e-05)
(0.10452 0.000187703 -5.90692e-05)
(0.102159 0.00022662 -3.32173e-05)
(0.103627 0.000139754 -4.12123e-05)
(0.104529 0.000145307 -4.08702e-05)
(0.102142 0.000164277 -1.53706e-05)
(0.103612 9.67575e-05 -2.2808e-05)
(0.104528 0.000105187 -2.55586e-05)
(0.10212 0.000111974 -3.38441e-06)
(0.103595 6.29072e-05 -1.04182e-05)
(0.104524 7.16224e-05 -1.39956e-05)
(0.102101 7.19949e-05 3.70185e-06)
(0.103582 3.81872e-05 -2.76345e-06)
(0.104518 4.58416e-05 -5.97895e-06)
(0.102085 4.35367e-05 7.28834e-06)
(0.10357 2.11467e-05 1.57273e-06)
(0.104511 2.72541e-05 -8.293e-07)
(0.102073 2.43045e-05 8.66013e-06)
(0.103562 9.9668e-06 3.77127e-06)
(0.104506 1.45356e-05 2.21468e-06)
(0.102064 1.18459e-05 8.80297e-06)
(0.103556 3.0948e-06 4.56353e-06)
(0.104501 6.26677e-06 3.80603e-06)
(0.102059 4.08012e-06 8.33226e-06)
(0.104497 1.32872e-06 4.29267e-06)
(0.102054 -2.18883e-07 7.26435e-06)
(0.105369 0.000153243 -3.31703e-05)
(0.105887 9.08252e-05 -2.32296e-05)
(0.104277 0.000138845 2.37949e-05)
(0.105404 0.000169598 -3.99064e-05)
(0.105911 0.000114609 -3.8374e-05)
(0.104299 0.000168407 9.13188e-06)
(0.10544 0.000158318 -3.90384e-05)
(0.105941 0.000115626 -4.42218e-05)
(0.104326 0.000163485 -2.88566e-06)
(0.105468 0.000132825 -3.28644e-05)
(0.10598 0.000102447 -4.1892e-05)
(0.10436 0.000138047 -6.98513e-06)
(0.105488 0.000103276 -2.4685e-05)
(0.106013 8.32785e-05 -3.51689e-05)
(0.104384 0.00010692 -6.57602e-06)
(0.1055 7.52825e-05 -1.65414e-05)
(0.106035 6.3154e-05 -2.6764e-05)
(0.104398 7.73055e-05 -4.06047e-06)
(0.105506 5.16271e-05 -9.52342e-06)
(0.10605 4.49443e-05 -1.84201e-05)
(0.104406 5.24351e-05 -8.74507e-07)
(0.105508 3.31944e-05 -4.08334e-06)
(0.106058 3.0002e-05 -1.11756e-05)
(0.104408 3.32863e-05 2.05741e-06)
(0.105507 1.97059e-05 -2.42718e-07)
(0.106062 1.85979e-05 -5.48319e-06)
(0.104409 1.946e-05 4.27467e-06)
(0.105506 1.03684e-05 2.20099e-06)
(0.106063 1.03957e-05 -1.38772e-06)
(0.104407 9.97497e-06 5.66823e-06)
(0.105503 4.30275e-06 3.50226e-06)
(0.106063 4.83019e-06 1.27867e-06)
(0.104406 3.83189e-06 6.3074e-06)
(0.106061 1.33859e-06 2.74547e-06)
(0.104403 2.28635e-07 6.23971e-06)
(0.106417 5.43288e-05 -2.81793e-05)
(0.106607 1.50565e-05 -3.15555e-05)
(0.105538 2.65917e-05 4.05381e-06)
(0.106459 6.24811e-05 -4.25818e-05)
(0.106634 2.25555e-05 -5.53386e-05)
(0.105566 3.70851e-05 -2.40881e-05)
(0.106505 6.06145e-05 -4.71143e-05)
(0.106668 2.50045e-05 -6.51004e-05)
(0.105602 3.96495e-05 -3.86024e-05)
(0.106546 5.29546e-05 -4.43445e-05)
(0.106714 2.36501e-05 -6.38578e-05)
(0.105648 3.60218e-05 -4.12436e-05)
(0.10658 4.28329e-05 -3.74496e-05)
(0.106755 2.02685e-05 -5.60653e-05)
(0.105687 2.9546e-05 -3.6976e-05)
(0.106605 3.23887e-05 -2.88535e-05)
(0.106786 1.60743e-05 -4.51382e-05)
(0.105714 2.22934e-05 -2.93425e-05)
(0.106622 2.29336e-05 -2.02634e-05)
(0.106807 1.18586e-05 -3.35628e-05)
(0.105733 1.54724e-05 -2.0754e-05)
(0.106633 1.51181e-05 -1.27322e-05)
(0.106821 8.10627e-06 -2.29744e-05)
(0.105744 9.73377e-06 -1.27947e-05)
(0.106639 9.10049e-06 -6.74709e-06)
(0.106829 5.04405e-06 -1.42226e-05)
(0.10575 5.29344e-06 -6.29054e-06)
(0.106641 4.74984e-06 -2.39444e-06)
(0.106833 2.71396e-06 -7.5629e-06)
(0.105752 2.09117e-06 -1.49236e-06)
(0.106641 1.8157e-06 4.66041e-07)
(0.106835 1.05879e-06 -2.89135e-06)
(0.105752 -4.89374e-08 1.67789e-06)
(0.106834 -1.38122e-08 7.40039e-08)
(0.105751 -1.30234e-06 3.4515e-06)
(0.10679 -1.48084e-05 -5.87107e-05)
(0.106635 -3.28935e-05 -6.68542e-05)
(0.105996 -4.18889e-05 -4.37573e-05)
(0.106834 -1.35347e-05 -7.79208e-05)
(0.106663 -3.63537e-05 -9.78254e-05)
(0.106029 -4.53839e-05 -8.24381e-05)
(0.106883 -1.11295e-05 -8.19515e-05)
(0.106698 -3.38724e-05 -0.000106905)
(0.106068 -4.15168e-05 -9.6128e-05)
(0.106927 -8.54561e-06 -7.56978e-05)
(0.106743 -2.86716e-05 -0.000100733)
(0.106116 -3.45368e-05 -9.22082e-05)
(0.106963 -6.19306e-06 -6.38651e-05)
(0.106782 -2.25459e-05 -8.63076e-05)
(0.106155 -2.68558e-05 -7.90169e-05)
(0.10699 -4.2739e-06 -4.99418e-05)
(0.10681 -1.65781e-05 -6.85659e-05)
(0.106182 -1.97762e-05 -6.21118e-05)
(0.107008 -2.85173e-06 -3.63486e-05)
(0.10683 -1.1416e-05 -5.0886e-05)
(0.106199 -1.39556e-05 -4.51395e-05)
(0.10702 -1.88493e-06 -2.45208e-05)
(0.106842 -7.33607e-06 -3.53013e-05)
(0.106209 -9.55935e-06 -3.02464e-05)
(0.107026 -1.27813e-06 -1.50784e-05)
(0.106849 -4.33826e-06 -2.2712e-05)
(0.106214 -6.44064e-06 -1.83559e-05)
(0.107029 -9.25622e-07 -8.08717e-06)
(0.106852 -2.27562e-06 -1.32482e-05)
(0.106215 -4.33557e-06 -9.57624e-06)
(0.10703 -7.31017e-07 -3.30163e-06)
(0.106852 -9.52958e-07 -6.6177e-06)
(0.106215 -2.97246e-06 -3.58436e-06)
(0.106852 -1.72914e-07 -2.33836e-06)
(0.106213 -2.10788e-06 1.12314e-07)
(0.106476 -5.1693e-05 -0.000105385)
(0.105915 -4.12631e-05 -0.000113299)
(0.105674 -8.57045e-05 -0.000106093)
(0.106518 -5.44201e-05 -0.000126275)
(0.10594 -4.95391e-05 -0.000146969)
(0.10571 -9.52378e-05 -0.000151683)
(0.106563 -4.97164e-05 -0.00012525)
(0.10597 -4.89005e-05 -0.000150131)
(0.105748 -8.7793e-05 -0.000159994)
(0.106601 -4.13494e-05 -0.000110995)
(0.106008 -4.24805e-05 -0.000134226)
(0.105788 -7.21038e-05 -0.000144764)
(0.106631 -3.19221e-05 -9.07441e-05)
(0.106039 -3.35366e-05 -0.000110054)
(0.105816 -5.46975e-05 -0.000119067)
(0.106652 -2.29901e-05 -6.93193e-05)
(0.106059 -2.42712e-05 -8.41799e-05)
(0.105832 -3.87968e-05 -9.08793e-05)
(0.106666 -1.53982e-05 -4.97071e-05)
(0.106072 -1.59905e-05 -6.047e-05)
(0.105841 -2.58045e-05 -6.48513e-05)
(0.106673 -9.45926e-06 -3.34049e-05)
(0.106078 -9.31437e-06 -4.08257e-05)
(0.105843 -1.60316e-05 -4.32676e-05)
(0.106677 -5.12738e-06 -2.08251e-05)
(0.106081 -4.36032e-06 -2.57181e-05)
(0.105843 -9.14687e-06 -2.67162e-05)
(0.106677 -2.17536e-06 -1.17424e-05)
(0.106081 -9.62407e-07 -1.48094e-05)
(0.10584 -4.57541e-06 -1.48342e-05)
(0.106676 -3.16157e-07 -5.63067e-06)
(0.10608 1.15452e-06 -7.42939e-06)
(0.105837 -1.74095e-06 -6.88635e-06)
(0.106078 2.29205e-06 -2.8051e-06)
(0.105834 -1.36557e-07 -2.04695e-06)
(0.105369 -3.33608e-05 -0.000153034)
(0.104277 2.36689e-05 -0.000138627)
(0.10444 -7.84773e-05 -0.000187276)
(0.105404 -4.01105e-05 -0.000169366)
(0.104299 8.99129e-06 -0.000168136)
(0.104471 -8.59805e-05 -0.000230613)
(0.10544 -3.92397e-05 -0.000158086)
(0.104326 -3.02832e-06 -0.000163212)
(0.104498 -7.69966e-05 -0.000222653)
(0.105468 -3.30473e-05 -0.000132605)
(0.10436 -7.11792e-06 -0.000137797)
(0.10452 -5.92178e-05 -0.000187494)
(0.105488 -2.4836e-05 -0.000103075)
(0.104384 -6.68635e-06 -0.000106699)
(0.104529 -4.10058e-05 -0.0001451)
(0.1055 -1.66483e-05 -7.51061e-05)
(0.104398 -4.13865e-06 -7.71151e-05)
(0.104528 -2.5666e-05 -0.000104984)
(0.105505 -9.57464e-06 -5.14857e-05)
(0.104405 -9.11525e-07 -5.22765e-05)
(0.104524 -1.40597e-05 -7.14248e-05)
(0.105507 -4.06857e-06 -3.3105e-05)
(0.104408 2.07264e-06 -3.3165e-05)
(0.104517 -5.98359e-06 -4.56526e-05)
(0.105507 -1.59935e-07 -1.97027e-05)
(0.104408 4.35233e-06 -1.93968e-05)
(0.104511 -7.62931e-07 -2.70851e-05)
(0.105505 2.33485e-06 -1.0511e-05)
(0.104407 5.79708e-06 -1.00411e-05)
(0.104505 2.32821e-06 -1.44306e-05)
(0.105502 3.68705e-06 -4.62266e-06)
(0.104405 6.41448e-06 -4.17674e-06)
(0.1045 3.86119e-06 -6.3554e-06)
(0.104496 4.35604e-06 -1.66185e-06)
(0.10324 6.77268e-05 -0.000152738)
(0.101375 0.000177668 -7.2159e-05)
(0.101945 3.68914e-05 -0.000238987)
(0.103278 4.69992e-05 -0.000161479)
(0.101418 0.000130505 -9.91648e-05)
(0.101977 2.42784e-05 -0.00028033)
(0.103317 2.94513e-05 -0.000142885)
(0.101463 8.54612e-05 -9.74201e-05)
(0.101998 1.939e-05 -0.000249613)
(0.103344 1.90387e-05 -0.000112238)
(0.101515 5.63309e-05 -7.77605e-05)
(0.102009 1.89546e-05 -0.000191702)
(0.103361 1.34553e-05 -8.12918e-05)
(0.101551 3.73964e-05 -5.59586e-05)
(0.102007 1.82956e-05 -0.000136184)
(0.10337 1.0912e-05 -5.48843e-05)
(0.101573 2.58876e-05 -3.69629e-05)
(0.101999 1.72067e-05 -9.09278e-05)
(0.103375 1.00541e-05 -3.45029e-05)
(0.101585 1.94635e-05 -2.21417e-05)
(0.10199 1.59282e-05 -5.71796e-05)
(0.103375 9.88111e-06 -1.99072e-05)
(0.101592 1.59012e-05 -1.15969e-05)
(0.101983 1.45791e-05 -3.36395e-05)
(0.103375 9.7896e-06 -1.008e-05)
(0.101596 1.37737e-05 -4.56426e-06)
(0.101977 1.32155e-05 -1.80319e-05)
(0.103373 9.45661e-06 -3.95314e-06)
(0.101598 1.23184e-05 -1.0594e-07)
(0.101972 1.18364e-05 -8.18825e-06)
(0.101599 1.09914e-05 2.24754e-06)
(0.101969 1.02559e-05 -2.64867e-06)
(0.0996573 0.000198001 -3.34343e-05)
(0.0950878 0.000230505 0.000128907)
(0.0976833 0.000288453 -0.000113322)
(0.0997508 0.000136929 -4.75147e-05)
(0.0952046 0.000154217 0.000100673)
(0.0977593 0.000199769 -0.000186761)
(0.0998291 9.11056e-05 -4.16796e-05)
(0.0953151 0.000100191 6.9586e-05)
(0.097809 0.00013926 -0.000159583)
(0.0998838 6.03543e-05 -2.85284e-05)
(0.0954237 6.44547e-05 4.74421e-05)
(0.0978494 9.70939e-05 -0.000108426)
(0.0999209 4.01977e-05 -1.67588e-05)
(0.0954979 4.11869e-05 3.20933e-05)
(0.0978726 6.63454e-05 -6.84826e-05)
(0.0999451 2.7942e-05 -7.85349e-06)
(0.0955443 2.74801e-05 2.25117e-05)
(0.0978863 4.56845e-05 -4.04537e-05)
(0.0999603 2.08518e-05 -1.76113e-06)