/*--------------------------------*- C++ -*----------------------------------*\
| =========                 |                                                 |
| \\      /  F ield         | OpenFOAM: The Open Source CFD Toolbox           |
|  \\    /   O peration     | Version:  2212                                  |
|   \\  /    A nd           | Website:  www.openfoam.com                      |
|    \\/     M anipulation  |                                                 |
\*---------------------------------------------------------------------------*/
FoamFile
{
    version     2.0;
    format      ascii;
    arch        "LSB;label=32;scalar=64";
    class       surfaceScalarField;
    location    "2.05";
    object      phi;
}
// * * * * * * * * * * * * * * * * * * * * * * * * * * * * * * * * * * * * * //

dimensions      [0 3 -1 0 0 0 0];

oriented        oriented;

internalField   nonuniform List<scalar> 
1763
(
5.51605e-08
-3.42402e-08
5.46956e-08
-3.42818e-08
3.47467e-08
5.4246e-08
-3.43155e-08
3.47651e-08
5.37874e-08
-3.43423e-08
3.48008e-08
5.33008e-08
-3.43722e-08
3.48589e-08
-3.43866e-08
3.49118e-08
1.79828e-07
-6.46785e-08
3.20044e-08
1.78379e-07
-6.47958e-08
3.19629e-08
1.76984e-07
-6.48939e-08
3.19736e-08
1.75589e-07
-6.49592e-08
3.20124e-08
1.74245e-07
-6.50613e-08
3.20328e-08
-6.50099e-08
3.21614e-08
3.51012e-07
3.47909e-07
-8.96301e-08
2.79366e-08
3.44886e-07
-8.9728e-08
2.78578e-08
3.41934e-07
-8.98125e-08
2.78051e-08
3.39091e-07
-8.99303e-08
2.77119e-08
-8.99601e-08
2.76811e-08
4.94962e-07
-1.07502e-07
2.23436e-08
4.90616e-07
-1.07586e-07
2.2204e-08
4.86426e-07
-1.07682e-07
2.20597e-08
4.82418e-07
-1.07778e-07
2.18556e-08
-1.07843e-07
2.15527e-08
5.93401e-07
1.54003e-08
5.88232e-07
-1.17464e-07
1.50468e-08
5.83386e-07
-1.17521e-07
1.46844e-08
5.7885e-07
-1.17532e-07
1.42898e-08
-1.17512e-07
1.37524e-08
6.18365e-07
-1.18145e-07
5.89345e-09
6.13511e-07
-1.18107e-07
5.44006e-09
6.08994e-07
-1.18001e-07
4.98648e-09
-1.17869e-07
4.472e-09
5.73824e-07
-1.09066e-07
-4.67406e-09
5.69529e-07
-1.08985e-07
-4.82749e-09
5.65403e-07
-1.08824e-07
-5.05128e-09
-1.08718e-07
-5.41975e-09
4.65538e-07
-9.10826e-08
-1.43361e-08
4.61991e-07
-9.10088e-08
-1.44293e-08
4.58654e-07
-9.09172e-08
-1.45698e-08
-9.09903e-08
-1.47117e-08
3.18673e-07
-6.59035e-08
-2.27742e-08
3.16369e-07
-6.58774e-08
-2.28273e-08
3.14199e-07
-6.58437e-08
-2.29038e-08
-6.59654e-08
-2.28331e-08
1.68293e-07
-3.47485e-08
1.67091e-07
-3.4747e-08
-2.99547e-08
1.65909e-07
-3.47762e-08
-2.99189e-08
1.64778e-07
-3.48379e-08
-2.9875e-08
-3.49056e-08
-2.97216e-08
5.46623e-08
-3.42751e-08
5.4212e-08
-3.42967e-08
5.37428e-08
-3.4307e-08
5.32341e-08
-3.43293e-08
-3.43459e-08
1.68469e-07
-2.99241e-08
1.67304e-07
-2.99212e-08
6.58504e-08
1.66145e-07
-2.98918e-08
6.58518e-08
1.65038e-07
-2.98823e-08
6.58479e-08
-2.97829e-08
6.59589e-08
4.66059e-07
4.63001e-07
-5.55531e-08
6.06503e-08
4.60038e-07
-5.56091e-08
6.06245e-08
4.57198e-07
-5.56696e-08
6.06303e-08
4.54402e-07
-5.57083e-08
6.06542e-08
-5.57681e-08
6.06356e-08
7.80047e-07
-7.72221e-08
5.27439e-08
7.76842e-07
-7.72124e-08
5.26663e-08
7.73613e-07
-7.7206e-08
5.25701e-08
7.7036e-07
-7.72061e-08
5.24627e-08
-7.7363e-08
5.20578e-08
1.01231e-06
-9.31807e-08
4.06945e-08
1.00986e-06
-9.3127e-08
4.05657e-08
1.00735e-06
-9.30627e-08
4.04255e-08
1.00482e-06
-9.30366e-08
4.02149e-08
-9.31717e-08
3.95966e-08
1.15049e-06
-1.02027e-07
2.58348e-08
1.14882e-06
-1.02033e-07
2.56252e-08
1.14706e-06
-1.0202e-07
2.53978e-08
1.14528e-06
-1.02023e-07
2.50642e-08
-1.02095e-07
2.42881e-08
1.19016e-06
-1.03323e-07
8.4832e-09
1.18913e-06
-1.03411e-07
8.30624e-09
1.188e-06
-1.03492e-07
8.03755e-09
1.18686e-06
-1.03558e-07
7.65871e-09
-1.03606e-07
6.99999e-09
1.13459e-06
-9.83241e-09
1.13361e-06
-9.71958e-08
-9.91362e-09
1.13263e-06
-9.72601e-08
-1.00756e-08
1.13168e-06
-9.73373e-08
-1.03215e-08
-9.73069e-08
-1.08673e-08
9.87101e-07
-8.28293e-08
-2.69591e-08
9.85315e-07
-8.28632e-08
-2.70402e-08
9.83482e-07
-8.29501e-08
-2.71242e-08
-8.29048e-08
-2.7551e-08
7.53825e-07
-6.06064e-08
-4.19405e-08
7.5073e-07
-6.06194e-08
-4.19765e-08
7.47579e-07
-6.06646e-08
-4.20381e-08
-6.07073e-08
-4.23466e-08
4.5987e-07
-3.19293e-08
-5.55804e-08
4.56891e-07
-3.19732e-08
-5.55864e-08
4.53974e-07
-3.20162e-08
-5.56063e-08
-3.21889e-08
-5.56157e-08
1.78364e-07
-6.4768e-08
1.76923e-07
-6.4785e-08
1.75467e-07
-6.48246e-08
1.74074e-07
-6.49525e-08
-6.49143e-08
3.19091e-07
-2.28529e-08
9.09843e-08
3.16898e-07
-2.28701e-08
9.09148e-08
3.14794e-07
-2.29233e-08
9.08756e-08
-2.29238e-08
9.09797e-08
7.57223e-07
-4.19775e-08
7.54098e-07
-4.19661e-08
8.28634e-08
7.50924e-07
-4.1991e-08
8.29253e-08
7.47763e-07
-4.20783e-08
8.29699e-08
-4.25049e-08
8.28353e-08
1.13118e-06
-5.94829e-08
7.04779e-08
1.1308e-06
-5.94516e-08
7.05282e-08
1.13026e-06
-5.9416e-08
7.05437e-08
1.12961e-06
-5.94542e-08
7.04792e-08
-5.98315e-08
7.00585e-08
1.38514e-06
-7.31452e-08
5.26942e-08
1.38672e-06
-7.31066e-08
5.26434e-08
1.38824e-06
-7.30826e-08
5.25665e-08
1.38972e-06
-7.31145e-08
5.24021e-08
-7.33415e-08
5.19658e-08
1.53235e-06
-8.14704e-08
3.1388e-08
1.53506e-06
-8.14668e-08
3.12752e-08
1.53773e-06
-8.14668e-08
3.11144e-08
1.54031e-06
-8.1488e-08
3.08558e-08
-8.16214e-08
3.03471e-08
1.57724e-06
-8.40105e-08
7.63123e-09
1.58061e-06
-8.4052e-08
7.51611e-09
1.58393e-06
-8.40927e-08
7.34476e-09
1.58716e-06
-8.41196e-08
7.06148e-09
-8.41423e-08
6.59746e-09
1.52472e-06
-8.06456e-08
-1.66411e-08
1.52813e-06
-8.06721e-08
-1.67044e-08
1.53148e-06
-8.06862e-08
-1.68284e-08
1.53473e-06
-8.06639e-08
-1.70339e-08
-8.04964e-08
-1.73996e-08
1.37753e-06
-7.04511e-08
-3.93775e-08
1.37979e-06
-7.04894e-08
-3.94096e-08
1.382e-06
-7.04863e-08
-3.94479e-08
1.38418e-06
-7.04131e-08
-3.95492e-08
-7.00654e-08
-3.98713e-08
1.13124e-06
-5.94414e-08
1.13089e-06
-5.26608e-08
-5.94186e-08
1.13041e-06
-5.25641e-08
-5.94217e-08
1.12988e-06
-5.24533e-08
-5.94667e-08
-5.21296e-08
-5.97275e-08
7.76744e-07
-2.7895e-08
-7.71824e-08
7.73578e-07
-2.78444e-08
-7.71393e-08
7.70341e-07
-2.77187e-08
-7.71044e-08
-2.77253e-08
-7.71738e-08
3.48043e-07
-8.95932e-08
3.44929e-07
-8.95662e-08
3.41857e-07
-8.95962e-08
3.38926e-07
-8.97405e-08
-8.9813e-08
4.66037e-07
-1.44595e-08
1.09052e-07
4.62555e-07
-1.45355e-08
1.08933e-07
4.59282e-07
-1.46389e-08
1.08788e-07
-1.48042e-08
1.0872e-07
9.87313e-07
-2.70541e-08
9.72144e-08
9.85448e-07
-2.70716e-08
9.73267e-08
9.83528e-07
-2.71502e-08
9.74008e-08
-2.76512e-08
9.73077e-08
1.37734e-06
-3.94762e-08
8.06726e-08
1.37958e-06
-3.94818e-08
8.07178e-08
1.38177e-06
-3.94813e-08
8.07556e-08
1.38392e-06
-3.95569e-08
8.07358e-08
-3.98843e-08
8.05367e-08
1.63552e-06
-4.98685e-08
5.86986e-08
1.63988e-06
-4.98714e-08
5.86726e-08
1.6442e-06
-4.98749e-08
5.86397e-08
1.64842e-06
-4.99291e-08
5.85531e-08
-5.00907e-08
5.83543e-08
1.78558e-06
-5.6773e-08
3.29992e-08
1.79086e-06
-5.6785e-08
3.29126e-08
1.79608e-06
-5.67951e-08
3.28143e-08
1.80117e-06
-5.68205e-08
3.26576e-08
-5.68886e-08
3.24237e-08
1.83371e-06
-5.97756e-08
4.96139e-09
1.83937e-06
-5.97998e-08
4.8748e-09
1.84496e-06
-5.98132e-08
4.76909e-09
1.85041e-06
-5.9808e-08
4.60158e-09
-5.97915e-08
4.41979e-09
1.77777e-06
-2.32258e-08
1.78328e-06
-5.8641e-08
-2.32783e-08
1.78873e-06
-5.86292e-08
-2.33272e-08
1.79411e-06
-5.86099e-08
-2.34101e-08
1.79935e-06
-5.85335e-08
-2.35536e-08
-5.83556e-08
-2.37485e-08
1.63564e-06
-5.26133e-08
-4.98175e-08
1.64003e-06
-5.25904e-08
-4.9839e-08
1.64436e-06
-5.2516e-08
-4.98652e-08
1.64858e-06
-5.23577e-08
-4.99434e-08
-5.1999e-08
-5.01081e-08
1.38528e-06
-4.06261e-08
-7.31147e-08
1.3869e-06
-4.05434e-08
-7.30869e-08
1.38846e-06
-4.04082e-08
-7.30891e-08
1.38995e-06
-4.0185e-08
-7.31276e-08
-3.96731e-08
-7.3293e-08
1.01235e-06
-2.22995e-08
-9.31238e-08
1.00988e-06
-2.22255e-08
-9.30339e-08
1.00739e-06
-2.20856e-08
-9.29646e-08
1.00489e-06
-2.18476e-08
-9.29443e-08
-2.1583e-08
-9.30202e-08
4.95121e-07
-1.07392e-07
4.90739e-07
-1.0741e-07
4.86535e-07
-1.07477e-07
4.82529e-07
-1.07582e-07
-1.07681e-07
5.78805e-07
-4.59144e-09
1.18182e-07
5.744e-07
-4.71218e-09
1.18169e-07
5.701e-07
-4.89759e-09
1.18131e-07
5.65987e-07
-5.12204e-09
1.18022e-07
-5.47785e-09
1.17886e-07
1.13466e-06
-9.887e-09
1.03347e-07
1.1337e-06
-9.97753e-09
1.03439e-07
1.13273e-06
-1.0134e-08
1.03536e-07
1.13175e-06
-1.03698e-08
1.03624e-07
-1.09282e-08
1.03664e-07
1.52117e-06
-1.66568e-08
8.40154e-08
1.52458e-06
-1.66935e-08
8.40683e-08
1.52795e-06
-1.67427e-08
8.41101e-08
1.53129e-06
-1.68567e-08
8.41411e-08
1.53455e-06
-1.70553e-08
8.41612e-08
-1.74287e-08
8.41746e-08
1.77761e-06
-2.33106e-08
5.98206e-08
1.78314e-06
-2.33336e-08
5.98134e-08
1.78861e-06
-2.33549e-08
5.98107e-08
1.79401e-06
-2.34182e-08
5.98058e-08
1.79926e-06
-2.35477e-08
5.97889e-08
-2.37359e-08
5.97631e-08
1.92809e-06
-2.8501e-08
3.18805e-08
1.93442e-06
-2.85123e-08
3.18432e-08
1.94069e-06
-2.85216e-08
3.18109e-08
1.94685e-06
-2.8542e-08
3.17769e-08
1.95281e-06
-2.8579e-08
3.17305e-08
-2.86367e-08
3.16668e-08
1.9776e-06
-3.18293e-08
1.75142e-09
1.98417e-06
-3.18338e-08
1.71538e-09
1.99068e-06
-3.18341e-08
1.67983e-09
1.99709e-06
-3.18142e-08
1.63314e-09
2.00329e-06
-3.17736e-08
1.59038e-09
-3.17138e-08
1.56214e-09
1.9281e-06
-3.29901e-08
-2.84573e-08
1.93441e-06
-3.295e-08
-2.84761e-08
1.94067e-06
-3.29144e-08
-2.8503e-08
1.94682e-06
-3.28345e-08
-2.85405e-08
1.95277e-06
-3.26862e-08
-2.85904e-08
-3.24617e-08
-2.86553e-08
1.7803e-06
-3.14045e-08
-5.67206e-08
1.78561e-06
-3.1341e-08
-5.674e-08
1.79088e-06
-3.1256e-08
-5.67638e-08
1.79606e-06
-3.10912e-08
-5.67931e-08
1.80111e-06
-3.08507e-08
-5.68308e-08
-3.03981e-08
-5.68995e-08
1.52964e-06
-2.5979e-08
-8.14192e-08
1.53242e-06
-2.58081e-08
-8.1432e-08
1.53518e-06
-2.56448e-08
-8.14529e-08
1.53787e-06
-2.53902e-08
-8.14801e-08
1.54042e-06
-2.5025e-08
-8.15089e-08
-2.43368e-08
-8.16144e-08
1.15223e-06
-1.0193e-07
1.15063e-06
-1.53817e-08
-1.01944e-07
1.14892e-06
-1.504e-08
-1.01933e-07
1.14714e-06
-1.46449e-08
-1.01932e-07
1.14535e-06
-1.42239e-08
-1.01953e-07
-1.37235e-08
-1.02007e-07
5.9369e-07
-1.17324e-07
5.88555e-07
-1.17315e-07
5.83765e-07
-1.17332e-07
5.79297e-07
-1.17338e-07
-1.17342e-07
6.24267e-07
6.22457e-09
1.17473e-07
6.19004e-07
5.8894e-09
1.17543e-07
6.14112e-07
5.43844e-09
1.17584e-07
6.09581e-07
4.98606e-09
1.17568e-07
4.41608e-09
1.17559e-07
1.19007e-06
8.47606e-09
1.0206e-07
1.18909e-06
8.26005e-09
1.02049e-07
1.188e-06
8.01084e-09
1.02051e-07
1.18688e-06
7.65288e-09
1.02083e-07
6.93739e-09
1.02147e-07
1.57032e-06
7.72534e-09
1.57378e-06
7.69741e-09
8.15228e-08
1.57718e-06
7.64385e-09
8.14995e-08
1.58055e-06
7.52423e-09
8.14805e-08
1.58387e-06
7.34361e-09
8.14879e-08
1.5871e-06
7.06887e-09
8.15139e-08
6.60455e-09
8.16224e-08
1.82223e-06
4.98082e-09
1.82797e-06
4.96786e-09
5.68125e-08
1.83365e-06
4.9609e-09
5.68148e-08
1.83927e-06
4.91737e-09
5.67945e-08
1.84482e-06
4.8151e-09
5.67873e-08
1.85023e-06
4.64819e-09
5.68039e-08
4.46493e-09
5.6864e-08
1.97092e-06
1.97756e-06
1.69075e-09
2.85137e-08
1.98412e-06
1.7109e-09
2.85339e-08
1.99061e-06
1.712e-09
2.85293e-08
1.99698e-06
1.68265e-09
2.85334e-08
2.00315e-06
1.64728e-09
2.85615e-08
1.6196e-09
2.86149e-08
2.02723e-06
-1.71931e-09
-1.69575e-09
2.03404e-06
-1.69577e-09
-1.68438e-09
2.04079e-06
-1.67729e-09
-1.68532e-09
2.04742e-06
-1.64242e-09
-1.66716e-09
2.0539e-06
-1.60564e-09
-1.63855e-09
-1.58079e-09
-1.61445e-09
1.97749e-06
-4.97111e-09
-3.18049e-08
1.98404e-06
-4.92111e-09
-3.18053e-08
1.99055e-06
-4.8769e-09
-3.18146e-08
1.99696e-06
-4.78215e-09
-3.1809e-08
2.00316e-06
-4.6196e-09
-3.17801e-08
-4.44103e-09
-3.17261e-08
1.82793e-06
-7.66065e-09
-5.97248e-08
1.8336e-06
-7.58956e-09
-5.97468e-08
1.83925e-06
-7.49816e-09
-5.97853e-08
1.84481e-06
-7.32788e-09
-5.98133e-08
1.85023e-06
-7.05198e-09
-5.98152e-08
-6.5996e-09
-5.97974e-08
1.57384e-06
-8.6117e-09
-8.39102e-08
1.57724e-06
-8.44633e-09
-8.39744e-08
1.58061e-06
-8.27969e-09
-8.40462e-08
1.58393e-06
-8.01579e-09
-8.41098e-08
1.58713e-06
-7.61514e-09
-8.41419e-08
-6.95757e-09
-8.41518e-08
1.19129e-06
-6.36792e-09
-1.0317e-07
1.19031e-06
-6.18356e-09
-1.03222e-07
1.18925e-06
-5.82884e-09
-1.03326e-07
1.18809e-06
-5.34751e-09
-1.03439e-07
1.1869e-06
-4.87798e-09
-1.03499e-07
-4.36787e-09
-1.03534e-07
6.29462e-07
-1.18098e-07
6.24019e-07
-1.18064e-07
6.1887e-07
-1.17996e-07
6.14104e-07
-1.17913e-07
6.09695e-07
-1.17807e-07
-1.17701e-07
5.99497e-07
1.56275e-08
1.07499e-07
5.94032e-07
1.53819e-08
1.07555e-07
5.88874e-07
1.50459e-08
1.07654e-07
5.84038e-07
1.46681e-08
1.07752e-07
5.79509e-07
1.42683e-08
1.0783e-07
1.37733e-08
1.07881e-07
1.1522e-06
2.59382e-08
9.33208e-08
1.15058e-06
2.57878e-08
9.32727e-08
1.14886e-06
2.56316e-08
9.3182e-08
1.14708e-06
2.53813e-08
9.31269e-08
1.14528e-06
2.50249e-08
9.31226e-08
2.43356e-08
9.32076e-08
1.52953e-06
3.13721e-08
7.32611e-08
1.53229e-06
3.13182e-08
7.32069e-08
1.53502e-06
3.12385e-08
7.31459e-08
1.53768e-06
3.1081e-08
7.31301e-08
1.5402e-06
3.08475e-08
7.31691e-08
3.03945e-08
7.33481e-08
1.7801e-06
3.29572e-08
4.98993e-08
1.78541e-06
3.29339e-08
4.98925e-08
1.79067e-06
3.29148e-08
4.98558e-08
1.79584e-06
3.28422e-08
4.98566e-08
1.80087e-06
3.26975e-08
4.99239e-08
3.24724e-08
5.00892e-08
1.92782e-06
3.18282e-08
2.3303e-08
1.93412e-06
3.18249e-08
2.33384e-08
1.94038e-06
3.18269e-08
2.33609e-08
1.94652e-06
3.18133e-08
2.34206e-08
1.95245e-06
3.17791e-08
2.35486e-08
3.17231e-08
2.37378e-08
1.97738e-06
2.85152e-08
-4.95869e-09
1.98391e-06
2.85231e-08
-4.91481e-09
1.9904e-06
2.85262e-08
-4.87704e-09
1.99679e-06
2.85442e-08
-4.78846e-09
2.00298e-06
2.85826e-08
-4.62907e-09
2.86423e-08
-4.44711e-09
1.92795e-06
2.3324e-08
-3.29507e-08
1.93424e-06
2.33504e-08
-3.29249e-08
1.9405e-06
2.33643e-08
-3.29038e-08
1.94664e-06
2.34199e-08
-3.28307e-08
1.95258e-06
2.35457e-08
-3.26847e-08
2.37332e-08
-3.24571e-08
1.77761e-06
1.66697e-08
-5.85932e-08
1.78311e-06
1.67074e-08
-5.86018e-08
1.78858e-06
1.67491e-08
-5.86384e-08
1.79396e-06
1.68554e-08
-5.86315e-08
1.79919e-06
1.70557e-08
-5.85473e-08
1.74269e-08
-5.83532e-08
1.52126e-06
9.7937e-09
-8.04994e-08
1.52465e-06
9.90981e-09
-8.0565e-08
1.52802e-06
9.98279e-09
-8.06456e-08
1.53133e-06
1.01224e-08
-8.06881e-08
1.53451e-06
1.03869e-08
-8.06538e-08
1.09487e-08
-8.04779e-08
1.1357e-06
4.40565e-09
-9.69643e-08
1.1348e-06
4.627e-09
-9.7042e-08
1.1338e-06
4.81008e-09
-9.71527e-08
1.13272e-06
4.99293e-09
-9.72322e-08
1.13165e-06
5.21409e-09
-9.72506e-08
5.54164e-09
-9.71819e-08
5.83121e-07
-1.09106e-07
5.78691e-07
-1.09007e-07
5.74394e-07
-1.08889e-07
5.70243e-07
-1.08769e-07
5.663e-07
-1.08649e-07
-1.08603e-07
4.99968e-07
2.24154e-08
8.96134e-08
4.95536e-07
2.22935e-08
8.96939e-08
4.91225e-07
2.21808e-08
8.9785e-08
4.87077e-07
2.20301e-08
8.98696e-08
4.83107e-07
2.18136e-08
8.99857e-08
2.15763e-08
8.99909e-08
1.01494e-06
4.07405e-08
7.73382e-08
1.01254e-06
4.06258e-08
7.73379e-08
1.01006e-06
4.05447e-08
7.72992e-08
1.00753e-06
4.0385e-08
7.72998e-08
1.00501e-06
4.01409e-08
7.73166e-08
3.96287e-08
7.74115e-08
1.38348e-06
5.26525e-08
5.96071e-08
1.38511e-06
5.26161e-08
5.95783e-08
1.38669e-06
5.26039e-08
5.95115e-08
1.38817e-06
5.2515e-08
5.95162e-08
1.38955e-06
5.23376e-08
5.9596e-08
5.19655e-08
5.98924e-08
1.63094e-06
5.86351e-08
3.95391e-08
1.63529e-06
5.86388e-08
3.95238e-08
1.63961e-06
5.86648e-08
3.94756e-08
1.64384e-06
5.86487e-08
3.94928e-08
1.64794e-06
5.85638e-08
3.96003e-08
5.83724e-08
3.99109e-08
1.77731e-06
5.97858e-08
1.66876e-08
1.78275e-06
5.97997e-08
1.67293e-08
1.78818e-06
5.98232e-08
1.67765e-08
1.79352e-06
5.98355e-08
1.68901e-08
1.79871e-06
5.98273e-08
1.70995e-08
5.98068e-08
1.74789e-08
1.82771e-06
5.68079e-08
-7.61919e-09
1.83334e-06
5.68091e-08
-7.55159e-09
1.83894e-06
5.68007e-08
-7.45503e-09
1.84447e-06
5.68046e-08
-7.28755e-09
1.84985e-06
5.68291e-08
-7.01017e-09
5.68941e-08
-6.53911e-09
1.78013e-06
4.9901e-08
-3.13429e-08
1.7854e-06
4.98912e-08
-3.12775e-08
1.79064e-06
4.98497e-08
-3.1191e-08
1.7958e-06
4.98452e-08
-3.1029e-08
1.80081e-06
4.9915e-08
-3.07833e-08
5.00841e-08
-3.03209e-08
1.63118e-06
3.94917e-08
-5.26102e-08
1.63555e-06
3.94863e-08
-5.25682e-08
1.63989e-06
3.94261e-08
-5.25554e-08
1.64414e-06
3.94254e-08
-5.24666e-08
1.64826e-06
3.95447e-08
-5.22891e-08
3.98624e-08
-5.19082e-08
1.37517e-06
2.69617e-08
-7.03811e-08
1.37747e-06
2.7002e-08
-7.03802e-08
1.37969e-06
2.69801e-08
-7.04214e-08
1.38181e-06
2.70173e-08
-7.03944e-08
1.38381e-06
2.71732e-08
-7.02884e-08
2.7624e-08
-6.99369e-08
9.9082e-07
1.43521e-08
-8.27673e-08
9.89127e-07
1.44097e-08
-8.2756e-08
9.87306e-07
1.44568e-08
-8.28088e-08
9.854e-07
1.45298e-08
-8.28385e-08
9.83494e-07
1.4664e-08
-8.28358e-08
1.47915e-08
-8.27316e-08
4.73155e-07
-9.11323e-08
4.69607e-07
-9.10496e-08
4.66153e-07
-9.09775e-08
4.62834e-07
-9.09202e-08
4.59713e-07
-9.08645e-08
-9.096e-08
3.51443e-07
2.79968e-08
6.47467e-08
3.48385e-07
2.79222e-08
6.48299e-08
3.45386e-07
2.78748e-08
6.49088e-08
3.42465e-07
2.78048e-08
6.49861e-08
3.39661e-07
2.76854e-08
6.5104e-08
2.76892e-08
6.50363e-08
7.83533e-07
5.27499e-08
5.56296e-08
7.80433e-07
5.26864e-08
5.56734e-08
7.77281e-07
5.26411e-08
5.56843e-08
7.74127e-07
5.25242e-08
5.57349e-08
7.70947e-07
5.23843e-08
5.57979e-08
5.20387e-08
5.58283e-08
1.13147e-06
7.04109e-08
4.2035e-08
1.13123e-06
7.04235e-08
4.20742e-08
1.13083e-06
7.04645e-08
4.20896e-08
1.13026e-06
7.04339e-08
4.21743e-08
1.12964e-06
7.03422e-08
4.22658e-08
6.99992e-08
4.25931e-08
1.37492e-06
8.0542e-08
2.70444e-08
1.37718e-06
8.06128e-08
2.70759e-08
1.37937e-06
8.06846e-08
2.70644e-08
1.38146e-06
8.07145e-08
2.71192e-08
1.38345e-06
8.06867e-08
2.72654e-08
8.05185e-08
2.77038e-08
1.52099e-06
8.39758e-08
9.86099e-09
1.52432e-06
8.4035e-08
9.98071e-09
1.52762e-06
8.41025e-08
1.00573e-08
1.53087e-06
8.41578e-08
1.01986e-08
1.534e-06
8.41838e-08
1.0469e-08
8.41986e-08
1.10392e-08
1.57366e-06
8.14994e-08
-8.52115e-09
1.57702e-06
8.1506e-08
-8.37716e-09
1.58033e-06
8.15097e-08
-8.17743e-09
1.58359e-06
8.15263e-08
-7.91534e-09
1.58675e-06
8.15579e-08
-7.53962e-09
8.16659e-08
-6.81823e-09
1.52951e-06
7.322e-08
-2.58845e-08
1.53227e-06
7.31805e-08
-2.57053e-08
1.53498e-06
7.31328e-08
-2.55293e-08
1.53762e-06
7.31254e-08
-2.5269e-08
1.54012e-06
7.31736e-08
-2.49012e-08
7.33601e-08
-2.42064e-08
1.38352e-06
5.95273e-08
-4.06874e-08
1.38518e-06
5.95088e-08
-4.05571e-08
1.38677e-06
5.94503e-08
-4.04633e-08
1.38826e-06
5.9461e-08
-4.02954e-08
1.38965e-06
5.955e-08
-4.00467e-08
5.98572e-08
-3.95258e-08
1.13145e-06
4.19506e-08
-5.26991e-08
1.13121e-06
4.20074e-08
-5.26319e-08
1.1308e-06
4.2013e-08
-5.25773e-08
1.13025e-06
4.2072e-08
-5.24518e-08
1.12963e-06
4.21936e-08
-5.23104e-08
4.2553e-08
-5.1956e-08
7.60145e-07
2.27091e-08
-6.06155e-08
7.57185e-07
2.27853e-08
-6.05745e-08
7.54168e-07
2.28149e-08
-6.05932e-08
7.51144e-07
2.28497e-08
-6.05926e-08
7.48133e-07
2.29468e-08
-6.05782e-08
2.29354e-08
-6.0568e-08
3.23959e-07
-6.59356e-08
3.21577e-07
-6.58821e-08
3.19277e-07
-6.58627e-08
3.17067e-07
-6.58609e-08
3.14986e-07
-6.5836e-08
-6.59453e-08
1.80082e-07
3.1969e-08
3.42789e-08
1.78635e-07
3.1967e-08
3.431e-08
1.77206e-07
3.20048e-08
3.43328e-08
1.75798e-07
3.20308e-08
3.43634e-08
1.7447e-07
3.2033e-08
3.43993e-08
3.21681e-08
3.4405e-08
4.66544e-07
6.06692e-08
2.99458e-08
4.63588e-07
6.06447e-08
2.99521e-08
4.6069e-07
6.06659e-08
2.99212e-08
4.57893e-07
6.06546e-08
2.99075e-08
4.55153e-07
6.06536e-08
2.99173e-08
6.06567e-08
2.98086e-08
7.60541e-07
8.28255e-08
2.27473e-08
7.5761e-07
8.28382e-08
2.28119e-08
7.54633e-07
8.28871e-08
2.28454e-08
7.51663e-07
8.28971e-08
2.29013e-08
7.48676e-07
8.29195e-08
2.29869e-08
8.28356e-08
2.29527e-08
9.9109e-07
9.70149e-08
1.44028e-08
9.89435e-07
9.71084e-08
1.44611e-08
9.87646e-07
9.72283e-08
1.45123e-08
9.85761e-07
9.73109e-08
1.459e-08
9.83884e-07
9.73346e-08
1.47278e-08
9.72668e-08
1.4854e-08
1.13583e-06
1.03223e-07
4.44736e-09
1.13495e-06
1.03287e-07
4.68161e-09
1.13396e-06
1.03398e-07
4.87559e-09
1.1329e-06
1.03507e-07
5.06547e-09
1.13183e-06
1.03582e-07
5.28591e-09
1.03621e-07
5.61604e-09
1.19139e-06
1.01986e-07
-6.28022e-09
1.19039e-06
1.02006e-07
-6.08793e-09
1.18935e-06
1.0201e-07
-5.75072e-09
1.1882e-06
1.0202e-07
-5.28144e-09
1.18701e-06
1.02052e-07
-4.81888e-09
1.02116e-07
-4.26379e-09
1.15239e-06
9.32193e-08
-1.55646e-08
1.1508e-06
9.31836e-08
-1.52881e-08
1.14909e-06
9.31105e-08
-1.49273e-08
1.14731e-06
9.30691e-08
-1.45329e-08
1.14551e-06
9.30722e-08
-1.41233e-08
9.31638e-08
-1.3632e-08
1.01498e-06
7.72434e-08
-2.23586e-08
1.01259e-06
7.72419e-08
-2.22229e-08
1.01012e-06
7.72098e-08
-2.20963e-08
1.00762e-06
7.72169e-08
-2.19374e-08
1.00512e-06
7.72383e-08
-2.17152e-08
7.73496e-08
-2.14776e-08
7.83417e-07
5.55537e-08
-2.79512e-08
7.80305e-07
5.55916e-08
-2.78697e-08
7.77143e-07
5.5608e-08
-2.78141e-08
7.73983e-07
5.56658e-08
-2.77401e-08
7.70808e-07
5.57244e-08
-2.76219e-08
5.57657e-08
-2.76209e-08
4.66327e-07
2.99102e-08
-3.1944e-08
4.63364e-07
2.99174e-08
-3.19366e-08
4.60466e-07
2.9885e-08
-3.19723e-08
4.57671e-07
2.98682e-08
-3.20004e-08
4.54926e-07
2.98871e-08
-3.19959e-08
2.97893e-08
-3.21268e-08
1.69852e-07
-3.47261e-08
1.68626e-07
-3.47384e-08
1.67418e-07
-3.47696e-08
1.66227e-07
-3.48022e-08
1.65129e-07
-3.48507e-08
-3.49022e-08
5.52575e-08
3.47613e-08
5.47919e-08
3.47756e-08
5.43218e-08
3.4803e-08
5.38521e-08
3.48331e-08
5.33692e-08
3.48822e-08
3.49299e-08
1.69975e-07
6.59987e-08
1.68749e-07
6.59544e-08
1.6754e-07
6.59331e-08
1.66358e-07
6.59219e-08
1.65259e-07
6.5899e-08
6.60046e-08
3.29367e-07
3.26774e-07
9.12917e-08
3.24311e-07
9.12082e-08
3.21948e-07
9.11293e-08
3.19661e-07
9.10662e-08
3.1747e-07
9.10143e-08
3.15411e-07
9.09446e-08
9.10262e-08
4.77391e-07
1.09275e-07
4.7382e-07
1.09182e-07
4.70316e-07
1.09094e-07
4.66906e-07
1.08988e-07
4.63634e-07
1.08877e-07
4.60548e-07
1.08758e-07
1.08697e-07
5.88455e-07
5.83936e-07
1.18148e-07
5.79578e-07
1.18134e-07
5.7536e-07
1.18082e-07
5.71291e-07
1.18012e-07
5.67416e-07
1.17918e-07
1.17804e-07
6.30299e-07
1.17376e-07
6.24961e-07
1.17384e-07
6.19885e-07
1.17407e-07
6.15178e-07
1.17438e-07
6.10835e-07
1.17442e-07
1.17449e-07
5.99902e-07
1.0742e-07
5.94538e-07
1.07461e-07
5.89481e-07
1.07537e-07
5.8476e-07
1.07625e-07
5.80366e-07
1.07713e-07
1.07784e-07
5.00195e-07
8.95423e-08
4.95816e-07
8.9617e-08
4.9156e-07
8.96974e-08
4.87473e-07
8.97751e-08
4.83577e-07
8.98933e-08
8.99123e-08
3.51504e-07
6.46949e-08
3.48475e-07
6.47766e-08
3.45504e-07
6.48537e-08
3.4261e-07
6.49295e-08
3.39835e-07
6.50463e-08
6.49886e-08
1.80076e-07
3.4243e-08
1.78641e-07
3.42749e-08
1.77222e-07
3.43001e-08
1.7582e-07
3.43313e-08
1.745e-07
3.43699e-08
3.43835e-08
5.52379e-08
5.47743e-08
5.43048e-08
5.38339e-08
5.33531e-08
)
;

boundaryField
{
    inlet
    {
        type            calculated;
        value           nonuniform List<scalar> 0();
    }
    ami1
    {
        type            cyclicAMI;
        value           nonuniform List<scalar> 0();
    }
    walls
    {
        type            calculated;
        value           nonuniform List<scalar> 
244
(
2.90979e-14
2.43942e-14
1.84387e-14
2.90979e-14
2.43942e-14
1.84387e-14
1.28555e-14
6.40674e-15
-2.43942e-14
-2.90979e-14
2.90979e-14
2.43942e-14
1.84387e-14
1.28555e-14
6.40674e-15
-1.41655e-22
-6.40674e-15
-1.28555e-14
-1.84387e-14
-2.43942e-14
-2.90979e-14
2.90979e-14
2.43942e-14
1.84387e-14
1.28555e-14
6.40674e-15
-1.41655e-22
-6.40674e-15
-1.28555e-14
-1.84387e-14
-2.43942e-14
-2.90979e-14
2.90979e-14
2.43942e-14
1.84387e-14
1.28555e-14
6.40674e-15
-4.32719e-22
-6.40674e-15
-1.28555e-14
-1.84387e-14
-2.43942e-14
-2.90979e-14
2.90979e-14
2.43942e-14
1.84387e-14
1.28555e-14
6.40674e-15
-1.41655e-22
-6.40674e-15
-1.28555e-14
-1.84387e-14
-2.43942e-14
-2.90979e-14
-1.41913e-22
-6.40674e-15
-1.28555e-14
-1.84387e-14
-2.43942e-14
-2.90979e-14
2.90979e-14
2.43942e-14
1.84387e-14
1.28555e-14
6.40674e-15
-1.41913e-22
-6.40674e-15
-1.28555e-14
-1.84387e-14
-2.43942e-14
-2.90979e-14
2.90979e-14
2.43942e-14
1.84387e-14
1.28555e-14
6.40674e-15
-1.41655e-22
-6.40674e-15
-1.28555e-14
-1.84387e-14
-2.43942e-14
-2.90979e-14
2.90979e-14
2.43942e-14
1.84387e-14
1.28555e-14
6.40674e-15
-1.41655e-22
-6.40674e-15
-1.28555e-14
-1.84387e-14
-2.43942e-14
-2.90979e-14
2.90979e-14
2.43942e-14
1.84387e-14
1.28555e-14
6.40674e-15
-4.32719e-22
-6.40674e-15
-1.28555e-14
-1.84387e-14
-2.43942e-14
-2.90979e-14
2.90979e-14
2.43942e-14
1.84387e-14
1.28555e-14
6.40674e-15
-1.41655e-22
-6.40674e-15
-1.28555e-14
-1.84387e-14
-2.43942e-14
-2.90979e-14
-1.84387e-14
-1.84387e-14
-1.28555e-14
-6.40674e-15
-2.90979e-14
-2.43942e-14
-1.84387e-14
-1.28555e-14
-6.40674e-15
-1.41655e-22
6.40674e-15
1.28555e-14
1.84387e-14
2.43942e-14
2.90979e-14
-2.90979e-14
-2.43942e-14
-1.84387e-14
-1.28555e-14
-6.40674e-15
-1.41832e-22
6.40674e-15
1.28555e-14
1.84387e-14
2.43942e-14
2.90979e-14
-2.90979e-14
-2.43942e-14
-1.84387e-14
-1.28555e-14
-6.40674e-15
-1.41655e-22
6.40674e-15
1.28555e-14
1.84387e-14
2.43942e-14
2.90979e-14
-2.90979e-14
-2.43942e-14
-1.84387e-14
-1.28555e-14
-6.40674e-15
-1.41655e-22
6.40674e-15
1.28555e-14
1.84387e-14
2.43942e-14
2.90979e-14
-2.90979e-14
-2.43942e-14
-1.84387e-14
-1.28555e-14
-6.40674e-15
-4.93206e-22
6.40674e-15
1.28555e-14
1.84387e-14
2.43942e-14
2.90979e-14
-2.90979e-14
-2.43942e-14
-1.84387e-14
-1.28555e-14
-6.40674e-15
-1.41655e-22
6.40674e-15
1.28555e-14
1.84387e-14
2.43942e-14
2.90979e-14
-2.90979e-14
6.40674e-15
1.28555e-14
1.84387e-14
2.43942e-14
2.90979e-14
-2.90979e-14
-2.43942e-14
-6.40674e-15
-1.41832e-22
6.40674e-15
1.28555e-14
1.84387e-14
2.43942e-14
2.90979e-14
-2.90979e-14
-2.43942e-14
-1.84387e-14
-1.28555e-14
-6.40674e-15
-1.41655e-22
6.40674e-15
1.28555e-14
1.84387e-14
2.43942e-14
2.90979e-14
-2.90979e-14
-2.43942e-14
-1.84387e-14
-1.28555e-14
-6.40674e-15
-1.41655e-22
6.40674e-15
1.28555e-14
1.84387e-14
2.43942e-14
2.90979e-14
-2.90979e-14
-2.43942e-14
-1.84387e-14
-1.28555e-14
-6.40674e-15
-4.93206e-22
6.40674e-15
1.28555e-14
1.84387e-14
2.43942e-14
2.90979e-14
-2.90979e-14
-2.43942e-14
-1.84387e-14
-1.28555e-14
-6.40674e-15
-1.41655e-22
6.40674e-15
1.28555e-14
1.84387e-14
2.43942e-14
2.90979e-14
)
;
    }
    ami2
    {
        type            cyclicAMI;
        value           nonuniform List<scalar> 0();
    }
    outlet
    {
        type            calculated;
        value           nonuniform List<scalar> 
121
(
5.27755e-08
1.72707e-07
3.3636e-07
4.78748e-07
5.74767e-07
6.04879e-07
5.61673e-07
4.55637e-07
3.12007e-07
1.6344e-07
5.26744e-08
1.63774e-07
4.51913e-07
7.67579e-07
1.00259e-06
1.14366e-06
1.18585e-06
1.13083e-06
9.8192e-07
7.44895e-07
4.5135e-07
1.72454e-07
3.12696e-07
7.45144e-07
1.12894e-06
1.39086e-06
1.54253e-06
1.59008e-06
1.53762e-06
1.38607e-06
1.12932e-06
7.67495e-07
3.36099e-07
4.56346e-07
9.81902e-07
1.38568e-06
1.65224e-06
1.80589e-06
1.85549e-06
1.80427e-06
1.65246e-06
1.39119e-06
1.00265e-06
4.78813e-07
5.62298e-07
1.13084e-06
1.53741e-06
1.80416e-06
1.95847e-06
2.00923e-06
1.95842e-06
1.80584e-06
1.54268e-06
1.14372e-06
5.75235e-07
6.05492e-07
1.18587e-06
1.58998e-06
1.85527e-06
2.00905e-06
2.06028e-06
2.00909e-06
1.85529e-06
1.59002e-06
1.18584e-06
6.05686e-07
5.75413e-07
1.14366e-06
1.54241e-06
1.80557e-06
1.95808e-06
2.00889e-06
1.95822e-06
1.80405e-06
1.53731e-06
1.1307e-06
5.62743e-07
4.79421e-07
1.00276e-06
1.39067e-06
1.65171e-06
1.80353e-06
1.85485e-06
1.80548e-06
1.65203e-06
1.38551e-06
9.81877e-07
4.56861e-07
3.36926e-07
7.68181e-07
1.12898e-06
1.38514e-06
1.53676e-06
1.58956e-06
1.54232e-06
1.39077e-06
1.12895e-06
7.45587e-07
3.12906e-07
1.72933e-07
4.52684e-07
7.46138e-07
9.82302e-07
1.1309e-06
1.18596e-06
1.14389e-06
1.00289e-06
7.68057e-07
4.52461e-07
1.63875e-07
5.28444e-08
1.63993e-07
3.13342e-07
4.57731e-07
5.63926e-07
6.06926e-07
5.76399e-07
4.79971e-07
3.37138e-07
1.72979e-07
5.28344e-08
)
;
    }
    procBoundary6to5
    {
        type            processor;
        value           nonuniform List<scalar> 
177
(
-5.56733e-08
3.47529e-08
-1.81395e-07
-3.54212e-07
-8.95447e-08
2.80664e-08
-4.99434e-07
-5.9887e-07
-1.17433e-07
-6.23578e-07
-6.21091e-09
-5.78229e-07
4.57492e-09
-4.69185e-07
-3.21078e-07
6.59391e-08
-1.69584e-07
-2.98998e-08
-5.51356e-08
-1.69703e-07
2.98747e-08
6.59051e-08
-4.69176e-07
-5.54871e-08
6.0733e-08
-7.83186e-07
-1.0147e-06
-1.15208e-06
-1.19114e-06
-1.13549e-06
-9.71646e-08
-9.88845e-07
2.68247e-08
-7.56881e-07
4.19097e-08
-4.62921e-07
3.19663e-08
-1.79838e-07
-3.21372e-07
2.27776e-08
-7.60203e-07
8.28298e-08
-1.13141e-06
-1.38348e-06
-1.52958e-06
-1.57385e-06
-1.52128e-06
1.65284e-08
-1.37517e-06
-1.13141e-06
-5.27453e-08
-7.79908e-07
2.79332e-08
7.71891e-08
-3.51151e-07
-4.69645e-07
-1.09096e-07
-9.89069e-07
2.69403e-08
-9.71483e-08
-1.375e-06
-8.06293e-08
-1.63113e-06
-5.87627e-08
-1.78029e-06
-3.31132e-08
-1.82804e-06
5.97614e-08
-5.07481e-09
-1.77214e-06
-5.86951e-08
-1.63123e-06
4.97529e-08
-1.38359e-06
7.31074e-08
-1.01474e-06
9.31466e-08
-4.99622e-07
-5.83299e-07
-1.13556e-06
9.72477e-09
-1.51762e-06
-8.39399e-08
-1.77202e-06
-5.98181e-08
-1.92166e-06
-3.19039e-08
-1.97095e-06
-1.9217e-06
-1.77491e-06
-1.52675e-06
-1.15378e-06
-1.56442e-08
-5.9914e-07
1.17343e-07
-6.29783e-07
-1.17427e-07
-8.83463e-09
-1.19104e-06
-8.66323e-09
-1.02061e-07
-1.5668e-06
8.15257e-08
-1.81645e-06
5.67794e-08
-1.96418e-06
1.68275e-09
2.84673e-08
-2.02037e-06
-1.97089e-06
-1.82223e-06
-1.5704e-06
-1.1923e-06
-6.35075e-07
-6.05196e-07
-1.15377e-06
-1.5267e-06
-1.77478e-06
-1.92148e-06
-1.9708e-06
-1.92162e-06
-1.77209e-06
-1.5178e-06
-1.13652e-06
-5.87707e-07
-5.04498e-07
-1.01728e-06
-1.38173e-06
-1.62657e-06
-1.77184e-06
-1.82207e-06
-1.77483e-06
-1.62675e-06
-1.37276e-06
-9.92408e-07
-4.76777e-07
-3.54573e-07
-7.86577e-07
-1.13156e-06
-1.37255e-06
-1.5176e-06
-1.57029e-06
-1.52669e-06
-1.38175e-06
-1.13156e-06
-7.63055e-07
-3.26446e-07
-1.81584e-07
-4.6956e-07
-2.2587e-08
-7.6341e-07
-2.26343e-08
-9.92638e-07
-1.43414e-08
-1.13662e-06
-4.16082e-09
-1.1924e-06
-1.15394e-06
-1.01734e-06
-7.86475e-07
-4.69355e-07
-1.71151e-07
-5.57398e-08
-6.61132e-08
-1.71267e-07
-6.60643e-08
-3.32037e-07
9.13706e-08
-4.81033e-07
-5.93187e-07
1.18168e-07
-6.35807e-07
-6.05511e-07
-5.04676e-07
-3.54608e-07
-1.81568e-07
-5.5721e-08
)
;
    }
}

