/*--------------------------------*- C++ -*----------------------------------*\
| =========                 |                                                 |
| \\      /  F ield         | OpenFOAM: The Open Source CFD Toolbox           |
|  \\    /   O peration     | Version:  2212                                  |
|   \\  /    A nd           | Website:  www.openfoam.com                      |
|    \\/     M anipulation  |                                                 |
\*---------------------------------------------------------------------------*/
FoamFile
{
    version     2.0;
    format      ascii;
    arch        "LSB;label=32;scalar=64";
    class       volScalarField;
    location    "2.65";
    object      epsilon;
}
// * * * * * * * * * * * * * * * * * * * * * * * * * * * * * * * * * * * * * //

dimensions      [0 2 -3 0 0 0 0];

internalField   nonuniform List<scalar> 
6840
(
90.5034
12.1248
4.38869
2.46659
1.63316
1.18307
0.902018
0.720671
0.594598
0.502515
0.432697
0.37931
0.336356
0.299949
0.270323
0.246353
0.226878
0.21142
0.201951
0.19428
58.5856
14.5696
6.08947
3.33296
2.08218
1.40268
0.998662
0.740299
0.565919
0.443947
0.356051
0.290971
0.241472
0.203086
0.173236
0.150032
0.13171
0.117255
0.106575
0.099483
45.0226
13.4729
5.73076
3.07323
1.86024
1.227
0.873588
0.649794
0.497033
0.389511
0.311329
0.253028
0.209049
0.175309
0.148956
0.128088
0.11143
0.0980476
0.0873552
0.0794291
38.7028
13.0541
5.74337
3.08734
1.88067
1.22751
0.869488
0.645397
0.492608
0.384801
0.307052
0.24908
0.205025
0.171049
0.144481
0.12345
0.106603
0.0929713
0.0818746
0.0732027
36.0571
12.8529
5.76645
3.10212
1.89476
1.22669
0.866506
0.643989
0.492258
0.383975
0.305811
0.247939
0.203946
0.169981
0.143377
0.122268
0.105303
0.0915126
0.0802859
0.0721314
36.0571
12.8529
5.76645
3.10211
1.89475
1.22669
0.866497
0.643978
0.492243
0.383955
0.305783
0.247902
0.203897
0.169915
0.143287
0.122135
0.105108
0.0912251
0.0798478
0.0712959
38.7028
13.0541
5.74336
3.08733
1.88066
1.22749
0.869466
0.64537
0.492574
0.384757
0.306989
0.248999
0.204917
0.170906
0.144282
0.12316
0.106176
0.0923393
0.0809842
0.0723325
45.0226
13.4729
5.73075
3.07322
1.86022
1.22699
0.873568
0.64977
0.497001
0.389457
0.311261
0.25294
0.208933
0.175155
0.148735
0.127765
0.11095
0.0973184
0.0862186
0.0777322
58.5856
14.5696
6.08947
3.33295
2.08218
1.40267
0.998656
0.740292
0.56591
0.443929
0.356024
0.290929
0.241406
0.202979
0.173078
0.149784
0.131288
0.116468
0.105066
0.0969117
90.5034
12.1248
4.38869
2.46659
1.63316
1.18307
0.902018
0.72067
0.594597
0.502516
0.432694
0.379313
0.336346
0.299955
0.270317
0.246346
0.22687
0.211411
0.201943
0.194258
58.5856
14.5696
6.08947
3.33295
2.08218
1.40267
0.998656
0.740292
0.565911
0.44393
0.356025
0.29093
0.24141
0.202971
0.173081
0.14979
0.131294
0.116474
0.105072
0.0969227
16.5373
9.49239
5.0127
2.8606
1.75746
1.14759
0.786931
0.562048
0.415366
0.315946
0.24633
0.19622
0.159216
0.131245
0.109752
0.0931736
0.0801243
0.0696343
0.0606191
0.0562527
13.6679
8.73671
5.07741
3.05388
1.92223
1.26609
0.869288
0.618629
0.453957
0.342031
0.263647
0.207307
0.165897
0.134839
0.111132
0.0926691
0.0781387
0.0666052
0.0571708
0.0497629
12.9054
8.33993
5.07879
3.15547
2.02774
1.3512
0.933536
0.666457
0.489543
0.368592
0.2836
0.222382
0.177321
0.14352
0.11774
0.0977522
0.0820563
0.0695816
0.0595496
0.0513675
12.6882
8.1544
5.07113
3.20038
2.07939
1.39506
0.967831
0.692723
0.509637
0.384016
0.295503
0.231647
0.184592
0.149262
0.122295
0.101385
0.0849635
0.0719095
0.0614253
0.0529682
12.6882
8.1544
5.07113
3.20038
2.07939
1.39506
0.967834
0.692726
0.509643
0.384023
0.295512
0.231657
0.184604
0.149273
0.122305
0.101404
0.0849888
0.0719389
0.0614548
0.0530002
12.9054
8.33993
5.07879
3.15547
2.02775
1.35121
0.933542
0.666464
0.489554
0.368606
0.283618
0.222403
0.177345
0.143543
0.117765
0.0977935
0.082109
0.0696431
0.0596139
0.0513604
13.6679
8.73671
5.07741
3.05388
1.92224
1.2661
0.869292
0.618633
0.453965
0.342042
0.26366
0.207324
0.165916
0.134855
0.111158
0.0927038
0.078179
0.0666463
0.057194
0.0501926
16.5373
9.49239
5.0127
2.8606
1.75746
1.14759
0.786931
0.562047
0.415366
0.315946
0.24633
0.19622
0.159216
0.131236
0.10976
0.0931766
0.0801259
0.0696354
0.0606199
0.0562568
58.5856
14.5696
6.08947
3.33296
2.08218
1.40268
0.998661
0.740298
0.565918
0.443946
0.35605
0.290969
0.241469
0.203089
0.173233
0.150026
0.131704
0.117247
0.106563
0.0994667
45.0226
13.4729
5.73075
3.07322
1.86022
1.22699
0.873568
0.64977
0.497001
0.389457
0.311261
0.25294
0.208931
0.175152
0.148739
0.127769
0.110953
0.0973207
0.086221
0.0777359
13.6679
8.73671
5.07741
3.05388
1.92224
1.2661
0.869292
0.618634
0.453965
0.342042
0.26366
0.207324
0.165917
0.134864
0.111149
0.0927011
0.0781785
0.0666477
0.0571909
0.050184
11.8601
7.76395
4.99734
3.24076
2.14419
1.45499
1.0141
0.725634
0.532156
0.399149
0.305546
0.238222
0.188824
0.151913
0.123869
0.102235
0.0853171
0.0719261
0.0611842
0.0526144
11.6229
7.60535
5.0103
3.34209
2.26848
1.57142
1.11236
0.804587
0.594203
0.447515
0.343208
0.26763
0.211895
0.170116
0.13832
0.113775
0.0945876
0.0794103
0.0672738
0.0574924
11.5726
7.56718
5.02065
3.38344
2.32103
1.62326
1.15828
0.843156
0.62569
0.472848
0.363482
0.283851
0.224903
0.180587
0.146789
0.120661
0.100216
0.0840342
0.0710911
0.0606085
11.5726
7.56718
5.02065
3.38344
2.32103
1.62326
1.15828
0.843156
0.625692
0.472851
0.363486
0.283855
0.224908
0.180589
0.14679
0.120667
0.100224
0.0840448
0.0711042
0.0606438
11.6229
7.60535
5.0103
3.34209
2.26848
1.57142
1.11236
0.804588
0.594206
0.44752
0.343214
0.267637
0.211901
0.17012
0.138326
0.113787
0.0946041
0.0794307
0.0672998
0.0575622
11.8601
7.76395
4.99734
3.24076
2.14419
1.45499
1.0141
0.725634
0.532155
0.399149
0.305546
0.238222
0.188824
0.151911
0.123871
0.102236
0.0853182
0.0719276
0.0611857
0.0526192
13.6679
8.73671
5.07741
3.05388
1.92223
1.26609
0.869288
0.618629
0.453957
0.342031
0.263647
0.207308
0.165898
0.134841
0.11113
0.0926689
0.0781393
0.0666062
0.0571717
0.0497655
45.0226
13.4729
5.73076
3.07323
1.86024
1.227
0.873588
0.649794
0.497033
0.38951
0.311328
0.253027
0.209047
0.175306
0.148956
0.128088
0.111429
0.0980454
0.087351
0.0794199
38.7028
13.0541
5.74336
3.08733
1.88066
1.22749
0.869466
0.645371
0.492574
0.384757
0.306989
0.248998
0.204915
0.170903
0.144285
0.123162
0.106177
0.0923398
0.0809835
0.0723288
12.9054
8.33993
5.07879
3.15547
2.02775
1.35121
0.933542
0.666464
0.489554
0.368606
0.283618
0.222404
0.177348
0.143549
0.117759
0.0977915
0.0821091
0.0696443
0.0596159
0.0513624
11.6229
7.60535
5.01031
3.34209
2.26848
1.57142
1.11236
0.804589
0.594206
0.44752
0.343214
0.267637
0.211903
0.170122
0.138323
0.113786
0.0946036
0.0794305
0.0672997
0.0575614
11.4933
7.5119
5.02843
3.434
2.3892
1.6928
1.22111
0.896487
0.669456
0.508122
0.391656
0.306285
0.242784
0.194886
0.158279
0.129952
0.107776
0.0902254
0.0761875
0.064808
11.4757
7.50136
5.04297
3.47002
2.43665
1.74299
1.26863
0.938712
0.705583
0.538335
0.416593
0.326728
0.259498
0.208556
0.169484
0.139167
0.115387
0.0965403
0.0814421
0.0691208
11.4757
7.50136
5.04297
3.47002
2.43665
1.74299
1.26863
0.938712
0.705584
0.538336
0.416594
0.326728
0.259499
0.208557
0.169483
0.139167
0.115388
0.0965414
0.0814421
0.0691033
11.4933
7.5119
5.02843
3.434
2.3892
1.6928
1.22111
0.896486
0.669456
0.508122
0.391656
0.306285
0.242784
0.194886
0.158279
0.129952
0.107776
0.0902263
0.0761889
0.0648095
11.6229
7.60535
5.0103
3.34209
2.26848
1.57142
1.11236
0.804587
0.594203
0.447515
0.343208
0.267631
0.211897
0.170117
0.138318
0.113775
0.0945885
0.0794119
0.0672758
0.0574949
12.9054
8.33993
5.07879
3.15547
2.02774
1.3512
0.933536
0.666457
0.489543
0.368592
0.283601
0.222383
0.177323
0.143526
0.117733
0.0977496
0.0820553
0.0695812
0.0595493
0.0513667
38.7028
13.0541
5.74337
3.08734
1.88067
1.22751
0.869488
0.645396
0.492607
0.3848
0.307051
0.249079
0.205022
0.171045
0.144483
0.123451
0.106604
0.0929719
0.0818744
0.0731977
36.0571
12.8529
5.76645
3.10211
1.89475
1.22669
0.866497
0.643978
0.492244
0.383955
0.305783
0.247902
0.203896
0.169914
0.143286
0.122134
0.105107
0.0912236
0.0798455
0.0712929
12.6882
8.1544
5.07113
3.20038
2.07939
1.39506
0.967834
0.692726
0.509643
0.384023
0.295512
0.231658
0.184605
0.149276
0.122305
0.101405
0.0849907
0.0719419
0.0614586
0.0530047
11.5726
7.56718
5.02065
3.38344
2.32103
1.62326
1.15828
0.843157
0.625692
0.472851
0.363486
0.283856
0.224909
0.180591
0.14679
0.120667
0.100226
0.0840466
0.0711063
0.0606455
11.4757
7.50136
5.04297
3.47002
2.43665
1.74299
1.26863
0.938712
0.705584
0.538336
0.416594
0.326729
0.259499
0.208557
0.169483
0.139168
0.115388
0.0965418
0.0814425
0.0691042
11.4647
7.49683
5.0577
3.50272
2.48038
1.79068
1.31522
0.981305
0.742925
0.57021
0.44335
0.348968
0.277888
0.223735
0.182018
0.149543
0.124005
0.103725
0.0874412
0.0740569
11.4647
7.49683
5.0577
3.50272
2.48038
1.79068
1.31522
0.981305
0.742924
0.57021
0.44335
0.348968
0.277888
0.223735
0.182018
0.149543
0.124005
0.103725
0.0874413
0.0740563
11.4757
7.50136
5.04297
3.47002
2.43665
1.74299
1.26863
0.938712
0.705583
0.538335
0.416593
0.326728
0.259499
0.208556
0.169483
0.139167
0.115387
0.096541
0.0814431
0.0691208
11.5726
7.56718
5.02065
3.38344
2.32103
1.62326
1.15828
0.843156
0.62569
0.472848
0.363483
0.283852
0.224905
0.180589
0.146786
0.12066
0.100216
0.0840354
0.0710927
0.0606113
12.6882
8.1544
5.07113
3.20038
2.07939
1.39506
0.967831
0.692723
0.509637
0.384016
0.295503
0.231647
0.184593
0.149268
0.122289
0.101383
0.0849622
0.0719086
0.0614244
0.0529672
36.0571
12.8529
5.76645
3.10212
1.89476
1.22669
0.866506
0.643989
0.492258
0.383975
0.30581
0.247938
0.203944
0.169977
0.14338
0.12227
0.105305
0.0915146
0.080288
0.0721336
36.0571
12.8529
5.76645
3.10212
1.89476
1.22669
0.866506
0.643989
0.492258
0.383975
0.305811
0.247939
0.203946
0.16998
0.143376
0.122267
0.105302
0.0915114
0.0802841
0.0721304
12.6882
8.1544
5.07113
3.20038
2.07939
1.39506
0.967831
0.692723
0.509638
0.384016
0.295504
0.231648
0.184592
0.149263
0.122295
0.101386
0.0849651
0.0719118
0.0614281
0.0529715
11.5726
7.56718
5.02065
3.38344
2.32103
1.62326
1.15828
0.843156
0.62569
0.472848
0.363483
0.283852
0.224904
0.180587
0.146789
0.120662
0.100217
0.084036
0.0710934
0.0606108
11.4757
7.50136
5.04297
3.47002
2.43665
1.74299
1.26863
0.938712
0.705584
0.538335
0.416593
0.326728
0.259498
0.208556
0.169484
0.139167
0.115387
0.0965409
0.0814432
0.0691218
11.4647
7.49683
5.0577
3.50272
2.48038
1.79068
1.31522
0.981305
0.742925
0.57021
0.44335
0.348968
0.277888
0.223735
0.182018
0.149543
0.124005
0.103725
0.0874411
0.0740566
11.4647
7.49683
5.0577
3.50272
2.48038
1.79068
1.31522
0.981305
0.742924
0.57021
0.44335
0.348968
0.277888
0.223735
0.182018
0.149543
0.124005
0.103725
0.0874411
0.0740554
11.4757
7.50136
5.04297
3.47002
2.43665
1.74299
1.26863
0.938712
0.705584
0.538336
0.416594
0.326728
0.259499
0.208556
0.169484
0.139167
0.115388
0.0965414
0.0814421
0.0691026
11.5726
7.56718
5.02065
3.38344
2.32103
1.62326
1.15828
0.843156
0.625692
0.472851
0.363486
0.283855
0.224907
0.18059
0.146791
0.120667
0.100225
0.0840449
0.0711041
0.0606428
12.6882
8.1544
5.07113
3.20038
2.07939
1.39506
0.967834
0.692726
0.509643
0.384023
0.295511
0.231657
0.184603
0.149276
0.122305
0.101404
0.0849886
0.0719386
0.0614545
0.0529998
36.0571
12.8529
5.76645
3.10211
1.89475
1.22669
0.866497
0.643978
0.492243
0.383955
0.305783
0.247902
0.203897
0.169914
0.143288
0.122136
0.105108
0.0912263
0.0798495
0.0712972
38.7028
13.0541
5.74337
3.08734
1.88067
1.22751
0.869488
0.645397
0.492608
0.384801
0.307052
0.24908
0.205025
0.171049
0.144481
0.12345
0.106603
0.0929714
0.0818752
0.0732057
12.9054
8.33993
5.07879
3.15547
2.02774
1.3512
0.933535
0.666457
0.489543
0.368592
0.2836
0.222382
0.177321
0.14352
0.11774
0.0977525
0.0820564
0.0695814
0.0595495
0.0513662
11.6229
7.60535
5.0103
3.34209
2.26848
1.57142
1.11236
0.804587
0.594203
0.447515
0.343208
0.26763
0.211895
0.170115
0.138321
0.113776
0.0945877
0.0794101
0.0672734
0.0574902
11.4933
7.5119
5.02843
3.434
2.3892
1.6928
1.22111
0.896487
0.669456
0.508122
0.391656
0.306285
0.242783
0.194886
0.158279
0.129952
0.107775
0.0902248
0.0761867
0.0648065
11.4757
7.50136
5.04297
3.47002
2.43665
1.74299
1.26863
0.938712
0.705584
0.538336
0.416594
0.326728
0.259499
0.208557
0.169483
0.139167
0.115388
0.0965411
0.0814415
0.0691022
11.4757
7.50136
5.04297
3.47002
2.43665
1.74299
1.26863
0.938712
0.705583
0.538335
0.416593
0.326728
0.259499
0.208557
0.169483
0.139167
0.115387
0.0965409
0.0814431
0.0691201
11.4933
7.5119
5.02843
3.434
2.3892
1.6928
1.22111
0.896487
0.669456
0.508122
0.391656
0.306285
0.242784
0.194886
0.158279
0.129952
0.107776
0.0902256
0.076188
0.0648079
11.6229
7.60535
5.0103
3.34209
2.26848
1.57142
1.11236
0.804589
0.594206
0.44752
0.343214
0.267637
0.211901
0.17012
0.138326
0.113787
0.0946029
0.0794291
0.0672976
0.0575588
12.9054
8.33993
5.07879
3.15547
2.02775
1.35121
0.933542
0.666465
0.489554
0.368606
0.283618
0.222403
0.177345
0.143542
0.117766
0.0977936
0.0821091
0.0696431
0.0596139
0.0513597
38.7028
13.0541
5.74336
3.08733
1.88066
1.22749
0.869467
0.64537
0.492574
0.384757
0.306989
0.248999
0.204917
0.170906
0.144283
0.12316
0.106177
0.0923403
0.0809854
0.0723318
45.0226
13.4729
5.73076
3.07323
1.86024
1.227
0.873588
0.649794
0.497033
0.389511
0.311329
0.253029
0.20905
0.17531
0.148957
0.128089
0.111431
0.0980501
0.0873586
0.0794354
13.6679
8.73671
5.07741
3.05388
1.92223
1.26609
0.869287
0.618629
0.453957
0.342031
0.263646
0.207307
0.165896
0.134838
0.111132
0.0926681
0.0781362
0.0666006
0.0571701
0.0497556
11.8601
7.76395
4.99734
3.24076
2.14419
1.45499
1.0141
0.725634
0.532155
0.399149
0.305545
0.238221
0.188823
0.151912
0.123869
0.102234
0.0853148
0.0719229
0.0611793
0.052605
11.6229
7.60535
5.0103
3.34209
2.26848
1.57142
1.11236
0.804588
0.594206
0.447519
0.343213
0.267637
0.211902
0.170121
0.138322
0.113785
0.0946017
0.0794279
0.0672961
0.0575571
11.5726
7.56718
5.02065
3.38344
2.32103
1.62326
1.15828
0.843156
0.625692
0.472851
0.363486
0.283856
0.224908
0.180591
0.14679
0.120666
0.100224
0.0840452
0.0711046
0.0606436
11.5726
7.56718
5.02065
3.38344
2.32103
1.62326
1.15828
0.843155
0.62569
0.472848
0.363483
0.283852
0.224904
0.180588
0.146789
0.120661
0.100217
0.0840362
0.0710938
0.0606109
11.6229
7.60535
5.0103
3.34209
2.26848
1.57142
1.11236
0.804587
0.594202
0.447515
0.343208
0.267631
0.211897
0.170118
0.138318
0.113775
0.094588
0.0794112
0.0672751
0.0574932
11.8601
7.76395
4.99734
3.24076
2.14419
1.45499
1.0141
0.725634
0.532155
0.399149
0.305545
0.238221
0.188824
0.151912
0.12387
0.102235
0.0853162
0.0719249
0.0611825
0.0526108
13.6679
8.73671
5.07741
3.05388
1.92224
1.2661
0.869291
0.618635
0.453965
0.342042
0.26366
0.207324
0.165916
0.134855
0.111157
0.0927037
0.0781789
0.0666462
0.0571936
0.0501791
45.0226
13.4729
5.73075
3.07322
1.86022
1.22699
0.873569
0.64977
0.497
0.389457
0.311261
0.25294
0.208934
0.175156
0.148736
0.127766
0.110951
0.0973197
0.0862201
0.0777347
58.5856
14.5696
6.08947
3.33296
2.08218
1.40268
0.998662
0.740299
0.565919
0.443947
0.356052
0.290972
0.241473
0.203088
0.173237
0.150034
0.131714
0.117261
0.106582
0.0994922
16.5373
9.49239
5.0127
2.8606
1.75746
1.14759
0.786931
0.562048
0.415366
0.315946
0.24633
0.196219
0.159215
0.131244
0.109752
0.0931725
0.0801226
0.0696324
0.0606152
0.0562454
13.6679
8.73671
5.07741
3.05388
1.92224
1.2661
0.869292
0.618633
0.453965
0.342042
0.26366
0.207324
0.165917
0.134863
0.111149
0.0927003
0.0781776
0.0666466
0.0571894
0.0501837
12.9054
8.33993
5.07879
3.15547
2.02775
1.35121
0.933542
0.666464
0.489554
0.368606
0.283618
0.222404
0.177348
0.143549
0.117758
0.0977912
0.0821089
0.0696442
0.0596157
0.0513625
12.6882
8.1544
5.07113
3.20038
2.07939
1.39506
0.967835
0.692726
0.509643
0.384023
0.295512
0.231658
0.184605
0.149277
0.122305
0.101405
0.0849909
0.0719421
0.061459
0.0530049
12.6882
8.1544
5.07113
3.20038
2.07939
1.39506
0.967832
0.692722
0.509637
0.384016
0.295504
0.231648
0.184593
0.149264
0.122295
0.101386
0.0849652
0.0719117
0.061428
0.0529709
12.9054
8.33993
5.07879
3.15547
2.02774
1.3512
0.933536
0.666456
0.489543
0.368592
0.2836
0.222382
0.177323
0.143527
0.117734
0.0977497
0.082055
0.0695806
0.0595488
0.0513656
13.6679
8.73671
5.07741
3.05388
1.92223
1.26609
0.869287
0.618628
0.453957
0.342031
0.263646
0.207307
0.165896
0.134841
0.111129
0.0926664
0.0781355
0.0666003
0.0571698
0.049755
16.5373
9.49239
5.0127
2.8606
1.75746
1.14759
0.78693
0.562048
0.415366
0.315946
0.24633
0.19622
0.159216
0.131236
0.109759
0.0931758
0.0801247
0.0696341
0.0606168
0.0562453
58.5856
14.5696
6.08947
3.33295
2.08218
1.40267
0.998658
0.740292
0.56591
0.44393
0.356025
0.290931
0.241408
0.202981
0.173081
0.149787
0.131292
0.116474
0.105075
0.0969255
90.5034
12.1248
4.38869
2.46659
1.63316
1.18307
0.902018
0.720671
0.594598
0.502516
0.432697
0.379311
0.336356
0.299951
0.270325
0.246355
0.226881
0.211426
0.201959
0.194287
58.5856
14.5696
6.08947
3.33295
2.08218
1.40267
0.998656
0.740292
0.565911
0.44393
0.356025
0.290931
0.241411
0.202973
0.173084
0.149793
0.131297
0.116479
0.105079
0.0969314
45.0226
13.4729
5.73075
3.07322
1.86022
1.22699
0.873568
0.64977
0.497001
0.389458
0.311262
0.25294
0.208932
0.175152
0.14874
0.12777
0.110954
0.0973213
0.0862216
0.0777369
38.7028
13.0541
5.74336
3.08733
1.88066
1.22749
0.869466
0.645371
0.492574
0.384757
0.30699
0.248998
0.204915
0.170903
0.144285
0.123162
0.106177
0.0923394
0.0809829
0.0723278
36.0571
12.8529
5.76645
3.10211
1.89475
1.22669
0.866496
0.643978
0.492244
0.383955
0.305783
0.247902
0.203896
0.169913
0.143286
0.122134
0.105106
0.0912233
0.0798454
0.0712927
36.0571
12.8529
5.76645
3.10212
1.89476
1.22669
0.866505
0.64399
0.492259
0.383976
0.305811
0.247939
0.203946
0.169979
0.143375
0.122267
0.105302
0.0915119
0.080285
0.0721316
38.7028
13.0541
5.74337
3.08734
1.88067
1.22751
0.869488
0.645397
0.492608
0.384801
0.307052
0.24908
0.205023
0.171045
0.144484
0.123452
0.106605
0.0929737
0.0818774
0.0732069
45.0226
13.4729
5.73076
3.07323
1.86024
1.227
0.873588
0.649795
0.497034
0.389512
0.31133
0.253029
0.209049
0.175308
0.148959
0.128092
0.111434
0.0980522
0.0873603
0.0794355
58.5856
14.5696
6.08947
3.33296
2.08218
1.40268
0.998663
0.740298
0.565919
0.443947
0.356052
0.290972
0.241472
0.203092
0.173237
0.150032
0.131712
0.117259
0.10658
0.0994912
90.5034
12.1248
4.38869
2.46659
1.63316
1.18307
0.902019
0.720671
0.594597
0.502516
0.432695
0.379314
0.336349
0.299959
0.270322
0.246352
0.226878
0.211424
0.201963
0.194294
0.35126
0.280157
0.222503
0.19086
0.17258
0.161048
0.152743
0.146098
0.140585
0.135899
0.131756
0.128003
0.1244
0.120968
0.117641
0.114667
0.111773
0.109158
0.106693
0.104339
0.102164
0.100154
0.0983123
0.096602
0.0948647
0.0932291
0.091627
0.0900984
0.0885787
0.0871745
0.0857306
0.0843662
0.0830384
0.081722
0.0804953
0.0792792
0.0781308
0.0769797
0.0759953
0.0742894
0.116177
0.0987839
0.0853864
0.0762611
0.0701354
0.0654823
0.0618917
0.0589629
0.0564469
0.0542146
0.0521481
0.0503148
0.0486111
0.0469981
0.0454406
0.0440492
0.0427475
0.041564
0.0404738
0.039445
0.0384833
0.0375902
0.0367859
0.036059
0.0353635
0.0346871
0.0340369
0.0334114
0.0328054
0.0322272
0.0316583
0.0311044
0.0305683
0.030057
0.029563
0.0290916
0.0286349
0.0281906
0.0277695
0.027295
0.0778507
0.0699677
0.0633437
0.0582486
0.0536542
0.0497831
0.0465646
0.0438649
0.041557
0.0395497
0.0377835
0.0362019
0.0348056
0.0334725
0.0322267
0.0311309
0.0301148
0.0291976
0.0283396
0.0275303
0.0267287
0.0259508
0.0252521
0.0246256
0.0240581
0.0235075
0.0229818
0.0224812
0.0220021
0.0215475
0.0211051
0.0206844
0.0202806
0.0198984
0.0195341
0.0191895
0.0188586
0.0185411
0.0182393
0.0179286
0.075434
0.063013
0.0560551
0.0509371
0.0467838
0.0433183
0.0403626
0.0378115
0.0355815
0.0336128
0.0318607
0.0302944
0.0288927
0.0276234
0.0264853
0.0254471
0.0244957
0.0236373
0.0228325
0.0220144
0.0212781
0.0206144
0.0199872
0.0194054
0.0188628
0.0183549
0.0178839
0.0174374
0.0170126
0.0166205
0.0162318
0.0158644
0.0155118
0.0151911
0.0148825
0.0145979
0.0143177
0.0140558
0.0138036
0.0135457
0.0719115
0.0610494
0.053936
0.0485642
0.0442749
0.0407544
0.0377939
0.0352471
0.0330145
0.0310394
0.0292808
0.0277074
0.026295
0.0250291
0.0238839
0.0228448
0.0219054
0.021053
0.0202663
0.0195455
0.0188773
0.0182877
0.0176619
0.0170969
0.0165749
0.0160922
0.0156419
0.015223
0.0148279
0.0144699
0.0141179
0.0137839
0.0134702
0.0131802
0.0128945
0.0126328
0.0123782
0.0121403
0.0119174
0.0117089
0.0693907
0.0600284
0.0532939
0.0480163
0.0437184
0.0401317
0.0370917
0.0344808
0.032187
0.0301506
0.0283396
0.026723
0.0252665
0.0239773
0.0228157
0.0217664
0.0208166
0.0199569
0.019178
0.0184757
0.0178329
0.0172447
0.0166957
0.0162239
0.0157066
0.0152044
0.0147508
0.0143432
0.0139655
0.0136301
0.0133084
0.0130116
0.0127044
0.0124354
0.0121329
0.0119047
0.0116608
0.0114483
0.0112403
0.0110448
0.0673242
0.0603364
0.0543257
0.0492017
0.0448116
0.0410473
0.0378045
0.0350042
0.0325555
0.0304078
0.0285221
0.0268587
0.0253815
0.0240829
0.0229193
0.021872
0.0209288
0.0200761
0.019303
0.0186057
0.017978
0.0173938
0.0168503
0.0163338
0.0158365
0.0153528
0.0149135
0.0145237
0.01415
0.0138174
0.0134963
0.0132019
0.0128913
0.0126218
0.0123551
0.0121256
0.0118978
0.0116751
0.0114607
0.0112578
0.077231
0.0677065
0.0599219
0.0535165
0.0481717
0.0438165
0.0401166
0.0369986
0.0343701
0.0321278
0.0302005
0.0285149
0.0270274
0.0257115
0.024534
0.0234693
0.0225218
0.0216628
0.0208812
0.0201652
0.0195278
0.0188894
0.0182726
0.01776
0.0172679
0.016816
0.0163865
0.0159952
0.0155923
0.0152263
0.0148912
0.0145874
0.0142955
0.0140131
0.0137411
0.0134792
0.0132271
0.0129789
0.0127403
0.0125103
0.097938
0.0821868
0.07028
0.0612046
0.054018
0.0489458
0.0450456
0.0418712
0.0392508
0.0370051
0.0350508
0.0333409
0.0318268
0.0304923
0.0292447
0.0280388
0.0269967
0.026039
0.0251835
0.0243767
0.0236554
0.0229412
0.0223029
0.021741
0.0212019
0.0207029
0.0202287
0.0197876
0.0193664
0.0189885
0.0186239
0.0182743
0.0179356
0.0176118
0.0172999
0.0169971
0.0167047
0.0164145
0.0161354
0.0158559
0.139283
0.115925
0.0959739
0.0817213
0.0717956
0.0652078
0.0606639
0.0571822
0.0543461
0.0519166
0.049652
0.0477507
0.0458924
0.0441909
0.0425827
0.0411051
0.039753
0.0385065
0.0373826
0.0363339
0.0353842
0.0345439
0.0337828
0.0331118
0.0324465
0.0318145
0.0312107
0.0306365
0.0300838
0.0295764
0.029068
0.0285725
0.0280937
0.0276293
0.0271716
0.0267314
0.026318
0.0259155
0.0255346
0.0251076
0.351306
0.280151
0.222529
0.190877
0.172082
0.160538
0.152338
0.145805
0.14044
0.135936
0.131858
0.128254
0.124618
0.12121
0.117941
0.114935
0.11207
0.109427
0.106953
0.104607
0.102381
0.100366
0.098474
0.0967713
0.0950132
0.0933984
0.0917938
0.0902735
0.0887547
0.0873454
0.0858966
0.0845333
0.0831958
0.0818788
0.0806044
0.0793672
0.078279
0.0771306
0.076159
0.0744377
0.139319
0.115883
0.0958836
0.0815995
0.0718856
0.0654068
0.0608221
0.0573002
0.0544102
0.0519088
0.0496331
0.0476417
0.0457754
0.0440817
0.0424384
0.04098
0.0396028
0.0383729
0.0372454
0.036206
0.0352707
0.034444
0.0336955
0.0330342
0.0323756
0.0317442
0.0311411
0.0305675
0.0300146
0.0295106
0.0290033
0.0285083
0.0280278
0.027568
0.027129
0.0266978
0.0262742
0.0258606
0.0254738
0.0250435
0.0642674
0.0533093
0.046794
0.0413438
0.0368999
0.0337503
0.0314989
0.0293856
0.0275109
0.0258831
0.0244908
0.0232102
0.0221123
0.0210052
0.0201896
0.0191986
0.0184596
0.0176468
0.0169788
0.0163328
0.0157266
0.0151651
0.0146202
0.0141466
0.0137397
0.0133581
0.0130085
0.0126391
0.0123755
0.0119722
0.0117141
0.0114756
0.0112151
0.0110404
0.0106158
0.0104935
0.0103386
0.0101655
0.0100118
0.00983565
0.054364
0.0432676
0.0374319
0.0325944
0.0293882
0.0266915
0.024422
0.0224825
0.0208242
0.0193851
0.0181478
0.0168926
0.0161059
0.0149363
0.0143285
0.0134173
0.0129244
0.0121973
0.0117729
0.0112079
0.0107632
0.0104064
0.0099047
0.00964021
0.00922134
0.00896602
0.00867894
0.00836011
0.00815083
0.00787173
0.00767819
0.00746896
0.0073129
0.00706474
0.00688449
0.00671079
0.00660362
0.00640997
0.00626019
0.00603088
0.0499064
0.0418847
0.0360659
0.0314336
0.0278179
0.024938
0.0226878
0.0207356
0.0190446
0.017571
0.0162799
0.015133
0.0141061
0.013221
0.0124316
0.0117189
0.0110919
0.0105288
0.00998838
0.00957123
0.00903409
0.00872638
0.0082379
0.00803136
0.00761863
0.00741182
0.00707705
0.00690057
0.00662244
0.00646886
0.00624473
0.00606274
0.00594199
0.00570805
0.00557819
0.00548812
0.00538234
0.00519478
0.00508023
0.00485501
0.0459722
0.0403568
0.0354839
0.0313522
0.0278729
0.0247595
0.0221365
0.020057
0.0184004
0.0169258
0.015619
0.014458
0.0134212
0.0125153
0.011709
0.0109883
0.0103426
0.00976247
0.00923861
0.00876556
0.00833635
0.00794707
0.00759788
0.00727261
0.00698546
0.00669001
0.00645136
0.00618645
0.0059775
0.00579924
0.00562519
0.00542967
0.00531752
0.00510346
0.00498619
0.00491434
0.0048028
0.00464788
0.00452687
0.00432664
0.0457488
0.0402095
0.0353823
0.0312651
0.0277755
0.0247853
0.0221316
0.0197782
0.0180302
0.0166143
0.0153268
0.0141702
0.0131412
0.0122198
0.0114025
0.0106747
0.0100242
0.00944094
0.00891665
0.00844407
0.00801743
0.00763181
0.00728856
0.00698146
0.00667862
0.00639963
0.00615184
0.0059076
0.00570066
0.00551826
0.00533738
0.00518493
0.00504472
0.00487974
0.00474715
0.00466837
0.00454586
0.00442651
0.00424745
0.00410097
0.0461755
0.0403467
0.0353571
0.0311308
0.0275832
0.0245392
0.0218289
0.0195763
0.0179352
0.0165133
0.0152314
0.0140849
0.0130657
0.0121674
0.0113668
0.0106509
0.0100093
0.00943303
0.0089134
0.00844495
0.00802122
0.00763783
0.00729573
0.00698671
0.00669893
0.00641611
0.00618756
0.00589382
0.00571211
0.00546242
0.0053223
0.00517711
0.00503536
0.00484144
0.00470907
0.00462682
0.00450471
0.00437898
0.00421991
0.00405945
0.0454597
0.0400694
0.0350329
0.0307412
0.0272221
0.0240246
0.021646
0.0198586
0.0182582
0.016842
0.0155905
0.0144756
0.0134872
0.0126303
0.0118581
0.0111599
0.0105246
0.00995484
0.00942581
0.00895686
0.0085252
0.00813611
0.00780661
0.00740443
0.00716837
0.00679646
0.00661322
0.0062949
0.0061179
0.0058413
0.00570723
0.00554595
0.00540566
0.00515379
0.00501323
0.00486204
0.00476294
0.00463941
0.00449085
0.00430393
0.0508035
0.0417226
0.0364471
0.0314569
0.0280514
0.025559
0.0234001
0.0215453
0.019921
0.0185063
0.0172619
0.0161552
0.0151991
0.014325
0.0135347
0.0128539
0.0121045
0.0116113
0.0108997
0.0105189
0.00994127
0.00961386
0.00910747
0.00881794
0.00849227
0.00812897
0.00792486
0.0075758
0.00739602
0.00706816
0.00690283
0.0067129
0.00655314
0.00629732
0.00613734
0.00599854
0.00576905
0.00565703
0.00549935
0.00533019
0.0641935
0.053362
0.0467729
0.0415562
0.0372636
0.0340672
0.0314018
0.0292911
0.0273327
0.025735
0.0243542
0.0230529
0.0220617
0.0209799
0.0201084
0.019184
0.0183889
0.0176187
0.0169471
0.0163052
0.0157258
0.0151387
0.0146442
0.0141249
0.0137515
0.0133402
0.0130212
0.0126406
0.0123745
0.0119717
0.0117095
0.0114686
0.011221
0.0109722
0.0107305
0.0106117
0.0101856
0.0100951
0.00996412
0.00979159
0.116185
0.0987665
0.0854335
0.0761763
0.0697832
0.0651711
0.061676
0.0588155
0.0563448
0.0541792
0.0521205
0.0503854
0.048666
0.047072
0.0455258
0.0441296
0.0428286
0.0416463
0.0405447
0.0395236
0.0385491
0.0376558
0.0368399
0.0361126
0.0354135
0.0347386
0.0340911
0.0334668
0.0328612
0.0322838
0.0317143
0.03116
0.0306248
0.0301098
0.0296118
0.0291352
0.0286792
0.0282424
0.0278233
0.0273493
0.0979389
0.0821248
0.0702154
0.0611096
0.0539189
0.0488527
0.045021
0.041878
0.0392401
0.0369819
0.0350209
0.0333007
0.0317797
0.0304515
0.0291631
0.0279856
0.0269154
0.0259839
0.0251095
0.0243113
0.0235937
0.0228701
0.0222397
0.0216793
0.0211487
0.0206514
0.0201793
0.0197395
0.0193201
0.0189458
0.0185829
0.0182346
0.0178967
0.0175743
0.0172622
0.0169675
0.0166792
0.0163905
0.0161116
0.015832
0.0507893
0.0418735
0.0366667
0.0313335
0.0280422
0.0255784
0.0234433
0.021592
0.0199711
0.0185539
0.0173238
0.016194
0.0152507
0.0143105
0.0136283
0.0127798
0.0122516
0.0114611
0.0110374
0.0104234
0.00999277
0.0096488
0.00911905
0.00886408
0.0084332
0.00815479
0.00793105
0.00758189
0.007401
0.00706955
0.00690849
0.00671933
0.00656299
0.00631225
0.00616504
0.00593912
0.00581721
0.00566299
0.00550759
0.00535754
0.0457519
0.0395513
0.034445
0.0300837
0.0265606
0.0236697
0.021255
0.0192162
0.0174765
0.015977
0.014678
0.013542
0.0125223
0.011627
0.0108522
0.0101146
0.00948298
0.00882954
0.00836152
0.00793383
0.00753895
0.00718102
0.00678394
0.00650158
0.00618079
0.00587395
0.00567131
0.00539346
0.00521258
0.00500535
0.00486682
0.00470594
0.004591
0.00437906
0.00426111
0.0041973
0.00411053
0.00394406
0.00384659
0.00364477
0.0477987
0.0414094
0.0360657
0.0315865
0.0278396
0.0246975
0.0220544
0.0198058
0.0178793
0.0162179
0.0147771
0.0135207
0.0124111
0.0114401
0.0105795
0.00981414
0.00913085
0.00851191
0.00796034
0.00747232
0.00702538
0.00663868
0.00620258
0.00587048
0.00561421
0.00538048
0.00512368
0.0049203
0.00469436
0.00452085
0.00434081
0.00421813
0.00411127
0.00392891
0.0038112
0.00377584
0.00366827
0.00355818
0.00344379
0.00330586
0.0500841
0.0432591
0.0376371
0.0329589
0.0290346
0.0257079
0.0228806
0.0204742
0.0184249
0.0166595
0.0151283
0.0137926
0.01262
0.0115924
0.010684
0.00987814
0.00916066
0.00851897
0.00794381
0.00742691
0.00696068
0.00654521
0.00614586
0.00581821
0.00550531
0.00521579
0.00490476
0.00469764
0.0045326
0.00439203
0.00423233
0.00408516
0.00394858
0.00382732
0.00370733
0.00367444
0.00356079
0.00344639
0.00333292
0.00322414
0.0503283
0.0437272
0.0381488
0.0334419
0.0294637
0.0260841
0.0231958
0.0207182
0.0186066
0.0167994
0.0152368
0.0138754
0.0126809
0.0116358
0.0107122
0.0098933
0.00916437
0.00851284
0.00792963
0.00740656
0.00693567
0.00651454
0.00611829
0.0057924
0.00547566
0.00518162
0.00491742
0.00466712
0.00442807
0.00433109
0.00418108
0.00403983
0.00390558
0.00378694
0.00367067
0.00364891
0.00353294
0.00341732
0.00330164
0.00318887
0.049362
0.0429535
0.0375097
0.0328894
0.0289701
0.025636
0.0227906
0.020363
0.0182976
0.0165259
0.0149964
0.0136673
0.0124975
0.0114813
0.0105824
0.00978423
0.00907411
0.00843829
0.00786872
0.00735722
0.00689655
0.00648238
0.0060944
0.00576839
0.00545152
0.00516587
0.0049088
0.00463407