/*--------------------------------*- C++ -*----------------------------------*\
| =========                 |                                                 |
| \\      /  F ield         | OpenFOAM: The Open Source CFD Toolbox           |
|  \\    /   O peration     | Version:  2212                                  |
|   \\  /    A nd           | Website:  www.openfoam.com                      |
|    \\/     M anipulation  |                                                 |
\*---------------------------------------------------------------------------*/
FoamFile
{
    version     2.0;
    format      ascii;
    arch        "LSB;label=32;scalar=64";
    class       volScalarField;
    location    "2.65";
    object      nut;
}
// * * * * * * * * * * * * * * * * * * * * * * * * * * * * * * * * * * * * * //

dimensions      [0 2 -1 0 0 0 0];

internalField   nonuniform List<scalar> 
6840
(
4.5356e-05
2.3208e-05
1.65396e-05
1.36493e-05
1.18966e-05
1.06844e-05
9.76077e-06
9.05713e-06
8.49477e-06
8.03141e-06
7.64068e-06
7.31247e-06
7.02515e-06
6.76155e-06
6.53057e-06
6.3307e-06
6.15807e-06
6.0124e-06
5.91424e-06
5.82198e-06
0.000107685
6.77183e-05
5.06311e-05
4.14159e-05
3.54049e-05
3.10367e-05
2.77138e-05
2.50818e-05
2.29336e-05
2.1151e-05
1.96512e-05
1.83724e-05
1.72649e-05
1.62967e-05
1.54551e-05
1.47312e-05
1.41047e-05
1.35676e-05
1.31378e-05
1.28312e-05
0.000160509
0.00010736
8.07409e-05
6.55976e-05
5.54897e-05
4.83027e-05
4.31312e-05
3.90794e-05
3.57398e-05
3.29507e-05
3.05796e-05
2.85375e-05
2.6778e-05
2.52524e-05
2.39183e-05
2.27452e-05
2.1714e-05
2.08089e-05
2.00272e-05
1.94093e-05
0.000198681
0.0001383
0.000105187
8.5527e-05
7.25013e-05
6.28903e-05
5.60613e-05
5.07596e-05
4.63885e-05
4.27225e-05
3.96264e-05
3.6957e-05
3.46358e-05
3.26067e-05
3.08238e-05
2.92508e-05
2.78571e-05
2.66187e-05
2.55167e-05
2.45455e-05
0.000218609
0.000155003
0.000118661
9.65069e-05
8.18824e-05
7.08356e-05
6.30856e-05
5.71434e-05
5.22483e-05
4.80961e-05
4.45824e-05
4.15717e-05
3.89519e-05
3.6658e-05
3.46376e-05
3.28492e-05
3.12576e-05
2.9835e-05
2.85701e-05
2.75702e-05
0.000218609
0.000155003
0.000118661
9.65068e-05
8.18823e-05
7.08354e-05
6.30853e-05
5.7143e-05
5.22476e-05
4.80951e-05
4.45806e-05
4.15691e-05
3.89478e-05
3.66518e-05
3.4628e-05
3.2834e-05
3.12334e-05
2.97973e-05
2.85135e-05
2.75024e-05
0.000198681
0.0001383
0.000105187
8.55268e-05
7.25011e-05
6.28899e-05
5.60607e-05
5.07587e-05
4.63871e-05
4.27204e-05
3.96229e-05
3.69517e-05
3.46278e-05
3.25944e-05
3.08048e-05
2.92204e-05
2.78084e-05
2.65404e-05
2.54018e-05
2.45103e-05
0.000160509
0.00010736
8.07408e-05
6.55975e-05
5.54895e-05
4.83024e-05
4.31308e-05
3.90788e-05
3.57387e-05
3.29487e-05
3.05767e-05
2.85331e-05
2.67714e-05
2.52423e-05
2.39021e-05
2.27193e-05
2.16717e-05
2.07394e-05
1.99147e-05
1.92523e-05
0.000107685
6.77183e-05
5.06311e-05
4.14159e-05
3.54049e-05
3.10367e-05
2.77137e-05
2.50817e-05
2.29335e-05
2.11506e-05
1.96506e-05
1.83712e-05
1.72629e-05
1.62926e-05
1.54486e-05
1.472e-05
1.40838e-05
1.35255e-05
1.30523e-05
1.26693e-05
4.5356e-05
2.3208e-05
1.65396e-05
1.36493e-05
1.18966e-05
1.06844e-05
9.76077e-06
9.05713e-06
8.49476e-06
8.03141e-06
7.64066e-06
7.31251e-06
7.02507e-06
6.7616e-06
6.53053e-06
6.33064e-06
6.15801e-06
6.01232e-06
5.91418e-06
5.8218e-06
0.000107685
6.77183e-05
5.06311e-05
4.14159e-05
3.54049e-05
3.10367e-05
2.77137e-05
2.50817e-05
2.29335e-05
2.11506e-05
1.96506e-05
1.83712e-05
1.72629e-05
1.62924e-05
1.54486e-05
1.47201e-05
1.4084e-05
1.35256e-05
1.30525e-05
1.26696e-05
0.000528907
0.000369984
0.000305097
0.000261371
0.000228528
0.000202476
0.000181115
0.000163075
0.000147541
0.000133986
0.000122052
0.000111471
0.00010214
9.38674e-05
8.64876e-05
7.96957e-05
7.35124e-05
6.79568e-05
6.3785e-05
5.55352e-05
0.000663952
0.000488459
0.000404619
0.000347249
0.000305037
0.00027213
0.000245322
0.000222895
0.000203766
0.000187194
0.000172677
0.000159848
0.000148423
0.000138191
0.000128985
0.000120809
0.000113474
0.000106811
0.000101139
9.56315e-05
0.00071288
0.000556432
0.000466397
0.000402356
0.000354427
0.000317053
0.000286679
0.00026126
0.00023959
0.000220858
0.000204463
0.000189979
0.000177087
0.000165527
0.000155091
0.00014567
0.000137113
0.000129304
0.000122159
0.000115686
0.000728543
0.000588231
0.000496002
0.000429132
0.00037851
0.000338935
0.000306818
0.000279972
0.000257071
0.000237253
0.000219903
0.000204565
0.000190895
0.000178619
0.000167516
0.000157452
0.000148251
0.000139778
0.000131892
0.000124328
0.000728543
0.000588231
0.000496001
0.000429131
0.000378508
0.000338932
0.000306814
0.000279966
0.000257061
0.000237236
0.000219878
0.000204527
0.000190837
0.000178538
0.000167402
0.000157265
0.000147964
0.00013935
0.000131266
0.000123101
0.00071288
0.000556432
0.000466396
0.000402354
0.000354424
0.000317047
0.00028667
0.000261248
0.000239569
0.000220825
0.000204411
0.0001899
0.000176971
0.000165365
0.000154853
0.000145291
0.000136531
0.000128429
0.000120882
0.000113985
0.000663952
0.000488458
0.000404619
0.000347247
0.000305035
0.000272126
0.000245316
0.000222886
0.00020375
0.00018717
0.000172639
0.00015979
0.000148338
0.000138076
0.000128806
0.000120531
0.000113053
0.000106176
0.000100227
9.34902e-05
0.000528907
0.000369984
0.000305097
0.000261371
0.000228528
0.000202476
0.000181115
0.000163075
0.000147541
0.000133986
0.000122052
0.00011147
0.000102139
9.38764e-05
8.6479e-05
7.96894e-05
7.35066e-05
6.79508e-05
6.37777e-05
5.55218e-05
0.000107685
6.77183e-05
5.06311e-05
4.14159e-05
3.54049e-05
3.10367e-05
2.77138e-05
2.50818e-05
2.29336e-05
2.1151e-05
1.96512e-05
1.83724e-05
1.72649e-05
1.62968e-05
1.5455e-05
1.4731e-05
1.41044e-05
1.35673e-05
1.31374e-05
1.28305e-05
0.000160509
0.00010736
8.07408e-05
6.55975e-05
5.54895e-05
4.83024e-05
4.31308e-05
3.90788e-05
3.57387e-05
3.29487e-05
3.05767e-05
2.85331e-05
2.67713e-05
2.52422e-05
2.39022e-05
2.27194e-05
2.16718e-05
2.07396e-05
1.99149e-05
1.92525e-05
0.000663952
0.000488458
0.000404619
0.000347247
0.000305035
0.000272126
0.000245316
0.000222886
0.00020375
0.00018717
0.000172638
0.000159789
0.000148335
0.000138064
0.000128818
0.000120538
0.000113057
0.000106176
0.000100235
9.35101e-05
0.000786828
0.000662293
0.000567974
0.000495805
0.000439464
0.000394563
0.000357975
0.000327453
0.000301492
0.000279053
0.000259402
0.000242009
0.000226483
0.000212528
0.000199916
0.00018847
0.000178044
0.000168495
0.000159711
0.000150521
0.000809324
0.000713906
0.000631505
0.000562574
0.000505378
0.000457787
0.000417843
0.000383943
0.000354809
0.000329457
0.000307168
0.000287397
0.000269727
0.000253831
0.000239451
0.000226397
0.000214484
0.000203545
0.000193351
0.000183207
0.000814958
0.000730426
0.000654634
0.000589044
0.000533067
0.000485439
0.000444763
0.000409793
0.000379471
0.000352933
0.000329494
0.000308632
0.000289944
0.000273103
0.000257845
0.000243971
0.000231281
0.000219583
0.000208585
0.000197516
0.000814958
0.000730426
0.000654634
0.000589043
0.000533066
0.000485437
0.000444761
0.00040979
0.000379465
0.000352924
0.00032948
0.000308612
0.000289914
0.000273065
0.000257793
0.000243885
0.000231151
0.000219392
0.00020828
0.000196692
0.000809324
0.000713905
0.000631504
0.000562573
0.000505376
0.000457784
0.000417839
0.000383937
0.0003548
0.000329443
0.000307145
0.000287363
0.00026968
0.000253768
0.000239356
0.000226246
0.000214258
0.000203212
0.000192844
0.000182072
0.000786828
0.000662293
0.000567974
0.000495805
0.000439464
0.000394562
0.000357975
0.000327453
0.000301492
0.000279053
0.000259402
0.000242009
0.000226483
0.00021253
0.000199911
0.000188465
0.000178039
0.000168488
0.000159701
0.000150497
0.000663952
0.000488459
0.000404619
0.000347249
0.000305037
0.00027213
0.000245322
0.000222895
0.000203765
0.000187194
0.000172676
0.000159847
0.000148421
0.000138187
0.000128986
0.000120808
0.000113471
0.000106805
0.00010113
9.56139e-05
0.000160509
0.00010736
8.07409e-05
6.55976e-05
5.54897e-05
4.83027e-05
4.31312e-05
3.90794e-05
3.57397e-05
3.29507e-05
3.05796e-05
2.85375e-05
2.6778e-05
2.52522e-05
2.39182e-05
2.27452e-05
2.17139e-05
2.08087e-05
2.00268e-05
1.94087e-05
0.000198681
0.0001383
0.000105187
8.55268e-05
7.25011e-05
6.28899e-05
5.60607e-05
5.07587e-05
4.63871e-05
4.27204e-05
3.96229e-05
3.69517e-05
3.46277e-05
3.25943e-05
3.08049e-05
2.92205e-05
2.78084e-05
2.65404e-05
2.54018e-05
2.45117e-05
0.00071288
0.000556432
0.000466396
0.000402354
0.000354424
0.000317047
0.00028667
0.000261248
0.000239569
0.000220825
0.000204411
0.000189899
0.000176967
0.000165356
0.000154863
0.000145296
0.000136531
0.000128426
0.000120874
0.000113969
0.000809324
0.000713905
0.000631504
0.000562573
0.000505376
0.000457784
0.000417839
0.000383937
0.0003548
0.000329443
0.000307145
0.000287363
0.000269676
0.000253763
0.000239363
0.00022625
0.000214259
0.000203212
0.000192841
0.000182073
0.000823497
0.000753987
0.000688491
0.000628748
0.000575387
0.000528266
0.000486845
0.000450441
0.000418362
0.000389973
0.000364727
0.000342161
0.000321893
0.000303604
0.000287029
0.000271941
0.000258142
0.000245419
0.000233433
0.000221325
0.000826292
0.000764347
0.000706102
0.000651936
0.00060223
0.000557103
0.000516427
0.000479911
0.00044718
0.000417832
0.000391476
0.00036775
0.000346334
0.000326942
0.000309327
0.000293271
0.000278566
0.000264973
0.000252083
0.000238868
0.000826292
0.000764347
0.000706102
0.000651936
0.00060223
0.000557103
0.000516427
0.000479911
0.000447179
0.000417829
0.000391472
0.000367745
0.000346326
0.000326933
0.000309315
0.000293252
0.000278539
0.000264937
0.000252046
0.000238937
0.000823497
0.000753987
0.000688491
0.000628748
0.000575387
0.000528266
0.000486845
0.000450441
0.000418362
0.000389973
0.000364726
0.000342161
0.000321893
0.000303605
0.000287028
0.00027194
0.00025814
0.000245415
0.000233427
0.000221313
0.000809324
0.000713906
0.000631505
0.000562574
0.000505378
0.000457787
0.000417843
0.000383942
0.000354809
0.000329457
0.000307167
0.000287396
0.000269723
0.000253827
0.000239454
0.000226397
0.00021448
0.000203537
0.000193338
0.000183186
0.00071288
0.000556432
0.000466397
0.000402356
0.000354427
0.000317053
0.000286678
0.00026126
0.00023959
0.000220858
0.000204462
0.000189978
0.000177082
0.000165516
0.0001551
0.000145675
0.000137114
0.000129303
0.000122155
0.00011568
0.000198681
0.0001383
0.000105187
8.5527e-05
7.25013e-05
6.28903e-05
5.60613e-05
5.07596e-05
4.63885e-05
4.27225e-05
3.96263e-05
3.69569e-05
3.46356e-05
3.26064e-05
3.08239e-05
2.92508e-05
2.78572e-05
2.66187e-05
2.55165e-05
2.45441e-05
0.000218609
0.000155003
0.000118661
9.65068e-05
8.18823e-05
7.08354e-05
6.30853e-05
5.7143e-05
5.22476e-05
4.80951e-05
4.45806e-05
4.15691e-05
3.89478e-05
3.66517e-05
3.46279e-05
3.28339e-05
3.12333e-05
2.97971e-05
2.85131e-05
2.7502e-05
0.000728543
0.000588231
0.000496001
0.000429131
0.000378508
0.000338932
0.000306814
0.000279966
0.000257061
0.000237236
0.000219878
0.000204526
0.000190835
0.000178532
0.000167401
0.000157262
0.000147958
0.000139341
0.000131251
0.000123077
0.000814958
0.000730426
0.000654634
0.000589043
0.000533066
0.000485437
0.000444761
0.00040979
0.000379465
0.000352924
0.000329479
0.000308611
0.000289912
0.000273061
0.000257793
0.000243884
0.000231147
0.000219385
0.000208269
0.000196678
0.000826292
0.000764347
0.000706102
0.000651936
0.00060223
0.000557103
0.000516427
0.000479911
0.000447179
0.000417829
0.000391472
0.000367745
0.000346326
0.000326932
0.000309315
0.000293252
0.000278538
0.000264936
0.000252044
0.000238933
0.000828382
0.0007726
0.000721137
0.00067296
0.000627781
0.00058562
0.000546546
0.000510578
0.000477647
0.000447613
0.000420285
0.000395444
0.000372863
0.000352317
0.000333593
0.000316487
0.000300795
0.000286263
0.000272457
0.000258495
0.000828382
0.0007726
0.000721137
0.00067296
0.000627781
0.00058562
0.000546546
0.000510578
0.000477647
0.000447613
0.000420285
0.000395444
0.000372863
0.000352316
0.000333593
0.000316487
0.000300795
0.000286263
0.000272458
0.000258497
0.000826292
0.000764347
0.000706102
0.000651936
0.00060223
0.000557103
0.000516427
0.000479911
0.00044718
0.000417832
0.000391475
0.00036775
0.000346332
0.000326941
0.000309327
0.00029327
0.000278564
0.00026497
0.000252079
0.000238867
0.000814958
0.000730426
0.000654634
0.000589044
0.000533067
0.000485439
0.000444763
0.000409793
0.00037947
0.000352932
0.000329493
0.000308631
0.00028994
0.000273098
0.000257849
0.000243972
0.000231278
0.000219576
0.000208574
0.000197502
0.000728543
0.000588231
0.000496002
0.000429132
0.00037851
0.000338935
0.000306818
0.000279972
0.000257071
0.000237252
0.000219903
0.000204565
0.000190891
0.000178608
0.000167527
0.000157458
0.000148254
0.00013978
0.000131893
0.000124329
0.000218609
0.000155003
0.000118661
9.65069e-05
8.18824e-05
7.08356e-05
6.30856e-05
5.71434e-05
5.22483e-05
4.80961e-05
4.45824e-05
4.15717e-05
3.89518e-05
3.66577e-05
3.46378e-05
3.28494e-05
3.12578e-05
2.98352e-05
2.85703e-05
2.75701e-05
0.000218609
0.000155003
0.000118661
9.65069e-05
8.18824e-05
7.08356e-05
6.30856e-05
5.71434e-05
5.22483e-05
4.80961e-05
4.45824e-05
4.15717e-05
3.89519e-05
3.6658e-05
3.46376e-05
3.28491e-05
3.12575e-05
2.98349e-05
2.85699e-05
2.75702e-05
0.000728543
0.000588231
0.000496002
0.000429132
0.00037851
0.000338935
0.000306818
0.000279972
0.000257071
0.000237252
0.000219903
0.000204565
0.000190894
0.000178618
0.000167515
0.00015745
0.000148246
0.000139772
0.000131883
0.000124317
0.000814958
0.000730426
0.000654634
0.000589044
0.000533067
0.000485439
0.000444763
0.000409793
0.000379471
0.000352933
0.000329493
0.000308632
0.000289943
0.000273101
0.000257845
0.000243969
0.000231277
0.000219578
0.000208579
0.000197508
0.000826292
0.000764347
0.000706102
0.000651936
0.00060223
0.000557103
0.000516427
0.000479911
0.00044718
0.000417832
0.000391475
0.00036775
0.000346334
0.000326942
0.000309327
0.00029327
0.000278565
0.000264972
0.000252081
0.000238863
0.000828382
0.0007726
0.000721137
0.00067296
0.000627781
0.00058562
0.000546546
0.000510578
0.000477647
0.000447613
0.000420285
0.000395444
0.000372863
0.000352317
0.000333593
0.000316488
0.000300796
0.000286263
0.000272458
0.000258497
0.000828382
0.0007726
0.000721137
0.00067296
0.000627781
0.00058562
0.000546546
0.000510578
0.000477647
0.000447613
0.000420285
0.000395444
0.000372863
0.000352317
0.000333593
0.000316488
0.000300796
0.000286263
0.000272459
0.0002585
0.000826292
0.000764347
0.000706102
0.000651936
0.00060223
0.000557103
0.000516427
0.000479911
0.000447179
0.000417829
0.000391472
0.000367745
0.000346326
0.000326933
0.000309314
0.000293252
0.000278538
0.000264936
0.000252044
0.000238942
0.000814958
0.000730426
0.000654634
0.000589043
0.000533066
0.000485437
0.000444761
0.00040979
0.000379465
0.000352924
0.00032948
0.000308612
0.000289914
0.000273063
0.000257791
0.000243884
0.000231149
0.00021939
0.000208278
0.000196696
0.000728543
0.000588231
0.000496001
0.000429131
0.000378508
0.000338932
0.000306814
0.000279966
0.000257061
0.000237236
0.000219878
0.000204527
0.000190837
0.000178532
0.000167402
0.000157265
0.000147964
0.000139351
0.000131269
0.0001231
0.000218609
0.000155003
0.000118661
9.65068e-05
8.18823e-05
7.08354e-05
6.30853e-05
5.7143e-05
5.22476e-05
4.80951e-05
4.45806e-05
4.15691e-05
3.89478e-05
3.66516e-05
3.46282e-05
3.28341e-05
3.12336e-05
2.97974e-05
2.85137e-05
2.75027e-05
0.000198681
0.0001383
0.000105187
8.5527e-05
7.25013e-05
6.28903e-05
5.60613e-05
5.07596e-05
4.63885e-05
4.27225e-05
3.96264e-05
3.6957e-05
3.46358e-05
3.26067e-05
3.08238e-05
2.92508e-05
2.78571e-05
2.66187e-05
2.55168e-05
2.45464e-05
0.00071288
0.000556432
0.000466397
0.000402356
0.000354427
0.000317053
0.000286679
0.00026126
0.00023959
0.000220858
0.000204463
0.000189979
0.000177087
0.000165528
0.00015509
0.00014567
0.000137113
0.000129305
0.000122161
0.000115698
0.000809324
0.000713906
0.000631505
0.000562574
0.000505378
0.000457787
0.000417843
0.000383943
0.000354809
0.000329457
0.000307168
0.000287397
0.000269728
0.000253832
0.000239451
0.000226397
0.000214485
0.000203548
0.000193357
0.000183225
0.000823497
0.000753987
0.000688491
0.000628748
0.000575387
0.000528266
0.000486845
0.000450441
0.000418362
0.000389973
0.000364727
0.000342162
0.000321894
0.000303605
0.000287029
0.000271942
0.000258145
0.000245422
0.000233438
0.000221334
0.000826292
0.000764347
0.000706102
0.000651936
0.00060223
0.000557103
0.000516427
0.000479911
0.000447179
0.00041783
0.000391472
0.000367745
0.000346326
0.000326933
0.000309316
0.000293253
0.00027854
0.000264938
0.000252048
0.000238943
0.000826292
0.000764347
0.000706102
0.000651936
0.00060223
0.000557103
0.000516428
0.000479912
0.00044718
0.000417832
0.000391476
0.00036775
0.000346333
0.000326941
0.000309327
0.000293271
0.000278565
0.000264971
0.000252081
0.000238869
0.000823497
0.000753987
0.000688491
0.000628748
0.000575387
0.000528266
0.000486845
0.000450441
0.000418362
0.000389973
0.000364727
0.000342161
0.000321894
0.000303605
0.000287028
0.000271941
0.000258142
0.000245418
0.000233432
0.000221327
0.000809324
0.000713905
0.000631504
0.000562573
0.000505376
0.000457785
0.00041784
0.000383937
0.0003548
0.000329443
0.000307146
0.000287363
0.00026968
0.000253768
0.000239357
0.000226248
0.000214261
0.000203217
0.000192852
0.000182089
0.00071288
0.000556432
0.000466396
0.000402354
0.000354424
0.000317048
0.00028667
0.000261247
0.000239569
0.000220825
0.000204411
0.0001899
0.000176971
0.000165366
0.000154854
0.000145292
0.000136532
0.000128431
0.000120884
0.000113984
0.000198681
0.0001383
0.000105187
8.55268e-05
7.25011e-05
6.28899e-05
5.60607e-05
5.07587e-05
4.63871e-05
4.27204e-05
3.96229e-05
3.69518e-05
3.46278e-05
3.25945e-05
3.08049e-05
2.92205e-05
2.78085e-05
2.65406e-05
2.5402e-05
2.45123e-05
0.000160509
0.00010736
8.07409e-05
6.55976e-05
5.54897e-05
4.83027e-05
4.31312e-05
3.90794e-05
3.57398e-05
3.29507e-05
3.05796e-05
2.85375e-05
2.67781e-05
2.52524e-05
2.39183e-05
2.27453e-05
2.17141e-05
2.08091e-05
2.00275e-05
1.94097e-05
0.000663952
0.000488459
0.000404619
0.000347249
0.000305037
0.00027213
0.000245323
0.000222895
0.000203766
0.000187195
0.000172677
0.000159849
0.000148425
0.000138194
0.000128986
0.000120812
0.000113481
0.000106823
0.000101147
9.56592e-05
0.000786828
0.000662293
0.000567974
0.000495805
0.000439464
0.000394563
0.000357975
0.000327453
0.000301492
0.000279054
0.000259403
0.000242011
0.000226485
0.000212531
0.000199918
0.000188474
0.000178052
0.000168508
0.000159732
0.00015056
0.000809324
0.000713905
0.000631504
0.000562573
0.000505376
0.000457784
0.00041784
0.000383937
0.0003548
0.000329443
0.000307146
0.000287364
0.000269678
0.000253765
0.000239365
0.000226254
0.000214266
0.000203222
0.000192857
0.000182094
0.000814958
0.000730426
0.000654634
0.000589043
0.000533066
0.000485437
0.000444761
0.00040979
0.000379465
0.000352924
0.00032948
0.000308612
0.000289913
0.000273061
0.000257794
0.000243886
0.000231151
0.00021939
0.000208276
0.000196687
0.000814958
0.000730426
0.000654634
0.000589044
0.000533067
0.000485438
0.000444763
0.000409794
0.000379471
0.000352933
0.000329493
0.000308632
0.000289943
0.000273099
0.000257845
0.00024397
0.000231277
0.000219575
0.000208574
0.0001975
0.000809324
0.000713906
0.000631505
0.000562574
0.000505378
0.000457787
0.000417843
0.000383943
0.000354809
0.000329458
0.000307168
0.000287397
0.000269724
0.000253827
0.000239455
0.000226398
0.000214483
0.000203542
0.000193346
0.000183202
0.000786828
0.000662293
0.000567974
0.000495805
0.000439464
0.000394563
0.000357975
0.000327453
0.000301492
0.000279053
0.000259403
0.00024201
0.000226485
0.000212531
0.000199914
0.000188469
0.000178046
0.000168499
0.000159717
0.000150534
0.000663952
0.000488458
0.000404619
0.000347248
0.000305035
0.000272126
0.000245317
0.000222885
0.00020375
0.000187169
0.000172639
0.00015979
0.000148338
0.000138077
0.000128807
0.000120533
0.000113056
0.00010618
0.000100232
9.35162e-05
0.000160509
0.00010736
8.07408e-05
6.55975e-05
5.54895e-05
4.83024e-05
4.31308e-05
3.90788e-05
3.57387e-05
3.29487e-05
3.05767e-05
2.85331e-05
2.67714e-05
2.52423e-05
2.39022e-05
2.27193e-05
2.16718e-05
2.07395e-05
1.99148e-05
1.92525e-05
0.000107685
6.77183e-05
5.06311e-05
4.14159e-05
3.54049e-05
3.10367e-05
2.77138e-05
2.50818e-05
2.29337e-05
2.1151e-05
1.96512e-05
1.83724e-05
1.7265e-05
1.62967e-05
1.54552e-05
1.47313e-05
1.41048e-05
1.35678e-05
1.31382e-05
1.28315e-05
0.000528907
0.000369984
0.000305097
0.000261371
0.000228528
0.000202476
0.000181115
0.000163075
0.000147541
0.000133986
0.000122053
0.000111471
0.000102141
9.38691e-05
8.64894e-05
7.96989e-05
7.35176e-05
6.79644e-05
6.3797e-05
5.55549e-05
0.000663952
0.000488458
0.000404619
0.000347247
0.000305035
0.000272126
0.000245316
0.000222886
0.00020375
0.00018717
0.000172639
0.00015979
0.000148336
0.000138065
0.000128821
0.000120542
0.000113062
0.000106183
0.000100244
9.35221e-05
0.00071288
0.000556432
0.000466396
0.000402354
0.000354424
0.000317047
0.00028667
0.000261248
0.000239569
0.000220825
0.000204411
0.000189899
0.000176967
0.000165356
0.000154865
0.000145297
0.000136533
0.000128428
0.000120878
0.000113975
0.000728543
0.000588231
0.000496001
0.000429131
0.000378508
0.000338932
0.000306814
0.000279966
0.000257061
0.000237236
0.000219878
0.000204526
0.000190835
0.000178531
0.000167401
0.000157262
0.000147958
0.000139341
0.000131253
0.000123079
0.000728543
0.000588231
0.000496002
0.000429132
0.00037851
0.000338935
0.000306818
0.000279973
0.000257071
0.000237253
0.000219903
0.000204565
0.000190893
0.000178614
0.000167514
0.000157449
0.000148246
0.000139771
0.000131881
0.000124312
0.00071288
0.000556432
0.000466397
0.000402356
0.000354427
0.000317053
0.000286678
0.000261261
0.000239591
0.000220859
0.000204463
0.000189979
0.000177084
0.000165515
0.0001551
0.000145675
0.000137116
0.000129307
0.000122161
0.000115692
0.000663952
0.000488459
0.000404619
0.000347249
0.000305037
0.00027213
0.000245322
0.000222895
0.000203766
0.000187195
0.000172678
0.000159849
0.000148424
0.000138189
0.00012899
0.000120815
0.000113482
0.000106823
0.000101145
9.56546e-05
0.000528907
0.000369984
0.000305097
0.000261371
0.000228528
0.000202476
0.000181115
0.000163075
0.000147541
0.000133986
0.000122053
0.000111471
0.00010214
9.38778e-05
8.64813e-05
7.9693e-05
7.35122e-05
6.79589e-05
6.37894e-05
5.55468e-05
0.000107685
6.77183e-05
5.06311e-05
4.14159e-05
3.54049e-05
3.10367e-05
2.77138e-05
2.50817e-05
2.29335e-05
2.11506e-05
1.96506e-05
1.83712e-05
1.72629e-05
1.62927e-05
1.54486e-05
1.47201e-05
1.40839e-05
1.35257e-05
1.30527e-05
1.26694e-05
4.5356e-05
2.3208e-05
1.65396e-05
1.36493e-05
1.18966e-05
1.06844e-05
9.76077e-06
9.05713e-06
8.49477e-06
8.03141e-06
7.64069e-06
7.31248e-06
7.02515e-06
6.76156e-06
6.53059e-06
6.33072e-06
6.15811e-06
6.01245e-06
5.91432e-06
5.82203e-06
0.000107685
6.77183e-05
5.06311e-05
4.14159e-05
3.54049e-05
3.10367e-05
2.77137e-05
2.50817e-05
2.29335e-05
2.11506e-05
1.96506e-05
1.83713e-05
1.7263e-05
1.62924e-05
1.54487e-05
1.47202e-05
1.40841e-05
1.35258e-05
1.30527e-05
1.267e-05
0.000160509
0.00010736
8.07408e-05
6.55975e-05
5.54895e-05
4.83024e-05
4.31308e-05
3.90788e-05
3.57388e-05
3.29487e-05
3.05767e-05
2.85331e-05
2.67714e-05
2.52422e-05
2.39023e-05
2.27195e-05
2.16719e-05
2.07396e-05
1.99149e-05
1.92525e-05
0.000198681
0.0001383
0.000105187
8.55268e-05
7.25011e-05
6.28899e-05
5.60607e-05
5.07587e-05
4.63871e-05
4.27204e-05
3.96229e-05
3.69517e-05
3.46277e-05
3.25943e-05
3.08049e-05
2.92205e-05
2.78084e-05
2.65404e-05
2.54016e-05
2.45113e-05
0.000218609
0.000155003
0.000118661
9.65068e-05
8.18823e-05
7.08354e-05
6.30853e-05
5.7143e-05
5.22476e-05
4.80951e-05
4.45806e-05
4.15691e-05
3.89478e-05
3.66517e-05
3.46279e-05
3.28339e-05
3.12333e-05
2.97971e-05
2.85131e-05
2.75021e-05
0.000218609
0.000155003
0.000118661
9.65069e-05
8.18824e-05
7.08356e-05
6.30856e-05
5.71434e-05
5.22483e-05
4.80962e-05
4.45824e-05
4.15717e-05
3.89519e-05
3.66579e-05
3.46375e-05
3.28491e-05
3.12575e-05
2.9835e-05
2.85701e-05
2.75705e-05
0.000198681
0.0001383
0.000105187
8.5527e-05
7.25013e-05
6.28903e-05
5.60613e-05
5.07596e-05
4.63885e-05
4.27225e-05
3.96264e-05
3.6957e-05
3.46357e-05
3.26065e-05
3.08239e-05
2.92509e-05
2.78573e-05
2.66189e-05
2.5517e-05
2.4546e-05
0.000160509
0.00010736
8.07409e-05
6.55976e-05
5.54897e-05
4.83027e-05
4.31312e-05
3.90794e-05
3.57398e-05
3.29507e-05
3.05796e-05
2.85376e-05
2.67781e-05
2.52523e-05
2.39183e-05
2.27454e-05
2.17142e-05
2.08093e-05
2.00276e-05
1.94098e-05
0.000107685
6.77183e-05
5.06311e-05
4.14159e-05
3.54049e-05
3.10367e-05
2.77138e-05
2.50818e-05
2.29337e-05
2.1151e-05
1.96512e-05
1.83724e-05
1.72649e-05
1.62969e-05
1.54552e-05
1.47312e-05
1.41047e-05
1.35677e-05
1.31381e-05
1.28315e-05
4.5356e-05
2.3208e-05
1.65396e-05
1.36493e-05
1.18966e-05
1.06844e-05
9.76077e-06
9.05713e-06
8.49476e-06
8.03141e-06
7.64067e-06
7.31251e-06
7.02509e-06
6.76163e-06
6.53056e-06
6.33069e-06
6.15808e-06
6.01245e-06
5.91439e-06
5.82212e-06
5.41391e-06
5.04124e-06
4.69634e-06
4.48341e-06
4.34879e-06
4.25623e-06
4.18788e-06
4.13102e-06
4.08254e-06
4.03991e-06
4.00059e-06
3.96344e-06
3.92617e-06
3.88999e-06
3.85419e-06
3.82148e-06
3.78903e-06
3.75925e-06
3.73074e-06
3.70303e-06
3.67725e-06
3.65321e-06
3.63083e-06
3.60985e-06
3.58839e-06
3.56796e-06
3.54774e-06
3.52831e-06
3.50888e-06
3.4909e-06
3.47202e-06
3.45413e-06
3.43653e-06
3.41895e-06
3.4026e-06
3.38578e-06
3.3699e-06
3.35379e-06
3.33986e-06
3.31529e-06
1.03791e-05
9.8611e-06
9.44265e-06
9.14569e-06
8.91558e-06
8.7241e-06
8.57488e-06
8.44764e-06
8.33248e-06
8.22737e-06
8.12641e-06
8.03407e-06
7.94379e-06
7.85481e-06
7.76753e-06
7.68785e-06
7.61164e-06
7.54092e-06
7.47452e-06
7.41068e-06
7.35024e-06
7.29341e-06
7.24114e-06
7.19388e-06
7.1478e-06
7.1025e-06
7.05844e-06
7.01561e-06
6.97387e-06
6.93373e-06
6.89364e-06
6.85417e-06
6.81563e-06
6.77844e-06
6.7425e-06
6.70748e-06
6.6732e-06
6.63946e-06
6.60718e-06
6.57031e-06
1.53889e-05
1.47834e-05
1.42836e-05
1.38972e-05
1.35312e-05
1.32067e-05
1.2923e-05
1.26744e-05
1.24532e-05
1.22528e-05
1.20709e-05
1.19033e-05
1.17502e-05
1.1597e-05
1.14536e-05
1.13235e-05
1.11998e-05
1.10851e-05
1.09756e-05
1.08707e-05
1.07636e-05
1.06585e-05
1.05626e-05
1.04753e-05
1.03942e-05
1.03146e-05
1.02375e-05
1.01631e-05
1.0091e-05
1.00216e-05
9.95325e-06
9.88727e-06
9.8237e-06
9.76215e-06
9.70363e-06
9.647e-06
9.59282e-06
9.53953e-06
9.48877e-06
9.4357e-06
2.05718e-05
1.91407e-05
1.8349e-05
1.77757e-05
1.72809e-05
1.68449e-05
1.64545e-05
1.61021e-05
1.5781e-05
1.5486e-05
1.52134e-05
1.49602e-05
1.47243e-05
1.45055e-05
1.4304e-05
1.41148e-05
1.39369e-05
1.37714e-05
1.36138e-05
1.34495e-05
1.32973e-05
1.31573e-05
1.30225e-05
1.28949e-05
1.27739e-05
1.26586e-05
1.25497e-05
1.24452e-05
1.23432e-05
1.2248e-05
1.21541e-05
1.20587e-05
1.19759e-05
1.18857e-05
1.18144e-05
1.17307e-05
1.16643e-05
1.15903e-05
1.15239e-05
1.14523e-05
2.33675e-05
2.21183e-05
2.12016e-05
2.04642e-05
1.98352e-05
1.92883e-05
1.88045e-05
1.83687e-05
1.79694e-05
1.76012e-05
1.72597e-05
1.69415e-05
1.66433e-05
1.63698e-05
1.61142e-05
1.58752e-05
1.56535e-05
1.54463e-05
1.52502e-05
1.50662e-05
1.48916e-05
1.4734e-05
1.4564e-05
1.44072e-05
1.4259e-05
1.41193e-05
1.39865e-05
1.38607e-05
1.37397e-05
1.3629e-05
1.35189e-05
1.34104e-05
1.3314e-05
1.32076e-05
1.31277e-05
1.3029e-05
1.29476e-05
1.28638e-05
1.27866e-05
1.2713e-05
2.38206e-05
2.29549e-05
2.21349e-05
2.14055e-05
2.07547e-05
2.01704e-05
1.96439e-05
1.91676e-05
1.87269e-05
1.83167e-05
1.79356e-05
1.75812e-05
1.72487e-05
1.69454e-05
1.66628e-05
1.63995e-05
1.61537e-05
1.59253e-05
1.57137e-05
1.55176e-05
1.53342e-05
1.51629e-05
1.50003e-05
1.48572e-05
1.46963e-05
1.45379e-05
1.43918e-05
1.42585e-05
1.4132e-05
1.40186e-05
1.39088e-05
1.37986e-05
1.3716e-05
1.3555e-05
1.35333e-05
1.33887e-05
1.33347e-05
1.32424e-05
1.31608e-05
1.30849e-05
2.28347e-05
2.2046e-05
2.13019e-05
2.06155e-05
1.99818e-05
1.93979e-05
1.88619e-05
1.83697e-05
1.79177e-05
1.75032e-05
1.71237e-05
1.67752e-05
1.64532e-05
1.61621e-05
1.58926e-05
1.56426e-05
1.54115e-05
1.51968e-05
1.49973e-05
1.48135e-05
1.46446e-05
1.44839e-05
1.43304e-05
1.41816e-05
1.40287e-05
1.38872e-05
1.3755e-05
1.36352e-05
1.35171e-05
1.34111e-05
1.33083e-05
1.32019e-05
1.31243e-05
1.3002e-05
1.29371e-05
1.28481e-05
1.27728e-05
1.26936e-05
1.2617e-05
1.25439e-05
2.06804e-05
1.97189e-05
1.89049e-05
1.8191e-05
1.75534e-05
1.69907e-05
1.64843e-05
1.60305e-05
1.56294e-05
1.52749e-05
1.49568e-05
1.46709e-05
1.44077e-05
1.41669e-05
1.39431e-05
1.37349e-05
1.35453e-05
1.33683e-05
1.32036e-05
1.30492e-05
1.29115e-05
1.27627e-05
1.26236e-05
1.25046e-05
1.2388e-05
1.22794e-05
1.21746e-05
1.20773e-05
1.19746e-05
1.18816e-05
1.17955e-05
1.17174e-05
1.16399e-05
1.1564e-05
1.14906e-05
1.14195e-05
1.13509e-05
1.12814e-05
1.12141e-05
1.11484e-05
1.66077e-05
1.56782e-05
1.4882e-05
1.42211e-05
1.3639e-05
1.31998e-05
1.28219e-05
1.25017e-05
1.22375e-05
1.20015e-05
1.17861e-05
1.15908e-05
1.14103e-05
1.12468e-05
1.10838e-05
1.09288e-05
1.07905e-05
1.06602e-05
1.05408e-05
1.04259e-05
1.03222e-05
1.0214e-05
1.01194e-05
1.00345e-05
9.95184e-06
9.87338e-06
9.79814e-06
9.72672e-06
9.65788e-06
9.59567e-06
9.53507e-06
9.47655e-06
9.41935e-06
9.3642e-06
9.3106e-06
9.2583e-06
9.20719e-06
9.15564e-06
9.10561e-06
9.05467e-06
1.11699e-05
1.05364e-05
9.91967e-06
9.42773e-06
9.03528e-06
8.74767e-06
8.54118e-06
8.37586e-06
8.23896e-06
8.11677e-06
8.0003e-06
7.89923e-06
7.79493e-06
7.69636e-06
7.59975e-06
7.50914e-06
7.42487e-06
7.34578e-06
7.27323e-06
7.20448e-06
7.1415e-06
7.08535e-06
7.03343e-06
6.98694e-06
6.94033e-06
6.89556e-06
6.85229e-06
6.81076e-06
6.7704e-06
6.7334e-06
6.69582e-06
6.6589e-06
6.62299e-06
6.58787e-06
6.55279e-06
6.51955e-06
6.48709e-06
6.45525e-06
6.4247e-06
6.38993e-06
5.41422e-06
5.04158e-06
4.69686e-06
4.48439e-06
4.34546e-06
4.25294e-06
4.18504e-06
4.12881e-06
4.08139e-06
4.04072e-06
4.00205e-06
3.96635e-06
3.92893e-06
3.89293e-06
3.85772e-06
3.82465e-06
3.79262e-06
3.7626e-06
3.73412e-06
3.7066e-06
3.68035e-06
3.65634e-06
3.63343e-06
3.61259e-06
3.59087e-06
3.57068e-06
3.55042e-06
3.53107e-06
3.51163e-06
3.49353e-06
3.47458e-06
3.45672e-06
3.43902e-06
3.42144e-06
3.40428e-06
3.38757e-06
3.37255e-06
3.35655e-06
3.34286e-06
3.31816e-06
1.11705e-05
1.0534e-05
9.91534e-06
9.42145e-06
9.03825e-06
8.75199e-06