/*--------------------------------*- C++ -*----------------------------------*\
| =========                 |                                                 |
| \\      /  F ield         | OpenFOAM: The Open Source CFD Toolbox           |
|  \\    /   O peration     | Version:  2212                                  |
|   \\  /    A nd           | Website:  www.openfoam.com                      |
|    \\/     M anipulation  |                                                 |
\*---------------------------------------------------------------------------*/
FoamFile
{
    version     2.0;
    format      ascii;
    arch        "LSB;label=32;scalar=64";
    class       volScalarField;
    location    "2.65";
    object      p;
}
// * * * * * * * * * * * * * * * * * * * * * * * * * * * * * * * * * * * * * //

dimensions      [0 2 -2 0 0 0 0];

internalField   nonuniform List<scalar> 
6840
(
0.0178608
0.0107463
0.0084549
0.00791707
0.0076427
0.00742049
0.00723383
0.00706736
0.00690615
0.00674662
0.00658884
0.00643256
0.00627647
0.00611943
0.00596128
0.00580099
0.00563819
0.00546676
0.00524473
0.0048261
0.010682
0.0099481
0.0088552
0.00818922
0.0077866
0.00751282
0.00730156
0.0071152
0.00694056
0.00677286
0.00660952
0.00644859
0.00628807
0.00612668
0.00596403
0.00579852
0.00562482
0.00542764
0.00516333
0.00472584
0.0103337
0.00948216
0.00871788
0.00815872
0.00778252
0.00751442
0.00729864
0.00710552
0.00692677
0.00675768
0.00659324
0.00643109
0.00627041
0.00611021
0.00594876
0.00578347
0.00560972
0.0054219
0.00521423
0.00497516
0.00992439
0.00916166
0.00854288
0.00809154
0.00774754
0.00747846
0.00725874
0.00706977
0.00690167
0.0067438
0.00658742
0.00643097
0.00627496
0.00611955
0.00596441
0.00580892
0.00565252
0.00549551
0.0053406
0.0051967
0.00979021
0.00904902
0.00846084
0.00805271
0.00773075
0.00746401
0.00724244
0.00705174
0.0068809
0.00672406
0.00657397
0.00642376
0.00627258
0.00612224
0.00597451
0.00583076
0.00569296
0.00556191
0.00543785
0.00532638
0.00979023
0.00904904
0.00846088
0.00805278
0.00773085
0.00746416
0.00724269
0.00705216
0.00688159
0.0067252
0.00657586
0.00642688
0.00627773
0.00613068
0.00598865
0.00585484
0.00573312
0.00562797
0.00554522
0.00549525
0.00992446
0.00916173
0.00854298
0.00809167
0.00774774
0.00747879
0.00725931
0.00707075
0.0069033
0.00674647
0.00659179
0.00643811
0.00628657
0.00613857
0.00599609
0.00586252
0.00574313
0.00564565
0.00558819
0.00559725
0.0103337
0.00948223
0.00871796
0.00815884
0.00778272
0.00751477
0.00729922
0.00710649
0.00692836
0.00676032
0.00659762
0.00643822
0.00628195
0.00612898
0.00597959
0.00583439
0.00569488
0.00556611
0.00546573
0.00542504
0.010682
0.00994813
0.00885524
0.00818928
0.0077867
0.00751299
0.00730186
0.00711571
0.00694143
0.00677431
0.00661187
0.00645245
0.00629465
0.00613809
0.00598309
0.00582973
0.00567587
0.0055176
0.00534289
0.00511196
0.0178608
0.0107463
0.0084549
0.00791707
0.00764271
0.00742049
0.00723383
0.00706736
0.00690616
0.00674662
0.00658885
0.00643257
0.00627648
0.00611946
0.00596134
0.00580105
0.00563825
0.00546685
0.00524488
0.00482632
0.010682
0.00994813
0.00885524
0.00818928
0.0077867
0.00751299
0.00730186
0.00711571
0.00694143
0.0067743
0.00661187
0.00645245
0.00629464
0.00613806
0.00598303
0.00582967
0.0056758
0.00551749
0.00534272
0.00511168
0.00996538
0.00993367
0.00920545
0.00849494
0.00804858
0.00773262
0.0074737
0.00724601
0.00704136
0.00685288
0.00667503
0.00650391
0.00633633
0.0061705
0.00600543
0.00583931
0.00566939
0.00549314
0.00532378
0.00522984
0.00903989
0.00916607
0.00886317
0.00844694
0.00807977
0.00776109
0.00748244
0.00724182
0.00702895
0.00683394
0.00664993
0.00647347
0.00630229
0.00613416
0.00596696
0.00579874
0.00562784
0.00545398
0.00528279
0.00513614
0.0086215
0.008665
0.00849942
0.00823646
0.00795605
0.00768467
0.0074336
0.00720711
0.00700386
0.00681687
0.00663912
0.00646748
0.00630052
0.0061367
0.00597455
0.00581301
0.00565165
0.00549124
0.00533443
0.00518526
0.00840556
0.00842738
0.00830018
0.00808265
0.00785022
0.00762107
0.00739825
0.00718511
0.0069844
0.00679719
0.00662097
0.00645248
0.0062901
0.00613223
0.00597795
0.00582812
0.00568349
0.00554454
0.00541351
0.00529033
0.0084056
0.00842743
0.00830024
0.00808277
0.00785039
0.00762131
0.00739862
0.00718567
0.00698525
0.00679859
0.00662333
0.00645643
0.00629636
0.00614152
0.00599193
0.00584987
0.00571651
0.00559248
0.00548118
0.00537873
0.0086216
0.00866511
0.00849956
0.00823666
0.00795633
0.00768507
0.00743421
0.00720809
0.00700549
0.00681972
0.00664399
0.00647534
0.00631232
0.0061543
0.00600182
0.00585579
0.00571699
0.00558619
0.00546457
0.00535025
0.00903994
0.00916613
0.00886326
0.00844706
0.00807993
0.00776134
0.00748288
0.00724258
0.00703024
0.00683604
0.00665321
0.00647858
0.00631032
0.0061469
0.0059869
0.00582944
0.00567378
0.00551938
0.00537025
0.00523383
0.00996538
0.00993367
0.00920545
0.00849494
0.00804859
0.00773262
0.0074737
0.00724601
0.00704137
0.00685289
0.00667504
0.00650392
0.00633635
0.00617054
0.00600548
0.00583938
0.00566947
0.00549326
0.00532394
0.00523006
0.010682
0.0099481
0.0088552
0.00818922
0.0077866
0.00751282
0.00730156
0.00711521
0.00694057
0.00677287
0.00660953
0.00644861
0.00628808
0.00612672
0.0059641
0.00579858
0.00562489
0.00542774
0.00516347
0.00472601
0.0103337
0.00948223
0.00871796
0.00815884
0.00778272
0.00751477
0.00729922
0.00710649
0.00692836
0.00676032
0.00659761
0.00643822
0.00628193
0.00612895
0.00597954
0.00583434
0.00569481
0.005566
0.00546554
0.00542473
0.00903994
0.00916613
0.00886326
0.00844706
0.00807993
0.00776134
0.00748288
0.00724258
0.00703024
0.00683603
0.0066532
0.00647856
0.00631029
0.00614687
0.00598686
0.00582938
0.0056737
0.00551928
0.00537012
0.00523366
0.00847043
0.00857141
0.00845985
0.00823437
0.00797862
0.00772023
0.00746184
0.00722022
0.00700234
0.00680206
0.00661442
0.00643623
0.00626477
0.00609794
0.00593424
0.00577247
0.00561187
0.00545357
0.00530199
0.00515462
0.00810242
0.00817048
0.00811809
0.0079711
0.0077862
0.00758106
0.00737039
0.00716346
0.00696228
0.00676971
0.00658688
0.00641189
0.00624273
0.00607792
0.00591629
0.00575678
0.00559831
0.00544072
0.00528522
0.00512823
0.00791938
0.00798382
0.00795435
0.00782949
0.00767047
0.0074968
0.00731055
0.00712256
0.00693644
0.00675301
0.00657378
0.00639973
0.00623124
0.00606818
0.00591048
0.00575734
0.00560701
0.00545853
0.00531312
0.0051653
0.00791942
0.00798385
0.00795439
0.00782959
0.00767064
0.00749704
0.00731085
0.00712299
0.00693707
0.00675397
0.00657524
0.0064019
0.00623438
0.00607284
0.00591744
0.00576768
0.00562158
0.00547766
0.00533725
0.00519121
0.00810248
0.00817054
0.00811818
0.00797125
0.00778643
0.00758135
0.00737077
0.00716404
0.00696316
0.00677111
0.00658913
0.0064154
0.00624799
0.00608576
0.00592801
0.00577401
0.005623
0.00547477
0.00532962
0.00517757
0.00847043
0.00857141
0.00845985
0.00823437
0.00797862
0.00772023
0.00746184
0.00722023
0.00700235
0.00680207
0.00661444
0.00643624
0.00626479
0.00609796
0.00593427
0.00577252
0.00561192
0.00545362
0.00530204
0.00515467
0.00903989
0.00916607
0.00886317
0.00844694
0.00807977
0.00776109
0.00748245
0.00724183
0.00702896
0.00683395
0.00664994
0.00647349
0.00630232
0.00613418
0.00596699
0.00579879
0.00562792
0.00545406
0.00528289
0.00513626
0.0103337
0.00948216
0.00871788
0.00815873
0.00778253
0.00751442
0.00729864
0.00710552
0.00692678
0.0067577
0.00659326
0.00643111
0.00627043
0.00611024
0.0059488
0.00578352
0.00560979
0.00542198
0.00521434
0.00497529
0.00992447
0.00916174
0.00854298
0.00809168
0.00774774
0.00747879
0.00725931
0.00707075
0.0069033
0.00674647
0.00659179
0.0064381
0.00628656
0.00613854
0.00599605
0.00586247
0.00574306
0.00564555
0.00558802
0.00559694
0.0086216
0.00866511
0.00849956
0.00823666
0.00795633
0.00768507
0.00743421
0.00720809
0.00700549
0.00681971
0.00664398
0.00647532
0.0063123
0.00615427
0.00600179
0.00585574
0.00571693
0.00558613
0.00546453
0.00535028
0.00810248
0.00817055
0.00811819
0.00797125
0.00778643
0.00758135
0.00737077
0.00716404
0.00696315
0.00677111
0.00658912
0.00641539
0.00624798
0.00608574
0.00592799
0.00577398
0.00562297
0.00547475
0.00532963
0.00517764
0.00780456
0.0078637
0.00785176
0.00775637
0.00761676
0.00745128
0.0072711
0.00708664
0.00690268
0.00672232
0.0065472
0.00637716
0.00621157
0.00604983
0.00589133
0.00573524
0.00558058
0.00542693
0.00527488
0.00511668
0.00765344
0.00771633
0.00772009
0.00764644
0.00752632
0.00737993
0.00721705
0.00704563
0.00687148
0.00669789
0.00652669
0.00635876
0.00619441
0.00603359
0.00587611
0.00572132
0.0055682
0.00541653
0.00526755
0.00511316
0.00765346
0.00771635
0.00772011
0.00764647
0.00752636
0.00738
0.00721716
0.00704578
0.0068717
0.00669819
0.0065271
0.00635933
0.00619522
0.0060348
0.00587787
0.00572373
0.00557116
0.0054199
0.00527094
0.00511464
0.00780456
0.0078637
0.00785176
0.00775637
0.00761676
0.00745128
0.0072711
0.00708664
0.00690268
0.00672233
0.00654721
0.00637717
0.00621158
0.00604984
0.00589135
0.00573526
0.00558059
0.00542694
0.00527488
0.00511666
0.00810242
0.00817048
0.0081181
0.0079711
0.0077862
0.00758107
0.0073704
0.00716347
0.00696228
0.00676972
0.00658689
0.00641191
0.00624275
0.00607795
0.00591633
0.00575682
0.00559835
0.00544075
0.00528526
0.00512827
0.0086215
0.008665
0.00849942
0.00823647
0.00795606
0.00768468
0.00743361
0.00720712
0.00700387
0.00681689
0.00663914
0.0064675
0.00630054
0.00613673
0.00597459
0.00581306
0.00565171
0.00549131
0.00533451
0.00518534
0.00992439
0.00916166
0.00854288
0.00809155
0.00774754
0.00747846
0.00725875
0.00706978
0.00690168
0.00674381
0.00658743
0.00643099
0.00627497
0.00611957
0.00596443
0.00580896
0.00565257
0.00549557
0.00534068
0.00519678
0.00979023
0.00904905
0.00846089
0.00805278
0.00773086
0.00746417
0.0072427
0.00705216
0.00688159
0.0067252
0.00657586
0.00642688
0.00627772
0.00613066
0.00598861
0.0058548
0.00573305
0.00562787
0.00554507
0.00549499
0.00840561
0.00842744
0.00830025
0.00808277
0.0078504
0.00762131
0.00739862
0.00718567
0.00698525
0.00679859
0.00662332
0.00645642
0.00629635
0.0061415
0.00599191
0.00584983
0.00571646
0.00559244
0.00548115
0.00537879
0.00791942
0.00798385
0.0079544
0.00782959
0.00767065
0.00749705
0.00731085
0.00712299
0.00693707
0.00675397
0.00657523
0.00640189
0.00623437
0.00607283
0.00591743
0.00576767
0.00562157
0.00547766
0.00533728
0.00519132
0.00765346
0.00771635
0.00772011
0.00764647
0.00752636
0.00738001
0.00721716
0.00704578
0.00687169
0.00669819
0.0065271
0.00635933
0.00619521
0.00603479
0.00587787
0.00572372
0.00557116
0.0054199
0.00527096
0.00511468
0.00751065
0.00758017
0.00760229
0.00754974
0.00744849
0.00731756
0.00716765
0.00700666
0.00684015
0.00667179
0.00650394
0.00633804
0.00617483
0.00601463
0.00585741
0.00570255
0.00554907
0.00539657
0.00524597
0.00508833
0.00751065
0.00758017
0.00760229
0.00754974
0.00744849
0.00731756
0.00716765
0.00700666
0.00684015
0.00667179
0.00650394
0.00633804
0.00617483
0.00601463
0.00585741
0.00570256
0.00554907
0.00539657
0.00524596
0.00508832
0.00765344
0.00771633
0.00772009
0.00764644
0.00752632
0.00737994
0.00721705
0.00704563
0.00687148
0.0066979
0.0065267
0.00635877
0.00619441
0.0060336
0.00587612
0.00572133
0.00556821
0.00541654
0.00526756
0.00511316
0.00791938
0.00798382
0.00795435
0.00782949
0.00767047
0.0074968
0.00731055
0.00712257
0.00693645
0.00675301
0.00657379
0.00639974
0.00623125
0.00606821
0.00591051
0.00575736
0.00560703
0.00545855
0.00531315
0.00516531
0.00840556
0.00842738
0.00830018
0.00808266
0.00785023
0.00762107
0.00739826
0.00718512
0.00698441
0.0067972
0.00662098
0.00645249
0.00629012
0.00613225
0.00597798
0.00582814
0.00568351
0.00554457
0.00541354
0.00529035
0.00979021
0.00904902
0.00846084
0.00805271
0.00773076
0.00746402
0.00724245
0.00705175
0.0068809
0.00672407
0.00657398
0.00642377
0.00627259
0.00612225
0.00597452
0.00583077
0.00569297
0.00556193
0.00543787
0.00532642
0.00979021
0.00904903
0.00846084
0.00805272
0.00773076
0.00746402
0.00724245
0.00705175
0.0068809
0.00672406
0.00657397
0.00642375
0.00627257
0.00612223
0.00597449
0.00583073
0.00569291
0.00556184
0.00543774
0.0053262
0.00840556
0.00842739
0.00830018
0.00808266
0.00785023
0.00762107
0.00739826
0.00718512
0.00698441
0.0067972
0.00662097
0.00645247
0.0062901
0.00613222
0.00597794
0.0058281
0.00568346
0.00554452
0.00541349
0.00529035
0.00791939
0.00798382
0.00795435
0.0078295
0.00767047
0.0074968
0.00731055
0.00712256
0.00693644
0.00675301
0.00657378
0.00639973
0.00623123
0.00606818
0.00591047
0.00575733
0.005607
0.00545851
0.0053131
0.00516527
0.00765344
0.00771634
0.00772009
0.00764644
0.00752632
0.00737994
0.00721705
0.00704563
0.00687148
0.00669789
0.0065267
0.00635877
0.00619441
0.00603359
0.00587611
0.00572132
0.0055682
0.00541653
0.00526755
0.00511316
0.00751066
0.00758017
0.00760229
0.00754974
0.0074485
0.00731757
0.00716765
0.00700666
0.00684015
0.00667179
0.00650394
0.00633804
0.00617483
0.00601463
0.00585741
0.00570256
0.00554907
0.00539658
0.00524598
0.00508834
0.00751065
0.00758017
0.00760229
0.00754974
0.00744849
0.00731756
0.00716765
0.00700666
0.00684015
0.00667179
0.00650394
0.00633804
0.00617483
0.00601463
0.00585741
0.00570256
0.00554907
0.00539658
0.00524597
0.00508833
0.00765346
0.00771635
0.00772011
0.00764647
0.00752636
0.00738001
0.00721716
0.00704579
0.0068717
0.00669819
0.0065271
0.00635933
0.00619522
0.00603481
0.00587788
0.00572374
0.00557117
0.00541991
0.00527097
0.00511466
0.00791942
0.00798385
0.0079544
0.00782959
0.00767065
0.00749705
0.00731086
0.00712299
0.00693707
0.00675398
0.00657524
0.0064019
0.00623438
0.00607285
0.00591745
0.00576769
0.0056216
0.00547768
0.00533729
0.00519127
0.0084056
0.00842743
0.00830025
0.00808277
0.0078504
0.00762131
0.00739862
0.00718568
0.00698525
0.0067986
0.00662333
0.00645643
0.00629636
0.00614152
0.00599193
0.00584986
0.0057165
0.00559249
0.00548121
0.00537882
0.00979023
0.00904905
0.00846088
0.00805278
0.00773085
0.00746417
0.00724269
0.00705216
0.00688159
0.00672521
0.00657587
0.00642689
0.00627773
0.00613068
0.00598864
0.00585483
0.00573309
0.00562794
0.00554518
0.00549522
0.0099244
0.00916167
0.00854289
0.00809155
0.00774755
0.00747847
0.00725875
0.00706978
0.00690168
0.00674381
0.00658742
0.00643097
0.00627496
0.00611955
0.00596441
0.00580891
0.00565251
0.0054955
0.00534059
0.0051967
0.00862151
0.00866501
0.00849942
0.00823647
0.00795606
0.00768468
0.00743361
0.00720712
0.00700386
0.00681688
0.00663913
0.00646748
0.00630052
0.0061367
0.00597455
0.00581302
0.00565167
0.00549127
0.00533447
0.00518529
0.00810242
0.00817049
0.0081181
0.0079711
0.00778621
0.00758107
0.0073704
0.00716347
0.00696228
0.00676972
0.00658688
0.0064119
0.00624274
0.00607792
0.0059163
0.00575679
0.00559833
0.00544073
0.00528521
0.00512815
0.00780456
0.0078637
0.00785177
0.00775638
0.00761676
0.00745128
0.0072711
0.00708664
0.00690268
0.00672233
0.00654721
0.00637717
0.00621158
0.00604984
0.00589134
0.00573526
0.00558059
0.00542694
0.00527489
0.00511667
0.00765346
0.00771635
0.00772012
0.00764647
0.00752637
0.00738001
0.00721716
0.00704579
0.0068717
0.00669819
0.0065271
0.00635933
0.00619522
0.0060348
0.00587788
0.00572373
0.00557117
0.00541992
0.00527099
0.0051147
0.00765344
0.00771634
0.00772009
0.00764644
0.00752632
0.00737994
0.00721705
0.00704563
0.00687148
0.00669789
0.0065267
0.00635877
0.00619441
0.00603359
0.00587612
0.00572133
0.00556821
0.00541654
0.00526758
0.0051132
0.00780456
0.0078637
0.00785176
0.00775637
0.00761676
0.00745128
0.0072711
0.00708664
0.00690268
0.00672233
0.00654721
0.00637717
0.00621158
0.00604984
0.00589134
0.00573526
0.0055806
0.00542695
0.00527492
0.00511672
0.00810248
0.00817055
0.00811819
0.00797125
0.00778643
0.00758135
0.00737077
0.00716404
0.00696316
0.00677111
0.00658913
0.0064154
0.00624799
0.00608575
0.005928
0.00577401
0.00562301
0.00547481
0.00532972
0.0051778
0.0086216
0.00866511
0.00849956
0.00823666
0.00795633
0.00768507
0.00743421
0.00720809
0.00700549
0.00681971
0.00664399
0.00647533
0.00631231
0.00615428
0.00600179
0.00585575
0.00571695
0.00558617
0.00546463
0.00535052
0.00992446
0.00916173
0.00854298
0.00809168
0.00774774
0.00747879
0.00725931
0.00707075
0.0069033
0.00674648
0.0065918
0.00643811
0.00628657
0.00613856
0.00599607
0.00586249
0.00574307
0.00564555
0.00558804
0.00559698
0.0103337
0.00948217
0.00871789
0.00815873
0.00778253
0.00751443
0.00729865
0.00710553
0.00692678
0.0067577
0.00659325
0.0064311
0.00627042
0.00611022
0.00594877
0.00578348
0.00560973
0.00542193
0.00521429
0.00497529
0.0090399
0.00916608
0.00886318
0.00844695
0.00807978
0.0077611
0.00748245
0.00724183
0.00702896
0.00683395
0.00664994
0.00647348
0.00630231
0.00613417
0.00596698
0.00579876
0.00562789
0.00545404
0.00528289
0.00513625
0.00847044
0.00857141
0.00845985
0.00823438
0.00797863
0.00772023
0.00746185
0.00722023
0.00700235
0.00680207
0.00661444
0.00643624
0.00626478
0.00609795
0.00593426
0.0057725
0.00561191
0.00545361
0.00530203
0.00515461
0.00810249
0.00817055
0.00811819
0.00797125
0.00778643
0.00758136
0.00737078
0.00716404
0.00696316
0.00677112
0.00658913
0.0064154
0.00624799
0.00608576
0.00592801
0.005774
0.005623
0.00547477
0.00532964
0.00517761
0.00791942
0.00798386
0.0079544
0.00782959
0.00767065
0.00749705
0.00731086
0.00712299
0.00693708
0.00675398
0.00657524
0.0064019
0.00623438
0.00607285
0.00591745
0.00576768
0.00562159
0.00547768
0.00533731
0.00519137
0.00791939
0.00798382
0.00795435
0.0078295
0.00767047
0.00749681
0.00731055
0.00712257
0.00693645
0.00675301
0.00657379
0.00639974
0.00623124
0.00606819
0.00591049
0.00575734
0.00560702
0.00545854
0.00531315
0.00516536
0.00810242
0.00817049
0.0081181
0.0079711
0.0077862
0.00758107
0.0073704
0.00716347
0.00696228
0.00676972
0.00658688
0.0064119
0.00624274
0.00607793
0.00591631
0.0057568
0.00559833
0.00544074
0.00528525
0.00512827
0.00847043
0.00857141
0.00845985
0.00823437
0.00797862
0.00772023
0.00746184
0.00722023
0.00700235
0.00680207
0.00661443
0.00643623
0.00626478
0.00609794
0.00593425
0.0057725
0.0056119
0.00545363
0.00530212
0.0051549
0.00903994
0.00916613
0.00886326
0.00844705
0.00807993
0.00776134
0.00748288
0.00724258
0.00703024
0.00683603
0.0066532
0.00647856
0.0063103
0.00614687
0.00598686
0.00582938
0.0056737
0.00551927
0.00537017
0.00523385
0.0103337
0.00948223
0.00871796
0.00815884
0.00778272
0.00751477
0.00729923
0.00710649
0.00692836
0.00676032
0.00659762
0.00643822
0.00628194
0.00612897
0.00597956
0.00583434
0.00569479
0.00556596
0.00546547
0.00542457
0.010682
0.00994811
0.00885521
0.00818923
0.00778661
0.00751283
0.00730157
0.00711521
0.00694058
0.00677287
0.00660953
0.0064486
0.00628808
0.00612669
0.00596404
0.00579853
0.00562483
0.00542768
0.0051634
0.004726
0.00996538
0.00993368
0.00920546
0.00849495
0.00804859
0.00773263
0.00747371
0.00724602
0.00704137
0.00685289
0.00667503
0.00650392
0.00633633
0.00617051
0.00600544
0.00583932
0.00566941
0.00549319
0.00532388
0.00523003
0.00903995
0.00916614
0.00886327
0.00844706
0.00807994
0.00776135
0.00748288
0.00724258
0.00703025
0.00683604
0.00665321
0.00647857
0.0063103
0.00614688
0.00598688
0.0058294
0.00567373
0.00551932
0.00537018
0.00523372
0.00862161
0.00866512
0.00849957
0.00823667
0.00795634
0.00768508
0.00743422
0.00720809
0.0070055
0.00681972
0.00664399
0.00647533
0.00631231
0.00615429
0.00600181
0.00585575
0.00571694
0.00558615
0.00546454
0.00535026
0.00840561
0.00842744
0.00830025
0.00808278
0.0078504
0.00762131
0.00739863
0.00718568
0.00698526
0.0067986
0.00662333
0.00645643
0.00629636
0.00614151
0.00599192
0.00584985
0.00571648
0.00559245
0.00548115
0.00537878
0.00840556
0.00842739
0.00830019
0.00808266
0.00785023
0.00762108
0.00739826
0.00718512
0.00698441
0.0067972
0.00662098
0.00645248
0.0062901
0.00613223
0.00597795
0.00582811
0.00568347
0.00554452
0.00541349
0.00529036
0.0086215
0.00866501
0.00849942
0.00823647
0.00795606
0.00768468
0.00743361
0.00720712
0.00700386
0.00681688
0.00663913
0.00646748
0.00630052
0.0061367
0.00597455
0.00581302
0.00565165
0.00549124
0.00533443
0.00518527
0.00903989
0.00916607
0.00886318
0.00844694
0.00807978
0.00776109
0.00748245
0.00724183
0.00702896
0.00683395
0.00664993
0.00647348
0.0063023
0.00613416
0.00596695
0.00579874
0.00562785
0.00545399
0.00528281
0.00513619
0.00996538
0.00993367
0.00920545
0.00849494
0.00804859
0.00773262
0.0074737
0.00724601
0.00704136
0.00685288
0.00667503
0.00650391
0.00633632
0.00617051
0.00600543
0.0058393
0.00566936
0.00549308
0.00532365
0.00522951
0.010682
0.00994813
0.00885524
0.00818928
0.0077867
0.00751299
0.00730186
0.00711571
0.00694143
0.00677431
0.00661187
0.00645244
0.00629464
0.00613807
0.00598306
0.00582967
0.00567577
0.00551743
0.00534258
0.00511131
0.0178608
0.0107463
0.00845491
0.00791708
0.00764272
0.0074205
0.00723384
0.00706737
0.00690616
0.00674663
0.00658885
0.00643257
0.00627648
0.00611943
0.00596129
0.00580099
0.00563819
0.00546678
0.00524478
0.00482622
0.010682
0.00994814
0.00885525
0.00818929
0.00778671
0.007513
0.00730187
0.00711572
0.00694143
0.00677431
0.00661187
0.00645245
0.00629464
0.00613806
0.00598303
0.00582967
0.00567579
0.0055175
0.00534275
0.00511178
0.0103337
0.00948223
0.00871797
0.00815885
0.00778273
0.00751478
0.00729923
0.0071065
0.00692837
0.00676033
0.00659762
0.00643822
0.00628194
0.00612895
0.00597954
0.00583433
0.00569481
0.005566
0.00546557
0.00542481
0.00992447
0.00916174
0.00854299
0.00809168
0.00774775
0.0074788
0.00725932
0.00707075
0.00690331
0.00674648
0.0065918
0.00643811
0.00628657
0.00613855
0.00599606
0.00586248
0.00574307
0.00564556
0.00558805
0.005597
0.00979024
0.00904905
0.00846089
0.00805279
0.00773086
0.00746417
0.0072427
0.00705217
0.0068816
0.00672521
0.00657587
0.00642689
0.00627773
0.00613067
0.00598863
0.00585481
0.00573306
0.00562788
0.00554508
0.005495
0.00979021
0.00904903
0.00846084
0.00805272
0.00773076
0.00746402
0.00724245
0.00705175
0.0068809
0.00672407
0.00657398
0.00642376
0.00627258
0.00612224
0.0059745
0.00583074
0.00569292
0.00556185
0.00543773
0.00532618
0.0099244
0.00916166
0.00854289
0.00809155
0.00774754
0.00747846
0.00725875
0.00706978
0.00690168
0.00674381
0.00658742
0.00643098
0.00627496
0.00611955
0.0059644
0.00580891
0.0056525
0.00549548
0.00534055
0.00519662
0.0103337
0.00948216
0.00871788
0.00815873
0.00778253
0.00751442
0.00729864
0.00710552
0.00692677
0.00675769
0.00659325
0.0064311
0.00627042
0.00611022
0.00594876
0.00578346
0.00560972
0.0054219
0.00521423
0.00497518
0.010682
0.0099481
0.0088552
0.00818922
0.0077866
0.00751282
0.00730156
0.00711521
0.00694057
0.00677287
0.00660952
0.00644859
0.00628806
0.00612669
0.00596405
0.00579851
0.0056248
0.00542761
0.00516327
0.00472574
0.0178608
0.0107463
0.0084549
0.00791707
0.00764271
0.00742049
0.00723383
0.00706737
0.00690616
0.00674662
0.00658884
0.00643256
0.00627646
0.00611943
0.0059613
0.00580098
0.00563816
0.00546672
0.00524464
0.0048259
0.00558189
0.00490487
0.00448944
0.00436626
0.00426556
0.00413344
0.00399891
0.00386719
0.00373627
0.00360575
0.00347521
0.00334545
0.00321644
0.00308791
0.00295927
0.00283104
0.00270422
0.00257841
0.00245468
0.00233179
0.00220992
0.00208893
0.00196915
0.00185069
0.00173321
0.00161696
0.00150113
0.00138619
0.00127201
0.0011588
0.0010472
0.000936066
0.000824911
0.00071367
0.000603616
0.000494778
0.000385568
0.000275407
0.000166868
5.13384e-05
0.00554813
0.00495957
0.00456096
0.00441251
0.00429344
0.0041576
0.00402058
0.00388565
0.00375125
0.00361696
0.00348274
0.00334955
0.00321702
0.00308538
0.00295451
0.00282482
0.00269703
0.00257065
0.00244652
0.0023235
0.0022016
0.00208124
0.00196257
0.00184483
0.00172765
0.00161136
0.00149548
0.00138058
0.00126652
0.00115354
0.00104215
0.000931383
0.000820663
0.000709755
0.000600049
0.000491641
0.00038273
0.000273067
0.000164524
5.07352e-05
0.00520476
0.0049432
0.00466777
0.0044784
0.00433154
0.00418756
0.00404302
0.00390066
0.0037605
0.00362199
0.00348444
0.00334886
0.00321437
0.00308148
0.00295045
0.00282095
0.00269316
0.00256683
0.00244238
0.0023189
0.00219695
0.00207629
0.00195725
0.00183926
0.00172186
0.00160558
0.00148976
0.00137506
0.0012614
0.00114877
0.00103743
0.000927137
0.000816874
0.00070663
0.00059756
0.000489185
0.00038026
0.000270815
0.000162839
4.98255e-05
0.00498522
0.00487561
0.00470482
0.00452982
0.00437208
0.00422086
0.00407173
0.00392505
0.00378109
0.00363975
0.00350019
0.003363
0.00322814
0.00309526
0.00296403
0.00283433
0.00270617
0.0025793
0.00245392
0.00232938
0.00220588
0.00208287
0.00196106
0.00184125
0.00172293
0.00160597
0.00149012
0.00137548
0.00126181
0.00114907
0.00103693
0.000925947
0.000815271
0.000705118
0.000596425
0.000488059
0.000379098
0.000270051
0.00016244
4.942e-05
0.00486769
0.00480837
0.0046851
0.00452832
0.00437143
0.00421913
0.00406998
0.00392363
0.00377998
0.00363848
0.00349963
0.0033633
0.00322939
0.00309754
0.00296715
0.00283809
0.00271035
0.00258388
0.00245864
0.00233455
0.00221176
0.00209016
0.00196948
0.00184978
0.00173119
0.00161386
0.00149779
0.00138293
0.00126918
0.00115604
0.00104302
0.000930616
0.000818919
0.00070837
0.000599377
0.000490459
0.00038082
0.000271059
0.000162862
4.94744e-05
0.00493646
0.00483792
0.00468592
0.00452289
0.00436376
0.00420953
0.00405883
0.00391273
0.00377138
0.00363297
0.00349642
0.00336138
0.00322834
0.00309708
0.00296724
0.00283871
0.00271142
0.00258535
0.0024605
0.00233684
0.00221438
0.0020931
0.00197301
0.00185397
0.00173562
0.00161788
0.00150099
0.00138552
0.00127154
0.0011585
0.00104619
0.00093473
0.000823914
0.000713826
0.000604462
0.000494885
0.000384541
0.000273622
0.000164323
5.04318e-05
0.00504065
0.00488397
0.00469715
0.00451896
0.0043539
0.00419714
0.00404602
0.00390129
0.00376144
0.00362448
0.00348937
0.00335595
0.00322401
0.00309333
0.00296411
0.00283624
0.00270957
0.00258398
0.00245958
0.00233635
0.00221422
0.00209324
0.00197325
0.00185418
0.0017357
0.00161809
0.00150138
0.00138613
0.00127228
0.00115959
0.00104809
0.000936865
0.000825473
0.000714833
0.000605665
0.000496615
0.000386811
0.00027633
0.000166686
5.20249e-05
0.00520589
0.00497387
0.00472017
0.00451218
0.00433602
0.00417615
0.00402666
0.00388402
0.00374588
0.00361085
0.00347781
0.00334623
0.00321521
0.00308516
0.00295675
0.00282963
0.0027037
0.0025787
0.00245479
0.00233207
0.00221039
0.0020899
0.00197006
0.0018515
0.00173433
0.00161845
0.0015033
0.00138877
0.00127505
0.00116233
0.00105097
0.000939699
0.000827891
0.000716854
0.00060767
0.000498823
0.000389365
0.000278922
0.000168559
5.31879e-05
0.0054269
0.00503978
0.00468449
0.00445605
0.00428145
0.00412719
0.00398514
0.00385074
0.00372033
0.00359132
0.0034628
0.00333506
0.00320866
0.00308273
0.00295636
0.00282962
0.00270378
0.00257869
0.00245478
0.0023322
0.00221035
0.00208957
0.00196961
0.00185144
0.00173471
0.00161941
0.00150441
0.0013897
0.00127559
0.00116236
0.00105078
0.000939515
0.000827817
0.000716584
0.000606938
0.000497351
0.000387633
0.000277574
0.000167235
5.26487e-05
0.00561554
0.00498497
0.00453299
0.00435778
0.00423763
0.00410258
0.00396946
0.00384249
0.00371724
0.00359195
0.00346581
0.0033402
0.00321605
0.00309156
0.00296551
0.00283858
0.00271244
0.00258722
0.0024634
0.00234081
0.00221848
0.0020968
0.00197602
0.00185706
0.00173969
0.00162339
0.00150772
0.00139265
0.00127821
0.00116476
0.00105305
0.000941735
0.000830087
0.0007187
0.000608695
0.000498592
0.000388629
0.000278831
0.000168631
5.33171e-05
0.00558166
0.00490464
0.00448978
0.00436738
0.00426614
0.00413234
0.00399715
0.00386601
0.00373551
0.00360543
0.00347489
0.00334523
0.00321682
0.00308821
0.00295954
0.00283117
0.00270421
0.00257852
0.00245443
0.00233173
0.00220952
0.00208848
0.00196875
0.00185043
0.00173335
0.00161704
0.00150139
0.0013864
0.00127214
0.00115889
0.00104727
0.000936192
0.000824947
0.000713917
0.000604229
0.000494489
0.000384951
0.000275375
0.000166772
5.12316e-05
0.00561593
0.00498541
0.00453268
0.00435648
0.00423661
0.00410335
0.00397121
0.0038439
0.00371819
0.00359248
0.0034663
0.00334064
0.00321593
0.00309148
0.00296538
0.00283856
0.00271246
0.00258712
0.00246362
0.00234081
0.00221878
0.00209706
0.0019762
0.00185706
0.0017394
0.00162323
0.00150744
0.00139243
0.00127806
0.00116463
0.00105289
0.000941519
0.000829984
0.000718352
0.000607907
0.000498712
0.000389204
0.00027877
0.000168551
5.33275e-05
0.00532016
0.0049352
0.00462992
0.00443684
0.00428309
0.00413849
0.00400207
0.00387089
0.00374099
0.00361113
0.00348104
0.00335182
0.00322269
0.0030942
0.00296615
0.00283876
0.00271233
0.00258701
0.00246349
0.00234064
0.00221951
0.00209852
0.00197824
0.00185914
0.00174087
0.00162438
0.00150817
0.00139294
0.0012786
0.00116516
0.00105325
0.000941899
0.000830217
0.000718739
0.000608419
0.000498919
0.000389383
0.000279066
0.000169603
5.38718e-05
0.00510527
0.00488012
0.00465088
0.00445502
0.00429453
0.00414894
0.00400881
0.0038726
0.00373863
0.00360581
0.00347393
0.00334271
0.00321263
0.00308364
0.00295557
0.00282855
0.00270235
0.00257761
0.00245408
0.0023314
0.00220982
0.00208891
0.00196898
0.00185033
0.00173256
0.00161606
0.00150064
0.00138606
0.00127256
0.00115997
0.00104769
0.000936082
0.000824579
0.000714021
0.000604915
0.000495577
0.000385469
0.000275319
0.00016666
5.24496e-05
0.00484724
0.00470484
0.00458892
0.00444257
0.00429591
0.00415713
0.00402026
0.00388428
0.0037496
0.00361585
0.00348332
0.00335156
0.00322097
0.00309136
0.00296262
0.00283498
0.00270842
0.0025832
0.00245891
0.00233589
0.00221362
0.0020922
0.00197177
0.00185294
0.00173541
0.00161842
0.00150262
0.00138771
0.00127377
0.00116058
0.00104766
0.000935154
0.000823426
0.000712916
0.00060358
0.000494134
0.000384315
0.000274714
0.000166177
5.30526e-05
0.00484319
0.00468902
0.00457748
0.0044437
0.00430138
0.00416305
0.00402607
0.00388947
0.00375396
0.00361975
0.00348693
0.00335511
0.00322416
0.00309423
0.00296544
0.00283783
0.00271146
0.00258628
0.00246213
0.00233914
0.00221698
0.00209566
0.00197546
0.00185649
0.0017385
0.00162127
0.00150536
0.00139081
0.00127711
0.00116374
0.0010507
0.000938101
0.000826598
0.000715954
0.000605652
0.000495311
0.000384692
0.000274338
0.000165302
5.33979e-05
0.00490162
0.0047468
0.00461792
0.00447607
0.00432928
0.00418542
0.00404387
0.00390363
0.00376492
0.00362813
0.00349331
0.00336017
0.00322839
0.0030978
0.00296851
0.00284054
0.00271381
0.00258834
0.00246399
0.00234073