/*--------------------------------*- C++ -*----------------------------------*\
| =========                 |                                                 |
| \\      /  F ield         | OpenFOAM: The Open Source CFD Toolbox           |
|  \\    /   O peration     | Version:  2212                                  |
|   \\  /    A nd           | Website:  www.openfoam.com                      |
|    \\/     M anipulation  |                                                 |
\*---------------------------------------------------------------------------*/
FoamFile
{
    version     2.0;
    format      ascii;
    arch        "LSB;label=32;scalar=64";
    class       surfaceVectorField;
    location    "2.65";
    object      Uf;
}
// * * * * * * * * * * * * * * * * * * * * * * * * * * * * * * * * * * * * * //

dimensions      [0 1 -1 0 0 0 0];

internalField   nonuniform List<vector> 
19019
(
(0.0993441 -0.00341899 -0.00341904)
(0.0973536 0.00106248 -0.00148428)
(0.0973536 -0.00148428 0.00106246)
(0.0834792 0.00197593 0.0019758)
(0.0930872 0.00326904 0.00253343)
(0.0930872 0.00253351 0.00326891)
(0.0745173 0.00195885 0.00195858)
(0.0848641 0.00163593 0.00179229)
(0.0848641 0.00179244 0.0016357)
(0.068548 0.00115933 0.00115882)
(0.0786283 0.00107368 0.00122124)
(0.0786282 0.00122157 0.00107326)
(0.0642365 0.00069741 0.000696546)
(0.0740535 0.00078568 0.000864941)
(0.0740533 0.000865488 0.000784857)
(0.0607573 0.000495639 0.000493964)
(0.0704432 0.00065106 0.000669046)
(0.0704429 0.000669975 0.000649742)
(0.0579383 0.000376353 0.000373275)
(0.0674929 0.000547842 0.000508064)
(0.0674922 0.000509913 0.000545227)
(0.0556155 0.000290528 0.000285423)
(0.0650529 0.000470751 0.000386739)
(0.0650517 0.000389789 0.000466231)
(0.0536272 0.000231188 0.000222836)
(0.0629694 0.000418367 0.000306738)
(0.0629672 0.00031169 0.000410743)
(0.0518837 0.000190147 0.000176244)
(0.0611373 0.000377972 0.000253223)
(0.0611335 0.000261327 0.000365172)
(0.0503365 0.000162717 0.000139656)
(0.0594979 0.000343282 0.000216436)
(0.0594911 0.000230764 0.000321747)
(0.0489537 0.000145041 0.000108232)
(0.0580184 0.000313707 0.000190029)
(0.0580063 0.000213901 0.000278104)
(0.0477064 0.00013478 7.74597e-05)
(0.0566729 0.000292447 0.000170705)
(0.0566519 0.000205347 0.000234629)
(0.046575 0.000132436 4.24981e-05)
(0.055441 0.000281611 0.000155606)
(0.0554065 0.000202375 0.000186582)
(0.0455656 0.000140435 6.30722e-06)
(0.0543195 0.000280069 0.00013565)
(0.0542627 0.000207986 0.000123551)
(0.044689 0.000163518 -4.89651e-05)
(0.0533207 0.00028887 0.00011071)
(0.0532242 0.000222738 4.11506e-05)
(0.0439933 0.000200716 -0.000169339)
(0.0524899 0.00031574 5.44386e-05)
(0.0523162 0.000258434 -8.19287e-05)
(0.0437687 0.000216798 -0.000379754)
(0.0519761 0.000365231 -9.2087e-05)
(0.0516418 0.000273672 -0.000336777)
(0.0446591 -0.000756217 -0.00185987)
(0.0523185 0.000387441 -0.000330377)
(0.0516334 0.000192572 -0.000839934)
(0.0509708 -0.000821393 -0.00201331)
(0.0506521 -0.00170669 -0.00381369)
(0.0984572 0.00247648 0.00172987)
(0.0996871 0.000439237 0.000345475)
(0.100049 0.00105639 0.000750957)
(0.0958349 0.00314813 0.00243261)
(0.0978162 0.00273282 0.00228225)
(0.0982936 0.00280925 0.0021614)
(0.0914501 0.00223045 0.00186919)
(0.0954961 0.00300175 0.00230303)
(0.096304 0.00244273 0.00199769)
(0.0875956 0.00167484 0.00150531)
(0.0926194 0.00229943 0.00183862)
(0.093667 0.00198084 0.00172678)
(0.0841483 0.00144042 0.00127546)
(0.0897679 0.00189202 0.00153548)
(0.090905 0.00171993 0.00149759)
(0.0811888 0.00126605 0.00102845)
(0.0872332 0.00165663 0.00129448)
(0.088435 0.00145491 0.00121141)
(0.078703 0.00111131 0.000793556)
(0.0850085 0.00149226 0.00107693)
(0.0863058 0.00118416 0.00090816)
(0.0765596 0.000994034 0.000624655)
(0.0830641 0.00137189 0.000913036)
(0.0844823 0.000984136 0.000690009)
(0.074656 0.000908356 0.000517423)
(0.08133 0.00127905 0.000801322)
(0.082883 0.000847106 0.000547505)
(0.0729317 0.000836369 0.000451271)
(0.0797554 0.00119486 0.000726007)
(0.0814526 0.000747782 0.000453519)
(0.0713519 0.000767927 0.000410056)
(0.0783131 0.00111338 0.000678499)
(0.0801598 0.000667885 0.000387798)
(0.069896 0.000704363 0.000384493)
(0.0769827 0.00103411 0.000649135)
(0.078979 0.000599937 0.000338863)
(0.0685485 0.000651663 0.000371231)
(0.0757477 0.000958002 0.000631843)
(0.0778926 0.000546472 0.000303429)
(0.0673003 0.000610221 0.000362568)
(0.0745989 0.000885206 0.000623096)
(0.0768945 0.000507427 0.000276181)
(0.0661592 0.000576499 0.000342698)
(0.0735383 0.000813775 0.000613613)
(0.0759858 0.000479175 0.000240928)
(0.0651593 0.000534694 0.000293809)
(0.0725855 0.000738704 0.000588029)
(0.0751786 0.00045957 0.000183286)
(0.0644011 0.000448784 0.000147523)
(0.0717977 0.000628201 0.000528122)
(0.0745126 0.000428223 7.56156e-05)
(0.064211 0.000294251 -0.000146307)
(0.071304 0.000385194 0.000322636)
(0.074082 0.000344424 -0.000184504)
(0.0652966 -2.91193e-05 -0.000503691)
(0.071437 -0.000133897 -5.31173e-05)
(0.0741075 6.20995e-05 -0.000822225)
(0.069967 -0.00167864 -0.00075963)
(0.0728691 -0.00106264 -0.00275824)
(0.0993753 0.00118214 0.00107253)
(0.099473 0.000349757 0.000307055)
(0.0997475 0.000610985 0.000779865)
(0.0984949 0.0022961 0.00203184)
(0.0990504 0.0015768 0.00172044)
(0.0995971 0.00201832 0.00200282)
(0.0971415 0.00247652 0.00204848)
(0.0983579 0.00213107 0.00216879)
(0.0992974 0.00246155 0.00210228)
(0.09544 0.00224702 0.0017672)
(0.0971937 0.00203572 0.00200229)
(0.0984886 0.00237453 0.0019024)
(0.0937518 0.00202051 0.00152221)
(0.095906 0.00185546 0.00175421)
(0.0974229 0.00218095 0.00168841)
(0.0921399 0.00186418 0.00134429)
(0.0946732 0.00173237 0.00154248)
(0.0963106 0.00198481 0.00150792)
(0.0906045 0.00175348 0.0012146)
(0.0934842 0.00165202 0.00138627)
(0.0952063 0.00180166 0.00134216)
(0.0891563 0.00165518 0.00111333)
(0.0923723 0.00157556 0.0012653)
(0.0941511 0.00164462 0.00120289)
(0.0878124 0.00154969 0.0010315)
(0.0913388 0.00147922 0.00117163)
(0.093171 0.00150468 0.00109442)
(0.0865747 0.00143919 0.000970374)
(0.0903539 0.00136721 0.00110286)
(0.09227 0.00137478 0.00101169)
(0.0854293 0.00133167 0.000930523)
(0.0894307 0.00125326 0.00105696)
(0.0914487 0.00125693 0.000953741)
(0.0843616 0.00122942 0.00090718)
(0.0885627 0.00114027 0.00102863)
(0.0906996 0.0011523 0.000915001)
(0.0833624 0.00112861 0.000894671)
(0.0877389 0.00102843 0.00101367)
(0.0900135 0.00105776 0.000888776)
(0.0824313 0.00102221 0.000886423)
(0.0869544 0.000913597 0.00100761)
(0.0893869 0.00096751 0.000869036)
(0.0815798 0.000898908 0.000871321)
(0.0862107 0.000785476 0.00100399)
(0.088823 0.000873307 0.000848722)
(0.0808467 0.000739799 0.00083489)
(0.0855194 0.000619594 0.000991271)
(0.0883353 0.000761901 0.00081224)
(0.0802889 0.000489875 0.000734343)
(0.0849078 0.000387154 0.000958379)
(0.0879493 0.000611366 0.000736458)
(0.0799731 1.92703e-05 0.000522338)
(0.0844127 2.80345e-05 0.000870221)
(0.0876959 0.000362182 0.000562558)
(0.0799899 -0.00108773 6.7782e-05)
(0.0840653 -0.000579458 0.000720598)
(0.087585 -9.66677e-05 0.000270708)
(0.0833672 -0.0017386 0.000439463)
(0.0872563 -0.00118799 -0.000302725)
(0.0996493 0.000650259 0.000931407)
(0.0994625 0.000129354 0.000192486)
(0.0997993 0.000375112 0.000741356)
(0.0990855 0.00127879 0.00182766)
(0.0992626 0.000636779 0.00137059)
(0.099841 0.00115031 0.0018142)
(0.0984495 0.00154054 0.00210298)
(0.098913 0.00097321 0.00200352)
(0.0999049 0.00153635 0.00209008)
(0.0977082 0.00154648 0.00198882)
(0.0982953 0.00104968 0.0020506)
(0.0997677 0.00163144 0.00202287)
(0.0969404 0.00147939 0.00177599)
(0.0976578 0.00100684 0.0018996)
(0.0995101 0.00160915 0.00189548)
(0.0962095 0.00142604 0.00158203)
(0.0970655 0.000958891 0.00169831)
(0.0992007 0.00154683 0.00175146)
(0.095525 0.00139071 0.00143503)
(0.096507 0.000931125 0.0015208)
(0.0988567 0.00147336 0.00162562)
(0.0948771 0.00134963 0.00132864)
(0.0959948 0.000913143 0.00137935)
(0.0985142 0.00139082 0.00151479)
(0.0942452 0.00128689 0.0012578)
(0.0955274 0.00089616 0.0012788)
(0.0981829 0.00129605 0.00141932)
(0.0936227 0.00119958 0.00121163)
(0.0950744 0.000859058 0.00121725)
(0.0978397 0.00118866 0.00134262)
(0.0930133 0.00109573 0.00118155)
(0.0946215 0.000794128 0.001185)
(0.0975079 0.00107765 0.00128906)
(0.0924165 0.00098347 0.00116464)
(0.0941686 0.000714778 0.00117231)
(0.0971906 0.000967643 0.00125356)
(0.0918299 0.00086497 0.00115855)
(0.093711 0.00062809 0.00117206)
(0.0968849 0.000858822 0.00123187)
(0.0912518 0.00073519 0.00115965)
(0.0932401 0.000531351 0.00118199)
(0.0965896 0.00074643 0.00122148)
(0.0906814 0.000575349 0.00116264)
(0.0927506 0.000417029 0.00120243)
(0.0963057 0.000621174 0.00121899)
(0.0901211 0.000357748 0.00116164)
(0.0922367 0.000262098 0.00123349)
(0.0960337 0.000463103 0.00121923)
(0.0895761 4.48237e-05 0.00115455)
(0.0916934 4.15214e-05 0.00127693)
(0.0957741 0.000251089 0.00121633)
(0.0890361 -0.000418879 0.00114873)
(0.0911055 -0.000281099 0.00133733)
(0.0955258 -4.92326e-05 0.00120964)
(0.0884348 -0.00111721 0.00118646)
(0.0904334 -0.000745312 0.00142387)
(0.0952654 -0.0004774 0.00121262)
(0.089629 -0.00147695 0.0015847)
(0.0949793 -0.00107474 0.00130338)
(0.0996725 0.000153995 0.000629461)
(0.0993802 -2.11908e-08 5.89554e-05)
(0.0997132 0.000103894 0.00068794)
(0.0991591 0.000353148 0.00154422)
(0.0992677 -9.9283e-08 0.00120002)
(0.0998377 0.000341527 0.00162227)
(0.0986637 0.000457471 0.00194744)
(0.0989804 -2.2509e-07 0.00188847)
(0.0999631 0.000485245 0.00199136)
(0.0982125 0.000480361 0.00196052)
(0.0984747 -4.01135e-07 0.00200646)
(0.099992 0.000539229 0.00199659)
(0.0977767 0.000470769 0.00182462)
(0.0979956 -6.83804e-07 0.0019147)
(0.10001 0.000545684 0.00191096)
(0.0973634 0.000456658 0.00164089)
(0.0975708 -1.18069e-06 0.00173481)
(0.100008 0.000532226 0.00180415)
(0.0969957 0.000443178 0.0014678)
(0.0971807 -2.0556e-06 0.00154744)
(0.099982 0.000509293 0.0016827)
(0.0966758 0.00043171 0.00132918)
(0.0968303 -3.49317e-06 0.0013889)
(0.0999404 0.000481365 0.00157234)
(0.0963961 0.000419471 0.00123469)
(0.0965289 -5.905e-06 0.00127077)
(0.0999007 0.000454918 0.00148109)
(0.0961312 0.000398309 0.00118602)
(0.0962721 -9.89049e-06 0.00120097)
(0.0998687 0.000426733 0.00141821)
(0.0958537 0.000363616 0.00117205)
(0.0959937 -1.64794e-05 0.00117515)
(0.099816 0.000389706 0.00137959)
(0.095551 0.000315971 0.00117714)
(0.0956928 -2.73406e-05 0.00117577)
(0.0997484 0.000343467 0.00135472)
(0.0952152 0.000255049 0.00119381)
(0.095365 -4.5317e-05 0.00119015)
(0.0996644 0.000289449 0.00134464)
(0.0948376 0.000177906 0.00122418)
(0.0949927 -7.53919e-05 0.00121872)
(0.0995534 0.000224607 0.00135307)
(0.0944096 7.42587e-05 0.00127447)
(0.0945624 -0.00012619 0.00126994)
(0.0994106 0.000143372 0.0013812)
(0.0939142 -7.71527e-05 0.00135266)
(0.0940529 -0.000209203 0.00135077)
(0.0992302 3.45643e-05 0.0014323)
(0.0933304 -0.000309299 0.00146641)
(0.0934362 -0.000350967 0.00147603)
(0.0990019 -0.000121439 0.00151648)
(0.0926233 -0.000669497 0.00161884)
(0.0926608 -0.000571644 0.00166342)
(0.0987045 -0.000352581 0.00164271)
(0.0917953 -0.00129089 0.00181824)
(0.091652 -0.000966401 0.00191865)
(0.0983101 -0.000692818 0.00180879)
(0.0905728 -0.00167137 0.00229515)
(0.0979279 -0.00124001 0.00203033)
(0.0996725 -0.000154113 0.000629513)
(0.0994625 -0.000129395 0.000192518)
(0.0997132 -0.000103944 0.000687945)
(0.0991591 -0.000353456 0.00154426)
(0.0992625 -0.000636935 0.00137062)
(0.0998376 -0.000341723 0.00162229)
(0.0986636 -0.000458049 0.00194749)
(0.0989128 -0.000973508 0.0020036)
(0.099963 -0.000485629 0.00199137)
(0.0982121 -0.000481361 0.00196064)
(0.0982948 -0.00105018 0.00205074)
(0.0999917 -0.0005399 0.00199664)
(0.0977759 -0.000472509 0.00182489)
(0.0976569 -0.00100777 0.00189984)
(0.100009 -0.000546867 0.00191116)
(0.097362 -0.000459712 0.00164135)
(0.0970637 -0.000960592 0.00169874)
(0.100007 -0.000534294 0.00180456)
(0.0969931 -0.000448446 0.00146853)
(0.0965037 -0.000934147 0.00152139)
(0.0999802 -0.00051282 0.00168332)
(0.0966712 -0.000440637 0.00133049)
(0.0959892 -0.00091829 0.00138036)
(0.0999373 -0.000487288 0.00157337)
(0.0963883 -0.000434448 0.00123706)
(0.0955177 -0.000904918 0.00128084)
(0.0998955 -0.000464926 0.00148286)
(0.0961179 -0.000423243 0.0011901)
(0.0950578 -0.00087343 0.00122129)
(0.09986 -0.000443616 0.00142119)
(0.0958311 -0.000404881 0.00117887)
(0.0945933 -0.000817503 0.00119224)
(0.0998014 -0.000417862 0.00138439)
(0.0955124 -0.00038411 0.00118878)
(0.094121 -0.000752706 0.00118521)
(0.099724 -0.00038994 0.00136279)
(0.0951492 -0.000368062 0.00121505)
(0.0936304 -0.000690438 0.00119414)
(0.0996227 -0.000365135 0.00135917)
(0.0947244 -0.000366267 0.00126448)
(0.093103 -0.000635162 0.00122099)
(0.0994815 -0.000348026 0.00138019)
(0.0942149 -0.000386237 0.00134624)
(0.0925189 -0.000589067 0.00127421)
(0.0992922 -0.00034561 0.00143013)
(0.0935839 -0.000443259 0.00147414)
(0.0918447 -0.000550662 0.00136375)
(0.099037 -0.000361305 0.0015195)
(0.0927785 -0.000547779 0.00167304)
(0.0910309 -0.000539049 0.00151208)
(0.0986875 -0.000410809 0.00166873)
(0.0917164 -0.00076135 0.00196323)
(0.0899795 -0.000549503 0.00176191)
(0.0982044 -0.000491996 0.00190718)
(0.0902861 -0.00117421 0.00239555)
(0.0885747 -0.00064181 0.00210345)
(0.0975401 -0.000674825 0.00224152)
(0.0870221 -0.00106597 0.00296969)
(0.0969912 -0.00098685 0.00271572)
(0.0996493 -0.000650304 0.000931412)
(0.099473 -0.000349751 0.000307059)
(0.0997993 -0.000375122 0.000741356)
(0.0990854 -0.00127891 0.00182772)
(0.0990504 -0.00157678 0.00172048)
(0.0998409 -0.00115036 0.00181421)
(0.098449 -0.00154075 0.00210314)
(0.0983576 -0.00213104 0.00216896)
(0.0999046 -0.00153646 0.00209018)
(0.0977072 -0.00154691 0.00198908)
(0.097193 -0.00203567 0.00200258)
(0.0997671 -0.00163165 0.00202317)
(0.0969385 -0.00148028 0.00177639)
(0.0959046 -0.00185549 0.00175464)
(0.0995089 -0.00160958 0.00189604)
(0.096206 -0.00142765 0.00158257)
(0.0946707 -0.00173255 0.00154313)
(0.0991984 -0.00154763 0.00175232)
(0.095519 -0.0013934 0.00143585)
(0.0934798 -0.00165243 0.00138724)
(0.0988527 -0.00147477 0.00162686)
(0.0948667 -0.00135414 0.0013303)
(0.0923647 -0.00157613 0.00126692)
(0.0985073 -0.00139316 0.00151679)
(0.0942273 -0.00129423 0.00126136)
(0.0913256 -0.00148011 0.00117452)
(0.0981714 -0.00129994 0.00142267)
(0.0935923 -0.00121114 0.00121857)
(0.0903316 -0.0013685 0.00110818)
(0.0978203 -0.00119502 0.00134843)
(0.0929621 -0.00111387 0.00119441)
(0.0893933 -0.00125511 0.00106606)
(0.0974753 -0.00108772 0.00129921)
(0.0923304 -0.00101273 0.00118722)
(0.0884996 -0.00114291 0.00104489)
(0.0971358 -0.000983599 0.00127162)
(0.0916854 -0.000913356 0.00119715)
(0.0876331 -0.00103288 0.00104154)
(0.0967929 -0.000883879 0.0012638)
(0.0910084 -0.000814429 0.00122807)
(0.0867773 -0.000921828 0.00105528)
(0.0964376 -0.00078718 0.00127811)
(0.09027 -0.000709006 0.00128912)
(0.0859136 -0.000800087 0.00108892)
(0.0960559 -0.000688128 0.00132062)
(0.0894244 -0.000594111 0.00139815)
(0.0850168 -0.000651774 0.00114973)
(0.0956252 -0.000580372 0.00140455)
(0.088391 -0.000464375 0.00159397)
(0.084046 -0.000467556 0.00125474)
(0.0951119 -0.000461859 0.00155716)
(0.0870274 -0.000295292 0.00188709)
(0.0829072 -0.000189122 0.00143879)
(0.0944465 -0.000320428 0.0018285)
(0.0851387 -0.000342089 0.00264591)
(0.0814827 0.000209352 0.00172843)
(0.0935702 -0.000136073 0.00222516)
(0.0798338 0.000581856 0.00272528)
(0.0926913 -0.000261181 0.00335507)
(0.0993753 -0.00118209 0.00107257)
(0.0996871 -0.00043921 0.000345484)
(0.0997475 -0.000610957 0.000779888)
(0.0984947 -0.00229596 0.00203199)
(0.0978161 -0.00273268 0.00228232)
(0.0995971 -0.00201822 0.00200294)
(0.0971411 -0.00247627 0.00204878)
(0.0954959 -0.00300152 0.00230323)
(0.0992972 -0.00246135 0.00210258)
(0.0954391 -0.00224663 0.00176765)
(0.092619 -0.00229904 0.00183898)
(0.0984881 -0.00237416 0.00190291)
(0.0937499 -0.00201987 0.00152286)
(0.089767 -0.0018913 0.00153599)
(0.0974218 -0.00218037 0.00168918)
(0.0921366 -0.0018632 0.00134531)
(0.0872316 -0.00165544 0.0012953)
(0.0963087 -0.00198383 0.00150902)
(0.0905987 -0.00175193 0.0012163)
(0.0850056 -0.00149021 0.00107831)
(0.0952029 -0.00180016 0.00134392)
(0.0891463 -0.00165258 0.00111613)
(0.083059 -0.00136847 0.00091531)
(0.0941451 -0.00164224 0.00120589)
(0.0877954 -0.00154532 0.00103611)
(0.0813212 -0.0012733 0.000805087)
(0.0931606 -0.00150058 0.00109935)
(0.0865462 -0.00143192 0.000977827)
(0.0797405 -0.00118514 0.000732301)
(0.0922525 -0.00136779 0.00101992)
(0.0853815 -0.00131975 0.000943032)
(0.0782876 -0.00109676 0.000689669)
(0.0914193 -0.00124561 0.000967532)
(0.0842817 -0.00121043 0.000928862)
(0.0769386 -0.00100687 0.000668426)
(0.0906502 -0.00113374 0.000938568)
(0.0832295 -0.00109931 0.000932112)
(0.075673 -0.000915565 0.000661019)
(0.0899322 -0.00102734 0.000928637)
(0.08221 -0.000978155 0.000951987)
(0.0744754 -0.000818895 0.000664198)
(0.0892549 -0.000918249 0.000935723)
(0.0812076 -0.000835676 0.000991515)
(0.073333 -0.000706254 0.000682726)
(0.0886078 -0.000798054 0.000963257)
(0.0802051 -0.000658642 0.00105968)
(0.0722369 -0.00056073 0.000718819)
(0.0879809 -0.00065386 0.00101721)
(0.0791666 -0.000384883 0.00117024)
(0.0711832 -0.000359685 0.0007754)
(0.0873581 -0.000470352 0.00111167)
(0.0779961 9.33646e-05 0.00135968)
(0.0701778 2.10071e-05 0.000820221)
(0.0866999 -0.000179191 0.00127006)
(0.076445 0.000867935 0.00189903)
(0.0693208 0.000774968 0.000835498)
(0.0859486 0.000283094 0.00154753)
(0.0680051 0.0027812 0.00037857)
(0.0852554 0.000953142 0.00219923)
(0.0984572 -0.00247639 0.00172993)
(0.0973536 -0.00106246 -0.00148428)
(0.100049 -0.00105637 0.000750984)
(0.0958348 -0.00314793 0.00243275)
(0.0930872 -0.00326891 0.00253351)
(0.0982936 -0.00280912 0.00216155)
(0.09145 -0.00223011 0.00186946)
(0.0848641 -0.0016357 0.00179245)
(0.096304 -0.00244245 0.00199796)
(0.0875952 -0.0016742 0.00150574)
(0.0786282 -0.00107326 0.00122158)
(0.0936669 -0.00198036 0.00172727)
(0.0841476 -0.00143932 0.00127618)
(0.0740533 -0.000784858 0.000865492)
(0.0909047 -0.00171908 0.00149835)
(0.0811875 -0.00126414 0.0010297)
(0.0704429 -0.000649744 0.000669979)
(0.0884345 -0.00145349 0.00121278)
(0.0787006 -0.00110793 0.000795601)
(0.0674922 -0.000545231 0.000509916)
(0.0863049 -0.00118169 0.000910451)
(0.0765554 -0.00098822 0.000627995)
(0.0650516 -0.000466237 0.000389792)
(0.0844805 -0.000979924 0.000693802)
(0.0746487 -0.000898408 0.000522992)
(0.0629672 -0.000410754 0.000311691)
(0.0828799 -0.000839896 0.00055391)
(0.0729189 -0.000819402 0.000461419)
(0.0611334 -0.000365187 0.000261326)
(0.0814473 -0.000735455 0.000464454)
(0.0713291 -0.000739569 0.000428136)
(0.059491 -0.000321769 0.000230757)
(0.0801504 -0.000646442 0.000407744)
(0.0698558 -0.000658145 0.000411347)
(0.0580061 -0.000278133 0.000213888)
(0.078962 -0.000564843 0.000372296)
(0.0684801 -0.000575735 0.000404008)
(0.0566516 -0.000234675 0.000205346)
(0.0778631 -0.000492071 0.000353234)
(0.0671886 -0.000482595 0.00040685)
(0.0554063 -0.000186604 0.000202362)
(0.0768463 -0.000421923 0.000347044)
(0.0659723 -0.00035732 0.000421529)
(0.0542621 -0.000123538 0.000207975)
(0.0759062 -0.000336911 0.000357497)
(0.0648398 -0.000177795 0.000446586)
(0.0532235 -4.11689e-05 0.000222756)
(0.0750438 -0.000219103 0.000386717)
(0.0638177 0.000116427 0.000452984)
(0.0523153 8.18879e-05 0.000258469)
(0.0742703 -4.57435e-05 0.000434137)
(0.0630468 0.000692858 0.000378796)
(0.0516404 0.000336722 0.000273742)
(0.073616 0.000269133 0.000451758)
(0.0629592 0.00240025 -0.000393145)
(0.0516314 0.000839971 0.000192717)
(0.0731534 0.00094235 0.000286074)
(0.0506493 0.00381382 -0.00170634)
(0.0724233 0.00298817 -0.00108303)
(0.0993441 0.00341904 -0.00341899)
(0.0973536 0.00148428 0.00106248)
(0.0834792 -0.0019758 0.00197593)
(0.0930872 -0.00253343 0.00326904)
(0.0745173 -0.00195858 0.00195885)
(0.0848641 -0.00179228 0.00163593)
(0.068548 -0.00115882 0.00115933)
(0.0786283 -0.00122124 0.00107369)
(0.0642365 -0.000696547 0.000697413)
(0.0740535 -0.00086494 0.000785684)
(0.0607573 -0.000493966 0.000495642)
(0.0704432 -0.000669046 0.000651065)
(0.0579383 -0.000373278 0.000376355)
(0.0674929 -0.000508065 0.000547846)
(0.0556155 -0.000285429 0.000290528)
(0.0650528 -0.000386741 0.000470755)
(0.0536271 -0.000222844 0.000231185)
(0.0629693 -0.000306741 0.000418369)
(0.0518836 -0.000176256 0.00019014)
(0.0611372 -0.000253227 0.000377972)
(0.0503363 -0.00013967 0.000162702)
(0.0594977 -0.000216442 0.00034328)
(0.0489536 -0.000108253 0.000145029)
(0.0580182 -0.000190037 0.000313704)
(0.0477061 -7.74741e-05 0.000134769)
(0.0566726 -0.00017072 0.000292459)
(0.0465746 -4.24744e-05 0.00013241)
(0.0554408 -0.000155629 0.000281648)
(0.0455651 -6.2808e-06 0.000140425)
(0.054319 -0.000135653 0.000280129)
(0.0446883 4.89608e-05 0.000163538)
(0.05332 -0.000110731 0.000288968)
(0.0439923 0.000169324 0.000200751)
(0.0524889 -5.44615e-05 0.000315851)
(0.0437673 0.000379779 0.000216873)
(0.0519748 9.20603e-05 0.000365346)
(0.0446572 0.00185988 -0.000755974)
(0.0523168 0.000330351 0.000387695)
(0.0509684 0.00201309 -0.000820814)
(0.0984572 0.00172992 0.00247639)
(0.100049 0.000750983 0.00105637)
(0.0996871 0.000345484 0.00043921)
(0.0958348 0.00243275 0.00314793)
(0.0982936 0.00216155 0.00280912)
(0.0978161 0.00228232 0.00273268)
(0.09145 0.00186946 0.00223011)
(0.096304 0.00199796 0.00244245)
(0.0954959 0.00230323 0.00300152)
(0.0875952 0.00150573 0.0016742)
(0.0936669 0.00172726 0.00198036)
(0.092619 0.00183898 0.00229904)
(0.0841476 0.00127617 0.00143932)
(0.0909047 0.00149834 0.00171907)
(0.089767 0.00153599 0.0018913)
(0.0811876 0.00102969 0.00126414)
(0.0884345 0.00121278 0.00145349)
(0.0872316 0.0012953 0.00165543)
(0.0787007 0.000795596 0.00110792)
(0.0863049 0.000910444 0.00118168)
(0.0850056 0.00107831 0.00149021)
(0.0765555 0.000627991 0.000988207)
(0.0844805 0.000693793 0.000979915)
(0.083059 0.000915307 0.00136846)
(0.0746487 0.000522987 0.000898387)
(0.0828799 0.0005539 0.000839881)
(0.0813212 0.000805084 0.00127328)
(0.0729191 0.000461417 0.000819372)
(0.0814474 0.000464443 0.000735434)
(0.0797406 0.000732299 0.00118511)
(0.0713293 0.000428138 0.000739526)
(0.0801505 0.000407734 0.000646412)
(0.0782877 0.000689672 0.00109672)
(0.069856 0.000411347 0.000658083)
(0.0789622 0.000372277 0.000564796)
(0.0769387 0.000668431 0.00100683)
(0.0684804 0.000403998 0.000575649)
(0.0778634 0.000353159 0.000491964)
(0.0756732 0.000661029 0.000915521)
(0.0671891 0.000406819 0.000482508)
(0.0768466 0.000346995 0.000421837)
(0.0744756 0.000664175 0.000818798)
(0.065973 0.000421478 0.000357231)
(0.0759068 0.000357469 0.000336923)
(0.0733336 0.00068264 0.000706101)
(0.0648408 0.000446514 0.000177668)
(0.0750445 0.000386622 0.000219022)
(0.0722377 0.000718707 0.000560541)
(0.0638191 0.000452856 -0.000116607)
(0.0742713 0.000433997 4.559e-05)
(0.0711843 0.000775231 0.000359438)
(0.0630489 0.000378546 -0.000693079)
(0.0736174 0.000451537 -0.000269351)
(0.0701794 0.00081991 -2.13384e-05)
(0.0629623 -0.000393617 -0.00240041)
(0.0731554 0.000285711 -0.000942608)
(0.0693233 0.000834924 -0.000775391)
(0.0724262 -0.00108388 -0.00298868)
(0.068009 0.000377836 -0.00278152)
(0.10008 0.0013518 0.00135171)
(0.100186 0.000798773 0.000804928)
(0.100186 0.000804966 0.000798735)
(0.100264 0.00221738 0.00221714)
(0.10019 0.0023119 0.00207138)
(0.10019 0.00207153 0.00231175)
(0.0993829 0.00243593 0.00243547)
(0.100307 0.0026338 0.00245287)
(0.100306 0.00245325 0.00263351)
(0.0979841 0.00231056 0.0023098)
(0.0998051 0.00256059 0.00245562)
(0.0998049 0.00245626 0.00256006)
(0.0964951 0.00200677 0.00200549)
(0.098863 0.00236478 0.00228047)
(0.0988626 0.00228145 0.00236394)
(0.0950729 0.00159803 0.00159587)
(0.0978412 0.00204974 0.0019674)
(0.0978405 0.00196893 0.00204824)
(0.0937758 0.00122803 0.00122444)
(0.096862 0.00169238 0.00160359)
(0.0968609 0.00160605 0.00168994)
(0.0926185 0.000964989 0.00095889)
(0.0959606 0.00140642 0.00131971)
(0.0959586 0.00132391 0.00140241)
(0.0915955 0.000782844 0.000772394)
(0.0951499 0.00119471 0.00111563)
(0.0951465 0.00112279 0.00118779)
(0.0906909 0.000654361 0.000635988)
(0.0944292 0.0010371 0.000966932)
(0.0944233 0.000979069 0.00102526)
(0.0898848 0.000561836 0.000530879)
(0.0937939 0.000917676 0.000855476)
(0.0937841 0.000876647 0.000897556)
(0.0891579 0.000496434 0.000448346)
(0.0932307 0.000826081 0.000770561)
(0.0932143 0.000805325 0.000793251)
(0.0885011 0.000452197 0.000380011)
(0.092729 0.000755586 0.000704085)
(0.0927027 0.000758336 0.000703847)
(0.0879147 0.000423667 0.000309411)
(0.0922892 0.000699285 0.000645506)
(0.0922485 0.000729582 0.000617837)
(0.0874036 0.000408022 0.000220145)
(0.0919131 0.000651293 0.000580072)
(0.0918502 0.000717904 0.000520402)
(0.0869761 0.000401245 9.0821e-05)
(0.0916056 0.000604784 0.000494684)
(0.09151 0.000723361 0.000398256)
(0.0866447 0.00038588 -0.000124754)
(0.0913702 0.000546857 0.000360551)
(0.0912299 0.000745272 0.000225262)
(0.0863464 0.000266408 -0.000534769)
(0.0911953 0.000450939 0.000129418)
(0.0909995 0.000773779 -3.76572e-05)
(0.0857881 -0.000211751 -0.00133697)
(0.0909524 0.000236995 -0.000279306)
(0.0907263 0.000731469 -0.000435731)
(0.0909134 -0.000190514 -0.000945798)
(0.0907469 0.0004102 -0.000985107)
(0.100171 0.00136871 0.00141634)
(0.100118 0.000577417 0.000811282)
(0.100102 0.000699781 0.000700651)
(0.100759 0.00219497 0.00214887)
(0.100478 0.00158288 0.00185868)
(0.100477 0.0018226 0.00186452)
(0.100996 0.00247708 0.0023876)
(0.101004 0.00205879 0.00224233)
(0.101024 0.0023469 0.00238269)
(0.100838 0.0024765 0.0023886)
(0.101293 0.00220356 0.00235172)
(0.101338 0.0025062 0.0025433)
(0.100458 0.00231203 0.00222409)
(0.101309 0.0021675 0.00232152)
(0.101409 0.00245097 0.00247171)
(0.0999682 0.0020573 0.00196715)
(0.101157 0.00201103 0.00217795)
(0.101302 0.0022653 0.00226962)
(0.0994446 0.00179148 0.00169824)
(0.100928 0.00179394 0.00196728)
(0.101099 0.00201011 0.00199734)
(0.0989356 0.00156461 0.00148076)
(0.100666 0.00158363 0.00176389)
(0.100855 0.00177164 0.00175568)
(0.0984684 0.00138003 0.00131689)
(0.100411 0.00139532 0.00158756)
(0.100608 0.00157129 0.00156053)
(0.0980543 0.00122822 0.00119362)
(0.100177 0.00122889 0.00144125)
(0.100381 0.00140573 0.00140454)
(0.0976945 0.00110294 0.00110204)
(0.0999738 0.00108768 0.00133317)
(0.100187 0.00126944 0.00128031)
(0.0973872 0.000998919 0.00103282)
(0.0998034 0.000968327 0.00125517)
(0.10003 0.00115803 0.00118106)
(0.0971317 0.000910159 0.000976054)
(0.0996653 0.000864595 0.00119714)
(0.0999094 0.00106696 0.00109846)
(0.0969287 0.000829131 0.000923493)
(0.0995599 0.000768385 0.00115147)
(0.0998282 0.000991157 0.0010241)
(0.0967812 0.000745937 0.000864222)
(0.09949 0.000669345 0.00111177)
(0.0997879 0.000924269 0.000949809)
(0.0966908 0.000646074 0.000778417)
(0.099458 0.000557009 0.00106794)
(0.0997902 0.00085875 0.000863184)
(0.0966548 0.000508344 0.000636746)
(0.099462 0.000414988 0.00100383)
(0.099833 0.000783318 0.000746403)
(0.0966337 0.000302281 0.000417824)
(0.0994931 0.000222589 0.00090082)
(0.099907 0.000681431 0.000578072)
(0.0965162 -5.05584e-05 0.000123879)
(0.0995029 -4.4419e-05 0.000759849)
(0.0999668 0.00052642 0.00035767)
(0.0996448 -0.000450004 0.00061914)
(0.100179 0.000258239 0.000159286)
(0.100242 0.000820162 0.00125609)
(0.10009 0.000294315 0.000735336)
(0.100071 0.000415675 0.000602744)
(0.100828 0.00139054 0.00193924)
(0.100491 0.000791927 0.00168397)
(0.100493 0.00112441 0.0015869)
(0.101393 0.00166342 0.002182)
(0.101086 0.00107762 0.0020833)
(0.101129 0.00154083 0.00209391)
(0.101816 0.00176101 0.00226068)
(0.101664 0.00120414 0.00217877)
(0.101768 0.00173268 0.00229382)
(0.102081 0.0017551 0.00226128)
(0.102121 0.00123937 0.00222156)
(0.102291 0.00178984 0.00236659)
(0.102216 0.00166767 0.00217571)
(0.102452 0.00120129 0.00220952)
(0.102712 0.00174375 0.00232093)
(0.102267 0.00153271 0.00204007)
(0.10268 0.00111736 0.00212548)
(0.103037 0.00162598 0.00220061)
(0.102278 0.00138026 0.00188332)
(0.102842 0.00101561 0.00200427)
(0.103288 0.00147902 0.00204736)
(0.102277 0.00122675 0.00172766)
(0.102968 0.000913666 0.00186856)
(0.103494 0.00132679 0.00188707)
(0.102275 0.00108553 0.00159885)
(0.103072 0.000816664 0.00174181)
(0.103673 0.00118326 0.00174111)
(0.102278 0.000962117 0.00150643)
(0.103167 0.000726706 0.00163988)
(0.103837 0.00105719 0.00162518)
(0.102291 0.000852026 0.00144147)
(0.103262 0.000642437 0.00156114)
(0.103996 0.000947452 0.00153497)
(0.102314 0.000747378 0.00139633)
(0.103358 0.000561388 0.00150901)
(0.104156 0.000849049 0.00146503)
(0.102353 0.000638349 0.00136562)
(0.103453 0.000476811 0.00148177)
(0.104322 0.000755311 0.00141065)
(0.102408 0.000514688 0.00134411)
(0.103548 0.000379558 0.00147189)
(0.104497 0.000659098 0.00136682)
(0.102479 0.000363868 0.00132594)
(0.103644 0.000261527 0.00147622)
(0.104685 0.000553071 0.0013284)
(0.102562 0.000169309 0.00130658)
(0.103738 0.000108404 0.00149636)
(0.104885 0.00042673 0.00129108)
(0.102644 -8.50557e-05 0.00129045)
(0.103822 -9.46555e-05 0.00153709)
(0.105095 0.000268006 0.00125415)
(0.102708 -0.000391782 0.00131857)
(0.103888 -0.000362395 0.00160465)
(0.10531 6.68061e-05 0.00122707)
(0.104087 -0.000670894 0.00173797)
(0.10563 -0.000160869 0.00126634)
(0.100243 0.000267364 0.00116238)
(0.100087 -3.59682e-08 0.00070701)
(0.100064 0.000135791 0.000537313)
(0.100782 0.000465644 0.00182619)
(0.100477 -1.03754e-07 0.00161777)
(0.100463 0.000370838 0.00142409)
(0.101401 0.000575355 0.00207612)
(0.101066 -1.80296e-07 0.00203463)
(0.101089 0.000525082 0.00193351)
(0.101988 0.000622587 0.0021339)
(0.101694 -3.25699e-07 0.00211765)
(0.101797 0.000605728 0.00212852)
(0.102507 0.000630534 0.00216507)
(0.102269 -5.92269e-07 0.00215036)
(0.102489 0.000639026 0.0022109)
(0.102935 0.000609325 0.00215719)
(0.102742 -1.02106e-06 0.00218023)
(0.10312 0.000633674 0.00224154)
(0.103278 0.00056961 0.00208975)
(0.103123 -1.6735e-06 0.0021349)
(0.103687 0.000600082 0.00219683)
(0.103555 0.000522532 0.00199092)
(0.103427 -2.7314e-06 0.00204578)
(0.104185 0.000553465 0.00210625)
(0.103789 0.000475591 0.00188482)
(0.103678 -4.56634e-06 0.00193789)