/*--------------------------------*- C++ -*----------------------------------*\
| =========                 |                                                 |
| \\      /  F ield         | OpenFOAM: The Open Source CFD Toolbox           |
|  \\    /   O peration     | Version:  2212                                  |
|   \\  /    A nd           | Website:  www.openfoam.com                      |
|    \\/     M anipulation  |                                                 |
\*---------------------------------------------------------------------------*/
FoamFile
{
    version     2.0;
    format      ascii;
    arch        "LSB;label=32;scalar=64";
    class       volScalarField;
    location    "1.75";
    object      nut;
}
// * * * * * * * * * * * * * * * * * * * * * * * * * * * * * * * * * * * * * //

dimensions      [0 2 -1 0 0 0 0];

internalField   nonuniform List<scalar> 
690
(
3.981e-06
3.94176e-06
3.90559e-06
3.86966e-06
3.83643e-06
3.80329e-06
3.77229e-06
3.7427e-06
3.71324e-06
3.68556e-06
3.65859e-06
8.06869e-06
7.97034e-06
7.87827e-06
7.7894e-06
7.70703e-06
7.62894e-06
7.55515e-06
7.48571e-06
7.41801e-06
7.3536e-06
7.29293e-06
1.1894e-05
1.17316e-05
1.15705e-05
1.14242e-05
1.12895e-05
1.11645e-05
1.10432e-05
1.09278e-05
1.08176e-05
1.07054e-05
1.05986e-05
1.49e-05
1.46609e-05
1.44395e-05
1.42344e-05
1.40412e-05
1.38655e-05
1.36805e-05
1.35069e-05
1.33491e-05
1.31986e-05
1.30533e-05
1.68003e-05
1.65092e-05
1.62405e-05
1.59892e-05
1.57528e-05
1.55298e-05
1.5321e-05
1.51216e-05
1.49445e-05
1.47548e-05
1.4575e-05
7.92048e-06
7.80972e-06
7.71449e-06
7.62071e-06
7.53372e-06
7.44963e-06
7.37097e-06
7.29745e-06
7.22661e-06
7.16105e-06
7.10035e-06
1.58569e-05
1.46793e-05
1.39385e-05
1.30079e-05
1.23803e-05
1.16666e-05
1.11057e-05
1.05696e-05
9.98427e-06
9.52622e-06
9.09691e-06
3.43596e-05
3.20221e-05
3.09592e-05
2.89896e-05
2.80449e-05
2.64154e-05
2.55021e-05
2.42141e-05
2.30551e-05
2.22975e-05
2.11424e-05
4.80891e-05
4.58202e-05
4.37491e-05
4.18005e-05
3.99438e-05
3.82491e-05
3.64828e-05
3.52893e-05
3.35102e-05
3.27615e-05
3.11587e-05
5.70697e-05
5.45537e-05
5.22187e-05
5.00384e-05
4.79911e-05
4.60678e-05
4.42541e-05
4.25431e-05
4.09585e-05
3.91444e-05
3.74017e-05
1.15328e-05
1.13596e-05
1.12048e-05
1.10487e-05
1.08994e-05
1.07618e-05
1.06374e-05
1.052e-05
1.04068e-05
1.03021e-05
1.01992e-05
3.53437e-05
3.30349e-05
3.15281e-05
2.93357e-05
2.83694e-05
2.64774e-05
2.55376e-05
2.4092e-05
2.27202e-05
2.18486e-05
2.0529e-05
6.80286e-05
6.47969e-05
6.19166e-05
5.90152e-05
5.67765e-05
5.45702e-05
5.20485e-05
4.93529e-05
4.70324e-05
4.50965e-05
4.30193e-05
9.01794e-05
8.66679e-05
8.33431e-05
8.01658e-05
7.71487e-05
7.43364e-05
7.15649e-05
6.89026e-05
6.62844e-05
6.37598e-05
6.21693e-05
0.000103001
9.92881e-05
9.57499e-05
9.23724e-05
8.91437e-05
8.60646e-05
8.31143e-05
8.02838e-05
7.7572e-05
7.4818e-05
7.25166e-05
1.45166e-05
1.42712e-05
1.40435e-05
1.38311e-05
1.36352e-05
1.34526e-05
1.32823e-05
1.31234e-05
1.29763e-05
1.28354e-05
1.2691e-05
5.19119e-05
4.9458e-05
4.72131e-05
4.50817e-05
4.31346e-05
4.12633e-05
3.9529e-05
3.78679e-05
3.6218e-05
3.4814e-05
3.31226e-05
9.25281e-05
8.89737e-05
8.56252e-05
8.24283e-05
7.94239e-05
7.66244e-05
7.38819e-05
7.11784e-05
6.85669e-05
6.60425e-05
6.37448e-05
0.000118952
0.000114961
0.000111153
0.000107505
0.000104009
0.000100672
9.745e-05
9.43524e-05
9.13647e-05
8.84144e-05
8.59357e-05
0.000133487
0.000129274
0.000125243
0.000121381
0.000117675
0.000114116
0.000110687
0.000107378
0.000104182
0.000101023
9.82387e-05
1.65448e-05
1.62517e-05
1.59785e-05
1.57234e-05
1.54853e-05
1.52635e-05
1.50578e-05
1.48667e-05
1.46883e-05
1.45209e-05
1.43594e-05
6.03817e-05
5.78706e-05
5.5524e-05
5.33144e-05
5.12267e-05
4.92465e-05
4.73684e-05
4.55823e-05
4.38786e-05
4.22366e-05
4.06372e-05
0.000105453
0.000101764
9.82487e-05
9.48922e-05
9.16871e-05
8.86273e-05
8.56922e-05
8.28668e-05
8.01619e-05
7.74815e-05
7.5198e-05
0.000134173
0.000129981
0.000125978
0.000122152
0.000118498
0.000114998
0.000111636
0.000108383
0.000105239
0.000102143
9.94034e-05
0.000149979
0.000145499
0.000141221
0.000137129
0.000133207
0.000129442
0.000125817
0.000122319
0.000118936
0.000115629
0.000112629
0.000155167
0.000150581
0.000146201
0.000142008
0.000137986
0.00013412
0.000130394
0.000126794
0.000123306
0.00011989
0.000116779
1.73549e-05
1.70431e-05
1.67522e-05
1.6481e-05
1.6228e-05
1.59937e-05
1.57737e-05
1.5567e-05
1.53736e-05
1.51916e-05
1.50227e-05
6.12844e-05
5.87291e-05
5.63559e-05
5.41309e-05
5.20358e-05
5.00578e-05
4.81868e-05
4.64078e-05
4.47262e-05
4.30873e-05
4.14887e-05
0.000108162
0.000104422
0.000100858
9.746e-05
9.42178e-05
9.11255e-05
8.81686e-05
8.53239e-05
8.25993e-05
7.98904e-05
7.75665e-05
0.000138517
0.000134248
0.000130171
0.000126271
0.000122537
0.000118957
0.000115518
0.000112204
0.000109009
0.000105872
0.000103066
0.000155184
0.000150608
0.000146243
0.000142071
0.000138076
0.000134242
0.000130555
0.000126999
0.000123564
0.000120211
0.000117139
0.000160561
0.000155878
0.000151408
0.000147135
0.000143041
0.000139109
0.000135324
0.000131671
0.000128136
0.000124685
0.000121508
1.67999e-05
1.65088e-05
1.62403e-05
1.59893e-05
1.57535e-05
1.5531e-05
1.53229e-05
1.51238e-05
1.4948e-05
1.47593e-05
1.458e-05
5.70646e-05
5.45568e-05
5.2236e-05
5.00716e-05
4.80437e-05
4.61374e-05
4.43454e-05
4.26505e-05
4.10918e-05
3.93134e-05
3.7576e-05
0.000103019
9.93172e-05
9.5795e-05
9.2439e-05
8.9237e-05
8.61844e-05
8.32662e-05
8.04681e-05
7.77983e-05
7.50968e-05
7.28299e-05
0.000133505
0.000129298
0.000125279
0.000121433
0.00011775
0.000114221
0.000110828
0.00010756
0.000104411
0.000101312
9.85631e-05
0.000149994
0.000145511
0.000141233
0.000137143
0.000133226
0.00012947
0.000125858
0.000122377
0.000119015
0.000115734
0.000112754
0.000155186
0.000150602
0.000146225
0.00014204
0.000138031
0.000134181
0.000130476
0.000126901
0.000123444
0.000120067
0.000116982
1.48998e-05
1.46606e-05
1.44392e-05
1.42342e-05
1.40413e-05
1.38661e-05
1.36818e-05
1.35085e-05
1.33512e-05
1.32016e-05
1.30559e-05
1.29186e-05
4.80781e-05
4.57966e-05
4.37466e-05
4.17951e-05
3.99714e-05
3.8246e-05
3.65638e-05
3.53131e-05
3.35574e-05
3.28149e-05
3.11306e-05
3.03297e-05
9.01938e-05
8.66837e-05
8.33648e-05
8.01925e-05
7.71896e-05
7.43832e-05
7.1643e-05
6.89856e-05
6.63856e-05
6.38805e-05
6.23048e-05
0.000118986
0.000114992
0.000111182
0.000107536
0.000104041
0.000100713
9.7499e-05
9.44124e-05
9.14389e-05
8.85065e-05
8.60384e-05
0.000134213
0.000130015
0.000126004
0.000122171
0.000118509
0.000115002
0.000111635
0.000108379
0.000105232
0.000102136
9.93996e-05
0.000138555
0.000134274
0.000130181
0.000126261
0.000122504
0.000118898
0.000115431
0.000112086
0.000108859
0.000105686
0.000102862
1.18952e-05
1.17321e-05
1.15708e-05
1.14243e-05
1.12897e-05
1.11647e-05
1.10441e-05
1.09284e-05
1.0819e-05
1.0707e-05
1.06007e-05
1.05028e-05
3.43687e-05
3.20237e-05
3.0964e-05
2.89878e-05
2.80546e-05
2.64129e-05
2.5542e-05
2.4168e-05
2.3235e-05
2.22463e-05
2.11414e-05
2.04303e-05
6.80675e-05
6.48235e-05
6.19479e-05
5.90212e-05
5.68013e-05
5.45645e-05
5.20923e-05
4.93795e-05
4.70576e-05
4.51806e-05
4.30711e-05
9.26105e-05
8.90504e-05
8.5689e-05
8.2489e-05
7.94703e-05
7.66652e-05
7.39197e-05
7.12127e-05
6.86046e-05
6.60814e-05
6.37884e-05
0.000105561
0.000101864
9.83384e-05
9.49707e-05
9.17513e-05
8.86779e-05
8.57298e-05
8.28925e-05
8.01787e-05
7.74906e-05
7.51942e-05
0.000108275
0.000104521
0.000100941
9.75219e-05
9.4259e-05
9.11454e-05
8.81643e-05
8.52948e-05
8.2546e-05
7.98096e-05
7.7453e-05
8.07034e-06
7.97201e-06
7.87917e-06
7.78978e-06
7.70737e-06
7.62919e-06
7.55575e-06
7.48619e-06
7.41887e-06
7.35456e-06
7.29365e-06
7.23703e-06
1.58675e-05
1.47212e-05
1.39272e-05
1.30293e-05
1.23714e-05
1.16756e-05
1.1112e-05
1.05717e-05
1.00008e-05
9.51761e-06
9.11697e-06
8.78829e-06
3.54105e-05
3.31095e-05
3.15712e-05
2.93812e-05
2.83866e-05
2.64933e-05
2.5546e-05
2.412e-05
2.2721e-05
2.18719e-05
2.05507e-05
5.20351e-05
4.95744e-05
4.7318e-05
4.51742e-05
4.32144e-05
4.1331e-05
3.9588e-05
3.79225e-05
3.627e-05
3.48585e-05
3.32076e-05
6.05163e-05
5.80031e-05
5.5651e-05
5.34331e-05
5.13347e-05
4.93427e-05
4.74528e-05
4.56564e-05
4.39444e-05
4.22937e-05
4.06931e-05
6.14028e-05
5.88448e-05
5.64644e-05
5.42287e-05
5.21203e-05
5.01272e-05
4.82411e-05
4.64463e-05
4.47499e-05
4.30947e-05
4.14805e-05
3.9816e-06
3.94238e-06
3.9059e-06
3.86996e-06
3.83666e-06
3.80356e-06
3.77267e-06
3.74299e-06
3.71369e-06
3.68585e-06
3.65905e-06
3.6338e-06
7.92302e-06
7.81268e-06
7.71655e-06
7.62206e-06
7.53481e-06
7.45056e-06
7.37198e-06
7.29842e-06
7.22758e-06
7.16196e-06
7.10088e-06
7.04431e-06
1.15386e-05
1.13652e-05
1.12102e-05
1.10527e-05
1.0903e-05
1.07649e-05
1.06399e-05
1.05223e-05
1.04087e-05
1.03039e-05
1.0201e-05
1.45241e-05
1.42791e-05
1.4051e-05
1.38381e-05
1.36417e-05
1.34583e-05
1.32872e-05
1.31276e-05
1.298e-05
1.28382e-05
1.2694e-05
1.65513e-05
1.62589e-05
1.59861e-05
1.57309e-05
1.54925e-05
1.52702e-05
1.5064e-05
1.48721e-05
1.4693e-05
1.45249e-05
1.4363e-05
1.73587e-05
1.70481e-05
1.67579e-05
1.64868e-05
1.62338e-05
1.59992e-05
1.57789e-05
1.55716e-05
1.53777e-05
1.51948e-05
1.5026e-05
)
;

boundaryField
{
    inlet
    {
        type            calculated;
        value           nonuniform List<scalar> 0();
    }
    ami1
    {
        type            cyclicAMI;
        value           nonuniform List<scalar> 0();
    }
    walls
    {
        type            nutkWallFunction;
        blending        stepwise;
        value           uniform 0;
    }
    ami2
    {
        type            cyclicAMI;
        value           nonuniform List<scalar> 0();
    }
    outlet
    {
        type            calculated;
        value           nonuniform List<scalar> 0();
    }
    procBoundary8to0
    {
        type            processor;
        value           nonuniform List<scalar> 
29
(
4.02197e-06
8.17698e-06
1.20732e-05
1.51624e-05
1.71124e-05
8.02427e-06
1.67621e-05
3.54411e-05
5.03173e-05
5.95639e-05
1.17204e-05
3.73666e-05
7.11463e-05
9.37978e-05
0.000106883
1.47836e-05
5.45378e-05
9.62413e-05
0.00012315
0.000137961
1.68565e-05
6.3073e-05
0.000109359
0.000138637
0.000154756
0.000160058
0.000143078
0.000160064
0.000165552
)
;
    }
    procBoundary8to1
    {
        type            processor;
        value           nonuniform List<scalar> 
33
(
1.76835e-05
6.39272e-05
0.000112138
1.71123e-05
5.95659e-05
0.000106907
0.000137978
0.000154767
0.000160065
1.5162e-05
5.03017e-05
9.38289e-05
0.000123202
0.000138686
0.00014313
1.20739e-05
3.54488e-05
7.11904e-05
9.63239e-05
0.000109466
0.000112262
8.17813e-06
1.67913e-05
3.73943e-05
5.45974e-05
6.31504e-05
6.39945e-05
4.02252e-06
8.02692e-06
1.17245e-05
1.47886e-05
1.68609e-05
1.76854e-05
)
;
    }
    procBoundary8to7
    {
        type            processor;
        value           nonuniform List<scalar> 
68
(
3.6335e-06
7.23585e-06
1.05007e-05
1.29143e-05
1.44077e-05
7.04366e-06
8.84868e-06
2.04945e-05
3.03057e-05
3.59852e-05
1.01018e-05
1.99116e-05
4.13256e-05
5.94664e-05
6.9653e-05
1.256e-05
3.21635e-05
6.1827e-05
8.28669e-05
9.48134e-05
1.42104e-05
3.88335e-05
7.23617e-05
9.60531e-05
0.000109005
0.000113052
1.48605e-05
3.95117e-05
7.4581e-05
9.96447e-05
0.000113478
0.000117728
1.44127e-05
1.44127e-05
3.60933e-05
3.60933e-05
7.00165e-05
9.52138e-05
0.000109185
0.000113292
1.2787e-05
2.86822e-05
5.9607e-05
5.9607e-05
8.30044e-05
9.6052e-05
9.93898e-05
1.0413e-05
1.94541e-05
4.13753e-05
4.13753e-05
6.18437e-05
7.23466e-05
7.44292e-05
7.18326e-06
8.51728e-06
1.99361e-05
1.99361e-05
3.2156e-05
3.88778e-05
3.94874e-05
3.60958e-06
6.99057e-06
1.01028e-05
1.01028e-05
1.25618e-05
1.42132e-05
1.48626e-05
)
;
    }
    procBoundary8to9
    {
        type            processor;
        value           nonuniform List<scalar> 
132
(
1.73529e-05
1.70419e-05
1.67513e-05
1.64801e-05
1.62271e-05
1.59923e-05
1.57719e-05
1.55647e-05
1.53709e-05
1.5188e-05
1.50198e-05
6.12873e-05
5.87276e-05
5.63441e-05
5.41051e-05
5.19923e-05
4.99955e-05
4.8105e-05
4.6306e-05
4.46044e-05
4.29421e-05
4.13184e-05
0.000108167
0.000104412
0.000100831
9.74097e-05
9.4139e-05
9.10179e-05
8.80269e-05
8.51412e-05
8.23714e-05
7.96155e-05
7.72658e-05
0.000138511
0.000134231
0.000130135
0.000126209
0.000122442
0.000118821
0.000115333
0.000111962
0.000108702
0.000105488
0.000102639
0.000138511
0.000134231
0.000130135
0.000126209
0.000122442
0.000118821
0.000115333
0.000111962
0.000108702
0.000105488
0.000102639
0.000149973
0.000145485
0.000141198
0.000137094
0.00013316
0.000129379
0.000125738
0.000122221
0.000118817
0.000115486
0.000112473
0.000155163
0.000150578
0.0001462
0.000142012
0.000137998
0.000134142
0.000130429
0.000126843
0.000123374
0.00011998
0.000116881
0.000149962
0.000145469
0.000141177
0.00013707
0.000133134
0.000129352
0.000125712
0.000122196
0.000118794
0.000115465
0.000112456
0.000133502
0.000129282
0.000125244
0.000121376
0.000117664
0.000114101
0.00011067
0.000107359
0.000104164
0.000101007
9.8231e-05
0.00010307
9.93575e-05
9.58188e-05
9.24408e-05
8.92133e-05
8.61333e-05
8.31821e-05
8.03514e-05
7.76462e-05
7.48986e-05
7.26029e-05
5.71225e-05
5.46167e-05
5.22875e-05
5.01133e-05
4.80694e-05
4.61462e-05
4.43424e-05
4.26143e-05
4.10556e-05
3.9207e-05
3.75418e-05
1.68016e-05
1.65112e-05
1.62429e-05
1.59924e-05
1.57567e-05
1.55341e-05
1.53255e-05
1.51263e-05
1.49495e-05
1.476e-05
1.45801e-05
)
;
    }
}


// ************************************************************************* //
