/*--------------------------------*- C++ -*----------------------------------*\
| =========                 |                                                 |
| \\      /  F ield         | OpenFOAM: The Open Source CFD Toolbox           |
|  \\    /   O peration     | Version:  2212                                  |
|   \\  /    A nd           | Website:  www.openfoam.com                      |
|    \\/     M anipulation  |                                                 |
\*---------------------------------------------------------------------------*/
FoamFile
{
    version     2.0;
    format      ascii;
    arch        "LSB;label=32;scalar=64";
    class       volScalarField;
    location    "1.65";
    object      p;
}
// * * * * * * * * * * * * * * * * * * * * * * * * * * * * * * * * * * * * * //

dimensions      [0 2 -2 0 0 0 0];

internalField   nonuniform List<scalar> 
693
(
0.00189835
0.00177962
0.00166108
0.00154351
0.0014266
0.00131093
0.00188976
0.00177164
0.00165328
0.00153576
0.00141906
0.00130361
0.00188115
0.0017629
0.00164466
0.0015276
0.00141129
0.00129632
0.00188421
0.00176415
0.00164538
0.00152789
0.00141146
0.00129656
0.00189185
0.00177135
0.00165218
0.00153462
0.00141856
0.00130334
0.00189753
0.00177694
0.001657
0.00153867
0.00142209
0.0013069
0.00189923
0.00177878
0.00165899
0.00154118
0.00142497
0.00131019
0.00189803
0.00177896
0.00166153
0.00154525
0.00142951
0.00131482
0.00189948
0.00178157
0.00166443
0.00154783
0.00143166
0.0013163
0.00190786
0.00178874
0.00167033
0.00155251
0.00143555
0.00131974
0.00189861
0.00177983
0.00166147
0.00154373
0.00142684
0.00131114
0.00190737
0.0017883
0.00166971
0.00155208
0.00143511
0.00131936
0.00190868
0.00178947
0.00167019
0.0015522
0.00143482
0.00131872
0.00189466
0.00177519
0.00165691
0.00153959
0.00142305
0.00130771
0.00189786
0.00177784
0.00165915
0.00154109
0.00142424
0.00130826
0.0019014
0.00178113
0.00166217
0.00154452
0.00142778
0.00131153
0.0019031
0.00178288
0.00166396
0.00154608
0.0014292
0.00131341
0.0019021
0.00178192
0.00166253
0.00154439
0.0014278
0.00131222
0.00189927
0.00177904
0.00165963
0.00154154
0.00142449
0.00130889
0.00189899
0.00177975
0.00166175
0.00154481
0.00142839
0.00131298
0.00190896
0.00178959
0.00167064
0.00155238
0.0014351
0.001319
0.00188979
0.0017716
0.00165349
0.0015358
0.00141916
0.00130372
0.00189886
0.00178104
0.00166379
0.00154743
0.00143123
0.00131598
0.0018983
0.00177937
0.00166142
0.0015444
0.00142797
0.00131285
0.00187325
0.00175433
0.00163724
0.00152028
0.00140424
0.00128885
0.00186864
0.00174873
0.00163029
0.00151294
0.00139644
0.00127999
0.00186434
0.00174482
0.00162624
0.0015082
0.00139038
0.00127315
0.00186384
0.00174431
0.00162614
0.00150831
0.00139053
0.00127318
0.00186391
0.00174417
0.00162547
0.00150727
0.00138984
0.00127282
0.00186671
0.0017473
0.00162856
0.00151091
0.00139457
0.00127865
0.00187337
0.0017546
0.00163728
0.00152067
0.00140444
0.00128895
0.001895
0.00177537
0.00165704
0.00153962
0.00142319
0.00130789
0.00188112
0.00176263
0.00164473
0.00152745
0.00141128
0.00129634
0.00189724
0.00177861
0.00166118
0.00154485
0.00142907
0.00131486
0.0018989
0.00177856
0.00165923
0.00154099
0.00142428
0.00130869
0.001867
0.00174718
0.00162848
0.00151088
0.00139456
0.00127833
0.00185865
0.00173797
0.00161846
0.0015004
0.00138329
0.00126615
0.00185159
0.00173157
0.0016122
0.00149312
0.00137465
0.0012564
0.00185076
0.0017307
0.00161143
0.00149254
0.00137401
0.00125525
0.00185147
0.00173119
0.00161184
0.00149293
0.00137444
0.00125591
0.00185848
0.00173789
0.00161837
0.00150026
0.00138328
0.00126619
0.00186846
0.00174887
0.00163038
0.00151334
0.00139663
0.0012801
0.00189792
0.00177808
0.00165912
0.0015413
0.00142447
0.00130844
0.00188419
0.00176388
0.00164529
0.00152749
0.00141128
0.00129657
0.00189857
0.00177824
0.00165862
0.00154086
0.00142473
0.00131007
0.00190187
0.00178149
0.00166206
0.00154396
0.00142755
0.00131183
0.00186402
0.00174422
0.00162544
0.00150727
0.00138971
0.00127272
0.00185157
0.00173129
0.00161194
0.001493
0.00137439
0.00125586
0.00184229
0.00172193
0.00160235
0.0014832
0.00136461
0.00124575
0.00184031
0.00171995
0.00160037
0.00148124
0.00136267
0.00124384
0.00184222
0.00172187
0.0016023
0.00148317
0.00136461
0.00124578
0.00185152
0.00173151
0.00161213
0.00149302
0.00137456
0.0012563
0.00186421
0.00174477
0.00162631
0.00150833
0.00139048
0.00127317
0.00190121
0.00178108
0.00166215
0.00154472
0.00142799
0.00131169
0.0018917
0.00177122
0.00165199
0.00153439
0.00141837
0.00130332
0.00189696
0.00177649
0.00165663
0.00153828
0.00142188
0.0013069
0.00190274
0.00178252
0.00166363
0.00154581
0.00142918
0.00131353
0.00186384
0.00174425
0.00162604
0.00150824
0.00139033
0.00127289
0.00185083
0.00173072
0.00161139
0.00149246
0.00137353
0.00125457
0.00184033
0.00171991
0.00160025
0.00148109
0.00136227
0.00124333
0.00183759
0.00171716
0.00159751
0.00147833
0.00135966
0.00124086
0.0018403
0.00171992
0.00160032
0.00148119
0.00136262
0.00124378
0.00185075
0.00173065
0.00161135
0.00149245
0.00137389
0.00125507
0.00186379
0.00174423
0.00162605
0.00150827
0.00139052
0.00127307
0.00190285
0.00178265
0.00166379
0.00154598
0.00142918
0.00131343
0.00189724
0.00177673
0.00165679
0.00153843
0.00142184
0.00130678
0.00189139
0.00177093
0.00165162
0.00153405
0.00141836
0.00190094
0.00178075
0.00166208
0.00154457
0.00142784
0.00186416
0.00174468
0.00162639
0.0015082
0.00139005
0.00185155
0.00173151
0.00161208
0.00149291
0.00137391
0.00184224
0.00172186
0.00160222
0.00148316
0.00136395
0.00184026
0.00171988
0.00160025
0.00148114
0.00136238
0.00124357
0.0018422
0.00172188
0.00160232
0.0014832
0.00136464
0.0012458
0.0018514
0.00173112
0.00161175
0.00149284
0.00137435
0.00125579
0.00186377
0.001744
0.00162528
0.00150711
0.00138979
0.00127279
0.00190179
0.0017816
0.00166224
0.00154412
0.00142754
0.00131199
0.00189891
0.00177852
0.00165872
0.00154084
0.00142451
0.00130971
0.00176375
0.00164469
0.00152742
0.00141135
0.00177763
0.00165877
0.00154089
0.00142422
0.00186835
0.00174855
0.00163049
0.00151299
0.00139598
0.00185846
0.00173781
0.00161837
0.00150003
0.00138251
0.00185139
0.00173109
0.00161165
0.0014927
0.00137363
0.00185063
0.00173054
0.00161121
0.00149233
0.00137353
0.00125473
0.00185139
0.00173139
0.00161206
0.00149304
0.00137452
0.00125618
0.00185835
0.00173775
0.00161819
0.00150001
0.00138299
0.00126594
0.00186658
0.00174706
0.00162834
0.00151064
0.00139425
0.0012783
0.00189883
0.0017786
0.00165931
0.0015412
0.00142411
0.00130847
0.0018977
0.0017786
0.00166108
0.00154476
0.00142901
0.00131435
0.00176223
0.00164404
0.00152699
0.00141096
0.00177499
0.00165616
0.00153878
0.00142277
0.00187312
0.00175421
0.0016369
0.00152032
0.00140382
0.00186675
0.00174683
0.00162828
0.00151065
0.00139391
0.00186378
0.00174396
0.00162509
0.00150673
0.00138902
0.00186359
0.001744
0.00162571
0.00150776
0.00138982
0.00127235
0.001864
0.00174457
0.00162606
0.00150801
0.00139008
0.00127275
0.00186836
0.00174862
0.00163002
0.00151287
0.00139615
0.00127961
0.00187318
0.00175424
0.00163692
0.00152022
0.00140399
0.00128844
0.00189844
0.00177931
0.00166131
0.00154435
0.00142791
0.00131248
0.00189915
0.00178118
0.00166384
0.00154733
0.00143113
0.00131574
0.00177073
0.00165266
0.00153518
0.0014186
0.00178868
0.00166947
0.00155123
0.00143432
0.00189792
0.0017791
0.00166076
0.00154353
0.00142743
0.00189859
0.00177809
0.00165874
0.00154062
0.00142361
0.00190158
0.0017811
0.00166169
0.00154354
0.00142698
0.0019025
0.00178221
0.00166319
0.00154519
0.00142832
0.00131247
0.00190082
0.00178062
0.0016615
0.00154386
0.00142707
0.00131079
0.00189761
0.00177759
0.00165846
0.00154056
0.00142369
0.00130757
0.0018945
0.00177487
0.00165651
0.00153905
0.00142253
0.00130717
0.00190839
0.00178906
0.00167001
0.0015518
0.00143444
0.0013183
0.00190739
0.00178824
0.00166973
0.00155194
0.00143495
0.00131914
0.00177875
0.00166047
0.0015428
0.00142606
0.0017874
0.00166906
0.00155131
0.00143449
0.0018983
0.00178056
0.00166325
0.00154646
0.00143062
0.00189679
0.00177823
0.0016606
0.00154418
0.00142854
0.00189821
0.0017778
0.00165815
0.00154029
0.00142412
0.00189665
0.00177604
0.0016561
0.00153777
0.00142111
0.00130583
0.00189112
0.00177046
0.00165117
0.00153351
0.00141741
0.00130226
0.0018836
0.0017632
0.00164458
0.00152669
0.00141034
0.00129556
0.00188044
0.00176201
0.00164412
0.00152679
0.00141053
0.00129553
0.00188924
0.001771
0.00165284
0.00153514
0.00141843
0.00130295
0.00189811
0.00177928
0.00166085
0.0015431
0.00142615
0.00131042
)
;

boundaryField
{
    inlet
    {
        type            zeroGradient;
    }
    ami1
    {
        type            cyclicAMI;
        value           nonuniform List<scalar> 0();
    }
    walls
    {
        type            zeroGradient;
    }
    ami2
    {
        type            cyclicAMI;
        value           nonuniform List<scalar> 0();
    }
    outlet
    {
        type            fixedValue;
        value           nonuniform List<scalar> 0();
    }
    procBoundary7to5
    {
        type            processor;
        value           nonuniform List<scalar> 
131
(
0.0011973
0.00119022
0.00118342
0.00118287
0.0011884
0.0011927
0.00119688
0.0012019
0.00120289
0.00120608
0.00119755
0.00120566
0.00120501
0.00119329
0.00119208
0.00119522
0.00119761
0.00119633
0.00119415
0.00119915
0.00120533
0.00119033
0.00120244
0.00119879
0.00117282
0.00116319
0.00115649
0.0011564
0.00115559
0.00116169
0.00117308
0.00119357
0.00118342
0.00120149
0.00119372
0.00116188
0.00114889
0.00113872
0.00113722
0.00113797
0.00114863
0.00116324
0.00119239
0.00118306
0.00119653
0.00119623
0.00115594
0.00113795
0.00112737
0.00112543
0.00112737
0.00113855
0.00115618
0.00119526
0.00118893
0.00119279
0.00130343
0.00119769
0.00131135
0.00115616
0.00127255
0.00113689
0.00125561
0.00112522
0.00124509
0.00112254
0.00112535
0.00113699
0.00115605
0.00119753
0.00119287
0.00130343
0.00131135
0.00127255
0.00125561
0.00124509
0.00124509
0.00112559
0.00112741
0.00113781
0.00115543
0.00119614
0.00119657
0.00129653
0.00130801
0.00127896
0.00126503
0.00125518
0.00125518
0.00113726
0.00113849
0.0011484
0.00116137
0.00119378
0.00120144
0.00129626
0.00130746
0.00128758
0.00127728
0.00127189
0.00127189
0.00115567
0.00115587
0.00116276
0.00117258
0.00119864
0.00120228
0.00130362
0.00131886
0.00131217
0.00130767
0.00131096
0.00131096
0.00119653
0.00119436
0.00119147
0.00119283
0.00120454
0.00120541
0.00131091
0.00131918
0.00131564
0.00131383
0.00130908
0.00130908
0.00119143
0.00118763
0.00118192
0.00118252
0.00118944
0.00119672
)
;
    }
    procBoundary7to8
    {
        type            processor;
        value           nonuniform List<scalar> 
68
(
0.00201851
0.00200862
0.00199994
0.00200599
0.00201351
0.00202859
0.00202952
0.00201552
0.00201898
0.00202268
0.00201902
0.00201819
0.0019927
0.00198932
0.00198502
0.00201726
0.00201959
0.00198711
0.00197992
0.00197274
0.00201906
0.002023
0.00198496
0.00197293
0.00196372
0.00196175
0.00201764
0.00202419
0.00198522
0.00197219
0.00196181
0.00195904
0.00201306
0.00188386
0.00202215
0.00189754
0.0019848
0.0019727
0.00196368
0.00196172
0.00188386
0.00189754
0.00189754
0.00198891
0.00197969
0.00197275
0.00197197
0.00188064
0.00189439
0.00189439
0.00199231
0.00198682
0.00198471
0.00198496
0.0018892
0.00190804
0.00190804
0.00201778
0.0020193
0.00202274
0.002024
0.00189776
0.00190677
0.00190677
0.00201857
0.00201692
0.00201877
0.00201745
)
;
    }
    procBoundary7to9
    {
        type            processor;
        value           nonuniform List<scalar> 
59
(
0.00201824
0.00201976
0.00201842
0.00201977
0.00202915
0.00201882
0.00202456
0.00202307
0.00201976
0.00201875
0.00202996
0.00200871
0.00198521
0.0019848
0.00198664
0.00199267
0.00201568
0.00200004
0.00197211
0.00197284
0.00197973
0.00198909
0.0020188
0.00200619
0.00196366
0.0019727
0.00198489
0.00202235
0.00201333
0.00196175
0.00197211
0.00198517
0.00202428
0.00201789
0.00196361
0.00197275
0.00198465
0.00202279
0.00201942
0.00197252
0.00197953
0.0019864
0.00201952
0.0020181
0.0019846
0.0019888
0.00199242
0.00201848
0.00201931
0.002022
0.00201842
0.00201535
0.00202958
0.00202872
0.00201295
0.00200578
0.00199982
0.00200844
0.00201847
)
;
    }
}


// ************************************************************************* //
