/*--------------------------------*- C++ -*----------------------------------*\
| =========                 |                                                 |
| \\      /  F ield         | OpenFOAM: The Open Source CFD Toolbox           |
|  \\    /   O peration     | Version:  2212                                  |
|   \\  /    A nd           | Website:  www.openfoam.com                      |
|    \\/     M anipulation  |                                                 |
\*---------------------------------------------------------------------------*/
FoamFile
{
    version     2.0;
    format      ascii;
    arch        "LSB;label=32;scalar=64";
    class       volScalarField;
    location    "2.65";
    object      p;
}
// * * * * * * * * * * * * * * * * * * * * * * * * * * * * * * * * * * * * * //

dimensions      [0 2 -2 0 0 0 0];

internalField   nonuniform List<scalar> 
690
(
0.00504095
0.00488434
0.00469746
0.00501505
0.0048506
0.00469245
0.00495349
0.00478104
0.00463386
0.00493651
0.00483793
0.00468591
0.00452281
0.00436354
0.00420924
0.00405861
0.00391261
0.00377126
0.00363283
0.0034963
0.00336132
0.00490164
0.00474682
0.00461789
0.00447603
0.00432925
0.0041854
0.00404382
0.00390355
0.00376486
0.00362809
0.00349326
0.00336012
0.00488996
0.00472805
0.00459292
0.00444816
0.00429891
0.00415259
0.00400917
0.00386663
0.0037254
0.00358691
0.00345138
0.00331804
0.00486764
0.00480816
0.00468503
0.00452826
0.00437118
0.00421866
0.00406947
0.00392327
0.0037798
0.00363845
0.0034996
0.00336334
0.00484313
0.00468902
0.00457741
0.00444358
0.00430125
0.00416289
0.0040259
0.00388935
0.0037539
0.00361974
0.00348692
0.0033551
0.00484796
0.00469104
0.00457283
0.0044344
0.00428695
0.00414217
0.00399959
0.00385821
0.00371876
0.00358184
0.00344724
0.00331458
0.00487515
0.00470886
0.00457189
0.00442702
0.00427801
0.00413167
0.00398823
0.00384677
0.00370732
0.00357008
0.00343499
0.00330184
0.00485284
0.0046897
0.00455656
0.00441514
0.00426897
0.00412437
0.00398197
0.00384115
0.00370192
0.00356456
0.00342914
0.00329553
0.00485641
0.0046908
0.00455334
0.00441051
0.00426465
0.00412058
0.0039786
0.00383823
0.00369944
0.00356241
0.0034272
0.00329366
0.00485289
0.00468975
0.0045566
0.00441518
0.004269
0.00412439
0.00398199
0.00384117
0.00370194
0.00356458
0.00342916
0.00329552
0.0048765
0.00471397
0.00458179
0.00443761
0.00428795
0.00414064
0.00399614
0.00385355
0.00371289
0.00357465
0.00343887
0.00330509
0.00495358
0.00478127
0.00463409
0.00447959
0.00432366
0.0041721
0.00402392
0.00387723
0.00373288
0.00359222
0.00345537
0.00501501
0.00485049
0.00469237
0.00452933
0.00436947
0.004215
0.00406469
0.00391762
0.00377413
0.00363395
0.00349645
0.00504073
0.0048839
0.00469698
0.00451875
0.00435366
0.0041969
0.00404582
0.0039011
0.00376124
0.00362426
0.00348913
0.00498582
0.00487573
0.00470484
0.00452962
0.0043715
0.00422
0.00407082
0.00392432
0.0037806
0.00363942
0.00350012
0.00336302
0.00484723
0.00470477
0.00458862
0.00444236
0.00429596
0.0041572
0.00402026
0.00388425
0.00374963
0.00361592
0.0034834
0.00335161
0.00493513
0.00476666
0.00462449
0.00446584
0.004306
0.00415336
0.00400592
0.00386241
0.00372232
0.00358498
0.00345005
0.00331701
0.0049068
0.00474038
0.00460514
0.00445492
0.00430003
0.0041492
0.00400229
0.00385834
0.00371731
0.003579
0.00344307
0.00330925
0.00487641
0.00471385
0.00458169
0.00443752
0.00428785
0.00414055
0.00399605
0.00385346
0.00371281
0.00357456
0.00343879
0.00330507
0.00487996
0.00471228
0.00457178
0.00442644
0.00427801
0.00413206
0.003989
0.00384773
0.00370821
0.00357084
0.00343569
0.00330244
0.00487524
0.00470899
0.004572
0.0044271
0.00427807
0.00413171
0.00398827
0.00384682
0.00370737
0.00357014
0.00343506
0.0033019
0.00490714
0.00474078
0.00460537
0.00445504
0.00430011
0.00414928
0.00400238
0.00385843
0.00371739
0.00357909
0.00344317
0.00330929
0.00498027
0.00480867
0.00466692
0.00450395
0.00433914
0.0041804
0.00402624
0.00387646
0.00373152
0.00359086
0.0034537
0.00511022
0.00493745
0.00475171
0.00456302
0.00438755
0.00422236
0.00406349
0.00391162
0.00376576
0.00362445
0.00348678
0.00520592
0.00497386
0.00472008
0.00451203
0.00433585
0.00417597
0.00402649
0.00388384
0.00374567
0.00361062
0.00347757
0.00520543
0.00494354
0.0046684
0.0044785
0.00433022
0.0041856
0.00404137
0.00389974
0.00376016
0.003622
0.00348466
0.0033492
0.00510528
0.00487993
0.00465034
0.00445394
0.00429335
0.00414843
0.00400896
0.00387288
0.00373899
0.0036062
0.00347435
0.00334306
0.00506812
0.00488393
0.00470212
0.00450998
0.00433188
0.00416848
0.00401391
0.00386624
0.00372414
0.00358604
0.00345104
0.00331767
0.0049798
0.00480818
0.00466661
0.00450371
0.00433896
0.00418027
0.00402608
0.0038763
0.00373137
0.00359068
0.00345348
0.00331891
0.00495358
0.00478124
0.00463404
0.00447947
0.00432345
0.00417187
0.00402369
0.00387701
0.00373268
0.00359202
0.00345515
0.00332088
0.00489001
0.00472819
0.00459304
0.00444818
0.0042988
0.00415241
0.00400906
0.00386661
0.00372541
0.00358693
0.00345145
0.00331814
0.00484804
0.00469117
0.00457294
0.00443448
0.00428699
0.00414219
0.00399961
0.00385825
0.0037188
0.00358189
0.0034473
0.00331466
0.00493544
0.00476703
0.00462476
0.004466
0.00430606
0.00415337
0.00400592
0.00386243
0.00372235
0.00358505
0.00345011
0.00331711
0.00506852
0.00488453
0.00470285
0.00451063
0.00433215
0.00416847
0.00401389
0.00386627
0.00372419
0.00358623
0.0034511
0.00519917
0.00496861
0.00473943
0.00453115
0.00434805
0.00418248
0.00402924
0.00388428
0.0037442
0.00360768
0.00347396
0.00542693
0.00503981
0.0046844
0.0044559
0.00428135
0.00412711
0.00398504
0.0038506
0.00372019
0.00359116
0.0034627
0.00554853
0.00496006
0.00456218
0.00441402
0.00429369
0.00415589
0.00401812
0.00388397
0.00375033
0.00361659
0.00348259
0.00334961
0.00532053
0.0049356
0.00463083
0.0044374
0.00428231
0.00413712
0.00400085
0.00386999
0.00374036
0.00361071
0.0034808
0.00335175
0.00519937
0.00496865
0.00473914
0.00453081
0.00434781
0.00418235
0.00402916
0.00388415
0.00374409
0.00360757
0.00347385
0.00334161
0.00511006
0.00493731
0.00475161
0.00456296
0.00438765
0.00422255
0.00406361
0.00391167
0.00376578
0.00362441
0.00348672
0.00335166
0.00501504
0.00485066
0.00469259
0.00452953
0.00436964
0.00421513
0.00406479
0.0039177
0.0037742
0.00363398
0.00349644
0.00336125
0.00490158
0.00474678
0.00461786
0.00447598
0.00432918
0.00418535
0.00404384
0.00390364
0.00376496
0.0036282
0.00349337
0.00336023
0.00484298
0.00468887
0.00457731
0.00444356
0.00430128
0.00416296
0.004026
0.00388947
0.00375404
0.0036199
0.00348707
0.00335526
0.00484692
0.00470444
0.00458846
0.00444233
0.00429598
0.00415728
0.00402038
0.00388439
0.00374977
0.00361614
0.00348353
0.00335193
0.0051049
0.0048796
0.00465036
0.00445416
0.0042936
0.00414867
0.00400918
0.00387311
0.00373918
0.00360639
0.00347449
0.00531986
0.00493483
0.00463019
0.00443698
0.00428228
0.00413735
0.00400112
0.00387023
0.00374056
0.00361072
0.00348095
0.00561553
0.00498495
0.00453283
0.0043575
0.00423738
0.00410241
0.00396931
0.0038423
0.00371713
0.00359175
0.00346573
0.00558213
0.00490538
0.00449053
0.00436783
0.00426622
0.00413208
0.00399683
0.00386575
0.00373537
0.00360534
0.00347498
0.00334538
0.00561617
0.00498579
0.00453382
0.00435842
0.00423781
0.00410229
0.00396904
0.00384213
0.00371699
0.00359176
0.00346579
0.00334034
0.00542759
0.0050406
0.00468519
0.00445647
0.00428143
0.00412686
0.00398478
0.0038504
0.00372004
0.00359113
0.00346269
0.00333504
0.0052063
0.0049743
0.00472048
0.00451237
0.00433608
0.00417614
0.00402666
0.00388396
0.00374577
0.00361072
0.00347767
0.00334601
0.00504069
0.00488396
0.00469715
0.00451902
0.00435398
0.00419721
0.00404609
0.00390135
0.00376148
0.00362449
0.00348935
0.0033559
0.00493628
0.00483768
0.00468577
0.00452283
0.00436372
0.00420946
0.00405875
0.00391269
0.00377137
0.003633
0.00349647
0.00336145
0.00486748
0.00480802
0.00468493
0.00452826
0.0043713
0.00421883
0.00406965
0.0039234
0.00377991
0.00363855
0.0034997
0.00336343
0.00498552
0.00487543
0.00470458
0.00452946
0.00437147
0.00422013
0.004071
0.00392448
0.00378073
0.00363951
0.00350022
0.00336311
0.00520502
0.00494317
0.00466812
0.00447842
0.00433041
0.00418592
0.00404169
0.00389998
0.00376035
0.00362201
0.00348483
0.00554796
0.00495929
0.00456134
0.00441349
0.00429368
0.0041562
0.0040185
0.00388423
0.00375055
0.00361667
0.00348269
0.00558154
0.00490447
0.00448956
0.00436713
0.00426597
0.00413229
0.00399715
0.00386596
0.00373554
0.00360536
0.00347499
)
;

boundaryField
{
    inlet
    {
        type            zeroGradient;
    }
    ami1
    {
        type            cyclicAMI;
        value           nonuniform List<scalar> 0();
    }
    walls
    {
        type            zeroGradient;
    }
    ami2
    {
        type            cyclicAMI;
        value           nonuniform List<scalar> 
61
(
0.00508907
0.00511927
0.00507242
0.00495596
0.00503126
0.00501089
0.00490455
0.00499857
0.00499849
0.0049984
0.00498076
0.00497555
0.00498079
0.00501064
0.00507245
0.00511923
0.00508893
0.00502965
0.00503604
0.00507388
0.00504549
0.00501058
0.00499892
0.00499846
0.00504571
0.00514115
0.00521453
0.00523903
0.00519695
0.00521906
0.00521356
0.00514088
0.00507246
0.0050109
0.00499853
0.00507406
0.00521378
0.00532739
0.00541462
0.00546605
0.00544702
0.00532757
0.00521446
0.00511924
0.00503118
0.00499845
0.0050358
0.0052188
0.00544652
0.00557337
0.00556382
0.00557383
0.00541506
0.00523928
0.00508889
0.00495578
0.00490438
0.00502939
0.0051966
0.00546561
0.00556337
)
;
    }
    outlet
    {
        type            fixedValue;
        value           nonuniform List<scalar> 0();
    }
    procBoundary1to0
    {
        type            processor;
        value           nonuniform List<scalar> 
138
(
0.00451906
0.00451906
0.00435371
0.00419691
0.00404597
0.00390133
0.00376145
0.00362441
0.00348925
0.00335579
0.00452944
0.00452944
0.00436971
0.00421528
0.00406493
0.00391777
0.00377421
0.00363396
0.00349641
0.00336121
0.00487646
0.00471389
0.00447949
0.00458172
0.00447949
0.00432378
0.00417226
0.00402397
0.00387713
0.0037327
0.00359198
0.00345506
0.00332075
0.00487995
0.00471226
0.00457178
0.00442646
0.00427807
0.00413212
0.00398902
0.00384772
0.00370817
0.00357078
0.00343561
0.00330235
0.00487995
0.00471226
0.00457178
0.00442646
0.00427807
0.00413212
0.00398902
0.00384772
0.00370817
0.00357078
0.00343561
0.00330235
0.00485639
0.00469081
0.00455336
0.00441054
0.00426467
0.0041206
0.00397861
0.00383822
0.00369942
0.00356238
0.00342716
0.00329364
0.00483231
0.00467257
0.00454226
0.00440253
0.00425811
0.00411509
0.00397378
0.00383384
0.00369538
0.00355862
0.00342364
0.00329037
0.00485642
0.00469083
0.00455338
0.00441055
0.00426469
0.00412061
0.00397862
0.00383825
0.00369945
0.00356242
0.0034272
0.00329366
0.00487993
0.00471228
0.00457184
0.00442653
0.00427811
0.00413214
0.00398905
0.00384777
0.00370824
0.00357087
0.00343572
0.00330243
0.00488984
0.00472803
0.004593
0.00444827
0.00429897
0.00415261
0.00400921
0.00386671
0.00372551
0.00358705
0.00345157
0.00490155
0.00474668
0.00461775
0.00447588
0.00432909
0.00418524
0.0040437
0.00390349
0.00376483
0.00362809
0.00349329
0.00493656
0.00483789
0.00468576
0.00452264
0.00436341
0.00420915
0.00405849
0.00391247
0.00377113
0.00363274
0.00349621
)
;
    }
    procBoundary1to2
    {
        type            processor;
        value           nonuniform List<scalar> 9(0.00520635 0.00497428 0.00472053 0.00511009 0.0049373 0.00475179 0.00497986 0.00480837 0.00466699);
    }
    procBoundary1to8
    {
        type            processor;
        value           nonuniform List<scalar> 
33
(
0.00322832
0.00322835
0.00318637
0.00322944
0.00322416
0.00318347
0.00317041
0.00316368
0.0031618
0.00322819
0.003221
0.00318575
0.00317729
0.00317308
0.00317083
0.00321471
0.0032128
0.00318656
0.00318636
0.00318831
0.0031865
0.00321727
0.00322265
0.00320988
0.00321853
0.00322786
0.00322844
0.00321654
0.00321587
0.00320839
0.0032149
0.00322393
0.00322842
)
;
    }
    procBoundary1to9
    {
        type            processor;
        value           nonuniform List<scalar> 
30
(
0.00316366
0.00317303
0.00332098
0.00332098
0.00336126
0.00335583
0.00317044
0.00317718
0.00331905
0.00331905
0.00335183
0.00334616
0.00318351
0.00318558
0.00331806
0.00331806
0.00334189
0.00333493
0.00322425
0.00322099
0.00334327
0.00334327
0.00335157
0.00334005
0.00322956
0.00322845
0.00334907
0.00334907
0.00334961
0.00334522
)
;
    }
}


// ************************************************************************* //
