/*--------------------------------*- C++ -*----------------------------------*\
| =========                 |                                                 |
| \\      /  F ield         | OpenFOAM: The Open Source CFD Toolbox           |
|  \\    /   O peration     | Version:  2212                                  |
|   \\  /    A nd           | Website:  www.openfoam.com                      |
|    \\/     M anipulation  |                                                 |
\*---------------------------------------------------------------------------*/
FoamFile
{
    version     2.0;
    format      ascii;
    arch        "LSB;label=32;scalar=64";
    class       volScalarField;
    location    "1.4";
    object      nut;
}
// * * * * * * * * * * * * * * * * * * * * * * * * * * * * * * * * * * * * * //

dimensions      [0 2 -1 0 0 0 0];

internalField   nonuniform List<scalar> 
682
(
1.73449e-05
1.70276e-05
1.67323e-05
1.64572e-05
1.62012e-05
1.59658e-05
1.57458e-05
1.55399e-05
1.53476e-05
1.51668e-05
1.50003e-05
1.65223e-05
1.62229e-05
1.59458e-05
1.56888e-05
1.54506e-05
1.52297e-05
1.50258e-05
1.48357e-05
1.46597e-05
1.44921e-05
1.43314e-05
1.44641e-05
1.42209e-05
1.3996e-05
1.37869e-05
1.35944e-05
1.34146e-05
1.32475e-05
1.30903e-05
1.29479e-05
1.2802e-05
1.26605e-05
1.16511e-05
1.14762e-05
1.13112e-05
1.11651e-05
1.10055e-05
1.08627e-05
1.07289e-05
1.06094e-05
1.04912e-05
1.03833e-05
1.02766e-05
1.0176e-05
7.9737e-06
7.88338e-06
7.7813e-06
7.68549e-06
7.59443e-06
7.50855e-06
7.42753e-06
7.35114e-06
7.27865e-06
7.21008e-06
7.14525e-06
7.08525e-06
3.99674e-06
3.96083e-06
3.92521e-06
3.88991e-06
3.85641e-06
3.82344e-06
3.79238e-06
3.76201e-06
3.7334e-06
3.70482e-06
3.6772e-06
3.65067e-06
6.11784e-05
5.85932e-05
5.61944e-05
5.39464e-05
5.18284e-05
4.98249e-05
4.79233e-05
4.61049e-05
4.43705e-05
4.26697e-05
4.09418e-05
5.91951e-05
5.68175e-05
5.45891e-05
5.24751e-05
5.0464e-05
4.85413e-05
4.67073e-05
4.49372e-05
4.32376e-05
4.157e-05
3.98647e-05
5.01765e-05
4.80158e-05
4.59754e-05
4.40168e-05
4.21974e-05
4.04148e-05
3.8776e-05
3.71203e-05
3.55465e-05
3.41294e-05
3.2553e-05
3.59304e-05
3.3974e-05
3.21952e-05
3.05939e-05
2.87543e-05
2.76755e-05
2.59199e-05
2.50701e-05
2.34579e-05
2.26299e-05
2.12066e-05
2.04327e-05
1.64724e-05
1.54233e-05
1.4532e-05
1.36211e-05
1.28876e-05
1.21662e-05
1.1575e-05
1.09798e-05
1.04845e-05
9.91631e-06
9.44015e-06
9.10556e-06
8.11102e-06
8.01892e-06
7.93344e-06
7.84566e-06
7.7617e-06
7.68097e-06
7.60667e-06
7.53496e-06
7.46823e-06
7.40285e-06
7.34028e-06
7.28098e-06
0.000108134
0.000104351
0.00010075
9.73144e-05
9.40288e-05
9.08945e-05
8.78819e-05
8.49631e-05
8.21485e-05
7.93212e-05
7.69553e-05
0.000104501
0.000100913
9.7483e-05
9.41977e-05
9.10454e-05
8.80253e-05
8.50981e-05
8.22581e-05
7.9524e-05
7.67727e-05
7.4528e-05
9.11387e-05
8.78219e-05
8.46355e-05
8.1581e-05
7.86686e-05
7.59747e-05
7.32288e-05
7.05583e-05
6.79051e-05
6.53798e-05
6.33228e-05
7.03785e-05
6.71518e-05
6.42641e-05
6.13429e-05
5.87282e-05
5.63026e-05
5.43907e-05
5.1461e-05
4.91632e-05
4.63947e-05
4.50771e-05
4.28384e-05
3.60844e-05
3.36306e-05
3.25152e-05
3.04053e-05
2.93971e-05
2.7604e-05
2.67096e-05
2.51645e-05
2.43743e-05
2.29512e-05
2.22434e-05
2.11482e-05
1.19865e-05
1.18232e-05
1.16834e-05
1.15296e-05
1.13881e-05
1.12547e-05
1.11343e-05
1.10168e-05
1.09057e-05
1.07984e-05
1.06882e-05
1.05846e-05
0.000138933
0.000134579
0.000130419
0.000126436
0.000122613
0.000118935
0.000115386
0.000111945
0.000108605
0.000105287
0.000102402
0.000134158
0.000129956
0.000125939
0.000122094
0.000118413
0.000114878
0.000111466
0.000108148
0.000104923
0.000101716
9.89645e-05
0.000118725
0.000114782
0.000111011
0.000107383
0.000103905
0.000100566
9.7322e-05
9.41897e-05
9.11557e-05
8.81659e-05
8.57413e-05
9.40161e-05
9.03394e-05
8.68395e-05
8.35232e-05
8.03278e-05
7.73093e-05
7.44852e-05
7.16489e-05
6.8981e-05
6.62353e-05
6.40484e-05
6.209e-05
5.09372e-05
4.84307e-05
4.61423e-05
4.40026e-05
4.20251e-05
4.00827e-05
3.8415e-05
3.65395e-05
3.54247e-05
3.36004e-05
3.28113e-05
3.1227e-05
1.50737e-05
1.48272e-05
1.46001e-05
1.43873e-05
1.41878e-05
1.40001e-05
1.38281e-05
1.36564e-05
1.3484e-05
1.33262e-05
1.31796e-05
1.30374e-05
0.000150638
0.000146058
0.00014169
0.000137511
0.000133505
0.000129652
0.000125936
0.000122336
0.000118843
0.000115402
0.000112337
0.00013391
0.000129644
0.000125571
0.000121673
0.000117937
0.000114347
0.000110886
0.000107539
0.000104299
0.000101088
9.82977e-05
0.000107396
0.00010343
9.96664e-05
9.60896e-05
9.2681e-05
8.94304e-05
8.63256e-05
8.33562e-05
8.04975e-05
7.77501e-05
7.50032e-05
7.2631e-05
6.02844e-05
5.74833e-05
5.49029e-05
5.25079e-05
5.02796e-05
4.81917e-05
4.62394e-05
4.43983e-05
4.26621e-05
4.10633e-05
3.92382e-05
3.73735e-05
1.70614e-05
1.67533e-05
1.64661e-05
1.6198e-05
1.59502e-05
1.57178e-05
1.54988e-05
1.52924e-05
1.50978e-05
1.49183e-05
1.47419e-05
1.45629e-05
0.000156
0.000151304
0.000146828
0.000142551
0.000138451
0.000134511
0.000130713
0.000127037
0.000123468
0.000119959
0.000116796
0.000138893
0.000134556
0.000130418
0.000126463
0.000122674
0.000119035
0.000115531
0.000112141
0.000108857
0.000105606
0.00010276
0.000112109
0.000108137
0.000104367
0.000100783
9.7369e-05
9.41094e-05
9.09985e-05
8.80141e-05
8.51276e-05
8.23482e-05
7.95603e-05
7.71964e-05
6.3993e-05
6.11902e-05
5.86162e-05
5.62281e-05
5.39916e-05
5.18862e-05
4.98969e-05
4.801e-05
4.62109e-05
4.44983e-05
4.28176e-05
4.11079e-05
1.76876e-05
1.73463e-05
1.70288e-05
1.67333e-05
1.64581e-05
1.62022e-05
1.59668e-05
1.57469e-05
1.55412e-05
1.5349e-05
1.51686e-05
1.50015e-05
0.000150618
0.000146037
0.000141668
0.00013749
0.000133484
0.000129633
0.000125919
0.000122323
0.000118832
0.000115394
0.000112333
0.000134111
0.000129913
0.000125901
0.000122062
0.000118388
0.000114862
0.000111461
0.000108154
0.00010494
0.000101747
9.90018e-05
0.00010827
0.000104513
0.000100924
9.74981e-05
9.4213e-05
9.10723e-05
8.8057e-05
8.5144e-05
8.23089e-05
7.95966e-05
7.68519e-05
7.46025e-05
6.17874e-05
5.92359e-05
5.68597e-05
5.46343e-05
5.25209e-05
5.05148e-05
4.85959e-05
4.67695e-05
4.50032e-05
4.33141e-05
4.16446e-05
3.99513e-05
1.6848e-05
1.65238e-05
1.62244e-05
1.59473e-05
1.56902e-05
1.54519e-05
1.5231e-05
1.50272e-05
1.48372e-05
1.46611e-05
1.44938e-05
1.43332e-05
0.000133914
0.000129635
0.000125546
0.00012163
0.000117871
0.000114259
0.000110773
0.000107399
0.000104127
0.000100879
9.80736e-05
0.000118697
0.000114752
0.000110976
0.000107343
0.00010386
0.000100519
9.72711e-05
9.41318e-05
9.10901e-05
8.80892e-05
8.56594e-05
9.46518e-05
9.11596e-05
8.78188e-05
8.46461e-05
8.15585e-05
7.86889e-05
7.59604e-05
7.3254e-05
7.0506e-05
6.79864e-05
6.53214e-05
6.33443e-05
5.25212e-05
5.02356e-05
4.80518e-05
4.6022e-05
4.4042e-05
4.22458e-05
4.04578e-05
3.88257e-05
3.7144e-05
3.56611e-05
3.41267e-05
3.25979e-05
1.47288e-05
1.44655e-05
1.42222e-05
1.39973e-05
1.37881e-05
1.35957e-05
1.34159e-05
1.32489e-05
1.30918e-05
1.29492e-05
1.28038e-05
1.26622e-05
0.000103423
9.9644e-05
9.60512e-05
9.26242e-05
8.93548e-05
8.62371e-05
8.32431e-05
8.03683e-05
7.75922e-05
7.481e-05
7.24186e-05
9.02955e-05
8.67865e-05
8.34635e-05
8.02547e-05
7.72524e-05
7.44147e-05
7.16078e-05
6.88766e-05
6.61776e-05
6.39093e-05
6.2003e-05
7.02908e-05
6.71816e-05
6.41088e-05
6.13726e-05
5.8482e-05
5.64546e-05
5.42013e-05
5.16241e-05
4.86052e-05
4.70525e-05
4.44348e-05
4.30102e-05
3.5866e-05
3.40174e-05
3.20677e-05
3.06705e-05
2.86207e-05
2.77669e-05
2.59526e-05
2.51063e-05
2.34587e-05
2.26751e-05
2.1195e-05
2.04784e-05
1.16517e-05
1.14766e-05
1.1311e-05
1.11649e-05
1.1005e-05
1.0863e-05
1.07295e-05
1.06103e-05
1.0492e-05
1.03844e-05
1.02774e-05
1.01771e-05
5.7462e-05
5.4872e-05
5.24709e-05
5.02332e-05
4.8141e-05
4.61771e-05
4.43293e-05
4.25799e-05
4.09573e-05
3.9121e-05
3.7221e-05
4.83777e-05
4.60576e-05
4.39468e-05
4.19316e-05
4.00683e-05
3.83089e-05
3.66001e-05
3.53203e-05
3.35271e-05
3.27215e-05
3.1157e-05
3.56581e-05
3.3917e-05
3.18536e-05
3.07647e-05
2.88589e-05
2.79359e-05
2.63133e-05
2.54662e-05
2.40309e-05
2.32332e-05
2.19531e-05
2.11901e-05
1.63853e-05
1.5447e-05
1.44345e-05
1.36452e-05
1.282e-05
1.21919e-05
1.15358e-05
1.10062e-05
1.04747e-05
9.9358e-06
9.42351e-06
9.10365e-06
7.97321e-06
7.88156e-06
7.7777e-06
7.68461e-06
7.59226e-06
7.50836e-06
7.42648e-06
7.3513e-06
7.27888e-06
7.21037e-06
7.14505e-06
7.08506e-06
1.67513e-05
1.64643e-05
1.61964e-05
1.59487e-05
1.57166e-05
1.54978e-05
1.52917e-05
1.50971e-05
1.49181e-05
1.47411e-05
1.45619e-05
1.48245e-05
1.45979e-05
1.43853e-05
1.41861e-05
1.39982e-05
1.38271e-05
1.36548e-05
1.34824e-05
1.33247e-05
1.31782e-05
1.30358e-05
1.19851e-05
1.18219e-05
1.16801e-05
1.15277e-05
1.13839e-05
1.12533e-05
1.11313e-05
1.10161e-05
1.09035e-05
1.07971e-05
1.06863e-05
1.05832e-05
8.10957e-06
8.01814e-06
7.93067e-06
7.84422e-06
7.75871e-06
7.68013e-06
7.60465e-06
7.53459e-06
7.46735e-06
7.4025e-06
7.33956e-06
7.2802e-06
3.9959e-06
3.96033e-06
3.92407e-06
3.88969e-06
3.85534e-06
3.82348e-06
3.79159e-06
3.76216e-06
3.7331e-06
3.70486e-06
3.67695e-06
3.65069e-06
)
;

boundaryField
{
    inlet
    {
        type            calculated;
        value           nonuniform List<scalar> 0();
    }
    ami1
    {
        type            cyclicAMI;
        value           nonuniform List<scalar> 0();
    }
    walls
    {
        type            nutkWallFunction;
        blending        stepwise;
        value           uniform 0;
    }
    ami2
    {
        type            cyclicAMI;
        value           nonuniform List<scalar> 0();
    }
    outlet
    {
        type            calculated;
        value           nonuniform List<scalar> 0();
    }
    procBoundary9to0
    {
        type            processor;
        value           nonuniform List<scalar> 
40
(
1.76908e-05
1.68479e-05
1.47282e-05
1.47282e-05
1.18466e-05
8.07286e-06
4.03263e-06
6.39013e-05
6.17316e-05
5.25566e-05
5.25566e-05
3.80255e-05
1.73899e-05
8.21016e-06
0.000112139
0.000108332
9.47393e-05
9.47393e-05
7.36391e-05
3.75957e-05
1.21706e-05
0.000143546
0.000138626
0.000122921
0.000122921
9.79e-05
5.3592e-05
1.53463e-05
0.000155488
0.00013844
0.00013844
0.000111588
6.32296e-05
1.74011e-05
0.000160972
0.000143506
0.000143506
0.000116328
6.69482e-05
1.80598e-05
)
;
    }
    procBoundary9to1
    {
        type            processor;
        value           nonuniform List<scalar> 
30
(
0.000155472
0.000138584
0.000138584
0.000112279
6.45006e-05
1.72018e-05
0.000138446
0.000122885
0.000122885
9.84012e-05
5.50417e-05
1.50158e-05
0.000107424
9.40046e-05
9.40046e-05
7.36135e-05
3.80335e-05
1.18477e-05
6.01905e-05
5.08536e-05
5.08536e-05
3.77427e-05
1.74064e-05
8.07311e-06
1.70668e-05
1.50776e-05
1.50776e-05
1.21687e-05
8.21014e-06
4.03251e-06
)
;
    }
    procBoundary9to7
    {
        type            processor;
        value           nonuniform List<scalar> 
59
(
1.48376e-05
1.41795e-05
1.25306e-05
1.00788e-05
7.02654e-06
3.62493e-06
3.88191e-05
3.79682e-05
3.13645e-05
1.92807e-05
8.72581e-06
7.22428e-06
7.3706e-05
7.1455e-05
6.13038e-05
4.11529e-05
2.03133e-05
1.04878e-05
9.86011e-05
9.52522e-05
8.23024e-05
5.87664e-05
3.01248e-05
1.29009e-05
0.000108384
9.46328e-05
6.96631e-05
3.60036e-05
1.43968e-05
0.000112768
9.90187e-05
7.40222e-05
3.90149e-05
1.48406e-05
0.000108392
9.53287e-05
7.15645e-05
3.80476e-05
1.4182e-05
9.43993e-05
8.22367e-05
6.1251e-05
3.13952e-05
1.25321e-05
6.94617e-05
5.86524e-05
4.08225e-05
1.9177e-05
1.00788e-05
3.59175e-05
3.00704e-05
2.02348e-05
8.71747e-06
7.02646e-06
1.43959e-05
1.28993e-05
1.0486e-05
7.22378e-06
3.62494e-06
)
;
    }
    procBoundary9to8
    {
        type            processor;
        value           nonuniform List<scalar> 
132
(
1.67508e-05
1.6464e-05
1.61962e-05
1.59486e-05
1.57165e-05
1.54975e-05
1.52911e-05
1.50963e-05
1.49173e-05
1.47396e-05
1.45598e-05
5.74657e-05
5.48737e-05
5.24681e-05
5.02276e-05
4.81297e-05
4.61569e-05
4.43125e-05
4.25411e-05
4.09328e-05
3.90562e-05
3.72165e-05
0.00010342
9.96435e-05
9.60502e-05
9.26222e-05
8.93478e-05
8.62236e-05
8.32281e-05
8.03418e-05
7.75575e-05
7.47574e-05
7.23857e-05
0.000133942
0.000129668
0.000125583
0.000121669
0.000117912
0.000114298
0.000110811
0.000107434
0.00010416
0.000100907
9.80957e-05
0.000156023
0.000151321
0.000146837
0.000142548
0.000138435
0.000134479
0.000130662
0.000126964
0.000123372
0.000119834
0.000116654
0.000156023
0.000151321
0.000146837
0.000142548
0.000138435
0.000134479
0.000130662
0.000126964
0.000123372
0.000119834
0.000116654
0.00016157
0.000156758
0.000152174
0.000147796
0.000143603
0.000139575
0.000135694
0.000131941
0.0001283
0.00012473
0.000121478
0.000156014
0.000151321
0.00014685
0.000142578
0.000138487
0.000134556
0.00013077
0.000127108
0.000123558
0.000120071
0.000116927
0.000138943
0.000134597
0.000130449
0.000126482
0.00012268
0.000119029
0.000115512
0.000112111
0.000108816
0.000105553
0.000102702
0.000108176
0.000104399
0.000100807
9.73818e-05
9.41116e-05
9.09968e-05
8.80073e-05
8.51183e-05
8.23372e-05
7.9538e-05
7.71631e-05
6.12105e-05
5.86308e-05
5.62384e-05
5.39988e-05
5.18899e-05
4.98978e-05
4.80086e-05
4.6204e-05
4.44877e-05
4.28015e-05
4.10954e-05
1.73469e-05
1.70299e-05
1.67347e-05
1.64597e-05
1.62038e-05
1.59683e-05
1.57484e-05
1.55427e-05
1.53504e-05
1.517e-05
1.5003e-05
)
;
    }
}


// ************************************************************************* //
