/*--------------------------------*- C++ -*----------------------------------*\
| =========                 |                                                 |
| \\      /  F ield         | OpenFOAM: The Open Source CFD Toolbox           |
|  \\    /   O peration     | Version:  2212                                  |
|   \\  /    A nd           | Website:  www.openfoam.com                      |
|    \\/     M anipulation  |                                                 |
\*---------------------------------------------------------------------------*/
FoamFile
{
    version     2.0;
    format      ascii;
    arch        "LSB;label=32;scalar=64";
    class       volScalarField;
    location    "1.4";
    object      p;
}
// * * * * * * * * * * * * * * * * * * * * * * * * * * * * * * * * * * * * * //

dimensions      [0 2 -2 0 0 0 0];

internalField   nonuniform List<scalar> 
682
(
0.00325616
0.00312418
0.00299372
0.00286454
0.00273666
0.00261005
0.0024847
0.00236063
0.00223784
0.00211628
0.00199593
0.00325282
0.00312137
0.0029913
0.0028628
0.00273553
0.00260941
0.00248454
0.00236093
0.00223854
0.00211736
0.00199729
0.00324803
0.00311698
0.00298682
0.00285831
0.00273146
0.00260592
0.00248157
0.00235835
0.00223612
0.00211511
0.00199515
0.00337217
0.00324255
0.0031142
0.00298752
0.00286045
0.00273381
0.00260815
0.00248366
0.00236033
0.00223781
0.00211646
0.00199634
0.00338658
0.00325746
0.00312975
0.00300309
0.00287534
0.00274758
0.00262087
0.00249554
0.00237163
0.00224874
0.00212644
0.00200544
0.00339043
0.0032584
0.00312725
0.002997
0.00286719
0.00273838
0.00261107
0.00248539
0.00236125
0.00223833
0.00211633
0.00199624
0.00326892
0.00313631
0.00300507
0.00287511
0.00274642
0.00261902
0.00249286
0.00236797
0.0022442
0.00212132
0.00199948
0.0032689
0.00313517
0.00300305
0.00287263
0.00274373
0.00261627
0.00249009
0.0023652
0.0022417
0.00211926
0.00199802
0.00325951
0.00312609
0.00299413
0.00286447
0.00273656
0.00261015
0.00248491
0.00236069
0.00223767
0.00211572
0.00199509
0.00338454
0.00325182
0.00311947
0.00298797
0.00285866
0.00273121
0.00260566
0.00248146
0.00235801
0.00223516
0.00211388
0.00199433
0.00340204
0.00326958
0.0031378
0.00300729
0.00287742
0.00274887
0.00262184
0.00249632
0.00237214
0.00224901
0.00212697
0.00200647
0.00339187
0.00325701
0.00312318
0.00299062
0.00285921
0.0027295
0.00260172
0.00247575
0.00235142
0.00222846
0.00210685
0.0019877
0.00322258
0.00309085
0.0029606
0.00283154
0.00270365
0.00257692
0.0024513
0.00232676
0.00220318
0.00208047
0.00195842
0.00322412
0.00309155
0.00296052
0.00283095
0.00270281
0.00257592
0.00245025
0.00232581
0.00220254
0.00208025
0.00195872
0.00322102
0.00308893
0.00295837
0.00282958
0.00270224
0.00257574
0.00245018
0.00232601
0.00220359
0.00208219
0.00196154
0.00335269
0.00322057
0.00308992
0.00296035
0.00283258
0.0027059
0.00258018
0.00245539
0.00233164
0.00220928
0.0020882
0.00196815
0.00338604
0.00325324
0.00312179
0.00299163
0.00286259
0.0027346
0.00260831
0.00248325
0.00235908
0.00223551
0.00211326
0.00199251
0.00338162
0.00324597
0.0031118
0.00297946
0.00284884
0.00272003
0.00259292
0.00246736
0.00234317
0.00222013
0.00209843
0.00197911
0.00320548
0.00307418
0.00294422
0.00281551
0.00268798
0.00256157
0.00243624
0.00231193
0.00218857
0.00206617
0.00194432
0.00320754
0.00307599
0.00294581
0.00281692
0.00268926
0.00256277
0.0024374
0.00231311
0.00218985
0.00206756
0.00194574
0.00321121
0.00307991
0.00294999
0.00282139
0.00269404
0.00256768
0.00244238
0.00231831
0.0021956
0.00207394
0.00195243
0.00335128
0.00321923
0.00308852
0.002959
0.00283078
0.00270378
0.00257743
0.0024522
0.00232824
0.00220593
0.00208453
0.00196316
0.00339264
0.00326014
0.00312871
0.00299815
0.00286861
0.00274019
0.00261311
0.00248736
0.00236271
0.00223914
0.00211667
0.0019952
0.00339182
0.0032569
0.00312337
0.00299117
0.00286066
0.00273172
0.0026043
0.00247798
0.00235309
0.00222923
0.00210607
0.00198401
0.00319639
0.00306521
0.00293535
0.00280673
0.00267928
0.00255295
0.00242768
0.0023034
0.00218005
0.0020576
0.0019357
0.00320466
0.00307356
0.00294378
0.00281524
0.00268788
0.00256161
0.00243637
0.00231215
0.00218892
0.00206665
0.00194495
0.00335086
0.00321851
0.00308755
0.00295788
0.00282948
0.00270223
0.00257595
0.0024506
0.0023262
0.00220272
0.00208006
0.00195836
0.00339595
0.00326312
0.00313149
0.00300103
0.00287171
0.00274357
0.00261656
0.00249078
0.00236605
0.00224232
0.00211942
0.00199761
0.0033901
0.00325639
0.00312402
0.00299297
0.00286334
0.00273506
0.00260796
0.00248208
0.00235753
0.00223442
0.0021125
0.00199123
0.00319416
0.00306301
0.0029332
0.00280462
0.0026772
0.00255089
0.00242563
0.00230134
0.00217797
0.00205548
0.00193357
0.00320546
0.00307418
0.00294424
0.00281553
0.00268801
0.00256162
0.0024363
0.00231201
0.00218867
0.00206626
0.00194441
0.00335592
0.00322251
0.00309079
0.00296056
0.0028315
0.00270363
0.0025769
0.0024513
0.00232679
0.00220324
0.00208053
0.00195848
0.00340289
0.00326884
0.00313619
0.00300492
0.00287494
0.00274623
0.00261881
0.00249266
0.00236777
0.00224401
0.00212116
0.00199935
0.00338936
0.00325607
0.00312404
0.00299351
0.00286427
0.00273634
0.00260969
0.00248432
0.00236023
0.00223746
0.00211595
0.00199567
0.00319637
0.00306519
0.00293534
0.00280671
0.00267925
0.00255292
0.00242764
0.00230336
0.00218001
0.00205757
0.00193571
0.00320752
0.00307598
0.0029458
0.00281691
0.00268926
0.00256275
0.00243737
0.00231309
0.00218981
0.00206751
0.00194573
0.0033583
0.00322408
0.00309151
0.00296046
0.0028309
0.00270277
0.00257586
0.00245017
0.00232577
0.00220247
0.00208013
0.00195865
0.00340429
0.00326884
0.00313507
0.00300291
0.00287246
0.00274356
0.00261607
0.00248988
0.00236501
0.0022415
0.00211906
0.00199787
0.00338542
0.00325269
0.00312121
0.0029911
0.00286255
0.00273524
0.00260912
0.00248426
0.00236065
0.00223828
0.00211714
0.00199709
0.00320461
0.0030735
0.00294371
0.00281516
0.0026878
0.0025615
0.00243623
0.002312
0.00218875
0.00206648
0.00194485
0.00321117
0.00307988
0.00294996
0.00282139
0.00269404
0.00256764
0.00244226
0.00231823
0.00219546
0.00207374
0.00195233
0.00335492
0.00322099
0.00308892
0.00295834
0.0028296
0.00270229
0.00257567
0.00244996
0.00232605
0.00220347
0.00208179
0.00196137
0.00339451
0.00325943
0.00312601
0.00299403
0.00286435
0.00273653
0.00261001
0.00248473
0.0023605
0.00223749
0.00211556
0.00199487
0.00337938
0.00324785
0.0031168
0.00298663
0.00285808
0.00273119
0.00260569
0.00248139
0.00235812
0.00223595
0.00211499
0.00199496
0.00321846
0.0030875
0.00295782
0.00282942
0.00270216
0.00257585
0.00245043
0.00232599
0.00220248
0.0020798
0.00195821
0.00321909
0.00308847
0.00295899
0.00283087
0.00270387
0.00257744
0.002452
0.00232813
0.00220573
0.00208413
0.00196304
0.00335254
0.00322027
0.00308988
0.00296045
0.00283272
0.00270619
0.00258024
0.00245527
0.00233158
0.00220914
0.00208777
0.00196798
0.00338445
0.00325175
0.0031194
0.00298792
0.0028585
0.00273111
0.00260556
0.00248152
0.00235775
0.00223501
0.00211398
0.00199417
0.0033721
0.00324246
0.00311402
0.00298732
0.00286018
0.00273337
0.00260793
0.00248361
0.00236021
0.0022377
0.00211639
0.00199626
0.00326304
0.00313145
0.003001
0.00287167
0.00274351
0.0026165
0.00249069
0.00236588
0.00224212
0.00211919
0.00199737
0.00325993
0.00312866
0.00299821
0.00286862
0.00274023
0.00261311
0.00248735
0.0023626
0.00223902
0.00211638
0.00199504
0.00338597
0.00325317
0.00312176
0.00299166
0.00286249
0.00273453
0.00260824
0.00248337
0.00235896
0.00223542
0.00211324
0.00199234
0.00340209
0.00326977
0.00313774
0.00300705
0.00287713
0.00274841
0.00262159
0.00249625
0.00237207
0.00224894
0.00212714
0.00200631
0.00338664
0.00325744
0.00312958
0.00300278
0.00287503
0.00274714
0.0026206
0.00249538
0.00237154
0.00224866
0.00212646
0.00200527
0.00325635
0.00312398
0.00299293
0.00286327
0.00273499
0.0026079
0.00248204
0.00235751
0.00223435
0.00211233
0.00199088
0.00325694
0.00312333
0.00299108
0.00286053
0.0027316
0.00260416
0.00247792
0.00235315
0.0022292
0.0021059
0.00198363
0.00338173
0.00324621
0.00311178
0.00297923
0.00284863
0.00271976
0.00259278
0.0024673
0.00234317
0.00222008
0.00209858
0.00197877
0.003392
0.00325711
0.00312312
0.00299037
0.00285897
0.00272918
0.00260154
0.00247565
0.00235142
0.00222843
0.00210696
0.0019875
0.00339054
0.00325846
0.00312715
0.00299673
0.00286693
0.00273799
0.00261085
0.00248527
0.00236122
0.00223827
0.0021164
0.00199606
)
;

boundaryField
{
    inlet
    {
        type            zeroGradient;
    }
    ami1
    {
        type            cyclicAMI;
        value           nonuniform List<scalar> 0();
    }
    walls
    {
        type            zeroGradient;
    }
    ami2
    {
        type            cyclicAMI;
        value           nonuniform List<scalar> 0();
    }
    outlet
    {
        type            fixedValue;
        value           nonuniform List<scalar> 0();
    }
    procBoundary9to0
    {
        type            processor;
        value           nonuniform List<scalar> 
40
(
0.00338946
0.00338552
0.00337947
0.00337947
0.00350203
0.00351651
0.00352364
0.00340291
0.00340431
0.00339455
0.00339455
0.00351815
0.00353498
0.00352828
0.00335595
0.00335834
0.00335495
0.00335495
0.00348649
0.00351983
0.0035187
0.00333821
0.00334058
0.00334409
0.00334409
0.0034848
0.00352634
0.00352852
0.00332904
0.00333717
0.00333717
0.00348459
0.00353004
0.0035253
0.00332676
0.00333818
0.00333818
0.00349081
0.00353828
0.00352403
)
;
    }
    procBoundary9to1
    {
        type            processor;
        value           nonuniform List<scalar> 
30
(
0.00332902
0.00334052
0.00334052
0.00349431
0.00354141
0.0035195
0.00333713
0.00334403
0.00334403
0.00349082
0.00353145
0.00351184
0.00335078
0.00335116
0.00335116
0.00348619
0.00351808
0.0035021
0.00339584
0.00339251
0.00339251
0.0035197
0.00353522
0.0035167
0.00339012
0.00339189
0.00339189
0.00351898
0.00352853
0.00352387
)
;
    }
    procBoundary9to7
    {
        type            processor;
        value           nonuniform List<scalar> 
59
(
0.00187618
0.00187776
0.00187661
0.00187829
0.00188652
0.00187788
0.0018788
0.0018776
0.0018753
0.00187589
0.0018877
0.00187022
0.00183754
0.00183795
0.00184108
0.00184882
0.00187284
0.00186122
0.0018233
0.00182453
0.00183097
0.00184246
0.0018748
0.00186328
0.00181454
0.00182403
0.00183801
0.00187708
0.00187067
0.00181242
0.00182337
0.00183759
0.0018787
0.00187605
0.00181459
0.00182455
0.00183793
0.00187748
0.0018776
0.001824
0.00183095
0.00184104
0.00187515
0.00187634
0.00183794
0.0018424
0.00184882
0.00187572
0.00187795
0.00187678
0.00187455
0.0018726
0.00188728
0.00188611
0.00187012
0.00186277
0.00186077
0.00186979
0.00187747
)
;
    }
    procBoundary9to8
    {
        type            processor;
        value           nonuniform List<scalar> 
132
(
0.00325651
0.00312415
0.00299314
0.00286357
0.00273537
0.00260831
0.00248251
0.00235797
0.00223487
0.0021129
0.00199148
0.00326314
0.0031316
0.00300118
0.00287188
0.00274375
0.00261682
0.00249093
0.00236628
0.00224249
0.00211944
0.00199764
0.00321854
0.00308761
0.00295795
0.00282955
0.00270229
0.00257601
0.00245054
0.00232613
0.00220254
0.00207986
0.00195828
0.00320468
0.00307358
0.0029438
0.00281526
0.00268788
0.00256159
0.0024363
0.00231206
0.00218878
0.00206651
0.00194486
0.00319416
0.003063
0.00293319
0.0028046
0.00267718
0.00255086
0.00242559
0.00230129
0.00217791
0.00205542
0.00193352
0.00319416
0.003063
0.00293319
0.0028046
0.00267718
0.00255086
0.00242559
0.00230129
0.00217791
0.00205542
0.00193352
0.00319086
0.00305988
0.00293019
0.00280168
0.0026743
0.00254801
0.00242276
0.00229847
0.00217509
0.00205258
0.00193068
0.00319414
0.00306299
0.00293318
0.0028046
0.00267718
0.00255087
0.0024256
0.00230131
0.00217793
0.00205544
0.00193355
0.00320541
0.00307411
0.00294416
0.00281545
0.00268792
0.00256152
0.00243619
0.00231189
0.00218853
0.00206613
0.00194429
0.00322249
0.00309075
0.0029605
0.00283143
0.00270354
0.00257681
0.00245118
0.00232664
0.00220307
0.00208035
0.00195831
0.00326879
0.00313614
0.00300486
0.00287486
0.00274614
0.0026187
0.00249252
0.00236759
0.0022438
0.00212093
0.00199905
0.00325596
0.00312395
0.00299342
0.00286417
0.00273623
0.00260958
0.0024842
0.00236009
0.00223727
0.00211568
0.0019953
)
;
    }
}


// ************************************************************************* //
