/*--------------------------------*- C++ -*----------------------------------*\
| =========                 |                                                 |
| \\      /  F ield         | OpenFOAM: The Open Source CFD Toolbox           |
|  \\    /   O peration     | Version:  2212                                  |
|   \\  /    A nd           | Website:  www.openfoam.com                      |
|    \\/     M anipulation  |                                                 |
\*---------------------------------------------------------------------------*/
FoamFile
{
    version     2.0;
    format      ascii;
    arch        "LSB;label=32;scalar=64";
    class       volScalarField;
    location    "0.45";
    object      k;
}
// * * * * * * * * * * * * * * * * * * * * * * * * * * * * * * * * * * * * * //

dimensions      [0 2 -2 0 0 0 0];

internalField   nonuniform List<scalar> 
680
(
0.0085163
0.00749318
0.0066985
0.00606675
0.00555937
0.00513531
0.0047801
0.0143673
0.0120151
0.0102265
0.00883637
0.00773678
0.00685168
0.00613513
0.0167998
0.0140537
0.0119515
0.0103008
0.00898129
0.00792209
0.00706471
0.0190816
0.0159397
0.0135247
0.0116469
0.0101417
0.00892381
0.00793078
0.0202241
0.0169107
0.014335
0.012329
0.0107317
0.00943824
0.00838198
0.0202243
0.016911
0.0143354
0.0123297
0.0107327
0.00943971
0.00838415
0.0190821
0.0159404
0.0135256
0.0116483
0.0101439
0.00892697
0.0168002
0.0140542
0.0119525
0.0103022
0.00898334
0.00792511
0.0143674
0.0120153
0.0102268
0.00883683
0.00773752
0.00685294
0.0085163
0.00749319
0.0066985
0.00606675
0.00555938
0.00513532
0.0143674
0.0120153
0.0102268
0.00883681
0.0077375
0.00685293
0.00613777
0.0319217
0.0261115
0.0217161
0.0183225
0.0156587
0.0135433
0.0118448
0.0391501
0.0320738
0.0266975
0.022532
0.0192521
0.0166353
0.0145251
0.0439926
0.0361146
0.0301001
0.0254231
0.0217284
0.0187714
0.0163795
0.0464294
0.0381684
0.0318422
0.0269114
0.023009
0.0198807
0.0173462
0.0464298
0.038169
0.031843
0.0269125
0.0230106
0.0198829
0.0173494
0.0439934
0.0361157
0.0301017
0.0254254
0.0217317
0.0187761
0.0391507
0.0320747
0.0266987
0.0225337
0.0192546
0.0166389
0.0319217
0.0261115
0.0217161
0.0183225
0.0156587
0.0135433
0.0143673
0.0120151
0.0102265
0.00883637
0.00773678
0.00685167
0.0168001
0.0140542
0.0119525
0.0103022
0.00898332
0.00792509
0.00706931
0.0391507
0.0320747
0.0266986
0.0225336
0.0192545
0.0166388
0.0145303
0.05139
0.0422361
0.0352043
0.0297165
0.0253734
0.0218948
0.0190805
0.0585938
0.0484128
0.0404972
0.0342625
0.0292931
0.0252902
0.0220364
0.0619677
0.0513756
0.0430834
0.0365158
0.0312574
0.027006
0.0235395
0.061968
0.051376
0.0430839
0.0365165
0.0312583
0.0270073
0.0235414
0.0585942
0.0484134
0.040498
0.0342637
0.0292947
0.0252924
0.05139
0.0422361
0.0352043
0.0297165
0.0253735
0.0218949
0.0391501
0.0320738
0.0266975
0.022532
0.0192521
0.0166353
0.0167998
0.0140537
0.0119515
0.0103008
0.00898129
0.00792208
0.0190821
0.0159404
0.0135256
0.0116483
0.0101439
0.00892695
0.00793548
0.0439934
0.0361157
0.0301017
0.0254254
0.0217317
0.0187761
0.0163862
0.0585942
0.0484134
0.040498
0.0342636
0.0292946
0.0252922
0.0220392
0.0669904
0.0557968
0.0469432
0.0398742
0.0341792
0.029553
0.0257673
0.070756
0.059221
0.0500121
0.042601
0.0365909
0.031682
0.0276469
0.0707561
0.0592212
0.0500123
0.0426013
0.0365912
0.0316825
0.0276476
0.0669904
0.0557968
0.0469433
0.0398743
0.0341794
0.0295533
0.0585938
0.0484129
0.0404972
0.0342626
0.0292932
0.0252903
0.0439926
0.0361146
0.0301001
0.0254232
0.0217284
0.0187714
0.0190816
0.0159397
0.0135247
0.0116469
0.0101417
0.0089238
0.0202243
0.016911
0.0143354
0.0123297
0.0107327
0.0094397
0.00838416
0.0464298
0.038169
0.031843
0.0269124
0.0230106
0.0198829
0.0173494
0.061968
0.0513759
0.0430839
0.0365164
0.0312583
0.0270072
0.0235412
0.070756
0.0592211
0.0500123
0.0426012
0.0365911
0.0316823
0.0276474
0.074618
0.0628022
0.0532714
0.0455318
0.0392069
0.0340079
0.0297116
0.074618
0.0628022
0.0532714
0.0455318
0.039207
0.034008
0.0297117
0.070756
0.0592211
0.0500122
0.0426011
0.0365911
0.0316823
0.0619677
0.0513756
0.0430835
0.0365159
0.0312575
0.0270062
0.0464294
0.0381685
0.0318422
0.0269114
0.023009
0.0198807
0.0202241
0.0169107
0.014335
0.012329
0.0107317
0.00943823
0.0202241
0.0169107
0.014335
0.012329
0.0107317
0.00943824
0.00838199
0.0464294
0.0381684
0.0318422
0.0269113
0.023009
0.0198807
0.0173462
0.0619677
0.0513756
0.0430834
0.0365158
0.0312574
0.027006
0.0235395
0.070756
0.059221
0.0500121
0.042601
0.0365909
0.031682
0.0276469
0.074618
0.0628022
0.0532714
0.0455318
0.0392069
0.0340079
0.0297116
0.074618
0.0628022
0.0532714
0.0455318
0.039207
0.034008
0.0297117
0.0707561
0.0592212
0.0500123
0.0426013
0.0365913
0.0316827
0.061968
0.051376
0.0430839
0.0365165
0.0312584
0.0270074
0.0464298
0.038169
0.031843
0.0269125
0.0230106
0.019883
0.0202243
0.016911
0.0143354
0.0123297
0.0107327
0.0094397
0.0190816
0.0159397
0.0135247
0.0116469
0.0101417
0.00892381
0.00793078
0.0439926
0.0361146
0.0301001
0.0254231
0.0217284
0.0187714
0.0163795
0.0585938
0.0484128
0.0404972
0.0342626
0.0292931
0.0252902
0.0220364
0.0669904
0.0557968
0.0469432
0.0398743
0.0341792
0.029553
0.0257673
0.0707561
0.0592212
0.0500123
0.0426012
0.0365911
0.0316824
0.0276474
0.0853232
0.070756
0.0592211
0.0500122
0.0426011
0.036591
0.0316821
0.0276471
0.0812776
0.0669904
0.0557968
0.0469433
0.0398743
0.0341794
0.0295533
0.0718674
0.0585942
0.0484134
0.040498
0.0342637
0.0292947
0.0252924
0.0545353
0.0439934
0.0361158
0.0301017
0.0254255
0.0217317
0.0187761
0.023274
0.0190821
0.0159404
0.0135256
0.0116483
0.0101439
0.00892695
0.0167998
0.0140537
0.0119515
0.0103008
0.0089813
0.0079221
0.00706472
0.0391501
0.0320738
0.0266975
0.022532
0.0192521
0.0166353
0.0145251
0.05139
0.0422361
0.0352043
0.0297165
0.0253734
0.0218948
0.0190805
0.0585942
0.0484134
0.040498
0.0342636
0.0292946
0.0252923
0.0220393
0.061968
0.051376
0.0430839
0.0365165
0.0312583
0.0270073
0.0235413
0.0756611
0.0619677
0.0513756
0.0430834
0.0365158
0.0312575
0.0270061
0.0235396
0.0718671
0.0585938
0.0484129
0.0404972
0.0342626
0.0292932
0.0252903
0.0635146
0.05139
0.0422361
0.0352043
0.0297166
0.0253735
0.0218949
0.0486819
0.0391507
0.0320747
0.0266987
0.0225337
0.0192546
0.0166389
0.0204623
0.0168002
0.0140542
0.0119525
0.0103022
0.00898334
0.0079251
0.0143673
0.0120152
0.0102265
0.00883637
0.00773678
0.00685168
0.00613514
0.0319217
0.0261115
0.0217161
0.0183225
0.0156587
0.0135433
0.0118448
0.0391507
0.0320747
0.0266987
0.0225337
0.0192545
0.0166388
0.0145303
0.0439934
0.0361158
0.0301017
0.0254254
0.0217317
0.0187761
0.0163863
0.0464298
0.038169
0.031843
0.0269125
0.0230106
0.0198829
0.0173494
0.0574448
0.0464294
0.0381685
0.0318422
0.0269114
0.023009
0.0198807
0.0173462
0.0545347
0.0439926
0.0361146
0.0301001
0.0254232
0.0217284
0.0187714
0.0486815
0.0391501
0.0320739
0.0266975
0.022532
0.0192521
0.0166353
0.0397994
0.0319217
0.0261115
0.0217161
0.0183225
0.0156587
0.0135434
0.017538
0.0143674
0.0120153
0.0102268
0.00883683
0.00773753
0.00685295
0.0085163
0.00749318
0.00669851
0.00606675
0.00555937
0.00513532
0.00478011
0.0143674
0.0120153
0.0102268
0.00883682
0.00773751
0.00685294
0.00613778
0.0168001
0.0140542
0.0119525
0.0103022
0.00898333
0.00792511
0.00706933
0.0190821
0.0159404
0.0135256
0.0116483
0.0101439
0.00892696
0.00793549
0.0202243
0.016911
0.0143354
0.0123297
0.0107327
0.00943972
0.00838417
0.0246465
0.0202241
0.0169107
0.014335
0.012329
0.0107317
0.00943825
0.00838197
0.0232737
0.0190817
0.0159397
0.0135247
0.0116469
0.0101417
0.00892382
0.0204621
0.0167998
0.0140537
0.0119515
0.0103008
0.00898131
0.0079221
0.017538
0.0143673
0.0120152
0.0102265
0.00883638
0.0077368
0.00685169
0.00989095
0.0085163
0.00749319
0.0066985
0.00606675
0.00555938
0.00513533
)
;

boundaryField
{
    inlet
    {
        type            fixedValue;
        value           nonuniform List<scalar> 0();
    }
    ami1
    {
        type            cyclicAMI;
        value           nonuniform List<scalar> 0();
    }
    walls
    {
        type            kqRWallFunction;
        value           nonuniform List<scalar> 
271
(
0.023274
0.0204623
0.017538
0.00989095
0.0085163
0.0143673
0.0167998
0.0190816
0.0202241
0.0202243
0.0190821
0.0168002
0.0143674
0.0085163
0.00749319
0.0120151
0.0140537
0.0159397
0.0169107
0.016911
0.0159404
0.0140542
0.0120153
0.00749319
0.0066985
0.0102265
0.0119515
0.0135247
0.014335
0.0143354
0.0135256
0.0119525
0.0102268
0.0066985
0.00606675
0.00883637
0.0103008
0.0116469
0.012329
0.0123297
0.0116483
0.0103022
0.00883683
0.00606675
0.00555938
0.00773678
0.00898129
0.0101417
0.0107317
0.0107327
0.0101439
0.00898334
0.00773753
0.00555938
0.00513532
0.00685167
0.00792208
0.0089238
0.00943823
0.0094397
0.00892695
0.0079251
0.00685295
0.00513533
0.0085163
0.0143673
0.0167998
0.0190816
0.0202241
0.0202243
0.0190821
0.0168002
0.0143674
0.0085163
0.00749318
0.0120151
0.0140537
0.0159397
0.0169107
0.016911
0.0159404
0.0140542
0.0120153
0.00749319
0.0066985
0.0102265
0.0119515
0.0135247
0.014335
0.0143354
0.0135256
0.0119525
0.0102268
0.0066985
0.00606675
0.00883637
0.0103008
0.0116469
0.012329
0.0123297
0.0116483
0.0103022
0.00883683
0.00606675
0.00555937
0.00773678
0.00898129
0.0101417
0.0107317
0.0107327
0.0101439
0.00898334
0.00773752
0.00555938
0.00513531
0.00685168
0.00792209
0.00892381
0.00943824
0.00943971
0.00892697
0.00792511
0.00685294
0.00513532
0.0047801
0.00613513
0.00706471
0.00793078
0.00838198
0.00838415
0.0085163
0.0143674
0.0168001
0.0190821
0.0202243
0.0202241
0.0190816
0.0167998
0.0143673
0.0085163
0.00749318
0.0120153
0.0140542
0.0159404
0.016911
0.0169107
0.0159397
0.0140537
0.0120152
0.00749318
0.0066985
0.0102268
0.0119525
0.0135256
0.0143354
0.014335
0.0135247
0.0119515
0.0102265
0.00669851
0.00606675
0.00883681
0.0103022
0.0116483
0.0123297
0.012329
0.0116469
0.0103008
0.00883637
0.00606675
0.00555937
0.0077375
0.00898332
0.0101439
0.0107327
0.0107317
0.0101417
0.0089813
0.00773678
0.00555937
0.00513531
0.00685293
0.00792509
0.00892695
0.0094397
0.00943824
0.00892381
0.0079221
0.00685168
0.00513532
0.0047801
0.00613777
0.00706931
0.00793548
0.00838416
0.00838199
0.00793078
0.00706472
0.00613514
0.00478011
0.0246465
0.0232737
0.0204621
0.017538
0.00989095
0.0085163
0.0143674
0.0168001
0.0190821
0.0202243
0.0202241
0.0190817
0.0167998
0.0143673
0.0085163
0.00749318
0.0120153
0.0140542
0.0159404
0.016911
0.0169107
0.0159397
0.0140537
0.0120152
0.00749319
0.00669851
0.0102268
0.0119525
0.0135256
0.0143354
0.014335
0.0135247
0.0119515
0.0102265
0.0066985
0.00606675
0.00883682
0.0103022
0.0116483
0.0123297
0.012329
0.0116469
0.0103008
0.00883638
0.00606675
0.00555937
0.00773751
0.00898333
0.0101439
0.0107327
0.0107317
0.0101417
0.00898131
0.0077368
0.00555938
0.00513532
0.00685294
0.00792511
0.00892696
0.00943972
0.00943825
0.00892382
0.0079221
0.00685169
0.00513533
0.00478011
0.00613778
0.00706933
0.00793549
0.00838417
0.00838197
)
;
    }
    ami2
    {
        type            cyclicAMI;
        value           nonuniform List<scalar> 0();
    }
    outlet
    {
        type            zeroGradient;
    }
    procBoundary3to2
    {
        type            processor;
        value           nonuniform List<scalar> 
110
(
0.00447659
0.00554534
0.00636668
0.00711563
0.00751346
0.00751671
0.00793553
0.00793553
0.00706933
0.00613777
0.0047801
0.00554929
0.0104691
0.0128102
0.0144283
0.0152754
0.0152799
0.0163863
0.0163863
0.0145303
0.0118448
0.00613511
0.00637363
0.0128178
0.016785
0.0193714
0.0206928
0.0206952
0.0220393
0.0220393
0.0190805
0.014525
0.00706468
0.00712275
0.014438
0.0193754
0.0226496
0.0243112
0.024312
0.0257674
0.0257674
0.0220364
0.0163795
0.00793075
0.00751674
0.01528
0.0206951
0.0243119
0.0261442
0.0261443
0.027647
0.027647
0.0235395
0.0173462
0.00838196
0.00751347
0.0152754
0.0206927
0.0243112
0.0261442
0.0261443
0.0276475
0.0276475
0.0235412
0.0173494
0.00838414
0.00711564
0.0144283
0.0193714
0.0226496
0.0243119
0.0243113
0.0257674
0.0257674
0.0220392
0.0163862
0.00793546
0.00636669
0.0128102
0.016785
0.0193754
0.0206952
0.0206928
0.0220364
0.0220364
0.0190805
0.0145302
0.0070693
0.00554535
0.0104692
0.0128178
0.014438
0.01528
0.0152753
0.0163795
0.0163795
0.0145251
0.0118448
0.00613777
0.00447661
0.0055493
0.00637364
0.00712277
0.00751674
0.00751343
0.00793082
0.00793082
0.00706472
0.00613514
0.00478011
)
;
    }
    procBoundary3to4
    {
        type            processor;
        value           nonuniform List<scalar> 
109
(
0.00989095
0.017538
0.0204621
0.0232737
0.0246465
0.0246467
0.023274
0.0204623
0.017538
0.00989095
0.017538
0.0397993
0.0486815
0.0545347
0.0574448
0.0574451
0.0545353
0.0486819
0.0397993
0.017538
0.0204623
0.0486819
0.0635146
0.071867
0.0756611
0.0756613
0.0718673
0.0635146
0.0486815
0.0204621
0.023274
0.0545353
0.0718673
0.0812776
0.0853232
0.0853233
0.0812776
0.0718671
0.0545347
0.0232737
0.0246467
0.0574451
0.0756613
0.0853233
0.0893728
0.0893728
0.0853232
0.0756611
0.0574448
0.0246465
0.0246465
0.0574448
0.0756611
0.0853232
0.0893728
0.0893729
0.0893729
0.0853233
0.0853233
0.0756613
0.0756613
0.0574451
0.0574451
0.0246467
0.0246467
0.0232737
0.0545347
0.0718671
0.0812776
0.0853233
0.0853233
0.103873
0.0996818
0.0894059
0.068995
0.0292881
0.0204621
0.0486815
0.0635146
0.0718674
0.0756613
0.0756613
0.0935726
0.0894057
0.0798688
0.0618747
0.0256622
0.017538
0.0397993
0.0486819
0.0545353
0.0574451
0.0574451
0.0724844
0.0689946
0.0618744
0.0508134
0.0219943
0.00989095
0.017538
0.0204623
0.023274
0.0246467
0.0246467
0.0310727
0.0292879
0.0256621
0.0219943
0.0118513
)
;
    }
}


// ************************************************************************* //
