/*--------------------------------*- C++ -*----------------------------------*\
| =========                 |                                                 |
| \\      /  F ield         | OpenFOAM: The Open Source CFD Toolbox           |
|  \\    /   O peration     | Version:  2212                                  |
|   \\  /    A nd           | Website:  www.openfoam.com                      |
|    \\/     M anipulation  |                                                 |
\*---------------------------------------------------------------------------*/
FoamFile
{
    version     2.0;
    format      ascii;
    arch        "LSB;label=32;scalar=64";
    class       volScalarField;
    location    "1.6";
    object      epsilon;
}
// * * * * * * * * * * * * * * * * * * * * * * * * * * * * * * * * * * * * * //

dimensions      [0 2 -3 0 0 0 0];

internalField   nonuniform List<scalar> 
678
(
0.07782
0.0763553
0.0749784
0.0735809
0.0723999
0.070548
0.0287867
0.0282016
0.0276497
0.0271244
0.026633
0.0260727
0.0190818
0.0186833
0.0182917
0.0179173
0.0175641
0.0172008
0.0141871
0.0138719
0.0135721
0.0132875
0.0130106
0.0122408
0.0119614
0.0116925
0.0114371
0.0111965
0.011212
0.0109564
0.0107093
0.0104778
0.0113514
0.0110754
0.0108065
0.0105508
0.0125131
0.0121871
0.0118751
0.0115769
0.0157403
0.0153414
0.0149739
0.0146229
0.0255367
0.0249482
0.0243874
0.0238949
0.0233297
0.0764808
0.0749825
0.0735322
0.0722877
0.0703443
0.0254808
0.0249343
0.0244187
0.0239479
0.0234071
0.0103224
0.0100389
0.00969661
0.00940645
0.00915311
0.0088807
0.00682729
0.00662444
0.00641386
0.00612833
0.00590086
0.00563204
0.00547659
0.00533384
0.00506431
0.00492272
0.00506158
0.00491981
0.00479533
0.00455683
0.00441734
0.00481674
0.00468679
0.00450188
0.00439504
0.00414307
0.00478478
0.00464411
0.00445657
0.00434441
0.00407074
0.00492014
0.00473352
0.00457443
0.00423302
0.00582722
0.00557305
0.00537161
0.00502895
0.00983413
0.0095184
0.00915919
0.00884291
0.0282524
0.0276889
0.0271308
0.0266158
0.0260282
0.0157392
0.0153529
0.0150006
0.0146633
0.00597082
0.00573511
0.00548198
0.00523379
0.00504527
0.00434415
0.00421434
0.00410065
0.00385196
0.00371814
0.00392919
0.00381327
0.00370531
0.00355235
0.00342161
0.00382998
0.00370974
0.00359054
0.00347437
0.00336105
0.00380502
0.00368462
0.00356463
0.00344762
0.00332997
0.00381189
0.00370044
0.00356232
0.00345048
0.00324971
0.00384953
0.00374038
0.00363128
0.00348451
0.00331981
0.00437085
0.00428234
0.00405218
0.00396494
0.00370746
0.0067048
0.00647149
0.00624914
0.00589393
0.0186971
0.0183116
0.0179288
0.0175651
0.0171916
0.0125364
0.0122098
0.0118985
0.0116019
0.00493343
0.00474201
0.00447587
0.00426893
0.00386303
0.00374565
0.00362356
0.00348803
0.0033137
0.00368593
0.0036154
0.00345851
0.00332092
0.00310284
0.00371181
0.00364453
0.00348212
0.00334713
0.00313712
0.00374186
0.0036686
0.00349612
0.00335896
0.00315209
0.00378108
0.00371027
0.00357458
0.00341598
0.00329363
0.00309728
0.00366872
0.00360406
0.00343675
0.00330814
0.00309531
0.00396053
0.00386205
0.00370058
0.00361033
0.00338171
0.00564798
0.00553226
0.00525514
0.00513833
0.0048762
0.0141937
0.0138779
0.0135734
0.0132858
0.0130081
0.0116518
0.0113732
0.0110957
0.0108252
0.0105686
0.00479261
0.00465243
0.00445914
0.0043321
0.00405946
0.00392236
0.00379453
0.00366847
0.00355165
0.00342551
0.00324956
0.00379014
0.00371924
0.00357989
0.00341248
0.00328242
0.00308263
0.00386588
0.00379521
0.00365209
0.00348611
0.00335327
0.00315742
0.00389698
0.00383234
0.00368633
0.00352332
0.0033917
0.00319611
0.00384956
0.00378218
0.00364316
0.00347935
0.00334997
0.00315553
0.00377649
0.00371011
0.00357168
0.00341164
0.00328818
0.0030933
0.00395202
0.00382555
0.00370273
0.00358668
0.00348323
0.00328817
0.00518461
0.00504548
0.00492492
0.00467927
0.00458756
0.00435541
0.0122437
0.0119636
0.011694
0.0114384
0.0111998
0.0114924
0.0112255
0.0109687
0.0107209
0.0104878
0.00482127
0.00467607
0.00455039
0.00430076
0.00415791
0.00406061
0.00393262
0.00377164
0.00365228
0.00353897
0.00340617
0.00327299
0.00393835
0.00386008
0.00370481
0.00354985
0.00339208
0.00326952
0.0030796
0.004033
0.00394932
0.00378969
0.00363348
0.003475
0.00334666
0.00315897
0.00395775
0.00388744
0.00372787
0.0035597
0.00342348
0.00322633
0.00389192
0.0038267
0.00367845
0.00351433
0.00338188
0.00318605
0.00379778
0.00373237
0.00358627
0.00342421
0.00329685
0.00310369
0.00391935
0.00378843
0.00366192
0.00354188
0.00342143
0.0032794
0.00494366
0.00479215
0.00467246
0.00442589
0.00433519
0.00410302
0.0117585
0.0114763
0.0112136
0.0109582
0.0107125
0.0104835
0.0125522
0.0122515
0.011971
0.0117015
0.0114453
0.0112055
0.00518939
0.00504674
0.0049221
0.00467954
0.00458149
0.00435366
0.00395189
0.00381963
0.00369226
0.00357628
0.00346197
0.00327026
0.00379408
0.00372512
0.0035696
0.00340015
0.00326901
0.00306997
0.00384392
0.00377413
0.00362311
0.00345534
0.00332084
0.00312568
0.0038875
0.00382013
0.00367348
0.00350684
0.00337213
0.00317556
0.00384668
0.00378133
0.00363558
0.0034706
0.00333857
0.00314181
0.00377812
0.00371083
0.00357154
0.00340494
0.00327599
0.00307686
0.00390547
0.00377671
0.00365165
0.00353374
0.0034085
0.0032344
0.00489435
0.00474679
0.00462135
0.00436356
0.00426596
0.00402313
0.0119156
0.0116346
0.0113543
0.0110784
0.0108123
0.0105619
0.0145301
0.0141981
0.0138845
0.0135844
0.0133007
0.0130244
0.00574985
0.00560079
0.00545408
0.00519592
0.00509298
0.0048569
0.00402802
0.00390695
0.00379636
0.00363653
0.00354355
0.00332931
0.00373034
0.00366559
0.00352834
0.00336281
0.00323505
0.00303475
0.00374624
0.00367871
0.00354444
0.0033787
0.00324724
0.00305302
0.00378292
0.00371371
0.00357201
0.00340671
0.00327565
0.00308425
0.00376925
0.00370177
0.00355439
0.00339033
0.0032623
0.00306622
0.00375152
0.00368101
0.00354181
0.00336923
0.00324392
0.00304174
0.00395906
0.00383764
0.00374098
0.00353088
0.00344157
0.00322311
0.00515871
0.00498515
0.00483143
0.00453924
0.00442748
0.00416778
0.013179
0.0128411
0.0125118
0.0121926
0.0118914
0.0116064
0.0191055
0.0187024
0.0183141
0.0179419
0.0175921
0.0172325
0.00697318
0.0068002
0.00655667
0.00633478
0.0061312
0.00587417
0.00444921
0.00432119
0.00419767
0.00395889
0.00386452
0.00364524
0.00392927
0.0038071
0.00369159
0.00353777
0.00343214
0.00321242
0.00387022
0.00374521
0.00362056
0.00350085
0.00338307
0.00321853
0.00390369
0.00377168
0.0036422
0.00352176
0.00339358
0.00327093
0.00393784
0.00380719
0.00368069
0.0035608
0.00345228
0.00327233
0.004042
0.00392018
0.00381758
0.00363204
0.00354625
0.00333398
0.00445874
0.00433444
0.00421218
0.00397193
0.00388086
0.00365763
0.0061138
0.00589973
0.00568055
0.00542111
0.0052414
0.00504846
0.0165609
0.0161417
0.0157407
0.0153659
0.015021
0.0146884
0.0288535
0.0282784
0.0277332
0.027206
0.0267148
0.0261633
0.0103454
0.0100797
0.00973812
0.00945724
0.00921128
0.00895064
0.00613534
0.00592389
0.00565256
0.00546113
0.00526424
0.00503474
0.00515566
0.00497922
0.00482284
0.00453613
0.00441913
0.00417018
0.00487481
0.00472768
0.00459749
0.00435316
0.00424648
0.00401729
0.00491875
0.00478408
0.00460098
0.00448161
0.00425174
0.00411981
0.00516961
0.00502606
0.00489891
0.00465641
0.0045569
0.00433717
0.00574326
0.00559149
0.0054435
0.00518532
0.00507759
0.00484724
0.00696362
0.00679501
0.00653405
0.00633394
0.0061066
0.00588027
0.0103247
0.0100563
0.00971598
0.00943492
0.0091937
0.00893673
0.0261215
0.0255414
0.0250014
0.0244846
0.0240158
0.0234809
0.0781187
0.0766751
0.0752532
0.0738263
0.0726542
0.0708655
0.02617
0.0255977
0.0250612
0.0245439
0.0240725
0.0235455
0.0174298
0.0170235
0.0166187
0.0162033
0.0158027
0.0154306
0.0150884
0.0147555
0.0135584
0.0132264
0.0128936
0.0125681
0.0122519
0.011953
0.0116692
0.0122483
0.01195
0.0116732
0.0113971
0.0111248
0.0108616
0.0106134
0.0117843
0.011503
0.0112437
0.0109906
0.0107479
0.0105204
0.01256
0.0122621
0.011985
0.0117188
0.0114664
0.0112307
0.0145343
0.0142062
0.0138948
0.0135976
0.013317
0.0130443
0.0191062
0.0187055
0.0183194
0.0179497
0.0176025
0.0172459
0.0288388
0.0282628
0.0277181
0.0271937
0.026706
0.0261519
0.0780279
0.0765746
0.0751498
0.07373
0.0725636
0.070761
)
;

boundaryField
{
    inlet
    {
        type            fixedValue;
        value           nonuniform List<scalar> 0();
    }
    ami1
    {
        type            cyclicAMI;
        value           nonuniform List<scalar> 0();
    }
    walls
    {
        type            epsilonWallFunction;
        blending        stepwise;
        value           nonuniform List<scalar> 
244
(
0.07782
0.0287867
0.0190818
0.0763553
0.0282016
0.0186833
0.0141871
0.0122408
0.0255367
0.0764808
0.0749784
0.0276497
0.0182917
0.0138719
0.0119614
0.011212
0.0113514
0.0125131
0.0157403
0.0249482
0.0749825
0.0735809
0.0271244
0.0179173
0.0135721
0.0116925
0.0109564
0.0110754
0.0121871
0.0153414
0.0243874
0.0735322
0.0723999
0.026633
0.0175641
0.0132875
0.0114371
0.0107093
0.0108065
0.0118751
0.0149739
0.0238949
0.0722877
0.070548
0.0260727
0.0172008
0.0130106
0.0111965
0.0104778
0.0105508
0.0115769
0.0146229
0.0233297
0.0703443
0.0117585
0.0119156
0.013179
0.0165609
0.0261215
0.0780279
0.0764808
0.0282524
0.0186971
0.0141937
0.0122437
0.0114763
0.0116346
0.0128411
0.0161417
0.0255414
0.0765746
0.0749825
0.0276889
0.0183116
0.0138779
0.0119636
0.0112136
0.0113543
0.0125118
0.0157407
0.0250014
0.0751498
0.0735322
0.0271308
0.0179288
0.0135734
0.011694
0.0109582
0.0110784
0.0121926
0.0153659
0.0244846
0.07373
0.0722877
0.0266158
0.0175651
0.0132858
0.0114384
0.0107125
0.0108123
0.0118914
0.015021
0.0240158
0.0725636
0.0703443
0.0260282
0.0171916
0.0130081
0.0111998
0.0104835
0.0105619
0.0116064
0.0146884
0.0234809
0.070761
0.0174298
0.0170235
0.0135584
0.0122483
0.0781187
0.02617
0.0166187
0.0132264
0.01195
0.0117843
0.01256
0.0145343
0.0191062
0.0288388
0.0780279
0.0766751
0.0255977
0.0162033
0.0128936
0.0116732
0.011503
0.0122621
0.0142062
0.0187055
0.0282628
0.0765746
0.0752532
0.0250612
0.0158027
0.0125681
0.0113971
0.0112437
0.011985
0.0138948
0.0183194
0.0277181
0.0751498
0.0738263
0.0245439
0.0154306
0.0122519
0.0111248
0.0109906
0.0117188
0.0135976
0.0179497
0.0271937
0.07373
0.0726542
0.0240725
0.0150884
0.011953
0.0108616
0.0107479
0.0114664
0.013317
0.0176025
0.026706
0.0725636
0.0708655
0.0235455
0.0147555
0.0116692
0.0106134
0.0105204
0.0112307
0.0130443
0.0172459
0.0261519
0.070761
0.07782
0.0125522
0.0145301
0.0191055
0.0288535
0.0781187
0.0763553
0.0254808
0.0116518
0.0114924
0.0122515
0.0141981
0.0187024
0.0282784
0.0766751
0.0749784
0.0249343
0.0157392
0.0125364
0.0113732
0.0112255
0.011971
0.0138845
0.0183141
0.0277332
0.0752532
0.0735809
0.0244187
0.0153529
0.0122098
0.0110957
0.0109687
0.0117015
0.0135844
0.0179419
0.027206
0.0738263
0.0723999
0.0239479
0.0150006
0.0118985
0.0108252
0.0107209
0.0114453
0.0133007
0.0175921
0.0267148
0.0726542
0.070548
0.0234071
0.0146633
0.0116019
0.0105686
0.0104878
0.0112055
0.0130244
0.0172325
0.0261633
0.0708655
)
;
    }
    ami2
    {
        type            cyclicAMI;
        value           nonuniform List<scalar> 0();
    }
    outlet
    {
        type            zeroGradient;
    }
    procBoundary6to5
    {
        type            processor;
        value           nonuniform List<scalar> 
177
(
0.0794945
0.0260834
0.0293847
0.0194829
0.0145094
0.00685952
0.0145094
0.0125345
0.011472
0.011472
0.011472
0.01163
0.01163
0.0128432
0.0161464
0.0161464
0.0261456
0.00999936
0.0779986
0.0260834
0.0260834
0.0161601
0.0105333
0.00685952
0.0060351
0.00685952
0.00561726
0.00504375
0.0048046
0.00475125
0.00486355
0.00486355
0.00486355
0.00583232
0.00583232
0.00999936
0.00999936
0.0288322
0.0161601
0.0161601
0.0060351
0.00490062
0.00431381
0.00390096
0.00381135
0.00378945
0.00378421
0.00378421
0.00381036
0.00432415
0.00671427
0.00671427
0.00671427
0.00671427
0.0190889
0.0128707
0.0128707
0.00490062
0.00490062
0.00490062
0.0038229
0.0038229
0.00361419
0.00361419
0.00364053
0.00364053
0.0037085
0.0037085
0.0037085
0.00374295
0.00362649
0.00362649
0.00362649
0.00393512
0.00393512
0.0056469
0.0056469
0.0145191
0.0119329
0.00476479
0.00476479
0.00392738
0.00392738
0.00375026
0.00375026
0.003823
0.003823
0.00385081
0.00380904
0.00373958
0.00396102
0.00522059
0.0125411
0.0125411
0.0125411
0.0117649
0.0117649
0.00493114
0.00483707
0.00483707
0.00483707
0.00406352
0.00395301
0.00391071
0.00374808
0.00399895
0.00391783
0.00380344
0.00391783
0.00384627
0.00375666
0.00392297
0.00495479
0.0120627
0.0128643
0.0051842
0.00395301
0.00374808
0.00380344
0.00384188
0.0038013
0.00373468
0.00391546
0.00493047
0.0122184
0.0148664
0.00577951
0.00401393
0.00368793
0.00370117
0.00374146
0.00372768
0.00371614
0.00396555
0.00520622
0.0135264
0.0195093
0.00702084
0.00443416
0.00391002
0.00387886
0.00391002
0.00394756
0.00405661
0.00447738
0.00622114
0.0169903
0.0294432
0.0105643
0.0064503
0.00619715
0.00619715
0.00516054
0.00516054
0.00490807
0.00490807
0.00495845
0.00520709
0.00578029
0.00701782
0.010547
0.0267472
0.0797017
0.0273906
0.0267855
0.0267855
0.0178553
0.0139027
0.0139027
0.0125657
0.0120798
0.0120798
0.0128704
0.0148719
0.0195091
0.0294309
0.0796356
)
;
    }
}


// ************************************************************************* //
