/*--------------------------------*- C++ -*----------------------------------*\
| =========                 |                                                 |
| \\      /  F ield         | OpenFOAM: The Open Source CFD Toolbox           |
|  \\    /   O peration     | Version:  2212                                  |
|   \\  /    A nd           | Website:  www.openfoam.com                      |
|    \\/     M anipulation  |                                                 |
\*---------------------------------------------------------------------------*/
FoamFile
{
    version     2.0;
    format      ascii;
    arch        "LSB;label=32;scalar=64";
    class       volVectorField;
    location    "1.6";
    object      U;
}
// * * * * * * * * * * * * * * * * * * * * * * * * * * * * * * * * * * * * * //

dimensions      [0 1 -1 0 0 0 0];

internalField   nonuniform List<vector> 
678
(
(0.0215375 3.53561e-06 5.08439e-05)
(0.0213011 2.62578e-06 4.74595e-05)
(0.0210799 -2.20191e-07 4.47634e-05)
(0.0208461 -4.93207e-06 4.11692e-05)
(0.0206559 -6.97332e-06 3.00922e-05)
(0.0203081 -1.53857e-05 2.15318e-05)
(0.0365394 -0.0001602 0.000116358)
(0.0361651 -0.00014917 0.000101551)
(0.0358123 -0.000146291 9.19018e-05)
(0.0354504 -0.000147922 8.12018e-05)
(0.0351406 -0.000136862 6.14537e-05)
(0.0346161 -0.000142991 4.40119e-05)
(0.0507611 -0.000412546 8.21164e-05)
(0.0502336 -0.000398862 6.68525e-05)
(0.0497276 -0.000381717 5.37879e-05)
(0.0492405 -0.000362974 4.20627e-05)
(0.0488161 -0.000331244 2.57463e-05)
(0.0481238 -0.000307644 2.25122e-05)
(0.0585029 -0.000663695 -2.64762e-06)
(0.0579229 -0.000627089 -1.26421e-05)
(0.0573717 -0.000581784 -2.31767e-05)
(0.0568839 -0.000528883 -2.82345e-05)
(0.0561243 -0.000468989 -1.79223e-05)
(0.0628661 -0.000904369 -7.37169e-05)
(0.062251 -0.000825306 -8.29635e-05)
(0.0616696 -0.000747621 -8.70105e-05)
(0.0611653 -0.000667692 -7.99134e-05)
(0.0603859 -0.000570128 -5.87004e-05)
(0.0630318 -0.000830597 -0.000146305)
(0.0624412 -0.000748871 -0.000138628)
(0.0619475 -0.000667396 -0.0001218)
(0.0611816 -0.000559169 -8.94358e-05)
(0.0603289 -0.000627917 -0.000149408)
(0.0597511 -0.000601061 -0.000135985)
(0.059257 -0.000552829 -0.000109689)
(0.0585132 -0.000460523 -7.38015e-05)
(0.0543226 -0.000451408 -8.09304e-05)
(0.0537678 -0.00043126 -6.75679e-05)
(0.0533067 -0.000382314 -4.37315e-05)
(0.0526218 -0.000313303 -3.16774e-05)
(0.0453329 -0.000276813 -4.94176e-05)
(0.0448598 -0.00025825 -4.08126e-05)
(0.0444748 -0.000217412 -2.77669e-05)
(0.0438806 -0.000186356 -2.92998e-05)
(0.0338802 -9.84152e-05 3.20266e-05)
(0.0335124 -9.217e-05 3.20461e-05)
(0.0331638 -9.05305e-05 2.47869e-05)
(0.0328742 -8.13771e-05 9.78268e-06)
(0.0324003 -8.3551e-05 -9.91413e-06)
(0.0213105 -4.71418e-05 2.13597e-06)
(0.0210806 -4.51638e-05 1.45824e-06)
(0.0208426 -4.37738e-05 -2.92902e-06)
(0.0206432 -3.45062e-05 -5.08308e-06)
(0.0202758 -2.59322e-05 -1.34006e-05)
(0.033865 4.18761e-05 9.10442e-05)
(0.0335316 3.8976e-05 9.02924e-05)
(0.0331945 2.82627e-05 9.35379e-05)
(0.0329086 1.04067e-05 8.39858e-05)
(0.0324503 -1.16587e-05 8.56928e-05)
(0.0657651 -0.000240213 0.000293423)
(0.0652035 -0.000246832 0.000301618)
(0.0646626 -0.000251407 0.000306159)
(0.0641415 -0.000252496 0.000298768)
(0.0637035 -0.000248814 0.000275954)
(0.0630171 -0.000252621 0.000239867)
(0.0877462 -0.000759579 0.000342888)
(0.0873936 -0.000766702 0.000353407)
(0.0870333 -0.000766052 0.00035578)
(0.0867106 -0.000731658 0.000332189)
(0.0861712 -0.000655772 0.000282342)
(0.0982182 -0.00108869 0.000207923)
(0.0980026 -0.0010834 0.000225357)
(0.0977672 -0.0010647 0.000235847)
(0.0975622 -0.00101315 0.000232656)
(0.0972128 -0.000915351 0.000214054)
(0.10272 -0.00129495 0.000147916)
(0.102586 -0.00127482 0.000160361)
(0.102433 -0.00123469 0.000170364)
(0.102303 -0.00116535 0.000174684)
(0.102068 -0.00106238 0.00016473)
(0.103442 -0.00129004 7.54558e-05)
(0.103365 -0.00125973 7.18855e-05)
(0.103283 -0.00122327 6.93082e-05)
(0.103204 -0.00115612 7.05279e-05)
(0.103074 -0.00102585 6.7075e-05)
(0.101298 -0.00109608 -8.84272e-05)
(0.101243 -0.00108111 -9.96599e-05)
(0.101186 -0.0010619 -0.00010934)
(0.101139 -0.00100842 -0.000109829)
(0.101055 -0.000870203 -9.57163e-05)
(0.0957747 -0.000860603 -0.000294643)
(0.0956369 -0.000854984 -0.000303831)
(0.0955039 -0.000828769 -0.000305562)
(0.0952763 -0.000727569 -0.000276229)
(0.0845601 -0.000640003 -0.000401998)
(0.0841812 -0.000641704 -0.000409761)
(0.0838606 -0.000636108 -0.00041318)
(0.0833047 -0.000567953 -0.000380019)
(0.0646618 -0.000282332 -0.000233065)
(0.0641065 -0.000291367 -0.000245692)
(0.0636584 -0.000284294 -0.00025126)
(0.0629455 -0.000251425 -0.000253404)
(0.0362083 -0.000103913 -0.00015535)
(0.0358206 -0.000103699 -0.000153415)
(0.0354382 -9.79091e-05 -0.000151667)
(0.0351154 -7.93626e-05 -0.000137831)
(0.0345648 -5.70541e-05 -0.000140894)
(0.0453678 -2.57591e-05 0.000258241)
(0.0449235 -1.73082e-05 0.000237991)
(0.0445425 -1.32623e-05 0.000204178)
(0.0439612 -2.31143e-05 0.000184101)
(0.0849859 -0.00039323 0.000636542)
(0.0846167 -0.000403835 0.000645418)
(0.0842376 -0.000410892 0.000647858)
(0.0838984 -0.000409036 0.000634547)
(0.0833413 -0.000381038 0.000570752)
(0.106787 -0.00095138 0.000753246)
(0.106834 -0.000965677 0.000767905)
(0.106858 -0.000963146 0.000767636)
(0.10688 -0.000937809 0.000745997)
(0.106859 -0.00085395 0.000672297)
(0.116115 -0.00122755 0.000499261)
(0.1163 -0.00121792 0.000506668)
(0.116479 -0.00119297 0.000509169)
(0.116643 -0.00115247 0.000504508)
(0.11686 -0.001058 0.000474059)
(0.120017 -0.0013492 0.000311331)
(0.120268 -0.00132707 0.000320801)
(0.120516 -0.00129045 0.000327473)
(0.120734 -0.00123318 0.000326952)
(0.121039 -0.00113329 0.000309183)
(0.120858 -0.00132103 7.74286e-05)
(0.121151 -0.00129438 8.15264e-05)
(0.121448 -0.00125412 8.35217e-05)
(0.121706 -0.00119249 8.40933e-05)
(0.122079 -0.00109005 7.76722e-05)
(0.119489 -0.00116168 -0.000254236)
(0.119806 -0.00114161 -0.000255309)
(0.120128 -0.00111725 -0.000256858)
(0.120405 -0.00107088 -0.000253633)
(0.120807 -0.000966817 -0.000241611)
(0.115568 -0.000978088 -0.000658818)
(0.115834 -0.000973486 -0.000660998)
(0.116098 -0.000954343 -0.000656253)
(0.11633 -0.00092236 -0.000645682)
(0.116659 -0.000846176 -0.000605908)
(0.106768 -0.000767957 -0.000959987)
(0.106822 -0.000772888 -0.00096145)
(0.106864 -0.000772571 -0.000958627)
(0.106886 -0.000754123 -0.000938451)
(0.106884 -0.000668358 -0.000844279)
(0.0873576 -0.000347381 -0.000751864)
(0.0869977 -0.000358781 -0.000754815)
(0.0866903 -0.00035194 -0.000737268)
(0.0861463 -0.000303634 -0.000660981)
(0.0502726 -7.30145e-05 -0.00040015)
(0.0497465 -8.1894e-05 -0.000400255)
(0.0492224 -7.70119e-05 -0.00038265)
(0.0487846 -5.63942e-05 -0.000341785)
(0.0480709 -4.33174e-05 -0.000306641)
(0.0543824 -6.97637e-05 0.000444554)
(0.0538373 -5.24803e-05 0.000417632)
(0.0533657 -3.30311e-05 0.000368944)
(0.0526905 -2.50866e-05 0.000304737)
(0.0957961 -0.000290241 0.000849457)
(0.0956474 -0.00030023 0.000837972)
(0.0955248 -0.000303941 0.000813141)
(0.0952831 -0.000283338 0.000734176)
(0.115546 -0.000650766 0.000960915)
(0.115812 -0.000659352 0.000957579)
(0.116074 -0.000664864 0.000948547)
(0.116303 -0.000656867 0.000921075)
(0.116626 -0.000610606 0.000836979)
(0.124006 -0.000834341 0.000639465)
(0.124376 -0.000828079 0.000633289)
(0.124746 -0.000818824 0.000627144)
(0.125076 -0.000796693 0.000611451)
(0.125548 -0.000748113 0.000577691)
(0.127675 -0.000910931 0.000355323)
(0.128076 -0.000892865 0.000354318)
(0.128474 -0.000870957 0.000352852)
(0.12883 -0.000836988 0.000346172)
(0.129333 -0.000782805 0.000330703)
(0.128632 -0.000873817 1.32027e-05)
(0.129048 -0.000852433 1.3547e-05)
(0.129461 -0.000827711 1.33701e-05)
(0.129834 -0.000791516 1.36496e-05)
(0.130357 -0.00073909 1.28519e-05)
(0.127101 -0.000792508 -0.000390196)
(0.127532 -0.000779447 -0.000388947)
(0.127948 -0.000764154 -0.000387084)
(0.128361 -0.000741245 -0.000382235)
(0.128731 -0.000707032 -0.000371688)
(0.129256 -0.000658805 -0.000354558)
(0.124014 -0.000649688 -0.000829578)
(0.124388 -0.000639083 -0.000821647)
(0.12476 -0.000628133 -0.000812207)
(0.125091 -0.00060887 -0.000791874)
(0.125565 -0.000571803 -0.000743394)
(0.116123 -0.000505134 -0.00121905)
(0.116311 -0.000504478 -0.00120584)
(0.116502 -0.000506475 -0.00119038)
(0.116659 -0.000502367 -0.00115566)
(0.116887 -0.00046506 -0.00105007)
(0.0982046 -0.000214929 -0.00108621)
(0.0979917 -0.000232235 -0.00107934)
(0.0977613 -0.000246487 -0.00106574)
(0.097561 -0.000250369 -0.00102442)
(0.0972159 -0.000227584 -0.000911375)
(0.0585082 -1.29485e-05 -0.000666355)
(0.0579297 -2.2632e-05 -0.000636244)
(0.0573553 -1.92622e-05 -0.000590521)
(0.0568749 -8.69396e-06 -0.000531066)
(0.0561075 -8.60431e-06 -0.000463043)
(0.0609683 -0.000149884 0.000646237)
(0.0603931 -0.000149434 0.000631604)
(0.0598117 -0.000135268 0.000601112)
(0.0593131 -0.000108368 0.000549442)
(0.058568 -7.22671e-05 0.000455281)
(0.101286 -8.57797e-05 0.00108945)
(0.101233 -0.000101177 0.00107343)
(0.101176 -0.000113127 0.00105344)
(0.10113 -0.00011486 0.0010004)
(0.101045 -0.000102766 0.000866268)
(0.119148 -0.000252406 0.00116963)
(0.119472 -0.000260102 0.00116364)
(0.119784 -0.000261709 0.0011431)
(0.120103 -0.000262693 0.00111459)
(0.120379 -0.000258629 0.00106538)
(0.120781 -0.000245688 0.000961415)
(0.12709 -0.000398849 0.000780651)
(0.127517 -0.000394473 0.000769334)
(0.127934 -0.000389232 0.000758489)
(0.128349 -0.000381932 0.000739841)
(0.128721 -0.000369496 0.000708393)
(0.129245 -0.000351328 0.000661679)
(0.130681 -0.000470714 0.000407057)
(0.131133 -0.000460923 0.000403346)
(0.131572 -0.000449148 0.000399427)
(0.132004 -0.000434915 0.000391844)
(0.1324 -0.000416285 0.00037822)
(0.132929 -0.000393095 0.000358581)
(0.131706 -0.000459291 -9.35112e-06)
(0.132163 -0.000449198 -9.61275e-06)
(0.132608 -0.000437467 -9.70867e-06)
(0.133045 -0.000422155 -9.28211e-06)
(0.133448 -0.000403546 -8.4982e-06)
(0.133985 -0.000390562 -7.98108e-06)
(0.130684 -0.000414987 -0.000459781)
(0.131134 -0.000408322 -0.00045555)
(0.131572 -0.000399946 -0.000449941)
(0.132003 -0.00038881 -0.0004398)
(0.132399 -0.000373086 -0.000423391)
(0.132928 -0.000352428 -0.000400774)
(0.127263 -0.000363658 -0.000917719)
(0.127674 -0.000360852 -0.000906363)
(0.128075 -0.000356547 -0.000894502)
(0.128473 -0.000350704 -0.00087354)
(0.128828 -0.000340887 -0.000839173)
(0.129328 -0.000323771 -0.000783988)
(0.119758 -0.000308562 -0.00136116)
(0.12002 -0.00031463 -0.001349)
(0.120271 -0.000317966 -0.0013234)
(0.120527 -0.000322264 -0.00128945)
(0.120741 -0.000322997 -0.00123667)
(0.121047 -0.00030466 -0.00113581)
(0.102858 -0.000147683 -0.00131711)
(0.102733 -0.000161671 -0.00131019)
(0.102591 -0.000173429 -0.00128482)
(0.102439 -0.000181864 -0.0012413)
(0.102304 -0.000187193 -0.00117274)
(0.102071 -0.000175101 -0.00105356)
(0.0628703 5.49179e-05 -0.000908356)
(0.0622714 5.25152e-05 -0.0008241)
(0.0616806 5.26291e-05 -0.000740741)
(0.0611896 4.92091e-05 -0.000657121)
(0.0604149 3.39101e-05 -0.000558126)
(0.0636954 -0.000148683 0.000928969)
(0.0630754 -0.000151421 0.000838537)
(0.0624897 -0.000144312 0.000754632)
(0.0619789 -0.000126457 0.000671217)
(0.0612117 -9.18702e-05 0.000560985)
(0.103426 7.5329e-05 0.00127926)
(0.103353 7.21528e-05 0.00126109)
(0.103267 6.84498e-05 0.0012206)
(0.103194 6.77865e-05 0.00114953)
(0.103065 6.17799e-05 0.00103517)
(0.120246 6.74135e-05 0.00135112)
(0.120548 6.80704e-05 0.00134745)
(0.12085 7.37128e-05 0.00132957)
(0.121145 7.89985e-05 0.00129831)
(0.12144 8.1181e-05 0.00125467)
(0.1217 8.23535e-05 0.00119389)
(0.12207 7.56345e-05 0.00109357)
(0.127772 3.85833e-06 0.000895478)
(0.128203 4.12957e-06 0.000886296)
(0.128625 7.47791e-06 0.00087581)
(0.129039 1.17113e-05 0.000859258)
(0.129451 1.50582e-05 0.000833286)
(0.129823 1.77933e-05 0.000795089)
(0.130342 1.79706e-05 0.000742372)
(0.131239 -1.23151e-05 0.000450426)
(0.131704 -1.26218e-05 0.000448105)
(0.132157 -1.04767e-05 0.000446689)
(0.132601 -7.27092e-06 0.000441635)
(0.133037 -4.47308e-06 0.00043021)
(0.133439 -2.48245e-06 0.000413663)
(0.133973 -1.58864e-06 0.000401178)
(0.13273 -1.85186e-06 -2.19489e-06)
(0.133191 3.67292e-08 2.08973e-07)
(0.133642 2.58499e-06 2.15394e-06)
(0.134088 4.59752e-06 3.008e-06)
(0.134488 5.39389e-06 3.08938e-06)
(0.135055 5.45032e-06 2.72352e-06)
(0.1317 7.84651e-06 -0.00045085)
(0.132154 8.74864e-06 -0.000444009)
(0.132598 1.03253e-05 -0.000436623)
(0.133037 1.16374e-05 -0.000424529)
(0.13344 1.23288e-05 -0.000407823)
(0.133978 1.27701e-05 -0.000395658)
(0.128199 -1.36374e-05 -0.000883453)
(0.128621 -1.26289e-05 -0.000868974)
(0.129037 -1.05249e-05 -0.000854542)
(0.129451 -9.22456e-06 -0.0008312)
(0.129823 -9.47252e-06 -0.000794326)
(0.130343 -8.84672e-06 -0.000741088)
(0.120552 -8.18617e-05 -0.00133702)
(0.12085 -8.05121e-05 -0.00132143)
(0.121143 -7.85199e-05 -0.0012921)
(0.121443 -7.73588e-05 -0.00125156)
(0.121701 -7.80308e-05 -0.00119148)
(0.122068 -7.25372e-05 -0.00108757)
(0.103524 -9.3927e-05 -0.00131225)
(0.103455 -8.86127e-05 -0.00129875)
(0.103372 -8.23655e-05 -0.00126951)
(0.103285 -7.79579e-05 -0.00122455)
(0.103204 -7.81778e-05 -0.00115173)
(0.103067 -7.39228e-05 -0.00101898)
(0.0643091 0.000138247 -0.00101624)
(0.0636632 0.000132587 -0.000921296)
(0.0630679 0.000123023 -0.000819802)
(0.0624812 0.000111961 -0.00072894)
(0.0619919 9.51124e-05 -0.000644776)
(0.0612405 6.69248e-05 -0.00053874)
(0.0635598 -6.13546e-05 0.000993644)
(0.0629064 -7.89809e-05 0.000906604)
(0.0623036 -9.38656e-05 0.000822834)
(0.0617084 -9.75276e-05 0.000744513)
(0.0612104 -8.869e-05 0.000667357)
(0.0604264 -6.32638e-05 0.000572735)
(0.102855 0.000125248 0.00131015)
(0.102726 0.000140839 0.00130219)
(0.102581 0.000155814 0.00127717)
(0.102427 0.000165155 0.00123461)
(0.102292 0.000169932 0.00116789)
(0.102059 0.000158513 0.00105302)
(0.119753 0.000293097 0.00135715)
(0.120009 0.000307901 0.00134559)
(0.120257 0.000320145 0.0013197)
(0.120512 0.000328008 0.00128609)
(0.120725 0.000328562 0.0012341)
(0.121026 0.000307773 0.00113399)
(0.127251 0.000354078 0.000909108)
(0.127659 0.000356214 0.000901297)
(0.128058 0.000359077 0.000892744)
(0.128457 0.000358212 0.000873257)
(0.128812 0.000350646 0.000839428)
(0.129309 0.000333253 0.000784613)
(0.130664 0.000412492 0.000458567)
(0.13111 0.000406748 0.000453677)
(0.131548 0.000401839 0.000448837)
(0.131981 0.000393989 0.000439895)
(0.132377 0.000380227 0.000424299)
(0.132904 0.000360508 0.000402022)
(0.131692 0.000452649 1.19622e-05)
(0.132144 0.00044691 1.13064e-05)
(0.132587 0.000441191 1.10159e-05)
(0.133024 0.000430426 1.06145e-05)
(0.133427 0.000414604 1.00518e-05)
(0.133963 0.000402728 9.63915e-06)
(0.130675 0.000458652 -0.000405278)
(0.131122 0.000455422 -0.000401694)
(0.131559 0.000451807 -0.000397737)
(0.131992 0.000443714 -0.000389907)
(0.132388 0.000428723 -0.000375878)
(0.132916 0.000406624 -0.000355918)
(0.127093 0.000383607 -0.000776051)
(0.127516 0.00038549 -0.000766717)
(0.127932 0.000388443 -0.000758369)
(0.128349 0.000387138 -0.000740851)
(0.128722 0.000377998 -0.000709254)
(0.129242 0.000360165 -0.000661358)
(0.119164 0.000237925 -0.00116599)
(0.11948 0.000247532 -0.00115826)
(0.119791 0.000254915 -0.00113814)
(0.120113 0.00026034 -0.00111009)
(0.120389 0.000258206 -0.00106103)
(0.120782 0.000244835 -0.000956633)
(0.101371 5.83629e-05 -0.00109699)
(0.101316 7.54656e-05 -0.00109675)
(0.101254 9.0818e-05 -0.00108499)
(0.101189 0.000100672 -0.00105738)
(0.101134 0.000100803 -0.000999155)
(0.101036 8.75744e-05 -0.000861181)
(0.0615125 0.000146853 -0.000675203)
(0.0609306 0.000138542 -0.000643317)
(0.0603732 0.000123772 -0.000609055)
(0.0598011 0.000104555 -0.00057007)
(0.0593162 7.9797e-05 -0.000520619)
(0.0585973 4.97602e-05 -0.000435582)
(0.0591407 -2.15687e-06 0.000689956)
(0.058544 -1.1766e-05 0.000660101)
(0.057987 -2.45754e-05 0.000619557)
(0.0574218 -3.45139e-05 0.000575936)
(0.0569452 -3.6742e-05 0.000527752)
(0.0561864 -2.39279e-05 0.000470272)
(0.0984455 0.000179626 0.001093)
(0.098233 0.000198065 0.00109457)
(0.0980109 0.000215084 0.00108885)
(0.0977718 0.000223492 0.00106272)
(0.0975682 0.000223512 0.00101432)
(0.097219 0.000201988 0.000902571)
(0.115915 0.000481376 0.00122639)
(0.116105 0.000492615 0.00122169)
(0.116284 0.000502093 0.00120775)
(0.116471 0.000509363 0.00118732)
(0.116623 0.000504385 0.00114763)
(0.116834 0.000464514 0.00104107)
(0.123613 0.000639409 0.00082864)
(0.123983 0.000640115 0.000827229)
(0.124348 0.000643744 0.000827819)
(0.124717 0.000639088 0.000818727)
(0.125041 0.000620156 0.000794666)
(0.125502 0.000580086 0.000742563)
(0.127069 0.000778262 0.000389369)
(0.127487 0.000769737 0.000389286)
(0.127899 0.000762543 0.000389964)
(0.128312 0.000745795 0.000386746)
(0.128682 0.000714277 0.000376072)
(0.129198 0.000665754 0.000357018)
(0.128184 0.000882576 -4.67337e-06)
(0.128601 0.000869634 -6.34003e-06)
(0.129013 0.000857402 -7.47029e-06)
(0.129424 0.000835293 -8.69334e-06)
(0.129794 0.000799 -1.04962e-05)
(0.13031 0.000746354 -1.07425e-05)
(0.127255 0.000913427 -0.000350062)
(0.127659 0.000904353 -0.000352123)
(0.128057 0.000895117 -0.000354299)
(0.128454 0.000876096 -0.000352915)
(0.128808 0.000842817 -0.000345008)
(0.129303 0.00078776 -0.000327547)
(0.123634 0.000827942 -0.00063866)
(0.124009 0.000827936 -0.000639105)
(0.124376 0.00082964 -0.00064181)
(0.124748 0.000821382 -0.000636089)
(0.125073 0.000798267 -0.000616801)
(0.125536 0.000746238 -0.00057695)
(0.115307 0.000638914 -0.000964052)
(0.11557 0.000649053 -0.000968582)
(0.115823 0.00065528 -0.00096339)
(0.116088 0.00065814 -0.000951786)
(0.116307 0.000648238 -0.000921041)
(0.116619 0.00059843 -0.000829838)
(0.0960723 0.000267472 -0.000868295)
(0.0959364 0.000284406 -0.000881053)
(0.0957934 0.00029521 -0.000881896)
(0.0956321 0.000298106 -0.000865496)
(0.0954968 0.000293071 -0.000826022)
(0.0952553 0.00026132 -0.000718478)
(0.0554482 8.37979e-05 -0.000449911)
(0.054895 7.18056e-05 -0.000444116)
(0.0543721 5.60936e-05 -0.000424509)
(0.0538373 3.94036e-05 -0.000395997)
(0.0533909 2.15843e-05 -0.000353597)
(0.0527378 1.52457e-05 -0.000295897)
(0.0508063 6.87367e-05 0.000410144)
(0.0502956 5.798e-05 0.00039834)
(0.0498021 4.47371e-05 0.000380314)
(0.0493109 3.16469e-05 0.000361032)
(0.0488909 1.70774e-05 0.000331542)
(0.0482061 1.55209e-05 0.000307946)
(0.0881022 0.000319486 0.000760696)
(0.0877571 0.000329429 0.000765869)
(0.087421 0.00033656 0.0007691)
(0.0870501 0.000333564 0.000760224)
(0.0867414 0.000312282 0.00072636)
(0.0862099 0.000265083 0.000649009)
(0.106722 0.000731682 0.000943773)
(0.10677 0.00074704 0.000954185)
(0.106806 0.000753703 0.000955694)
(0.106826 0.000749168 0.000945888)
(0.106843 0.000728462 0.000920843)
(0.106816 0.00064417 0.000827856)
(0.11527 0.000955008 0.000641297)
(0.115525 0.000958556 0.000649861)
(0.115773 0.000953201 0.000654844)
(0.116032 0.00094432 0.000658157)
(0.116247 0.000914718 0.000647563)
(0.116553 0.000823645 0.000596653)
(0.119133 0.00116136 0.000245859)
(0.119439 0.00115279 0.000254462)
(0.119742 0.00113375 0.000260786)
(0.120057 0.00110482 0.000264628)
(0.120326 0.00105421 0.000260972)
(0.120712 0.000951274 0.000246065)
(0.120537 0.00132828 -7.21411e-05)
(0.120827 0.00131316 -7.28545e-05)
(0.121117 0.00128585 -7.27826e-05)
(0.121408 0.00124328 -7.25088e-05)
(0.121664 0.00118382 -7.34529e-05)
(0.122022 0.00108592 -6.82265e-05)
(0.11975 0.00135124 -0.000296556)
(0.120004 0.00133868 -0.000306745)
(0.120251 0.00131303 -0.00031494)
(0.120503 0.00127811 -0.000320413)
(0.120713 0.00122557 -0.000320292)
(0.12101 0.00112577 -0.000300683)
(0.115923 0.00122077 -0.000487005)
(0.116115 0.00121678 -0.000497376)
(0.116296 0.00120271 -0.000504489)
(0.116482 0.00118195 -0.000509115)
(0.116634 0.00114284 -0.00050337)
(0.116845 0.00103666 -0.000463903)
(0.106734 0.000940961 -0.000747308)
(0.106784 0.000950701 -0.000761856)
(0.10682 0.000951842 -0.000767232)
(0.106842 0.000940433 -0.000759234)
(0.10686 0.000915504 -0.000736906)
(0.106834 0.000823364 -0.000652002)
(0.0852931 0.000393025 -0.000645507)
(0.0849365 0.000397345 -0.000652015)
(0.0845898 0.000402336 -0.000656536)
(0.084206 0.000399855 -0.000648091)
(0.0838874 0.000393001 -0.00062737)
(0.0833456 0.000363186 -0.000558486)
(0.0463248 4.96354e-05 -0.000280401)
(0.0458485 3.89376e-05 -0.000272518)
(0.0453933 2.8705e-05 -0.000256726)
(0.0449439 2.0417e-05 -0.000237671)
(0.044565 1.22259e-05 -0.000204185)
(0.0440029 1.83016e-05 -0.000181296)
(0.0366109 0.000101231 0.000157304)
(0.0362443 9.24955e-05 0.000154287)
(0.0358869 8.23032e-05 0.000152624)
(0.0355193 6.88546e-05 0.000151448)
(0.0352114 5.0928e-05 0.000138984)
(0.0346986 3.68943e-05 0.000143234)
(0.0658053 0.00026924 0.000235698)
(0.0652842 0.000281764 0.000250375)
(0.0647703 0.000288251 0.000262567)
(0.0642606 0.000279245 0.000264881)
(0.0638344 0.000256716 0.00025968)
(0.063162 0.000221913 0.00025682)
(0.0853435 0.000630844 0.000405219)
(0.084993 0.000631599 0.000406153)
(0.0846533 0.000639199 0.000413548)
(0.0842722 0.000640316 0.000417306)
(0.0839561 0.000612654 0.000404483)
(0.083426 0.000533924 0.000365341)
(0.0960852 0.000852819 0.000275051)
(0.0959505 0.000865467 0.000292688)
(0.0958077 0.000867802 0.000304381)
(0.095646 0.000852819 0.000307595)
(0.0955104 0.000813001 0.000301111)
(0.0952733 0.000704519 0.000267314)
(0.101362 0.00107986 6.41554e-05)
(0.101306 0.00108026 8.24409e-05)
(0.10124 0.00107029 9.97131e-05)
(0.101175 0.00104443 0.000110819)
(0.101116 0.000986841 0.000110584)
(0.101015 0.000851922 9.69255e-05)
(0.103521 0.00129659 -8.71678e-05)
(0.103448 0.00127505 -8.18277e-05)
(0.10337 0.00125205 -7.48189e-05)
(0.103276 0.0012086 -6.87553e-05)
(0.103194 0.00113392 -6.76452e-05)
(0.103052 0.00102003 -6.24669e-05)
(0.10287 0.00130191 -0.000141605)
(0.102742 0.00129123 -0.000152472)
(0.102597 0.00126413 -0.000163314)
(0.102443 0.00122028 -0.000170229)
(0.102304 0.00115258 -0.00017364)
(0.102066 0.00103965 -0.000161732)
(0.0984487 0.00108405 -0.000196306)
(0.0982344 0.00108281 -0.000212635)
(0.0980131 0.00107475 -0.00022751)
(0.0977736 0.0010485 -0.000234425)
(0.0975701 0.00100057 -0.000232981)
(0.0972206 0.000890757 -0.000210083)
(0.088086 0.000753033 -0.000342568)
(0.0877377 0.000755111 -0.00034995)
(0.087401 0.000756334 -0.000354764)
(0.0870292 0.000747789 -0.000350596)
(0.0867196 0.000714489 -0.000327463)
(0.0861868 0.000639057 -0.00027765)
(0.0657533 0.000221688 -0.000291876)
(0.0652275 0.000235978 -0.000303646)
(0.064713 0.000248068 -0.00030926)
(0.0641985 0.000250775 -0.000299052)
(0.0637683 0.00024633 -0.000274376)
(0.0631005 0.000246454 -0.000235905)
(0.0342671 -4.37076e-05 -9.75627e-05)
(0.0339155 -4.14638e-05 -9.67683e-05)
(0.0335743 -3.48552e-05 -9.73595e-05)
(0.0332266 -2.58517e-05 -9.65014e-05)
(0.03294 -1.12051e-05 -8.41139e-05)
(0.0324963 8.97172e-06 -8.41201e-05)
(0.0215905 4.44353e-05 -1.43237e-06)
(0.0213623 4.3034e-05 1.52779e-06)
(0.0211308 3.98045e-05 4.26175e-06)
(0.0208877 3.51919e-05 7.48352e-06)
(0.0206968 2.38193e-05 8.33557e-06)
(0.0203621 1.71268e-05 1.66384e-05)
(0.0343054 9.05044e-05 -2.73835e-05)
(0.0339611 8.96433e-05 -2.58172e-05)
(0.033624 9.11405e-05 -1.86554e-05)
(0.0332771 9.1798e-05 -9.28255e-06)
(0.0329898 7.92205e-05 1.77476e-06)
(0.0325496 7.82195e-05 1.57425e-05)
(0.0473652 0.000265446 8.30412e-05)
(0.0468944 0.00027239 7.27833e-05)
(0.0464037 0.00027303 6.21708e-05)
(0.0459374 0.000265669 5.27245e-05)
(0.0454839 0.000250052 4.30777e-05)
(0.045044 0.000232168 3.48764e-05)
(0.0446704 0.000201247 2.61189e-05)
(0.0441052 0.000178803 2.99181e-05)
(0.0561123 0.000432914 9.89836e-05)
(0.0555577 0.000440081 9.22213e-05)
(0.055016 0.00043494 8.33219e-05)
(0.0545021 0.000415181 6.90822e-05)
(0.0539749 0.000386972 5.20522e-05)
(0.053533 0.00034803 3.52433e-05)
(0.0528825 0.000294356 2.89861e-05)
(0.0622095 0.000706541 0.000148784)
(0.0616235 0.000664293 0.000150407)
(0.0610547 0.000631457 0.000145461)
(0.0605074 0.000596458 0.000134201)
(0.059945 0.000557771 0.000117543)
(0.0594659 0.000510465 9.42052e-05)
(0.0587532 0.000430053 6.56705e-05)
(0.0643995 0.00100422 0.00013965)
(0.063769 0.000915006 0.000140137)
(0.0631685 0.000810879 0.000134513)
(0.0626016 0.000717537 0.000125948)
(0.0621075 0.000632988 0.000109961)
(0.0613669 0.000530414 8.03e-05)
(0.0635996 0.000984677 5.18813e-05)
(0.0629579 0.000893506 6.41699e-05)
(0.0623668 0.000804697 7.35529e-05)
(0.061784 0.000720685 7.63351e-05)
(0.0612982 0.000640442 7.0287e-05)
(0.0605347 0.000547699 4.9649e-05)
(0.0591652 0.000678559 -1.19625e-05)
(0.0585758 0.000647315 -4.60554e-06)
(0.0580243 0.000605199 5.4038e-06)
(0.0574664 0.000559465 1.43959e-05)
(0.0569968 0.000509498 1.87836e-05)
(0.0562505 0.000452673 1.03354e-05)
(0.050807 0.000400929 -8.37907e-05)
(0.0503016 0.000388271 -7.28685e-05)
(0.0498113 0.000369123 -5.95494e-05)
(0.0493253 0.000348508 -4.61643e-05)
(0.0489088 0.000318233 -3.01127e-05)
(0.0482318 0.000295698 -2.5575e-05)
(0.0365981 0.000152776 -0.000119004)
(0.0362307 0.00014918 -0.000108788)
(0.0358741 0.000146536 -9.69082e-05)
(0.0355092 0.000144065 -8.16711e-05)
(0.0352035 0.000131547 -6.11317e-05)
(0.0346925 0.000137161 -4.40218e-05)
(0.0215759 -6.36685e-06 -5.22371e-05)
(0.0213442 -3.22085e-06 -5.0453e-05)
(0.0211111 2.65021e-07 -4.6877e-05)
(0.0208684 4.16833e-06 -4.13995e-05)
(0.0206787 6.21604e-06 -2.99498e-05)
(0.0203415 1.41718e-05 -2.16497e-05)
)
;

boundaryField
{
    inlet
    {
        type            fixedValue;
        value           nonuniform List<vector> 0();
    }
    ami1
    {
        type            cyclicAMI;
        value           nonuniform List<vector> 0();
    }
    walls
    {
        type            noSlip;
    }
    ami2
    {
        type            cyclicAMI;
        value           nonuniform List<vector> 0();
    }
    outlet
    {
        type            zeroGradient;
    }
    procBoundary6to5
    {
        type            processor;
        value           nonuniform List<vector> 
177
(
(0.0218015 3.8814e-06 5.3374e-05)
(0.0342266 3.21949e-05 0.000101029)
(0.036952 -0.000165829 0.000126058)
(0.0512807 -0.000417978 8.874e-05)
(0.0591053 -0.000687761 3.75598e-06)
(0.0880959 -0.000777761 0.000348755)
(0.0591053 -0.000687761 3.75598e-06)
(0.0635231 -0.000987217 -6.42443e-05)
(0.0636381 -0.000919548 -0.000146477)
(0.0636381 -0.000919548 -0.000146477)
(0.0636381 -0.000919548 -0.000146477)
(0.0609009 -0.000642641 -0.000149856)
(0.0609009 -0.000642641 -0.000149856)
(0.0548876 -0.000449244 -8.39429e-05)
(0.0458228 -0.00028103 -5.38849e-05)
(0.0458228 -0.00028103 -5.38849e-05)
(0.0342517 -0.00010184 2.98863e-05)
(0.0652086 -0.00029152 -0.000242858)
(0.0215519 -5.01091e-05 1.92669e-06)
(0.0342266 3.21949e-05 0.000101029)
(0.0342266 3.21949e-05 0.000101029)
(0.0458333 -4.54493e-05 0.00027818)
(0.0662755 -0.000245032 0.000297865)
(0.0880959 -0.000777761 0.000348755)
(0.0853322 -0.000410426 0.000659815)
(0.0880959 -0.000777761 0.000348755)
(0.0984358 -0.00112065 0.000201882)
(0.102852 -0.00133383 0.000141479)
(0.103514 -0.00132949 7.99761e-05)
(0.101361 -0.00112376 -7.78707e-05)
(0.095905 -0.000894563 -0.000299987)
(0.095905 -0.000894563 -0.000299987)
(0.095905 -0.000894563 -0.000299987)
(0.0849124 -0.000662629 -0.000413603)
(0.0849124 -0.000662629 -0.000413603)
(0.0652086 -0.00029152 -0.000242858)
(0.0652086 -0.00029152 -0.000242858)
(0.0365874 -0.00010882 -0.000157536)
(0.0458333 -4.54493e-05 0.00027818)
(0.0458333 -4.54493e-05 0.00027818)
(0.0853322 -0.000410426 0.000659815)
(0.0959248 -0.000287401 0.000879628)
(0.106731 -0.000958378 0.00075883)
(0.11592 -0.00124882 0.000499717)
(0.119758 -0.0013761 0.000305052)
(0.120555 -0.00135246 7.36705e-05)
(0.119161 -0.00118581 -0.000251673)
(0.119161 -0.00118581 -0.000251673)
(0.115299 -0.00099105 -0.000660446)
(0.106721 -0.000768463 -0.000966512)
(0.0876906 -0.000346991 -0.000766887)
(0.0876906 -0.000346991 -0.000766887)
(0.0876906 -0.000346991 -0.000766887)
(0.0876906 -0.000346991 -0.000766887)
(0.0507924 -6.86144e-05 -0.00039855)
(0.0549496 -8.41646e-05 0.000453616)
(0.0549496 -8.41646e-05 0.000453616)
(0.0959248 -0.000287401 0.000879628)
(0.0959248 -0.000287401 0.000879628)
(0.0959248 -0.000287401 0.000879628)
(0.115276 -0.000652664 0.000977682)
(0.115276 -0.000652664 0.000977682)
(0.123625 -0.00084978 0.000654773)
(0.123625 -0.00084978 0.000654773)
(0.127264 -0.00093472 0.000359684)
(0.127264 -0.00093472 0.000359684)
(0.128206 -0.000900315 1.14226e-05)
(0.128206 -0.000900315 1.14226e-05)
(0.128206 -0.000900315 1.14226e-05)
(0.126669 -0.000807197 -0.000391701)
(0.123629 -0.000664872 -0.000845724)
(0.123629 -0.000664872 -0.000845724)
(0.123629 -0.000664872 -0.000845724)
(0.115916 -0.000507462 -0.0012416)
(0.115916 -0.000507462 -0.0012416)
(0.0984237 -0.00020474 -0.00111115)
(0.0984237 -0.00020474 -0.00111115)
(0.0591249 -2.78159e-06 -0.000686202)
(0.0615626 -0.000144695 0.000661361)
(0.101343 -7.30425e-05 0.00111952)
(0.101343 -7.30425e-05 0.00111952)
(0.118829 -0.00024262 0.00118567)
(0.118829 -0.00024262 0.00118567)
(0.126658 -0.000399789 0.000798437)
(0.126658 -0.000399789 0.000798437)
(0.130221 -0.000476161 0.000413063)
(0.130221 -0.000476161 0.000413063)
(0.131241 -0.000467364 -9.57875e-06)
(0.130225 -0.000420113 -0.000465768)
(0.126848 -0.00036285 -0.00093607)
(0.119492 -0.000298957 -0.00138025)
(0.102986 -0.0001401 -0.00135122)
(0.0635247 5.64388e-05 -0.000993711)
(0.0635247 5.64388e-05 -0.000993711)
(0.0635247 5.64388e-05 -0.000993711)
(0.0643531 -0.000138772 0.00100531)
(0.0643531 -0.000138772 0.00100531)
(0.103574 7.93323e-05 0.0013564)
(0.103492 7.68377e-05 0.00132303)
(0.103492 7.68377e-05 0.00132303)
(0.103492 7.68377e-05 0.00132303)
(0.119945 6.86176e-05 0.00136095)
(0.11949 0.000284942 0.00137532)
(0.127341 4.48333e-06 0.00091055)
(0.126838 0.000356258 0.0009279)
(0.130769 -1.10106e-05 0.000457979)
(0.132262 -2.03338e-06 -3.01e-06)
(0.130209 0.000420094 0.000466919)
(0.132262 -2.03338e-06 -3.01e-06)
(0.131238 8.39015e-06 -0.000460028)
(0.127772 -1.145e-05 -0.000906514)
(0.120251 -7.96056e-05 -0.00135928)
(0.103594 -9.3657e-05 -0.00134814)
(0.064986 0.000133907 -0.00106334)
(0.0642475 -5.47975e-05 0.00105479)
(0.10298 0.000118921 0.00134079)