/*--------------------------------*- C++ -*----------------------------------*\
| =========                 |                                                 |
| \\      /  F ield         | OpenFOAM: The Open Source CFD Toolbox           |
|  \\    /   O peration     | Version:  2212                                  |
|   \\  /    A nd           | Website:  www.openfoam.com                      |
|    \\/     M anipulation  |                                                 |
\*---------------------------------------------------------------------------*/
FoamFile
{
    version     2.0;
    format      ascii;
    arch        "LSB;label=32;scalar=64";
    class       volScalarField;
    location    "2.7";
    object      k;
}
// * * * * * * * * * * * * * * * * * * * * * * * * * * * * * * * * * * * * * //

dimensions      [0 2 -2 0 0 0 0];

internalField   nonuniform List<scalar> 
680
(
0.00851609
0.0074914
0.00669643
0.00606075
0.00555126
0.00512365
0.00474647
0.0143635
0.0120085
0.0102142
0.008817
0.00770677
0.00680569
0.00606371
0.0167973
0.014049
0.0119418
0.0102849
0.00895707
0.00788653
0.00701337
0.0190788
0.0159344
0.0135153
0.0116273
0.0101134
0.00888277
0.00787234
0.020221
0.0169049
0.0143248
0.0123081
0.0107019
0.00939544
0.00832129
0.0202207
0.0169046
0.0143243
0.0123073
0.0107007
0.0093938
0.00831887
0.0190783
0.0159336
0.0135142
0.0116256
0.0101111
0.00887934
0.0167969
0.0140484
0.0119406
0.0102833
0.00895481
0.00788328
0.0143634
0.0120084
0.0102139
0.00881648
0.00770591
0.00680425
0.0085161
0.00749139
0.00669644
0.00606072
0.00555131
0.00512356
0.0143634
0.0120084
0.0102139
0.00881648
0.00770592
0.00680429
0.00606084
0.0319123
0.0260944
0.0216876
0.018277
0.015589
0.0134416
0.011699
0.039142
0.032059
0.026672
0.0224907
0.0191882
0.0165402
0.0143885
0.0439847
0.0361001
0.0300752
0.0253828
0.0216662
0.018679
0.0162471
0.0464212
0.0381538
0.0318171
0.0268707
0.0229464
0.0197876
0.0172122
0.0464208
0.0381532
0.0318163
0.0268696
0.0229448
0.0197853
0.0172088
0.0439839
0.036099
0.0300736
0.0253805
0.0216628
0.0186742
0.0391414
0.0320581
0.0266707
0.0224889
0.0191856
0.0165365
0.0319123
0.0260944
0.0216876
0.018277
0.015589
0.0134416
0.0143635
0.0120085
0.0102142
0.008817
0.00770676
0.00680566
0.0167969
0.0140484
0.0119406
0.0102833
0.0089548
0.00788324
0.00700855
0.0391414
0.0320581
0.0266707
0.0224889
0.0191855
0.0165364
0.0143832
0.0513821
0.0422216
0.0351794
0.0296757
0.0253094
0.0217981
0.0189398
0.0585866
0.0483998
0.0404745
0.0342251
0.0292339
0.0252
0.0219039
0.0619605
0.0513627
0.0430612
0.0364792
0.0311994
0.0269176
0.0234093
0.0619603
0.0513624
0.0430608
0.0364786
0.0311986
0.0269164
0.0234077
0.0585862
0.0483992
0.0404738
0.0342241
0.0292325
0.0251981
0.0513821
0.0422216
0.0351794
0.0296757
0.0253094
0.0217982
0.039142
0.032059
0.026672
0.0224907
0.0191882
0.0165402
0.0167973
0.014049
0.0119418
0.0102849
0.00895706
0.0078865
0.0190783
0.0159336
0.0135142
0.0116256
0.0101111
0.00887934
0.00786728
0.0439839
0.036099
0.0300736
0.0253805
0.0216628
0.0186742
0.0162402
0.0585862
0.0483992
0.0404738
0.0342241
0.0292325
0.025198
0.0219013
0.0669838
0.0557848
0.0469224
0.0398396
0.0341237
0.0294675
0.0256402
0.0707499
0.0592099
0.0499927
0.0425684
0.0365383
0.0316005
0.0275249
0.0707498
0.0592098
0.0499925
0.0425682
0.0365381
0.0316002
0.0275245
0.0669838
0.0557848
0.0469224
0.0398396
0.0341237
0.0294675
0.0585866
0.0483997
0.0404745
0.0342251
0.0292339
0.0252
0.0439847
0.0361001
0.0300752
0.0253828
0.0216661
0.018679
0.0190788
0.0159344
0.0135153
0.0116272
0.0101134
0.00888273
0.0202207
0.0169046
0.0143243
0.0123073
0.0107007
0.0093938
0.00831887
0.0464208
0.0381532
0.0318163
0.0268696
0.0229448
0.0197853
0.0172088
0.0619603
0.0513624
0.0430608
0.0364786
0.0311986
0.0269164
0.0234077
0.0707498
0.0592098
0.0499925
0.0425682
0.0365381
0.0316002
0.0275245
0.0746125
0.0627921
0.0532535
0.0455014
0.0391574
0.0339304
0.0295946
0.0746125
0.062792
0.0532535
0.0455014
0.0391574
0.0339304
0.0295946
0.0707499
0.0592099
0.0499927
0.0425684
0.0365383
0.0316005
0.0619605
0.0513627
0.0430612
0.0364792
0.0311994
0.0269175
0.0464212
0.0381537
0.0318171
0.0268707
0.0229464
0.0197875
0.020221
0.0169049
0.0143248
0.0123081
0.0107019
0.00939538
0.020221
0.0169049
0.0143248
0.0123081
0.0107019
0.00939545
0.0083213
0.0464212
0.0381538
0.0318171
0.0268707
0.0229464
0.0197876
0.0172122
0.0619605
0.0513627
0.0430612
0.0364792
0.0311994
0.0269176
0.0234093
0.0707499
0.0592099
0.0499927
0.0425684
0.0365383
0.0316005
0.0275249
0.0746125
0.0627921
0.0532535
0.0455014
0.0391574
0.0339304
0.0295946
0.0746125
0.0627921
0.0532535
0.0455014
0.0391574
0.0339304
0.0295946
0.0707498
0.0592098
0.0499925
0.0425682
0.0365381
0.0316002
0.0619603
0.0513624
0.0430608
0.0364786
0.0311986
0.0269164
0.0464208
0.0381532
0.0318163
0.0268696
0.0229448
0.0197852
0.0202207
0.0169046
0.0143243
0.0123073
0.0107007
0.00939376
0.0190788
0.0159344
0.0135153
0.0116273
0.0101134
0.00888278
0.00787235
0.0439847
0.0361001
0.0300752
0.0253828
0.0216662
0.0186791
0.0162471
0.0585866
0.0483998
0.0404746
0.0342251
0.0292339
0.0252
0.021904
0.0669838
0.0557848
0.0469224
0.0398396
0.0341237
0.0294675
0.0256402
0.0707498
0.0592098
0.0499925
0.0425682
0.0365381
0.0316002
0.0275245
0.08532
0.0707499
0.0592099
0.0499927
0.0425684
0.0365383
0.0316005
0.0275249
0.0812741
0.0669838
0.0557848
0.0469224
0.0398396
0.0341237
0.0294675
0.0718631
0.0585862
0.0483992
0.0404738
0.0342241
0.0292325
0.0251981
0.0545302
0.0439839
0.036099
0.0300736
0.0253805
0.0216628
0.0186742
0.0232721
0.0190783
0.0159336
0.0135142
0.0116256
0.0101111
0.00887935
0.0167973
0.014049
0.0119418
0.0102849
0.00895708
0.00788654
0.00701338
0.039142
0.032059
0.026672
0.0224907
0.0191882
0.0165402
0.0143886
0.0513821
0.0422216
0.0351794
0.0296757
0.0253094
0.0217982
0.0189398
0.0585862
0.0483992
0.0404738
0.0342241
0.0292325
0.025198
0.0219013
0.0619603
0.0513624
0.0430608
0.0364786
0.0311986
0.0269164
0.0234077
0.0756573
0.0619605
0.0513627
0.0430612
0.0364792
0.0311994
0.0269176
0.0234093
0.0718634
0.0585866
0.0483998
0.0404746
0.0342251
0.0292339
0.0252
0.0635105
0.0513821
0.0422216
0.0351794
0.0296757
0.0253094
0.0217982
0.0486771
0.0391414
0.0320581
0.0266707
0.0224889
0.0191856
0.0165365
0.0204607
0.0167969
0.0140484
0.0119406
0.0102833
0.00895482
0.00788329
0.0143635
0.0120085
0.0102142
0.008817
0.00770678
0.0068057
0.00606372
0.0319123
0.0260944
0.0216876
0.018277
0.0155891
0.0134416
0.011699
0.0391414
0.0320581
0.0266707
0.0224889
0.0191856
0.0165364
0.0143832
0.0439839
0.036099
0.0300736
0.0253805
0.0216628
0.0186742
0.0162402
0.0464208
0.0381532
0.0318163
0.0268696
0.0229448
0.0197853
0.0172088
0.0574407
0.0464212
0.0381538
0.0318171
0.0268707
0.0229464
0.0197876
0.0172122
0.0545308
0.0439847
0.0361001
0.0300752
0.0253828
0.0216662
0.018679
0.0486775
0.039142
0.032059
0.026672
0.0224907
0.0191882
0.0165402
0.0397945
0.0319123
0.0260944
0.0216876
0.018277
0.0155891
0.0134417
0.0175361
0.0143634
0.0120084
0.0102139
0.00881649
0.00770592
0.00680426
0.00851609
0.0074914
0.00669643
0.00606075
0.00555126
0.00512365
0.00474648
0.0143634
0.0120084
0.0102139
0.00881648
0.00770592
0.0068043
0.00606085
0.0167969
0.0140484
0.0119406
0.0102833
0.0089548
0.00788323
0.00700854
0.0190783
0.0159336
0.0135142
0.0116256
0.0101111
0.00887934
0.00786728
0.0202207
0.0169046
0.0143243
0.0123074
0.0107008
0.0093938
0.00831887
0.0246451
0.020221
0.0169049
0.0143248
0.0123082
0.0107019
0.00939545
0.0083213
0.0232725
0.0190788
0.0159344
0.0135153
0.0116273
0.0101134
0.00888277
0.020461
0.0167973
0.014049
0.0119418
0.0102849
0.00895709
0.00788654
0.0175362
0.0143635
0.0120085
0.0102142
0.00881701
0.00770678
0.00680569
0.00989071
0.0085161
0.00749139
0.00669644
0.00606072
0.00555131
0.00512357
)
;

boundaryField
{
    inlet
    {
        type            fixedValue;
        value           nonuniform List<scalar> 0();
    }
    ami1
    {
        type            cyclicAMI;
        value           nonuniform List<scalar> 0();
    }
    walls
    {
        type            kqRWallFunction;
        value           nonuniform List<scalar> 
271
(
0.0232721
0.0204607
0.0175361
0.00989071
0.0085161
0.0143635
0.0167973
0.0190788
0.020221
0.0202207
0.0190783
0.0167969
0.0143634
0.0085161
0.00749139
0.0120085
0.014049
0.0159344
0.0169049
0.0169046
0.0159336
0.0140484
0.0120084
0.00749139
0.00669644
0.0102142
0.0119418
0.0135153
0.0143248
0.0143243
0.0135142
0.0119406
0.0102139
0.00669644
0.00606072
0.008817
0.0102849
0.0116272
0.0123081
0.0123073
0.0116256
0.0102833
0.00881649
0.00606072
0.00555131
0.00770676
0.00895706
0.0101134
0.0107019
0.0107007
0.0101111
0.00895482
0.00770592
0.00555131
0.00512356
0.00680566
0.0078865
0.00888273
0.00939538
0.00939376
0.00887935
0.00788329
0.00680426
0.00512357
0.00851609
0.0143635
0.0167973
0.0190788
0.020221
0.0202207
0.0190783
0.0167969
0.0143634
0.0085161
0.0074914
0.0120085
0.014049
0.0159344
0.0169049
0.0169046
0.0159336
0.0140484
0.0120084
0.00749139
0.00669643
0.0102142
0.0119418
0.0135153
0.0143248
0.0143243
0.0135142
0.0119406
0.0102139
0.00669644
0.00606075
0.008817
0.0102849
0.0116273
0.0123081
0.0123073
0.0116256
0.0102833
0.00881648
0.00606072
0.00555126
0.00770677
0.00895707
0.0101134
0.0107019
0.0107007
0.0101111
0.00895481
0.00770591
0.00555131
0.00512365
0.00680569
0.00788653
0.00888277
0.00939544
0.0093938
0.00887934
0.00788328
0.00680425
0.00512356
0.00474647
0.00606371
0.00701337
0.00787234
0.00832129
0.00831887
0.00851609
0.0143634
0.0167969
0.0190783
0.0202207
0.020221
0.0190788
0.0167973
0.0143635
0.00851609
0.0074914
0.0120084
0.0140484
0.0159336
0.0169046
0.0169049
0.0159344
0.014049
0.0120085
0.0074914
0.00669643
0.0102139
0.0119406
0.0135142
0.0143243
0.0143248
0.0135153
0.0119418
0.0102142
0.00669643
0.00606075
0.00881648
0.0102833
0.0116256
0.0123073
0.0123081
0.0116273
0.0102849
0.008817
0.00606075
0.00555126
0.00770592
0.0089548
0.0101111
0.0107007
0.0107019
0.0101134
0.00895708
0.00770678
0.00555126
0.00512365
0.00680429
0.00788324
0.00887934
0.0093938
0.00939545
0.00888278
0.00788654
0.0068057
0.00512365
0.00474647
0.00606084
0.00700855
0.00786728
0.00831887
0.0083213
0.00787235
0.00701338
0.00606372
0.00474648
0.0246451
0.0232725
0.020461
0.0175362
0.00989071
0.00851609
0.0143634
0.0167969
0.0190783
0.0202207
0.020221
0.0190788
0.0167973
0.0143635
0.0085161
0.0074914
0.0120084
0.0140484
0.0159336
0.0169046
0.0169049
0.0159344
0.014049
0.0120085
0.00749139
0.00669643
0.0102139
0.0119406
0.0135142
0.0143243
0.0143248
0.0135153
0.0119418
0.0102142
0.00669644
0.00606075
0.00881648
0.0102833
0.0116256
0.0123074
0.0123082
0.0116273
0.0102849
0.00881701
0.00606072
0.00555126
0.00770592
0.0089548
0.0101111
0.0107008
0.0107019
0.0101134
0.00895709
0.00770678
0.00555131
0.00512365
0.0068043
0.00788323
0.00887934
0.0093938
0.00939545
0.00888277
0.00788654
0.00680569
0.00512357
0.00474648
0.00606085
0.00700854
0.00786728
0.00831887
0.0083213
)
;
    }
    ami2
    {
        type            cyclicAMI;
        value           nonuniform List<scalar> 0();
    }
    outlet
    {
        type            zeroGradient;
    }
    procBoundary3to2
    {
        type            processor;
        value           nonuniform List<scalar> 
110
(
0.00442791
0.00545362
0.00629181
0.00703489
0.0074292
0.00742557
0.00786723
0.00786723
0.00700852
0.00606097
0.00474655
0.00544948
0.0102686
0.01262
0.0142447
0.0150885
0.0150836
0.0162401
0.0162401
0.0143832
0.0116991
0.00606378
0.00628436
0.0126122
0.0165871
0.0191836
0.0205075
0.0205053
0.0219013
0.0219013
0.0189398
0.0143886
0.00701337
0.00702727
0.0142346
0.0191799
0.0224673
0.0241353
0.0241347
0.0256402
0.0256402
0.0219039
0.0162471
0.00787232
0.00742553
0.0150836
0.0205053
0.0241347
0.0259744
0.0259744
0.0275249
0.0275249
0.0234093
0.0172121
0.00832122
0.00742919
0.0150885
0.0205075
0.0241353
0.0259744
0.0259744
0.0275245
0.0275245
0.0234077
0.0172087
0.00831879
0.0070349
0.0142447
0.0191836
0.0224673
0.0241348
0.0241353
0.0256402
0.0256402
0.0219013
0.0162402
0.00786726
0.00629182
0.0126201
0.0165872
0.0191799
0.0205053
0.0205075
0.021904
0.021904
0.0189398
0.0143832
0.00700855
0.00545365
0.0102687
0.0126123
0.0142346
0.0150836
0.0150885
0.0162471
0.0162471
0.0143887
0.0116992
0.00606101
0.00442793
0.00544952
0.00628437
0.00702727
0.00742552
0.00742916
0.00787235
0.00787235
0.00701342
0.00606384
0.00474658
)
;
    }
    procBoundary3to4
    {
        type            processor;
        value           nonuniform List<scalar> 
109
(
0.00989071
0.0175362
0.020461
0.0232724
0.0246451
0.0246449
0.0232721
0.0204607
0.0175361
0.00989071
0.0175361
0.0397945
0.0486775
0.0545308
0.0574407
0.0574404
0.0545302
0.0486771
0.0397945
0.0175362
0.0204607
0.0486771
0.0635105
0.0718634
0.0756573
0.0756571
0.0718631
0.0635105
0.0486775
0.020461
0.0232721
0.0545302
0.0718631
0.0812741
0.08532
0.08532
0.0812741
0.0718634
0.0545308
0.0232724
0.0246449
0.0574404
0.0756571
0.08532
0.0893701
0.0893701
0.08532
0.0756573
0.0574407
0.0246451
0.0246451
0.0574407
0.0756573
0.08532
0.0893701
0.0893701
0.0893701
0.08532
0.08532
0.0756571
0.0756571
0.0574404
0.0574404
0.0246449
0.0246449
0.0232724
0.0545308
0.0718634
0.0812741
0.08532
0.08532
0.103871
0.09968
0.0894038
0.0689925
0.0292873
0.020461
0.0486775
0.0635105
0.0718631
0.0756571
0.0756571
0.0935708
0.089404
0.0798669
0.0618724
0.0256616
0.0175362
0.0397945
0.0486771
0.0545302
0.0574404
0.0574404
0.0724825
0.0689929
0.0618727
0.0508112
0.0219935
0.00989071
0.0175361
0.0204607
0.0232721
0.0246449
0.0246449
0.0310723
0.0292875
0.0256618
0.0219935
0.0118511
)
;
    }
}


// ************************************************************************* //
