/*--------------------------------*- C++ -*----------------------------------*\
| =========                 |                                                 |
| \\      /  F ield         | OpenFOAM: The Open Source CFD Toolbox           |
|  \\    /   O peration     | Version:  2212                                  |
|   \\  /    A nd           | Website:  www.openfoam.com                      |
|    \\/     M anipulation  |                                                 |
\*---------------------------------------------------------------------------*/
FoamFile
{
    version     2.0;
    format      ascii;
    arch        "LSB;label=32;scalar=64";
    class       surfaceVectorField;
    location    "2.7";
    object      Uf;
}
// * * * * * * * * * * * * * * * * * * * * * * * * * * * * * * * * * * * * * //

dimensions      [0 1 -1 0 0 0 0];

internalField   nonuniform List<vector> 
1795
(
(0.0556148 0.000290849 0.000285232)
(0.0650523 0.000471004 0.000386543)
(0.065051 0.000389918 0.000466183)
(0.053626 0.000231718 0.000222515)
(0.0629685 0.000418801 0.000306414)
(0.0629662 0.000311907 0.000410652)
(0.0518818 0.000191029 0.000175667)
(0.0611357 0.000378702 0.000252678)
(0.0611317 0.000261682 0.000364985)
(0.0503335 0.000164194 0.000138621)
(0.0594954 0.00034454 0.000215429)
(0.0594882 0.000231394 0.000321367)
(0.0489491 0.000147485 0.000106486)
(0.0580146 0.000315815 0.000188291)
(0.0580016 0.000215008 0.000277377)
(0.0476988 0.000138668 7.47422e-05)
(0.056667 0.000295941 0.000167909)
(0.0566442 0.000207288 0.000233397)
(0.055431 0.000287474 0.000151669)
(0.0553931 0.000205335 0.000184819)
(0.0765588 0.000994582 0.000624391)
(0.0830637 0.00137249 0.000912824)
(0.0844816 0.000984453 0.000689806)
(0.0746547 0.000909281 0.000516974)
(0.0813294 0.00128004 0.00080097)
(0.0828819 0.000847657 0.000547161)
(0.0729296 0.000837946 0.00045044)
(0.0797545 0.00119649 0.000725409)
(0.0814508 0.000748714 0.000452908)
(0.0713486 0.000770579 0.000408566)
(0.0783117 0.00111609 0.000677421)
(0.0801568 0.000669516 0.000386638)
(0.0698909 0.000708749 0.00038206)
(0.0769805 0.00103851 0.000647312)
(0.0789743 0.000602651 0.000336849)
(0.0685405 0.000659094 0.00036781)
(0.0757445 0.000965082 0.0006289)
(0.077885 0.000550996 0.000300231)
(0.0745938 0.000896684 0.000618823)
(0.0768827 0.000515089 0.000271768)
(0.0891563 0.00165614 0.00111297)
(0.0923726 0.00157627 0.00126501)
(0.0941509 0.00164527 0.00120256)
(0.0878123 0.00155126 0.00103091)
(0.0913392 0.00148036 0.00117117)
(0.0931707 0.00150576 0.00109387)
(0.0865747 0.00144176 0.000969396)
(0.0903547 0.00136909 0.00110204)
(0.0922696 0.00137656 0.00101078)
(0.0854293 0.00133583 0.000928916)
(0.0894321 0.0012563 0.00105564)
(0.0914481 0.00125978 0.000952197)
(0.0843618 0.00123607 0.000904553)
(0.0885652 0.00114515 0.00102647)
(0.0906987 0.00115685 0.000912432)
(0.0833631 0.00113916 0.000890432)
(0.0877431 0.00103622 0.00101014)
(0.0900123 0.00106498 0.000884582)
(0.0869615 0.000925929 0.00100192)
(0.0893855 0.000979078 0.000862329)
(0.0948779 0.00135046 0.00132824)
(0.0959956 0.000913538 0.00137905)
(0.0985146 0.00139142 0.0015144)
(0.0942466 0.00128822 0.00125707)
(0.0955288 0.000896775 0.00127828)
(0.0981836 0.00129701 0.00141868)
(0.0936251 0.00120175 0.00121042)
(0.0950767 0.000860079 0.00121632)
(0.097841 0.00119021 0.00134153)
(0.0930173 0.0010992 0.0011796)
(0.0946255 0.000795797 0.00118347)
(0.09751 0.00108016 0.00128726)
(0.0924231 0.000989011 0.00116144)
(0.0941752 0.000717512 0.00116978)
(0.0971941 0.000971624 0.00125058)
(0.0918407 0.000873742 0.00115334)
(0.093722 0.000632531 0.00116786)
(0.0968907 0.000865109 0.00122696)
(0.0932582 0.000538575 0.00117499)
(0.0965989 0.000756391 0.00121348)
(0.0966771 0.00043184 0.00132875)
(0.0968312 -3.65616e-06 0.00138862)
(0.0999412 0.000481478 0.00157193)
(0.0963983 0.000419671 0.00123395)
(0.0965305 -6.20693e-06 0.00127031)
(0.099902 0.000455075 0.00148039)
(0.096135 0.000398637 0.00118477)
(0.0962748 -1.0425e-05 0.0012002)
(0.0998709 0.000426966 0.00141702)
(0.0958601 0.000364178 0.00116992)
(0.0959982 -1.73953e-05 0.00117384)
(0.0998197 0.00039011 0.00137763)
(0.0955618 0.000316949 0.00117353)
(0.0957003 -2.88783e-05 0.00117357)
(0.0997546 0.000344169 0.00135144)
(0.0952333 0.000256809 0.00118768)
(0.0953775 -4.78835e-05 0.00118635)
(0.0996748 0.000290649 0.00133902)
(0.0950138 -7.92209e-05 0.00121183)
(0.0995708 0.000226815 0.00134366)
(0.0966724 -0.000441228 0.00133018)
(0.0959897 -0.000918941 0.00138012)
(0.0999379 -0.000487702 0.00157304)
(0.0963902 -0.000435481 0.00123655)
(0.0955185 -0.000906038 0.00128048)
(0.0998965 -0.000465643 0.00148231)
(0.0961211 -0.000425029 0.00118927)
(0.0950591 -0.000875353 0.00122072)
(0.0998618 -0.00044487 0.00142029)
(0.0958364 -0.00040792 0.0011775)
(0.0945956 -0.00082071 0.00119143)
(0.0998044 -0.00042006 0.00138293)
(0.0955212 -0.000389226 0.00118639)
(0.0941246 -0.000758041 0.00118399)
(0.099729 -0.00039363 0.00136039)
(0.0951639 -0.000376296 0.00121049)
(0.0936364 -0.000699348 0.00119196)
(0.0996312 -0.000371145 0.00135492)
(0.099496 -0.000357485 0.00137246)
(0.0948669 -0.00135523 0.00133)
(0.0923645 -0.00157683 0.00126677)
(0.0985073 -0.00139388 0.00151656)
(0.0942276 -0.00129608 0.00126092)
(0.0913252 -0.00148129 0.0011743)
(0.0981713 -0.00130114 0.00142231)
(0.0935928 -0.00121417 0.00121799)
(0.090331 -0.00137049 0.00110783)
(0.0978203 -0.00119704 0.00134783)
(0.0929628 -0.00111883 0.00119369)
(0.0893921 -0.00125839 0.0010656)
(0.0974753 -0.00109106 0.0012983)
(0.0923313 -0.00102095 0.00118607)
(0.0884975 -0.00114833 0.00104431)
(0.0971354 -0.000988977 0.00127023)
(0.0876294 -0.00104195 0.00104064)
(0.0967922 -0.000892608 0.0012615)
(0.0891456 -0.00165332 0.00111602)
(0.0830584 -0.00136884 0.000915292)
(0.0941445 -0.00164269 0.00120581)
(0.0877943 -0.00154655 0.00103593)
(0.0813201 -0.0012739 0.000805066)
(0.0931596 -0.00150133 0.00109923)
(0.0865442 -0.00143395 0.00097752)
(0.0797387 -0.0011861 0.000732267)
(0.0922508 -0.00136901 0.00101971)
(0.0853779 -0.00132308 0.000942574)
(0.0782844 -0.00109827 0.000689631)
(0.0914164 -0.00124755 0.000967173)
(0.0842756 -0.00121589 0.000928255)
(0.0769331 -0.00100927 0.000668483)
(0.0906453 -0.00113687 0.000938059)
(0.0756636 -0.000919505 0.000661389)
(0.089924 -0.00103244 0.000927943)
(0.0765544 -0.000988461 0.000628037)
(0.065051 -0.000466172 0.000389922)
(0.0844798 -0.000979956 0.000693875)
(0.074647 -0.000898784 0.000523071)
(0.0629661 -0.000410642 0.00031191)
(0.0828786 -0.000839947 0.000554048)
(0.0729161 -0.000819978 0.000461596)
(0.0611317 -0.000364975 0.000261682)
(0.0814452 -0.000735494 0.000464703)
(0.0713243 -0.000740458 0.000428544)
(0.0594882 -0.000321358 0.00023139)
(0.0801468 -0.000646426 0.000408258)
(0.0698476 -0.000659601 0.000412282)
(0.0580015 -0.00027737 0.000215)
(0.0789561 -0.000564744 0.000373253)
(0.056644 -0.000233395 0.000207285)
(0.0778532 -0.000491979 0.00035511)
(0.0556148 -0.000285229 0.000290855)
(0.0650523 -0.000386542 0.000471018)
(0.053626 -0.000222512 0.000231722)
(0.0629684 -0.000306415 0.000418815)
(0.0518818 -0.000175666 0.00019103)
(0.0611357 -0.000252679 0.000378717)
(0.0503334 -0.00013862 0.000164191)
(0.0594954 -0.000215432 0.000344556)
(0.048949 -0.00010649 0.000147483)
(0.0580145 -0.000188296 0.000315834)
(0.0566668 -0.000167913 0.000295965)
(0.0765544 0.000628032 0.000988472)
(0.0844798 0.000693862 0.00097996)
(0.0830584 0.000915289 0.00136885)
(0.074647 0.000523066 0.000898794)
(0.0828787 0.000554033 0.00083995)
(0.0813201 0.000805064 0.00127392)
(0.0729161 0.000461594 0.000819986)
(0.0814453 0.000464686 0.000735495)
(0.0797387 0.000732266 0.00118611)
(0.0713243 0.000428544 0.000740461)
(0.0801469 0.000408241 0.000646424)
(0.0782844 0.000689635 0.00109828)
(0.0698477 0.000412278 0.000659593)
(0.0789562 0.000373227 0.00056473)
(0.0769332 0.000668489 0.00100929)
(0.0684662 0.000405758 0.000578482)
(0.0778533 0.00035505 0.000491932)
(0.0756637 0.000661399 0.000919524)
(0.07683 0.000350297 0.000422526)
(0.0744592 0.000665012 0.000825882)
(0.0926176 0.000965351 0.000958765)
(0.09596 0.00140686 0.00131953)
(0.0959579 0.00132409 0.00140254)
(0.0915938 0.000783473 0.00077216)
(0.095149 0.00119546 0.00111533)
(0.0951453 0.00112311 0.001188)
(0.0906881 0.00065547 0.000635505)
(0.0944277 0.00103837 0.000966392)
(0.0944213 0.000979606 0.00102555)
(0.0898803 0.000563748 0.000529975)
(0.0937915 0.000919763 0.000854489)
(0.0937807 0.000877592 0.000897907)
(0.0891506 0.000499653 0.000446845)
(0.0932268 0.000829484 0.000768875)
(0.0932087 0.000806914 0.000793724)
(0.0884896 0.000457543 0.000377917)
(0.0927226 0.000761089 0.000701335)
(0.0926937 0.000761014 0.000704545)
(0.0922796 0.0007083 0.000641426)
(0.0922344 0.000733972 0.000619132)
(0.0989352 0.00156541 0.00148037)
(0.100666 0.00158423 0.00176352)
(0.100855 0.00177215 0.00175555)
(0.0984677 0.00138136 0.00131622)
(0.100411 0.00139631 0.00158696)
(0.100607 0.00157213 0.00156029)
(0.0980532 0.00123035 0.00119248)
(0.100177 0.0012305 0.00144026)
(0.10038 0.00140712 0.00140411)
(0.0976929 0.00110631 0.00110011)
(0.0999737 0.00109027 0.00133148)
(0.100186 0.00127164 0.00127956)
(0.0973847 0.00100423 0.00102961)
(0.0998032 0.000972376 0.00125235)
(0.100027 0.00116151 0.00117977)
(0.0971279 0.000918694 0.000970845)
(0.0996651 0.000870946 0.0011925)
(0.0999051 0.00107248 0.00109631)
(0.0995596 0.000778549 0.001144)
(0.0998215 0.00100013 0.00102059)
(0.102279 0.001381 0.00188274)
(0.102842 0.00101597 0.00200379)
(0.103288 0.00147956 0.00204701)
(0.102278 0.00122792 0.00172672)
(0.102968 0.000914233 0.00186778)
(0.103494 0.00132765 0.00188651)
(0.102276 0.00108743 0.00159728)
(0.103073 0.000817532 0.00174051)
(0.103673 0.00118461 0.00174017)
(0.10228 0.000965148 0.00150379)
(0.103169 0.00072817 0.00163774)
(0.103837 0.00105937 0.00162358)
(0.102293 0.000856772 0.00143712)
(0.103265 0.000644786 0.00155755)
(0.103996 0.000950836 0.00153229)
(0.102318 0.000754906 0.00138928)
(0.103363 0.000565154 0.00150293)
(0.104157 0.000854325 0.00146064)
(0.103461 0.00048307 0.00147194)
(0.104323 0.000763642 0.00140368)
(0.103556 0.000522673 0.00199024)
(0.103427 -2.87901e-06 0.00204533)
(0.104186 0.000553616 0.00210584)
(0.10379 0.000475783 0.00188367)
(0.103679 -4.83233e-06 0.00193713)
(0.104622 0.000504632 0.00199323)
(0.103997 0.000427862 0.0017833)
(0.103896 -8.26705e-06 0.00183336)
(0.105011 0.000456519 0.00188155)
(0.104191 0.000376634 0.00169372)
(0.104091 -1.39317e-05 0.00173836)
(0.105365 0.000408272 0.00177915)
(0.104376 0.000322805 0.00162553)
(0.104277 -2.31366e-05 0.00165778)
(0.105695 0.000359835 0.00169206)
(0.10455 0.000265029 0.00158807)
(0.10445 -3.71885e-05 0.00160876)
(0.106006 0.000311638 0.00163084)
(0.104605 -5.87166e-05 0.00159413)
(0.106301 0.000260063 0.00159623)
(0.103552 -0.000529974 0.00199222)
(0.102838 -0.00101929 0.00200641)
(0.104183 -0.000557709 0.00210753)
(0.103784 -0.000488282 0.00188681)
(0.102961 -0.000919868 0.00187177)
(0.104618 -0.000511517 0.00199583)
(0.103987 -0.000449082 0.00178841)
(0.103061 -0.000827548 0.00174696)
(0.105005 -0.000468224 0.00188582)
(0.104175 -0.000411927 0.00170242)
(0.103148 -0.000745308 0.00164878)
(0.105355 -0.000427824 0.00178629)
(0.104349 -0.000379794 0.00164101)
(0.103232 -0.000672903 0.00157653)
(0.105679 -0.000391773 0.00170454)
(0.104504 -0.000355285 0.00161482)
(0.103307 -0.000608057 0.00153553)
(0.10598 -0.000362055 0.00165256)
(0.106258 -0.000338758 0.00163171)
(0.102271 -0.00138268 0.00188732)
(0.100661 -0.00158323 0.00176755)
(0.103283 -0.00147969 0.00205104)
(0.102265 -0.00123087 0.00173391)
(0.100402 -0.00139449 0.0015935)
(0.103487 -0.00132783 0.00189277)
(0.102254 -0.00109262 0.00160943)
(0.100162 -0.0012273 0.00145097)
(0.103661 -0.00118532 0.00175033)
(0.102243 -0.000973721 0.0015247)
(0.0999485 -0.00108487 0.00134966)
(0.103817 -0.00106087 0.00164096)
(0.102232 -0.000869327 0.0014726)
(0.0997608 -0.000963084 0.00128278)
(0.103963 -0.000953435 0.00156134)
(0.0995956 -0.000854387 0.0012432)
(0.104102 -0.00085691 0.00150846)
(0.098929 -0.00156114 0.00148629)
(0.0959579 -0.00140254 0.0013241)
(0.100852 -0.00176841 0.00176022)
(0.098457 -0.00137395 0.00132618)
(0.0951453 -0.001188 0.00112312)
(0.100603 -0.00156588 0.00156819)
(0.0980349 -0.00121808 0.00120915)
(0.0944213 -0.00102556 0.000979626)
(0.100373 -0.0013966 0.00141719)
(0.0976621 -0.00108616 0.00112786)
(0.0937806 -0.000897917 0.000877617)
(0.100173 -0.0012546 0.00130109)
(0.0973345 -0.000970402 0.00107528)
(0.0932086 -0.000793746 0.000806954)
(0.100006 -0.00113361 0.00121487)
(0.0926935 -0.000704597 0.000761088)
(0.0998721 -0.00102657 0.00115336)
(0.0926176 -0.000958768 0.000965369)
(0.0844816 -0.000689803 0.000984469)
(0.09596 -0.00131953 0.00140688)
(0.0915938 -0.000772165 0.000783495)
(0.0828818 -0.000547157 0.000847675)
(0.095149 -0.00111533 0.00119549)
(0.0906881 -0.000635513 0.000655496)
(0.0814508 -0.000452903 0.000748734)
(0.0944276 -0.000966397 0.0010384)
(0.0898802 -0.000529992 0.000563784)
(0.0801568 -0.00038663 0.000669538)
(0.0937914 -0.000854496 0.000919804)
(0.0891505 -0.000446896 0.000499729)
(0.0789742 -0.000336844 0.000602683)
(0.0932267 -0.000768889 0.000829541)
(0.0778849 -0.00030024 0.000551058)
(0.0927225 -0.000701378 0.000761191)
(0.0765588 -0.000624393 0.000994602)
(0.0830637 -0.000912823 0.00137251)
(0.0746547 -0.000516975 0.000909304)
(0.0813294 -0.000800969 0.00128007)
(0.0729296 -0.000450439 0.000837972)
(0.0797545 -0.000725407 0.00119652)
(0.0713485 -0.000408564 0.000770609)
(0.0783116 -0.000677416 0.00111612)
(0.0698908 -0.000382053 0.000708786)
(0.0769804 -0.000647303 0.00103855)
(0.0757443 -0.000628875 0.000965124)
(0.0891457 0.00111602 0.00165333)
(0.0941445 0.0012058 0.00164269)
(0.0923645 0.00126677 0.00157684)
(0.0877943 0.00103593 0.00154656)
(0.0931597 0.00109922 0.00150133)
(0.0913252 0.0011743 0.00148131)
(0.0865442 0.000977521 0.00143396)
(0.0922509 0.00101969 0.00136901)
(0.090331 0.00110783 0.0013705)
(0.085378 0.000942575 0.00132308)
(0.0914165 0.000967158 0.00124754)
(0.0893922 0.00106559 0.00125839)
(0.0842756 0.000928261 0.0012159)
(0.0906454 0.000938037 0.00113686)
(0.0884976 0.0010443 0.00114833)
(0.0832192 0.000931347 0.00110832)
(0.0899241 0.000927923 0.00103242)
(0.0876295 0.00104064 0.00104194)
(0.0892414 0.000934724 0.000926531)
(0.0867711 0.00105396 0.000936875)
(0.098929 0.00148628 0.00156113)
(0.100852 0.0017602 0.0017684)
(0.100661 0.00176754 0.00158322)
(0.098457 0.00132617 0.00137394)
(0.100603 0.00156816 0.00156587)
(0.100402 0.00159348 0.00139448)
(0.098035 0.00120913 0.00121806)
(0.100373 0.00141716 0.00139658)
(0.100162 0.00145095 0.00122729)
(0.0976622 0.00112782 0.00108613)
(0.100173 0.00130105 0.00125457)
(0.0999485 0.00134964 0.00108484)
(0.0973346 0.00107524 0.000970358)
(0.100006 0.00121481 0.00113357)
(0.0997609 0.00128275 0.000963042)
(0.0970487 0.00104513 0.000861384)
(0.0998722 0.00115328 0.00102653)
(0.0995958 0.00124315 0.000854328)
(0.0997702 0.0011125 0.000924658)
(0.0994504 0.00122773 0.000750457)
(0.102726 0.00177363 0.00176767)
(0.103525 0.00169887 0.0019574)
(0.103523 0.00196178 0.00169586)
(0.102746 0.00159381 0.00158406)
(0.103745 0.00152183 0.0017823)
(0.103743 0.0017893 0.00151694)
(0.102765 0.00144523 0.00142934)
(0.103936 0.00136917 0.0016273)
(0.103932 0.00163856 0.00136131)
(0.102793 0.00132454 0.00129883)
(0.104114 0.0012398 0.00149417)
(0.104108 0.00151247 0.00122712)
(0.10284 0.00122843 0.00118705)
(0.104289 0.00113203 0.00138089)
(0.10428 0.00141049 0.00111168)
(0.10291 0.0011538 0.00108763)
(0.104471 0.001043 0.00128389)
(0.104457 0.00133184 0.00101024)
(0.104665 0.000969176 0.00119817)
(0.104642 0.00127515 0.000917035)
(0.104607 0.00141888 0.00197713)
(0.104695 0.00103665 0.00206524)
(0.104795 0.00151008 0.00180691)
(0.10501 0.00127828 0.00183296)
(0.105225 0.000935647 0.00194142)
(0.105363 0.00138666 0.00167879)
(0.105371 0.0011513 0.00170104)
(0.1057 0.000840751 0.0018176)
(0.105876 0.00126659 0.00155122)
(0.105707 0.00104039 0.00158632)
(0.106133 0.000756894 0.00170411)
(0.106348 0.00115764 0.00143525)
(0.106027 0.000944297 0.00148887)
(0.106536 0.000683688 0.00160557)
(0.106789 0.00106253 0.00133387)
(0.106342 0.000859765 0.00140667)
(0.106919 0.000618436 0.00152429)
(0.107209 0.00098082 0.00124656)
(0.107292 0.000557582 0.0014599)
(0.107618 0.000910796 0.00117129)
(0.105326 0.000532923 0.00203004)
(0.105007 -1.45357e-06 0.0020801)
(0.105255 0.000558033 0.0018086)
(0.105931 0.000483171 0.00192749)
(0.105642 -2.37448e-06 0.00198217)
(0.105996 0.000516015 0.00172756)
(0.10648 0.000435072 0.00182269)
(0.106215 -3.91421e-06 0.00187632)
(0.106678 0.000472472 0.00163442)
(0.106983 0.000389993 0.00172567)
(0.106737 -6.3491e-06 0.00177484)
(0.107309 0.000430753 0.00154009)
(0.10745 0.000347601 0.0016435)
(0.107218 -1.00523e-05 0.0016862)
(0.107894 0.000392201 0.00145285)
(0.107894 0.000306134 0.00158031)
(0.107668 -1.54239e-05 0.00161701)
(0.108444 0.000356799 0.0013787)
(0.108098 -2.34429e-05 0.00156998)
(0.108967 0.000323109 0.00132069)
(0.105324 -0.000536438 0.00203223)
(0.104692 -0.00103736 0.00206825)
(0.105254 -0.000559396 0.00181012)
(0.105927 -0.000488977 0.00193099)
(0.105221 -0.000936851 0.00194611)
(0.105994 -0.000518321 0.00172992)
(0.106473 -0.000444607 0.00182846)
(0.105694 -0.000842952 0.00182505)
(0.106675 -0.000476354 0.00163819)
(0.106973 -0.000405318 0.00173536)
(0.106123 -0.00076076 0.00171631)
(0.107304 -0.0004371 0.00154618)
(0.107436 -0.000371508 0.00165971)
(0.10652 -0.000690023 0.00162558)
(0.107886 -0.00040219 0.00146274)
(0.107872 -0.000342619 0.00160668)
(0.106895 -0.000627843 0.0015572)
(0.108432 -0.000371888 0.00139464)
(0.108951 -0.000345568 0.00134591)
(0.104603 -0.00141732 0.00198259)
(0.103523 -0.00169587 0.0019618)
(0.104794 -0.00150835 0.00181037)
(0.105004 -0.00127589 0.00184151)
(0.103743 -0.00151695 0.00178933)
(0.10536 -0.00138391 0.00168414)
(0.105361 -0.00114772 0.00171477)
(0.103932 -0.00136133 0.0016386)
(0.105872 -0.00126237 0.0015596)
(0.105691 -0.0010349 0.0016086)
(0.104108 -0.00122715 0.00151253)
(0.106341 -0.00115107 0.00144869)
(0.106003 -0.00093536 0.00152517)
(0.10428 -0.00111172 0.00141056)
(0.106779 -0.00105219 0.00135542)
(0.104457 -0.00101029 0.00133193)
(0.107194 -0.000964152 0.00128134)
(0.102726 -0.00176768 0.00177365)
(0.100855 -0.00175555 0.00177218)
(0.103525 -0.00195741 0.0016989)
(0.102746 -0.00158407 0.00159384)
(0.100607 -0.00156029 0.00157216)
(0.103745 -0.00178231 0.00152187)
(0.102765 -0.00142936 0.00144527)
(0.10038 -0.00140412 0.00140715)
(0.103936 -0.00162731 0.00136922)
(0.102793 -0.00129886 0.00132461)
(0.100186 -0.00127957 0.00127169)
(0.104113 -0.00149419 0.00123986)
(0.10284 -0.00118709 0.00122851)
(0.100027 -0.00117978 0.00116158)
(0.104289 -0.00138091 0.00113212)
(0.0999049 -0.00109632 0.00107257)
(0.104471 -0.00128392 0.00104311)
(0.0989352 -0.00148037 0.00156544)
(0.0941509 -0.00120256 0.00164529)
(0.100666 -0.00176352 0.00158425)
(0.0984676 -0.00131622 0.00138139)
(0.0931707 -0.00109387 0.00150579)
(0.100411 -0.00158696 0.00139635)
(0.0980531 -0.00119248 0.0012304)
(0.0922696 -0.00101077 0.00137659)
(0.100177 -0.00144027 0.00123055)
(0.0976928 -0.00110011 0.00110637)
(0.091448 -0.000952187 0.00125983)
(0.0999736 -0.00133149 0.00109033)
(0.0973846 -0.00102961 0.00100431)
(0.0906986 -0.000912414 0.0011569)
(0.0998031 -0.00125235 0.00097246)
(0.0900122 -0.000884549 0.00106505)
(0.0996649 -0.0011925 0.000871064)
(0.0891562 -0.00111296 0.00165617)
(0.0923726 -0.00126501 0.00157629)
(0.0878123 -0.00103091 0.00155129)
(0.0913392 -0.00117117 0.0014804)
(0.0865746 -0.00096939 0.00144179)
(0.0903546 -0.00110204 0.00136914)
(0.0854292 -0.000928905 0.00133587)
(0.0894321 -0.00105563 0.00125636)
(0.0843617 -0.000904528 0.00123612)
(0.0885651 -0.00102646 0.00114523)
(0.0877429 -0.00101012 0.00103632)
(0.0948669 0.00133 0.00135524)
(0.0985073 0.00151656 0.00139388)
(0.0959897 0.00138012 0.000918952)
(0.0942277 0.00126092 0.00129608)
(0.0981713 0.00142231 0.00130114)
(0.0955185 0.00128048 0.000906047)
(0.0935928 0.00121798 0.00121417)
(0.0978203 0.00134782 0.00119703)
(0.0950591 0.00122072 0.000875357)
(0.0929628 0.00119368 0.00111882)
(0.0974753 0.00129828 0.00109104)
(0.0945956 0.00119142 0.000820709)
(0.0923314 0.00118606 0.00102093)
(0.0971355 0.0012702 0.000988946)
(0.0941246 0.00118398 0.000758031)
(0.0916867 0.0011952 0.000927006)
(0.0967923 0.00126147 0.00089256)
(0.0936364 0.00119194 0.000699323)
(0.0964367 0.00127432 0.000801721)
(0.0931134 0.00121687 0.000649647)
(0.102271 0.00188731 0.00138267)
(0.103283 0.00205103 0.00147968)
(0.102838 0.0020064 0.00101928)
(0.102265 0.00173389 0.00123085)
(0.103487 0.00189274 0.00132781)
(0.102961 0.00187175 0.000919853)
(0.102254 0.00160941 0.00109259)
(0.103661 0.0017503 0.0011853)
(0.103061 0.00174694 0.000827526)
(0.102243 0.00152467 0.000973681)
(0.103817 0.00164092 0.00106084)
(0.103149 0.00164876 0.000745274)
(0.102232 0.00147255 0.00086927)
(0.103963 0.00156129 0.000953387)
(0.103232 0.00157649 0.000672854)
(0.10222 0.00144917 0.000773061)
(0.104102 0.00150839 0.000856846)
(0.103307 0.00153547 0.000607988)
(0.104237 0.00148175 0.000766791)
(0.10337 0.00152685 0.000549684)
(0.104603 0.00198256 0.00141731)
(0.104794 0.00181034 0.00150834)
(0.104692 0.00206824 0.00103735)
(0.105004 0.00184148 0.00127587)
(0.10536 0.00168411 0.0013839)
(0.105221 0.00194608 0.000936834)
(0.105361 0.00171472 0.00114769)
(0.105872 0.00155955 0.00126235)
(0.105694 0.00182501 0.000842927)
(0.105691 0.00160854 0.00103486)
(0.106341 0.00144863 0.00115104)
(0.106123 0.00171626 0.000760726)
(0.106003 0.00152509 0.000935306)
(0.106779 0.00135534 0.00105215)
(0.10652 0.00162552 0.000689974)
(0.106304 0.00146544 0.000844967)
(0.107194 0.00128123 0.000964098)
(0.106895 0.00155711 0.000627775)
(0.107594 0.00122664 0.000884293)
(0.107255 0.00151279 0.000571133)
(0.105582 0.0014782 0.00147521)
(0.105368 0.00104943 0.00151682)
(0.105367 0.00151859 0.00104823)
(0.106267 0.00137699 0.0013723)
(0.10615 0.000982533 0.00143469)
(0.106149 0.00143745 0.000980743)
(0.106896 0.00127625 0.00126887)
(0.106875 0.000911492 0.00134357)
(0.106874 0.00134789 0.000908789)
(0.10748 0.00118405 0.00117236)
(0.107548 0.000843882 0.00125291)
(0.107547 0.00125974 0.000839679)
(0.108028 0.00110409 0.00108563)
(0.108176 0.000783572 0.00116837)
(0.108174 0.00117915 0.000776866)
(0.108548 0.00103764 0.0010087)
(0.108767 0.000732011 0.00109274)
(0.108764 0.00110968 0.000721136)
(0.109329 0.000689228 0.00102708)
(0.109326 0.00105349 0.00067178)
(0.105942 0.000540978 0.00147633)
(0.105515 -6.51334e-08 0.00150876)
(0.105595 0.000552113 0.00103271)
(0.106766 0.000505573 0.00140647)
(0.106366 -1.64211e-07 0.00144546)
(0.106495 0.000524149 0.000989059)
(0.107536 0.000468807 0.00132849)
(0.107163 -3.16093e-07 0.00136989)
(0.107344 0.000492055 0.000937043)
(0.108254 0.000434024 0.00125005)
(0.107906 -4.96804e-07 0.00129085)
(0.108142 0.000459695 0.000882654)
(0.108927 0.0004029 0.00117681)
(0.108599 -6.51314e-07 0.00121515)
(0.108889 0.000429493 0.000830249)
(0.109561 0.000375772 0.00111263)
(0.10925 -6.87169e-07 0.00114767)
(0.109592 0.000402744 0.000782746)
(0.109867 -6.06254e-07 0.00109187)
(0.110258 0.000379818 0.000741992)
(0.105942 -0.000541038 0.00147788)
(0.105367 -0.00104824 0.00151862)
(0.105595 -0.000551895 0.00103357)
(0.106765 -0.000505802 0.00140887)
(0.106149 -0.000980756 0.00143749)
(0.106494 -0.000523898 0.000990348)
(0.107534 -0.000469253 0.00133225)
(0.106874 -0.000908807 0.00134794)
(0.107344 -0.000491757 0.000939009)
(0.108252 -0.000434635 0.00125595)
(0.107547 -0.000839705 0.0012598)
(0.10814 -0.00045927 0.000885686)
(0.108923 -0.000403442 0.00118601)
(0.108174 -0.000776903 0.00117923)
(0.108887 -0.000428735 0.000834957)
(0.109556 -0.000375861 0.00112691)
(0.108764 -0.000721187 0.00110979)
(0.10959 -0.000401243 0.000790077)
(0.110255 -0.000377028 0.000753374)
(0.105582 -0.00147522 0.00147824)
(0.104795 -0.00180692 0.00151012)
(0.105368 -0.00151682 0.00104946)
(0.106267 -0.00137232 0.00137703)
(0.105363 -0.0016788 0.0013867)
(0.10615 -0.0014347 0.00098258)
(0.106896 -0.00126889 0.00127631)
(0.105876 -0.00155124 0.00126665)
(0.106875 -0.00134358 0.000911553)
(0.10748 -0.00117239 0.00118413)
(0.106348 -0.00143527 0.00115772)
(0.107548 -0.00125293 0.000843962)
(0.108028 -0.00108567 0.00110419)
(0.106789 -0.0013339 0.00106263)
(0.108176 -0.00116839 0.000783675)
(0.107209 -0.00124659 0.000980941)
(0.108766 -0.00109277 0.000732143)
(0.104607 -0.00197714 0.00141892)
(0.103288 -0.00204702 0.00147959)
(0.104695 -0.00206524 0.00103669)
(0.10501 -0.00183297 0.00127833)
(0.103494 -0.00188651 0.0013277)
(0.105225 -0.00194142 0.000935698)
(0.105371 -0.00170105 0.00115136)
(0.103673 -0.00174018 0.00118467)
(0.1057 -0.00181761 0.000840819)
(0.105707 -0.00158634 0.00104047)
(0.103837 -0.00162358 0.00105944)
(0.106133 -0.00170412 0.000756983)
(0.106027 -0.0014889 0.000944409)
(0.103996 -0.0015323 0.000950935)
(0.106536 -0.00160559 0.000683804)
(0.104157 -0.00146065 0.000854457)
(0.106919 -0.00152431 0.000618586)
(0.102279 -0.00188275 0.00138104)
(0.0985146 -0.0015144 0.00139145)
(0.102842 -0.00200379 0.00101601)
(0.102278 -0.00172673 0.00122797)
(0.0981836 -0.00141868 0.00129705)
(0.102968 -0.00186778 0.000914284)
(0.102276 -0.00159728 0.00108749)
(0.097841 -0.00134153 0.00119027)
(0.103073 -0.00174051 0.000817601)
(0.10228 -0.00150379 0.000965236)
(0.09751 -0.00128726 0.00108024)
(0.103169 -0.00163774 0.000728261)
(0.102293 -0.00143711 0.000856891)
(0.097194 -0.00125058 0.000971724)
(0.103265 -0.00155754 0.000644906)
(0.0968905 -0.00122694 0.000865246)
(0.103363 -0.00150292 0.000565316)
(0.0948779 -0.00132824 0.00135049)
(0.0959956 -0.00137905 0.000913567)
(0.0942466 -0.00125708 0.00128827)
(0.0955288 -0.00127828 0.000896818)
(0.093625 -0.00121042 0.00120181)
(0.0950767 -0.00121633 0.000860137)
(0.0930172 -0.0011796 0.00109929)
(0.0946254 -0.00118348 0.000795877)
(0.092423 -0.00116143 0.00098913)
(0.0941751 -0.00116979 0.000717619)
(0.0937219 -0.00116786 0.000632677)
(0.0966723 0.00133018 0.000441239)
(0.0999379 0.00157304 0.000487703)
(0.0968312 0.00138862 3.6687e-06)
(0.0963902 0.00123655 0.000435489)
(0.0998965 0.00148231 0.00046564)
(0.0965305 0.00127031 6.21706e-06)
(0.0961211 0.00118926 0.000425032)
(0.0998618 0.00142027 0.000444861)
(0.0962747 0.00120019 1.04309e-05)
(0.0958364 0.00117749 0.000407916)
(0.0998044 0.00138291 0.000420042)
(0.0959982 0.00117384 1.73943e-05)
(0.0955212 0.00118638 0.000389211)
(0.099729 0.00136037 0.0003936)
(0.0957003 0.00117356 2.88667e-05)
(0.095164 0.00121046 0.000376262)
(0.0996312 0.00135488 0.000371097)
(0.0953775 0.00118634 4.78571e-05)
(0.099496 0.00137239 0.00035741)
(0.0950139 0.00121178 7.91714e-05)
(0.103552 0.0019922 0.000529961)
(0.104183 0.00210752 0.000557697)
(0.103427 0.00204532 2.86947e-06)
(0.103784 0.0018868 0.000488261)
(0.104618 0.00199581 0.000511499)
(0.103679 0.00193712 4.81749e-06)
(0.103987 0.00178839 0.000449051)
(0.105005 0.0018858 0.000468198)
(0.103896 0.00183334 8.24429e-06)
(0.104175 0.00170239 0.000411881)
(0.105355 0.00178626 0.000427787)
(0.104091 0.00173833 1.38975e-05)
(0.104349 0.00164096 0.000379728)
(0.105679 0.00170449 0.000391719)
(0.104277 0.00165774 2.30855e-05)
(0.104504 0.00161473 0.000355192)
(0.10598 0.00165248 0.000361978)
(0.10445 0.0016087 3.71118e-05)
(0.106258 0.0016316 0.000338655)
(0.104605 0.00159403 5.8606e-05)
(0.105324 0.00203221 0.000536422)
(0.105254 0.0018101 0.000559385)
(0.105007 0.00208009 1.44036e-06)
(0.105927 0.00193096 0.000488954)
(0.105994 0.00172989 0.000518305)
(0.105642 0.00198215 2.35603e-06)
(0.106473 0.00182842 0.000444574)
(0.106675 0.00163815 0.000476331)
(0.106215 0.00187629 3.88821e-06)
(0.106973 0.0017353 0.000405272)
(0.107304 0.00154613 0.000437067)
(0.106737 0.0017748 6.31243e-06)
(0.107436 0.00165963 0.000371444)
(0.107886 0.00146268 0.000402144)
(0.107218 0.00168614 1.00005e-05)
(0.107872 0.00160658 0.000342533)
(0.108432 0.00139455 0.000371824)
(0.107668 0.00161694 1.5351e-05)
(0.108951 0.00134579 0.000345483)
(0.108098 0.00156988 2.33439e-05)
(0.105942 0.00147786 0.000541027)
(0.105595 0.00103354 0.00055189)
(0.105515 0.00150874 5.5833e-08)
(0.106765 0.00140884 0.000505786)
(0.106494 0.000990312 0.00052389)
(0.106367 0.00144543 1.51758e-07)
(0.107534 0.0013322 0.00046923)
(0.107344 0.000938961 0.000491746)
(0.107163 0.00136986 2.98709e-07)
(0.108252 0.00125588 0.000434603)
(0.108141 0.000885623 0.000459254)
(0.107906 0.00129081 4.72237e-07)
(0.108923 0.00118592 0.000403397)
(0.108887 0.000834877 0.00042871)
(0.108599 0.00121509 6.16434e-07)
(0.109556 0.00112681 0.000375799)
(0.10959 0.000789975 0.000401208)
(0.10925 0.0011476 6.36617e-07)
(0.110255 0.000753245 0.000376979)
(0.109868 0.00109178 5.41373e-07)
(0.106152 0.000535227 0.000534688)
(0.105676 1.96029e-07 0.000546081)
(0.105676 0.000546057 -1.9472e-07)
(0.107079 0.000510722 0.000509927)
(0.106626 2.85942e-07 0.00052387)
(0.106626 0.000523838 -2.85269e-07)
(0.107956 0.000483152 0.000481957)
(0.107529 4.24403e-07 0.000496826)
(0.107529 0.000496782 -4.24841e-07)
(0.108784 0.000455459 0.000453625)
(0.108382 6.45737e-07 0.000468344)
(0.108382 0.000468288 -6.48089e-07)
(0.109563 0.000429693 0.000426835)
(0.109185 1.0038e-06 0.000440818)
(0.109185 0.000440747 -1.0093e-06)
(0.110299 0.000407199 0.000402743)
(0.109941 1.57464e-06 0.000415811)
(0.109941 0.000415721 -1.5851e-06)
(0.110656 2.44448e-06 0.000394257)
(0.110656 0.000394145 -2.46201e-06)
(0.106152 -0.000534689 0.000535263)
(0.105595 -0.00103271 0.000552148)
(0.105676 -0.000546075 2.28678e-07)
(0.107079 -0.000509929 0.000510769)
(0.106495 -0.000989061 0.000524196)
(0.106626 -0.000523865 3.2949e-07)
(0.107956 -0.000481962 0.000483213)
(0.107344 -0.000937047 0.000492115)
(0.107529 -0.000496819 4.81572e-07)
(0.108784 -0.000453633 0.000455537)
(0.108142 -0.000882662 0.000459774)
(0.108382 -0.000468338 7.19962e-07)
(0.109563 -0.000426849 0.000429793)
(0.108889 -0.000830262 0.000429595)
(0.109185 -0.000440812 1.09929e-06)
(0.110299 -0.000402765 0.000407325)
(0.109592 -0.000782767 0.000402873)
(0.109941 -0.000415807 1.69662e-06)
(0.110656 -0.000394254 2.59822e-06)