/*--------------------------------*- C++ -*----------------------------------*\
| =========                 |                                                 |
| \\      /  F ield         | OpenFOAM: The Open Source CFD Toolbox           |
|  \\    /   O peration     | Version:  2212                                  |
|   \\  /    A nd           | Website:  www.openfoam.com                      |
|    \\/     M anipulation  |                                                 |
\*---------------------------------------------------------------------------*/
FoamFile
{
    version     2.0;
    format      ascii;
    arch        "LSB;label=32;scalar=64";
    class       volVectorField;
    location    "0.6";
    object      U;
}
// * * * * * * * * * * * * * * * * * * * * * * * * * * * * * * * * * * * * * //

dimensions      [0 1 -1 0 0 0 0];

internalField   nonuniform List<vector> 
678
(
(0.030091 3.51821e-06 -7.28478e-07)
(0.0300911 3.13119e-06 -1.08682e-07)
(0.0300856 2.90455e-06 3.17066e-07)
(0.030077 2.66909e-06 3.16116e-07)
(0.0300719 2.34745e-06 -3.2269e-07)
(0.0491106 5.38879e-06 1.05171e-06)
(0.0491082 5.17921e-06 2.91521e-06)
(0.0491015 4.77963e-06 4.52386e-06)
(0.0490932 4.19031e-06 4.65515e-06)
(0.0490872 3.7835e-06 3.6383e-06)
(0.0668424 3.58743e-06 5.65556e-06)
(0.0668385 4.00372e-06 5.59516e-06)
(0.0668345 3.91926e-06 5.1521e-06)
(0.0668305 3.42413e-06 4.12974e-06)
(0.0668281 3.08653e-06 4.0605e-06)
(0.0782904 -6.98856e-08 9.36893e-06)
(0.0782869 7.24143e-07 7.34853e-06)
(0.0782837 1.45462e-06 4.60962e-06)
(0.0782806 1.77393e-06 2.50803e-06)
(0.0782788 1.45564e-06 2.05707e-06)
(0.0782768 6.21482e-07 1.84322e-06)
(0.0832872 -4.57547e-06 1.00418e-05)
(0.0832842 -2.96863e-06 7.23483e-06)
(0.0832812 -1.33853e-06 4.00287e-06)
(0.0832773 -3.61947e-07 1.91813e-06)
(0.083276 -3.70094e-07 1.64591e-06)
(0.0832741 -1.10565e-06 1.85366e-06)
(0.0832647 -8.54411e-06 9.11448e-06)
(0.0832611 -6.19605e-06 6.32642e-06)
(0.0832573 -3.68128e-06 3.29959e-06)
(0.0832526 -2.09583e-06 1.46681e-06)
(0.0832501 -1.94429e-06 1.05757e-06)
(0.0832475 -2.55654e-06 1.15907e-06)
(0.0832449 -2.70472e-06 6.98159e-07)
(0.0791273 -9.91919e-06 8.38826e-06)
(0.0791219 -7.2236e-06 5.58581e-06)
(0.0791164 -4.19902e-06 2.72023e-06)
(0.0791107 -1.89753e-06 1.12507e-06)
(0.079107 -9.83356e-07 7.34652e-07)
(0.0791036 -1.06911e-06 8.37078e-07)
(0.0791001 -2.7328e-06 7.89227e-07)
(0.0713672 -6.83499e-06 7.0142e-06)
(0.0713613 -5.23756e-06 4.31002e-06)
(0.0713553 -3.61808e-06 2.09767e-06)
(0.0713512 -2.22584e-06 9.61193e-07)
(0.0713474 -1.18307e-06 4.56478e-07)
(0.0713467 -1.68204e-06 3.92512e-07)
(0.0713462 -4.61172e-06 8.73745e-07)
(0.0602144 -1.43469e-06 4.50643e-06)
(0.0602091 -3.01255e-06 2.78905e-06)
(0.0602044 -4.58186e-06 1.89136e-06)
(0.0601973 -4.70578e-06 1.37204e-06)
(0.0601913 -3.62632e-06 9.02997e-07)
(0.0601885 -2.89679e-06 5.70543e-07)
(0.0601817 -4.01597e-06 1.00757e-06)
(0.0457955 1.64286e-06 2.31493e-06)
(0.045793 -8.88215e-07 1.65533e-06)
(0.0457856 -3.23205e-06 1.29133e-06)
(0.0457757 -3.60016e-06 8.28688e-07)
(0.0457682 -2.09107e-06 1.86698e-07)
(0.0457667 1.12622e-06 -8.03613e-07)
(0.0300951 4.37829e-07 1.35479e-06)
(0.0300949 -3.03189e-07 8.93036e-07)
(0.0300889 -8.12494e-07 4.4967e-07)
(0.0300801 -8.03402e-07 2.88145e-08)
(0.0300736 -3.2373e-07 -2.01836e-07)
(0.0300743 5.24141e-07 -1.2848e-07)
(0.0457905 5.55188e-06 -3.97474e-06)
(0.0457887 4.96292e-06 -1.85104e-06)
(0.0457818 4.87184e-06 4.57552e-07)
(0.0457719 4.9298e-06 1.1114e-06)
(0.0457644 4.40648e-06 -6.67271e-07)
(0.0457574 3.16379e-06 -4.56777e-06)
(0.077144 9.57411e-06 -4.15129e-07)
(0.0771402 8.4942e-06 1.38808e-06)
(0.0771372 8.13049e-06 5.0458e-06)
(0.0771329 7.79005e-06 6.85757e-06)
(0.0771301 5.65918e-06 2.41101e-08)
(0.0933532 8.12172e-06 5.84141e-06)
(0.0933513 7.28234e-06 8.70413e-06)
(0.0933485 6.61898e-06 1.17983e-05)
(0.0933452 6.00906e-06 1.27811e-05)
(0.0933426 4.82531e-06 8.15489e-06)
(0.0933421 3.32712e-06 -3.08658e-07)
(0.101477 3.70709e-06 1.10139e-05)
(0.101477 2.68288e-06 1.33423e-05)
(0.101475 1.87324e-06 1.48276e-05)
(0.101472 1.20726e-06 1.44995e-05)
(0.10147 1.09613e-06 8.6288e-06)
(0.101469 1.47326e-06 -1.01517e-06)
(0.104878 -1.23814e-06 1.31348e-05)
(0.104878 -2.6515e-06 1.44147e-05)
(0.104877 -3.46476e-06 1.4711e-05)
(0.104875 -4.13038e-06 1.45902e-05)
(0.104873 -2.70523e-06 9.41495e-06)
(0.104873 6.87865e-07 -2.03057e-07)
(0.104952 -4.72955e-06 1.24553e-05)
(0.104952 -7.19274e-06 1.37459e-05)
(0.10495 -8.65219e-06 1.39522e-05)
(0.104948 -9.37487e-06 1.33402e-05)
(0.104945 -6.15052e-06 7.96488e-06)
(0.104945 4.36076e-07 -1.13707e-06)
(0.102484 -5.42671e-06 1.03546e-05)
(0.102483 -9.04742e-06 1.15367e-05)
(0.10248 -1.14055e-05 1.20933e-05)
(0.102476 -1.21594e-05 1.16961e-05)
(0.102472 -7.27542e-06 7.02627e-06)
(0.10247 1.8134e-06 -6.23857e-07)
(0.0977222 -3.94643e-06 8.10828e-06)
(0.0977201 -8.39319e-06 9.18743e-06)
(0.0977161 -1.25783e-05 1.05195e-05)
(0.0977103 -1.39445e-05 1.06136e-05)
(0.0977058 -1.02026e-05 8.23714e-06)
(0.0977014 -2.82199e-06 4.04652e-06)
(0.0977 4.54362e-06 -3.8956e-07)
(0.0902554 -1.68455e-06 6.74747e-06)
(0.0902518 -6.64111e-06 6.95002e-06)
(0.0902468 -1.09087e-05 7.42988e-06)
(0.0902424 -1.18934e-05 7.02856e-06)
(0.0902369 -8.40417e-06 5.48689e-06)
(0.0902354 2.45574e-06 1.02725e-06)
(0.0902359 9.34882e-06 -2.34823e-06)
(0.0771474 4.05206e-07 5.51854e-06)
(0.0771429 -1.82195e-06 4.08473e-06)
(0.0771401 -5.3346e-06 3.33131e-06)
(0.0771352 -7.73577e-06 2.788e-06)
(0.0771291 -5.74624e-06 1.85807e-06)
(0.0771254 6.45559e-07 8.15066e-07)
(0.0771152 6.76682e-06 4.40571e-07)
(0.0491199 -1.46558e-07 2.56066e-06)
(0.0491162 -2.0545e-06 2.09826e-06)
(0.0491084 -3.45724e-06 1.33231e-06)
(0.0490999 -2.56643e-06 3.42346e-07)
(0.0490947 -2.71813e-07 -3.03449e-07)
(0.0490958 2.50775e-06 1.62937e-07)
(0.0602149 7.91223e-06 -1.6959e-06)
(0.0602102 6.48689e-06 6.68492e-08)
(0.0602044 5.85578e-06 2.00626e-06)
(0.060197 5.99598e-06 2.93411e-06)
(0.060191 6.24237e-06 3.80398e-06)
(0.0601839 5.62319e-06 2.10514e-06)
(0.0601776 3.86619e-06 -3.42158e-07)
(0.0902564 1.06393e-05 1.04634e-06)
(0.0902527 1.07333e-05 4.98696e-06)
(0.0902482 1.12869e-05 8.75174e-06)
(0.0902445 1.1169e-05 9.53594e-06)
(0.0902421 7.84356e-06 1.89337e-06)
(0.0902444 1.72296e-06 -1.05826e-05)
(0.103233 9.61496e-06 8.90181e-06)
(0.103233 9.25209e-06 1.08972e-05)
(0.103232 9.4557e-06 1.38895e-05)
(0.103231 9.14191e-06 1.46869e-05)
(0.10323 6.06952e-06 6.78418e-06)
(0.103231 1.34904e-06 -4.50847e-06)
(0.109821 4.64505e-06 1.38042e-05)
(0.109822 4.14689e-06 1.65158e-05)
(0.109823 3.87021e-06 1.8381e-05)
(0.109824 3.41506e-06 1.76531e-05)
(0.109825 2.08451e-06 1.00971e-05)
(0.109826 2.62152e-07 -2.44369e-06)
(0.112802 -6.53914e-07 1.65207e-05)
(0.112803 -2.20156e-06 1.85225e-05)
(0.112804 -2.99199e-06 1.95079e-05)
(0.112807 -2.98489e-06 1.77442e-05)
(0.112809 -1.42622e-06 1.0588e-05)
(0.112811 1.06318e-06 -1.86942e-07)
(0.113236 -4.46825e-06 1.64026e-05)
(0.113237 -7.51842e-06 1.79105e-05)
(0.113239 -9.38052e-06 1.82346e-05)
(0.113242 -9.09056e-06 1.62133e-05)
(0.113244 -4.35034e-06 9.50156e-06)
(0.113246 2.71033e-06 1.86078e-07)
(0.111726 -6.8012e-06 1.39048e-05)
(0.111727 -1.1007e-05 1.50974e-05)
(0.111728 -1.38896e-05 1.54132e-05)
(0.111731 -1.33812e-05 1.38042e-05)
(0.111733 -5.42892e-06 7.62176e-06)
(0.111735 5.27767e-06 9.03461e-08)
(0.108501 -8.35417e-06 1.05726e-05)
(0.108502 -1.26226e-05 1.14206e-05)
(0.108502 -1.65741e-05 1.21934e-05)
(0.108502 -1.62319e-05 1.17013e-05)
(0.108504 -8.61474e-06 7.74262e-06)
(0.108505 4.51368e-06 2.08135e-06)
(0.103232 -8.71611e-06 7.82107e-06)
(0.103232 -1.24045e-05 7.71877e-06)
(0.10323 -1.62008e-05 8.03487e-06)
(0.103228 -1.57313e-05 7.6283e-06)
(0.103228 -9.95981e-06 5.9887e-06)
(0.103227 2.84674e-06 2.46541e-06)
(0.0933558 -6.50708e-06 5.55948e-06)
(0.0933531 -9.71201e-06 4.44246e-06)
(0.0933494 -1.25634e-05 3.48006e-06)
(0.0933453 -1.26054e-05 2.70272e-06)
(0.0933403 -8.01251e-06 2.20958e-06)
(0.0933381 4.0495e-06 1.91205e-06)
(0.0933401 9.03193e-06 2.26594e-06)
(0.0668545 -5.86504e-06 1.22651e-06)
(0.0668494 -5.8262e-06 1.24571e-06)
(0.0668441 -4.97794e-06 7.87235e-07)
(0.066839 -2.74422e-06 -1.45072e-07)
(0.0668351 -8.80854e-07 -8.82583e-07)
(0.066834 -2.36178e-06 7.49757e-08)
(0.0713726 1.04824e-05 3.0606e-06)
(0.0713663 7.981e-06 2.39353e-06)
(0.0713595 6.07717e-06 1.35824e-06)
(0.0713543 5.24717e-06 2.75507e-07)
(0.0713504 5.35155e-06 5.64915e-07)
(0.0713489 5.31097e-06 2.11878e-06)
(0.071344 4.57908e-06 4.63475e-06)
(0.0977228 1.11369e-05 2.60938e-06)
(0.0977204 1.25157e-05 6.98815e-06)
(0.0977167 1.3966e-05 1.05245e-05)
(0.0977118 1.33951e-05 1.04664e-05)
(0.0977082 9.89582e-06 5.10715e-06)
(0.0977064 2.41068e-06 -3.78906e-06)
(0.0977073 -3.8118e-06 -8.68772e-06)
(0.108502 1.10952e-05 9.33983e-06)
(0.108502 1.1994e-05 1.3036e-05)
(0.108502 1.22865e-05 1.58449e-05)
(0.108503 1.03667e-05 1.43364e-05)
(0.108504 5.48541e-06 6.18812e-06)
(0.108504 -3.08757e-07 -4.87521e-06)
(0.114096 6.17093e-06 1.33162e-05)
(0.114098 6.21661e-06 1.57116e-05)
(0.114101 5.97135e-06 1.77175e-05)
(0.114106 4.92097e-06 1.68573e-05)
(0.114109 2.09137e-06 8.65528e-06)
(0.114111 -8.75472e-07 -3.14003e-06)
(0.116819 4.55214e-07 1.41481e-05)
(0.116822 -2.88133e-07 1.57193e-05)
(0.116827 -9.68785e-07 1.77435e-05)
(0.116833 -1.2932e-06 1.62189e-05)
(0.116837 -8.81031e-07 9.73762e-06)
(0.116838 2.02876e-07 3.68487e-07)
(0.117491 -3.8589e-06 1.37504e-05)
(0.117495 -5.66287e-06 1.47551e-05)
(0.1175 -7.31035e-06 1.58811e-05)
(0.117506 -6.65955e-06 1.42338e-05)
(0.11751 -2.63238e-06 8.32178e-06)
(0.117511 2.00662e-06 1.08064e-06)
(0.116533 -7.32508e-06 1.10392e-05)
(0.116536 -9.92144e-06 1.16414e-05)
(0.116542 -1.26119e-05 1.2446e-05)
(0.116548 -1.1158e-05 1.11355e-05)
(0.116552 -3.3659e-06 6.21633e-06)
(0.114094 -1.18876e-05 8.11717e-06)
(0.114096 -1.49379e-05 8.49828e-06)
(0.1141 -1.72542e-05 9.02038e-06)
(0.114105 -1.61672e-05 8.89366e-06)
(0.114109 -8.67134e-06 6.73676e-06)
(0.11411 2.29598e-06 2.80842e-06)
(0.109817 -1.38759e-05 4.75204e-06)
(0.109818 -1.74956e-05 4.46816e-06)
(0.10982 -1.97095e-05 4.67857e-06)
(0.109822 -1.73902e-05 5.05199e-06)
(0.109824 -7.96635e-06 4.45591e-06)
(0.109826 4.64151e-06 2.0593e-06)
(0.101476 -1.18981e-05 2.11897e-06)
(0.101476 -1.42865e-05 8.26408e-07)
(0.101474 -1.60608e-05 -1.33379e-07)
(0.101471 -1.4179e-05 -1.63362e-07)
(0.101469 -5.61146e-06 1.08006e-06)
(0.10147 2.99416e-06 2.43949e-06)
(0.0783085 -1.06331e-05 -2.379e-06)
(0.0783028 -8.48953e-06 -1.97379e-06)
(0.078297 -5.62514e-06 -1.72488e-06)
(0.0782923 -3.27099e-06 -2.10058e-06)
(0.0782882 -3.08326e-06 -2.32414e-06)
(0.0782833 -6.41379e-06 -4.17821e-07)
(0.0791364 1.19906e-05 6.79456e-06)
(0.0791294 8.61861e-06 5.11236e-06)
(0.0791215 5.86061e-06 2.72217e-06)
(0.0791142 4.26913e-06 6.886e-07)
(0.0791088 4.13064e-06 9.88632e-07)
(0.079103 5.11294e-06 3.83239e-06)
(0.102484 1.22433e-05 4.09393e-06)
(0.102483 1.41018e-05 7.94228e-06)
(0.102479 1.47791e-05 9.86845e-06)
(0.102476 1.25083e-05 8.36573e-06)
(0.102472 5.01254e-06 1.59039e-06)
(0.102471 -3.88024e-06 -6.03002e-06)
(0.111724 1.31198e-05 8.10234e-06)
(0.111725 1.44973e-05 1.16088e-05)
(0.111728 1.37045e-05 1.31864e-05)
(0.111732 7.95644e-06 7.70595e-06)
(0.111736 1.15719e-07 -1.35423e-06)
(0.116531 7.79419e-06 9.06113e-06)
(0.116536 8.18557e-06 1.1071e-05)
(0.116542 7.72607e-06 1.27751e-05)
(0.116549 4.54192e-06 9.76192e-06)
(0.116553 5.6231e-08 1.77217e-06)
(0.118975 1.73781e-06 9.12272e-06)
(0.118981 1.63728e-06 1.01605e-05)
(0.118988 1.00282e-06 1.1134e-05)
(0.118994 -3.62359e-07 8.87338e-06)
(0.118999 -1.23684e-06 3.1069e-06)
(0.119702 -3.19123e-06 7.98282e-06)
(0.119708 -3.90612e-06 8.53713e-06)
(0.119714 -4.68139e-06 9.02366e-06)
(0.119721 -4.10101e-06 7.59454e-06)
(0.119725 -1.59488e-06 3.73116e-06)
(0.118974 -7.20381e-06 5.45842e-06)
(0.118979 -8.52576e-06 5.58479e-06)
(0.118986 -9.80284e-06 5.84625e-06)
(0.118993 -8.14748e-06 5.42881e-06)
(0.118997 -2.98196e-06 3.62931e-06)
(0.116814 -1.22181e-05 2.94328e-06)
(0.116818 -1.4043e-05 2.59725e-06)
(0.116825 -1.57306e-05 2.73918e-06)
(0.116831 -1.30657e-05 3.45433e-06)
(0.116835 -4.51726e-06 3.75851e-06)
(0.112794 -1.62406e-05 1.90278e-08)
(0.112797 -1.88608e-05 -1.41937e-06)
(0.112801 -1.89528e-05 -1.32612e-06)
(0.112806 -1.35843e-05 6.79053e-07)
(0.11281 -3.31353e-06 3.01372e-06)
(0.104876 -1.44936e-05 -1.93098e-06)
(0.104876 -1.65314e-05 -3.78664e-06)
(0.104875 -1.7076e-05 -4.59048e-06)
(0.104874 -1.24508e-05 -2.89872e-06)
(0.104874 -2.88157e-06 1.08858e-06)
(0.0833083 -1.27152e-05 -5.98951e-06)
(0.0833023 -1.0141e-05 -4.79852e-06)
(0.0832958 -7.24376e-06 -3.65023e-06)
(0.0832901 -5.39364e-06 -3.32781e-06)
(0.0832844 -5.3056e-06 -2.91539e-06)
(0.0832793 -6.37978e-06 -8.96115e-07)
(0.0832758 1.16963e-05 9.36727e-06)
(0.0832683 7.21538e-06 7.77176e-06)
(0.0832605 3.52271e-06 5.58537e-06)
(0.0832536 2.2595e-06 3.838e-06)
(0.0832478 3.17666e-06 4.46845e-06)
(0.083243 4.50176e-06 7.46964e-06)
(0.104953 1.2871e-05 4.6788e-06)
(0.104953 1.51288e-05 8.0757e-06)
(0.10495 1.48564e-05 9.57531e-06)
(0.104946 1.10516e-05 7.84991e-06)
(0.104944 2.92364e-06 2.80528e-06)
(0.104948 -4.71698e-06 -3.00438e-06)
(0.113232 1.55104e-05 4.6133e-06)
(0.113236 1.72356e-05 6.88114e-06)
(0.113241 1.37467e-05 5.82601e-06)
(0.113247 6.02857e-06 1.6681e-06)
(0.117486 1.03986e-05 2.96178e-06)
(0.117493 1.16741e-05 3.74487e-06)
(0.117501 1.01665e-05 3.6247e-06)
(0.117508 4.66236e-06 9.54791e-07)
(0.119699 4.02697e-06 1.58249e-06)
(0.119707 4.99299e-06 1.56583e-06)
(0.119715 4.02807e-06 1.43076e-06)
(0.119722 1.15121e-06 3.1722e-07)
(0.120399 -1.56333e-06 4.84209e-07)
(0.120405 -1.06356e-06 3.87725e-07)
(0.120412 -1.24673e-06 3.43974e-07)
(0.120419 -1.45546e-06 4.97468e-07)
(0.120423 -7.97634e-07 5.27763e-07)
(0.119699 -6.30557e-06 -1.28139e-06)
(0.119705 -6.64986e-06 -1.77848e-06)
(0.119712 -6.97286e-06 -2.02472e-06)
(0.119718 -5.42612e-06 -9.48399e-07)
(0.119722 -1.8287e-06 9.25295e-07)
(0.117484 -1.14129e-05 -2.63895e-06)
(0.11749 -1.2176e-05 -3.89005e-06)
(0.117496 -1.27811e-05 -4.63598e-06)
(0.117503 -9.93957e-06 -2.62686e-06)
(0.117506 -3.09659e-06 1.7074e-06)
(0.113228 -1.61345e-05 -4.49896e-06)
(0.113231 -1.80626e-05 -7.45233e-06)
(0.113236 -1.73635e-05 -7.96978e-06)
(0.113241 -1.17657e-05 -4.04772e-06)
(0.113244 -2.84341e-06 2.35073e-06)
(0.10495 -1.45868e-05 -4.63331e-06)
(0.10495 -1.65728e-05 -7.63305e-06)
(0.10495 -1.6898e-05 -8.95118e-06)
(0.104948 -1.24688e-05 -5.78895e-06)
(0.104949 -3.1994e-06 1.25322e-06)
(0.0832848 -1.29291e-05 -8.12528e-06)
(0.0832786 -1.03713e-05 -6.2861e-06)
(0.0832716 -7.88614e-06 -4.4687e-06)
(0.0832657 -6.49112e-06 -3.56871e-06)
(0.0832603 -5.94242e-06 -3.14571e-06)
(0.0833045 1.5336e-05 6.45757e-06)
(0.0832975 9.74997e-06 8.09828e-06)
(0.0832915 4.31317e-06 7.58873e-06)
(0.0832849 1.09186e-06 6.51149e-06)
(0.0832805 5.83e-07 5.73798e-06)
(0.0832755 1.56413e-06 5.72625e-06)
(0.104882 1.79359e-05 3.4596e-06)
(0.104882 1.75949e-05 5.24969e-06)
(0.104881 1.66867e-05 6.35242e-06)
(0.104878 1.5382e-05 7.16108e-06)
(0.104876 9.26792e-06 5.7014e-06)
(0.104875 -5.46964e-07 1.47497e-06)
(0.112796 1.94267e-05 1.66609e-06)
(0.112799 2.14004e-05 1.77799e-06)
(0.112802 2.18447e-05 1.87119e-06)
(0.112807 1.91619e-05 1.51392e-06)
(0.11281 1.01184e-05 -3.16315e-07)
(0.112814 -1.14907e-06 -2.38417e-06)
(0.116809 1.34752e-05 -1.51706e-06)
(0.116814 1.55869e-05 -2.43554e-06)
(0.116821 1.80602e-05 -2.78696e-06)
(0.116828 1.69403e-05 -2.93181e-06)
(0.116834 1.03503e-05 -3.06278e-06)
(0.116837 1.52741e-06 -2.77348e-06)
(0.118965 6.3093e-06 -4.93456e-06)
(0.118972 9.52544e-06 -5.31626e-06)
(0.118979 1.175e-05 -5.64809e-06)
(0.118987 1.09079e-05 -5.427e-06)
(0.118993 6.93594e-06 -4.36055e-06)
(0.118996 1.48264e-06 -2.4321e-06)
(0.119699 1.37679e-06 -6.1627e-06)
(0.119705 3.38835e-06 -6.60916e-06)
(0.119712 3.9069e-06 -6.85446e-06)
(0.119719 2.58747e-06 -5.07278e-06)
(0.119722 4.28927e-07 -1.67172e-06)
(0.118972 -4.05589e-06 -7.72229e-06)
(0.118978 -3.38236e-06 -8.53183e-06)
(0.118985 -3.08915e-06 -8.93824e-06)
(0.118991 -2.31037e-06 -6.06747e-06)
(0.118994 -8.42344e-07 -7.58796e-07)
(0.116529 -9.30473e-06 -7.95767e-06)
(0.116534 -9.7047e-06 -1.03406e-05)
(0.11654 -9.79058e-06 -1.17329e-05)
(0.116546 -7.2324e-06 -7.85971e-06)
(0.116549 -2.22552e-06 4.08248e-07)
(0.111722 -1.41358e-05 -8.06141e-06)
(0.111724 -1.55705e-05 -1.23091e-05)
(0.111728 -1.4932e-05 -1.36687e-05)
(0.111731 -1.01052e-05 -8.3205e-06)
(0.111735 -2.57003e-06 1.92476e-06)
(0.102483 -1.2938e-05 -5.36944e-06)
(0.102482 -1.48694e-05 -9.75182e-06)
(0.10248 -1.55796e-05 -1.21889e-05)
(0.102478 -1.16019e-05 -7.98957e-06)
(0.102477 -3.00601e-06 1.70265e-06)
(0.0791423 -1.20159e-05 -8.22793e-06)
(0.0791354 -9.50307e-06 -6.16871e-06)
(0.0791279 -7.18633e-06 -4.15618e-06)
(0.0791222 -5.90769e-06 -3.41386e-06)
(0.0791167 -5.17219e-06 -3.29117e-06)
(0.0783018 1.34111e-05 2.19987e-06)
(0.0782958 8.34572e-06 3.21271e-06)
(0.0782908 3.00076e-06 3.89817e-06)
(0.0782873 -5.69405e-07 4.28408e-06)
(0.0782845 -1.15224e-06 4.71366e-06)
(0.0782819 -5.18176e-07 4.77693e-06)
(0.101485 1.6066e-05 -1.78096e-06)
(0.101484 1.68569e-05 6.22915e-08)
(0.101482 1.72112e-05 1.54655e-06)
(0.101478 1.58173e-05 2.3742e-06)
(0.101475 8.57557e-06 2.22858e-06)
(0.101474 -2.00623e-06 1.27086e-06)
(0.109821 1.7008e-05 -4.44685e-06)
(0.109823 2.01835e-05 -4.07018e-06)
(0.109824 2.22361e-05 -3.98719e-06)
(0.109825 2.09127e-05 -3.74966e-06)
(0.109826 1.31818e-05 -2.86001e-06)
(0.109827 -1.35542e-07 -1.58941e-06)
(0.114091 1.38545e-05 -8.27393e-06)
(0.114095 1.73105e-05 -8.4806e-06)
(0.114099 2.03558e-05 -8.64336e-06)
(0.114104 1.98523e-05 -7.99178e-06)
(0.114108 1.29462e-05 -5.60347e-06)
(0.114109 1.48464e-06 -2.23411e-06)
(0.116524 8.24564e-06 -1.20657e-05)
(0.116529 1.22421e-05 -1.14883e-05)
(0.116535 1.55584e-05 -1.15666e-05)
(0.116542 1.52155e-05 -1.05473e-05)
(0.116546 9.15329e-06 -6.8647e-06)
(0.116549 3.81397e-07 -1.91019e-06)
(0.117485 3.7339e-06 -1.13339e-05)
(0.117491 6.86944e-06 -1.21494e-05)
(0.117498 7.97804e-06 -1.22473e-05)
(0.117504 5.14105e-06 -8.09564e-06)
(0.117507 3.5684e-07 -1.56083e-06)
(0.116814 -1.58357e-06 -1.27602e-05)
(0.116819 -2.58313e-07 -1.399e-05)
(0.116826 4.06747e-07 -1.45655e-05)
(0.116831 3.13735e-07 -1.00417e-05)
(0.116834 -1.19361e-07 -1.12593e-06)
(0.114093 -6.94049e-06 -1.31113e-05)
(0.114096 -7.02314e-06 -1.58744e-05)
(0.114102 -6.61189e-06 -1.62994e-05)
(0.114107 -4.48636e-06 -1.01812e-05)
(0.11411 -1.16147e-06 8.10055e-07)
(0.108499 -1.1313e-05 -1.00131e-05)
(0.108501 -1.22816e-05 -1.45289e-05)
(0.108502 -1.24308e-05 -1.71013e-05)
(0.108503 -8.81436e-06 -1.10933e-05)
(0.108505 -2.18804e-06 2.5618e-06)
(0.0977212 -1.07941e-05 -3.92581e-06)
(0.097719 -1.26448e-05 -9.35251e-06)
(0.0977145 -1.35117e-05 -1.28506e-05)
(0.097711 -9.95923e-06 -7.84384e-06)
(0.0977093 -2.448e-06 3.55565e-06)
(0.071379 -9.99792e-06 -4.58153e-06)
(0.071372 -7.80309e-06 -3.71579e-06)
(0.0713647 -6.03138e-06 -3.10561e-06)
(0.0713594 -5.21155e-06 -2.89988e-06)
(0.0713534 -4.39377e-06 -2.39057e-06)
(0.0668501 9.09161e-06 -2.41689e-06)
(0.066844 6.09313e-06 -1.31589e-06)
(0.0668395 2.98848e-06 2.04661e-07)
(0.0668356 -2.1843e-08 1.73337e-06)
(0.0668341 -2.36838e-06 2.98419e-06)
(0.0668332 -2.61639e-06 3.43506e-06)
(0.0933643 8.48101e-06 -6.75454e-06)
(0.0933614 1.17206e-05 -4.92259e-06)
(0.0933572 1.4135e-05 -3.23841e-06)
(0.0933527 1.45328e-05 -1.87226e-06)
(0.0933478 8.84561e-06 -6.684e-07)
(0.0933455 -2.30467e-06 7.62794e-07)
(0.103239 1.02616e-05 -9.13516e-06)
(0.10324 1.42977e-05 -8.61632e-06)
(0.103238 1.86432e-05 -8.5359e-06)
(0.103235 1.96231e-05 -7.77525e-06)
(0.103233 1.31692e-05 -5.09252e-06)
(0.103232 -4.80651e-07 -8.66913e-07)
(0.108503 1.05346e-05 -1.27022e-05)
(0.108505 1.53787e-05 -1.31538e-05)
(0.108506 1.97556e-05 -1.32417e-05)
(0.108506 1.9818e-05 -1.19187e-05)
(0.108506 1.19709e-05 -7.24019e-06)
(0.108506 -1.555e-06 -6.74704e-07)
(0.111723 9.19468e-06 -1.6781e-05)
(0.111724 1.40876e-05 -1.67438e-05)
(0.111726 1.66102e-05 -1.6034e-05)
(0.111729 1.59834e-05 -1.4131e-05)
(0.111731 8.70941e-06 -8.51894e-06)
(0.111732 -2.12284e-06 -7.33872e-07)
(0.113232 5.24162e-06 -1.48096e-05)
(0.113235 9.63873e-06 -1.6743e-05)
(0.113239 1.05147e-05 -1.60063e-05)
(0.113242 6.38127e-06 -1.0276e-05)
(0.113243 -4.79527e-07 -1.20989e-06)
(0.112796 6.15127e-07 -1.62128e-05)
(0.112799 2.69359e-06 -1.79134e-05)
(0.112803 3.24733e-06 -1.74324e-05)
(0.112806 1.88309e-06 -1.12549e-05)
(0.112809 -4.3497e-07 -4.13417e-07)
(0.109816 -4.45301e-06 -1.4729e-05)
(0.109817 -3.96315e-06 -1.78345e-05)
(0.10982 -3.66874e-06 -1.89478e-05)
(0.109821 -2.77392e-06 -1.26375e-05)
(0.109823 -1.19006e-06 8.90656e-07)
(0.103229 -9.01596e-06 -9.70733e-06)
(0.103229 -9.08442e-06 -1.39547e-05)
(0.103227 -9.16819e-06 -1.72473e-05)
(0.103227 -7.46516e-06 -1.3288e-05)
(0.103226 -2.91335e-06 8.00703e-07)
(0.0902552 -9.65723e-06 -1.49158e-06)
(0.0902514 -1.0228e-05 -7.24418e-06)
(0.0902461 -1.05743e-05 -1.13238e-05)
(0.0902428 -8.01824e-06 -7.13831e-06)
(0.0902414 -2.87764e-06 3.70606e-06)
(0.0602232 -7.11781e-06 9.13048e-07)
(0.0602177 -5.81684e-06 -1.46529e-06)
(0.0602121 -5.14208e-06 -3.39213e-06)
(0.0602054 -4.7252e-06 -3.06728e-06)
(0.0601999 -3.48367e-06 -5.17856e-07)
(0.0491167 1.6276e-06 -3.94852e-06)
(0.0491118 2.45522e-06 -2.73661e-06)
(0.0491057 2.9429e-06 -1.23051e-06)
(0.0490983 1.58882e-06 2.24187e-07)
(0.0490968 -1.3516e-06 1.26266e-06)
(0.0490994 -2.98051e-06 2.12215e-06)
(0.0771553 -4.1627e-08 -7.48873e-06)
(0.0771504 3.67408e-06 -5.92507e-06)
(0.0771462 8.04821e-06 -4.81168e-06)
(0.0771405 1.11835e-05 -4.01474e-06)
(0.0771334 8.1807e-06 -2.60376e-06)
(0.077127 -7.30142e-07 2.15834e-07)
(0.0902687 3.83018e-06 -9.5605e-06)
(0.0902638 8.35657e-06 -9.26512e-06)
(0.0902582 1.24617e-05 -9.2773e-06)
(0.0902526 1.24757e-05 -8.01143e-06)
(0.0902477 5.63031e-06 -4.24349e-06)
(0.0902455 -3.0379e-06 -5.56801e-08)
(0.0977311 6.59384e-06 -1.15525e-05)
(0.0977287 1.07537e-05 -1.23855e-05)
(0.0977245 1.40688e-05 -1.29855e-05)
(0.0977193 1.32676e-05 -1.12427e-05)
(0.0977166 5.74384e-06 -5.98425e-06)
(0.0977155 -4.12838e-06 6.31351e-07)
(0.102488 8.61037e-06 -1.44646e-05)
(0.102487 1.0785e-05 -1.51982e-05)
(0.102485 1.1806e-05 -1.49812e-05)
(0.102481 1.1554e-05 -1.34848e-05)
(0.102478 6.18982e-06 -8.46847e-06)
(0.102477 -2.90641e-06 1.26596e-07)
(0.104953 4.27601e-06 -1.20914e-05)
(0.104953 7.55698e-06 -1.50233e-05)
(0.104951 8.84548e-06 -1.55339e-05)
(0.104948 5.63302e-06 -1.07644e-05)
(0.104948 -1.10908e-06 -1.12639e-06)
(0.104876 2.19821e-06 -1.29368e-05)
(0.104876 3.50574e-06 -1.49142e-05)
(0.104876 4.0211e-06 -1.54312e-05)
(0.104874 2.41858e-06 -1.06817e-05)
(0.104874 -1.3151e-06 -7.25165e-07)
(0.101474 -2.47741e-06 -1.20743e-05)
(0.101474 -1.45678e-06 -1.43466e-05)
(0.101472 -8.52692e-07 -1.54247e-05)
(0.10147 -1.06621e-06 -1.03506e-05)
(0.10147 -2.00185e-06 1.71498e-07)
(0.0933525 -7.02215e-06 -6.98549e-06)
(0.0933504 -6.17665e-06 -1.09765e-05)
(0.0933468 -5.49518e-06 -1.33885e-05)
(0.0933446 -4.55473e-06 -8.607e-06)
(0.0933444 -3.28877e-06 1.16879e-06)
(0.0771492 -8.29367e-06 5.31473e-07)
(0.0771455 -7.03658e-06 -1.66239e-06)
(0.0771431 -6.61792e-06 -5.64022e-06)
(0.0771389 -5.66262e-06 -4.57888e-06)
(0.0771343 -3.62846e-06 2.5912e-06)
(0.0458028 -4.72709e-06 3.38784e-06)
(0.0457994 -4.21064e-06 5.16357e-07)
(0.0457908 -3.93363e-06 -1.67399e-06)
(0.0457817 -3.27507e-06 -6.49916e-07)
(0.0457775 -2.04303e-06 2.37193e-06)
(0.0300969 -4.38308e-07 -2.10313e-06)
(0.0300951 3.20317e-07 -1.41789e-06)
(0.0300886 7.9485e-07 -7.32748e-07)
(0.0300796 7.52979e-07 -2.08472e-07)
(0.0300752 9.15102e-08 1.44571e-07)
(0.0300782 -5.66937e-07 7.56726e-07)
(0.045796 -1.79223e-06 -3.29171e-06)
(0.0457924 2.38656e-07 -2.58434e-06)
(0.0457861 2.11281e-06 -2.24129e-06)
(0.0457771 1.99294e-06 -1.96422e-06)
(0.0457736 2.66606e-07 -1.26927e-06)
(0.0457754 -1.30903e-06 3.81328e-08)
(0.0602223 2.52952e-06 -5.63664e-06)
(0.060216 2.22253e-06 -3.91723e-06)
(0.0602101 2.14306e-06 -3.23617e-06)
(0.0602034 1.18595e-06 -3.18029e-06)
(0.071383 8.14208e-06 -8.69137e-06)
(0.0713752 4.8351e-06 -6.20574e-06)
(0.0713683 1.99163e-06 -4.45352e-06)
(0.0713627 1.20607e-06 -3.86031e-06)
(0.0713566 1.25213e-06 -3.58312e-06)
(0.079147 1.23937e-05 -1.09818e-05)
(0.0791402 6.28264e-06 -8.99363e-06)
(0.0791341 1.49251e-06 -6.47705e-06)
(0.079128 7.23486e-07 -4.55157e-06)
(0.0791234 1.42836e-06 -3.57402e-06)
(0.0832778 7.8433e-06 -1.06403e-05)
(0.0832721 2.92625e-06 -8.32885e-06)
(0.0832663 5.06701e-07 -5.59443e-06)
(0.0832624 5.89314e-07 -4.01052e-06)
(0.0832594 9.57005e-07 -3.23856e-06)
(0.0833034 7.06452e-06 -1.05043e-05)
(0.0832988 3.6853e-06 -8.52167e-06)
(0.0832933 1.09105e-06 -6.13033e-06)
(0.0832892 7.39859e-08 -4.73959e-06)
(0.0832857 -5.42833e-08 -4.14989e-06)
(0.0783066 2.35895e-06 -9.64414e-06)
(0.0783023 1.05397e-06 -7.96094e-06)
(0.0782973 -1.86555e-07 -5.84972e-06)
(0.0782939 -7.05144e-07 -4.60386e-06)
(0.0782902 -7.89569e-07 -3.94633e-06)
(0.0668556 -2.13604e-06 -5.59723e-06)
(0.0668514 -2.5895e-06 -6.19629e-06)
(0.0668471 -2.59503e-06 -6.06054e-06)
(0.0668427 -2.14555e-06 -4.84123e-06)
(0.0668386 -1.84976e-06 -2.97156e-06)
(0.0491249 -4.30119e-06 -9.56042e-07)
(0.0491208 -4.1179e-06 -3.50018e-06)
(0.0491125 -3.67227e-06 -4.82685e-06)
(0.0491047 -2.9741e-06 -3.32325e-06)
(0.0491011 -2.44265e-06 -2.7344e-07)
(0.0300974 -2.81275e-06 5.80694e-07)
(0.0300971 -2.4351e-06 -1.36149e-07)
(0.0300907 -2.14101e-06 -4.60246e-07)
(0.0300831 -1.77229e-06 -1.3758e-07)
(0.030082 -1.4112e-06 7.61549e-07)
)
;

boundaryField
{
    inlet
    {
        type            fixedValue;
        value           nonuniform List<vector> 0();
    }
    ami1
    {
        type            cyclicAMI;
        value           nonuniform List<vector> 0();
    }
    walls
    {
        type            noSlip;
    }
    ami2
    {
        type            cyclicAMI;
        value           nonuniform List<vector> 0();
    }
    outlet
    {
        type            zeroGradient;
    }
    procBoundary5to6
    {
        type            processor;
        value           nonuniform List<vector> 
177
(
(0.0300714 2.02428e-06 -1.03256e-06)
(0.0300714 2.02428e-06 -1.03256e-06)
(0.0490802 3.25343e-06 9.61447e-07)
(0.0668262 2.38626e-06 2.59484e-06)
(0.0668262 2.38626e-06 2.59484e-06)
(0.0668262 2.38626e-06 2.59484e-06)
(0.0782752 7.03482e-08 8.48768e-07)
(0.0832725 -1.36502e-06 1.04692e-06)
(0.0832725 -1.36502e-06 1.04692e-06)
(0.0832473 -1.72529e-06 -5.24386e-07)
(0.104946 2.44759e-06 -2.80386e-06)
(0.079103 -3.97633e-06 2.10889e-07)
(0.102471 3.39975e-06 -1.07284e-06)
(0.0713436 -6.2153e-06 1.73372e-06)
(0.0601775 -4.54796e-06 1.66187e-06)
(0.0457704 2.95951e-06 -7.02977e-07)
(0.0457704 2.95951e-06 -7.02977e-07)
(0.0457704 2.95951e-06 -7.02977e-07)
(0.0300812 8.9807e-07 6.3423e-07)
(0.0457665 1.68993e-06 -4.35662e-06)
(0.0771299 3.98352e-06 -4.66098e-06)
(0.0457665 1.68993e-06 -4.35662e-06)
(0.0771299 3.98352e-06 -4.66098e-06)
(0.0771299 3.98352e-06 -4.66098e-06)
(0.0771299 3.98352e-06 -4.66098e-06)
(0.0933403 2.24716e-06 -3.56145e-06)
(0.101471 1.27171e-06 -3.56181e-06)
(0.104874 1.54849e-06 -3.04587e-06)
(0.104946 2.44759e-06 -2.80386e-06)
(0.102471 3.39975e-06 -1.07284e-06)
(0.102471 3.39975e-06 -1.07284e-06)
(0.0977051 4.63446e-06 -8.3163e-07)
(0.108506 8.00695e-06 3.6713e-07)
(0.0902403 3.52825e-06 -2.37782e-07)
(0.10323 8.82421e-06 2.83431e-07)
(0.0771137 5.21153e-06 1.58251e-06)
(0.0490987 1.04405e-06 2.01068e-06)
(0.0490987 1.04405e-06 2.01068e-06)
(0.0601796 9.98438e-07 -1.20406e-06)
(0.0902446 -7.27791e-07 -8.09907e-06)
(0.0902446 -7.27791e-07 -8.09907e-06)
(0.0902446 -7.27791e-07 -8.09907e-06)
(0.103232 -1.47196e-07 -4.09707e-06)
(0.109827 -3.99973e-07 -4.84011e-06)
(0.112811 1.66692e-06 -3.05652e-06)
(0.113246 4.36629e-06 -1.71908e-06)
(0.111736 5.72005e-06 -2.25469e-07)
(0.116554 3.05731e-06 1.62632e-06)
(0.108506 8.00695e-06 3.6713e-07)
(0.10323 8.82421e-06 2.83431e-07)
(0.10323 8.82421e-06 2.83431e-07)
(0.0933468 6.11985e-08 3.37091e-06)
(0.0668252 -7.79261e-06 2.75598e-06)
(0.101475 1.70587e-06 2.42262e-06)
(0.0668252 -7.79261e-06 2.75598e-06)
(0.0713384 2.39898e-06 5.02209e-06)
(0.0790971 4.38314e-06 7.92762e-06)
(0.0977115 -2.58939e-06 -3.59606e-06)
(0.108506 -1.86205e-06 -6.12773e-06)
(0.102477 -3.32536e-06 -3.32836e-06)
(0.108506 -1.86205e-06 -6.12773e-06)
(0.111738 -6.95801e-07 -2.95554e-06)
(0.114111 -1.11855e-06 -6.15786e-06)
(0.116555 -1.27847e-06 -4.25622e-06)
(0.116837 1.10669e-06 -4.40812e-06)
(0.119 -2.17017e-07 -1.72868e-06)
(0.117511 3.38435e-06 -2.23058e-06)
(0.116554 3.05731e-06 1.62632e-06)
(0.119727 8.89273e-07 -1.17166e-07)
(0.116554 3.05731e-06 1.62632e-06)
(0.116554 3.05731e-06 1.62632e-06)
(0.114111 6.48026e-06 -1.54685e-07)
(0.116836 2.29334e-06 1.99624e-06)
(0.109829 6.03163e-06 -4.203e-07)
(0.112811 1.36452e-06 1.84831e-06)
(0.101475 1.70587e-06 2.42262e-06)
(0.104876 -1.40705e-07 2.07925e-06)
(0.0782786 -9.93141e-06 3.19215e-06)
(0.0790971 4.38314e-06 7.92762e-06)
(0.102477 -3.32536e-06 -3.32836e-06)
(0.111738 -6.95801e-07 -2.95554e-06)
(0.111738 -6.95801e-07 -2.95554e-06)
(0.113251 2.11525e-06 -1.1011e-07)
(0.116555 -1.27847e-06 -4.25622e-06)
(0.117513 5.99253e-07 -1.2711e-06)
(0.119 -2.17017e-07 -1.72868e-06)
(0.119726 -6.03243e-08 -4.00436e-07)
(0.119727 8.89273e-07 -1.17166e-07)
(0.118999 1.12544e-06 1.07394e-06)
(0.116836 2.29334e-06 1.99624e-06)
(0.112811 1.36452e-06 1.84831e-06)
(0.104876 -1.40705e-07 2.07925e-06)
(0.104876 -1.40705e-07 2.07925e-06)
(0.0832808 -5.7668e-06 2.59559e-06)
(0.0832556 -4.99896e-06 -1.60708e-06)
(0.0832381 3.44039e-06 8.70126e-06)
(0.083271 1.88241e-06 6.36678e-06)
(0.113251 2.11525e-06 -1.1011e-07)
(0.104953 -2.62593e-06 -2.61392e-06)
(0.113252 2.86643e-06 -1.20361e-07)
(0.104877 -3.0148e-06 -9.72473e-07)
(0.113251 2.11525e-06 -1.1011e-07)
(0.113251 2.11525e-06 -1.1011e-07)
(0.117513 5.99253e-07 -1.2711e-06)
(0.117513 5.99253e-07 -1.2711e-06)
(0.119726 -6.03243e-08 -4.00436e-07)
(0.119726 -6.03243e-08 -4.00436e-07)
(0.119726 -6.03243e-08 -4.00436e-07)
(0.120423 5.50805e-07 -1.55613e-07)
(0.119723 7.65921e-07 1.22349e-06)
(0.117507 1.28077e-06 2.88464e-06)