/*--------------------------------*- C++ -*----------------------------------*\
| =========                 |                                                 |
| \\      /  F ield         | OpenFOAM: The Open Source CFD Toolbox           |
|  \\    /   O peration     | Version:  2212                                  |
|   \\  /    A nd           | Website:  www.openfoam.com                      |
|    \\/     M anipulation  |                                                 |
\*---------------------------------------------------------------------------*/
FoamFile
{
    version     2.0;
    format      ascii;
    arch        "LSB;label=32;scalar=64";
    class       volScalarField;
    location    "1.2";
    object      p;
}
// * * * * * * * * * * * * * * * * * * * * * * * * * * * * * * * * * * * * * //

dimensions      [0 2 -2 0 0 0 0];

internalField   nonuniform List<scalar> 
680
(
0.00703463
0.0068735
0.00671411
0.00655655
0.00640062
0.00624508
0.00608888
0.00708248
0.00690793
0.00674038
0.00657726
0.00641668
0.00625672
0.00609619
0.00707268
0.00689395
0.0067249
0.00656051
0.00639843
0.00623785
0.00607785
0.00703678
0.0068686
0.00671059
0.00655399
0.00639719
0.00624063
0.0060844
0.00701863
0.00684762
0.00669051
0.00653997
0.00638901
0.00623667
0.00608451
0.00701903
0.00684829
0.00669161
0.00654178
0.00639201
0.00624161
0.00609253
0.00703774
0.00687021
0.00671325
0.00655835
0.00640431
0.00625219
0.00707365
0.00689554
0.00672756
0.00656497
0.00640575
0.00624978
0.00708297
0.00690877
0.0067418
0.00657959
0.00642054
0.00626336
0.00703463
0.00687351
0.00671412
0.00655656
0.00640063
0.00624509
0.00708297
0.00690877
0.0067418
0.00657959
0.00642054
0.00626336
0.00610785
0.00721335
0.00700885
0.0068206
0.00664309
0.00647255
0.00630588
0.00614147
0.0072091
0.00699632
0.00680144
0.00661766
0.00644154
0.00627088
0.00610351
0.00717421
0.00697092
0.00678387
0.00660605
0.00643428
0.00626714
0.00610311
0.00715204
0.00695121
0.00676377
0.0065872
0.00641809
0.00625481
0.00609566
0.0071526
0.00695205
0.00676516
0.00658955
0.00642201
0.00626108
0.0061053
0.0071752
0.00697258
0.00678683
0.00661123
0.00644267
0.00627969
0.00720988
0.00699767
0.00680367
0.00662117
0.00644703
0.00627959
0.00721336
0.00700886
0.0068206
0.0066431
0.00647256
0.0063059
0.00708249
0.00690794
0.00674039
0.00657727
0.0064167
0.00625674
0.00707365
0.00689554
0.00672756
0.00656497
0.00640575
0.00624977
0.00609734
0.00720988
0.00699767
0.00680367
0.00662116
0.00644702
0.00627958
0.00611752
0.00718754
0.00696978
0.00676969
0.00658233
0.00640455
0.00623374
0.0060679
0.00713064
0.00692951
0.00673702
0.00655431
0.00637951
0.00621064
0.00604623
0.00708956
0.0069034
0.00671992
0.00654068
0.00636663
0.00619817
0.00603485
0.00709
0.00690405
0.00672091
0.00654217
0.00636884
0.00620133
0.00603957
0.00713124
0.00693042
0.00673848
0.00655667
0.00638318
0.00621608
0.00718754
0.00696978
0.0067697
0.00658234
0.00640456
0.00623375
0.00720911
0.00699633
0.00680146
0.00661767
0.00644156
0.00627089
0.00707269
0.00689396
0.00672491
0.00656052
0.00639844
0.00623787
0.00703774
0.00687021
0.00671325
0.00655835
0.00640431
0.00625218
0.00610319
0.0071752
0.00697258
0.00678682
0.00661122
0.00644266
0.00627968
0.00612183
0.00713124
0.00693042
0.00673848
0.00655667
0.00638317
0.00621607
0.00605429
0.00705382
0.0068699
0.00668961
0.00651457
0.00634465
0.00617923
0.00601771
0.00701269
0.00683853
0.00666493
0.00649374
0.00632582
0.00616146
0.00600054
0.00701286
0.00683876
0.00666526
0.00649419
0.00632646
0.00616239
0.00600199
0.00705382
0.0068699
0.00668961
0.00651458
0.00634466
0.00617924
0.00713065
0.00692952
0.00673703
0.00655432
0.00637953
0.00621066
0.00717422
0.00697093
0.00678388
0.00660606
0.0064343
0.00626716
0.00703679
0.00686861
0.00671061
0.006554
0.00639721
0.00624064
0.00701903
0.00684829
0.00669161
0.00654178
0.00639201
0.0062416
0.00609252
0.00715261
0.00695205
0.00676516
0.00658955
0.006422
0.00626108
0.00610529
0.00709
0.00690405
0.00672092
0.00654217
0.00636884
0.00620133
0.00603957
0.00701286
0.00683876
0.00666526
0.0064942
0.00632646
0.00616239
0.00600199
0.00697374
0.00680723
0.00663888
0.00647107
0.00630521
0.00614206
0.00598194
0.00697374
0.00680723
0.00663888
0.00647107
0.00630521
0.00614206
0.00598194
0.00701269
0.00683853
0.00666494
0.00649375
0.00632583
0.00616147
0.00708957
0.00690341
0.00671994
0.00654069
0.00636664
0.00619819
0.00715205
0.00695122
0.00676379
0.00658721
0.00641811
0.00625483
0.00701864
0.00684763
0.00669052
0.00653998
0.00638903
0.00623669
0.00701864
0.00684762
0.00669051
0.00653997
0.00638901
0.00623667
0.00608451
0.00715205
0.00695121
0.00676378
0.0065872
0.0064181
0.00625481
0.00609566
0.00708956
0.0069034
0.00671993
0.00654068
0.00636664
0.00619817
0.00603485
0.00701269
0.00683853
0.00666494
0.00649375
0.00632583
0.00616146
0.00600055
0.00697374
0.00680723
0.00663889
0.00647107
0.00630521
0.00614206
0.00598194
0.00697375
0.00680724
0.00663889
0.00647107
0.00630521
0.00614207
0.00598195
0.00701287
0.00683877
0.00666527
0.0064942
0.00632647
0.0061624
0.00709001
0.00690406
0.00672093
0.00654219
0.00636885
0.00620135
0.00715261
0.00695206
0.00676517
0.00658956
0.00642202
0.0062611
0.00701904
0.0068483
0.00669162
0.0065418
0.00639203
0.00624162
0.00703679
0.00686861
0.0067106
0.006554
0.0063972
0.00624063
0.00608441
0.00717422
0.00697093
0.00678388
0.00660606
0.00643429
0.00626715
0.00610312
0.00713066
0.00692952
0.00673704
0.00655432
0.00637953
0.00621066
0.00604625
0.00705383
0.00686991
0.00668962
0.00651459
0.00634467
0.00617925
0.00601773
0.00701287
0.00683877
0.00666527
0.00649421
0.00632647
0.0061624
0.006002
0.00718413
0.0070127
0.00683854
0.00666495
0.00649376
0.00632584
0.00616147
0.00600056
0.00723826
0.00705383
0.00686991
0.00668962
0.00651459
0.00634467
0.00617925
0.00733796
0.00713125
0.00693043
0.00673849
0.00655668
0.00638319
0.0062161
0.00740134
0.00717521
0.0069726
0.00678684
0.00661124
0.00644268
0.0062797
0.00722636
0.00703775
0.00687022
0.00671326
0.00655837
0.00640433
0.0062522
0.0070727
0.00689397
0.00672491
0.00656052
0.00639844
0.00623787
0.00607787
0.00720912
0.00699633
0.00680146
0.00661767
0.00644156
0.0062709
0.00610353
0.00718755
0.00696979
0.00676971
0.00658234
0.00640457
0.00623376
0.00606793
0.00713125
0.00693043
0.00673849
0.00655669
0.00638319
0.0062161
0.00605432
0.00709002
0.00690406
0.00672093
0.00654219
0.00636886
0.00620135
0.00603959
0.00727759
0.00708957
0.00690341
0.00671994
0.0065407
0.00636665
0.00619819
0.00603487
0.00733756
0.00713066
0.00692952
0.00673704
0.00655433
0.00637954
0.00621066
0.00742908
0.00718755
0.00696979
0.00676971
0.00658234
0.00640457
0.00623376
0.00745011
0.00720989
0.00699768
0.00680368
0.00662118
0.00644704
0.0062796
0.00726637
0.00707366
0.00689556
0.00672758
0.00656498
0.00640577
0.00624979
0.00708249
0.00690795
0.00674039
0.00657728
0.0064167
0.00625674
0.00609622
0.00721337
0.00700887
0.00682061
0.00664311
0.00647257
0.00630591
0.0061415
0.0072099
0.00699769
0.00680369
0.00662118
0.00644705
0.00627961
0.00611755
0.00717521
0.0069726
0.00678684
0.00661125
0.00644269
0.00627971
0.00612187
0.00715262
0.00695206
0.00676518
0.00658957
0.00642203
0.00626111
0.00610532
0.00736527
0.00715206
0.00695122
0.00676379
0.00658722
0.00641812
0.00625484
0.00609569
0.00740072
0.00717422
0.00697093
0.00678389
0.00660606
0.0064343
0.00626716
0.00744967
0.00720912
0.00699633
0.00680146
0.00661767
0.00644156
0.0062709
0.00744097
0.00721337
0.00700887
0.00682061
0.00664311
0.00647257
0.00630591
0.00726907
0.00708298
0.00690878
0.00674181
0.00657961
0.00642056
0.00626338
0.00703464
0.00687352
0.00671413
0.00655657
0.00640064
0.0062451
0.0060889
0.00708298
0.00690879
0.00674181
0.00657961
0.00642056
0.00626338
0.00610787
0.00707366
0.00689556
0.00672758
0.00656499
0.00640577
0.0062498
0.00609737
0.00703776
0.00687023
0.00671327
0.00655837
0.00640433
0.00625221
0.00610322
0.00701905
0.0068483
0.00669163
0.0065418
0.00639203
0.00624163
0.00609255
0.00720944
0.00701865
0.00684763
0.00669052
0.00653999
0.00638903
0.0062367
0.00608454
0.00722582
0.0070368
0.00686861
0.00671061
0.006554
0.00639721
0.00624065
0.0072658
0.00707269
0.00689396
0.00672491
0.00656052
0.00639845
0.00623787
0.00726879
0.00708249
0.00690795
0.00674039
0.00657728
0.0064167
0.00625674
0.00720104
0.00703464
0.00687351
0.00671412
0.00655657
0.00640063
0.00624509
)
;

boundaryField
{
    inlet
    {
        type            zeroGradient;
    }
    ami1
    {
        type            cyclicAMI;
        value           nonuniform List<scalar> 0();
    }
    walls
    {
        type            zeroGradient;
    }
    ami2
    {
        type            cyclicAMI;
        value           nonuniform List<scalar> 0();
    }
    outlet
    {
        type            fixedValue;
        value           nonuniform List<scalar> 0();
    }
    procBoundary3to2
    {
        type            processor;
        value           nonuniform List<scalar> 
110
(
0.00593212
0.0059348
0.00591669
0.00592801
0.00593386
0.0059468
0.00610319
0.00610319
0.00609734
0.00610785
0.00608889
0.00595486
0.00597866
0.00593748
0.00594074
0.00593941
0.00595379
0.00612185
0.00612185
0.00611754
0.00614149
0.00609622
0.00594887
0.00595991
0.00590579
0.00588522
0.00587632
0.00588349
0.00605431
0.00605431
0.00606792
0.00610353
0.00607788
0.0059589
0.00596978
0.00589724
0.00585949
0.0058428
0.00584502
0.00601772
0.00601772
0.00604625
0.00610313
0.00608442
0.00594678
0.00595378
0.00588348
0.00584502
0.00582484
0.00582484
0.00600055
0.00600055
0.00603487
0.00609568
0.00608453
0.00593385
0.00593941
0.00587633
0.00584281
0.00582484
0.00582485
0.006002
0.006002
0.00603959
0.00610532
0.00609255
0.00592802
0.00594075
0.00588524
0.00585951
0.00584504
0.00584283
0.00601773
0.00601773
0.00605432
0.00612186
0.00610321
0.00591671
0.0059375
0.00590582
0.00589727
0.00588351
0.00587635
0.00604626
0.00604626
0.00606793
0.00611755
0.00609736
0.00593482
0.00597869
0.00595995
0.00596982
0.00595382
0.00593944
0.00610314
0.00610314
0.00610353
0.0061415
0.00610786
0.00593214
0.00595488
0.0059489
0.00595894
0.00594683
0.00593389
0.00608443
0.00608443
0.00607788
0.00609621
0.0060889
)
;
    }
    procBoundary3to4
    {
        type            processor;
        value           nonuniform List<scalar> 
109
(
0.00720103
0.00726878
0.00726579
0.0072258
0.00720943
0.00720966
0.00722635
0.00726637
0.00726906
0.00720104
0.00726906
0.00744096
0.00744966
0.00740071
0.00736525
0.00736562
0.00740133
0.0074501
0.00744097
0.00726879
0.00726637
0.0074501
0.00742907
0.00733755
0.00727758
0.0072779
0.00733795
0.00742908
0.00744967
0.0072658
0.00722635
0.00740133
0.00733795
0.00723825
0.00718412
0.00718424
0.00723826
0.00733755
0.00740072
0.00722581
0.00720967
0.00736563
0.00727791
0.00718424
0.00713473
0.00713473
0.00718413
0.00727758
0.00736526
0.00720944
0.00720943
0.00736526
0.00727758
0.00718413
0.00713474
0.00713474
0.00713474
0.00718425
0.00718425
0.00727791
0.00727791
0.00736564
0.00736564
0.00720967
0.00720967
0.00722581
0.00740072
0.00733756
0.00723826
0.00718425
0.00718425
0.00734703
0.00741842
0.00754852
0.00765221
0.00744587
0.0072658
0.00744967
0.00742908
0.00733796
0.00727792
0.00727792
0.00746386
0.00754821
0.00768742
0.00772853
0.00748191
0.00726879
0.00744098
0.00745012
0.00740135
0.00736564
0.00736564
0.00758812
0.0076518
0.00772828
0.00769983
0.00748016
0.00720105
0.00726908
0.00726638
0.00722637
0.00720968
0.00720968
0.00743106
0.00744556
0.00748157
0.00748
0.00738766
)
;
    }
}


// ************************************************************************* //
