/*--------------------------------*- C++ -*----------------------------------*\
| =========                 |                                                 |
| \\      /  F ield         | OpenFOAM: The Open Source CFD Toolbox           |
|  \\    /   O peration     | Version:  2212                                  |
|   \\  /    A nd           | Website:  www.openfoam.com                      |
|    \\/     M anipulation  |                                                 |
\*---------------------------------------------------------------------------*/
FoamFile
{
    version     2.0;
    format      ascii;
    arch        "LSB;label=32;scalar=64";
    class       volScalarField;
    location    "1.85";
    object      nut;
}
// * * * * * * * * * * * * * * * * * * * * * * * * * * * * * * * * * * * * * //

dimensions      [0 2 -1 0 0 0 0];

internalField   nonuniform List<scalar> 
693
(
3.63496e-06
3.61078e-06
3.5872e-06
3.56431e-06
3.54152e-06
3.51932e-06
7.23866e-06
7.18531e-06
7.13441e-06
7.08491e-06
7.03636e-06
6.98895e-06
1.05037e-05
1.04142e-05
1.03298e-05
1.0247e-05
1.01661e-05
1.00879e-05
1.29181e-05
1.27876e-05
1.26646e-05
1.25474e-05
1.24353e-05
1.23283e-05
1.4413e-05
1.42584e-05
1.41111e-05
1.39731e-05
1.38407e-05
1.3716e-05
1.48644e-05
1.46934e-05
1.453e-05
1.43801e-05
1.42413e-05
1.41142e-05
1.42187e-05
1.40569e-05
1.39064e-05
1.37697e-05
1.36416e-05
1.35226e-05
1.2568e-05
1.24454e-05
1.23265e-05
1.22152e-05
1.21075e-05
1.20006e-05
1.01094e-05
1.00179e-05
9.92838e-06
9.84477e-06
9.7644e-06
9.68898e-06
7.04797e-06
6.99427e-06
6.94227e-06
6.89236e-06
6.84408e-06
6.79796e-06
3.635e-06
3.61107e-06
3.5872e-06
3.56429e-06
3.54136e-06
3.51909e-06
7.04769e-06
6.9939e-06
6.94217e-06
6.89259e-06
6.84463e-06
6.79883e-06
8.87527e-06
8.54931e-06
8.22951e-06
7.96421e-06
7.70053e-06
7.50903e-06
2.05188e-05
1.9455e-05
1.87145e-05
1.80503e-05
1.72181e-05
1.68132e-05
3.03274e-05
2.87787e-05
2.80699e-05
2.67439e-05
2.61158e-05
2.51406e-05
3.60463e-05
3.50163e-05
3.38224e-05
3.2978e-05
3.18018e-05
3.06772e-05
3.9428e-05
3.77205e-05
3.63076e-05
3.53411e-05
3.43006e-05
3.33104e-05
3.88804e-05
3.73098e-05
3.58987e-05
3.49816e-05
3.34038e-05
3.26086e-05
3.16174e-05
3.08985e-05
2.92091e-05
2.84519e-05
2.68611e-05
2.6288e-05
1.99419e-05
1.90606e-05
1.79417e-05
1.74323e-05
1.64565e-05
1.60537e-05
8.85978e-06
8.57532e-06
8.21455e-06
7.95775e-06
7.68544e-06
7.49275e-06
7.23915e-06
7.18584e-06
7.13484e-06
7.08512e-06
7.03647e-06
6.98897e-06
1.01092e-05
1.0017e-05
9.92822e-06
9.84497e-06
9.76514e-06
9.69023e-06
2.00002e-05
1.89321e-05
1.80104e-05
1.74116e-05
1.64618e-05
1.60731e-05
4.13564e-05
3.98279e-05
3.78592e-05
3.65781e-05
3.45824e-05
3.37246e-05
5.94399e-05
5.67131e-05
5.43592e-05
5.17346e-05
5.04255e-05
4.83196e-05
6.96458e-05
6.72846e-05
6.54881e-05
6.32149e-05
6.04153e-05
5.7732e-05
7.42645e-05
7.17607e-05
6.94901e-05
6.70478e-05
6.50194e-05
6.2673e-05
7.2289e-05
6.99198e-05
6.75215e-05
6.56048e-05
6.30049e-05
6.02868e-05
6.17841e-05
5.97945e-05
5.68281e-05
5.43439e-05
5.15796e-05
5.05056e-05
4.11135e-05
3.99015e-05
3.7692e-05
3.65724e-05
3.44395e-05
3.36271e-05
2.02263e-05
1.96425e-05
1.86029e-05
1.80607e-05
1.71824e-05
1.67833e-05
1.05046e-05
1.04154e-05
1.03307e-05
1.02479e-05
1.01671e-05
1.00889e-05
1.25698e-05
1.24457e-05
1.23288e-05
1.22165e-05
1.21106e-05
1.20043e-05
3.23246e-05
3.05587e-05
2.9732e-05
2.81579e-05
2.73602e-05
2.62183e-05
6.19096e-05
5.972e-05
5.71207e-05
5.44222e-05
5.2275e-05
5.02582e-05
8.28317e-05
8.00982e-05
7.73849e-05
7.47054e-05
7.19321e-05
7.03392e-05
9.47335e-05
9.18541e-05
8.9051e-05
8.62657e-05
8.33005e-05
8.14737e-05
9.90531e-05
9.61353e-05
9.32895e-05
9.0447e-05
8.74938e-05
8.5621e-05
9.58076e-05
9.28991e-05
9.00393e-05
8.72308e-05
8.4256e-05
8.2386e-05
8.28653e-05
8.01262e-05
7.73801e-05
7.4684e-05
7.19146e-05
7.02724e-05
5.94093e-05
5.68371e-05
5.43382e-05
5.19422e-05
5.03605e-05
4.82862e-05
2.97963e-05
2.91426e-05
2.77581e-05
2.68738e-05
2.61445e-05
2.51987e-05
1.29199e-05
1.27901e-05
1.26667e-05
1.25499e-05
1.24378e-05
1.23311e-05
1.42213e-05
1.40602e-05
1.39106e-05
1.37736e-05
1.36462e-05
1.35275e-05
3.90237e-05
3.74687e-05
3.61406e-05
3.50122e-05
3.36244e-05
3.26171e-05
7.24581e-05
7.00746e-05
6.77531e-05
6.59274e-05
6.33644e-05
6.05128e-05
9.60095e-05
9.31324e-05
9.03064e-05
8.75223e-05
8.45833e-05
8.26827e-05
0.000108876
0.000105784
0.000102752
9.97599e-05
9.66342e-05
9.46805e-05
0.000112906
0.000109787
0.000106717
0.000103687
0.000100517
9.85282e-05
0.00010871
0.000105636
0.000102616
9.96299e-05
9.64768e-05
9.45533e-05
9.4933e-05
9.20471e-05
8.92569e-05
8.64634e-05
8.34723e-05
8.15901e-05
6.98777e-05
6.75361e-05
6.57491e-05
6.34217e-05
6.0576e-05
5.79083e-05
3.61474e-05
3.51637e-05
3.37898e-05
3.31997e-05
3.17555e-05
3.09387e-05
1.44169e-05
1.42621e-05
1.41149e-05
1.39769e-05
1.38443e-05
1.37197e-05
1.48688e-05
1.46989e-05
1.45358e-05
1.4386e-05
1.42477e-05
1.41206e-05
3.96276e-05
3.79217e-05
3.64809e-05
3.54685e-05
3.45568e-05
3.34662e-05
7.46259e-05
7.21584e-05
6.98899e-05
6.74613e-05
6.5799e-05
6.26877e-05
9.95738e-05
9.6656e-05
9.38041e-05
9.09337e-05
8.81366e-05
8.58623e-05
0.000113329
0.000110181
0.00010709
0.000104017
0.000100964
9.85576e-05
0.000117554
0.000114344
0.000111189
0.000108075
0.000104863
0.000102728
0.000113021
0.000109887
0.000106806
0.000103763
0.000100578
9.85828e-05
9.93502e-05
9.64133e-05
9.35498e-05
9.06829e-05
8.77262e-05
8.58127e-05
7.44864e-05
7.1997e-05
6.97263e-05
6.72339e-05
6.52925e-05
6.28668e-05
3.95773e-05
3.78649e-05
3.6425e-05
3.54459e-05
3.44468e-05
3.34382e-05
1.48672e-05
1.46965e-05
1.45331e-05
1.43831e-05
1.42445e-05
1.41174e-05
1.44179e-05
1.42639e-05
1.41173e-05
1.39791e-05
1.38481e-05
3.6155e-05
3.52274e-05
3.38535e-05
3.33067e-05
3.19598e-05
7.00107e-05
6.76663e-05
6.58981e-05
6.3609e-05
6.0638e-05
9.51348e-05
9.22727e-05
8.95155e-05
8.65773e-05
8.46671e-05
0.000109058
0.000105989
0.00010299
9.98928e-05
9.7702e-05
0.000113145
0.000110011
0.000106934
0.000103878
0.000100821
9.83667e-05
0.0001087
0.000105644
0.000102639
9.96672e-05
9.65525e-05
9.46273e-05
9.58159e-05
9.2937e-05
9.00915e-05
8.73157e-05
8.43708e-05
8.24823e-05
7.23291e-05
6.99795e-05
6.75705e-05
6.56859e-05
6.31292e-05
6.04413e-05
3.8935e-05
3.73671e-05
3.59091e-05
3.5017e-05
3.34203e-05
3.27511e-05
1.42199e-05
1.40582e-05
1.39078e-05
1.37713e-05
1.36433e-05
1.35245e-05
1.27911e-05
1.2668e-05
1.25516e-05
1.24406e-05
2.87118e-05
2.79515e-05
2.69987e-05
2.59912e-05
5.9584e-05
5.68914e-05
5.43831e-05
5.24128e-05
5.02269e-05
8.29738e-05
8.02796e-05
7.76056e-05
7.47459e-05
7.30646e-05
9.60136e-05
9.31508e-05
9.03618e-05
8.74534e-05
8.55304e-05
9.93244e-05
9.64132e-05
9.35732e-05
9.07045e-05
8.79213e-05
8.56589e-05
9.47469e-05
9.19107e-05
8.91398e-05
8.63869e-05
8.34912e-05
8.16476e-05
8.27601e-05
8.00668e-05
7.73194e-05
7.46463e-05
7.18811e-05
7.0301e-05
6.17201e-05
5.97851e-05
5.68842e-05
5.43709e-05
5.16014e-05
5.0532e-05
3.16583e-05
3.08823e-05
2.9225e-05
2.84782e-05
2.69163e-05
2.63344e-05
1.25681e-05
1.24458e-05
1.23271e-05
1.22161e-05
1.21087e-05
1.20021e-05
1.04162e-05
1.03316e-05
1.02492e-05
1.01687e-05
1.94831e-05
1.87188e-05
1.80734e-05
1.73579e-05
4.14078e-05
3.98392e-05
3.7889e-05
3.67516e-05
3.50391e-05
6.1932e-05
5.97942e-05
5.71944e-05
5.45621e-05
5.23086e-05
7.2453e-05
7.0073e-05
6.77667e-05
6.58087e-05
6.33383e-05
7.44863e-05
7.20268e-05
6.97286e-05
6.72506e-05
6.55383e-05
6.27183e-05
6.97324e-05
6.7452e-05
6.55141e-05
6.34101e-05
6.07516e-05
5.80492e-05
5.9348e-05
5.678e-05
5.42593e-05
5.20072e-05
5.02996e-05
4.83339e-05
4.13771e-05
3.99256e-05
3.78027e-05
3.66649e-05
3.45091e-05
3.37152e-05
2.0021e-05
1.90035e-05
1.79994e-05
1.7446e-05
1.64973e-05
1.60856e-05
1.01096e-05
1.00183e-05
9.92908e-06
9.84572e-06
9.76566e-06
9.6905e-06
7.18605e-06
7.1352e-06
7.08604e-06
7.03787e-06
8.54228e-06
8.26456e-06
7.95203e-06
7.73345e-06
2.00298e-05
1.89969e-05
1.7983e-05
1.74515e-05
1.66718e-05
3.23268e-05
3.0751e-05
2.9553e-05
2.84334e-05
2.72617e-05
3.90857e-05
3.75204e-05
3.625e-05
3.50409e-05
3.37237e-05
3.96225e-05
3.79227e-05
3.64864e-05
3.55387e-05
3.43919e-05
3.35019e-05
3.6059e-05
3.51549e-05
3.37962e-05
3.32172e-05
3.18088e-05
3.09511e-05
2.97806e-05
2.91397e-05
2.77896e-05
2.68629e-05
2.61893e-05
2.5248e-05
2.03414e-05
1.96816e-05
1.86697e-05
1.81166e-05
1.72368e-05
1.68359e-05
8.87165e-06
8.57658e-06
8.23521e-06
7.96885e-06
7.70831e-06
7.50303e-06
7.0483e-06
6.99483e-06
6.94312e-06
6.89344e-06
6.84536e-06
6.79937e-06
3.61104e-06
3.58784e-06
3.56484e-06
3.54232e-06
6.99429e-06
6.94294e-06
6.8937e-06
6.84649e-06
1.01108e-05
1.00189e-05
9.92999e-06
9.847e-06
9.76816e-06
1.25724e-05
1.24489e-05
1.23311e-05
1.22193e-05
1.21138e-05
1.42251e-05
1.40636e-05
1.39139e-05
1.37763e-05
1.36502e-05
1.4872e-05
1.47013e-05
1.45382e-05
1.4388e-05
1.42499e-05
1.41218e-05
1.44191e-05
1.42645e-05
1.41175e-05
1.39797e-05
1.38474e-05
1.37229e-05
1.29208e-05
1.27911e-05
1.26679e-05
1.25512e-05
1.24393e-05
1.23329e-05
1.05048e-05
1.04159e-05
1.03315e-05
1.02489e-05
1.01683e-05
1.00903e-05
7.23943e-06
7.18636e-06
7.13556e-06
7.08607e-06
7.03756e-06
6.99022e-06
3.6353e-06
3.61142e-06
3.58772e-06
3.56487e-06
3.54207e-06
3.51982e-06
)
;

boundaryField
{
    inlet
    {
        type            calculated;
        value           nonuniform List<scalar> 0();
    }
    ami1
    {
        type            cyclicAMI;
        value           nonuniform List<scalar> 0();
    }
    walls
    {
        type            nutkWallFunction;
        blending        stepwise;
        value           uniform 0;
    }
    ami2
    {
        type            cyclicAMI;
        value           nonuniform List<scalar> 0();
    }
    outlet
    {
        type            calculated;
        value           nonuniform List<scalar> 0();
    }
    procBoundary7to5
    {
        type            processor;
        value           nonuniform List<scalar> 
131
(
3.49754e-06
6.94227e-06
1.00116e-05
1.22247e-05
1.35957e-05
1.3991e-05
1.34042e-05
1.18936e-05
9.61597e-06
6.75262e-06
3.49734e-06
6.75355e-06
7.33355e-06
1.60816e-05
2.42671e-05
2.95676e-05
3.2216e-05
3.10465e-05
2.4784e-05
1.52862e-05
7.32346e-06
6.94231e-06
9.6177e-06
1.53199e-05
3.17056e-05
4.62449e-05
5.46798e-05
5.86594e-05
5.66053e-05
4.73958e-05
3.15939e-05
1.60608e-05
1.00127e-05
1.18979e-05
2.49118e-05
4.79502e-05
6.58904e-05
7.63247e-05
8.02574e-05
7.71773e-05
6.5825e-05
4.62644e-05
2.42976e-05
1.22278e-05
1.341e-05
3.12052e-05
5.72222e-05
7.74641e-05
8.9323e-05
9.31537e-05
8.92591e-05
7.64889e-05
5.48234e-05
2.9667e-05
1.35998e-05
1.3998e-05
1.37215e-05
3.24167e-05
3.09577e-05
5.87301e-05
5.74922e-05
8.04494e-05
8.01654e-05
9.30846e-05
9.28991e-05
9.72999e-05
9.325e-05
8.05078e-05
5.88689e-05
3.23718e-05
1.39946e-05
1.37215e-05
3.09577e-05
5.74922e-05
8.01654e-05
9.28991e-05
9.28991e-05
9.29911e-05
8.93519e-05
7.73355e-05
5.67367e-05
3.11702e-05
1.34067e-05
1.23326e-05
2.52674e-05
4.8403e-05
6.91076e-05
8.09904e-05
8.09904e-05
8.06249e-05
7.66418e-05
6.58894e-05
4.7462e-05
2.48317e-05
1.18956e-05
1.00906e-05
1.68229e-05
3.35457e-05
5.02526e-05
5.95986e-05
5.95986e-05
5.87373e-05
5.49126e-05
4.63236e-05
3.16491e-05
1.53169e-05
9.61768e-06
6.99053e-06
7.55588e-06
1.60417e-05
2.62572e-05
3.25083e-05
3.25083e-05
3.22588e-05
2.97092e-05
2.4344e-05
1.60987e-05
7.33277e-06
6.75396e-06
3.52041e-06
6.80047e-06
9.6928e-06
1.20067e-05
1.35284e-05
1.35284e-05
1.39993e-05
1.3603e-05
1.22299e-05
1.00144e-05
6.94364e-06
3.49815e-06
)
;
    }
    procBoundary7to8
    {
        type            processor;
        value           nonuniform List<scalar> 
68
(
3.66024e-06
7.29588e-06
1.0601e-05
1.30557e-05
1.45793e-05
7.10517e-06
9.13172e-06
2.11728e-05
3.11742e-05
3.74512e-05
1.0208e-05
2.06529e-05
4.3063e-05
6.21371e-05
7.25057e-05
1.27025e-05
3.33166e-05
6.38459e-05
8.5898e-05
9.81504e-05
1.43704e-05
4.08227e-05
7.53098e-05
9.93573e-05
0.000112488
0.000116619
1.50304e-05
4.16017e-05
7.76164e-05
0.00010299
0.000116976
0.000121318
1.45838e-05
1.29216e-05
3.76271e-05
3.03512e-05
7.28207e-05
9.84764e-05
0.000112616
0.000116823
1.29216e-05
3.03512e-05
3.03512e-05
6.22762e-05
8.60064e-05
9.93602e-05
0.000102792
1.05055e-05
2.04555e-05
2.04555e-05
4.31155e-05
6.38962e-05
7.53162e-05
7.75153e-05
7.23974e-06
8.81914e-06
8.81914e-06
2.06796e-05
3.34127e-05
4.08931e-05
4.16103e-05
3.63535e-06
7.04862e-06
7.04862e-06
1.02103e-05
1.27062e-05
1.43748e-05
1.50346e-05
)
;
    }
    procBoundary7to9
    {
        type            processor;
        value           nonuniform List<scalar> 
59
(
1.5028e-05
1.43688e-05
1.27034e-05
1.02095e-05
7.10558e-06
3.66055e-06
4.1436e-05
4.0778e-05
3.36107e-05
2.07674e-05
9.14982e-06
7.29666e-06
7.73206e-05
7.51969e-05
6.39231e-05
4.35962e-05
2.13914e-05
1.0603e-05
0.000102568
9.92171e-05
8.59503e-05
6.23577e-05
3.15827e-05
1.30587e-05
0.000112337
9.83194e-05
7.27303e-05
3.76447e-05
1.4583e-05
0.000116722
0.000102816
7.74966e-05
4.15691e-05
1.50303e-05
0.000112321
9.92055e-05
7.52067e-05
4.08183e-05
1.43702e-05
9.81513e-05
8.58565e-05
6.38298e-05
3.35803e-05
1.27035e-05
7.26062e-05
6.22624e-05
4.31661e-05
2.07517e-05
1.02092e-05
3.76088e-05
3.15478e-05
2.12279e-05
9.14741e-06
7.1057e-06
1.45852e-05
1.30597e-05
1.06029e-05
7.29671e-06
3.66064e-06
)
;
    }
}


// ************************************************************************* //
