/*--------------------------------*- C++ -*----------------------------------*\
| =========                 |                                                 |
| \\      /  F ield         | OpenFOAM: The Open Source CFD Toolbox           |
|  \\    /   O peration     | Version:  2212                                  |
|   \\  /    A nd           | Website:  www.openfoam.com                      |
|    \\/     M anipulation  |                                                 |
\*---------------------------------------------------------------------------*/
FoamFile
{
    version     2.0;
    format      ascii;
    arch        "LSB;label=32;scalar=64";
    class       volVectorField;
    location    "1.85";
    object      U;
}
// * * * * * * * * * * * * * * * * * * * * * * * * * * * * * * * * * * * * * //

dimensions      [0 1 -1 0 0 0 0];

internalField   nonuniform List<vector> 
693
(
(0.0245817 -1.0205e-05 4.30598e-05)
(0.024303 -1.03327e-05 4.06507e-05)
(0.0240319 -9.32584e-06 4.08781e-05)
(0.0237677 -7.18704e-06 4.22183e-05)
(0.0235035 -5.61732e-06 4.38885e-05)
(0.0232426 -4.55792e-06 4.50514e-05)
(0.0411984 -0.000249395 7.81391e-05)
(0.0407749 -0.00023101 7.52808e-05)
(0.0403582 -0.000220192 7.7857e-05)
(0.0399508 -0.000211581 8.17349e-05)
(0.0395417 -0.000204909 8.51336e-05)
(0.0391419 -0.000198881 8.58478e-05)
(0.0569884 -0.000614343 -8.08337e-05)
(0.0564019 -0.000567172 -6.97695e-05)
(0.0558336 -0.000538174 -5.55098e-05)
(0.0552794 -0.000516658 -4.29112e-05)
(0.0547224 -0.000498616 -3.38037e-05)
(0.0541866 -0.000482436 -2.91163e-05)
(0.0665719 -0.00101814 -0.00025324)
(0.0658302 -0.00099038 -0.000236618)
(0.0651217 -0.000962373 -0.000220099)
(0.0644179 -0.000936251 -0.000205918)
(0.0637421 -0.000910906 -0.000196073)
(0.0630751 -0.000888795 -0.000188713)
(0.0716601 -0.00122511 -0.000347896)
(0.0708814 -0.00119332 -0.000342539)
(0.0701151 -0.00116075 -0.00033335)
(0.0693699 -0.00112773 -0.000322425)
(0.0686367 -0.00109587 -0.000312776)
(0.0679189 -0.00106698 -0.000304819)
(0.072034 -0.00120088 -0.000375)
(0.0713031 -0.0011672 -0.000366504)
(0.0705884 -0.00113051 -0.000355821)
(0.0698963 -0.00109277 -0.000345047)
(0.0692201 -0.00105676 -0.000335941)
(0.0685637 -0.00102213 -0.000330144)
(0.0683873 -0.000988668 -0.000375626)
(0.0677541 -0.000954031 -0.000366265)
(0.067134 -0.000912544 -0.000360448)
(0.0665417 -0.000865799 -0.000356748)
(0.0659493 -0.000819035 -0.000352933)
(0.0653865 -0.000776299 -0.000349274)
(0.0614403 -0.000606944 -0.000322732)
(0.0609236 -0.000575849 -0.000309858)
(0.0603968 -0.000514655 -0.00028482)
(0.0599124 -0.000442376 -0.000256119)
(0.0594205 -0.000393638 -0.000237668)
(0.0589608 -0.000363929 -0.000223385)
(0.0517348 -0.000240726 -0.000201162)
(0.0512955 -0.000229418 -0.000194282)
(0.05084 -0.000221569 -0.000189685)
(0.0504081 -0.000215782 -0.000183608)
(0.0499555 -0.000211903 -0.000176544)
(0.0495245 -0.000209117 -0.000167653)
(0.0385906 -6.28179e-05 -1.94813e-05)
(0.0382109 -6.1204e-05 -2.21576e-05)
(0.037828 -6.13964e-05 -2.0715e-05)
(0.0374642 -6.31692e-05 -1.61915e-05)
(0.0370995 -6.57137e-05 -1.20266e-05)
(0.0367442 -6.88399e-05 -8.98705e-06)
(0.0245825 -4.54987e-05 -8.54567e-06)
(0.0243057 -4.38518e-05 -8.69465e-06)
(0.0240327 -4.40211e-05 -7.33505e-06)
(0.0237684 -4.54951e-05 -5.47331e-06)
(0.0235033 -4.70532e-05 -3.82318e-06)
(0.0232417 -4.79717e-05 -2.99519e-06)
(0.0385934 -2.33473e-05 6.02187e-05)
(0.0382085 -2.60837e-05 5.76986e-05)
(0.0378304 -2.48546e-05 5.81721e-05)
(0.0374675 -1.97391e-05 5.96102e-05)
(0.037105 -1.59001e-05 6.2373e-05)
(0.0367516 -1.25444e-05 6.56778e-05)
(0.0713116 -0.000265709 0.000134872)
(0.0708593 -0.000274966 0.000136451)
(0.0704045 -0.000280189 0.000139009)
(0.0699627 -0.00028185 0.000143087)
(0.0694976 -0.000283596 0.00014935)
(0.0690499 -0.000287495 0.000157991)
(0.0913413 -0.000828579 -4.21714e-06)
(0.0911183 -0.00081132 4.7428e-07)
(0.0908796 -0.000804838 1.09851e-05)
(0.0906265 -0.000791137 1.9794e-05)
(0.0903613 -0.000786216 3.12938e-05)
(0.0900835 -0.00078443 4.35684e-05)
(0.100446 -0.00120405 -0.000231393)
(0.100305 -0.00118396 -0.000218145)
(0.100149 -0.0011691 -0.000203234)
(0.099987 -0.00115519 -0.000188905)
(0.0998191 -0.0011493 -0.000174176)
(0.0996418 -0.00113739 -0.000160707)
(0.104278 -0.00142436 -0.00029148)
(0.104164 -0.00141269 -0.000278168)
(0.104044 -0.00140085 -0.000265415)
(0.103917 -0.00138653 -0.000253703)
(0.103782 -0.00136687 -0.000242377)
(0.103645 -0.00135029 -0.000232853)
(0.104409 -0.00139693 -0.000266234)
(0.104337 -0.00137424 -0.00025607)
(0.104263 -0.00136231 -0.000250734)
(0.104181 -0.00135413 -0.00024605)
(0.104095 -0.00134381 -0.000241269)
(0.104005 -0.00133074 -0.000238794)
(0.101867 -0.00114643 -0.000258009)
(0.101832 -0.0011216 -0.000260107)
(0.101798 -0.00110864 -0.000267136)
(0.101755 -0.00109045 -0.000271303)
(0.101711 -0.00107411 -0.000275447)
(0.101655 -0.00105933 -0.000280083)
(0.0970823 -0.000755882 -0.000304714)
(0.0970382 -0.000744261 -0.00032179)
(0.0969932 -0.000732422 -0.00033717)
(0.0969303 -0.000721933 -0.000352485)
(0.096859 -0.000717027 -0.000369122)
(0.096777 -0.00071611 -0.000386707)
(0.0884137 -0.000414109 -0.000443568)
(0.0882325 -0.000405237 -0.000447927)
(0.0880288 -0.000406767 -0.000462774)
(0.0878192 -0.000412989 -0.000479503)
(0.08758 -0.000421549 -0.000494908)
(0.0873365 -0.00043508 -0.000512248)
(0.0713039 -0.000140683 -0.000261922)
(0.070865 -0.000143518 -0.000272175)
(0.0704002 -0.000145526 -0.000275502)
(0.06996 -0.000150851 -0.00027824)
(0.0694934 -0.000157147 -0.000279444)
(0.0690441 -0.000165789 -0.000284422)
(0.0412 -8.22808e-05 -0.000248318)
(0.0407813 -8.13965e-05 -0.000231191)
(0.0403604 -8.41697e-05 -0.000219446)
(0.0399531 -8.83837e-05 -0.000211175)
(0.0395432 -9.1487e-05 -0.000204087)
(0.0391435 -9.14235e-05 -0.000197571)
(0.0517388 -0.000205901 0.000236783)
(0.0512923 -0.000197417 0.000224901)
(0.0508474 -0.000191296 0.000216863)
(0.0504155 -0.000185039 0.000211328)
(0.0499663 -0.000179189 0.000208355)
(0.0495386 -0.000169035 0.000205434)
(0.0884309 -0.00044502 0.00040827)
(0.0882447 -0.00045043 0.000398689)
(0.0880486 -0.000468348 0.000402433)
(0.0878322 -0.000482691 0.000405918)
(0.0876016 -0.00049889 0.000415399)
(0.0873552 -0.000516469 0.000429163)
(0.105775 -0.000948678 0.000321533)
(0.105903 -0.000955858 0.000325268)
(0.10602 -0.000964919 0.000330819)
(0.106114 -0.000971612 0.000335611)
(0.106211 -0.000985267 0.000345647)
(0.106282 -0.000999402 0.000358246)
(0.113581 -0.00124062 9.54792e-09)
(0.113804 -0.00123589 6.55645e-06)
(0.11402 -0.00123548 1.51855e-05)
(0.11423 -0.00124497 2.82773e-05)
(0.114429 -0.00125962 4.52613e-05)
(0.114625 -0.00126605 6.16375e-05)
(0.116923 -0.00139711 -0.00015967)
(0.117167 -0.00139563 -0.000150433)
(0.117407 -0.00139377 -0.000142057)
(0.117645 -0.00138729 -0.000133843)
(0.117882 -0.0013822 -0.000124722)
(0.118121 -0.00137779 -0.00011481)
(0.117385 -0.00134536 -0.000280635)
(0.117648 -0.00133562 -0.000274488)
(0.117909 -0.0013285 -0.000269893)
(0.11817 -0.00132499 -0.0002674)
(0.11843 -0.00132271 -0.000266876)
(0.118692 -0.00130916 -0.000263299)
(0.115779 -0.00110003 -0.000426522)
(0.116056 -0.00108704 -0.000432437)
(0.116334 -0.00107853 -0.000439156)
(0.11661 -0.00107005 -0.000444844)
(0.116889 -0.00106002 -0.000450678)
(0.117168 -0.00104589 -0.000456207)
(0.112328 -0.000721197 -0.000664192)
(0.112584 -0.000710041 -0.000675039)
(0.112847 -0.000696962 -0.000682772)
(0.113099 -0.000686906 -0.000693204)
(0.113355 -0.000690551 -0.000716991)
(0.113596 -0.000693886 -0.000739458)
(0.105768 -0.000326281 -0.000946496)
(0.105893 -0.000330968 -0.000954998)
(0.106014 -0.000336201 -0.000963455)
(0.106108 -0.000341161 -0.000970486)
(0.106204 -0.000350453 -0.000983267)
(0.106278 -0.000363527 -0.000997776)
(0.0913435 -1.45935e-06 -0.000825032)
(0.0911204 -9.60077e-06 -0.000815381)
(0.0908787 -1.81123e-05 -0.000801785)
(0.0906281 -2.82549e-05 -0.000791098)
(0.0903622 -3.89023e-05 -0.000784625)
(0.0900846 -5.1015e-05 -0.000783416)
(0.0569848 7.6098e-05 -0.000614767)
(0.056414 6.40801e-05 -0.000566953)
(0.0558374 4.94241e-05 -0.000537707)
(0.055286 3.62189e-05 -0.000516529)
(0.0547292 2.74976e-05 -0.00049768)
(0.0541948 2.39588e-05 -0.000480409)
(0.0614702 -0.000324447 0.000599701)
(0.0609331 -0.000312875 0.000571273)
(0.0604283 -0.000286307 0.000511185)
(0.0599279 -0.000256891 0.000439145)
(0.0594553 -0.000238406 0.000390902)
(0.0589891 -0.000223321 0.000360971)
(0.0970887 -0.00030882 0.000754308)
(0.0970531 -0.000322038 0.000737252)
(0.0970032 -0.000338605 0.000725557)
(0.0969462 -0.000354167 0.000714738)
(0.0968739 -0.000374737 0.0007149)
(0.0967909 -0.000385048 0.000705138)
(0.112333 -0.000663923 0.000716202)
(0.112594 -0.000675818 0.000705803)
(0.11285 -0.000684921 0.000693363)
(0.113105 -0.000697884 0.000685724)
(0.113353 -0.000718493 0.0006863)
(0.113597 -0.000739541 0.000687997)
(0.119463 -0.000858575 0.000338691)
(0.119824 -0.000864113 0.00033858)
(0.120182 -0.000870918 0.000339316)
(0.120538 -0.000880832 0.000342)
(0.120892 -0.000899984 0.00035076)
(0.121246 -0.000912885 0.000356828)
(0.122731 -0.000953856 5.66024e-05)
(0.12312 -0.000954305 5.86594e-05)
(0.123508 -0.000956756 6.0403e-05)
(0.123895 -0.000960603 6.29657e-05)
(0.124285 -0.00096901 6.78225e-05)
(0.124674 -0.000971092 7.28534e-05)
(0.123516 -0.000881658 -0.00022397)
(0.123915 -0.00087655 -0.000222434)
(0.124313 -0.000874678 -0.000221743)
(0.124712 -0.000874914 -0.000222057)
(0.125115 -0.000879161 -0.0002237)
(0.125516 -0.000876618 -0.000222758)
(0.12241 -0.000666777 -0.00051446)
(0.122807 -0.000661306 -0.000516834)
(0.123203 -0.00065838 -0.000520007)
(0.1236 -0.000657089 -0.000524912)
(0.124 -0.000659688 -0.000534776)
(0.1244 -0.000656748 -0.00054145)
(0.119456 -0.000340578 -0.000858123)
(0.119817 -0.000340455 -0.000863603)
(0.120176 -0.000341115 -0.000870247)
(0.120532 -0.000343587 -0.000880324)
(0.120889 -0.000352153 -0.000899111)
(0.121242 -0.000358865 -0.00091186)
(0.113577 -3.72238e-06 -0.00123924)
(0.113798 -1.05496e-05 -0.00123558)
(0.114017 -1.92826e-05 -0.00123583)
(0.114225 -3.24733e-05 -0.00124544)
(0.114426 -4.86672e-05 -0.00125801)
(0.114622 -6.53205e-05 -0.0012655)
(0.100458 0.000226447 -0.00120108)
(0.100309 0.000211574 -0.00118667)
(0.100159 0.000197494 -0.00116557)
(0.0999961 0.000182183 -0.00115925)
(0.0998258 0.000167983 -0.00115025)
(0.099648 0.000154765 -0.00113748)
(0.0665765 0.000247534 -0.00102001)
(0.0658522 0.000231627 -0.00098959)
(0.0651331 0.000214974 -0.000961614)
(0.0644376 0.000201124 -0.000933597)
(0.0637641 0.000191597 -0.00090689)
(0.0631004 0.00018472 -0.00088444)
(0.0684131 -0.000373998 0.000980802)
(0.0677818 -0.000365608 0.000946888)
(0.0671693 -0.000360337 0.000906889)
(0.0665747 -0.00035689 0.000861218)
(0.0659892 -0.000352351 0.000814799)
(0.0654253 -0.000349116 0.000773189)
(0.101876 -0.000260767 0.00114238)
(0.101844 -0.000263061 0.00111838)
(0.101806 -0.000268544 0.00110185)
(0.101767 -0.000272215 0.00108308)
(0.101721 -0.000276648 0.00106706)
(0.101667 -0.000279895 0.0010513)
(0.115785 -0.000427869 0.00109604)
(0.116061 -0.000434237 0.00108295)
(0.116337 -0.000441895 0.00107488)
(0.116611 -0.000448394 0.00106696)
(0.116887 -0.000454059 0.00105576)
(0.117165 -0.000460315 0.00104264)
(0.122414 -0.000515149 0.000665567)
(0.12281 -0.00051808 0.000660241)
(0.123205 -0.000521857 0.000657332)
(0.1236 -0.000527452 0.000656163)
(0.123999 -0.000538048 0.000658458)
(0.124398 -0.000545562 0.00065498)
(0.125584 -0.000531029 0.000272031)
(0.126025 -0.000532075 0.000270678)
(0.126464 -0.000534101 0.000270004)
(0.126904 -0.000536764 0.000269974)
(0.127347 -0.000541904 0.000271164)
(0.127788 -0.00054469 0.000270628)
(0.126498 -0.00044026 -0.000124074)
(0.126951 -0.000438758 -0.000124111)
(0.127403 -0.000438397 -0.000124483)
(0.127854 -0.000438831 -0.000125081)
(0.128309 -0.000440969 -0.000126185)
(0.128761 -0.000440611 -0.00012662)
(0.125582 -0.000272726 -0.000531134)
(0.126022 -0.000271268 -0.000531764)
(0.126462 -0.000270567 -0.000533282)
(0.126902 -0.000270536 -0.000535338)
(0.127345 -0.000272005 -0.000539655)
(0.127787 -0.000271987 -0.00054154)
(0.122724 -5.80967e-05 -0.000954374)
(0.123113 -6.00324e-05 -0.0009544)
(0.1235 -6.16542e-05 -0.000956524)
(0.123887 -6.40601e-05 -0.000959954)
(0.124277 -6.90261e-05 -0.000967816)
(0.124666 -7.44783e-05 -0.000969693)
(0.116916 0.000157221 -0.00139655)
(0.11716 0.000147882 -0.00139494)
(0.1174 0.000139316 -0.00139258)
(0.117637 0.000130743 -0.00138582)
(0.117875 0.000121492 -0.00138092)
(0.118114 0.000111287 -0.00137692)
(0.104282 0.000287796 -0.0014232)
(0.104166 0.000273578 -0.00140952)
(0.104051 0.000260978 -0.00139919)
(0.103921 0.000248835 -0.00138449)
(0.103788 0.000237265 -0.00136588)
(0.103648 0.00022789 -0.00135192)
(0.0716857 0.000342711 -0.00122516)
(0.0709109 0.000338008 -0.00119282)
(0.0701427 0.000329102 -0.00115959)
(0.0694038 0.000318518 -0.00112487)
(0.0686678 0.000308724 -0.0010919)
(0.0679552 0.000300423 -0.00106257)
(0.0720684 -0.000373062 0.00119441)
(0.0713418 -0.000364937 0.00116076)
(0.070631 -0.000355745 0.00112415)
(0.0699407 -0.000345923 0.0010865)
(0.0692694 -0.000336407 0.00105029)
(0.0686147 -0.000329876 0.00101575)
(0.104419 -0.000267933 0.00139212)
(0.104347 -0.000257688 0.00136815)
(0.104273 -0.000251519 0.00135463)
(0.104191 -0.000247003 0.00134845)
(0.104106 -0.000242048 0.00133861)
(0.104013 -0.000239175 0.00132422)
(0.117386 -0.000282049 0.00134147)
(0.117648 -0.000276531 0.00133125)
(0.117907 -0.000272053 0.00132405)
(0.118166 -0.00027081 0.00132241)
(0.118424 -0.000270193 0.00131678)
(0.118686 -0.000266284 0.0012997)
(0.123513 -0.000225273 0.000880408)
(0.123911 -0.00022435 0.000875054)
(0.124308 -0.000224304 0.000872994)
(0.124707 -0.000225499 0.000873674)
(0.125107 -0.000227956 0.000876679)
(0.125508 -0.000228053 0.000871955)
(0.126496 -0.000125513 0.000440137)
(0.126948 -0.000126006 0.000438542)
(0.127399 -0.000126819 0.000437925)
(0.12785 -0.000127773 0.000438286)
(0.128304 -0.000129585 0.000439147)
(0.128756 -0.000131093 0.000436688)
(0.127404 -1.45088e-06 2.20235e-07)
(0.127871 -1.65625e-06 3.86457e-07)
(0.128336 -1.88199e-06 4.53707e-07)
(0.128801 -2.07096e-06 4.7971e-07)
(0.129269 -2.4063e-06 1.09265e-07)
(0.129734 -2.81467e-06 -6.17969e-07)
(0.126497 0.000122121 -0.000440326)
(0.126949 0.000122262 -0.000438421)
(0.127401 0.000122698 -0.00043761)
(0.127852 0.00012335 -0.000437597)
(0.128307 0.000124401 -0.000439324)
(0.128759 0.00012462 -0.000438653)
(0.123513 0.000221667 -0.000882318)
(0.123911 0.000220214 -0.000876707)
(0.124309 0.000219572 -0.00087433)
(0.124708 0.000219962 -0.000874189)
(0.12511 0.000221589 -0.000878095)
(0.125511 0.000220511 -0.000875364)
(0.117383 0.000278047 -0.00134507)
(0.117645 0.000271917 -0.00133485)
(0.117905 0.000267017 -0.00132709)
(0.118165 0.000264433 -0.00132373)
(0.118425 0.000263836 -0.00132147)
(0.118687 0.000259909 -0.0013077)
(0.104412 0.000263961 -0.00139657)
(0.10434 0.000252918 -0.00137276)
(0.104267 0.000247043 -0.00135992)
(0.104184 0.000241946 -0.00135217)
(0.104099 0.000236857 -0.00134239)
(0.104009 0.000234226 -0.00132984)
(0.0720558 0.000372267 -0.0011992)
(0.0713275 0.000363431 -0.00116576)
(0.0706146 0.000352637 -0.00112899)
(0.0699243 0.000341391 -0.00109086)
(0.0692502 0.000331462 -0.00105445)
(0.0685946 0.000324727 -0.00101981)
(0.071696 -0.000344649 0.00122152)
(0.0709236 -0.000339937 0.00118944)
(0.0701576 -0.000332747 0.00115463)
(0.0694205 -0.000322856 0.00111997)
(0.0686891 -0.000313021 0.00108781)
(0.104289 -0.000291301 0.00141953)
(0.104175 -0.000278323 0.00140606)
(0.104058 -0.000266146 0.00139614)
(0.103927 -0.000254645 0.00138362)
(0.103793 -0.000243295 0.00136246)
(0.116921 -0.000160936 0.00139283)
(0.117163 -0.000152356 0.00139083)
(0.117404 -0.000143822 0.00138933)
(0.117639 -0.000135752 0.00138187)
(0.117879 -0.000127597 0.00137284)
(0.122726 5.47473e-05 0.000952098)
(0.123115 5.62557e-05 0.000952373)
(0.123501 5.75167e-05 0.000954814)
(0.123889 6.00616e-05 0.000961029)
(0.124276 6.32717e-05 0.000962999)
(0.125581 0.000269422 0.000530291)
(0.126021 0.00026762 0.00053134)
(0.12646 0.000266423 0.000533023)
(0.126901 0.000266752 0.000536484)
(0.12734 0.000265764 0.000537446)
(0.126496 0.000437204 0.00012397)
(0.126949 0.000435205 0.000124374)
(0.1274 0.000434296 0.000124939)
(0.127851 0.000434423 0.000125804)
(0.128305 0.000435527 0.000126055)
(0.128756 0.000434067 0.00012465)
(0.125584 0.000527574 -0.00027239)
(0.126024 0.000528256 -0.000270713)
(0.126464 0.000529881 -0.000269748)
(0.126904 0.000532195 -0.000269462)
(0.127347 0.000536756 -0.000270972)
(0.127787 0.000538708 -0.000271176)
(0.122414 0.000511403 -0.000667181)
(0.12281 0.000513802 -0.000661493)
(0.123206 0.000516971 -0.000658283)
(0.123602 0.000521759 -0.000656761)
(0.124002 0.000531363 -0.000659145)
(0.124401 0.000537938 -0.00065612)
(0.115782 0.000424029 -0.00109946)
(0.116059 0.000429855 -0.00108617)
(0.116337 0.000436499 -0.00107746)
(0.116612 0.000442044 -0.0010692)
(0.116891 0.000447516 -0.00105949)
(0.117169 0.000452383 -0.00104531)
(0.101872 0.000255732 -0.00114549)
(0.101837 0.000257071 -0.00111968)
(0.101804 0.000263709 -0.00110613)
(0.101761 0.000267701 -0.00108796)
(0.101718 0.000272476 -0.00107365)
(0.101661 0.000277163 -0.00106075)
(0.0683992 0.00037378 -0.000987213)
(0.0677674 0.000364131 -0.000953038)
(0.0671479 0.000357585 -0.000911761)
(0.0665577 0.000353164 -0.000864809)
(0.0659665 0.000348638 -0.000817476)
(0.0654077 0.000344156 -0.00077433)
(0.0658557 -0.000234707 0.000988341)
(0.0651449 -0.000219476 0.000958208)
(0.0644533 -0.000206705 0.000930292)
(0.0637732 -0.000197813 0.00090379)
(0.100322 -0.000217654 0.00117515)
(0.100167 -0.000202656 0.0011677)
(0.100006 -0.00018956 0.00115257)
(0.0998364 -0.000176263 0.00114266)
(0.113583 -1.60499e-08 0.00123632)
(0.113806 5.58818e-06 0.00123011)
(0.114023 1.50151e-05 0.0012342)
(0.114229 2.80137e-05 0.00124239)
(0.114434 4.30916e-05 0.0012513)
(0.119461 0.000337578 0.000855746)
(0.119821 0.000336893 0.00086126)
(0.120179 0.000336993 0.000868642)
(0.120535 0.000341877 0.000883248)
(0.12089 0.000346405 0.000895457)
(0.122411 0.000663412 0.000513037)
(0.122807 0.000657623 0.000516002)
(0.123202 0.000653982 0.00051979)
(0.1236 0.000654181 0.000526965)
(0.123996 0.000650869 0.000532378)
(0.123512 0.000878054 0.000222741)
(0.123911 0.000872246 0.000221618)
(0.124309 0.000869613 0.000221159)
(0.124708 0.00086966 0.000221784)
(0.125109 0.000872299 0.000222556)
(0.125509 0.000868737 0.000220174)
(0.122728 0.00095029 -5.81604e-05)
(0.123117 0.000950295 -5.99169e-05)
(0.123505 0.000952301 -6.13194e-05)
(0.123892 0.000955862 -6.34438e-05)
(0.124281 0.000963704 -6.83418e-05)
(0.124669 0.000965317 -7.39074e-05)
(0.119462 0.000855159 -0.000341242)
(0.119822 0.000860461 -0.000340976)
(0.120182 0.000866672 -0.000341377)
(0.120538 0.000876094 -0.000343379)
(0.120895 0.000894359 -0.000351605)
(0.121248 0.000906868 -0.000358176)
(0.112333 0.000662288 -0.000720772)
(0.112589 0.000673411 -0.000710017)
(0.112851 0.000680738 -0.000696835)
(0.113102 0.000689957 -0.000686212)
(0.113358 0.000712592 -0.000689645)
(0.113599 0.000734125 -0.000693069)
(0.0970866 0.00030198 -0.000754561)
(0.0970443 0.000318333 -0.000742176)
(0.096999 0.000334306 -0.000731077)
(0.0969367 0.000349953 -0.000721283)
(0.0968651 0.000366436 -0.000716686)
(0.0967841 0.000383011 -0.000715552)
(0.0614476 0.000320155 -0.000605746)
(0.0609309 0.000307641 -0.000575703)
(0.0604061 0.000282035 -0.000514868)
(0.0599237 0.000253112 -0.000442305)
(0.0594345 0.000234944 -0.00039336)
(0.0589767 0.000220933 -0.00036378)
(0.0564181 -6.92633e-05 0.000564873)
(0.0558513 -5.56456e-05 0.000535019)
(0.0552986 -4.42223e-05 0.000513207)
(0.0547495 -3.74368e-05 0.000493332)
(0.0911322 2.69586e-06 0.000808759)
(0.0908921 1.20034e-05 0.000800904)
(0.0906446 2.08041e-05 0.000790646)
(0.0903781 3.00556e-05 0.000783816)
(0.105778 0.00032254 0.000943905)
(0.105907 0.000325569 0.000951146)
(0.106024 0.000331206 0.000961766)
(0.106119 0.000339093 0.000974719)
(0.106208 0.000344952 0.000982506)
(0.112331 0.000716609 0.000660315)
(0.112591 0.000705677 0.000672342)
(0.112849 0.000692679 0.000681975)
(0.113101 0.000684755 0.000696991)
(0.113353 0.000683115 0.000717164)
(0.115779 0.00109538 0.000424624)
(0.116056 0.0010819 0.000430851)
(0.116333 0.00107254 0.000438376)
(0.116608 0.00106377 0.000445615)
(0.116887 0.00104635 0.000448227)
(0.117381 0.00134049 0.000278591)
(0.117644 0.00132984 0.00027277)
(0.117905 0.00132161 0.000268116)
(0.118165 0.00131876 0.000265918)
(0.118426 0.00131355 0.000264506)
(0.118688 0.0012963 0.000259109)
(0.116919 0.00139232 0.000156589)
(0.117163 0.00138986 0.000147412)
(0.117405 0.00138786 0.000139075)
(0.117641 0.00138283 0.000130636)
(0.117879 0.00137701 0.000121301)
(0.118117 0.00137045 0.000110788)
(0.113581 0.00123576 -4.83362e-06)
(0.113802 0.00123124 -1.12434e-05)
(0.114021 0.00123177 -2.00178e-05)
(0.114229 0.00124089 -3.28066e-05)
(0.11443 0.00125267 -4.8628e-05)
(0.114626 0.00126017 -6.541e-05)
(0.105769 0.000946882 -0.000328052)
(0.105895 0.000952241 -0.00033073)
(0.106014 0.000960528 -0.000336129)
(0.106108 0.00096617 -0.000340578)
(0.106204 0.000978103 -0.000349793)
(0.106279 0.00099174 -0.000362757)
(0.0884194 0.000441138 -0.00041303)
(0.0882407 0.000444318 -0.000402983)
(0.088037 0.000461266 -0.000406488)
(0.0878292 0.000476889 -0.000412278)
(0.0875906 0.000492324 -0.000421384)
(0.0873489 0.000508815 -0.000434825)
(0.0517424 0.000199235 -0.000240726)
(0.0512995 0.000192045 -0.00022949)
(0.0508496 0.000187458 -0.000221532)
(0.0504187 0.000181658 -0.000215641)
(0.0499687 0.000175002 -0.000211902)
(0.0495394 0.000166123 -0.000209273)
(0.0407827 7.5983e-05 0.000229498)
(0.0403723 7.79957e-05 0.000218417)
(0.0399619 8.08641e-05 0.00021112)
(0.0395577 8.20622e-05 0.000203316)
(0.0708753 0.000139288 0.000274874)
(0.0704188 0.000140899 0.000279129)
(0.0699781 0.000143983 0.000280995)
(0.0695244 0.00015054 0.000285801)
(0.0884399 0.000412 0.000443188)
(0.088256 0.000399472 0.000445795)
(0.088058 0.000400702 0.000461773)
(0.087847 0.000409955 0.000483517)
(0.087615 0.000416121 0.00049705)
(0.0970907 0.000757741 0.000305762)
(0.0970534 0.000736205 0.00031588)
(0.0970091 0.000725196 0.000333306)
(0.0969489 0.000715842 0.000350227)
(0.0968786 0.000709859 0.000367298)
(0.101873 0.001143 0.000256361)
(0.10184 0.00111958 0.000258724)
(0.101804 0.00110211 0.000263895)
(0.101764 0.00108258 0.000268167)
(0.10172 0.00106226 0.000271512)
(0.104414 0.00139233 0.000263937)
(0.104343 0.00136865 0.000252944)
(0.10427 0.0013557 0.00024757)
(0.104188 0.00134502 0.000242577)
(0.104105 0.00133349 0.000238489)
(0.104015 0.0013181 0.000235263)
(0.104286 0.00141927 0.000287246)
(0.104171 0.00140657 0.000273254)
(0.104055 0.00139575 0.000260877)
(0.103926 0.00138087 0.000249019)
(0.103795 0.00136086 0.000237665)
(0.103657 0.00134497 0.00022853)
(0.10046 0.00119697 0.000226522)
(0.100312 0.00118314 0.000211656)
(0.100161 0.00116133 0.000197533)
(0.1 0.00115515 0.000181815)
(0.0998298 0.00114728 0.000167204)
(0.0996531 0.00113339 0.000153914)
(0.0913464 0.000825025 -1.56153e-06)
(0.0911234 0.00081289 -8.84979e-06)
(0.0908825 0.000798971 -1.756e-05)
(0.0906329 0.000787523 -2.80053e-05)
(0.0903682 0.000780977 -3.92373e-05)
(0.0900928 0.000779376 -5.18858e-05)
(0.0713125 0.000261526 -0.000140021)
(0.0708724 0.000271789 -0.000142973)
(0.0704117 0.00027521 -0.000145366)
(0.0699729 0.000277323 -0.000150854)
(0.0695083 0.000278012 -0.000157621)
(0.0690611 0.000281763 -0.000166504)
(0.0385947 1.89041e-05 -6.30517e-05)
(0.0382152 2.10168e-05 -6.12194e-05)
(0.0378357 1.99641e-05 -6.15115e-05)
(0.0374726 1.53501e-05 -6.32612e-05)
(0.0371102 1.10927e-05 -6.59959e-05)
(0.0367553 7.63999e-06 -6.93139e-05)
(0.0243085 4.12667e-05 9.94598e-06)
(0.0240405 4.11984e-05 8.95421e-06)
(0.0237753 4.21205e-05 7.4455e-06)
(0.0235125 4.31048e-05 6.00455e-06)
(0.0382156 5.81918e-05 2.40177e-05)
(0.0378443 5.83947e-05 2.30094e-05)
(0.0374784 6.08951e-05 2.01881e-05)
(0.0371209 6.29128e-05 1.57271e-05)
(0.0517497 0.000239087 0.000205117)
(0.0513071 0.000225926 0.000193946)
(0.0508625 0.000216969 0.000186719)
(0.0504324 0.000211567 0.000181086)
(0.0499959 0.000207619 0.000174369)
(0.0614839 0.000601314 0.00032038)
(0.0609543 0.000573518 0.000309389)
(0.0604405 0.000514016 0.00028299)
(0.0599507 0.000440399 0.000251294)
(0.0594754 0.00039043 0.000232046)
(0.0684305 0.000982426 0.000369834)
(0.0677999 0.000948198 0.000361726)
(0.0671885 0.000907771 0.000356255)
(0.0665939 0.000861228 0.000351878)
(0.0660117 0.000813473 0.000347915)
(0.0720798 0.00119655 0.000369399)
(0.0713532 0.00116213 0.000361013)
(0.0706426 0.00112482 0.000351509)
(0.069955 0.00108696 0.000342013)
(0.0692815 0.00105007 0.000333828)
(0.0686312 0.00101444 0.000328086)
(0.071696 0.00122333 0.000341238)
(0.0709231 0.00118981 0.000336561)
(0.0701571 0.00115588 0.000328071)
(0.0694209 0.0011209 0.000318535)
(0.0686889 0.00108738 0.000309897)
(0.0679805 0.00105689 0.000302196)
(0.066581 0.00101731 0.000247679)
(0.065858 0.000986407 0.000231496)
(0.0651414 0.000958469 0.000214353)
(0.0644471 0.000930483 0.000200203)
(0.0637775 0.000903286 0.000190702)
(0.0631185 0.000880216 0.000183906)
(0.0569931 0.000612959 7.77615e-05)
(0.0564234 0.000564953 6.50304e-05)
(0.0558493 0.000535615 4.97682e-05)
(0.0552995 0.000514548 3.58135e-05)
(0.0547447 0.00049599 2.62045e-05)
(0.0542124 0.000478965 2.18747e-05)
(0.0412054 0.000248422 -8.13454e-05)
(0.0407869 0.000230971 -8.1026e-05)
(0.0403689 0.000218908 -8.39985e-05)
(0.0399626 0.00021034 -8.85906e-05)
(0.0395552 0.000203281 -9.23834e-05)
(0.0391563 0.000196765 -9.3068e-05)
(0.0245853 8.64604e-06 -4.5327e-05)
(0.024309 8.53909e-06 -4.38278e-05)
(0.0240375 7.18327e-06 -4.41013e-05)
(0.0237739 5.191e-06 -4.5707e-05)
(0.0235103 3.41863e-06 -4.75321e-05)
(0.0232495 2.43019e-06 -4.8769e-05)
)
;

boundaryField
{
    inlet
    {
        type            fixedValue;
        value           nonuniform List<vector> 0();
    }
    ami1
    {
        type            cyclicAMI;
        value           nonuniform List<vector> 0();
    }
    walls
    {
        type            noSlip;
    }
    ami2
    {
        type            cyclicAMI;
        value           nonuniform List<vector> 0();
    }
    outlet
    {
        type            zeroGradient;
    }
    procBoundary7to5
    {
        type            processor;
        value           nonuniform List<vector> 
131
(
(0.0229882 -2.97876e-06 4.46202e-05)
(0.0387507 -0.000191558 8.35037e-05)
(0.0536485 -0.000468692 -2.5184e-05)
(0.0624202 -0.000859247 -0.000179497)
(0.0672179 -0.00104155 -0.000298317)
(0.0679233 -0.000991739 -0.000330881)
(0.0648261 -0.000743878 -0.000350083)
(0.0584865 -0.000346414 -0.000212606)
(0.0490856 -0.000205285 -0.000155207)
(0.036398 -6.9526e-05 -3.6952e-06)
(0.0229873 -4.733e-05 -1.57563e-06)
(0.0364064 -7.55886e-06 6.65876e-05)
(0.0685862 -0.000281868 0.000161131)
(0.08979 -0.000771945 5.12306e-05)
(0.0994622 -0.00112422 -0.000146993)
(0.103502 -0.00133542 -0.000225366)
(0.103906 -0.00131262 -0.00023608)
(0.101598 -0.00103342 -0.000278502)
(0.0966842 -0.000699705 -0.000389576)
(0.0870638 -0.000436896 -0.000511928)
(0.068579 -0.000168576 -0.000278986)
(0.0387538 -8.82604e-05 -0.000189826)
(0.0491035 -0.000157601 0.000202136)
(0.0870838 -0.000517455 0.00043187)
(0.106353 -0.000998575 0.000362972)
(0.114813 -0.00126686 7.47618e-05)
(0.118357 -0.00137681 -0.000105907)
(0.118956 -0.00129761 -0.000259088)
(0.117451 -0.00103486 -0.000461999)
(0.113839 -0.000686355 -0.000747969)
(0.106348 -0.000368157 -0.000997755)
(0.08979 -5.838e-05 -0.000771194)
(0.0536592 2.16707e-05 -0.000465877)
(0.0585191 -0.000213041 0.000343939)
(0.0967027 -0.000392513 0.000694238)
(0.113836 -0.000752839 0.000686178)
(0.121598 -0.000914865 0.000356621)
(0.125064 -0.000967745 7.64693e-05)
(0.12592 -0.000868666 -0.00021957)
(0.124802 -0.00064821 -0.000542642)
(0.121596 -0.000358739 -0.000913921)
(0.11481 -7.95064e-05 -0.00126791)
(0.0994676 0.000141154 -0.00112288)
(0.0624478 0.00017693 -0.000856932)
(0.0648693 -0.000348427 0.0007406)
(0.101612 -0.000279736 0.00102916)
(0.117443 -0.000467601 0.00103262)
(0.124798 -0.000547424 0.000646472)
(0.12823 -0.000544613 0.000268765)
(0.129215 -0.000438018 -0.000126354)
(0.12823 -0.000270435 -0.000540935)
(0.125056 -7.83775e-05 -0.000966191)
(0.11835 0.00010185 -0.00137594)
(0.103506 0.000219137 -0.00133024)
(0.0672549 0.000293597 -0.00103915)
(0.0679785 -0.000329188 0.000986253)
(0.067977 -0.000305282 0.00105987)
(0.103913 -0.000236921 0.00130455)
(0.103651 -0.00023475 0.00134388)
(0.118948 -0.000264763 0.0012899)
(0.118116 -0.000119323 0.00136984)
(0.125911 -0.000224794 0.000863768)
(0.124665 6.61448e-05 0.000961367)
(0.129209 -0.000130089 0.000433709)
(0.127783 0.000263569 0.00053604)
(0.1302 -2.71382e-06 -7.22214e-07)
(0.129212 0.00012418 -0.000435692)
(0.125915 0.000217213 -0.000867377)
(0.118951 0.000255821 -0.00129642)
(0.10391 0.000230815 -0.00131066)
(0.067956 0.000323687 -0.000990651)
(0.067977 -0.000305282 0.00105987)
(0.103651 -0.00023475 0.00134388)
(0.118116 -0.000119323 0.00136984)
(0.124665 6.61448e-05 0.000961367)
(0.127783 0.000263569 0.00053604)
(0.127783 0.000263569 0.00053604)
(0.129209 0.000431473 0.000125177)
(0.128229 0.000538018 -0.000269152)
(0.124803 0.000539263 -0.000647583)
(0.117451 0.000457948 -0.00103443)
(0.101603 0.000274345 -0.0010341)
(0.0648502 0.000343508 -0.000742143)
(0.0631162 -0.0001907 0.00088264)
(0.0996589 -0.000163804 0.00112947)
(0.114626 5.65916e-05 0.00125638)
(0.121242 0.000348121 0.000902121)
(0.124396 0.000645053 0.000535425)
(0.124396 0.000645053 0.000535425)
(0.125912 0.000862568 0.00021873)
(0.125058 0.000961092 -7.7084e-05)
(0.121601 0.000908885 -0.000358047)
(0.113841 0.000742477 -0.000686198)
(0.0966923 0.000385745 -0.000700058)
(0.0585042 0.000209346 -0.00034642)
(0.0542164 -3.30814e-05 0.000477864)
(0.0900993 3.82516e-05 0.000776245)
(0.106286 0.000350507 0.000987665)
(0.113594 0.000680434 0.000733225)
(0.117166 0.00103168 0.000452771)
(0.117166 0.00103168 0.000452771)
(0.118951 0.00128507 0.000255846)
(0.118353 0.00136767 0.000101549)