/*--------------------------------*- C++ -*----------------------------------*\
| =========                 |                                                 |
| \\      /  F ield         | OpenFOAM: The Open Source CFD Toolbox           |
|  \\    /   O peration     | Version:  2212                                  |
|   \\  /    A nd           | Website:  www.openfoam.com                      |
|    \\/     M anipulation  |                                                 |
\*---------------------------------------------------------------------------*/
FoamFile
{
    version     2.0;
    format      ascii;
    arch        "LSB;label=32;scalar=64";
    class       surfaceVectorField;
    location    "1.85";
    object      Uf;
}
// * * * * * * * * * * * * * * * * * * * * * * * * * * * * * * * * * * * * * //

dimensions      [0 1 -1 0 0 0 0];

internalField   nonuniform List<vector> 
1826
(
(0.0244411 -1.02688e-05 4.18552e-05)
(0.0312268 -0.000115639 6.60564e-05)
(0.030185 1.79395e-05 4.06659e-05)
(0.0241681 -9.82927e-06 4.07644e-05)
(0.0308902 -0.000106564 6.18178e-05)
(0.0298639 1.34439e-05 3.91338e-05)
(0.0238997 -8.25644e-06 4.15482e-05)
(0.0305608 -0.000101113 6.25068e-05)
(0.0295499 1.2126e-05 4.01284e-05)
(0.0236359 -6.40218e-06 4.30534e-05)
(0.0302393 -9.66989e-05 6.51492e-05)
(0.0292462 1.31983e-05 4.21332e-05)
(0.0233738 -5.08762e-06 4.44699e-05)
(0.0299172 -9.33273e-05 6.77292e-05)
(0.0289428 1.39182e-05 4.47274e-05)
(0.0296008 -9.05243e-05 6.89359e-05)
(0.0286449 1.43244e-05 4.71823e-05)
(0.0409849 -0.000240202 7.67099e-05)
(0.0482325 -0.00041857 1.54184e-05)
(0.0545286 -0.000184631 9.2193e-05)
(0.0405682 -0.000225601 7.65689e-05)
(0.0477363 -0.000386803 1.80765e-05)
(0.0540923 -0.000182568 9.19269e-05)
(0.0401547 -0.000215887 7.97959e-05)
(0.0472521 -0.000367459 2.53324e-05)
(0.0536587 -0.00018267 9.50817e-05)
(0.0397469 -0.000208245 8.34342e-05)
(0.0467793 -0.000351831 3.15395e-05)
(0.0532361 -0.00018104 9.94221e-05)
(0.0393432 -0.000201895 8.54907e-05)
(0.0463043 -0.000339179 3.63592e-05)
(0.0528022 -0.000180566 0.000104468)
(0.045844 -0.000327544 3.75123e-05)
(0.0523813 -0.000181593 0.0001091)
(0.0566936 -0.000590757 -7.53016e-05)
(0.0614707 -0.000795166 -0.000174407)
(0.0727871 -0.000653538 -4.79672e-05)
(0.0561198 -0.000552673 -6.26397e-05)
(0.0608116 -0.00075969 -0.000156531)
(0.0723678 -0.000623466 -3.97003e-05)
(0.0555561 -0.000527416 -4.92105e-05)
(0.0601777 -0.000731873 -0.000140061)
(0.0719511 -0.000605982 -2.71185e-05)
(0.0550021 -0.000507637 -3.83575e-05)
(0.0595535 -0.000709237 -0.000125056)
(0.0715353 -0.000588893 -1.62295e-05)
(0.0544555 -0.000490526 -3.146e-05)
(0.058941 -0.000688751 -0.000114039)
(0.0711125 -0.000577544 -5.99545e-06)
(0.0583438 -0.0006702 -0.000107453)
(0.0706954 -0.000568327 2.19499e-06)
(0.0662002 -0.00100426 -0.000244929)
(0.069027 -0.00111416 -0.00030708)
(0.0824344 -0.00105072 -0.000239264)
(0.0654757 -0.000976377 -0.000228358)
(0.0682675 -0.00108381 -0.000297263)
(0.0819741 -0.00102568 -0.000224162)
(0.0647695 -0.000949312 -0.000213009)
(0.067531 -0.00105334 -0.000284844)
(0.0815241 -0.00100333 -0.000208361)
(0.0640811 -0.000923579 -0.000200996)
(0.0668073 -0.00102332 -0.000273432)
(0.0810741 -0.00098383 -0.000194173)
(0.0634078 -0.00089985 -0.000192393)
(0.0661038 -0.000994019 -0.000265402)
(0.0806361 -0.000968194 -0.000182082)
(0.0654123 -0.000968912 -0.00025717)
(0.0801985 -0.000952006 -0.000171941)
(0.0712711 -0.00120922 -0.000345217)
(0.071845 -0.00121242 -0.000363356)
(0.0870658 -0.00127341 -0.000313171)
(0.0704987 -0.00117704 -0.000337945)
(0.0710899 -0.00117949 -0.000357048)
(0.0866009 -0.00125051 -0.000303949)
(0.0697425 -0.00114424 -0.000327888)
(0.0703491 -0.00114526 -0.000346027)
(0.08614 -0.00122701 -0.00029295)
(0.0690021 -0.0011118 -0.000317601)
(0.0696302 -0.00111061 -0.000333146)
(0.0856867 -0.00120217 -0.000281537)
(0.0682768 -0.00108142 -0.000308797)
(0.0689252 -0.00107739 -0.000321741)
(0.0852359 -0.0011761 -0.000271102)
(0.0682377 -0.0010457 -0.000314749)
(0.0847922 -0.0011536 -0.000262506)
(0.0716692 -0.00118404 -0.000370752)
(0.0701903 -0.00109378 -0.000374487)
(0.0873642 -0.00125563 -0.00031258)
(0.0709475 -0.00114885 -0.000361162)
(0.0695088 -0.00105992 -0.000364271)
(0.0869451 -0.00122676 -0.00030318)
(0.0702429 -0.00111164 -0.000350434)
(0.068842 -0.00102122 -0.000354196)
(0.086534 -0.00120017 -0.000294564)
(0.0695575 -0.00107476 -0.000340494)
(0.0682003 -0.000979025 -0.000346605)
(0.0861305 -0.00117518 -0.000286315)
(0.0688912 -0.00103944 -0.000333042)
(0.0675665 -0.000937452 -0.000340704)
(0.0857339 -0.0011508 -0.000279105)
(0.0669574 -0.000898606 -0.000336524)
(0.0853456 -0.00112571 -0.000274689)
(0.0680714 -0.00097135 -0.000370945)
(0.0647922 -0.000792071 -0.000340316)
(0.0841998 -0.00103143 -0.000307251)
(0.0674465 -0.000933288 -0.000363357)
(0.0642193 -0.000759105 -0.000330498)
(0.0838491 -0.00100094 -0.000303107)
(0.0668377 -0.000889171 -0.000358598)
(0.0636475 -0.000706804 -0.000319916)
(0.0835061 -0.000971922 -0.000302952)
(0.066245 -0.000842417 -0.000354841)
(0.0631111 -0.00064635 -0.000307448)
(0.0831731 -0.000938407 -0.000302864)
(0.0656678 -0.000797667 -0.000351103)
(0.0625707 -0.000598362 -0.000297759)
(0.0828399 -0.000905647 -0.000302662)
(0.0620612 -0.000562246 -0.000289628)
(0.0825162 -0.000875925 -0.000302843)
(0.061183 -0.000591397 -0.000316295)
(0.0562741 -0.000412035 -0.000248256)
(0.0781306 -0.000650444 -0.000300305)
(0.0606593 -0.000545252 -0.000297339)
(0.0557986 -0.000391463 -0.000242023)
(0.0778352 -0.000629358 -0.00030193)
(0.0601534 -0.000478516 -0.00027047)
(0.0553097 -0.000358662 -0.000228372)
(0.077534 -0.000594479 -0.000297526)
(0.0596673 -0.000418007 -0.000246894)
(0.0548533 -0.000321777 -0.000211618)
(0.0772471 -0.000555087 -0.000291544)
(0.0591917 -0.000378783 -0.000230526)
(0.0543824 -0.000296917 -0.000199044)
(0.0769521 -0.000529811 -0.000291089)
(0.0539379 -0.000281542 -0.000186652)
(0.0766693 -0.000514553 -0.000292245)
(0.0515132 -0.000235072 -0.000197722)
(0.0444461 -0.000148029 -0.000147669)
(0.0686032 -0.000298076 -0.000297382)
(0.0510669 -0.000225494 -0.000191984)
(0.0440397 -0.000141335 -0.000140042)
(0.0682826 -0.000290079 -0.000297164)
(0.0506234 -0.000218675 -0.000186647)
(0.0436245 -0.000137323 -0.000132268)
(0.0679429 -0.000289 -0.000303184)
(0.0501825 -0.000213842 -0.000180076)
(0.0432304 -0.00013517 -0.000122627)
(0.0676133 -0.000290394 -0.000308725)
(0.0497419 -0.00021051 -0.000172099)
(0.0428266 -0.000134481 -0.000114212)
(0.0672588 -0.000292842 -0.000312409)
(0.0424375 -0.000134706 -0.000106449)
(0.066914 -0.000296901 -0.000315132)
(0.0383989 -6.2011e-05 -2.08194e-05)
(0.0301844 -4.30981e-05 2.0737e-05)
(0.0530718 -8.64139e-05 -0.000117441)
(0.0380187 -6.13002e-05 -2.14363e-05)
(0.0298664 -4.23346e-05 1.64373e-05)
(0.0526658 -8.63663e-05 -0.000123124)
(0.0376465 -6.22828e-05 -1.84533e-05)
(0.0295495 -4.3177e-05 1.54343e-05)
(0.0522467 -8.85708e-05 -0.000124833)
(0.0372821 -6.44415e-05 -1.4109e-05)
(0.0292453 -4.53871e-05 1.61355e-05)
(0.051849 -9.33316e-05 -0.000124743)
(0.0369235 -6.72768e-05 -1.05068e-05)
(0.0289404 -4.78519e-05 1.69429e-05)
(0.0514393 -9.87297e-05 -0.000123982)
(0.0286414 -5.01162e-05 1.69849e-05)
(0.0510424 -0.000105238 -0.000125301)
(0.0244434 -4.46753e-05 -8.62016e-06)
(0.0312278 -6.95567e-05 -0.000114628)
(0.0241691 -4.39365e-05 -8.01485e-06)
(0.0308944 -6.64009e-05 -0.000105889)
(0.023901 -4.47581e-05 -6.40418e-06)
(0.0305622 -6.71827e-05 -9.99092e-05)
(0.0236359 -4.62742e-05 -4.64824e-06)
(0.0302407 -6.99385e-05 -9.56872e-05)
(0.0233733 -4.75125e-05 -3.40919e-06)
(0.0299177 -7.241e-05 -9.21845e-05)
(0.0296009 -7.31505e-05 -8.93163e-05)
(0.0383984 -2.47155e-05 5.89586e-05)
(0.0530767 -0.000121178 8.22841e-05)
(0.0444494 -0.000151756 0.00014481)
(0.0380198 -2.54691e-05 5.79353e-05)
(0.052662 -0.000125944 8.05833e-05)
(0.044037 -0.000143666 0.000137385)
(0.0376484 -2.22969e-05 5.88911e-05)
(0.0522499 -0.000129144 8.3806e-05)
(0.0436292 -0.000135272 0.000133438)
(0.0372868 -1.78196e-05 6.09916e-05)
(0.0518521 -0.00012809 8.76462e-05)
(0.0432355 -0.000124872 0.000131167)
(0.0369297 -1.42223e-05 6.40254e-05)
(0.0514442 -0.00012778 9.31857e-05)
(0.0428344 -0.000117262 0.000131013)
(0.0510491 -0.000128439 9.97857e-05)
(0.0424479 -0.000109211 0.000131334)
(0.0710828 -0.000270337 0.000135661)
(0.0805851 -0.000552156 0.000108793)
(0.0792376 -0.000406166 0.000263464)
(0.0706338 -0.000277577 0.00013773)
(0.0802389 -0.000548834 0.000111365)
(0.0789085 -0.000410151 0.000259754)
(0.0701829 -0.00028102 0.000141048)
(0.0798842 -0.00054654 0.000114495)
(0.0785735 -0.000415708 0.000262666)
(0.069731 -0.000282723 0.000146218)
(0.0795297 -0.000539366 0.000118208)
(0.078236 -0.000418777 0.000266313)
(0.0692751 -0.000285546 0.00015367)
(0.0791572 -0.000536364 0.000124434)
(0.0778795 -0.000423563 0.000273938)
(0.0787882 -0.000535617 0.000131772)
(0.077525 -0.000429397 0.000284797)
(0.0912295 -0.000819949 -1.87143e-06)
(0.0956784 -0.00100005 -0.000126191)
(0.098154 -0.00093076 0.00014732)
(0.0909987 -0.000808079 5.72968e-06)
(0.0954946 -0.000981803 -0.000116754)
(0.0980968 -0.0009225 0.000151684)
(0.090753 -0.000797988 1.53895e-05)
(0.095295 -0.000972078 -0.000102752)
(0.0980262 -0.000920604 0.000159988)
(0.0904947 -0.000788677 2.55439e-05)
(0.0950854 -0.000959385 -8.92532e-05)
(0.0979366 -0.000915374 0.000166958)
(0.0902217 -0.000785323 3.74311e-05)
(0.0948665 -0.000954806 -7.47158e-05)
(0.0978427 -0.000918315 0.00017781)
(0.0946366 -0.000949351 -5.97227e-05)
(0.0977297 -0.00092346 0.000190267)
(0.100376 -0.00119401 -0.000224769)
(0.102311 -0.00131159 -0.000259898)
(0.106711 -0.00126871 -0.000127102)
(0.100226 -0.00117653 -0.000210689)
(0.102183 -0.00129548 -0.000246883)
(0.106744 -0.0012558 -0.000117031)
(0.100069 -0.00116215 -0.00019607)
(0.102045 -0.00128211 -0.00023299)
(0.106765 -0.00124735 -0.000105054)
(0.0999028 -0.00115225 -0.000181541)
(0.1019 -0.00126745 -0.000221221)
(0.10678 -0.00124313 -9.11267e-05)
(0.0997291 -0.00114335 -0.000167442)
(0.101748 -0.00125461 -0.000208739)
(0.106787 -0.00124601 -7.51891e-05)
(0.10159 -0.00124049 -0.000197043)
(0.106788 -0.00124242 -6.02799e-05)
(0.104222 -0.00141852 -0.000284824)
(0.104343 -0.00141065 -0.000279316)
(0.110341 -0.00145798 -0.000237954)
(0.104104 -0.00140677 -0.000271792)
(0.10425 -0.0013935 -0.000267612)
(0.110399 -0.00145067 -0.000226487)
(0.10398 -0.00139369 -0.000259559)
(0.104153 -0.00138145 -0.000259035)
(0.110452 -0.00144324 -0.000215755)
(0.103849 -0.0013767 -0.00024804)
(0.104048 -0.00137032 -0.000250368)
(0.110499 -0.00143281 -0.000205747)
(0.103713 -0.00135858 -0.000237615)
(0.103937 -0.00135547 -0.000241746)
(0.110543 -0.0014208 -0.000195616)
(0.103823 -0.00134036 -0.000236528)
(0.110586 -0.0014101 -0.000185914)
(0.104373 -0.00138559 -0.000261152)
(0.103127 -0.00127069 -0.000261747)
(0.110641 -0.00141628 -0.000285798)
(0.1043 -0.00136827 -0.000253402)
(0.103074 -0.00124699 -0.000257473)
(0.11073 -0.00139926 -0.000277407)
(0.104222 -0.00135822 -0.000248392)
(0.10302 -0.0012347 -0.000257689)
(0.110817 -0.00138917 -0.000272292)
(0.104138 -0.00134897 -0.000243659)
(0.102957 -0.0012215 -0.000257361)
(0.110899 -0.00138315 -0.000268636)
(0.104049 -0.00133728 -0.000240031)
(0.102893 -0.00120794 -0.000257921)
(0.11098 -0.00137727 -0.000266065)
(0.10282 -0.00119407 -0.000258787)
(0.111059 -0.00136485 -0.000263312)
(0.101849 -0.00113402 -0.000259058)
(0.0994109 -0.000946419 -0.000279058)
(0.108537 -0.00116534 -0.000354024)
(0.101815 -0.00111512 -0.000263622)
(0.0993712 -0.000928359 -0.000288922)
(0.108652 -0.00114579 -0.000357802)
(0.101777 -0.00109955 -0.000269219)
(0.0993318 -0.000916102 -0.00029942)
(0.108768 -0.00113431 -0.000364443)
(0.101733 -0.00108228 -0.000273375)
(0.0992785 -0.000902073 -0.000307981)
(0.108877 -0.00112037 -0.000369186)
(0.101682 -0.00106672 -0.000277765)
(0.0992207 -0.000891864 -0.000316853)
(0.108989 -0.00110739 -0.000374269)
(0.0991511 -0.000884225 -0.00032799)
(0.109093 -0.00109341 -0.000379512)
(0.0970603 -0.000750071 -0.000313252)
(0.092543 -0.000577345 -0.000370857)
(0.104354 -0.000777488 -0.000493683)
(0.0970163 -0.000738341 -0.00032948)
(0.0924271 -0.000567085 -0.00038246)
(0.104453 -0.000764511 -0.000507065)
(0.0969621 -0.000727178 -0.000344828)
(0.092299 -0.000562039 -0.000400728)
(0.104555 -0.000749699 -0.000517704)
(0.0968954 -0.00071948 -0.000360804)
(0.0921593 -0.000560034 -0.000420831)
(0.104642 -0.000736781 -0.00052948)
(0.096817 -0.000716569 -0.000377915)
(0.092 -0.000561975 -0.000439922)
(0.104727 -0.000733567 -0.000548432)
(0.0918335 -0.000568509 -0.000459107)
(0.104799 -0.000733655 -0.000567875)
(0.0883241 -0.000409673 -0.000445747)
(0.0792255 -0.000269273 -0.000403052)
(0.0966052 -0.000408055 -0.000700742)
(0.0881306 -0.000406002 -0.000455351)
(0.0789059 -0.000266569 -0.000407177)
(0.0965684 -0.000403538 -0.000705914)
(0.0879235 -0.000409878 -0.000471139)
(0.078562 -0.000268199 -0.00041135)
(0.0965179 -0.000404614 -0.000716514)
(0.0877004 -0.000417269 -0.000487206)
(0.0782285 -0.000273759 -0.00041543)
(0.0964516 -0.000409107 -0.000728032)
(0.0874585 -0.000428314 -0.000503578)
(0.0778672 -0.000280964 -0.000419233)
(0.0963706 -0.000417366 -0.000741838)
(0.0775132 -0.00029174 -0.000426255)
(0.0962773 -0.000430168 -0.000757554)
(0.0710833 -0.000142101 -0.000267049)
(0.054526 -9.70158e-05 -0.000181977)
(0.080582 -0.000114513 -0.000548461)
(0.0706327 -0.000144522 -0.000273838)
(0.0540984 -9.8418e-05 -0.000181135)
(0.080243 -0.000119085 -0.000549012)
(0.0701807 -0.000148188 -0.000276871)
(0.0536581 -0.000101372 -0.000179444)
(0.0798815 -0.000121751 -0.000542918)
(0.069727 -0.000153999 -0.000278842)
(0.0532362 -0.000106511 -0.00017887)
(0.079529 -0.00012671 -0.000537689)
(0.0692702 -0.000161468 -0.000281933)
(0.0528012 -0.0001114 -0.000177873)
(0.0791553 -0.000132462 -0.000533612)
(0.0523795 -0.000115574 -0.000178944)
(0.0787856 -0.000139508 -0.000533566)
(0.04099 -8.18386e-05 -0.000239754)
(0.0482317 -1.94744e-05 -0.000417877)
(0.0405711 -8.27831e-05 -0.000225319)
(0.0477453 -2.41369e-05 -0.000386915)
(0.0401579 -8.62767e-05 -0.000215311)
(0.047255 -3.13363e-05 -0.000366668)
(0.0397486 -8.99353e-05 -0.000207631)
(0.0467835 -3.7999e-05 -0.000351378)
(0.0393447 -9.14552e-05 -0.000200829)
(0.0463082 -4.23936e-05 -0.000338063)
(0.0458485 -4.27054e-05 -0.000325754)
(0.051513 -0.000201659 0.000230842)
(0.0686133 -0.000301128 0.000294021)
(0.0562903 -0.000252129 0.000406546)
(0.05107 -0.000194357 0.000220882)
(0.0682865 -0.000299995 0.000284608)
(0.0558013 -0.00024437 0.00038692)
(0.0506298 -0.000188168 0.000214096)
(0.067956 -0.000306438 0.000284202)
(0.0553285 -0.000229245 0.000354537)
(0.0501923 -0.000182114 0.000209841)
(0.0676233 -0.000310996 0.000284783)
(0.0548646 -0.000212848 0.000317895)
(0.0497537 -0.000174112 0.000206895)
(0.0672745 -0.000315789 0.000288275)
(0.0544044 -0.000201187 0.000293748)
(0.0669302 -0.000317632 0.000291916)
(0.0539587 -0.000186367 0.000278201)
(0.0883379 -0.000447725 0.000403479)
(0.0966174 -0.000701916 0.000401617)
(0.0925551 -0.000372683 0.000573597)
(0.0881466 -0.000459389 0.000400561)
(0.0965796 -0.000707535 0.0003972)
(0.0924406 -0.00038368 0.000560332)
(0.0879401 -0.000475519 0.000404175)
(0.0965315 -0.000719942 0.000399416)
(0.0923141 -0.000404464 0.00055649)
(0.0877181 -0.000490791 0.000410658)
(0.0964613 -0.000730103 0.000402498)
(0.0921737 -0.000423378 0.000552899)
(0.0874775 -0.00050768 0.000422281)
(0.0963856 -0.000744604 0.000411348)
(0.0920184 -0.000444002 0.000557786)
(0.0962891 -0.000760568 0.000424583)
(0.0918499 -0.000460621 0.000560179)
(0.10584 -0.000952268 0.000323401)
(0.109532 -0.00108228 0.000151845)
(0.108932 -0.000801409 0.000512777)
(0.10596 -0.000960389 0.000328044)
(0.109706 -0.00108448 0.000158571)
(0.109124 -0.000812304 0.000509529)
(0.106068 -0.000968265 0.000333215)
(0.109871 -0.00109005 0.000167904)
(0.109308 -0.000824284 0.000506059)
(0.106162 -0.00097844 0.000340629)
(0.110021 -0.00109826 0.00017704)
(0.109479 -0.000834905 0.000504755)
(0.106245 -0.000992335 0.000351947)
(0.110167 -0.00111249 0.000190632)
(0.109649 -0.0008519 0.000510238)
(0.110298 -0.00112345 0.000206206)
(0.109804 -0.000870146 0.000517492)
(0.113693 -0.00123826 3.283e-06)
(0.115216 -0.0013177 -7.67965e-05)
(0.11643 -0.00104508 0.000165913)
(0.113912 -0.00123568 1.0871e-05)
(0.11545 -0.00131416 -6.99752e-05)
(0.11672 -0.00104618 0.000169083)
(0.114125 -0.00124022 2.17314e-05)
(0.115677 -0.00131286 -6.19197e-05)
(0.117004 -0.00105042 0.00017368)
(0.114329 -0.0012523 3.67693e-05)
(0.115901 -0.00131478 -5.05798e-05)
(0.117285 -0.00106088 0.000181596)
(0.114526 -0.00126283 5.34494e-05)
(0.116119 -0.00132023 -3.62721e-05)
(0.117559 -0.00107794 0.000194557)
(0.116335 -0.00132136 -2.30326e-05)
(0.117831 -0.00108733 0.000205971)
(0.117045 -0.00139637 -0.000155051)
(0.117152 -0.00137082 -0.000221609)
(0.119744 -0.00116993 -5.18433e-05)
(0.117287 -0.0013947 -0.000146245)
(0.117406 -0.00136527 -0.000213792)
(0.12006 -0.00117002 -4.62411e-05)
(0.117526 -0.00139053 -0.00013795)
(0.117657 -0.00136057 -0.000208028)
(0.120371 -0.00117103 -4.12683e-05)
(0.117764 -0.00138474 -0.000129282)
(0.117906 -0.00135533 -0.000203362)
(0.120682 -0.00117032 -3.59751e-05)
(0.118002 -0.00137999 -0.000119766)
(0.118154 -0.00135149 -0.00019899)
(0.120993 -0.00117183 -2.89344e-05)
(0.118405 -0.00134251 -0.00019231)
(0.121305 -0.0011709 -2.14703e-05)
(0.117516 -0.00134049 -0.000277562)
(0.116576 -0.00122217 -0.000352795)
(0.120367 -0.00110741 -0.000249511)
(0.117778 -0.00133206 -0.00027219)
(0.116846 -0.00121091 -0.000352232)
(0.120696 -0.00110059 -0.000245797)
(0.118039 -0.00132675 -0.000268646)
(0.117116 -0.00120326 -0.000352681)
(0.121024 -0.00109729 -0.000243464)
(0.1183 -0.00132385 -0.000267138)
(0.117384 -0.00119741 -0.000353684)
(0.121351 -0.00109653 -0.000242601)
(0.118561 -0.00131594 -0.000265088)
(0.117654 -0.00119128 -0.000356117)
(0.121681 -0.00109766 -0.000243199)
(0.117925 -0.00117752 -0.000356819)
(0.122011 -0.00109007 -0.000241077)
(0.115917 -0.00109353 -0.000429479)
(0.114016 -0.000906864 -0.000546267)
(0.119001 -0.000877327 -0.000465067)
(0.116194 -0.00108278 -0.000435797)
(0.114283 -0.000894749 -0.000555022)
(0.119336 -0.000868567 -0.000469459)
(0.116472 -0.00107429 -0.000442)
(0.114553 -0.000884006 -0.000561742)
(0.119671 -0.000863669 -0.000474762)
(0.116749 -0.00106504 -0.000447761)
(0.114817 -0.000874689 -0.000570031)
(0.120006 -0.000859317 -0.000480286)
(0.117028 -0.00105295 -0.000453442)
(0.115084 -0.000871435 -0.0005861)
(0.120344 -0.00085596 -0.000488264)
(0.115344 -0.000866018 -0.000601372)
(0.120682 -0.000847926 -0.000494573)
(0.112456 -0.000715619 -0.000669615)
(0.108925 -0.00051761 -0.000800675)
(0.11578 -0.00052296 -0.000752536)
(0.112716 -0.000703501 -0.000678905)
(0.109114 -0.000514499 -0.000811689)
(0.116087 -0.000518931 -0.000761499)
(0.112973 -0.000691934 -0.000687988)
(0.109303 -0.00051061 -0.000822268)
(0.116396 -0.000513724 -0.000769193)
(0.113226 -0.000688728 -0.000705098)
(0.109473 -0.000508132 -0.000832637)
(0.116699 -0.000510197 -0.000779638)
(0.113474 -0.000692218 -0.000728225)
(0.109646 -0.000514721 -0.000850591)
(0.117004 -0.000516766 -0.00080122)
(0.109801 -0.000523112 -0.000868892)
(0.117299 -0.000522607 -0.00081933)
(0.105831 -0.000328625 -0.000950747)
(0.0981521 -0.000152524 -0.000928556)
(0.109527 -0.000155952 -0.00108041)
(0.105953 -0.000333584 -0.000959226)
(0.0980932 -0.000159178 -0.000924549)
(0.109698 -0.000163429 -0.00108388)
(0.10606 -0.000338681 -0.00096697)
(0.0980226 -0.000166272 -0.000918691)
(0.109866 -0.000172368 -0.00108932)
(0.106156 -0.000345807 -0.000976877)
(0.0979347 -0.000174068 -0.000914333)
(0.110015 -0.000181705 -0.00109779)
(0.10624 -0.00035699 -0.000990522)
(0.0978396 -0.0001841 -0.00091645)
(0.110161 -0.000194494 -0.00111055)
(0.0977283 -0.000196673 -0.000922535)
(0.110294 -0.000210617 -0.0011223)
(0.0912322 -5.53006e-06 -0.000820206)
(0.0727862 4.28347e-05 -0.000651239)
(0.0956854 0.000120473 -0.000996985)
(0.0909991 -1.38565e-05 -0.000808583)
(0.0723752 3.24735e-05 -0.000624133)
(0.0954975 0.000108936 -0.000985171)
(0.0907537 -2.31836e-05 -0.000796441)
(0.0719527 2.05649e-05 -0.000604048)
(0.0952993 9.62875e-05 -0.000968795)
(0.0904956 -3.35786e-05 -0.000787862)
(0.0715396 8.72713e-06 -0.000588721)
(0.0950905 8.20645e-05 -0.000961057)
(0.0902228 -4.49586e-05 -0.00078402)
(0.0711166 -8.96171e-07 -0.000575971)
(0.0948702 6.8107e-05 -0.000954252)
(0.0707003 -8.38711e-06 -0.000566313)
(0.0946401 5.30498e-05 -0.00094883)
(0.0566996 7.00891e-05 -0.00059086)
(0.0614709 0.000169298 -0.000796218)
(0.0561254 5.67521e-05 -0.00055233)
(0.0608283 0.000151351 -0.00075909)
(0.0555627 4.28215e-05 -0.000527118)
(0.060185 0.000134314 -0.000731337)
(0.0550083 3.18583e-05 -0.000507105)
(0.0595662 0.000118661 -0.000708294)
(0.054463 2.57282e-05 -0.000489044)
(0.0589549 0.000108263 -0.000686577)
(0.05836 0.000102857 -0.000667073)
(0.0612016 -0.000318661 0.000585487)
(0.0781495 -0.000303004 0.000645602)
(0.0648202 -0.000339958 0.000784582)
(0.0606805 -0.000299591 0.000541229)
(0.0778472 -0.000303905 0.000624121)
(0.0642376 -0.000332314 0.000753222)
(0.0601768 -0.000271599 0.000475165)
(0.0775554 -0.000299167 0.000589753)
(0.0636808 -0.000320734 0.000702267)
(0.0596937 -0.000247649 0.000415023)
(0.0772627 -0.000293042 0.000550562)
(0.063135 -0.00030747 0.000642521)
(0.0592207 -0.000230863 0.000375936)
(0.0769775 -0.000293948 0.000527055)
(0.0626079 -0.000297053 0.000594999)
(0.0766908 -0.000291647 0.000508242)
(0.0620946 -0.000290253 0.000559128)
(0.0970712 -0.000315429 0.00074578)
(0.10436 -0.000495351 0.000773517)
(0.0994188 -0.000282595 0.000943629)
(0.0970282 -0.000330322 0.000731404)
(0.104466 -0.000507303 0.000758251)
(0.0993848 -0.000290396 0.000923208)
(0.0969758 -0.000346386 0.000720147)
(0.104562 -0.000519277 0.000743951)
(0.0993407 -0.00030102 0.000909244)
(0.0969098 -0.000364452 0.000714819)
(0.104653 -0.000532275 0.000731765)
(0.0992925 -0.00030918 0.000894811)
(0.0968315 -0.000379893 0.000710019)
(0.104734 -0.000551975 0.000730189)
(0.0992331 -0.000320714 0.000887279)
(0.104807 -0.000567038 0.000725088)
(0.0991642 -0.000327502 0.000874612)
(0.112465 -0.000669871 0.000711003)
(0.115786 -0.000752848 0.000520047)
(0.114022 -0.000547224 0.000902277)
(0.112723 -0.00068037 0.000699583)
(0.116096 -0.000762189 0.00051594)
(0.11429 -0.000556262 0.000890591)
(0.112978 -0.000691403 0.000689544)
(0.116401 -0.000770643 0.000511039)
(0.114556 -0.000564157 0.000880388)
(0.113228 -0.000708188 0.000686012)
(0.116705 -0.000782348 0.000508946)
(0.114821 -0.000574376 0.000872532)
(0.113475 -0.000729017 0.000687149)
(0.117005 -0.00080252 0.000514154)
(0.115082 -0.000588853 0.000867117)
(0.117302 -0.000819783 0.000518369)
(0.115343 -0.000602958 0.000861511)
(0.119644 -0.000861344 0.000338636)
(0.121067 -0.000906059 0.000202268)
(0.120912 -0.000691689 0.000498758)
(0.120003 -0.000867515 0.000338948)
(0.121442 -0.000908745 0.000202215)
(0.12129 -0.000695325 0.000496226)
(0.12036 -0.000875875 0.000340658)
(0.121814 -0.000913237 0.000202948)
(0.121666 -0.000699983 0.000495321)
(0.120715 -0.000890408 0.00034638)
(0.122186 -0.000920444 0.00020634)
(0.122041 -0.000708227 0.000496014)
(0.121069 -0.000906435 0.000353794)
(0.122558 -0.000934611 0.000214007)
(0.122417 -0.000724151 0.000501382)
(0.122928 -0.000942309 0.00021987)
(0.122793 -0.000735166 0.000502595)
(0.122925 -0.000954081 5.76309e-05)
(0.123121 -0.000917364 -8.48242e-05)
(0.124134 -0.000747312 0.000162179)
(0.123314 -0.00095553 5.95312e-05)
(0.123515 -0.000915123 -8.2792e-05)
(0.124548 -0.000748119 0.000162543)
(0.123702 -0.000958679 6.16844e-05)
(0.123908 -0.000915414 -8.16082e-05)
(0.124961 -0.0007502 0.000163139)
(0.12409 -0.000964807 6.53941e-05)
(0.124301 -0.000917279 -8.10847e-05)
(0.125374 -0.00075306 0.00016453)
(0.12448 -0.000970051 7.0338e-05)
(0.124698 -0.000923452 -7.9998e-05)
(0.125791 -0.000759561 0.000167661)
(0.125092 -0.000923252 -7.69474e-05)
(0.126205 -0.000761988 0.000169955)
(0.123715 -0.000879104 -0.000223202)
(0.12296 -0.000774181 -0.000367795)
(0.124983 -0.000666022 -0.000175259)
(0.124114 -0.000875614 -0.000222089)
(0.123357 -0.000768891 -0.000368222)
(0.125408 -0.000662686 -0.000174496)
(0.124513 -0.000874796 -0.0002219)
(0.123755 -0.000766489 -0.000369475)
(0.125833 -0.000661323 -0.000174261)
(0.124913 -0.000877037 -0.000222878)
(0.124153 -0.000766068 -0.000371679)
(0.126258 -0.000661398 -0.00017464)
(0.125316 -0.000877889 -0.000223229)
(0.124554 -0.000769649 -0.000376844)
(0.126686 -0.000664312 -0.000175934)
(0.124955 -0.000766967 -0.000379506)
(0.127112 -0.000662289 -0.00017551)
(0.122609 -0.000664041 -0.000515647)
(0.120906 -0.000500312 -0.00069112)
(0.12397 -0.000474145 -0.000523013)
(0.123005 -0.000659843 -0.00051842)
(0.121284 -0.000497716 -0.0006944)
(0.124388 -0.000470527 -0.000524491)
(0.123401 -0.000657734 -0.00052246)
(0.121662 -0.000496756 -0.000698711)
(0.124806 -0.0004686 -0.000526821)
(0.1238 -0.000658388 -0.000529844)
(0.122038 -0.000497336 -0.000706451)
(0.125223 -0.000467817 -0.00053029)
(0.124201 -0.000658218 -0.000538113)
(0.122416 -0.0005027 -0.000722081)
(0.125645 -0.000469462 -0.000537299)
(0.122792 -0.000504448 -0.000732858)
(0.126065 -0.000467522 -0.000541479)
(0.119637 -0.000340517 -0.000860863)
(0.116424 -0.000168785 -0.0010439)
(0.12106 -0.000203983 -0.00090609)
(0.119997 -0.000340785 -0.000866925)
(0.116712 -0.000172035 -0.00104585)
(0.121435 -0.000203766 -0.000908505)
(0.120354 -0.000342351 -0.000875285)
(0.116999 -0.000176636 -0.00105044)
(0.121808 -0.000204379 -0.000912747)
(0.12071 -0.00034787 -0.000889717)
(0.11728 -0.000184414 -0.00106151)
(0.122179 -0.000207543 -0.000919816)
(0.121065 -0.000355509 -0.000905485)
(0.117556 -0.000196941 -0.00107695)
(0.122552 -0.000215345 -0.000933593)
(0.117828 -0.000208842 -0.00108663)
(0.122923 -0.000221661 -0.000941085)
(0.113687 -7.13599e-06 -0.00123741)
(0.106716 0.000122793 -0.00126687)
(0.115211 7.3953e-05 -0.00131662)
(0.113908 -1.49161e-05 -0.0012357)
(0.106743 0.000111745 -0.0012575)
(0.115443 6.65833e-05 -0.0013137)
(0.11412 -2.5878e-05 -0.00124063)
(0.106768 0.000100082 -0.00124554)
(0.115672 5.85128e-05 -0.00131245)
(0.114325 -4.05703e-05 -0.00125173)
(0.106783 8.56021e-05 -0.00124542)
(0.115894 4.66957e-05 -0.00131439)
(0.114523 -5.69939e-05 -0.00126176)
(0.106789 7.0359e-05 -0.001246)
(0.116113 3.28433e-05 -0.00131882)
(0.10679 5.54356e-05 -0.00124237)
(0.11633 1.93782e-05 -0.00132068)
(0.100383 0.00021901 -0.00119387)
(0.0824426 0.000233909 -0.00105027)
(0.102319 0.000255622 -0.00130948)
(0.100234 0.000204534 -0.00117612)
(0.0819877 0.000218372 -0.00102568)
(0.102186 0.000240922 -0.00129549)
(0.100077 0.000189838 -0.00116241)
(0.0815349 0.000202951 -0.00100131)
(0.102053 0.000228092 -0.0012794)
(0.0999108 0.000175083 -0.00115475)
(0.0810888 0.000188416 -0.000983442)
(0.101906 0.000215393 -0.00126854)
(0.0997359 0.000161374 -0.00114387)
(0.080651 0.000176746 -0.00096569)
(0.101754 0.000203014 -0.00125464)
(0.0802148 0.000167007 -0.000949336)
(0.101595 0.000191621 -0.00124131)
(0.0662145 0.000239581 -0.0010048)
(0.0690417 0.000301493 -0.00111521)
(0.0654907 0.000223301 -0.000975602)
(0.068293 0.000292953 -0.00108294)
(0.0647868 0.000208049 -0.000947605)
(0.0675502 0.000280171 -0.00105237)
(0.0641011 0.000196361 -0.000920243)
(0.0668338 0.000269811 -0.00102022)
(0.0634315 0.000188158 -0.000895665)
(0.0661302 0.000261516 -0.000989843)
(0.0654428 0.000253051 -0.000964501)
(0.068098 -0.000369803 0.000963845)
(0.0842179 -0.000307545 0.00102499)
(0.0702204 -0.000372726 0.0010866)
(0.0674775 -0.000362972 0.000926888)
(0.0838695 -0.00030424 0.000995858)
(0.069542 -0.000362885 0.00105318)
(0.0668721 -0.000358613 0.000884054)
(0.0835284 -0.000303812 0.000966356)
(0.0688809 -0.000354037 0.00101524)
(0.0662815 -0.000354621 0.000838009)
(0.0831962 -0.000303619 0.000933126)
(0.0682389 -0.00034732 0.000973562)
(0.0657064 -0.000350734 0.000793994)
(0.0828656 -0.000302981 0.000900228)
(0.067611 -0.000341031 0.000932024)
(0.0825425 -0.000302901 0.000871061)
(0.0670022 -0.000336074 0.000893933)
(0.10186 -0.000261914 0.00113038)
(0.108545 -0.00035601 0.00116107)
(0.103137 -0.000264148 0.00126622)
(0.101825 -0.000265802 0.00111012)
(0.108661 -0.000359997 0.00114159)
(0.103085 -0.000259728 0.00124235)
(0.101787 -0.00027038 0.00109247)
(0.108773 -0.000366262 0.00112841)
(0.103029 -0.000258734 0.00122748)
(0.101743 -0.000274431 0.00107507)
(0.108885 -0.00037114 0.00111445)
(0.102968 -0.000258387 0.00121495)
(0.101694 -0.000278271 0.00105918)
(0.108993 -0.000376439 0.00110148)
(0.102903 -0.000258708 0.00120186)
(0.109098 -0.000381178 0.00108712)
(0.10283 -0.000257917 0.00118702)
(0.115923 -0.000431053 0.00108949)
(0.119005 -0.00046617 0.000874908)
(0.11658 -0.000354117 0.00121824)
(0.116199 -0.000438066 0.00107892)
(0.11934 -0.000471065 0.000866167)
(0.116849 -0.000354268 0.00120665)
(0.116474 -0.000445144 0.00107092)
(0.119674 -0.000477095 0.000861363)
(0.117116 -0.000355225 0.00119919)
(0.116749 -0.000451226 0.00106136)
(0.120007 -0.000483388 0.000857404)
(0.117383 -0.000357158 0.00119457)
(0.117026 -0.000457187 0.0010492)
(0.120342 -0.000491611 0.000853231)
(0.11765 -0.000359409 0.00118621)
(0.120679 -0.000498742 0.000845568)
(0.11792 -0.000360556 0.00117115)
(0.122612 -0.000516615 0.000662904)
(0.123973 -0.000523309 0.000473179)
(0.12296 -0.000368755 0.00077296)
(0.123007 -0.000519968 0.000658787)
(0.124391 -0.000525288 0.000469728)
(0.123357 -0.000369844 0.000767601)
(0.123403 -0.000524654 0.000656748)
(0.124808 -0.000528197 0.000467895)
(0.123753 -0.000371764 0.000765102)
(0.1238 -0.00053275 0.000657311)
(0.125225 -0.000532306 0.000467149)
(0.12415 -0.000374699 0.000764978)
(0.124199 -0.000541805 0.000656719)
(0.125645 -0.000540072 0.000468435)
(0.12455 -0.000380835 0.000767736)
(0.126064 -0.000545138 0.000466017)
(0.124949 -0.00038474 0.000763618)
(0.125804 -0.000531552 0.000271355)
(0.126039 -0.000485459 7.36041e-05)
(0.126037 -0.000327761 0.000356071)
(0.126244 -0.000533088 0.000270341)
(0.126485 -0.000485229 7.28745e-05)
(0.126484 -0.000328465 0.000354617)
(0.126684 -0.000535432 0.000269989)