/*--------------------------------*- C++ -*----------------------------------*\
| =========                 |                                                 |
| \\      /  F ield         | OpenFOAM: The Open Source CFD Toolbox           |
|  \\    /   O peration     | Version:  2212                                  |
|   \\  /    A nd           | Website:  www.openfoam.com                      |
|    \\/     M anipulation  |                                                 |
\*---------------------------------------------------------------------------*/
FoamFile
{
    version     2.0;
    format      ascii;
    arch        "LSB;label=32;scalar=64";
    class       volScalarField;
    location    "1.2";
    object      p;
}
// * * * * * * * * * * * * * * * * * * * * * * * * * * * * * * * * * * * * * //

dimensions      [0 2 -2 0 0 0 0];

internalField   nonuniform List<scalar> 
693
(
0.00183747
0.00171986
0.00160288
0.00148741
0.00137342
0.00126077
0.00183052
0.00171324
0.00159633
0.00148083
0.00136682
0.00125431
0.00182326
0.00170582
0.00158897
0.00147376
0.00136009
0.00124778
0.00182553
0.00170638
0.00158907
0.00147367
0.00135976
0.00124755
0.00183182
0.00171261
0.00159531
0.00147982
0.0013657
0.00125306
0.0018371
0.00171773
0.00159957
0.00148339
0.00136887
0.00125609
0.00183885
0.00171965
0.00160183
0.00148609
0.00137208
0.00125966
0.00183778
0.00172019
0.0016041
0.0014894
0.00137626
0.00126404
0.00183859
0.00172165
0.00160586
0.00149122
0.00137794
0.00126538
0.00184586
0.00172755
0.00161069
0.00149512
0.00138103
0.00126824
0.00183751
0.00171961
0.00160297
0.00148749
0.00137343
0.00126074
0.00184572
0.00172767
0.00161057
0.00149509
0.00138111
0.00126845
0.00184598
0.00172783
0.00161007
0.00149409
0.00137992
0.00126723
0.00183175
0.00171377
0.00159697
0.00148143
0.00136713
0.00125407
0.00183248
0.00171387
0.00159673
0.00148048
0.00136522
0.00125121
0.00183403
0.00171583
0.00159874
0.00148235
0.00136681
0.00125222
0.00183567
0.00171732
0.00160033
0.00148396
0.00136868
0.00125455
0.00183491
0.00171645
0.00159906
0.00148273
0.00136737
0.00125316
0.00183408
0.00171575
0.00159778
0.00148121
0.00136609
0.00125257
0.00183471
0.00171737
0.00160111
0.00148594
0.00137207
0.00125912
0.00184596
0.00172748
0.00161016
0.00149419
0.00137994
0.00126716
0.00183044
0.00171287
0.0015964
0.00148097
0.00136693
0.00125447
0.00183836
0.00172155
0.00160567
0.00149125
0.00137808
0.00126576
0.00183446
0.00171739
0.00160119
0.00148605
0.00137204
0.00125935
0.001808
0.00169093
0.00157546
0.00146012
0.00134511
0.00123116
0.00180057
0.00168285
0.00156647
0.00145063
0.00133525
0.00122032
0.00179619
0.00167834
0.00156124
0.00144487
0.00132939
0.00121447
0.00179509
0.00167718
0.00156036
0.00144421
0.00132898
0.0012143
0.00179561
0.00167755
0.00156053
0.00144407
0.0013285
0.00121378
0.0017993
0.00168164
0.00156494
0.00144912
0.00133378
0.0012194
0.00180826
0.00169144
0.00157533
0.00145992
0.00134509
0.00123119
0.00183183
0.00171374
0.00159707
0.00148148
0.00136719
0.00125412
0.00182316
0.00170536
0.00158904
0.0014739
0.00136021
0.00124802
0.00183753
0.00172027
0.00160431
0.0014898
0.00137647
0.00126468
0.00183383
0.00171554
0.00159804
0.00148154
0.00136636
0.00125283
0.00179936
0.00168139
0.00156483
0.00144908
0.00133401
0.0012193
0.00178845
0.00166979
0.00155259
0.00143656
0.00132115
0.00120591
0.00178178
0.00166287
0.00154497
0.00142818
0.0013123
0.00119685
0.00178084
0.00166199
0.00154398
0.00142712
0.00131099
0.0011952
0.00178254
0.00166364
0.00154567
0.00142862
0.00131247
0.00119693
0.00178843
0.00166983
0.00155276
0.00143681
0.00132132
0.00120611
0.00180077
0.00168333
0.00156647
0.00145075
0.00133547
0.00122052
0.00183257
0.00171427
0.0015969
0.00148068
0.00136545
0.00125142
0.00182548
0.00170612
0.00158926
0.0014738
0.0013599
0.00124787
0.00183872
0.00171968
0.00160201
0.00148648
0.00137252
0.00126023
0.00183477
0.00171629
0.00159911
0.00148299
0.00136801
0.00125375
0.00179569
0.00167761
0.00156043
0.0014439
0.00132844
0.0012136
0.00178258
0.00166365
0.00154552
0.00142827
0.00131193
0.00119637
0.00177292
0.00165394
0.00153593
0.00141877
0.00130225
0.00118619
0.00177083
0.00165189
0.00153391
0.00141675
0.00130021
0.00118408
0.00177294
0.00165398
0.00153602
0.00141891
0.00130244
0.00118636
0.00178185
0.00166291
0.00154499
0.00142822
0.00131233
0.00119684
0.00179625
0.00167844
0.00156127
0.00144489
0.00132948
0.00121456
0.00183399
0.00171601
0.00159888
0.00148257
0.00136713
0.00125259
0.00183189
0.00171273
0.00159552
0.00148021
0.00136614
0.00125357
0.00183698
0.00171782
0.00159982
0.0014838
0.00136978
0.00125711
0.00183547
0.00171725
0.00160042
0.00148427
0.00136908
0.00125483
0.00179517
0.00167721
0.0015603
0.00144399
0.00132832
0.00121369
0.00178094
0.00166193
0.00154379
0.00142664
0.00131007
0.0011945
0.00177082
0.00165176
0.00153366
0.00141634
0.00129952
0.00118353
0.0017681
0.0016491
0.00153106
0.00141379
0.0012971
0.00118097
0.00177088
0.00165191
0.00153391
0.00141675
0.00130018
0.001184
0.00178094
0.001662
0.00154396
0.0014271
0.00131085
0.00119497
0.00179515
0.00167722
0.00156037
0.00144415
0.00132866
0.00121387
0.00183558
0.00171736
0.00160046
0.00148408
0.00136884
0.00125478
0.00183714
0.0017179
0.00159985
0.00148383
0.00136969
0.00125718
0.00183177
0.00171281
0.00159543
0.00147993
0.00136654
0.00183384
0.00171564
0.00159902
0.00148295
0.00136744
0.00179623
0.00167833
0.00156149
0.00144514
0.00132901
0.00178192
0.00166288
0.00154483
0.00142765
0.00131095
0.00177297
0.0016539
0.00153576
0.00141821
0.00130092
0.00177086
0.00165185
0.00153381
0.00141655
0.00129974
0.00118372
0.00177301
0.00165408
0.00153613
0.001419
0.00130244
0.00118627
0.0017826
0.00166372
0.00154577
0.00142867
0.00131244
0.00119681
0.00179559
0.00167752
0.00156055
0.00144407
0.00132859
0.00121388
0.0018348
0.00171635
0.00159907
0.00148285
0.00136762
0.0012535
0.00183891
0.00171982
0.001602
0.00148635
0.00137237
0.00126005
0.00170696
0.00158928
0.00147383
0.00136058
0.00171384
0.00159686
0.00148089
0.00136583
0.00180051
0.00168256
0.00156674
0.00145099
0.00133488
0.00178843
0.00166965
0.00155264
0.00143624
0.00131988
0.00178261
0.00166366
0.00154557
0.00142811
0.00131119
0.00178092
0.001662
0.00154406
0.00142721
0.00131084
0.00119509
0.00178187
0.00166297
0.0015452
0.00142847
0.00131243
0.0011968
0.00178842
0.00166979
0.00155273
0.00143673
0.00132122
0.00120603
0.00179919
0.00168138
0.00156483
0.00144908
0.00133374
0.0012193
0.00183392
0.00171565
0.00159789
0.00148141
0.00136624
0.00125267
0.00183785
0.00172038
0.00160422
0.00148953
0.00137648
0.00126445
0.00170644
0.00158945
0.00147409
0.0013611
0.00171412
0.00159714
0.00148185
0.00136804
0.00180827
0.00169101
0.00157544
0.00146036
0.00134484
0.00179946
0.0016812
0.00156476
0.00144882
0.0013327
0.00179572
0.00167761
0.00156055
0.00144399
0.00132792
0.00179519
0.00167727
0.00156042
0.00144421
0.00132902
0.00121453
0.00179629
0.00167846
0.00156133
0.00144499
0.00132962
0.0012147
0.00180074
0.00168314
0.00156632
0.00145061
0.00133535
0.00122041
0.00180813
0.00169122
0.00157525
0.00145987
0.00134498
0.00123098
0.00183463
0.00171749
0.00160122
0.001486
0.00137216
0.00125924
0.0018387
0.0017218
0.00160586
0.0014913
0.00137816
0.00126579
0.00171381
0.00159683
0.001481
0.00136769
0.00172824
0.00161054
0.0014945
0.00138136
0.00183471
0.00171769
0.00160146
0.00148666
0.00137331
0.00183395
0.00171568
0.00159809
0.00148164
0.00136643
0.00183486
0.00171625
0.00159905
0.0014828
0.00136736
0.0018355
0.00171725
0.00160017
0.00148362
0.00136838
0.0012544
0.0018339
0.00171581
0.00159846
0.00148206
0.00136673
0.00125226
0.00183248
0.00171404
0.00159656
0.0014803
0.00136509
0.00125106
0.0018317
0.00171369
0.00159696
0.00148132
0.00136702
0.00125396
0.00184594
0.00172756
0.00161012
0.00149419
0.00138002
0.00126734
0.00184591
0.00172767
0.0016107
0.0014952
0.00138123
0.00126862
0.00172035
0.00160335
0.0014876
0.0013743
0.00172816
0.00161105
0.00149528
0.00138206
0.00183854
0.00172186
0.00160603
0.00149158
0.00137922
0.00183746
0.00172058
0.0016045
0.00149005
0.00137756
0.00183869
0.00171964
0.00160182
0.00148618
0.0013727
0.00183683
0.00171755
0.00159945
0.00148338
0.00136879
0.0012558
0.00183155
0.00171231
0.00159507
0.00147966
0.00136542
0.00125276
0.00182522
0.00170588
0.00158898
0.00147344
0.00135948
0.00124744
0.001823
0.00170531
0.00158894
0.00147376
0.00136007
0.00124787
0.00183039
0.00171286
0.0015963
0.00148088
0.00136687
0.00125446
0.00183751
0.00171967
0.00160293
0.00148748
0.00137349
0.00126091
)
;

boundaryField
{
    inlet
    {
        type            zeroGradient;
    }
    ami1
    {
        type            cyclicAMI;
        value           nonuniform List<scalar> 0();
    }
    walls
    {
        type            zeroGradient;
    }
    ami2
    {
        type            cyclicAMI;
        value           nonuniform List<scalar> 0();
    }
    outlet
    {
        type            fixedValue;
        value           nonuniform List<scalar> 0();
    }
    procBoundary7to5
    {
        type            processor;
        value           nonuniform List<scalar> 
131
(
0.00114777
0.0011415
0.00113513
0.00113499
0.00114074
0.0011439
0.00114757
0.00115125
0.00115211
0.00115494
0.00114778
0.00115515
0.00115399
0.00114112
0.00113803
0.00113858
0.0011406
0.00113982
0.00114008
0.00114626
0.00115396
0.00114172
0.00115247
0.00114646
0.00111849
0.00110746
0.00110108
0.00110075
0.00110033
0.00110673
0.00111856
0.00114121
0.00113548
0.00115175
0.00114029
0.00110669
0.00109288
0.00108335
0.00108168
0.00108336
0.00109294
0.00110759
0.00113829
0.0011355
0.00114802
0.00114018
0.00110033
0.00108316
0.00107241
0.00107018
0.00107243
0.00108326
0.00110108
0.00113896
0.00114144
0.00114427
0.00125369
0.00114104
0.00125285
0.0011008
0.00121437
0.00108161
0.00119599
0.00107018
0.0011854
0.00106714
0.00107004
0.00108142
0.00110055
0.001141
0.00114474
0.00125369
0.00125285
0.00121437
0.00119599
0.0011854
0.0011854
0.00107032
0.00107233
0.00108314
0.00110027
0.00114016
0.00114818
0.00124745
0.00125159
0.00122068
0.00120556
0.00119617
0.00119617
0.00108176
0.00108313
0.00109278
0.00110658
0.00114024
0.00115183
0.00124788
0.00125399
0.00123088
0.00121896
0.00121351
0.00121351
0.00110091
0.00110105
0.0011074
0.0011183
0.00114646
0.00115267
0.00125461
0.00126754
0.00125934
0.00125254
0.0012531
0.0012531
0.0011407
0.00113863
0.00113792
0.00114111
0.00115426
0.00115544
0.00126105
0.00126867
0.00126569
0.00126422
0.0012597
0.0012597
0.00114353
0.00114072
0.0011351
0.00113539
0.00114175
0.00114803
)
;
    }
    procBoundary7to8
    {
        type            processor;
        value           nonuniform List<scalar> 
68
(
0.00195531
0.0019475
0.00194076
0.00194592
0.00195228
0.00196431
0.00196451
0.00195098
0.00195236
0.00195379
0.00195629
0.00195236
0.00192616
0.00192011
0.00191549
0.00195551
0.0019525
0.00191867
0.00190895
0.00190194
0.00195784
0.00195447
0.00191541
0.00190282
0.00189322
0.00189109
0.00195628
0.00195524
0.00191501
0.00190113
0.00189114
0.00188836
0.00195212
0.00182557
0.00195355
0.00183262
0.00191548
0.00190205
0.00189329
0.00189114
0.00182557
0.00183262
0.00183262
0.00192003
0.00190893
0.00190283
0.00190107
0.00182316
0.00183215
0.00183215
0.00192621
0.00191864
0.00191542
0.00191501
0.00183035
0.00184596
0.00184596
0.00195253
0.00195252
0.00195451
0.00195526
0.00183737
0.00184564
0.00184564
0.00195645
0.00195555
0.00195784
0.00195623
)
;
    }
    procBoundary7to9
    {
        type            processor;
        value           nonuniform List<scalar> 
59
(
0.00195655
0.00195818
0.00195628
0.00195681
0.00196479
0.00195567
0.00195546
0.00195447
0.00195259
0.00195284
0.00196493
0.00194778
0.00191497
0.00191526
0.00191813
0.00192599
0.00195116
0.00194106
0.00190101
0.00190276
0.00190883
0.00191987
0.00195212
0.00194621
0.00189323
0.00190198
0.00191549
0.00195355
0.00195229
0.00189115
0.0019011
0.001915
0.00195533
0.00195648
0.00189327
0.00190279
0.00191524
0.00195436
0.00195814
0.00190197
0.00190881
0.00191807
0.0019525
0.00195624
0.00191549
0.00191986
0.00192589
0.00195278
0.00195677
0.00195349
0.00195203
0.00195105
0.00196489
0.00196473
0.00195206
0.001946
0.00194103
0.00194776
0.00195564
)
;
    }
}


// ************************************************************************* //
