/*--------------------------------*- C++ -*----------------------------------*\
| =========                 |                                                 |
| \\      /  F ield         | OpenFOAM: The Open Source CFD Toolbox           |
|  \\    /   O peration     | Version:  2212                                  |
|   \\  /    A nd           | Website:  www.openfoam.com                      |
|    \\/     M anipulation  |                                                 |
\*---------------------------------------------------------------------------*/
FoamFile
{
    version     2.0;
    format      ascii;
    arch        "LSB;label=32;scalar=64";
    class       surfaceScalarField;
    location    "2.35";
    object      phi;
}
// * * * * * * * * * * * * * * * * * * * * * * * * * * * * * * * * * * * * * //

dimensions      [0 3 -1 0 0 0 0];

oriented        oriented;

internalField   nonuniform List<scalar> 
1786
(
7.67778e-07
-1.18075e-07
6.36595e-09
7.62113e-07
-1.17938e-07
6.66946e-09
7.56161e-07
-1.1783e-07
6.90898e-09
7.49992e-07
-1.17741e-07
7.09242e-09
7.43665e-07
-1.17672e-07
7.22624e-09
7.37232e-07
-1.1762e-07
7.31457e-09
7.30731e-07
-1.1758e-07
7.36906e-09
7.24192e-07
-1.17555e-07
7.39598e-09
7.17638e-07
-1.17543e-07
7.40385e-09
7.11087e-07
-1.17542e-07
7.39328e-09
-1.17545e-07
7.35115e-09
7.06307e-07
-1.09522e-07
-2.49781e-09
7.00172e-07
-1.09394e-07
-2.40829e-09
6.93994e-07
-1.09298e-07
-2.35435e-09
6.87813e-07
-1.09225e-07
-2.33535e-09
6.81661e-07
-1.09174e-07
-2.34598e-09
6.75559e-07
-1.09134e-07
-2.38325e-09
6.69524e-07
-1.09104e-07
-2.44231e-09
6.63574e-07
-1.0909e-07
-2.51427e-09
6.57711e-07
-1.09087e-07
-2.59313e-09
6.51939e-07
-1.09088e-07
-2.68154e-09
-1.09075e-07
-2.78237e-09
5.7079e-07
-9.19039e-08
-1.14651e-08
5.64885e-07
-9.18647e-08
-1.16239e-08
5.59211e-07
-9.1816e-08
-1.18077e-08
5.53763e-07
-9.17707e-08
-1.20071e-08
5.48525e-07
-9.1738e-08
-1.21982e-08
5.43473e-07
-9.1701e-08
-1.23815e-08
5.38598e-07
-9.16729e-08
-1.25555e-08
5.33881e-07
-9.16593e-08
-1.27135e-08
5.293e-07
-9.16481e-08
-1.28573e-08
5.24847e-07
-9.16238e-08
-1.30124e-08
-9.15966e-08
-1.31408e-08
3.98394e-07
-6.65448e-08
-2.03761e-08
3.93673e-07
-6.65861e-08
-2.05975e-08
3.89241e-07
-6.65637e-08
-2.08686e-08
3.85076e-07
-6.64915e-08
-2.11592e-08
3.8112e-07
-6.64356e-08
-2.138e-08
3.77344e-07
-6.63933e-08
-2.15678e-08
3.7373e-07
-6.63668e-08
-2.17204e-08
3.70267e-07
-6.63499e-08
-2.18606e-08
3.66943e-07
-6.63379e-08
-2.19973e-08
3.63732e-07
-6.63336e-08
-2.21031e-08
3.60637e-07
-6.63056e-08
-2.22235e-08
-6.62799e-08
-2.2316e-08
2.13866e-07
-3.48426e-08
-2.88331e-08
2.11113e-07
-3.48e-08
-2.90333e-08
2.08444e-07
-3.47531e-08
-2.91411e-08
2.05872e-07
-3.47021e-08
-2.92175e-08
2.03385e-07
-3.467e-08
-2.92794e-08
2.01004e-07
-3.46492e-08
-2.93632e-08
1.98723e-07
-3.4638e-08
-2.94468e-08
1.96539e-07
-3.46304e-08
-2.95361e-08
1.94459e-07
-3.46215e-08
-2.96359e-08
1.92469e-07
-3.46182e-08
-2.97258e-08
1.90578e-07
-3.46266e-08
-2.97874e-08
-3.46564e-08
-2.98012e-08
7.17879e-08
-3.37307e-08
7.07398e-08
-3.3752e-08
6.97417e-08
-3.37551e-08
6.87895e-08
-3.375e-08
6.78711e-08
-3.37517e-08
6.69916e-08
-3.37697e-08
6.61489e-08
-3.37954e-08
6.53436e-08
-3.38251e-08
6.45746e-08
-3.38526e-08
6.38309e-08
-3.38744e-08
6.31084e-08
-3.39041e-08
-3.39551e-08
1.20115e-06
-1.04739e-07
7.75398e-09
1.20199e-06
-1.0437e-07
8.0173e-09
1.20256e-06
-1.04054e-07
8.23948e-09
1.20291e-06
-1.03788e-07
8.42269e-09
1.20306e-06
-1.03565e-07
8.56916e-09
1.20306e-06
-1.0338e-07
8.68107e-09
1.20292e-06
-1.03226e-07
8.76578e-09
1.20268e-06
-1.03101e-07
8.82769e-09
1.20234e-06
-1.03002e-07
8.8672e-09
1.20192e-06
-1.02924e-07
8.88646e-09
-1.02874e-07
8.86493e-09
1.14571e-06
-9.83342e-08
-8.81204e-09
1.14554e-06
-9.78145e-08
-8.79345e-09
1.14531e-06
-9.73932e-08
-8.78761e-09
1.14504e-06
-9.70631e-08
-8.79314e-09
1.14474e-06
-9.67994e-08
-8.81333e-09
1.14442e-06
-9.6597e-08
-8.84625e-09
1.14409e-06
-9.64432e-08
-8.88791e-09
1.14373e-06
-9.63235e-08
-8.93902e-09
1.14337e-06
-9.62337e-08
-8.99958e-09
1.14299e-06
-9.6157e-08
-9.07117e-09
-9.61326e-08
-9.14583e-09
1.01132e-06
-8.3377e-08
-2.48979e-08
1.01004e-06
-8.2975e-08
-2.51887e-08
1.00896e-06
-8.26638e-08
-2.5458e-08
1.00805e-06
-8.24632e-08
-2.56939e-08
1.00725e-06
-8.22984e-08
-2.58949e-08
1.00652e-06
-8.21968e-08
-2.60578e-08
1.00585e-06
-8.21246e-08
-2.62044e-08
1.00521e-06
-8.20522e-08
-2.63485e-08
1.0046e-06
-8.19947e-08
-2.64818e-08
1.004e-06
-8.19458e-08
-2.66267e-08
-8.1972e-08
-2.67072e-08
8.09409e-07
-6.14509e-08
-3.96478e-08
8.06735e-07
-6.11488e-08
-4.01514e-08
8.04431e-07
-6.09821e-08
-4.05572e-08
8.02393e-07
-6.08903e-08
-4.08945e-08
8.00536e-07
-6.08523e-08
-4.11345e-08
7.98805e-07
-6.07929e-08
-4.13419e-08
7.97122e-07
-6.07376e-08
-4.14975e-08
7.95454e-07
-6.06708e-08
-4.16458e-08
7.93799e-07
-6.05863e-08
-4.18079e-08
7.92148e-07
-6.05251e-08
-4.1922e-08
7.90493e-07
-6.05004e-08
-4.20138e-08
-6.05394e-08
-4.2048e-08
5.3873e-07
-3.27316e-08
-5.33445e-08
5.34919e-07
-3.25665e-08
-5.38046e-08
5.31384e-07
-3.24522e-08
-5.41364e-08
5.2802e-07
-3.23677e-08
-5.43755e-08
5.24751e-07
-3.23151e-08
-5.45478e-08
5.21553e-07
-3.22537e-08
-5.4705e-08
5.18422e-07
-3.21978e-08
-5.48553e-08
5.15356e-07
-3.21411e-08
-5.50001e-08
5.12356e-07
-3.20804e-08
-5.51417e-08
5.09394e-07
-3.20369e-08
-5.52519e-08
5.06431e-07
-3.20278e-08
-5.52971e-08
-3.20492e-08
-5.52954e-08
2.27156e-07
-6.35373e-08
2.24366e-07
-6.35285e-08
2.21681e-07
-6.35221e-08
2.19106e-07
-6.35423e-08
2.16634e-07
-6.3595e-08
2.1427e-07
-6.36598e-08
2.11999e-07
-6.37219e-08
2.09808e-07
-6.37758e-08
2.07678e-07
-6.38029e-08
2.05574e-07
-6.38074e-08
2.03503e-07
-6.38604e-08
-6.39928e-08
1.49556e-06
-8.51665e-08
7.20815e-09
1.49962e-06
-8.48694e-08
7.27726e-09
1.50354e-06
-8.461e-08
7.34037e-09
1.50735e-06
-8.43883e-08
7.39687e-09
1.51106e-06
-8.42029e-08
7.44607e-09
1.51468e-06
-8.40488e-08
7.48542e-09
1.51825e-06
-8.39205e-08
7.5128e-09
1.52175e-06
-8.38137e-08
7.53045e-09
1.52522e-06
-8.37297e-08
7.54065e-09
1.52864e-06
-8.36703e-08
7.55037e-09
-8.36333e-08
7.54173e-09
1.44718e-06
-8.15572e-08
-1.56753e-08
1.4504e-06
-8.10874e-08
-1.57958e-08
1.4536e-06
-8.06993e-08
-1.59018e-08
1.4568e-06
-8.03908e-08
-1.59929e-08
1.46002e-06
-8.01578e-08
-1.60738e-08
1.46325e-06
-7.99766e-08
-1.61498e-08
1.46649e-06
-7.98255e-08
-1.62221e-08
1.46973e-06
-7.97043e-08
-1.62911e-08
1.47298e-06
-7.96243e-08
-1.63572e-08
1.47623e-06
-7.95776e-08
-1.64154e-08
-7.95669e-08
-1.64723e-08
1.31896e-06
-7.06858e-08
-3.75031e-08
1.32088e-06
-7.03102e-08
-3.78851e-08
1.32296e-06
-7.00238e-08
-3.82179e-08
1.32519e-06
-6.98158e-08
-3.8499e-08
1.32754e-06
-6.96769e-08
-3.87258e-08
1.33e-06
-6.9572e-08
-3.89192e-08
1.33254e-06
-6.94713e-08
-3.90974e-08
1.33513e-06
-6.9386e-08
-3.92572e-08
1.33777e-06
-6.93634e-08
-3.93842e-08
1.34043e-06
-6.93715e-08
-3.94876e-08
-6.94008e-08
-3.95563e-08
1.11557e-06
-5.36089e-08
-5.69356e-08
1.11563e-06
-5.33374e-08
-5.75533e-08
1.11597e-06
-5.31542e-08
-5.80581e-08
1.11655e-06
-5.30273e-08
-5.84728e-08
1.11735e-06
-5.29379e-08
-5.8809e-08
1.11827e-06
-5.28654e-08
-5.90733e-08
1.1193e-06
-5.28047e-08
-5.92929e-08
1.12042e-06
-5.27419e-08
-5.9501e-08
1.12161e-06
-5.26886e-08
-5.96919e-08
1.1228e-06
-5.26657e-08
-5.981e-08
1.12396e-06
-5.26639e-08
-5.98767e-08
-5.26649e-08
-5.99104e-08
8.33402e-07
-2.97987e-08
-7.46535e-08
8.3122e-07
-2.9713e-08
-7.52465e-08
8.29272e-07
-2.96371e-08
-7.57058e-08
8.2749e-07
-2.95554e-08
-7.60658e-08
8.25815e-07
-2.94685e-08
-7.63419e-08
8.24198e-07
-2.9381e-08
-7.65723e-08
8.22592e-07
-2.93027e-08
-7.6752e-08
8.20968e-07
-2.9229e-08
-7.68882e-08
8.1932e-07
-2.91733e-08
-7.70099e-08
8.17663e-07
-2.91463e-08
-7.71138e-08
8.15953e-07
-2.90651e-08
-7.71861e-08
-2.88835e-08
-7.72384e-08
4.39562e-07
-8.87481e-08
4.35131e-07
-8.88106e-08
4.30802e-07
-8.88301e-08
4.26541e-07
-8.88372e-08
4.22335e-07
-8.88568e-08
4.18172e-07
-8.88778e-08
4.14045e-07
-8.88978e-08
4.0995e-07
-8.89104e-08
4.05885e-07
-8.89111e-08
4.01825e-07
-8.88938e-08
3.97812e-07
-8.89119e-08
-8.89912e-08
1.70403e-06
-6.03627e-08
1.70994e-06
-6.01967e-08
1.71573e-06
-6.00512e-08
1.72144e-06
-5.99268e-08
1.72708e-06
-5.98229e-08
1.73265e-06
-5.97378e-08
1.73817e-06
-5.96687e-08
1.74365e-06
-5.96132e-08
1.7491e-06
-5.9571e-08
1.75453e-06
-5.9543e-08
-5.95258e-08
1.66e-06
-5.91509e-08
-2.22789e-08
1.66531e-06
-5.88708e-08
-2.24345e-08
1.67057e-06
-5.86375e-08
-2.25721e-08
1.67579e-06
-5.84474e-08
-2.2692e-08
1.68098e-06
-5.82987e-08
-2.27958e-08
1.68617e-06
-5.81839e-08
-2.28864e-08
1.69134e-06
-5.80938e-08
-2.2966e-08
1.69649e-06
-5.80252e-08
-2.30354e-08
1.70164e-06
-5.79824e-08
-2.30946e-08
1.70679e-06
-5.79692e-08
-2.31408e-08
-5.79721e-08
-2.31827e-08
1.53479e-06
-5.24318e-08
-4.82818e-08
1.53888e-06
-5.22414e-08
-4.85992e-08
1.54299e-06
-5.21e-08
-4.88717e-08
1.54715e-06
-5.19967e-08
-4.91023e-08
1.55134e-06
-5.19282e-08
-4.92953e-08
1.55558e-06
-5.18817e-08
-4.94597e-08
1.55984e-06
-5.18519e-08
-4.96004e-08
1.56411e-06
-5.18342e-08
-4.97173e-08
1.5684e-06
-5.18453e-08
-4.98071e-08
1.5727e-06
-5.18881e-08
-4.98682e-08
-5.19299e-08
-4.99136e-08
1.32959e-06
-4.06214e-08
-7.12238e-08
1.33189e-06
-4.05738e-08
-7.17092e-08
1.33426e-06
-4.05669e-08
-7.21094e-08
1.33671e-06
-4.0583e-08
-7.24371e-08
1.33921e-06
-4.06047e-08
-7.27032e-08
1.34176e-06
-4.06357e-08
-7.29129e-08
1.34433e-06
-4.06646e-08
-7.30807e-08
1.34691e-06
-4.07167e-08
-7.32162e-08
1.34946e-06
-4.07456e-08
-7.3327e-08
1.35199e-06
-4.07875e-08
-7.3397e-08
1.35447e-06
-4.08223e-08
-7.34277e-08
-4.08258e-08
-7.34501e-08
1.04477e-06
-2.34936e-08
-9.13189e-08
1.04431e-06
-2.35754e-08
-9.17804e-08
1.04383e-06
-2.36651e-08
-9.21297e-08
1.04332e-06
-2.37452e-08
-9.23929e-08
1.04277e-06
-2.38024e-08
-9.25927e-08
1.04215e-06
-2.38507e-08
-9.27409e-08
1.04146e-06
-2.38782e-08
-9.28516e-08
1.04068e-06
-2.38988e-08
-9.29209e-08
1.0398e-06
-2.38979e-08
-9.29818e-08
1.03882e-06
-2.38964e-08
-9.30253e-08
1.03774e-06
-2.38596e-08
-9.30704e-08
-2.3771e-08
-9.31163e-08
6.27676e-07
-1.06811e-07
6.22145e-07
-1.06856e-07
6.16509e-07
-1.06859e-07
6.10774e-07
-1.06847e-07
6.04947e-07
-1.06832e-07
5.99037e-07
-1.06818e-07
5.93066e-07
-1.06806e-07
5.87064e-07
-1.06807e-07
5.81065e-07
-1.0681e-07
5.75111e-07
-1.06836e-07
5.69235e-07
-1.06896e-07
-1.06976e-07
1.78843e-06
-3.29535e-08
-2.8039e-08
1.79504e-06
-3.28547e-08
-2.80986e-08
1.80154e-06
-3.27751e-08
-2.81514e-08
1.80796e-06
-3.27127e-08
-2.81977e-08
1.81431e-06
-3.26655e-08
-2.82381e-08
1.8206e-06
-3.26306e-08
-2.82734e-08
1.82684e-06
-3.2605e-08
-2.83042e-08
1.83305e-06
-3.25876e-08
-2.83307e-08
1.83922e-06
-3.25781e-08
-2.83528e-08
1.84537e-06
-3.25791e-08
-2.83698e-08
-3.25815e-08
-2.83845e-08
1.66313e-06
-3.04921e-08
-5.63467e-08
1.66863e-06
-3.05219e-08
-5.64337e-08
1.67405e-06
-3.05617e-08
-5.65054e-08
1.6794e-06
-3.06073e-08
-5.65644e-08
1.68471e-06
-3.06559e-08
-5.66129e-08
1.68998e-06
-3.0704e-08
-5.6654e-08
1.69521e-06
-3.0749e-08
-5.66881e-08
1.70041e-06
-3.07902e-08
-5.67146e-08
1.70558e-06
-3.08264e-08
-5.67325e-08
1.71074e-06
-3.08629e-08
-5.67413e-08
-3.0891e-08
-5.67454e-08
1.45454e-06
-2.44001e-08
-8.13706e-08
1.45846e-06
-2.46548e-08
-8.14658e-08
1.46226e-06
-2.48915e-08
-8.15323e-08
1.46594e-06
-2.51053e-08
-8.15755e-08
1.46952e-06
-2.52926e-08
-8.16005e-08
1.47302e-06
-2.54566e-08
-8.1611e-08
1.47645e-06
-2.56008e-08
-8.16121e-08
1.47982e-06
-2.57266e-08
-8.16095e-08
1.48314e-06
-2.5831e-08
-8.16029e-08
1.4864e-06
-2.58984e-08
-8.15913e-08
1.4896e-06
-2.59173e-08
-8.15735e-08
-2.59346e-08
-8.15489e-08
1.16773e-06
-1.49535e-08
-1.02151e-07
1.16879e-06
-1.53199e-08
-1.02178e-07
1.16957e-06
-1.56255e-08
-1.02174e-07
1.1701e-06
-1.58754e-08
-1.0215e-07
1.1704e-06
-1.60765e-08
-1.02112e-07
1.1705e-06
-1.62367e-08
-1.02066e-07
1.17043e-06
-1.63599e-08
-1.02013e-07
1.17018e-06
-1.64445e-08
-1.0196e-07
1.16979e-06
-1.65033e-08
-1.01914e-07
1.16927e-06
-1.65318e-08
-1.01879e-07
1.16866e-06
-1.65192e-08
-1.01854e-07
-1.64883e-08
-1.01835e-07
7.45486e-07
-1.17084e-07
7.40325e-07
-1.17015e-07
7.34781e-07
-1.1694e-07
7.2893e-07
-1.16873e-07
7.22835e-07
-1.16813e-07
7.16546e-07
-1.16766e-07
7.10113e-07
-1.16732e-07
7.03571e-07
-1.16709e-07
6.96955e-07
-1.16698e-07
6.90284e-07
-1.16696e-07
6.83574e-07
-1.16706e-07
-1.16746e-07
1.83099e-06
-5.15801e-09
-3.19676e-08
1.83803e-06
-5.10675e-09
-3.1898e-08
1.84496e-06
-5.06334e-09
-3.18381e-08
1.85177e-06
-5.02707e-09
-3.17877e-08
1.8585e-06
-4.99676e-09
-3.17462e-08
1.86516e-06
-4.97079e-09
-3.17124e-08
1.87175e-06
-4.94792e-09
-3.16851e-08
1.87829e-06
-4.92813e-09
-3.16634e-08
1.88479e-06
-4.91179e-09
-3.1647e-08
1.89126e-06
-4.90107e-09
-3.16361e-08
-4.88619e-09
-3.16284e-08
1.70404e-06
-7.19609e-09
-6.03535e-08
1.70995e-06
-7.26377e-09
-6.01853e-08
1.71575e-06
-7.32591e-09
-6.00392e-08
1.72145e-06
-7.38161e-09
-5.99154e-08
1.72709e-06
-7.42987e-09
-5.98126e-08
1.73266e-06
-7.46822e-09
-5.97286e-08
1.73818e-06
-7.4951e-09
-5.96597e-08
1.74365e-06
-7.51267e-09
-5.96035e-08
1.74909e-06
-7.52388e-09
-5.95589e-08
1.75451e-06
-7.53498e-09
-5.95269e-08
-7.52808e-09
-5.95043e-08
1.49135e-06
-7.43428e-09
-8.54976e-08
1.49558e-06
-7.73824e-09
-8.51577e-08
1.49964e-06
-8.00092e-09
-8.4859e-08
1.50357e-06
-8.22277e-09
-8.46005e-08
1.50737e-06
-8.40515e-09
-8.4381e-08
1.51108e-06
-8.55023e-09
-8.41987e-08
1.5147e-06
-8.6602e-09
-8.40472e-08
1.51826e-06
-8.74315e-09
-8.39199e-08
1.52176e-06
-8.80297e-09
-8.38141e-08
1.52522e-06
-8.84141e-09
-8.37287e-08
1.52864e-06
-8.86049e-09
-8.36648e-08
-8.84155e-09
-8.36209e-08
1.2e-06
-5.97034e-09
-1.05176e-07
1.20118e-06
-6.35099e-09
-1.0474e-07
1.20203e-06
-6.65651e-09
-1.04369e-07
1.2026e-06
-6.89662e-09
-1.04053e-07
1.20295e-06
-7.07917e-09
-1.03787e-07
1.20311e-06
-7.21078e-09
-1.03565e-07
1.20312e-06
-7.29636e-09
-1.03381e-07
1.20299e-06
-7.34748e-09
-1.03229e-07
1.20275e-06
-7.37139e-09
-1.03105e-07
1.20241e-06
-7.37608e-09
-1.03008e-07
1.20199e-06
-7.36259e-09
-1.02931e-07
-7.32043e-09
-1.02881e-07
7.73072e-07
-1.18273e-07
7.67796e-07
-1.1809e-07
7.62147e-07
-1.17948e-07
7.56212e-07
-1.17834e-07
7.5006e-07
-1.1774e-07
7.43751e-07
-1.17668e-07
7.37337e-07
-1.17615e-07
7.30857e-07
-1.17577e-07
7.24341e-07
-1.17553e-07
7.17813e-07
-1.17544e-07
7.11291e-07
-1.17546e-07
-1.17551e-07
1.78843e-06
2.22894e-08
-3.29458e-08
1.79504e-06
2.24476e-08
-3.28458e-08
1.80155e-06
2.25865e-08
-3.27652e-08
1.80797e-06
2.27067e-08
-3.2702e-08
1.81432e-06
2.28104e-08
-3.26538e-08
1.82062e-06
2.29006e-08
-3.26177e-08
1.82687e-06
2.29799e-08
-3.25902e-08
1.83307e-06
2.3049e-08
-3.25703e-08
1.83925e-06
2.31081e-08
-3.25572e-08
1.8454e-06
2.31547e-08
-3.2554e-08
2.31981e-08
-3.25522e-08
1.65999e-06
1.56893e-08
-5.91423e-08
1.6653e-06
1.58114e-08
-5.88608e-08
1.67056e-06
1.59176e-08
-5.86274e-08
1.67578e-06
1.60084e-08
-5.84384e-08
1.68098e-06
1.60892e-08
-5.82913e-08
1.68616e-06
1.6165e-08
-5.81773e-08
1.69133e-06
1.62369e-08
-5.80858e-08
1.69649e-06
1.63054e-08
-5.80166e-08
1.70164e-06
1.63711e-08
-5.797e-08
1.70679e-06
1.64285e-08
-5.79504e-08
1.64866e-08
-5.79456e-08
1.44393e-06
8.85705e-09
-8.21128e-08
1.44718e-06
8.82755e-09
-8.15478e-08
1.4504e-06
8.80834e-09
-8.10778e-08
1.45361e-06
8.80264e-09
-8.06913e-08
1.45681e-06
8.80957e-09
-8.03869e-08
1.46003e-06
8.83138e-09
-8.0159e-08
1.46326e-06
8.86564e-09
-7.99791e-08
1.4665e-06
8.9079e-09
-7.98261e-08
1.46974e-06
8.95985e-09
-7.97097e-08
1.47299e-06
9.01996e-09
-7.9625e-08
1.47623e-06
9.08855e-09
-7.9572e-08
9.16208e-09
-7.95517e-08
1.14582e-06
2.63025e-09
-9.89761e-08
1.14574e-06
2.50587e-09
-9.83349e-08
1.14558e-06
2.41534e-09
-9.78168e-08
1.14536e-06
2.36364e-09
-9.73958e-08
1.1451e-06
2.34824e-09
-9.70655e-08
1.14481e-06
2.36323e-09
-9.68045e-08
1.14449e-06
2.40333e-09
-9.6602e-08
1.14415e-06
2.46377e-09
-9.64488e-08
1.1438e-06
2.53705e-09
-9.633e-08
1.14344e-06
2.61672e-09
-9.62404e-08
1.14306e-06
2.7051e-09
-9.61694e-08
2.80387e-09
-9.61439e-08
7.1234e-07
-1.09721e-07
7.06295e-07
-1.09539e-07
7.00171e-07
-1.09408e-07
6.94004e-07
-1.09304e-07
6.87837e-07
-1.09225e-07
6.817e-07
-1.09167e-07
6.75613e-07
-1.09125e-07
6.69597e-07
-1.09097e-07
6.63666e-07
-1.09085e-07
6.57823e-07
-1.09085e-07
6.52071e-07
-1.09088e-07
-1.09079e-07
1.66313e-06
4.82941e-08
-3.04888e-08
1.66863e-06
4.8615e-08
-3.05185e-08
1.67406e-06
4.88885e-08
-3.05575e-08
1.67942e-06
4.91178e-08
-3.06022e-08
1.68474e-06
4.93085e-08
-3.06496e-08
1.69002e-06
4.94708e-08
-3.06961e-08
1.69526e-06
4.96108e-08
-3.07383e-08
1.70047e-06
4.97265e-08
-3.07761e-08
1.70565e-06
4.98171e-08
-3.08072e-08
1.71081e-06
4.98803e-08
-3.08381e-08
4.99301e-08
-3.08617e-08
1.53476e-06
3.75213e-08
-5.24259e-08
1.53884e-06
3.79039e-08
-5.22346e-08
1.54296e-06
3.8236e-08
-5.20926e-08
1.54712e-06
3.85137e-08
-5.19917e-08
1.55132e-06
3.87367e-08
-5.19246e-08
1.55556e-06
3.89291e-08
-5.1879e-08
1.55983e-06
3.91096e-08
-5.18457e-08
1.5641e-06
3.92618e-08
-5.18285e-08
1.56839e-06
3.93919e-08
-5.18335e-08
1.57269e-06
3.94964e-08
-5.18687e-08
3.95714e-08
-5.19037e-08
1.31721e-06
2.45881e-08
-7.11763e-08
1.31894e-06
2.49177e-08
-7.06776e-08
1.32087e-06
2.52031e-08
-7.03017e-08
1.32295e-06
2.54717e-08
-7.00148e-08
1.32519e-06
2.57086e-08
-6.98148e-08
1.32754e-06
2.59068e-08
-6.96838e-08
1.33e-06
2.60707e-08
-6.95764e-08
1.33252e-06
2.62202e-08
-6.9465e-08
1.33512e-06
2.63608e-08
-6.94e-08
1.33775e-06
2.64941e-08
-6.9364e-08
1.34041e-06
2.66279e-08
-6.93589e-08
2.67122e-08
-6.93819e-08
1.01286e-06
1.1328e-08
-8.39163e-08
1.01135e-06
1.14714e-08
-8.33796e-08
1.01009e-06
1.16273e-08
-8.29811e-08
1.00903e-06
1.18143e-08
-8.26712e-08
1.00812e-06
1.20182e-08
-8.24652e-08
1.00731e-06
1.2216e-08
-8.23122e-08
1.00659e-06
1.24e-08
-8.22038e-08
1.00591e-06
1.25732e-08
-8.21296e-08
1.00527e-06
1.27291e-08
-8.20558e-08
1.00465e-06
1.28743e-08
-8.20018e-08
1.00405e-06
1.30241e-08
-8.19604e-08
1.31501e-08
-8.19798e-08
5.76921e-07
-9.19402e-08
5.70771e-07
-9.19187e-08
5.64871e-07
-9.18804e-08
5.59206e-07
-9.18255e-08
5.53772e-07
-9.17722e-08
5.48549e-07
-9.17288e-08
5.43516e-07
-9.16921e-08
5.3866e-07
-9.16672e-08
5.33959e-07
-9.1655e-08
5.29395e-07
-9.16465e-08
5.24958e-07
-9.16272e-08
-9.16038e-08
1.45846e-06
7.17232e-08
-2.46634e-08
1.46227e-06
7.21277e-08
-2.49005e-08
1.46596e-06
7.24564e-08
-2.5113e-08
1.46955e-06
7.27192e-08
-2.52982e-08
1.47306e-06
7.29248e-08
-2.54594e-08
1.4765e-06
7.30888e-08
-2.5601e-08
1.47988e-06
7.32246e-08
-2.57237e-08
1.48321e-06
7.33318e-08
-2.5824e-08
1.48649e-06
7.34033e-08
-2.58877e-08
1.4897e-06
7.34384e-08
-2.5901e-08
7.34645e-08
-2.59151e-08
1.33182e-06
5.75723e-08
-4.05784e-08
1.33421e-06
5.8079e-08
-4.05719e-08
1.33666e-06
5.84956e-08
-4.05865e-08
1.33917e-06
5.88237e-08
-4.06075e-08
1.34173e-06
5.90791e-08
-4.06337e-08
1.3443e-06
5.92993e-08
-4.06668e-08
1.34688e-06
5.95174e-08
-4.0717e-08
1.34944e-06
5.96835e-08
-4.07375e-08
1.35198e-06
5.98121e-08
-4.07805e-08
1.35447e-06
5.98896e-08
-4.08123e-08
5.99257e-08
-4.08153e-08
1.11551e-06
3.96425e-08
-5.3623e-08
1.11558e-06
4.01575e-08
-5.33247e-08
1.11594e-06
4.05646e-08
-5.31487e-08
1.11654e-06
4.091e-08
-5.30295e-08
1.11733e-06
4.11517e-08
-5.29383e-08
1.11826e-06
4.13439e-08
-5.28718e-08
1.11928e-06
4.15059e-08
-5.28032e-08
1.1204e-06
4.16674e-08
-5.27398e-08
1.12157e-06
4.18108e-08
-5.26961e-08
1.12276e-06
4.19306e-08
-5.26699e-08
1.12392e-06
4.20181e-08
-5.265e-08
4.20565e-08
-5.26573e-08
8.09433e-07
2.037e-08
-6.14774e-08
8.06772e-07
2.05921e-08
-6.11534e-08
8.04479e-07
2.08605e-08
-6.09841e-08
8.02458e-07
2.11638e-08
-6.09034e-08
8.00609e-07
2.13891e-08
-6.08537e-08
7.98875e-07
2.15695e-08
-6.08044e-08
7.97188e-07
2.17274e-08
-6.07385e-08
7.95521e-07
2.1876e-08
-6.06709e-08
7.93864e-07
2.20046e-08
-6.05921e-08
7.9221e-07
2.21139e-08
-6.05315e-08
7.90539e-07
2.2232e-08
-6.05032e-08
2.23273e-08
-6.05374e-08
3.984e-07
-6.656e-08
3.93684e-07
-6.66104e-08
3.89252e-07
-6.65878e-08
3.8509e-07
-6.64996e-08
3.81145e-07
-6.64385e-08
3.77382e-07
-6.63968e-08
3.73784e-07
-6.63662e-08
3.70335e-07
-6.63424e-08
3.67018e-07
-6.63335e-08
3.63817e-07
-6.63309e-08
3.60731e-07
-6.63095e-08
-6.62852e-08
1.16879e-06
9.17941e-08
-1.53426e-08
1.16958e-06
9.21447e-08
-1.56471e-08
1.17011e-06
9.24075e-08
-1.58941e-08
1.17042e-06
9.26056e-08
-1.60916e-08
1.17053e-06
9.27534e-08
-1.62483e-08
1.17045e-06
9.28605e-08
-1.63678e-08
1.17022e-06
9.29268e-08
-1.64498e-08
1.16983e-06
9.2988e-08
-1.65076e-08
1.16933e-06
9.30269e-08
-1.65338e-08
1.16873e-06
9.30723e-08
-1.65179e-08
9.31138e-08
-1.64825e-08
1.04426e-06
7.52725e-08
-2.3603e-08
1.0438e-06
7.57274e-08
-2.36911e-08
1.0433e-06
7.60773e-08
-2.37612e-08
1.04276e-06
7.63581e-08
-2.38123e-08
1.04214e-06
7.65819e-08
-2.38503e-08
1.04145e-06
7.67663e-08
-2.38783e-08
1.04066e-06
7.68936e-08
-2.38965e-08
1.03979e-06
7.70219e-08
-2.38945e-08
1.03881e-06
7.71125e-08
-2.38945e-08
1.03774e-06
7.71928e-08
-2.38626e-08
7.72329e-08
-2.37761e-08
8.33361e-07
5.3338e-08
-2.9815e-08
8.31215e-07
5.38269e-08
-2.97329e-08
8.29295e-07
5.41582e-08
-2.96596e-08
8.27531e-07
5.43787e-08
-2.95671e-08
8.2586e-07
5.45619e-08
-2.94713e-08
8.2424e-07
5.47129e-08
-2.9383e-08
8.22627e-07
5.48728e-08
-2.92962e-08
8.20991e-07
5.50105e-08
-2.92207e-08
8.19332e-07
5.51515e-08
-2.91667e-08
8.17662e-07
5.52553e-08
-2.91425e-08
8.15949e-07
5.53147e-08
-2.90591e-08
5.53009e-08
-2.88878e-08
5.38777e-07
2.88281e-08
-3.27436e-08
5.34973e-07
2.90431e-08
-3.25655e-08
5.31445e-07
2.9152e-08
-3.24498e-08
5.28077e-07
2.92177e-08
-3.23749e-08
5.24816e-07
2.92853e-08
-3.23156e-08
5.21629e-07
2.93588e-08
-3.22633e-08
5.18511e-07
2.9451e-08
-3.2199e-08
5.15453e-07
2.95404e-08
-3.21425e-08
5.12453e-07
2.96398e-08
-3.20809e-08
5.0949e-07
2.97272e-08
-3.20399e-08
5.06526e-07
2.97975e-08
-3.20221e-08
2.98106e-08
-3.20446e-08
2.13898e-07
-3.48517e-08
2.11136e-07
-3.48048e-08
2.08457e-07
-3.47568e-08
2.0588e-07
-3.47054e-08
2.03398e-07
-3.46713e-08
2.01014e-07
-3.46537e-08
1.98739e-07
-3.46408e-08
1.96569e-07
-3.46318e-08
1.94499e-07
-3.46236e-08
1.92516e-07
-3.46209e-08
1.90633e-07
-3.46284e-08
-3.46575e-08
7.40304e-07
1.06848e-07
7.34742e-07
1.06849e-07
7.28873e-07
1.06841e-07
7.22759e-07
1.06834e-07
7.16452e-07
1.06824e-07
7.10003e-07
1.06816e-07
7.03448e-07
1.06815e-07
6.96823e-07
1.06812e-07
6.90145e-07
1.06831e-07
6.83436e-07
1.06882e-07
1.06957e-07
6.22215e-07
8.87877e-08
6.16565e-07
8.88073e-08
6.10817e-07
8.8829e-08
6.04977e-07
8.8861e-08
5.99058e-07
8.8893e-08
5.93081e-07
8.89137e-08
5.87073e-07
8.89265e-08
5.81065e-07
8.89253e-08
5.751e-07
8.89023e-08
5.69218e-07
8.8902e-08
8.8971e-08
4.39678e-07
6.35427e-08
4.35218e-07
6.35141e-08
4.30863e-07
6.35029e-08
4.26589e-07
6.35363e-08
4.22382e-07
6.35966e-08
4.18225e-07
6.36667e-08
4.14108e-07
6.37345e-08
4.10023e-07
6.37913e-08
4.05963e-07
6.38183e-08
4.01903e-07
6.38198e-08
3.9788e-07
6.38661e-08
6.39888e-08
2.27225e-07
3.37365e-08
2.24417e-07
3.37558e-08
2.21715e-07
3.37556e-08
2.19127e-07
3.37487e-08
2.16655e-07
3.37534e-08
2.14287e-07
3.37716e-08
2.12022e-07
3.38001e-08
2.09841e-07
3.38301e-08
2.0772e-07
3.38579e-08
2.05621e-07
3.38788e-08
2.03556e-07
3.39091e-08
3.39579e-08
7.18028e-08
7.07537e-08
6.97525e-08
6.87958e-08
6.78779e-08
6.69958e-08
6.61551e-08
6.53534e-08
6.45878e-08
6.38458e-08
6.31264e-08
)
;

boundaryField
{
    inlet
    {
        type            calculated;
        value           nonuniform List<scalar> 0();
    }
    ami1
    {
        type            cyclicAMI;
        value           nonuniform List<scalar> 0();
    }
    walls
    {
        type            calculated;
        value           nonuniform List<scalar> 
259
(
-1.84387e-14
-2.43942e-14
-2.90979e-14
-1.69314e-22
-6.40674e-15
-1.28555e-14
-1.84387e-14
-2.43942e-14
-2.90979e-14
-1.69314e-22
-6.40674e-15
-1.28555e-14
-1.84387e-14
-2.43942e-14
-2.90979e-14
-1.69314e-22
-6.40674e-15
-1.28555e-14
-1.84387e-14
-2.43942e-14
-2.90979e-14
-6.3848e-22
-6.40674e-15
-1.28555e-14
-1.84387e-14
-2.43942e-14
-2.90979e-14
-1.69314e-22
-6.40674e-15
-1.28555e-14
-1.84387e-14
-2.43942e-14
-2.90979e-14
-1.69314e-22
-6.40674e-15
-1.28555e-14
-1.84387e-14
-2.43942e-14
-2.90979e-14
-1.70089e-22
-6.40674e-15
-1.28555e-14
-1.84387e-14
-2.43942e-14
-2.90979e-14
-1.69314e-22
-6.40674e-15
-1.28555e-14
-1.84387e-14
-2.43942e-14
-2.90979e-14
-1.69314e-22
-6.40674e-15
-1.28555e-14
-1.84387e-14
-2.43942e-14
-2.90979e-14
-1.69314e-22
-6.40674e-15
-1.28555e-14
-1.84387e-14
-2.43942e-14
-2.90979e-14
-4.45127e-22
-6.40674e-15
-1.28555e-14
-1.84387e-14
-2.43942e-14
-2.90979e-14
2.90979e-14
2.43942e-14
1.84387e-14
1.28555e-14
6.40674e-15
-1.69314e-22
-6.40674e-15
-1.28555e-14
-1.84387e-14
-2.43942e-14
-2.90979e-14
2.90979e-14
2.43942e-14
1.84387e-14
1.28555e-14
6.40674e-15
-1.69314e-22
-6.40674e-15
-1.28555e-14
-1.84387e-14
-2.43942e-14
-2.90979e-14
2.90979e-14
2.43942e-14
1.84387e-14
1.28555e-14
6.40674e-15
-1.69314e-22
-6.40674e-15
-1.28555e-14
-1.84387e-14
-2.43942e-14
-2.90979e-14
2.90979e-14
2.43942e-14
1.84387e-14
1.28555e-14
6.40674e-15
-1.69314e-22
-6.40674e-15
-1.28555e-14
-1.84387e-14
-2.43942e-14
-2.90979e-14
2.90979e-14
2.43942e-14
1.84387e-14
1.28555e-14
6.40674e-15
-6.3848e-22
-6.40674e-15
-1.28555e-14
-1.84387e-14
-2.43942e-14
-2.90979e-14
2.90979e-14
2.43942e-14
1.84387e-14
1.28555e-14
6.40674e-15
-1.69314e-22
-6.40674e-15
-1.28555e-14
-1.84387e-14
-2.43942e-14
-2.90979e-14
2.90979e-14
2.43942e-14
1.84387e-14
1.28555e-14
6.40674e-15
-1.69314e-22
-6.40674e-15
-1.28555e-14
-1.84387e-14
-2.43942e-14
-2.90979e-14
2.90979e-14
2.43942e-14
1.84387e-14
1.28555e-14
6.40674e-15
-1.70089e-22
-6.40674e-15
-1.28555e-14
-1.84387e-14
-2.43942e-14
-2.90979e-14
2.90979e-14
2.43942e-14
1.84387e-14
1.28555e-14
6.40674e-15
-1.69314e-22
-6.40674e-15
-1.28555e-14
-1.84387e-14
-2.43942e-14
-2.90979e-14
2.90979e-14
2.43942e-14
1.84387e-14
1.28555e-14
6.40674e-15
-1.69314e-22
-6.40674e-15
-1.28555e-14
-1.84387e-14
-2.43942e-14
-2.90979e-14
2.90979e-14
2.43942e-14
1.84387e-14
1.28555e-14
6.40674e-15
-1.69314e-22
-6.40674e-15
-1.28555e-14
-1.84387e-14
-2.43942e-14
-2.90979e-14
2.90979e-14
2.43942e-14
1.84387e-14
1.28555e-14
6.40674e-15
-4.45127e-22
-6.40674e-15
-1.28555e-14
-1.84387e-14
-2.43942e-14
-2.90979e-14
1.84387e-14
2.43942e-14
2.90979e-14
6.40674e-15
1.28555e-14
1.84387e-14
2.43942e-14
2.90979e-14
6.40674e-15
1.28555e-14
1.84387e-14
2.43942e-14
2.90979e-14
6.40674e-15
1.28555e-14
1.84387e-14
2.43942e-14
2.90979e-14
6.40674e-15
1.28555e-14
1.84387e-14
2.43942e-14
2.90979e-14
6.40674e-15
1.28555e-14
1.84387e-14
2.43942e-14
2.90979e-14
6.40674e-15
1.28555e-14
1.84387e-14
2.43942e-14
2.90979e-14
6.40674e-15
1.28555e-14
1.84387e-14
2.43942e-14
2.90979e-14
6.40674e-15
1.28555e-14
1.84387e-14
2.43942e-14
2.90979e-14
6.40674e-15
1.28555e-14
1.84387e-14
2.43942e-14
2.90979e-14
6.40674e-15
1.28555e-14
1.84387e-14
2.43942e-14
2.90979e-14
6.40674e-15
1.28555e-14
1.84387e-14
2.43942e-14
2.90979e-14
)
;
    }
    ami2
    {
        type            cyclicAMI;
        value           nonuniform List<scalar> 0();
    }
    outlet
    {
        type            calculated;
        value           nonuniform List<scalar> 0();
    }
    procBoundary9to0
    {
        type            processor;
        value           nonuniform List<scalar> 
40
(
-7.73066e-07
-7.12363e-07
-5.76944e-07
9.19253e-08
-4.03399e-07
-2.16735e-07
-7.28999e-08
-1.19998e-06
-1.1458e-06
-1.01284e-06
8.38977e-08
-8.12585e-07
-5.42938e-07
-2.30082e-07
-1.49133e-06
-1.44392e-06
-1.31723e-06
7.11748e-08
-1.11585e-06
-8.35904e-07
-4.4415e-07
-1.69798e-06
-1.65461e-06
-1.53073e-06
5.26848e-08
-1.32737e-06
-1.04523e-06
-6.33106e-07
-1.78169e-06
-1.65752e-06
3.04766e-08
-1.45047e-06
-1.16634e-06
-7.50167e-07
-1.8238e-06
-1.698e-06
7.12364e-09
-1.48691e-06
-1.19844e-06
-7.77853e-07
)
;
    }
    procBoundary9to1
    {
        type            processor;
        value           nonuniform List<scalar> 
30
(
-1.7817e-06
-1.6546e-06
-1.55517e-08
-1.44062e-06
-1.14579e-06
-7.18262e-07
-1.65752e-06
-1.5307e-06
-3.70741e-08
-1.31566e-06
-1.01466e-06
-5.83374e-07
-1.45454e-06
-1.32952e-06
-5.69424e-08
-1.11577e-06
-8.126e-07
-4.0341e-07
-1.16772e-06
-1.04472e-06
-7.46604e-08
-8.35847e-07
-5.43001e-07
-2.16778e-07
-7.45484e-07
-6.27758e-07
-8.87488e-08
-4.44287e-07
-2.30162e-07
-7.2918e-08
)
;
    }
    procBoundary9to7
    {
        type            processor;
        value           nonuniform List<scalar> 
59
(
7.04544e-07
6.46251e-07
5.2051e-07
3.57637e-07
1.88756e-07
6.2407e-08
1.20144e-06
1.14262e-06
1.00341e-06
7.88792e-07
5.03435e-07
2.01491e-07
1.53203e-06
1.47949e-06
1.34311e-06
1.12508e-06
8.14115e-07
3.93927e-07
1.75994e-06
1.71195e-06
1.57701e-06
1.35691e-06
1.03657e-06
5.63449e-07
1.85151e-06
1.71588e-06
1.49274e-06
1.16793e-06
6.76856e-07
1.8977e-06
1.75991e-06
1.53202e-06
1.20151e-06
7.04776e-07
1.85154e-06
1.71194e-06
1.47949e-06
1.14268e-06
6.46403e-07
1.71596e-06
1.57701e-06
1.3431e-06
1.00345e-06
5.20632e-07
1.49286e-06
1.35692e-06
1.12507e-06
7.88826e-07
3.5774e-07
1.16801e-06
1.03659e-06
8.14112e-07
5.03523e-07
1.88816e-07
6.76725e-07
5.63428e-07
3.93974e-07
2.01542e-07
6.24269e-08
)
;
    }
    procBoundary9to8
    {
        type            processor;
        value           nonuniform List<scalar> 
132
(
1.16997e-07
1.16933e-07
1.16873e-07
1.16818e-07
1.16773e-07
1.16739e-07
1.16712e-07
1.16698e-07
1.16693e-07
1.16699e-07
1.16737e-07
1.02178e-07
1.02177e-07
1.02154e-07
1.02117e-07
1.02071e-07
1.02015e-07
1.01962e-07
1.01913e-07
1.01877e-07
1.01852e-07
1.01835e-07
8.14789e-08
8.15456e-08
8.15876e-08
8.16103e-08
8.16179e-08
8.16155e-08
8.16114e-08
8.16039e-08
8.15945e-08
8.15817e-08
8.15629e-08
5.63589e-08
5.64471e-08
5.65187e-08
5.65764e-08
5.6623e-08
5.66621e-08
5.66951e-08
5.67214e-08
5.67412e-08
5.67537e-08
5.67623e-08
5.16828e-09
5.11841e-09
5.07611e-09
5.04069e-09
5.01102e-09
4.98545e-09
4.96254e-09
4.94217e-09
4.92455e-09
4.9123e-09
4.89611e-09
3.19766e-08
3.19086e-08
3.18498e-08
3.18001e-08
3.1759e-08
3.17257e-08
3.16991e-08
3.16786e-08
3.1664e-08
3.16554e-08
3.16501e-08
1.89891e-09
1.86144e-09
1.82833e-09
1.79953e-09
1.77469e-09
1.75334e-09
1.73503e-09
1.71961e-09
1.70706e-09
1.69783e-09
1.68905e-09
-2.80491e-08
-2.81113e-08
-2.8166e-08
-2.82136e-08
-2.82548e-08
-2.82908e-08
-2.83223e-08
-2.83497e-08
-2.83728e-08