/*--------------------------------*- C++ -*----------------------------------*\
| =========                 |                                                 |
| \\      /  F ield         | OpenFOAM: The Open Source CFD Toolbox           |
|  \\    /   O peration     | Version:  2212                                  |
|   \\  /    A nd           | Website:  www.openfoam.com                      |
|    \\/     M anipulation  |                                                 |
\*---------------------------------------------------------------------------*/
FoamFile
{
    version     2.0;
    format      ascii;
    arch        "LSB;label=32;scalar=64";
    class       surfaceScalarField;
    location    "2.9";
    object      phi;
}
// * * * * * * * * * * * * * * * * * * * * * * * * * * * * * * * * * * * * * //

dimensions      [0 3 -1 0 0 0 0];

oriented        oriented;

internalField   nonuniform List<scalar> 
1826
(
6.14658e-08
-3.40547e-08
3.47467e-08
6.07906e-08
-3.40717e-08
3.47469e-08
6.01296e-08
-3.40829e-08
3.47439e-08
5.94923e-08
-3.40956e-08
3.4733e-08
5.88714e-08
-3.41043e-08
3.47252e-08
-3.41147e-08
3.47129e-08
1.99095e-07
-6.39327e-08
3.1909e-08
1.97131e-07
-6.40308e-08
3.19234e-08
1.95213e-07
-6.41022e-08
3.19371e-08
1.9335e-07
-6.41557e-08
3.1923e-08
1.9152e-07
-6.41909e-08
3.19167e-08
-6.42073e-08
3.18838e-08
3.89164e-07
-8.88638e-08
2.86226e-08
3.85556e-07
-8.88876e-08
2.84647e-08
3.82023e-07
-8.89229e-08
2.83529e-08
3.78571e-07
-8.8942e-08
2.82385e-08
3.75185e-07
-8.89636e-08
2.81585e-08
-8.89789e-08
2.80896e-08
5.56191e-07
-1.0681e-07
2.35401e-08
5.50754e-07
-1.06838e-07
2.33869e-08
5.45453e-07
-1.06865e-07
2.32427e-08
5.40282e-07
-1.06888e-07
2.31173e-08
5.35229e-07
-1.06912e-07
2.30011e-08
-1.0693e-07
2.28903e-08
6.68055e-07
-1.16637e-07
1.65412e-08
6.61506e-07
-1.16672e-07
1.63842e-08
6.55102e-07
-1.16687e-07
1.62261e-08
6.48835e-07
-1.16686e-07
1.60647e-08
6.42715e-07
-1.16681e-07
1.5889e-08
-1.16692e-07
1.57105e-08
6.95416e-07
-1.17639e-07
7.63643e-09
6.88952e-07
-1.1762e-07
7.41193e-09
6.82677e-07
-1.17606e-07
7.19404e-09
6.76617e-07
-1.1761e-07
6.98442e-09
6.70772e-07
-1.1762e-07
6.78247e-09
-1.17641e-07
6.5713e-09
6.37376e-07
-1.09413e-07
-2.51513e-09
6.31856e-07
-1.09341e-07
-2.75866e-09
6.2652e-07
-1.09248e-07
-3.02251e-09
6.21392e-07
-1.09196e-07
-3.28589e-09
6.1646e-07
-1.09176e-07
-3.51126e-09
-1.09164e-07
-3.74159e-09
5.13118e-07
-9.20132e-08
-1.30154e-08
5.08936e-07
-9.19261e-08
-1.32336e-08
5.05007e-07
-9.17678e-08
-1.35507e-08
5.01257e-07
-9.1642e-08
-1.38037e-08
4.97612e-07
-9.1552e-08
-1.39794e-08
-9.14893e-08
-1.41216e-08
3.52806e-07
-6.66401e-08
-2.23187e-08
3.49783e-07
-6.65291e-08
-2.23743e-08
3.4683e-07
-6.64185e-08
-2.23957e-08
3.43949e-07
-6.6336e-08
-2.24248e-08
3.4113e-07
-6.62753e-08
-2.24579e-08
-6.62334e-08
-2.25054e-08
1.86081e-07
-3.47506e-08
-2.99871e-08
1.84246e-07
-3.47491e-08
-2.99454e-08
1.82486e-07
-3.47353e-08
-2.99229e-08
1.80786e-07
-3.47243e-08
-2.99117e-08
1.79137e-07
-3.47175e-08
-2.99086e-08
-3.47093e-08
-2.99304e-08
6.14566e-08
-3.40615e-08
6.07802e-08
-3.40726e-08
6.01266e-08
-3.40818e-08
5.94938e-08
-3.40915e-08
5.88807e-08
-3.41043e-08
-3.41179e-08
1.86148e-07
-2.99865e-08
6.66474e-08
1.84307e-07
-2.99536e-08
6.65418e-08
1.82517e-07
-2.99135e-08
6.64478e-08
1.80799e-07
-2.99104e-08
6.63613e-08
1.79125e-07
-2.99008e-08
6.62998e-08
-2.99268e-08
6.62551e-08
4.99019e-07
-5.56374e-08
6.04866e-08
4.96028e-07
-5.55837e-08
6.05444e-08
4.9302e-07
-5.55707e-08
6.06027e-08
4.90025e-07
-5.55955e-08
6.0603e-08
4.87032e-07
-5.55998e-08
6.06086e-08
-5.56415e-08
6.05497e-08
8.10401e-07
-7.77691e-08
5.234e-08
8.08697e-07
-7.77256e-08
5.23105e-08
8.06858e-07
-7.76722e-08
5.22941e-08
8.04918e-07
-7.76438e-08
5.22264e-08
8.02876e-07
-7.75942e-08
5.21951e-08
-7.7568e-08
5.21446e-08
1.03397e-06
-9.36926e-08
4.0531e-08
1.0328e-06
-9.36065e-08
4.04385e-08
1.03153e-06
-9.35139e-08
4.0359e-08
1.03015e-06
-9.34387e-08
4.02939e-08
1.02869e-06
-9.33733e-08
4.02403e-08
-9.33315e-08
4.01768e-08
1.16719e-06
-1.02239e-07
2.60597e-08
1.16613e-06
-1.02128e-07
2.59624e-08
1.16501e-06
-1.02032e-07
2.5868e-08
1.16382e-06
-1.01953e-07
2.5765e-08
1.16258e-06
-1.01882e-07
2.5639e-08
-1.01828e-07
2.55017e-08
1.20261e-06
-1.03052e-07
9.27214e-09
1.2018e-06
-1.0298e-07
9.06993e-09
1.20097e-06
-1.02917e-07
8.90329e-09
1.20011e-06
-1.02871e-07
8.76585e-09
1.19921e-06
-1.02855e-07
8.66042e-09
-1.02847e-07
8.52795e-09
1.14435e-06
-9.62295e-08
-8.77163e-09
1.14383e-06
-9.62262e-08
-8.99313e-09
1.14333e-06
-9.62386e-08
-9.20095e-09
1.14284e-06
-9.62739e-08
-9.39415e-09
1.14233e-06
-9.63241e-08
-9.52518e-09
-9.63435e-08
-9.69375e-09
1.00395e-06
-8.20729e-08
-2.67093e-08
1.00347e-06
-8.21497e-08
-2.68314e-08
1.0029e-06
-8.22558e-08
-2.69675e-08
1.00225e-06
-8.23317e-08
-2.70909e-08
1.00151e-06
-8.23866e-08
-2.71763e-08
-8.23894e-08
-2.72752e-08
7.86082e-07
-6.04874e-08
-4.23657e-08
7.84492e-07
-6.05348e-08
-4.23986e-08
7.82794e-07
-6.05645e-08
-4.23892e-08
7.80984e-07
-6.05677e-08
-4.23791e-08
7.79067e-07
-6.05634e-08
-4.23638e-08
-6.0512e-08
-4.23827e-08
4.98873e-07
-3.18995e-08
-5.56681e-08
4.95901e-07
-3.19212e-08
-5.55867e-08
4.92918e-07
-3.19224e-08
-5.5582e-08
4.89948e-07
-3.19156e-08
-5.5594e-08
4.86995e-07
-3.19011e-08
-5.56176e-08
-3.18701e-08
-5.56574e-08
1.99063e-07
-6.3943e-08
1.97094e-07
-6.40253e-08
1.9519e-07
-6.40994e-08
1.93332e-07
-6.41496e-08
1.91522e-07
-6.41956e-08
-6.42194e-08
3.52939e-07
-2.23233e-08
9.20701e-08
3.49889e-07
-2.23848e-08
9.19772e-08
3.46903e-07
-2.23753e-08
9.18088e-08
3.43991e-07
-2.24102e-08
9.1684e-08
3.41125e-07
-2.24338e-08
9.15996e-08
-2.2484e-08
9.15334e-08
7.86045e-07
-4.24114e-08
8.20518e-08
7.84488e-07
-4.24336e-08
8.21501e-08
7.82787e-07
-4.23703e-08
8.22987e-08
7.80981e-07
-4.2369e-08
8.23678e-08
7.79065e-07
-4.23462e-08
8.24365e-08
-4.2368e-08
8.24327e-08
1.12558e-06
-6.05775e-08
6.90574e-08
1.12691e-06
-6.05696e-08
6.91218e-08
1.12811e-06
-6.04953e-08
6.92159e-08
1.12916e-06
-6.04411e-08
6.92525e-08
1.13009e-06
-6.03801e-08
6.9295e-08
-6.03405e-08
6.9312e-08
1.35884e-06
-7.4233e-08
5.15631e-08
1.36136e-06
-7.41934e-08
5.15343e-08
1.36383e-06
-7.41299e-08
5.15279e-08
1.36618e-06
-7.40476e-08
5.15465e-08
1.36844e-06
-7.39694e-08
5.15746e-08
-7.38963e-08
5.15962e-08
1.49658e-06
-8.20718e-08
3.08464e-08
1.49954e-06
-8.1979e-08
3.07917e-08
1.50242e-06
-8.18995e-08
3.07554e-08
1.50523e-06
-8.18286e-08
3.07311e-08
1.50799e-06
-8.17767e-08
3.06877e-08
-8.17339e-08
3.06173e-08
1.53774e-06
-8.37125e-08
7.75556e-09
1.54086e-06
-8.36624e-08
7.63398e-09
1.54395e-06
-8.36165e-08
7.53672e-09
1.547e-06
-8.35764e-08
7.45878e-09
1.55003e-06
-8.35549e-08
7.41456e-09
-8.35325e-08
7.33522e-09
1.48564e-06
-7.93165e-08
-1.63101e-08
1.48879e-06
-7.93595e-08
-1.64425e-08
1.49193e-06
-7.93916e-08
-1.65652e-08
1.49504e-06
-7.94139e-08
-1.66738e-08
1.49815e-06
-7.9446e-08
-1.67436e-08
-7.94682e-08
-1.68468e-08
1.34754e-06
-6.90373e-08
-3.98216e-08
1.35033e-06
-6.91174e-08
-3.98587e-08
1.35306e-06
-6.91785e-08
-3.9914e-08
1.35576e-06
-6.92187e-08
-3.99847e-08
1.35841e-06
-6.92591e-08
-4.00203e-08
-6.92706e-08
-4.0052e-08
1.12579e-06
-5.22847e-08
-6.05729e-08
1.12711e-06
-5.22957e-08
-6.05398e-08
1.12828e-06
-5.22506e-08
-6.04918e-08
1.12932e-06
-5.2197e-08
-6.04364e-08
1.13022e-06
-5.21462e-08
-6.03793e-08
-5.20912e-08
-6.0338e-08
8.10486e-07
-2.85923e-08
-7.77862e-08
8.08773e-07
-2.84555e-08
-7.77138e-08
8.06939e-07
-2.83238e-08
-7.76746e-08
8.04993e-07
-2.82225e-08
-7.76224e-08
8.02955e-07
-2.8126e-08
-7.75997e-08
-2.80545e-08
-7.75707e-08
3.89131e-07
-8.88394e-08
3.85527e-07
-8.88764e-08
3.82017e-07
-8.89129e-08
3.78583e-07
-8.89388e-08
3.7523e-07
-8.89683e-08
-8.89857e-08
5.13263e-07
-1.29927e-08
1.09453e-07
5.09056e-07
-1.32128e-08
1.09397e-07
5.05093e-07
-1.35285e-08
1.093e-07
5.01316e-07
-1.37888e-08
1.09249e-07
4.97637e-07
-1.39501e-08
1.09229e-07
-1.40948e-08
1.09225e-07
1.00368e-06
-2.67294e-08
9.62403e-08
1.00324e-06
-2.68532e-08
9.62356e-08
1.00271e-06
-2.69646e-08
9.62632e-08
1.00208e-06
-2.70944e-08
9.62995e-08
1.00137e-06
-2.71626e-08
9.6364e-08
-2.72703e-08
9.63764e-08
1.34734e-06
-3.9839e-08
7.93263e-08
1.35012e-06
-3.98793e-08
7.93648e-08
1.35288e-06
-3.99159e-08
7.94116e-08
1.35559e-06
-3.99878e-08
7.94374e-08
1.35828e-06
-4.0029e-08
7.94699e-08
-4.00611e-08
7.94921e-08
1.58226e-06
-5.03652e-08
5.76591e-08
1.58663e-06
-5.03802e-08
5.76633e-08
1.59096e-06
-5.03865e-08
5.76678e-08
1.59524e-06
-5.03894e-08
5.76715e-08
1.59946e-06
-5.03695e-08
5.76935e-08
-5.03436e-08
5.7724e-08
1.72219e-06
-5.70593e-08
3.24298e-08
1.72723e-06
-5.70326e-08
3.2408e-08
1.73221e-06
-5.70054e-08
3.23927e-08
1.73715e-06
-5.69809e-08
3.23815e-08
1.74205e-06
-5.69611e-08
3.23776e-08
-5.69424e-08
3.23628e-08
1.76719e-06
-5.94887e-08
4.90598e-09
1.77242e-06
-5.94662e-08
4.8412e-09
1.7776e-06
-5.94432e-08
4.78834e-09
1.78276e-06
-5.94215e-08
4.74628e-09
1.78789e-06
-5.94089e-08
4.72409e-09
-5.94005e-08
4.69191e-09
1.71906e-06
-5.76443e-08
-2.32652e-08
1.72413e-06
-5.76507e-08
-2.33309e-08
1.72917e-06
-5.7653e-08
-2.3387e-08
1.73416e-06
-5.76545e-08
-2.34351e-08
1.73914e-06
-5.76739e-08
-2.34613e-08
-5.77021e-08
-2.34937e-08
1.58231e-06
-5.15269e-08
-5.03602e-08
1.58669e-06
-5.15126e-08
-5.03707e-08
1.59101e-06
-5.15073e-08
-5.03787e-08
1.59527e-06
-5.15218e-08
-5.03823e-08
1.59948e-06
-5.15366e-08
-5.03613e-08
-5.15566e-08
-5.03325e-08
1.35892e-06
-4.04817e-08
-7.42398e-08
1.36147e-06
-4.04139e-08
-7.41845e-08
1.36392e-06
-4.0329e-08
-7.41196e-08
1.36628e-06
-4.02776e-08
-7.40392e-08
1.36852e-06
-4.01856e-08
-7.39685e-08
-4.01282e-08
-7.38909e-08
1.03412e-06
-2.35345e-08
-9.37007e-08
1.03297e-06
-2.33761e-08
-9.36009e-08
1.03169e-06
-2.3219e-08
-9.35125e-08
1.03031e-06
-2.30938e-08
-9.34241e-08
1.02886e-06
-2.29573e-08
-9.33736e-08
-2.28485e-08
-9.33251e-08
5.56232e-07
-1.06773e-07
5.50801e-07
-1.06822e-07
5.45529e-07
-1.06859e-07
5.4039e-07
-1.06894e-07
5.35376e-07
-1.06911e-07
-1.06936e-07
6.37345e-07
-2.50115e-09
1.17664e-07
6.31827e-07
-2.73821e-09
1.17654e-07
6.26485e-07
-3.00363e-09
1.17645e-07
6.21342e-07
-3.26372e-09
1.17657e-07
6.16386e-07
-3.49176e-09
1.17676e-07
-3.71592e-09
1.17709e-07
1.14415e-06
-8.76708e-09
1.03074e-07
1.14364e-06
-8.98827e-09
1.03001e-07
1.14315e-06
-9.19525e-09
1.02941e-07
1.14267e-06
-9.38256e-09
1.02895e-07
1.14218e-06
-9.51767e-09
1.02879e-07
-9.69024e-09
1.02868e-07
1.48552e-06
-1.63124e-08
8.37271e-08
1.48867e-06
-1.64472e-08
8.36746e-08
1.49182e-06
-1.65672e-08
8.36304e-08
1.49495e-06
-1.66719e-08
8.35922e-08
1.49808e-06
-1.67446e-08
8.35691e-08
-1.68557e-08
8.35417e-08
1.71902e-06
-2.3267e-08
5.94991e-08
1.72409e-06
-2.33349e-08
5.94749e-08
1.72913e-06
-2.33913e-08
5.94526e-08
1.73414e-06
-2.34393e-08
5.94324e-08
1.73913e-06
-2.3468e-08
5.9422e-08
-2.35056e-08
5.94152e-08
1.85915e-06
-2.84814e-08
3.15861e-08
1.86514e-06
-2.84971e-08
3.15771e-08
1.87108e-06
-2.85094e-08
3.157e-08
1.87698e-06
-2.85198e-08
3.15643e-08
1.88285e-06
-2.85257e-08
3.15634e-08
-2.85334e-08
3.15614e-08
1.90572e-06
-3.1578e-08
1.66838e-09
1.91198e-06
-3.15703e-08
1.64979e-09
1.91819e-06
-3.15636e-08
1.63482e-09
1.92435e-06
-3.15579e-08
1.62301e-09
1.93049e-06
-3.15555e-08
1.61734e-09
-3.15507e-08
1.61056e-09
1.85914e-06
-3.24193e-08
-2.84781e-08
1.86513e-06
-3.23975e-08
-2.84921e-08
1.87107e-06
-3.23821e-08
-2.85031e-08
1.87696e-06
-3.23696e-08
-2.85123e-08
1.88282e-06
-3.23624e-08
-2.85164e-08
-3.23456e-08
-2.85208e-08
1.72216e-06
-3.08244e-08
-5.70562e-08
1.72719e-06
-3.07684e-08
-5.70274e-08
1.73216e-06
-3.07348e-08
-5.69987e-08
1.73709e-06
-3.07057e-08
-5.69741e-08
1.74197e-06
-3.0655e-08
-5.6954e-08
-3.05827e-08
-5.69327e-08
1.49656e-06
-2.6033e-08
-8.20772e-08
1.49952e-06
-2.59274e-08
-8.19815e-08
1.5024e-06
-2.58367e-08
-8.18965e-08
1.50521e-06
-2.57301e-08
-8.18245e-08
1.50796e-06
-2.56023e-08
-8.17725e-08
-2.54577e-08
-8.17281e-08
1.16725e-06
-1.65365e-08
-1.02246e-07
1.16623e-06
-1.63662e-08
-1.02133e-07
1.16511e-06
-1.62027e-08
-1.02034e-07
1.16394e-06
-1.60304e-08
-1.01953e-07
1.1627e-06
-1.58536e-08
-1.0188e-07
-1.56685e-08
-1.01824e-07
6.6821e-07
-1.16618e-07
6.61679e-07
-1.16657e-07
6.553e-07
-1.16683e-07
6.49066e-07
-1.1669e-07
6.42991e-07
-1.16691e-07
-1.16698e-07
6.95306e-07
7.65121e-09
1.1665e-07
6.88842e-07
7.42844e-09
1.1669e-07
6.82563e-07
7.20806e-09
1.16716e-07
6.76492e-07
6.99766e-09
1.16729e-07
6.70638e-07
6.78946e-09
1.16741e-07
6.57794e-09
1.20252e-06
9.28193e-09
1.02262e-07
1.20172e-06
9.07764e-09
1.02153e-07
1.20091e-06
8.90907e-09
1.02054e-07
1.20005e-06
8.77661e-09
1.01971e-07
1.19916e-06
8.66196e-09
1.01897e-07
8.52499e-09
1.5377e-06
7.76104e-09
8.20893e-08
1.54082e-06
7.63688e-09
8.19942e-08
1.54391e-06
7.5379e-09
8.19103e-08
1.54697e-06
7.46305e-09
8.18407e-08
1.55e-06
7.41139e-09
8.179e-08
7.31948e-09
1.76716e-06
4.9105e-09
5.70721e-08
1.77238e-06
4.84389e-09
5.70432e-08
1.77757e-06
4.789e-09
5.70151e-08
1.78273e-06
4.74626e-09
5.69901e-08
1.78787e-06
4.71896e-09
5.69761e-08
4.67807e-09
1.9057e-06
1.67041e-09
2.84939e-08
1.91196e-06
1.65061e-09
2.85075e-08
1.91817e-06
1.63367e-09
2.85188e-08
1.92434e-06
1.62004e-09
2.8526e-08
1.93047e-06
1.60963e-09
2.85372e-08
1.59559e-09
1.95227e-06
-1.65821e-09
-1.65509e-09
1.95885e-06
-1.64015e-09
-1.63649e-09
1.96537e-06
-1.62555e-09
-1.62071e-09
1.97183e-06
-1.61401e-09
-1.6083e-09
1.97827e-06
-1.60855e-09
-1.59881e-09
-1.60213e-09
-1.58577e-09
1.9057e-06
-4.89528e-09
-3.15717e-08
1.91196e-06
-4.82951e-09
-3.15632e-08
1.91816e-06
-4.77565e-09
-3.1556e-08
1.92432e-06
-4.73231e-09
-3.15497e-08
1.93045e-06
-4.70857e-09
-3.15461e-08
-4.6757e-09
-3.15389e-08
1.76714e-06
-7.73744e-09
-5.94859e-08
1.77236e-06
-7.61295e-09
-5.9462e-08
1.77753e-06
-7.51332e-09
-5.94384e-08
1.78267e-06
-7.43221e-09
-5.94164e-08
1.7878e-06
-7.3845e-09
-5.94026e-08
-7.30328e-09
-5.93917e-08
1.5377e-06
-9.24836e-09
-8.37183e-08
1.54081e-06
-9.04172e-09
-8.3665e-08
1.54389e-06
-8.87067e-09
-8.36172e-08
1.54694e-06
-8.72811e-09
-8.35763e-08
1.54995e-06
-8.6171e-09
-8.35535e-08
-8.48205e-09
-8.35281e-08
1.20263e-06
-7.61957e-09
-1.03058e-07
1.20183e-06
-7.393e-09
-1.02983e-07
1.20101e-06
-7.17075e-09
-1.02921e-07
1.20016e-06
-6.95503e-09
-1.02875e-07
1.19927e-06
-6.74704e-09
-1.02858e-07
-6.53299e-09
-1.02846e-07
6.95584e-07
-1.17632e-07
6.89152e-07
-1.17618e-07
6.82906e-07
-1.17608e-07
6.76874e-07
-1.17613e-07
6.71059e-07
-1.17623e-07
-1.17644e-07
6.67939e-07
1.65582e-08
6.61391e-07
1.63983e-08
1.0684e-07
6.54991e-07
1.62346e-08
1.06882e-07
6.4874e-07
1.60662e-08
1.06914e-07
1.58823e-08
1.06954e-07
1.16723e-06
2.60671e-08
1.16618e-06
2.59624e-08
9.36325e-08
1.16507e-06
2.58761e-08
9.35289e-08
1.16387e-06
2.57725e-08
9.34629e-08
2.56374e-08
9.34018e-08
1.49662e-06
3.08499e-08
7.42499e-08
1.49957e-06
3.07936e-08
7.42088e-08
1.50246e-06
3.0762e-08
7.4139e-08
1.50527e-06
3.07332e-08
7.40678e-08
3.06684e-08
7.39886e-08
1.72221e-06
3.2434e-08
5.03791e-08
1.72724e-06
3.2412e-08
5.0392e-08
1.73222e-06
3.23953e-08
5.03986e-08
1.73716e-06
3.23862e-08
5.03968e-08
3.23666e-08
5.03873e-08
1.85916e-06
3.15886e-08
2.32833e-08
1.86515e-06
3.15798e-08
2.33496e-08
1.87108e-06
3.15713e-08
2.34064e-08
1.87698e-06
3.15659e-08
2.34476e-08
3.1555e-08
2.34904e-08
1.90572e-06
2.84913e-08
-4.89047e-09
1.91198e-06
2.8505e-08
-4.8245e-09
1.91819e-06
2.85152e-08
-4.76991e-09
1.92435e-06
2.85235e-08
-4.72777e-09
1.93048e-06
2.85254e-08
-4.69898e-09
2.85262e-08
-4.65645e-09
1.85916e-06
2.32779e-08
-3.24134e-08
1.86515e-06
2.33445e-08
-3.23913e-08
1.87108e-06
2.34008e-08
-3.2375e-08
1.87697e-06
2.34491e-08
-3.23626e-08
1.88283e-06
2.34762e-08
-3.23554e-08
2.35089e-08
-3.23351e-08
1.71904e-06
1.63288e-08
-5.76454e-08
1.72411e-06
1.6465e-08
-5.76492e-08
1.72914e-06
1.65876e-08
-5.7651e-08
1.73412e-06
1.66968e-08
-5.76511e-08
1.7391e-06
1.67682e-08
-5.76675e-08
1.68735e-08
-5.7691e-08
1.4856e-06
8.79765e-09
-7.93283e-08
1.48874e-06
9.02468e-09
-7.93596e-08
1.49187e-06
9.23305e-09
-7.93952e-08
1.49498e-06
9.42719e-09
-7.94171e-08
1.49808e-06
9.55845e-09
-7.94446e-08
9.73103e-09
-7.94612e-08
1.14435e-06
2.53463e-09
-9.62311e-08
1.14383e-06
2.77635e-09
-9.62191e-08
1.14334e-06
3.04149e-09
-9.62399e-08
1.14286e-06
3.30855e-09
-9.6278e-08
1.14236e-06
3.53612e-09
-9.63292e-08
3.76948e-09
-9.63473e-08
6.37521e-07
-1.09407e-07
6.32025e-07
-1.09346e-07
6.2671e-07
-1.09251e-07
6.21603e-07
-1.09197e-07
6.16696e-07
-1.0918e-07
-1.09171e-07
5.5059e-07
2.3392e-08
8.8887e-08
5.45297e-07
2.3254e-08
8.8921e-08
5.40142e-07
2.3103e-08
8.89655e-08
2.29883e-08
8.89946e-08
1.03299e-06
4.0423e-08
7.77577e-08
1.03171e-06
4.03718e-08
7.76865e-08
1.03033e-06
4.028e-08
7.76641e-08
4.02349e-08
7.76313e-08
1.359e-06
5.15592e-08
6.05753e-08
1.36153e-06
5.15314e-08
6.05767e-08
1.364e-06
5.15327e-08
6.05079e-08
1.36635e-06
5.15438e-08
6.0451e-08
5.15714e-08
6.04066e-08
1.58234e-06
5.76578e-08
3.98452e-08
1.58672e-06
5.76631e-08
3.98889e-08
1.59105e-06
5.76666e-08
3.99282e-08
1.59532e-06
5.76729e-08
4.00003e-08
5.76847e-08
4.00642e-08
1.71906e-06
5.94971e-08
1.63284e-08
1.72414e-06
5.94739e-08
1.64634e-08
1.72917e-06
5.94507e-08
1.65864e-08
1.73418e-06
5.9432e-08
1.6683e-08
5.94116e-08
1.67854e-08
1.7672e-06
5.70654e-08
-7.73824e-09
1.77242e-06
5.70367e-08
-7.61346e-09
1.77761e-06
5.70085e-08
-7.51285e-09
1.78276e-06
5.69835e-08
-7.43543e-09
1.7879e-06
5.69605e-08
-7.38013e-09
5.69362e-08
-7.28255e-09
1.72223e-06
5.03679e-08
-3.08244e-08
1.72726e-06
5.0381e-08
-3.07683e-08
1.73224e-06
5.03892e-08
-3.07313e-08
1.73717e-06
5.03939e-08
-3.07049e-08
1.74206e-06
5.03753e-08
-3.06581e-08
5.03484e-08
-3.05794e-08
1.58236e-06
3.98339e-08
-5.15362e-08
1.58672e-06
3.98837e-08
-5.15148e-08
1.59103e-06
3.99316e-08
-5.15078e-08
1.59529e-06
4.00012e-08
-5.15194e-08
1.59949e-06
4.00422e-08
-5.15345e-08
4.00793e-08
-5.15497e-08
1.34752e-06
2.67377e-08
-6.90682e-08
1.35029e-06
2.68726e-08
-6.91101e-08
1.35301e-06
2.69947e-08
-6.91849e-08
1.3557e-06
2.71144e-08
-6.92185e-08
1.35835e-06
2.72018e-08
-6.92532e-08
2.73047e-08
-6.92615e-08
1.00392e-06
1.30329e-08
-8.20605e-08
1.00346e-06
1.3256e-08
-8.21363e-08
1.00291e-06
1.35679e-08
-8.22633e-08
1.00226e-06
1.38192e-08
-8.23353e-08
1.00153e-06
1.39944e-08
-8.23906e-08
1.41367e-08
-8.23918e-08
5.13258e-07
-9.20083e-08
5.09089e-07
-9.192e-08
5.05168e-07
-9.17624e-08
5.01436e-07
-9.16459e-08
4.97813e-07
-9.15627e-08
-9.15032e-08
3.85385e-07
2.84751e-08
6.40158e-08
3.81854e-07
2.83743e-08
6.40782e-08
3.7842e-07
2.82471e-08
6.41524e-08
2.81572e-08
6.41891e-08
8.08775e-07
5.22976e-08
5.56306e-08
8.06955e-07
5.22888e-08
5.55919e-08
8.05035e-07
5.22274e-08
5.56047e-08
5.21729e-08
5.56452e-08
1.12577e-06
6.90659e-08
4.24032e-08
1.12709e-06
6.91205e-08
4.24413e-08
1.12828e-06
6.92122e-08
4.23934e-08
1.12932e-06
6.92622e-08
4.23756e-08
6.9287e-08
4.2396e-08
1.34744e-06
7.93262e-08
2.67306e-08
1.35022e-06
7.93619e-08
2.68652e-08
1.35298e-06
7.94067e-08
2.69745e-08
1.3557e-06
7.9432e-08
2.71127e-08
7.94525e-08
2.72273e-08
1.48557e-06
8.37231e-08
8.78109e-09
1.48872e-06
8.36706e-08
9.00293e-09
1.49188e-06
8.36249e-08
9.21249e-09
1.49501e-06
8.35868e-08
9.39631e-09
8.35555e-08
9.56523e-09
1.53775e-06
8.20819e-08
-9.25909e-09
1.54087e-06
8.19862e-08
-9.05374e-09
1.54397e-06
8.19035e-08
-8.8852e-09
1.54703e-06
8.18306e-08
-8.74432e-09
1.55006e-06
8.1775e-08
-8.63139e-09
8.17291e-08
-8.47814e-09
1.49666e-06
7.42395e-08
-2.6038e-08
1.49962e-06
7.41922e-08
-2.59337e-08
1.50251e-06
7.413e-08
-2.58427e-08
1.50532e-06
7.4051e-08
-2.57418e-08
1.50808e-06
7.39787e-08
-2.56169e-08
7.39043e-08
-2.54697e-08
1.35902e-06
6.05602e-08
-4.04842e-08
1.36154e-06
6.057e-08
-4.04195e-08
1.36399e-06
6.05092e-08
-4.03319e-08
1.36634e-06
6.04594e-08
-4.02825e-08
1.36858e-06
6.04044e-08
-4.01956e-08
6.03659e-08
-4.01352e-08
1.12579e-06
4.23897e-08
-5.23222e-08
1.12709e-06
4.24415e-08
-5.22833e-08
1.12827e-06
4.24016e-08
-5.22485e-08
1.12929e-06
4.24047e-08
-5.21925e-08
1.1302e-06
4.23925e-08
-5.2143e-08
4.24147e-08
-5.20921e-08
7.86126e-07
2.23346e-08
-6.04901e-08
7.84546e-07
2.24114e-08
-6.05262e-08
7.82838e-07
2.24146e-08
-6.05682e-08
7.81033e-07
2.24428e-08
-6.0568e-08
7.79127e-07
2.24722e-08
-6.05652e-08
2.25183e-08
-6.05127e-08
3.52885e-07
-6.66306e-08
3.49894e-07
-6.65172e-08
3.46967e-07
-6.64206e-08
3.44105e-07
-6.63413e-08
3.41298e-07
-6.62834e-08
-6.62436e-08
1.97085e-07
3.19105e-08
3.40803e-08
1.95143e-07
3.1938e-08
3.40823e-08
1.93266e-07
3.19361e-08
3.40937e-08
3.19055e-08
3.41077e-08
4.95929e-07
6.0518e-08
2.99694e-08
4.92955e-07
6.05835e-08
2.99202e-08
4.89989e-07
6.06055e-08
2.99009e-08
6.0562e-08
2.99195e-08
7.86036e-07
8.20646e-08
2.23391e-08
7.84484e-07
8.21395e-08
2.2371e-08
7.82813e-07
8.22812e-08
2.23675e-08
7.81027e-07
8.23639e-08
2.24024e-08
8.23905e-08
2.24543e-08
1.00371e-06
9.6243e-08
1.29996e-08
1.00327e-06
9.62313e-08
1.32138e-08
1.00275e-06
9.62567e-08
1.35208e-08
1.00214e-06
9.62914e-08
1.37934e-08
9.63289e-08
1.39818e-08
1.1442e-06
1.0307e-07
2.51503e-09
1.14369e-06
1.02995e-07
2.74807e-09
1.14321e-06
1.02932e-07
3.01145e-09
1.14275e-06
1.02884e-07
3.26812e-09
1.02864e-07
3.5077e-09
1.20258e-06
1.02258e-07
-7.63353e-09
1.20178e-06
1.02145e-07
-7.40982e-09
1.20098e-06
1.02045e-07
-7.19095e-09
1.20013e-06
1.01963e-07
-6.97879e-09
1.19925e-06
1.01892e-07
-6.77478e-09
1.01841e-07
-6.55385e-09
1.16728e-06
9.37152e-08
-1.65424e-08
1.16624e-06
9.36186e-08
-1.63734e-08
1.16513e-06
9.35311e-08
-1.62117e-08
1.16395e-06
9.34393e-08
-1.60433e-08
1.16271e-06
9.33864e-08
-1.58697e-08
9.334e-08
-1.56855e-08
1.03417e-06
7.77947e-08
-2.35202e-08
1.033e-06
7.77391e-08
-2.33723e-08
1.03172e-06
7.76993e-08
-2.32209e-08
1.03033e-06
7.76477e-08
-2.31005e-08
1.02887e-06
7.76207e-08
-2.29675e-08
7.75874e-08
-2.28575e-08
8.1051e-07
5.56665e-08
-2.85956e-08
8.08791e-07
5.56133e-08
-2.84383e-08
8.0695e-07
5.56107e-08
-2.83188e-08
8.05005e-07
5.56219e-08
-2.82214e-08
8.0297e-07
5.56411e-08
-2.81283e-08
5.56759e-08
-2.80614e-08
4.98887e-07
2.99826e-08
-3.19134e-08
4.95938e-07
2.99583e-08
-3.19221e-08
4.92973e-07
2.9932e-08
-3.19242e-08
4.9002e-07
2.99229e-08
-3.19154e-08
4.87078e-07
2.99194e-08
-3.19015e-08
2.99398e-08
-3.18715e-08
1.86105e-07
-3.47544e-08
1.84295e-07
-3.47494e-08
1.82548e-07
-3.47407e-08
1.80859e-07
-3.47302e-08
1.79218e-07
-3.47224e-08
-3.47134e-08
6.07934e-08
3.47505e-08
6.01262e-08
3.47496e-08
5.94809e-08
3.4739e-08
3.47233e-08
1.84323e-07
6.65714e-08
1.82518e-07
6.64746e-08
1.80785e-07
6.63732e-08
6.63028e-08
3.52987e-07
9.20543e-08
3.4995e-07
9.19789e-08
3.46972e-07
9.18198e-08
3.44074e-07
9.16742e-08
9.15815e-08
5.13385e-07
1.09437e-07
5.09186e-07
1.09392e-07
5.05227e-07
1.093e-07
5.01448e-07
1.09247e-07
1.09227e-07
6.37473e-07
1.17647e-07
6.31973e-07
1.1764e-07
6.26649e-07
1.17636e-07
6.21518e-07
1.17646e-07
1.17668e-07
6.95384e-07
1.16633e-07
6.88938e-07
1.16676e-07
6.82677e-07
1.16706e-07
6.76626e-07
1.16718e-07
6.70793e-07
1.16727e-07
1.16745e-07
6.67965e-07
1.06803e-07
6.6142e-07
1.06849e-07
6.55033e-07
1.06881e-07
6.48793e-07
1.06915e-07
6.42714e-07
1.06936e-07
1.06965e-07
5.56047e-07
8.88872e-08
5.50616e-07
8.89068e-08
5.45342e-07
8.89342e-08
5.40204e-07
8.89532e-08
5.35192e-07
8.89794e-08
8.89993e-08
3.89059e-07
6.39657e-08
3.8547e-07
6.40572e-08
3.81961e-07
6.41244e-08
3.78527e-07
6.41659e-08
3.75173e-07
6.4205e-08
6.42242e-08
1.99033e-07
3.40661e-08
1.97087e-07
3.40811e-08
1.95195e-07
3.40921e-08
1.93345e-07
3.41005e-08
1.91537e-07
3.41107e-08
3.41222e-08
6.14557e-08
6.07874e-08
6.01388e-08
5.95091e-08
5.88974e-08
)
;

boundaryField
{
    inlet
    {
        type            calculated;
        value           nonuniform List<scalar> 0();
    }
    ami1
    {
        type            cyclicAMI;
        value           nonuniform List<scalar> 0();
    }
    walls
    {
        type            calculated;
        value           nonuniform List<scalar> 
248
(
2.90979e-14
2.43942e-14
1.84387e-14
1.28555e-14
6.40674e-15
9.97787e-23
-6.40674e-15
-1.28555e-14
-1.84387e-14
-2.43942e-14
-2.90979e-14
2.90979e-14
2.43942e-14
1.84387e-14
1.28555e-14
6.40674e-15
9.97787e-23
-6.40674e-15
-1.28555e-14
-1.84387e-14
-2.43942e-14
-2.90979e-14
2.90979e-14
2.43942e-14
1.84387e-14
1.28555e-14
6.40674e-15
9.97787e-23
-6.40674e-15
-1.28555e-14
-1.84387e-14
-2.43942e-14
-2.90979e-14
2.90979e-14
2.43942e-14
1.84387e-14
1.28555e-14
6.40674e-15
5.94536e-22
-6.40674e-15
-1.28555e-14
-1.84387e-14
-2.43942e-14
-2.90979e-14
2.90979e-14
2.43942e-14
1.84387e-14
1.28555e-14
6.40674e-15
9.97787e-23
-6.40674e-15
-1.28555e-14
-1.84387e-14
-2.43942e-14
-2.90979e-14
2.90979e-14
2.43942e-14
1.84387e-14
1.28555e-14
6.40674e-15
9.97787e-23
-6.40674e-15
-1.28555e-14
-1.84387e-14
-2.43942e-14
-2.90979e-14
2.90979e-14
2.43942e-14
1.84387e-14
1.28555e-14
6.40674e-15
9.97787e-23
-6.40674e-15
-1.28555e-14
-1.84387e-14
-2.43942e-14
-2.90979e-14
2.90979e-14
2.43942e-14
1.84387e-14
1.28555e-14
6.40674e-15
9.97787e-23
-6.40674e-15
-1.28555e-14
-1.84387e-14
-2.43942e-14
-2.90979e-14
2.90979e-14
2.43942e-14
1.84387e-14
1.28555e-14
6.40674e-15
9.97787e-23
-6.40674e-15
-1.28555e-14
-1.84387e-14
-2.43942e-14
-2.90979e-14
2.90979e-14
2.43942e-14
1.84387e-14
1.28555e-14
6.40674e-15
5.94536e-22
-6.40674e-15
-1.28555e-14
-1.84387e-14
-2.43942e-14
-2.90979e-14
2.90979e-14
2.43942e-14
1.84387e-14
1.28555e-14
6.40674e-15
9.97787e-23
-6.40674e-15
-1.28555e-14
-1.84387e-14
-2.43942e-14
-2.90979e-14
2.90979e-14
2.43942e-14
1.84387e-14
1.28555e-14
6.40674e-15
9.97787e-23
-6.40674e-15
-1.28555e-14
-1.84387e-14
-2.43942e-14
-2.90979e-14
-1.84387e-14
-1.28555e-14
-6.40674e-15
3.55591e-22
6.40674e-15
1.28555e-14
1.84387e-14
2.43942e-14
2.90979e-14
-2.90979e-14
-2.43942e-14
-1.84387e-14
-1.28555e-14
-6.40674e-15
3.55591e-22
6.40674e-15
1.28555e-14
1.84387e-14
2.43942e-14
2.90979e-14
-2.90979e-14
-2.43942e-14
-1.84387e-14
-1.28555e-14
-6.40674e-15
3.55591e-22
6.40674e-15
1.28555e-14
1.84387e-14
2.43942e-14
2.90979e-14
-2.90979e-14
-2.43942e-14
-1.84387e-14
-1.28555e-14
-6.40674e-15
5.93324e-22
6.40674e-15
1.28555e-14
1.84387e-14
2.43942e-14
2.90979e-14
-2.90979e-14
-2.43942e-14
-1.84387e-14
-1.28555e-14
-6.40674e-15
3.55591e-22
6.40674e-15
1.28555e-14
1.84387e-14
2.43942e-14
2.90979e-14
3.55591e-22
6.40674e-15
1.28555e-14
1.84387e-14
2.43942e-14
2.90979e-14
-2.90979e-14
-2.43942e-14
-1.84387e-14
-1.28555e-14
-6.40674e-15
3.55591e-22
6.40674e-15
-2.90979e-14
-2.43942e-14
-1.84387e-14
-1.28555e-14
-6.40674e-15
3.55591e-22
6.40674e-15
1.28555e-14
1.84387e-14
2.43942e-14
2.90979e-14
-2.90979e-14
-2.43942e-14
-1.84387e-14
-1.28555e-14
-6.40674e-15
3.55591e-22
6.40674e-15
1.28555e-14
1.84387e-14
2.43942e-14
2.90979e-14
-2.90979e-14
-2.43942e-14
-1.84387e-14
-1.28555e-14
-6.40674e-15
5.93324e-22
6.40674e-15
1.28555e-14
1.84387e-14
2.43942e-14
2.90979e-14
-2.90979e-14
-2.43942e-14
-1.84387e-14
-1.28555e-14
-6.40674e-15
3.55591e-22
6.40674e-15
1.28555e-14
1.84387e-14
2.43942e-14
2.90979e-14
-2.90979e-14
-2.43942e-14
-1.84387e-14
-1.28555e-14
-6.40674e-15
3.55591e-22
)
;
    }
    ami2
    {
        type            cyclicAMI;
        value           nonuniform List<scalar> 0();
    }
    outlet
    {
        type            calculated;
        value           nonuniform List<scalar> 0();
    }
    procBoundary7to5
    {
        type            processor;
        value           nonuniform List<scalar> 
131
(
5.82733e-08
1.89729e-07
3.71868e-07
5.3029e-07
6.36766e-07
6.6515e-07
6.11725e-07
4.94059e-07
3.3838e-07
1.77543e-07
5.82892e-08
1.7751e-07
4.84081e-07
8.00748e-07
1.02716e-06
1.16129e-06
1.19827e-06
1.14178e-06
1.00071e-06
7.77067e-07
4.8408e-07
1.89754e-07
3.38331e-07
7.77066e-07
1.13089e-06
1.37058e-06
1.51071e-06
1.55302e-06
1.50124e-06
1.36099e-06
1.131e-06
8.00832e-07
3.71942e-07
4.94041e-07
1.0006e-06
1.36089e-06
1.60361e-06
1.74691e-06
1.793e-06
1.74409e-06
1.60361e-06
1.37064e-06
1.02733e-06
5.30477e-07
6.11618e-07
1.14167e-06
1.5012e-06
1.74409e-06
1.88868e-06
1.93659e-06
1.88864e-06
1.74681e-06
1.51067e-06
1.16141e-06
6.37085e-07
6.65008e-07
1.16762e-07
1.19823e-06
1.01852e-07
1.55301e-06
8.1743e-08
1.79297e-06
5.69581e-08
1.93657e-06
2.85491e-08
1.98466e-06
1.93654e-06
1.79289e-06
1.55293e-06
1.19834e-06
6.65472e-07
6.42645e-07
1.16261e-06
1.50804e-06
1.74205e-06
1.88284e-06
-3.15414e-08
1.93656e-06
1.88864e-06
1.74403e-06
1.50116e-06
1.14182e-06
6.11992e-07
5.35112e-07
1.02886e-06
1.3686e-06
1.59953e-06
1.73916e-06
-5.93963e-08
1.79298e-06
1.74689e-06
1.60362e-06
1.36092e-06
1.00074e-06
4.94283e-07
3.75068e-07
8.03005e-07
1.13021e-06
1.35837e-06
1.49813e-06
-8.35301e-08
1.55306e-06
1.51079e-06
1.3707e-06
1.13098e-06
7.77145e-07
3.38557e-07
1.91442e-07
4.87059e-07
7.79141e-07
1.00145e-06
1.14227e-06
-1.02856e-07
1.19834e-06
1.16143e-06
1.02734e-06
8.00851e-07
4.84172e-07
1.77628e-07
5.88653e-08
1.79125e-07
3.4125e-07
4.97784e-07
6.16584e-07
-1.17691e-07
6.65185e-07
6.36809e-07
5.303e-07
3.71887e-07
1.89768e-07
5.83062e-08
)
;
    }
    procBoundary7to8
    {
        type            processor;
        value           nonuniform List<scalar> 
68
(
-6.21578e-08
-2.01126e-07
-3.92855e-07
-5.61784e-07
-6.7477e-07
-1.88062e-07
-5.01946e-07
-8.11987e-07
-1.03504e-06
-1.16816e-06
-3.56039e-07
-7.87522e-07
-1.12413e-06
-1.35621e-06
-1.49353e-06
-5.17653e-07
-1.00413e-06
-1.3445e-06
-1.57783e-06
-1.71708e-06
-6.43055e-07
-1.14472e-06
-1.48237e-06
-1.7139e-06
-1.85309e-06
-1.89938e-06
-7.01943e-07
-1.20334e-06
-1.53454e-06
-1.76188e-06
-1.89937e-06
-1.94562e-06
-6.74659e-07
1.06812e-07
-1.16818e-06
9.37092e-08
-1.49356e-06
-1.7171e-06
-1.8531e-06
-1.89938e-06
-5.56029e-07
-1.03414e-06
-4.05261e-08
-1.35636e-06
-1.57791e-06
-1.71395e-06
-1.76192e-06
-3.88989e-07
-8.10471e-07
-5.23606e-08
-1.12431e-06
-1.34459e-06
-1.48242e-06
-1.53458e-06
-1.9906e-07
-4.98875e-07
-6.05225e-08
-7.87514e-07
-1.00416e-06
-1.14476e-06
-1.20339e-06
-6.14636e-08
-1.86174e-07
-6.66265e-08
-3.56075e-07
-5.17768e-07
-6.43168e-07
-7.02003e-07
)
;
    }
    procBoundary7to9
    {
        type            processor;
        value           nonuniform List<scalar> 
59
(
-7.0205e-07
-6.43087e-07
-5.17502e-07
-3.5586e-07
-1.87983e-07
-6.21456e-08
-1.20343e-06
-1.14492e-06
-1.00441e-06
-7.87621e-07
-5.0178e-07
-2.01081e-07
-1.53459e-06
-1.4825e-06
-1.34471e-06
-1.12434e-06
-8.12061e-07