/*--------------------------------*- C++ -*----------------------------------*\
| =========                 |                                                 |
| \\      /  F ield         | OpenFOAM: The Open Source CFD Toolbox           |
|  \\    /   O peration     | Version:  2212                                  |
|   \\  /    A nd           | Website:  www.openfoam.com                      |
|    \\/     M anipulation  |                                                 |
\*---------------------------------------------------------------------------*/
FoamFile
{
    version     2.0;
    format      ascii;
    arch        "LSB;label=32;scalar=64";
    class       surfaceScalarField;
    location    "2.3";
    object      phi;
}
// * * * * * * * * * * * * * * * * * * * * * * * * * * * * * * * * * * * * * //

dimensions      [0 3 -1 0 0 0 0];

oriented        oriented;

internalField   nonuniform List<scalar> 
1826
(
6.17644e-08
-3.3994e-08
3.46871e-08
6.1085e-08
-3.40352e-08
3.47146e-08
6.04272e-08
-3.40607e-08
3.47185e-08
5.97807e-08
-3.40693e-08
3.47158e-08
5.91446e-08
-3.40754e-08
3.47114e-08
-3.40867e-08
3.47108e-08
1.99573e-07
-6.40606e-08
3.20673e-08
1.97602e-07
-6.41292e-08
3.20645e-08
1.95672e-07
-6.41674e-08
3.20364e-08
1.93759e-07
-6.41842e-08
3.20284e-08
1.9187e-07
-6.42025e-08
3.20162e-08
-6.42409e-08
3.20052e-08
3.90035e-07
-8.90323e-08
2.88068e-08
3.86288e-07
-8.90678e-08
2.86861e-08
3.82609e-07
-8.90682e-08
2.85791e-08
3.7899e-07
-8.90769e-08
2.85121e-08
3.75431e-07
-8.90897e-08
2.8446e-08
-8.91044e-08
2.83727e-08
5.57522e-07
-1.07037e-07
2.38153e-08
5.51839e-07
-1.07091e-07
2.37068e-08
5.46276e-07
-1.07122e-07
2.36166e-08
5.40807e-07
-1.0714e-07
2.35323e-08
5.35425e-07
-1.07155e-07
2.34472e-08
-1.07173e-07
2.33699e-08
6.69884e-07
-1.16863e-07
1.66319e-08
6.63145e-07
-1.1693e-07
1.6577e-08
6.56478e-07
-1.16968e-07
1.65127e-08
6.49887e-07
-1.16981e-07
1.64317e-08
6.43386e-07
-1.16991e-07
1.63374e-08
-1.17014e-07
1.62236e-08
6.98037e-07
-1.17655e-07
7.39325e-09
6.91491e-07
-1.17687e-07
7.30309e-09
6.85038e-07
-1.17729e-07
7.21354e-09
6.78703e-07
-1.17774e-07
7.12881e-09
6.72499e-07
-1.17821e-07
7.03419e-09
-1.17869e-07
6.90692e-09
6.40781e-07
-1.09181e-07
-2.81435e-09
6.35222e-07
-1.09214e-07
-2.91427e-09
6.29768e-07
-1.09238e-07
-3.03799e-09
6.24426e-07
-1.09254e-07
-3.17852e-09
6.19219e-07
-1.0927e-07
-3.34337e-09
-1.09284e-07
-3.5252e-09
5.16489e-07
-9.16701e-08
-1.32151e-08
5.1224e-07
-9.16785e-08
-1.32862e-08
5.08107e-07
-9.16661e-08
-1.34387e-08
5.04144e-07
-9.162e-08
-1.36707e-08
5.00309e-07
-9.15789e-08
-1.38563e-08
-9.1532e-08
-1.39925e-08
3.54965e-07
-6.62952e-08
-2.24043e-08
3.52037e-07
-6.63021e-08
-2.2448e-08
3.49129e-07
-6.62936e-08
-2.24649e-08
3.46228e-07
-6.62718e-08
-2.24468e-08
3.43329e-07
-6.62538e-08
-2.24259e-08
-6.62263e-08
-2.24333e-08
1.87167e-07
-3.46763e-08
-2.98112e-08
1.85389e-07
-3.46998e-08
-2.98236e-08
1.83644e-07
-3.4709e-08
-2.98399e-08
1.81935e-07
-3.47083e-08
-2.98543e-08
1.80247e-07
-3.4707e-08
-2.98591e-08
-3.47071e-08
-2.98623e-08
6.17798e-08
-3.39857e-08
6.11105e-08
-3.40305e-08
6.04562e-08
-3.40548e-08
5.98141e-08
-3.40662e-08
5.91777e-08
-3.40707e-08
-3.40793e-08
1.87128e-07
-2.98305e-08
6.63358e-08
1.85322e-07
-2.9827e-08
6.63476e-08
1.8357e-07
-2.98524e-08
6.63234e-08
1.81851e-07
-2.98557e-08
6.62898e-08
1.80168e-07
-2.98634e-08
6.62583e-08
-2.98675e-08
6.62213e-08
5.0038e-07
-5.5308e-08
6.05821e-08
4.97328e-07
-5.53369e-08
6.06264e-08
4.94277e-07
-5.53902e-08
6.06249e-08
4.91227e-07
-5.54212e-08
6.06439e-08
4.88191e-07
-5.54642e-08
6.06537e-08
-5.54983e-08
6.06762e-08
8.1186e-07
-7.73021e-08
5.27565e-08
8.09822e-07
-7.73511e-08
5.27384e-08
8.07732e-07
-7.74036e-08
5.26825e-08
8.05552e-07
-7.74041e-08
5.26746e-08
8.0328e-07
-7.74127e-08
5.26668e-08
-7.74188e-08
5.26566e-08
1.03535e-06
-9.31731e-08
4.09648e-08
1.03397e-06
-9.31888e-08
4.09235e-08
1.03249e-06
-9.32021e-08
4.08976e-08
1.03093e-06
-9.32046e-08
4.08881e-08
1.02931e-06
-9.3213e-08
4.08753e-08
-9.32235e-08
4.08625e-08
1.1672e-06
-1.01826e-07
2.61656e-08
1.1662e-06
-1.01815e-07
2.61957e-08
1.16511e-06
-1.01812e-07
2.62159e-08
1.16393e-06
-1.01806e-07
2.62106e-08
1.16266e-06
-1.01788e-07
2.61853e-08
-1.01789e-07
2.61269e-08
1.20093e-06
-1.02846e-07
8.93528e-09
1.20036e-06
-1.02835e-07
8.89218e-09
1.19972e-06
-1.02832e-07
8.87729e-09
1.19898e-06
-1.02837e-07
8.89694e-09
1.19815e-06
-1.02854e-07
8.92577e-09
-1.02874e-07
8.88546e-09
1.14196e-06
-9.61224e-08
-9.1833e-09
1.14162e-06
-9.61583e-08
-9.24615e-09
1.14127e-06
-9.62059e-08
-9.31263e-09
1.14086e-06
-9.62561e-08
-9.35113e-09
1.14037e-06
-9.63181e-08
-9.39385e-09
-9.63758e-08
-9.47397e-09
1.00242e-06
-8.19896e-08
-2.67932e-08
1.00187e-06
-8.20689e-08
-2.68332e-08
1.00129e-06
-8.21506e-08
-2.69091e-08
1.00061e-06
-8.22577e-08
-2.69956e-08
9.9985e-07
-8.23751e-08
-2.70349e-08
-8.24832e-08
-2.70415e-08
7.86839e-07
-6.05671e-08
-4.21323e-08
7.85062e-07
-6.05927e-08
-4.21468e-08
7.8322e-07
-6.05998e-08
-4.2174e-08
7.81301e-07
-6.06151e-08
-4.21709e-08
7.79279e-07
-6.06392e-08
-4.21396e-08
-6.0667e-08
-4.21032e-08
5.00574e-07
-3.20697e-08
-5.52725e-08
4.97533e-07
-3.20531e-08
-5.53222e-08
4.94493e-07
-3.2033e-08
-5.53662e-08
4.91453e-07
-3.20141e-08
-5.54159e-08
4.88404e-07
-3.20044e-08
-5.54451e-08
-3.19944e-08
-5.5473e-08
1.99648e-07
-6.40665e-08
1.97707e-07
-6.41424e-08
1.95786e-07
-6.41676e-08
1.93886e-07
-6.41798e-08
1.91995e-07
-6.41848e-08
-6.42127e-08
3.54865e-07
-2.24109e-08
9.17124e-08
3.51925e-07
-2.24326e-08
9.17203e-08
3.49004e-07
-2.24668e-08
9.17115e-08
3.46089e-07
-2.24496e-08
9.16541e-08
3.43205e-07
-2.24436e-08
9.15858e-08
-2.24574e-08
9.15203e-08
7.86586e-07
-4.21487e-08
8.20249e-08
7.84818e-07
-4.21464e-08
8.21085e-08
7.83019e-07
-4.22071e-08
8.21639e-08
7.81139e-07
-4.22062e-08
8.22801e-08
7.79149e-07
-4.21795e-08
8.238e-08
-4.21403e-08
8.24827e-08
1.1257e-06
-6.00191e-08
6.94934e-08
1.12675e-06
-6.00262e-08
6.95643e-08
1.12768e-06
-6.00455e-08
6.95914e-08
1.12854e-06
-6.00322e-08
6.96446e-08
1.12929e-06
-5.99899e-08
6.97228e-08
-5.99508e-08
6.9798e-08
1.35921e-06
-7.35476e-08
5.2056e-08
1.36164e-06
-7.35851e-08
5.2053e-08
1.364e-06
-7.35958e-08
5.20801e-08
1.36632e-06
-7.35897e-08
5.21291e-08
1.36857e-06
-7.35658e-08
5.22026e-08
-7.35252e-08
5.22621e-08
1.49589e-06
-8.15384e-08
3.10536e-08
1.49894e-06
-8.15261e-08
3.10863e-08
1.50194e-06
-8.15158e-08
3.11394e-08
1.5049e-06
-8.15176e-08
3.11791e-08
1.50784e-06
-8.15255e-08
3.11984e-08
-8.15226e-08
3.11958e-08
1.5353e-06
-8.36011e-08
7.60852e-09
1.53866e-06
-8.35955e-08
7.60532e-09
1.54198e-06
-8.35824e-08
7.61576e-09
1.5453e-06
-8.35781e-08
7.64249e-09
1.54859e-06
-8.35869e-08
7.69203e-09
-8.3599e-08
7.67477e-09
1.48242e-06
-7.9599e-08
-1.65038e-08
1.48574e-06
-7.96345e-08
-1.65326e-08
1.48906e-06
-7.96512e-08
-1.65635e-08
1.49238e-06
-7.96768e-08
-1.65734e-08
1.49571e-06
-7.97317e-08
-1.65753e-08
-7.98055e-08
-1.66231e-08
1.34532e-06
-6.95009e-08
-3.96254e-08
1.34805e-06
-6.955e-08
-3.96463e-08
1.35078e-06
-6.95884e-08
-3.97008e-08
1.35349e-06
-6.96407e-08
-3.975e-08
1.35619e-06
-6.97186e-08
-3.97447e-08
-6.97898e-08
-3.97124e-08
1.12579e-06
-5.27573e-08
-5.99757e-08
1.12681e-06
-5.27133e-08
-6.00026e-08
1.12773e-06
-5.26791e-08
-6.00092e-08
1.12856e-06
-5.26506e-08
-5.99943e-08
1.12931e-06
-5.26501e-08
-5.99523e-08
-5.26391e-08
-5.9919e-08
8.1209e-07
-2.87886e-08
-7.72746e-08
8.10034e-07
-2.8648e-08
-7.73316e-08
8.07906e-07
-2.85647e-08
-7.73528e-08
8.05711e-07
-2.8489e-08
-7.73824e-08
8.03429e-07
-2.84355e-08
-7.73779e-08
-2.83655e-08
-7.73795e-08
3.90251e-07
-8.90521e-08
3.8654e-07
-8.90796e-08
3.82876e-07
-8.90687e-08
3.79264e-07
-8.90565e-08
3.7569e-07
-8.90468e-08
-8.90506e-08
5.1633e-07
-1.32176e-08
1.09235e-07
5.12087e-07
-1.3289e-08
1.09253e-07
5.07971e-07
-1.34412e-08
1.09268e-07
5.04025e-07
-1.36676e-08
1.09267e-07
5.00209e-07
-1.38775e-08
1.09279e-07
-1.40216e-08
1.09282e-07
1.00231e-06
-2.68117e-08
9.61514e-08
1.00179e-06
-2.68483e-08
9.61877e-08
1.00122e-06
-2.69325e-08
9.62216e-08
1.00056e-06
-2.70027e-08
9.62751e-08
9.99823e-07
-2.7077e-08
9.63207e-08
-2.70973e-08
9.637e-08
1.34524e-06
-3.96573e-08
7.9589e-08
1.348e-06
-3.96701e-08
7.96304e-08
1.35073e-06
-3.97233e-08
7.96496e-08
1.35347e-06
-3.97744e-08
7.9679e-08
1.35618e-06
-3.97872e-08
7.97263e-08
-3.97653e-08
7.97962e-08
1.58103e-06
-5.00068e-08
5.80278e-08
1.58542e-06
-5.0043e-08
5.80328e-08
1.58981e-06
-5.00756e-08
5.80417e-08
1.5942e-06
-5.00976e-08
5.80606e-08
1.59858e-06
-5.00795e-08
5.81184e-08
-5.00581e-08
5.81842e-08
1.7209e-06
-5.67786e-08
3.26547e-08
1.72606e-06
-5.6784e-08
3.26664e-08
1.73122e-06
-5.67876e-08
3.26877e-08
1.73639e-06
-5.67955e-08
3.27109e-08
1.74156e-06
-5.67995e-08
3.27469e-08
-5.67988e-08
3.27664e-08
1.76517e-06
-5.95331e-08
4.92424e-09
1.7706e-06
-5.95295e-08
4.91868e-09
1.77603e-06
-5.95252e-08
4.92043e-09
1.78147e-06
-5.95248e-08
4.92868e-09
1.78695e-06
-5.95364e-08
4.95636e-09
-5.95499e-08
4.9556e-09
1.71685e-06
-5.80393e-08
-2.32152e-08
1.72207e-06
-5.80451e-08
-2.32404e-08
1.7273e-06
-5.80521e-08
-2.32618e-08
1.73254e-06
-5.80681e-08
-2.32767e-08
1.73783e-06
-5.81248e-08
-2.32698e-08
-5.81849e-08
-2.32843e-08
1.58109e-06
-5.20605e-08
-4.99762e-08
1.58546e-06
-5.20551e-08
-5.00127e-08
1.58984e-06
-5.20812e-08
-5.00465e-08
1.59421e-06
-5.21207e-08
-5.00686e-08
1.59858e-06
-5.21923e-08
-5.00472e-08
-5.2247e-08
-5.00236e-08
1.35924e-06
-4.09504e-08
-7.35074e-08
1.36163e-06
-4.08986e-08
-7.35479e-08
1.36399e-06
-4.08897e-08
-7.35598e-08
1.36628e-06
-4.08488e-08
-7.35604e-08
1.36853e-06
-4.08547e-08
-7.35347e-08
-4.08433e-08
-7.3496e-08
1.03542e-06
-2.37713e-08
-9.31519e-08
1.03403e-06
-2.36632e-08
-9.31717e-08
1.03254e-06
-2.35916e-08
-9.31672e-08
1.031e-06
-2.35066e-08
-9.31797e-08
1.02938e-06
-2.34405e-08
-9.31735e-08
-2.33639e-08
-9.3179e-08
5.57845e-07
-1.07058e-07
5.52195e-07
-1.07093e-07
5.46645e-07
-1.0711e-07
5.41182e-07
-1.071e-07
5.35799e-07
-1.07104e-07
-1.07118e-07
6.40717e-07
-2.81282e-09
1.17689e-07
6.35182e-07
-2.92318e-09
1.17711e-07
6.29754e-07
-3.04719e-09
1.17743e-07
6.24434e-07
-3.19403e-09
1.17782e-07
6.19246e-07
-3.35793e-09
1.17826e-07
-3.5466e-09
1.17871e-07
1.14193e-06
-9.18612e-09
1.02868e-07
1.1416e-06
-9.25524e-09
1.02852e-07
1.14125e-06
-9.32105e-09
1.02843e-07
1.14086e-06
-9.36595e-09
1.0284e-07
1.14039e-06
-9.41794e-09
1.02845e-07
-9.52053e-09
1.02858e-07
1.48236e-06
-1.65149e-08
8.36002e-08
1.48569e-06
-1.65461e-08
8.35917e-08
1.48902e-06
-1.65775e-08
8.35787e-08
1.49235e-06
-1.65883e-08
8.3575e-08
1.49567e-06
-1.65971e-08
8.35819e-08
-1.66629e-08
8.35912e-08
1.7168e-06
-2.32278e-08
5.95275e-08
1.72202e-06
-2.32546e-08
5.95206e-08
1.72724e-06
-2.3277e-08
5.95161e-08
1.73249e-06
-2.32932e-08
5.95167e-08
1.73777e-06
-2.32906e-08
5.95323e-08
-2.33118e-08
5.95522e-08
1.85742e-06
-2.84183e-08
3.16765e-08
1.86358e-06
-2.843e-08
3.16768e-08
1.86975e-06
-2.84404e-08
3.16814e-08
1.87593e-06
-2.84501e-08
3.16887e-08
1.88214e-06
-2.84543e-08
3.17045e-08
-2.84642e-08
3.17187e-08
1.90395e-06
-3.16764e-08
1.70821e-09
1.91041e-06
-3.16797e-08
1.70425e-09
1.91688e-06
-3.16858e-08
1.70304e-09
1.92334e-06
-3.16936e-08
1.7039e-09
1.92984e-06
-3.17068e-08
1.71157e-09
-3.17151e-08
1.71342e-09
1.85744e-06
-3.26587e-08
-2.84019e-08
1.8636e-06
-3.26729e-08
-2.84113e-08
1.86977e-06
-3.26946e-08
-2.842e-08
1.87595e-06
-3.27164e-08
-2.84285e-08
1.88215e-06
-3.27508e-08
-2.84306e-08
-3.27675e-08
-2.84376e-08
1.72089e-06
-3.10457e-08
-5.67507e-08
1.72604e-06
-3.10823e-08
-5.67527e-08
1.73119e-06
-3.11338e-08
-5.67554e-08
1.73634e-06
-3.11706e-08
-5.67629e-08
1.7415e-06
-3.11922e-08
-5.67656e-08
-3.11916e-08
-5.67629e-08
1.49588e-06
-2.6131e-08
-8.15104e-08
1.49891e-06
-2.61678e-08
-8.14925e-08
1.50188e-06
-2.61864e-08
-8.14812e-08
1.50482e-06
-2.61896e-08
-8.1481e-08
1.50775e-06
-2.61724e-08
-8.14853e-08
-2.61179e-08
-8.14796e-08
1.16727e-06
-1.65846e-08
-1.01817e-07
1.16627e-06
-1.65405e-08
-1.018e-07
1.16518e-06
-1.64781e-08
-1.01789e-07
1.16399e-06
-1.64096e-08
-1.01772e-07
1.16271e-06
-1.63186e-08
-1.01746e-07
-1.6205e-08
-1.01743e-07
6.70196e-07
-1.16867e-07
6.63489e-07
-1.16927e-07
6.56854e-07
-1.16954e-07
6.50303e-07
-1.16958e-07
6.4384e-07
-1.1696e-07
-1.16976e-07
6.98105e-07
7.37861e-09
1.16882e-07
6.91591e-07
7.2836e-09
1.16942e-07
6.8517e-07
7.19302e-09
1.16971e-07
6.78864e-07
7.1078e-09
1.1698e-07
6.72696e-07
7.01608e-09
1.16978e-07
6.88081e-09
1.20095e-06
8.92701e-09
1.01841e-07
1.20039e-06
8.87865e-09
1.01823e-07
1.19975e-06
8.86056e-09
1.01814e-07
1.19902e-06
8.88141e-09
1.01791e-07
1.1982e-06
8.9075e-09
1.01775e-07
8.84475e-09
1.53528e-06
7.60511e-09
8.15433e-08
1.53863e-06
7.59876e-09
8.15251e-08
1.54195e-06
7.605e-09
8.15138e-08
1.54525e-06
7.63742e-09
8.15173e-08
1.54853e-06
7.67525e-09
8.1532e-08
7.63145e-09
1.76513e-06
4.92488e-09
5.6781e-08
1.77055e-06
4.91799e-09
5.67818e-08
1.77597e-06
4.91723e-09
5.67848e-08
1.78141e-06
4.92506e-09
5.67907e-08
1.78687e-06
4.94413e-09
5.68052e-08
4.92833e-09
1.90393e-06
1.70606e-09
2.84284e-08
1.91038e-06
1.70131e-09
2.84362e-08
1.91684e-06
1.69806e-09
2.84443e-08
1.92331e-06
1.69706e-09
2.84487e-08
1.9298e-06
1.69795e-09
2.84629e-08
1.68916e-09
1.95056e-06
-1.69736e-09
-1.68421e-09
1.95734e-06
-1.69454e-09
-1.68182e-09
1.96412e-06
-1.69439e-09
-1.68138e-09
1.9709e-06
-1.69624e-09
-1.68349e-09
1.9777e-06
-1.70483e-09
-1.68701e-09
-1.70772e-09
-1.68169e-09
1.90395e-06
-4.91929e-09
-3.16504e-08
1.91041e-06
-4.9138e-09
-3.16524e-08
1.91686e-06
-4.915e-09
-3.16581e-08
1.92333e-06
-4.92246e-09
-3.1666e-08
1.92982e-06
-4.94928e-09
-3.16789e-08
-4.94814e-09
-3.16863e-08
1.76513e-06
-7.59926e-09
-5.95005e-08
1.77056e-06
-7.59565e-09
-5.94937e-08
1.77598e-06
-7.60408e-09
-5.94883e-08
1.78141e-06
-7.62938e-09
-5.94876e-08
1.78687e-06
-7.67861e-09
-5.94985e-08
-7.66036e-09
-5.95116e-08
1.53528e-06
-8.91477e-09
-8.35733e-08
1.53862e-06
-8.87015e-09
-8.35627e-08
1.54194e-06
-8.85209e-09
-8.35477e-08
1.54524e-06
-8.86991e-09
-8.35417e-08
1.54852e-06
-8.90137e-09
-8.35478e-08
-8.85989e-09
-8.35578e-08
1.20099e-06
-7.36449e-09
-1.02842e-07
1.20042e-06
-7.27636e-09
-1.02824e-07
1.19978e-06
-7.18774e-09
-1.02812e-07
1.19905e-06
-7.10277e-09
-1.02807e-07
1.19823e-06
-7.00927e-09
-1.02816e-07
-6.88073e-09
-1.0283e-07
6.98303e-07
-1.17659e-07
6.91784e-07
-1.17684e-07
6.85359e-07
-1.17716e-07
6.79048e-07
-1.1775e-07
6.72864e-07
-1.17786e-07
-1.17824e-07
6.70046e-07
1.65961e-08
6.63338e-07
1.65443e-08
1.07106e-07
6.56709e-07
1.6484e-08
1.07116e-07
6.50152e-07
1.64112e-08
1.07125e-07
1.63042e-08
1.07133e-07
1.16727e-06
2.61394e-08
1.16629e-06
2.61717e-08
9.31859e-08
1.16519e-06
2.61899e-08
9.32058e-08
1.164e-06
2.61994e-08
9.31937e-08
2.61368e-08
9.32148e-08
1.49592e-06
3.10475e-08
7.35473e-08
1.49896e-06
3.10817e-08
7.35769e-08
1.50194e-06
3.11295e-08
7.35916e-08
1.50491e-06
3.11658e-08
7.35853e-08
3.11494e-08
7.35779e-08
1.72094e-06
3.26604e-08
5.00116e-08
1.72609e-06
3.26727e-08
5.00412e-08
1.73124e-06
3.26901e-08
5.00731e-08
1.7364e-06
3.27162e-08
5.00823e-08
3.27236e-08
5.00858e-08
1.85747e-06
3.16819e-08
2.32451e-08
1.86363e-06
3.16832e-08
2.32672e-08
1.86979e-06
3.16857e-08
2.32878e-08
1.87597e-06
3.16931e-08
2.32931e-08
3.16906e-08
2.33142e-08
1.90398e-06
2.84243e-08
-4.89511e-09
1.91044e-06
2.84339e-08
-4.89104e-09
1.9169e-06
2.84413e-08
-4.8934e-09
1.92336e-06
2.8448e-08
-4.90469e-09
1.92984e-06
2.84457e-08
-4.92439e-09
2.84451e-08
-4.91226e-09
1.85747e-06
2.32307e-08
-3.26242e-08
1.86363e-06
2.32565e-08
-3.26376e-08
1.8698e-06
2.32779e-08
-3.26592e-08
1.87597e-06
2.32929e-08
-3.2683e-08
1.88217e-06
2.32862e-08
-3.2718e-08
2.32987e-08
-3.27324e-08
1.71684e-06
1.65189e-08
-5.79998e-08
1.72206e-06
1.65473e-08
-5.80044e-08
1.72728e-06
1.65789e-08
-5.80112e-08
1.73252e-06
1.65895e-08
-5.80258e-08
1.7378e-06
1.65916e-08
-5.80799e-08
1.66391e-08
-5.81389e-08
1.4824e-06
9.19841e-09
-7.95618e-08
1.48572e-06
9.2631e-09
-7.96009e-08
1.48904e-06
9.33431e-09
-7.96186e-08
1.49235e-06
9.37406e-09
-7.964e-08
1.49567e-06
9.41584e-09
-7.96888e-08
9.49203e-09
-7.97568e-08
1.14203e-06
2.83042e-09
-9.61221e-08
1.14169e-06
2.92953e-09
-9.61519e-08
1.14134e-06
3.05466e-09
-9.61854e-08
1.14094e-06
3.1966e-09
-9.62262e-08
1.14046e-06
3.36289e-09
-9.62813e-08
3.54381e-09
-9.63323e-08
6.4095e-07
-1.09188e-07
6.35407e-07
-1.09212e-07
6.29972e-07
-1.09226e-07
6.24652e-07
-1.09234e-07
6.19471e-07
-1.09242e-07
-1.0925e-07
5.52097e-07
2.36747e-08
8.90852e-08
5.46549e-07
2.35783e-08
8.90848e-08
5.41087e-07
2.35178e-08
8.90696e-08
2.34214e-08
8.9078e-08
1.03405e-06
4.09114e-08
7.73411e-08
1.03257e-06
4.08575e-08
7.74023e-08
1.03101e-06
4.08706e-08
7.74039e-08
4.08261e-08
7.74205e-08
1.35933e-06
5.2052e-08
6.00322e-08
1.36174e-06
5.20544e-08
6.002e-08
1.36409e-06
5.20713e-08
6.00284e-08
1.3664e-06
5.21285e-08
6.0012e-08
5.21625e-08
5.9994e-08
1.5812e-06
5.80333e-08
3.96671e-08
1.58558e-06
5.80421e-08
3.96698e-08
1.58996e-06
5.80471e-08
3.9718e-08
1.59434e-06
5.80717e-08
3.97631e-08
5.81023e-08
3.97907e-08
1.71697e-06
5.95321e-08
1.65379e-08
1.72219e-06
5.95274e-08
1.65634e-08
1.72741e-06
5.9521e-08
1.6592e-08
1.73266e-06
5.95201e-08
1.65975e-08
5.95151e-08
1.66461e-08
1.76526e-06
5.67762e-08
-7.5697e-09
1.77068e-06
5.67799e-08
-7.56667e-09
1.7761e-06
5.67819e-08
-7.57521e-09
1.78154e-06
5.6787e-08
-7.60909e-09
1.78699e-06
5.67832e-08
-7.64401e-09
5.67731e-08
-7.60469e-09
1.72097e-06
4.99984e-08
-3.10109e-08
1.72612e-06
5.00342e-08
-3.10458e-08
1.73127e-06
5.0067e-08
-3.10945e-08
1.73642e-06
5.00902e-08
-3.11378e-08
1.74158e-06
5.00697e-08
-3.1161e-08
5.00427e-08
-3.11491e-08
1.58108e-06
3.96533e-08
-5.20205e-08
1.58546e-06
3.9663e-08
-5.20169e-08
1.58984e-06
3.97128e-08
-5.20398e-08
1.59422e-06
3.97651e-08
-5.20773e-08
1.59859e-06
3.97647e-08
-5.21458e-08
3.97342e-08
-5.21984e-08
1.3453e-06
2.681e-08
-6.94466e-08
1.34804e-06
2.68485e-08
-6.95245e-08
1.35077e-06
2.69272e-08
-6.95593e-08
1.35348e-06
2.70153e-08
-6.96054e-08
1.35618e-06
2.70571e-08
-6.96762e-08
2.7067e-08
-6.97408e-08
1.00245e-06
1.3229e-08
-8.19927e-08
1.00192e-06
1.3297e-08
-8.20664e-08
1.00134e-06
1.34412e-08
-8.21201e-08
1.00068e-06
1.36736e-08
-8.22219e-08
9.99921e-07
1.3866e-08
-8.23358e-08
1.40075e-08
-8.24414e-08
5.16612e-07
-9.16702e-08
5.12372e-07
-9.16741e-08
5.08253e-07
-9.16663e-08
5.04306e-07
-9.16128e-08
5.0049e-07
-9.15603e-08
-9.1505e-08
3.86505e-07
2.86619e-08
6.41448e-08
3.8285e-07
2.85521e-08
6.41879e-08
3.79235e-07
2.84911e-08
6.41936e-08
2.84172e-08
6.42152e-08
8.10011e-07
5.27252e-08
5.53376e-08
8.07902e-07
5.26689e-08
5.53939e-08
8.05711e-07
5.26475e-08
5.5439e-08
5.26293e-08
5.54813e-08
1.12595e-06
6.94777e-08
4.21658e-08
1.12698e-06
6.95593e-08
4.21556e-08
1.12788e-06
6.95964e-08
4.22007e-08
1.1287e-06
6.96491e-08
4.21959e-08
6.97052e-08
4.2162e-08
1.34555e-06
7.95896e-08
2.68265e-08
1.34829e-06
7.96358e-08
2.68522e-08
1.35101e-06
7.96559e-08
2.69427e-08
1.35372e-06
7.96797e-08
2.70151e-08
7.97147e-08
2.70838e-08
1.48264e-06
8.35992e-08
9.21902e-09
1.48597e-06
8.35933e-08
9.2821e-09
1.48929e-06
8.35799e-08
9.34567e-09
1.49261e-06
8.35688e-08
9.3867e-09
8.35591e-08
9.47243e-09
1.53547e-06
8.15311e-08
-8.88396e-09
1.53882e-06
8.15165e-08
-8.83959e-09
1.54214e-06
8.15055e-08
-8.8202e-09
1.54544e-06
8.15016e-08
-8.84644e-09
1.54872e-06
8.14996e-08
-8.86185e-09
8.14906e-08
-8.80729e-09
1.49599e-06
7.35299e-08
-2.61048e-08
1.49903e-06
7.3567e-08
-2.61381e-08
1.50202e-06
7.3578e-08
-2.61518e-08
1.50496e-06
7.35763e-08
-2.61548e-08
1.50788e-06
7.35508e-08
-2.61372e-08
7.35112e-08
-2.60681e-08
1.35925e-06
6.0019e-08
-4.09307e-08
1.36165e-06
6.00127e-08
-4.08698e-08
1.36403e-06
6.00198e-08
-4.0853e-08
1.36633e-06
6.00036e-08
-4.08057e-08
1.36858e-06
5.99638e-08
-4.08066e-08
5.99347e-08
-4.07936e-08
1.12579e-06
4.21462e-08
-5.27001e-08
1.12683e-06
4.21411e-08
-5.26914e-08
1.12775e-06
4.2197e-08
-5.26593e-08
1.12858e-06
4.21933e-08
-5.26262e-08
1.12932e-06
4.21608e-08
-5.26152e-08
4.21233e-08
-5.2592e-08
7.86845e-07
2.2415e-08
-6.05513e-08
7.85064e-07
2.2439e-08
-6.05827e-08
7.83254e-07
2.24676e-08
-6.05808e-08
7.81369e-07
2.24528e-08
-6.05969e-08
7.79375e-07
2.24363e-08
-6.0617e-08
2.24458e-08
-6.06405e-08
3.55081e-07
-6.63028e-08
3.52157e-07
-6.63112e-08
3.49247e-07
-6.62888e-08
3.46348e-07
-6.62604e-08
3.43461e-07
-6.62379e-08
-6.62069e-08
1.97689e-07
3.20619e-08
3.40362e-08
1.95779e-07
3.20331e-08
3.40648e-08
1.93881e-07
3.20156e-08
3.40757e-08
3.20058e-08
3.40834e-08
4.97514e-07
6.06117e-08
2.9825e-08
4.94479e-07
6.06127e-08
2.98493e-08
4.91448e-07
6.06197e-08
2.98654e-08
6.06467e-08
2.98692e-08
7.86881e-07
8.20131e-08
2.24243e-08
7.85099e-07
8.20983e-08
2.24508e-08
7.83278e-07
8.2153e-08
2.2482e-08
7.81367e-07
8.22621e-08
2.24639e-08
8.23811e-08
2.2451e-08
1.00265e-06
9.61391e-08
1.32489e-08
1.00211e-06
9.61785e-08
1.33142e-08
1.00153e-06
9.62075e-08
1.3471e-08
1.00085e-06
9.62595e-08
1.36955e-08
9.63038e-08
1.39016e-08
1.14223e-06
1.02848e-07
2.86067e-09
1.14189e-06
1.02836e-07
2.96677e-09
1.14153e-06
1.02828e-07
3.0849e-09
1.14113e-06
1.02827e-07
3.22459e-09
1.02835e-07
3.39966e-09
1.20116e-06
1.01814e-07
-7.33388e-09
1.20059e-06
1.018e-07
-7.24002e-09
1.19996e-06
1.01792e-07
-7.14854e-09
1.19923e-06
1.0178e-07
-7.0695e-09
1.19841e-06
1.0176e-07
-6.97168e-09
1.0176e-07
-6.84025e-09
1.16736e-06
9.31465e-08
-1.65665e-08
1.16637e-06
9.3166e-08
-1.65147e-08
1.16529e-06
9.31636e-08
-1.64449e-08
1.16411e-06
9.31791e-08
-1.63745e-08
1.16285e-06
9.31751e-08
-1.62831e-08
9.31852e-08
-1.61605e-08
1.03545e-06
7.72812e-08
-2.37741e-08
1.03407e-06
7.73286e-08
-2.36529e-08
1.0326e-06
7.73503e-08
-2.35677e-08
1.03107e-06
7.73801e-08
-2.34733e-08
1.02946e-06
7.7378e-08
-2.34029e-08
7.73849e-08
-2.33235e-08
8.12105e-07
5.52979e-08
-2.87727e-08
8.10062e-07
5.53274e-08
-2.86479e-08
8.07952e-07
5.53587e-08
-2.85578e-08
8.05774e-07
5.5406e-08
-2.84735e-08
8.03508e-07
5.54399e-08
-2.84118e-08
5.54745e-08
-2.83343e-08
5.00663e-07
2.98288e-08
-3.20531e-08
4.97625e-07
2.98267e-08
-3.20449e-08
4.94589e-07
2.98403e-08
-3.20256e-08
4.91554e-07
2.98515e-08
-3.20081e-08
4.88518e-07
2.98559e-08
-3.19972e-08
2.98601e-08
-3.19851e-08
1.87232e-07
-3.46742e-08
1.85446e-07
-3.4699e-08
1.83702e-07
-3.4704e-08
1.81995e-07
-3.47018e-08
1.80314e-07
-3.47008e-08
-3.47012e-08
6.11063e-08
3.47113e-08
6.04544e-08
3.47166e-08
5.98157e-08
3.47144e-08
3.47138e-08
1.85373e-07
6.6318e-08
1.83642e-07
6.62965e-08
1.81947e-07
6.62751e-08
6.62489e-08
3.54906e-07
9.1674e-08
3.51997e-07
9.16776e-08
3.49113e-07
9.16626e-08
3.46239e-07
9.16131e-08
9.1554e-08
5.16409e-07
1.09182e-07
5.12198e-07
1.09202e-07
5.08105e-07
1.09227e-07
5.04174e-07
1.09239e-07
1.09254e-07
6.40796e-07
1.17639e-07
6.353e-07
1.17665e-07
6.29906e-07
1.17706e-07
6.2461e-07
1.1776e-07
1.1782e-07
6.98196e-07
1.16843e-07
6.91715e-07
1.16905e-07
6.85331e-07
1.16941e-07
6.79063e-07
1.16958e-07
6.72934e-07
1.16978e-07
1.17006e-07
6.70128e-07
1.07029e-07
6.63452e-07
1.07067e-07
6.56855e-07
1.07093e-07
6.50346e-07
1.07093e-07
6.43935e-07
1.07106e-07
1.07133e-07
5.57852e-07
8.90117e-08
5.52215e-07
8.90509e-08
5.46686e-07
8.90542e-08
5.41252e-07
8.90535e-08
5.35904e-07
8.90509e-08
8.90588e-08
3.90288e-07
6.40561e-08
3.86571e-07
6.41198e-08
3.82919e-07
6.41482e-08
3.79328e-07
6.41707e-08
3.75781e-07
6.41858e-08
6.42203e-08
1.99702e-07
3.39876e-08
1.97749e-07
3.40272e-08
1.95824e-07
3.40481e-08
1.93926e-07
3.406e-08
1.92048e-07
3.40672e-08
3.40781e-08
6.18027e-08
6.11308e-08
6.04748e-08
5.9833e-08
5.91995e-08
)
;

boundaryField
{
    inlet
    {
        type            calculated;
        value           nonuniform List<scalar> 0();
    }
    ami1
    {
        type            cyclicAMI;
        value           nonuniform List<scalar> 0();
    }
    walls
    {
        type            calculated;
        value           nonuniform List<scalar> 
248
(
2.90979e-14
2.43942e-14
1.84387e-14
1.28555e-14
6.40674e-15
4.85969e-23
-6.40674e-15
-1.28555e-14
-1.84387e-14
-2.43942e-14
-2.90979e-14
2.90979e-14
2.43942e-14
1.84387e-14
1.28555e-14
6.40674e-15
4.85969e-23
-6.40674e-15
-1.28555e-14
-1.84387e-14
-2.43942e-14
-2.90979e-14
2.90979e-14
2.43942e-14
1.84387e-14
1.28555e-14
6.40674e-15
4.49779e-23
-6.40674e-15
-1.28555e-14
-1.84387e-14
-2.43942e-14
-2.90979e-14
2.90979e-14
2.43942e-14
1.84387e-14
1.28555e-14
6.40674e-15
-5.11818e-22
-6.40674e-15
-1.28555e-14
-1.84387e-14
-2.43942e-14
-2.90979e-14
2.90979e-14
2.43942e-14
1.84387e-14
1.28555e-14
6.40674e-15
4.85969e-23
-6.40674e-15
-1.28555e-14
-1.84387e-14
-2.43942e-14
-2.90979e-14
2.90979e-14
2.43942e-14
1.84387e-14
1.28555e-14
6.40674e-15
4.85969e-23
-6.40674e-15
-1.28555e-14
-1.84387e-14
-2.43942e-14
-2.90979e-14
2.90979e-14
2.43942e-14
1.84387e-14
1.28555e-14
6.40674e-15
4.85969e-23
-6.40674e-15
-1.28555e-14
-1.84387e-14
-2.43942e-14
-2.90979e-14
2.90979e-14
2.43942e-14
1.84387e-14
1.28555e-14
6.40674e-15
4.85969e-23
-6.40674e-15
-1.28555e-14
-1.84387e-14
-2.43942e-14
-2.90979e-14
2.90979e-14
2.43942e-14
1.84387e-14
1.28555e-14
6.40674e-15
4.49779e-23
-6.40674e-15
-1.28555e-14
-1.84387e-14
-2.43942e-14
-2.90979e-14
2.90979e-14
2.43942e-14
1.84387e-14
1.28555e-14
6.40674e-15
-5.11818e-22
-6.40674e-15
-1.28555e-14
-1.84387e-14
-2.43942e-14
-2.90979e-14
2.90979e-14
2.43942e-14
1.84387e-14
1.28555e-14
6.40674e-15
4.85969e-23
-6.40674e-15
-1.28555e-14
-1.84387e-14
-2.43942e-14
-2.90979e-14
2.90979e-14
2.43942e-14
1.84387e-14
1.28555e-14
6.40674e-15
4.85969e-23
-6.40674e-15
-1.28555e-14
-1.84387e-14
-2.43942e-14
-2.90979e-14
-1.84387e-14
-1.28555e-14
-6.40674e-15
-3.79986e-23
6.40674e-15
1.28555e-14
1.84387e-14
2.43942e-14
2.90979e-14
-2.90979e-14
-2.43942e-14
-1.84387e-14
-1.28555e-14
-6.40674e-15
-3.79986e-23
6.40674e-15
1.28555e-14
1.84387e-14
2.43942e-14
2.90979e-14
-2.90979e-14
-2.43942e-14
-1.84387e-14
-1.28555e-14
-6.40674e-15
-3.79986e-23
6.40674e-15
1.28555e-14
1.84387e-14
2.43942e-14
2.90979e-14
-2.90979e-14
-2.43942e-14
-1.84387e-14
-1.28555e-14
-6.40674e-15
-2.35488e-22
6.40674e-15
1.28555e-14
1.84387e-14
2.43942e-14
2.90979e-14
-2.90979e-14
-2.43942e-14
-1.84387e-14
-1.28555e-14
-6.40674e-15
-3.85156e-23
6.40674e-15
1.28555e-14
1.84387e-14
2.43942e-14
2.90979e-14
-3.85156e-23
6.40674e-15
1.28555e-14
1.84387e-14
2.43942e-14
2.90979e-14
-2.90979e-14
-2.43942e-14
-1.84387e-14
-1.28555e-14
-6.40674e-15
-3.79986e-23
6.40674e-15
-2.90979e-14
-2.43942e-14
-1.84387e-14
-1.28555e-14
-6.40674e-15
-3.79986e-23
6.40674e-15
1.28555e-14
1.84387e-14
2.43942e-14
2.90979e-14
-2.90979e-14
-2.43942e-14
-1.84387e-14
-1.28555e-14
-6.40674e-15
-3.79986e-23
6.40674e-15
1.28555e-14
1.84387e-14
2.43942e-14
2.90979e-14
-2.90979e-14
-2.43942e-14
-1.84387e-14
-1.28555e-14
-6.40674e-15
-2.35488e-22
6.40674e-15
1.28555e-14
1.84387e-14
2.43942e-14
2.90979e-14
-2.90979e-14
-2.43942e-14
-1.84387e-14
-1.28555e-14
-6.40674e-15
-3.85156e-23
6.40674e-15
1.28555e-14
1.84387e-14
2.43942e-14
2.90979e-14
-2.90979e-14
-2.43942e-14
-1.84387e-14
-1.28555e-14
-6.40674e-15
-3.85156e-23
)
;
    }
    ami2
    {
        type            cyclicAMI;
        value           nonuniform List<scalar> 0();
    }
    outlet
    {
        type            calculated;
        value           nonuniform List<scalar> 0();
    }
    procBoundary7to5
    {
        type            processor;
        value           nonuniform List<scalar> 
131
(
5.85206e-08
1.90019e-07
3.71922e-07
5.30124e-07
6.37003e-07
6.66448e-07
6.14159e-07
4.96549e-07
3.40456e-07
1.7859e-07
5.85498e-08
1.78525e-07
4.8515e-07
8.00917e-07
1.02762e-06
1.16132e-06
1.19726e-06
1.13983e-06
9.99007e-07
7.77133e-07
4.85343e-07
1.90135e-07
3.40364e-07
7.77026e-07
1.12996e-06
1.37074e-06
1.51077e-06
1.55188e-06
1.49906e-06
1.35885e-06
1.12997e-06
8.01062e-07
3.72163e-07
4.96469e-07
9.99012e-07
1.35885e-06
1.60295e-06
1.74673e-06
1.79242e-06
1.74312e-06
1.60295e-06
1.3707e-06
1.0277e-06
5.30503e-07
6.14204e-07
1.13988e-06
1.49902e-06
1.74305e-06
1.88834e-06
1.93633e-06
1.88836e-06
1.74666e-06
1.51066e-06
1.16136e-06
6.37493e-07
6.6669e-07
1.16996e-07
1.19731e-06
1.01786e-07
1.55181e-06
8.15279e-08
1.79231e-06
5.68116e-08
1.93627e-06
2.84817e-08
1.98449e-06
1.93631e-06
1.79233e-06
1.5518e-06
1.19734e-06
6.66831e-07
6.43693e-07
1.16272e-06
1.50785e-06
1.74154e-06
1.88215e-06
-3.16829e-08
1.93631e-06
1.88836e-06
1.74308e-06
1.49902e-06
1.13991e-06
6.14441e-07
5.35721e-07
1.0294e-06
1.36865e-06
1.59869e-06
1.73791e-06
-5.95142e-08
1.79242e-06
1.74673e-06
1.60296e-06
1.35883e-06
9.9909e-07
4.96753e-07
3.7568e-07
8.03438e-07
1.12945e-06
1.35642e-06
1.49594e-06
-8.35567e-08
1.55199e-06
1.51078e-06
1.37075e-06
1.12999e-06
7.77251e-07
3.40609e-07
1.92007e-07
4.88419e-07
7.79344e-07
1.00011e-06
1.14067e-06
-1.02843e-07
1.19753e-06
1.16151e-06
1.02779e-06
8.01161e-07
4.85477e-07
1.78668e-07
5.91854e-08
1.80281e-07
3.43385e-07
5.00376e-07
6.19443e-07
-1.17877e-07
6.66964e-07
6.37648e-07
5.30654e-07
3.72286e-07
1.90205e-07
5.85764e-08
)
;
    }
    procBoundary7to8
    {
        type            processor;
        value           nonuniform List<scalar> 
68
(
-6.24576e-08
-2.01573e-07
-3.9387e-07
-5.63332e-07
-6.76689e-07
-1.88946e-07
-5.03417e-07
-8.13816e-07
-1.03663e-06
-1.16808e-06
-3.57831e-07
-7.88291e-07
-1.12457e-06
-1.35677e-06
-1.49279e-06
-5.20635e-07
-1.00284e-06
-1.34249e-06
-1.57665e-06
-1.71573e-06
-6.46358e-07
-1.14227e-06
-1.47904e-06
-1.71158e-06
-1.85125e-06
-1.89747e-06
-7.04676e-07
-1.20148e-06
-1.53191e-06
-1.75971e-06
-1.89746e-06
-1.94376e-06
-6.76823e-07
1.07063e-07
-1.16815e-06
9.31738e-08
-1.49284e-06
-1.71578e-06
-1.85131e-06
-1.89751e-06
-5.57751e-07
-1.03544e-06
-4.09585e-08
-1.3569e-06
-1.57683e-06
-1.71176e-06
-1.75983e-06
-3.90227e-07
-8.12071e-07
-5.27268e-08
-1.12484e-06
-1.34282e-06
-1.47933e-06
-1.53209e-06
-1.99643e-07
-5.00551e-07
-6.05613e-08
-7.88591e-07
-1.0032e-06
-1.14258e-06
-1.20167e-06
-6.17813e-08
-1.87154e-07
-6.63159e-08
-3.57839e-07
-5.20668e-07
-6.46392e-07
-7.04733e-07
)
;
    }
    procBoundary7to9
    {
        type            processor;
        value           nonuniform List<scalar> 
59
(
-7.04639e-07
-6.4644e-07
-5.20785e-07
-3.57936e-07
-1.88975e-07
-6.24704e-08
-1.20145e-06
-1.14232e-06
-1.00297e-06
-7.88534e-07
-5.0361e-07
-2.01637e-07
-1.53191e-06
-1.4791e-06
-1.34258e-06
-1.12469e-06