/*--------------------------------*- C++ -*----------------------------------*\
| =========                 |                                                 |
| \\      /  F ield         | OpenFOAM: The Open Source CFD Toolbox           |
|  \\    /   O peration     | Version:  2212                                  |
|   \\  /    A nd           | Website:  www.openfoam.com                      |
|    \\/     M anipulation  |                                                 |
\*---------------------------------------------------------------------------*/
FoamFile
{
    version     2.0;
    format      ascii;
    arch        "LSB;label=32;scalar=64";
    class       surfaceScalarField;
    location    "1.45";
    object      phi;
}
// * * * * * * * * * * * * * * * * * * * * * * * * * * * * * * * * * * * * * //

dimensions      [0 3 -1 0 0 0 0];

oriented        oriented;

internalField   nonuniform List<scalar> 
1800
(
3.32249e-07
1.09681e-09
1.09687e-09
2.7919e-07
2.65296e-08
2.65296e-08
2.49217e-07
1.49866e-08
1.49865e-08
2.29253e-07
9.98241e-09
9.98226e-09
2.14832e-07
7.21083e-09
7.21004e-09
2.03194e-07
5.81966e-09
5.81848e-09
4.71702e-09
4.71418e-09
6.3138e-07
3.58766e-09
7.40287e-09
6.14563e-07
2.26462e-08
2.07004e-08
5.86444e-07
2.43766e-08
1.87292e-08
5.61723e-07
1.88559e-08
1.58473e-08
5.39613e-07
1.55714e-08
1.37496e-08
5.2063e-07
1.35135e-08
1.12893e-08
1.19572e-08
8.70941e-09
8.90375e-07
2.85273e-09
6.33233e-09
8.82486e-07
1.34091e-08
1.71257e-08
8.70359e-07
1.78683e-08
1.86356e-08
8.55111e-07
1.69569e-08
1.71466e-08
8.39981e-07
1.53423e-08
1.53593e-08
8.25534e-07
1.41726e-08
1.37881e-08
1.33838e-08
1.23397e-08
1.07432e-06
1.06494e-09
5.56886e-09
1.06824e-06
5.58707e-09
1.39001e-08
1.06138e-06
8.465e-09
1.62614e-08
1.05339e-06
9.04138e-09
1.59078e-08
1.04511e-06
8.62001e-09
1.49996e-08
1.03723e-06
8.1236e-09
1.39292e-08
7.79106e-09
1.29709e-08
1.16914e-06
-3.89734e-14
4.90652e-09
1.16312e-06
-2.11219e-13
1.16084e-08
1.15731e-06
-5.60124e-13
1.42752e-08
1.15202e-06
-1.05512e-12
1.43327e-08
1.14692e-06
-1.87578e-12
1.3728e-08
1.14208e-06
-3.41152e-12
1.29651e-08
-6.29303e-12
1.20941e-08
1.16914e-06
-1.06506e-09
4.90654e-09
1.16312e-06
-5.58747e-09
1.16084e-08
1.15731e-06
-8.46573e-09
1.42752e-08
1.15202e-06
-9.04262e-09
1.43329e-08
1.14691e-06
-8.62257e-09
1.3729e-08
1.14207e-06
-8.12876e-09
1.29672e-08
-7.80088e-09
1.20974e-08
1.07432e-06
-2.85272e-09
5.56884e-09
1.06824e-06
-1.34091e-08
1.39001e-08
1.06138e-06
-1.78682e-08
1.62617e-08
1.05338e-06
-1.69568e-08
1.5909e-08
1.0451e-06
-1.53425e-08
1.50021e-08
1.03721e-06
-1.41737e-08
1.39331e-08
-1.33862e-08
1.29768e-08
8.90375e-07
-3.58765e-09
6.33237e-09
8.82485e-07
-2.2646e-08
1.71261e-08
8.70357e-07
-2.43763e-08
1.86366e-08
8.55107e-07
-1.88555e-08
1.71483e-08
8.39973e-07
-1.55702e-08
1.53617e-08
8.2552e-07
-1.35113e-08
1.37913e-08
-1.19532e-08
1.23449e-08
6.3138e-07
-1.09689e-09
7.40291e-09
6.14563e-07
-2.65296e-08
2.07006e-08
5.86444e-07
-1.49866e-08
1.87297e-08
5.61722e-07
-9.98229e-09
1.58483e-08
5.39611e-07
-7.21009e-09
1.37509e-08
5.20626e-07
-5.81853e-09
1.12919e-08
-4.71424e-09
8.71355e-09
3.32249e-07
1.0968e-09
2.7919e-07
2.65296e-08
2.49217e-07
1.49865e-08
2.29252e-07
9.98239e-09
2.14832e-07
7.2108e-09
2.03193e-07
5.81963e-09
4.71698e-09
6.3138e-07
7.40291e-09
3.58763e-09
6.14563e-07
2.07006e-08
2.2646e-08
5.86444e-07
1.87297e-08
2.43763e-08
5.61722e-07
1.58483e-08
1.88555e-08
5.39611e-07
1.37509e-08
1.55701e-08
5.20626e-07
1.12919e-08
1.35112e-08
8.71354e-09
1.19531e-08
9.23616e-07
7.03401e-09
7.03394e-09
9.25317e-07
1.98504e-08
1.98501e-08
9.17181e-07
2.27978e-08
2.27972e-08
9.04269e-07
2.23042e-08
2.2303e-08
8.90523e-07
2.0624e-08
2.0622e-08
8.77391e-07
1.78585e-08
1.78547e-08
1.47057e-08
1.46994e-08
1.1589e-06
5.28158e-09
6.10261e-09
1.1657e-06
1.39995e-08
1.61829e-08
1.16844e-06
1.79794e-08
2.07065e-08
1.16661e-06
1.91812e-08
2.21046e-08
1.16221e-06
1.88796e-08
2.15051e-08
1.15653e-06
1.75509e-08
1.9769e-08
1.56938e-08
1.74239e-08
1.32762e-06
2.71843e-09
4.93109e-09
1.33539e-06
7.12145e-09
1.30089e-08
1.34286e-06
9.55452e-09
1.72157e-08
1.34848e-06
1.05795e-08
1.88988e-08
1.35198e-06
1.08773e-08
1.95e-08
1.35376e-06
1.05836e-08
1.91133e-08
9.89634e-09
1.80979e-08
1.41518e-06
-1.01613e-13
4.19285e-09
1.42279e-06
-3.01272e-13
1.11158e-08
1.43152e-06
-5.19943e-13
1.50984e-08
1.43981e-06
-1.01503e-12
1.66288e-08
1.44714e-06
-1.99237e-12
1.72738e-08
1.45319e-06
-3.60741e-12
1.75066e-08
-6.01406e-12
1.71479e-08
1.41518e-06
-2.71855e-09
4.1929e-09
1.42279e-06
-7.12178e-09
1.1116e-08
1.43152e-06
-9.55511e-09
1.50986e-08
1.4398e-06
-1.05807e-08
1.66295e-08
1.44714e-06
-1.08797e-08
1.72754e-08
1.45318e-06
-1.05879e-08
1.75095e-08
-9.90369e-09
1.71527e-08
1.32762e-06
-5.28153e-09
4.93121e-09
1.33539e-06
-1.39994e-08
1.30093e-08
1.34286e-06
-1.79793e-08
1.72166e-08
1.34847e-06
-1.9181e-08
1.89012e-08
1.35197e-06
-1.88792e-08
1.95044e-08
1.35374e-06
-1.755e-08
1.91201e-08
-1.56929e-08
1.81085e-08
1.1589e-06
-7.03395e-09
6.10276e-09
1.16569e-06
-1.98501e-08
1.61836e-08
1.16844e-06
-2.27972e-08
2.07081e-08
1.1666e-06
-2.23031e-08
2.21072e-08
1.1622e-06
-2.06221e-08
2.1509e-08
1.15652e-06
-1.78548e-08
1.97744e-08
-1.46995e-08
1.74328e-08
9.23616e-07
-7.40287e-09
7.03401e-09
9.25317e-07
-2.07004e-08
1.98504e-08
9.17181e-07
-1.87292e-08
2.27978e-08
9.04269e-07
-1.58473e-08
2.23042e-08
8.90523e-07
-1.37497e-08
2.0624e-08
8.77391e-07
-1.12894e-08
1.78586e-08
-8.70946e-09
1.47057e-08
6.3138e-07
3.58764e-09
6.14563e-07
2.26462e-08
5.86444e-07
2.43765e-08
5.61723e-07
1.88559e-08
5.39613e-07
1.55714e-08
5.20629e-07
1.35135e-08
1.19572e-08
8.90375e-07
6.33237e-09
2.8527e-09
8.82485e-07
1.71261e-08
1.3409e-08
8.70357e-07
1.86366e-08
1.78682e-08
8.55107e-07
1.71483e-08
1.69567e-08
8.39973e-07
1.53617e-08
1.53425e-08
8.2552e-07
1.37913e-08
1.41736e-08
1.23448e-08
1.3386e-08
1.1589e-06
6.10276e-09
5.28151e-09
1.16569e-06
1.61836e-08
1.39993e-08
1.16844e-06
2.07081e-08
1.79792e-08
1.1666e-06
2.21072e-08
1.91809e-08
1.1622e-06
2.1509e-08
1.88791e-08
1.15652e-06
1.97744e-08
1.75498e-08
1.74328e-08
1.56927e-08
1.37712e-06
4.57759e-09
4.57743e-09
1.38565e-06
1.19179e-08
1.19174e-08
1.39417e-06
1.64486e-08
1.64476e-08
1.40126e-06
1.85632e-08
1.85616e-08
1.40641e-06
1.89339e-08
1.89311e-08
1.4095e-06
1.82271e-08
1.82229e-08
1.67241e-08
1.67171e-08
1.53312e-06
2.36627e-09
3.6493e-09
1.54218e-06
6.23951e-09
9.63387e-09
1.55328e-06
8.87459e-09
1.36918e-08
1.56445e-06
1.03493e-08
1.59368e-08
1.57507e-06
1.09033e-08
1.6912e-08
1.5847e-06
1.07606e-08
1.69458e-08
1.01527e-08
1.6377e-08
1.61424e-06
-8.22859e-14
3.09274e-09
1.62332e-06
-1.96069e-13
8.27378e-09
1.63534e-06
-3.4921e-13
1.19567e-08
1.6482e-06
-6.41397e-13
1.41138e-08
1.66118e-06
-1.18127e-12
1.51989e-08
1.67387e-06
-1.94618e-12
1.55805e-08
-3.24614e-12
1.54258e-08
1.61424e-06
-2.36634e-09
3.09282e-09
1.62332e-06
-6.23965e-09
8.27404e-09
1.63534e-06
-8.87482e-09
1.19573e-08
1.6482e-06
-1.03497e-08
1.41149e-08
1.66118e-06
-1.09039e-08
1.5201e-08
1.67386e-06
-1.07613e-08
1.55838e-08
-1.0154e-08
1.54305e-08
1.53312e-06
-4.57744e-09
3.64951e-09
1.54218e-06
-1.19175e-08
9.6345e-09
1.55327e-06
-1.64477e-08
1.36931e-08
1.56445e-06
-1.85617e-08
1.59391e-08
1.57506e-06
-1.89313e-08
1.69159e-08
1.58469e-06
-1.82231e-08
1.6952e-08
-1.67174e-08
1.63864e-08
1.37712e-06
-6.10261e-09
4.57759e-09
1.38565e-06
-1.61829e-08
1.19179e-08
1.39417e-06
-2.07065e-08
1.64486e-08
1.40126e-06
-2.21046e-08
1.85632e-08
1.40641e-06
-2.15052e-08
1.89339e-08
1.4095e-06
-1.97691e-08
1.82271e-08
-1.74241e-08
1.6724e-08
1.1589e-06
-6.33233e-09
5.28158e-09
1.1657e-06
-1.71257e-08
1.39995e-08
1.16844e-06
-1.86356e-08
1.79794e-08
1.16661e-06
-1.71467e-08
1.91812e-08
1.16221e-06
-1.53594e-08
1.88796e-08
1.15653e-06
-1.37882e-08
1.75509e-08
-1.23398e-08
1.56938e-08
8.90375e-07
2.85272e-09
8.82486e-07
1.34091e-08
8.70359e-07
1.78683e-08
8.55111e-07
1.69569e-08
8.39981e-07
1.53423e-08
8.25533e-07
1.41726e-08
1.33838e-08
1.07432e-06
5.56884e-09
1.06504e-09
1.06824e-06
1.39001e-08
5.58743e-09
1.06138e-06
1.62617e-08
8.46569e-09
1.05338e-06
1.5909e-08
9.04257e-09
1.0451e-06
1.50021e-08
8.62249e-09
1.03721e-06
1.39331e-08
8.12864e-09
1.29768e-08
7.8007e-09
1.32762e-06
4.93121e-09
2.71854e-09
1.33539e-06
1.30093e-08
7.12175e-09
1.34286e-06
1.72166e-08
9.55505e-09
1.34847e-06
1.89012e-08
1.05806e-08
1.35197e-06
1.95044e-08
1.08796e-08
1.35374e-06
1.91202e-08
1.05877e-08
1.81086e-08
9.90341e-09
1.53312e-06
3.64951e-09
2.36632e-09
1.54218e-06
9.63451e-09
6.23959e-09
1.55327e-06
1.36931e-08
8.87474e-09
1.56445e-06
1.59391e-08
1.03496e-08
1.57506e-06
1.6916e-08
1.09037e-08
1.58469e-06
1.6952e-08
1.0761e-08
1.63865e-08
1.01537e-08
1.68027e-06
1.89123e-09
1.89113e-09
1.68934e-06
5.09988e-09
5.09955e-09
1.70179e-06
7.46524e-09
7.46459e-09
1.71578e-06
8.94777e-09
8.94667e-09
1.73021e-06
9.69579e-09
9.69398e-09
1.74438e-06
9.86522e-09
9.86231e-09
9.65873e-09
9.65431e-09
1.7569e-06
-2.03349e-14
1.61321e-09
1.76589e-06
-9.3761e-15
4.38406e-09
1.77878e-06
1.54454e-14
6.53167e-09
1.79389e-06
5.38585e-14
7.95086e-09
1.81003e-06
1.26306e-13
8.75531e-09
1.82639e-06
2.53799e-13
9.08495e-09
4.10812e-13
9.07085e-09
1.7569e-06
-1.89116e-09
1.61328e-09
1.76589e-06
-5.09961e-09
4.38429e-09
1.77878e-06
-7.46469e-09
6.53213e-09
1.79389e-06
-8.94681e-09
7.95168e-09
1.81003e-06
-9.69419e-09
8.75664e-09
1.82639e-06
-9.8626e-09
9.087e-09
-9.65467e-09
9.07381e-09
1.68027e-06
-3.64932e-09
1.89123e-09
1.68934e-06
-9.63391e-09
5.09988e-09
1.70179e-06
-1.36919e-08
7.46523e-09
1.71578e-06
-1.59369e-08
8.94774e-09
1.73021e-06
-1.69122e-08
9.69574e-09
1.74438e-06
-1.6946e-08
9.86514e-09
-1.63773e-08
9.65862e-09
1.53312e-06
-4.9311e-09
2.36627e-09
1.54218e-06
-1.3009e-08
6.23951e-09
1.55328e-06
-1.72157e-08
8.87459e-09
1.56445e-06
-1.88989e-08
1.03493e-08
1.57507e-06
-1.95001e-08
1.09033e-08
1.5847e-06
-1.91134e-08
1.07605e-08
-1.80981e-08
1.01526e-08
1.32762e-06
-5.56886e-09
2.71842e-09
1.33539e-06
-1.39001e-08
7.12145e-09
1.34286e-06
-1.62614e-08
9.55452e-09
1.34848e-06
-1.59078e-08
1.05795e-08
1.35198e-06
-1.49996e-08
1.08773e-08
1.35376e-06
-1.39292e-08
1.05836e-08
-1.2971e-08
9.89631e-09
1.07432e-06
1.06494e-09
1.06824e-06
5.58707e-09
1.06138e-06
8.46499e-09
1.05339e-06
9.04137e-09
1.04511e-06
8.62e-09
1.03723e-06
8.12357e-09
7.79103e-09
1.16914e-06
4.90653e-09
2.56689e-14
1.16312e-06
1.16084e-08
1.77529e-13
1.15731e-06
1.42752e-08
5.28431e-13
1.15202e-06
1.43329e-08
1.00202e-12
1.14691e-06
1.3729e-08
1.78904e-12
1.14207e-06
1.29672e-08
3.28319e-12
1.20974e-08
6.11177e-12
1.41518e-06
4.1929e-09
8.44403e-14
1.42279e-06
1.1116e-08
2.62889e-13
1.43152e-06
1.50986e-08
4.5137e-13
1.4398e-06
1.66295e-08
9.0212e-13
1.44714e-06
1.72755e-08
1.82487e-12
1.45318e-06
1.75096e-08
3.37537e-12
1.71528e-08
5.70645e-12
1.61424e-06
3.09282e-09
5.82362e-14
1.62332e-06
8.27405e-09
1.38737e-13
1.63534e-06
1.19573e-08
2.5123e-13
1.6482e-06
1.41149e-08
4.90787e-13
1.66118e-06
1.52011e-08
9.6773e-13
1.67386e-06
1.55839e-08
1.66112e-12
1.54306e-08
2.8785e-12
1.7569e-06
1.61329e-09
-9.08597e-15
1.76589e-06
4.3843e-09
-5.63452e-14
1.77878e-06
6.53216e-09
-1.22463e-13
1.79389e-06
7.95174e-09
-2.13272e-13
1.81003e-06
8.75673e-09
-3.48765e-13
1.82639e-06
9.08713e-09
-5.47831e-13
9.07398e-09
-7.85687e-13
1.83127e-06
3.57628e-15
-3.49369e-14
1.84004e-06
3.9575e-14
-1.06332e-13
1.85311e-06
1.02405e-13
-2.05062e-13
1.86901e-06
1.92951e-13
-3.43055e-13
1.88652e-06
3.2504e-13
-5.32998e-13
1.90469e-06
5.12941e-13
-7.88758e-13
7.67044e-13
-1.12046e-12
1.83127e-06
-1.61324e-09
3.20414e-15
1.84004e-06
-4.38412e-09
2.78354e-14
1.85311e-06
-6.53177e-09
6.84968e-14
1.86901e-06
-7.951e-09
1.31467e-13
1.88652e-06
-8.75551e-09
2.31537e-13
1.90469e-06
-9.08522e-09
3.83723e-13
-9.0712e-09
5.98982e-13
1.7569e-06
-3.09276e-09
-1.96553e-14
1.76589e-06
-8.27383e-09
-1.47448e-14
1.77878e-06
-1.19568e-08
-2.08389e-15
1.79389e-06
-1.41139e-08
1.9193e-14
1.81003e-06
-1.51991e-08
7.12351e-14
1.82639e-06
-1.55807e-08
1.74696e-13
-1.54261e-08
3.04732e-13
1.61424e-06
-4.19286e-09
-8.05011e-14
1.62332e-06
-1.11158e-08
-1.95918e-13
1.63534e-06
-1.50984e-08
-3.54451e-13
1.6482e-06
-1.66288e-08
-6.56285e-13
1.66118e-06
-1.72739e-08
-1.21e-12
1.67387e-06
-1.75067e-08
-1.99084e-12
-1.71481e-08
-3.30603e-12
1.41518e-06
-4.90653e-09
-9.90098e-14
1.42279e-06
-1.16084e-08
-2.9893e-13
1.43152e-06
-1.42752e-08
-5.18541e-13
1.43981e-06
-1.43327e-08
-1.01798e-12
1.44714e-06
-1.37281e-08
-2.00318e-12
1.45319e-06
-1.29651e-08
-3.62855e-12
-1.20942e-08
-6.04522e-12
1.16914e-06
-3.58914e-14
1.16312e-06
-2.05354e-13
1.15731e-06
-5.58612e-13
1.15202e-06
-1.05344e-12
1.14692e-06
-1.87867e-12
1.14208e-06
-3.41976e-12
-6.30675e-12
1.16914e-06
4.90653e-09
-1.06495e-09
1.16312e-06
1.16084e-08
-5.5871e-09
1.15731e-06
1.42752e-08
-8.46503e-09
1.15202e-06
1.43327e-08
-9.04143e-09
1.14692e-06
1.37281e-08
-8.6201e-09
1.14208e-06
1.29651e-08
-8.12372e-09
1.20942e-08
-7.79124e-09
1.41518e-06
4.19285e-09
-2.71844e-09
1.42279e-06
1.11158e-08
-7.12149e-09
1.43152e-06
1.50984e-08
-9.55458e-09
1.43981e-06
1.66288e-08
-1.05796e-08
1.44714e-06
1.72738e-08
-1.08775e-08
1.45319e-06
1.75067e-08
-1.05838e-08
1.7148e-08
-9.89663e-09
1.61424e-06
3.09274e-09
-2.36629e-09
1.62332e-06
8.2738e-09
-6.23957e-09
1.63534e-06
1.19568e-08
-8.87469e-09
1.6482e-06
1.41138e-08
-1.03494e-08
1.66118e-06
1.5199e-08
-1.09035e-08
1.67387e-06
1.55807e-08
-1.07608e-08
1.5426e-08
-1.0153e-08
1.7569e-06
1.61321e-09
-1.89126e-09
1.76589e-06
4.38408e-09
-5.09994e-09
1.77878e-06
6.53172e-09
-7.46534e-09
1.79389e-06
7.95095e-09
-8.94792e-09
1.81003e-06
8.75543e-09
-9.696e-09
1.82639e-06
9.08512e-09
-9.86549e-09
9.07108e-09
-9.65908e-09
1.83127e-06
-3.25894e-14
-1.61331e-09
1.84004e-06
-8.54217e-14
-4.38436e-09
1.85311e-06
-1.52732e-13
-6.53225e-09
1.86901e-06
-2.547e-13
-7.95187e-09
1.88652e-06
-4.0474e-13
-8.75692e-09
1.90469e-06
-6.16416e-13
-9.08738e-09
-8.99971e-13
-9.0743e-09
1.83127e-06
-1.61331e-09
-1.61324e-09
1.84004e-06
-4.38434e-09
-4.38413e-09
1.85311e-06
-6.53221e-09
-6.5318e-09
1.86901e-06
-7.9518e-09
-7.95106e-09
1.88652e-06
-8.75681e-09
-8.75559e-09
1.90469e-06
-9.08723e-09
-9.08533e-09
-9.07411e-09
1.7569e-06
-3.09284e-09
-1.89116e-09
1.76589e-06
-8.27409e-09
-5.09962e-09
1.77878e-06
-1.19573e-08
-7.4647e-09
1.79389e-06
-1.41149e-08
-8.94684e-09
1.81003e-06
-1.52012e-08
-9.69423e-09
1.82639e-06
-1.5584e-08
-9.86266e-09
-1.54308e-08
1.61424e-06
-4.19291e-09
-2.36634e-09
1.62332e-06
-1.1116e-08
-6.23964e-09
1.63534e-06
-1.50987e-08
-8.87483e-09
1.6482e-06
-1.66295e-08
-1.03497e-08
1.66118e-06
-1.72755e-08
-1.09039e-08
1.67386e-06
-1.75097e-08
-1.07613e-08
-1.71529e-08
1.41518e-06
-4.90654e-09
-2.71855e-09
1.42279e-06
-1.16084e-08
-7.12178e-09
1.43152e-06
-1.42752e-08
-9.55511e-09
1.4398e-06
-1.4333e-08
-1.05807e-08
1.44714e-06
-1.3729e-08
-1.08798e-08
1.45318e-06
-1.29672e-08
-1.05879e-08
-1.20975e-08
1.16914e-06
-1.06505e-09
1.16312e-06
-5.58745e-09
1.15731e-06
-8.46571e-09
1.15202e-06
-9.04261e-09
1.14691e-06
-8.62256e-09
1.14207e-06
-8.12875e-09
1.07432e-06
5.56885e-09
-2.85274e-09
1.06824e-06
1.39001e-08
-1.34091e-08
1.06138e-06
1.62614e-08
-1.78683e-08
1.05339e-06
1.59078e-08
-1.6957e-08
1.04511e-06
1.49996e-08
-1.53424e-08
1.03723e-06
1.39292e-08
-1.41728e-08
1.2971e-08
-1.3384e-08
1.32762e-06
4.93109e-09
-5.2816e-09
1.33539e-06
1.30089e-08
-1.39995e-08
1.34286e-06
1.72157e-08
-1.79795e-08
1.34848e-06
1.88989e-08
-1.91813e-08
1.35198e-06
1.95001e-08
-1.88797e-08
1.35376e-06
1.91134e-08
-1.75511e-08
1.8098e-08
-1.5694e-08
1.53312e-06
3.6493e-09
-4.5776e-09
1.54218e-06
9.63388e-09
-1.1918e-08
1.55328e-06
1.36918e-08
-1.64487e-08
1.56445e-06
1.59369e-08
-1.85634e-08
1.57507e-06
1.69121e-08
-1.8934e-08
1.5847e-06
1.69459e-08
-1.82274e-08
1.63772e-08
-1.67244e-08
1.68027e-06
1.89114e-09
-3.64953e-09
1.68934e-06
5.09957e-09
-9.63455e-09
1.70179e-06
7.46465e-09
-1.36931e-08
1.71578e-06
8.94676e-09
-1.59393e-08
1.73021e-06
9.69412e-09
-1.69162e-08
1.74438e-06
9.86251e-09
-1.69523e-08
9.65455e-09
-1.63868e-08
1.7569e-06
-4.57503e-15
-3.09284e-09
1.76589e-06
-3.16813e-14
-8.27409e-09
1.77878e-06
-6.28474e-14
-1.19574e-08
1.79389e-06
-1.11882e-13
-1.4115e-08
1.81003e-06
-2.02067e-13
-1.52013e-08
1.82639e-06
-3.53029e-13
-1.55842e-08
-1.54309e-08
1.7569e-06
-1.89126e-09
-3.09276e-09
1.76589e-06
-5.09992e-09
-8.27383e-09
1.77878e-06
-7.46529e-09
-1.19568e-08
1.79389e-06
-8.94783e-09
-1.41139e-08
1.81003e-06
-9.69586e-09
-1.51991e-08
-9.86532e-09
-1.55808e-08
1.68027e-06
-3.64953e-09
-3.64932e-09
1.68934e-06
-9.63454e-09
-9.63391e-09
1.70179e-06
-1.36931e-08
-1.36919e-08
1.71578e-06
-1.59392e-08
-1.59369e-08
1.73021e-06
-1.6916e-08
-1.69122e-08
-1.69521e-08
-1.6946e-08
1.53312e-06
-4.93122e-09
-4.57744e-09
1.54218e-06
-1.30093e-08
-1.19175e-08
1.55327e-06
-1.72166e-08
-1.64477e-08
1.56445e-06
-1.89013e-08
-1.85617e-08
1.57506e-06
-1.95045e-08
-1.89313e-08
-1.91202e-08
-1.82231e-08
1.32762e-06
-5.56884e-09
-5.28152e-09
1.33539e-06
-1.39001e-08
-1.39994e-08
1.34286e-06
-1.62617e-08
-1.79793e-08
1.34847e-06
-1.5909e-08
-1.9181e-08
1.35197e-06
-1.50021e-08
-1.88792e-08
-1.39331e-08
-1.755e-08
1.07432e-06
-2.85271e-09
1.06824e-06
-1.3409e-08
1.06138e-06
-1.78682e-08
1.05338e-06
-1.69568e-08
1.0451e-06
-1.53425e-08
-1.41737e-08
8.90375e-07
6.33233e-09
-3.58767e-09
8.82486e-07
1.71257e-08
-2.26463e-08
8.70359e-07
1.86356e-08
-2.43766e-08
8.55111e-07
1.71467e-08
-1.8856e-08
8.39981e-07
1.53594e-08
-1.55715e-08
8.25533e-07
1.37882e-08
-1.35136e-08
1.23398e-08
-1.19573e-08
1.1589e-06
6.1026e-09
-7.03402e-09
1.1657e-06
1.61829e-08
-1.98504e-08
1.16844e-06
2.07065e-08
-2.27979e-08
1.16661e-06
2.21046e-08
-2.23043e-08
1.16221e-06
2.15051e-08
-2.06241e-08
1.15653e-06
1.97691e-08
-1.78587e-08
1.74241e-08
-1.47059e-08
1.37712e-06
4.57743e-09
-6.10277e-09
1.38565e-06
1.19175e-08
-1.61836e-08
1.39417e-06
1.64477e-08
-2.07082e-08
1.40126e-06
1.85617e-08
-2.21073e-08
1.40641e-06
1.89313e-08
-2.15091e-08
1.4095e-06
1.82231e-08
-1.97745e-08
1.67173e-08
-1.7433e-08
1.53312e-06
2.36632e-09
-4.93121e-09
1.54218e-06
6.23961e-09
-1.30093e-08
1.55327e-06
8.87478e-09
-1.72167e-08
1.56445e-06
1.03497e-08
-1.89013e-08
1.57506e-06
1.09038e-08
-1.95045e-08
1.58469e-06
1.07612e-08
-1.91203e-08
1.01539e-08
-1.81088e-08
1.61424e-06
6.05185e-14
-4.19291e-09
1.62332e-06
1.57352e-13
-1.1116e-08
1.63534e-06
3.03516e-13
-1.50987e-08
1.6482e-06
5.85104e-13
-1.66295e-08
1.66118e-06
1.10855e-12
-1.72756e-08
1.67386e-06
1.8525e-12
-1.75097e-08
-1.7153e-08
1.61424e-06
-2.36629e-09
-4.19286e-09
1.62332e-06
-6.23955e-09
-1.11159e-08
1.63534e-06
-8.87464e-09
-1.50984e-08
1.6482e-06
-1.03493e-08
-1.66289e-08
1.66118e-06
-1.09034e-08
-1.72739e-08
-1.07606e-08
-1.75068e-08
1.53312e-06
-4.5776e-09
-4.9311e-09
1.54218e-06
-1.1918e-08
-1.3009e-08
1.55328e-06
-1.64486e-08
-1.72157e-08
1.56445e-06
-1.85633e-08
-1.88989e-08
1.57507e-06
-1.89339e-08
-1.95001e-08
-1.82272e-08
-1.91134e-08
1.37712e-06
-6.10277e-09
-6.10261e-09
1.38565e-06
-1.61836e-08
-1.6183e-08
1.39417e-06
-2.07081e-08
-2.07065e-08
1.40126e-06
-2.21072e-08
-2.21046e-08
1.4064e-06
-2.1509e-08
-2.15051e-08
-1.97744e-08
-1.97691e-08
1.1589e-06
-6.33237e-09
-7.03394e-09
1.16569e-06
-1.71261e-08
-1.98501e-08
1.16844e-06
-1.86366e-08
-2.27972e-08
1.1666e-06
-1.71483e-08
-2.23031e-08
1.1622e-06
-1.53617e-08
-2.06221e-08
-1.37913e-08
-1.78548e-08
8.90375e-07
-3.58763e-09
8.82485e-07
-2.2646e-08
8.70357e-07
-2.43763e-08
8.55107e-07
-1.88555e-08
8.39973e-07
-1.55701e-08
-1.35112e-08
6.3138e-07
7.40287e-09
-1.09682e-09
6.14563e-07
2.07003e-08
-2.65297e-08
5.86444e-07
1.87292e-08
-1.49866e-08
5.61723e-07
1.58473e-08
-9.98245e-09
5.39613e-07
1.37497e-08
-7.21089e-09
5.20629e-07
1.12894e-08
-5.81972e-09
8.70946e-09
-4.71708e-09
9.23616e-07
7.03394e-09
-7.40291e-09
9.25317e-07
1.98501e-08
-2.07006e-08
9.1718e-07
2.27972e-08
-1.87297e-08
9.04269e-07
2.23031e-08
-1.58483e-08
8.90523e-07
2.06221e-08
-1.3751e-08
8.77391e-07
1.78548e-08
-1.1292e-08
1.46995e-08
-8.71364e-09
1.1589e-06
5.28151e-09
-6.33237e-09
1.16569e-06
1.39993e-08
-1.71261e-08
1.16844e-06
1.79792e-08
-1.86366e-08
1.1666e-06
1.9181e-08
-1.71483e-08
1.1622e-06
1.88791e-08
-1.53618e-08
1.15652e-06
1.75499e-08
-1.37914e-08
1.56928e-08
-1.2345e-08
1.32762e-06
2.71853e-09
-5.56884e-09
1.33539e-06
7.12174e-09
-1.39001e-08
1.34286e-06
9.55506e-09
-1.62618e-08
1.34847e-06
1.05807e-08
-1.59091e-08
1.35197e-06
1.08797e-08
-1.50021e-08
1.35374e-06
1.05878e-08
-1.39332e-08
9.90358e-09
-1.29769e-08
1.41518e-06
8.26266e-14
-4.90654e-09
1.42279e-06
2.57064e-13
-1.16084e-08
1.43152e-06
4.66669e-13
-1.42752e-08
1.4398e-06
9.51147e-13
-1.4333e-08
1.44714e-06
1.91287e-12
-1.37291e-08
1.45318e-06
3.50797e-12
-1.29673e-08
-1.20975e-08
1.41518e-06
-2.71844e-09
-4.90652e-09
1.42279e-06
-7.12149e-09
-1.16084e-08
1.43152e-06
-9.55456e-09
-1.42752e-08
1.43981e-06
-1.05796e-08
-1.43328e-08
1.44714e-06
-1.08774e-08
-1.37281e-08
-1.05837e-08
-1.29652e-08
1.32762e-06
-5.2816e-09
-5.56886e-09
1.33539e-06
-1.39995e-08
-1.39001e-08
1.34286e-06
-1.79794e-08
-1.62614e-08
1.34848e-06
-1.91813e-08
-1.59078e-08
1.35198e-06
-1.88796e-08
-1.49996e-08
-1.7551e-08
-1.39292e-08
1.1589e-06
-7.03401e-09
-6.33234e-09
1.1657e-06
-1.98504e-08
-1.71257e-08
1.16844e-06
-2.27978e-08
-1.86356e-08
1.16661e-06
-2.23042e-08
-1.71467e-08
1.16221e-06
-2.0624e-08
-1.53594e-08
-1.78586e-08
-1.37882e-08
9.23616e-07
-7.40291e-09
-7.40287e-09
9.25317e-07
-2.07006e-08
-2.07004e-08
9.1718e-07
-1.87297e-08
-1.87292e-08
9.04269e-07
-1.58483e-08
-1.58473e-08
8.90523e-07
-1.37509e-08
-1.37497e-08
-1.12919e-08
-1.12894e-08
6.3138e-07
-1.09686e-09
6.14563e-07
-2.65296e-08
5.86443e-07
-1.49865e-08
5.61722e-07
-9.98223e-09
5.39611e-07
-7.21002e-09
-5.81845e-09
3.32249e-07
1.09686e-09
2.7919e-07
2.65296e-08
2.49217e-07
1.49865e-08
2.29252e-07
9.98223e-09
2.14832e-07
7.21002e-09
2.03193e-07
5.81845e-09
4.71415e-09
6.3138e-07
3.58762e-09
6.14563e-07
2.2646e-08
5.86444e-07
2.43763e-08
5.61722e-07
1.88554e-08
5.39611e-07
1.55701e-08
5.20626e-07
1.35111e-08
1.19531e-08
8.90375e-07
2.85269e-09
8.82485e-07
1.3409e-08
8.70357e-07
1.78681e-08
8.55107e-07
1.69567e-08
8.39973e-07
1.53424e-08
8.2552e-07
1.41736e-08
1.3386e-08
1.07432e-06
1.06503e-09
1.06824e-06
5.5874e-09
1.06138e-06
8.46563e-09
1.05338e-06
9.04251e-09
1.0451e-06
8.62244e-09
1.03721e-06
8.12861e-09
7.8007e-09
1.16914e-06
2.41983e-14
1.16312e-06
1.55872e-13
1.15731e-06
4.65964e-13
1.15202e-06
9.47758e-13
1.14691e-06
1.75231e-12
1.14207e-06
3.26793e-12
1.16914e-06
-1.06496e-09
1.16312e-06
-5.58712e-09
1.15731e-06
-8.46507e-09
1.15202e-06
-9.04147e-09
1.14692e-06
-8.62012e-09
-8.12372e-09
1.07432e-06
-2.85274e-09
1.06824e-06
-1.34091e-08
1.06138e-06
-1.78683e-08
1.05339e-06
-1.6957e-08
1.04511e-06
-1.53424e-08
-1.41727e-08
8.90375e-07
-3.58767e-09
8.82486e-07
-2.26463e-08
8.70359e-07
-2.43766e-08
8.55111e-07
-1.8856e-08
8.39981e-07
-1.55715e-08
-1.35136e-08
6.3138e-07
-1.09682e-09
6.14563e-07
-2.65296e-08
5.86444e-07
-1.49866e-08
5.61723e-07
-9.98245e-09
5.39613e-07
-7.21087e-09
-5.8197e-09
3.32249e-07
2.7919e-07
2.49217e-07
2.29252e-07
2.14832e-07
)
;

boundaryField
{
    inlet
    {
        type            calculated;
        value           nonuniform List<scalar> 
100
(
-3.34443e-07
-6.41274e-07
-8.95972e-07
-1.0781e-06
-1.17299e-06
-1.17299e-06
-1.0781e-06
-8.95972e-07
-6.41274e-07
-3.34443e-07
-6.41274e-07
-9.22878e-07
-1.15692e-06
-1.32442e-06
-1.41174e-06
-1.41174e-06
-1.32442e-06
-1.15692e-06
-9.22878e-07
-6.41274e-07
-8.95972e-07
-1.15692e-06
-1.37407e-06
-1.52963e-06
-1.61077e-06
-1.61077e-06
-1.52963e-06
-1.37407e-06
-1.15692e-06
-8.95972e-07
-1.0781e-06
-1.32442e-06
-1.52963e-06
-1.67675e-06
-1.75353e-06
-1.75353e-06
-1.67675e-06
-1.52963e-06
-1.32442e-06
-1.0781e-06
-1.17299e-06
-1.41174e-06
-1.61077e-06
-1.75353e-06
-1.82805e-06
-1.82805e-06
-1.75353e-06
-1.61077e-06
-1.41174e-06
-1.17299e-06
-1.17299e-06
-1.41174e-06
-1.61077e-06
-1.75353e-06
-1.82805e-06
-1.82805e-06
-1.75353e-06
-1.61077e-06
-1.41174e-06
-1.17299e-06
-1.0781e-06
-1.32442e-06
-1.52963e-06
-1.67675e-06
-1.75353e-06
-1.75353e-06
-1.67675e-06
-1.52963e-06
-1.32442e-06
-1.0781e-06
-8.95972e-07
-1.15692e-06
-1.37407e-06
-1.52963e-06
-1.61077e-06
-1.61077e-06
-1.52963e-06
-1.37407e-06
-1.15692e-06
-8.95972e-07
-6.41274e-07
-9.22878e-07
-1.15692e-06
-1.32442e-06
-1.41174e-06
-1.41174e-06
-1.32442e-06
-1.15692e-06
-9.22878e-07
-6.41274e-07
-3.34443e-07
-6.41274e-07
-8.95972e-07
-1.0781e-06
-1.17299e-06
-1.17299e-06
-1.0781e-06
-8.95972e-07
-6.41274e-07
-3.34443e-07
)
;
    }
    ami1
    {
        type            cyclicAMI;
        value           nonuniform List<scalar> 0();
    }
    walls
    {
        type            calculated;
        value           uniform 0;
    }
    ami2
    {
        type            cyclicAMI;
        value           nonuniform List<scalar> 0();
    }
    outlet
    {
        type            calculated;
        value           nonuniform List<scalar> 0();
    }
    procBoundary4to3
    {
        type            processor;
        value           nonuniform List<scalar> 
109
(
1.93762e-07
5.0468e-07
8.11767e-07
1.02985e-06
1.13778e-06
1.13777e-06
1.02982e-06
8.11742e-07
5.04674e-07
1.93762e-07
5.04674e-07
8.65409e-07
1.15046e-06
1.35443e-06
1.45804e-06
1.45802e-06
1.3544e-06
1.15044e-06
8.65409e-07
5.0468e-07
8.11742e-07
1.15044e-06
1.41091e-06
1.593e-06
1.68575e-06
1.68573e-06
1.59298e-06
1.41091e-06
1.15046e-06
8.11767e-07
1.02982e-06
1.3544e-06
1.59298e-06
1.75783e-06
1.8424e-06
1.8424e-06
1.75783e-06
1.593e-06
1.35443e-06
1.02985e-06
1.13777e-06
1.45802e-06
1.68573e-06
1.8424e-06
1.92284e-06
1.92284e-06
1.8424e-06
1.68575e-06
1.45803e-06
1.13778e-06
1.13778e-06
1.45803e-06
1.68575e-06
1.8424e-06
1.92284e-06
1.92284e-06
-9.07134e-09
1.8424e-06
-9.65475e-09
1.68573e-06
-1.01541e-08
1.45802e-06
-9.90371e-09
1.13777e-06
-7.80087e-09
1.02985e-06
1.35443e-06
1.593e-06
1.75783e-06
1.8424e-06
-5.37192e-13
1.82639e-06
1.74438e-06
1.58469e-06
1.35374e-06
1.03721e-06
8.11767e-07
1.15046e-06
1.41091e-06
1.59298e-06
1.68573e-06
3.12822e-12
1.67387e-06
1.5847e-06
1.4095e-06
1.15652e-06
8.2552e-07
5.0468e-07
8.65409e-07
1.15044e-06
1.3544e-06
1.45802e-06
5.89208e-12
1.45319e-06
1.35376e-06
1.15653e-06
8.77391e-07
5.20626e-07
1.93762e-07
5.04674e-07
8.11742e-07
1.02982e-06
1.13777e-06
6.12728e-12
1.14208e-06
1.03723e-06
8.25533e-07
5.20629e-07
2.03193e-07
)
;
    }
}


// ************************************************************************* //
