/*--------------------------------*- C++ -*----------------------------------*\
| =========                 |                                                 |
| \\      /  F ield         | OpenFOAM: The Open Source CFD Toolbox           |
|  \\    /   O peration     | Version:  2212                                  |
|   \\  /    A nd           | Website:  www.openfoam.com                      |
|    \\/     M anipulation  |                                                 |
\*---------------------------------------------------------------------------*/
FoamFile
{
    version     2.0;
    format      ascii;
    arch        "LSB;label=32;scalar=64";
    class       volScalarField;
    location    "1.4";
    object      k;
}
// * * * * * * * * * * * * * * * * * * * * * * * * * * * * * * * * * * * * * //

dimensions      [0 2 -2 0 0 0 0];

internalField   nonuniform List<scalar> 
6840
(
0.213564
0.055916
0.0283994
0.0193411
0.0146927
0.011851
0.00989062
0.00851595
0.00749116
0.00669608
0.00606018
0.00555034
0.0051221
0.00474381
0.00442346
0.00415379
0.00392513
0.00373049
0.00357747
0.00340416
0.264759
0.104702
0.0585298
0.039163
0.0286199
0.0219934
0.017536
0.0143632
0.0120082
0.0102137
0.00881632
0.00770575
0.00680416
0.00606167
0.00545046
0.00494961
0.00453374
0.00418696
0.00390633
0.00368702
0.283364
0.126774
0.071702
0.0473282
0.0338663
0.0256617
0.0204609
0.0167971
0.0140488
0.0119414
0.0102845
0.00895645
0.00788565
0.00701211
0.00628997
0.00568673
0.00518041
0.00475355
0.00439407
0.0041021
0.292299
0.141633
0.0819302
0.0541654
0.0389231
0.0292875
0.0232724
0.0190788
0.0159343
0.0135152
0.0116272
0.0101134
0.00888277
0.00787243
0.00703511
0.00633514
0.00574547
0.00524529
0.0048192
0.00446173
0.295943
0.148782
0.0871941
0.057675
0.0415194
0.0310723
0.0246452
0.0202212
0.0169052
0.0143252
0.0123088
0.0107028
0.0093968
0.00832335
0.00743232
0.00668602
0.00605574
0.00551958
0.00506251
0.00468972
0.295943
0.148782
0.0871941
0.0576749
0.0415194
0.0310723
0.0246451
0.020221
0.016905
0.0143249
0.0123083
0.0107021
0.00939572
0.0083217
0.00742983
0.00668244
0.00605058
0.00551243
0.00505455
0.00469843
0.292299
0.141633
0.0819301
0.0541654
0.038923
0.0292874
0.0232722
0.0190784
0.0159338
0.0135145
0.0116261
0.0101118
0.00888037
0.00786875
0.00702962
0.00632697
0.00573322
0.00522729
0.00479638
0.00447186
0.283364
0.126774
0.071702
0.0473281
0.0338662
0.0256615
0.0204607
0.0167968
0.0140483
0.0119407
0.0102834
0.00895485
0.00788325
0.00700843
0.00628415
0.00567773
0.00516631
0.00473143
0.00436181
0.00406774
0.264759
0.104702
0.0585298
0.039163
0.0286198
0.0219934
0.017536
0.0143632
0.0120081
0.0102135
0.00881594
0.0077051
0.00680308
0.00605913
0.00544659
0.00494331
0.00452247
0.00416587
0.00386819
0.00363293
0.213564
0.055916
0.0283994
0.0193411
0.0146927
0.011851
0.00989062
0.00851595
0.00749116
0.00669608
0.00606017
0.00555036
0.00512207
0.00474384
0.00442344
0.00415379
0.00392516
0.00373054
0.00357756
0.00340442
0.264759
0.104702
0.0585298
0.039163
0.0286198
0.0219934
0.017536
0.0143632
0.0120081
0.0102135
0.00881594
0.00770511
0.00680307
0.00605917
0.00544658
0.00494327
0.00452241
0.00416577
0.00386805
0.00363263
0.311746
0.197541
0.130357
0.0911456
0.0668021
0.050811
0.0397943
0.031912
0.026094
0.021687
0.0182762
0.0155879
0.0134402
0.011697
0.0102652
0.00907663
0.00808009
0.00723591
0.00653154
0.00588634
0.31754
0.217754
0.151085
0.108549
0.0807156
0.0618726
0.0486773
0.0391417
0.0320586
0.0266715
0.02249
0.0191872
0.0165389
0.0143868
0.0126176
0.0111491
0.00991987
0.00888194
0.00800226
0.00725339
0.319723
0.227073
0.162232
0.118772
0.0893611
0.0689929
0.0545307
0.0439847
0.0361001
0.0300752
0.0253829
0.0216663
0.0186793
0.0162476
0.0142455
0.0125803
0.0111831
0.0100014
0.00899405
0.00813219
0.320484
0.23086
0.167176
0.123531
0.093516
0.0724827
0.0574409
0.0464215
0.0381542
0.0318178
0.0268717
0.0229479
0.0197897
0.0172154
0.0150933
0.0133263
0.0118418
0.0105841
0.00951041
0.00858987
0.320484
0.23086
0.167176
0.123531
0.0935159
0.0724825
0.0574407
0.0464212
0.0381538
0.0318172
0.0268709
0.0229467
0.019788
0.0172129
0.0150896
0.0133212
0.0118347
0.0105744
0.00949733
0.00857566
0.319723
0.227073
0.162232
0.118772
0.089361
0.0689926
0.0545303
0.0439841
0.0360993
0.0300741
0.0253812
0.0216638
0.0186756
0.0162422
0.0142378
0.0125693
0.0111674
0.00997886
0.0089622
0.00809353
0.31754
0.217754
0.151085
0.108549
0.0807154
0.0618723
0.048677
0.0391413
0.0320579
0.0266705
0.0224887
0.0191853
0.016536
0.0143825
0.0126112
0.01114
0.00990613
0.00886091
0.00797015
0.00719321
0.311746
0.197541
0.130357
0.0911456
0.0668021
0.050811
0.0397943
0.031912
0.026094
0.021687
0.0182762
0.0155879
0.0134402
0.011697
0.0102652
0.00907668
0.00808019
0.00723605
0.00653173
0.00588729
0.264759
0.104702
0.0585298
0.039163
0.0286199
0.0219934
0.017536
0.0143632
0.0120082
0.0102137
0.00881633
0.00770575
0.00680415
0.00606168
0.00545044
0.00494961
0.00453376
0.004187
0.00390641
0.00368737
0.283364
0.126774
0.071702
0.0473281
0.0338662
0.0256615
0.0204607
0.0167968
0.0140483
0.0119407
0.0102834
0.00895485
0.00788328
0.00700848
0.00628412
0.0056777
0.00516628
0.00473141
0.00436175
0.00406761
0.31754
0.217754
0.151085
0.108549
0.0807154
0.0618723
0.048677
0.0391413
0.0320579
0.0266705
0.0224887
0.0191853
0.016536
0.0143826
0.0126112
0.0111399
0.00990605
0.00886082
0.00797002
0.00719275
0.322005
0.239026
0.177588
0.133616
0.102323
0.0798668
0.0635104
0.0513818
0.0422213
0.0351789
0.0296751
0.0253085
0.021797
0.0189382
0.0165849
0.0146281
0.0129863
0.0115969
0.0104092
0.00936128
0.323293
0.245617
0.187499
0.144537
0.112864
0.0894039
0.0718633
0.0585865
0.0483996
0.0404744
0.0342249
0.0292336
0.0251996
0.0219034
0.019183
0.0169167
0.0150127
0.0133998
0.0120205
0.0108203
0.323714
0.247819
0.191099
0.14881
0.117249
0.0935708
0.0756574
0.0619607
0.0513629
0.0430615
0.0364796
0.0312
0.0269183
0.0234104
0.020509
0.0180881
0.0160513
0.0143239
0.012845
0.0115601
0.323714
0.247819
0.191099
0.14881
0.117249
0.0935707
0.0756573
0.0619605
0.0513626
0.0430611
0.0364791
0.0311993
0.0269174
0.023409
0.0205071
0.0180855
0.0160479
0.0143191
0.0128373
0.0115404
0.323293
0.245617
0.187499
0.144536
0.112864
0.0894038
0.0718631
0.0585862
0.0483992
0.0404738
0.0342241
0.0292324
0.025198
0.0219011
0.0191797
0.0169123
0.0150066
0.0133912
0.0120068
0.0107856
0.322005
0.239026
0.177588
0.133616
0.102323
0.0798668
0.0635104
0.0513818
0.0422213
0.0351789
0.0296751
0.0253086
0.021797
0.0189382
0.0165848
0.0146281
0.0129864
0.011597
0.0104092
0.00936126
0.31754
0.217754
0.151085
0.108549
0.0807156
0.0618726
0.0486773
0.0391417
0.0320586
0.0266715
0.02249
0.0191872
0.0165389
0.0143869
0.0126175
0.0111491
0.00991989
0.008882
0.00800242
0.00725375
0.283364
0.126774
0.071702
0.0473282
0.0338663
0.0256617
0.0204609
0.0167971
0.0140488
0.0119414
0.0102845
0.00895645
0.00788567
0.00701213
0.00628991
0.00568668
0.00518038
0.00475353
0.00439405
0.00410193
0.292299
0.141633
0.0819301
0.0541654
0.038923
0.0292874
0.0232722
0.0190784
0.0159338
0.0135145
0.0116261
0.0101118
0.00888041
0.00786881
0.00702955
0.00632693
0.0057332
0.00522727
0.00479636
0.00447188
0.319723
0.227073
0.162232
0.118772
0.0893609
0.0689926
0.0545303
0.0439841
0.0360993
0.030074
0.0253812
0.0216638
0.0186757
0.0162423
0.0142377
0.0125693
0.0111674
0.00997882
0.00896219
0.00809364
0.323293
0.245617
0.187499
0.144536
0.112864
0.0894038
0.0718631
0.0585862
0.0483992
0.0404738
0.0342241
0.0292324
0.025198
0.0219012
0.0191797
0.0169123
0.0150066
0.0133912
0.0120069
0.0107862
0.324288
0.250862
0.19613
0.154888
0.123591
0.09968
0.0812741
0.0669838
0.0557847
0.0469223
0.0398394
0.0341236
0.0294673
0.0256399
0.0224668
0.0198147
0.0175808
0.0156837
0.0140545
0.0126176
0.32459
0.252403
0.19891
0.158543
0.12769
0.103871
0.0853201
0.0707499
0.05921
0.0499928
0.0425685
0.0365384
0.0316006
0.0275251
0.0241354
0.0212953
0.0188983
0.0168591
0.0151041
0.0135498
0.32459
0.252403
0.19891
0.158543
0.12769
0.103871
0.0853201
0.0707499
0.0592099
0.0499927
0.0425684
0.0365383
0.0316004
0.0275247
0.0241349
0.0212947
0.0188974
0.0168579
0.015102
0.0135445
0.324288
0.250862
0.19613
0.154888
0.123591
0.09968
0.0812741
0.0669838
0.0557847
0.0469223
0.0398394
0.0341236
0.0294673
0.0256398
0.0224667
0.0198147
0.0175808
0.0156837
0.0140546
0.0126174
0.323293
0.245617
0.187499
0.144537
0.112864
0.0894039
0.0718633
0.0585865
0.0483996
0.0404744
0.0342249
0.0292336
0.0251996
0.0219035
0.0191829
0.0169167
0.0150127
0.0133998
0.0120206
0.0108203
0.319723
0.227073
0.162232
0.118772
0.0893611
0.0689929
0.0545307
0.0439847
0.0361001
0.0300752
0.0253829
0.0216663
0.0186793
0.0162476
0.0142454
0.0125802
0.0111831
0.0100014
0.00899407
0.00813217
0.292299
0.141633
0.0819302
0.0541654
0.0389231
0.0292875
0.0232724
0.0190788
0.0159343
0.0135152
0.0116272
0.0101134
0.00888277
0.00787245
0.00703507
0.00633511
0.00574544
0.00524526
0.00481915
0.00446165
0.295943
0.148782
0.0871941
0.0576749
0.0415194
0.0310723
0.0246451
0.020221
0.016905
0.0143249
0.0123083
0.0107021
0.00939573
0.00832173
0.00742984
0.00668245
0.0060506
0.00551245
0.00505458
0.00469848
0.320484
0.23086
0.167176
0.123531
0.0935159
0.0724825
0.0574407
0.0464212
0.0381538
0.0318172
0.0268709
0.0229467
0.0197881
0.0172129
0.0150896
0.0133212
0.0118348
0.0105745
0.0094974
0.00857586
0.323714
0.247819
0.191099
0.14881
0.117249
0.0935707
0.0756573
0.0619605
0.0513626
0.0430611
0.0364791
0.0311993
0.0269174
0.023409
0.0205071
0.0180855
0.0160479
0.0143191
0.0128374
0.0115408
0.32459
0.252403
0.19891
0.158543
0.12769
0.103871
0.0853201
0.0707499
0.0592099
0.0499927
0.0425684
0.0365382
0.0316004
0.0275247
0.0241349
0.0212947
0.0188974
0.0168579
0.015102
0.0135448
0.324844
0.253685
0.20131
0.161836
0.131535
0.107943
0.0893701
0.0746126
0.0627921
0.0532536
0.0455015
0.0391575
0.0339304
0.0295946
0.0259742
0.0229314
0.0203569
0.0181613
0.0162632
0.0145585
0.324844
0.253685
0.20131
0.161836
0.131535
0.107943
0.0893701
0.0746126
0.0627921
0.0532536
0.0455015
0.0391575
0.0339304
0.0295946
0.0259742
0.0229314
0.0203569
0.0181613
0.0162631
0.0145584
0.32459
0.252403
0.19891
0.158543
0.12769
0.103871
0.0853201
0.0707499
0.05921
0.0499928
0.0425685
0.0365384
0.0316006
0.0275251
0.0241354
0.0212953
0.0188983
0.0168592
0.0151042
0.0135498
0.323714
0.247819
0.191099
0.14881
0.117249
0.0935708
0.0756574
0.0619607
0.0513629
0.0430615
0.0364796
0.0311999
0.0269183
0.0234104
0.020509
0.0180881
0.0160513
0.0143239
0.0128451
0.0115601
0.320484
0.23086
0.167176
0.123531
0.093516
0.0724826
0.0574409
0.0464215
0.0381542
0.0318178
0.0268717
0.0229478
0.0197897
0.0172154
0.0150933
0.0133263
0.0118418
0.0105841
0.00951033
0.00858976
0.295943
0.148782
0.0871941
0.057675
0.0415194
0.0310723
0.0246452
0.0202212
0.0169052
0.0143252
0.0123088
0.0107028
0.00939678
0.00832334
0.00743234
0.00668603
0.00605574
0.00551957
0.00506249
0.00468965
0.295943
0.148782
0.0871941
0.057675
0.0415194
0.0310723
0.0246452
0.0202212
0.0169052
0.0143252
0.0123088
0.0107028
0.00939679
0.00832335
0.00743231
0.00668603
0.00605575
0.0055196
0.00506256
0.00468973
0.320484
0.23086
0.167176
0.123531
0.093516
0.0724826
0.0574409
0.0464215
0.0381542
0.0318178
0.0268717
0.0229479
0.0197897
0.0172154
0.0150933
0.0133263
0.0118418
0.0105842
0.00951051
0.00859003
0.323714
0.247819
0.191099
0.14881
0.117249
0.0935708
0.0756574
0.0619607
0.0513629
0.0430615
0.0364796
0.0312
0.0269183
0.0234104
0.020509
0.0180881
0.0160514
0.0143239
0.0128451
0.0115603
0.32459
0.252403
0.19891
0.158543
0.12769
0.103871
0.0853201
0.0707499
0.05921
0.0499928
0.0425685
0.0365384
0.0316006
0.0275251
0.0241354
0.0212953
0.0188983
0.0168592
0.0151041
0.0135499
0.324844
0.253685
0.20131
0.161836
0.131535
0.107943
0.0893701
0.0746126
0.0627921
0.0532536
0.0455015
0.0391575
0.0339304
0.0295946
0.0259742
0.0229314
0.0203569
0.0181613
0.0162632
0.0145586
0.324844
0.253685
0.20131
0.161836
0.131535
0.107943
0.0893701
0.0746126
0.0627921
0.0532536
0.0455015
0.0391575
0.0339304
0.0295946
0.0259742
0.0229314
0.0203569
0.0181613
0.0162632
0.0145584
0.32459
0.252403
0.19891
0.158543
0.12769
0.103871
0.0853201
0.0707499
0.0592099
0.0499927
0.0425684
0.0365382
0.0316003
0.0275247
0.0241349
0.0212947
0.0188974
0.016858
0.0151021
0.0135446
0.323714
0.247819
0.191099
0.14881
0.117249
0.0935707
0.0756573
0.0619605
0.0513626
0.0430611
0.0364791
0.0311993
0.0269173
0.023409
0.0205071
0.0180856
0.0160479
0.0143191
0.0128373
0.0115407
0.320484
0.23086
0.167176
0.123531
0.0935159
0.0724825
0.0574407
0.0464212
0.0381538
0.0318172
0.0268709
0.0229467
0.019788
0.0172128
0.0150897
0.0133213
0.0118348
0.0105744
0.0094972
0.00857564
0.295943
0.148782
0.0871941
0.0576749
0.0415194
0.0310723
0.0246451
0.020221
0.016905
0.0143249
0.0123083
0.010702
0.00939568
0.00832167
0.00742992
0.0066825
0.00605063
0.00551246
0.00505457
0.00469846
0.292299
0.141633
0.0819302
0.0541654
0.0389231
0.0292875
0.0232724
0.0190788
0.0159343
0.0135152
0.0116272
0.0101134
0.00888276
0.00787242
0.0070351
0.00633514
0.00574547
0.0052453
0.00481923
0.00446178
0.319723
0.227073
0.162232
0.118772
0.0893611
0.0689929
0.0545307
0.0439847
0.0361001
0.0300752
0.0253828
0.0216663
0.0186793
0.0162476
0.0142454
0.0125803
0.0111831
0.0100015
0.00899413
0.00813232
0.323293
0.245617
0.187499
0.144537
0.112864
0.0894039
0.0718633
0.0585865
0.0483996
0.0404744
0.0342249
0.0292336
0.0251996
0.0219034
0.019183
0.0169167
0.0150127
0.0133998
0.0120206
0.0108204
0.324288
0.250862
0.19613
0.154888
0.123591
0.09968
0.0812741
0.0669838
0.0557847
0.0469223
0.0398394
0.0341236
0.0294673
0.0256398
0.0224667
0.0198147
0.0175808
0.0156837
0.0140547
0.0126176
0.32459
0.252403
0.19891
0.158543
0.12769
0.103871
0.0853201
0.0707499
0.0592099
0.0499927
0.0425684
0.0365382
0.0316004
0.0275247
0.0241349
0.0212946
0.0188974
0.0168579
0.015102
0.0135447
0.32459
0.252403
0.19891
0.158543
0.12769
0.103871
0.0853201
0.0707499
0.05921
0.0499928
0.0425685
0.0365384
0.0316006
0.0275251
0.0241354
0.0212953
0.0188983
0.0168592
0.0151041
0.0135496
0.324288
0.250862
0.19613
0.154888
0.123591
0.09968
0.0812741
0.0669837
0.0557847
0.0469223
0.0398394
0.0341236
0.0294673
0.0256398
0.0224667
0.0198147
0.0175808
0.0156837
0.0140546
0.0126174
0.323293
0.245617
0.187499
0.144536
0.112864
0.0894038
0.0718631
0.0585862
0.0483992
0.0404738
0.0342241
0.0292324
0.025198
0.0219011
0.0191797
0.0169123
0.0150066
0.0133911
0.0120068
0.0107861
0.319723
0.227073
0.162232
0.118772
0.0893609
0.0689926
0.0545303
0.0439841
0.0360993
0.030074
0.0253811
0.0216638
0.0186756
0.0162422
0.0142378
0.0125693
0.0111674
0.0099788
0.00896206
0.00809355
0.292299
0.141633
0.0819301
0.0541653
0.038923
0.0292874
0.0232722
0.0190784
0.0159338
0.0135145
0.0116261
0.0101118
0.00888037
0.00786874
0.00702963
0.00632698
0.00573324
0.00522731
0.00479639
0.0044719
0.283364
0.126774
0.071702
0.0473282
0.0338663
0.0256617
0.0204609
0.0167971
0.0140487
0.0119414
0.0102845
0.00895644
0.00788564
0.0070121
0.00628995
0.00568671
0.00518039
0.00475352
0.00439407
0.00410212
0.31754
0.217754
0.151085
0.108549
0.0807156
0.0618726
0.0486773
0.0391417
0.0320586
0.0266714
0.02249
0.0191872
0.0165389
0.0143868
0.0126175
0.0111491
0.00991985
0.00888191
0.00800228
0.00725348
0.322005
0.239026
0.177588
0.133616
0.102323
0.0798668
0.0635103
0.0513818
0.0422213
0.0351789
0.0296751
0.0253085
0.021797
0.0189382
0.0165849
0.014628
0.0129863
0.0115969
0.0104092
0.00936124
0.323293
0.245617
0.187499
0.144536
0.112864
0.0894038
0.0718631
0.0585862
0.0483992
0.0404738
0.0342241
0.0292324
0.025198
0.0219011
0.0191797
0.0169123
0.0150066
0.0133911
0.0120068
0.0107861
0.323714
0.247819
0.191099
0.14881
0.117249
0.0935707
0.0756573
0.0619605
0.0513626
0.0430611
0.0364791
0.0311993
0.0269174
0.023409
0.0205071
0.0180855
0.0160478
0.014319
0.0128372
0.0115406
0.323714
0.247819
0.191099
0.14881
0.117249
0.0935708
0.0756574
0.0619607
0.0513629
0.0430615
0.0364795
0.0311999
0.0269183
0.0234104
0.020509
0.0180881
0.0160513
0.0143238
0.012845
0.0115599
0.323293
0.245617
0.187499
0.144537
0.112864
0.0894039
0.0718633
0.0585865
0.0483996
0.0404744
0.0342249
0.0292336
0.0251996
0.0219034
0.0191829
0.0169167
0.0150127
0.0133998
0.0120205
0.0108203
0.322005
0.239026
0.177588
0.133616
0.102323
0.0798668
0.0635103
0.0513818
0.0422213
0.0351789
0.0296751
0.0253085
0.021797
0.0189382
0.0165848
0.014628
0.0129863
0.0115969
0.0104091
0.0093613
0.31754
0.217754
0.151085
0.108549
0.0807154
0.0618723
0.048677
0.0391413
0.0320579
0.0266705
0.0224887
0.0191853
0.016536
0.0143825
0.0126112
0.01114
0.00990608
0.00886085
0.0079701
0.00719284
0.283364
0.126774
0.0717019
0.0473281
0.0338662
0.0256615
0.0204607
0.0167968
0.0140483
0.0119406
0.0102834
0.00895485
0.00788325
0.00700843
0.00628415
0.00567773
0.00516631
0.00473144
0.00436181
0.00406767
0.264759
0.104702
0.0585298
0.039163
0.0286199
0.0219934
0.017536
0.0143632
0.0120082
0.0102137
0.00881631
0.00770574
0.00680415
0.00606165
0.00545044
0.00494959
0.00453373
0.00418696
0.00390635
0.00368705
0.311746
0.197541
0.130357
0.0911456
0.0668021
0.050811
0.0397943
0.031912
0.026094
0.021687
0.0182761
0.0155879
0.0134401
0.011697
0.0102652
0.00907658
0.00808003
0.00723582
0.00653147
0.00588624
0.31754
0.217754
0.151085
0.108549
0.0807154
0.0618723
0.048677
0.0391413
0.0320579
0.0266705
0.0224886
0.0191853
0.016536
0.0143825
0.0126112
0.0111399
0.00990597
0.00886071
0.00796988
0.00719255
0.319723
0.227073
0.162232
0.118772
0.0893609
0.0689926
0.0545303
0.0439841
0.0360993
0.030074
0.0253811
0.0216638
0.0186756
0.0162423
0.0142377
0.0125692
0.0111673
0.0099787
0.00896194
0.00809331
0.320484
0.23086
0.167176
0.123531
0.0935159
0.0724825
0.0574407
0.0464212
0.0381538
0.0318172
0.0268709
0.0229467
0.019788
0.0172129
0.0150896
0.0133212
0.0118347
0.0105744
0.0094972
0.00857568
0.320484
0.23086
0.167176
0.123531
0.093516
0.0724826
0.0574409
0.0464215
0.0381542
0.0318178
0.0268717
0.0229478
0.0197897
0.0172154
0.0150933
0.0133263
0.0118418
0.0105842
0.00951042
0.00858986
0.319723
0.227073
0.162232
0.118772
0.0893611
0.0689929
0.0545307
0.0439847
0.0361001
0.0300752
0.0253828
0.0216663
0.0186793
0.0162476
0.0142454
0.0125802
0.0111831
0.0100014
0.00899412
0.00813227
0.31754
0.217754
0.151085
0.108549
0.0807156
0.0618726
0.0486773
0.0391417
0.0320586
0.0266714
0.02249
0.0191872
0.0165389
0.0143868
0.0126175
0.0111491
0.00991983
0.00888191
0.00800233
0.00725346
0.311746
0.197541
0.130357
0.0911456
0.0668021
0.050811
0.0397943
0.0319119
0.026094
0.021687
0.0182762
0.0155879
0.0134402
0.011697
0.0102652
0.00907663
0.00808011
0.00723593
0.0065316
0.00588647
0.264759
0.104702
0.0585298
0.039163
0.0286198
0.0219934
0.017536
0.0143632
0.0120081
0.0102135
0.00881594
0.0077051
0.00680307
0.00605912
0.00544658
0.00494329
0.00452244
0.00416582
0.00386812
0.0036328
0.213564
0.055916
0.0283994
0.0193411
0.0146927
0.011851
0.00989062
0.00851595
0.00749116
0.00669607
0.00606018
0.00555033
0.00512209
0.00474379
0.00442345
0.00415376
0.00392511
0.00373046
0.00357747
0.00340414
0.264759
0.104702
0.0585298
0.039163
0.0286198
0.0219934
0.017536
0.0143632
0.0120081
0.0102135
0.00881593
0.00770509
0.00680305
0.00605914
0.00544655
0.00494323
0.00452235
0.00416567
0.00386789
0.00363237
0.283364
0.126774
0.0717019
0.0473281
0.0338662
0.0256615
0.0204607
0.0167968
0.0140483
0.0119406
0.0102834
0.00895484
0.00788326
0.00700846
0.00628409
0.00567766
0.00516624
0.00473135
0.00436166
0.00406745
0.292299
0.141633
0.0819301
0.0541653
0.038923
0.0292874
0.0232722
0.0190784
0.0159338
0.0135145
0.0116261
0.0101118
0.0088804
0.00786881
0.00702952
0.0063269
0.00573317
0.00522725
0.00479631
0.00447182
0.295943
0.148782
0.0871941
0.0576749
0.0415194
0.0310723
0.0246451
0.020221
0.016905
0.0143249
0.0123083
0.0107021
0.00939572
0.00832173
0.00742983
0.00668244
0.0060506
0.00551246
0.00505458
0.00469847
0.295943
0.148782
0.0871941
0.057675
0.0415194
0.0310723
0.0246452
0.0202212
0.0169052
0.0143252
0.0123088
0.0107028
0.0093968
0.00832336
0.00743231
0.00668603
0.00605576
0.00551962
0.00506257
0.00468973
0.292299
0.141633
0.0819302
0.0541654
0.0389231
0.0292875
0.0232724
0.0190788
0.0159343
0.0135152
0.0116272
0.0101134
0.00888277
0.00787245
0.00703507
0.00633512
0.00574546
0.0052453
0.00481923
0.00446178
0.283364
0.126774
0.071702
0.0473282
0.0338663
0.0256617
0.0204609
0.0167971
0.0140487
0.0119414
0.0102845
0.00895645
0.00788566
0.00701212
0.0062899
0.00568667
0.00518037
0.00475351
0.00439407
0.00410213
0.264759
0.104702
0.0585298
0.039163
0.0286199
0.0219934
0.017536
0.0143632
0.0120082
0.0102137
0.00881632
0.00770574
0.00680414
0.00606167
0.00545043
0.00494959
0.00453374
0.00418698
0.00390638
0.00368716
0.213564
0.055916
0.0283994
0.0193411
0.0146927
0.011851
0.00989062
0.00851595
0.00749115
0.00669608
0.00606017
0.00555035
0.00512206
0.00474383
0.00442343
0.00415377
0.00392514
0.00373051
0.00357757
0.0034043
0.00369267
0.00338246
0.00311372
0.00293983
0.00282317
0.00273957
0.00266966
0.00260436
0.00254405
0.00249332
0.00244722
0.00240472
0.00236055
0.0023183
0.00227689
0.00223829
0.00220026
0.00216478
0.00213045
0.00209787
0.00206596
0.0020348
0.00200586
0.00197757
0.00195075
0.00192453
0.00189868
0.00187304
0.00184807
0.00182348
0.00179974
0.00177701
0.00175412
0.00173212
0.00171162
0.00169109
0.00167423
0.00165666
0.00164203
0.00161953
0.00340987
0.00310698
0.00290298
0.00275478
0.00264213
0.00255067
0.00247032
0.00239409
0.00231996
0.00225679
0.00220021
0.0021507
0.00210079
0.00205615
0.00201089
0.00196877
0.00192857
0.00189171
0.00185681
0.0018239
0.00179248
0.00176197
0.00173356
0.0017068
0.00168192
0.00165797
0.00163467
0.00161193
0.00158945
0.00156765
0.00154615
0.00152548
0.00150572
0.00148609
0.00146861
0.00145119
0.00143422
0.00141878
0.00140421
0.00138789
0.00382556
0.00347791
0.00320413
0.00300888
0.00285746
0.00272852
0.00261631
0.00251814
0.00243058
0.00234998
0.00227656
0.00220999
0.0021504
0.00209974
0.00204508
0.00199557
0.00194983
0.00190842
0.00186934
0.00183169
0.00179643
0.00175991
0.00172604
0.0016949
0.00166708
0.00164043
0.00161451
0.00158937
0.00156533
0.00154221
0.00151893
0.00149672
0.00147556
0.001456
0.00143884
0.00142013
0.00140212
0.001385
0.00136856
0.00135262
0.0040105
0.00370044
0.00344647
0.00323472
0.00305564
0.0029017
0.00276619
0.00264574
0.00253773
0.00244037
0.00235213
0.00227155
0.00219698
0.00213062
0.00206966
0.00201322
0.00196085
0.00191321
0.00186703
0.0018203
0.00177854
0.00173957
0.00170244
0.0016671
0.00163428
0.00160335
0.00157447
0.00154701
0.00152028
0.00149517
0.00146988
0.0014459
0.00142334
0.00140251
0.00138326
0.00136561
0.00134756
0.00133015
0.00131371
0.00129807
0.00412635
0.00384678
0.00359839
0.00337939
0.00318647
0.0030164
0.00286631
0.00273289
0.00261244
0.00250328
0.00240397
0.00231311
0.0022293
0.00215432
0.00208539
0.00202235
0.00196449
0.00191066
0.00186053
0.00181388
0.00177128
0.00173017
0.00168846
0.00165051
0.00161521
0.00158241
0.00155158
0.0015228
0.00149478
0.00146953
0.00144348
0.00141913
0.00139609
0.00137448
0.00135436
0.00133684
0.00131767
0.00129954
0.00128244
0.00126649
0.00425294
0.0039512
0.00368624
0.00345365
0.00324839
0.00306661
0.00290582
0.00276264
0.00263349
0.00251629
0.00240984
0.00231291
0.00222388
0.00214391
0.00207074
0.00200369
0.00194224
0.00188636
0.00183511
0.00178777
0.00174407
0.00170359
0.00166635
0.00163067
0.00159336
0.00155807
0.00152573
0.00149641
0.00146859
0.00144318
0.00141879
0.0013946
0.00136938
0.00134671
0.00132567
0.001307
0.0012898
0.00127201
0.00125481
0.00123879
0.00430044
0.00396713
0.00368041
0.00343265
0.00321586
0.00302562
0.00285808
0.00270991
0.0025778
0.00245956
0.00235357
0.00225813
0.00217169
0.00209402
0.00202339
0.00195897
0.00190015
0.00184636
0.00179734
0.00175231
0.00171115
0.0016723
0.0016353
0.00160085
0.00156457
0.00153131
0.00150041
0.00147207
0.00144477
0.00141842
0.00139336
0.00136815
0.00134422
0.00132194
0.00130195
0.0012834
0.00126608
0.00124704
0.00122872
0.00121156
0.00420652
0.00384404
0.00353142
0.00328002
0.00306345
0.00287793
0.00271831
0.00257969
0.00245864
0.00235178
0.00225725
0.00217215
0.0020949
0.0020251
0.00196163
0.00190351
0.00185079
0.00180222
0.00175765
0.00171617
0.00167919
0.00164103
0.00160492
0.0015719
0.00154026
0.00151056
0.00148188
0.00145493
0.00142707
0.0013996
0.0013742
0.00135174
0.00132967
0.00130807
0.00128707
0.00126721
0.00124862
0.00122876
0.00121015
0.0011927
0.0039797
0.00361652
0.00328161
0.00303003
0.00283626
0.00267536
0.00254047
0.00242756
0.00232826
0.00224035
0.00216203
0.00209148
0.0020291
0.00197104
0.00191991
0.00186549
0.00181744
0.00177315
0.00173374
0.00169533
0.00166053
0.00162633
0.00159446
0.00156351
0.0015334
0.0015055
0.00147877
0.00145339
0.00142894
0.00140492
0.00138163
0.00135956
0.00133812
0.0013172
0.00129629
0.00127701
0.00125878
0.0012408
0.00122412
0.00120819
0.0036816
0.00334887
0.00304748
0.00282089
0.0026554
0.00252991
0.00242942
0.00234093
0.00225938
0.0021921
0.00213226
0.00208087
0.0020327
0.00197958
0.00193103
0.00188569
0.00184334
0.00180386
0.00176687
0.00173214
0.00169944
0.00166872
0.00164046
0.0016133
0.00158751
0.00156292
0.00153903
0.00151583
0.00149277
0.00146971
0.001448
0.00142736
0.00140738
0.00138799
0.00136873
0.00135059
0.00133273
0.00131611
0.00130153
0.00128478
0.00369228
0.00338185
0.00311384
0.00293946
0.00282424
0.00274261
0.00267271
0.00260714
0.00254589
0.00249444
0.00244806
0.00240483
0.00236122
0.00231856
0.00227716
0.0022381
0.00220024
0.00216449
0.00213013
0.0020977
0.00206565
0.00203475
0.00200562
0.00197747
0.00195062
0.00192458
0.00189866
0.00187302
0.00184807
0.00182347
0.00179981
0.00177715
0.0017545
0.0017327
0.00171212
0.00169373
0.00167387
0.00165628
0.00164078
0.00161714
0.00368195
0.00334909
0.00304656
0.00282205
0.00265462
0.00252691
0.0024261
0.00233766
0.00225703
0.00219048
0.00213114
0.00208088
0.00203218
0.00197904
0.00193026
0.00188599
0.00184333
0.00180448
0.00176744
0.00173272
0.00170004
0.00166902
0.00164069
0.00161345
0.00158783
0.0015632
0.00153936
0.00151623
0.00149321
0.00147019
0.00144846
0.0014278
0.00140772
0.00138757
0.00136778
0.00134992
0.00133279
0.00131742
0.00130326
0.00128703
0.00458221
0.0040107
0.00363155
0.00335169
0.00310636
0.00290987
0.00273379
0.00255922
0.00239193
0.00226169
0.00213909
0.00203465
0.00191899
0.00181782
0.00171883
0.00163762
0.0015574
0.00148958
0.0014242
0.00136546
0.00130553
0.00124817
0.00120357
0.0011609
0.00112024
0.00108222
0.00104559
0.0010109
0.000977603
0.000937698
0.000902525
0.000873406
0.000845659
0.000818547
0.0007835
0.000755786
0.000732796
0.000713137
0.000696981
0.000684497
0.00591757
0.00533982
0.00486032
0.00445883
0.00411416
0.00381342
0.00354706
0.00331025
0.00309807
0.00290663
0.00273205
0.00257856
0.00242964
0.00230555
0.00218468
0.00208116
0.00198025
0.00189306
0.0018093
0.00173184
0.00166082
0.00158926
0.00152753
0.00146475
0.00140805
0.00135387
0.00130261
0.00125466
0.00121084
0.00116378
0.00111516
0.00107435
0.00103283
0.000996705
0.000960126
0.000917253
0.00087375
0.000839543
0.000801733
0.000766052
0.00679057
0.00616136
0.00561587
0.00514333
0.00473461
0.00437899
0.00406294
0.00378108
0.00352848
0.00330156
0.00309751
0.00291347
0.00274694
0.00259612
0.00245889
0.00233393
0.00221955
0.00211413
0.00201921
0.00192783
0.00184868
0.00176984
0.0016996
0.00162922
0.00156793
0.00150762
0.00145463
0.00140067
0.00135368
0.00130442
0.00125418
0.00120849
0.00116217
0.00112144
0.0010808
0.00103567
0.000990346
0.000951531
0.00091157
0.00086279
0.00730639
0.0066287
0.00604008
0.00552744
0.00507906
0.00468611
0.00434214
0.00403956
0.00376774
0.0035227
0.00330199
0.00310242
0.00292295
0.00275954
0.00261097
0.00247561
0.00235199
0.00223872
0.00213491
0.00203874
0.0019515
0.0018633
0.00178069
0.00171095
0.00164765
0.00158918
0.00153259
0.00147656
0.00142378
0.00137191
0.00132141
0.00127335
0.00122474
0.00118038
0.00113624
0.0010886
0.00104143
0.00099812
0.000954388
0.000900858
0.00748992
0.00679014
0.00618241
0.00565331
0.00519129
0.00478592
0.00443173
0.00412136
0.00384531
0.00359635
0.00337174
0.00316868
0.00298597
0.00281969
0.00266844
0.00253051
0.00240436
0.00228869
0.00218236
0.00208419
0.0019936
0.00190901
0.0018303
0.00174827
0.0016714
0.00160598
0.00154986
0.00149725
0.00144715
0.00139681
0.00135048
0.00129948
0.00124681
0.0011974
0.00114955
0.00109896
0.00105012
0.00100085
0.000956155
0.00089886
0.00728583
0.00659593
0.00599971
0.00548423
0.00503696
0.00464882
0.00431116
0.00401511
0.00375017
0.00351192
0.00329743
0.00310369
0.00292808
0.00276871
0.00262346
0.00249053
0.00236847
0.00225602
0.00215231
0.00205622
0.00196713
0.00188377
0.00180651
0.00172876
0.00165934
0.00159548
0.0015314
0.00147303
0.00141734
0.00136048
0.00130403
0.00125093
0.00119723
0.00114891
0.00110074
0.00104803
0.000996809
0.000943714
0.000896047
0.000834488
0.0067211
0.00605371
0.00549439
0.00502351
0.00462563
0.00428561
0.00398781
0.0037224
0.00348411
0.00326955
0.0030757
0.00289918
0.00273694
0.00258989
0.00245515
0.0023307
0.00221636
0.00211028
0.00201257
0.00192126
0.00183615
0.00175663
0.00168143
0.00161133
0.00154073
0.00147813
0.00141448
0.00135745
0.0013015
0.00124262
0.00118265
0.00112947
0.00107516
0.00102676
0.000977796
0.000928212
0.00087331
0.000818694
0.000774919
0.000721232
0.00581399
0.00518682
0.00469889
0.00431412
0.00399325
0.00371434
0.00346788
0.00324286
0.00303855
0.00285317
0.00268519
0.00252686
0.00238395
0.00225188
0.00213135
0.00201603
0.00191551
0.00181711
0.00173231
0.00164779
0.00157342
0.00149863
0.00143444
0.00137203
0.00130959
0.00125635
0.00120144
0.00115329
0.00110621
0.00105475
0.00100181
0.000959191
0.000915767
0.000875863
0.000830208
0.000789293
0.000742072
0.000702388
0.000670927
0.000642444
0.00458
0.004009
0.00362852
0.00334966
0.00312461
0.00292382
0.00274388
0.00256749
0.00239686
0.00226456
0.00214199
0.00203247
0.00192318
0.00182
0.00172292
0.00163803
0.00155883
0.00148914
0.00142329
0.00136491
0.00130356
0.00124835
0.00120415
0.00116252
0.00112045
0.00108262
0.00104553
0.00101067
0.000977259
0.000937263
0.000902251
0.000873257
0.000845837
0.000819983
0.000795889
0.000768433
0.000733247
0.000707157
0.000690538
0.000678969
0.00340886
0.00310739
0.00290359
0.00275538
0.00264518
0.0025561
0.00247414