/*--------------------------------*- C++ -*----------------------------------*\
| =========                 |                                                 |
| \\      /  F ield         | OpenFOAM: The Open Source CFD Toolbox           |
|  \\    /   O peration     | Version:  2212                                  |
|   \\  /    A nd           | Website:  www.openfoam.com                      |
|    \\/     M anipulation  |                                                 |
\*---------------------------------------------------------------------------*/
FoamFile
{
    version     2.0;
    format      ascii;
    arch        "LSB;label=32;scalar=64";
    class       volScalarField;
    location    "1.4";
    object      nut;
}
// * * * * * * * * * * * * * * * * * * * * * * * * * * * * * * * * * * * * * //

dimensions      [0 2 -1 0 0 0 0];

internalField   nonuniform List<scalar> 
6840
(
4.5356e-05
2.3208e-05
1.65396e-05
1.36493e-05
1.18966e-05
1.06844e-05
9.76072e-06
9.05704e-06
8.49462e-06
8.03117e-06
7.64028e-06
7.31178e-06
7.02391e-06
6.75936e-06
6.52684e-06
6.32408e-06
6.14622e-06
5.98931e-06
5.85526e-06
5.70085e-06
0.000107685
6.77183e-05
5.06311e-05
4.14159e-05
3.54048e-05
3.10366e-05
2.77136e-05
2.50815e-05
2.29333e-05
2.11504e-05
1.96503e-05
1.83708e-05
1.72624e-05
1.6293e-05
1.54492e-05
1.47211e-05
1.40866e-05
1.35316e-05
1.30548e-05
1.26451e-05
0.000160509
0.00010736
8.07408e-05
6.55975e-05
5.54896e-05
4.83025e-05
4.3131e-05
3.90791e-05
3.57392e-05
3.29499e-05
3.05784e-05
2.85358e-05
2.67754e-05
2.52484e-05
2.39123e-05
2.27355e-05
2.16977e-05
2.07808e-05
1.99738e-05
1.93089e-05
0.000198681
0.0001383
0.000105187
8.55269e-05
7.25012e-05
6.28902e-05
5.60612e-05
5.07594e-05
4.63882e-05
4.27221e-05
3.96258e-05
3.69562e-05
3.46347e-05
3.26053e-05
3.08223e-05
2.92482e-05
2.78528e-05
2.66114e-05
2.55055e-05
2.45403e-05
0.000218609
0.000155003
0.000118661
9.65069e-05
8.18824e-05
7.08356e-05
6.30857e-05
5.71437e-05
5.22487e-05
4.80967e-05
4.45834e-05
4.15734e-05
3.89546e-05
3.66624e-05
3.46448e-05
3.28599e-05
3.12733e-05
2.98573e-05
2.85931e-05
2.75055e-05
0.000218609
0.000155003
0.000118661
9.65069e-05
8.18824e-05
7.08356e-05
6.30856e-05
5.71435e-05
5.22484e-05
4.80964e-05
4.45828e-05
4.15724e-05
3.8953e-05
3.66597e-05
3.46405e-05
3.28534e-05
3.12636e-05
2.98436e-05
2.85786e-05
2.75289e-05
0.000198681
0.0001383
0.000105187
8.55269e-05
7.25012e-05
6.28901e-05
5.6061e-05
5.07591e-05
4.63877e-05
4.27213e-05
3.96244e-05
3.69541e-05
3.46312e-05
3.25996e-05
3.08133e-05
2.92342e-05
2.7831e-05
2.65784e-05
2.54648e-05
2.45819e-05
0.000160509
0.00010736
8.07408e-05
6.55975e-05
5.54895e-05
4.83025e-05
4.31309e-05
3.90789e-05
3.57389e-05
3.29491e-05
3.05772e-05
2.85339e-05
2.67724e-05
2.52434e-05
2.3904e-05
2.27221e-05
2.16761e-05
2.07466e-05
1.99262e-05
1.92637e-05
0.000107685
6.77183e-05
5.06311e-05
4.14159e-05
3.54048e-05
3.10366e-05
2.77136e-05
2.50815e-05
2.29332e-05
2.11502e-05
1.96499e-05
1.83702e-05
1.72614e-05
1.62903e-05
1.54449e-05
1.47139e-05
1.40736e-05
1.35076e-05
1.30173e-05
1.26253e-05
4.5356e-05
2.3208e-05
1.65396e-05
1.36493e-05
1.18966e-05
1.06844e-05
9.76072e-06
9.05704e-06
8.49462e-06
8.03117e-06
7.64028e-06
7.31178e-06
7.02388e-06
6.75937e-06
6.52683e-06
6.32409e-06
6.14625e-06
5.98938e-06
5.85542e-06
5.7012e-06
0.000107685
6.77183e-05
5.06311e-05
4.14159e-05
3.54048e-05
3.10366e-05
2.77136e-05
2.50815e-05
2.29332e-05
2.11502e-05
1.96499e-05
1.83702e-05
1.72614e-05
1.62904e-05
1.54449e-05
1.47138e-05
1.40735e-05
1.35074e-05
1.3017e-05
1.26244e-05
0.000528907
0.000369984
0.000305097
0.000261371
0.000228527
0.000202475
0.000181113
0.000163071
0.000147536
0.000133979
0.000122041
0.000111455
0.000102117
9.38368e-05
8.64149e-05
7.96e-05
7.33733e-05
6.77232e-05
6.34738e-05
5.56584e-05
0.000663952
0.000488458
0.000404619
0.000347248
0.000305035
0.000272128
0.000245318
0.000222889
0.000203756
0.000187179
0.000172655
0.000159816
0.000148377
0.000138126
0.000128893
0.000120673
0.000113273
0.000106534
0.000100822
9.46382e-05
0.00071288
0.000556432
0.000466397
0.000402355
0.000354426
0.000317051
0.000286675
0.000261256
0.000239584
0.000220849
0.000204449
0.00018996
0.000177063
0.000165502
0.000155077
0.000145638
0.000137066
0.000129251
0.000122114
0.000115928
0.000728543
0.000588231
0.000496002
0.000429132
0.00037851
0.000338935
0.000306819
0.000279975
0.000257075
0.000237259
0.000219915
0.000204585
0.000190929
0.000178682
0.000167638
0.000157618
0.000148497
0.000140155
0.00013248
0.000125386
0.000728543
0.000588231
0.000496002
0.000429132
0.00037851
0.000338935
0.000306819
0.000279974
0.000257073
0.000237256
0.00021991
0.000204577
0.000190915
0.000178655
0.000167594
0.000157552
0.000148394
0.000139995
0.000132238
0.000125124
0.00071288
0.000556432
0.000466397
0.000402355
0.000354425
0.00031705
0.000286674
0.000261254
0.00023958
0.000220843
0.000204439
0.000189942
0.000177031
0.000165446
0.000154986
0.000145494
0.000136828
0.000128859
0.000121483
0.000115164
0.000663952
0.000488458
0.000404619
0.000347248
0.000305035
0.000272127
0.000245317
0.000222886
0.000203752
0.000187174
0.000172646
0.000159801
0.000148351
0.000138077
0.00012882
0.000120551
0.000113056
0.000106145
0.000100136
9.37813e-05
0.000528907
0.000369984
0.000305097
0.000261371
0.000228527
0.000202475
0.000181113
0.000163071
0.000147536
0.000133979
0.000122041
0.000111455
0.000102118
9.38314e-05
8.64191e-05
7.9603e-05
7.3376e-05
6.77263e-05
6.34779e-05
5.56762e-05
0.000107685
6.77183e-05
5.06311e-05
4.14159e-05
3.54048e-05
3.10366e-05
2.77136e-05
2.50815e-05
2.29333e-05
2.11504e-05
1.96503e-05
1.83708e-05
1.72624e-05
1.62931e-05
1.54492e-05
1.47211e-05
1.40866e-05
1.35317e-05
1.30552e-05
1.26464e-05
0.000160509
0.00010736
8.07408e-05
6.55975e-05
5.54895e-05
4.83025e-05
4.31309e-05
3.90789e-05
3.57389e-05
3.29491e-05
3.05772e-05
2.85339e-05
2.67724e-05
2.52435e-05
2.39038e-05
2.2722e-05
2.1676e-05
2.07466e-05
1.99261e-05
1.92633e-05
0.000663952
0.000488458
0.000404619
0.000347248
0.000305035
0.000272127
0.000245317
0.000222886
0.000203752
0.000187174
0.000172646
0.000159801
0.000148352
0.000138083
0.000128815
0.000120548
0.000113055
0.000106146
0.000100131
9.37709e-05
0.000786827
0.000662293
0.000567974
0.000495805
0.000439463
0.000394561
0.000357973
0.000327449
0.000301486
0.000279045
0.00025939
0.00024199
0.000226454
0.000212483
0.000199841
0.000188366
0.000177895
0.000168277
0.000159379
0.000149984
0.000809324
0.000713906
0.000631505
0.000562574
0.000505377
0.000457786
0.000417841
0.000383939
0.000354803
0.000329449
0.000307155
0.000287378
0.0002697
0.000253796
0.000239405
0.000226325
0.000214379
0.000203403
0.000193187
0.000183186
0.000814958
0.000730426
0.000654634
0.000589044
0.000533067
0.000485439
0.000444764
0.000409795
0.000379473
0.000352935
0.000329497
0.000308638
0.000289953
0.000273121
0.000257882
0.000244016
0.000231344
0.000219688
0.000208818
0.000198351
0.000814958
0.000730426
0.000654634
0.000589044
0.000533067
0.000485439
0.000444764
0.000409794
0.000379472
0.000352934
0.000329495
0.000308635
0.000289947
0.000273109
0.000257863
0.00024399
0.000231304
0.000219617
0.000208652
0.000197724
0.000809324
0.000713906
0.000631504
0.000562574
0.000505377
0.000457785
0.00041784
0.000383938
0.000354802
0.000329447
0.000307152
0.000287373
0.000269689
0.000253776
0.000239377
0.00022628
0.000214306
0.000203272
0.000192896
0.000182112
0.000786827
0.000662293
0.000567974
0.000495805
0.000439463
0.000394561
0.000357973
0.000327449
0.000301486
0.000279045
0.00025939
0.00024199
0.000226453
0.000212479
0.000199843
0.000188368
0.000177896
0.000168279
0.000159378
0.000149974
0.000663952
0.000488458
0.000404619
0.000347248
0.000305035
0.000272128
0.000245318
0.000222889
0.000203756
0.000187179
0.000172655
0.000159816
0.000148378
0.000138124
0.000128894
0.000120674
0.000113275
0.000106537
0.000100828
9.46386e-05
0.000160509
0.00010736
8.07408e-05
6.55975e-05
5.54896e-05
4.83025e-05
4.3131e-05
3.90791e-05
3.57392e-05
3.29499e-05
3.05784e-05
2.85358e-05
2.67754e-05
2.52485e-05
2.39122e-05
2.27354e-05
2.16976e-05
2.07807e-05
1.99737e-05
1.93078e-05
0.000198681
0.0001383
0.000105187
8.55269e-05
7.25012e-05
6.28901e-05
5.6061e-05
5.07591e-05
4.63877e-05
4.27213e-05
3.96245e-05
3.69541e-05
3.46313e-05
3.25998e-05
3.08131e-05
2.92341e-05
2.78309e-05
2.65784e-05
2.54649e-05
2.45822e-05
0.00071288
0.000556432
0.000466397
0.000402355
0.000354425
0.00031705
0.000286674
0.000261254
0.00023958
0.000220843
0.000204439
0.000189943
0.000177033
0.000165449
0.000154983
0.000145492
0.000136828
0.000128861
0.000121488
0.000115177
0.000809324
0.000713906
0.000631504
0.000562574
0.000505377
0.000457785
0.00041784
0.000383938
0.000354802
0.000329447
0.000307152
0.000287373
0.000269691
0.000253778
0.000239374
0.000226279
0.000214306
0.000203275
0.000192903
0.000182141
0.000823497
0.000753987
0.000688491
0.000628748
0.000575387
0.000528266
0.000486845
0.000450441
0.000418361
0.000389972
0.000364724
0.000342157
0.000321886
0.000303591
0.000287007
0.00027191
0.000258097
0.00024535
0.000233319
0.000221075
0.000826292
0.000764347
0.000706102
0.000651937
0.000602231
0.000557104
0.000516428
0.000479913
0.000447181
0.000417833
0.000391477
0.000367751
0.000346334
0.000326941
0.000309325
0.000293264
0.000278552
0.000264952
0.000252072
0.000238934
0.000826292
0.000764347
0.000706102
0.000651937
0.00060223
0.000557104
0.000516428
0.000479912
0.000447181
0.000417833
0.000391476
0.00036775
0.000346332
0.000326938
0.00030932
0.000293257
0.000278541
0.000264933
0.000252025
0.000238851
0.000823497
0.000753987
0.000688491
0.000628748
0.000575387
0.000528266
0.000486845
0.000450441
0.000418361
0.000389972
0.000364724
0.000342157
0.000321885
0.000303591
0.000287008
0.000271911
0.000258097
0.000245351
0.000233319
0.000221062
0.000809324
0.000713906
0.000631505
0.000562574
0.000505377
0.000457786
0.000417841
0.000383939
0.000354803
0.000329449
0.000307155
0.000287378
0.000269701
0.000253795
0.000239405
0.000226325
0.000214381
0.000203406
0.000193191
0.000183183
0.00071288
0.000556432
0.000466397
0.000402355
0.000354426
0.000317051
0.000286675
0.000261256
0.000239584
0.000220849
0.000204449
0.00018996
0.000177064
0.000165504
0.000155075
0.000145637
0.000137066
0.000129252
0.000122115
0.000115928
0.000198681
0.0001383
0.000105187
8.55269e-05
7.25012e-05
6.28902e-05
5.60612e-05
5.07594e-05
4.63882e-05
4.27221e-05
3.96258e-05
3.69562e-05
3.46347e-05
3.26054e-05
3.08222e-05
2.92481e-05
2.78527e-05
2.66113e-05
2.55054e-05
2.454e-05
0.000218609
0.000155003
0.000118661
9.65069e-05
8.18824e-05
7.08356e-05
6.30856e-05
5.71435e-05
5.22484e-05
4.80964e-05
4.45828e-05
4.15724e-05
3.8953e-05
3.66598e-05
3.46405e-05
3.28534e-05
3.12637e-05
2.98437e-05
2.85788e-05
2.75289e-05
0.000728543
0.000588231
0.000496002
0.000429132
0.00037851
0.000338935
0.000306819
0.000279974
0.000257073
0.000237256
0.00021991
0.000204577
0.000190916
0.000178657
0.000167594
0.000157553
0.000148396
0.000139999
0.000132244
0.000125136
0.000814958
0.000730426
0.000654634
0.000589044
0.000533067
0.000485439
0.000444764
0.000409794
0.000379472
0.000352934
0.000329495
0.000308635
0.000289948
0.000273111
0.000257864
0.000243991
0.000231306
0.00021962
0.000208658
0.000197745
0.000826292
0.000764347
0.000706102
0.000651937
0.00060223
0.000557104
0.000516428
0.000479912
0.000447181
0.000417833
0.000391476
0.00036775
0.000346332
0.000326938
0.00030932
0.000293257
0.000278542
0.000264934
0.000252027
0.00023886
0.000828382
0.0007726
0.000721138
0.00067296
0.000627782
0.00058562
0.000546547
0.000510579
0.000477649
0.000447615
0.000420287
0.000395446
0.000372862
0.000352313
0.000333583
0.000316467
0.000300755
0.000286172
0.000272194
0.000257446
0.000828382
0.0007726
0.000721138
0.00067296
0.000627782
0.00058562
0.000546547
0.000510579
0.000477649
0.000447615
0.000420287
0.000395446
0.000372862
0.000352313
0.000333583
0.000316467
0.000300755
0.000286172
0.000272192
0.000257441
0.000826292
0.000764347
0.000706102
0.000651937
0.00060223
0.000557104
0.000516428
0.000479913
0.000447181
0.000417833
0.000391477
0.000367751
0.000346334
0.000326942
0.000309325
0.000293264
0.000278553
0.000264955
0.000252076
0.000238935
0.000814958
0.000730426
0.000654634
0.000589044
0.000533067
0.000485439
0.000444764
0.000409795
0.000379473
0.000352935
0.000329497
0.000308638
0.000289954
0.000273122
0.00025788
0.000244016
0.000231345
0.000219691
0.000208824
0.000198353
0.000728543
0.000588231
0.000496002
0.000429132
0.00037851
0.000338935
0.000306819
0.000279975
0.000257075
0.000237259
0.000219915
0.000204585
0.00019093
0.000178685
0.000167634
0.000157616
0.000148495
0.000140153
0.000132477
0.000125382
0.000218609
0.000155003
0.000118661
9.65069e-05
8.18824e-05
7.08356e-05
6.30857e-05
5.71436e-05
5.22486e-05
4.80967e-05
4.45834e-05
4.15734e-05
3.89545e-05
3.66624e-05
3.46448e-05
3.28598e-05
3.12732e-05
2.98572e-05
2.8593e-05
2.7505e-05
0.000218609
0.000155003
0.000118661
9.65069e-05
8.18824e-05
7.08356e-05
6.30857e-05
5.71436e-05
5.22486e-05
4.80967e-05
4.45834e-05
4.15734e-05
3.89546e-05
3.66624e-05
3.46448e-05
3.28599e-05
3.12733e-05
2.98574e-05
2.85933e-05
2.75054e-05
0.000728543
0.000588231
0.000496002
0.000429132
0.00037851
0.000338935
0.000306819
0.000279975
0.000257075
0.000237259
0.000219915
0.000204585
0.000190929
0.000178682
0.000167638
0.000157619
0.000148498
0.000140156
0.000132483
0.000125391
0.000814958
0.000730426
0.000654634
0.000589044
0.000533067
0.000485439
0.000444764
0.000409795
0.000379472
0.000352935
0.000329497
0.000308638
0.000289953
0.000273121
0.000257882
0.000244016
0.000231345
0.000219689
0.000208819
0.000198354
0.000826292
0.000764347
0.000706102
0.000651937
0.00060223
0.000557104
0.000516428
0.000479913
0.000447181
0.000417833
0.000391477
0.000367751
0.000346334
0.000326941
0.000309325
0.000293264
0.000278552
0.000264953
0.000252074
0.000238936
0.000828382
0.0007726
0.000721138
0.00067296
0.000627782
0.00058562
0.000546547
0.000510579
0.000477649
0.000447615
0.000420287
0.000395445
0.000372862
0.000352313
0.000333583
0.000316467
0.000300755
0.000286172
0.000272194
0.000257445
0.000828382
0.0007726
0.000721138
0.00067296
0.000627782
0.00058562
0.000546547
0.000510579
0.000477649
0.000447615
0.000420287
0.000395445
0.000372862
0.000352313
0.000333583
0.000316467
0.000300755
0.000286172
0.000272193
0.000257442
0.000826292
0.000764347
0.000706102
0.000651937
0.00060223
0.000557104
0.000516428
0.000479912
0.000447181
0.000417833
0.000391476
0.00036775
0.000346332
0.000326938
0.00030932
0.000293258
0.000278542
0.000264935
0.000252029
0.000238854
0.000814958
0.000730426
0.000654634
0.000589044
0.000533067
0.000485439
0.000444764
0.000409794
0.000379472
0.000352934
0.000329495
0.000308635
0.000289947
0.000273111
0.000257864
0.000243991
0.000231305
0.000219618
0.000208655
0.000197736
0.000728543
0.000588231
0.000496002
0.000429132
0.00037851
0.000338935
0.000306819
0.000279974
0.000257073
0.000237256
0.00021991
0.000204577
0.000190914
0.000178658
0.000167593
0.000157551
0.000148393
0.000139993
0.000132233
0.000125122
0.000218609
0.000155003
0.000118661
9.65069e-05
8.18824e-05
7.08356e-05
6.30856e-05
5.71435e-05
5.22484e-05
4.80964e-05
4.45828e-05
4.15724e-05
3.89529e-05
3.66596e-05
3.46407e-05
3.28535e-05
3.12637e-05
2.98437e-05
2.85786e-05
2.75287e-05
0.000198681
0.0001383
0.000105187
8.55269e-05
7.25012e-05
6.28902e-05
5.60612e-05
5.07594e-05
4.63882e-05
4.27221e-05
3.96258e-05
3.69562e-05
3.46346e-05
3.26053e-05
3.08223e-05
2.92482e-05
2.78528e-05
2.66114e-05
2.55056e-05
2.45404e-05
0.00071288
0.000556432
0.000466397
0.000402355
0.000354426
0.000317051
0.000286675
0.000261256
0.000239583
0.000220849
0.000204449
0.00018996
0.000177062
0.000165501
0.000155076
0.000145637
0.000137065
0.00012925
0.000122113
0.000115927
0.000809324
0.000713906
0.000631505
0.000562574
0.000505377
0.000457785
0.000417841
0.000383939
0.000354803
0.000329449
0.000307155
0.000287378
0.000269699
0.000253795
0.000239405
0.000226324
0.000214378
0.000203401
0.000193184
0.000183178
0.000823497
0.000753987
0.000688491
0.000628748
0.000575387
0.000528266
0.000486845
0.000450441
0.000418361
0.000389971
0.000364724
0.000342156
0.000321885
0.000303591
0.000287006
0.000271909
0.000258095
0.000245349
0.00023332
0.000221065
0.000826292
0.000764347
0.000706102
0.000651937
0.00060223
0.000557104
0.000516428
0.000479912
0.000447181
0.000417833
0.000391476
0.00036775
0.000346332
0.000326938
0.00030932
0.000293257
0.000278541
0.000264934
0.000252027
0.000238859
0.000826292
0.000764347
0.000706102
0.000651937
0.00060223
0.000557104
0.000516428
0.000479912
0.000447181
0.000417833
0.000391477
0.000367751
0.000346334
0.000326941
0.000309325
0.000293264
0.000278552
0.000264953
0.000252074
0.00023893
0.000823497
0.000753987
0.000688491
0.000628748
0.000575387
0.000528266
0.000486845
0.000450441
0.000418361
0.000389971
0.000364724
0.000342156
0.000321885
0.00030359
0.000287008
0.00027191
0.000258096
0.00024535
0.00023332
0.000221062
0.000809324
0.000713906
0.000631504
0.000562574
0.000505377
0.000457785
0.00041784
0.000383938
0.000354802
0.000329447
0.000307152
0.000287372
0.000269689
0.000253776
0.000239376
0.00022628
0.000214305
0.00020327
0.000192894
0.000182128
0.00071288
0.000556432
0.000466397
0.000402355
0.000354425
0.00031705
0.000286674
0.000261254
0.00023958
0.000220843
0.000204439
0.000189942
0.000177031
0.000165446
0.000154986
0.000145493
0.000136827
0.000128857
0.000121479
0.000115166
0.000198681
0.0001383
0.000105187
8.55269e-05
7.25012e-05
6.28901e-05
5.6061e-05
5.07591e-05
4.63877e-05
4.27213e-05
3.96244e-05
3.69541e-05
3.46312e-05
3.25996e-05
3.08133e-05
2.92342e-05
2.78311e-05
2.65784e-05
2.54648e-05
2.45821e-05
0.000160509
0.00010736
8.07408e-05
6.55975e-05
5.54896e-05
4.83025e-05
4.3131e-05
3.90791e-05
3.57392e-05
3.29499e-05
3.05784e-05
2.85357e-05
2.67754e-05
2.52484e-05
2.39123e-05
2.27355e-05
2.16977e-05
2.07807e-05
1.99737e-05
1.93091e-05
0.000663952
0.000488458
0.000404619
0.000347248
0.000305035
0.000272127
0.000245318
0.000222889
0.000203756
0.000187179
0.000172654
0.000159815
0.000148376
0.000138125
0.000128892
0.000120671
0.000113269
0.000106528
0.000100822
9.46322e-05
0.000786827
0.000662293
0.000567974
0.000495805
0.000439463
0.000394561
0.000357973
0.000327449
0.000301486
0.000279044
0.000259389
0.00024199
0.000226453
0.000212481
0.000199839
0.000188364
0.000177891
0.000168271
0.00015937
0.000149971
0.000809324
0.000713906
0.000631504
0.000562574
0.000505377
0.000457785
0.00041784
0.000383938
0.000354802
0.000329447
0.000307152
0.000287373
0.000269691
0.000253777
0.000239373
0.000226277
0.000214303
0.00020327
0.000192896
0.000182131
0.000814958
0.000730426
0.000654634
0.000589044
0.000533067
0.000485439
0.000444764
0.000409794
0.000379472
0.000352934
0.000329495
0.000308635
0.000289948
0.000273111
0.000257863
0.00024399
0.000231304
0.000219618
0.000208655
0.000197738
0.000814958
0.000730426
0.000654634
0.000589044
0.000533067
0.000485439
0.000444764
0.000409795
0.000379472
0.000352935
0.000329497
0.000308638
0.000289953
0.000273121
0.000257882
0.000244016
0.000231345
0.000219689
0.00020882
0.000198347
0.000809324
0.000713906
0.000631505
0.000562574
0.000505377
0.000457786
0.000417841
0.000383939
0.000354803
0.000329449
0.000307155
0.000287378
0.0002697
0.000253795
0.000239405
0.000226324
0.000214378
0.000203402
0.000193185
0.000183182
0.000786827
0.000662293
0.000567974
0.000495805
0.000439463
0.000394561
0.000357973
0.000327449
0.000301486
0.000279045
0.000259389
0.00024199
0.000226453
0.000212479
0.000199842
0.000188366
0.000177893
0.000168273
0.000159372
0.000149977
0.000663952
0.000488458
0.000404619
0.000347248
0.000305035
0.000272127
0.000245317
0.000222887
0.000203752
0.000187174
0.000172646
0.000159801
0.000148351
0.000138077
0.00012882
0.00012055
0.000113055
0.000106144
0.000100135
9.37676e-05
0.000160509
0.00010736
8.07408e-05
6.55975e-05
5.54895e-05
4.83025e-05
4.31308e-05
3.90789e-05
3.57389e-05
3.29491e-05
3.05772e-05
2.85339e-05
2.67724e-05
2.52434e-05
2.39039e-05
2.27221e-05
2.16761e-05
2.07467e-05
1.99262e-05
1.92634e-05
0.000107685
6.77183e-05
5.06311e-05
4.14159e-05
3.54048e-05
3.10366e-05
2.77136e-05
2.50815e-05
2.29333e-05
2.11504e-05
1.96502e-05
1.83708e-05
1.72624e-05
1.6293e-05
1.54492e-05
1.4721e-05
1.40865e-05
1.35316e-05
1.30548e-05
1.26451e-05
0.000528907
0.000369984
0.000305097
0.000261371
0.000228527
0.000202475
0.000181113
0.000163071
0.000147536
0.000133979
0.000122041
0.000111454
0.000102117
9.38362e-05
8.64142e-05
7.95989e-05
7.33715e-05
6.7721e-05
6.3471e-05
5.56535e-05
0.000663952
0.000488458
0.000404619
0.000347248
0.000305035
0.000272127
0.000245317
0.000222886
0.000203752
0.000187174
0.000172646
0.000159801
0.000148352
0.000138082
0.000128814
0.000120547
0.000113053
0.000106144
0.000100127
9.37656e-05
0.00071288
0.000556432
0.000466397
0.000402355
0.000354425
0.00031705
0.000286674
0.000261254
0.00023958
0.000220843
0.000204439
0.000189943
0.000177033
0.000165449
0.000154982
0.000145491
0.000136827
0.000128859
0.000121482
0.000115168
0.000728543
0.000588231
0.000496002
0.000429132
0.00037851
0.000338935
0.000306819
0.000279974
0.000257073
0.000237256
0.00021991
0.000204577
0.000190915
0.000178657
0.000167594
0.000157553
0.000148395
0.000139997
0.000132239
0.000125132
0.000728543
0.000588231
0.000496002
0.000429132
0.00037851
0.000338935
0.000306819
0.000279975
0.000257075
0.000237259
0.000219914
0.000204585
0.000190929
0.000178682
0.000167638
0.000157619
0.000148497
0.000140155
0.00013248
0.000125385
0.00071288
0.000556432
0.000466397
0.000402355
0.000354426
0.000317051
0.000286675
0.000261256
0.000239583
0.000220849
0.000204449
0.00018996
0.000177063
0.000165504
0.000155075
0.000145636
0.000137064
0.000129249
0.000122113
0.000115926
0.000663952
0.000488458
0.000404619
0.000347248
0.000305035
0.000272127
0.000245318
0.000222889
0.000203756
0.000187179
0.000172655
0.000159816
0.000148377
0.000138124
0.000128892
0.000120672
0.00011327
0.00010653
0.000100824
9.46333e-05
0.000528907
0.000369984
0.000305097
0.000261371
0.000228527
0.000202475
0.000181112
0.000163071
0.000147536
0.000133979
0.000122041
0.000111454
0.000102118
9.3831e-05
8.64185e-05
7.9602e-05
7.33743e-05
6.77242e-05
6.34745e-05
5.56589e-05
0.000107685
6.77183e-05
5.06311e-05
4.14159e-05
3.54048e-05
3.10366e-05
2.77136e-05
2.50815e-05
2.29332e-05
2.11502e-05
1.96499e-05
1.83702e-05
1.72614e-05
1.62903e-05
1.54449e-05
1.47139e-05
1.40735e-05
1.35075e-05
1.30172e-05
1.26248e-05
4.5356e-05
2.3208e-05
1.65396e-05
1.36493e-05
1.18966e-05
1.06844e-05
9.76072e-06
9.05704e-06
8.49462e-06
8.03116e-06
7.64028e-06
7.31177e-06
7.0239e-06
6.75934e-06
6.52682e-06
6.32405e-06
6.14619e-06
5.98928e-06
5.85528e-06
5.70073e-06
0.000107685
6.77183e-05
5.06311e-05
4.14159e-05
3.54048e-05
3.10366e-05
2.77136e-05
2.50815e-05
2.29332e-05
2.11502e-05
1.96499e-05
1.83702e-05
1.72614e-05
1.62904e-05
1.54448e-05
1.47137e-05
1.40733e-05
1.35072e-05
1.30166e-05
1.26237e-05
0.000160509
0.00010736
8.07408e-05
6.55975e-05
5.54895e-05
4.83025e-05
4.31309e-05
3.90789e-05
3.57389e-05
3.29491e-05
3.05772e-05
2.85339e-05
2.67724e-05
2.52435e-05
2.39038e-05
2.27219e-05
2.16759e-05
2.07464e-05
1.99258e-05
1.9263e-05
0.000198681
0.0001383
0.000105187
8.55269e-05
7.25012e-05
6.28901e-05
5.6061e-05
5.07591e-05
4.63877e-05
4.27213e-05
3.96244e-05
3.69541e-05
3.46313e-05
3.25997e-05
3.0813e-05
2.9234e-05
2.78309e-05
2.65783e-05
2.54647e-05
2.45821e-05
0.000218609
0.000155003
0.000118661
9.65069e-05
8.18824e-05
7.08356e-05
6.30856e-05
5.71435e-05
5.22484e-05
4.80964e-05
4.45828e-05
4.15724e-05
3.8953e-05
3.66598e-05
3.46405e-05
3.28534e-05
3.12637e-05
2.98438e-05
2.85788e-05
2.75288e-05
0.000218609
0.000155003
0.000118661
9.65069e-05
8.18824e-05
7.08356e-05
6.30857e-05
5.71436e-05
5.22486e-05
4.80967e-05
4.45834e-05
4.15734e-05
3.89546e-05
3.66624e-05
3.46448e-05
3.28599e-05
3.12733e-05
2.98574e-05
2.85933e-05
2.75054e-05
0.000198681
0.0001383
0.000105187
8.55269e-05
7.25012e-05
6.28902e-05
5.60612e-05
5.07594e-05
4.63882e-05
4.2722e-05
3.96258e-05
3.69562e-05
3.46347e-05
3.26054e-05
3.08222e-05
2.92481e-05
2.78527e-05
2.66114e-05
2.55056e-05
2.45405e-05
0.000160509
0.00010736
8.07408e-05
6.55975e-05
5.54896e-05
4.83025e-05
4.3131e-05
3.90791e-05
3.57392e-05
3.29499e-05
3.05784e-05
2.85357e-05
2.67754e-05
2.52485e-05
2.39122e-05
2.27354e-05
2.16976e-05
2.07807e-05
1.99737e-05
1.93089e-05
0.000107685
6.77183e-05
5.06311e-05
4.14159e-05
3.54048e-05
3.10366e-05
2.77136e-05
2.50815e-05
2.29333e-05
2.11504e-05
1.96502e-05
1.83708e-05
1.72624e-05
1.6293e-05
1.54492e-05
1.47211e-05
1.40866e-05
1.35316e-05
1.30549e-05
1.26455e-05
4.5356e-05
2.3208e-05
1.65396e-05
1.36493e-05
1.18966e-05
1.06844e-05
9.76072e-06
9.05704e-06
8.49461e-06
8.03116e-06
7.64028e-06
7.31178e-06
7.02388e-06
6.75936e-06
6.52681e-06
6.32407e-06
6.14622e-06
5.98934e-06
5.85539e-06
5.701e-06
4.85583e-06
4.68413e-06
4.52309e-06
4.40863e-06
4.3266e-06
4.26518e-06
4.21178e-06
4.16074e-06
4.11141e-06
4.06978e-06
4.03167e-06
3.99697e-06
3.95997e-06
3.92431e-06
3.8887e-06
3.85601e-06
3.82287e-06
3.79233e-06
3.76225e-06
3.73342e-06
3.70519e-06
3.67704e-06
3.65081e-06
3.62475e-06
3.60008e-06
3.57559e-06
3.55123e-06
3.52683e-06
3.50262e-06
3.47793e-06
3.45481e-06
3.43186e-06
3.40844e-06
3.38533e-06
3.36196e-06
3.34165e-06
3.32288e-06
3.30373e-06
3.28742e-06
3.26161e-06
1.02956e-05
9.77115e-06
9.44378e-06
9.19194e-06
9.0059e-06
8.84802e-06
8.70518e-06
8.57055e-06
8.43255e-06
8.31366e-06
8.20623e-06
8.11301e-06
8.01765e-06
7.93081e-06
7.84185e-06
7.75887e-06
7.67918e-06
7.60517e-06
7.53498e-06
7.46771e-06
7.40308e-06
7.33989e-06
7.28023e-06
7.22303e-06
7.16925e-06
7.11767e-06
7.06692e-06
7.01673e-06
6.96699e-06
6.91659e-06
6.86693e-06
6.81909e-06
6.77248e-06
6.72577e-06
6.68115e-06
6.63702e-06
6.59524e-06
6.5562e-06
6.51853e-06
6.47557e-06
1.5355e-05
1.49336e-05
1.44278e-05
1.39895e-05
1.36345e-05
1.33255e-05
1.30498e-05
1.28024e-05
1.25778e-05
1.23656e-05
1.21688e-05
1.19862e-05
1.18215e-05
1.168e-05
1.1526e-05
1.13848e-05
1.12527e-05
1.1132e-05
1.10164e-05
1.09036e-05
1.07977e-05
1.06863e-05
1.05837e-05
1.04847e-05
1.03972e-05
1.03124e-05
1.02294e-05
1.01479e-05
1.00689e-05
9.99118e-06
9.91345e-06
9.8379e-06
9.76458e-06
9.69467e-06
9.629e-06
9.5631e-06
9.49778e-06
9.43509e-06
9.37298e-06
9.31107e-06
1.98107e-05
1.91633e-05
1.85502e-05
1.79982e-05
1.75043e-05
1.70607e-05
1.66568e-05
1.62873e-05
1.59476e-05
1.56349e-05
1.5346e-05
1.50774e-05
1.48245e-05
1.45977e-05
1.43853e-05
1.41861e-05
1.39986e-05
1.38272e-05
1.36553e-05
1.34815e-05
1.33256e-05
1.31773e-05
1.30357e-05
1.28976e-05
1.27682e-05
1.26446e-05
1.2528e-05
1.24156e-05
1.2307e-05
1.22027e-05
1.20963e-05
1.19936e-05
1.18938e-05
1.18004e-05
1.17115e-05
1.16266e-05
1.15436e-05
1.14624e-05
1.13847e-05
1.13091e-05
2.27331e-05
2.19978e-05
2.12991e-05
2.06512e-05
2.00565e-05
1.95134e-05
1.90189e-05
1.8567e-05
1.8149e-05
1.77616e-05
1.74017e-05
1.70661e-05
1.67508e-05
1.6464e-05
1.61962e-05
1.59486e-05
1.57165e-05
1.54975e-05
1.52911e-05
1.50963e-05
1.49173e-05
1.47396e-05
1.45598e-05
1.43938e-05
1.42374e-05
1.409e-05
1.39499e-05
1.38169e-05
1.3689e-05
1.35693e-05
1.34469e-05
1.33267e-05
1.32105e-05
1.31026e-05
1.29962e-05
1.28991e-05
1.28023e-05
1.2708e-05
1.26172e-05
1.25313e-05
2.41446e-05
2.32216e-05
2.23999e-05
2.16656e-05
2.10007e-05
2.03966e-05
1.98487e-05
1.93476e-05
1.88858e-05
1.84576e-05
1.80602e-05
1.76908e-05
1.73449e-05
1.70276e-05
1.67323e-05
1.64572e-05
1.62012e-05
1.59658e-05
1.57458e-05
1.55399e-05
1.53476e-05
1.51668e-05
1.50003e-05
1.48376e-05
1.4666e-05
1.4501e-05
1.43483e-05
1.42068e-05
1.40762e-05
1.39485e-05
1.38271e-05
1.37068e-05
1.35712e-05
1.34621e-05
1.33404e-05
1.32413e-05
1.31389e-05
1.30424e-05
1.29469e-05
1.28562e-05
2.32288e-05
2.2316e-05
2.14956e-05
2.07603e-05
2.00948e-05
1.94933e-05
1.89483e-05
1.84535e-05
1.79998e-05
1.75829e-05
1.72002e-05
1.68479e-05
1.65223e-05
1.62229e-05
1.59458e-05
1.56888e-05
1.54506e-05
1.52297e-05
1.50258e-05
1.48357e-05
1.46597e-05
1.44921e-05
1.43314e-05
1.41795e-05
1.40176e-05
1.38676e-05
1.37266e-05
1.3595e-05
1.34709e-05
1.33433e-05
1.32224e-05
1.30934e-05
1.29831e-05
1.28596e-05
1.27616e-05
1.26612e-05
1.25609e-05
1.24604e-05
1.23615e-05
1.22666e-05
2.02862e-05
1.94703e-05
1.8702e-05
1.80524e-05
1.74589e-05
1.69335e-05
1.64655e-05
1.60442e-05
1.56661e-05
1.53238e-05
1.50138e-05
1.47282e-05
1.44641e-05
1.42209e-05
1.3996e-05
1.37869e-05
1.35944e-05
1.34146e-05
1.32475e-05
1.30903e-05
1.29479e-05
1.2802e-05
1.26605e-05
1.25306e-05
1.24043e-05
1.22843e-05
1.21669e-05
1.20556e-05
1.19406e-05
1.18233e-05
1.17109e-05
1.16075e-05
1.15104e-05
1.14134e-05
1.13167e-05
1.12213e-05
1.11249e-05
1.10303e-05
1.09391e-05
1.08518e-05
1.57782e-05
1.5174e-05
1.45228e-05
1.39942e-05
1.35496e-05
1.31674e-05
1.28341e-05
1.25494e-05
1.22925e-05
1.20588e-05
1.18466e-05
1.16511e-05
1.14762e-05
1.13112e-05
1.11651e-05
1.10055e-05
1.08627e-05
1.07289e-05
1.06094e-05
1.04912e-05
1.03833e-05
1.02766e-05
1.0176e-05
1.00788e-05
9.98132e-06
9.88987e-06
9.80139e-06
9.71651e-06
9.63369e-06
9.54958e-06
9.46775e-06
9.38987e-06
9.31298e-06
9.23833e-06
9.16016e-06
9.08352e-06
9.00687e-06
8.93572e-06
8.87009e-06
8.80613e-06
1.04526e-05
1.00043e-05
9.57923e-06
9.24975e-06
8.99373e-06
8.78723e-06
8.61467e-06
8.46212e-06
8.31162e-06
8.18483e-06
8.07286e-06
7.9737e-06
7.88338e-06
7.7813e-06
7.68549e-06
7.59443e-06
7.50855e-06
7.42753e-06
7.35114e-06
7.27865e-06
7.21008e-06
7.14525e-06
7.08525e-06
7.02654e-06
6.97017e-06
6.91596e-06
6.86279e-06
6.81045e-06
6.75815e-06
6.70354e-06
6.65237e-06
6.60354e-06
6.55536e-06
6.50775e-06
6.46012e-06
6.41082e-06
6.36302e-06
6.31908e-06
6.27988e-06
6.23432e-06
4.85512e-06
4.683e-06
4.52255e-06
4.40785e-06
4.32702e-06
4.26773e-06
4.21384e-06
4.16295e-06
4.11291e-06
4.07075e-06
4.03263e-06
3.99674e-06
3.96083e-06
3.92521e-06
3.88991e-06
3.85641e-06
3.82344e-06
3.79238e-06
3.76201e-06
3.7334e-06
3.70482e-06
3.6772e-06
3.65067e-06
3.62493e-06
3.60011e-06
3.57588e-06
3.55139e-06
3.52693e-06
3.50268e-06
3.47799e-06
3.45501e-06
3.43215e-06
3.40906e-06
3.38648e-06
3.36456e-06
3.34355e-06
3.32265e-06
3.30307e-06
3.28582e-06
3.2588e-06
1.04537e-05
1.00068e-05
9.58026e-06