/*--------------------------------*- C++ -*----------------------------------*\
| =========                 |                                                 |
| \\      /  F ield         | OpenFOAM: The Open Source CFD Toolbox           |
|  \\    /   O peration     | Version:  2212                                  |
|   \\  /    A nd           | Website:  www.openfoam.com                      |
|    \\/     M anipulation  |                                                 |
\*---------------------------------------------------------------------------*/
FoamFile
{
    version     2.0;
    format      ascii;
    arch        "LSB;label=32;scalar=64";
    class       volScalarField;
    location    "1.4";
    object      p;
}
// * * * * * * * * * * * * * * * * * * * * * * * * * * * * * * * * * * * * * //

dimensions      [0 2 -2 0 0 0 0];

internalField   nonuniform List<scalar> 
6840
(
0.0178291
0.0107147
0.0084233
0.00788548
0.00761114
0.00738896
0.00720239
0.00703604
0.00687501
0.00671576
0.00655842
0.00640289
0.00624827
0.00609357
0.00593889
0.00578485
0.00563211
0.00548015
0.00532387
0.00512505
0.0106504
0.0099165
0.00882362
0.00815765
0.00775507
0.00748136
0.00727021
0.00708402
0.00690965
0.00674237
0.0065797
0.0064199
0.00626144
0.00610337
0.00594551
0.00578831
0.00562996
0.00546398
0.00527328
0.00502086
0.0103021
0.00945055
0.00868629
0.00812716
0.00775099
0.00748294
0.00726723
0.00707422
0.00689565
0.00672687
0.00656294
0.00640159
0.00624215
0.0060841
0.00592645
0.00576747
0.00560497
0.00543572
0.00525771
0.00506374
0.00989277
0.00913004
0.00851127
0.00805994
0.00771594
0.00744686
0.00722714
0.00703816
0.00687003
0.00671212
0.00655566
0.00639909
0.00624291
0.00608736
0.00593219
0.00577692
0.00562113
0.00546496
0.00531064
0.00516032
0.00975854
0.00901736
0.00842918
0.00802104
0.00769906
0.00743227
0.00721062
0.00701976
0.00684864
0.00669135
0.0065405
0.00638905
0.00623595
0.00608266
0.00593021
0.00577911
0.00562968
0.00548248
0.00533859
0.00520079
0.00975855
0.00901737
0.0084292
0.00802107
0.0076991
0.00743234
0.00721073
0.00701996
0.00684897
0.00669189
0.00654138
0.0063905
0.00623834
0.00608654
0.00593637
0.00578865
0.00564426
0.00550384
0.00536568
0.00523199
0.0098928
0.00913007
0.00851131
0.00806
0.00771603
0.00744701
0.00722742
0.00703865
0.00687087
0.00671351
0.00655796
0.00640284
0.00624893
0.00609701
0.00594768
0.00580181
0.00566077
0.00552581
0.00539547
0.00526921
0.0103021
0.00945059
0.00868633
0.00812721
0.00775108
0.00748311
0.00726753
0.00707473
0.0068965
0.00672832
0.00656543
0.00640571
0.00624887
0.0060951
0.00594468
0.00579805
0.00565691
0.00552325
0.00539967
0.00529288
0.0106504
0.00991652
0.00882363
0.00815768
0.00775512
0.00748144
0.00727035
0.00708426
0.00691006
0.00674309
0.00658089
0.00642188
0.00626487
0.00610959
0.0059567
0.00580768
0.00566267
0.00552155
0.00538695
0.00526222
0.0178292
0.0107147
0.0084233
0.00788549
0.00761115
0.00738897
0.0072024
0.00703606
0.00687502
0.00671578
0.00655843
0.0064029
0.00624828
0.00609358
0.00593888
0.00578484
0.0056321
0.00548012
0.0053238
0.00512481
0.0106504
0.00991651
0.00882363
0.00815767
0.00775511
0.00748143
0.00727034
0.00708425
0.00691005
0.00674308
0.00658089
0.00642188
0.00626487
0.0061096
0.00595673
0.0058077
0.0056627
0.0055216
0.00538704
0.0052624
0.00993378
0.00990208
0.00917387
0.00846339
0.00801708
0.00770119
0.00744238
0.00721486
0.0070105
0.00682247
0.00664529
0.00647539
0.00631001
0.00614758
0.00598782
0.00583041
0.00567565
0.0055247
0.00538814
0.00529029
0.0090083
0.00913449
0.00883161
0.00841542
0.00804829
0.00772967
0.00745114
0.00721072
0.00699814
0.00680361
0.00662036
0.0064451
0.00627584
0.0061107
0.00594821
0.00578713
0.00562676
0.00546689
0.00530929
0.00516262
0.0085899
0.00863341
0.00846783
0.0082049
0.00792452
0.00765317
0.00740213
0.0071757
0.00697254
0.00678566
0.00660819
0.00643691
0.00627039
0.00610751
0.00594703
0.00578791
0.00562948
0.00547144
0.00531323
0.00515773
0.00837391
0.00839574
0.00826853
0.008051
0.00781855
0.00758936
0.00736649
0.00715325
0.00695234
0.00676478
0.00658798
0.00641846
0.00625455
0.00609486
0.00593792
0.00578335
0.00563142
0.00548233
0.00533646
0.00519359
0.00837393
0.00839576
0.00826856
0.00805107
0.00781865
0.0075895
0.0073667
0.00715355
0.00695277
0.00676549
0.00658924
0.00642059
0.00625792
0.00610012
0.00594603
0.00579517
0.00564818
0.00550659
0.00537107
0.00523717
0.00858995
0.00863347
0.00846792
0.00820502
0.00792468
0.00765339
0.00740247
0.00717621
0.00697338
0.0067873
0.00661126
0.006442
0.00627793
0.00611838
0.00596348
0.00581358
0.0056691
0.00553131
0.00540097
0.00527297
0.00900833
0.00913452
0.00883167
0.00841549
0.00804838
0.00772981
0.00745139
0.00721117
0.00699896
0.00680498
0.00662252
0.00644851
0.00628126
0.00611954
0.00596271
0.00581057
0.00566412
0.00552533
0.0053969
0.00528569
0.00993378
0.00990209
0.00917388
0.0084634
0.00801709
0.0077012
0.0074424
0.00721487
0.00701051
0.00682248
0.00664531
0.00647541
0.00631003
0.0061476
0.00598783
0.00583042
0.00567567
0.00552471
0.00538817
0.00529036
0.0106504
0.00991651
0.00882363
0.00815766
0.00775508
0.00748138
0.00727023
0.00708404
0.00690967
0.0067424
0.00657973
0.00641993
0.00626147
0.0061034
0.00594553
0.00578834
0.00562998
0.00546399
0.00527326
0.0050207
0.0103021
0.00945059
0.00868633
0.00812721
0.00775108
0.00748311
0.00726753
0.00707473
0.0068965
0.00672832
0.00656543
0.00640571
0.00624887
0.00609511
0.0059447
0.00579807
0.00565693
0.00552328
0.00539972
0.00529293
0.00900832
0.00913452
0.00883167
0.00841548
0.00804838
0.00772981
0.00745138
0.00721116
0.00699895
0.00680497
0.00662251
0.0064485
0.00628124
0.00611952
0.00596269
0.00581056
0.00566409
0.00552529
0.00539682
0.00528554
0.00843882
0.0085398
0.00842826
0.00820282
0.00794711
0.00768876
0.00743046
0.00718902
0.00697139
0.00677151
0.00658447
0.00640721
0.00623729
0.00607276
0.00591248
0.00575566
0.00560168
0.00545096
0.00530424
0.00515934
0.0080708
0.00813887
0.00808649
0.00793952
0.00775467
0.00754957
0.00733895
0.00713212
0.0069311
0.0067388
0.00655639
0.00638204
0.00621379
0.00605025
0.00589042
0.0057334
0.00557833
0.00542461
0.00527242
0.00511925
0.00788772
0.00795216
0.00792269
0.00779784
0.0076388
0.0074651
0.00727881
0.00709077
0.0069046
0.00672112
0.0065419
0.00636794
0.0061996
0.0060362
0.00587703
0.0057217
0.00556922
0.00541863
0.00526942
0.00511817
0.00788774
0.00795217
0.00792271
0.0077979
0.00763892
0.00746527
0.007279
0.00709102
0.00690495
0.00672167
0.00654275
0.00636919
0.00620137
0.0060387
0.00588076
0.00572714
0.00557646
0.00542834
0.00528288
0.00513381
0.00807084
0.00813891
0.00808655
0.00793963
0.00775482
0.00754976
0.00733919
0.00713245
0.0069316
0.00673963
0.00655777
0.00638419
0.00621696
0.00605488
0.00589725
0.005743
0.00559138
0.00544345
0.00529971
0.00515245
0.00843883
0.00853981
0.00842826
0.00820283
0.00794712
0.00768877
0.00743048
0.00718903
0.0069714
0.00677153
0.00658449
0.00640723
0.00623732
0.0060728
0.00591253
0.00575571
0.00560174
0.00545105
0.00530435
0.0051595
0.00900831
0.0091345
0.00883163
0.00841543
0.0080483
0.00772969
0.00745116
0.00721074
0.00699817
0.00680363
0.00662038
0.00644512
0.00627587
0.00611074
0.00594826
0.00578718
0.00562682
0.00546698
0.00530945
0.0051629
0.0103021
0.00945057
0.00868631
0.00812718
0.00775101
0.00748296
0.00726725
0.00707424
0.00689567
0.0067269
0.00656297
0.00640163
0.00624219
0.00608414
0.00592649
0.00576751
0.00560503
0.0054358
0.00525782
0.00506394
0.0098928
0.00913008
0.00851132
0.00806
0.00771603
0.00744702
0.00722742
0.00703866
0.00687087
0.00671351
0.00655796
0.00640284
0.00624894
0.00609701
0.00594769
0.00580182
0.00566078
0.00552581
0.00539546
0.00526919
0.00858996
0.00863347
0.00846792
0.00820502
0.00792468
0.00765339
0.00740247
0.00717621
0.00697338
0.0067873
0.00661126
0.006442
0.00627793
0.00611837
0.00596347
0.00581357
0.00566908
0.00553129
0.00540092
0.00527288
0.00807084
0.00813891
0.00808655
0.00793962
0.00775482
0.00754976
0.00733918
0.00713245
0.0069316
0.00673962
0.00655776
0.00638418
0.00621694
0.00605485
0.00589722
0.00574297
0.00559136
0.00544343
0.00529969
0.00515243
0.00777293
0.00783208
0.00782015
0.00772478
0.00758517
0.00741972
0.00723959
0.00705519
0.00687133
0.00669112
0.00651621
0.00634646
0.0061813
0.00602012
0.00586239
0.00570743
0.00555457
0.00540359
0.00525493
0.00510262
0.0076218
0.0076847
0.00768846
0.00761481
0.00749469
0.00734829
0.00718539
0.00701396
0.00683981
0.00666626
0.00649515
0.00632738
0.00616323
0.00600261
0.00584522
0.00569073
0.00553859
0.00538886
0.00524295
0.00509424
0.00762181
0.00768471
0.00768848
0.00761483
0.00749472
0.00734834
0.00718546
0.00701406
0.00683995
0.00666644
0.00649539
0.00632769
0.00616366
0.00600324
0.0058462
0.00569209
0.00554022
0.00539043
0.00524393
0.00509397
0.00777294
0.00783208
0.00782016
0.00772478
0.00758518
0.00741973
0.00723959
0.0070552
0.00687134
0.00669113
0.00651622
0.00634648
0.00618132
0.00602015
0.00586242
0.00570746
0.0055546
0.0054036
0.00525494
0.0051026
0.00807081
0.00813888
0.0080865
0.00793953
0.00775468
0.00754959
0.00733897
0.00713214
0.00693112
0.00673883
0.00655642
0.00638207
0.00621383
0.0060503
0.00589047
0.00573346
0.0055784
0.00542468
0.00527249
0.00511931
0.00858991
0.00863342
0.00846785
0.00820492
0.00792454
0.00765319
0.00740215
0.00717573
0.00697256
0.0067857
0.00660822
0.00643695
0.00627044
0.00610756
0.00594709
0.00578798
0.00562955
0.00547152
0.00531331
0.00515778
0.00989278
0.00913005
0.00851129
0.00805996
0.00771596
0.00744688
0.00722717
0.00703819
0.00687006
0.00671215
0.0065557
0.00639913
0.00624295
0.00608741
0.00593224
0.00577698
0.00562119
0.00546504
0.00531073
0.00516043
0.00975856
0.00901738
0.00842921
0.00802108
0.00769911
0.00743235
0.00721074
0.00701997
0.00684898
0.0066919
0.00654139
0.00639051
0.00623835
0.00608655
0.00593638
0.00578865
0.00564426
0.00550384
0.00536568
0.00523197
0.00837394
0.00839577
0.00826857
0.00805107
0.00781866
0.00758951
0.00736671
0.00715356
0.00695278
0.0067655
0.00658925
0.0064206
0.00625793
0.00610012
0.00594603
0.00579518
0.00564819
0.0055066
0.00537109
0.00523719
0.00788775
0.00795218
0.00792272
0.0077979
0.00763893
0.00746528
0.00727901
0.00709103
0.00690496
0.00672168
0.00654276
0.0063692
0.00620137
0.0060387
0.00588077
0.00572715
0.00557648
0.00542838
0.00528295
0.00513391
0.00762181
0.00768471
0.00768848
0.00761483
0.00749472
0.00734834
0.00718547
0.00701406
0.00683995
0.00666644
0.00649539
0.00632769
0.00616366
0.00600324
0.00584619
0.00569209
0.00554022
0.00539046
0.00524397
0.00509404
0.007479
0.00754852
0.00757064
0.0075181
0.00741685
0.00728591
0.00713599
0.006975
0.00680851
0.00664021
0.00647246
0.0063067
0.0061437
0.00598378
0.00582694
0.00567299
0.00552145
0.00537259
0.00522813
0.00508313
0.007479
0.00754852
0.00757064
0.0075181
0.00741685
0.00728591
0.00713599
0.00697501
0.00680852
0.00664021
0.00647246
0.00630671
0.00614371
0.00598378
0.00582695
0.005673
0.00552146
0.0053726
0.00522813
0.00508312
0.00762181
0.0076847
0.00768847
0.00761482
0.0074947
0.0073483
0.0071854
0.00701397
0.00683983
0.00666628
0.00649517
0.0063274
0.00616326
0.00600264
0.00584525
0.00569077
0.00553863
0.0053889
0.00524298
0.00509427
0.00788773
0.00795217
0.0079227
0.00779785
0.00763882
0.00746512
0.00727883
0.00709079
0.00690462
0.00672115
0.00654193
0.00636798
0.00619965
0.00603625
0.00587709
0.00572176
0.0055693
0.00541871
0.00526951
0.00511828
0.00837392
0.00839575
0.00826855
0.00805102
0.00781857
0.00758938
0.00736651
0.00715328
0.00695237
0.00676481
0.00658802
0.00641851
0.0062546
0.00609492
0.00593798
0.00578342
0.00563149
0.00548242
0.00533655
0.00519369
0.00975856
0.00901738
0.0084292
0.00802106
0.00769908
0.00743229
0.00721064
0.00701979
0.00684867
0.00669138
0.00654054
0.00638909
0.00623599
0.00608272
0.00593028
0.00577918
0.00562975
0.00548257
0.00533868
0.00520089
0.00975856
0.00901737
0.00842919
0.00802105
0.00769907
0.00743228
0.00721063
0.00701978
0.00684866
0.00669136
0.00654052
0.00638907
0.00623597
0.00608269
0.00593024
0.00577913
0.00562971
0.00548251
0.00533862
0.00520082
0.00837392
0.00839575
0.00826854
0.00805101
0.00781857
0.00758937
0.0073665
0.00715327
0.00695236
0.0067648
0.006588
0.00641849
0.00625458
0.00609489
0.00593795
0.00578338
0.00563145
0.00548238
0.00533652
0.00519366
0.00788773
0.00795217
0.0079227
0.00779785
0.00763882
0.00746512
0.00727882
0.00709079
0.00690461
0.00672114
0.00654192
0.00636796
0.00619963
0.00603623
0.00587706
0.00572173
0.00556926
0.00541868
0.00526948
0.00511825
0.00762181
0.0076847
0.00768847
0.00761482
0.0074947
0.0073483
0.0071854
0.00701397
0.00683982
0.00666627
0.00649517
0.00632739
0.00616325
0.00600263
0.00584524
0.00569075
0.00553862
0.00538888
0.00524298
0.00509427
0.007479
0.00754852
0.00757064
0.0075181
0.00741685
0.00728592
0.007136
0.00697501
0.00680852
0.00664021
0.00647247
0.00630671
0.00614371
0.00598379
0.00582695
0.005673
0.00552147
0.0053726
0.00522814
0.00508313
0.007479
0.00754852
0.00757064
0.0075181
0.00741685
0.00728592
0.007136
0.00697501
0.00680852
0.00664022
0.00647247
0.00630671
0.00614372
0.00598379
0.00582696
0.00567301
0.00552147
0.00537261
0.00522814
0.00508314
0.00762182
0.00768472
0.00768848
0.00761484
0.00749473
0.00734835
0.00718548
0.00701407
0.00683996
0.00666646
0.00649541
0.00632771
0.00616369
0.00600327
0.00584623
0.00569213
0.00554026
0.00539048
0.00524399
0.00509405
0.00788775
0.00795219
0.00792273
0.00779791
0.00763894
0.00746529
0.00727903
0.00709104
0.00690498
0.0067217
0.00654278
0.00636923
0.00620141
0.00603874
0.00588082
0.0057272
0.00557652
0.00542842
0.00528298
0.00513392
0.00837395
0.00839578
0.00826858
0.00805109
0.00781867
0.00758952
0.00736672
0.00715358
0.0069528
0.00676553
0.00658928
0.00642063
0.00625797
0.00610017
0.00594609
0.00579524
0.00564825
0.00550666
0.00537115
0.00523723
0.00975857
0.00901739
0.00842922
0.00802109
0.00769912
0.00743236
0.00721076
0.00701998
0.006849
0.00669192
0.00654142
0.00639055
0.00623839
0.0060866
0.00593644
0.00578872
0.00564434
0.00550394
0.0053658
0.00523213
0.00989278
0.00913005
0.00851129
0.00805995
0.00771596
0.00744688
0.00722717
0.00703819
0.00687006
0.00671215
0.00655569
0.00639912
0.00624295
0.00608741
0.00593224
0.00577697
0.00562118
0.00546502
0.00531071
0.00516041
0.00858991
0.00863342
0.00846785
0.00820492
0.00792454
0.00765319
0.00740215
0.00717573
0.00697256
0.00678569
0.00660822
0.00643695
0.00627043
0.00610755
0.00594708
0.00578797
0.00562954
0.00547151
0.00531332
0.00515784
0.00807082
0.00813888
0.0080865
0.00793954
0.00775469
0.00754959
0.00733898
0.00713214
0.00693112
0.00673883
0.00655642
0.00638207
0.00621382
0.00605029
0.00589046
0.00573345
0.00557839
0.00542468
0.0052725
0.00511934
0.00777294
0.00783209
0.00782016
0.00772479
0.00758519
0.00741974
0.0072396
0.00705521
0.00687135
0.00669114
0.00651623
0.00634649
0.00618133
0.00602015
0.00586242
0.00570747
0.00555461
0.00540363
0.00525498
0.00510267
0.00762182
0.00768472
0.00768849
0.00761484
0.00749473
0.00734835
0.00718548
0.00701407
0.00683996
0.00666646
0.00649541
0.00632771
0.00616368
0.00600326
0.00584622
0.00569212
0.00554025
0.00539048
0.00524399
0.00509407
0.00762181
0.00768471
0.00768847
0.00761482
0.0074947
0.00734831
0.00718541
0.00701398
0.00683983
0.00666628
0.00649518
0.0063274
0.00616326
0.00600264
0.00584525
0.00569077
0.00553864
0.00538891
0.00524301
0.00509431
0.00777294
0.00783209
0.00782016
0.00772479
0.00758519
0.00741974
0.00723961
0.00705521
0.00687135
0.00669115
0.00651624
0.00634649
0.00618134
0.00602017
0.00586244
0.00570748
0.00555463
0.00540365
0.005255
0.0051027
0.00807086
0.00813892
0.00808656
0.00793964
0.00775484
0.00754978
0.00733921
0.00713247
0.00693162
0.00673965
0.00655779
0.00638422
0.00621699
0.00605491
0.00589728
0.00574304
0.00559142
0.0054435
0.00529976
0.00515252
0.00858997
0.00863348
0.00846793
0.00820503
0.0079247
0.00765341
0.00740249
0.00717624
0.00697341
0.00678733
0.00661129
0.00644204
0.00627798
0.00611843
0.00596353
0.00581364
0.00566916
0.00553137
0.00540101
0.00527297
0.00989282
0.00913009
0.00851133
0.00806002
0.00771605
0.00744703
0.00722744
0.00703868
0.0068709
0.00671354
0.006558
0.00640288
0.00624898
0.00609706
0.00594775
0.00580189
0.00566086
0.00552592
0.0053956
0.00526938
0.0103021
0.00945057
0.00868631
0.00812718
0.00775102
0.00748296
0.00726725
0.00707425
0.00689568
0.0067269
0.00656298
0.00640163
0.0062422
0.00608415
0.00592651
0.00576753
0.00560504
0.0054358
0.0052578
0.00506384
0.00900831
0.0091345
0.00883163
0.00841544
0.00804831
0.00772969
0.00745117
0.00721074
0.00699817
0.00680364
0.00662039
0.00644514
0.00627589
0.00611075
0.00594826
0.0057872
0.00562684
0.00546697
0.00530939
0.00516273
0.00843884
0.00853982
0.00842827
0.00820284
0.00794713
0.00768878
0.00743049
0.00718904
0.00697142
0.00677154
0.0065845
0.00640725
0.00623733
0.00607281
0.00591254
0.00575572
0.00560174
0.00545104
0.00530432
0.00515943
0.00807086
0.00813892
0.00808656
0.00793964
0.00775484
0.00754978
0.00733921
0.00713247
0.00693162
0.00673965
0.00655779
0.00638421
0.00621698
0.00605489
0.00589726
0.00574302
0.0055914
0.00544348
0.00529974
0.00515248
0.00788775
0.00795219
0.00792273
0.00779792
0.00763894
0.00746529
0.00727903
0.00709104
0.00690498
0.0067217
0.00654278
0.00636922
0.0062014
0.00603873
0.0058808
0.00572718
0.00557651
0.00542841
0.00528298
0.00513395
0.00788774
0.00795217
0.00792271
0.00779785
0.00763882
0.00746513
0.00727883
0.0070908
0.00690463
0.00672115
0.00654193
0.00636797
0.00619964
0.00603625
0.00587708
0.00572175
0.0055693
0.00541874
0.00526956
0.00511839
0.00807082
0.00813888
0.0080865
0.00793954
0.00775469
0.0075496
0.00733898
0.00713214
0.00693113
0.00673884
0.00655642
0.00638208
0.00621383
0.0060503
0.00589048
0.00573347
0.00557841
0.00542471
0.00527255
0.00511944
0.00843884
0.00853982
0.00842827
0.00820284
0.00794713
0.00768878
0.00743049
0.00718904
0.00697142
0.00677155
0.0065845
0.00640725
0.00623734
0.00607282
0.00591255
0.00575573
0.00560175
0.00545106
0.00530436
0.00515951
0.00900834
0.00913454
0.00883168
0.0084155
0.0080484
0.00772983
0.00745141
0.00721119
0.00699898
0.006805
0.00662255
0.00644854
0.00628128
0.00611957
0.00596275
0.00581062
0.00566417
0.00552537
0.00539691
0.00528566
0.0103021
0.0094506
0.00868634
0.00812723
0.0077511
0.00748313
0.00726755
0.00707475
0.00689653
0.00672835
0.00656546
0.00640574
0.00624891
0.00609515
0.00594474
0.00579813
0.005657
0.00552336
0.00539982
0.00529307
0.0106504
0.00991652
0.00882364
0.00815767
0.00775509
0.00748139
0.00727024
0.00708405
0.00690968
0.00674241
0.00657974
0.00641995
0.00626149
0.00610343
0.00594557
0.00578838
0.00563003
0.00546405
0.00527337
0.00502095
0.00993379
0.0099021
0.00917389
0.00846341
0.0080171
0.00770121
0.00744241
0.00721489
0.00701053
0.0068225
0.00664533
0.00647543
0.00631006
0.00614764
0.00598788
0.00583048
0.00567573
0.00552478
0.00538824
0.00529041
0.00900834
0.00913454
0.00883169
0.0084155
0.0080484
0.00772983
0.00745141
0.00721119
0.00699898
0.006805
0.00662255
0.00644854
0.00628129
0.00611957
0.00596275
0.00581062
0.00566417
0.00552538
0.00539692
0.00528564
0.00858997
0.00863348
0.00846793
0.00820503
0.0079247
0.00765341
0.00740249
0.00717624
0.0069734
0.00678733
0.00661129
0.00644203
0.00627797
0.00611841
0.00596352
0.00581363
0.00566915
0.00553136
0.005401
0.00527295
0.00837395
0.00839578
0.00826858
0.00805109
0.00781868
0.00758952
0.00736672
0.00715358
0.0069528
0.00676552
0.00658927
0.00642062
0.00625796
0.00610016
0.00594607
0.00579522
0.00564824
0.00550665
0.00537114
0.00523723
0.00837393
0.00839576
0.00826855
0.00805102
0.00781857
0.00758938
0.00736652
0.00715328
0.00695237
0.00676481
0.00658801
0.0064185
0.00625459
0.00609491
0.00593797
0.0057834
0.00563148
0.00548241
0.00533656
0.00519373
0.00858991
0.00863342
0.00846785
0.00820492
0.00792454
0.00765319
0.00740216
0.00717573
0.00697257
0.0067857
0.00660822
0.00643695
0.00627043
0.00610755
0.00594708
0.00578796
0.00562953
0.0054715
0.00531331
0.00515782
0.00900831
0.0091345
0.00883163
0.00841543
0.00804831
0.00772969
0.00745117
0.00721075
0.00699818
0.00680364
0.00662039
0.00644513
0.00627588
0.00611075
0.00594826
0.00578719
0.00562682
0.00546695
0.00530937
0.00516272
0.00993379
0.00990209
0.00917389
0.00846341
0.00801709
0.00770121
0.00744241
0.00721489
0.00701053
0.0068225
0.00664533
0.00647543
0.00631005
0.00614762
0.00598786
0.00583046
0.00567571
0.00552475
0.00538819
0.00529032
0.0106504
0.00991653
0.00882365
0.00815769
0.00775513
0.00748145
0.00727037
0.00708428
0.00691008
0.00674312
0.00658092
0.00642191
0.00626491
0.00610963
0.00595675
0.00580774
0.00566275
0.00552166
0.0053871
0.00526244
0.0178292
0.0107147
0.00842332
0.0078855
0.00761116
0.00738899
0.00720242
0.00703607
0.00687504
0.0067158
0.00655846
0.00640293
0.00624831
0.00609362
0.00593894
0.00578491
0.00563218
0.00548022
0.00532395
0.00512515
0.0106504
0.00991653
0.00882365
0.00815769
0.00775513
0.00748146
0.00727037
0.00708428
0.00691009
0.00674312
0.00658092
0.00642192
0.00626491
0.00610965
0.00595678
0.00580776
0.00566277
0.00552168
0.00538714
0.00526252
0.0103021
0.00945061
0.00868635
0.00812723
0.0077511
0.00748313
0.00726755
0.00707475
0.00689653
0.00672835
0.00656546
0.00640574
0.00624891
0.00609516
0.00594475
0.00579813
0.005657
0.00552337
0.00539983
0.00529309
0.00989282
0.00913009
0.00851133
0.00806002
0.00771605
0.00744704
0.00722744
0.00703868
0.0068709
0.00671354
0.00655799
0.00640287
0.00624897
0.00609705
0.00594774
0.00580187
0.00566084
0.0055259
0.00539558
0.00526936
0.00975857
0.00901739
0.00842922
0.0080211
0.00769913
0.00743236
0.00721076
0.00701998
0.006849
0.00669192
0.00654141
0.00639054
0.00623838
0.00608658
0.00593641
0.0057887
0.00564431
0.00550391
0.00536576
0.00523209
0.00975856
0.00901738
0.0084292
0.00802106
0.00769908
0.00743229
0.00721064
0.00701979
0.00684867
0.00669138
0.00654053
0.00638908
0.00623598
0.0060827
0.00593025
0.00577915
0.00562972
0.00548252
0.00533862
0.00520079
0.00989278
0.00913005
0.00851129
0.00805996
0.00771596
0.00744688
0.00722717
0.00703819
0.00687006
0.00671215
0.00655569
0.00639912
0.00624295
0.0060874
0.00593223
0.00577695
0.00562116
0.00546499
0.00531065
0.00516029
0.0103021
0.00945057
0.00868631
0.00812718
0.00775101
0.00748296
0.00726725
0.00707425
0.00689568
0.0067269
0.00656298
0.00640163
0.00624219
0.00608414
0.00592649
0.00576751
0.00560502
0.00543576
0.00525774
0.00506374
0.0106504
0.00991652
0.00882363
0.00815767
0.00775509
0.00748138
0.00727024
0.00708405
0.00690968
0.00674241
0.00657974
0.00641994
0.00626148
0.00610341
0.00594554
0.00578836
0.00563
0.00546402
0.0052733
0.0050208
0.0178292
0.0107147
0.00842331
0.0078855
0.00761116
0.00738898
0.00720241
0.00703607
0.00687504
0.00671579
0.00655845
0.00640292
0.0062483
0.0060936
0.00593891
0.00578488
0.00563216
0.00548019
0.0053239
0.00512502
0.00535768
0.00488445
0.00458956
0.00445717
0.0043372
0.00420179
0.00406492
0.00392994
0.00379415
0.00365827
0.00352355
0.00339077
0.00325871
0.00312721
0.00299656
0.00286671
0.00273811
0.00261077
0.00248552
0.00236124
0.0022386
0.00211679
0.00199645
0.00187752
0.00175867
0.00164092
0.00152432
0.00140862
0.00129498
0.00118171
0.00106636
0.00095159
0.000838853
0.000727742
0.000617583
0.000505902
0.000392493
0.000279085
0.000168508
5.22387e-05
0.00519724
0.0048689
0.00463437
0.00450189
0.00437213
0.00422993
0.00408756
0.00394741
0.00380693
0.00366688
0.00352832
0.00339234
0.00325739
0.00312317
0.00299034
0.0028589
0.00272939
0.0026016
0.00247595
0.00235153
0.0022288
0.00210743
0.00198802
0.00186996
0.0017515
0.00163364
0.00151688
0.00140117
0.0012875
0.00117433
0.00105946
0.000945254
0.000832977
0.000722281
0.000612296
0.000500918
0.000388161
0.000275826
0.00016574
5.1479e-05
0.00503189
0.0048616
0.00466997
0.00451351
0.00437323
0.00422993
0.00408466
0.00394066
0.00379844
0.00365795
0.00351896
0.00338221
0.00324628
0.00311172
0.00297934
0.0028488
0.00272014
0.00259299
0.0024677
0.0023433
0.00222052
0.00209905
0.00197934
0.00186096
0.00174265
0.00162518
0.00150865
0.00139321
0.00127963
0.00116695
0.00105316
0.000939982
0.000828213
0.000717386
0.000608104
0.000497983
0.000385533
0.000273596
0.000164367
5.06865e-05
0.0049908
0.00485162
0.00468213
0.00452598
0.00438051
0.00423624
0.00409192
0.00394875
0.00380718
0.00366715
0.00352861
0.00339202
0.00325701
0.0031234
0.00299124
0.00286079
0.00273198
0.00260446
0.00247849
0.00235342
0.00222961
0.00210661
0.00198428
0.00186314
0.00174338
0.00162519
0.00150849
0.00139298
0.00127906
0.00116648
0.00105277
0.000939275
0.000827023
0.000716266
0.00060758
0.000497996
0.00038575
0.00027387
0.000164774
5.04785e-05
0.00499896
0.004851
0.00468855
0.00452877
0.00437545
0.00422649
0.0040808
0.0039388
0.0037996
0.00366177
0.0035254
0.00339026
0.00325651
0.00312415
0.00299314
0.00286357
0.00273537
0.00260831
0.00248251
0.00235797
0.00223487
0.0021129
0.00199148
0.00187069
0.00175085
0.00163247
0.00151577
0.00140039
0.00128631
0.00117264
0.00105801
0.000943635
0.000830559
0.000719368
0.000610302
0.000500301
0.000387857
0.000275502
0.000165626
5.04834e-05
0.00503178
0.00486477
0.00469291
0.0045283
0.00437216
0.00422207
0.00407636
0.00393478
0.00379648
0.00365982
0.00352411
0.00338946
0.00325616
0.00312418
0.00299372
0.00286454
0.00273666
0.00261005
0.0024847
0.00236063
0.00223784
0.00211628
0.00199593
0.00187618
0.00175645
0.00163744
0.00151997
0.00140421
0.00129021
0.00117683
0.00106313
0.000949801
0.000837132
0.000725669
0.000615757
0.000504917
0.000392135
0.000278839
0.000167621
5.15812e-05
0.00508918
0.00490129
0.00470623
0.00453135
0.00437173
0.00421968
0.00407271
0.00393047
0.00379184
0.00365504
0.00351955
0.00338552
0.00325282
0.00312137
0.0029913
0.0028628
0.00273553
0.00260941
0.00248454
0.00236093
0.00223854
0.00211736
0.00199729
0.00187776
0.00175801
0.00163941
0.00152255
0.00140725
0.00129405
0.00118099
0.00106683
0.000953349
0.000840768
0.000729449
0.000620272
0.000510005
0.000397287
0.000283349
0.000170902
5.33835e-05
0.00517223
0.00495213
0.00471947
0.00452587
0.00435945
0.00420564
0.00405935
0.00391846
0.00378097
0.0036456
0.00351182
0.00337947
0.00324803
0.00311698
0.00298682
0.00285831
0.00273146
0.00260592
0.00248157
0.00235835
0.00223612
0.00211511
0.00199515
0.00187661
0.00175888
0.00164236
0.00152674
0.00141192
0.00129916
0.00118601
0.00107092
0.000956876
0.000844547
0.000733222
0.000623409
0.000513334
0.000400799
0.00028556
0.000171659
5.39976e-05
0.00527908
0.00497959
0.00468782
0.00448465
0.00432186
0.00417251
0.0040312
0.00389567
0.00376331
0.00363231
0.00350203
0.00337217
0.00324255
0.0031142
0.00298752
0.00286045
0.00273381
0.00260815
0.00248366
0.00236033
0.00223781
0.00211646
0.00199634
0.00187829
0.00176097
0.00164477
0.0015291
0.00141387
0.00130065
0.00118713
0.00107136
0.000956423
0.000843668
0.000732261
0.000622189
0.00051176
0.000398712
0.000283098
0.000169306
5.31311e-05
0.00537444
0.00493743
0.0045899
0.00442215
0.00429857
0.00416912
0.00403817
0.00390875
0.00377838
0.00364725
0.00351651
0.00338658
0.00325746
0.00312975
0.00300309
0.00287534
0.00274758
0.00262087
0.00249554
0.00237163
0.00224874
0.00212644
0.00200544
0.00188652
0.00176804
0.00165026
0.00153377
0.00141808
0.0013045
0.00119086
0.00107474
0.000959132
0.000845734
0.00073373
0.000623348
0.00051352
0.000400882
0.000285026
0.000170685
5.36866e-05
0.00535784
0.00488447
0.00458908
0.00445577
0.00433645
0.00420264
0.00406596
0.00393064
0.00379459
0.0036585
0.00352364
0.00339043
0.0032584
0.00312725
0.002997
0.00286719
0.00273838
0.00261107
0.00248539
0.00236125
0.00223833
0.00211633
0.00199624
0.00187788
0.00175942
0.00164141
0.00152485
0.00140905
0.00129531
0.00118193
0.00106643
0.000951505
0.000838624
0.000726972
0.000616938
0.000507449
0.000395413
0.000280527
0.000168546
5.20465e-05
0.00537422
0.00493719
0.0045902
0.0044236
0.00429943
0.00416832
0.00403715
0.00390803
0.0037779
0.00364697
0.00351633
0.00338677
0.00325761
0.00312966
0.00300248
0.00287468
0.00274711
0.00262038
0.00249551
0.00237147
0.00224891
0.00212673
0.00200549
0.00188598
0.00176712
0.00164959
0.00153314
0.0014176
0.00130415
0.00119065
0.00107471
0.00095931
0.000846168
0.000734986
0.000624516
0.000511958
0.000397529
0.000283137
0.000170346
5.36673e-05
0.00512709
0.00486955
0.00464896
0.00449055
0.00434779
0.00420777
0.00407147
0.00393706
0.00380288
0.00366879
0.00353494
0.00340244
0.00326976
0.00313772
0.00300673
0.00287696
0.00274852
0.00262148
0.00249653
0.00237203
0.00224942
0.00212751
0.00200669
0.00188723
0.00176788
0.00164981
0.00153261
0.00141646
0.00130275
0.00118938
0.00107342
0.0009578
0.000844259
0.000732481
0.000623037
0.000511763
0.000396941
0.000282422
0.000170712
5.40381e-05
0.00496961
0.00479504
0.00464218
0.0044886
0.0043424
0.00420181
0.00406291
0.0039251
0.00378908
0.00365414
0.00351978
0.00338584
0.0032531
0.00312181
0.00299169
0.00286269
0.00273469
0.00260838
0.00248351
0.00235924
0.00223575
0.00211354
0.0019925
0.00187259
0.00175376
0.00163611
0.00151951
0.00140363
0.00128894
0.00117523
0.00106086
0.000946649
0.00083315
0.000720581
0.000610484
0.000500491
0.000388247
0.000276219
0.000166925
5.27931e-05
0.00492671
0.00477901
0.00464062
0.00449394
0.00435028
0.00420974
0.00407042
0.00393259
0.00379619
0.00366069
0.00352616
0.00339228
0.00325998
0.00312885
0.00299836
0.00286881
0.00274037
0.00261339
0.00248751
0.00236301
0.0022393
0.00211653
0.0019951
0.00187485
0.00175562
0.00163719
0.00152002
0.00140355
0.00128778
0.00117268
0.00105792
0.000943589
0.000829875
0.000717297
0.000605872
0.000494754
0.000383882
0.000273505
0.000164464
5.24154e-05
0.00498785
0.00482269
0.00466586
0.00451539
0.00436861
0.00422419
0.00408164
0.0039411
0.0038024
0.00366541
0.00352998
0.00339589
0.00326314
0.0031316
0.00300118
0.00287188
0.00274375
0.00261682
0.00249093
0.00236628
0.00224249
0.00211944
0.00199764
0.00187715
0.00175791
0.00163991
0.00152282
0.0014063
0.00129024
0.00117439
0.00105927
0.000944876
0.0008314
0.000718471
0.000605317
0.000492419
0.000380957
0.000270789
0.000162174
5.20799e-05
0.0050031
0.00484112
0.00469072
0.00454069
0.00439097
0.00424368
0.00409884
0.00395577
0.00381443
0.0036753
0.00353827
0.00340291
0.00326892
0.00313631
0.00300507
0.00287511
0.00274642
0.00261902
0.00249286
0.00236797
0.0022442
0.00212132
0.00199948