/*--------------------------------*- C++ -*----------------------------------*\
| =========                 |                                                 |
| \\      /  F ield         | OpenFOAM: The Open Source CFD Toolbox           |
|  \\    /   O peration     | Version:  2212                                  |
|   \\  /    A nd           | Website:  www.openfoam.com                      |
|    \\/     M anipulation  |                                                 |
\*---------------------------------------------------------------------------*/
FoamFile
{
    version     2.0;
    format      ascii;
    arch        "LSB;label=32;scalar=64";
    class       surfaceScalarField;
    location    "1.4";
    object      phi;
}
// * * * * * * * * * * * * * * * * * * * * * * * * * * * * * * * * * * * * * //

dimensions      [0 3 -1 0 0 0 0];

oriented        oriented;

internalField   nonuniform List<scalar> 
19019
(
3.32249e-07
1.09683e-09
1.09685e-09
2.7919e-07
2.65297e-08
2.65295e-08
2.49217e-07
1.49867e-08
1.49864e-08
2.29253e-07
9.98255e-09
9.98204e-09
2.14832e-07
7.21116e-09
7.20965e-09
2.03194e-07
5.82012e-09
5.81783e-09
1.93763e-07
4.71792e-09
4.71299e-09
1.85989e-07
3.89118e-09
3.88219e-09
1.79331e-07
3.33724e-09
3.32137e-09
1.73486e-07
2.93622e-09
2.90841e-09
1.68288e-07
2.62221e-09
2.57607e-09
1.63622e-07
2.37103e-09
2.29418e-09
1.5939e-07
2.18185e-09
2.05059e-09
1.55509e-07
2.05904e-09
1.82247e-09
1.51948e-07
1.99195e-09
1.5688e-09
1.4872e-07
1.95286e-09
1.2755e-09
1.45872e-07
1.94614e-09
9.01734e-10
1.43632e-07
1.92152e-09
3.18393e-10
1.42197e-07
2.45636e-09
-1.02043e-09
-1.62945e-09
-8.03297e-09
6.3138e-07
3.58766e-09
7.40286e-09
6.14563e-07
2.26463e-08
2.07003e-08
5.86444e-07
2.43766e-08
1.87291e-08
5.61723e-07
1.8856e-08
1.58471e-08
5.39613e-07
1.55717e-08
1.37494e-08
5.20631e-07
1.35139e-08
1.12889e-08
5.04682e-07
1.19579e-08
8.7086e-09
4.90924e-07
1.08097e-08
6.83938e-09
4.78695e-07
9.964e-09
5.60241e-09
4.67601e-07
9.26567e-09
4.7642e-09
4.57409e-07
8.6606e-09
4.154e-09
4.47972e-07
8.12906e-09
3.67895e-09
4.39177e-07
7.66553e-09
3.31093e-09
4.30927e-07
7.27419e-09
3.03502e-09
4.23155e-07
6.95889e-09
2.80514e-09
4.15989e-07
6.67061e-09
2.44844e-09
4.09731e-07
6.31993e-09
1.88432e-09
4.05407e-07
5.47152e-09
7.74215e-10
4.05082e-07
4.18266e-09
-1.40028e-09
3.40026e-10
-1.02025e-08
8.90375e-07
2.85272e-09
6.33232e-09
8.82486e-07
1.34091e-08
1.71257e-08
8.70359e-07
1.78682e-08
1.86354e-08
8.55112e-07
1.69568e-08
1.71464e-08
8.39983e-07
1.5342e-08
1.5359e-08
8.25537e-07
1.4172e-08
1.37878e-08
8.11773e-07
1.33827e-08
1.23392e-08
7.98786e-07
1.26804e-08
1.1116e-08
7.86726e-07
1.18943e-08
1.01292e-08
7.75607e-07
1.10535e-08
9.33153e-09
7.65296e-07
1.02525e-08
8.71931e-09
7.55653e-07
9.51214e-09
8.25954e-09
7.46574e-07
8.84073e-09
7.90436e-09
7.38014e-07
8.22703e-09
7.60629e-09
7.30021e-07
7.6336e-09
7.31889e-09
7.22753e-07
6.97374e-09
6.96451e-09
7.1657e-07
6.10077e-09
6.40259e-09
7.11798e-07
4.80681e-09
5.43743e-09
7.08968e-07
3.02639e-09
3.98666e-09
-3.28114e-10
1.34791e-09
1.07432e-06
1.0649e-09
5.56886e-09
1.06824e-06
5.58691e-09
1.39001e-08
1.06138e-06
8.4647e-09
1.62614e-08
1.05339e-06
9.04087e-09
1.59077e-08
1.04511e-06
8.61911e-09
1.49994e-08
1.03723e-06
8.12195e-09
1.3929e-08
1.02986e-06
7.78817e-09
1.29707e-08
1.02288e-06
7.5559e-09
1.21047e-08
1.01607e-06
7.36965e-09
1.13288e-08
1.00938e-06
7.08451e-09
1.06649e-08
1.00283e-06
6.64438e-09
1.0153e-08
9.96434e-07
6.14562e-09
9.7633e-09
9.90166e-07
5.64916e-09
9.45903e-09
9.84026e-07
5.14947e-09
9.21776e-09
9.78029e-07
4.62852e-09
9.00236e-09
9.72198e-07
4.03536e-09
8.7692e-09
9.66575e-07
3.26628e-09
8.45734e-09
9.61155e-07
2.20801e-09
8.01931e-09
9.55936e-07
7.40602e-10
7.50477e-09
-9.42735e-10
7.45067e-09
1.16914e-06
-7.05692e-14
4.90653e-09
1.16312e-06
-3.59446e-13
1.16084e-08
1.15731e-06
-8.93305e-13
1.42753e-08
1.15202e-06
-1.64661e-12
1.43329e-08
1.14692e-06
-2.88172e-12
1.37282e-08
1.14208e-06
-5.14018e-12
1.29654e-08
1.13778e-06
-9.27413e-12
1.20946e-08
1.13405e-06
-1.60661e-11
1.12981e-08
1.13082e-06
-2.7568e-11
1.06333e-08
1.12779e-06
-4.65011e-11
1.01623e-08
1.12466e-06
-7.75045e-11
9.8511e-09
1.12131e-06
-1.28184e-10
9.61852e-09
1.11772e-06
-2.11259e-10
9.45723e-09
1.11384e-06
-3.4721e-10
9.3714e-09
1.10967e-06
-5.56112e-10
9.35427e-09
1.1052e-06
-8.78714e-10
9.38099e-09
1.10042e-06
-1.37835e-09
9.4315e-09
1.09526e-06
-2.13574e-09
9.49736e-09
1.08951e-06
-3.11559e-09
9.61274e-09
-4.6944e-09
1.0059e-08
1.16914e-06
-1.06507e-09
4.90655e-09
1.16312e-06
-5.58754e-09
1.16085e-08
1.15731e-06
-8.46587e-09
1.42753e-08
1.15202e-06
-9.04288e-09
1.43332e-08
1.14691e-06
-8.62306e-09
1.37296e-08
1.14207e-06
-8.12966e-09
1.29682e-08
1.13776e-06
-7.80246e-09
1.20989e-08
1.13402e-06
-7.58105e-09
1.13053e-08
1.13076e-06
-7.41432e-09
1.0646e-08
1.12769e-06
-7.15968e-09
1.0184e-08
1.12449e-06
-6.76755e-09
9.88687e-09
1.12103e-06
-6.34668e-09
9.6783e-09
1.11724e-06
-5.97972e-09
9.55872e-09
1.11306e-06
-5.70024e-09
9.53972e-09
1.10841e-06
-5.53589e-09
9.62293e-09
1.10326e-06
-5.53076e-09
9.81033e-09
1.0975e-06
-5.7283e-09
1.01064e-08
1.09106e-06
-6.21036e-09
1.05144e-08
1.08391e-06
-6.9121e-09
1.09469e-08
-8.79744e-09
1.10502e-08
1.07432e-06
-2.8527e-09
5.56885e-09
1.06824e-06
-1.3409e-08
1.39001e-08
1.06138e-06
-1.78681e-08
1.62619e-08
1.05338e-06
-1.69566e-08
1.59094e-08
1.0451e-06
-1.53423e-08
1.50028e-08
1.03721e-06
-1.41735e-08
1.39342e-08
1.02981e-06
-1.33858e-08
1.29784e-08
1.0228e-06
-1.26856e-08
1.21175e-08
1.01594e-06
-1.19043e-08
1.13504e-08
1.00915e-06
-1.10708e-08
1.0702e-08
1.00244e-06
-1.0281e-08
1.0218e-08
9.95783e-07
-9.56099e-09
9.87452e-09
9.89085e-07
-8.93037e-09
9.64882e-09
9.82248e-07
-8.39924e-09
9.53632e-09
9.7514e-07
-7.96801e-09
9.54005e-09
9.6757e-07
-7.64029e-09
9.67886e-09
9.593e-07
-7.45848e-09
1.00005e-08
9.50056e-07
-7.51946e-09
1.05528e-08
9.39896e-07
-7.98608e-09
1.12334e-08
-9.79126e-09
1.1171e-08
8.90375e-07
-3.58761e-09
6.33238e-09
8.82485e-07
-2.26459e-08
1.71261e-08
8.70356e-07
-2.43761e-08
1.86367e-08
8.55106e-07
-1.88552e-08
1.71486e-08
8.39971e-07
-1.55696e-08
1.53622e-08
8.25516e-07
-1.35104e-08
1.3792e-08
8.11736e-07
-1.19517e-08
1.23461e-08
7.98722e-07
-1.07996e-08
1.11283e-08
7.86615e-07
-9.94678e-09
1.01491e-08
7.75416e-07
-9.23567e-09
9.36404e-09
7.64969e-07
-8.60831e-09
8.77365e-09
7.55099e-07
-8.04403e-09
8.35366e-09
7.45636e-07
-7.53542e-09
8.06809e-09
7.36429e-07
-7.07742e-09
7.8851e-09
7.27327e-07
-6.66185e-09
7.79595e-09
7.18075e-07
-6.22235e-09
7.83388e-09
7.08317e-07
-5.74928e-09
8.04888e-09
6.97494e-07
-5.21597e-09
8.51879e-09
6.84906e-07
-4.56278e-09
9.16463e-09
-4.91089e-09
9.48141e-09
6.3138e-07
-1.09687e-09
7.40292e-09
6.14563e-07
-2.65295e-08
2.07006e-08
5.86443e-07
-1.49864e-08
1.87298e-08
5.61722e-07
-9.98208e-09
1.58485e-08
5.39611e-07
-7.20971e-09
1.37512e-08
5.20626e-07
-5.81791e-09
1.12925e-08
5.04673e-07
-4.71308e-09
8.71436e-09
4.90906e-07
-3.8823e-09
6.84888e-09
4.78663e-07
-3.32151e-09
5.61855e-09
4.67543e-07
-2.90859e-09
4.7923e-09
4.57302e-07
-2.57628e-09
4.20943e-09
4.47776e-07
-2.29443e-09
3.77644e-09
4.38825e-07
-2.05076e-09
3.46583e-09
4.30319e-07
-1.82281e-09
3.25158e-09
4.22113e-07
-1.56936e-09
3.11403e-09
4.14146e-07
-1.27598e-09
3.02027e-09
4.06293e-07
-9.02205e-10
3.0055e-09
3.98345e-07
-3.18733e-10
3.05127e-09
3.90292e-07
1.02089e-09
2.46909e-09
8.03499e-09
1.72262e-09
3.32249e-07
1.09682e-09
2.7919e-07
2.65297e-08
2.49217e-07
1.49866e-08
2.29253e-07
9.98253e-09
2.14832e-07
7.21112e-09
2.03194e-07
5.82008e-09
1.93763e-07
4.71786e-09
1.85989e-07
3.8911e-09
1.79331e-07
3.33713e-09
1.73486e-07
2.93609e-09
1.68288e-07
2.62207e-09
1.63622e-07
2.37087e-09
1.5939e-07
2.18153e-09
1.55509e-07
2.05861e-09
1.51948e-07
1.99145e-09
1.4872e-07
1.95211e-09
1.45872e-07
1.94516e-09
1.43634e-07
1.92009e-09
1.42201e-07
2.45382e-09
-1.63102e-09
6.3138e-07
7.40292e-09
3.58759e-09
6.14563e-07
2.07007e-08
2.26459e-08
5.86443e-07
1.87298e-08
2.43761e-08
5.61722e-07
1.58485e-08
1.88551e-08
5.39611e-07
1.37512e-08
1.55695e-08
5.20626e-07
1.12925e-08
1.35103e-08
5.04673e-07
8.71437e-09
1.19516e-08
4.90906e-07
6.8489e-09
1.07994e-08
4.78663e-07
5.61858e-09
9.9466e-09
4.67543e-07
4.79234e-09
9.23544e-09
4.57302e-07
4.20946e-09
8.60803e-09
4.47776e-07
3.7765e-09
8.04371e-09
4.38825e-07
3.46616e-09
7.53498e-09
4.30319e-07
3.25174e-09
7.07713e-09
4.22112e-07
3.11396e-09
6.66174e-09
4.14145e-07
3.02057e-09
6.22211e-09
4.06291e-07
3.00618e-09
5.74908e-09
3.98341e-07
3.0527e-09
5.21623e-09
3.90284e-07
2.47188e-09
4.56442e-09
1.7246e-09
4.91391e-09
9.23616e-07
7.03402e-09
7.03391e-09
9.25317e-07
1.98505e-08
1.985e-08
9.17181e-07
2.27979e-08
2.27971e-08
9.04269e-07
2.23045e-08
2.23028e-08
8.90524e-07
2.06244e-08
2.06216e-08
8.77392e-07
1.78593e-08
1.78538e-08
8.6541e-07
1.47068e-08
1.46978e-08
8.54712e-07
1.22005e-08
1.21862e-08
8.45238e-07
1.036e-08
1.03349e-08
8.36837e-07
9.00083e-09
8.95624e-09
8.29317e-07
7.98084e-09
7.90333e-09
8.22477e-07
7.2119e-09
7.08272e-09
8.16184e-07
6.63915e-09
6.43113e-09
8.10386e-07
6.20711e-09
5.87753e-09
8.05067e-07
5.88231e-09
5.356e-09
8.00125e-07
5.63067e-09
4.7802e-09
7.95462e-07
5.44386e-09
4.10971e-09
7.90717e-07
5.31341e-09
3.25879e-09
7.8508e-07
4.88149e-09
1.82716e-09
3.32582e-09
-1.04088e-09
1.1589e-06
5.28159e-09
6.10257e-09
1.1657e-06
1.39995e-08
1.61828e-08
1.16844e-06
1.79794e-08
2.07062e-08
1.16661e-06
1.91812e-08
2.21042e-08
1.16221e-06
1.88796e-08
2.15045e-08
1.15654e-06
1.75509e-08
1.97681e-08
1.15047e-06
1.56935e-08
1.74225e-08
1.14456e-06
1.38983e-08
1.53246e-08
1.13912e-06
1.23041e-08
1.3621e-08
1.13428e-06
1.09165e-08
1.22545e-08
1.13005e-06
9.77536e-09
1.11641e-08
1.12637e-06
8.85134e-09
1.02964e-08
1.12322e-06
8.09608e-09
9.59217e-09
1.12058e-06
7.46723e-09
8.98869e-09
1.11843e-06
6.91496e-09
8.43338e-09
1.11677e-06
6.39621e-09
7.86606e-09
1.11556e-06
5.85712e-09
7.19562e-09
1.11471e-06
5.25236e-09
6.35062e-09
1.11388e-06
4.46562e-09
5.22699e-09
3.1863e-09
3.96015e-09
1.32763e-06
2.71838e-09
4.93107e-09
1.33539e-06
7.12133e-09
1.30089e-08
1.34287e-06
9.55429e-09
1.72156e-08
1.34848e-06
1.05791e-08
1.88986e-08
1.35198e-06
1.08766e-08
1.94996e-08
1.35376e-06
1.05824e-08
1.91127e-08
1.35444e-06
9.89428e-09
1.8097e-08
1.35458e-06
9.04949e-09
1.68056e-08
1.35456e-06
8.19834e-09
1.54551e-08
1.35453e-06
7.39793e-09
1.42183e-08
1.35455e-06
6.68267e-09
1.32209e-08
1.35469e-06
6.04706e-09
1.24267e-08
1.35498e-06
5.48005e-09
1.17881e-08
1.35544e-06
4.96462e-09
1.12651e-08
1.35609e-06
4.44841e-09
1.08163e-08
1.35697e-06
3.89239e-09
1.03966e-08
1.35807e-06
3.24638e-09
9.96075e-09
1.35942e-06
2.45953e-09
9.46974e-09
1.361e-06
1.46499e-09
8.92144e-09
2.62382e-10
8.60315e-09
1.41518e-06
-1.57389e-13
4.19285e-09
1.42279e-06
-4.62116e-13
1.11159e-08
1.43152e-06
-8.00129e-13
1.50985e-08
1.43981e-06
-1.52211e-12
1.66289e-08
1.44714e-06
-2.91628e-12
1.7274e-08
1.45319e-06
-5.19892e-12
1.7507e-08
1.45804e-06
-8.61462e-12
1.71485e-08
1.46197e-06
-1.4113e-11
1.64294e-08
1.46529e-06
-2.38284e-11
1.5537e-08
1.46824e-06
-4.20621e-11
1.46457e-08
1.47103e-06
-7.34775e-11
1.3817e-08
1.47373e-06
-1.23136e-10
1.30889e-08
1.47634e-06
-1.97191e-10
1.25313e-08
1.47883e-06
-3.08886e-10
1.21522e-08
1.48122e-06
-4.83504e-10
1.1899e-08
1.48352e-06
-7.50275e-10
1.17225e-08
1.48574e-06
-1.14567e-09
1.16049e-08
1.48786e-06
-1.71548e-09
1.15527e-08
1.48984e-06
-2.47477e-09
1.15696e-08
-3.27651e-09
1.17264e-08
1.41518e-06
-2.71857e-09
4.19294e-09
1.42279e-06
-7.12183e-09
1.11161e-08
1.43152e-06
-9.55521e-09
1.50988e-08
1.4398e-06
-1.05809e-08
1.66299e-08
1.44713e-06
-1.08802e-08
1.72763e-08
1.45317e-06
-1.05885e-08
1.7511e-08
1.45801e-06
-9.90479e-09
1.71549e-08
1.46193e-06
-9.0671e-09
1.64394e-08
1.46523e-06
-8.22834e-09
1.5552e-08
1.46816e-06
-7.45468e-09
1.46703e-08
1.4709e-06
-6.78514e-09
1.38591e-08
1.47351e-06
-6.21651e-09
1.31623e-08
1.47595e-06
-5.7414e-09
1.26571e-08
1.47819e-06
-5.36187e-09
1.23602e-08
1.48018e-06
-5.08344e-09
1.22277e-08
1.48194e-06
-4.92047e-09
1.22164e-08
1.48346e-06
-4.88865e-09
1.23319e-08
1.48468e-06
-5.03712e-09
1.26223e-08
1.48545e-06
-5.32662e-09
1.30278e-08
-5.43791e-09
1.31651e-08
1.32762e-06
-5.2815e-09
4.93125e-09
1.33539e-06
-1.39993e-08
1.30094e-08
1.34286e-06
-1.79792e-08
1.72169e-08
1.34847e-06
-1.91809e-08
1.89018e-08
1.35197e-06
-1.8879e-08
1.95055e-08
1.35374e-06
-1.75495e-08
1.91219e-08
1.35439e-06
-1.56921e-08
1.81112e-08
1.35451e-06
-1.38979e-08
1.6828e-08
1.35445e-06
-1.23028e-08
1.54893e-08
1.35434e-06
-1.09135e-08
1.42745e-08
1.35422e-06
-9.76941e-09
1.33184e-08
1.35412e-06
-8.83713e-09
1.25905e-08
1.35405e-06
-8.07037e-09
1.20559e-08
1.35395e-06
-7.42796e-09
1.1698e-08
1.35376e-06
-6.87333e-09
1.15156e-08
1.35338e-06
-6.39056e-09
1.15285e-08
1.3527e-06
-5.97452e-09
1.17715e-08
1.35164e-06
-5.6452e-09
1.22197e-08
1.35003e-06
-5.25405e-09
1.27668e-08
-4.42086e-09
1.27118e-08
1.1589e-06
-7.03391e-09
6.1028e-09
1.16569e-06
-1.985e-08
1.61838e-08
1.16844e-06
-2.27971e-08
2.07084e-08
1.1666e-06
-2.23028e-08
2.21077e-08
1.1622e-06
-2.06216e-08
2.15097e-08
1.15652e-06
-1.7854e-08
1.97754e-08
1.15044e-06
-1.4698e-08
1.74346e-08
1.14451e-06
-1.21864e-08
1.53457e-08
1.13903e-06
-1.03351e-08
1.36573e-08
1.13412e-06
-8.95655e-09
1.2315e-08
1.12977e-06
-7.9037e-09
1.12644e-08
1.12591e-06
-7.08311e-09
1.04612e-08
1.12247e-06
-6.43125e-09
9.86313e-09
1.11937e-06
-5.87823e-09
9.43357e-09
1.11649e-06
-5.35733e-09
9.15964e-09
1.11365e-06
-4.78122e-09
9.06508e-09
1.11066e-06
-4.11058e-09
9.18168e-09
1.10726e-06
-3.25968e-09
9.53397e-09
1.1031e-06
-1.82922e-09
9.89759e-09
1.03393e-09
9.59414e-09
9.23616e-07
-7.40286e-09
7.03402e-09
9.25317e-07
-2.07003e-08
1.98504e-08
9.17181e-07
-1.87292e-08
2.27979e-08
9.04269e-07
-1.58472e-08
2.23044e-08
8.90524e-07
-1.37495e-08
2.06243e-08
8.77392e-07
-1.12889e-08
1.78592e-08
8.6541e-07
-8.70869e-09
1.47067e-08
8.54712e-07
-6.83948e-09
1.22004e-08
8.45238e-07
-5.60253e-09
1.03599e-08
8.36837e-07
-4.76434e-09
9.00068e-09
8.29316e-07
-4.15419e-09
7.98066e-09
8.22477e-07
-3.67914e-09
7.21165e-09
8.16184e-07
-3.31088e-09
6.63852e-09
8.10386e-07
-3.03501e-09
6.20668e-09
8.05066e-07
-2.80545e-09
5.8821e-09
8.00124e-07
-2.44871e-09
5.62997e-09
7.9546e-07
-1.88441e-09
5.4428e-09
7.90714e-07
-7.73734e-10
5.31175e-09
7.85073e-07
1.40225e-09
4.87899e-09
1.02e-08
3.32287e-09
6.3138e-07
3.58765e-09
6.14563e-07
2.26463e-08
5.86444e-07
2.43766e-08
5.61723e-07
1.8856e-08
5.39613e-07
1.55716e-08
5.20631e-07
1.35138e-08
5.04682e-07
1.19578e-08
4.90924e-07
1.08096e-08
4.78695e-07
9.96385e-09
4.67601e-07
9.26548e-09
4.57408e-07
8.66039e-09
4.47971e-07
8.12883e-09
4.39176e-07
7.66535e-09
4.30926e-07
7.27359e-09
4.23155e-07
6.95776e-09
4.15989e-07
6.66938e-09
4.09731e-07
6.31842e-09
4.05409e-07
5.46887e-09
4.05088e-07
4.17658e-09
3.31238e-10
8.90375e-07
6.33238e-09
2.85269e-09
8.82485e-07
1.71261e-08
1.3409e-08
8.70356e-07
1.86368e-08
1.78681e-08
8.55106e-07
1.71486e-08
1.69566e-08
8.39971e-07
1.53622e-08
1.53423e-08
8.25516e-07
1.3792e-08
1.41734e-08
8.11736e-07
1.23461e-08
1.33857e-08
7.98721e-07
1.11283e-08
1.26855e-08
7.86615e-07
1.01492e-08
1.19041e-08
7.75416e-07
9.36411e-09
1.10705e-08
7.64969e-07
8.77374e-09
1.02806e-08
7.55099e-07
8.35381e-09
9.56051e-09
7.45635e-07
8.06829e-09
8.92978e-09
7.36428e-07
7.88537e-09
8.39869e-09
7.27326e-07
7.79648e-09
7.96754e-09
7.18074e-07
7.83472e-09
7.63968e-09
7.08315e-07
8.05014e-09
7.45778e-09
6.97491e-07
8.52068e-09
7.51914e-09
6.84901e-07
9.16744e-09
7.98665e-09
9.48482e-09
9.79232e-09
1.1589e-06
6.1028e-09
5.28149e-09
1.16569e-06
1.61838e-08
1.39993e-08
1.16844e-06
2.07084e-08
1.79791e-08
1.1666e-06
2.21077e-08
1.91808e-08
1.1622e-06
2.15097e-08
1.88788e-08
1.15652e-06
1.97755e-08
1.75494e-08
1.15044e-06
1.74346e-08
1.56919e-08
1.14451e-06
1.53458e-08
1.38976e-08
1.13903e-06
1.36575e-08
1.23025e-08
1.13412e-06
1.23152e-08
1.09131e-08
1.12977e-06
1.12646e-08
9.76889e-09
1.12591e-06
1.04616e-08
8.83656e-09
1.12247e-06
9.8637e-09
8.06974e-09
1.11937e-06
9.43393e-09
7.4268e-09
1.11649e-06
9.15996e-09
6.87175e-09
1.11365e-06
9.06586e-09
6.389e-09
1.11066e-06
9.18278e-09
5.97282e-09
1.10726e-06
9.53498e-09
5.64289e-09
1.10311e-06
9.89785e-09
5.25043e-09
9.59248e-09
4.41448e-09
1.37712e-06
4.57763e-09
4.57739e-09
1.38565e-06
1.1918e-08
1.19174e-08
1.39417e-06
1.64488e-08
1.64474e-08
1.40126e-06
1.85635e-08
1.85613e-08
1.40641e-06
1.89343e-08
1.89306e-08
1.4095e-06
1.82278e-08
1.82221e-08
1.41092e-06
1.67251e-08
1.67158e-08
1.41149e-06
1.50573e-08
1.50427e-08
1.41174e-06
1.35224e-08
1.34986e-08
1.41195e-06
1.21988e-08
1.21608e-08
1.41228e-06
1.10813e-08
1.10204e-08
1.41282e-06
1.01586e-08
1.00604e-08
1.41361e-06
9.41091e-09
9.25173e-09
1.41466e-06
8.81536e-09
8.55865e-09
1.41595e-06
8.35483e-09
7.95077e-09
1.41745e-06
8.02687e-09
7.40664e-09
1.41911e-06
7.82569e-09
6.88873e-09
1.42091e-06
7.73189e-09
6.35593e-09
1.42268e-06
7.61043e-09
5.73802e-09
7.20301e-09
5.03267e-09
1.53312e-06
2.36626e-09
3.64928e-09
1.54218e-06
6.23947e-09
9.63381e-09
1.55328e-06
8.87451e-09
1.36917e-08
1.56445e-06
1.03491e-08
1.59366e-08
1.57507e-06
1.09031e-08
1.69116e-08
1.58471e-06
1.07601e-08
1.69451e-08
1.593e-06
1.01519e-08
1.63761e-08
1.60007e-06
9.34451e-09
1.5445e-08
1.60623e-06
8.48069e-09
1.43431e-08
1.61173e-06
7.67023e-09
1.32487e-08
1.61681e-06
6.9601e-09
1.22555e-08
1.62166e-06
6.35278e-09
1.13895e-08
1.62637e-06
5.83193e-09
1.06494e-08
1.63105e-06
5.38227e-09
1.00182e-08
1.63576e-06
4.98294e-09
9.47685e-09
1.64056e-06
4.62452e-09
9.00048e-09
1.6455e-06
4.28652e-09
8.562e-09
1.65063e-06
3.94926e-09
8.1202e-09
1.65594e-06
3.56811e-09
7.65255e-09
3.09317e-09
7.26831e-09
1.61424e-06
-1.19093e-13
3.09276e-09
1.62332e-06
-2.89022e-13
8.27385e-09
1.63534e-06
-5.15464e-13
1.19568e-08
1.6482e-06
-9.35579e-13
1.41139e-08
1.66118e-06
-1.69962e-12
1.51991e-08
1.67387e-06
-2.80162e-12
1.55808e-08
1.68575e-06
-4.64685e-12
1.54263e-08
1.69658e-06
-7.43201e-12
1.49527e-08
1.70633e-06
-1.23581e-11
1.42758e-08
1.71517e-06
-2.10611e-11
1.34964e-08
1.72328e-06
-3.52636e-11
1.27027e-08
1.73082e-06
-5.66659e-11
1.19598e-08
1.73796e-06
-8.70258e-11
1.13121e-08
1.74485e-06
-1.31043e-10
1.07776e-08
1.75158e-06
-2.00309e-10
1.03519e-08
1.7582e-06
-3.0433e-10
1.00278e-08
1.76477e-06
-4.57694e-10
9.78108e-09
1.77135e-06
-6.66198e-10
9.58605e-09
1.77801e-06
-9.25328e-10
9.39866e-09
-1.20578e-09
9.25555e-09
1.61424e-06
-2.36635e-09
3.09288e-09
1.62332e-06
-6.23966e-09
8.27421e-09
1.63534e-06
-8.87485e-09
1.19576e-08
1.6482e-06
-1.03498e-08
1.41154e-08
1.66118e-06
-1.09039e-08
1.52019e-08
1.67386e-06
-1.07613e-08
1.55852e-08
1.68573e-06
-1.01541e-08
1.54326e-08
1.69655e-06
-9.34837e-09
1.49619e-08
1.70629e-06
-8.48737e-09
1.42898e-08
1.7151e-06
-7.68355e-09
1.35187e-08
1.72317e-06
-6.98527e-09
1.27389e-08
1.73065e-06
-6.39498e-09
1.20188e-08
1.73771e-06
-5.8956e-09
1.14074e-08
1.74449e-06
-5.47444e-09
1.09289e-08
1.75105e-06
-5.12393e-09
1.05877e-08
1.75743e-06
-4.84454e-09
1.03788e-08
1.76366e-06
-4.63771e-09
1.0283e-08
1.76982e-06
-4.49232e-09
1.02872e-08
1.77597e-06
-4.37464e-09
1.03198e-08
-4.21497e-09
1.02662e-08
1.53312e-06
-4.57741e-09
3.64958e-09
1.54218e-06
-1.19174e-08
9.63468e-09
1.55327e-06
-1.64475e-08
1.36934e-08
1.56445e-06
-1.85614e-08
1.59397e-08
1.57506e-06
-1.89308e-08
1.69168e-08
1.58469e-06
-1.82223e-08
1.69534e-08
1.59298e-06
-1.67161e-08
1.63886e-08
1.60003e-06
-1.50431e-08
1.54651e-08
1.60616e-06
-1.34991e-08
1.4374e-08
1.61162e-06
-1.21613e-08
1.32967e-08
1.61664e-06
-1.1021e-08
1.2332e-08
1.62138e-06
-1.00611e-08
1.15128e-08
1.62595e-06
-9.25269e-09
1.0849e-08
1.63039e-06
-8.56005e-09
1.03396e-08
1.63475e-06
-7.95263e-09
9.9812e-09
1.63908e-06
-7.40889e-09
9.76961e-09
1.6434e-06
-6.89155e-09
9.70518e-09
1.64772e-06
-6.3596e-09
9.76367e-09
1.65201e-06
-5.74264e-09
9.84747e-09
-5.03807e-09
9.72745e-09
1.37712e-06
-6.10257e-09
4.57762e-09
1.38565e-06
-1.61828e-08
1.1918e-08
1.39417e-06
-2.07063e-08
1.64487e-08
1.40126e-06
-2.21043e-08
1.85635e-08
1.40641e-06
-2.15046e-08
1.89342e-08
1.4095e-06
-1.97683e-08
1.82277e-08
1.41092e-06
-1.74227e-08
1.6725e-08
1.41149e-06
-1.53248e-08
1.50571e-08
1.41174e-06
-1.36213e-08
1.35222e-08
1.41195e-06
-1.22549e-08
1.21985e-08
1.41228e-06
-1.11646e-08
1.1081e-08
1.41282e-06
-1.0297e-08
1.01582e-08
1.41361e-06
-9.5928e-09
9.41038e-09
1.41466e-06
-8.98961e-09
8.81488e-09
1.41595e-06
-8.43464e-09
8.35439e-09
1.41744e-06
-7.86761e-09
8.02628e-09
1.41911e-06
-7.19766e-09
7.82505e-09
1.4209e-06
-6.35327e-09
7.73136e-09
1.42268e-06
-5.22982e-09
7.61004e-09
-3.96043e-09
7.20284e-09
1.1589e-06
-6.33232e-09
5.28158e-09
1.1657e-06
-1.71257e-08
1.39995e-08
1.16844e-06
-1.86354e-08
1.79794e-08
1.16661e-06
-1.71464e-08
1.91812e-08
1.16221e-06
-1.53591e-08
1.88795e-08
1.15654e-06
-1.37879e-08
1.75508e-08
1.15047e-06
-1.23393e-08
1.56934e-08
1.14456e-06
-1.11161e-08
1.38982e-08
1.13912e-06
-1.01293e-08
1.23039e-08
1.13428e-06
-9.33172e-09
1.09162e-08
1.13004e-06
-8.71955e-09
9.77509e-09
1.12637e-06
-8.25986e-09
8.85101e-09
1.12322e-06
-7.90478e-09
8.0956e-09
1.12058e-06
-7.60659e-09
7.46671e-09
1.11843e-06
-7.31902e-09
6.91444e-09
1.11676e-06
-6.96485e-09
6.39561e-09
1.11556e-06
-6.40321e-09
5.85659e-09
1.1147e-06
-5.43816e-09
5.25211e-09
1.11387e-06
-3.98648e-09
4.46546e-09
-1.3451e-09
3.18416e-09
8.90375e-07
2.85272e-09
8.82486e-07
1.3409e-08
8.70359e-07
1.78682e-08
8.55112e-07
1.69567e-08
8.39982e-07
1.53419e-08
8.25536e-07
1.41719e-08
8.11772e-07
1.33825e-08
7.98786e-07
1.26802e-08
7.86726e-07
1.18941e-08
7.75606e-07
1.10532e-08
7.65295e-07
1.02522e-08
7.55652e-07
9.5118e-09
7.46572e-07
8.84035e-09
7.38013e-07
8.22641e-09
7.30019e-07
7.63265e-09
7.22751e-07
6.97272e-09
7.16566e-07
6.0998e-09
7.11791e-07
4.80591e-09
7.08956e-07
3.02587e-09
-3.26053e-10
1.07432e-06
5.56885e-09
1.06506e-09
1.06824e-06
1.39001e-08
5.58752e-09
1.06138e-06
1.62619e-08
8.46586e-09
1.05338e-06
1.59094e-08
9.04285e-09
1.0451e-06
1.50028e-08
8.623e-09
1.03721e-06
1.39342e-08
8.12956e-09
1.02981e-06
1.29785e-08
7.80232e-09
1.0228e-06
1.21175e-08
7.58086e-09
1.01594e-06
1.13504e-08
7.41407e-09
1.00915e-06
1.07021e-08
7.15935e-09
1.00244e-06
1.02182e-08
6.76711e-09
9.95783e-07
9.87468e-09
6.34612e-09
9.89084e-07
9.64905e-09
5.97904e-09
9.82246e-07
9.53662e-09
5.6995e-09
9.75138e-07
9.54047e-09
5.53505e-09
9.67569e-07
9.67939e-09
5.5297e-09
9.59298e-07
1.00011e-08
5.72691e-09
9.50054e-07
1.05538e-08
6.20873e-09
9.39895e-07
1.12347e-08
6.91046e-09
1.11723e-08
8.79567e-09
1.32762e-06
4.93126e-09
2.71856e-09
1.33539e-06
1.30094e-08
7.1218e-09
1.34286e-06
1.72169e-08
9.55515e-09
1.34847e-06
1.89019e-08
1.05808e-08
1.35197e-06
1.95056e-08
1.088e-08
1.35374e-06
1.91219e-08
1.05883e-08
1.35439e-06
1.81113e-08
9.90454e-09
1.35451e-06
1.68281e-08
9.06678e-09
1.35445e-06
1.54895e-08
8.22794e-09
1.35433e-06
1.42747e-08
7.4542e-09
1.35422e-06
1.33186e-08
6.78455e-09
1.35412e-06
1.25908e-08
6.21579e-09
1.35405e-06
1.20563e-08
5.74051e-09
1.35395e-06
1.16983e-08
5.36064e-09
1.35376e-06
1.1516e-08
5.08184e-09
1.35338e-06
1.15291e-08
4.91861e-09
1.3527e-06
1.17722e-08
4.88639e-09
1.35164e-06
1.22204e-08
5.03422e-09
1.35004e-06
1.27672e-08
5.3228e-09
1.2712e-08
5.43293e-09
1.53312e-06
3.64958e-09
2.36633e-09
1.54218e-06
9.6347e-09
6.23961e-09
1.55327e-06
1.36934e-08
8.87477e-09
1.56445e-06
1.59397e-08
1.03496e-08
1.57506e-06
1.69169e-08
1.09037e-08
1.58469e-06
1.69535e-08
1.07611e-08
1.59298e-06
1.63887e-08
1.01538e-08
1.60003e-06
1.54653e-08
9.34798e-09
1.60616e-06
1.43742e-08
8.48689e-09
1.61162e-06
1.32969e-08
7.68295e-09
1.61664e-06
1.23323e-08
6.98455e-09
1.62138e-06
1.15132e-08
6.39409e-09
1.62595e-06
1.08495e-08
5.89447e-09
1.63039e-06
1.03402e-08
5.47295e-09
1.63475e-06
9.98179e-09
5.12202e-09
1.63908e-06
9.77037e-09
4.84225e-09
1.6434e-06
9.7061e-09
4.63496e-09
1.64772e-06
9.76473e-09
4.48897e-09
1.652e-06
9.84886e-09
4.37064e-09
9.72967e-09
4.21069e-09
1.68027e-06
1.89127e-09
1.89113e-09
1.68934e-06
5.09997e-09
5.09954e-09
1.70179e-06
7.4654e-09
7.46456e-09
1.71578e-06
8.948e-09
8.94659e-09
1.73021e-06
9.69613e-09
9.69383e-09
1.74439e-06
9.86574e-09
9.86208e-09
1.75784e-06
9.65953e-09
9.65395e-09
1.77034e-06
9.21e-09
9.2017e-09
1.78181e-06
8.62951e-09
8.61744e-09
1.79234e-06
8.01236e-09
7.99464e-09
1.80211e-06
7.42456e-09
7.39768e-09
1.81125e-06
6.90035e-09
6.85803e-09
1.81991e-06
6.45338e-09
6.38502e-09
1.82821e-06
6.08601e-09
5.9758e-09
1.83625e-06
5.79395e-09
5.62241e-09
1.84414e-06
5.56588e-09
5.31631e-09
1.85197e-06
5.38987e-09
5.051e-09
1.85981e-06
5.24558e-09
4.79926e-09
1.86768e-06
5.0875e-09
4.53908e-09
4.87721e-09
4.30017e-09
1.7569e-06
-2.09788e-14
1.61322e-09
1.76589e-06
-1.01e-14
4.38409e-09
1.77878e-06
1.45868e-14
6.53171e-09
1.79389e-06
5.15226e-14
7.95092e-09
1.81003e-06
1.22856e-13
8.75539e-09
1.82639e-06
2.48361e-13
9.0851e-09
1.84241e-06
3.92234e-13
9.07112e-09
1.85773e-06
3.41058e-13
8.83438e-09
1.87218e-06
3.4906e-16
8.45973e-09
1.88568e-06
-6.36336e-13
8.01302e-09
1.89826e-06
-1.3614e-12
7.54512e-09
1.91003e-06
-1.56351e-12
7.09252e-09
1.92112e-06
-2.33141e-13
6.6785e-09
1.93166e-06
3.276e-12
6.31514e-09
1.94179e-06
8.07847e-12
6.00639e-09
1.95162e-06
1.04367e-11
5.75258e-09
1.96124e-06
6.31555e-12
5.54414e-09
1.97072e-06
-6.47801e-12
5.36057e-09
1.98006e-06
-2.48456e-11
5.16841e-09
-4.18218e-11
5.03282e-09
1.7569e-06
-1.89115e-09
1.61332e-09
1.76589e-06
-5.09959e-09
4.38439e-09
1.77878e-06
-7.46465e-09
6.5323e-09
1.79389e-06
-8.94674e-09
7.95196e-09
1.81003e-06
-9.69403e-09
8.75709e-09
1.82639e-06
-9.86234e-09
9.08772e-09
1.8424e-06
-9.65428e-09
9.07495e-09
1.85773e-06
-9.20211e-09
8.83992e-09
1.87217e-06
-8.61795e-09
8.46791e-09
1.88565e-06
-7.99527e-09
8.02535e-09
1.89823e-06
-7.39845e-09
7.564e-09
1.90998e-06
-6.85899e-09
7.12169e-09
1.92105e-06
-6.38622e-09
6.72368e-09
1.93157e-06
-5.97728e-09
6.38491e-09
1.94168e-06
-5.62423e-09
6.11279e-09
1.95148e-06
-5.31848e-09
5.90881e-09
1.96106e-06
-5.05356e-09
5.7612e-09
1.9705e-06
-4.80222e-09
5.6463e-09
1.97982e-06
-4.5423e-09
5.51583e-09
-4.30326e-09
5.40346e-09
1.68027e-06
-3.6493e-09
1.89126e-09
1.68934e-06
-9.63385e-09
5.09995e-09
1.70179e-06
-1.36918e-08
7.46535e-09
1.71578e-06
-1.59367e-08
8.94793e-09
1.73021e-06
-1.69118e-08
9.69602e-09
1.74439e-06
-1.69453e-08
9.8656e-09
1.75784e-06
-1.63764e-08
9.65935e-09
1.77034e-06
-1.54454e-08
9.20977e-09
1.78181e-06
-1.43436e-08
8.62924e-09
1.79234e-06
-1.32493e-08
8.01203e-09
1.80211e-06
-1.22562e-08
7.42417e-09
1.81125e-06
-1.13904e-08
6.89988e-09
1.81991e-06
-1.06505e-08
6.45283e-09
1.82821e-06
-1.00196e-08
6.08537e-09
1.83625e-06
-9.47861e-09
5.79319e-09
1.84414e-06
-9.00269e-09
5.56488e-09
1.85197e-06
-8.56476e-09
5.38854e-09
1.85981e-06
-8.12359e-09
5.24376e-09
1.86769e-06
-7.65646e-09
5.08487e-09
-7.27236e-09
4.87332e-09
1.53312e-06
-4.93108e-09
2.36625e-09
1.54218e-06
-1.30089e-08
6.23945e-09
1.55328e-06
-1.72156e-08
8.87447e-09
1.56445e-06
-1.88987e-08
1.03491e-08
1.57507e-06
-1.94997e-08
1.0903e-08
1.58471e-06
-1.91129e-08
1.076e-08
1.593e-06
-1.80972e-08
1.01518e-08
1.60007e-06
-1.68058e-08
9.34433e-09
1.60623e-06
-1.54554e-08
8.48046e-09
1.61173e-06
-1.42187e-08
7.66995e-09
1.61681e-06
-1.32214e-08
6.95976e-09
1.62165e-06
-1.24274e-08
6.35238e-09
1.62637e-06
-1.1789e-08
5.83145e-09
1.63105e-06
-1.12661e-08
5.38175e-09
1.63576e-06
-1.08175e-08
4.98238e-09
1.64056e-06
-1.03982e-08
4.62382e-09
1.6455e-06
-9.9629e-09
4.28563e-09
1.65063e-06
-9.47246e-09
3.94808e-09
1.65594e-06
-8.9245e-09
3.56638e-09
-8.60598e-09
3.09034e-09
1.32763e-06
-5.56886e-09
2.71838e-09
1.33539e-06
-1.39002e-08
7.12131e-09
1.34287e-06
-1.62614e-08
9.55426e-09
1.34848e-06
-1.59077e-08
1.05791e-08
1.35198e-06
-1.49995e-08
1.08766e-08
1.35376e-06
-1.3929e-08
1.05823e-08
1.35444e-06
-1.29708e-08
9.89415e-09
1.35458e-06
-1.21048e-08
9.04934e-09
1.35456e-06
-1.13289e-08
8.19814e-09
1.35453e-06
-1.06651e-08
7.39769e-09
1.35455e-06
-1.01533e-08
6.68237e-09
1.35469e-06
-9.76365e-09
6.04672e-09
1.35498e-06
-9.45947e-09
5.47964e-09
1.35543e-06
-9.21821e-09
4.96411e-09
1.35609e-06
-9.00283e-09
4.44783e-09
1.35696e-06
-8.76994e-09
3.89177e-09
1.35807e-06
-8.45849e-09
3.24567e-09
1.35941e-06
-8.02102e-09
2.45874e-09
1.36099e-06
-7.50734e-09
1.46397e-09
-7.45466e-09
2.60757e-10
1.07432e-06
1.06489e-09
1.06824e-06
5.5869e-09
1.06138e-06
8.46467e-09
1.05339e-06
9.04082e-09
1.04511e-06
8.61904e-09
1.03723e-06
8.12186e-09
1.02986e-06
7.78804e-09
1.02288e-06
7.55574e-09
1.01607e-06
7.36945e-09
1.00937e-06
7.08426e-09
1.00283e-06
6.64407e-09
9.96432e-07
6.14525e-09
9.90164e-07
5.64873e-09
9.84024e-07
5.14892e-09
9.78026e-07
4.6278e-09
9.72194e-07
4.03452e-09
9.6657e-07
3.26533e-09
9.61148e-07
2.20695e-09
9.55927e-07
7.39637e-10
-9.431e-10
1.16914e-06
4.90655e-09
5.9307e-14
1.16312e-06
1.16085e-08
3.41591e-13
1.15731e-06
1.42753e-08
8.93759e-13
1.15202e-06
1.43332e-08
1.62399e-12
1.14691e-06
1.37296e-08
2.83125e-12
1.14207e-06
1.29682e-08
5.05866e-12
1.13776e-06
1.20989e-08
9.15511e-12
1.13402e-06
1.13054e-08
1.58998e-11
1.13076e-06
1.06461e-08
2.73414e-11
1.12769e-06
1.01841e-08
4.6196e-11
1.12449e-06
9.887e-09
7.70993e-11
1.12103e-06
9.67845e-09
1.27651e-10
1.11724e-06
9.55891e-09
2.10576e-10
1.11306e-06
9.53996e-09
3.46371e-10
1.10841e-06
9.62319e-09
5.55091e-10
1.10325e-06
9.81055e-09
8.77428e-10
1.0975e-06
1.01066e-08
1.37668e-09
1.09106e-06
1.05144e-08
2.1336e-09
1.08391e-06
1.09468e-08
3.11289e-09
1.10504e-08
4.69123e-09
1.41518e-06
4.19295e-09
1.4484e-13
1.42279e-06
1.11161e-08
4.36652e-13
1.43152e-06
1.50989e-08
7.42579e-13
1.4398e-06
1.66299e-08
1.42302e-12
1.44713e-06
1.72764e-08
2.77105e-12
1.45317e-06
1.75111e-08
5.00186e-12
1.45801e-06
1.71551e-08
8.35874e-12
1.46193e-06
1.64396e-08
1.37881e-11
1.46523e-06
1.55523e-08
2.34226e-11
1.46816e-06
1.46705e-08
4.15601e-11
1.4709e-06
1.38594e-08
7.28605e-11
1.47351e-06
1.31626e-08
1.22378e-10
1.47595e-06
1.26576e-08
1.96255e-10
1.47818e-06
1.23607e-08
3.07702e-10
1.48018e-06
1.22281e-08
4.82015e-10
1.48194e-06
1.22169e-08
7.48473e-10
1.48346e-06
1.23325e-08
1.14348e-09
1.48467e-06
1.26229e-08
1.7128e-09
1.48544e-06
1.30284e-08
2.47152e-09
1.31666e-08
3.27282e-09
1.61424e-06
3.09289e-09
1.00967e-13
1.62332e-06
8.27424e-09
2.41519e-13
1.63534e-06
1.19576e-08
4.26153e-13
1.6482e-06
1.41154e-08
7.96739e-13