/*--------------------------------*- C++ -*----------------------------------*\
| =========                 |                                                 |
| \\      /  F ield         | OpenFOAM: The Open Source CFD Toolbox           |
|  \\    /   O peration     | Version:  2212                                  |
|   \\  /    A nd           | Website:  www.openfoam.com                      |
|    \\/     M anipulation  |                                                 |
\*---------------------------------------------------------------------------*/
FoamFile
{
    version     2.0;
    format      ascii;
    arch        "LSB;label=32;scalar=64";
    class       volVectorField;
    location    "1.4";
    object      U;
}
// * * * * * * * * * * * * * * * * * * * * * * * * * * * * * * * * * * * * * //

dimensions      [0 1 -1 0 0 0 0];

internalField   nonuniform List<vector> 
6840
(
(0.0956456 -0.00836004 -0.00836005)
(0.0904938 0.00152205 0.001522)
(0.0790682 0.00242981 0.00242971)
(0.071301 0.00148786 0.00148762)
(0.0661792 0.000830711 0.000830214)
(0.0623221 0.000564074 0.000563255)
(0.05922 0.000427189 0.000425287)
(0.0566835 0.000325445 0.000322095)
(0.0545475 0.000255558 0.000250034)
(0.0526935 0.000206791 0.00019767)
(0.0510528 0.000173523 0.000157852)
(0.0495869 0.000152334 0.000126017)
(0.0482632 0.00013958 9.72617e-05)
(0.0470533 0.00013414 6.83749e-05)
(0.0459408 0.000136352 3.34008e-05)
(0.0449237 0.000150485 9.06819e-06)
(0.0440138 0.000192585 -4.6419e-05)
(0.0432354 0.000262438 -0.00016275)
(0.0427732 0.000358546 -0.000373985)
(0.0413773 -0.000256703 -0.00156026)
(0.0999088 0.001297 0.000712547)
(0.0969668 0.00365597 0.0027472)
(0.0935345 0.00264034 0.00211803)
(0.0895891 0.00182068 0.00162041)
(0.0858317 0.00152929 0.00139029)
(0.0825894 0.00135209 0.00116059)
(0.0798642 0.00118076 0.000896182)
(0.0775653 0.001043 0.000690652)
(0.0755548 0.000947093 0.000558011)
(0.0737463 0.000873093 0.000475649)
(0.0720934 0.000805997 0.00042474)
(0.0705672 0.000741545 0.000391544)
(0.0691487 0.000685939 0.00036834)
(0.0678223 0.000645002 0.000354716)
(0.0665738 0.000621425 0.000347181)
(0.0654066 0.000608544 0.000311116)
(0.0643561 0.000604139 0.000236863)
(0.0634982 0.00057254 5.86015e-05)
(0.0630896 0.000630394 -0.000107271)
(0.0611434 0.000363389 -0.000566521)
(0.099413 0.00034525 0.000270227)
(0.0988664 0.00201914 0.00187484)
(0.0979216 0.00257334 0.00218883)
(0.0963661 0.00238024 0.0019081)
(0.0946338 0.00211473 0.00162623)
(0.0929731 0.0019278 0.00141789)
(0.0913657 0.0018032 0.00126993)
(0.0898568 0.00170835 0.00115792)
(0.0884596 0.00160975 0.00106651)
(0.0871665 0.00150253 0.000992786)
(0.0859713 0.00139727 0.000941601)
(0.0848607 0.00130164 0.000909022)
(0.0838186 0.00121646 0.000889141)
(0.0828355 0.00113887 0.000875972)
(0.0819105 0.00106552 0.000863299)
(0.0810531 0.000992007 0.000841561)
(0.080292 0.000905181 0.000795505)
(0.079669 0.00077731 0.000698427)
(0.0792414 0.000587432 0.00054971)
(0.0785329 3.302e-06 0.000265711)
(0.0995405 0.000245044 0.000321898)
(0.0992576 0.00105562 0.00154091)
(0.098849 0.00150237 0.00211437)
(0.0981252 0.00157947 0.00209148)
(0.0973377 0.0015148 0.00188588)
(0.0965866 0.00144627 0.00166547)
(0.0958683 0.00140977 0.00149741)
(0.0952025 0.00137831 0.00137058)
(0.0945772 0.0013319 0.00128315)
(0.0939375 0.00125986 0.00122632)
(0.0933179 0.00116879 0.00118698)
(0.092718 0.00107054 0.0011611)
(0.0921319 0.000973864 0.0011447)
(0.0915567 0.00087994 0.00113579)
(0.0909934 0.000786199 0.00112876)
(0.090444 0.000683356 0.00111805)
(0.08991 0.000552903 0.00109618)
(0.089394 0.000371534 0.00105914)
(0.0889057 0.000109809 0.00101321)
(0.0884472 -0.000237082 0.0010674)
(0.0993802 3.37667e-05 5.89686e-05)
(0.0992678 0.000274339 0.00120002)
(0.0989806 0.000432246 0.00188841)
(0.098475 0.000483217 0.00200628)
(0.0979964 0.000478375 0.00191431)
(0.0975725 0.000464608 0.00173413)
(0.0971839 0.000451114 0.00154635)
(0.0968359 0.000439244 0.00138705)
(0.0965386 0.00043082 0.00126752)
(0.0962888 0.000419256 0.00119535)
(0.0960221 0.0003961 0.00116567)
(0.0957406 0.000362639 0.00116005)
(0.0954452 0.000322238 0.00116352)
(0.0951284 0.000274848 0.00117071)
(0.0947858 0.000220683 0.00118287)
(0.0944178 0.000155609 0.00120051)
(0.0940236 6.78745e-05 0.00122247)
(0.0936006 -5.62138e-05 0.001247)
(0.093138 -0.000218293 0.00128154)
(0.0926655 -0.000423017 0.00138448)
(0.0993802 -3.37881e-05 5.90029e-05)
(0.0992678 -0.000274447 0.00120004)
(0.0989805 -0.000432485 0.00188842)
(0.0984749 -0.000483642 0.00200632)
(0.0979961 -0.000479127 0.00191444)
(0.0975718 -0.000465978 0.00173441)
(0.0971826 -0.000453625 0.00154676)
(0.0968337 -0.000443627 0.00138777)
(0.096535 -0.000438343 0.00126891)
(0.0962826 -0.00043198 0.0011979)
(0.0960116 -0.000417346 0.00117002)
(0.0957227 -0.000397688 0.00116724)
(0.0954149 -0.000379743 0.00117548)
(0.0950773 -0.000369205 0.00119052)
(0.0947021 -0.000372126 0.00121464)
(0.0942853 -0.000396598 0.00125234)
(0.0938234 -0.000449173 0.0013053)
(0.093312 -0.000540604 0.00137016)
(0.0927123 -0.00066838 0.0014395)
(0.0920296 -0.000934628 0.00146496)
(0.0995405 -0.000245052 0.000321896)
(0.0992576 -0.00105566 0.00154091)
(0.0988489 -0.00150244 0.00211444)
(0.0981248 -0.00157959 0.00209162)
(0.0973368 -0.00151514 0.00188611)
(0.0965849 -0.00144703 0.00166582)
(0.0958652 -0.00141119 0.0014978)
(0.0951974 -0.00138071 0.00137127)
(0.094568 -0.00133631 0.00128471)
(0.0939217 -0.00126706 0.00122999)
(0.0932909 -0.00118001 0.00119452)
(0.0926723 -0.00108846 0.00117475)
(0.0920553 -0.00100398 0.00116735)
(0.09143 -0.000932631 0.00117133)
(0.090786 -0.00087747 0.00118768)
(0.0901097 -0.000841611 0.00121925)
(0.089382 -0.000829714 0.00127219)
(0.0885839 -0.000852275 0.0013596)
(0.0876628 -0.000898058 0.00147607)
(0.0865479 -0.00118577 0.00146812)
(0.099413 -0.000345239 0.000270231)
(0.0988664 -0.00201908 0.0018749)
(0.0979214 -0.00257321 0.00218902)
(0.0963657 -0.00238 0.00190841)
(0.094633 -0.00211437 0.00162667)
(0.0929715 -0.00192721 0.00141852)
(0.0913627 -0.00180234 0.00127097)
(0.0898515 -0.00170697 0.00115967)
(0.0884502 -0.00160745 0.00106932)
(0.0871506 -0.00149873 0.000997391)
(0.085944 -0.00139097 0.000948806)
(0.084814 -0.00129153 0.000921535)
(0.0837393 -0.00120125 0.000911018)
(0.0827013 -0.00111777 0.000913507)
(0.0816834 -0.00103931 0.000927965)
(0.0806652 -0.000966237 0.000958603)
(0.0796169 -0.000897689 0.00101462)
(0.078481 -0.000836767 0.0011128)
(0.0771837 -0.000816439 0.00125789)
(0.0756037 -0.000897642 0.00142909)
(0.0999088 -0.00129699 0.000712561)
(0.0969668 -0.00365588 0.00274727)
(0.0935344 -0.00264021 0.00211818)
(0.0895889 -0.00182044 0.0016207)
(0.0858314 -0.00152874 0.00139072)
(0.0825889 -0.00135123 0.00116136)
(0.0798631 -0.0011792 0.000897462)
(0.0775633 -0.00104032 0.000692744)
(0.0755512 -0.000942428 0.000561541)
(0.0737398 -0.000864887 0.000481682)
(0.0720813 -0.000791541 0.000436606)
(0.0705448 -0.000717138 0.000412524)
(0.0691078 -0.000646413 0.000400879)
(0.0677504 -0.000581647 0.000396612)
(0.0664521 -0.000517235 0.000400534)
(0.0651956 -0.000422826 0.000413742)
(0.0639676 -0.000300678 0.00044569)
(0.062733 -0.000141732 0.000506221)
(0.0614745 0.000108057 0.000561574)
(0.0599633 0.000453815 0.00102577)
(0.0956456 0.00836005 -0.00836004)
(0.0904938 -0.001522 0.00152205)
(0.0790682 -0.00242971 0.00242981)
(0.071301 -0.00148762 0.00148786)
(0.0661792 -0.000830223 0.000830706)
(0.0623221 -0.000563267 0.000564064)
(0.05922 -0.000425307 0.000427172)
(0.0566835 -0.000322123 0.00032542)
(0.0545475 -0.000250068 0.000255525)
(0.0526935 -0.000197713 0.000206749)
(0.0510528 -0.000157905 0.000173467)
(0.0495868 -0.000126084 0.000152263)
(0.0482631 -9.73275e-05 0.000139473)
(0.0470533 -6.84754e-05 0.000134026)
(0.0459408 -3.35311e-05 0.000136227)
(0.0449237 -9.15562e-06 0.000150309)
(0.0440138 4.62641e-05 0.000192347)
(0.0432356 0.000162553 0.000262159)
(0.0427738 0.000373805 0.00035816)
(0.0413783 0.00156003 -0.000257004)
(0.0999088 0.000712562 0.00129699)
(0.0969668 0.00274727 0.00365587)
(0.0935344 0.00211818 0.0026402)
(0.0895889 0.00162071 0.00182044)
(0.0858314 0.00139072 0.00152873)
(0.0825889 0.00116137 0.00135122)
(0.0798631 0.000897469 0.00117918)
(0.0775633 0.000692756 0.00104029)
(0.0755512 0.000561558 0.000942392)
(0.0737398 0.000481707 0.00086484)
(0.0720813 0.00043664 0.000791478)
(0.0705448 0.000412576 0.00071706)
(0.0691077 0.000400944 0.000646331)
(0.0677505 0.000396698 0.000581558)
(0.066452 0.000400657 0.000517095)
(0.0651954 0.000413886 0.000422617)
(0.0639674 0.000445881 0.000300448)
(0.0627326 0.00050652 0.000141498)
(0.0614736 0.00056209 -0.000108234)
(0.0599621 0.00102656 -0.000453902)
(0.100226 0.000720829 0.000720808)
(0.09996 0.0019828 0.00198269)
(0.0997822 0.00245203 0.00245178)
(0.0987879 0.00241996 0.00241952)
(0.0972751 0.00220134 0.00220065)
(0.095774 0.00181227 0.00181103)
(0.0943914 0.00138365 0.00138161)
(0.0931614 0.0010723 0.00106884)
(0.0920727 0.000857724 0.000851716)
(0.0911076 0.000708168 0.000697614)
(0.0902504 0.000601145 0.000581737)
(0.0894771 0.00052398 0.000491466)
(0.0887668 0.000472052 0.000420645)
(0.0881114 0.000438814 0.000361222)
(0.0875105 0.00042137 0.000300694)
(0.0869576 0.000423729 0.000216615)
(0.0864382 0.000451429 9.90714e-05)
(0.0859276 0.000508192 -8.07751e-05)
(0.0853792 0.000507732 -0.000431883)
(0.0852086 0.000291539 -0.00119867)
(0.10014 0.000775043 0.000869235)
(0.100454 0.00196249 0.00196351)
(0.100911 0.00242771 0.00233436)
(0.100978 0.00252692 0.00244101)
(0.100694 0.00242679 0.00233635)
(0.100224 0.00219837 0.00211188)
(0.0997087 0.00191814 0.00182231)
(0.0991834 0.00166812 0.00157388)
(0.0986886 0.00146672 0.00138707)
(0.0982415 0.00130278 0.00124558)
(0.0978489 0.00116917 0.00113947)
(0.0975074 0.00106168 0.00106062)
(0.0972135 0.000976258 0.000998968)
(0.0969634 0.00090889 0.000944924)
(0.0967565 0.000857102 0.000891443)
(0.0965916 0.000816069 0.00082979)
(0.0964676 0.000781557 0.00074258)
(0.0963803 0.000753437 0.00061372)
(0.0963079 0.000716202 0.000427736)
(0.0963949 0.000596652 0.000198901)
(0.100093 0.000445946 0.000763194)
(0.100504 0.00119455 0.001749)
(0.101105 0.00158692 0.00212949)
(0.101635 0.0017406 0.00223448)
(0.101979 0.00178256 0.00228664)
(0.102172 0.00172953 0.00223527)
(0.102254 0.0016089 0.00211493)
(0.102278 0.0014616 0.00196315)
(0.102282 0.00130725 0.00180002)
(0.102276 0.00115978 0.00164941)
(0.102273 0.00103346 0.00153834)
(0.102278 0.000927075 0.001458)
(0.102294 0.000834734 0.0013981)
(0.102322 0.00075304 0.00135199)
(0.102363 0.000674307 0.00131402)
(0.10242 0.000594901 0.00127798)
(0.102494 0.000508853 0.00123743)
(0.102588 0.000408155 0.00118671)
(0.102692 0.000283368 0.001132)
(0.102869 0.000120004 0.00112381)
(0.100087 0.000144382 0.00070701)
(0.100477 0.000390482 0.00161776)
(0.101066 0.000541094 0.00203462)
(0.101695 0.000610104 0.00211752)
(0.102269 0.000635878 0.00214981)
(0.102743 0.00062652 0.00217912)
(0.103125 0.000594291 0.00213311)
(0.10343 0.000548422 0.00204284)
(0.103684 0.000502273 0.00193293)
(0.103904 0.000458015 0.00182613)
(0.104104 0.000412154 0.00172647)
(0.104297 0.000365172 0.00163761)
(0.104486 0.000319693 0.00157363)
(0.104666 0.000274221 0.00153668)
(0.104838 0.000223299 0.00151807)
(0.105004 0.000162547 0.0015085)
(0.105164 8.6731e-05 0.0015052)
(0.105318 -9.18845e-06 0.00150944)
(0.105465 -0.000130733 0.0015239)
(0.105698 -0.000265773 0.00156153)
(0.100087 -0.000144421 0.000707014)
(0.100477 -0.000390598 0.00161777)
(0.101066 -0.000541295 0.00203461)
(0.101694 -0.000610467 0.00211757)
(0.102269 -0.000636579 0.00215005)
(0.102742 -0.00062779 0.00217957)
(0.103124 -0.000596396 0.00213382)
(0.103428 -0.000551894 0.00204395)
(0.10368 -0.00050824 0.00193458)
(0.103899 -0.000468673 0.00182878)
(0.104096 -0.000430842 0.00173094)
(0.104285 -0.000396394 0.00164547)
(0.104466 -0.000369309 0.00158743)
(0.104632 -0.000351238 0.0015597)
(0.104781 -0.000343524 0.00155444)
(0.104913 -0.000350617 0.00156384)
(0.10503 -0.000376839 0.00158799)
(0.105129 -0.000427375 0.00163463)
(0.10521 -0.000500824 0.00169443)
(0.105403 -0.00057532 0.00169544)
(0.100093 -0.000445949 0.000763201)
(0.100504 -0.00119456 0.00174902)
(0.101105 -0.00158694 0.0021296)
(0.101634 -0.00174067 0.00223488)
(0.101979 -0.0017827 0.00228744)
(0.102171 -0.00172976 0.00223644)
(0.102251 -0.00160941 0.0021167)
(0.102274 -0.00146255 0.00196583)
(0.102275 -0.00130876 0.00180403)
(0.102265 -0.00116298 0.00165582)
(0.102255 -0.0010393 0.00154958)
(0.102246 -0.000936186 0.0014771)
(0.102239 -0.000847841 0.00143001)
(0.102233 -0.000772814 0.00140472)
(0.102224 -0.000709881 0.00140052)
(0.102205 -0.0006571 0.00141998)
(0.102166 -0.000614775 0.00146891)
(0.102102 -0.000591854 0.00154466)
(0.102015 -0.000583436 0.00163369)
(0.102095 -0.000555278 0.00159725)
(0.10014 -0.000775019 0.000869266)
(0.100454 -0.00196242 0.00196366)
(0.100911 -0.00242757 0.00233472)
(0.100978 -0.00252661 0.00244161)
(0.100693 -0.00242626 0.00233722)
(0.100223 -0.00219745 0.00211302)
(0.0997069 -0.0019167 0.0018241)
(0.0991801 -0.001666 0.0015771)
(0.0986829 -0.00146308 0.00139263)
(0.0982314 -0.00129623 0.00125491)
(0.097831 -0.00115824 0.0011552)
(0.0974769 -0.00104326 0.00108679)
(0.097163 -0.000945795 0.00104239)
(0.0968825 -0.000858125 0.00101646)
(0.0966268 -0.000774005 0.0010085)
(0.0963829 -0.000690591 0.00102492)
(0.0961341 -0.000602082 0.00107199)
(0.0958627 -0.000501776 0.00115717)
(0.0955379 -0.000366934 0.00124545)
(0.0955077 -0.000172206 0.00118635)
(0.100226 -0.00072081 0.000720829)
(0.09996 -0.00198269 0.00198279)
(0.0997822 -0.00245179 0.00245203)
(0.0987879 -0.00241953 0.00241996)
(0.0972751 -0.00220066 0.00220133)
(0.095774 -0.00181105 0.00181226)
(0.0943914 -0.00138164 0.00138364)
(0.0931614 -0.00106887 0.00107228)
(0.0920727 -0.000851758 0.000857694)
(0.0911076 -0.00069767 0.000708127)
(0.0902504 -0.000581811 0.000601088)
(0.0894771 -0.000491552 0.000523897)
(0.0887668 -0.000420682 0.000471882)
(0.0881114 -0.000361347 0.00043869)
(0.0875104 -0.000300962 0.000421286)
(0.0869574 -0.000216865 0.000423513)
(0.086438 -9.93289e-05 0.000451122)
(0.0859273 8.04882e-05 0.000507768)
(0.0853787 0.000431477 0.000507271)
(0.0852075 0.00119738 0.000291718)
(0.0999088 -0.000712546 0.001297)
(0.0969668 -0.0027472 0.00365596)
(0.0935345 -0.00211803 0.00264033)
(0.0895891 -0.00162041 0.00182067)
(0.0858317 -0.0013903 0.00152928)
(0.0825894 -0.0011606 0.00135207)
(0.0798642 -0.000896197 0.00118074)
(0.0775652 -0.000690672 0.00104297)
(0.0755548 -0.000558037 0.000947057)
(0.0737462 -0.000475682 0.000873045)
(0.0720933 -0.000424786 0.000805936)
(0.0705672 -0.000391597 0.000741463)
(0.0691486 -0.000368405 0.000685822)
(0.0678221 -0.000354744 0.000644818)
(0.0665738 -0.000347204 0.000621177)
(0.0654066 -0.00031122 0.000608254)
(0.0643561 -0.000236987 0.000603785)
(0.0634983 -5.86834e-05 0.000572031)
(0.0630901 0.000107362 0.000629523)
(0.0611442 0.000565682 0.000363216)
(0.099413 0.000270231 0.000345238)
(0.0988664 0.0018749 0.00201908)
(0.0979214 0.00218902 0.00257321)
(0.0963657 0.00190842 0.00237999)
(0.094633 0.00162667 0.00211436)
(0.0929715 0.00141852 0.00192719)
(0.0913627 0.00127098 0.00180231)
(0.0898515 0.00115968 0.00170694)
(0.0884502 0.00106934 0.00160741)
(0.0871506 0.000997419 0.00149868)
(0.085944 0.000948843 0.0013909)
(0.0848139 0.000921585 0.00129145)
(0.0837393 0.000911077 0.00120114)
(0.0827013 0.000913606 0.00111765)
(0.0816833 0.000928126 0.00103921)
(0.0806651 0.000958802 0.000966119)
(0.0796167 0.00101487 0.000897552)
(0.0784807 0.00111315 0.00083665)
(0.0771832 0.00125842 0.000816426)
(0.0756032 0.00142985 0.000897742)
(0.10014 0.000869267 0.000775018)
(0.100454 0.00196366 0.00196242)
(0.100911 0.00233473 0.00242756)
(0.100978 0.00244161 0.0025266)
(0.100693 0.00233723 0.00242624)
(0.100223 0.00211303 0.00219742)
(0.0997069 0.00182412 0.00191667)
(0.0991801 0.00157712 0.00166597)
(0.0986829 0.00139266 0.00146303)
(0.0982314 0.00125494 0.00129616)
(0.097831 0.00115525 0.00115816)
(0.0974769 0.00108687 0.00104318)
(0.097163 0.0010425 0.000945696)
(0.0968825 0.00101655 0.000857944)
(0.0966269 0.0010086 0.000773764)
(0.096383 0.00102513 0.000690352)
(0.0961342 0.00107228 0.000601822)
(0.095863 0.00115749 0.000501429)
(0.0955384 0.00124571 0.000366397)
(0.0955086 0.00118639 0.000171222)
(0.10006 0.000641438 0.000641394)
(0.100501 0.00164519 0.00164505)
(0.101149 0.00221272 0.00221242)
(0.101738 0.00244052 0.00244001)
(0.102204 0.00244275 0.00244193)
(0.102501 0.0023147 0.00231343)
(0.102644 0.00209449 0.00209237)
(0.102713 0.00187217 0.00186877)
(0.102737 0.00167618 0.00167061)
(0.10275 0.00151309 0.00150389)
(0.102767 0.00137989 0.0013648)
(0.102797 0.00127321 0.00124864)
(0.102845 0.00119047 0.00115069)
(0.102912 0.00112952 0.00106532)
(0.102997 0.00108949 0.000986591)
(0.103099 0.0010714 0.000908181)
(0.103214 0.00107801 0.000822223)
(0.103341 0.00110802 0.000723513)
(0.103479 0.00113892 0.00060256)
(0.103767 0.00112378 0.000474705)
(0.100046 0.000395751 0.000540235)
(0.10048 0.00104497 0.00138407)
(0.101154 0.00147556 0.00192291)
(0.101913 0.00170557 0.00219244)
(0.102632 0.00178064 0.00229383)
(0.103301 0.00174573 0.00227786)
(0.103894 0.00163563 0.00218497)
(0.10439 0.0014938 0.00205146)
(0.104818 0.00134864 0.00190335)
(0.105196 0.00121532 0.00176316)
(0.105539 0.00109891 0.00163933)
(0.105861 0.00100018 0.00153312)
(0.106172 0.000916995 0.00144371)
(0.106478 0.000847229 0.00136808)
(0.106784 0.000788617 0.00130303)
(0.107094 0.000740739 0.00124396)
(0.107411 0.000701571 0.00118628)
(0.107739 0.00066846 0.00112623)
(0.108085 0.000632253 0.00106188)
(0.108505 0.00057865 0.00101397)
(0.100039 0.000131337 0.00047876)
(0.100448 0.00035051 0.00123475)
(0.101114 0.000505104 0.00174643)
(0.101909 0.000597235 0.00202671)
(0.102729 0.000638647 0.00215188)
(0.10353 0.000638349 0.00218605)
(0.104299 0.000604654 0.00215263)
(0.105009 0.000559447 0.0020784)
(0.105645 0.000510362 0.00197929)
(0.106219 0.00046218 0.00187132)
(0.106743 0.00041758 0.00176607)
(0.107226 0.000377221 0.00167085)
(0.10768 0.000340674 0.00159086)
(0.108113 0.0003067 0.00152808)
(0.108535 0.000272864 0.00148037)
(0.108949 0.000238351 0.00144552)
(0.109357 0.000200929 0.00142028)
(0.109764 0.000158685 0.00140324)
(0.110178 0.000109556 0.00139038)
(0.11064 5.53392e-05 0.00138561)
(0.100039 -0.000131364 0.000478774)
(0.100448 -0.00035058 0.0012348)
(0.101114 -0.000505229 0.00174651)
(0.101909 -0.000597445 0.00202687)
(0.102729 -0.000639009 0.00215221)
(0.103529 -0.000638945 0.00218659)
(0.104298 -0.000605682 0.00215346)
(0.105007 -0.000561131 0.00207963)
(0.105643 -0.000513193 0.00198117)
(0.106216 -0.000467038 0.00187434)
(0.106737 -0.000425775 0.00177109)
(0.107218 -0.000390469 0.00167934)
(0.107667 -0.00036113 0.00160511)
(0.108094 -0.000337594 0.00155141)
(0.108508 -0.000319988 0.00151726)
(0.10891 -0.000309779 0.00150034)
(0.109299 -0.000308943 0.00149916)
(0.109683 -0.000316904 0.00151452)
(0.110072 -0.000329548 0.00153656)
(0.110519 -0.000343308 0.00154332)
(0.100046 -0.000395738 0.000540273)
(0.10048 -0.00104492 0.00138419)
(0.101154 -0.00147548 0.00192315)
(0.101913 -0.00170547 0.00219289)
(0.102631 -0.00178044 0.0022946)
(0.103301 -0.00174537 0.00227911)
(0.103893 -0.00163503 0.00218692)
(0.104388 -0.00149285 0.00205465)
(0.104814 -0.00134709 0.00190828)
(0.10519 -0.00121312 0.00177085)
(0.10553 -0.00109577 0.00165175)
(0.105847 -0.000995314 0.00155341)
(0.10615 -0.000908766 0.00147698)
(0.106444 -0.0008333 0.00142237)
(0.106731 -0.000767263 0.00138943)
(0.107014 -0.000710323 0.00137907)
(0.107295 -0.000660217 0.00139368)
(0.107579 -0.000613393 0.00142855)
(0.10787 -0.000567014 0.00146731)
(0.108253 -0.00051493 0.00147106)
(0.10006 -0.000641396 0.000641437)
(0.100501 -0.00164505 0.00164519)
(0.101149 -0.00221243 0.00221271)
(0.101738 -0.00244003 0.00244052)
(0.102204 -0.00244195 0.00244274)
(0.102501 -0.00231345 0.00231469)
(0.102644 -0.0020924 0.00209447)
(0.102713 -0.00186882 0.00187214)
(0.102737 -0.00167066 0.00167615)
(0.10275 -0.00150396 0.00151305)
(0.102767 -0.00136489 0.00137984)
(0.102797 -0.00124874 0.00127314)
(0.102845 -0.00115082 0.00119037)
(0.102912 -0.0010655 0.00112942)
(0.102997 -0.000986837 0.00108938)
(0.103099 -0.00090848 0.00107126)
(0.103214 -0.000822599 0.00107785)
(0.10334 -0.000723997 0.00110786)
(0.103479 -0.000603181 0.00113877)
(0.103766 -0.000475495 0.00112369)
(0.10014 -0.000869236 0.000775042)
(0.100454 -0.00196351 0.00196249)
(0.100911 -0.00233437 0.0024277)
(0.100978 -0.00244102 0.00252691)
(0.100694 -0.00233637 0.00242678)
(0.100224 -0.00211189 0.00219836)
(0.0997087 -0.00182233 0.00191812)
(0.0991834 -0.00157392 0.00166809)
(0.0986886 -0.00138711 0.00146669)
(0.0982415 -0.00124564 0.00130273)
(0.0978488 -0.00113955 0.00116912)
(0.0975074 -0.00106072 0.00106161)
(0.0972134 -0.000999081 0.000976157)
(0.0969633 -0.000945071 0.000908765)
(0.0967563 -0.000891626 0.000856957)
(0.0965914 -0.000830026 0.000815903)
(0.0964672 -0.000742891 0.000781373)
(0.0963796 -0.000614106 0.000753226)
(0.0963069 -0.000428026 0.00071583)
(0.0963936 -0.000198325 0.000595548)
(0.099413 -0.000270227 0.000345249)
(0.0988664 -0.00187485 0.00201914)
(0.0979216 -0.00218883 0.00257333)
(0.0963661 -0.00190811 0.00238023)
(0.0946338 -0.00162623 0.00211472)
(0.0929731 -0.0014179 0.00192778)
(0.0913657 -0.00126995 0.00180317)
(0.0898568 -0.00115794 0.00170832)
(0.0884596 -0.00106654 0.0016097)
(0.0871665 -0.000992824 0.00150248)
(0.0859712 -0.000941649 0.0013972)
(0.0848606 -0.000909084 0.00130156)
(0.0838185 -0.000889227 0.00121638)
(0.0828354 -0.000876046 0.00113874)
(0.0819103 -0.000863347 0.00106532)
(0.0810528 -0.000841638 0.000991777)
(0.0802916 -0.000795627 0.000904928)
(0.0796684 -0.000698578 0.000776982)
(0.0792405 -0.000549817 0.000586926)
(0.0785316 -0.000266099 2.55648e-06)
(0.0995405 0.000321897 0.00024505)
(0.0992576 0.00154091 0.00105566)
(0.0988489 0.00211445 0.00150243)
(0.0981248 0.00209162 0.00157959)
(0.0973368 0.00188612 0.00151513)
(0.0965849 0.00166583 0.00144701)
(0.0958652 0.00149781 0.00141116)
(0.0951973 0.00137128 0.00138068)
(0.094568 0.00128473 0.00133627)
(0.0939217 0.00123001 0.001267)
(0.0932909 0.00119455 0.00117994)
(0.0926723 0.00117478 0.00108837)
(0.0920552 0.00116739 0.00100387)
(0.0914299 0.00117139 0.000932514)
(0.0907859 0.00118777 0.000877342)
(0.0901095 0.00121935 0.000841444)
(0.0893819 0.00127231 0.000829498)
(0.0885838 0.00135976 0.000852057)
(0.0876626 0.00147629 0.000897894)
(0.086548 0.00146833 0.0011856)
(0.100093 0.000763201 0.000445947)
(0.100504 0.00174902 0.00119455)
(0.101105 0.0021296 0.00158693)
(0.101634 0.00223489 0.00174066)
(0.101979 0.00228745 0.00178268)
(0.102171 0.00223645 0.00172974)
(0.102251 0.00211671 0.00160937)
(0.102274 0.00196585 0.0014625)
(0.102275 0.00180405 0.0013087)
(0.102265 0.00165585 0.00116291)
(0.102255 0.00154962 0.00103921)
(0.102246 0.00147716 0.000936086)
(0.102239 0.00143009 0.000847719)
(0.102233 0.00140479 0.000772639)
(0.102224 0.0014006 0.000709652)
(0.102205 0.00142011 0.000656837)
(0.102166 0.00146907 0.000614462)
(0.102102 0.00154484 0.000591461)
(0.102015 0.00163387 0.000582918)
(0.102095 0.00159738 0.000554565)
(0.100046 0.000540274 0.000395736)
(0.10048 0.0013842 0.00104492)
(0.101154 0.00192316 0.00147547)
(0.101913 0.0021929 0.00170545)
(0.102631 0.00229461 0.00178041)
(0.103301 0.00227913 0.00174534)
(0.103893 0.00218695 0.00163499)
(0.104388 0.00205468 0.0014928)
(0.104814 0.00190831 0.00134702)
(0.10519 0.00177089 0.00121305)
(0.10553 0.0016518 0.00109567)
(0.105847 0.00155347 0.000995198)
(0.10615 0.00147706 0.000908619)
(0.106444 0.00142245 0.0008331)
(0.106731 0.00138952 0.000767004)
(0.107014 0.00137918 0.00071001)
(0.107295 0.00139381 0.000659832)
(0.107579 0.00142869 0.000612911)
(0.10787 0.00146747 0.000566424)
(0.108252 0.00147132 0.000514264)
(0.100036 0.000323175 0.000323143)
(0.100429 0.000868769 0.000868674)
(0.10108 0.00126257 0.00126239)
(0.101891 0.00150468 0.00150436)
(0.102756 0.00162207 0.00162156)
(0.103616 0.0016435 0.0016427)
(0.104446 0.00160576 0.00160458)
(0.105223 0.00152803 0.00152619)
(0.105937 0.0014294 0.00142657)
(0.106592 0.00132591 0.00132152)
(0.107195 0.00122829 0.0012214)
(0.107757 0.00114191 0.00113102)
(0.108286 0.00106881 0.00105165)
(0.10879 0.00100949 0.000982702)
(0.109276 0.000963784 0.000922894)
(0.109749 0.000930813 0.000870829)
(0.110216 0.000909127 0.000824926)
(0.110682 0.000896782 0.000779623)
(0.111158 0.000886048 0.000732306)
(0.111692 0.000864371 0.000690915)
(0.100031 0.000107089 0.000281376)
(0.100395 0.000293084 0.000768618)
(0.101024 0.000434152 0.00113305)
(0.101844 0.000526352 0.00136917)
(0.102751 0.00057655 0.00150137)
(0.103689 0.000592057 0.00155412)
(0.104618 0.000582812 0.00154907)
(0.105516 0.000558382 0.00150805)
(0.106367 0.000524991 0.00144425)
(0.107164 0.000488181 0.00136786)
(0.107907 0.000452261 0.00128748)
(0.1086 0.000419681 0.0012096)
(0.10925 0.000391532 0.00113854)
(0.109865 0.000367926 0.00107655)
(0.110453 0.000348167 0.00102452)
(0.11102 0.000330609 0.000982802)
(0.111573 0.000314179 0.000949766)
(0.112116 0.000297333 0.000922148)
(0.112662 0.00027848 0.000895882)
(0.113252 0.000259683 0.000874013)
(0.100031 -0.00010709 0.000281391)
(0.100395 -0.00029308 0.000768663)
(0.101024 -0.000434139 0.00113314)
(0.101843 -0.000526327 0.00136934)
(0.102751 -0.000576503 0.00150166)
(0.103688 -0.000591967 0.00155456)
(0.104617 -0.000582665 0.0015497)
(0.105516 -0.000558223 0.00150896)
(0.106367 -0.000524882 0.00144562)
(0.107163 -0.000488178 0.00136999)
(0.107905 -0.000452363 0.00129081)
(0.108598 -0.000419748 0.00121481)
(0.109246 -0.000391167 0.00114662)
(0.10986 -0.000366504 0.00108899)
(0.110447 -0.000345189 0.00104354)
(0.111013 -0.00032664 0.00101107)
(0.111564 -0.000310842 0.000989795)
(0.112105 -0.000296898 0.000976643)
(0.112648 -0.000282999 0.000965414)
(0.113235 -0.000269924 0.000950834)
(0.100036 -0.000323146 0.000323174)
(0.100429 -0.00086868 0.000868766)
(0.10108 -0.0012624 0.00126257)
(0.101891 -0.00150438 0.00150467)
(0.102756 -0.00162158 0.00162206)
(0.103616 -0.00164273 0.00164348)
(0.104446 -0.00160462 0.00160574)
(0.105223 -0.00152624 0.001528)
(0.105937 -0.00142663 0.00142936)
(0.106592 -0.0013216 0.00132587)
(0.107195 -0.0012215 0.00122824)
(0.107757 -0.00113114 0.00114184)
(0.108286 -0.0010518 0.00106873)
(0.10879 -0.00098289 0.0010094)
(0.109276 -0.000923128 0.000963682)
(0.109749 -0.000871114 0.000930684)
(0.110216 -0.000825272 0.000908962)
(0.110682 -0.00078004 0.000896568)
(0.111159 -0.00073278 0.000885754)
(0.111692 -0.000691395 0.000863939)
(0.100046 -0.000540237 0.00039575)
(0.10048 -0.00138408 0.00104496)
(0.101154 -0.00192292 0.00147555)
(0.101913 -0.00219246 0.00170556)
(0.102632 -0.00229385 0.00178063)
(0.103301 -0.00227789 0.00174571)
(0.103894 -0.00218501 0.00163561)
(0.10439 -0.00205151 0.00149377)
(0.104818 -0.0019034 0.0013486)
(0.105196 -0.00176323 0.00121528)
(0.105539 -0.00163942 0.00109885)
(0.105861 -0.00153323 0.00100012)
(0.106172 -0.00144384 0.000916916)
(0.106478 -0.00136825 0.000847142)
(0.106784 -0.00130325 0.000788522)
(0.107094 -0.00124423 0.000740626)
(0.107411 -0.00118662 0.000701434)
(0.107739 -0.00112666 0.000668298)
(0.108085 -0.00106237 0.000632048)
(0.108505 -0.00101447 0.000578343)
(0.100093 -0.000763194 0.000445945)
(0.100504 -0.001749 0.00119455)
(0.101105 -0.00212949 0.00158692)
(0.101635 -0.00223449 0.00174059)
(0.101979 -0.00228665 0.00178255)
(0.102172 -0.00223529 0.00172951)
(0.102254 -0.00211495 0.00160888)
(0.102278 -0.00196318 0.00146158)
(0.102282 -0.00180006 0.00130722)
(0.102276 -0.00164946 0.00115973)
(0.102273 -0.0015384 0.00103341)
(0.102278 -0.00145809 0.000927011)
(0.102294 -0.0013982 0.000834656)
(0.102322 -0.00135211 0.000752946)
(0.102362 -0.00131416 0.000674201)
(0.10242 -0.00127817 0.000594784)
(0.102494 -0.0012377 0.000508727)
(0.102587 -0.00118706 0.000408037)
(0.102691 -0.00113242 0.000283278)
(0.102868 -0.00112422 0.000119922)
(0.0995405 -0.000321898 0.000245043)
(0.0992576 -0.00154091 0.00105562)
(0.098849 -0.00211437 0.00150236)
(0.0981252 -0.00209148 0.00157946)
(0.0973377 -0.00188589 0.00151479)
(0.0965865 -0.00166547 0.00144625)
(0.0958682 -0.00149742 0.00140975)
(0.0952025 -0.0013706 0.00137828)
(0.0945772 -0.00128318 0.00133186)
(0.0939375 -0.00122635 0.00125981)
(0.0933178 -0.00118702 0.00116873)
(0.0927179 -0.00116115 0.00107046)
(0.0921317 -0.00114477 0.000973779)
(0.0915566 -0.00113585 0.000879829)
(0.0909932 -0.00112883 0.000786052)
(0.0904437 -0.00111815 0.00068319)
(0.0899095 -0.00109633 0.000552725)
(0.0893934 -0.00105936 0.000371357)
(0.088905 -0.00101354 0.000109702)
(0.0884463 -0.00106796 -0.000236945)
(0.0993802 5.89987e-05 3.37876e-05)
(0.0992678 0.00120004 0.000274444)
(0.0989805 0.00188842 0.000432484)
(0.0984749 0.00200633 0.000483638)
(0.097996 0.00191444 0.000479119)
(0.0975718 0.00173442 0.000465965)
(0.0971826 0.00154677 0.000453607)
(0.0968337 0.00138777 0.000443602)
(0.0965349 0.00126892 0.00043831)
(0.0962825 0.00119791 0.000431936)
(0.0960115 0.00117003 0.000417287)
(0.0957226 0.00116725 0.000397611)
(0.0954148 0.0011755 0.000379646)
(0.0950772 0.00119054 0.000369093)
(0.094702 0.00121467 0.000371994)
(0.0942852 0.00125236 0.000396434)
(0.0938233 0.00130531 0.00044896)
(0.0933118 0.00137015 0.000540332)
(0.0927122 0.00143947 0.000668062)
(0.0920296 0.00146487 0.000934304)
(0.100087 0.000707014 0.000144419)
(0.100477 0.00161777 0.000390594)
(0.101066 0.00203461 0.000541288)
(0.101694 0.00211757 0.000610454)
(0.102269 0.00215006 0.00063656)
(0.102742 0.00217958 0.000627763)
(0.103124 0.00213384 0.000596361)
(0.103428 0.00204397 0.00055185)
(0.10368 0.0019346 0.000508185)
(0.103899 0.00182881 0.000468606)
(0.104096 0.00173098 0.00043076)
(0.104285 0.00164551 0.000396294)
(0.104466 0.00158748 0.000369185)
(0.104632 0.00155976 0.000351079)
(0.104781 0.0015545 0.00034332)
(0.104913 0.00156391 0.000350371)
(0.10503 0.00158805 0.000376538)
(0.105129 0.00163469 0.000426997)
(0.105209 0.00169451 0.00050035)
(0.105403 0.00169565 0.000574759)
(0.100039 0.000478775 0.000131362)
(0.100448 0.0012348 0.000350574)
(0.101114 0.00174652 0.000505218)