/*--------------------------------*- C++ -*----------------------------------*\
| =========                 |                                                 |
| \\      /  F ield         | OpenFOAM: The Open Source CFD Toolbox           |
|  \\    /   O peration     | Version:  2212                                  |
|   \\  /    A nd           | Website:  www.openfoam.com                      |
|    \\/     M anipulation  |                                                 |
\*---------------------------------------------------------------------------*/
FoamFile
{
    version     2.0;
    format      ascii;
    arch        "LSB;label=32;scalar=64";
    class       surfaceVectorField;
    location    "1.4";
    object      Uf;
}
// * * * * * * * * * * * * * * * * * * * * * * * * * * * * * * * * * * * * * //

dimensions      [0 1 -1 0 0 0 0];

internalField   nonuniform List<vector> 
19019
(
(0.0993441 -0.003419 -0.00341903)
(0.0973536 0.00106248 -0.00148428)
(0.0973536 -0.00148427 0.00106247)
(0.0834791 0.00197593 0.00197585)
(0.0930872 0.00326903 0.00253344)
(0.0930872 0.00253351 0.00326896)
(0.0745171 0.00195884 0.00195866)
(0.084864 0.00163591 0.00179231)
(0.0848639 0.00179243 0.00163579)
(0.0685475 0.00115929 0.00115892)
(0.078628 0.00107366 0.00122129)
(0.0786279 0.00122155 0.00107342)
(0.0642356 0.000697392 0.000696734)
(0.0740528 0.000785655 0.000864978)
(0.0740526 0.000865438 0.000785117)
(0.0607558 0.000495631 0.000494271)
(0.070442 0.000651049 0.000669084)
(0.0704418 0.000669872 0.00065018)
(0.0579359 0.000376317 0.000373691)
(0.0674908 0.000547749 0.000508113)
(0.0674904 0.000509736 0.000545919)
(0.0556116 0.000290501 0.000286064)
(0.0650495 0.000470646 0.000386721)
(0.0650488 0.000389494 0.000467418)
(0.0536207 0.000231174 0.000223852)
(0.0629639 0.000418232 0.000306671)
(0.0629624 0.000311226 0.000412735)
(0.0518731 0.000190157 0.000177761)
(0.0611281 0.000377772 0.000253036)
(0.0611255 0.000260577 0.000368394)
(0.0503188 0.000162928 0.000141935)
(0.0594825 0.000343228 0.000215939)
(0.0594777 0.000229528 0.000327041)
(0.0489238 0.000145957 0.000111639)
(0.0579924 0.000314008 0.000188987)
(0.0579835 0.000212189 0.000286715)
(0.0476583 0.00013686 8.28183e-05)
(0.0566307 0.000292703 0.000167484)
(0.0566143 0.000203872 0.000247979)
(0.0464978 0.000135246 5.08879e-05)
(0.0553742 0.000281227 0.00014949)
(0.0553454 0.000201234 0.000208696)
(0.0454331 0.000143419 2.12345e-05)
(0.0542072 0.000280648 0.000129909)
(0.0541584 0.000204014 0.000161679)
(0.0444679 0.000171535 -1.86754e-05)
(0.0531299 0.000288909 0.000103765)
(0.0530453 0.000214264 0.000103211)
(0.0436164 0.000227512 -0.000104584)
(0.0521637 0.000321402 4.60269e-05)
(0.052008 0.000249316 1.58697e-05)
(0.0429467 0.000310492 -0.000268367)
(0.0513535 0.000386979 -7.3892e-05)
(0.0510468 0.000311302 -0.000124693)
(0.0425175 5.09215e-05 -0.000967124)
(0.0509127 0.00056294 -0.000211408)
(0.0502653 0.000365252 -0.00039576)
(0.0492964 0.000286289 -0.000990233)
(0.0488231 5.25066e-05 -0.00146815)
(0.0984572 0.00247648 0.00172987)
(0.0996871 0.000439246 0.000345478)
(0.100049 0.00105639 0.000750963)
(0.0958348 0.00314815 0.00243261)
(0.0978161 0.00273288 0.00228225)
(0.0982936 0.00280927 0.00216143)
(0.0914499 0.00223051 0.00186922)
(0.095496 0.00300185 0.00230303)
(0.0963039 0.00244275 0.00199774)
(0.0875949 0.00167498 0.00150535)
(0.0926191 0.00229962 0.00183865)
(0.0936666 0.00198093 0.00172689)
(0.0841471 0.00144069 0.00127544)
(0.0897671 0.00189238 0.00153547)
(0.0909042 0.00172007 0.00149772)
(0.081187 0.00126643 0.00102838)
(0.087232 0.00165728 0.00129434)
(0.0884337 0.00145506 0.00121148)
(0.0786999 0.00111188 0.000793417)
(0.0850065 0.00149333 0.00107671)
(0.0863036 0.0011843 0.000908275)
(0.0765545 0.000995047 0.000624332)
(0.0830608 0.00137373 0.000912593)
(0.0844785 0.000984474 0.00069019)
(0.0746475 0.000910093 0.00051683)
(0.0813246 0.00128217 0.000800561)
(0.0828766 0.000847741 0.000547784)
(0.0729176 0.000839545 0.000450195)
(0.0797465 0.00120005 0.000724697)
(0.081442 0.000748886 0.000453922)
(0.0713282 0.000773771 0.000408142)
(0.0782982 0.00112217 0.000676126)
(0.0801418 0.000670157 0.000388471)
(0.0698566 0.000713742 0.000379942)
(0.0769579 0.00104912 0.000645298)
(0.0789494 0.000604134 0.00033953)
(0.0684851 0.000665471 0.000361528)
(0.0757076 0.000982979 0.000624631)
(0.0778447 0.000552896 0.000301654)
(0.0671986 0.000633214 0.000350949)
(0.0745347 0.000925575 0.00061118)
(0.0768158 0.000517227 0.000272088)
(0.0659867 0.000614984 0.000329149)
(0.0734308 0.000879039 0.000601071)
(0.0758543 0.000497313 0.000243285)
(0.0648692 0.000606341 0.00027399)
(0.0724021 0.000843764 0.000573259)
(0.0749594 0.000491949 0.000187727)
(0.0638933 0.00058834 0.000147732)
(0.071481 0.00081052 0.000514751)
(0.0741443 0.000500979 9.24138e-05)
(0.0632191 0.000601467 -2.4335e-05)
(0.0707282 0.000731001 0.000370876)
(0.0734404 0.000507013 -9.01591e-05)
(0.0631683 0.000496891 -0.000336896)
(0.0703111 0.000598734 0.000181587)
(0.0729698 0.000496427 -0.000438254)
(0.0689183 0.000140164 -0.000218806)
(0.0718107 -1.02017e-05 -0.00165002)
(0.0993753 0.0011822 0.00107254)
(0.099473 0.000349775 0.000307057)
(0.0997475 0.000611002 0.000779868)
(0.0984948 0.00229624 0.00203184)
(0.0990504 0.0015769 0.00172043)
(0.0995971 0.0020184 0.00200282)
(0.0971413 0.00247679 0.00204847)
(0.0983578 0.00213131 0.00216877)
(0.0992973 0.00246173 0.00210228)
(0.0954396 0.00224748 0.00176716)
(0.0971935 0.00203615 0.00200225)
(0.0984883 0.00237483 0.0019024)
(0.093751 0.00202127 0.00152206)
(0.0959056 0.00185619 0.00175409)
(0.0974223 0.00218144 0.00168836)
(0.0921387 0.0018655 0.00134391)
(0.0946727 0.00173359 0.00154216)
(0.0963096 0.00198562 0.00150769)
(0.0906024 0.00175577 0.00121393)
(0.0934835 0.00165415 0.00138566)
(0.0952047 0.0018031 0.00134171)
(0.089153 0.00165905 0.00111221)
(0.0923712 0.00157915 0.00126426)
(0.0941483 0.00164707 0.00120211)
(0.087807 0.00155614 0.00102965)
(0.0913371 0.00148514 0.00116988)
(0.0931664 0.0015088 0.00109308)
(0.086566 0.0014499 0.000967194)
(0.0903513 0.00137707 0.00109988)
(0.0922626 0.00138166 0.00100942)
(0.0854151 0.00134945 0.000925311)
(0.0894268 0.00126954 0.0010521)
(0.0914366 0.00126824 0.00094981)
(0.0843389 0.00125905 0.000899081)
(0.0885565 0.00116692 0.00102128)
(0.09068 0.00117083 0.000908598)
(0.0833255 0.00117766 0.000882556)
(0.0877288 0.00107176 0.00100193)
(0.0899821 0.00108827 0.000878885)
(0.0823703 0.0011022 0.000869636)
(0.0869376 0.000983388 0.000990008)
(0.0893364 0.00101755 0.000854365)
(0.0814781 0.00102877 0.00085243)
(0.0861827 0.000897728 0.00097933)
(0.0887417 0.000955847 0.00082884)
(0.080667 0.000948594 0.000818533)
(0.0854702 0.000803991 0.000961222)
(0.088203 0.000898226 0.000792002)
(0.0799768 0.000841246 0.000746966)
(0.0848159 0.000683361 0.00092332)
(0.0877351 0.000835008 0.000725412)
(0.0794442 0.000682371 0.000624068)
(0.0842432 0.000508889 0.000849281)
(0.0873586 0.000750249 0.000604116)
(0.0791283 0.000295367 0.00040771)
(0.0837871 0.000269389 0.000745076)
(0.0870944 0.000625594 0.000420989)
(0.0831962 -0.000199389 0.000621055)
(0.086752 0.000246466 0.000132185)
(0.0996493 0.000650334 0.000931405)
(0.0994625 0.000129383 0.000192509)
(0.0997993 0.000375142 0.000741353)
(0.0990855 0.001279 0.00182764)
(0.0992626 0.000636904 0.0013706)
(0.0998409 0.00115044 0.00181418)
(0.0984494 0.00154092 0.00210292)
(0.098913 0.000973463 0.00200349)
(0.0999048 0.00153662 0.00209004)
(0.0977081 0.00154713 0.00198868)
(0.0982953 0.00105011 0.00205048)
(0.0997676 0.0016319 0.00202278)
(0.0969404 0.00148053 0.00177567)
(0.0976581 0.00100757 0.00189935)
(0.09951 0.00160991 0.00189522)
(0.0962096 0.00142802 0.00158144)
(0.0970661 0.000960129 0.00169786)
(0.0992006 0.00154814 0.00175097)
(0.0955254 0.00139404 0.001434)
(0.0965082 0.000933225 0.00152002)
(0.0988565 0.00147557 0.00162475)
(0.0948779 0.0013551 0.00132687)
(0.095997 0.000916625 0.00137802)
(0.098514 0.00139449 0.00151332)
(0.0942468 0.00129588 0.00125473)
(0.0955313 0.000901877 0.00127651)
(0.0981828 0.00130203 0.00141684)
(0.0936257 0.00121433 0.00120665)
(0.0950812 0.000868588 0.0012133)
(0.09784 0.00119847 0.00133843)
(0.0930186 0.00111966 0.00117404)
(0.0946332 0.000809903 0.00117858)
(0.0975088 0.00109373 0.00128219)
(0.0924253 0.0010222 0.0011529)
(0.0941882 0.000740724 0.00116228)
(0.0971922 0.000993698 0.00124281)
(0.0918439 0.000926902 0.00114025)
(0.0937435 0.000670769 0.00115547)
(0.0968877 0.000900505 0.00121462)
(0.0912744 0.00083307 0.00113227)
(0.093294 0.000599685 0.00115441)
(0.0965948 0.000813358 0.00119451)
(0.0907181 0.000734778 0.0011234)
(0.0928381 0.000525182 0.00115671)
(0.0963142 0.000727476 0.00117793)
(0.0901773 0.000618129 0.00110712)
(0.0923769 0.000440304 0.00115975)
(0.0960487 0.00063633 0.00115967)
(0.0896557 0.000462219 0.00107766)
(0.0919109 0.000330772 0.00115921)
(0.0957994 0.000527337 0.00113306)
(0.0891529 0.000240672 0.00103617)
(0.0914402 0.000180745 0.00115252)
(0.0955685 0.000384457 0.00109396)
(0.0886689 -6.36365e-05 0.0010403)
(0.0909644 -2.76392e-05 0.0011463)
(0.0953575 0.000188325 0.00105282)
(0.090499 -0.000276949 0.0012275)
(0.0951964 -7.07966e-05 0.0010889)
(0.0996725 0.000154053 0.000629494)
(0.0993802 -9.91697e-09 5.89858e-05)
(0.0997132 0.000103919 0.000687943)
(0.0991592 0.000353293 0.00154421)
(0.0992678 -5.05123e-08 0.00120003)
(0.0998377 0.000341626 0.00162227)
(0.0986639 0.000457731 0.00194734)
(0.0989806 -1.25535e-07 0.00188841)
(0.0999632 0.000485435 0.00199133)
(0.0982129 0.000480796 0.00196029)
(0.098475 -2.31396e-07 0.0020063)
(0.0999922 0.000539544 0.00199646)
(0.0977775 0.000471492 0.00182422)
(0.0979962 -4.04964e-07 0.00191437)
(0.10001 0.000546208 0.0019106)
(0.0973651 0.000457861 0.00164024)
(0.0975721 -7.2234e-07 0.00173427)
(0.100009 0.00053309 0.00180347)
(0.0969987 0.000445179 0.0014667)
(0.0971832 -1.30328e-06 0.00154656)
(0.0999837 0.000510716 0.0016816)
(0.096681 0.000435032 0.00132729)
(0.0968348 -2.25774e-06 0.00138741)
(0.0999432 0.000483697 0.00157049)
(0.0964052 0.000425038 0.00123144)
(0.0965368 -3.87408e-06 0.00126822)
(0.0999056 0.000458742 0.00147789)
(0.0961467 0.000407678 0.00118051)
(0.0962857 -6.53472e-06 0.00119663)
(0.0998772 0.000433071 0.00141272)
(0.09588 0.00037937 0.00116286)
(0.0960169 -1.08916e-05 0.00116784)
(0.0998305 0.000400357 0.00137054)
(0.0955948 0.000342438 0.00116179)
(0.0957316 -1.80135e-05 0.00116365)
(0.0997728 0.000361311 0.00133983)
(0.0952882 0.000298543 0.00116712)
(0.0954301 -2.96878e-05 0.0011695)
(0.0997056 0.000318955 0.00131939)
(0.0949578 0.000247766 0.00117679)
(0.0951028 -4.87928e-05 0.00118062)
(0.099623 0.000272695 0.00130983)
(0.0946023 0.000188146 0.00119169)
(0.094744 -7.81494e-05 0.00119876)
(0.0995227 0.000220216 0.00131033)
(0.0942215 0.000111742 0.00121149)
(0.0943516 -0.000123484 0.00122642)
(0.0994063 0.000157317 0.00131761)
(0.0938134 5.83037e-06 0.00123474)
(0.0939235 -0.000193698 0.00126389)
(0.0992733 7.52907e-05 0.00132932)
(0.0933741 -0.000137253 0.00126427)
(0.0934563 -0.000300132 0.00130858)
(0.0991221 -3.54945e-05 0.0013448)
(0.0928833 -0.000320655 0.00133301)
(0.0929252 -0.000437828 0.00136052)
(0.098947 -0.000178517 0.00136908)
(0.0923475 -0.000659696 0.00142472)
(0.098807 -0.000350375 0.00144175)
(0.0996725 -0.000154117 0.000629522)
(0.0994625 -0.000129406 0.000192526)
(0.0997132 -0.000103947 0.000687945)
(0.0991592 -0.000353466 0.00154423)
(0.0992625 -0.000636992 0.00137061)
(0.0998377 -0.000341737 0.00162228)
(0.0986638 -0.000458064 0.00194737)
(0.0989129 -0.000973625 0.00200353)
(0.0999631 -0.000485656 0.00199132)
(0.0982127 -0.000481384 0.00196038)
(0.0982951 -0.00105038 0.00205058)
(0.099992 -0.000539939 0.00199649)
(0.0977771 -0.000472552 0.00182442)
(0.0976575 -0.00100811 0.00189953)
(0.10001 -0.000546935 0.00191075)
(0.0973641 -0.000459801 0.00164059)
(0.0970649 -0.00096119 0.00169818)
(0.100008 -0.00053441 0.0018038)
(0.0969971 -0.000448626 0.00146726)
(0.096506 -0.000935215 0.00152043)
(0.0999825 -0.000513032 0.00168208)
(0.0966782 -0.000440985 0.00132834)
(0.0959933 -0.000920125 0.00137874)
(0.0999412 -0.000487645 0.00157129)
(0.0964003 -0.000435162 0.00123341)
(0.0955248 -0.000908067 0.00127802)
(0.0999022 -0.000465527 0.0014793)
(0.0961385 -0.000424663 0.00118396)
(0.0950701 -0.000878931 0.00121648)
(0.0998717 -0.000444811 0.00141513)
(0.095866 -0.000407517 0.00116863)
(0.0946143 -0.000826749 0.00118466)
(0.0998215 -0.000420371 0.00137448)
(0.095571 -0.000388715 0.00117136)
(0.0941561 -0.000768139 0.00117292)
(0.0997578 -0.000394507 0.00134644)
(0.0952479 -0.000374474 0.001183)
(0.0936894 -0.000715826 0.0011731)
(0.09968 -0.000372661 0.00133074)
(0.0948909 -0.000370665 0.00120258)
(0.0932041 -0.0006749 0.00118256)
(0.0995798 -0.000358752 0.00132883)
(0.0944951 -0.000384362 0.00123349)
(0.0926909 -0.000649125 0.00120283)
(0.0994517 -0.00035675 0.00134071)
(0.0940553 -0.000422886 0.00127882)
(0.0921408 -0.000644358 0.00123758)
(0.0992936 -0.000373101 0.00136629)
(0.0935646 -0.000494888 0.00133773)
(0.0915424 -0.000666322 0.00129082)
(0.0991043 -0.000413271 0.00140592)
(0.0930155 -0.000604492 0.00140483)
(0.0908837 -0.000726084 0.00136769)
(0.0988807 -0.000485285 0.00145959)
(0.0924059 -0.000801504 0.00145223)
(0.0901189 -0.000815169 0.00146163)
(0.0986015 -0.000586939 0.00151508)
(0.0892142 -0.00108299 0.00146883)
(0.0983317 -0.000762319 0.00151991)
(0.0996493 -0.000650357 0.000931401)
(0.099473 -0.000349771 0.000307058)
(0.0997993 -0.000375147 0.00074135)
(0.0990854 -0.00127905 0.00182768)
(0.0990504 -0.00157688 0.00172046)
(0.0998409 -0.00115046 0.00181418)
(0.0984492 -0.00154102 0.00210303)
(0.0983577 -0.00213127 0.0021689)
(0.0999047 -0.00153666 0.00209011)
(0.0977075 -0.00154737 0.00198887)
(0.0971931 -0.00203607 0.00200248)
(0.0997672 -0.00163199 0.00202301)
(0.0969392 -0.00148109 0.00177597)
(0.0959047 -0.00185616 0.00175443)
(0.0995092 -0.00161016 0.00189567)
(0.0962073 -0.00142911 0.00158181)
(0.094671 -0.00173368 0.00154268)
(0.099199 -0.00154864 0.00175164)
(0.0955213 -0.00139595 0.00143454)
(0.0934805 -0.00165444 0.00138641)
(0.0988538 -0.00147655 0.00162571)
(0.0948708 -0.00135851 0.00132799)
(0.0923659 -0.00157962 0.00126553)
(0.0985093 -0.0013962 0.00151488)
(0.0942345 -0.00130169 0.00125735)
(0.0913278 -0.00148608 0.00117212)
(0.0981748 -0.00130507 0.00141945)
(0.0936046 -0.00122353 0.00121225)
(0.0903354 -0.00137862 0.00110409)
(0.0978265 -0.00120372 0.00134291)
(0.0929827 -0.00113424 0.00118464)
(0.0893997 -0.00127197 0.00105959)
(0.0974859 -0.00110221 0.00129015)
(0.0923649 -0.00104622 0.00117105)
(0.0885102 -0.00117096 0.00103456)
(0.0971529 -0.00100709 0.00125661)
(0.0917436 -0.000968306 0.00116934)
(0.0876508 -0.0010796 0.00102458)
(0.0968213 -0.000922118 0.00123839)
(0.0911094 -0.000905051 0.00117951)
(0.0868069 -0.000999951 0.00102732)
(0.096486 -0.000850009 0.00123435)
(0.0904501 -0.000859541 0.00120347)
(0.0859649 -0.000932119 0.00104259)
(0.0961391 -0.000791831 0.00124474)
(0.089748 -0.000835663 0.00124572)
(0.0851075 -0.000875887 0.00107351)
(0.0957704 -0.000748312 0.00127218)
(0.0889809 -0.000840995 0.0013159)
(0.08421 -0.000835527 0.00112845)
(0.0953647 -0.000722151 0.0013231)
(0.0881234 -0.000875167 0.00141784)
(0.083233 -0.000821566 0.00122343)
(0.0949105 -0.000723042 0.00140278)
(0.0871811 -0.00104191 0.0014721)
(0.0821126 -0.000857555 0.00136118)
(0.0943796 -0.000742023 0.00149793)
(0.0807514 -0.00110109 0.00146392)
(0.0938239 -0.000880026 0.00146554)
(0.0993753 -0.00118216 0.00107257)
(0.0996871 -0.000439233 0.000345488)
(0.0997475 -0.000610985 0.000779882)
(0.0984947 -0.00229615 0.00203196)
(0.0978161 -0.00273279 0.00228231)
(0.099597 -0.00201834 0.00200291)
(0.097141 -0.00247661 0.00204871)
(0.0954958 -0.00300171 0.00230319)
(0.0992971 -0.00246159 0.00210252)
(0.095439 -0.00224718 0.00176754)
(0.0926188 -0.00229937 0.00183894)
(0.0984879 -0.00237456 0.00190281)
(0.0937497 -0.00202079 0.00152259)
(0.0897666 -0.00189189 0.00153589)
(0.0974216 -0.00218099 0.00168897)
(0.0921364 -0.00186477 0.00134474)
(0.0872309 -0.00165645 0.00129502)
(0.0963083 -0.00198487 0.00150855)
(0.0905984 -0.00175465 0.00121532)
(0.0850046 -0.00149191 0.00107781)
(0.0952022 -0.00180196 0.00134308)
(0.0891458 -0.00165721 0.00111449)
(0.0830573 -0.00137138 0.000914432)
(0.094144 -0.00164533 0.00120447)
(0.0877946 -0.00155309 0.00103335)
(0.0813183 -0.00127821 0.00080363)
(0.0931587 -0.00150583 0.00109696)
(0.0865446 -0.00144485 0.000973099)
(0.0797357 -0.00119322 0.00072986)
(0.0922493 -0.00137648 0.00101584)
(0.0853787 -0.00134125 0.000935171)
(0.0782793 -0.00111015 0.000685434)
(0.0914137 -0.00125969 0.000960511)
(0.084277 -0.00124639 0.000916276)
(0.0769246 -0.00102908 0.000661697)
(0.0906407 -0.00115677 0.000926915)
(0.0832209 -0.00115951 0.000912262)
(0.0756495 -0.00095167 0.000651363)
(0.0899161 -0.00106589 0.000910142)
(0.0821933 -0.00107854 0.000920736)
(0.074435 -0.000878773 0.00065021)
(0.0892267 -0.000982552 0.000906688)
(0.0811774 -0.00100277 0.000943284)
(0.073262 -0.000808736 0.0006591)
(0.0885595 -0.000903077 0.000916299)
(0.0801448 -0.000931963 0.000986612)
(0.072112 -0.000729291 0.000682225)
(0.0878976 -0.000826383 0.000944314)
(0.0790557 -0.000867228 0.00106371)
(0.0709644 -0.000636041 0.000726868)
(0.0872172 -0.000749505 0.000999154)
(0.0778478 -0.000826603 0.00118535)
(0.069774 -0.000520405 0.000804028)
(0.0864791 -0.000670946 0.00109302)
(0.0764428 -0.000857041 0.00134349)
(0.0684981 -0.000377706 0.000901267)
(0.0856292 -0.000597901 0.00121189)
(0.0669561 -0.000292287 0.00126166)
(0.0847623 -0.000551055 0.00127339)
(0.0984572 -0.00247644 0.00172992)
(0.0973536 -0.00106248 -0.00148427)
(0.100049 -0.00105638 0.000750979)
(0.0958347 -0.00314804 0.00243273)
(0.0930872 -0.00326896 0.00253351)
(0.0982936 -0.00280918 0.00216153)
(0.0914498 -0.00223032 0.00186944)
(0.0848639 -0.0016358 0.00179243)
(0.0963038 -0.00244257 0.00199792)
(0.0875947 -0.00167459 0.00150571)
(0.0786279 -0.00107342 0.00122155)
(0.0936665 -0.0019806 0.00172724)
(0.0841467 -0.00143999 0.00127604)
(0.0740526 -0.000785129 0.000865435)
(0.090904 -0.00171947 0.00149827)
(0.0811862 -0.00126522 0.00102941)
(0.0704418 -0.000650196 0.000669866)
(0.0884334 -0.00145406 0.00121249)
(0.0786985 -0.00110976 0.000795103)
(0.0674904 -0.000545942 0.000509724)
(0.086303 -0.00118256 0.000909948)
(0.0765518 -0.000991373 0.000627142)
(0.0650488 -0.000467449 0.000389476)
(0.0844774 -0.000981508 0.000692992)
(0.0746425 -0.000903657 0.000521612)
(0.0629624 -0.000412774 0.000311202)
(0.0828746 -0.000842583 0.000552595)
(0.0729085 -0.000828214 0.000459144)
(0.0611255 -0.000368444 0.000260544)
(0.0814383 -0.00073983 0.000462332)
(0.0713115 -0.000754339 0.000424565)
(0.0594776 -0.000327104 0.000229485)
(0.0801351 -0.000653853 0.000404396)
(0.069826 -0.000681775 0.000406702)
(0.0579834 -0.000286794 0.000212129)
(0.0789369 -0.000576765 0.000366981)
(0.0684303 -0.00061403 0.000398745)
(0.0566143 -0.000248058 0.000203787)
(0.077822 -0.000509323 0.000345308)
(0.0671038 -0.000549441 0.000398573)
(0.0553454 -0.000208809 0.000201142)
(0.0767758 -0.000450162 0.000335735)
(0.0658241 -0.00047003 0.000407138)
(0.0541584 -0.000161843 0.000203906)
(0.0757865 -0.00039109 0.000338562)
(0.0645818 -0.000361752 0.000429716)
(0.0530454 -0.000103381 0.00021412)
(0.0748419 -0.000306539 0.00035933)
(0.0633573 -0.000221205 0.000475956)
(0.0520081 -1.60748e-05 0.000249109)
(0.073928 -0.000193163 0.000405168)
(0.0621178 -1.68376e-05 0.000533898)
(0.0510471 0.000124469 0.000311022)
(0.0730143 -3.2231e-05 0.000481055)
(0.060862 0.000280936 0.000793674)
(0.050266 0.000395586 0.000364812)
(0.0720704 0.000262288 0.000511952)
(0.0488242 0.00146815 5.19041e-05)
(0.0711532 0.000815031 0.000626066)
(0.0993441 0.00341902 -0.003419)
(0.0973536 0.00148428 0.00106247)
(0.0834791 -0.00197585 0.00197593)
(0.0930872 -0.00253344 0.00326903)
(0.0745171 -0.00195867 0.00195884)
(0.084864 -0.00179231 0.00163591)
(0.0685475 -0.00115892 0.00115928)
(0.078628 -0.00122129 0.00107366)
(0.0642356 -0.000696745 0.000697385)
(0.0740527 -0.000864985 0.000785645)
(0.0607558 -0.000494287 0.000495618)
(0.070442 -0.000669094 0.000651035)
(0.0579359 -0.000373715 0.000376296)
(0.0674908 -0.00050813 0.000547729)
(0.0556116 -0.000286096 0.000290472)
(0.0650495 -0.000386745 0.000470618)
(0.0536207 -0.000223891 0.000231137)
(0.0629638 -0.000306701 0.000418196)
(0.0518731 -0.000177809 0.000190108)
(0.0611281 -0.000253074 0.000377726)
(0.0503187 -0.000141994 0.000162865)
(0.0594825 -0.00021599 0.000343173)
(0.0489238 -0.000111706 0.000145868)
(0.0579924 -0.000189053 0.00031394)
(0.0476583 -8.29015e-05 0.000136749)
(0.0566307 -0.000167557 0.000292604)
(0.0464978 -5.10033e-05 0.000135126)
(0.0553741 -0.000149571 0.000281103)
(0.0454331 -2.13433e-05 0.000143268)
(0.0542072 -0.000130011 0.000280499)
(0.0444678 1.85542e-05 0.000171328)
(0.0531299 -0.000103874 0.000288712)
(0.0436165 0.000104409 0.000227253)
(0.0521637 -4.61806e-05 0.000321138)
(0.0429471 0.000268179 0.00031016)
(0.0513536 7.37294e-05 0.000386628)
(0.0425186 0.000966916 5.05783e-05)
(0.0509133 0.0002113 0.000562423)
(0.0492973 0.00098989 0.000285808)
(0.0984572 0.00172992 0.00247643)
(0.100049 0.00075098 0.00105637)
(0.0996871 0.000345487 0.000439231)
(0.0958347 0.00243273 0.00314804)
(0.0982936 0.00216153 0.00280918)
(0.0978161 0.00228231 0.00273279)
(0.0914498 0.00186944 0.00223032)
(0.0963038 0.00199793 0.00244256)
(0.0954958 0.00230319 0.00300171)
(0.0875947 0.00150571 0.00167458)
(0.0936665 0.00172725 0.00198059)
(0.0926188 0.00183894 0.00229936)
(0.0841467 0.00127604 0.00143997)
(0.090904 0.00149827 0.00171946)
(0.0897666 0.0015359 0.00189187)
(0.0811862 0.00102942 0.0012652)
(0.0884334 0.0012125 0.00145404)
(0.0872309 0.00129502 0.00165643)
(0.0786985 0.000795112 0.00110974)
(0.086303 0.000909959 0.00118254)
(0.0850046 0.00107782 0.00149188)
(0.0765518 0.000627157 0.000991341)
(0.0844774 0.000693008 0.000981478)
(0.0830573 0.000914446 0.00137135)
(0.0746425 0.000521633 0.000903616)
(0.0828746 0.000552617 0.000842543)
(0.0813183 0.000803649 0.00127817)
(0.0729085 0.000459174 0.000828159)
(0.0814384 0.00046236 0.000739778)
(0.0797357 0.000729887 0.00119317)
(0.0713115 0.000424608 0.000754269)
(0.0801351 0.000404431 0.000653782)
(0.0782793 0.00068547 0.00111009)
(0.069826 0.00040676 0.000681696)
(0.0789369 0.000367029 0.000576676)
(0.0769246 0.00066175 0.00102901)
(0.0684302 0.000398821 0.000613945)
(0.0778219 0.000345392 0.000509249)
(0.0756495 0.000651426 0.000951576)
(0.0671038 0.000398678 0.000549326)
(0.0767758 0.000335811 0.000450045)
(0.074435 0.000650308 0.000878688)
(0.065824 0.000407272 0.000469856)
(0.0757865 0.00033864 0.000390882)
(0.0732619 0.000659257 0.000808657)
(0.0645816 0.000429883 0.000361532)
(0.0748418 0.00035948 0.000306301)
(0.0721119 0.000682416 0.000729178)
(0.0633569 0.0004762 0.000220973)
(0.0739279 0.000405387 0.000192911)
(0.0709642 0.000727107 0.000635916)
(0.0621171 0.000534305 1.66321e-05)
(0.0730142 0.000481399 3.19693e-05)
(0.0697736 0.000804381 0.000520308)
(0.0608608 0.000794323 -0.000281068)
(0.0720702 0.000512511 -0.000262538)
(0.0684974 0.000901841 0.000377743)
(0.071153 0.000626617 -0.000815572)
(0.0669552 0.0012625 0.000292443)
(0.10008 0.00135181 0.00135175)
(0.100186 0.000798785 0.000804942)
(0.100186 0.000804967 0.00079876)
(0.100264 0.00221741 0.00221724)
(0.10019 0.00231195 0.00207143)
(0.100189 0.00207155 0.00231185)
(0.0993826 0.002436 0.00243565)
(0.100306 0.0026339 0.00245298)
(0.100306 0.00245328 0.00263369)
(0.0979836 0.00231065 0.00231009)
(0.0998047 0.00256077 0.00245579)
(0.0998046 0.0024563 0.00256037)
(0.0964942 0.00200681 0.00200584)
(0.0988623 0.00236503 0.00228067)
(0.098862 0.00228145 0.0023644)
(0.0950712 0.00159796 0.00159632)
(0.0978401 0.00205006 0.00196759)
(0.0978396 0.00196878 0.00204892)
(0.093773 0.00122797 0.00122522)
(0.0968601 0.00169292 0.00160384)
(0.0968592 0.00160575 0.00169107)
(0.0926137 0.000965011 0.000960276)
(0.0959572 0.0014074 0.00132018)
(0.0959557 0.00132349 0.00140436)
(0.0915871 0.000782946 0.000774665)
(0.0951442 0.00119643 0.0011164)
(0.0951416 0.0011221 0.0011911)
(0.0906769 0.000654657 0.000639676)
(0.0944197 0.00103999 0.0009681)
(0.094415 0.000977917 0.00103062)
(0.089862 0.000562562 0.000536602)
(0.0937781 0.000922456 0.000857288)
(0.0937698 0.000874754 0.00090606)
(0.0891209 0.000498016 0.000456055)
(0.0932054 0.000834029 0.000773131)
(0.0931912 0.000802345 0.000806671)
(0.088439 0.000455433 0.000390933)
(0.0926883 0.000769073 0.000707293)
(0.0926649 0.000754372 0.000725007)
(0.0878107 0.000430092 0.000330958)
(0.0922212 0.000722002 0.000650947)
(0.0921836 0.000724529 0.000652477)
(0.0872344 0.000422549 0.000258655)
(0.0918031 0.000690734 0.000594303)
(0.091743 0.000711183 0.000579888)
(0.0866989 0.000437579 0.000157843)
(0.0914304 0.000674933 0.000521208)
(0.0913335 0.000719266 0.000493166)
(0.0861936 0.000479811 9.14819e-06)
(0.0910946 0.000677112 0.000418717)
(0.0909398 0.000754721 0.000384671)
(0.0856794 0.000507962 -0.000256329)
(0.0907805 0.000702376 0.000264824)
(0.0905403 0.000824175 0.000239927)
(0.0850687 0.000399636 -0.000815278)
(0.090453 0.000715659 -7.34352e-07)
(0.0900958 0.00087267 1.61164e-05)
(0.0904021 0.00062967 -0.000493158)
(0.0899906 0.000761901 -0.000372287)
(0.100171 0.00136877 0.00141637)
(0.100118 0.000577446 0.000811289)
(0.100102 0.000699803 0.000700676)
(0.100759 0.0021951 0.00214894)
(0.100478 0.00158299 0.0018587)
(0.100477 0.00182268 0.00186461)
(0.100996 0.00247731 0.00238769)
(0.101004 0.00205901 0.00224237)
(0.101024 0.00234707 0.00238285)
(0.100838 0.00247685 0.00238868)
(0.101292 0.00220392 0.00235175)
(0.101337 0.00250648 0.00254353)
(0.100457 0.00231258 0.00222411)
(0.101309 0.00216806 0.00232146)
(0.101408 0.00245133 0.00247198)
(0.0999669 0.00205826 0.00196709)
(0.101156 0.00201195 0.00217772)
(0.101301 0.00226582 0.00226992)
(0.0994422 0.00179313 0.0016981)
(0.100926 0.00179551 0.00196687)
(0.101097 0.00201101 0.0019978)
(0.0989316 0.00156742 0.00148047)
(0.100664 0.0015863 0.00176318)
(0.100852 0.00177315 0.00175638)
(0.0984618 0.00138475 0.00131632)
(0.100408 0.00139977 0.00158633)
(0.100603 0.00157379 0.00156158)
(0.0980435 0.00123598 0.00119253)
(0.100172 0.00123621 0.00143913)
(0.100374 0.00140985 0.00140611)
(0.0976771 0.00111543 0.00110005)
(0.0999657 0.00109967 0.00132949)
(0.100175 0.00127609 0.00128265)
(0.0973593 0.00101897 0.0010298)
(0.0997901 0.000987601 0.00124902)
(0.100009 0.00116867 0.00118459)
(0.0970875 0.000942574 0.000971946)
(0.0996443 0.000895231 0.00118754)
(0.0998767 0.00108425 0.00110445)
(0.0968591 0.000882996 0.000918183)
(0.0995272 0.000818242 0.0011368)
(0.0997766 0.00101965 0.00103425)
(0.0966735 0.000836586 0.000860616)
(0.0994388 0.00075098 0.00109028)
(0.0997079 0.000973082 0.000967103)
(0.0965294 0.000798813 0.000786185)
(0.0993803 0.00068891 0.0010404)
(0.0996692 0.000942429 0.000895145)
(0.0964251 0.000767497 0.00067815)
(0.0993512 0.000626845 0.000974993)
(0.0996582 0.000926867 0.000806012)
(0.0963515 0.000734819 0.000520728)
(0.0993502 0.00056058 0.000882905)
(0.0996721 0.000925954 0.000689964)
(0.0962802 0.000656427 0.000313319)
(0.0993622 0.000475184 0.000758605)
(0.0996995 0.00092126 0.000536341)
(0.0994924 0.000322549 0.000633162)
(0.0998812 0.000855042 0.000375215)
(0.100242 0.000820248 0.0012561)
(0.10009 0.000294356 0.00073534)
(0.100071 0.000415715 0.000602758)
(0.100828 0.00139074 0.00193924)
(0.100491 0.000792053 0.00168397)
(0.100492 0.00112454 0.00158693)
(0.101392 0.00166376 0.00218198)
(0.101086 0.00107785 0.00208329)
(0.101128 0.00154108 0.00209396)
(0.101816 0.00176158 0.00226056)
(0.101664 0.00120452 0.00217871)
(0.101768 0.0017331 0.00229387)
(0.102081 0.00175604 0.00226096)
(0.102121 0.00124001 0.00222127)
(0.102291 0.00179052 0.00236655)
(0.102215 0.00166921 0.0021751)
(0.102452 0.00120234 0.0022089)
(0.102711 0.00174483 0.00232078)
(0.102266 0.00153525 0.00203904)
(0.10268 0.00111905 0.00212445)
(0.103037 0.00162769 0.00220028)
(0.102277 0.00138443 0.00188159)
(0.102842 0.00101837 0.00200253)
(0.103287 0.00148178 0.00204671)
(0.102276 0.00123351 0.00172472)
(0.102968 0.000918151 0.00186557)
(0.103493 0.00133125 0.00188589)
(0.102273 0.00109662 0.00159387)
(0.103073 0.000823916 0.00173665)
(0.10367 0.00119039 0.00173896)
(0.102275 0.000980266 0.00149817)
(0.10317 0.000738854 0.00163132)
(0.103832 0.00106875 0.0016214)
(0.102286 0.000880904 0.00142805)
(0.103267 0.000662473 0.00154689)
(0.103989 0.000965996 0.00152847)
(0.102307 0.000793887 0.00137504)
(0.103368 0.000593175 0.001485)
(0.104146 0.000878015 0.00145438)
(0.102342 0.000713674 0.00133301)
(0.10347 0.000528919 0.00144335)
(0.104306 0.000802013 0.00139415)
(0.102391 0.000634604 0.001296)
(0.103575 0.000463428 0.00141483)
(0.104474 0.000732848 0.00134293)
(0.102457 0.000551877 0.0012577)
(0.103685 0.000392233 0.00139167)
(0.104652 0.000668392 0.001295)
(0.102541 0.000458504 0.00121207)
(0.103802 0.000309132 0.00136919)
(0.104842 0.000604563 0.00124487)
(0.102642 0.000345761 0.00115935)
(0.103925 0.00020763 0.00134511)
(0.105047 0.000535938 0.00118801)
(0.102762 0.000201686 0.0011279)
(0.10405 7.85508e-05 0.00132378)
(0.105267 0.000453042 0.00112524)
(0.104255 -8.09177e-05 0.00133716)
(0.10556 0.000341856 0.00109613)
(0.100243 0.000267432 0.00116239)
(0.100087 -2.04536e-08 0.000707012)
(0.100064 0.000135824 0.00053732)
(0.100782 0.000465788 0.00182619)
(0.100477 -6.00546e-08 0.00161777)
(0.100463 0.000370935 0.0014241)
(0.101401 0.000575599 0.00207607)
(0.101066 -1.03981e-07 0.00203461)
(0.101089 0.000525257 0.00193351)
(0.101988 0.000622991 0.00213366)
(0.101694 -1.97807e-07 0.00211754)
(0.101798 0.000606017 0.00212845)
(0.102507 0.000631199 0.00216447)
(0.102269 -3.78988e-07 0.00214993)
(0.10249 0.000639493 0.00221063)
(0.102936 0.000610406 0.00215612)
(0.102742 -6.75628e-07 0.00217934)
(0.10312 0.000634429 0.00224097)
(0.103279 0.000571357 0.00208798)
(0.103125 -1.11952e-06 0.00213347)
(0.103688 0.0006013 0.00219585)
(0.103558 0.000525347 0.00198789)
(0.103429 -1.83407e-06 0.0020434)
(0.104187 0.000555415 0.00210457)
(0.103793 0.000480144 0.00187953)
(0.103682 -3.09663e-06 0.00193376)