/*--------------------------------*- C++ -*----------------------------------*\
| =========                 |                                                 |
| \\      /  F ield         | OpenFOAM: The Open Source CFD Toolbox           |
|  \\    /   O peration     | Version:  2212                                  |
|   \\  /    A nd           | Website:  www.openfoam.com                      |
|    \\/     M anipulation  |                                                 |
\*---------------------------------------------------------------------------*/
FoamFile
{
    version     2.0;
    format      ascii;
    arch        "LSB;label=32;scalar=64";
    class       volVectorField;
    location    "0.6";
    object      U;
}
// * * * * * * * * * * * * * * * * * * * * * * * * * * * * * * * * * * * * * //

dimensions      [0 1 -1 0 0 0 0];

internalField   nonuniform List<vector> 
690
(
(0.074061 -0.00314239 -0.0015407)
(0.0756342 -0.0026056 -0.000879607)
(0.07711 -0.00203322 -0.000424673)
(0.099491 -0.000625127 0.000631116)
(0.0996231 -0.000699578 0.00077612)
(0.0998597 -0.000642092 0.000839141)
(0.108134 -1.13471e-05 0.00111979)
(0.108483 -0.000116356 0.00107706)
(0.108803 -0.000140524 0.00106492)
(0.0777529 -0.00129944 -0.00155893)
(0.0790164 -0.000977931 -0.00157269)
(0.0803138 -0.000679633 -0.00132457)
(0.0814969 -0.000471621 -0.00103812)
(0.0823921 -0.000302792 -0.000777421)
(0.0830172 -0.000160565 -0.000554264)
(0.0834308 -4.96959e-05 -0.000376834)
(0.0836963 2.94295e-05 -0.00024513)
(0.0838458 8.16554e-05 -0.000150907)
(0.0839108 0.000113921 -8.40521e-05)
(0.0839216 0.000131438 -3.72252e-05)
(0.0838974 0.000138136 -5.82081e-06)
(0.100845 0.000158791 -0.000340125)
(0.101154 0.000277393 -0.00046155)
(0.101499 0.000343921 -0.000445575)
(0.101996 0.000374706 -0.000373724)
(0.102506 0.000392675 -0.000287464)
(0.102955 0.00038156 -0.000220915)
(0.103346 0.00035446 -0.000169841)
(0.10368 0.000332135 -0.00011922)
(0.10396 0.000311153 -7.38034e-05)
(0.10419 0.000289573 -3.69296e-05)
(0.104375 0.000264916 -1.0918e-05)
(0.104524 0.000237501 5.19391e-06)
(0.109162 0.000655051 0.0002061)
(0.109489 0.000577446 0.000101878)
(0.109805 0.000544223 7.20907e-05)
(0.110199 0.000522278 7.41509e-05)
(0.11061 0.000499872 8.37071e-05)
(0.110993 0.00047229 9.19225e-05)
(0.111337 0.000439803 9.71863e-05)
(0.111642 0.000405274 9.98795e-05)
(0.111908 0.000370766 0.000100929)
(0.112138 0.000336966 0.000100276)
(0.112334 0.000303419 9.67774e-05)
(0.112498 0.00026912 8.94454e-05)
(0.0822662 0.000306807 -0.00235197)
(0.0830839 0.000770236 -0.00227601)
(0.0837882 0.000865492 -0.00194545)
(0.084274 0.000790395 -0.00155364)
(0.0845394 0.000684156 -0.00119238)
(0.084645 0.000580699 -0.000883087)
(0.0846503 0.00048568 -0.000630991)
(0.0845934 0.000407944 -0.000437605)
(0.0844962 0.000345896 -0.000296668)
(0.0843779 0.000296769 -0.000196868)
(0.0842535 0.000256616 -0.000127634)
(0.0841308 0.000222519 -7.67429e-05)
(0.102624 0.0013158 -0.000941029)
(0.102841 0.00149416 -0.00113855)
(0.103121 0.00153418 -0.001153)
(0.103458 0.00147165 -0.00105297)
(0.103755 0.00135207 -0.000911491)
(0.103997 0.0011923 -0.000772718)
(0.104194 0.00102897 -0.00064092)
(0.104351 0.000880181 -0.000516178)
(0.104476 0.00074774 -0.000404771)
(0.104573 0.000632317 -0.000310581)
(0.104649 0.000531206 -0.000235085)
(0.10471 0.000442347 -0.000176609)
(0.10949 0.00143018 -0.000293625)
(0.109834 0.00147486 -0.000386888)
(0.110168 0.00147308 -0.000431073)
(0.110543 0.00141453 -0.000431202)
(0.1109 0.00131692 -0.000401963)
(0.111211 0.00119678 -0.000359679)
(0.111474 0.001067 -0.000312896)
(0.111695 0.000936846 -0.00026499)
(0.11188 0.000812842 -0.00021873)
(0.112035 0.000698598 -0.000176329)
(0.112164 0.000594892 -0.000139206)
(0.112271 0.000500777 -0.000108691)
(0.11262 0.00123867 -5.71608e-05)
(0.113089 0.00124931 -7.2428e-05)
(0.113495 0.00123167 -8.17641e-05)
(0.113914 0.00118263 -8.48239e-05)
(0.114314 0.00110851 -8.22978e-05)
(0.114673 0.00101777 -7.71475e-05)
(0.114989 0.000918341 -7.07515e-05)
(0.115266 0.000816609 -6.34195e-05)
(0.115507 0.000717162 -5.56743e-05)
(0.115714 0.000622714 -4.80596e-05)
(0.115892 0.000534273 -4.09811e-05)
(0.116043 0.000452527 -3.47466e-05)
(0.114186 0.000806572 -0.000121252)
(0.1147 0.000762914 -0.000105521)
(0.115135 0.000737528 -9.39738e-05)
(0.115576 0.000710204 -8.62707e-05)
(0.116 0.000673373 -8.04989e-05)
(0.116391 0.000627613 -7.56133e-05)
(0.116745 0.000575732 -7.11727e-05)
(0.117064 0.000520664 -6.69565e-05)
(0.117348 0.000464713 -6.27546e-05)
(0.117599 0.000409546 -5.84236e-05)
(0.117818 0.000356114 -5.3814e-05)
(0.118007 0.000305271 -4.88782e-05)
(0.114812 0.000282752 -0.000397694)
(0.115284 0.000274586 -0.00039125)
(0.115707 0.000265209 -0.000378693)
(0.11614 0.000251861 -0.000359395)
(0.116562 0.000235819 -0.000336064)
(0.116958 0.000218086 -0.000310549)
(0.117322 0.000199474 -0.000284193)
(0.117654 0.000180584 -0.000257867)
(0.117953 0.000161797 -0.000231996)
(0.11822 0.00014336 -0.000206754)
(0.118454 0.000125331 -0.000182058)
(0.118656 0.000107753 -0.000158016)
(0.114186 -0.000121169 -0.00080645)
(0.1147 -0.000105225 -0.000762895)
(0.115135 -9.34695e-05 -0.000737692)
(0.115575 -8.55615e-05 -0.000710592)
(0.116 -7.96107e-05 -0.000674)
(0.11639 -7.45872e-05 -0.000628464)
(0.116744 -7.00535e-05 -0.000576765)
(0.117063 -6.57769e-05 -0.000521796)
(0.117347 -6.1514e-05 -0.000465772)
(0.117599 -5.70972e-05 -0.000410231)
(0.117817 -5.25072e-05 -0.000356069)
(0.118006 -4.81462e-05 -0.000304318)
(0.112421 -0.00027668 -0.00105929)
(0.112831 -0.000216917 -0.00104972)
(0.113198 -0.000185378 -0.00103333)
(0.113591 -0.000169883 -0.000996608)
(0.11398 -0.000159686 -0.000938123)
(0.114336 -0.000150859 -0.000864753)
(0.114653 -0.000143127 -0.000783849)
(0.114935 -0.000136806 -0.000701312)
(0.115183 -0.00013107 -0.000619259)
(0.115397 -0.000124974 -0.00053886)
(0.11558 -0.000117818 -0.000461439)
(0.115736 -0.000110225 -0.000389447)
(0.108133 1.21788e-05 -0.0011192)
(0.108482 0.00011726 -0.00107654)
(0.108802 0.000140951 -0.00106518)
(0.109189 0.000123841 -0.00102308)
(0.109575 8.97354e-05 -0.000949944)
(0.109917 5.11883e-05 -0.000860859)
(0.110211 1.36371e-05 -0.000767183)
(0.110463 -2.1781e-05 -0.000675539)
(0.110678 -5.1244e-05 -0.000588234)
(0.110861 -7.32928e-05 -0.000506573)
(0.111014 -8.77208e-05 -0.000429159)
(0.0994923 0.00062598 -0.000630304)
(0.0996245 0.000700834 -0.00077487)
(0.0998613 0.000642772 -0.000838558)
(0.10029 0.000519201 -0.000823579)
(0.100727 0.000384468 -0.000758458)
(0.101098 0.000272825 -0.000659102)
(0.101407 0.000177654 -0.000559455)
(0.101661 9.03971e-05 -0.000474126)
(0.101867 2.25616e-05 -0.000401488)
(0.102031 -2.73881e-05 -0.000339099)
(0.102161 -6.09888e-05 -0.000283994)
(0.0740645 0.00314341 0.00154199)
(0.0756393 0.00260663 0.000880985)
(0.0771163 0.00203461 0.000426701)
(0.0783404 0.00148139 0.000201983)
(0.0791765 0.00102156 6.98173e-05)
(0.0796792 0.000661542 -1.24364e-05)
(0.0799646 0.000392869 -5.62005e-05)
(0.0801127 0.000203135 -7.56274e-05)
(0.0801619 7.53134e-05 -8.52567e-05)
(0.0801444 -9.18783e-06 -8.97859e-05)
(0.0800861 -6.26348e-05 -9.00819e-05)
(0.0864778 0.00210226 -0.00250112)
(0.0860923 0.00271295 -0.00229797)
(0.0854892 0.00244078 -0.00188193)
(0.0845797 0.00196751 -0.0014456)
(0.0835781 0.00157515 -0.0010675)
(0.0826566 0.00122602 -0.000760959)
(0.0818661 0.000933841 -0.000521017)
(0.0812039 0.000700324 -0.000347033)
(0.0806566 0.000532549 -0.0002365)
(0.0802107 0.000414034 -0.000156864)
(0.0798485 0.000329013 -0.000103628)
(0.0795542 0.0002655 -6.76603e-05)
(0.102007 0.00244734 -0.00126105)
(0.102566 0.00282953 -0.00129412)
(0.10293 0.00277381 -0.00123053)
(0.103079 0.00249113 -0.00110471)
(0.103034 0.00214953 -0.000953483)
(0.102885 0.00181514 -0.000799981)
(0.102694 0.00151108 -0.000657106)
(0.102492 0.00124491 -0.000531702)
(0.102303 0.0010207 -0.000425792)
(0.102134 0.000834532 -0.000338171)
(0.101993 0.000681136 -0.000267535)
(0.101878 0.000553776 -0.000211213)
(0.107798 0.00226003 -0.000619329)
(0.10839 0.0024489 -0.000657725)
(0.108846 0.00244391 -0.000638615)
(0.109235 0.00228691 -0.000582258)
(0.109503 0.00206224 -0.000510909)
(0.109658 0.00181776 -0.000440276)
(0.109736 0.00157442 -0.000376142)
(0.109768 0.00134365 -0.000319461)
(0.109773 0.00113373 -0.00027016)
(0.109765 0.00094834 -0.000227441)
(0.109752 0.000786664 -0.000190473)
(0.109742 0.000646219 -0.000158898)
(0.111001 0.00182615 -0.000215619)
(0.111388 0.00183459 -0.000207889)
(0.111751 0.00181971 -0.000193848)
(0.112129 0.00174218 -0.000175722)
(0.11247 0.00161456 -0.00015648)
(0.11275 0.00146035 -0.000139394)
(0.112976 0.00129611 -0.00012595)
(0.11316 0.00113255 -0.000115952)
(0.113309 0.00097699 -0.000108388)
(0.113431 0.000833016 -0.000101973)
(0.113531 0.000701495 -9.55644e-05)
(0.113613 0.000583092 -8.85304e-05)
(0.112421 0.00105941 -0.000276674)
(0.112831 0.00104978 -0.000217059)
(0.113198 0.00103328 -0.000185692)
(0.113591 0.000996427 -0.000170391)
(0.113979 0.000937794 -0.000160406)
(0.114335 0.000864268 -0.00015179)
(0.114652 0.000783195 -0.000144245)
(0.114934 0.000700504 -0.000138094)
(0.115181 0.000618521 -0.000132575)
(0.115395 0.000538634 -0.000126831)
(0.115578 0.000462411 -0.000120088)
(0.115734 0.000390868 -0.000111754)
(0.112974 0.000437662 -0.000666612)
(0.113427 0.000380627 -0.000628359)
(0.113816 0.000347905 -0.000600518)
(0.114225 0.000324826 -0.00057261)
(0.11463 0.000303704 -0.000539223)
(0.115008 0.000281598 -0.000500053)
(0.115353 0.000258438 -0.000457397)
(0.115663 0.000235165 -0.000414137)
(0.11594 0.000212157 -0.00037193)
(0.116183 0.000189425 -0.000331325)
(0.116394 0.000166719 -0.000292057)
(0.116575 0.000143793 -0.000253814)
(0.11262 -5.7262e-05 -0.00123832)
(0.113088 -7.2278e-05 -0.00124901)
(0.113494 -8.12867e-05 -0.00123147)
(0.113913 -8.39895e-05 -0.00118262)
(0.114313 -8.11696e-05 -0.00110876)
(0.114671 -7.58178e-05 -0.0010183)
(0.114987 -6.93025e-05 -0.000919173)
(0.115263 -6.19078e-05 -0.000817728)
(0.115503 -5.41031e-05 -0.000718487)
(0.11571 -4.63795e-05 -0.000624024)
(0.115887 -3.92749e-05 -0.000535164)
(0.116038 -3.36288e-05 -0.000452355)
(0.111001 -0.000215868 -0.00182592)
(0.111388 -0.000207985 -0.00183439)
(0.111751 -0.00019374 -0.00181958)
(0.112128 -0.000175362 -0.00174215)
(0.112469 -0.000155862 -0.00161467)
(0.112749 -0.00013855 -0.00146067)
(0.112975 -0.000124941 -0.00129672)
(0.113159 -0.000114824 -0.00113349)
(0.113308 -0.000107117 -0.000978153)
(0.11343 -0.00010043 -0.000833951)
(0.11353 -9.36698e-05 -0.000701303)
(0.113613 -8.70972e-05 -0.000582262)
(0.106834 0.000134126 -0.00215015)
(0.1072 0.000214528 -0.00229209)
(0.107492 0.000228618 -0.0022553)
(0.107782 0.000207802 -0.00208302)
(0.108001 0.000173841 -0.00185375)
(0.108141 0.000134761 -0.00161429)
(0.108225 9.41175e-05 -0.0013847)
(0.108276 5.39579e-05 -0.00117532)
(0.108308 1.64244e-05 -0.000990304)
(0.108329 -1.55028e-05 -0.000827964)
(0.108345 -3.89003e-05 -0.00068298)
(0.097977 0.000926777 -0.00206041)
(0.0980599 0.000982269 -0.00241528)
(0.0982437 0.0008779 -0.00239178)
(0.0983809 0.000719857 -0.00211667)
(0.0984152 0.000568407 -0.00175984)
(0.098381 0.000429658 -0.00142015)
(0.0983164 0.000300122 -0.0011375)
(0.0982438 0.000188473 -0.000911381)
(0.098173 9.78785e-05 -0.000733056)
(0.0981093 2.92456e-05 -0.000591264)
(0.0980554 -1.93607e-05 -0.000476595)
(0.0715853 0.00340053 -9.05925e-05)
(0.0731194 0.00287066 -0.00103922)
(0.0741373 0.00218709 -0.0011046)
(0.0745044 0.00150044 -0.000866578)
(0.0744333 0.000967179 -0.000643549)
(0.0741769 0.000586974 -0.000466093)
(0.0738862 0.000324214 -0.000326993)
(0.0735986 0.000147476 -0.000232682)
(0.0733232 3.11136e-05 -0.000176343)
(0.073067 -4.37322e-05 -0.000141082)
(0.072832 -8.9647e-05 -0.000117308)
(0.0861221 0.00394052 -0.00230978)
(0.0832508 0.00416305 -0.0019331)
(0.0802138 0.0032171 -0.00133238)
(0.0771749 0.00227224 -0.000799631)
(0.0746687 0.00158224 -0.000464711)
(0.0728056 0.00112002 -0.000266153)
(0.0714335 0.00077896 -0.000147884)
(0.0704056 0.000550813 -8.009e-05)
(0.0696295 0.000401903 -4.34112e-05)
(0.0690496 0.000303131 -2.67932e-05)
(0.0685975 0.000235351 -1.97567e-05)
(0.0682479 0.000187123 -1.6574e-05)
(0.0970668 0.00369145 -0.00129561)
(0.0985522 0.00416734 -0.00124722)
(0.0989443 0.0036232 -0.00103061)
(0.098585 0.00288222 -0.000793435)
(0.0978882 0.00230446 -0.000606164)
(0.0971311 0.00185551 -0.000467384)
(0.0964261 0.00149319 -0.00036633)
(0.0958074 0.00118369 -0.000291674)
(0.0952901 0.000930574 -0.000236658)
(0.0948695 0.000737866 -0.00019628)
(0.094539 0.000589743 -0.000165686)
(0.0942706 0.000473642 -0.000141624)
(0.104449 0.00303823 -0.000348701)
(0.104766 0.00325561 -0.000397456)
(0.105063 0.00310896 -0.000368736)
(0.105164 0.00274923 -0.000297197)
(0.105062 0.00234909 -0.000228146)
(0.104844 0.0019714 -0.000178024)
(0.10459 0.0016346 -0.000146685)
(0.104338 0.00134653 -0.00012949)
(0.104109 0.00110751 -0.000121756)
(0.103909 0.000908994 -0.000118236)
(0.103747 0.000735643 -0.000113063)
(0.103621 0.000589978 -0.000107223)
(0.106834 0.00215029 0.000134521)
(0.1072 0.00229218 0.00021488)
(0.107493 0.00225531 0.00022892)
(0.107782 0.00208295 0.000208027)
(0.108002 0.00185355 0.000173968)
(0.108141 0.00161388 0.000134798)
(0.108225 0.00138392 9.41145e-05)
(0.108276 0.001174 5.39704e-05)
(0.108308 0.000988474 1.64394e-05)
(0.108329 0.000826414 -1.59389e-05)
(0.108344 0.000684872 -4.11425e-05)
(0.108358 0.000561199 -5.82921e-05)
(0.108134 0.00111928 1.23256e-05)
(0.108483 0.00107656 0.000117335)
(0.108802 0.00106511 0.000140954)
(0.109189 0.00102289 0.000123765)
(0.109575 0.000949621 8.95772e-05)
(0.109917 0.000860368 5.09372e-05)
(0.11021 0.000766452 1.33269e-05)
(0.110461 0.000674521 -2.21053e-05)
(0.110676 0.000587148 -5.17715e-05)
(0.110858 0.000506345 -7.4551e-05)
(0.111011 0.000431885 -9.09962e-05)
(0.111138 0.000362789 -0.000100008)
(0.109162 0.000205524 -0.000654123)
(0.109488 0.000101449 -0.000576395)
(0.109804 7.22373e-05 -0.000543365)
(0.110197 7.49754e-05 -0.000521684)
(0.110607 8.46823e-05 -0.000499496)
(0.110989 9.27798e-05 -0.000472205)
(0.111333 9.78477e-05 -0.000440062)
(0.111635 0.000100365 -0.000405934)
(0.1119 0.000101301 -0.000371844)
(0.112129 0.000100718 -0.000338455)
(0.112324 9.74213e-05 -0.000305203)
(0.112488 8.99695e-05 -0.000270648)
(0.10949 -0.000294274 -0.00142943)
(0.109834 -0.00038748 -0.00147394)
(0.110168 -0.000431402 -0.00147205)
(0.110542 -0.000431107 -0.00141348)
(0.110898 -0.000401525 -0.00131598)
(0.111209 -0.000359025 -0.00119604)
(0.111471 -0.000312105 -0.00106654)
(0.111691 -0.000264103 -0.000936786)
(0.111875 -0.000217707 -0.000813249)
(0.112029 -0.000175047 -0.000699431)
(0.112158 -0.000137758 -0.000595871)
(0.112265 -0.000107766 -0.000501018)
(0.107798 -0.000620043 -0.00225954)
(0.10839 -0.000658434 -0.00244832)
(0.108846 -0.000639228 -0.00244323)
(0.109234 -0.000582682 -0.00228616)
(0.109502 -0.000511121 -0.0020615)
(0.109656 -0.00044031 -0.00181712)
(0.109734 -0.00037605 -0.00157406)
(0.109766 -0.000319285 -0.00134376)
(0.109771 -0.000269867 -0.00113441)
(0.109763 -0.000226914 -0.000949357)
(0.10975 -0.000189616 -0.000786737)
(0.10974 -0.000158111 -0.000645581)
(0.104449 -0.000349416 -0.00303793)
(0.104765 -0.000398225 -0.00325531)
(0.105063 -0.000369522 -0.00310862)
(0.105163 -0.000297955 -0.00274885)
(0.105061 -0.00022885 -0.00234869)
(0.104843 -0.000178694 -0.00197108)
(0.104589 -0.000147367 -0.00163456)
(0.104336 -0.000130251 -0.0013471)
(0.104107 -0.00012258 -0.0011088)
(0.103907 -0.000118146 -0.000908266)
(0.103746 -0.000112085 -0.000733049)
(0.0944471 0.00037151 -0.00397064)
(0.0952327 0.000226928 -0.0042491)
(0.0953379 0.000191919 -0.00363698)
(0.0948777 0.000192222 -0.00281985)
(0.0941646 0.00017508 -0.00213175)
(0.0934429 0.000131467 -0.00160884)
(0.0928168 7.59791e-05 -0.00122241)
(0.0922989 2.01269e-05 -0.000947311)
(0.0918812 -2.82268e-05 -0.000749884)
(0.0915508 -6.52864e-05 -0.000600836)
(0.0912874 -8.85476e-05 -0.000478371)
(0.0715497 0.00214907 -0.00337916)
(0.070485 0.00154178 -0.00378281)
(0.0689714 0.0010209 -0.0025961)
(0.0671567 0.000665112 -0.0015122)
(0.0656025 0.000418052 -0.000832726)
(0.064487 0.000235194 -0.000446666)
(0.0636857 9.89733e-05 -0.000236323)
(0.0630788 3.46243e-06 -0.000130554)
(0.0625958 -6.10718e-05 -8.2819e-05)
(0.0622017 -0.00010145 -6.06333e-05)
(0.0618744 -0.000123902 -4.88473e-05)
(0.0740706 0.00379267 -0.00108281)
(0.0670834 0.0038124 -0.000944604)
(0.061988 0.00260227 -0.000538414)
(0.0579084 0.00169019 -0.000312319)
(0.0553192 0.00107654 -0.000209268)
(0.0537838 0.000684629 -0.000139837)
(0.052757 0.000470838 -9.92787e-05)
(0.0519983 0.000357381 -7.75633e-05)
(0.051417 0.000276706 -6.40174e-05)
(0.0509654 0.000212937 -5.55439e-05)
(0.050605 0.000165089 -5.02941e-05)
(0.0503192 0.000130648 -4.64668e-05)
(0.0883561 0.00579909 -0.000730102)
(0.0886095 0.00548882 -0.000814301)
(0.087488 0.00387395 -0.00058574)
(0.0855485 0.00250941 -0.000387682)
(0.0836825 0.00168964 -0.000273938)
(0.0822289 0.00119148 -0.000212871)
(0.0811222 0.00088369 -0.000184466)
(0.0802707 0.000687055 -0.000172317)
(0.0796125 0.000548591 -0.000164088)
(0.0791104 0.000442239 -0.000155836)
(0.078713 0.000355527 -0.000146855)
(0.0784036 0.000284475 -0.000137017)
(0.0944474 0.00397088 0.000372265)
(0.095233 0.00424942 0.000227825)
(0.0953384 0.00363739 0.0001929)
(0.0948782 0.0028204 0.00019327)
(0.0941653 0.00213237 0.00017623)
(0.0934438 0.00160944 0.000132759)
(0.0928181 0.00122286 7.74459e-05)
(0.0923009 0.000947236 2.18722e-05)
(0.0918845 0.000749651 -2.64372e-05)
(0.0915543 0.000599579 -6.32193e-05)
(0.0912958 0.000481121 -8.84835e-05)
(0.0910836 0.00038516 -0.000103438)
(0.0979776 0.00206065 0.000927326)
(0.0980606 0.00241558 0.000982889)
(0.0982446 0.00239208 0.000878617)
(0.098382 0.00211702 0.000720624)
(0.0984165 0.00176025 0.000569153)
(0.0983825 0.00142045 0.000430455)
(0.0983182 0.00113749 0.000301071)
(0.0982459 0.000910892 0.000189606)
(0.0981756 0.000732254 9.89306e-05)
(0.0981119 0.00059194 2.88023e-05)
(0.0980572 0.00047967 -2.16744e-05)
(0.0980107 0.000387592 -5.57008e-05)
(0.099493 0.000630518 0.0006262)
(0.0996254 0.000775055 0.00070111)
(0.0998624 0.000838644 0.000643163)
(0.100292 0.00082358 0.00051966)
(0.100728 0.000758431 0.000384903)
(0.1011 0.00065907 0.00027317)
(0.101409 0.000559244 0.000178012)
(0.101663 0.000473538 9.09512e-05)
(0.101869 0.000400822 2.28584e-05)
(0.102032 0.000340597 -2.92739e-05)
(0.10216 0.000287876 -6.50862e-05)
(0.102261 0.000240521 -8.69952e-05)
(0.100846 -0.000341313 -0.000157951)
(0.101156 -0.000463081 -0.000276349)
(0.101501 -0.000446815 -0.000343168)
(0.101998 -0.000374162 -0.000374289)
(0.102508 -0.000287816 -0.000391866)
(0.102956 -0.000221268 -0.000380622)
(0.103346 -0.000169839 -0.000353971)
(0.10368 -0.000119018 -0.000332063)
(0.103959 -7.35571e-05 -0.000311459)
(0.104188 -3.66461e-05 -0.000290369)
(0.104372 -1.05166e-05 -0.000266339)
(0.104521 5.4848e-06 -0.000239328)
(0.102625 -0.000942421 -0.00131514)
(0.102842 -0.0011403 -0.00149336)
(0.103122 -0.00115495 -0.00153324)
(0.103459 -0.00105478 -0.00147062)
(0.103756 -0.000913086 -0.00135095)
(0.103997 -0.00077408 -0.00119129)
(0.104193 -0.000641985 -0.00102821)
(0.10435 -0.000516959 -0.000879784)
(0.104474 -0.000405267 -0.000747834)
(0.10457 -0.000310814 -0.000633095)
(0.104646 -0.000235123 -0.000532462)
(0.104707 -0.00017679 -0.000443189)
(0.102007 -0.00126224 -0.00244685)
(0.102566 -0.00129563 -0.00282891)
(0.10293 -0.00123231 -0.00277302)
(0.103079 -0.00110662 -0.00249019)
(0.103034 -0.0009554 -0.00214852)
(0.102885 -0.000801848 -0.00181415)
(0.102693 -0.000658873 -0.00151025)
(0.102491 -0.000533311 -0.00124446)
(0.102301 -0.000427182 -0.00102086)
(0.102132 -0.000339422 -0.000835676)
(0.10199 -0.000268615 -0.000681941)
(0.101876 -0.000211737 -0.000553736)
(0.097067 -0.00129657 -0.00369117)
(0.0985524 -0.00124844 -0.00416693)
(0.0989444 -0.00103206 -0.00362266)
(0.098585 -0.00079507 -0.00288163)
(0.0978881 -0.000607941 -0.00230386)
(0.0971309 -0.000469264 -0.00185501)
(0.0964255 -0.000368266 -0.00149272)
(0.0958064 -0.000293674 -0.00118408)
(0.0952879 -0.000238505 -0.000930401)
(0.0948679 -0.000198061 -0.00073935)
(0.0945328 -0.000167085 -0.000589565)
(0.0883562 -0.000730949 -0.00579889)
(0.0886097 -0.000815387 -0.0054886)
(0.0874882 -0.000587035 -0.00387365)
(0.0855487 -0.000389206 -0.00250905)
(0.0836828 -0.000275703 -0.00168921)
(0.0822292 -0.000214863 -0.00119106)
(0.0811225 -0.000186649 -0.000883326)
(0.0802707 -0.000174649 -0.000686897)
(0.0796131 -0.000166444 -0.000548252)
(0.0791087 -0.000158364 -0.00044258)
(0.078714 -0.000148931 -0.000355408)
(0.0689428 0.000337066 -0.00478958)
(0.0621259 -5.34189e-05 -0.00435623)
(0.0569581 -3.17778e-05 -0.00233402)
(0.0531101 0.00012152 -0.000628848)
(0.050948 0.000118562 -4.9953e-05)
(0.0497765 4.75601e-05 7.46552e-05)
(0.0490056 -2.54287e-05 9.65733e-05)
(0.0484158 -7.60405e-05 8.80959e-05)
(0.0479454 -0.000102899 7.05245e-05)
(0.0475619 -0.00011315 5.26514e-05)
(0.0472469 -0.000111283 3.88695e-05)
(0.0587019 0.00454012 -0.000555913)
(0.0450626 0.00151794 2.48758e-05)
(0.0394478 0.000268164 3.91454e-05)
(0.0359929 3.37987e-05 6.30233e-06)
(0.0341654 1.10031e-05 -2.44746e-05)
(0.033176 2.13173e-05 -4.15889e-05)
(0.0325167 2.18867e-05 -5.33556e-05)
(0.0320291 1.76512e-05 -5.91461e-05)
(0.0316531 1.45477e-05 -6.11873e-05)
(0.0313558 1.20689e-05 -5.86307e-05)
(0.0311137 9.65293e-06 -5.40405e-05)
(0.0309171 7.33e-06 -4.90208e-05)
(0.0689432 0.00479009 0.000337701)
(0.0621261 0.00435679 -5.26789e-05)
(0.0569581 0.00233466 -3.08874e-05)
(0.05311 0.000629776 0.000122516)
(0.0509477 5.10817e-05 0.000119709)
(0.0497761 -7.32931e-05 4.88608e-05)
(0.049005 -9.52152e-05 -2.397e-05)
(0.0484152 -8.68637e-05 -7.44541e-05)
(0.0479447 -6.91531e-05 -0.000101292)
(0.0475618 -5.09671e-05 -0.000111698)
(0.0472427 -3.69985e-05 -0.000110229)
(0.0469811 -2.78262e-05 -0.000103186)
(0.07155 0.00337956 0.00214967)
(0.0704852 0.00378346 0.00154244)
(0.0689715 0.00259686 0.0010217)
(0.0671568 0.00151317 0.000666076)
(0.0656028 0.000833885 0.000419153)
(0.0644873 0.000447806 0.000236443)
(0.0636863 0.000237635 0.000100345)
(0.0630798 0.000131904 4.96481e-06)
(0.0625968 8.43112e-05 -5.95334e-05)
(0.0622039 6.2987e-05 -0.000100235)
(0.0618727 5.11416e-05 -0.000123225)
(0.0615965 4.31994e-05 -0.000128338)
(0.0715859 9.09836e-05 0.00340111)
(0.0731201 0.0010399 0.00287128)
(0.0741381 0.00110538 0.00218785)
(0.0745054 0.000867338 0.00150137)
(0.0744348 0.000644287 0.000968285)
(0.0741789 0.000466908 0.000588229)
(0.0738889 0.000327871 0.000325643)
(0.0736023 0.000233443 0.000149115)
(0.0733281 0.000176839 3.30089e-05)
(0.0730729 0.000141662 -4.17434e-05)
(0.0728393 0.000117518 -8.83676e-05)
(0.072628 9.92331e-05 -0.000114076)
(0.0740658 -0.00154171 0.00314389)
(0.0756409 -0.000880492 0.00260708)
(0.0771182 -0.000426119 0.00203508)
(0.0783427 -0.000201462 0.00148201)
(0.0791794 -6.9466e-05 0.00102234)
(0.0796829 1.26045e-05 0.000662525)
(0.0799694 5.61833e-05 0.000394103)
(0.0801189 7.53312e-05 0.000204685)
(0.0801698 8.44429e-05 7.72379e-05)
(0.0801534 8.84248e-05 -6.97554e-06)
(0.0800971 8.8596e-05 -6.11884e-05)
(0.0800172 8.52748e-05 -9.3532e-05)
(0.0777563 -0.00156052 0.00130025)
(0.0790213 -0.00157493 0.000978732)
(0.0803202 -0.00132759 0.000680537)
(0.0815056 -0.0010419 0.000472601)
(0.0824031 -0.000781315 0.000303919)
(0.0830301 -0.000557725 0.000161893)
(0.083446 -0.00037953 5.11517e-05)
(0.0837138 -0.000246838 -2.79864e-05)
(0.0838653 -0.000151696 -8.04477e-05)
(0.0839319 -8.41914e-05 -0.000113244)
(0.0839436 -3.71579e-05 -0.000131519)
(0.08392 -6.03933e-06 -0.00013916)
(0.0822687 -0.00235403 -0.000306447)
(0.0830873 -0.00227863 -0.000769954)
(0.0837925 -0.0019487 -0.000865228)
(0.0842793 -0.00155759 -0.000790094)
(0.0845458 -0.00119679 -0.000683711)
(0.0846528 -0.000887625 -0.000580047)
(0.0846596 -0.000635345 -0.000484873)
(0.0846044 -0.00044143 -0.000407108)
(0.0845088 -0.000299733 -0.000345266)
(0.0843917 -0.000198975 -0.000296612)
(0.084268 -0.00012931 -0.000257272)
(0.0841455 -7.80399e-05 -0.000223999)
(0.0864794 -0.00250276 -0.00210201)
(0.0860943 -0.00230001 -0.00271275)
(0.0854917 -0.00188437 -0.00244054)
(0.0845828 -0.00144853 -0.00196717)
(0.0835818 -0.00107091 -0.00157466)
(0.082661 -0.000764721 -0.00122544)
(0.0818714 -0.000524924 -0.000933212)
(0.0812101 -0.000350801 -0.000699628)
(0.0806638 -0.000239798 -0.000532118)
(0.0802186 -0.000159604 -0.000413954)
(0.0798569 -0.000105817 -0.000329585)
(0.0795615 -6.89708e-05 -0.000266288)
(0.0861228 -0.00231095 -0.00394038)
(0.0832518 -0.00193447 -0.00416294)
(0.080215 -0.00133414 -0.00321703)
(0.0771765 -0.000801776 -0.00227213)
(0.0746708 -0.000467254 -0.00158196)
(0.0728082 -0.000268985 -0.00111967)
(0.0714367 -0.000150855 -0.000778545)
(0.0704091 -8.31048e-05 -0.00055038)
(0.0696346 -4.6383e-05 -0.000401583)
(0.0690529 -2.93888e-05 -0.000302489)
(0.0686047 -2.19418e-05 -0.000234721)
(0.074071 -0.00108349 -0.00379255)
(0.0670839 -0.000945558 -0.00381244)
(0.0619886 -0.000539753 -0.00260245)
(0.0579091 -0.000313934 -0.00169047)
(0.0553201 -0.000211153 -0.00107674)
(0.0537849 -0.000141917 -0.000684857)
(0.0527584 -0.000101516 -0.000471179)
(0.0519998 -7.98643e-05 -0.000357806)
(0.051419 -6.62266e-05 -0.000277107)
(0.0509668 -5.76314e-05 -0.000213194)
(0.0506099 -5.21605e-05 -0.000164809)
(0.0587018 -0.000556513 -0.00453999)
(0.0450627 2.43875e-05 -0.00151792)
(0.0394481 3.85419e-05 -0.000267927)
(0.0359932 5.4432e-06 -3.35961e-05)
(0.0341657 -2.55115e-05 -1.08394e-05)
(0.0331765 -4.2733e-05 -2.12728e-05)
(0.0325174 -5.45949e-05 -2.17675e-05)
(0.0320297 -6.05025e-05 -1.74573e-05)
(0.0316537 -6.2445e-05 -1.43034e-05)
(0.0313564 -5.98095e-05 -1.18917e-05)
(0.0311149 -5.50427e-05 -9.32654e-06)
)
;

boundaryField
{
    inlet
    {
        type            fixedValue;
        value           nonuniform List<vector> 0();
    }
    ami1
    {
        type            cyclicAMI;
        value           nonuniform List<vector> 0();
    }
    walls
    {
        type            noSlip;
    }
    ami2
    {
        type            cyclicAMI;
        value           nonuniform List<vector> 
61
(
(0.0729025 -0.00266206 -0.00134357)
(0.0993263 -0.000560412 0.000547971)
(0.107799 7.31444e-05 0.00116794)
(0.0769439 -0.0010506 -0.00118392)
(0.100559 0.000130143 -0.0002348)
(0.108905 0.000718969 0.000263674)
(0.0819177 6.18895e-05 -0.00210386)
(0.102532 0.0012293 -0.000792465)
(0.10926 0.00141099 -0.000219933)
(0.112265 0.00123741 -3.87687e-05)
(0.113804 0.000834733 -0.000132454)
(0.114491 0.000291335 -0.000402563)
(0.113804 -0.000132445 -0.000834587)
(0.112124 -0.000306757 -0.00105368)
(0.107799 -7.24234e-05 -0.00116738)
(0.0993275 0.000561199 -0.000547218)
(0.0729053 0.00266295 0.00134462)
(0.0869388 0.00153863 -0.00217078)
(0.10167 0.00213935 -0.00114763)
(0.10732 0.00217495 -0.000569343)
(0.110731 0.00182549 -0.000218358)
(0.112124 0.0010538 -0.000306691)
(0.112638 0.000476685 -0.000686625)
(0.112265 -3.89566e-05 -0.00123706)
(0.110731 -0.000218656 -0.00182526)
(0.106511 7.57104e-05 -0.0020552)
(0.0979339 0.000840676 -0.00176366)
(0.0704477 0.00314597 0.00037978)
(0.0883863 0.00287345 -0.0020684)
(0.0958987 0.0030492 -0.00117226)
(0.104389 0.00281632 -0.000305032)
(0.106512 0.00205534 7.61171e-05)
(0.107799 0.00116747 -7.22271e-05)
(0.108905 0.000263088 -0.00071814)
(0.10926 -0.000220557 -0.00141034)
(0.10732 -0.000570033 -0.00217451)
(0.104389 -0.000305711 -0.00281604)
(0.0938142 0.000474748 -0.00328708)
(0.0722565 0.00228954 -0.00207706)
(0.0819091 0.00315988 -0.0010775)
(0.0878541 0.00444077 -0.000471063)
(0.0938145 0.00328728 0.000475428)
(0.0979345 0.00176386 0.000841199)
(0.0993282 0.000547359 0.000561461)
(0.100561 -0.000235824 -0.000129372)
(0.102533 -0.000793684 -0.00122868)
(0.101671 -0.00114867 -0.0021389)
(0.095899 -0.00117311 -0.00304893)
(0.0878542 -0.0004718 -0.00444057)
(0.0751474 0.000733334 -0.00370409)
(0.0726708 0.00387138 -0.000275381)
(0.0751476 0.00370442 0.000733966)
(0.0722568 0.00207733 0.00229011)
(0.0704482 -0.000379536 0.00314651)
(0.0729064 -0.00134449 0.00266342)
(0.0769466 -0.00118512 0.00105134)
(0.0819198 -0.00210528 -6.15383e-05)
(0.0869402 -0.00217212 -0.00153836)
(0.088387 -0.00206946 -0.00287325)
(0.0819094 -0.00107817 -0.00315971)
(0.0726707 -0.000276004 -0.00387122)
)
;
    }
    outlet
    {
        type            zeroGradient;
    }
    procBoundary1to0
    {
        type            processor;
        value           nonuniform List<vector> 
138
(
(0.0783316 -0.00147964 -0.000199062)
(0.0783316 -0.00147964 -0.000199062)
(0.0791661 -0.00102003 -6.67518e-05)
(0.0796681 -0.000660309 1.46635e-05)
(0.0799526 -0.000392009 5.70982e-05)
(0.0801004 -0.000202817 7.51382e-05)
(0.0801501 -7.57529e-05 8.34937e-05)
(0.0801329 7.93838e-06 8.71187e-05)
(0.0800762 6.15299e-05 8.73755e-05)
(0.0799963 9.31434e-05 8.46966e-05)
(0.100289 -0.000519241 0.000823211)
(0.100289 -0.000519241 0.000823211)
(0.100727 -0.000383847 0.000758556)
(0.101099 -0.0002719 0.000659468)
(0.101408 -0.0001771 0.000559535)
(0.101663 -9.02077e-05 0.000473947)
(0.101869 -2.24031e-05 0.000401418)
(0.102033 2.92937e-05 0.000341252)
(0.102161 6.44928e-05 0.000288452)
(0.102262 8.54991e-05 0.000240805)
(0.112421 0.000277028 0.0010595)
(0.112832 0.000217145 0.00104976)
(0.109191 -0.000123642 0.00102229)
(0.113199 0.000185327 0.00103305)
(0.109191 -0.000123642 0.00102229)
(0.109578 -8.93345e-05 0.000949421)
(0.109921 -5.08667e-05 0.000860618)
(0.110215 -1.35071e-05 0.000767221)
(0.110468 2.16761e-05 0.00067574)
(0.110683 5.09915e-05 0.000588629)
(0.110866 7.34618e-05 0.000507889)
(0.11102 8.9624e-05 0.000433317)
(0.111147 9.84742e-05 0.000364006)
(0.112975 0.000666946 0.000437671)
(0.113428 0.000628548 0.000380395)
(0.113817 0.000600406 0.000347329)
(0.114227 0.000572085 0.00032395)
(0.114633 0.000538277 0.000302737)
(0.115012 0.000498724 0.000280708)
(0.115357 0.000455733 0.000257708)
(0.115668 0.000412213 0.00023462)
(0.115946 0.000369858 0.000211748)
(0.11619 0.000329273 0.000189048)
(0.116402 0.000290335 0.000166312)
(0.116583 0.000253074 0.000143637)
(0.112975 0.000666946 0.000437671)