/*--------------------------------*- C++ -*----------------------------------*\
| =========                 |                                                 |
| \\      /  F ield         | OpenFOAM: The Open Source CFD Toolbox           |
|  \\    /   O peration     | Version:  2212                                  |
|   \\  /    A nd           | Website:  www.openfoam.com                      |
|    \\/     M anipulation  |                                                 |
\*---------------------------------------------------------------------------*/
FoamFile
{
    version     2.0;
    format      ascii;
    arch        "LSB;label=32;scalar=64";
    class       surfaceVectorField;
    location    "0.6";
    object      Uf;
}
// * * * * * * * * * * * * * * * * * * * * * * * * * * * * * * * * * * * * * //

dimensions      [0 1 -1 0 0 0 0];

internalField   nonuniform List<vector> 
1805
(
(0.0746674 -0.00287399 -0.00121015)
(0.0860717 -0.00185187 -0.000428554)
(0.0758864 -0.00224592 -0.00152552)
(0.0763964 -0.00231941 -0.00065214)
(0.0869642 -0.00153432 4.78357e-05)
(0.0773065 -0.00180008 -0.00122352)
(0.0878548 -0.00123814 0.000289597)
(0.0786941 -0.00137373 -0.000853572)
(0.0994132 -0.000662352 0.000703618)
(0.103635 -0.000399373 0.000810578)
(0.100162 -0.000222388 0.000127073)
(0.0996762 -0.000670835 0.00080763)
(0.103871 -0.000498465 0.000857571)
(0.100382 -0.000202481 0.000142144)
(0.104148 -0.000463898 0.000897544)
(0.100672 -0.000148676 0.00019488)
(0.108244 -6.38514e-05 0.00109842)
(0.108644 0.000329196 0.000651063)
(0.108606 -0.00012844 0.00107099)
(0.108982 0.000236337 0.000580069)
(0.109301 0.000202946 0.000566534)
(0.0783031 -0.00113869 -0.00156581)
(0.0886872 -0.000538738 -0.000933776)
(0.0800347 -0.000459716 -0.00199603)
(0.0797048 -0.000828782 -0.00144863)
(0.0894991 -0.000233823 -0.000944138)
(0.0810728 -7.64615e-05 -0.00195135)
(0.0809605 -0.000575627 -0.00118135)
(0.0903452 -7.13468e-05 -0.00082378)
(0.0820703 0.000117597 -0.00165947)
(0.0819595 -0.000387206 -0.000907772)
(0.0912035 2.29529e-05 -0.000659331)
(0.0829009 0.000178626 -0.00131472)
(0.0826988 -0.000231678 -0.000665842)
(0.0919165 9.96229e-05 -0.000495408)
(0.0834777 0.000206218 -0.00100034)
(0.0832201 -0.00010513 -0.000465549)
(0.0924581 0.000152226 -0.000358047)
(0.0838402 0.00022272 -0.000731654)
(0.0835654 -1.01332e-05 -0.000310982)
(0.092861 0.000184185 -0.000249739)
(0.0840473 0.00022712 -0.000513366)
(0.0837722 5.55425e-05 -0.000198019)
(0.093159 0.000206532 -0.000162409)
(0.0841499 0.000224658 -0.000347491)
(0.0838774 9.77881e-05 -0.00011748)
(0.0933702 0.000220833 -9.35263e-05)
(0.0841746 0.000218011 -0.000228213)
(0.0839147 0.000122679 -6.06386e-05)
(0.0935131 0.000222175 -4.45803e-05)
(0.084147 0.000208374 -0.000143718)
(0.083908 0.000134787 -2.1523e-05)
(0.0936065 0.000215114 -1.07622e-05)
(0.0840894 0.000196221 -8.48912e-05)
(0.0936643 0.000201505 1.0559e-05)
(0.0840154 0.000181972 -4.32132e-05)
(0.100887 0.000218092 -0.000400838)
(0.104839 0.000342182 -0.000115385)
(0.101742 0.000778709 -0.000692042)
(0.10127 0.000310657 -0.000453562)
(0.105157 0.000349331 -0.000240331)
(0.102005 0.000925501 -0.000849234)
(0.101762 0.000359313 -0.000409649)
(0.105488 0.000383719 -0.000235547)
(0.102317 0.000965615 -0.000831099)
(0.102263 0.000383691 -0.000330594)
(0.105935 0.000402362 -0.000188196)
(0.102733 0.000942153 -0.000735392)
(0.102731 0.000387118 -0.000254189)
(0.106398 0.000409744 -0.00013275)
(0.103136 0.000886684 -0.000615824)
(0.10315 0.00036801 -0.000195378)
(0.106815 0.000398377 -8.89782e-05)
(0.10348 0.000797592 -0.000508812)
(0.103513 0.000343297 -0.000144531)
(0.107184 0.00037538 -5.53277e-05)
(0.103773 0.000699534 -0.000414006)
(0.10382 0.000321644 -9.65119e-05)
(0.107504 0.000352936 -2.37965e-05)
(0.104019 0.000611836 -0.000323861)
(0.104075 0.000300363 -5.53665e-05)
(0.107777 0.000330269 3.60461e-06)
(0.10422 0.000533505 -0.000243635)
(0.104282 0.000277244 -2.39238e-05)
(0.108007 0.000306165 2.47442e-05)
(0.104383 0.000463916 -0.00017694)
(0.104449 0.000251209 -2.86205e-06)
(0.108197 0.000279565 3.81746e-05)
(0.104513 0.000400235 -0.000125345)
(0.108354 0.000250626 4.42464e-05)
(0.104618 0.000341515 -8.74417e-05)
(0.109287 0.000616248 0.000153989)
(0.109327 0.00105933 -6.47351e-05)
(0.10962 0.000560834 8.69843e-05)
(0.109663 0.0010409 -0.000160149)
(0.110006 0.000533251 7.31208e-05)
(0.109988 0.00101931 -0.000191419)
(0.110409 0.000511075 7.8929e-05)
(0.110372 0.000977088 -0.00018793)
(0.110802 0.000486081 8.78148e-05)
(0.110756 0.000915451 -0.000166583)
(0.111165 0.000456047 9.45544e-05)
(0.111103 0.000839987 -0.000139462)
(0.111489 0.000422538 9.85329e-05)
(0.111406 0.000757764 -0.000112263)
(0.111774 0.00038802 0.000100404)
(0.111668 0.000674569 -8.60943e-05)
(0.112022 0.000353866 0.000100603)
(0.111894 0.000594568 -6.16888e-05)
(0.112236 0.000320193 9.85269e-05)
(0.112086 0.000519958 -4.02433e-05)
(0.112416 0.00028627 9.31114e-05)
(0.112248 0.00045091 -2.30479e-05)
(0.112384 0.000386335 -1.1107e-05)
(0.0826899 0.000538522 -0.00231399)
(0.0918812 0.000808081 -0.00167222)
(0.0844457 0.00124359 -0.00243718)
(0.0834908 0.000817864 -0.00211073)
(0.0924155 0.00118902 -0.00169725)
(0.0846407 0.00181795 -0.00233187)
(0.0840597 0.000827943 -0.00174954)
(0.0929193 0.00124715 -0.0015356)
(0.0846685 0.00172816 -0.00196241)
(0.0844055 0.000737276 -0.00137301)
(0.0933348 0.0011649 -0.00128867)
(0.0844322 0.00142663 -0.00152617)
(0.0845848 0.000632428 -0.00103773)
(0.0936152 0.00104542 -0.00103496)
(0.0840419 0.00115688 -0.00113998)
(0.0846453 0.000533189 -0.000757039)
(0.0937848 0.000910926 -0.000808609)
(0.083616 0.000919462 -0.00082494)
(0.0846225 0.000446812 -0.000534298)
(0.0938807 0.000778965 -0.000615856)
(0.0832095 0.000718082 -0.000574584)
(0.0845438 0.00037692 -0.000367136)
(0.0939252 0.000662154 -0.000457873)
(0.0828393 0.000557716 -0.000389124)
(0.0844359 0.000321332 -0.000246768)
(0.0939326 0.000561778 -0.000333629)
(0.0825092 0.00044017 -0.000263097)
(0.0843143 0.000276693 -0.000162251)
(0.093916 0.000476983 -0.000238832)
(0.0822214 0.000354912 -0.000173498)
(0.0841908 0.000239568 -0.000102189)
(0.0938862 0.000404524 -0.00016854)
(0.0819739 0.000291473 -0.000112472)
(0.0938505 0.000341258 -0.000115852)
(0.0817624 0.00024239 -6.9553e-05)
(0.102683 0.00140498 -0.00103979)
(0.105916 0.00135139 -0.000641765)
(0.102307 0.00187863 -0.00108494)
(0.102963 0.00151417 -0.00114578)
(0.106194 0.00145603 -0.000794874)
(0.1027 0.00218358 -0.0012229)
(0.103301 0.00150292 -0.00110298)
(0.1065 0.00148159 -0.000820349)
(0.103023 0.0021885 -0.00121318)
(0.103611 0.00141186 -0.00098223)
(0.106855 0.00142418 -0.000766481)
(0.103264 0.00201099 -0.00109768)
(0.103875 0.00127219 -0.000842105)
(0.107181 0.00131781 -0.000677269)
(0.103385 0.00177432 -0.000947654)
(0.104094 0.00111063 -0.000706819)
(0.107456 0.00118008 -0.000583002)
(0.103426 0.00152348 -0.000799699)
(0.104272 0.000954573 -0.000578549)
(0.107685 0.0010356 -0.000490362)
(0.103424 0.0012862 -0.000660273)
(0.104413 0.00081396 -0.000460474)
(0.107872 0.000898238 -0.000401018)
(0.103397 0.00107403 -0.000531649)
(0.104523 0.000690029 -0.000357676)
(0.108026 0.000772022 -0.000319586)
(0.10336 0.000891639 -0.000419848)
(0.10461 0.000581762 -0.000272833)
(0.108151 0.000659049 -0.000249135)
(0.103321 0.000738188 -0.000327089)
(0.104679 0.000486776 -0.000205847)
(0.108252 0.000558262 -0.00019113)
(0.103285 0.000609155 -0.000252861)
(0.108335 0.000468283 -0.000145249)
(0.103257 0.000499864 -0.000194734)
(0.109633 0.00145252 -0.000340257)
(0.11101 0.00134847 -0.000171799)
(0.108626 0.0018159 -0.00041381)
(0.10998 0.00147397 -0.000408981)
(0.111415 0.00137377 -0.000228911)
(0.109096 0.00194421 -0.00049115)
(0.11036 0.0014438 -0.000431137)
(0.111785 0.00136296 -0.000256979)
(0.109493 0.00196132 -0.000527888)
(0.110726 0.00136572 -0.000416583)
(0.112181 0.00130867 -0.000258751)
(0.109875 0.00186052 -0.00050889)
(0.111057 0.00125685 -0.000380821)
(0.112559 0.0012212 -0.000243276)
(0.110187 0.00169946 -0.000459884)
(0.111342 0.00113189 -0.000336287)
(0.112893 0.00111319 -0.000220346)
(0.110418 0.00151631 -0.000403723)
(0.111584 0.00100192 -0.000288943)
(0.113182 0.000996388 -0.000194269)
(0.110587 0.00132862 -0.000348181)
(0.111787 0.000874844 -0.00024186)
(0.11343 0.000879001 -0.000166712)
(0.110711 0.00114666 -0.000295297)
(0.111957 0.00075572 -0.00019753)
(0.113642 0.000766262 -0.000139572)
(0.110804 0.000978309 -0.000246914)
(0.112099 0.000646745 -0.000157768)
(0.113822 0.000661144 -0.000114372)
(0.110876 0.000827279 -0.000203805)
(0.112218 0.000547834 -0.000123949)
(0.113975 0.000564441 -9.20982e-05)
(0.110932 0.00069332 -0.000165978)
(0.114103 0.000476101 -7.3523e-05)
(0.110979 0.000575045 -0.000134318)
(0.11282 0.00124399 -6.47944e-05)
(0.11339 0.00103132 -8.53925e-05)
(0.111796 0.00154393 -0.000145768)
(0.11327 0.00124049 -7.70961e-05)
(0.113881 0.00101365 -8.6455e-05)
(0.112223 0.0015523 -0.000147841)
(0.113707 0.00120715 -8.3294e-05)
(0.114301 0.000990623 -8.65378e-05)
(0.112607 0.00153326 -0.000141652)
(0.114118 0.00114557 -8.35609e-05)
(0.114731 0.000951323 -8.49088e-05)
(0.113005 0.00146873 -0.000132659)
(0.114494 0.00106314 -7.97226e-05)
(0.115143 0.000894847 -8.12318e-05)
(0.113375 0.00136706 -0.000121219)
(0.114831 0.000968055 -7.39495e-05)
(0.115518 0.000825948 -7.63861e-05)
(0.113694 0.00124395 -0.000109918)
(0.115128 0.000867475 -6.70855e-05)
(0.115852 0.000749828 -7.09968e-05)
(0.113964 0.00111147 -9.98757e-05)
(0.115386 0.000766886 -5.95469e-05)
(0.11615 0.000670948 -6.52555e-05)
(0.114194 0.000978148 -9.10399e-05)
(0.11561 0.000669938 -5.1867e-05)
(0.116412 0.000592802 -5.93076e-05)
(0.114388 0.000849989 -8.32015e-05)
(0.115803 0.000578494 -4.45204e-05)
(0.116641 0.000517628 -5.33325e-05)
(0.114552 0.000730188 -7.60215e-05)
(0.115968 0.0004934 -3.78639e-05)
(0.116839 0.000446402 -4.74666e-05)
(0.11469 0.000619691 -6.91276e-05)
(0.117008 0.000379813 -4.1895e-05)
(0.114806 0.00051913 -6.22911e-05)
(0.114409 0.000784743 -0.000113387)
(0.114497 0.000532507 -0.000267826)
(0.113289 0.000949151 -0.000219573)
(0.114897 0.000750221 -9.97472e-05)
(0.11499 0.000509423 -0.000254751)
(0.11375 0.000918761 -0.000175998)
(0.115357 0.000723866 -9.01222e-05)
(0.11542 0.000497803 -0.00023881)
(0.11415 0.000891718 -0.000145889)
(0.115791 0.000691788 -8.33848e-05)
(0.115856 0.000480284 -0.000223428)
(0.114567 0.000856949 -0.000130751)
(0.116196 0.000650493 -7.80561e-05)
(0.11628 0.000455053 -0.000208079)
(0.114973 0.000808093 -0.000121543)
(0.116567 0.000601673 -7.3393e-05)
(0.116673 0.000423893 -0.00019249)
(0.115346 0.00074787 -0.00011428)
(0.116904 0.000548198 -6.90646e-05)
(0.117032 0.000388887 -0.00017693)
(0.115681 0.000681026 -0.000108092)
(0.117206 0.000492689 -6.48555e-05)
(0.117357 0.000351946 -0.000161627)
(0.115981 0.00061184 -0.000102786)
(0.117474 0.00043713 -6.05891e-05)
(0.117649 0.000314495 -0.000146637)
(0.116246 0.00054261 -9.78521e-05)
(0.117709 0.00038283 -5.61188e-05)
(0.117908 0.000277544 -0.00013194)
(0.116479 0.000474863 -9.27824e-05)
(0.117913 0.000330693 -5.13461e-05)
(0.118134 0.000241655 -0.000117384)
(0.11668 0.000409856 -8.71024e-05)
(0.11833 0.000207327 -0.000102965)
(0.116851 0.000348463 -8.04003e-05)
(0.115028 0.000278669 -0.000394472)
(0.114497 9.2395e-05 -0.000594319)
(0.113878 0.000359137 -0.000530931)
(0.11548 0.000269898 -0.000384972)
(0.11499 9.28866e-05 -0.000571635)
(0.114341 0.000326214 -0.000508429)
(0.115924 0.000258535 -0.000369044)
(0.115419 8.79865e-05 -0.000557012)
(0.114746 0.000306107 -0.000489761)
(0.116353 0.00024384 -0.00034773)
(0.115856 8.2687e-05 -0.000535634)
(0.115167 0.00028819 -0.000466637)
(0.116761 0.000226952 -0.000323306)
(0.116279 7.67653e-05 -0.00050629)
(0.115581 0.000269602 -0.000438247)
(0.11714 0.00020878 -0.000297371)
(0.116673 7.01192e-05 -0.000470956)
(0.115967 0.000249736 -0.000405925)
(0.117488 0.000190029 -0.00027103)
(0.117032 6.30854e-05 -0.0004319)
(0.116322 0.000228941 -0.000371475)
(0.117804 0.000171191 -0.000244932)
(0.117357 5.5934e-05 -0.00039111)
(0.116643 0.000207863 -0.000336602)
(0.118086 0.000152579 -0.000219375)
(0.117649 4.88763e-05 -0.000349981)
(0.11693 0.000186937 -0.000302439)
(0.118336 0.000134346 -0.000194406)
(0.117907 4.20796e-05 -0.000309401)
(0.117185 0.000166337 -0.000269419)
(0.118555 0.000116542 -0.000170037)
(0.118134 3.55639e-05 -0.000269793)
(0.117407 0.000145964 -0.000237367)
(0.118329 2.91851e-05 -0.000231702)
(0.117599 0.000125656 -0.000206091)
(0.114409 -0.000113197 -0.000784673)
(0.113289 -0.000219517 -0.00094902)
(0.11339 -8.53912e-05 -0.00103111)
(0.114897 -9.93474e-05 -0.000750293)
(0.11375 -0.000175754 -0.000918705)
(0.113881 -8.62163e-05 -0.00101352)
(0.115357 -8.95155e-05 -0.000724142)
(0.11415 -0.000145446 -0.000891797)
(0.114301 -8.6025e-05 -0.00099064)
(0.115791 -8.25861e-05 -0.000692296)
(0.114567 -0.000130101 -0.0008572)
(0.11473 -8.41099e-05 -0.00095155)
(0.116195 -7.70989e-05 -0.000651232)
(0.114973 -0.000120691 -0.000808533)
(0.115142 -8.01917e-05 -0.000895326)
(0.116567 -7.23203e-05 -0.000602615)
(0.115346 -0.000113248 -0.000748495)
(0.115516 -7.51734e-05 -0.000826688)
(0.116903 -6.79152e-05 -0.00054928)
(0.115681 -0.000106913 -0.000681823)
(0.115851 -6.96774e-05 -0.00075081)
(0.117205 -6.36455e-05 -0.000493784)
(0.115981 -0.000101489 -0.000612762)
(0.116148 -6.38751e-05 -0.000672123)
(0.117473 -5.93056e-05 -0.000438002)
(0.116247 -9.642e-05 -0.000543464)
(0.11641 -5.78681e-05 -0.000594044)
(0.117708 -5.48022e-05 -0.00038315)
(0.116479 -9.11367e-05 -0.000475279)
(0.116639 -5.17993e-05 -0.000518673)
(0.117912 -5.03267e-05 -0.000330194)
(0.11668 -8.52292e-05 -0.000409284)
(0.116836 -4.59422e-05 -0.000446856)
(0.116852 -7.92885e-05 -0.00034729)
(0.117005 -4.09765e-05 -0.000379242)
(0.1126 -0.000246798 -0.00105451)
(0.110216 -0.000129516 -0.00109113)
(0.111698 -0.00024163 -0.00145643)
(0.112994 -0.000201148 -0.00104153)
(0.110595 -4.71163e-05 -0.00106505)
(0.112096 -0.000208364 -0.00145591)
(0.113396 -0.00017763 -0.00101497)
(0.110937 -2.35646e-05 -0.00105425)
(0.112461 -0.000187083 -0.00143791)
(0.113789 -0.000164784 -0.000967365)
(0.111328 -2.60187e-05 -0.00101566)
(0.112846 -0.000170787 -0.00137934)
(0.114158 -0.000155273 -0.000901438)
(0.111715 -3.71369e-05 -0.000948534)
(0.113211 -0.000156311 -0.00128497)
(0.114494 -0.000146993 -0.000824301)
(0.112064 -5.0047e-05 -0.00086509)
(0.113528 -0.000143445 -0.00117008)
(0.114794 -0.000139967 -0.000742581)
(0.112369 -6.34251e-05 -0.000775966)
(0.113799 -0.000132886 -0.00104662)
(0.115059 -0.000133938 -0.000660286)
(0.112636 -7.72929e-05 -0.000687778)
(0.114031 -0.000124785 -0.000922741)
(0.11529 -0.000128022 -0.000579059)
(0.112867 -8.87863e-05 -0.000602364)
(0.114228 -0.000118182 -0.000803146)
(0.115489 -0.000121396 -0.000500149)
(0.113065 -9.65991e-05 -0.000520888)
(0.114396 -0.00011191 -0.000690053)
(0.115658 -0.000114021 -0.000425443)
(0.113232 -0.000100295 -0.000443283)
(0.114536 -0.000105088 -0.000584292)
(0.114655 -9.81661e-05 -0.000488092)
(0.108244 6.47192e-05 -0.00109787)
(0.103635 0.000400305 -0.0008098)
(0.10747 7.53558e-05 -0.00164733)
(0.108605 0.000129105 -0.00107086)
(0.103872 0.000499566 -0.000856662)
(0.107827 0.000168921 -0.0017009)
(0.109002 0.000132396 -0.00104413)
(0.104148 0.000464638 -0.000897223)
(0.108133 0.000190373 -0.00168131)
(0.10939 0.000106788 -0.00098651)
(0.104557 0.000377701 -0.000880769)
(0.10847 0.00017183 -0.00157355)
(0.109748 7.04619e-05 -0.000905401)
(0.104969 0.000280517 -0.00082037)
(0.108771 0.000136729 -0.00141876)
(0.110064 3.24127e-05 -0.000814021)
(0.105327 0.000194784 -0.00073325)
(0.10901 9.69382e-05 -0.00125114)
(0.110336 -4.07195e-06 -0.000721361)
(0.105628 0.000119502 -0.000642659)
(0.109197 5.71789e-05 -0.00108692)
(0.11057 -3.65125e-05 -0.000631887)
(0.105881 5.06842e-05 -0.000559437)
(0.109346 1.87732e-05 -0.000934137)
(0.11077 -6.22684e-05 -0.000547404)
(0.106092 -3.99004e-06 -0.000483958)
(0.109468 -1.52037e-05 -0.000796228)
(0.110938 -8.05068e-05 -0.000467866)
(0.106265 -4.422e-05 -0.000415255)
(0.109568 -4.26995e-05 -0.000672644)
(0.106406 -7.1252e-05 -0.000351554)
(0.109651 -6.21338e-05 -0.000559959)
(0.0994146 0.000663407 -0.000702587)
(0.0860742 0.00185273 0.000429549)
(0.0987145 0.000793727 -0.00139025)
(0.0996777 0.000671803 -0.000806714)
(0.0869676 0.00153533 -4.66334e-05)
(0.0988214 0.0008681 -0.00166111)
(0.100095 0.000580986 -0.000831068)
(0.0878588 0.00123912 -0.000288318)
(0.099031 0.000780592 -0.00166903)
(0.100522 0.000451834 -0.000791018)
(0.0887075 0.000924919 -0.000369138)
(0.0993102 0.000634256 -0.0015107)
(0.100912 0.000328647 -0.00070878)
(0.0893547 0.000642854 -0.000387534)
(0.0995402 0.000487477 -0.00128912)
(0.101251 0.000225239 -0.000609278)
(0.0897954 0.000419026 -0.000367957)
(0.0997033 0.000359909 -0.00106251)
(0.101534 0.000134025 -0.000516791)
(0.0900919 0.000249093 -0.000329709)
(0.0998206 0.00024542 -0.000865672)
(0.101764 5.64794e-05 -0.000437807)
(0.0902902 0.000117201 -0.000291632)
(0.099907 0.000144123 -0.000705128)
(0.101949 -2.41326e-06 -0.000370294)
(0.0904134 2.12353e-05 -0.000259409)
(0.0999709 6.3509e-05 -0.000576116)
(0.102096 -4.41885e-05 -0.000311546)
(0.0904816 -4.17359e-05 -0.000227902)
(0.100018 3.29546e-06 -0.000471664)
(0.0905123 -8.08204e-05 -0.00019779)
(0.100054 -3.85487e-05 -0.000384935)
(0.0746716 0.00287502 0.00121149)
(0.0727815 0.00322681 0.000802873)
(0.0764023 0.00232062 0.000653843)
(0.0743353 0.00275789 -0.00014385)
(0.0777946 0.001758 0.000314342)
(0.0755747 0.00213524 -0.000411978)
(0.0787732 0.00125148 0.0001359)
(0.0763553 0.00150351 -0.000377093)
(0.0794185 0.000841553 2.86904e-05)
(0.0767219 0.0010011 -0.000315697)
(0.0798182 0.000527206 -3.43185e-05)
(0.0768318 0.000628608 -0.000259244)
(0.0800408 0.000298002 -6.59139e-05)
(0.076819 0.00036085 -0.000203808)
(0.0801383 0.000139224 -8.0442e-05)
(0.0767417 0.000176654 -0.000161847)
(0.0801518 3.30628e-05 -8.75213e-05)
(0.0766229 5.4301e-05 -0.000136356)
(0.0801136 -3.59113e-05 -8.99339e-05)
(0.0764819 -2.55137e-05 -0.000119634)
(0.0763321 -7.54179e-05 -0.000106717)
(0.0865059 0.00240761 -0.00239955)
(0.0937498 0.00236876 -0.00187737)
(0.0862885 0.003102 -0.00241696)
(0.0858922 0.00257687 -0.00208995)
(0.0938065 0.0028338 -0.0018007)
(0.0845798 0.00357231 -0.00217658)
(0.0850153 0.00220414 -0.00166376)
(0.0936562 0.00260212 -0.00157468)
(0.0826811 0.00293466 -0.00165654)
(0.0840493 0.00177133 -0.00125655)
(0.0932424 0.00220421 -0.00128946)
(0.0806382 0.00217162 -0.00113664)
(0.0831072 0.00140059 -0.000914229)
(0.0926888 0.00183626 -0.00101734)
(0.0788357 0.00159549 -0.000760425)
(0.0822596 0.00107993 -0.000640988)
(0.0921292 0.00149632 -0.000781517)
(0.077413 0.00116595 -0.000494542)
(0.0815309 0.000817083 -0.000434025)
(0.0916192 0.00120146 -0.000585849)
(0.0763129 0.000839529 -0.00031252)
(0.0809271 0.000616437 -0.000291766)
(0.0911728 0.000957766 -0.000432513)
(0.075456 0.000610204 -0.00019617)
(0.0804325 0.000473291 -0.000196682)
(0.0907931 0.000768064 -0.000322299)
(0.074787 0.000455053 -0.000127099)
(0.0800288 0.000371524 -0.000130246)
(0.0904768 0.000619727 -0.000238161)
(0.0742697 0.000348916 -8.25632e-05)
(0.0797001 0.000297256 -8.56443e-05)
(0.0902182 0.000502694 -0.000176775)
(0.0738597 0.000274782 -5.53417e-05)
(0.0900081 0.000408472 -0.000131608)
(0.0735359 0.000220827 -3.80087e-05)
(0.102225 0.00263844 -0.00127759)
(0.104769 0.00235305 -0.000957361)
(0.0994201 0.00304796 -0.00123106)
(0.102748 0.00280167 -0.00126232)
(0.105344 0.0026635 -0.000983116)
(0.100464 0.00352397 -0.00126379)
(0.103022 0.00263247 -0.00116762)
(0.105752 0.00263336 -0.000940073)
(0.100843 0.00324661 -0.00115233)
(0.103054 0.00232033 -0.0010291)
(0.106015 0.00240275 -0.000851173)
(0.100726 0.00271751 -0.000962123)
(0.102955 0.00198233 -0.000876732)
(0.106119 0.00211386 -0.000739522)
(0.100339 0.00223947 -0.00077994)
(0.102787 0.00166311 -0.000728543)
(0.106115 0.0018211 -0.00062615)
(0.0998721 0.00183706 -0.000626555)
(0.102593 0.00137799 -0.000594404)
(0.106053 0.00154443 -0.000521587)
(0.0994117 0.00149787 -0.000501205)
(0.102397 0.0011328 -0.000478747)
(0.105963 0.0012926 -0.000430186)
(0.0989917 0.00120853 -0.000401921)
(0.102217 0.000927616 -0.000381982)
(0.105866 0.00107315 -0.000352264)
(0.0986307 0.000970297 -0.000323718)
(0.102062 0.000757834 -0.000302853)
(0.105774 0.000886815 -0.00028632)
(0.0983298 0.00078133 -0.000261428)
(0.101935 0.000617456 -0.000239374)
(0.105694 0.000730244 -0.000231369)
(0.0980896 0.000631644 -0.000212658)
(0.105629 0.00059759 -0.000186395)
(0.0978946 0.000510989 -0.000173993)
(0.108012 0.00235447 -0.000638527)
(0.10935 0.00202808 -0.00043569)
(0.106061 0.0027436 -0.000563824)
(0.108585 0.00244641 -0.00064817)
(0.109842 0.00213435 -0.000449151)
(0.10651 0.00293443 -0.00059398)
(0.109054 0.00236541 -0.000610436)
(0.110253 0.00214304 -0.00042245)
(0.106884 0.0028314 -0.000543813)
(0.109376 0.00217458 -0.000546583)
(0.110636 0.00203025 -0.000381491)
(0.107124 0.00255148 -0.000460723)
(0.109579 0.00194 -0.000475593)
(0.11094 0.00185154 -0.000335946)
(0.1072 0.00222544 -0.000379564)
(0.109695 0.00169609 -0.000408209)
(0.111155 0.00164909 -0.000292161)
(0.107161 0.00190618 -0.000313533)
(0.109752 0.00145904 -0.000347801)
(0.111305 0.00144266 -0.000253335)
(0.107067 0.00161065 -0.000262462)
(0.10977 0.00123869 -0.00029481)
(0.111411 0.0012433 -0.000219879)
(0.106952 0.00134738 -0.000223301)
(0.109768 0.00104103 -0.0002488)
(0.111486 0.00105888 -0.000191241)
(0.106836 0.00112048 -0.000193555)
(0.109759 0.000867502 -0.000208957)
(0.11154 0.000892812 -0.000166504)
(0.106728 0.000927176 -0.000169999)
(0.109747 0.000716442 -0.000174685)
(0.111582 0.000744808 -0.000144841)
(0.106638 0.00075892 -0.000148963)
(0.111617 0.000614443 -0.000125475)
(0.106567 0.000615636 -0.000130597)
(0.111164 0.00183037 -0.000211754)
(0.111698 0.00145659 -0.000241508)
(0.108852 0.00200193 -4.52322e-05)
(0.111548 0.00182715 -0.000200869)
(0.112096 0.00145602 -0.000208397)
(0.109229 0.00207488 5.04648e-06)
(0.111944 0.00178095 -0.000184785)
(0.112461 0.00143793 -0.000187307)
(0.109555 0.00205406 1.27097e-05)
(0.112304 0.00167837 -0.000166101)
(0.112846 0.00137925 -0.000171237)
(0.109887 0.0019278 1.04903e-05)
(0.11261 0.00153745 -0.000147937)
(0.113211 0.00128472 -0.000156997)
(0.110165 0.00174464 5.85915e-06)
(0.112862 0.00137823 -0.000132672)
(0.113528 0.00116965 -0.00014435)
(0.110373 0.0015432 -2.33752e-06)
(0.113068 0.00121433 -0.000120951)
(0.113799 0.00104595 -0.000133968)
(0.110526 0.00134298 -1.43352e-05)
(0.113234 0.00105477 -0.00011217)
(0.114031 0.000921832 -0.00012601)
(0.110641 0.00115417 -2.86119e-05)
(0.113369 0.000905003 -0.00010518)
(0.114228 0.000802159 -0.000119587)
(0.11073 0.00098232 -4.33122e-05)
(0.113481 0.000767255 -9.87687e-05)
(0.114395 0.00068944 -0.000113623)
(0.1108 0.000828478 -5.62636e-05)
(0.113572 0.000642293 -9.20474e-05)
(0.114536 0.000584884 -0.000107156)
(0.110856 0.000691242 -6.55106e-05)
(0.114654 0.000489256 -9.96204e-05)
(0.110903 0.000569905 -7.0693e-05)
(0.1126 0.00105459 -0.000246866)
(0.112696 0.000749726 -0.000470915)
(0.110216 0.00109122 -0.000129436)
(0.112994 0.00104153 -0.000201375)
(0.113127 0.000716065 -0.000422227)
(0.110595 0.00106508 -4.71409e-05)
(0.113396 0.00101485 -0.000178041)
(0.113505 0.000691837 -0.000392394)
(0.110938 0.00105419 -2.37037e-05)
(0.113789 0.000967111 -0.000165399)
(0.113906 0.000662519 -0.000370374)
(0.111328 0.00101547 -2.62937e-05)
(0.114158 0.000901031 -0.000156098)
(0.114303 0.000622806 -0.000348577)
(0.111715 0.000948208 -3.75676e-05)
(0.114493 0.000823732 -0.000148018)
(0.11467 0.000574922 -0.000324719)
(0.112063 0.000864615 -5.06453e-05)
(0.114793 0.00074185 -0.000141169)
(0.115 0.000522719 -0.000299667)
(0.112368 0.000775299 -6.4164e-05)
(0.115057 0.000659512 -0.000135334)
(0.115296 0.000469631 -0.000275025)
(0.112634 0.000686906 -7.81431e-05)
(0.115287 0.000578578 -0.000129703)
(0.115558 0.000416949 -0.000251278)
(0.112865 0.000601528 -8.98956e-05)
(0.115486 0.000500523 -0.00012346)
(0.115786 0.000365416 -0.000228243)
(0.113062 0.000520807 -9.83399e-05)
(0.115656 0.00042664 -0.000115921)
(0.115984 0.00031576 -0.000205355)
(0.11323 0.000445256 -0.000103211)
(0.116152 0.000268384 -0.000182154)
(0.113371 0.000374931 -0.000103743)
(0.113172 0.000409145 -0.000647486)
(0.112796 0.000188356 -0.00095444)
(0.111016 0.000328285 -0.000674622)
(0.113601 0.000364266 -0.000614438)
(0.113257 0.000151532 -0.000941465)
(0.111404 0.000246135 -0.000614701)
(0.114022 0.000336366 -0.000586564)
(0.113654 0.000129304 -0.00091983)
(0.111755 0.000212554 -0.000580304)
(0.114431 0.000314265 -0.000555917)
(0.114068 0.000116107 -0.000881648)
(0.112156 0.000201572 -0.000553891)
(0.11482 0.000292651 -0.000519638)
(0.11447 0.000107398 -0.000827637)
(0.112564 0.000195224 -0.000524705)
(0.11518 0.000270018 -0.000478725)
(0.114839 9.96536e-05 -0.000762277)
(0.112943 0.000186992 -0.000489237)
(0.115508 0.000246801 -0.000435767)
(0.115169 9.19065e-05 -0.000690869)
(0.113288 0.00017678 -0.000449713)
(0.115801 0.000223661 -0.000393033)
(0.115462 8.44698e-05 -0.000618049)
(0.113594 0.000165857 -0.000409831)
(0.116061 0.000200791 -0.000351628)
(0.11572 7.73092e-05 -0.000546905)
(0.113865 0.000154611 -0.000371008)
(0.116288 0.000178072 -0.000311691)
(0.115945 7.01631e-05 -0.000479019)
(0.114101 0.000142935 -0.000333639)
(0.116485 0.000155256 -0.000272936)
(0.116139 6.26401e-05 -0.000414672)
(0.114304 0.000129992 -0.000297158)
(0.116305 5.42951e-05 -0.000353863)
(0.114476 0.000114957 -0.000260725)
(0.112819 -6.477e-05 -0.00124366)
(0.111795 -0.000145933 -0.00154363)
(0.11101 -0.000172175 -0.00134793)
(0.11327 -7.67824e-05 -0.00124024)
(0.112223 -0.000147802 -0.00155204)
(0.111415 -0.000229127 -0.00137318)
(0.113706 -8.26381e-05 -0.00120705)
(0.112606 -0.000141348 -0.00153309)
(0.111784 -0.000256892 -0.00136238)
(0.114117 -8.25796e-05 -0.00114569)
(0.113004 -0.000132048 -0.0014687)
(0.112179 -0.000258264 -0.00130818)
(0.114492 -7.84937e-05 -0.00106353)
(0.113374 -0.000120321 -0.00136722)
(0.112557 -0.00024247 -0.00122089)
(0.114828 -7.25602e-05 -0.000968737)
(0.113693 -0.000108797 -0.00124434)
(0.112891 -0.000219333 -0.00111312)
(0.115124 -6.56052e-05 -0.00086845)
(0.113963 -9.86042e-05 -0.00111216)
(0.113179 -0.000193128 -0.000996607)
(0.115383 -5.80054e-05 -0.000768107)
(0.114192 -8.96719e-05 -0.000979139)
(0.113426 -0.000165495 -0.000879557)
(0.115606 -5.02413e-05 -0.000671256)
(0.114386 -8.17355e-05 -0.000851194)
(0.113638 -0.000138263 -0.000767146)
(0.115799 -4.28272e-05 -0.000579594)
(0.114549 -7.43645e-05 -0.000731271)
(0.113818 -0.000112891 -0.000662217)
(0.115963 -3.64519e-05 -0.00049376)
(0.114687 -6.72281e-05 -0.000619955)
(0.11397 -9.05223e-05 -0.000565381)
(0.114803 -6.1042e-05 -0.000518646)
(0.114098 -7.24857e-05 -0.000476172)
(0.111164 -0.000211927 -0.00183016)
(0.108852 -4.55653e-05 -0.00200175)
(0.109349 -0.000436168 -0.00202774)
(0.111547 -0.000200862 -0.00182699)
(0.109228 4.80968e-06 -0.00207475)
(0.109842 -0.000449548 -0.00213398)
(0.111944 -0.000184551 -0.00178086)
(0.109555 1.2602e-05 -0.00205399)
(0.110253 -0.000422697 -0.00214265)
(0.112303 -0.000165612 -0.00167841)
(0.109887 1.05542e-05 -0.00192782)
(0.110636 -0.000381514 -0.00202989)
(0.112609 -0.000147206 -0.00153767)
(0.110165 6.11496e-06 -0.00174478)
(0.110939 -0.00033573 -0.00185126)
(0.112861 -0.000131746 -0.0013787)
(0.110373 -1.91644e-06 -0.00154355)
(0.111154 -0.000291741 -0.00164897)
(0.113067 -0.000119882 -0.00121511)
(0.110525 -1.38052e-05 -0.00134365)
(0.111304 -0.000252768 -0.00144283)
(0.113233 -0.000110971 -0.00105582)
(0.110641 -2.80154e-05 -0.00115526)
(0.111409 -0.000219211 -0.00124387)
(0.113369 -0.000103774 -0.000906052)
(0.11073 -4.25823e-05 -0.000983724)
(0.111484 -0.000190458 -0.00105983)
(0.11348 -9.70499e-05 -0.000767627)
(0.1108 -5.50105e-05 -0.000829493)
(0.111539 -0.00016553 -0.000893707)
(0.113571 -9.03835e-05 -0.000641783)
(0.110856 -6.32828e-05 -0.000690043)
(0.11158 -0.000143501 -0.000744718)
(0.111615 -0.000124286 -0.000613876)
(0.106951 0.000174327 -0.00222112)
(0.102201 0.000593883 -0.00206104)
(0.105597 -8.10333e-05 -0.00268544)
(0.107314 0.000221573 -0.00227369)
(0.102419 0.000666518 -0.00230943)
(0.105937 -6.66626e-05 -0.00286856)
(0.107648 0.00021821 -0.00216916)
(0.102655 0.000611563 -0.00228621)
(0.106232 -5.58508e-05 -0.00275196)
(0.107899 0.000190822 -0.00196838)
(0.102865 0.000511816 -0.00206683)
(0.106424 -3.95184e-05 -0.00245983)
(0.10807 0.000154301 -0.00173402)
(0.102987 0.000409824 -0.00177698)
(0.106476 -2.57332e-05 -0.00212994)
(0.108181 0.000114439 -0.00149949)
(0.103036 0.000311877 -0.00149139)
(0.10643 -2.0969e-05 -0.00181371)
(0.10825 7.40377e-05 -0.00128001)
(0.103042 0.000218905 -0.00123949)
(0.106339 -2.61211e-05 -0.0015248)
(0.108292 3.51911e-05 -0.00108281)
(0.103029 0.000136433 -0.00102595)
(0.106233 -3.84603e-05 -0.00127097)
(0.108318 4.60806e-07 -0.000909134)
(0.103007 6.70209e-05 -0.000848289)
(0.106129 -5.40598e-05 -0.00105514)
(0.108337 -2.72015e-05 -0.000755472)
(0.102984 1.24559e-05 -0.000699908)
(0.106036 -6.79864e-05 -0.00087119)
(0.102963 -2.68897e-05 -0.00057336)
(0.10596 -7.66954e-05 -0.000709288)
(0.0979168 0.000954523 -0.00223785)
(0.0839439 0.00220755 -0.00104938)
(0.0961286 0.000636306 -0.00306143)
(0.0981388 0.000930084 -0.00240353)
(0.0847985 0.00190851 -0.00176548)
(0.0965794 0.000616455 -0.00344857)
(0.0983308 0.000798878 -0.00225422)
(0.0854258 0.00151223 -0.00177234)
(0.0967221 0.000553166 -0.00312852)
(0.0984007 0.000644132 -0.00193825)
(0.0856852 0.0010796 -0.00151014)
(0.0965464 0.000463076 -0.00253283)
(0.0983934 0.000499033 -0.00158999)
(0.0856635 0.000729796 -0.00121954)
(0.0961894 0.000372194 -0.00197855)
(0.098347 0.00036489 -0.00127882)
(0.0855111 0.000467378 -0.000961154)
(0.0957952 0.000278749 -0.00153183)
(0.0982797 0.000244298 -0.00102444)
(0.0853263 0.000273185 -0.000748333)
(0.0954366 0.000185194 -0.00118797)
(0.0982078 0.000143176 -0.000822218)
(0.0851394 0.000133574 -0.00058531)
(0.0951308 0.000101059 -0.000932014)
(0.0981407 6.3562e-05 -0.00066216)
(0.0849598 3.55412e-05 -0.000465261)
(0.0948783 3.17373e-05 -0.000741607)