/*--------------------------------*- C++ -*----------------------------------*\
| =========                 |                                                 |
| \\      /  F ield         | OpenFOAM: The Open Source CFD Toolbox           |
|  \\    /   O peration     | Version:  2212                                  |
|   \\  /    A nd           | Website:  www.openfoam.com                      |
|    \\/     M anipulation  |                                                 |
\*---------------------------------------------------------------------------*/
FoamFile
{
    version     2.0;
    format      ascii;
    arch        "LSB;label=32;scalar=64";
    class       volScalarField;
    location    "1.15";
    object      nut;
}
// * * * * * * * * * * * * * * * * * * * * * * * * * * * * * * * * * * * * * //

dimensions      [0 2 -1 0 0 0 0];

internalField   nonuniform List<scalar> 
690
(
2.30061e-05
2.21491e-05
2.13708e-05
0.000104139
9.77028e-05
9.21836e-05
0.000167863
0.00016001
0.000152878
2.37311e-05
2.29152e-05
2.21491e-05
2.14453e-05
2.08062e-05
2.02245e-05
1.96969e-05
1.92167e-05
1.87725e-05
1.83595e-05
1.79759e-05
1.76187e-05
0.000109611
0.000103275
9.76686e-05
9.27178e-05
8.81979e-05
8.39841e-05
8.06494e-05
7.80036e-05
7.48454e-05
7.1064e-05
6.76597e-05
6.45268e-05
0.000177069
0.000168525
0.000160717
0.000153607
0.000147056
0.000141002
0.000135453
0.000130388
0.000125626
0.000121043
0.000116662
0.000112512
2.32149e-05
2.20881e-05
2.12218e-05
2.05074e-05
1.98904e-05
1.93467e-05
1.88623e-05
1.84258e-05
1.80245e-05
1.76533e-05
1.73084e-05
1.69864e-05
0.00010423
9.86987e-05
9.3624e-05
8.89284e-05
8.45825e-05
8.05702e-05
7.75798e-05
7.46585e-05
7.07296e-05
6.70806e-05
6.37397e-05
6.06464e-05
0.000170368
0.000162408
0.000154961
0.00014808
0.000141733
0.00013586
0.000130476
0.00012549
0.000120696
0.000116114
0.000111765
0.000107645
0.000211667
0.000202131
0.000193436
0.000185443
0.000178061
0.000171221
0.000164858
0.000158926
0.000153384
0.000148174
0.000143236
0.000138554
0.000233636
0.000223947
0.000214903
0.00020646
0.000198574
0.000191204
0.000184311
0.000177855
0.0001718
0.000166109
0.000160746
0.000155677
0.000241436
0.000231445
0.000222145
0.000213472
0.000205372
0.000197798
0.000190708
0.000184064
0.00017783
0.00017197
0.000166451
0.000161236
0.000233638
0.000223939
0.000214891
0.000206446
0.000198559
0.00019119
0.000184297
0.000177842
0.000171789
0.000166099
0.000160738
0.000155667
0.000209042
0.000200526
0.000192404
0.000184753
0.000177588
0.000170897
0.000164652
0.000158813
0.000153334
0.000148176
0.000143304
0.000138671
0.000167858
0.000160045
0.000152901
0.000146365
0.000140372
0.000134862
0.000129805
0.000125114
0.000120649
0.000116395
0.000112338
0.000103998
9.75627e-05
9.21035e-05
8.73857e-05
8.32916e-05
7.97643e-05
7.71405e-05
7.45966e-05
7.11592e-05
6.78655e-05
6.48379e-05
2.30085e-05
2.21521e-05
2.13766e-05
2.06679e-05
2.00219e-05
1.94317e-05
1.88912e-05
1.83969e-05
1.79451e-05
1.75319e-05
1.7153e-05
2.05243e-05
1.9283e-05
1.84465e-05
1.78582e-05
1.7357e-05
1.69197e-05
1.65274e-05
1.61718e-05
1.58466e-05
1.55474e-05
1.52706e-05
1.50131e-05
8.84507e-05
8.47383e-05
8.06855e-05
7.68292e-05
7.3667e-05
7.07326e-05
6.68363e-05
6.30949e-05
5.9664e-05
5.64965e-05
5.35856e-05
5.08759e-05
0.000152327
0.000143587
0.000136306
0.000130027
0.000124455
0.000119389
0.000114551
0.000109977
0.00010564
0.000101517
9.75648e-05
9.38105e-05
0.000186234
0.00017856
0.000171231
0.000164362
0.000157958
0.000151997
0.000146437
0.000141186
0.000136217
0.000131503
0.000127018
0.000122754
0.000209023
0.000200532
0.000192421
0.000184774
0.000177612
0.000170922
0.000164678
0.000158841
0.000153365
0.000148209
0.00014334
0.000138731
0.00021954
0.000209483
0.000200407
0.000192111
0.000184466
0.000177386
0.000170811
0.00016469
0.000158976
0.000153615
0.000148562
0.000143783
0.000211637
0.000202083
0.000193388
0.000185401
0.000178026
0.000171193
0.000164836
0.00015891
0.000153375
0.000148172
0.000143243
0.000138569
0.000186241
0.000178557
0.000171208
0.000164322
0.000157909
0.000151944
0.000146385
0.000141136
0.00013617
0.00013146
0.000126981
0.000122699
0.000142777
0.000137044
0.000131656
0.000126667
0.000122031
0.000117669
0.000113476
0.000109389
0.000105416
0.000101554
9.78458e-05
7.96404e-05
7.69474e-05
7.42956e-05
7.18179e-05
6.98675e-05
6.81081e-05
6.55499e-05
6.25402e-05
5.97516e-05
5.713e-05
5.4619e-05
2.07301e-05
1.97215e-05
1.88555e-05
1.81303e-05
1.75161e-05
1.69655e-05
1.64724e-05
1.60365e-05
1.565e-05
1.53043e-05
1.49941e-05
1.55732e-05
1.49258e-05
1.44159e-05
1.39696e-05
1.35908e-05
1.32697e-05
1.29892e-05
1.27408e-05
1.2517e-05
1.23109e-05
1.21238e-05
1.19471e-05
6.75755e-05
6.22225e-05
5.81405e-05
5.5983e-05
5.27918e-05
4.96677e-05
4.68524e-05
4.42359e-05
4.17363e-05
3.94005e-05
3.73615e-05
3.5145e-05
0.000110237
0.000105155
0.000100579
9.68007e-05
9.32374e-05
8.96911e-05
8.61964e-05
8.27548e-05
7.9364e-05
7.60368e-05
7.28008e-05
6.9663e-05
0.000142768
0.000137128
0.000131783
0.000126808
0.00012217
0.000117795
0.000113587
0.000109487
0.000105502
0.000101633
9.78991e-05
9.43478e-05
0.000167889
0.000160077
0.000152929
0.00014639
0.000140395
0.000134886
0.000129833
0.000125143
0.000120681
0.000116432
0.000112368
0.000108487
0.000177052
0.000168473
0.000160672
0.000153542
0.000146996
0.000140958
0.000135425
0.000130368
0.000125624
0.000121059
0.000116695
0.000112557
0.000170356
0.000162417
0.000154973
0.000148085
0.000141732
0.000135856
0.000130467
0.000125484
0.000120696
0.000116119
0.000111776
0.00010766
0.000152361
0.000143667
0.000136356
0.000130039
0.000124443
0.000119365
0.000114523
0.000109947
0.00010561
0.000101489
9.75456e-05
9.37645e-05
0.000110244
0.000104999
0.000100395
9.66209e-05
9.30832e-05
8.95626e-05
8.60886e-05
8.26636e-05
7.9286e-05
7.59679e-05
7.27657e-05
5.09814e-05
5.0789e-05
5.03682e-05
5.00926e-05
4.88572e-05
4.69319e-05
4.4979e-05
4.30304e-05
4.10982e-05
3.91496e-05
3.72054e-05
1.65726e-05
1.56041e-05
1.48069e-05
1.41459e-05
1.36113e-05
1.31914e-05
1.2845e-05
1.25459e-05
1.22825e-05
1.20478e-05
1.18351e-05
1.02703e-05
9.7987e-06
9.43405e-06
9.16727e-06
8.97097e-06
8.80143e-06
8.65513e-06
8.52198e-06
8.39808e-06
8.28821e-06
8.18668e-06
8.09354e-06
2.50253e-05
2.46033e-05
2.38452e-05
2.35495e-05
2.32092e-05
2.22735e-05
2.12141e-05
2.00695e-05
1.89901e-05
1.80303e-05
1.70133e-05
1.61479e-05
5.09941e-05
5.08793e-05
5.05442e-05
5.03133e-05
4.9048e-05
4.70931e-05
4.51131e-05
4.31403e-05
4.11878e-05
3.9225e-05
3.72732e-05
3.52948e-05
7.9654e-05
7.70415e-05
7.4427e-05
7.19618e-05
7.0022e-05
6.82327e-05
6.56443e-05
6.26264e-05
5.98293e-05
5.72011e-05
5.47102e-05
5.23058e-05
0.000104069
9.75698e-05
9.20798e-05
8.73577e-05
8.32658e-05
7.97437e-05
7.71342e-05
7.45845e-05
7.11526e-05
6.78684e-05
6.48894e-05
6.20973e-05
0.000109587
0.000103252
9.76429e-05
9.26117e-05
8.80675e-05
8.38707e-05
8.05345e-05
7.79063e-05
7.4771e-05
7.10062e-05
6.76211e-05
6.45047e-05
0.000104233
9.87161e-05
9.36379e-05
8.89262e-05
8.45653e-05
8.054e-05
7.75458e-05
7.46264e-05
7.07022e-05
6.70564e-05
6.3721e-05
6.0627e-05
8.84619e-05
8.47525e-05
8.06944e-05
7.68351e-05
7.36648e-05
7.07296e-05
6.68321e-05
6.30879e-05
5.96557e-05
5.64877e-05
5.35777e-05
5.08616e-05
6.75661e-05
6.21881e-05
5.81108e-05
5.59632e-05
5.27813e-05
4.96625e-05
4.68488e-05
4.42355e-05
4.17307e-05
3.94105e-05
3.73161e-05
2.50219e-05
2.46064e-05
2.38462e-05
2.3543e-05
2.32012e-05
2.22608e-05
2.12031e-05
2.00609e-05
1.89846e-05
1.80198e-05
1.70288e-05
1.10342e-05
1.04215e-05
9.85151e-06
9.40069e-06
9.06948e-06
8.8142e-06
8.61666e-06
8.45067e-06
8.30738e-06
8.18413e-06
8.07067e-06
5.27269e-06
4.94405e-06
4.64586e-06
4.46323e-06
4.35105e-06
4.27276e-06
4.21116e-06
4.15695e-06
4.10897e-06
4.06768e-06
4.02922e-06
3.9932e-06
1.1034e-05
1.04181e-05
9.84766e-06
9.39754e-06
9.06778e-06
8.81388e-06
8.61692e-06
8.45115e-06
8.30772e-06
8.18495e-06
8.07047e-06
7.97278e-06
1.65725e-05
1.56025e-05
1.48057e-05
1.41438e-05
1.36136e-05
1.31963e-05
1.28502e-05
1.25504e-05
1.22862e-05
1.20509e-05
1.18378e-05
1.16441e-05
2.07302e-05
1.97207e-05
1.88562e-05
1.81314e-05
1.75188e-05
1.69689e-05
1.64767e-05
1.6041e-05
1.56542e-05
1.5308e-05
1.49977e-05
1.47125e-05
2.30088e-05
2.21542e-05
2.13791e-05
2.067e-05
2.00237e-05
1.94334e-05
1.8893e-05
1.83988e-05
1.79472e-05
1.75341e-05
1.71561e-05
1.68083e-05
2.37326e-05
2.2916e-05
2.21506e-05
2.14495e-05
2.08104e-05
2.02278e-05
1.9699e-05
1.92174e-05
1.87725e-05
1.83592e-05
1.79753e-05
1.76181e-05
2.32152e-05
2.20869e-05
2.12203e-05
2.05063e-05
1.98895e-05
1.93457e-05
1.88612e-05
1.84245e-05
1.80231e-05
1.76518e-05
1.73069e-05
1.6985e-05
2.05256e-05
1.9285e-05
1.84478e-05
1.78588e-05
1.73572e-05
1.69196e-05
1.65272e-05
1.61714e-05
1.58462e-05
1.55468e-05
1.527e-05
1.50126e-05
1.55726e-05
1.49228e-05
1.44149e-05
1.39705e-05
1.35925e-05
1.32714e-05
1.29905e-05
1.27419e-05
1.25178e-05
1.23119e-05
1.21234e-05
1.02708e-05
9.80075e-06
9.43654e-06
9.17003e-06
8.97339e-06
8.80304e-06
8.65628e-06
8.52271e-06
8.39875e-06
8.2883e-06
8.18755e-06
5.27344e-06
4.9448e-06
4.64699e-06
4.46439e-06
4.35198e-06
4.27336e-06
4.21152e-06
4.15713e-06
4.10905e-06
4.06752e-06
4.0293e-06
)
;

boundaryField
{
    inlet
    {
        type            calculated;
        value           nonuniform List<scalar> 0();
    }
    ami1
    {
        type            cyclicAMI;
        value           nonuniform List<scalar> 0();
    }
    walls
    {
        type            nutkWallFunction;
        blending        stepwise;
        value           uniform 0;
    }
    ami2
    {
        type            cyclicAMI;
        value           nonuniform List<scalar> 
61
(
2.38587e-05
0.000109297
0.00017274
2.69697e-05
0.00011368
0.000181568
2.99623e-05
0.00011039
0.000174452
0.000217043
0.000238694
0.00024698
0.000238695
0.000213424
0.000172737
0.000109226
2.38603e-05
2.68659e-05
9.34554e-05
0.000158432
0.000190267
0.000213416
0.000225105
0.000217029
0.00019027
0.000146276
8.7609e-05
2.40207e-05
1.64779e-05
7.61745e-05
0.000113096
0.000146273
0.000172755
0.000181562
0.000174446
0.000158449
0.0001131
5.71805e-05
2.20331e-05
1.32382e-05
2.51331e-05
5.71871e-05
8.7617e-05
0.000109264
0.00011367
0.000110391
9.34617e-05
7.61708e-05
2.51315e-05
1.80316e-05
1.28866e-05
1.80314e-05
2.20331e-05
2.40207e-05
2.38604e-05
2.69707e-05
2.99625e-05
2.6867e-05
1.64777e-05
1.32385e-05
1.28871e-05
)
;
    }
    outlet
    {
        type            calculated;
        value           nonuniform List<scalar> 0();
    }
    procBoundary1to0
    {
        type            processor;
        value           nonuniform List<scalar> 
138
(
2.06492e-05
2.06492e-05
2.00117e-05
1.94275e-05
1.88906e-05
1.83983e-05
1.79473e-05
1.75345e-05
1.71566e-05
1.68088e-05
8.77522e-05
8.77522e-05
8.35242e-05
7.99418e-05
7.72448e-05
7.46546e-05
7.1194e-05
6.78947e-05
6.49028e-05
6.21015e-05
0.00020907
0.000200566
0.0001465
0.000192444
0.0001465
0.000140462
0.000134923
0.00012985
0.000125145
0.000120669
0.000116408
0.000112339
0.000108457
0.000219501
0.000209458
0.000200395
0.000192108
0.000184469
0.00017739
0.000170813
0.000164689
0.000158969
0.000153601
0.000148538
0.000143748
0.000219501
0.000209458
0.000200395
0.000192108
0.000184469
0.00017739
0.000170813
0.000164689
0.000158969
0.000153601
0.000148538
0.000143748
0.000241439
0.000231432
0.000222131
0.000213462
0.000205366
0.000197795
0.000190707
0.000184065
0.000177831
0.000171972
0.000166453
0.000161238
0.000248129
0.0002384
0.000229138
0.000220394
0.000212171
0.00020445
0.000197202
0.000190396
0.000183999
0.000177981
0.00017231
0.00016695
0.000241438
0.000231439
0.000222136
0.000213462
0.000205362
0.000197789
0.0001907
0.000184057
0.000177823
0.000171965
0.000166446
0.000161229
0.000219525
0.000209481
0.000200413
0.000192119
0.000184474
0.000177391
0.000170812
0.000164687
0.000158967
0.000153601
0.000148544
0.000143739
0.00017712
0.000168568
0.00016077
0.000153631
0.000147073
0.000141018
0.000135472
0.000130402
0.000125645
0.000121067
0.0001167
0.000109736
0.00010341
9.77913e-05
9.27512e-05
8.81953e-05
8.39698e-05
8.06289e-05
7.79871e-05
7.48349e-05
7.10553e-05
6.7622e-05
2.37266e-05
2.29099e-05
2.21448e-05
2.14448e-05
2.08067e-05
2.02247e-05
1.96964e-05
1.92156e-05
1.87709e-05
1.83577e-05
1.79727e-05
)
;
    }
    procBoundary1to2
    {
        type            processor;
        value           nonuniform List<scalar> 9(2.07269e-05 1.97181e-05 1.88567e-05 7.96955e-05 7.70806e-05 7.44415e-05 0.000142813 0.000137126 0.000131762);
    }
    procBoundary1to8
    {
        type            processor;
        value           nonuniform List<scalar> 
33
(
1.72833e-05
6.17131e-05
0.000108498
1.66842e-05
5.78186e-05
0.000103643
0.000134023
0.000150806
0.000156224
1.47713e-05
4.83641e-05
9.00972e-05
0.000118581
0.000134267
0.00013916
1.17966e-05
3.39356e-05
6.6606e-05
9.08198e-05
0.00010468
0.000108543
8.00389e-06
1.51665e-05
3.35701e-05
5.00117e-05
5.95423e-05
6.17179e-05
3.95622e-06
7.87514e-06
1.14702e-05
1.44487e-05
1.6486e-05
1.72826e-05
)
;
    }
    procBoundary1to9
    {
        type            processor;
        value           nonuniform List<scalar> 
30
(
0.000150783
0.000134197
0.000108382
0.000108382
6.21248e-05
1.68032e-05
0.000134032
0.000118531
9.41961e-05
9.41961e-05
5.22361e-05
1.47081e-05
0.000103654
9.00634e-05
6.95324e-05
6.95324e-05
3.52482e-05
1.16421e-05
5.78112e-05
4.83267e-05
3.53016e-05
3.53016e-05
1.60938e-05
7.97183e-06
1.66828e-05
1.47706e-05
1.19489e-05
1.19489e-05
8.09249e-06
3.99277e-06
)
;
    }
}


// ************************************************************************* //
