/*--------------------------------*- C++ -*----------------------------------*\
| =========                 |                                                 |
| \\      /  F ield         | OpenFOAM: The Open Source CFD Toolbox           |
|  \\    /   O peration     | Version:  2212                                  |
|   \\  /    A nd           | Website:  www.openfoam.com                      |
|    \\/     M anipulation  |                                                 |
\*---------------------------------------------------------------------------*/
FoamFile
{
    version     2.0;
    format      ascii;
    arch        "LSB;label=32;scalar=64";
    class       volScalarField;
    location    "0.05";
    object      k;
}
// * * * * * * * * * * * * * * * * * * * * * * * * * * * * * * * * * * * * * //

dimensions      [0 2 -2 0 0 0 0];

internalField   nonuniform List<scalar> 
680
(
0.213599
0.0563169
0.0294068
0.02064
0.0170453
0.0155656
0.0147666
0.264797
0.105739
0.0616003
0.0450887
0.0377584
0.0341469
0.03226
0.283419
0.127671
0.0746444
0.0525126
0.043554
0.0392392
0.0369372
0.292374
0.142609
0.0850628
0.0600855
0.0493947
0.0444685
0.0418057
0.296028
0.149801
0.0903333
0.0638868
0.0522789
0.0472203
0.0443928
0.296028
0.149801
0.0903334
0.0638868
0.0522789
0.0472203
0.0443928
0.292374
0.142609
0.0850628
0.0600855
0.0493947
0.0444685
0.0418057
0.283419
0.127671
0.0746443
0.0525126
0.0435539
0.0392392
0.0369372
0.264797
0.105739
0.0616002
0.0450885
0.0377583
0.0341468
0.0322599
0.213599
0.0563169
0.0294067
0.02064
0.0170452
0.0155655
0.0147666
0.264797
0.105739
0.0616003
0.0450887
0.0377584
0.0341469
0.03226
0.312002
0.200073
0.13795
0.105398
0.0879925
0.0786531
0.0735912
0.317947
0.220813
0.159365
0.123978
0.104081
0.0929114
0.0866749
0.320257
0.230508
0.171042
0.134996
0.113909
0.101756
0.0947978
0.32109
0.234521
0.176299
0.140184
0.118696
0.106157
0.0988959
0.32109
0.234521
0.176299
0.140184
0.118696
0.106157
0.098896
0.320257
0.230508
0.171042
0.134996
0.113909
0.101756
0.0947978
0.317947
0.220813
0.159365
0.123978
0.104081
0.0929112
0.0866749
0.312002
0.200073
0.13795
0.105397
0.0879921
0.0786528
0.073591
0.264797
0.105739
0.0616002
0.0450885
0.0377582
0.0341467
0.0322599
0.283419
0.127671
0.0746444
0.0525127
0.043554
0.0392393
0.0369373
0.317947
0.220813
0.159365
0.123978
0.104081
0.0929115
0.086675
0.322735
0.243306
0.187937
0.152081
0.129891
0.1165
0.108542
0.324234
0.250729
0.199254
0.164903
0.142824
0.128983
0.120453
0.324761
0.253357
0.203583
0.17015
0.148395
0.134553
0.125887
0.324761
0.253357
0.203583
0.17015
0.148395
0.134553
0.125887
0.324234
0.250729
0.199254
0.164903
0.142823
0.128983
0.120453
0.322735
0.243305
0.187937
0.15208
0.12989
0.1165
0.108542
0.317947
0.220813
0.159365
0.123978
0.10408
0.092911
0.0866746
0.283419
0.127671
0.0746443
0.0525125
0.0435538
0.039239
0.036937
0.292374
0.142609
0.0850628
0.0600856
0.0493948
0.0444686
0.0418058
0.320257
0.230508
0.171043
0.134996
0.113909
0.101757
0.094798
0.324234
0.250729
0.199254
0.164903
0.142824
0.128983
0.120454
0.325497
0.257097
0.209845
0.177882
0.156723
0.142959
0.134134
0.325926
0.259184
0.213594
0.182835
0.162355
0.148875
0.140098
0.325926
0.259184
0.213594
0.182835
0.162355
0.148875
0.140098
0.325497
0.257097
0.209845
0.177882
0.156723
0.142959
0.134134
0.324234
0.250729
0.199254
0.164903
0.142823
0.128983
0.120453
0.320257
0.230507
0.171042
0.134995
0.113909
0.101756
0.0947972
0.292374
0.142609
0.0850627
0.0600854
0.0493945
0.0444682
0.0418053
0.296028
0.149801
0.0903334
0.0638868
0.052279
0.0472204
0.0443929
0.32109
0.234521
0.176299
0.140184
0.118696
0.106157
0.0988961
0.324761
0.253357
0.203583
0.17015
0.148395
0.134553
0.125888
0.325926
0.259184
0.213594
0.182835
0.162355
0.148875
0.140098
0.326315
0.261053
0.217048
0.187548
0.16787
0.1548
0.146169
0.326315
0.261053
0.217048
0.187548
0.16787
0.1548
0.146169
0.325926
0.259184
0.213594
0.182835
0.162355
0.148875
0.140098
0.32476
0.253357
0.203583
0.17015
0.148394
0.134553
0.125887
0.32109
0.234521
0.176298
0.140184
0.118696
0.106156
0.098895
0.296028
0.149801
0.0903333
0.0638867
0.0522786
0.0472198
0.0443919
0.296028
0.149801
0.0903334
0.0638868
0.052279
0.0472204
0.0443928
0.32109
0.234521
0.176299
0.140184
0.118696
0.106157
0.0988961
0.324761
0.253357
0.203583
0.17015
0.148395
0.134553
0.125888
0.325926
0.259184
0.213594
0.182835
0.162355
0.148875
0.140099
0.326315
0.261053
0.217048
0.187548
0.16787
0.1548
0.146169
0.326315
0.261053
0.217048
0.187548
0.16787
0.1548
0.14617
0.325926
0.259184
0.213594
0.182835
0.162355
0.148876
0.140099
0.324761
0.253357
0.203583
0.17015
0.148395
0.134553
0.125888
0.32109
0.234521
0.176299
0.140184
0.118696
0.106157
0.0988947
0.296028
0.149801
0.0903334
0.0638868
0.0522788
0.0472199
0.0443908
0.292374
0.142609
0.0850628
0.0600855
0.0493947
0.0444685
0.0418057
0.320257
0.230508
0.171042
0.134996
0.113909
0.101757
0.0947979
0.324234
0.250729
0.199254
0.164903
0.142824
0.128983
0.120454
0.325497
0.257097
0.209845
0.177882
0.156723
0.142959
0.134134
0.325926
0.259184
0.213594
0.182835
0.162356
0.148876
0.1401
0.325926
0.259184
0.213594
0.182835
0.162356
0.148877
0.325497
0.257097
0.209846
0.177883
0.156724
0.14296
0.324234
0.250729
0.199254
0.164903
0.142824
0.128984
0.320257
0.230508
0.171043
0.134996
0.11391
0.10176
0.292374
0.142609
0.0850628
0.0600857
0.0493974
0.0444751
0.283419
0.127671
0.0746444
0.0525126
0.0435539
0.0392392
0.0369372
0.317947
0.220813
0.159365
0.123978
0.104081
0.0929114
0.086675
0.322735
0.243306
0.187937
0.152081
0.129891
0.116501
0.108542
0.324234
0.250729
0.199254
0.164903
0.142824
0.128984
0.120454
0.324761
0.253357
0.203583
0.170151
0.148395
0.134554
0.125889
0.324761
0.253357
0.203583
0.170151
0.148395
0.134554
0.324234
0.250729
0.199254
0.164903
0.142824
0.128984
0.322735
0.243305
0.187937
0.152081
0.129891
0.116502
0.317947
0.220813
0.159365
0.123978
0.104082
0.0929187
0.283419
0.127671
0.0746445
0.0525126
0.0435548
0.0392444
0.264797
0.105739
0.0616003
0.0450886
0.0377584
0.034147
0.0322602
0.312002
0.200073
0.13795
0.105398
0.0879925
0.0786534
0.0735917
0.317947
0.220813
0.159365
0.123978
0.104081
0.0929121
0.0866762
0.320257
0.230508
0.171043
0.134996
0.11391
0.101758
0.094801
0.32109
0.234521
0.176299
0.140185
0.118697
0.10616
0.0989021
0.32109
0.234521
0.176299
0.140185
0.118697
0.10616
0.320257
0.230508
0.171042
0.134996
0.11391
0.101758
0.317947
0.220813
0.159365
0.123978
0.104081
0.092916
0.312002
0.200073
0.13795
0.105397
0.087994
0.0786638
0.264797
0.105739
0.0616004
0.0450885
0.0377621
0.034166
0.213599
0.0563169
0.0294068
0.02064
0.0170453
0.0155656
0.0147667
0.264797
0.105739
0.0616003
0.0450886
0.0377584
0.0341471
0.0322604
0.283419
0.127671
0.0746444
0.0525127
0.0435542
0.0392397
0.036938
0.292374
0.142609
0.0850628
0.0600856
0.0493953
0.0444697
0.0418078
0.296028
0.149801
0.0903334
0.063887
0.05228
0.0472231
0.0443991
0.296028
0.149801
0.0903334
0.0638869
0.05228
0.0472231
0.292374
0.142609
0.0850628
0.0600856
0.0493961
0.0444712
0.283419
0.127671
0.0746444
0.0525124
0.0435538
0.039242
0.264797
0.105739
0.0616003
0.0450884
0.037762
0.0341655
0.213599
0.0563169
0.0294067
0.0206411
0.0170405
0.0155706
)
;

boundaryField
{
    inlet
    {
        type            fixedValue;
        value           uniform 0.375;
    }
    ami1
    {
        type            cyclicAMI;
        value           nonuniform List<scalar> 0();
    }
    walls
    {
        type            kqRWallFunction;
        value           nonuniform List<scalar> 
271
(
0.213599
0.264797
0.283419
0.292374
0.296028
0.296028
0.292374
0.283419
0.264797
0.213599
0.0563169
0.105739
0.127671
0.142609
0.149801
0.149801
0.142609
0.127671
0.105739
0.0563169
0.0294067
0.0616002
0.0746443
0.0850627
0.0903333
0.0903334
0.0850628
0.0746445
0.0616004
0.0294067
0.02064
0.0450885
0.0525125
0.0600854
0.0638867
0.0638868
0.0600857
0.0525126
0.0450885
0.0206411
0.0170452
0.0377582
0.0435538
0.0493945
0.0522786
0.0522788
0.0493974
0.0435548
0.0377621
0.0170405
0.0155655
0.0341467
0.039239
0.0444682
0.0472198
0.0472199
0.0444751
0.0392444
0.034166
0.0155706
0.0147666
0.0322599
0.036937
0.0418053
0.0443919
0.0443908
0.213599
0.264797
0.283419
0.292374
0.296028
0.296028
0.292374
0.283419
0.264797
0.213599
0.0563169
0.105739
0.127671
0.142609
0.149801
0.149801
0.142609
0.127671
0.105739
0.0563169
0.0294068
0.0616003
0.0746444
0.0850628
0.0903333
0.0903334
0.0850628
0.0746443
0.0616002
0.0294067
0.02064
0.0450887
0.0525126
0.0600855
0.0638868
0.0638868
0.0600855
0.0525126
0.0450885
0.02064
0.0170453
0.0377584
0.043554
0.0493947
0.0522789
0.0522789
0.0493947
0.0435539
0.0377583
0.0170452
0.0155656
0.0341469
0.0392392
0.0444685
0.0472203
0.0472203
0.0444685
0.0392392
0.0341468
0.0155655
0.0147666
0.03226
0.0369372
0.0418057
0.0443928
0.0443928
0.0418057
0.0369372
0.0322599
0.0147666
0.213599
0.264797
0.283419
0.292374
0.296028
0.296028
0.292374
0.283419
0.264797
0.213599
0.0563169
0.105739
0.127671
0.142609
0.149801
0.149801
0.142609
0.127671
0.105739
0.0563169
0.0294068
0.0616003
0.0746444
0.0850628
0.0903334
0.0903334
0.0850628
0.0746444
0.0616003
0.0294068
0.02064
0.0450887
0.0525127
0.0600856
0.0638868
0.0638868
0.0600855
0.0525126
0.0450886
0.02064
0.0170453
0.0377584
0.043554
0.0493948
0.052279
0.052279
0.0493947
0.0435539
0.0377584
0.0170453
0.0155656
0.0341469
0.0392393
0.0444686
0.0472204
0.0472204
0.0444685
0.0392392
0.034147
0.0155656
0.0147666
0.03226
0.0369373
0.0418058
0.0443929
0.0443928
0.0418057
0.0369372
0.0322602
0.0147667
0.213599
0.264797
0.283419
0.292374
0.296028
0.296028
0.292374
0.283419
0.264797
0.213599
0.0563169
0.105739
0.127671
0.142609
0.149801
0.149801
0.142609
0.127671
0.105739
0.0563169
0.0294068
0.0616003
0.0746444
0.0850628
0.0903334
0.0903334
0.0850628
0.0746444
0.0616003
0.0294067
0.02064
0.0450886
0.0525127
0.0600856
0.063887
0.0638869
0.0600856
0.0525124
0.0450884
0.0206411
0.0170453
0.0377584
0.0435542
0.0493953
0.05228
0.05228
0.0493961
0.0435538
0.037762
0.0170405
0.0155656
0.0341471
0.0392397
0.0444697
0.0472231
0.0472231
0.0444712
0.039242
0.0341655
0.0155706
0.0147667
0.0322604
0.036938
0.0418078
0.0443991
)
;
    }
    ami2
    {
        type            cyclicAMI;
        value           nonuniform List<scalar> 0();
    }
    outlet
    {
        type            zeroGradient;
    }
    procBoundary4to3
    {
        type            processor;
        value           nonuniform List<scalar> 
109
(
0.014357
0.0312122
0.0357012
0.0403657
0.0428436
0.0428437
0.0403658
0.0357013
0.0312122
0.014357
0.0312122
0.0708323
0.0832114
0.0908425
0.0947251
0.0947251
0.0908426
0.0832115
0.0708323
0.0312122
0.0357013
0.0832115
0.103867
0.11527
0.120538
0.120538
0.11527
0.103867
0.0832112
0.0357011
0.0403658
0.0908426
0.11527
0.128554
0.134451
0.134451
0.128554
0.11527
0.0908419
0.0403653
0.0428437
0.0947252
0.120538
0.134451
0.140519
0.140519
0.134452
0.120538
0.0947241
0.0428427
0.0428437
0.0947252
0.120538
0.134452
0.14052
0.14052
0.1401
0.134452
0.134135
0.120539
0.120455
0.0947245
0.0948078
0.0428422
0.0418186
0.0403658
0.0908426
0.115271
0.128555
0.134452
0.1401
0.1401
0.134135
0.120455
0.0948078
0.0418186
0.0357012
0.0832115
0.103868
0.115271
0.12054
0.125889
0.125889
0.120455
0.108545
0.0866908
0.0369506
0.0312124
0.0708329
0.0832128
0.0908459
0.0947315
0.0989018
0.0989018
0.0948014
0.0866846
0.073603
0.0322611
0.0143571
0.0312126
0.0357021
0.0403681
0.0428496
0.0443991
0.0443991
0.0418087
0.0369458
0.0322601
0.0147774
)
;
    }
}


// ************************************************************************* //
