/*--------------------------------*- C++ -*----------------------------------*\
| =========                 |                                                 |
| \\      /  F ield         | OpenFOAM: The Open Source CFD Toolbox           |
|  \\    /   O peration     | Version:  2212                                  |
|   \\  /    A nd           | Website:  www.openfoam.com                      |
|    \\/     M anipulation  |                                                 |
\*---------------------------------------------------------------------------*/
FoamFile
{
    version     2.0;
    format      ascii;
    arch        "LSB;label=32;scalar=64";
    class       volScalarField;
    location    "0.45";
    object      k;
}
// * * * * * * * * * * * * * * * * * * * * * * * * * * * * * * * * * * * * * //

dimensions      [0 2 -2 0 0 0 0];

internalField   nonuniform List<scalar> 
690
(
0.00313904
0.00313618
0.00313426
0.00313308
0.00313243
0.00313228
0.00313248
0.00313291
0.00313348
0.00313414
0.00313483
0.00306073
0.00305589
0.00305254
0.0030504
0.00304934
0.00304906
0.00304932
0.00304993
0.00305075
0.00305166
0.00305249
0.00320113
0.00319308
0.00318743
0.0031837
0.00318103
0.0031799
0.00317957
0.0031798
0.00318039
0.00318114
0.00318181
0.00331952
0.0033085
0.00330059
0.00329525
0.00329192
0.00328932
0.00328859
0.00328851
0.00328885
0.00328938
0.00328974
0.00339611
0.00338312
0.00337374
0.0033672
0.00336287
0.00336034
0.00335907
0.00335865
0.00335877
0.0033591
0.00335919
0.00302704
0.00302318
0.00302044
0.00301875
0.00301801
0.00301794
0.00301834
0.00301907
0.00302
0.003021
0.00302192
0.0039559
0.00394616
0.00393903
0.00393432
0.00393257
0.00393205
0.00393263
0.00393404
0.00393597
0.00393809
0.00393975
0.00464574
0.00462864
0.00461612
0.00460752
0.00460184
0.00459969
0.00459887
0.00459914
0.00460021
0.00460168
0.00460256
0.00510309
0.0050779
0.00505934
0.00504646
0.00503776
0.0050324
0.00503045
0.00502969
0.00502978
0.00503036
0.00503013
0.00539209
0.00535996
0.00533629
0.0053194
0.00530786
0.00530078
0.00529668
0.00529531
0.00529481
0.00529477
0.00529398
0.00316912
0.00316232
0.00315745
0.00315438
0.00315199
0.00315128
0.00315124
0.00315167
0.00315243
0.00315333
0.00315415
0.00477505
0.00475595
0.00474197
0.00473229
0.00472645
0.00472322
0.0047223
0.00472248
0.0047235
0.00472496
0.00472601
0.00580596
0.00577549
0.0057528
0.00573659
0.00572555
0.00571882
0.00571495
0.00571372
0.00571343
0.00571382
0.00571408
0.00647549
0.00643348
0.00640182
0.00637863
0.00636228
0.00635128
0.00634456
0.0063406
0.00633923
0.00633859
0.00633829
0.00687854
0.00682712
0.00678801
0.006759
0.00673816
0.00672381
0.00671443
0.00670864
0.00670633
0.0067053
0.0067051
0.00329859
0.0032888
0.00328177
0.00327691
0.00327393
0.00327207
0.00327147
0.00327156
0.00327206
0.00327274
0.00327327
0.00523966
0.0052121
0.00519178
0.00517762
0.00516807
0.00516252
0.00515952
0.00515873
0.00515877
0.00515934
0.00515942
0.00652758
0.00648459
0.00645228
0.00642865
0.00641203
0.00640088
0.00639409
0.00639006
0.00638855
0.00638788
0.00638766
0.00737111
0.00731418
0.0072706
0.00723795
0.00721415
0.00719742
0.0071862
0.00717909
0.00717496
0.00717387
0.00717438
0.00787026
0.00780274
0.00775062
0.0077111
0.00768182
0.00766078
0.00764628
0.00763681
0.00763128
0.00762998
0.00763101
0.0033886
0.00337636
0.00336751
0.00336137
0.00335737
0.00335506
0.00335396
0.00335372
0.00335399
0.00335448
0.00335474
0.00548153
0.00544781
0.00542304
0.00540542
0.00539355
0.00538598
0.00538158
0.00538016
0.00537961
0.00537965
0.00537914
0.00692576
0.00687343
0.00683388
0.00680466
0.00678373
0.00676936
0.00675999
0.00675444
0.00675136
0.00675039
0.0067501
0.00788494
0.00781705
0.00776475
0.00772518
0.00769593
0.00767493
0.00766046
0.00765096
0.00764518
0.00764347
0.0076441
0.00845205
0.0083728
0.00831123
0.00826412
0.00822877
0.00820292
0.00818463
0.00817232
0.00816486
0.00816274
0.00816393
0.00864516
0.00856167
0.00849654
0.00844647
0.0084087
0.0083809
0.00836112
0.00834777
0.00833982
0.00833792
0.00833971
0.00341901
0.0034057
0.0033961
0.00338941
0.00338504
0.00338272
0.00338096
0.0033807
0.00338092
0.00338135
0.00338156
0.0055252
0.00549012
0.00546441
0.00544605
0.00543359
0.00542566
0.0054209
0.00541939
0.00541877
0.00541871
0.00541812
0.00703297
0.00697789
0.00693623
0.00690517
0.0068828
0.00686738
0.00685723
0.00685118
0.00684773
0.00684659
0.00684623
0.00804458
0.00797246
0.00791696
0.00787492
0.00784374
0.00782126
0.00780566
0.00779535
0.0077891
0.00778707
0.00778752
0.00864409
0.00856003
0.0084947
0.00844466
0.00840702
0.00837939
0.00835974
0.00834645
0.00833851
0.00833524
0.00833678
0.00884615
0.00875764
0.00868858
0.00863545
0.00859528
0.00856561
0.0085444
0.00853
0.00852143
0.00851828
0.00852024
0.00339545
0.00338259
0.00337338
0.00336697
0.00336277
0.00336035
0.00335914
0.00335881
0.00335903
0.00335949
0.00335974
0.00539062
0.00535901
0.00533589
0.00531958
0.00530853
0.00530182
0.00529802
0.0052969
0.00529661
0.00529683
0.00529637
0.00687734
0.00682628
0.00678761
0.00675911
0.00673875
0.00672484
0.00671584
0.00671029
0.00670799
0.00670686
0.00670642
0.00786943
0.00780149
0.00774934
0.00770998
0.00768096
0.00766019
0.00764592
0.00763659
0.00763096
0.00762917
0.00762969
0.00845258
0.00837262
0.0083107
0.00826346
0.0082281
0.00820229
0.00818409
0.00817187
0.0081646
0.00816164
0.00816301
0.00864538
0.00856099
0.0084954
0.00844514
0.00840733
0.00837957
0.00835985
0.00834656
0.00833864
0.00833574
0.00833741
0.00331913
0.0033082
0.00330043
0.0032952
0.00329201
0.00328942
0.00328877
0.00328876
0.00328918
0.0032898
0.00329033
0.0032906
0.0051023
0.00507752
0.00505932
0.00504689
0.00503854
0.00503347
0.00503169
0.0050311
0.0050314
0.00503218
0.00503239
0.00503225
0.00647513
0.00643336
0.00640201
0.00637918
0.00636317
0.00635248
0.00634602
0.00634227
0.00634098
0.00634039
0.00633998
0.00737104
0.00731399
0.00727043
0.00723789
0.00721424
0.0071977
0.00718663
0.00717964
0.0071756
0.0071744
0.00717468
0.00788508
0.00781702
0.0077646
0.00772495
0.00769566
0.00767467
0.00766023
0.00765078
0.0076451
0.00764344
0.00764402
0.00804483
0.00797289
0.00791729
0.00787504
0.00784364
0.00782098
0.00780526
0.00779491
0.00778873
0.00778707
0.00778787
0.003201
0.00319302
0.00318746
0.00318382
0.00318119
0.00318012
0.00317985
0.00318012
0.00318075
0.00318154
0.00318228
0.00318281
0.0046456
0.00462871
0.00461651
0.0046082
0.00460279
0.00460079
0.0046001
0.0046005
0.00460168
0.00460325
0.00460434
0.00460463
0.00580641
0.00577606
0.00575357
0.00573757
0.00572673
0.00572015
0.00571643
0.00571528
0.00571508
0.0057155
0.00571567
0.00652849
0.00648541
0.00645308
0.00642943
0.00641281
0.00640172
0.00639487
0.0063909
0.00638941
0.00638874
0.00638833
0.00692676
0.00687433
0.00683454
0.0068051
0.00678399
0.00676947
0.00675998
0.00675437
0.00675129
0.00675032
0.00674991
0.0070341
0.00697893
0.00693669
0.00690517
0.00688243
0.00686669
0.00685632
0.00685012
0.00684667
0.00684559
0.00684528
0.0030608
0.00305596
0.00305266
0.00305058
0.00304956
0.00304932
0.0030496
0.00305023
0.00305107
0.003052
0.00305283
0.00305365
0.00395615
0.00394644
0.00393956
0.0039351
0.00393347
0.00393304
0.00393372
0.0039352
0.00393717
0.00393932
0.00394076
0.00394209
0.00477583
0.00475681
0.00474295
0.00473343
0.00472769
0.00472453
0.00472368
0.00472387
0.00472487
0.00472626
0.00472693
0.00524111
0.00521344
0.00519317
0.00517889
0.00516933
0.00516368
0.0051606
0.00515974
0.0051597
0.00516017
0.00516005
0.00548352
0.00544962
0.00542461
0.00540673
0.00539458
0.00538675
0.0053821
0.0053805
0.00537986
0.00537975
0.00537907
0.00552793
0.00549226
0.00546588
0.00544692
0.00543396
0.00542564
0.00542062
0.00541888
0.00541812
0.00541786
0.00541693
0.0031392
0.00313631
0.00313439
0.00313322
0.00313259
0.00313246
0.00313267
0.0031331
0.00313367
0.00313431
0.00313494
0.00313575
0.00302726
0.00302337
0.00302067
0.00301904
0.00301835
0.00301831
0.00301873
0.00301947
0.0030204
0.00302139
0.00302224
0.00302305
0.00316951
0.00316271
0.00315782
0.00315466
0.00315262
0.00315184
0.00315177
0.0031522
0.00315292
0.00315376
0.00315434
0.00329917
0.00328938
0.00328233
0.00327746
0.00327448
0.00327262
0.00327198
0.00327202
0.00327247
0.00327307
0.00327346
0.00338933
0.00337707
0.0033682
0.003362
0.00335793
0.00335552
0.00335435
0.00335402
0.00335421
0.00335462
0.0033548
0.00342012
0.00340665
0.00339687
0.00339
0.00338546
0.00338276
0.00338137
0.00338089
0.00338096
0.00338126
0.00338134
)
;

boundaryField
{
    inlet
    {
        type            fixedValue;
        value           nonuniform List<scalar> 0();
    }
    ami1
    {
        type            cyclicAMI;
        value           nonuniform List<scalar> 0();
    }
    walls
    {
        type            kqRWallFunction;
        value           nonuniform List<scalar> 
248
(
0.00313904
0.00306073
0.00320113
0.00331952
0.00339611
0.00313618
0.00305589
0.00319308
0.0033085
0.00338312
0.00313426
0.00305254
0.00318743
0.00330059
0.00337374
0.00313308
0.0030504
0.0031837
0.00329525
0.0033672
0.00313243
0.00304934
0.00318103
0.00329192
0.00336287
0.00313228
0.00304906
0.0031799
0.00328932
0.00336034
0.00313248
0.00304932
0.00317957
0.00328859
0.00335907
0.00313291
0.00304993
0.0031798
0.00328851
0.00335865
0.00313348
0.00305075
0.00318039
0.00328885
0.00335877
0.00313414
0.00305166
0.00318114
0.00328938
0.0033591
0.00313483
0.00305249
0.00318181
0.00328974
0.00335919
0.0031392
0.00302726
0.00316951
0.00329917
0.00338933
0.00342012
0.00313631
0.00302337
0.00316271
0.00328938
0.00337707
0.00340665
0.00313439
0.00302067
0.00315782
0.00328233
0.0033682
0.00339687
0.00313322
0.00301904
0.00315466
0.00327746
0.003362
0.00339
0.00313259
0.00301835
0.00315262
0.00327448
0.00335793
0.00338546
0.00313246
0.00301831
0.00315184
0.00327262
0.00335552
0.00338276
0.00313267
0.00301873
0.00315177
0.00327198
0.00335435
0.00338137
0.0031331
0.00301947
0.0031522
0.00327202
0.00335402
0.00338089
0.00313367
0.0030204
0.00315292
0.00327247
0.00335421
0.00338096
0.00313431
0.00302139
0.00315376
0.00327307
0.00335462
0.00338126
0.00313494
0.00302224
0.00315434
0.00327346
0.0033548
0.00338134
0.00313575
0.00302305
0.00313904
0.00302704
0.00316912
0.00329859
0.0033886
0.00341901
0.00339545
0.00331913
0.003201
0.0030608
0.0031392
0.00313618
0.00302318
0.00316232
0.0032888
0.00337636
0.0034057
0.00338259
0.0033082
0.00319302
0.00305596
0.00313631
0.00313426
0.00302044
0.00315745
0.00328177
0.00336751
0.0033961
0.00337338
0.00330043
0.00318746
0.00305266
0.00313439
0.00313308
0.00301875
0.00315438
0.00327691
0.00336137
0.00338941
0.00336697
0.0032952
0.00318382
0.00305058
0.00313322
0.00313243
0.00301801
0.00315199
0.00327393
0.00335737
0.00338504
0.00336277
0.00329201
0.00318119
0.00304956
0.00313259
0.00313228
0.00301794
0.00315128
0.00327207
0.00335506
0.00338272
0.00336035
0.00328942
0.00318012
0.00304932
0.00313246
0.00313248
0.00301834
0.00315124
0.00327147
0.00335396
0.00338096
0.00335914
0.00328877
0.00317985
0.0030496
0.00313267
0.00313291
0.00301907
0.00315167
0.00327156
0.00335372
0.0033807
0.00335881
0.00328876
0.00318012
0.00305023
0.0031331
0.00313348
0.00302
0.00315243
0.00327206
0.00335399
0.00338092
0.00335903
0.00328918
0.00318075
0.00305107
0.00313367
0.00313414
0.003021
0.00315333
0.00327274
0.00335448
0.00338135
0.00335949
0.0032898
0.00318154
0.003052
0.00313431
0.00313483
0.00302192
0.00315415
0.00327327
0.00335474
0.00338156
0.00335974
0.00329033
0.00318228
0.00305283
0.00313494
0.0032906
0.00318281
0.00305365
0.00313575
)
;
    }
    ami2
    {
        type            cyclicAMI;
        value           nonuniform List<scalar> 0();
    }
    outlet
    {
        type            zeroGradient;
    }
    procBoundary8to0
    {
        type            processor;
        value           nonuniform List<scalar> 
29
(
0.00314314
0.00306743
0.00321205
0.0033344
0.00341365
0.00303226
0.00396856
0.00466779
0.00513611
0.0054346
0.00317821
0.00479999
0.00584565
0.00652988
0.00694386
0.00331161
0.00527607
0.00658335
0.00744338
0.0079546
0.00340503
0.00552626
0.00699241
0.00797016
0.00855052
0.00874754
0.00813444
0.00874758
0.00895375
)
;
    }
    procBoundary8to1
    {
        type            processor;
        value           nonuniform List<scalar> 
33
(
0.00343701
0.00557175
0.00710301
0.00341283
0.00543264
0.00694221
0.00795423
0.00855121
0.00874823
0.00333394
0.00513503
0.00652918
0.00744319
0.0079703
0.00813423
0.00321191
0.00466755
0.00584597
0.00658425
0.0069935
0.00710416
0.00306751
0.00396883
0.00480084
0.00527756
0.00552829
0.00557476
0.00314333
0.00303251
0.00317866
0.00331228
0.0034058
0.00343824
)
;
    }
    procBoundary8to7
    {
        type            processor;
        value           nonuniform List<scalar> 
68
(
0.00313545
0.00305311
0.00318228
0.00328993
0.00335913
0.00302261
0.00394051
0.00460271
0.00502963
0.00529314
0.00315475
0.00472642
0.00571426
0.00633842
0.0067052
0.00327363
0.00515932
0.00638785
0.00717508
0.00763177
0.0033549
0.00537869
0.00675026
0.00764496
0.0081652
0.00834061
0.00338166
0.00541755
0.00684632
0.00778831
0.00833809
0.00852153
0.00335981
0.00335981
0.00529577
0.00529577
0.0067065
0.00763046
0.00816425
0.00833864
0.00329086
0.00503244
0.00634005
0.00634005
0.00717524
0.00764492
0.00778885
0.00318322
0.0046049
0.00571568
0.00571568
0.00638835
0.00675006
0.00684546
0.00305407
0.00394224
0.00472615
0.00472615
0.00515964
0.00537847
0.0054162
0.00313617
0.00302344
0.00315437
0.00315437
0.00327362
0.00335484
0.00338132
)
;
    }
    procBoundary8to9
    {
        type            processor;
        value           nonuniform List<scalar> 
132
(
0.00341982
0.00340624
0.00339635
0.00338939
0.00338477
0.00338203
0.00338062
0.00338012
0.00338018
0.00338048
0.00338054
0.00552738
0.00549153
0.00546495
0.00544582
0.00543272
0.0054243
0.00541925
0.00541743
0.00541659
0.00541627
0.00541536
0.00703419
0.00697904
0.00693674
0.00690514
0.0068823
0.00686644
0.00685595
0.00684964
0.00684606
0.00684507
0.00684499
0.00804592
0.00797429
0.00791881
0.00787655
0.00784507
0.00782229
0.00780645
0.00779602
0.00778992
0.00778862
0.00779001
0.00804592
0.00797429
0.00791881
0.00787655
0.00784507
0.00782229
0.00780645
0.00779602
0.00778992
0.00778862
0.00779001
0.00845314
0.00837381
0.00831206
0.00826476
0.00822924
0.00820325
0.00818488
0.00817253
0.00816513
0.00816329
0.00816471
0.00864559
0.00856153
0.00849601
0.00844572
0.00840784
0.00838
0.0083602
0.00834683
0.00833876
0.00833665
0.00833815
0.00845403
0.008374
0.00831182
0.00826427
0.00822863
0.00820261
0.00818425
0.00817195
0.00816456
0.00816263
0.00816393
0.0078701
0.00780219
0.00774975
0.00771003
0.00768067
0.00765963
0.00764518
0.00763576
0.00763028
0.00762891
0.00762971
0.00687852
0.00682685
0.00678758
0.00675852
0.00673772
0.00672348
0.00671425
0.00670858
0.00670637
0.00670533
0.00670493
0.00539256
0.00536034
0.0053367
0.00531986
0.00530846
0.00530151
0.00529754
0.00529627
0.00529589
0.00529593
0.00529511
0.00339637
0.00338339
0.00337403
0.00336753
0.00336325
0.00336079
0.00335958
0.0033592
0.00335936
0.00335971
0.00335982
)
;
    }
}


// ************************************************************************* //
