/*--------------------------------*- C++ -*----------------------------------*\
| =========                 |                                                 |
| \\      /  F ield         | OpenFOAM: The Open Source CFD Toolbox           |
|  \\    /   O peration     | Version:  2212                                  |
|   \\  /    A nd           | Website:  www.openfoam.com                      |
|    \\/     M anipulation  |                                                 |
\*---------------------------------------------------------------------------*/
FoamFile
{
    version     2.0;
    format      ascii;
    arch        "LSB;label=32;scalar=64";
    class       volScalarField;
    location    "0.95";
    object      p;
}
// * * * * * * * * * * * * * * * * * * * * * * * * * * * * * * * * * * * * * //

dimensions      [0 2 -2 0 0 0 0];

internalField   nonuniform List<scalar> 
678
(
0.00111047
0.000999084
0.000888979
0.000781332
0.00067604
0.00110651
0.000995585
0.000886093
0.000779098
0.000674435
0.00110404
0.000993018
0.000883838
0.000777218
0.000672712
0.00110571
0.000994431
0.000884876
0.000777688
0.000672845
0.000569789
0.00110709
0.000996126
0.000886723
0.000779373
0.00067419
0.000570817
0.00110887
0.000998024
0.000888485
0.000781012
0.000675493
0.000571637
0.000466617
0.0011117
0.000999923
0.000889755
0.000781834
0.000676601
0.000573639
0.000468756
0.00111215
0.00100009
0.000889656
0.000781712
0.000676298
0.000573001
0.000469215
0.00111205
0.00100001
0.000889606
0.000781793
0.000676255
0.000572904
0.000469301
0.00111426
0.00100231
0.000891577
0.000783318
0.000677317
0.000573372
0.00111047
0.000999137
0.000889002
0.000781227
0.000675638
0.000571857
0.00111453
0.00100258
0.000891822
0.000783695
0.000678168
0.000573776
0.0011141
0.00100197
0.000891235
0.000783073
0.000677715
0.00110714
0.000996535
0.000887291
0.000779788
0.000674262
0.000570896
0.00110455
0.000995375
0.000887031
0.00077966
0.000673806
0.000569119
0.00110424
0.000995304
0.000887214
0.000780265
0.00067438
0.000568911
0.00110578
0.000996556
0.000888347
0.000781402
0.000675549
0.000570069
0.00110639
0.000997215
0.000889029
0.000782108
0.000676476
0.000571235
0.00110812
0.000998319
0.000889655
0.000782356
0.000677107
0.00057294
0.00046666
0.00110992
0.000998942
0.000889422
0.000781817
0.000676565
0.000573229
0.000468225
0.00111402
0.00100198
0.000891291
0.000783009
0.000677075
0.000573639
0.000470164
0.0011068
0.000995944
0.000886357
0.000779174
0.000674049
0.000570552
0.00111239
0.00100035
0.000889915
0.000782172
0.000676929
0.000573076
0.000467356
0.00111011
0.000999087
0.000889419
0.000781627
0.00067583
0.000572154
0.00109384
0.000987087
0.000880975
0.000774699
0.000668632
0.000563057
0.00108744
0.000981775
0.000876296
0.000770699
0.000664772
0.000558394
0.00108419
0.000978543
0.000873095
0.000767812
0.000662255
0.000556353
0.00108405
0.000978185
0.00087266
0.000767395
0.000662149
0.000556639
0.00108441
0.000979004
0.000873885
0.000769347
0.00066406
0.00055693
0.00108808
0.000982439
0.000877275
0.000772319
0.000667036
0.000560499
0.00109408
0.000987267
0.000881301
0.000775491
0.0006704
0.000565069
0.00110735
0.000996829
0.00088775
0.000780549
0.000675656
0.000572293
0.00046662
0.00110453
0.000993587
0.000884272
0.000777476
0.000672757
0.000569521
0.00111265
0.0010005
0.000889967
0.000782137
0.000676734
0.000572806
0.000467968
0.00110826
0.000998558
0.000889891
0.000782571
0.000676869
0.000571967
0.000466048
0.00108788
0.000982367
0.000877306
0.00077229
0.000666761
0.000559985
0.00107874
0.000974372
0.000870361
0.000766034
0.000660373
0.000553903
0.00107301
0.000969113
0.000865764
0.000761751
0.000656561
0.000551203
0.00107177
0.00096777
0.000864367
0.000760277
0.000655267
0.000550639
0.00107307
0.000969131
0.000865716
0.000761584
0.000656166
0.0010789
0.000974503
0.00087051
0.000766398
0.000660851
0.000554003
0.00108773
0.000982035
0.00087668
0.000771241
0.000665174
0.000558248
0.00110509
0.000995978
0.000887829
0.00078082
0.000675289
0.000570004
0.00110655
0.000995405
0.000885865
0.000778733
0.00067393
0.000570102
0.00111213
0.0010004
0.000890209
0.000782609
0.000677535
0.000573726
0.00110674
0.000997671
0.000889732
0.000783276
0.000677393
0.000570257
0.00108444
0.000978996
0.00087386
0.000768778
0.000662849
0.00107285
0.000968872
0.00086524
0.000760487
0.000654873
0.00106629
0.000962787
0.000860122
0.000756131
0.000651249
0.0010647
0.000961107
0.000858499
0.000754623
0.000650041
0.00106613
0.000962487
0.000859715
0.000755391
0.000650351
0.00107277
0.000968661
0.000864971
0.000760332
0.000654859
0.00108422
0.000978428
0.000872833
0.000767224
0.000661217
0.00110497
0.000996127
0.000888233
0.000781286
0.000675092
0.00110825
0.000997486
0.000888187
0.000781339
0.000676441
0.000570772
0.00110927
0.000998431
0.00088899
0.000781745
0.000676251
0.000571463
0.00110635
0.000997237
0.000889471
0.000782848
0.00067559
0.000567752
0.00108411
0.000978192
0.00087267
0.000767069
0.00107171
0.000967496
0.000863142
0.000757718
0.0010649
0.000961214
0.000857662
0.000752894
0.00106264
0.000958986
0.000856127
0.000751992
0.000648128
0.00106431
0.000960615
0.000857803
0.000753522
0.000649033
0.00107122
0.000967037
0.000863217
0.000758276
0.000653026
0.00108386
0.000977858
0.000872085
0.00076638
0.000660614
0.00110652
0.000997365
0.00088925
0.000782117
0.000675724
0.00111027
0.000999533
0.000890063
0.000782798
0.000677366
0.00121727
0.00110585
0.000995393
0.000886957
0.000780686
0.000676105
0.00121432
0.00110436
0.00099541
0.00088747
0.000780507
0.000673972
0.00119199
0.00108518
0.000978943
0.000872873
0.000766737
0.000660196
0.00117984
0.00107454
0.000970207
0.000865343
0.000759354
0.000653491
0.001173
0.00106802
0.000964525
0.000860416
0.000754995
0.000649911
0.00106495
0.000961421
0.000858318
0.000753826
0.00064924
0.0010657
0.000962235
0.000859376
0.000754787
0.000649873
0.00107238
0.000968277
0.000864406
0.000759197
0.000653595
0.00108431
0.000978499
0.000872854
0.000766891
0.000660573
0.00110719
0.000998051
0.00088989
0.000782685
0.000676173
0.00111298
0.00100148
0.000891528
0.000784309
0.00067935
0.00121516
0.00110329
0.000992653
0.000884528
0.000778966
0.00067486
0.00121429
0.00110407
0.000994909
0.000886717
0.000779709
0.000674013
0.00119573
0.00108884
0.000982671
0.000876411
0.00076971
0.000662657
0.00118609
0.00108048
0.000975505
0.000870395
0.000764258
0.000657254
0.00117987
0.00107475
0.000970454
0.000865552
0.000759632
0.000653537
0.00107182
0.000967746
0.000863581
0.000758407
0.000653033
0.00107232
0.000968246
0.000864381
0.000759173
0.000653547
0.00107844
0.000973651
0.000869091
0.000763508
0.000657265
0.00108799
0.00098204
0.000876549
0.000770329
0.000663478
0.00110884
0.000999167
0.000890658
0.000783546
0.000677373
0.0011134
0.00100157
0.000891382
0.000784183
0.00067937
0.00121284
0.0011011
0.000990832
0.000883311
0.000778246
0.000674658
0.00121639
0.00110501
0.000994826
0.000886483
0.000780343
0.00067584
0.00120212
0.00109434
0.00098762
0.000880876
0.000774138
0.000667609
0.00119572
0.00108904
0.000983027
0.000877152
0.000770705
0.000663328
0.00119206
0.00108553
0.000979457
0.000873465
0.000767335
0.00066062
0.00108406
0.000977967
0.000872031
0.000766297
0.000660485
0.00108394
0.000977972
0.000872263
0.000766434
0.0006603
0.00108748
0.000981473
0.000875881
0.000769659
0.000662867
0.00109408
0.000987132
0.000881266
0.000774718
0.000667637
0.00111057
0.000999907
0.000890585
0.000783498
0.00067815
0.0011132
0.00100145
0.000891178
0.000784033
0.000679181
0.00121561
0.00110378
0.000993143
0.000885146
0.00077961
0.000675799
0.00122402
0.00111084
0.000998924
0.000889647
0.000783263
0.000679481
0.00121921
0.00110737
0.000996879
0.000888268
0.000781935
0.000677713
0.00121739
0.00110677
0.000997168
0.000888861
0.000782154
0.000676598
0.00121611
0.001106
0.00099669
0.000888574
0.000781492
0.000675125
0.00110595
0.000996499
0.00088821
0.000781041
0.000674614
0.00110444
0.000995389
0.000887367
0.000780202
0.000673714
0.00110483
0.000995614
0.000887506
0.000780364
0.000674043
0.00110745
0.000997131
0.000888147
0.000781202
0.000675814
0.00111471
0.00100299
0.000892276
0.000784697
0.000680187
0.00111534
0.00100363
0.000892995
0.00078534
0.000680312
0.00122002
0.00110764
0.000996392
0.000887678
0.000781465
0.000677325
0.00122452
0.00111151
0.000999569
0.000890242
0.000783575
0.000679155
0.00122192
0.00110896
0.000997432
0.000888603
0.00122209
0.00110903
0.000997487
0.00088866
0.000782589
0.00122182
0.0011094
0.00099794
0.000889006
0.000782623
0.0011086
0.000997646
0.000888337
0.000781222
0.000676124
0.00110734
0.000996412
0.000887038
0.000780185
0.000675323
0.00110616
0.000995031
0.00088545
0.000778543
0.000673934
0.00110455
0.00099379
0.000884372
0.000777888
0.000673898
0.00110711
0.000996352
0.000886717
0.00077992
0.000675631
0.00111119
0.000999996
0.000889872
0.000782548
0.000677848
)
;

boundaryField
{
    inlet
    {
        type            zeroGradient;
    }
    ami1
    {
        type            cyclicAMI;
        value           nonuniform List<scalar> 0();
    }
    walls
    {
        type            zeroGradient;
    }
    ami2
    {
        type            cyclicAMI;
        value           nonuniform List<scalar> 0();
    }
    outlet
    {
        type            fixedValue;
        value           nonuniform List<scalar> 0();
    }
    procBoundary5to6
    {
        type            processor;
        value           nonuniform List<scalar> 
177
(
0.000572078
0.000572078
0.000570825
0.000569633
0.000569633
0.000569633
0.000464705
0.000465696
0.000465696
0.000359921
0.000464819
0.000361305
0.00046523
0.000362993
0.000363095
0.000469725
0.000469725
0.000469725
0.000468199
0.000467904
0.000574554
0.000467904
0.000574554
0.000574554
0.000574554
0.000466196
0.0004643
0.000463957
0.000464819
0.00046523
0.00046523
0.000359951
0.000455148
0.000361506
0.000458809
0.000364235
0.000466877
0.000466877
0.000360141
0.000467607
0.000467607
0.000467607
0.000459001
0.000455276
0.000453707
0.000453727
0.000452714
0.00055094
0.000455148
0.000458809
0.000458809
0.000359637
0.000465458
0.000463862
0.000465458
0.000361409
0.000467836
0.000359936
0.000455048
0.000463119
0.000455048
0.000556236
0.000451507
0.000551022
0.000449532
0.000548284
0.000449446
0.00055094
0.000547604
0.00055094
0.00055094
0.000450966
0.000551166
0.000454405
0.000556247
0.000463862
0.000568867
0.000464353
0.000467836
0.000463119
0.000556236
0.000556236
0.000661025
0.000551022
0.000653166
0.000548284
0.000649224
0.000547604
0.000548097
0.000551166
0.000556247
0.000568867
0.000568867
0.000463363
0.000571334
0.000465469
0.000570347
0.000661025
0.000461891
0.000555874
0.000567776
0.000661025
0.000661025
0.000653166
0.000653166
0.000649224
0.000649224
0.000649224
0.00054742
0.000547822
0.000550819
0.000556598
0.000569535
0.000571334
0.000570347
0.000567776
0.000556259
0.000551461
0.000548549
0.000547959
0.000548458
0.000551374
0.000556607
0.000569767
0.000573031
0.000569068
0.000568359
0.000558335
0.00055414
0.000551256
0.000550878
0.000551264
0.000554145
0.000558778
0.000570795
0.000573158
0.000569038
0.000570026
0.000562446
0.000558775
0.000556549
0.000556598
0.000556361
0.000558258
0.000562133
0.000571874
0.000572799
0.000570319
0.000573619
0.000782466
0.000571774
0.000678439
0.00057046
0.000678862
0.000569047
0.000678321
0.000568577
0.000567799
0.000568067
0.000569828
0.000574186
0.000574027
0.000571707
0.000782466
0.000573157
0.000678439
0.000782466
0.000782466
0.000678862
0.000678321
0.000678321
0.000570403
0.000569429
0.000568406
0.000568567
0.000570176
0.000572063
)
;
    }
    procBoundary5to7
    {
        type            processor;
        value           nonuniform List<scalar> 
131
(
0.00121986
0.00121566
0.00121329
0.0012154
0.00121706
0.00121886
0.00122201
0.00122234
0.00122212
0.00122415
0.00121991
0.0012243
0.00122371
0.00121676
0.00121429
0.00121407
0.00121563
0.00121627
0.00121787
0.00121971
0.0012237
0.00121591
0.00122224
0.00121965
0.00120305
0.00119608
0.00119224
0.00119203
0.00119239
0.00119671
0.00120328
0.00121693
0.0012137
0.00122242
0.00121806
0.00119669
0.00118668
0.00118043
0.00117918
0.00118045
0.0011869
0.00119646
0.00121482
0.00121606
0.00122228
0.00121667
0.00119249
0.00118021
0.00117357
0.00117208
0.00117359
0.00118032
0.00119238
0.00121477
0.00121805
0.00121936
0.00121936
0.00121609
0.00121609
0.00119186
0.00119186
0.00117859
0.00117859
0.00117164
0.00117164
0.00116987
0.00117178
0.00117872
0.001192
0.00121638
0.00122
0.00132772
0.00132518
0.00130123
0.00128868
0.00128195
0.00117161
0.00117161
0.00117306
0.00117994
0.00119256
0.00121704
0.00122299
0.00132575
0.00132518
0.00130549
0.00129505
0.00128863
0.00117847
0.00117847
0.00117988
0.0011867
0.00119684
0.00121856
0.00122324
0.00132294
0.00132702
0.00131273
0.00130564
0.0013012
0.00119169
0.00119169
0.00119225
0.00119642
0.00120341
0.00122019
0.00122288
0.00132575
0.00133469
0.00132984
0.00132841
0.00132696
0.00121585
0.00121585
0.00121438
0.00121455
0.00121694
0.0012241
0.00122489
0.00133043
0.0013353
0.0013325
0.00133278
0.00133258
0.00121906
0.00121906
0.00121732
0.00121564
0.0012136
0.00121601
0.00122032
)
;
    }
}


// ************************************************************************* //
