/*--------------------------------*- C++ -*----------------------------------*\
| =========                 |                                                 |
| \\      /  F ield         | OpenFOAM: The Open Source CFD Toolbox           |
|  \\    /   O peration     | Version:  2212                                  |
|   \\  /    A nd           | Website:  www.openfoam.com                      |
|    \\/     M anipulation  |                                                 |
\*---------------------------------------------------------------------------*/
FoamFile
{
    version     2.0;
    format      ascii;
    arch        "LSB;label=32;scalar=64";
    class       volVectorField;
    location    "0.95";
    object      U;
}
// * * * * * * * * * * * * * * * * * * * * * * * * * * * * * * * * * * * * * //

dimensions      [0 1 -1 0 0 0 0];

internalField   nonuniform List<vector> 
678
(
(0.0244595 2.48858e-05 1.29693e-05)
(0.0243776 2.22922e-05 1.35353e-05)
(0.0242885 1.88958e-05 1.37408e-05)
(0.0241953 1.56068e-05 1.29359e-05)
(0.0241115 1.30475e-05 1.06162e-05)
(0.0411922 -3.00506e-06 8.42793e-05)
(0.0410594 -1.27209e-06 8.03054e-05)
(0.0409347 -1.15418e-06 7.45442e-05)
(0.0408097 -2.44686e-06 6.65157e-05)
(0.0406986 -3.9461e-06 5.66404e-05)
(0.0572607 -0.000126708 0.000160602)
(0.0570748 -0.000111973 0.000146818)
(0.0569128 -9.50435e-05 0.000124989)
(0.0567589 -7.99977e-05 0.000103377)
(0.056626 -6.98451e-05 9.03218e-05)
(0.0671113 -0.000239636 0.000198445)
(0.0668941 -0.000216393 0.000179724)
(0.0667016 -0.000191398 0.00015615)
(0.0665211 -0.000167332 0.000133542)
(0.0663635 -0.0001459 0.000115035)
(0.0662254 -0.000128041 0.000101754)
(0.0721594 -0.000306409 0.000209272)
(0.0719348 -0.000278872 0.000188437)
(0.0717311 -0.000249689 0.000165304)
(0.0715393 -0.000220724 0.000142198)
(0.0713699 -0.000192461 0.000121732)
(0.0712211 -0.0001678 0.000108617)
(0.0721893 -0.000328684 0.000187902)
(0.0719599 -0.000298398 0.000169236)
(0.071751 -0.000265225 0.000150589)
(0.071556 -0.00023142 0.000131378)
(0.071379 -0.000198937 0.000112463)
(0.0712294 -0.000173803 9.75355e-05)
(0.0710879 -0.000154989 8.50666e-05)
(0.0680082 -0.000298939 0.000165519)
(0.0677724 -0.000270412 0.00014912)
(0.0675608 -0.000235839 0.000132353)
(0.0673635 -0.000199856 0.00011467)
(0.0671923 -0.000165458 9.8111e-05)
(0.0670396 -0.000141108 8.52958e-05)
(0.066892 -0.00013024 7.2259e-05)
(0.060789 -0.000213694 0.000119804)
(0.0605741 -0.00019111 0.000105695)
(0.0603882 -0.000162711 9.13245e-05)
(0.0602151 -0.000134222 7.68777e-05)
(0.0600665 -0.000108468 6.45727e-05)
(0.0599383 -8.75061e-05 5.62374e-05)
(0.0598276 -8.28386e-05 4.85878e-05)
(0.0510074 -0.000104769 5.74959e-05)
(0.0508318 -9.59863e-05 4.82822e-05)
(0.0506795 -8.49234e-05 3.93298e-05)
(0.0505319 -7.34683e-05 3.20996e-05)
(0.0504015 -6.31707e-05 2.74224e-05)
(0.0502881 -5.0995e-05 2.49146e-05)
(0.0501917 -4.3062e-05 2.32684e-05)
(0.0380716 -1.64929e-05 4.19128e-05)
(0.0379378 -1.87362e-05 3.42459e-05)
(0.0378121 -2.19603e-05 2.72597e-05)
(0.0376838 -2.34949e-05 2.20603e-05)
(0.0375663 -2.15305e-05 1.82537e-05)
(0.0374684 -1.36725e-05 1.60222e-05)
(0.0244572 -1.22686e-05 2.07129e-05)
(0.024375 -1.28173e-05 1.74014e-05)
(0.0242873 -1.29376e-05 1.39197e-05)
(0.0241964 -1.19816e-05 1.0606e-05)
(0.0241159 -1.01065e-05 7.57287e-06)
(0.0240535 -6.98793e-06 5.8281e-06)
(0.0380883 4.68745e-05 1.38285e-05)
(0.037955 4.08024e-05 1.65337e-05)
(0.0378276 3.44521e-05 2.09896e-05)
(0.0376946 2.95752e-05 2.4075e-05)
(0.0375724 2.66234e-05 2.38488e-05)
(0.037465 2.32791e-05 1.3412e-05)
(0.0705577 4.02169e-05 0.000122995)
(0.0703725 3.70333e-05 0.000118592)
(0.0702127 3.14236e-05 0.00012186)
(0.0700556 2.55043e-05 0.000123688)
(0.0699184 2.18177e-05 0.000105767)
(0.0910541 -0.000108715 0.000263985)
(0.0909564 -0.000101926 0.000254547)
(0.0908643 -9.48395e-05 0.000241088)
(0.0907705 -8.83058e-05 0.000226884)
(0.0906828 -7.98729e-05 0.000205713)
(0.0906053 -6.40279e-05 0.000159075)
(0.100382 -0.000260828 0.00030947)
(0.100334 -0.000245544 0.000295213)
(0.100282 -0.000227724 0.00027562)
(0.100228 -0.000211049 0.000257596)
(0.100175 -0.000192133 0.000235453)
(0.100125 -0.000156728 0.000186711)
(0.104173 -0.000359572 0.000328152)
(0.104138 -0.000336906 0.000308795)
(0.1041 -0.000311282 0.000286183)
(0.10406 -0.000289395 0.000266184)
(0.104017 -0.000264349 0.000242088)
(0.103978 -0.000217522 0.000195771)
(0.104276 -0.000394859 0.000306572)
(0.104241 -0.000367211 0.000283631)
(0.104203 -0.000339852 0.000261869)
(0.104163 -0.000314347 0.000240724)
(0.104121 -0.000289196 0.000218876)
(0.104079 -0.000243523 0.000185338)
(0.101723 -0.000366387 0.000247054)
(0.101686 -0.000346657 0.000230099)
(0.101645 -0.000323957 0.000212107)
(0.1016 -0.000307362 0.000196532)
(0.101552 -0.0002828 0.000176884)
(0.101507 -0.000223676 0.000143307)
(0.0966918 -0.000314912 0.000161954)
(0.0966308 -0.000299547 0.000149479)
(0.0965668 -0.000283128 0.000137659)
(0.0964988 -0.000271117 0.000126827)
(0.0964314 -0.0002598 0.000116328)
(0.0963601 -0.000227656 0.0001016)
(0.0962896 -0.000169372 8.15985e-05)
(0.0877013 -0.000266938 7.37512e-05)
(0.0875778 -0.000253453 6.57862e-05)
(0.0874647 -0.000240707 5.83756e-05)
(0.087351 -0.000230281 5.19815e-05)
(0.0872468 -0.000218534 4.6991e-05)
(0.0871434 -0.000183882 4.3203e-05)
(0.0870444 -0.000134314 3.66869e-05)
(0.0705477 -0.000122946 3.33447e-05)
(0.070363 -0.000116258 2.75768e-05)
(0.070204 -0.000116447 2.06801e-05)
(0.0700508 -0.000115706 1.39266e-05)
(0.0699164 -0.000108138 8.09253e-06)
(0.0697951 -8.81791e-05 5.21765e-06)
(0.0696837 -6.03618e-05 6.85629e-06)
(0.0412033 -7.9666e-05 -9.81095e-06)
(0.0410707 -7.50985e-05 -9.15116e-06)
(0.0409468 -6.92431e-05 -8.99313e-06)
(0.0408246 -6.0253e-05 -9.67581e-06)
(0.040718 -4.75963e-05 -1.05419e-05)
(0.0406347 -3.32979e-05 -9.26712e-06)
(0.0510419 6.18694e-05 0.000102657)
(0.0508675 5.41448e-05 9.40849e-05)
(0.0507139 4.60517e-05 8.43479e-05)
(0.0505632 3.96974e-05 7.5737e-05)
(0.0504308 3.54739e-05 7.16995e-05)
(0.0503067 3.2658e-05 6.41546e-05)
(0.0501968 2.97634e-05 4.67132e-05)
(0.087714 7.76035e-05 0.000263106)
(0.087591 7.1942e-05 0.000251102)
(0.0874791 6.65678e-05 0.000241213)
(0.0873678 6.21758e-05 0.000235418)
(0.0872663 5.82526e-05 0.000216133)
(0.0871791 5.23271e-05 0.000162523)
(0.105691 -5.41164e-05 0.000422694)
(0.105716 -5.12238e-05 0.00040207)
(0.105726 -4.72599e-05 0.000383947)
(0.105732 -4.25477e-05 0.00036666)
(0.105734 -3.61574e-05 0.000336772)
(0.105737 -2.85417e-05 0.000267852)
(0.113697 -0.000215249 0.00042017)
(0.113776 -0.000203055 0.000397776)
(0.113847 -0.000188945 0.00037823)
(0.113915 -0.000175866 0.00036412)
(0.113971 -0.000158322 0.000337302)
(0.114021 -0.00013252 0.000278212)
(0.117033 -0.000331846 0.000389691)
(0.11713 -0.000312962 0.000369751)
(0.117219 -0.00029218 0.000349436)
(0.117305 -0.000272165 0.000329564)
(0.117383 -0.00024719 0.000301134)
(0.117451 -0.000210087 0.000254259)
(0.117514 -0.000396204 0.000318694)
(0.117615 -0.000375084 0.0003013)
(0.117709 -0.000354075 0.000282626)
(0.117798 -0.000334317 0.000263046)
(0.117879 -0.000306303 0.000238233)
(0.11795 -0.00025887 0.000204226)
(0.115981 -0.000430624 0.000216558)
(0.116077 -0.000407512 0.000203104)
(0.116165 -0.000386055 0.000188007)
(0.116251 -0.000370123 0.000174005)
(0.116323 -0.000340702 0.000156843)
(0.116389 -0.000283377 0.000133172)
(0.112471 -0.000441492 8.33949e-05)
(0.112549 -0.000417054 7.76018e-05)
(0.112617 -0.000396835 7.09732e-05)
(0.112679 -0.000384091 6.54978e-05)
(0.11273 -0.000357796 5.91825e-05)
(0.11278 -0.000296782 4.97095e-05)
(0.105693 -0.000426022 -5.75448e-05)
(0.105717 -0.000404132 -5.55876e-05)
(0.105726 -0.000384025 -5.27192e-05)
(0.105729 -0.000365716 -4.93921e-05)
(0.105726 -0.000337615 -4.41237e-05)
(0.105723 -0.000276147 -3.57502e-05)
(0.0910523 -0.000261645 -0.000115066)
(0.0909547 -0.000249701 -0.0001099)
(0.0908627 -0.000235265 -0.00010424)
(0.0907661 -0.000220363 -9.88142e-05)
(0.0906739 -0.000201299 -9.19372e-05)
(0.0905787 -0.000167236 -7.85909e-05)
(0.0904829 -0.000129788 -6.09039e-05)
(0.0572962 -0.000156449 -0.000134804)
(0.0571091 -0.000142866 -0.000121754)
(0.0569449 -0.000122185 -0.000106115)
(0.0567919 -9.66601e-05 -9.05554e-05)
(0.0566637 -7.13175e-05 -7.79313e-05)
(0.0565557 -5.2695e-05 -6.66181e-05)
(0.0608428 0.000124296 0.000212876)
(0.0606288 0.000111205 0.00019044)
(0.0604433 9.74675e-05 0.000161682)
(0.06027 8.44742e-05 0.000133408)
(0.0601223 7.33668e-05 0.000110859)
(0.0599949 6.55541e-05 9.72261e-05)
(0.0598798 5.78449e-05 9.02793e-05)
(0.0966937 0.000164907 0.000309655)
(0.0966334 0.000154337 0.000297264)
(0.0965691 0.000144826 0.000283529)
(0.0965023 0.00013684 0.000271017)
(0.0964373 0.000129004 0.000255191)
(0.0963714 0.000112919 0.000219791)
(0.0963078 8.69855e-05 0.000164237)
(0.112454 8.60709e-05 0.000439059)
(0.11253 8.03689e-05 0.000415683)
(0.112598 7.41105e-05 0.000396605)
(0.112661 6.88636e-05 0.000383443)
(0.112712 6.21447e-05 0.000353858)
(0.112759 5.22549e-05 0.00028876)
(0.119714 -6.30031e-05 0.000386823)
(0.119847 -6.088e-05 0.00037004)
(0.119971 -5.86694e-05 0.000363024)
(0.120089 -5.61907e-05 0.000355273)
(0.120195 -5.20172e-05 0.000328719)
(0.12029 -4.39006e-05 0.000273612)
(0.122967 -0.000184307 0.000319084)
(0.123117 -0.000174961 0.00030426)
(0.123258 -0.000167457 0.000295462)
(0.123394 -0.000159666 0.000286406)
(0.123518 -0.000147188 0.000266208)
(0.123628 -0.000125698 0.000227006)
(0.123757 -0.000274542 0.000215472)
(0.123911 -0.000260498 0.000204824)
(0.124056 -0.000251674 0.000197593)
(0.124196 -0.00024101 0.000189555)
(0.124325 -0.000219652 0.000175326)
(0.12444 -0.000186201 0.000152029)
(0.122689 -0.000342046 8.57321e-05)
(0.12284 -0.000326039 8.1336e-05)
(0.122982 -0.000319075 7.82459e-05)
(0.123119 -0.000303263 7.38227e-05)
(0.123248 -0.000269339 6.71705e-05)
(0.119717 -0.000389787 -6.28795e-05)
(0.119851 -0.000373423 -5.94154e-05)
(0.119974 -0.000366571 -5.58775e-05)
(0.120093 -0.000356914 -5.04737e-05)
(0.120198 -0.000330269 -4.18977e-05)
(0.120293 -0.000278951 -3.24581e-05)
(0.113688 -0.000422621 -0.000216924)
(0.113767 -0.000400681 -0.000204753)
(0.113837 -0.000382419 -0.000191041)
(0.113904 -0.000369178 -0.000176722)
(0.11396 -0.000341367 -0.000154724)
(0.114012 -0.000284487 -0.000126266)
(0.100379 -0.000306565 -0.000265906)
(0.10033 -0.00029188 -0.000252038)
(0.100276 -0.000274409 -0.000236536)
(0.10022 -0.000256624 -0.000219978)
(0.100164 -0.00022686 -0.000194398)
(0.10011 -0.000179676 -0.000155528)
(0.0671709 -0.000195294 -0.000247588)
(0.0669492 -0.000177607 -0.000226421)
(0.0667509 -0.000154323 -0.000203405)
(0.0665651 -0.000128854 -0.000181119)
(0.0664044 -0.000105249 -0.000161406)
(0.0662559 -9.47122e-05 -0.000141915)
(0.0680812 0.000171103 0.000295012)
(0.0678455 0.000154427 0.00026783)
(0.0676325 0.000137486 0.000233373)
(0.0674336 0.000119735 0.000196592)
(0.0672604 0.000102897 0.000160728)
(0.067107 9.00879e-05 0.000139237)
(0.101717 0.000250679 0.000364593)
(0.101679 0.000234123 0.000344042)
(0.101635 0.00021831 0.000323227)
(0.101589 0.000204266 0.000302781)
(0.101537 0.00018378 0.000271183)
(0.101486 0.00014716 0.000214)
(0.115952 0.000217066 0.000431415)
(0.116048 0.000204084 0.000408719)
(0.116136 0.000189701 0.000388336)
(0.116223 0.00017091 0.00035822)
(0.116301 0.000145559 0.000309583)
(0.12267 8.31675e-05 0.000342384)
(0.122821 7.77196e-05 0.000325671)
(0.122965 7.24285e-05 0.000318061)
(0.123103 6.29604e-05 0.000300743)
(0.123231 5.06633e-05 0.000263613)
(0.125835 -3.802e-05 0.000238653)
(0.126003 -3.66817e-05 0.000227228)
(0.126162 -3.70245e-05 0.000220869)
(0.126315 -3.85946e-05 0.000209647)
(0.126457 -3.80607e-05 0.000187704)
(0.126752 -0.000143641 0.000108944)
(0.126923 -0.00013717 0.00010476)
(0.127085 -0.00013363 0.000102856)
(0.127241 -0.000126776 9.89616e-05)
(0.127387 -0.000113469 9.0645e-05)
(0.125841 -0.000238656 -3.30974e-05)
(0.126009 -0.000227537 -3.0223e-05)
(0.12617 -0.000221431 -2.74708e-05)
(0.126324 -0.000209753 -2.28987e-05)
(0.126468 -0.000187154 -1.67915e-05)
(0.122954 -0.000322005 -0.000181622)
(0.123106 -0.000307824 -0.000171142)
(0.123251 -0.000300433 -0.00016239)
(0.12339 -0.000284598 -0.000146909)
(0.123518 -0.000252632 -0.000122895)
(0.117009 -0.000392706 -0.000332082)
(0.117108 -0.000374137 -0.00031376)
(0.1172 -0.000355681 -0.000293416)
(0.11729 -0.00033331 -0.0002686)
(0.11737 -0.000293213 -0.000229719)
(0.104165 -0.000327963 -0.000363232)
(0.104129 -0.000309762 -0.000341959)
(0.10409 -0.000291223 -0.000320019)
(0.104049 -0.000267826 -0.000293599)
(0.104011 -0.000227119 -0.000248745)
(0.0722249 -0.0002104 -0.00031368)
(0.0719927 -0.000191819 -0.00028857)
(0.0717789 -0.000170833 -0.000261997)
(0.0715776 -0.000148529 -0.000235296)
(0.0713971 -0.000130581 -0.000210131)
(0.0712227 -0.000120917 -0.000184943)
(0.0722633 0.000192126 0.000326548)
(0.0720292 0.000169405 0.000299525)
(0.0718146 0.000148747 0.000266489)
(0.0716159 0.000129109 0.000230134)
(0.0714403 0.00011304 0.000195546)
(0.0712872 9.81799e-05 0.000173062)
(0.10427 0.00030602 0.000390509)
(0.104233 0.000282816 0.000364118)
(0.104191 0.000260997 0.000339958)
(0.104147 0.000239524 0.000316837)
(0.104096 0.000214431 0.000286947)
(0.104057 0.000176562 0.000236552)
(0.117486 0.00031574 0.000396398)
(0.117588 0.000300756 0.000375877)
(0.117684 0.000280612 0.00035163)
(0.117775 0.000249577 0.000314533)
(0.12373 0.000209718 0.000274497)
(0.123887 0.000202021 0.000259425)
(0.124039 0.000192 0.000245161)
(0.124184 0.000171243 0.000219712)
(0.126737 0.000101144 0.000141232)
(0.126911 9.90204e-05 0.0001329)
(0.127077 9.41594e-05 0.00012468)
(0.127237 8.26821e-05 0.000111432)
(0.127655 -4.45694e-06 2.94005e-08)
(0.127831 -3.4137e-06 6.07301e-07)
(0.128 -3.50434e-06 5.36276e-07)
(0.128159 -4.95441e-06 2.34302e-07)
(0.128307 -5.52809e-06 1.37683e-06)
(0.126748 -0.000110091 -0.000140283)
(0.12692 -0.000104705 -0.000132679)
(0.127085 -0.000101327 -0.000127673)
(0.127242 -9.52814e-05 -0.000117896)
(0.127387 -8.43021e-05 -0.000101177)
(0.123741 -0.000217 -0.000272278)
(0.123898 -0.000206609 -0.00025801)
(0.124049 -0.000199693 -0.000248769)
(0.124193 -0.000186993 -0.000229199)
(0.124325 -0.000164909 -0.000195188)
(0.117492 -0.000321264 -0.000397741)
(0.117595 -0.000306158 -0.000378316)
(0.117692 -0.000290188 -0.000358482)
(0.117787 -0.000269945 -0.000331044)
(0.117871 -0.000237567 -0.000282759)
(0.104267 -0.000308527 -0.000396073)
(0.104231 -0.000288414 -0.000371747)
(0.104193 -0.000270887 -0.000349154)
(0.104154 -0.000252532 -0.000325153)
(0.104115 -0.00022495 -0.000279712)
(0.0722377 -0.000193251 -0.00033268)
(0.0720017 -0.000176925 -0.000305001)
(0.0717843 -0.000160356 -0.000274721)
(0.0715804 -0.000142094 -0.00024388)
(0.0714016 -0.000124677 -0.000215342)
(0.0724701 0.000240891 0.000331121)
(0.0722189 0.000210477 0.000309041)
(0.0719912 0.000180242 0.000284528)
(0.0717784 0.00015406 0.000256648)
(0.0715836 0.000133697 0.000226894)
(0.071411 0.000121058 0.000197259)
(0.104216 0.000356379 0.000391104)
(0.10418 0.000334649 0.000368247)
(0.104142 0.000310453 0.000344028)
(0.104101 0.000285642 0.000320137)
(0.104059 0.000256875 0.000294414)
(0.104018 0.000211912 0.000250543)
(0.116906 0.000410512 0.000359049)
(0.117014 0.000393658 0.000339597)
(0.117114 0.000375697 0.000318392)
(0.117209 0.000355872 0.000297228)
(0.117296 0.000325039 0.000269596)
(0.117374 0.000276551 0.000231482)
(0.122784 0.000330388 0.000198381)
(0.12295 0.000317555 0.000186933)
(0.123104 0.000310956 0.000176999)
(0.123253 0.000302586 0.000166074)
(0.123392 0.000280618 0.000149104)
(0.123518 0.000241043 0.000127102)
(0.12565 0.000240199 3.47708e-05)
(0.125831 0.00023211 3.3845e-05)
(0.125999 0.000229126 3.29054e-05)
(0.126163 0.000223866 3.06615e-05)
(0.126317 0.000209787 2.65196e-05)
(0.126457 0.00018347 2.25018e-05)
(0.126742 0.00013491 -0.000109516)
(0.126915 0.000131638 -0.000101685)
(0.127081 0.000129484 -9.72272e-05)
(0.127238 0.00012161 -9.05916e-05)
(0.127382 0.00010638 -7.89919e-05)
(0.125841 3.20944e-05 -0.000239861)
(0.12601 3.11777e-05 -0.000226962)
(0.126172 3.06657e-05 -0.00021881)
(0.126327 2.88366e-05 -0.000203363)
(0.126469 2.52318e-05 -0.000176321)
(0.122685 -8.64651e-05 -0.000341654)
(0.122839 -8.20688e-05 -0.000327078)
(0.122986 -7.84901e-05 -0.000319773)
(0.123127 -7.24125e-05 -0.000297918)
(0.123256 -6.3036e-05 -0.000253896)
(0.115966 -0.000220073 -0.000433501)
(0.116065 -0.000208424 -0.000413312)
(0.116159 -0.000195606 -0.00039535)
(0.116252 -0.000180182 -0.000368728)
(0.116333 -0.000157782 -0.000313159)
(0.101713 -0.00025217 -0.000369078)
(0.101675 -0.000237823 -0.000352767)
(0.101634 -0.000224189 -0.000338282)
(0.10159 -0.00020839 -0.000317099)
(0.10155 -0.000179418 -0.00026013)
(0.0680353 -0.000172102 -0.000300301)
(0.0677943 -0.000157855 -0.000274664)
(0.0675747 -0.000143354 -0.000244114)
(0.0673686 -0.000127859 -0.000214131)
(0.0671887 -0.000111254 -0.000189427)
(0.0673747 0.000225592 0.000262666)
(0.0671333 0.000197714 0.000241453)
(0.0669179 0.000166624 0.000218749)
(0.066723 0.000139106 0.000195694)
(0.0665458 0.000118393 0.000173776)
(0.0663895 0.000106276 0.000154137)
(0.100453 0.000336332 0.000287205)
(0.100405 0.000319286 0.000271646)
(0.100352 0.000301167 0.00025654)
(0.100293 0.00028065 0.000240049)
(0.100235 0.000251485 0.000217967)
(0.100184 0.000202155 0.000182599)
(0.113609 0.000443055 0.000233158)
(0.113701 0.000422827 0.000222174)
(0.113783 0.000405112 0.000208881)
(0.113858 0.000391589 0.000195807)
(0.113923 0.00037036 0.000179028)
(0.113978 0.000311471 0.000151954)
(0.119564 0.000404382 6.56924e-05)
(0.119714 0.000387474 6.42212e-05)
(0.119852 0.000382282 6.23356e-05)
(0.119983 0.000377902 5.92943e-05)
(0.120103 0.000354014 5.3628e-05)
(0.12021 0.000299029 4.57061e-05)
(0.12251 0.000353479 -9.73103e-05)
(0.122676 0.000338623 -8.92803e-05)
(0.12283 0.000332413 -8.23543e-05)
(0.122978 0.000325647 -7.63358e-05)
(0.123118 0.00030355 -6.92652e-05)
(0.123243 0.000258902 -5.94995e-05)
(0.12374 0.000266856 -0.000218345)
(0.123896 0.000256723 -0.00020422)
(0.124047 0.000250888 -0.00019487)
(0.124191 0.000235463 -0.000180941)
(0.12432 0.000203361 -0.000156767)
(0.122962 0.000180147 -0.000323336)
(0.123115 0.000171909 -0.000308192)
(0.123261 0.000165713 -0.000298996)
(0.1234 0.000153295 -0.000277906)
(0.123528 0.000132218 -0.000238157)
(0.119722 6.21202e-05 -0.000392401)
(0.119858 5.92959e-05 -0.000377073)
(0.119986 5.70208e-05 -0.00037213)
(0.120109 5.25831e-05 -0.000349107)
(0.120221 4.5266e-05 -0.000295444)
(0.112465 -8.76886e-05 -0.000444902)
(0.112545 -8.28588e-05 -0.00042452)
(0.112617 -7.71833e-05 -0.000411259)
(0.112686 -7.02735e-05 -0.000388762)
(0.112748 -6.10685e-05 -0.000328069)
(0.0966808 -0.000168458 -0.000317143)
(0.0966188 -0.000158254 -0.000306296)
(0.096553 -0.000149759 -0.000300173)
(0.0964847 -0.000140102 -0.000287272)
(0.0964191 -0.000121002 -0.000231218)
(0.060798 -0.000126508 -0.000215734)
(0.0605787 -0.000114359 -0.000195607)
(0.0603833 -0.00010234 -0.000169879)
(0.0602005 -9.13487e-05 -0.000146933)
(0.0600433 -8.12974e-05 -0.000129744)
(0.0574579 0.000184659 0.000140831)
(0.0572507 0.000162754 0.000126055)
(0.0570728 0.00013764 0.000111655)
(0.0569073 0.000110064 9.7595e-05)
(0.0567646 8.55896e-05 8.57648e-05)
(0.0566395 7.11166e-05 7.72064e-05)
(0.0911672 0.000288861 0.000118739)
(0.0910666 0.000277763 0.000113318)
(0.0909685 0.000261362 0.000108137)
(0.0908708 0.000244049 0.000103483)
(0.0907754 0.000222097 9.69292e-05)
(0.0906857 0.000173813 8.15704e-05)
(0.105675 0.000453449 5.85544e-05)
(0.10571 0.000429625 5.6935e-05)
(0.105728 0.000410413 5.4617e-05)
(0.105738 0.000395502 5.18257e-05)
(0.10574 0.000370271 4.77515e-05)
(0.105744 0.000307148 4.05785e-05)
(0.112374 0.000464877 -9.50015e-05)
(0.112464 0.000440145 -8.79358e-05)
(0.112544 0.00042116 -7.99932e-05)
(0.112617 0.000412689 -7.31302e-05)
(0.112679 0.000391411 -6.58534e-05)
(0.112734 0.000325444 -5.54938e-05)
(0.115852 0.000454391 -0.000238223)
(0.115959 0.000432571 -0.000223547)
(0.116059 0.00041313 -0.000207275)
(0.116153 0.000395943 -0.000191229)
(0.116242 0.000370621 -0.00017432)
(0.116317 0.000313672 -0.000150689)
(0.117494 0.000390669 -0.000322371)
(0.117597 0.000373133 -0.000303459)
(0.117694 0.000355623 -0.000284677)
(0.117787 0.000332405 -0.000263384)
(0.117867 0.000286605 -0.000229351)
(0.117018 0.000329557 -0.000395058)
(0.117116 0.000311548 -0.000374561)
(0.117208 0.000292827 -0.000354866)
(0.117299 0.000270829 -0.000330565)
(0.117376 0.000234554 -0.000285108)
(0.113695 0.000215365 -0.000425932)
(0.113775 0.000203555 -0.000405038)
(0.113848 0.000191421 -0.000389834)
(0.113918 0.0001768 -0.000371481)
(0.113977 0.00015215 -0.000317333)
(0.105688 5.29243e-05 -0.000430952)
(0.105713 5.02239e-05 -0.000409952)
(0.105726 4.77468e-05 -0.000398584)
(0.105731 4.35984e-05 -0.0003752)
(0.10574 3.604e-05 -0.000317187)
(0.0876898 -8.11671e-05 -0.000268731)
(0.0875649 -7.52136e-05 -0.000257422)
(0.0874465 -7.04498e-05 -0.000255079)
(0.0873294 -6.59472e-05 -0.000243602)
(0.0872232 -5.98415e-05 -0.000194651)
(0.0510071 -6.41432e-05 -0.000105603)
(0.0508273 -5.64734e-05 -9.72431e-05)
(0.0506644 -4.95237e-05 -8.77117e-05)
(0.0505116 -4.49522e-05 -7.77604e-05)
(0.0503753 -4.18955e-05 -6.51769e-05)
(0.0413354 9.67733e-05 2.94876e-06)
(0.0411836 8.90862e-05 2.22807e-06)
(0.0410466 8.0287e-05 4.01968e-06)
(0.040914 6.92397e-05 7.30859e-06)
(0.0407956 5.5595e-05 1.03244e-05)
(0.0407042 4.03685e-05 1.03238e-05)
(0.0707452 0.000136204 -4.32968e-05)
(0.0705404 0.000131052 -3.94062e-05)
(0.0703647 0.000131877 -3.23464e-05)
(0.0701964 0.000133051 -2.38876e-05)
(0.0700464 0.000127617 -1.64499e-05)
(0.0699089 9.34679e-05 -1.44714e-05)
(0.0878399 0.000286868 -8.11773e-05)
(0.0877107 0.000272673 -7.51819e-05)
(0.087591 0.000261977 -6.96248e-05)
(0.0874704 0.000257251 -6.43942e-05)
(0.0873577 0.000244466 -5.89586e-05)
(0.0872524 0.00019117 -5.17976e-05)
(0.0967606 0.00033812 -0.000178322)
(0.0967 0.000322426 -0.000166359)
(0.0966347 0.000308951 -0.000155782)
(0.0965652 0.000301234 -0.000146299)
(0.0964941 0.000285892 -0.000134902)
(0.096428 0.000223389 -0.000113175)
(0.101758 0.000400981 -0.000269436)
(0.101721 0.000376547 -0.000254042)
(0.101682 0.000355473 -0.000238571)
(0.101637 0.000335042 -0.000222554)
(0.10159 0.00031192 -0.000204999)
(0.101546 0.000252445 -0.000173376)
(0.104272 0.000391354 -0.000306089)
(0.104237 0.000364361 -0.000285525)
(0.104199 0.000340255 -0.000267978)
(0.104157 0.000317466 -0.000250271)
(0.104115 0.000273177 -0.000220535)
(0.10417 0.00036091 -0.000328583)
(0.104135 0.000337008 -0.000309877)
(0.104097 0.000314464 -0.000292608)
(0.104056 0.000288084 -0.000271046)
(0.104019 0.00024354 -0.000229255)
(0.100377 0.000262326 -0.000310762)
(0.100328 0.000247196 -0.000297447)
(0.100276 0.000231583 -0.000284319)
(0.100221 0.000212992 -0.000267095)
(0.10017 0.000178024 -0.000221319)
(0.0910415 0.000108036 -0.000267597)
(0.0909443 0.000101382 -0.000256138)
(0.0908504 9.69038e-05 -0.000250713)
(0.0907524 8.98489e-05 -0.000238446)
(0.0906612 7.22359e-05 -0.000191621)
(0.070536 -4.32043e-05 -0.000126041)
(0.0703486 -3.92644e-05 -0.000122096)
(0.070179 -3.37553e-05 -0.000127947)
(0.0700221 -2.9537e-05 -0.000127965)
(0.0698783 -2.99018e-05 -9.76745e-05)
(0.0380643 -4.89575e-05 -1.50231e-05)
(0.0379273 -4.28408e-05 -1.68341e-05)
(0.0377945 -3.7474e-05 -2.10698e-05)
(0.0376591 -3.41253e-05 -2.10014e-05)
(0.037546 -3.15655e-05 -1.22475e-05)
(0.024557 1.47616e-05 -2.68281e-05)
(0.0244611 1.48923e-05 -2.38257e-05)
(0.0243637 1.48711e-05 -1.96161e-05)
(0.0242636 1.3834e-05 -1.51145e-05)
(0.0241732 1.16295e-05 -1.12213e-05)
(0.0241097 7.07274e-06 -9.11498e-06)
(0.0382356 1.69375e-05 -4.79784e-05)
(0.0380823 1.85077e-05 -4.30229e-05)
(0.0379412 2.23865e-05 -3.6884e-05)
(0.0377979 2.52735e-05 -3.10563e-05)
(0.0376656 2.39593e-05 -2.69977e-05)
(0.0375621 1.35727e-05 -2.43169e-05)
(0.0512204 0.000117302 -6.07286e-05)
(0.0510244 0.000104166 -5.49133e-05)
(0.0508551 9.12584e-05 -4.82329e-05)
(0.0506917 8.01097e-05 -4.27936e-05)
(0.0610616 0.000241433 -0.000129753)
(0.0608234 0.000213942 -0.000118254)
(0.0606173 0.00018069 -0.000105744)
(0.0604265 0.000150438 -9.44141e-05)
(0.060258 0.000128652 -8.45838e-05)
(0.0683295 0.000337182 -0.000180242)
(0.0680678 0.000301653 -0.000168134)
(0.0678349 0.00026103 -0.000155091)
(0.0676218 0.000221799 -0.00013995)
(0.067425 0.000187626 -0.000122596)
(0.0722564 0.000332524 -0.000190196)
(0.0720231 0.000295031 -0.000177018)
(0.0718096 0.00025836 -0.000160837)
(0.0716105 0.000224054 -0.000142026)
(0.0714421 0.000195185 -0.000123337)
(0.0722195 0.000309697 -0.000207269)
(0.0719928 0.000280211 -0.000191087)
(0.0717836 0.00025024 -0.000172507)
(0.0715868 0.000220712 -0.000153075)
(0.0714138 0.000192116 -0.000136839)
(0.0671501 0.000241679 -0.000197199)
(0.0669326 0.000218319 -0.000181497)
(0.0667356 0.000193352 -0.000160555)
(0.0665513 0.000169632 -0.000140123)
(0.066392 0.000149047 -0.00012633)
(0.0572729 0.000128057 -0.000162205)
(0.0570862 0.000113799 -0.000149568)
(0.0569171 9.68147e-05 -0.000129332)
(0.0567656 8.07587e-05 -0.000107352)
(0.0566331 6.91453e-05 -9.17891e-05)
(0.0411856 2.82386e-06 -8.5926e-05)
(0.0410517 1.02956e-06 -8.1805e-05)
(0.040924 2.95001e-07 -7.78566e-05)
(0.0407985 -1.67505e-07 -6.97423e-05)
(0.0406957 -1.93228e-06 -5.54464e-05)
(0.024448 -2.56272e-05 -1.32668e-05)
(0.0243645 -2.31886e-05 -1.37755e-05)
(0.0242727 -2.04776e-05 -1.44101e-05)
(0.0241771 -1.81914e-05 -1.32029e-05)
(0.0241036 -1.67179e-05 -9.0308e-06)
)
;

boundaryField
{
    inlet
    {
        type            fixedValue;
        value           nonuniform List<vector> 0();
    }
    ami1
    {
        type            cyclicAMI;
        value           nonuniform List<vector> 0();
    }
    walls
    {
        type            noSlip;
    }
    ami2
    {
        type            cyclicAMI;
        value           nonuniform List<vector> 0();
    }
    outlet
    {
        type            zeroGradient;
    }
    procBoundary5to6
    {
        type            processor;
        value           nonuniform List<vector> 
177
(
(0.0240514 1.1202e-05 6.42664e-06)
(0.0240514 1.1202e-05 6.42664e-06)
(0.0405993 -2.31942e-06 4.0204e-05)
(0.0565082 -6.08667e-05 7.58503e-05)
(0.0565082 -6.08667e-05 7.58503e-05)
(0.0565082 -6.08667e-05 7.58503e-05)
(0.0660914 -0.000110676 8.91287e-05)
(0.0710786 -0.000146275 9.66334e-05)
(0.0710786 -0.000146275 9.66334e-05)
(0.0709814 -0.000133502 6.91134e-05)
(0.104045 -0.000200327 0.000153676)
(0.0667842 -0.000121907 5.70474e-05)
(0.101471 -0.000179602 0.000118854)
(0.0597134 -8.79305e-05 3.97346e-05)
(0.0501009 -4.13367e-05 1.90089e-05)
(0.0374041 -4.85923e-06 1.46896e-05)
(0.0374041 -4.85923e-06 1.46896e-05)
(0.0374041 -4.85923e-06 1.46896e-05)
(0.0240219 -4.19169e-06 6.34271e-06)
(0.0374023 1.7796e-05 1.18123e-06)
(0.0697928 1.96567e-05 7.47316e-05)
(0.0374023 1.7796e-05 1.18123e-06)
(0.0697928 1.96567e-05 7.47316e-05)
(0.0697928 1.96567e-05 7.47316e-05)
(0.0697928 1.96567e-05 7.47316e-05)
(0.0905264 -5.17623e-05 0.000125836)
(0.100086 -0.00012782 0.000150028)
(0.103949 -0.000179924 0.000160156)
(0.104045 -0.000200327 0.000153676)
(0.101471 -0.000179602 0.000118854)
(0.101471 -0.000179602 0.000118854)
(0.0962585 -0.000123374 6.49341e-05)
(0.112826 -0.00024774 4.2943e-05)
(0.0869773 -0.000106339 2.7263e-05)
(0.105725 -0.000230723 -3.0118e-05)
(0.0695778 -4.58108e-05 9.75782e-06)
(0.0405775 -2.82632e-05 -4.77359e-06)
(0.0405775 -2.82632e-05 -4.77359e-06)
(0.0501291 2.33728e-05 2.76534e-05)
(0.087095 4.30974e-05 0.00012464)
(0.087095 4.30974e-05 0.00012464)
(0.087095 4.30974e-05 0.00012464)
(0.105745 -2.58233e-05 0.000219492)
(0.114067 -0.00011342 0.000230927)
(0.11751 -0.00018023 0.000216429)
(0.118013 -0.000218549 0.000177954)
(0.116454 -0.00023664 0.000115997)
(0.123364 -0.000232356 6.02306e-05)
(0.112826 -0.00024774 4.2943e-05)
(0.105725 -0.000230723 -3.0118e-05)
(0.105725 -0.000230723 -3.0118e-05)
(0.09043 -0.000109609 -4.71408e-05)
(0.056458 -5.60287e-05 -5.53178e-05)
(0.100071 -0.000152942 -0.000128314)
(0.056458 -5.60287e-05 -5.53178e-05)
(0.059764 4.69285e-05 8.05865e-05)
(0.0669582 7.67253e-05 0.000134085)
(0.0962727 6.35372e-05 0.000121332)
(0.112805 4.35227e-05 0.000238767)
(0.10146 0.000116908 0.000174776)
(0.112805 4.35227e-05 0.000238767)
(0.116375 0.000126111 0.000269272)
(0.120373 -3.6174e-05 0.000222394)
(0.123346 4.42768e-05 0.000223992)
(0.123724 -0.000104568 0.000188766)
(0.126585 -3.1999e-05 0.000162616)
(0.124541 -0.000156015 0.000128805)
(0.123364 -0.000232356 6.02306e-05)
(0.127517 -9.81827e-05 7.95506e-05)
(0.123364 -0.000232356 6.02306e-05)
(0.123364 -0.000232356 6.02306e-05)
(0.120379 -0.000228799 -2.72934e-05)
(0.123634 -0.000217994 -0.00010407)
(0.114063 -0.000237332 -0.000108547)
(0.117445 -0.000252373 -0.000196313)
(0.100071 -0.000152942 -0.000128314)
(0.103978 -0.000193355 -0.000208146)
(0.0661147 -0.000100197 -0.000118704)
(0.0669582 7.67253e-05 0.000134085)
(0.10146 0.000116908 0.000174776)
(0.116375 0.000126111 0.000269272)
(0.116375 0.000126111 0.000269272)
(0.117861 0.000219063 0.000280561)
(0.123346 4.42768e-05 0.000223992)
(0.12432 0.000149303 0.000194152)
(0.126585 -3.1999e-05 0.000162616)
(0.127386 7.16091e-05 9.97502e-05)
(0.127517 -9.81827e-05 7.95506e-05)
(0.126596 -0.000162994 -1.35573e-05)
(0.123634 -0.000217994 -0.00010407)
(0.117445 -0.000252373 -0.000196313)
(0.103978 -0.000193355 -0.000208146)
(0.103978 -0.000193355 -0.000208146)
(0.071088 -0.000113109 -0.00015504)
(0.0712328 -0.000110955 -0.000188911)
(0.0711433 8.11414e-05 0.000159548)
(0.0712461 0.000107511 0.000172891)
(0.117861 0.000219063 0.000280561)
(0.104035 0.00014713 0.000190629)
(0.117935 0.000199997 0.000256176)
(0.103987 0.000177897 0.00021006)
(0.117861 0.000219063 0.000280561)
(0.117861 0.000219063 0.000280561)
(0.12432 0.000149303 0.000194152)
(0.12432 0.000149303 0.000194152)
(0.127386 7.16091e-05 9.97502e-05)
(0.127386 7.16091e-05 9.97502e-05)
(0.127386 7.16091e-05 9.97502e-05)
(0.128437 -3.28646e-06 3.14135e-06)
(0.127515 -7.29165e-05 -8.63161e-05)
(0.124443 -0.000142969 -0.000166201)
(0.117949 -0.000206845 -0.000240856)