/*--------------------------------*- C++ -*----------------------------------*\
| =========                 |                                                 |
| \\      /  F ield         | OpenFOAM: The Open Source CFD Toolbox           |
|  \\    /   O peration     | Version:  2212                                  |
|   \\  /    A nd           | Website:  www.openfoam.com                      |
|    \\/     M anipulation  |                                                 |
\*---------------------------------------------------------------------------*/
FoamFile
{
    version     2.0;
    format      ascii;
    arch        "LSB;label=32;scalar=64";
    class       volScalarField;
    location    "0.2";
    object      epsilon;
}
// * * * * * * * * * * * * * * * * * * * * * * * * * * * * * * * * * * * * * //

dimensions      [0 2 -3 0 0 0 0];

internalField   nonuniform List<scalar> 
680
(
0.443357
0.434748
0.428688
0.424172
0.42213
0.430788
0.402623
0.391107
0.382542
0.375295
0.368071
0.358557
0.323713
0.312578
0.304191
0.297408
0.29154
0.292607
0.307306
0.29604
0.287539
0.280851
0.275547
0.276561
0.300796
0.289349
0.280757
0.274135
0.26912
0.269363
0.300836
0.289427
0.280887
0.274357
0.269544
0.267547
0.322672
0.307529
0.296314
0.287928
0.281473
0.276316
0.272736
0.33901
0.323931
0.312906
0.304698
0.298326
0.292948
0.289555
0.419174
0.40314
0.391598
0.382936
0.376247
0.370068
0.363496
0.455564
0.443529
0.434955
0.428828
0.424252
0.422156
0.430758
0.40268
0.39121
0.382735
0.37615
0.370033
0.363515
0.22035
0.211307
0.204399
0.199089
0.194777
0.19561
0.202476
0.192196
0.184624
0.178946
0.174822
0.173788
0.204557
0.190928
0.181452
0.175356
0.171055
0.169566
0.207758
0.193457
0.182642
0.17559
0.170938
0.168845
0.207776
0.193462
0.182641
0.175548
0.170736
0.167895
0.22283
0.204434
0.190845
0.181441
0.175266
0.170653
0.16781
0.2191
0.202446
0.192152
0.184602
0.178916
0.174935
0.173845
0.232993
0.220644
0.211282
0.204461
0.199141
0.194822
0.195627
0.419132
0.403067
0.39148
0.382731
0.375387
0.368099
0.358534
0.323855
0.312821
0.304628
0.298281
0.292927
0.289575
0.20248
0.192203
0.18462
0.178919
0.174929
0.173799
0.204987
0.190241
0.179651
0.171994
0.166508
0.16315
0.216331
0.198806
0.186103
0.176899
0.170251
0.16573
0.223833
0.204829
0.190951
0.180855
0.17355
0.168494
0.223842
0.204832
0.190948
0.180833
0.17347
0.168241
0.240541
0.21631
0.198787
0.186085
0.176855
0.17011
0.16525
0.225758
0.204971
0.190216
0.179632
0.171982
0.166502
0.163156
0.219124
0.202459
0.19215
0.184604
0.17894
0.174827
0.173806
0.33888
0.323739
0.31262
0.304229
0.297435
0.291552
0.292579
0.307422
0.296231
0.287869
0.281433
0.276289
0.272712
0.204567
0.190929
0.181435
0.175265
0.170659
0.167843
0.216338
0.19881
0.186099
0.176866
0.170124
0.165282
0.233987
0.212973
0.197581
0.18626
0.177885
0.17165
0.244724
0.22184
0.204983
0.192512
0.183214
0.176166
0.244734
0.221843
0.204981
0.192503
0.18319
0.176104
0.262788
0.233979
0.212963
0.19757
0.186248
0.17787
0.171621
0.240563
0.216323
0.198794
0.18609
0.176887
0.170238
0.165712
0.223131
0.204554
0.190918
0.181443
0.17535
0.171051
0.169564
0.322488
0.307315
0.296054
0.287554
0.280865
0.27556
0.276572
0.300852
0.28943
0.280884
0.274352
0.26954
0.26754
0.207759
0.193459
0.182638
0.17555
0.170739
0.167906
0.223833
0.204829
0.190948
0.180837
0.173481
0.168269
0.24472
0.221837
0.20498
0.192508
0.183202
0.176134
0.257111
0.232175
0.213692
0.199915
0.189512
0.181378
0.257122
0.232178
0.213692
0.199912
0.189505
0.181366
0.2759
0.244711
0.221827
0.204971
0.1925
0.183202
0.176152
0.249961
0.223822
0.204815
0.190939
0.180843
0.173538
0.168477
0.227268
0.207751
0.19345
0.182634
0.175585
0.170928
0.168815
0.31659
0.300804
0.289358
0.280766
0.274145
0.269132
0.269389
0.300804
0.289354
0.28076
0.274137
0.269123
0.269376
0.207753
0.193454
0.18264
0.17559
0.170935
0.168827
0.223829
0.204825
0.190949
0.180855
0.173553
0.168502
0.244719
0.221836
0.204981
0.192512
0.183219
0.176181
0.257111
0.232174
0.213691
0.199915
0.189512
0.18138
0.257122
0.232177
0.21369
0.199911
0.189506
0.181372
0.2759
0.244711
0.221826
0.204968
0.192494
0.183185
0.176107
0.249965
0.223826
0.204818
0.190936
0.180823
0.173462
0.168235
0.227275
0.207758
0.193455
0.182632
0.175544
0.17073
0.16788
0.316623
0.300854
0.289436
0.280892
0.274363
0.269566
0.267552
0.307309
0.296042
0.287541
0.280853
0.275549
0.276561
0.204557
0.190928
0.181452
0.175356
0.171055
0.16957
0.216332
0.198805
0.186102
0.176898
0.17025
0.165726
0.233989
0.212973
0.197579
0.186257
0.17788
0.171638
0.244726
0.221839
0.204979
0.192503
0.183193
0.176112
0.244731
0.221838
0.204978
0.192506
0.183208
0.17616
0.262787
0.233976
0.212959
0.197566
0.186245
0.177869
0.171626
0.24057
0.216329
0.198796
0.186084
0.176851
0.170104
0.165241
0.223145
0.204566
0.190919
0.181426
0.175254
0.170638
0.167765
0.322566
0.307434
0.296247
0.287886
0.28145
0.276311
0.272758
0.323714
0.312579
0.304191
0.297407
0.291532
0.292564
0.202477
0.192197
0.184625
0.178947
0.174823
0.173805
0.20499
0.190242
0.179651
0.171994
0.166509
0.163163
0.216341
0.198811
0.186098
0.176863
0.170115
0.165256
0.223839
0.204831
0.190947
0.180832
0.173469
0.168239
0.223836
0.204825
0.190945
0.180848
0.173542
0.168481
0.240533
0.2163
0.198779
0.186084
0.176885
0.170239
0.165713
0.225758
0.20497
0.190214
0.179629
0.17198
0.1665
0.163154
0.219135
0.202465
0.192157
0.1846
0.178912
0.17493
0.173836
0.338975
0.323888
0.312869
0.304671
0.298311
0.292944
0.289568
0.402624
0.391107
0.382542
0.375292
0.368054
0.358516
0.220352
0.211308
0.204399
0.199088
0.194775
0.195607
0.202483
0.192204
0.18462
0.178919
0.174928
0.173841
0.204571
0.190931
0.181434
0.175262
0.170649
0.167806
0.207767
0.193463
0.18264
0.175547
0.170733
0.167887
0.207771
0.193456
0.182641
0.175587
0.170931
0.168817
0.22282
0.204424
0.190843
0.181457
0.175358
0.171056
0.169568
0.219093
0.202442
0.192146
0.184607
0.178944
0.17483
0.173809
0.232994
0.220644
0.211282
0.20446
0.19914
0.194822
0.195628
0.419163
0.403121
0.391582
0.382924
0.376241
0.37007
0.363507
0.443358
0.434748
0.428686
0.424169
0.422115
0.430739
0.402681
0.39121
0.382734
0.376145
0.370019
0.363474
0.323856
0.312822
0.304628
0.298278
0.292916
0.289536
0.307424
0.296232
0.28787
0.281435
0.276292
0.272723
0.30085
0.28943
0.280886
0.274356
0.26955
0.267546
0.300794
0.289356
0.280768
0.274147
0.269134
0.269388
0.322607
0.307421
0.296131
0.287606
0.280898
0.27558
0.276584
0.338933
0.323798
0.312672
0.304269
0.297464
0.291572
0.292592
0.419145
0.403081
0.391495
0.382744
0.375399
0.368111
0.358546
0.455568
0.44353
0.434955
0.428829
0.424255
0.422162
0.430768
0.624034
0.534876
0.52196
0.521546
0.403525
0.381217
0.383015
0.387913
0.329673
0.304643
0.298582
0.364805
0.373519
0.386013
0.395231
0.21751
0.200159
0.196827
0.19554
0.189527
0.176667
0.170349
0.348186
0.32006
0.313591
0.18028
0.1748
0.171754
0.164341
0.159713
0.156335
0.303902
0.293034
0.288521
0.169127
0.165946
0.163792
0.160659
0.157548
0.155233
)
;

boundaryField
{
    inlet
    {
        type            fixedValue;
        value           nonuniform List<scalar> 0();
    }
    ami1
    {
        type            cyclicAMI;
        value           nonuniform List<scalar> 
100
(
0.407465
0.385842
0.305261
0.280367
0.271186
0.268652
0.27417
0.29092
0.347832
0.40739
0.347899
0.213327
0.177721
0.172161
0.170513
0.168248
0.167865
0.178952
0.213334
0.385791
0.290968
0.178787
0.163106
0.16468
0.16708
0.166599
0.163628
0.163139
0.177794
0.305253
0.274142
0.167954
0.163675
0.169252
0.173331
0.173231
0.169218
0.164656
0.172169
0.280372
0.268648
0.168263
0.166639
0.173271
0.177825
0.17781
0.173318
0.16706
0.170438
0.271222
0.27121
0.170453
0.167091
0.173354
0.17783
0.17782
0.17324
0.166595
0.168221
0.268667
0.280362
0.172176
0.164672
0.169237
0.173244
0.173329
0.169227
0.163614
0.167749
0.274211
0.305241
0.177793
0.163146
0.163635
0.166598
0.167065
0.164658
0.163136
0.178928
0.29096
0.385775
0.213321
0.178949
0.167862
0.168235
0.170441
0.172172
0.177797
0.213339
0.347852
0.407374
0.347815
0.290905
0.274161
0.268656
0.271221
0.28038
0.305264
0.385803
0.407403
)
;
    }
    walls
    {
        type            epsilonWallFunction;
        blending        stepwise;
        value           nonuniform List<scalar> 
283
(
0.455564
0.419132
0.33888
0.322488
0.31659
0.316623
0.322566
0.338975
0.419163
0.455568
0.443529
0.403067
0.323739
0.307315
0.300804
0.300854
0.307434
0.323888
0.403121
0.44353
0.434955
0.39148
0.31262
0.296054
0.289358
0.289436
0.296247
0.312869
0.391582
0.434955
0.428828
0.382731
0.304229
0.287554
0.280766
0.280892
0.287886
0.304671
0.382924
0.428829
0.424252
0.375387
0.297435
0.280865
0.274145
0.274363
0.28145
0.298311
0.376241
0.424255
0.422156
0.368099
0.291552
0.27556
0.269132
0.269566
0.276311
0.292944
0.37007
0.422162
0.430758
0.358534
0.292579
0.276572
0.269389
0.267552
0.272758
0.289568
0.363507
0.430768
0.322672
0.33901
0.419174
0.455564
0.443357
0.402623
0.323713
0.307306
0.300796
0.300836
0.307529
0.323931
0.40314
0.443529
0.434748
0.391107
0.312578
0.29604
0.289349
0.289427
0.296314
0.312906
0.391598
0.434955
0.428688
0.382542
0.304191
0.287539
0.280757
0.280887
0.287928
0.304698
0.382936
0.428828
0.424172
0.375295
0.297408
0.280851
0.274135
0.274357
0.281473
0.298326
0.376247
0.424252
0.42213
0.368071
0.29154
0.275547
0.26912
0.269544
0.276316
0.292948
0.370068
0.422156
0.430788
0.358557
0.292607
0.276561
0.269363
0.267547
0.272736
0.289555
0.363496
0.430758
0.443357
0.40268
0.323855
0.307422
0.300852
0.300804
0.307309
0.323714
0.402624
0.443358
0.434748
0.39121
0.312821
0.296231
0.28943
0.289354
0.296042
0.312579
0.391107
0.434748
0.428688
0.382735
0.304628
0.287869
0.280884
0.28076
0.287541
0.304191
0.382542
0.428686
0.424172
0.37615
0.298281
0.281433
0.274352
0.274137
0.280853
0.297407
0.375292
0.424169
0.42213
0.370033
0.292927
0.276289
0.26954
0.269123
0.275549
0.291532
0.368054
0.422115
0.430788
0.363515
0.289575
0.272712
0.26754
0.269376
0.276561
0.292564
0.358516
0.430739
0.322607
0.338933
0.419145
0.455568
0.443358
0.402681
0.323856
0.307424
0.30085
0.300794
0.307421
0.323798
0.403081
0.44353
0.434748
0.39121
0.312822
0.296232
0.28943
0.289356
0.296131
0.312672
0.391495
0.434955
0.428686
0.382734
0.304628
0.28787
0.280886
0.280768
0.287606
0.304269
0.382744
0.428829
0.424169
0.376145
0.298278
0.281435
0.274356
0.274147
0.280898
0.297464
0.375399
0.424255
0.422115
0.370019
0.292916
0.276292
0.26955
0.269134
0.27558
0.291572
0.368111
0.422162
0.430739
0.363474
0.289536
0.272723
0.267546
0.269388
0.276584
0.292592
0.358546
0.430768
0.624034
0.403525
0.329673
0.534876
0.381217
0.304643
0.52196
0.383015
0.298582
0.521546
0.387913
0.624034
0.364805
0.348186
0.303902
0.534876
0.373519
0.32006
0.293034
0.52196
0.386013
0.313591
0.288521
0.521546
0.395231
)
;
    }
    ami2
    {
        type            cyclicAMI;
        value           nonuniform List<scalar> 
12
(
0.494319
0.350951
0.304033
0.373838
0.239911
0.201225
0.334074
0.183333
0.166891
0.298103
0.170739
0.16222
)
;
    }
    outlet
    {
        type            zeroGradient;
    }
    procBoundary2to0
    {
        type            processor;
        value           nonuniform List<scalar> 
28
(
0.523412
0.39152
0.298662
0.30032
0.284555
0.298662
0.278842
0.399894
0.312629
0.197863
0.169628
0.171576
0.180052
0.171629
0.169628
0.165494
0.312629
0.171576
0.163582
0.159271
0.154925
0.156013
0.28629
0.162799
0.164022
0.160775
0.153681
0.158302
)
;
    }
    procBoundary2to1
    {
        type            processor;
        value           nonuniform List<scalar> 9(0.279162 0.27554 0.273019 0.166079 0.163579 0.161564 0.161756 0.158855 0.156675);
    }
    procBoundary2to3
    {
        type            processor;
        value           nonuniform List<scalar> 
110
(
0.455693
0.419269
0.338892
0.322492
0.316585
0.316601
0.316601
0.343899
0.359671
0.442144
0.472767
0.419299
0.23293
0.219101
0.223118
0.227269
0.22734
0.22734
0.248909
0.241694
0.249778
0.442122
0.338979
0.21911
0.225742
0.240552
0.249954
0.249967
0.249967
0.274259
0.254736
0.241693
0.359601
0.322565
0.22313
0.240559
0.262774
0.275885
0.275899
0.275899
0.30245
0.274263
0.248941
0.343826
0.316622
0.227268
0.249955
0.275881
0.290841
0.290857
0.290857
0.318558
0.286123
0.254473
0.338807
0.316591
0.227262
0.24995
0.27588
0.290841
0.290856
0.290856
0.318559
0.286128
0.25448
0.33883
0.322494
0.223118
0.240552
0.262775
0.275886
0.275896
0.275896
0.30245
0.27427
0.248956
0.343883
0.338893
0.219102
0.225744
0.240562
0.24996
0.249961
0.249961
0.274252
0.254737
0.241705
0.359667
0.419271
0.232931
0.219112
0.223133
0.227279
0.227335
0.227335
0.2489
0.241688
0.249781
0.442149
0.455695
0.419302
0.338981
0.322568
0.316623
0.316577
0.316577
0.343861
0.359625
0.442134
0.472775
)
;
    }
}


// ************************************************************************* //
