/*--------------------------------*- C++ -*----------------------------------*\
| =========                 |                                                 |
| \\      /  F ield         | OpenFOAM: The Open Source CFD Toolbox           |
|  \\    /   O peration     | Version:  2212                                  |
|   \\  /    A nd           | Website:  www.openfoam.com                      |
|    \\/     M anipulation  |                                                 |
\*---------------------------------------------------------------------------*/
FoamFile
{
    version     2.0;
    format      ascii;
    arch        "LSB;label=32;scalar=64";
    class       volVectorField;
    location    "0.5";
    object      U;
}
// * * * * * * * * * * * * * * * * * * * * * * * * * * * * * * * * * * * * * //

dimensions      [0 1 -1 0 0 0 0];

internalField   nonuniform List<vector> 
680
(
(0.0461138 1.60329e-05 0.000137264)
(0.0452039 -1.83883e-05 0.000152747)
(0.0444664 -0.000102184 0.000181675)
(0.0440506 -0.000273141 0.000219862)
(0.0444612 -0.000525727 0.000189136)
(0.0435021 -0.00318462 -0.00174617)
(0.0666894 0.000429357 0.000388005)
(0.0655769 0.000278266 0.000397323)
(0.0645781 6.31766e-05 0.00041651)
(0.0638013 -0.000293363 0.000413351)
(0.0634286 -0.00105654 0.000250294)
(0.0622893 -0.00365127 -0.00101491)
(0.0818762 0.00086311 0.000862714)
(0.080959 0.0006887 0.000878496)
(0.0800513 0.000457471 0.000922621)
(0.0790998 8.95245e-05 0.00102182)
(0.0780139 -0.000565806 0.00113156)
(0.0766465 -0.00131682 0.00219498)
(0.0908107 0.000737294 0.00111205)
(0.0901073 0.00061981 0.00114012)
(0.089287 0.000486891 0.00122314)
(0.0882267 0.000337395 0.00141276)
(0.0867895 0.000144175 0.0017102)
(0.0851301 0.000647305 0.00288428)
(0.0946244 0.000369102 0.00115381)
(0.0941382 0.000396963 0.00118455)
(0.0935411 0.000476009 0.00125546)
(0.0927598 0.000603033 0.00139798)
(0.091709 0.000863908 0.001617)
(0.0907831 0.00157886 0.00212124)
(0.0947729 -0.000133425 0.00110458)
(0.0943914 -6.93207e-06 0.00110274)
(0.0939667 0.000184014 0.00111707)
(0.0934732 0.000473265 0.00115277)
(0.0928819 0.00092086 0.001217)
(0.0923643 0.0016564 0.00133758)
(0.0916514 -0.000785646 0.00106058)
(0.0911367 -0.000642354 0.00102307)
(0.0906533 -0.000451874 0.000975947)
(0.0902072 -0.000191509 0.000916914)
(0.0898039 0.000180593 0.000851694)
(0.0894353 0.000724817 0.00078597)
(0.0889881 0.00154558 0.000650951)
(0.0829979 -0.00104762 0.00081388)
(0.0821669 -0.000924133 0.000774272)
(0.0814525 -0.000773806 0.0007144)
(0.0808981 -0.000578381 0.000623159)
(0.0805682 -0.000264662 0.000437515)
(0.080589 0.000341563 0.000133118)
(0.0800146 0.00178526 -0.00070052)
(0.067984 -0.000626963 0.000329217)
(0.0668319 -0.000586238 0.000305573)
(0.0658202 -0.000543328 0.00025593)
(0.0650069 -0.000466529 0.000171288)
(0.0645985 -0.000344355 -5.68209e-05)
(0.0650158 -0.000175116 -0.000403789)
(0.0629305 0.000304156 -0.00113535)
(0.047159 -0.000134555 5.2399e-05)
(0.0461142 -0.000137179 1.61406e-05)
(0.0452044 -0.000152645 -1.82675e-05)
(0.0444671 -0.000181538 -0.000102085)
(0.0440517 -0.000219723 -0.000273078)
(0.0444627 -0.000189039 -0.000525696)
(0.043504 0.00174625 -0.00318452)
(0.0668314 0.000305477 0.000586461)
(0.0658195 0.000255855 0.000543638)
(0.0650058 0.000171225 0.000466938)
(0.0645971 -5.68523e-05 0.000344835)
(0.0650137 -0.00040384 0.000175722)
(0.0629283 -0.00113498 -0.000303273)
(0.0877211 0.000267484 0.000425397)
(0.0872895 0.000168003 0.000426669)
(0.0869424 2.49467e-05 0.000444882)
(0.0866624 -0.000275504 0.000398029)
(0.0863695 -0.000876175 0.000144617)
(0.0862509 -0.00223295 -0.00081474)
(0.0967329 0.000655442 0.000966866)
(0.0965477 0.000506727 0.000976265)
(0.0963925 0.000314747 0.00101821)
(0.0962494 4.59666e-05 0.0010898)
(0.0961141 -0.00032676 0.00118064)
(0.0962244 -0.00075525 0.00132012)
(0.102207 0.000596639 0.00134283)
(0.102168 0.000487742 0.00136807)
(0.102101 0.00036474 0.00144826)
(0.101992 0.000215148 0.00161178)
(0.101853 3.69882e-05 0.00186911)
(0.101995 -7.14001e-05 0.00221011)
(0.104697 0.000321545 0.00148264)
(0.104778 0.000322605 0.00149877)
(0.104817 0.000343387 0.00155577)
(0.104805 0.000389309 0.00167886)
(0.104752 0.000472306 0.00186856)
(0.104985 0.000621796 0.00208974)
(0.104787 -0.00014961 0.00142694)
(0.104922 -4.97737e-05 0.00140511)
(0.105036 8.28158e-05 0.00140127)
(0.105124 0.000264941 0.00142464)
(0.105196 0.000509609 0.00147268)
(0.105434 0.000804248 0.00152743)
(0.102352 -0.000676809 0.00127928)
(0.102403 -0.000561608 0.00121502)
(0.102472 -0.000427947 0.00115049)
(0.102559 -0.000263022 0.00108028)
(0.10266 -4.65835e-05 0.000997677)
(0.102781 0.000235287 0.000900094)
(0.102982 0.000578176 0.000783728)
(0.097047 -0.000846967 0.000887701)
(0.0968818 -0.000761982 0.000810615)
(0.0967761 -0.000671837 0.00071677)
(0.0967328 -0.000564111 0.000586114)
(0.0967335 -0.000404093 0.000370905)
(0.0967492 -0.00015074 3.75783e-05)
(0.0968256 0.000282687 -0.000471715)
(0.0882423 -0.000441976 0.000341117)
(0.0877217 -0.000425305 0.000267582)
(0.0872902 -0.000426566 0.000168107)
(0.0869434 -0.000444705 2.49885e-05)
(0.0866638 -0.000397774 -0.000275557)
(0.0863715 -0.000144289 -0.000876349)
(0.0862545 0.000815718 -0.00223424)
(0.0678979 -0.000385083 0.000533027)
(0.0666899 -0.000387993 0.000429452)
(0.0655776 -0.000397296 0.00027832)
(0.0645791 -0.000416471 6.3157e-05)
(0.0638026 -0.000413334 -0.000293467)
(0.0634304 -0.000250281 -0.00105682)
(0.0622919 0.00101505 -0.00365207)
(0.0821664 0.000774266 0.000924458)
(0.0814518 0.000714448 0.000774267)
(0.0808971 0.000623237 0.000578976)
(0.0805668 0.000437654 0.000265546)
(0.080587 0.000133324 -0.000340385)
(0.080012 -0.000700217 -0.0017839)
(0.0968814 0.000810579 0.000762182)
(0.0967756 0.000716798 0.000672136)
(0.0967321 0.000586233 0.000564548)
(0.0967325 0.000371154 0.000404734)
(0.0967478 3.79029e-05 0.000151578)
(0.096824 -0.000471377 -0.000281711)
(0.103029 0.000873288 0.00100447)
(0.103143 0.000745619 0.000951323)
(0.103274 0.000592456 0.000906515)
(0.103412 0.0003948 0.000859006)
(0.10355 0.000148901 0.000796926)
(0.103806 -8.17932e-05 0.000756799)
(0.106678 0.000674418 0.00130732)
(0.106934 0.000577934 0.0012806)
(0.107181 0.000474011 0.0012828)
(0.107419 0.00035756 0.00131633)
(0.107665 0.000231847 0.00137595)
(0.108023 0.000127309 0.00145398)
(0.108406 0.000295503 0.00143403)
(0.10876 0.000277054 0.00140853)
(0.10909 0.000265542 0.00140973)
(0.109401 0.000260714 0.00144064)
(0.109715 0.000264177 0.00149612)
(0.110131 0.000279172 0.00155594)
(0.10845 -0.000222988 0.00138125)
(0.108822 -0.00016663 0.00132493)
(0.109176 -0.00010073 0.00128347)
(0.109514 -1.96529e-05 0.00125152)
(0.109856 7.91021e-05 0.00122794)
(0.110262 0.000189012 0.00120673)
(0.10646 -0.000788069 0.00128222)
(0.106754 -0.000703712 0.00118607)
(0.107046 -0.000620021 0.00108954)
(0.10734 -0.000533603 0.000987456)
(0.107636 -0.000436109 0.000874876)
(0.107944 -0.000323157 0.000751249)
(0.108317 -0.000194552 0.000634816)
(0.102935 -0.00107 0.000987232)
(0.103029 -0.00100433 0.00087318)
(0.103143 -0.000951093 0.000745416)
(0.103275 -0.000906171 0.000592127)
(0.103413 -0.000858519 0.000394302)
(0.10355 -0.000796325 0.000148257)
(0.103807 -0.000756238 -8.24154e-05)
(0.0969513 -0.000982406 0.000780985)
(0.0967333 -0.000966828 0.000655369)
(0.0965482 -0.000976176 0.000506575)
(0.0963932 -0.00101804 0.000314476)
(0.0962503 -0.00108955 4.55152e-05)
(0.0961153 -0.00118035 -0.000327427)
(0.096226 -0.00131968 -0.000756295)
(0.0828237 -0.000864095 0.0010067)
(0.0818767 -0.00086266 0.000863014)
(0.0809596 -0.000878408 0.000688514)
(0.0800521 -0.000922515 0.000457142)
(0.079101 -0.00102171 8.90127e-05)
(0.0780153 -0.00113147 -0.000566572)
(0.0766485 -0.00219485 -0.00131798)
(0.0911363 0.00102317 0.000642826)
(0.0906529 0.00097609 0.000452489)
(0.0902066 0.000917093 0.000192291)
(0.089803 0.000851906 -0.000179614)
(0.0894342 0.000786251 -0.000723554)
(0.0889866 0.000651259 -0.00154391)
(0.102403 0.00121512 0.000561934)
(0.102471 0.00115066 0.000428389)
(0.102558 0.00108053 0.000263614)
(0.102659 0.000998017 4.73761e-05)
(0.10278 0.000900529 -0.000234253)
(0.102981 0.000784185 -0.000576927)
(0.106754 0.00118622 0.000703905)
(0.107046 0.00108977 0.000620287)
(0.10734 0.000987785 0.000533963)
(0.107636 0.000875309 0.000436575)
(0.107944 0.000751753 0.00032367)
(0.108317 0.000635282 0.000194945)
(0.10919 0.000837854 0.000894628)
(0.109625 0.000757979 0.00084293)
(0.110045 0.000676319 0.000801996)
(0.110453 0.00059098 0.000769375)
(0.110867 0.000503362 0.000738486)
(0.111332 0.000428743 0.000699632)
(0.11033 0.000315159 0.00098593)
(0.110849 0.000288278 0.000941993)
(0.111341 0.000262664 0.000912534)
(0.111813 0.000237813 0.000894979)
(0.112283 0.000213597 0.000882576)
(0.112795 0.000195942 0.000864377)
(0.110341 -0.00031297 0.000958282)
(0.110862 -0.000285217 0.000900119)
(0.111358 -0.000256093 0.000850623)
(0.111833 -0.000225766 0.000806721)
(0.112302 -0.000191767 0.000766503)
(0.112806 -0.000154469 0.000730447)
(0.108733 -0.000957081 0.000919992)
(0.10919 -0.000894516 0.000837712)
(0.109625 -0.000842786 0.00075778)
(0.110045 -0.000801815 0.000676058)
(0.110453 -0.00076917 0.000590672)
(0.110866 -0.00073833 0.000503071)
(0.111332 -0.000699663 0.000428595)
(0.106411 -0.00135799 0.000768945)
(0.106678 -0.00130723 0.000674271)
(0.106935 -0.00128045 0.000577707)
(0.107181 -0.00128256 0.000473683)
(0.107419 -0.00131599 0.000357114)
(0.107665 -0.00137556 0.00023133)
(0.108023 -0.00145365 0.000126875)
(0.102227 -0.00135436 0.000697106)
(0.102207 -0.0013428 0.000596496)
(0.102169 -0.00136798 0.000487519)
(0.102101 -0.00144811 0.000364397)
(0.101992 -0.00161153 0.00021463)
(0.101853 -0.00186878 3.62653e-05)
(0.101996 -0.00220971 -7.22654e-05)
(0.0914566 -0.00111036 0.000845069)
(0.090811 -0.00111198 0.000737114)
(0.0901077 -0.00114003 0.000619537)
(0.0892875 -0.00122303 0.000486511)
(0.0882274 -0.00141262 0.000336842)
(0.0867903 -0.00171009 0.000143388)
(0.085131 -0.00288407 0.000646681)
(0.0947729 0.00110468 0.000133851)
(0.0943913 0.00110286 7.48205e-06)
(0.0939665 0.00111721 -0.00018332)
(0.093473 0.00115293 -0.000472394)
(0.0928816 0.00121719 -0.000919751)
(0.0923639 0.00133781 -0.0016549)
(0.104787 0.00142708 0.000149985)
(0.104922 0.00140527 5.02444e-05)
(0.105036 0.00140145 -8.22192e-05)
(0.105124 0.00142485 -0.000264177)
(0.105196 0.00147292 -0.000508663)
(0.105434 0.0015277 -0.000803143)
(0.108449 0.00138139 0.000223243)
(0.108822 0.00132509 0.000166933)
(0.109176 0.00128366 0.00010109)
(0.109514 0.00125176 2.00509e-05)
(0.109856 0.00122819 -7.8727e-05)
(0.110262 0.00120696 -0.000188776)
(0.110341 0.000958393 0.000313115)
(0.110862 0.000900242 0.00028537)
(0.111358 0.000850763 0.000256241)
(0.111833 0.000806873 0.000225859)
(0.112302 0.000766622 0.000191727)
(0.112806 0.000730451 0.000154175)
(0.111198 0.000344552 0.000352561)
(0.111801 0.000321327 0.000332911)
(0.112372 0.000299954 0.000315907)
(0.112919 0.000277997 0.000298748)
(0.113446 0.000247439 0.000271839)
(0.114007 0.000235968 0.000261393)
(0.111198 -0.000352483 0.000344486)
(0.111801 -0.000332847 0.000321261)
(0.112372 -0.000315866 0.00029989)
(0.112919 -0.000298749 0.000277945)
(0.113445 -0.000271898 0.000247411)
(0.114006 -0.000261647 0.00023609)
(0.109781 -0.00104329 0.000343541)
(0.11033 -0.000985878 0.000315064)
(0.110848 -0.000941935 0.000288167)
(0.111341 -0.000912465 0.000262543)
(0.111813 -0.000894904 0.000237706)
(0.112282 -0.000882529 0.00021356)
(0.112794 -0.000864427 0.000196075)
(0.10803 -0.00148425 0.000319384)
(0.108406 -0.00143398 0.000295369)
(0.10876 -0.00140845 0.000276874)
(0.10909 -0.00140958 0.00026531)
(0.109401 -0.00144043 0.000260443)
(0.109715 -0.00149585 0.000263907)
(0.11013 -0.00155564 0.000278986)
(0.104578 -0.0014985 0.000333912)
(0.104697 -0.00148265 0.000321375)
(0.104778 -0.00149872 0.000322364)
(0.104817 -0.00155566 0.000343056)
(0.104805 -0.00167868 0.000388869)
(0.104752 -0.00186828 0.000471746)
(0.104985 -0.0020893 0.00062112)
(0.0950325 -0.001143 0.000365906)
(0.0946246 -0.00115375 0.00036891)
(0.0941385 -0.00118446 0.000396685)
(0.0935414 -0.00125536 0.00047562)
(0.0927603 -0.00139787 0.000602544)
(0.0917094 -0.00161687 0.000863267)
(0.0907833 -0.00212062 0.00157762)
(0.0946245 0.00115383 -0.000368707)
(0.0941383 0.00118458 -0.000396445)
(0.0935412 0.0012555 -0.000475313)
(0.09276 0.00139804 -0.000602187)
(0.0917091 0.00161707 -0.000862821)
(0.090783 0.00212083 -0.00157711)
(0.104697 0.00148272 -0.000321171)
(0.104778 0.00149884 -0.00032212)
(0.104817 0.00155582 -0.000342764)
(0.104805 0.00167889 -0.000388522)
(0.104752 0.00186852 -0.000471341)
(0.104985 0.00208957 -0.000620657)
(0.108406 0.00143408 -0.000295215)
(0.10876 0.00140857 -0.000276699)
(0.10909 0.00140974 -0.000265121)
(0.109401 0.00144061 -0.00026025)
(0.109715 0.00149604 -0.00026372)
(0.110131 0.00155581 -0.000278835)
(0.11033 0.000985969 -0.000314974)
(0.110849 0.000942025 -0.000288078)
(0.111341 0.000912555 -0.000262468)
(0.111813 0.000894986 -0.000237661)
(0.112283 0.000882569 -0.000213568)
(0.112794 0.000864369 -0.000196157)
(0.111198 0.000352588 -0.000344428)
(0.111801 0.000332934 -0.000321209)
(0.112372 0.00031593 -0.000299859)
(0.112919 0.000298777 -0.000277951)
(0.113445 0.000271874 -0.000247478)
(0.114006 0.000261474 -0.000236221)
(0.111198 -0.000344433 -0.000352495)
(0.111801 -0.000321221 -0.00033285)
(0.112372 -0.000299864 -0.000315861)
(0.112919 -0.000277934 -0.00029873)
(0.113445 -0.000247416 -0.000271851)
(0.114006 -0.000236128 -0.000261526)
(0.109789 -0.0010251 -0.000341735)
(0.110341 -0.000958263 -0.000313015)
(0.110862 -0.000900099 -0.000285257)
(0.111358 -0.000850599 -0.000256124)
(0.111833 -0.000806688 -0.000225766)
(0.112302 -0.000766454 -0.000191692)
(0.112806 -0.000730382 -0.00015426)
(0.10806 -0.00145197 -0.000272289)
(0.108449 -0.00138124 -0.000223086)
(0.108822 -0.00132489 -0.000166743)
(0.109176 -0.0012834 -0.000100864)
(0.109514 -0.00125142 -1.97924e-05)
(0.109856 -0.00122778 7.89952e-05)
(0.110262 -0.00120651 0.000189003)
(0.104634 -0.00146671 -0.000225831)
(0.104787 -0.00142696 -0.000149775)
(0.104922 -0.00140508 -4.99826e-05)
(0.105036 -0.0014012 8.25488e-05)
(0.105124 -0.00142453 0.000264602)
(0.105196 -0.00147251 0.000509197)
(0.105434 -0.00152718 0.000803788)
(0.0951182 -0.00111485 -0.000223576)
(0.0947731 -0.00110456 -0.000133642)
(0.0943916 -0.0011027 -7.21003e-06)
(0.0939669 -0.00111701 0.000183668)
(0.0934735 -0.0011527 0.000472835)
(0.0928822 -0.00121691 0.000920324)
(0.0923647 -0.00133753 0.0016557)
(0.0908109 0.00111207 -0.000736927)
(0.0901075 0.00114014 -0.000619332)
(0.0892874 0.00122317 -0.000486272)
(0.0882272 0.00141277 -0.000336537)
(0.0867901 0.00171026 -0.00014306)
(0.0851307 0.00288423 -0.000646212)
(0.102207 0.00134285 -0.000596308)
(0.102169 0.00136807 -0.000487305)
(0.102101 0.00144823 -0.000364149)
(0.101992 0.00161168 -0.00021434)
(0.101853 0.00186893 -3.59231e-05)
(0.101996 0.00220985 7.26467e-05)
(0.106678 0.00130729 -0.000674122)
(0.106935 0.00128053 -0.000577549)
(0.107181 0.00128265 -0.000473517)
(0.107419 0.00131609 -0.00035694)
(0.107665 0.00137564 -0.000231145)
(0.108023 0.00145368 -0.000126684)
(0.10919 0.000894583 -0.000837618)
(0.109625 0.000842852 -0.000757687)
(0.110045 0.000801876 -0.000675972)
(0.110453 0.000769212 -0.000590601)
(0.110866 0.000738327 -0.000503019)
(0.111332 0.000699583 -0.000428573)
(0.110341 0.000313077 -0.000958216)
(0.110862 0.000285313 -0.000900042)
(0.111358 0.000256173 -0.000850546)
(0.111833 0.000225809 -0.000806655)
(0.112302 0.000191744 -0.000766457)
(0.112806 0.000154339 -0.000730436)
(0.11033 -0.000315015 -0.000985838)
(0.110848 -0.000288133 -0.000941889)
(0.111341 -0.000262517 -0.000912417)
(0.111813 -0.000237678 -0.000894855)
(0.112282 -0.000213508 -0.000882464)
(0.112794 -0.000195967 -0.000864315)
(0.108733 -0.00091995 -0.00095709)
(0.10919 -0.000837686 -0.000894511)
(0.109625 -0.000757766 -0.000842773)
(0.110045 -0.000676047 -0.000801795)
(0.110453 -0.000590649 -0.000769134)
(0.110866 -0.000502999 -0.000738245)
(0.111331 -0.000428427 -0.00069948)
(0.10646 -0.00128218 -0.000788113)
(0.106754 -0.00118603 -0.000703759)
(0.107046 -0.00108951 -0.000620077)
(0.10734 -0.000987419 -0.000533671)
(0.107636 -0.000874811 -0.000436175)
(0.107944 -0.000751107 -0.000323173)
(0.108317 -0.000634499 -0.00019444)
(0.102352 -0.00127923 -0.000676905)
(0.102403 -0.00121499 -0.000561745)
(0.102472 -0.00115046 -0.000428121)
(0.102559 -0.00108023 -0.000263236)
(0.10266 -0.000997591 -4.6839e-05)
(0.10278 -0.000899939 0.000235005)
(0.102982 -0.000783364 0.000577948)
(0.0916514 -0.00106055 -0.000785832)
(0.0911367 -0.00102303 -0.000642593)
(0.0906533 -0.000975896 -0.000452163)
(0.0902072 -0.000916849 -0.00019185)
(0.0898038 -0.000851617 0.000180192)
(0.0894352 -0.00078587 0.000724334)
(0.0889881 -0.000650808 0.00154498)
(0.0818766 0.000862749 -0.000862851)
(0.0809595 0.000878527 -0.000688356)
(0.0800519 0.000922654 -0.000456946)
(0.0791008 0.00102185 -8.87611e-05)
(0.0780152 0.00113163 0.000566875)
(0.0766484 0.00219497 0.00131836)
(0.0967332 0.000966872 -0.000655179)
(0.0965482 0.000976252 -0.000506366)
(0.0963931 0.00101815 -0.000314242)
(0.0962503 0.00108968 -4.52488e-05)
(0.0961153 0.00118046 0.00032776)
(0.0962261 0.00131975 0.000756715)
(0.103029 0.00100438 -0.000873031)
(0.103143 0.000951175 -0.000745267)
(0.103275 0.000906266 -0.000591966)
(0.103413 0.000858617 -0.00039412)
(0.10355 0.000796399 -0.000148035)
(0.103807 0.000756263 8.26969e-05)
(0.106754 0.000703791 -0.00118597)
(0.107046 0.000620111 -0.00108944)
(0.10734 0.000533699 -0.000987349)
(0.107636 0.000436198 -0.000874743)
(0.107944 0.000323212 -0.000751077)
(0.108317 0.000194545 -0.000634593)
(0.108449 0.000223134 -0.00138118)
(0.108822 0.00016678 -0.00132482)
(0.109176 0.000100887 -0.00128333)
(0.109514 1.98022e-05 -0.00125134)
(0.109856 -7.89858e-05 -0.00122771)
(0.110262 -0.000188964 -0.00120646)
(0.108406 -0.000295318 -0.0014339)
(0.10876 -0.000276839 -0.00140837)
(0.10909 -0.000265288 -0.00140951)
(0.109401 -0.000260428 -0.00144035)
(0.109715 -0.000263884 -0.00149576)
(0.11013 -0.000278931 -0.00155553)
(0.106411 -0.000768894 -0.00135797)
(0.106678 -0.000674231 -0.00130719)
(0.106935 -0.000577673 -0.0012804)
(0.107181 -0.000473655 -0.0012825)
(0.107418 -0.000357082 -0.00131592)
(0.107665 -0.000231269 -0.00137545)
(0.108023 -0.000126736 -0.00145347)
(0.102935 -0.000987168 -0.00107002)
(0.103029 -0.000873114 -0.00100435)
(0.103143 -0.000745354 -0.000951114)
(0.103275 -0.000592067 -0.000906188)
(0.103412 -0.00039423 -0.00085852)
(0.10355 -0.000148128 -0.00079627)
(0.103806 8.26949e-05 -0.000756052)
(0.097047 -0.000887586 -0.000847022)
(0.0968817 -0.000810494 -0.000762058)
(0.096776 -0.000716648 -0.000671932)
(0.0967327 -0.000585994 -0.00056423)
(0.0967334 -0.000370778 -0.000404231)
(0.0967489 -3.73404e-05 -0.000150812)
(0.0968254 0.000472146 0.000282709)
(0.0829979 -0.00081379 -0.00104774)
(0.0821669 -0.000774175 -0.000924282)
(0.0814525 -0.000714301 -0.000773991)
(0.0808981 -0.000623052 -0.000578607)
(0.0805681 -0.000437411 -0.000264965)
(0.0805888 -0.000133002 0.00034122)
(0.0800143 0.000700742 0.00178472)
(0.0666899 0.000388034 -0.000429227)
(0.0655775 0.000397364 -0.000278076)
(0.064579 0.000416568 -6.2887e-05)
(0.0638025 0.000413442 0.00029379)
(0.0634303 0.000250422 0.00105719)
(0.0622921 -0.00101485 0.00365246)
(0.0877216 0.000425397 -0.000267374)
(0.0872902 0.00042667 -0.000167851)
(0.0869433 0.00044486 -2.47203e-05)
(0.0866638 0.000397975 0.000275831)
(0.0863715 0.000144492 0.000876683)
(0.0862545 -0.000815493 0.00223462)
(0.0968817 0.00076208 -0.000810443)
(0.0967761 0.000671976 -0.000716607)
(0.0967328 0.000564281 -0.000585944)
(0.0967335 0.000404292 -0.000370719)
(0.0967492 0.000150955 -3.73536e-05)
(0.0968257 -0.000282491 0.000472044)
(0.102403 0.000561764 -0.00121495)
(0.102472 0.000428143 -0.00115043)
(0.102559 0.000263246 -0.00108019)
(0.10266 4.6828e-05 -0.000997541)
(0.102781 -0.000235032 -0.000899887)
(0.102982 -0.000577924 -0.000783422)
(0.104787 0.000149817 -0.00142689)
(0.104922 5.00159e-05 -0.00140503)
(0.105036 -8.2534e-05 -0.00140114)
(0.105124 -0.000264614 -0.00142445)
(0.105196 -0.000509242 -0.00147241)
(0.105434 -0.000803857 -0.00152708)
(0.104697 -0.000321312 -0.00148254)
(0.104778 -0.000322318 -0.00149864)
(0.104817 -0.000343025 -0.00155558)
(0.104805 -0.000388858 -0.00167859)
(0.104752 -0.00047176 -0.00186817)
(0.104985 -0.000621151 -0.00208915)
(0.102227 -0.000697046 -0.00135433)
(0.102207 -0.000596427 -0.00134274)
(0.102169 -0.000487451 -0.0013679)
(0.102101 -0.000364338 -0.00144802)
(0.101992 -0.000214583 -0.00161144)
(0.101853 -3.62303e-05 -0.00186866)
(0.101996 7.23043e-05 -0.00220953)
(0.0969513 -0.00078092 -0.000982429)
(0.0967332 -0.000655296 -0.000966844)
(0.0965481 -0.000506497 -0.000976179)
(0.096393 -0.000314398 -0.00101804)
(0.0962502 -4.54382e-05 -0.00108952)
(0.0961152 0.000327523 -0.00118026)
(0.0962259 0.000756429 -0.00131949)
(0.0882423 -0.000341013 -0.000442048)
(0.0877216 -0.000267464 -0.000425395)
(0.0872902 -0.000167978 -0.000426662)
(0.0869433 -2.48552e-05 -0.000444811)
(0.0866637 0.000275695 -0.000397867)
(0.0863714 0.000876512 -0.000144319)
(0.0862543 0.00223448 0.000815838)
(0.0679841 -0.00032914 -0.000627089)
(0.0668319 -0.000305469 -0.000586392)
(0.0658202 -0.000255826 -0.000543505)
(0.0650068 -0.000171186 -0.000466728)
(0.0645984 5.69187e-05 -0.00034457)
(0.0650157 0.000403899 -0.000175312)
(0.0629305 0.00113559 0.000303948)
(0.0461141 0.000137297 -1.60288e-05)
(0.0452044 0.000152791 1.84241e-05)
(0.0444671 0.000181703 0.000102263)
(0.0440517 0.000219908 0.000273271)
(0.0444627 0.00018922 0.000525888)
(0.0435043 -0.00174614 0.00318505)
(0.0668319 0.000586422 -0.000305461)
(0.0658202 0.000543567 -0.000255816)
(0.0650068 0.000466819 -0.000171169)
(0.0645985 0.000344681 5.69419e-05)
(0.0650158 0.000175503 0.000403907)
(0.0629305 -0.000303781 0.00113555)
(0.0821669 0.00092432 -0.00077421)
(0.0814525 0.000774056 -0.000714351)
(0.0808981 0.000578671 -0.000623095)
(0.0805682 0.000265016 -0.000437432)
(0.080589 -0.000341196 -0.000132992)
(0.0800147 -0.00178483 0.000700744)
(0.0911367 0.000642615 -0.00102308)
(0.0906533 0.000452185 -0.000975942)
(0.0902072 0.000191855 -0.000916885)
(0.0898039 -0.000180232 -0.000851626)
(0.0894353 -0.000724451 -0.00078584)
(0.0889882 -0.00154521 -0.000650731)
(0.0947731 0.000133655 -0.00110457)
(0.0943915 7.2193e-06 -0.00110271)
(0.0939669 -0.000183677 -0.00111701)
(0.0934734 -0.000472882 -0.00115267)
(0.0928821 -0.000920436 -0.00121685)
(0.0923646 -0.0016559 -0.00133741)
(0.0946246 -0.000368861 -0.00115371)
(0.0941384 -0.000396644 -0.00118442)
(0.0935414 -0.000475587 -0.0012553)
(0.0927602 -0.000602561 -0.0013978)
(0.0917094 -0.000863336 -0.00161679)
(0.0907835 -0.00157792 -0.00212064)
(0.0914566 -0.000844979 -0.0011103)
(0.0908111 -0.000737011 -0.00111192)
(0.0901078 -0.000619446 -0.00113997)
(0.0892876 -0.000486448 -0.00122297)
(0.0882276 -0.000336815 -0.00141256)
(0.0867905 -0.000143431 -0.00171004)
(0.0851312 -0.000646597 -0.00288405)
(0.0828237 -0.00100664 -0.000864096)
(0.0818767 -0.000862939 -0.000862655)
(0.0809597 -0.000688442 -0.000878395)
(0.0800522 -0.00045707 -0.000922499)
(0.0791011 -8.89647e-05 -0.00102169)
(0.0780155 0.000566575 -0.00113145)
(0.0766487 0.00131795 -0.00219481)
(0.0678979 -0.00053292 -0.000385101)
(0.06669 -0.00042932 -0.000388008)
(0.0655776 -0.000278186 -0.000397321)
(0.0645791 -6.30307e-05 -0.000416509)
(0.0638027 0.000293589 -0.000413367)
(0.0634305 0.00105692 -0.000250306)
(0.0622922 0.00365215 0.00101503)
(0.047159 -5.2305e-05 -0.000134655)
(0.0461142 -1.60719e-05 -0.000137284)
(0.0452044 1.8367e-05 -0.00015276)
(0.0444671 0.000102196 -0.000181652)
(0.0440517 0.00027319 -0.000219837)
(0.0444627 0.000525781 -0.000189114)
(0.043504 0.00318457 0.00174617)
(0.0566014 0.000697264 0.00436631)
(0.0440069 -0.000147364 0.00147137)
(0.0390697 -0.000188256 0.000245221)
(0.0361871 -0.000128072 3.30762e-05)
(0.0736747 0.00131975 0.00342364)
(0.0669818 0.00102603 0.00336007)
(0.0623956 0.000526559 0.00232169)
(0.0587831 0.000264508 0.00150232)
(0.0871647 0.00230896 0.00355162)
(0.0844045 0.00199078 0.0036735)
(0.0815449 0.00135416 0.00280073)
(0.065496 -0.00050433 0.00492046)
(0.0597486 -0.000112942 0.00401845)
(0.055848 -0.000266643 0.00192582)
(0.053208 -0.00038705 0.000382503)
(0.086766 0.0010143 0.0053012)
(0.0874088 0.000883814 0.0049616)
(0.0865172 0.000498561 0.00349118)
(0.084857 0.000233873 0.00224258)
(0.0972796 0.00140269 0.00330788)
(0.0984812 0.00127431 0.00368875)
(0.0987139 0.00095784 0.00314681)
(0.0678564 -0.00243018 0.00231293)
(0.0681936 -0.0018897 0.00257908)
(0.067875 -0.00143097 0.00153241)
(0.0938639 -0.000377656 0.0032182)
(0.0941947 -0.000389997 0.00342671)
(0.0941969 -0.00042396 0.00286449)
(0.103491 0.000270781 0.00254994)
(0.103846 0.000312337 0.00275049)
(0.104097 0.000243626 0.00259183)
(0.0715099 -0.00354526 -0.000635275)
(0.0731594 -0.00284052 0.000244)
(0.0743768 -0.00209192 0.000457996)
(0.0967577 -0.00097313 0.00144444)
(0.0970663 -0.00100649 0.00173714)
(0.0973674 -0.00092118 0.00167578)
(0.106362 -0.000136839 0.00167341)
(0.106514 -0.000282122 0.00173636)
(0.106687 -0.000320799 0.0016831)
)
;

boundaryField
{
    inlet
    {
        type            fixedValue;
        value           nonuniform List<vector> 0();
    }
    ami1
    {
        type            cyclicAMI;
        value           nonuniform List<vector> 
100
(
(0.057688 -0.00319481 -0.00107305)
(0.0654182 -0.00308224 0.000407537)
(0.0745308 -0.00104573 0.00305854)
(0.0825565 0.000761078 0.00377056)
(0.0892449 0.00157505 0.0028001)
(0.0922001 0.00185103 0.00198305)
(0.0887337 0.00186088 0.000926172)
(0.0816164 0.00184895 -0.000502845)
(0.0700188 0.000801848 -0.0015662)
(0.0576911 0.00107328 -0.00319533)
(0.0700153 -0.00156564 -0.000800606)
(0.0827207 -0.00236546 -0.000625972)
(0.0958341 -0.000793153 0.00162783)
(0.101737 -1.40445e-05 0.00237075)
(0.104428 0.000685158 0.00224202)
(0.105098 0.000876859 0.00162364)
(0.102762 0.000699057 0.000796226)
(0.0959086 0.000408926 -0.000462355)
(0.0827245 0.000626816 -0.00236662)
(0.0654214 -0.000407627 -0.00308325)
(0.0816135 -0.0005026 -0.00184698)
(0.0959068 -0.000461956 -0.000407797)
(0.103408 -0.000196269 0.000692239)
(0.107931 6.00666e-05 0.00140416)
(0.110085 0.000285811 0.00153089)
(0.110257 0.000231505 0.0011671)
(0.108301 -0.00011841 0.000571018)
(0.103408 -0.000691723 -0.000196817)
(0.0958359 -0.0016273 -0.000794372)
(0.074533 -0.00305882 -0.00104689)
(0.0887321 0.00092639 -0.0018589)
(0.102761 0.000796663 -0.000697734)
(0.108301 0.000571463 0.000118662)
(0.111385 0.00038182 0.000648864)
(0.112862 0.00018352 0.000817536)
(0.112872 -0.00013984 0.000691086)
(0.111384 -0.000649037 0.000381774)
(0.107931 -0.00140384 5.97025e-05)
(0.101737 -0.00237026 -1.49279e-05)
(0.0825575 -0.00377045 0.000760238)
(0.0921995 0.00198329 -0.00184942)
(0.105098 0.00162388 -0.00087574)
(0.110257 0.00116732 -0.000231402)
(0.112872 0.000691043 0.000139391)
(0.114125 0.000229404 0.000252016)
(0.114125 -0.0002524 0.000229613)
(0.112861 -0.00081765 0.000183766)
(0.110084 -0.00153059 0.000285704)
(0.104428 -0.00224149 0.000684485)
(0.0892453 -0.0027996 0.001574)
(0.0892449 0.00279979 -0.0015734)
(0.104428 0.00224176 -0.000684023)
(0.110084 0.00153075 -0.000285601)
(0.112861 0.00081754 -0.000183901)
(0.114125 0.000252112 -0.000229795)
(0.114125 -0.000229694 -0.000252222)
(0.112872 -0.000691034 -0.000139561)
(0.110257 -0.00116687 0.00023156)
(0.105098 -0.00162334 0.000876414)
(0.0922003 -0.001983 0.00185034)
(0.0825573 0.00377059 -0.00075977)
(0.101738 0.00237038 1.53088e-05)
(0.107931 0.00140385 -5.95289e-05)
(0.111384 0.000648916 -0.00038178)
(0.112871 0.000139637 -0.000691112)
(0.112861 -0.000183646 -0.000817531)
(0.111384 -0.000381584 -0.00064882)
(0.108301 -0.000570653 -0.000118267)
(0.102761 -0.000795798 0.00069884)
(0.0887337 -0.000925974 0.00186033)
(0.074533 0.00305896 0.00104731)
(0.095836 0.0016274 0.000794795)
(0.103408 0.000691756 0.000197102)
(0.108301 0.000118384 -0.000570787)
(0.110256 -0.000231503 -0.00116683)
(0.110084 -0.00028563 -0.00153049)
(0.10793 -5.95264e-05 -0.00140364)
(0.103408 0.00019713 -0.000691538)
(0.0959083 0.000462795 0.000408973)
(0.081616 0.000503137 0.00184861)
(0.0654216 0.000407815 0.00308368)
(0.0827245 -0.000626603 0.00236704)
(0.0959087 -0.000408737 0.000462705)
(0.102762 -0.000698802 -0.000795881)
(0.105098 -0.00087648 -0.00162325)
(0.104428 -0.000684522 -0.00224132)
(0.101737 1.49699e-05 -0.00237005)
(0.0958358 0.000794511 -0.00162709)
(0.0827244 0.00236692 0.00062699)
(0.0700187 0.00156653 0.000801843)
(0.0576914 -0.00107312 0.00319584)
(0.0700189 -0.000801528 0.00156652)
(0.0816165 -0.00184859 0.000503153)
(0.0887339 -0.00186056 -0.000925913)
(0.0922003 -0.00185056 -0.0019829)
(0.0892454 -0.0015742 -0.00279957)
(0.0825577 -0.000760225 -0.00377039)
(0.0745333 0.00104692 -0.00305867)
(0.0654218 0.00308339 -0.000407516)
(0.0576912 0.00319552 0.00107336)
)
;
    }
    walls
    {
        type            noSlip;
    }
    ami2
    {
        type            cyclicAMI;
        value           nonuniform List<vector> 
12
(
(0.069786 0.000421196 0.00353398)
(0.0813596 0.00130605 0.00288978)
(0.0894502 0.00196727 0.00260037)
(0.0704155 -0.000993061 0.00336124)
(0.0858337 0.000784309 0.00403674)
(0.0963125 0.00128837 0.00271739)
(0.0673495 -0.00261255 0.00117752)
(0.0936866 -0.000448236 0.00257277)
(0.103301 0.000226799 0.00235709)
(0.0702756 -0.00313303 -0.000852389)
(0.0964439 -0.00089923 0.00124176)
(0.106236 -4.21728e-05 0.00161596)
)
;
    }
    outlet
    {
        type            zeroGradient;
    }
    procBoundary2to0
    {
        type            processor;
        value           nonuniform List<vector> 
28
(
(0.0347974 -6.67805e-05 2.86632e-05)
(0.0565403 0.000138774 0.000940493)
(0.0787096 0.000767657 0.00193456)
(0.08952 0.00233368 0.00202249)
(0.0888936 0.00221305 0.00257628)
(0.0787096 0.000767657 0.00193456)
(0.0881079 0.00183764 0.002275)
(0.0518578 -0.000314268 -8.10805e-05)
(0.0670774 -0.00103476 0.000675411)
(0.0833255 0.00010754 0.00147711)