/*--------------------------------*- C++ -*----------------------------------*\
| =========                 |                                                 |
| \\      /  F ield         | OpenFOAM: The Open Source CFD Toolbox           |
|  \\    /   O peration     | Version:  2212                                  |
|   \\  /    A nd           | Website:  www.openfoam.com                      |
|    \\/     M anipulation  |                                                 |
\*---------------------------------------------------------------------------*/
FoamFile
{
    version     2.0;
    format      ascii;
    arch        "LSB;label=32;scalar=64";
    class       surfaceVectorField;
    location    "0.5";
    object      Uf;
}
// * * * * * * * * * * * * * * * * * * * * * * * * * * * * * * * * * * * * * //

dimensions      [0 1 -1 0 0 0 0];

internalField   nonuniform List<vector> 
1769
(
(0.0456581 -1.17769e-06 0.000145005)
(0.0543572 0.000123857 0.000204007)
(0.0544141 0.000109409 0.000278527)
(0.0448252 -6.0286e-05 0.000167211)
(0.0533661 4.38469e-05 0.000217694)
(0.0534633 7.61603e-05 0.000283095)
(0.0442009 -0.000187662 0.000200769)
(0.0525239 -7.82699e-05 0.000251053)
(0.0526953 9.56923e-06 0.000299758)
(0.0440512 -0.000399434 0.000204499)
(0.0519635 -0.000320152 0.000274675)
(0.0522823 -0.000148037 0.000335818)
(0.0450203 -0.00185517 -0.000778516)
(0.0520603 -0.000799628 0.000177902)
(0.0526953 -0.000385326 0.000340669)
(0.051029 -0.0037373 -0.00166662)
(0.051285 -0.0022377 -0.000952601)
(0.066129 0.000353811 0.000392664)
(0.0734795 0.000673959 0.000620095)
(0.0760121 0.000338042 0.000358598)
(0.0650716 0.000170721 0.000406917)
(0.0724543 0.000514282 0.000633025)
(0.0752014 0.000220239 0.000388823)
(0.064155 -0.000115093 0.00041493)
(0.0714961 0.00028793 0.000661776)
(0.0744914 5.06216e-05 0.000439408)
(0.0635079 -0.000674952 0.000331822)
(0.0706413 -8.76072e-05 0.000698936)
(0.0739348 -0.00026587 0.000452576)
(0.0636571 -0.00235391 -0.000382308)
(0.0699497 -0.000846136 0.000640783)
(0.0735975 -0.000966172 0.000227939)
(0.0687084 -0.00273162 0.000371628)
(0.0729106 -0.00314292 -0.00120906)
(0.0814198 0.000775905 0.000870605)
(0.0860786 0.000767409 0.000971132)
(0.0887124 0.000760252 0.000885507)
(0.0805105 0.000573086 0.000900559)
(0.0852619 0.000606816 0.000989556)
(0.088132 0.000602599 0.000915333)
(0.0795917 0.000273498 0.000972219)
(0.0843953 0.000397995 0.00104619)
(0.0875705 0.000396641 0.000983273)
(0.0785918 -0.000238141 0.00107669)
(0.0833927 9.82152e-05 0.00117954)
(0.0869911 8.72644e-05 0.00111431)
(0.0773191 -0.000941311 0.00166327)
(0.0821415 -0.000345556 0.00137616)
(0.0863425 -0.000414972 0.00129471)
(0.0806369 -0.000632932 0.00246101)
(0.0856551 -0.000976732 0.00207359)
(0.0904673 0.000678552 0.00112608)
(0.0926657 0.00057075 0.00113382)
(0.096144 0.000667225 0.00119501)
(0.0897107 0.00055335 0.00118163)
(0.0920679 0.0005278 0.00116363)
(0.0957518 0.000556053 0.00123529)
(0.0887861 0.000412143 0.00131795)
(0.0913562 0.000508109 0.00124194)
(0.0952837 0.000431559 0.00133932)
(0.0875537 0.000240785 0.00156148)
(0.0904317 0.00051405 0.00141108)
(0.0946688 0.000288876 0.0015572)
(0.0857969 0.00039574 0.00229724)
(0.0891824 0.000586986 0.00167564)
(0.093839 0.000115874 0.0019136)
(0.0878798 0.00114736 0.00251859)
(0.093023 0.000387227 0.00301894)
(0.0943885 0.000383032 0.00116918)
(0.0946987 0.000126512 0.00112919)
(0.0993709 0.000345506 0.0012875)
(0.09385 0.000436486 0.00122)
(0.0942648 0.000210062 0.00114364)
(0.0991521 0.000361194 0.00131955)
(0.0931678 0.000539521 0.00132672)
(0.0937539 0.000355794 0.00118626)
(0.0988549 0.000413546 0.00139758)
(0.0922647 0.00073347 0.00150749)
(0.0931165 0.000584775 0.00127537)
(0.0984361 0.000503642 0.00155412)
(0.0910318 0.00122138 0.00186912)
(0.0922954 0.000978366 0.001417)
(0.0978553 0.000682838 0.00179782)
(0.0915737 0.00181076 0.00172941)
(0.0974757 0.00113708 0.00227205)
(0.0945857 -7.01785e-05 0.00110366)
(0.0929054 -0.000399723 0.00106329)
(0.0994919 -0.000140062 0.00123872)
(0.094182 8.85411e-05 0.0011099)
(0.0924715 -0.000237853 0.0010379)
(0.0993539 -2.65588e-05 0.00123514)
(0.0937247 0.000328639 0.00113492)
(0.0920359 -1.07068e-05 0.00101449)
(0.0991828 0.000136298 0.00125149)
(0.0931936 0.000697062 0.00118488)
(0.0915887 0.000312229 0.000999385)
(0.0989635 0.000374284 0.00129542)
(0.0925929 0.00128863 0.00127729)
(0.0911118 0.000773716 0.00100102)
(0.0986848 0.000725323 0.00136871)
(0.0906303 0.00146144 0.00100097)
(0.0985231 0.00125143 0.00148815)
(0.0913936 -0.000714 0.00104182)
(0.0870681 -0.00089504 0.000922798)
(0.0966592 -0.00072925 0.0011307)
(0.090895 -0.000547114 0.000999509)
(0.0863859 -0.000759191 0.000883438)
(0.0964092 -0.000600771 0.00109051)
(0.0904313 -0.000321692 0.000946431)
(0.0857802 -0.000582565 0.000827765)
(0.0961843 -0.000438715 0.00104605)
(0.0900105 -5.45772e-06 0.000884304)
(0.0852767 -0.000340836 0.000747852)
(0.0959877 -0.000225195 0.000994661)
(0.0896294 0.000452705 0.000818832)
(0.0849123 1.27789e-05 0.000615835)
(0.0958204 7.12983e-05 0.000937587)
(0.0892329 0.0011352 0.000718461)
(0.0847499 0.000605375 0.000419932)
(0.0956809 0.000489162 0.000878082)
(0.0842353 0.00169248 -6.96858e-05)
(0.0955371 0.00107946 0.000792058)
(0.0825788 -0.000985877 0.000794076)
(0.0746967 -0.00086867 0.000566918)
(0.0894625 -0.000943148 0.00080605)
(0.0818031 -0.000848969 0.000744336)
(0.0736882 -0.000789241 0.00053547)
(0.0889378 -0.000840509 0.000759977)
(0.0811677 -0.000676093 0.000668779)
(0.0728094 -0.000699761 0.000481824)
(0.0885035 -0.000720559 0.000693714)
(0.0807225 -0.000421521 0.000530337)
(0.0721118 -0.000568186 0.00039355)
(0.0881843 -0.000566967 0.000589425)
(0.0805389 3.84505e-05 0.000285317)
(0.0717386 -0.000330906 0.000172886)
(0.0880065 -0.000324493 0.00039197)
(0.0807242 0.00106341 -0.000283701)
(0.0719786 0.000160616 -0.000204759)
(0.088025 0.000121005 6.86024e-05)
(0.0705688 0.00167091 -0.00121691)
(0.08775 0.00112 -0.000685204)
(0.0674063 -0.0006066 0.000317395)
(0.0555023 -0.000282266 0.000134377)
(0.0769638 -0.000513565 0.000260685)
(0.0663175 -0.000564783 0.000280751)
(0.0544145 -0.000278416 0.000109529)
(0.0760916 -0.000487194 0.000223605)
(0.0653913 -0.000504928 0.000213609)
(0.0534639 -0.000282934 7.62769e-05)
(0.0753372 -0.000467829 0.000161193)
(0.0647221 -0.000405442 5.72334e-05)
(0.0526962 -0.000299543 9.67173e-06)
(0.0747306 -0.000435281 5.57258e-05)
(0.0646141 -0.000259736 -0.000230305)
(0.0522836 -0.000335561 -0.000147976)
(0.0743793 -0.00034343 -0.000211612)
(0.0657405 6.45198e-05 -0.000769568)
(0.0526971 -0.000340389 -0.000385275)
(0.0744821 -6.12429e-05 -0.000848805)
(0.051287 0.000952799 -0.00223767)
(0.0732692 0.00113969 -0.00305341)
(0.0466366 -0.000135867 3.42698e-05)
(0.0554678 -0.000199809 0.000184781)
(0.0456586 -0.000144912 -1.0634e-06)
(0.0543576 -0.000203937 0.000123935)
(0.0448259 -0.000167092 -6.0176e-05)
(0.0533667 -0.000217616 4.39316e-05)
(0.0442019 -0.000200631 -0.000187581)
(0.0525248 -0.000250962 -7.82072e-05)
(0.0440526 -0.000204381 -0.000399387)
(0.0519647 -0.000274598 -0.000320134)
(0.0450222 0.000778605 -0.00185511)
(0.0520619 -0.000177853 -0.000799698)
(0.0510312 0.00166695 -0.00373793)
(0.0663169 0.000280666 0.00056505)
(0.0760911 0.000223546 0.000487376)
(0.0736877 0.0005354 0.000789473)
(0.0653904 0.00021354 0.000505288)
(0.0753364 0.000161125 0.000468056)
(0.0728087 0.000481792 0.00070011)
(0.0647209 5.71862e-05 0.000405887)
(0.0747296 5.56607e-05 0.000435582)
(0.0721108 0.00039354 0.000568651)
(0.0646124 -0.000230346 0.000260279)
(0.0743779 -0.000211628 0.000343801)
(0.0717371 0.000172916 0.00033153)
(0.0657379 -0.000769408 -6.37756e-05)
(0.07448 -0.000848863 6.16801e-05)
(0.0719765 -0.000204673 -0.000159698)
(0.0732664 -0.00305323 -0.00113902)
(0.0705664 -0.00121652 -0.00166967)
(0.0875026 0.000217743 0.000426033)
(0.091905 0.000498193 0.000691376)
(0.0919739 0.000535747 0.000637651)
(0.087113 9.64747e-05 0.000435775)
(0.0915878 0.000369588 0.000694614)
(0.0916936 0.000437742 0.00059247)
(0.0868159 -0.000125279 0.000421456)
(0.0913298 0.000196194 0.000721644)
(0.0914874 0.000298652 0.000545923)
(0.0865766 -0.000575839 0.000271323)
(0.0911134 -9.02753e-05 0.000729573)
(0.0913377 3.61664e-05 0.000440832)
(0.0860832 -0.00155456 -0.000335061)
(0.0908936 -0.000517594 0.000655462)
(0.0911878 -0.00043334 0.000211845)
(0.0908813 -0.00116226 0.000287345)
(0.0911596 -0.00133469 -0.000288425)
(0.0966394 0.000581084 0.000971566)
(0.099352 0.000605869 0.0011429)
(0.0997104 0.00076472 0.00101618)
(0.0964676 0.000410737 0.000997236)
(0.099237 0.000470967 0.00115894)
(0.0996666 0.000625562 0.000994004)
(0.0963252 0.000180357 0.001054)
(0.0991236 0.0003037 0.00121769)
(0.0996471 0.000451183 0.000991097)
(0.0961961 -0.000140396 0.00113522)
(0.098997 7.7106e-05 0.0013306)
(0.0996369 0.000213804 0.000995087)
(0.0960335 -0.000541005 0.00125038)
(0.0988598 -0.000219084 0.00149813)
(0.0996306 -0.000103811 0.000989039)
(0.0989856 -0.000542637 0.00172537)
(0.0998101 -0.000444823 0.00101298)
(0.102189 0.000542191 0.00135545)
(0.103426 0.000469138 0.00141193)
(0.104341 0.000637796 0.00136052)
(0.102136 0.000426241 0.00140817)
(0.103447 0.000413435 0.00143265)
(0.104444 0.000534848 0.00136116)
(0.102049 0.000289944 0.00153002)
(0.103431 0.000361192 0.00150152)
(0.104526 0.000420903 0.00140366)
(0.101926 0.000126068 0.00174044)
(0.10337 0.000308957 0.00164537)
(0.104583 0.000286791 0.00150216)
(0.101767 -1.7206e-05 0.00203961)
(0.103273 0.000258929 0.00186959)
(0.104628 0.000132514 0.00165512)
(0.10346 0.000270871 0.00215139)
(0.104873 2.36301e-05 0.00185046)
(0.104739 0.000322075 0.00149071)
(0.104742 9.16978e-05 0.00145479)
(0.106475 0.000310201 0.00148918)
(0.1048 0.000332996 0.00152727)
(0.10485 0.000144944 0.00145194)
(0.106687 0.000301963 0.00148679)
(0.104815 0.000366348 0.00161732)
(0.104926 0.000225707 0.00147852)
(0.106866 0.000307299 0.00151797)
(0.10478 0.000430808 0.00177371)
(0.104964 0.000346602 0.00155175)
(0.107008 0.000328944 0.00159825)
(0.104688 0.000547051 0.00197915)
(0.104974 0.000522229 0.00167062)
(0.107131 0.000373922 0.00172647)
(0.105209 0.000760591 0.00180858)
(0.107452 0.000459044 0.0018732)
(0.104855 -9.96918e-05 0.00141602)
(0.10357 -0.000364505 0.00131922)
(0.106543 -0.000185779 0.00143096)
(0.104979 1.6521e-05 0.00140319)
(0.103672 -0.000244128 0.00127532)
(0.106792 -0.000106784 0.00139254)
(0.105082 0.000173879 0.00141296)
(0.103772 -9.08651e-05 0.00123726)
(0.107021 -6.14263e-06 0.00137003)
(0.10516 0.000387275 0.00144866)
(0.103867 0.000111916 0.00120629)
(0.107229 0.00012754 0.00136686)
(0.105209 0.000656929 0.00150005)
(0.103964 0.000381295 0.00117954)
(0.10743 0.000302181 0.00138254)
(0.104183 0.000716672 0.00114559)
(0.107749 0.000508164 0.00140337)
(0.102377 -0.000619209 0.00124715)
(0.0995852 -0.000750263 0.00107231)
(0.104313 -0.000733469 0.00131118)
(0.102437 -0.000494778 0.00118276)
(0.0995234 -0.000648749 0.00100099)
(0.10448 -0.000632745 0.00122954)
(0.102515 -0.000345485 0.00111539)
(0.0995013 -0.000535836 0.000920821)
(0.104656 -0.000522588 0.00114669)
(0.102611 -0.000154803 0.00103898)
(0.0995203 -0.000398875 0.00081875)
(0.104842 -0.000394707 0.00105749)
(0.102718 9.43515e-05 0.000948885)
(0.0995691 -0.000208066 0.000666306)
(0.105036 -0.000234552 0.000956205)
(0.102823 0.000406731 0.000841911)
(0.099635 5.65286e-05 0.000446205)
(0.105246 -3.27841e-05 0.00084148)
(0.0997712 0.000459331 0.000122632)
(0.105529 0.000208859 0.000715931)
(0.0969632 -0.000804474 0.000849158)
(0.0923301 -0.000688085 0.000611631)
(0.0998319 -0.000958237 0.000963977)
(0.0968274 -0.000716909 0.000763693)
(0.0919744 -0.000637515 0.000535818)
(0.099789 -0.000881669 0.000865801)
(0.0967519 -0.000617974 0.000651442)
(0.0916942 -0.000592276 0.000437785)
(0.0997872 -0.000808081 0.000751374)
(0.0967398 -0.000484102 0.000478509)
(0.0914883 -0.00054562 0.000298618)
(0.0998267 -0.000729126 0.000605318)
(0.0967529 -0.000277417 0.000204242)
(0.0913389 -0.000440384 3.60186e-05)
(0.0998923 -0.00062105 0.00039228)
(0.0966879 6.59737e-05 -0.000217069)
(0.0911895 -0.000211221 -0.000433601)
(0.0999657 -0.000458071 0.000100072)
(0.0911623 0.000289325 -0.00133551)
(0.100127 -0.000217114 -0.000244939)
(0.0879808 -0.000433641 0.000304349)
(0.0769159 -0.000346707 0.000420904)
(0.0922856 -0.000708621 0.000599911)
(0.0875032 -0.000425935 0.000217845)
(0.0760126 -0.000358593 0.000338157)
(0.0919055 -0.00069129 0.000498146)
(0.0871139 -0.000435635 9.6548e-05)
(0.0752021 -0.000388804 0.000220334)
(0.0915884 -0.000694497 0.000369507)
(0.086817 -0.00042124 -0.000125284)
(0.0744924 -0.000439368 5.06547e-05)
(0.0913306 -0.000721455 0.000196024)
(0.0865783 -0.000271032 -0.000575953)
(0.0739362 -0.000452542 -0.000265914)
(0.0911145 -0.000729301 -9.05855e-05)
(0.0860856 0.000335714 -0.00155529)
(0.0735994 -0.000227915 -0.000966353)
(0.0908953 -0.000655136 -0.000518054)
(0.0729137 0.00120925 -0.0031438)
(0.090884 -0.000286705 -0.00116312)
(0.0672937 -0.000386538 0.00048124)
(0.0745712 -0.000619357 0.00079614)
(0.0661296 -0.000392645 0.000353886)
(0.0734799 -0.000620031 0.000673882)
(0.0650724 -0.000406884 0.000170739)
(0.0724549 -0.000632934 0.000514137)
(0.0641562 -0.000414903 -0.000115155)
(0.0714971 -0.000661672 0.000287682)
(0.0635095 -0.000331808 -0.000675146)
(0.0706425 -0.000698843 -8.79811e-05)
(0.0636593 0.000382382 -0.00235445)
(0.0699513 -0.000640698 -0.000846727)
(0.0687107 -0.000371454 -0.00273269)
(0.0818026 0.000744357 0.000849363)
(0.0889374 0.000759968 0.000840779)
(0.0863855 0.000883482 0.000759581)
(0.0811669 0.000668843 0.000676622)
(0.0885029 0.000693752 0.000720946)
(0.0857796 0.000827857 0.000583095)
(0.0807214 0.000530446 0.000422261)
(0.0881834 0.000589497 0.000567482)
(0.0852759 0.000747978 0.000341522)
(0.0805372 0.000285489 -3.74194e-05)
(0.0880053 0.000392096 0.000325246)
(0.0849111 0.000615996 -1.19001e-05)
(0.080722 -0.000283446 -0.00106214)
(0.0880233 6.8752e-05 -0.000120016)
(0.0847483 0.000420186 -0.000604106)
(0.0877479 -0.00068507 -0.00111887)
(0.0842333 -6.9356e-05 -0.00169087)
(0.096827 0.000763689 0.000717159)
(0.0997886 0.000865874 0.000881848)
(0.099523 0.00100102 0.000649008)
(0.0967513 0.000651515 0.000618342)
(0.0997867 0.000751522 0.000808354)
(0.0995008 0.000920916 0.000536198)
(0.096739 0.000478694 0.000484641)
(0.0998261 0.000605574 0.000729527)
(0.0995198 0.00081893 0.000399386)
(0.0967517 0.000204529 0.000278156)
(0.0998916 0.000392692 0.000621628)
(0.0995683 0.000666602 0.0002088)
(0.0966864 -0.000216737 -6.50662e-05)
(0.0999647 0.000100618 0.000458811)
(0.099634 0.000446567 -5.56859e-05)
(0.100126 -0.000244385 0.000217909)
(0.09977 0.00012304 -0.000458154)
(0.103085 0.000809453 0.000977894)
(0.104791 0.000767053 0.00114949)
(0.104828 0.00102348 0.000851536)
(0.103208 0.000669037 0.000928919)
(0.104974 0.000652591 0.00110889)
(0.105028 0.000910792 0.00078284)
(0.103347 0.000493628 0.000882761)
(0.105161 0.000521169 0.00108653)
(0.105238 0.000782332 0.000717834)
(0.103481 0.000271851 0.000827966)
(0.105347 0.000361134 0.00107797)
(0.105452 0.000626001 0.000647693)
(0.10357 3.35539e-05 0.000776862)
(0.105538 0.000174571 0.00107483)
(0.105672 0.000439992 0.000567464)
(0.105843 8.12466e-06 0.00109219)
(0.105985 0.000265535 0.000493123)
(0.106806 0.000626176 0.00129396)
(0.107528 0.000489221 0.0013697)
(0.107897 0.000753408 0.00110188)
(0.107058 0.000525972 0.0012817)
(0.107832 0.000430962 0.00134358)
(0.108241 0.000664918 0.00106206)
(0.1073 0.000415785 0.00129957)
(0.10812 0.000372341 0.00134527)
(0.108571 0.000571733 0.00104234)
(0.107538 0.000294703 0.00134614)
(0.108394 0.000311135 0.00137754)
(0.108892 0.000470286 0.00104233)
(0.107775 0.000179578 0.00141496)
(0.108673 0.000249076 0.00143512)
(0.10922 0.00036287 0.00105524)
(0.10906 0.000201962 0.00150412)
(0.10963 0.000272289 0.00106868)
(0.108583 0.000286278 0.00142128)
(0.108428 3.83304e-05 0.00140764)
(0.109342 0.000304966 0.00121162)
(0.108925 0.000271298 0.00140913)
(0.108791 5.83759e-05 0.00136673)
(0.109777 0.000282388 0.00117612)
(0.109246 0.000263128 0.00142518)
(0.109133 8.69794e-05 0.0013466)
(0.110186 0.000263991 0.00116147)
(0.109553 0.000262446 0.00146838)
(0.109458 0.000126917 0.00134608)
(0.110575 0.000249361 0.00116641)
(0.109859 0.000271675 0.00152603)
(0.109786 0.000179589 0.00136203)
(0.110965 0.000239203 0.00118263)
(0.110197 0.000241704 0.00138133)
(0.111427 0.000238049 0.00119368)
(0.108635 -0.000194809 0.00135309)
(0.107588 -0.000466289 0.001282)
(0.10937 -0.000266677 0.00117102)
(0.108998 -0.00013368 0.0013042)
(0.10792 -0.000394686 0.00120516)
(0.109815 -0.000224216 0.00111279)
(0.109346 -6.01915e-05 0.00126749)
(0.108243 -0.000316065 0.00113276)
(0.110238 -0.000176192 0.00106645)
(0.109682 2.97246e-05 0.00123973)
(0.10856 -0.000223823 0.00105966)
(0.110643 -0.000119763 0.00102655)
(0.110011 0.000134057 0.00121733)
(0.108885 -0.000113195 0.00098496)
(0.111047 -5.24138e-05 0.000990275)
(0.109274 1.37257e-05 0.000914911)
(0.1115 2.23007e-05 0.000955821)
(0.106607 -0.00074589 0.00123414)
(0.104638 -0.000927377 0.00112892)
(0.107564 -0.000869766 0.00110127)
(0.106899 -0.000661866 0.0011378)
(0.104828 -0.000851376 0.00102336)
(0.107936 -0.000795899 0.0010106)
(0.107193 -0.000576812 0.0010385)
(0.105028 -0.000782599 0.000910575)
(0.108298 -0.000727645 0.000921011)
(0.107489 -0.000484856 0.000931166)
(0.105238 -0.000717483 0.000782002)
(0.108653 -0.000663201 0.000827531)
(0.107787 -0.000379633 0.000813063)
(0.105453 -0.000647207 0.000625533)
(0.109004 -0.000597074 0.000726495)
(0.108084 -0.000258854 0.000693033)
(0.105673 -0.000566882 0.000439413)
(0.109363 -0.000523831 0.000618143)
(0.105985 -0.000492586 0.000264981)
(0.109781 -0.000438697 0.000519353)
(0.102982 -0.00103716 0.000930206)
(0.0997814 -0.00105681 0.000885063)
(0.104614 -0.00120809 0.000873585)
(0.103085 -0.000977709 0.000809298)
(0.0997107 -0.0010161 0.00076463)
(0.104791 -0.00114938 0.000766915)
(0.103208 -0.000928632 0.000668771)
(0.099667 -0.000993847 0.000625386)
(0.104974 -0.00110869 0.000652363)
(0.103348 -0.000882345 0.000493214)
(0.0996477 -0.000990844 0.000450883)
(0.105162 -0.00108623 0.00052082)
(0.103481 -0.000827422 0.00027128)
(0.0996377 -0.000994708 0.000213327)
(0.105348 -0.00107755 0.000360632)
(0.103571 -0.000776282 3.29209e-05)
(0.0996316 -0.000988554 -0.000104477)
(0.105538 -0.00107432 0.000173947)
(0.0998112 -0.00101239 -0.000445686)
(0.105843 -0.00109173 7.52244e-06)
(0.0968417 -0.000974617 0.000718177)
(0.0893244 -0.000879382 0.000891466)
(0.0994754 -0.00115712 0.000722734)
(0.0966398 -0.000971502 0.000580972)
(0.0887128 -0.000885494 0.000760176)
(0.0993523 -0.00114286 0.000605738)
(0.0964682 -0.00099711 0.000410526)
(0.0881326 -0.000915282 0.00060244)
(0.0992374 -0.00115884 0.000470758)
(0.096326 -0.0010538 0.000179996)
(0.0875713 -0.000983199 0.000396355)
(0.0991241 -0.00121753 0.000303366)
(0.0961972 -0.00113495 -0.000140956)
(0.0869921 -0.00111423 8.68076e-05)
(0.0989977 -0.00133035 7.65827e-05)
(0.096035 -0.00125002 -0.000541861)
(0.0863439 -0.00129468 -0.00041565)
(0.0988607 -0.00149782 -0.000219768)
(0.0856569 -0.00207355 -0.000977773)
(0.0989866 -0.00172492 -0.000543756)
(0.0823507 -0.000863378 0.000934858)
(0.0868842 -0.000972386 0.00089958)
(0.0814203 -0.000870534 0.000775764)
(0.086079 -0.000971065 0.000767238)
(0.0805112 -0.000900461 0.000572828)
(0.0852625 -0.000989456 0.000606555)
(0.0795927 -0.00097211 0.000273077)
(0.084396 -0.00104608 0.000397608)
(0.0785931 -0.00107659 -0.00023878)
(0.0833937 -0.0011794 9.7655e-05)
(0.0773208 -0.00166316 -0.000942276)
(0.0821427 -0.00137605 -0.000346386)
(0.0806383 -0.00246079 -0.00063408)
(0.0908946 0.000999631 0.000547658)
(0.0964089 0.0010906 0.000601173)
(0.0929052 0.00106339 0.000400181)
(0.0904307 0.000946592 0.00032239)
(0.0961839 0.00104619 0.000439245)
(0.0924713 0.00103803 0.000238436)
(0.0900097 0.0008845 6.33864e-06)
(0.0959872 0.000994839 0.000225883)
(0.0920354 0.00101465 1.14434e-05)
(0.0896283 0.000819078 -0.000451584)
(0.0958197 0.000937816 -7.04137e-05)
(0.0915881 0.00099957 -0.00031131)
(0.0892316 0.000718755 -0.00113373)
(0.09568 0.000878378 -0.000488016)
(0.091111 0.00100126 -0.00077254)
(0.095536 0.000792335 -0.001078)
(0.0906294 0.00100123 -0.00145989)
(0.102437 0.00118289 0.000495161)
(0.10448 0.00122968 0.000633009)
(0.10357 0.00131934 0.000364852)
(0.102515 0.00111559 0.000346001)
(0.104656 0.00114691 0.000522948)
(0.103672 0.00127549 0.000244583)
(0.102611 0.00103927 0.000155495)
(0.104841 0.00105779 0.000395191)
(0.103772 0.00123748 9.14589e-05)
(0.102717 0.000949273 -9.34384e-05)
(0.105035 0.000956609 0.000235191)
(0.103866 0.00120657 -0.000111098)
(0.102822 0.000842357 -0.00040559)
(0.105246 0.000841974 3.35719e-05)
(0.103963 0.00117987 -0.000380326)
(0.105529 0.000716456 -0.000208011)
(0.104182 0.00114595 -0.000715513)
(0.106899 0.001138 0.000662096)
(0.107936 0.00101075 0.000796053)
(0.107588 0.00128215 0.000466506)
(0.107193 0.00103878 0.000577125)
(0.108298 0.000921235 0.000727852)
(0.107919 0.00120536 0.00039497)
(0.107489 0.000931547 0.000485269)
(0.108653 0.000827839 0.000663475)
(0.108243 0.00113302 0.000316426)
(0.107787 0.000813531 0.000380122)
(0.109004 0.000726886 0.000597415)
(0.10856 0.00106 0.00022425)
(0.108084 0.000693517 0.000259307)
(0.109363 0.000618572 0.000524172)
(0.108885 0.000985337 0.000113623)
(0.109781 0.000519699 0.000438887)
(0.109274 0.000915255 -1.34556e-05)
(0.109407 0.000797916 0.000868779)
(0.109752 0.000579944 0.000939625)
(0.109757 0.000897223 0.00060655)
(0.109835 0.000717149 0.000822463)
(0.110228 0.000526212 0.000891754)
(0.110235 0.000828031 0.000565931)
(0.110249 0.000633649 0.000785686)
(0.110684 0.000472284 0.000856481)
(0.110692 0.000762184 0.000529382)
(0.110656 0.000547171 0.000753931)
(0.111123 0.000416933 0.000831293)
(0.111133 0.000697197 0.000495587)
(0.111057 0.000466052 0.000719059)
(0.111565 0.000360792 0.000809524)
(0.111574 0.000632806 0.000459609)
(0.112053 0.000315043 0.000780879)
(0.112059 0.000576956 0.000416169)
(0.110589 0.000301719 0.000963961)
(0.110336 2.08918e-06 0.000972106)
(0.110759 0.000329658 0.000672901)
(0.111095 0.000275471 0.000927263)
(0.110855 2.98494e-06 0.000921056)
(0.111319 0.000304578 0.000640643)
(0.111577 0.000250239 0.000903757)
(0.111349 5.1712e-06 0.000881578)
(0.11185 0.000281048 0.000616668)
(0.112043 0.000225705 0.000888778)
(0.111823 8.29871e-06 0.00085085)
(0.112359 0.000257617 0.0005986)
(0.112496 0.000204769 0.000873477)
(0.112293 1.32267e-05 0.000824539)
(0.112857 0.000230271 0.00057902)
(0.1128 2.17346e-05 0.000797412)
(0.113393 0.000215633 0.000561583)
(0.110601 -0.000299094 0.0009292)
(0.109757 -0.000606427 0.000897096)
(0.110764 -0.000332467 0.00065531)
(0.11111 -0.000270655 0.000875371)
(0.110235 -0.000565786 0.000827869)
(0.111325 -0.000308719 0.000614369)
(0.111596 -0.000240929 0.000828672)
(0.110692 -0.000529219 0.000761982)
(0.111859 -0.000285588 0.000578756)
(0.112063 -0.000208766 0.000786612)
(0.111133 -0.000495442 0.000696966)
(0.112369 -0.000261784 0.000546091)
(0.112513 -0.000173118 0.000748475)
(0.111574 -0.000459561 0.0006326)
(0.112866 -0.000231332 0.000512315)
(0.112058 -0.000416355 0.00057688)
(0.113398 -0.000207376 0.000488102)
(0.108961 -0.000925799 0.000878852)
(0.107538 -0.00115926 0.000841991)
(0.10925 -0.000999567 0.000635492)
(0.109407 -0.000868651 0.000797746)
(0.107897 -0.00110178 0.000753264)
(0.109752 -0.000939544 0.000579824)
(0.109835 -0.0008223 0.000716919)
(0.108241 -0.00106191 0.000664705)
(0.110228 -0.000891653 0.000526056)
(0.110249 -0.000785492 0.000633365)
(0.108572 -0.00104212 0.000571438)
(0.110683 -0.000856355 0.000472093)
(0.110655 -0.00075375 0.000546872)
(0.108892 -0.00104205 0.000469907)
(0.111123 -0.000831152 0.000416727)
(0.111056 -0.000718997 0.000465833)
(0.10922 -0.00105495 0.000362462)
(0.111564 -0.000809421 0.000360635)
(0.10963 -0.00106851 0.000271993)
(0.112052 -0.00078092 0.000315056)
(0.106544 -0.00133261 0.000721608)
(0.104224 -0.00139071 0.000735423)
(0.107207 -0.00142014 0.000548761)
(0.106806 -0.00129384 0.000625989)
(0.104342 -0.00136046 0.00063765)
(0.107528 -0.00136964 0.000489078)
(0.107058 -0.0012815 0.000525695)
(0.104444 -0.00136103 0.000534622)
(0.107832 -0.00134346 0.000430755)
(0.1073 -0.00129928 0.000415398)
(0.104526 -0.00140345 0.000420565)
(0.10812 -0.00134508 0.000372057)
(0.107538 -0.00134578 0.000294222)
(0.104583 -0.00150185 0.000286304)
(0.108393 -0.00137726 0.000310773)
(0.107775 -0.0014146 0.000179103)
(0.104628 -0.00165472 0.000131885)
(0.108673 -0.0014348 0.000248685)
(0.104873 -0.00185001 2.29612e-05)
(0.109059 -0.00150381 0.000201668)
(0.102218 -0.00134858 0.000646801)
(0.0964969 -0.00118928 0.000769846)
(0.103378 -0.00142572 0.000527969)
(0.102189 -0.00135539 0.000542007)
(0.0961443 -0.00119498 0.000667065)
(0.103426 -0.00141192 0.000468975)
(0.102136 -0.00140805 0.000425958)
(0.0957522 -0.00123522 0.000555807)
(0.103447 -0.00143258 0.000413195)
(0.10205 -0.00152982 0.000289513)
(0.0952841 -0.00133923 0.000431203)
(0.103431 -0.00150138 0.000360847)
(0.101926 -0.00174016 0.000125447)
(0.0946693 -0.00155706 0.000288348)
(0.10337 -0.00164515 0.000308471)
(0.101767 -0.00203924 -1.80001e-05)
(0.0938396 -0.00191347 0.00011513)
(0.103273 -0.00186929 0.000258292)
(0.0930237 -0.00301876 0.000386511)
(0.10346 -0.00215097 0.000270116)
(0.0911388 -0.00111117 0.000791092)
(0.0931959 -0.0011276 0.000623764)
(0.0904677 -0.001126 0.000678326)
(0.092666 -0.00113376 0.000570558)
(0.0897112 -0.00118153 0.000553024)
(0.0920683 -0.00116354 0.000527517)
(0.0887867 -0.00131782 0.000411676)
(0.0913567 -0.00124183 0.000507713)
(0.0875545 -0.00156135 0.000240115)
(0.0904322 -0.00141095 0.000513516)
(0.0857978 -0.00229708 0.000395034)
(0.089183 -0.00167552 0.000586264)
(0.0878804 -0.00251817 0.00114638)
(0.0945857 0.00110377 7.06667e-05)
(0.0994918 0.00123883 0.000140464)
(0.0946987 0.00112926 -0.000126089)
(0.0941818 0.00111003 -8.79192e-05)
(0.0993538 0.00123527 2.70709e-05)
(0.0942648 0.00114372 -0.000209513)
(0.0937245 0.00113507 -0.000327857)
(0.0991827 0.00125164 -0.00013565)
(0.0937539 0.00118635 -0.000355085)
(0.0931933 0.00118506 -0.000696072)
(0.0989633 0.00129559 -0.000373465)
(0.0931165 0.00127548 -0.000583909)
(0.0925925 0.0012775 -0.00128732)
(0.0986846 0.0013689 -0.000724291)
(0.0922953 0.00141713 -0.00097727)
(0.0985228 0.00148838 -0.00125011)
(0.0915734 0.00172932 -0.0018093)
(0.104855 0.00141617 0.000100115)
(0.106543 0.00143111 0.000186097)
(0.104742 0.0014549 -9.1318e-05)
(0.104979 0.00140336 -1.59874e-05)
(0.106792 0.0013927 0.000107175)
(0.10485 0.00145206 -0.000144461)
(0.105082 0.00141315 -0.000173198)
(0.10702 0.00137023 6.62598e-06)
(0.104926 0.00147864 -0.000225093)
(0.105159 0.00144889 -0.00038642)
(0.107229 0.00136709 -0.000126951)
(0.104964 0.00155187 -0.000345821)
(0.105209 0.00150031 -0.000655903)
(0.10743 0.00138278 -0.000301509)
(0.104974 0.00167072 -0.000521276)
(0.107748 0.00140362 -0.000507475)
(0.105209 0.00180863 -0.000759487)
(0.108635 0.00135324 0.000195088)
(0.10937 0.00117115 0.000266878)
(0.108428 0.00140774 -3.80588e-05)
(0.108998 0.00130438 0.000134011)
(0.109815 0.00111293 0.000224446)
(0.108791 0.00136683 -5.80514e-05)
(0.109346 0.00126771 6.05704e-05)
(0.110238 0.00106663 0.000176448)
(0.109133 0.0013467 -8.65982e-05)
(0.109682 0.00123997 -2.9338e-05)
(0.110643 0.00102676 0.000120013)
(0.109458 0.00134619 -0.0001265)
(0.110011 0.00121757 -0.000133752)
(0.111047 0.00099048 5.25875e-05)
(0.109786 0.00136211 -0.000179196)
(0.1115 0.000955966 -2.23222e-05)
(0.110196 0.00138138 -0.000241461)
(0.110601 0.000929318 0.000299242)
(0.110764 0.0006554 0.000332579)
(0.110336 0.000972181 -1.92238e-06)
(0.11111 0.000875503 0.000270805)
(0.111325 0.000614465 0.000308829)
(0.110855 0.000921134 -2.80935e-06)
(0.111596 0.000828818 0.00024105)
(0.111859 0.000578859 0.000285683)
(0.111349 0.000881659 -5.00526e-06)
(0.112063 0.000786747 0.000208793)
(0.112369 0.000546193 0.000261831)
(0.111823 0.000850929 -8.18878e-06)
(0.112514 0.000748537 0.000172951)
(0.112866 0.000512385 0.000231282)
(0.112292 0.000824595 -1.3255e-05)
(0.113399 0.000488038 0.000207102)
(0.1128 0.00079741 -2.20223e-05)
(0.1115 0.00033294 0.000342736)
(0.111198 -3.63592e-06 0.000348524)
(0.111198 0.00034857 3.73607e-06)
(0.112087 0.00031064 0.000324409)
(0.111801 -5.27637e-06 0.000327086)
(0.111801 0.000327131 5.36498e-06)
(0.112646 0.000288975 0.000307328)
(0.112372 -7.33071e-06 0.000307899)
(0.112372 0.000307942 7.39341e-06)
(0.113181 0.000262718 0.000285293)
(0.112919 -9.62049e-06 0.000288346)
(0.112919 0.000288387 9.63427e-06)
(0.113691 0.000241704 0.000266616)
(0.113445 -1.14572e-05 0.000259625)
(0.113445 0.000259657 1.13961e-05)
(0.114007 -1.24827e-05 0.000248742)
(0.114007 0.000248721 1.22078e-05)
(0.1115 -0.000342665 0.000332873)
(0.110759 -0.000672841 0.000329577)
(0.111198 -0.000348458 -3.67459e-06)
(0.112087 -0.000324356 0.000310576)
(0.111319 -0.000640584 0.000304489)
(0.111801 -0.000327034 -5.30908e-06)
(0.112646 -0.000307307 0.000288918)
(0.11185 -0.000616615 0.000280956)
(0.112372 -0.000307865 -7.35585e-06)
(0.113181 -0.000285324 0.000262678)
(0.112359 -0.000598565 0.000257537)
(0.112919 -0.000288341 -9.62986e-06)
(0.113691 -0.000266773 0.000241751)
(0.112856 -0.000579031 0.00023024)
(0.113445 -0.000259657 -1.14349e-05)
(0.113392 -0.000561737 0.00021576)
(0.114006 -0.000248887 -1.23369e-05)
(0.110056 -0.00101459 0.000329302)
(0.108882 -0.00126698 0.000331077)
(0.109785 -0.00103419 1.58834e-06)
(0.110589 -0.000963907 0.000301616)
(0.109342 -0.00121158 0.000304851)
(0.110336 -0.000972071 2.0193e-06)
(0.111094 -0.0009272 0.000275355)
(0.109777 -0.00117605 0.000282242)
(0.110855 -0.000921017 2.91164e-06)
(0.111577 -0.000903685 0.000250124)
(0.110186 -0.00116136 0.000263813)
(0.111349 -0.000881532 5.10096e-06)
(0.112043 -0.000888717 0.000225633)
(0.110575 -0.00116627 0.000249169)
(0.111823 -0.000850796 8.2564e-06)
(0.112496 -0.000873478 0.000204818)
(0.110964 -0.00118247 0.000239047)
(0.112292 -0.000824492 1.32666e-05)
(0.111427 -0.00119356 0.000238018)
(0.1128 -0.000797404 2.19386e-05)
(0.108218 -0.00145912 0.000307377)
(0.106233 -0.00151935 0.000328005)