/*--------------------------------*- C++ -*----------------------------------*\
| =========                 |                                                 |
| \\      /  F ield         | OpenFOAM: The Open Source CFD Toolbox           |
|  \\    /   O peration     | Version:  2212                                  |
|   \\  /    A nd           | Website:  www.openfoam.com                      |
|    \\/     M anipulation  |                                                 |
\*---------------------------------------------------------------------------*/
FoamFile
{
    version     2.0;
    format      ascii;
    arch        "LSB;label=32;scalar=64";
    class       volVectorField;
    location    "0.75";
    object      U;
}
// * * * * * * * * * * * * * * * * * * * * * * * * * * * * * * * * * * * * * //

dimensions      [0 1 -1 0 0 0 0];

internalField   nonuniform List<vector> 
680
(
(0.0460788 5.26386e-05 9.3247e-05)
(0.0451521 2.50935e-05 8.13098e-05)
(0.0443897 1.3887e-06 6.6969e-05)
(0.0439677 -0.000109797 2.26765e-05)
(0.0444608 -0.000266186 -0.000104101)
(0.0431075 -0.00268033 -0.00211951)
(0.0666863 0.000474909 0.000397622)
(0.0655942 0.000366426 0.000407073)
(0.0646572 0.000198408 0.000405381)
(0.0640409 -0.000117072 0.000301424)
(0.064158 -0.000745082 1.6616e-05)
(0.063069 -0.00318913 -0.00191723)
(0.0818451 0.000875423 0.000943736)
(0.0809497 0.000692636 0.0009683)
(0.0801281 0.000435223 0.000991442)
(0.0793952 -2.19744e-05 0.000996597)
(0.0787618 -0.000828883 0.000987155)
(0.0776238 -0.00238081 0.000781099)
(0.0907384 0.000658844 0.00123281)
(0.0900247 0.000479874 0.00129082)
(0.0892296 0.000219773 0.00138697)
(0.0882764 -0.000172415 0.00153982)
(0.0870959 -0.000807627 0.0017181)
(0.0858277 -0.00161318 0.00246592)
(0.0944409 0.000254131 0.00130852)
(0.0938465 0.000205776 0.00141843)
(0.0930777 0.000137073 0.00160316)
(0.0920098 4.22988e-05 0.00189217)
(0.0905293 -0.000103717 0.00225198)
(0.0887887 0.000110042 0.00361619)
(0.0944887 -0.000189667 0.00128362)
(0.0939305 -0.000101589 0.00137813)
(0.093219 3.04985e-05 0.00153485)
(0.092253 0.000237434 0.00178354)
(0.0909163 0.000556655 0.00211252)
(0.0895796 0.000899183 0.00290122)
(0.0914567 -0.000787287 0.00118049)
(0.0908303 -0.000639731 0.00120035)
(0.0901782 -0.000439838 0.00123164)
(0.0894863 -0.000152288 0.00127772)
(0.0887191 0.000283215 0.00135666)
(0.0878218 0.000958288 0.00149452)
(0.0868848 0.00212318 0.00170875)
(0.0828373 -0.00103176 0.000910751)
(0.0819138 -0.00089318 0.000916087)
(0.0810633 -0.000715538 0.000916334)
(0.0803229 -0.000471682 0.000901461)
(0.0797287 -2.14072e-05 0.000823996)
(0.0793372 0.000752309 0.000685128)
(0.0785104 0.00256952 8.20972e-05)
(0.0679054 -0.000575724 0.000381218)
(0.0667143 -0.000505989 0.000380962)
(0.0656378 -0.000424323 0.000375707)
(0.0647298 -0.000300603 0.00033891)
(0.064172 -1.41573e-05 0.000151681)
(0.0645155 0.000537712 -0.000215767)
(0.0630082 0.00197049 -0.00167903)
(0.0471354 -0.000106708 8.07522e-05)
(0.046079 -9.32215e-05 5.2689e-05)
(0.0451524 -8.12706e-05 2.51219e-05)
(0.0443901 -6.68983e-05 1.44574e-06)
(0.0439682 -2.25911e-05 -0.000109717)
(0.0444615 0.000104209 -0.000266084)
(0.0431083 0.0021198 -0.00268031)
(0.066714 0.000380941 0.000506062)
(0.0656375 0.000375666 0.000424434)
(0.0647294 0.000338849 0.000300763)
(0.0641714 0.000151596 1.44065e-05)
(0.0645147 -0.000215889 -0.000537302)
(0.0630071 -0.00167878 -0.00196953)
(0.0877061 0.000314691 0.000352742)
(0.0872771 0.000243849 0.000302912)
(0.0869617 0.000135381 0.000236442)
(0.0867447 -7.91513e-05 8.61241e-05)
(0.0864422 -0.000587896 -0.000354181)
(0.0865275 -0.00199597 -0.00161282)
(0.0968028 0.000681923 0.00098747)
(0.0966674 0.000535595 0.000973798)
(0.0965882 0.000337735 0.000957928)
(0.0965545 5.18653e-05 0.000925535)
(0.0965226 -0.00036887 0.000850802)
(0.0966466 -0.000957848 0.000686144)
(0.102266 0.000550571 0.00144693)
(0.10227 0.000402646 0.00148999)
(0.102262 0.000213047 0.00157601)
(0.10223 -4.124e-05 0.00171662)
(0.10215 -0.000379405 0.00191679)
(0.102278 -0.000722128 0.00221701)
(0.104673 0.000239241 0.00165815)
(0.104757 0.000189532 0.00173566)
(0.104798 0.000130356 0.00188298)
(0.104789 5.77931e-05 0.00212707)
(0.104743 -2.72451e-05 0.00247359)
(0.10501 -7.83762e-05 0.00286254)
(0.1047 -0.000189432 0.00164021)
(0.104796 -0.00011207 0.00170203)
(0.104857 -1.04518e-05 0.00182537)
(0.104873 0.000127622 0.00203227)
(0.10486 0.000313951 0.00232077)
(0.105159 0.000545216 0.0026235)
(0.102295 -0.000674485 0.00141108)
(0.102322 -0.000547412 0.00140748)
(0.102358 -0.000394715 0.00142406)
(0.102398 -0.000197212 0.00146395)
(0.102435 6.86424e-05 0.00153288)
(0.102471 0.000419778 0.00163974)
(0.102683 0.000816041 0.00178062)
(0.0970154 -0.000825211 0.000981445)
(0.0968386 -0.000719147 0.000946914)
(0.0967197 -0.000592512 0.000909279)
(0.0966634 -0.000420269 0.000848883)
(0.0966589 -0.000171882 0.000743567)
(0.0966598 0.000197491 0.000561415)
(0.0967756 0.000722944 0.000238628)
(0.0882302 -0.000398625 0.000374666)
(0.0877063 -0.000352711 0.000314741)
(0.0872774 -0.000302825 0.000243876)
(0.0869621 -0.000236329 0.000135425)
(0.0867452 -8.59522e-05 -7.90938e-05)
(0.0864431 0.00035445 -0.000587822)
(0.0865287 0.00161349 -0.00199594)
(0.0678875 -0.000393127 0.00055717)
(0.0666865 -0.000397607 0.000474905)
(0.0655946 -0.000407064 0.000366448)
(0.0646577 -0.000405374 0.000198436)
(0.0640416 -0.000301407 -0.000117046)
(0.0641589 -1.6578e-05 -0.000745047)
(0.0630703 0.00191698 -0.00318877)
(0.0819136 0.000916069 0.00089332)
(0.0810631 0.000916314 0.000715726)
(0.0803226 0.000901434 0.00047195)
(0.0797283 0.000823952 2.17824e-05)
(0.0793366 0.00068505 -0.000751765)
(0.0785097 8.19323e-05 -0.00256888)
(0.0968384 0.00094688 0.000719271)
(0.0967195 0.000909257 0.000592697)
(0.0966631 0.000848861 0.000420519)
(0.0966585 0.000743525 0.000172209)
(0.0966593 0.00056137 -0.000197037)
(0.0967749 0.00023856 -0.000722363)
(0.103108 0.000963051 0.00100266)
(0.103261 0.000866568 0.000927269)
(0.10344 0.000750312 0.000841707)
(0.103628 0.000599762 0.000734024)
(0.103807 0.000404937 0.000595977)
(0.104121 0.000228371 0.000504913)
(0.106789 0.000687332 0.00137804)
(0.107099 0.000588442 0.00135844)
(0.107415 0.000476824 0.00136063)
(0.107741 0.0003477 0.00138724)
(0.108089 0.000203303 0.00143562)
(0.108547 6.29872e-05 0.00151993)
(0.108497 0.000262292 0.00157543)
(0.108889 0.000224917 0.00159065)
(0.109269 0.000184784 0.00164356)
(0.10965 0.000139457 0.00174038)
(0.110058 9.12995e-05 0.00187251)
(0.110589 5.7337e-05 0.00202034)
(0.108508 -0.000245251 0.00155857)
(0.108905 -0.000197373 0.00156387)
(0.109289 -0.000141734 0.00160151)
(0.109673 -7.45129e-05 0.00167646)
(0.110081 4.40758e-06 0.001779)
(0.110609 8.74119e-05 0.00188532)
(0.106497 -0.000788689 0.00139321)
(0.106812 -0.000699412 0.00134028)
(0.107133 -0.00060522 0.00129847)
(0.107464 -0.000499526 0.00126649)
(0.107807 -0.00037693 0.00124352)
(0.108178 -0.000238681 0.00122739)
(0.108651 -9.82445e-05 0.00122208)
(0.102985 -0.00107731 0.00105192)
(0.103108 -0.00100255 0.000963033)
(0.103262 -0.000927113 0.000866531)
(0.10344 -0.000841496 0.000750246)
(0.103629 -0.000733741 0.000599653)
(0.103807 -0.000595605 0.000404763)
(0.104122 -0.000504466 0.000228126)
(0.0969918 -0.0010073 0.00080154)
(0.0968029 -0.000987414 0.000681894)
(0.0966676 -0.000973712 0.000535542)
(0.0965885 -0.000957808 0.000337648)
(0.096555 -0.000925369 5.17232e-05)
(0.0965232 -0.00085059 -0.000369085)
(0.0966475 -0.000685937 -0.00095814)
(0.0827949 -0.000927087 0.00101978)
(0.0818453 -0.0009437 0.000875366)
(0.08095 -0.000968256 0.000692563)
(0.0801285 -0.00099138 0.000435097)
(0.0793959 -0.000996506 -2.21751e-05)
(0.0787627 -0.000987027 -0.00082918)
(0.0776251 -0.000780922 -0.00238128)
(0.0908303 0.00120035 0.000639904)
(0.0901781 0.00123164 0.000440098)
(0.0894862 0.00127769 0.00015262)
(0.088719 0.00135659 -0.000282791)
(0.0878217 0.0014944 -0.000957757)
(0.0868846 0.00170862 -0.00212224)
(0.102322 0.00140745 0.000547579)
(0.102358 0.00142404 0.000394953)
(0.102398 0.00146392 0.00019753)
(0.102435 0.00153283 -6.82306e-05)
(0.102471 0.00163967 -0.000419255)
(0.102683 0.00178058 -0.000815364)
(0.106811 0.00134028 0.000699562)
(0.107133 0.00129848 0.00060542)
(0.107464 0.00126651 0.000499787)
(0.107806 0.00124356 0.000377261)
(0.108177 0.00122747 0.000239088)
(0.108651 0.0012222 9.87052e-05)
(0.109305 0.000908011 0.000928105)
(0.109793 0.00084893 0.000879109)
(0.110278 0.00079306 0.000837136)
(0.110769 0.000738187 0.000800257)
(0.111285 0.000683699 0.000766148)
(0.111882 0.000640248 0.000741564)
(0.110455 0.000328278 0.00105792)
(0.111028 0.000301603 0.00103843)
(0.111589 0.000275546 0.00103629)
(0.112148 0.000249881 0.00104924)
(0.112726 0.000224924 0.00107265)
(0.113375 0.00020691 0.00109866)
(0.110457 -0.000331776 0.00104859)
(0.111029 -0.000305816 0.00102425)
(0.11159 -0.000279817 0.00101576)
(0.112149 -0.00025386 0.0010209)
(0.112724 -0.000226774 0.00103518)
(0.113372 -0.000200121 0.00105038)
(0.10881 -0.000985507 0.000972534)
(0.109305 -0.00092799 0.000907995)
(0.109793 -0.000878962 0.000848899)
(0.110278 -0.000836951 0.000793007)
(0.110769 -0.000800033 0.000738103)
(0.111285 -0.000765892 0.000683576)
(0.111882 -0.000741309 0.000640092)
(0.106482 -0.00141689 0.000780376)
(0.106789 -0.00137795 0.000687283)
(0.107099 -0.00135832 0.000588365)
(0.107415 -0.00136046 0.000476704)
(0.107741 -0.00138703 0.000347519)
(0.108089 -0.00143536 0.000203044)
(0.108548 -0.00151965 6.26483e-05)
(0.102261 -0.00143474 0.000675734)
(0.102266 -0.00144687 0.000550502)
(0.10227 -0.00148991 0.000402536)
(0.102263 -0.0015759 0.000212877)
(0.10223 -0.00171647 -4.14945e-05)
(0.10215 -0.00191659 -0.000379771)
(0.102279 -0.00221685 -0.000722592)
(0.091403 -0.00119906 0.000800539)
(0.0907386 -0.00123277 0.000658753)
(0.0900249 -0.00129076 0.000479759)
(0.0892299 -0.0013869 0.000219566)
(0.0882768 -0.00153973 -0.000172709)
(0.0870964 -0.00171797 -0.000808026)
(0.0858284 -0.00246576 -0.00161374)
(0.0944888 0.00128362 0.000189834)
(0.0939306 0.00137811 0.000101814)
(0.0932191 0.0015348 -3.01965e-05)
(0.0922532 0.00178345 -0.000237032)
(0.0909165 0.00211239 -0.000556142)
(0.0895795 0.0029012 -0.000898303)
(0.1047 0.00164018 0.000189634)
(0.104796 0.00170198 0.000112339)
(0.104857 0.0018253 1.08058e-05)
(0.104873 0.00203217 -0.000127163)
(0.10486 0.00232065 -0.000313366)
(0.105159 0.00262343 -0.000544486)
(0.108508 0.00155854 0.000245429)
(0.108905 0.00156383 0.000197604)
(0.109289 0.00160147 0.000142029)
(0.109673 0.00167642 7.48794e-05)
(0.110081 0.00177895 -3.96818e-06)
(0.110609 0.0018853 -8.69188e-05)
(0.110457 0.00104856 0.000331908)
(0.111029 0.00102422 0.000305981)
(0.11159 0.00101574 0.000280021)
(0.112149 0.00102088 0.000254102)
(0.112724 0.00103517 0.000227046)
(0.113372 0.00105039 0.0002004)
(0.111336 0.000373301 0.000376567)
(0.111997 0.000359338 0.000363862)
(0.112644 0.000349872 0.000355732)
(0.11329 0.000344681 0.000351804)
(0.113952 0.000342155 0.000350322)
(0.114661 0.000335869 0.000345144)
(0.111336 -0.000376484 0.000373327)
(0.111997 -0.000363762 0.000359366)
(0.112644 -0.000355613 0.000349901)
(0.11329 -0.000351668 0.000344711)
(0.113952 -0.000350176 0.000342184)
(0.114661 -0.000344998 0.000335898)
(0.109864 -0.00109524 0.000355613)
(0.110455 -0.00105785 0.000328259)
(0.111028 -0.00103834 0.000301572)
(0.111589 -0.00103618 0.0002755)
(0.112148 -0.00104912 0.000249816)
(0.112726 -0.00107252 0.000224841)
(0.113375 -0.00109853 0.00020682)
(0.108087 -0.00158945 0.000299526)
(0.108497 -0.00157537 0.00026223)
(0.10889 -0.00159058 0.000224828)
(0.109269 -0.00164347 0.000184659)
(0.10965 -0.00174026 0.000139286)
(0.110058 -0.00187237 9.10769e-05)
(0.110589 -0.00202023 5.70734e-05)
(0.10456 -0.00162891 0.000284381)
(0.104673 -0.00165811 0.000239146)
(0.104757 -0.0017356 0.000189395)
(0.104798 -0.0018829 0.000130162)
(0.104789 -0.00212696 5.7519e-05)
(0.104743 -0.00247346 -2.7625e-05)
(0.10501 -0.00286243 -7.88608e-05)
(0.094921 -0.00124013 0.000292166)
(0.0944409 -0.00130847 0.000254033)
(0.0938466 -0.00141837 0.000205636)
(0.0930779 -0.0016031 0.000136876)
(0.09201 -0.00189208 4.20062e-05)
(0.0905296 -0.00225187 -0.000104121)
(0.088789 -0.0036161 0.000109616)
(0.094441 0.00130848 -0.000253982)
(0.0938467 0.00141836 -0.000205573)
(0.093078 0.00160309 -0.0001368)
(0.0920102 0.00189205 -4.18855e-05)
(0.0905299 0.00225181 0.000104276)
(0.0887892 0.00361609 -0.000109445)
(0.104673 0.00165809 -0.000239047)
(0.104757 0.00173558 -0.000189271)
(0.104798 0.00188287 -0.000130006)
(0.104789 0.00212691 -5.73237e-05)
(0.104743 0.00247336 2.78766e-05)
(0.10501 0.0028623 7.91763e-05)
(0.108497 0.00157536 -0.000262113)
(0.10889 0.00159056 -0.000224682)
(0.10927 0.00164344 -0.000184478)
(0.10965 0.00174022 -0.000139066)
(0.110058 0.00187231 -9.08128e-05)
(0.110589 0.00202014 -5.67641e-05)
(0.110455 0.00105785 -0.000328143)
(0.111028 0.00103834 -0.000301431)
(0.111589 0.00103617 -0.00027533)
(0.112148 0.00104911 -0.000249615)
(0.112726 0.0010725 -0.00022461)
(0.113375 0.00109851 -0.00020656)
(0.111336 0.000376488 -0.000373217)
(0.111997 0.000363768 -0.000359234)
(0.112644 0.000355622 -0.000349745)
(0.11329 0.000351679 -0.00034453)
(0.113952 0.000350186 -0.00034198)
(0.11466 0.000344999 -0.000335673)
(0.111336 -0.000373292 -0.000376454)
(0.111997 -0.000359325 -0.000363727)
(0.112644 -0.000349854 -0.000355573)
(0.11329 -0.000344657 -0.000351621)
(0.113952 -0.000342126 -0.000350116)
(0.114661 -0.000335837 -0.000344917)
(0.109865 -0.00108929 -0.000357969)
(0.110457 -0.00104856 -0.000331789)
(0.111029 -0.00102422 -0.000305835)
(0.11159 -0.00101573 -0.000279845)
(0.112149 -0.00102086 -0.000253894)
(0.112724 -0.00103515 -0.00022681)
(0.113372 -0.00105037 -0.000200142)
(0.108095 -0.00157852 -0.000288456)
(0.108508 -0.00155855 -0.000245309)
(0.108905 -0.00156384 -0.000197453)
(0.109289 -0.00160149 -0.00014184)
(0.109673 -0.00167644 -7.46485e-05)
(0.110081 -0.00177898 4.24311e-06)
(0.110609 -0.00188533 8.72317e-05)
(0.104579 -0.00161701 -0.000253162)
(0.1047 -0.0016402 -0.00018953)
(0.104796 -0.00170199 -0.000112202)
(0.104857 -0.00182533 -1.06311e-05)
(0.104872 -0.00203222 0.000127382)
(0.10486 -0.00232073 0.000313638)
(0.105159 -0.00262352 0.000544815)
(0.0949481 -0.00122699 -0.000253861)
(0.0944888 -0.0012836 -0.000189767)
(0.0939306 -0.00137809 -0.000101726)
(0.093219 -0.0015348 3.03121e-05)
(0.0922531 -0.00178348 0.000237182)
(0.0909163 -0.00211243 0.000556328)
(0.0895794 -0.00290126 0.000898574)
(0.0907387 0.00123278 -0.000658732)
(0.090025 0.00129077 -0.000479737)
(0.08923 0.0013869 -0.000219512)
(0.088277 0.00153972 0.000172785)
(0.0870967 0.00171795 0.000808125)
(0.0858288 0.00246568 0.00161388)
(0.102267 0.00144685 -0.000550422)
(0.10227 0.00148989 -0.00040244)
(0.102263 0.00157587 -0.000212753)
(0.102231 0.00171642 4.16545e-05)
(0.10215 0.00191649 0.000379984)
(0.102279 0.00221665 0.000722882)
(0.106789 0.00137793 -0.000687182)
(0.107099 0.00135829 -0.00058824)
(0.107415 0.00136042 -0.000476549)
(0.107741 0.00138696 -0.000347328)
(0.108089 0.00143526 -0.000202806)
(0.108548 0.0015195 -6.23532e-05)
(0.109305 0.000927976 -0.000907894)
(0.109793 0.000878944 -0.000848776)
(0.110278 0.000836926 -0.000792859)
(0.110769 0.000799996 -0.000737926)
(0.111285 0.000765839 -0.000683368)
(0.111882 0.000741231 -0.000639854)
(0.110457 0.000331777 -0.00104849)
(0.111029 0.000305818 -0.00102413)
(0.11159 0.000279822 -0.00101562)
(0.112149 0.000253864 -0.00102073)
(0.112724 0.000226776 -0.00103499)
(0.113372 0.000200114 -0.00105018)
(0.110455 -0.000328264 -0.00105782)
(0.111028 -0.000301583 -0.00103831)
(0.111589 -0.000275516 -0.00103614)
(0.112148 -0.000249838 -0.00104907)
(0.112726 -0.000224866 -0.00107245)
(0.113375 -0.000206838 -0.00109844)
(0.10881 -0.000972537 -0.000985511)
(0.109305 -0.000908002 -0.000927998)
(0.109793 -0.000848914 -0.000878974)
(0.110278 -0.000793032 -0.000836969)
(0.110769 -0.000738141 -0.000800055)
(0.111285 -0.000683629 -0.00076591)
(0.111882 -0.000640156 -0.000741302)
(0.106497 -0.00139321 -0.00078872)
(0.106812 -0.00134028 -0.000699456)
(0.107133 -0.00129848 -0.000605281)
(0.107464 -0.00126651 -0.000499607)
(0.107807 -0.00124356 -0.000377035)
(0.108178 -0.00122746 -0.000238805)
(0.108651 -0.00122219 -9.83706e-05)
(0.102295 -0.00141107 -0.00067454)
(0.102322 -0.00140747 -0.00054749)
(0.102358 -0.00142405 -0.000394825)
(0.102398 -0.00146394 -0.000197362)
(0.102435 -0.00153287 6.84464e-05)
(0.102471 -0.00163975 0.000419531)
(0.102683 -0.0017807 0.000815719)
(0.0914566 -0.00118047 -0.000787358)
(0.0908303 -0.00120033 -0.000639827)
(0.0901782 -0.00123162 -0.000439982)
(0.0894863 -0.00127769 -0.000152473)
(0.0887191 -0.00135661 0.000282981)
(0.0878217 -0.00149445 0.000957995)
(0.0868846 -0.00170872 0.00212266)
(0.0818454 0.000943716 -0.000875366)
(0.0809501 0.000968268 -0.000692559)
(0.0801286 0.000991383 -0.000435076)
(0.079396 0.000996499 2.22132e-05)
(0.0787628 0.000987002 0.000829241)
(0.0776254 0.000780846 0.00238138)
(0.096803 0.000987386 -0.000681829)
(0.0966677 0.000973678 -0.000535463)
(0.0965886 0.000957761 -0.000337547)
(0.0965552 0.000925312 -5.16026e-05)
(0.0965234 0.000850487 0.000369255)
(0.0966478 0.000685758 0.000958379)
(0.103108 0.00100253 -0.000962955)
(0.103262 0.000927085 -0.000866435)
(0.10344 0.000841453 -0.000750127)
(0.103629 0.000733671 -0.000599502)
(0.103807 0.000595498 -0.000404573)
(0.104122 0.000504308 -0.000227895)
(0.106812 0.000699398 -0.0013402)
(0.107133 0.000605203 -0.00129838)
(0.107464 0.0004995 -0.00126637)
(0.107807 0.000376886 -0.00124337)
(0.108178 0.00023861 -0.00122721)
(0.108651 9.81358e-05 -0.00122188)
(0.108508 0.000245258 -0.0015585)
(0.108905 0.000197386 -0.00156377)
(0.109289 0.00014175 -0.0016014)
(0.109673 7.45302e-05 -0.00167632)
(0.110081 -4.39234e-06 -0.00177883)
(0.110609 -8.74072e-05 -0.00188514)
(0.108497 -0.000262273 -0.00157535)
(0.10889 -0.000224887 -0.00159055)
(0.109269 -0.000184736 -0.00164344)
(0.10965 -0.000139386 -0.00174022)
(0.110058 -9.11983e-05 -0.00187232)
(0.110589 -5.72045e-05 -0.00202013)
(0.106482 -0.000780402 -0.00141689)
(0.106789 -0.000687321 -0.00137796)
(0.107099 -0.000588418 -0.00135833)
(0.107415 -0.000476778 -0.00136048)
(0.107741 -0.000347621 -0.00138704)
(0.108089 -0.00020317 -0.00143537)
(0.108548 -6.2778e-05 -0.00151964)
(0.102985 -0.00105193 -0.00107733)
(0.103108 -0.000963055 -0.00100258)
(0.103261 -0.000866566 -0.000927154)
(0.10344 -0.000750302 -0.000841552)
(0.103629 -0.000599738 -0.000733819)
(0.103807 -0.000404873 -0.000595693)
(0.104121 -0.000228198 -0.000504486)
(0.0970154 -0.000981437 -0.000825249)
(0.0968385 -0.000946907 -0.000719203)
(0.0967196 -0.000909274 -0.000592587)
(0.0966632 -0.000848884 -0.000420371)
(0.0966587 -0.000743578 -0.000172022)
(0.0966595 -0.00056143 0.000197307)
(0.0967752 -0.000238586 0.000722764)
(0.0828373 -0.000910733 -0.00103181)
(0.0819137 -0.000916064 -0.000893252)
(0.0810632 -0.00091631 -0.000715637)
(0.0803227 -0.000901434 -0.000471822)
(0.0797285 -0.000823962 -2.16033e-05)
(0.0793369 -0.000685087 0.000752022)
(0.07851 -8.20136e-05 0.00256912)
(0.0666865 0.0003976 -0.000474909)
(0.0655946 0.000407049 -0.000366428)
(0.0646577 0.000405354 -0.000198404)
(0.0640417 0.000301389 0.000117081)
(0.064159 1.65538e-05 0.00074509)
(0.0630705 -0.001917 0.00318887)
(0.0877063 0.000352658 -0.00031466)
(0.0872775 0.000302797 -0.000243814)
(0.0869622 0.000236292 -0.000135336)
(0.0867454 8.58972e-05 7.92045e-05)
(0.0864433 -0.000354525 0.000587955)
(0.086529 -0.00161362 0.00199613)
(0.0968386 0.000719135 -0.000946839)
(0.0967198 0.000592508 -0.000909206)
(0.0966635 0.000420256 -0.000848797)
(0.096659 0.000171835 -0.000743442)
(0.09666 -0.000197575 -0.000561255)
(0.0967758 -0.000723081 -0.000238422)
(0.102322 0.000547413 -0.00140742)
(0.102358 0.000394727 -0.00142399)
(0.102398 0.000197223 -0.00146387)
(0.102435 -6.86485e-05 -0.00153276)
(0.102471 -0.000419816 -0.00163958)
(0.102683 -0.000816114 -0.00178046)
(0.1047 0.00018946 -0.00164016)
(0.104797 0.000112109 -0.00170196)
(0.104857 1.05015e-05 -0.00182528)
(0.104873 -0.000127565 -0.00203215)
(0.10486 -0.000313889 -0.00232061)
(0.105159 -0.000545148 -0.00262335)
(0.104673 -0.000239209 -0.00165809)
(0.104757 -0.000189483 -0.00173558)
(0.104798 -0.000130283 -0.00188288)
(0.104789 -5.76859e-05 -0.00212693)
(0.104743 2.74007e-05 -0.0024734)
(0.10501 7.85869e-05 -0.0028623)
(0.102261 -0.000675772 -0.00143474)
(0.102266 -0.000550556 -0.00144687)
(0.10227 -0.000402615 -0.00148991)
(0.102262 -0.000212991 -0.0015759)
(0.10223 4.13324e-05 -0.00171647)
(0.10215 0.000379556 -0.00191658)
(0.102279 0.000722337 -0.00221678)
(0.0969917 -0.000801563 -0.0010073)
(0.0968029 -0.000681927 -0.000987422)
(0.0966675 -0.000535592 -0.00097372)
(0.0965883 -0.000337725 -0.000957818)
(0.0965548 -5.18502e-05 -0.000925396)
(0.0965229 0.000368914 -0.000850604)
(0.0966471 0.000957961 -0.000685867)
(0.0882302 -0.000374665 -0.000398637)
(0.0877062 -0.000314742 -0.000352728)
(0.0872772 -0.000243879 -0.00030285)
(0.0869618 -0.000135433 -0.000236363)
(0.0867449 7.90696e-05 -8.60066e-05)
(0.0864425 0.000587792 0.00035437)
(0.0865279 0.00199592 0.00161334)
(0.0679054 -0.000381206 -0.000575748)
(0.0667142 -0.000380947 -0.000506022)
(0.0656377 -0.000375681 -0.000424371)
(0.0647296 -0.000338873 -0.00030067)
(0.0641717 -0.00015164 -1.42658e-05)
(0.064515 0.00021581 0.000537522)
(0.0630077 0.00167904 0.00197013)
(0.046079 9.32199e-05 -5.26488e-05)
(0.0451524 8.12742e-05 -2.51079e-05)
(0.0443901 6.69084e-05 -1.41062e-06)
(0.0439682 2.26033e-05 0.000109758)
(0.0444616 -0.0001042 0.000266118)
(0.0431085 -0.0021198 0.00268037)
(0.0667142 0.000505993 -0.000380934)
(0.0656378 0.000424328 -0.000375659)
(0.0647298 0.000300599 -0.000338843)
(0.064172 1.41539e-05 -0.0001516)
(0.0645156 -0.000537713 0.000215857)
(0.0630084 -0.00197052 0.0016792)
(0.0819138 0.000893218 -0.000916061)
(0.0810633 0.000715576 -0.000916297)
(0.0803229 0.000471718 -0.000901412)
(0.0797288 2.14406e-05 -0.000823923)
(0.0793373 -0.000752285 -0.000685018)
(0.0785106 -0.00256947 -8.18986e-05)
(0.0908304 0.000639783 -0.00120033)
(0.0901783 0.000439904 -0.00123161)
(0.0894864 0.000152355 -0.00127766)
(0.0887193 -0.000283153 -0.00135657)
(0.087822 -0.000958246 -0.00149437)
(0.086885 -0.00212313 -0.0017086)
(0.0944888 0.00018972 -0.0012836)
(0.0939306 0.000101652 -0.00137809)
(0.0932191 -3.04215e-05 -0.00153479)
(0.0922532 -0.000237342 -0.00178344)
(0.0909165 -0.000556554 -0.00211235)
(0.0895797 -0.000899007 -0.00290127)
(0.094441 -0.000254083 -0.00130848)
(0.0938466 -0.000205713 -0.00141837)
(0.0930779 -0.000136991 -0.00160309)
(0.0920101 -4.21783e-05 -0.00189206)
(0.0905297 0.000103877 -0.00225182)
(0.0887891 -0.000109861 -0.00361606)
(0.091403 -0.000800574 -0.00119907)
(0.0907386 -0.000658806 -0.00123277)
(0.0900248 -0.000479836 -0.00129077)
(0.0892298 -0.0002197 -0.00138689)
(0.0882767 0.000172521 -0.00153971)
(0.0870964 0.000807771 -0.00171795)
(0.0858283 0.00161338 -0.00246571)
(0.0827949 -0.0010198 -0.000927089)
(0.0818453 -0.000875403 -0.000943701)
(0.0809499 -0.00069262 -0.000968255)
(0.0801283 -0.0004352 -0.000991378)
(0.0793956 2.20179e-05 -0.0009965)
(0.0787624 0.000828943 -0.000987013)
(0.0776247 0.0023809 -0.000780896)
(0.0678874 -0.000557174 -0.000393122)
(0.0666864 -0.000474913 -0.000397599)
(0.0655945 -0.000366454 -0.000407048)
(0.0646575 -0.000198459 -0.000405352)
(0.0640413 0.000116995 -0.000301382)
(0.0641585 0.000744983 -1.65393e-05)
(0.0630697 0.00318869 0.00191713)
(0.0471354 -8.07361e-05 -0.000106722)
(0.0460789 -5.26703e-05 -9.32384e-05)
(0.0451523 -2.51125e-05 -8.12886e-05)
(0.0443899 -1.42999e-06 -6.69279e-05)
(0.0439679 0.000109732 -2.26225e-05)
(0.0444611 0.000266093 0.000104168)
(0.0431079 0.00268024 0.00211969)
(0.060097 0.000360172 0.00463861)
(0.045564 0.00015651 0.0015437)
(0.0396819 0.000146368 0.000436907)
(0.0360376 0.000152244 5.79612e-05)
(0.0732816 0.00102439 0.00415164)
(0.0663999 0.000834593 0.00425815)
(0.0609379 0.000468543 0.00272764)
(0.0567284 0.000279447 0.00161381)
(0.0823153 0.00239583 0.0041206)
(0.0799153 0.00191987 0.00434038)
(0.0772417 0.00128088 0.00329689)
(0.0729076 -0.000450747 0.00477171)
(0.065329 -9.18763e-05 0.00456095)
(0.059088 0.000210431 0.00266889)
(0.0542745 0.000235053 0.00107496)
(0.0896605 0.000501814 0.00613656)
(0.0897898 0.000548406 0.00584308)
(0.0884423 0.000530394 0.00419716)
(0.0862349 0.000498265 0.00274656)
(0.0966328 0.00114281 0.00401189)
(0.0981324 0.00110865 0.00454064)
(0.0985317 0.000981948 0.00403357)
(0.0785026 -0.00199795 0.0045893)
(0.0756499 -0.00138502 0.00476703)
(0.0725274 -0.00069051 0.00364357)
(0.0955206 -0.000485566 0.00437531)
(0.0968177 -0.000274622 0.00484687)
(0.0970615 -0.000111287 0.00428092)
(0.105068 0.000227951 0.00335444)
(0.10542 0.000310395 0.00370743)
(0.105766 0.000354338 0.00359138)
(0.0762106 -0.00287249 0.00172688)
(0.0767996 -0.00253184 0.00254551)
(0.0769104 -0.00195625 0.00239187)
(0.0998638 -0.000981831 0.00276375)
(0.0998903 -0.000994184 0.00319941)
(0.100014 -0.000891674 0.00318523)
(0.107376 -0.000198368 0.00258479)
(0.107924 -0.000204112 0.00282993)
(0.108364 -0.00018109 0.00285585)
)
;

boundaryField
{
    inlet
    {
        type            fixedValue;
        value           nonuniform List<vector> 0();
    }
    ami1
    {
        type            cyclicAMI;
        value           nonuniform List<vector> 
100
(
(0.0590735 -0.0027302 -0.0020555)
(0.0691898 -0.00310559 -0.00106926)
(0.0773514 -0.00248571 0.00165061)
(0.0843851 -0.0013701 0.00343364)
(0.0862603 0.000108172 0.00441168)
(0.0872954 0.000951507 0.00369257)
(0.0859919 0.00208222 0.00259658)
(0.0790222 0.00259387 0.000658824)
(0.06983 0.0022026 -0.00137707)
(0.0590748 0.00205604 -0.00273022)
(0.0698287 -0.00137702 -0.00220156)
(0.0823174 -0.00222203 -0.00168605)
(0.0960637 -0.00109621 0.000880965)
(0.10171 -0.000740156 0.00244122)
(0.104701 -5.03878e-05 0.00305111)
(0.104707 0.000588497 0.0028124)
(0.102272 0.000903979 0.00190321)
(0.0960515 0.000860432 0.000328804)
(0.0823189 0.00168678 -0.00222207)
(0.0691915 0.00106935 -0.00310559)
(0.0790215 0.000658531 -0.00259298)
(0.0960507 0.000328766 -0.000859728)
(0.103534 0.000117189 0.000427312)
(0.108594 -3.86472e-06 0.00149867)
(0.110617 5.18407e-05 0.00200344)
(0.110601 0.000122064 0.00186618)
(0.1087 -3.55195e-05 0.00118288)
(0.103535 -0.000426805 0.000116895)
(0.0960647 -0.000880705 -0.00109657)
(0.0773529 -0.00165048 -0.00248626)
(0.0859918 0.00259636 -0.00208126)
(0.102272 0.00190315 -0.000903243)
(0.108699 0.00118303 3.59864e-05)
(0.111979 0.000604183 0.000703057)
(0.113501 0.000193368 0.00108129)
(0.113485 -0.000177445 0.00103286)
(0.111979 -0.000702819 0.000604019)
(0.108594 -0.00149842 -4.2404e-06)
(0.101711 -0.00244109 -0.000740632)
(0.0843858 -0.00343358 -0.00137068)
(0.0872955 0.00369256 -0.000950615)
(0.104707 0.00281238 -0.000587712)
(0.110601 0.00186619 -0.000121564)
(0.113485 0.00103288 0.000177709)
(0.114879 0.000325395 0.000334068)
(0.114879 -0.000333939 0.000325433)
(0.113501 -0.00108119 0.00019329)
(0.110617 -0.00200335 5.15711e-05)
(0.104701 -0.00305098 -5.08986e-05)
(0.0862606 -0.00441162 0.000107668)
(0.0862609 0.00441158 -0.000107447)
(0.104701 0.00305088 5.12409e-05)
(0.110617 0.00200326 -5.12422e-05)
(0.113501 0.00108115 -0.000193017)
(0.114879 0.00033393 -0.000325203)
(0.114879 -0.000325372 -0.00033384)
(0.113485 -0.00103286 -0.000177448)
(0.110601 -0.0018662 0.000121886)
(0.104707 -0.00281241 0.000588065)
(0.0872953 -0.0036926 0.000950908)
(0.0843863 0.00343344 0.00137086)
(0.101711 0.00244082 0.000740974)
(0.108594 0.00149821 4.57231e-06)
(0.111979 0.000702724 -0.000603762)
(0.113485 0.000177424 -0.00103265)
(0.113501 -0.0001933 -0.00108107)
(0.111979 -0.000604078 -0.000702785)
(0.1087 -0.00118301 -3.56385e-05)
(0.102272 -0.00190333 0.000903618)
(0.0859917 -0.00259651 0.00208168)
(0.0773533 0.00165035 0.00248641)
(0.096065 0.000880481 0.00109685)
(0.103535 0.000426631 -0.000116656)
(0.1087 3.53811e-05 -0.00118265)
(0.110601 -0.000122076 -0.00186599)
(0.110617 -5.17041e-05 -0.00200323)
(0.108594 4.12105e-06 -0.00149838)
(0.103534 -0.000116957 -0.000426799)
(0.0960511 -0.000328792 0.00086021)
(0.0790218 -0.00065864 0.00259338)
(0.0691918 -0.00106941 0.00310576)
(0.0823192 -0.00168692 0.00222229)
(0.0960517 -0.000860611 -0.000328568)
(0.102272 -0.000904096 -0.00190301)
(0.104707 -0.000588436 -0.00281224)
(0.104701 5.0609e-05 -0.00305086)
(0.101711 0.000740374 -0.00244098)
(0.0960643 0.00109639 -0.0008806)
(0.0823179 0.00222202 0.00168663)
(0.0698293 0.00137716 0.00220216)
(0.0590752 -0.00205611 0.00273039)
(0.0698303 -0.0022027 0.0013773)
(0.0790225 -0.0025939 -0.000658516)
(0.0859922 -0.00208219 -0.00259636)
(0.0872956 -0.000951331 -0.00369258)
(0.0862607 -0.000107965 -0.00441154)
(0.0843858 0.00137032 -0.00343343)
(0.0773525 0.00248586 -0.00165033)
(0.0691908 0.00310538 0.0010695)
(0.059074 0.00273014 0.0020559)
)
;
    }
    walls
    {
        type            noSlip;
    }
    ami2
    {
        type            cyclicAMI;
        value           nonuniform List<vector> 
12
(
(0.0745404 0.000338267 0.00402106)
(0.0811597 0.00106829 0.0034219)
(0.084234 0.00223365 0.00287167)
(0.0799792 -0.000674422 0.00385699)
(0.0893421 0.000423809 0.00476815)
(0.0954524 0.00104144 0.00333084)
(0.0804843 -0.00196283 0.00318243)
(0.0944614 -0.000549943 0.00362546)
(0.105011 0.000178699 0.0030713)
(0.0757387 -0.00267861 0.000950579)
(0.0999913 -0.000904019 0.00236703)
(0.106919 -0.00018042 0.00246299)
)
;
    }
    outlet
    {
        type            zeroGradient;
    }
    procBoundary2to0
    {
        type            processor;
        value           nonuniform List<vector> 
28
(
(0.0339204 0.000136236 4.49116e-05)
(0.0540392 0.000210691 0.000975355)
(0.0744607 0.000747427 0.00230647)
(0.0800985 0.0027126 0.00155397)
(0.0806967 0.00240178 0.00223008)
(0.0744607 0.000747427 0.00230647)
(0.0808718 0.00190186 0.00203545)
(0.0512921 0.000191894 0.000338835)
(0.0693323 -0.000252516 0.00249618)
(0.0841223 0.000448945 0.00188037)
(0.0981906 0.000831281 0.00327482)
(0.0965104 -4.74748e-06 0.00345153)
(0.10095 0.00122043 0.00248271)