/*--------------------------------*- C++ -*----------------------------------*\
| =========                 |                                                 |
| \\      /  F ield         | OpenFOAM: The Open Source CFD Toolbox           |
|  \\    /   O peration     | Version:  2212                                  |
|   \\  /    A nd           | Website:  www.openfoam.com                      |
|    \\/     M anipulation  |                                                 |
\*---------------------------------------------------------------------------*/
FoamFile
{
    version     2.0;
    format      ascii;
    arch        "LSB;label=32;scalar=64";
    class       volVectorField;
    location    "1.5";
    object      U;
}
// * * * * * * * * * * * * * * * * * * * * * * * * * * * * * * * * * * * * * //

dimensions      [0 1 -1 0 0 0 0];

internalField   nonuniform List<vector> 
690
(
(0.0909487 -0.000810521 0.00166472)
(0.0900425 -0.000980356 0.00195126)
(0.0891084 -0.000989836 0.00208574)
(0.103959 -0.000491071 0.0017458)
(0.104195 -0.000591835 0.00199798)
(0.104353 -0.000641937 0.00212925)
(0.109404 -0.00034809 0.00151372)
(0.10978 -0.000393447 0.00167365)
(0.11014 -0.000415274 0.00179191)
(0.0918263 -0.000304739 0.00156032)
(0.0911104 -0.000534313 0.0017297)
(0.0903948 -0.000648248 0.00180126)
(0.0895888 -0.000674321 0.00182969)
(0.0887195 -0.000643874 0.00183693)
(0.0878196 -0.000586488 0.00182857)
(0.0869017 -0.000517551 0.00181083)
(0.0859662 -0.000448902 0.00179251)
(0.0850131 -0.000380323 0.00177458)
(0.084047 -0.000313137 0.00175383)
(0.0830773 -0.000249868 0.00172811)
(0.0821094 -0.000192392 0.00169646)
(0.104906 -0.000156358 0.00167182)
(0.10518 -0.00028404 0.00183306)
(0.105378 -0.000390907 0.00189846)
(0.105545 -0.00046545 0.00191905)
(0.105669 -0.000506989 0.00192803)
(0.105747 -0.000513854 0.0019383)
(0.105784 -0.000490493 0.00194671)
(0.105782 -0.000456797 0.00194094)
(0.105752 -0.000414427 0.0019178)
(0.105704 -0.000359814 0.00188759)
(0.105641 -0.000300182 0.00185675)
(0.105567 -0.000239823 0.0018251)
(0.110205 -2.9558e-05 0.00145432)
(0.110624 -8.51926e-05 0.00156029)
(0.111016 -0.00013325 0.0016342)
(0.111436 -0.000167846 0.00167867)
(0.111854 -0.000190123 0.00170633)
(0.112253 -0.000200392 0.00172365)
(0.112633 -0.000199591 0.00173227)
(0.112995 -0.000189662 0.00173116)
(0.113339 -0.000172613 0.00172089)
(0.113666 -0.00014978 0.00170362)
(0.113979 -0.000122468 0.00168209)
(0.114279 -9.28765e-05 0.00165832)
(0.0884414 0.000103226 0.00135387)
(0.0878474 -0.000140672 0.0014294)
(0.0872901 -0.000298273 0.0014279)
(0.0867129 -0.000368595 0.00140791)
(0.0861127 -0.000383639 0.00140066)
(0.085499 -0.000358201 0.0014065)
(0.0848707 -0.00030852 0.00141951)
(0.0842193 -0.000251567 0.00143549)
(0.0835319 -0.000198542 0.00145257)
(0.0828162 -0.000151723 0.00146668)
(0.0820736 -0.000109803 0.00147495)
(0.0813049 -7.0732e-05 0.00147659)
(0.103196 0.000180537 0.00139087)
(0.103448 6.75504e-05 0.00147405)
(0.10365 -5.57824e-05 0.00149558)
(0.103846 -0.00015921 0.00148639)
(0.104022 -0.000233672 0.00147957)
(0.104173 -0.000277921 0.00148371)
(0.104304 -0.000296732 0.00149604)
(0.104417 -0.000299591 0.00150464)
(0.104518 -0.000289573 0.00151004)
(0.104603 -0.000265871 0.00152018)
(0.104672 -0.000232486 0.0015316)
(0.104723 -0.000193191 0.00154166)
(0.109064 0.000336912 0.00122864)
(0.109463 0.000310678 0.00127356)
(0.10985 0.00027326 0.00130053)
(0.110272 0.000233094 0.00131016)
(0.110702 0.000194009 0.00131408)
(0.11112 0.000158046 0.00131773)
(0.111527 0.000127183 0.00132255)
(0.111922 0.000104004 0.00132827)
(0.112307 9.00268e-05 0.00133453)
(0.11268 8.46192e-05 0.00134162)
(0.113043 8.61013e-05 0.00134929)
(0.113396 9.25791e-05 0.00135674)
(0.112338 0.000497896 0.000880964)
(0.112817 0.000517055 0.000897526)
(0.113279 0.000523093 0.000907874)
(0.113787 0.000518885 0.000908734)
(0.114311 0.00050781 0.000903806)
(0.114833 0.000491785 0.000896056)
(0.115347 0.000472366 0.000887116)
(0.115854 0.000451515 0.000877933)
(0.116351 0.000431081 0.000869496)
(0.116838 0.000412292 0.000862885)
(0.117315 0.000395796 0.000858371)
(0.117782 0.000381669 0.000855595)
(0.114116 0.00056337 0.000447363)
(0.114652 0.000594554 0.000457902)
(0.115163 0.000615323 0.000463975)
(0.115717 0.000625946 0.000464332)
(0.116288 0.000629552 0.000460997)
(0.116858 0.000627444 0.000454967)
(0.117422 0.000620443 0.000447045)
(0.11798 0.000609545 0.00043817)
(0.11853 0.000595288 0.00042872)
(0.11907 0.000579078 0.000419683)
(0.119598 0.000562436 0.000411964)
(0.120116 0.000545961 0.00040561)
(0.11467 0.000539767 -4.42829e-05)
(0.115231 0.00055846 -4.68449e-05)
(0.11576 0.000573673 -4.76787e-05)
(0.116331 0.000579944 -4.7772e-05)
(0.116921 0.000580696 -4.75574e-05)
(0.117508 0.000580096 -4.73848e-05)
(0.118089 0.00057778 -4.72126e-05)
(0.118664 0.000572244 -4.6864e-05)
(0.119232 0.000564294 -4.6335e-05)
(0.11979 0.000554858 -4.56295e-05)
(0.120337 0.000544725 -4.48004e-05)
(0.120872 0.000534369 -4.38905e-05)
(0.114115 0.000447766 -0.000563595)
(0.114652 0.000458375 -0.000594618)
(0.115162 0.000464539 -0.000615203)
(0.115717 0.000464978 -0.000625734)
(0.116288 0.000461665 -0.000629334)
(0.116858 0.000455593 -0.00062726)
(0.117422 0.000447604 -0.000620357)
(0.11798 0.000438702 -0.000609644)
(0.11853 0.0004292 -0.000595535)
(0.11907 0.000420045 -0.000579371)
(0.119599 0.000412197 -0.000562751)
(0.120117 0.000405689 -0.000546352)
(0.112432 0.000357474 -0.00108417)
(0.112905 0.000368201 -0.0011624)
(0.113358 0.000371763 -0.00122033)
(0.113854 0.000367354 -0.00125485)
(0.114364 0.000357139 -0.00127149)
(0.114869 0.000342535 -0.00127358)
(0.115364 0.000325196 -0.00126325)
(0.115849 0.000307046 -0.00124232)
(0.116322 0.000289739 -0.00121319)
(0.116783 0.000274404 -0.00117898)
(0.117232 0.000261411 -0.00114236)
(0.117673 0.000250865 -0.00110526)
(0.109402 0.000347913 -0.00151463)
(0.109777 0.000393314 -0.00167435)
(0.110135 0.000416042 -0.00179275)
(0.110519 0.000415541 -0.00186771)
(0.110892 0.000395549 -0.0019089)
(0.111236 0.000361349 -0.00192272)
(0.111553 0.00032169 -0.00191612)
(0.11185 0.000278885 -0.00188955)
(0.112128 0.000236874 -0.00184826)
(0.112391 0.000197938 -0.0017977)
(0.112645 0.000162498 -0.00174278)
(0.103958 0.00049045 -0.0017461)
(0.104193 0.000590937 -0.00199764)
(0.104351 0.000641398 -0.00212677)
(0.104441 0.000646719 -0.00218037)
(0.104446 0.000613763 -0.00219876)
(0.104378 0.000553703 -0.00219305)
(0.104253 0.000475185 -0.00217218)
(0.104086 0.000386835 -0.00212334)
(0.103899 0.000301182 -0.00205192)
(0.103703 0.000223144 -0.00197904)
(0.103508 0.000153979 -0.00190671)
(0.0909488 0.000810461 -0.00166439)
(0.0900421 0.000980074 -0.00195114)
(0.0891083 0.00098807 -0.00208481)
(0.0879887 0.000913953 -0.00212341)
(0.0867594 0.000820768 -0.0021139)
(0.0854897 0.000719731 -0.00208035)
(0.0842058 0.000609751 -0.00203173)
(0.0829261 0.00050078 -0.00197529)
(0.081662 0.000399106 -0.00191243)
(0.0804352 0.000308028 -0.001844)
(0.0792572 0.000227006 -0.0017715)
(0.0805792 0.000578722 0.000948351)
(0.0801872 0.000372322 0.00092597)
(0.0798712 0.000132224 0.000895632)
(0.0795032 -2.39873e-05 0.000876315)
(0.0791094 -8.56494e-05 0.000888528)
(0.0786982 -9.42514e-05 0.000926908)
(0.078249 -7.942e-05 0.000977149)
(0.0777587 -5.78851e-05 0.00102755)
(0.0772261 -3.87196e-05 0.00107194)
(0.0766522 -2.25195e-05 0.00110748)
(0.0760389 -8.64989e-06 0.00113364)
(0.0753911 7.79835e-06 0.001154)
(0.0987942 0.000510261 0.000876972)
(0.0989579 0.000486326 0.000902098)
(0.0991419 0.000382264 0.000904731)
(0.099328 0.000264906 0.000903389)
(0.099503 0.000171282 0.000918395)
(0.0996686 9.40375e-05 0.000934725)
(0.0998366 3.22564e-05 0.000951491)
(0.100004 -8.54028e-06 0.000978523)
(0.100162 -3.1018e-05 0.00101182)
(0.100308 -3.97091e-05 0.0010465)
(0.100439 -3.8698e-05 0.00107974)
(0.100547 -3.25467e-05 0.00110931)
(0.106034 0.00073477 0.000887707)
(0.106348 0.000784914 0.000871217)
(0.106683 0.000797697 0.000848745)
(0.107066 0.000774808 0.000826882)
(0.107458 0.000728666 0.000812729)
(0.107839 0.000670332 0.000807219)
(0.108213 0.000609153 0.000809988)
(0.108582 0.000552311 0.00082174)
(0.108947 0.000503751 0.000841143)
(0.109307 0.000464122 0.000865366)
(0.109664 0.000432979 0.000892271)
(0.110015 0.000407736 0.000919156)
(0.11018 0.000978277 0.000666741)
(0.110582 0.00106002 0.000656255)
(0.110984 0.00111493 0.000640833)
(0.111437 0.00113861 0.000619953)
(0.111905 0.00113701 0.000596293)
(0.112365 0.00111544 0.000572088)
(0.112816 0.00107871 0.000549586)
(0.113256 0.00103305 0.000531773)
(0.113688 0.000983673 0.000520168)
(0.114111 0.000934224 0.00051482)
(0.114528 0.000887098 0.000514937)
(0.114939 0.000842989 0.000518956)
(0.112432 0.00108399 0.000357136)
(0.112905 0.00116263 0.000367955)
(0.113358 0.00122082 0.000371537)
(0.113854 0.0012554 0.000367089)
(0.114364 0.00127195 0.000356816)
(0.114868 0.00127388 0.000342165)
(0.115363 0.00126333 0.000324815)
(0.115847 0.0012422 0.000306695)
(0.11632 0.00121294 0.00028945)
(0.116781 0.00117866 0.000274203)
(0.11723 0.00114211 0.0002614)
(0.11767 0.0011049 0.000250959)
(0.113103 0.0010394 -4.4257e-05)
(0.113605 0.00109094 -3.39271e-05)
(0.114082 0.0011293 -2.25957e-05)
(0.1146 0.00115124 -1.32862e-05)
(0.115133 0.00116243 -6.27879e-06)
(0.115661 0.00116622 -1.70947e-06)
(0.116181 0.0011638 4.98763e-07)
(0.116692 0.00115576 4.85811e-07)
(0.117193 0.00114285 -1.48254e-06)
(0.117681 0.00112655 -5.21964e-06)
(0.118157 0.00110836 -1.04632e-05)
(0.118622 0.00108919 -1.66949e-05)
(0.112337 0.000881336 -0.000497911)
(0.112817 0.000898079 -0.000516917)
(0.113279 0.00090866 -0.000522844)
(0.113786 0.000909683 -0.000518599)
(0.114311 0.000904796 -0.000507574)
(0.114832 0.000896981 -0.000491666)
(0.115346 0.000887925 -0.000472382)
(0.115853 0.000878632 -0.000451647)
(0.11635 0.000870104 -0.000431289)
(0.116837 0.00086345 -0.000412551)
(0.117314 0.000858884 -0.00039604)
(0.117781 0.00085602 -0.000381999)
(0.11018 0.000667246 -0.000978198)
(0.110582 0.000656949 -0.00105962)
(0.110984 0.000641742 -0.00111445)
(0.111436 0.000620891 -0.00113816)
(0.111904 0.000597129 -0.00113668)
(0.112365 0.000572756 -0.00111531)
(0.112816 0.000550072 -0.00107877)
(0.113256 0.000532102 -0.00103324)
(0.113688 0.000520395 -0.000983923)
(0.114112 0.00051504 -0.000934529)
(0.114529 0.000514994 -0.000887174)
(0.11494 0.000519038 -0.000843218)
(0.106458 0.000532931 -0.00138557)
(0.10674 0.000533957 -0.00158373)
(0.107043 0.000505864 -0.00172515)
(0.107373 0.000458 -0.0017974)
(0.107679 0.000399748 -0.00181608)
(0.107951 0.000338981 -0.00179328)
(0.1082 0.000283718 -0.00174009)
(0.108437 0.000241195 -0.00166856)
(0.108668 0.000209937 -0.00158955)
(0.108896 0.000191298 -0.00150959)
(0.109127 0.000182277 -0.00143288)
(0.100014 0.000638241 -0.00162152)
(0.100183 0.000700175 -0.002005)
(0.100271 0.000662254 -0.00220207)
(0.100217 0.000560286 -0.00223687)
(0.100037 0.000436717 -0.00220693)
(0.0997744 0.000308857 -0.00212894)
(0.0994801 0.000191042 -0.00201266)
(0.0991857 9.75576e-05 -0.00189002)
(0.0989074 3.05286e-05 -0.00176549)
(0.0986521 -1.7833e-05 -0.00164818)
(0.0984215 -4.2358e-05 -0.0015401)
(0.0855027 0.00113681 -0.00168613)
(0.0842635 0.00119481 -0.00216819)
(0.0828718 0.00107709 -0.00227308)
(0.0812355 0.000902667 -0.00224594)
(0.0795124 0.000721999 -0.00217304)
(0.0778201 0.000551636 -0.00207192)
(0.0762042 0.000398929 -0.00195712)
(0.0746847 0.000287722 -0.00183761)
(0.0732807 0.000209439 -0.00171624)
(0.0719962 0.00015247 -0.00159873)
(0.070825 0.000116113 -0.00148591)
(0.0687189 0.00101768 0.00027069)
(0.0683893 0.000934569 0.000249765)
(0.0681465 0.00059991 0.000232748)
(0.0677683 0.000374236 0.000308986)
(0.0673484 0.000295221 0.000426866)
(0.0669381 0.000266304 0.000534349)
(0.0665162 0.000251118 0.000619743)
(0.066063 0.000247141 0.000688707)
(0.065579 0.000245624 0.000740454)
(0.0650717 0.00023794 0.000774214)
(0.0645357 0.000225468 0.000793531)
(0.0639991 0.000220255 0.000810399)
(0.0913301 0.00067997 0.00026615)
(0.0914797 0.000880276 0.000288285)
(0.0916362 0.000860441 0.000271834)
(0.0917088 0.000736511 0.000262956)
(0.0917614 0.000614058 0.000287924)
(0.0918307 0.000519605 0.000336464)
(0.0919073 0.0004483 0.000392912)
(0.0919842 0.000396401 0.000450357)
(0.0920609 0.000357561 0.000504408)
(0.0921258 0.000325882 0.000550491)
(0.0921801 0.000306539 0.00059624)
(0.0922091 0.000282273 0.000624233)
(0.100915 0.00105434 0.000599807)
(0.101106 0.00127512 0.000558063)
(0.101359 0.0013849 0.000475099)
(0.101612 0.00139388 0.000396754)
(0.101845 0.00134489 0.000341952)
(0.102058 0.0012671 0.000314877)
(0.102263 0.00117755 0.000311839)
(0.102468 0.00108901 0.000326429)
(0.102679 0.0010083 0.000351308)
(0.102896 0.000938632 0.000383301)
(0.103122 0.000880788 0.000419922)
(0.103348 0.00082931 0.000455529)
(0.106458 0.00138559 0.000532427)
(0.106739 0.00158449 0.000533686)
(0.107043 0.00172617 0.000505715)
(0.107371 0.00179817 0.000457814)
(0.107677 0.00181632 0.000399277)
(0.107948 0.00179289 0.000338258)
(0.108197 0.00173922 0.000282983)
(0.108434 0.00166746 0.000240538)
(0.108664 0.00158844 0.000209453)
(0.108893 0.00150844 0.000190783)
(0.109124 0.00143289 0.000182573)
(0.10936 0.00136121 0.000180636)
(0.109402 0.00151453 0.000347835)
(0.109777 0.00167493 0.000393677)
(0.110135 0.0017935 0.000416506)
(0.110518 0.00186828 0.000415834)
(0.11089 0.00190916 0.00039553)
(0.111233 0.00192259 0.000360981)
(0.11155 0.0019156 0.000321105)
(0.111846 0.00188871 0.000278217)
(0.112124 0.00184724 0.000236252)
(0.112387 0.00179666 0.000197435)
(0.11264 0.00174231 0.000162464)
(0.112889 0.00168624 0.000130835)
(0.110204 0.00145441 2.96741e-05)
(0.110622 0.00156063 8.5734e-05)
(0.111014 0.00163482 0.000134092)
(0.111433 0.00167943 0.00016872)
(0.111851 0.00170705 0.000190672)
(0.112249 0.00172428 0.000200445)
(0.112629 0.00173276 0.00019921)
(0.112991 0.00173161 0.000188997)
(0.113335 0.00172144 0.000171747)
(0.113661 0.00170433 0.000148792)
(0.113973 0.00168291 0.000121437)
(0.114274 0.00165914 9.18214e-05)
(0.109063 0.00122857 -0.000336968)
(0.109462 0.00127359 -0.000310713)
(0.109849 0.00130091 -0.000273347)
(0.110271 0.00131077 -0.00023315)
(0.110701 0.00131477 -0.000194023)
(0.111119 0.00131835 -0.000158037)
(0.111525 0.00132312 -0.000127198)
(0.111919 0.00132886 -0.000104077)
(0.112304 0.00133519 -9.01606e-05)
(0.112678 0.00134237 -8.48572e-05)
(0.11304 0.00135011 -8.63256e-05)
(0.113393 0.00135753 -9.2994e-05)
(0.106033 0.000888285 -0.000735135)
(0.106347 0.000872312 -0.000785438)
(0.106681 0.000849959 -0.00079816)
(0.107064 0.000827834 -0.000775048)
(0.107456 0.000813302 -0.000728751)
(0.107837 0.00080745 -0.000670325)
(0.108211 0.000810012 -0.000609094)
(0.10858 0.0008217 -0.000552212)
(0.108944 0.000841149 -0.000503633)
(0.109305 0.000865627 -0.000464213)
(0.109662 0.000892431 -0.000432727)
(0.110013 0.000919712 -0.000408117)
(0.100914 0.000600356 -0.00105459)
(0.101105 0.000559091 -0.00127549)
(0.101359 0.000476383 -0.00138542)
(0.101611 0.000397877 -0.00139426)
(0.101844 0.000342875 -0.00134534)
(0.102057 0.000315365 -0.00126746)
(0.102262 0.000311862 -0.00117773)
(0.102467 0.000326204 -0.00108902)
(0.102678 0.000350995 -0.00100813)
(0.102896 0.000383563 -0.000939019)
(0.10312 0.000419167 -0.000879797)
(0.0922519 0.000665021 -0.00132929)
(0.0925052 0.000714212 -0.00187386)
(0.0925031 0.000520238 -0.00201522)
(0.0922437 0.000283048 -0.00190516)
(0.0918739 0.000103146 -0.00172006)
(0.0915094 -9.159e-06 -0.00151269)
(0.0911793 -6.62785e-05 -0.0013223)
(0.0908853 -7.7776e-05 -0.00115775)
(0.0906367 -6.53182e-05 -0.00102641)
(0.0904249 -4.17041e-05 -0.000926184)
(0.0902383 -1.29814e-05 -0.000844678)
(0.0747675 0.00123046 -0.0016979)
(0.0728185 0.00120556 -0.00229164)
(0.0706869 0.000955733 -0.00221744)
(0.0684448 0.000650487 -0.00204936)
(0.0663856 0.000447758 -0.00185041)
(0.0646197 0.000319202 -0.00164092)
(0.0631451 0.000233781 -0.00143918)
(0.0619062 0.000191708 -0.00126121)
(0.0608436 0.000178356 -0.00110489)
(0.0599079 0.000171713 -0.000977385)
(0.0590685 0.000168654 -0.00087846)
(0.0531712 0.00108746 -3.77241e-05)
(0.0521233 0.000976323 -8.479e-05)
(0.051512 0.000460603 -0.000305656)
(0.0508249 0.000155816 -0.000263852)
(0.0502782 0.000123804 -0.000128546)
(0.0498163 0.000109079 2.31668e-08)
(0.0493442 9.76451e-05 8.65949e-05)
(0.048845 9.97173e-05 0.000146463)
(0.0483097 0.000107449 0.000186476)
(0.047786 0.000112106 0.000210194)
(0.0472588 0.000115739 0.000225541)
(0.0467541 0.000118709 0.000234554)
(0.0793525 0.000871253 0.000120532)
(0.0794057 0.00133874 0.00019707)
(0.0791424 0.00115942 -6.18013e-05)
(0.078607 0.000876685 -0.000214941)
(0.0780817 0.000667363 -0.000221287)
(0.0776609 0.000503727 -0.000198486)
(0.0773138 0.000380765 -0.000157922)
(0.076998 0.000280839 -0.000115135)
(0.0767038 0.000221079 -6.91465e-05)
(0.0764031 0.00019428 -2.1238e-05)
(0.0760805 0.000179947 2.04643e-05)
(0.075755 0.000162636 4.68648e-05)
(0.0922539 0.00132999 0.000665456)
(0.0925074 0.00187634 0.000715984)
(0.0925038 0.0020184 0.000522193)
(0.0922428 0.00190686 0.000284042)
(0.0918727 0.00171949 0.00010271)
(0.0915088 0.00151063 -1.03241e-05)
(0.0911795 0.00131985 -6.76366e-05)
(0.0908861 0.00115566 -7.87762e-05)
(0.0906381 0.0010251 -6.61175e-05)
(0.0904265 0.000924032 -4.27384e-05)
(0.0902416 0.000847006 -1.21531e-05)
(0.0900741 0.000781809 1.72411e-05)
(0.100014 0.00162196 0.000638047)
(0.100182 0.0020066 0.000700818)
(0.100267 0.00220357 0.00066317)
(0.100212 0.00223684 0.000560944)
(0.100031 0.00220643 0.000436776)
(0.099768 0.00212736 0.000308145)
(0.0994742 0.0020104 0.000190041)
(0.0991805 0.00188785 9.67335e-05)
(0.0989029 0.00176347 2.9909e-05)
(0.0986481 0.00164605 -1.8456e-05)
(0.0984188 0.00154031 -4.19774e-05)
(0.0982177 0.00144337 -5.66509e-05)
(0.103958 0.00174595 0.000490221)
(0.104192 0.00199786 0.000591197)
(0.104349 0.00212663 0.00064186)
(0.104438 0.00217977 0.000646971)
(0.104443 0.0021981 0.000613482)
(0.104373 0.00219243 0.000552978)
(0.104248 0.00217138 0.000474196)
(0.104081 0.00212195 0.00038583)
(0.103894 0.00205051 0.000300344)
(0.103699 0.00197774 0.000222535)
(0.103504 0.00190606 0.000153926)
(0.103316 0.00183265 9.35447e-05)
(0.104904 0.00167102 0.000155705)
(0.105179 0.00183195 0.000283599)
(0.105376 0.001897 0.000390843)
(0.105543 0.00191725 0.000465691)
(0.105667 0.00192686 0.000507159)
(0.105744 0.00193794 0.000513743)
(0.10578 0.00194684 0.000490296)
(0.105778 0.00194159 0.000456531)
(0.105748 0.00191889 0.00041411)
(0.1057 0.00188892 0.000359547)
(0.105637 0.00185832 0.000299899)
(0.105562 0.00182666 0.000239444)
(0.103195 0.00138982 -0.000180874)
(0.103446 0.00147275 -6.79263e-05)
(0.103649 0.00149453 5.53497e-05)
(0.103845 0.00148566 0.000158831)
(0.104021 0.00147917 0.000233413)
(0.104172 0.00148368 0.000277755)
(0.104302 0.00149646 0.000296603)
(0.104415 0.00150543 0.00029948)
(0.104516 0.00151109 0.00028946)
(0.104601 0.00152141 0.000265642)
(0.10467 0.00153295 0.000232315)
(0.104721 0.00154296 0.00019264)
(0.098793 0.000876785 -0.000510857)
(0.0989555 0.000902333 -0.000487412)
(0.099139 0.000904661 -0.0003831)
(0.0993247 0.000902991 -0.000265329)
(0.0994997 0.000917872 -0.000171371)
(0.0996656 0.000934337 -9.3968e-05)
(0.0998338 0.00095142 -3.21582e-05)
(0.100001 0.000978803 8.61174e-06)
(0.10016 0.00101237 3.10399e-05)
(0.100306 0.00104734 3.94118e-05)
(0.100436 0.00108043 3.86586e-05)
(0.100547 0.00111022 3.21179e-05)
(0.0913288 0.000266797 -0.000681242)
(0.0914766 0.000290356 -0.00088303)
(0.0916321 0.000273964 -0.000863342)
(0.0917038 0.000264245 -0.000738634)
(0.0917563 0.000287952 -0.000614821)
(0.091826 0.000335703 -0.00051927)
(0.0919032 0.00039198 -0.000447407)
(0.0919807 0.000449683 -0.000395439)
(0.0920579 0.000503637 -0.00035633)
(0.092124 0.00055185 -0.000326524)
(0.0921751 0.000592902 -0.000302998)
(0.0793503 0.000120703 -0.000872325)
(0.0794011 0.00019707 -0.00133997)
(0.0791356 -6.21371e-05 -0.00115976)
(0.0785986 -0.000215675 -0.000876755)
(0.0780733 -0.000221788 -0.000667575)
(0.0776529 -0.000198773 -0.0005039)
(0.0773064 -0.000158005 -0.000380594)
(0.0769912 -0.000115211 -0.000280186)
(0.0766985 -6.97248e-05 -0.00021962)
(0.0763965 -1.92796e-05 -0.000195998)
(0.0760781 1.89517e-05 -0.000177106)
(0.0574957 0.00050059 -0.00119496)
(0.0550815 0.000686933 -0.00172267)
(0.0528356 0.000464101 -0.00155952)
(0.0507605 0.000237653 -0.00116998)
(0.0491894 8.0813e-05 -0.000772347)
(0.0480932 4.1287e-05 -0.000558706)
(0.0472304 4.4279e-05 -0.000445866)
(0.0464807 5.82399e-05 -0.000369782)
(0.045786 6.92422e-05 -0.000304808)
(0.0451642 6.91519e-05 -0.000249552)
(0.0445984 6.39238e-05 -0.000204816)
(0.0375798 0.000906666 0.000176736)
(0.0351161 0.000620492 -0.000125317)
(0.0336413 0.000257726 -0.000232878)
(0.0324642 0.000146517 -0.000170872)
(0.0316662 0.000116194 -9.53378e-05)
(0.0311182 8.41107e-05 -3.8884e-05)
(0.0306226 5.94576e-05 -2.81724e-06)
(0.030154 4.53181e-05 1.62871e-05)
(0.0296977 3.96988e-05 2.61237e-05)
(0.0292738 3.76381e-05 3.10973e-05)
(0.0288658 3.72022e-05 3.27615e-05)
(0.0284856 3.69824e-05 3.15327e-05)
(0.0574984 0.00119537 0.000501585)
(0.0550819 0.00172375 0.000689359)
(0.0528347 0.00156013 0.000466941)
(0.0507593 0.00116973 0.000239422)
(0.0491893 0.000771508 8.11976e-05)
(0.0480946 0.000557656 4.06601e-05)
(0.0472334 0.000444976 4.31345e-05)
(0.0464855 0.000369124 5.69643e-05)
(0.0457913 0.000304645 6.81597e-05)
(0.0451741 0.000249129 6.85479e-05)
(0.0445982 0.000205297 6.3565e-05)
(0.0440726 0.000172303 5.96325e-05)
(0.0747715 0.00169756 0.00123086)
(0.0728253 0.00229024 0.00120613)
(0.070697 0.00221521 0.000955709)
(0.0684592 0.00204695 0.000650278)
(0.0664016 0.00184874 0.000447716)
(0.0646362 0.00163994 0.000319049)
(0.0631615 0.00143874 0.00023332)
(0.0619222 0.001261 0.000191076)
(0.0608587 0.00110469 0.000177559)
(0.0599238 0.000978085 0.000171923)
(0.0590792 0.000878128 0.000167771)
(0.0583111 0.000807493 0.000168882)
(0.0855062 0.00168471 0.00113528)
(0.0842699 0.00216411 0.00119278)
(0.082881 0.00226858 0.00107465)
(0.0812479 0.00224166 0.000900193)
(0.0795278 0.00216989 0.000720296)
(0.0778375 0.00207021 0.000551173)
(0.0762227 0.00195648 0.000399303)
(0.074704 0.00183754 0.000288507)
(0.0733002 0.00171633 0.000210241)
(0.0720163 0.00159912 0.000153423)
(0.0708434 0.00148578 0.000116247)
(0.0697721 0.00138295 9.55066e-05)
(0.090951 0.00166307 0.000808227)
(0.0900458 0.0019484 0.00097699)
(0.0891131 0.00208119 0.000984729)
(0.0879948 0.00211973 0.000910773)
(0.0867667 0.00211077 0.000818212)
(0.0854982 0.0020781 0.00071817)
(0.0842157 0.00203024 0.000609119)
(0.082937 0.00197435 0.000500894)
(0.0816737 0.00191183 0.000399697)
(0.0804479 0.00184364 0.000308946)
(0.0792701 0.00177123 0.000227705)
(0.0781459 0.00169689 0.000160329)
(0.0918264 0.00155933 0.000302714)
(0.0911101 0.00172837 0.000531702)
(0.0903941 0.00179993 0.00064549)
(0.0895872 0.00182831 0.0006717)
(0.0887171 0.00183558 0.00064157)
(0.0878166 0.00182737 0.000585012)
(0.0868983 0.00181009 0.000517023)
(0.085963 0.00179227 0.00044916)
(0.0850104 0.00177477 0.000381233)
(0.0840449 0.00175429 0.000314524)
(0.0830759 0.00172868 0.00025147)
(0.0821089 0.00169703 0.000193961)
(0.0884401 0.0013532 -0.000103989)
(0.0878455 0.00142847 0.000140055)
(0.0872876 0.00142702 0.000297627)
(0.0867098 0.00140744 0.000367882)
(0.0861092 0.00140064 0.000382768)
(0.0854951 0.00140678 0.000357301)
(0.0848665 0.00141994 0.000307813)
(0.084215 0.00143603 0.000251189)
(0.0835277 0.00145321 0.000198468)
(0.0828121 0.00146731 0.000151918)
(0.0820696 0.0014756 0.000110018)
(0.081301 0.00147706 7.10531e-05)
(0.0805782 0.000947488 -0.000578421)
(0.0801868 0.000924511 -0.00037128)
(0.0798711 0.000894029 -0.000131119)
(0.079503 0.000875198 2.46405e-05)
(0.0791092 0.000888307 8.56177e-05)
(0.0786976 0.000927544 9.36277e-05)
(0.0782478 0.000978258 7.8501e-05)
(0.0777571 0.00102884 5.69207e-05)
(0.0772239 0.00107333 3.77311e-05)
(0.0766493 0.00110839 2.20791e-05)
(0.076036 0.00113503 7.3388e-06)
(0.0753868 0.00115383 -7.24365e-06)
(0.0687185 0.00026963 -0.00101737)
(0.0683912 0.000248422 -0.00093425)
(0.0681497 0.000231776 -0.000599824)
(0.0677726 0.000308571 -0.000374646)
(0.0673529 0.00042697 -0.000295776)
(0.0669421 0.000534908 -0.000266817)
(0.0665193 0.000620706 -0.000251669)
(0.0660649 0.000689937 -0.000247819)
(0.0655803 0.000741944 -0.000246703)
(0.0650702 0.000774416 -0.000237658)
(0.0645398 0.000794991 -0.000227037)
(0.0531721 -3.79895e-05 -0.0010888)
(0.0521259 -8.52613e-05 -0.000977759)
(0.0515153 -0.000305897 -0.000462718)
(0.0508281 -0.00026415 -0.000157297)
(0.0502811 -0.000128683 -0.000124493)
(0.0498187 9.745e-08 -0.00010916)
(0.049346 8.69118e-05 -9.73712e-05)
(0.0488455 0.000147017 -9.94029e-05)
(0.0483097 0.000186871 -0.000107142)
(0.0477813 0.00021079 -0.000111879)
(0.0472638 0.000225298 -0.000115327)
(0.0375796 0.000176483 -0.000906736)
(0.0351168 -0.000126091 -0.000621432)
(0.0336429 -0.000233735 -0.000258713)
(0.0324663 -0.000171455 -0.000147182)
(0.0316678 -9.56154e-05 -0.000116591)
(0.0311187 -3.88337e-05 -8.41879e-05)
(0.030622 -2.54924e-06 -5.93026e-05)
(0.0301522 1.66071e-05 -4.50741e-05)
(0.029696 2.64132e-05 -3.93842e-05)
(0.0292681 3.15186e-05 -3.76181e-05)
(0.0288663 3.27186e-05 -3.6766e-05)
)
;

boundaryField
{
    inlet
    {
        type            fixedValue;
        value           nonuniform List<vector> 0();
    }
    ami1
    {
        type            cyclicAMI;
        value           nonuniform List<vector> 0();
    }
    walls
    {
        type            noSlip;
    }
    ami2
    {
        type            cyclicAMI;
        value           nonuniform List<vector> 
61
(
(0.0916388 -0.000692305 0.00153536)
(0.103819 -0.000434286 0.00163225)
(0.109165 -0.000325988 0.00146436)
(0.0922727 -0.000166194 0.0014506)
(0.104711 -9.86889e-05 0.00157893)
(0.109926 -3.18628e-06 0.0014206)
(0.0887383 0.00022584 0.00128602)
(0.102998 0.000220897 0.00133836)
(0.108792 0.000354017 0.0012179)
(0.112012 0.000496496 0.000880257)
(0.113752 0.000557368 0.000445588)
(0.114296 0.000533408 -4.41999e-05)
(0.113752 0.000445973 -0.000557626)
(0.112113 0.000352657 -0.0010636)
(0.109163 0.000325774 -0.00146513)
(0.103818 0.000433799 -0.00163259)
(0.0916387 0.000692259 -0.00153509)
(0.0807779 0.000623568 0.000937594)
(0.0986668 0.000517159 0.00087295)
(0.105816 0.000728715 0.000896213)
(0.109912 0.00095892 0.000673234)
(0.112113 0.00106335 0.000352318)
(0.112761 0.00102843 -5.1232e-05)
(0.112012 0.0008806 -0.000496583)
(0.109911 0.000673684 -0.000958994)
(0.106294 0.000527993 -0.00133086)
(0.0999432 0.000596834 -0.00150014)
(0.086397 0.00101765 -0.00152481)
(0.0688843 0.0007838 0.000236917)
(0.0912843 0.000547242 0.000226457)
(0.100829 0.00099213 0.000605849)
(0.106294 0.00133069 0.000527479)
(0.109163 0.00146486 0.000325543)
(0.109925 0.00142066 3.09153e-06)
(0.108791 0.00121788 -0.00035414)
(0.105815 0.000896609 -0.000729021)
(0.100829 0.000606317 -0.000992447)
(0.0921058 0.000602701 -0.00114537)
(0.0762016 0.00106906 -0.00141545)
(0.0545442 0.000651115 -0.000192423)
(0.0793571 0.000573308 -2.3129e-05)
(0.0921075 0.00114547 0.000602716)
(0.0999437 0.00150008 0.000596393)
(0.103818 0.00163222 0.000433352)
(0.10471 0.00157833 9.79936e-05)
(0.102997 0.00133762 -0.000221281)
(0.0986656 0.000872642 -0.000517558)
(0.0912832 0.000226599 -0.000547966)
(0.0793554 -2.32001e-05 -0.00057394)
(0.0604944 0.000428106 -0.000915553)
(0.0422113 0.000497948 -7.42148e-05)
(0.0604966 0.00091573 0.000428784)
(0.076205 0.00141499 0.00106907)
(0.0863999 0.00152371 0.00101642)
(0.0916405 0.00153412 0.000690349)
(0.0922727 0.00144983 0.000164495)
(0.0887373 0.00128552 -0.000226628)
(0.0807771 0.000936988 -0.000623586)
(0.0688837 0.0002362 -0.000783748)
(0.0545443 -0.000192712 -0.000651881)
(0.0422107 -7.44862e-05 -0.000498017)
)
;
    }
    outlet
    {
        type            zeroGradient;
    }
    procBoundary1to0
    {
        type            processor;
        value           nonuniform List<vector> 
138
(
(0.0879911 -0.000916552 0.00212568)
(0.0879911 -0.000916552 0.00212568)
(0.086763 -0.000823079 0.00211618)
(0.0854949 -0.00072092 0.00208173)
(0.084211 -0.000609588 0.00203215)
(0.0829309 -0.000499481 0.00197475)
(0.0816663 -0.000397039 0.00191107)
(0.0804396 -0.000305558 0.00184214)
(0.0792615 -0.000223918 0.00176934)
(0.0781373 -0.000157044 0.00169493)
(0.104444 -0.000646111 0.00218399)
(0.104444 -0.000646111 0.00218399)
(0.10445 -0.000612709 0.00220067)
(0.104382 -0.00055287 0.00219373)
(0.104258 -0.000474547 0.00217184)
(0.104091 -0.000386349 0.00212171)
(0.103905 -0.000300837 0.00204994)
(0.103708 -0.000222873 0.00197693)
(0.103513 -0.000154117 0.00190497)
(0.103324 -9.37193e-05 0.00183158)
(0.112434 -0.000357402 0.00108285)
(0.112907 -0.000368061 0.00116095)
(0.110524 -0.000413997 0.00186699)
(0.11336 -0.000371381 0.00121873)
(0.110524 -0.000413997 0.00186699)
(0.110898 -0.000394358 0.00190865)
(0.111241 -0.000360974 0.00192278)
(0.111559 -0.000321952 0.00191607)
(0.111855 -0.00027948 0.00188917)
(0.112133 -0.00023767 0.00184752)
(0.112396 -0.000198863 0.00179675)
(0.112649 -0.000163844 0.00174223)
(0.112898 -0.000132184 0.00168606)
(0.113104 4.43421e-05 0.0010388)
(0.113606 3.42615e-05 0.00108995)
(0.114083 2.30364e-05 0.00112805)
(0.114602 1.36591e-05 0.00114988)
(0.115135 6.40237e-06 0.0011611)
(0.115663 1.52072e-06 0.00116508)
(0.116183 -9.4567e-07 0.00116289)
(0.116695 -1.10655e-06 0.00115505)
(0.117195 7.6023e-07 0.00114226)
(0.117684 4.45798e-06 0.001126)
(0.11816 9.69656e-06 0.00110783)
(0.118625 1.59308e-05 0.00108873)
(0.113104 4.43421e-05 0.0010388)
(0.113606 3.42615e-05 0.00108995)
(0.114083 2.30364e-05 0.00112805)
(0.114602 1.36591e-05 0.00114988)
(0.115135 6.40237e-06 0.0011611)
(0.115663 1.52072e-06 0.00116508)
(0.116183 -9.4567e-07 0.00116289)
(0.116695 -1.10655e-06 0.00115505)
(0.117195 7.6023e-07 0.00114226)
(0.117684 4.45798e-06 0.001126)
(0.11816 9.69656e-06 0.00110783)
(0.118625 1.59308e-05 0.00108873)
(0.11467 4.40452e-05 0.00053911)
(0.115231 4.66924e-05 0.000557556)
(0.11576 4.75882e-05 0.000572564)
(0.116332 4.77006e-05 0.000578814)
(0.116921 4.74399e-05 0.000579584)
(0.117508 4.71858e-05 0.000579055)