/*--------------------------------*- C++ -*----------------------------------*\
| =========                 |                                                 |
| \\      /  F ield         | OpenFOAM: The Open Source CFD Toolbox           |
|  \\    /   O peration     | Version:  2212                                  |
|   \\  /    A nd           | Website:  www.openfoam.com                      |
|    \\/     M anipulation  |                                                 |
\*---------------------------------------------------------------------------*/
FoamFile
{
    version     2.0;
    format      ascii;
    arch        "LSB;label=32;scalar=64";
    class       volScalarField;
    location    "1.45";
    object      nut;
}
// * * * * * * * * * * * * * * * * * * * * * * * * * * * * * * * * * * * * * //

dimensions      [0 2 -1 0 0 0 0];

internalField   nonuniform List<scalar> 
678
(
3.48035e-06
3.45716e-06
3.43395e-06
3.41026e-06
3.38664e-06
6.91889e-06
6.86912e-06
6.82104e-06
6.77394e-06
6.72666e-06
9.99086e-06
9.91287e-06
9.83717e-06
9.76346e-06
9.69254e-06
1.22012e-05
1.20944e-05
1.19919e-05
1.18925e-05
1.1798e-05
1.1707e-05
1.35683e-05
1.34457e-05
1.33258e-05
1.32114e-05
1.31004e-05
1.29917e-05
1.39514e-05
1.38306e-05
1.3709e-05
1.3576e-05
1.34613e-05
1.33419e-05
1.32383e-05
1.33503e-05
1.3231e-05
1.31013e-05
1.29897e-05
1.28671e-05
1.27681e-05
1.2665e-05
1.18323e-05
1.17213e-05
1.16188e-05
1.15206e-05
1.14232e-05
1.13261e-05
1.12293e-05
9.559e-06
9.47788e-06
9.39974e-06
9.32276e-06
9.24805e-06
9.17042e-06
9.09293e-06
6.71074e-06
6.65941e-06
6.61037e-06
6.56188e-06
6.51389e-06
6.46554e-06
3.48048e-06
3.45739e-06
3.43424e-06
3.41088e-06
3.38784e-06
3.36535e-06
6.71127e-06
6.66012e-06
6.61109e-06
6.56221e-06
6.51214e-06
6.45956e-06
6.65267e-06
6.34614e-06
6.16636e-06
5.93966e-06
5.69108e-06
1.50131e-05
1.41176e-05
1.3719e-05
1.30008e-05
1.25301e-05
1.18185e-05
2.3025e-05
2.16925e-05
2.09778e-05
1.98141e-05
1.92276e-05
1.81201e-05
2.84428e-05
2.69344e-05
2.5787e-05
2.43714e-05
2.36234e-05
2.22302e-05
3.08616e-05
2.95056e-05
2.80792e-05
2.65718e-05
2.53896e-05
2.38794e-05
2.90089e-05
2.74016e-05
2.6128e-05
2.44953e-05
2.3691e-05
2.20914e-05
2.26299e-05
2.10844e-05
2.01983e-05
1.87159e-05
1.79955e-05
1.67152e-05
1.52442e-05
1.37864e-05
1.28073e-05
1.23662e-05
1.15186e-05
1.10909e-05
1.01888e-05
9.29382e-06
6.65124e-06
6.34731e-06
6.16658e-06
5.94604e-06
5.71932e-06
5.5201e-06
5.16717e-06
6.9202e-06
6.8704e-06
6.82237e-06
6.77547e-06
6.72944e-06
6.6842e-06
9.56185e-06
9.48141e-06
9.40392e-06
9.32742e-06
9.25231e-06
9.17646e-06
9.09401e-06
1.38463e-05
1.29075e-05
1.24625e-05
1.16566e-05
1.11678e-05
1.02874e-05
2.95916e-05
2.76079e-05
2.65115e-05
2.47969e-05
2.39243e-05
2.23224e-05
4.38871e-05
4.12724e-05
3.8997e-05
3.65728e-05
3.52468e-05
3.31892e-05
5.29459e-05
4.98667e-05
4.71584e-05
4.45807e-05
4.21034e-05
3.97927e-05
5.64755e-05
5.32619e-05
5.04322e-05
4.77409e-05
4.49989e-05
4.24745e-05
5.44642e-05
5.12067e-05
4.83212e-05
4.54909e-05
4.31388e-05
4.03016e-05
4.4491e-05
4.18206e-05
3.95729e-05
3.69763e-05
3.55865e-05
3.33738e-05
2.94798e-05
2.74234e-05
2.64169e-05
2.46233e-05
2.37339e-05
2.21249e-05
1.50383e-05
1.41423e-05
1.37357e-05
1.30276e-05
1.25697e-05
1.19783e-05
1.10749e-05
9.99435e-06
9.91609e-06
9.84017e-06
9.76632e-06
9.69508e-06
9.62646e-06
1.18358e-05
1.17279e-05
1.16253e-05
1.15278e-05
1.14315e-05
1.13342e-05
1.12375e-05
2.27196e-05
2.12888e-05
2.03721e-05
1.89613e-05
1.82747e-05
1.69716e-05
1.53121e-05
4.51152e-05
4.23398e-05
3.98528e-05
3.74594e-05
3.56691e-05
3.34905e-05
6.275e-05
5.86341e-05
5.6011e-05
5.34033e-05
5.17922e-05
4.76416e-05
7.32238e-05
6.85216e-05
6.56801e-05
6.27758e-05
6.0826e-05
5.60721e-05
7.69862e-05
7.21061e-05
6.91442e-05
6.62037e-05
6.40363e-05
5.8821e-05
7.3855e-05
6.91112e-05
6.6131e-05
6.34907e-05
6.04696e-05
6.27021e-05
5.85775e-05
5.59561e-05
5.34237e-05
5.14548e-05
4.78635e-05
4.3936e-05
4.12541e-05
3.90349e-05
3.65876e-05
3.51966e-05
3.29563e-05
2.30967e-05
2.17662e-05
2.10338e-05
1.99018e-05
1.92205e-05
1.81265e-05
1.22062e-05
1.20991e-05
1.19956e-05
1.18963e-05
1.18012e-05
1.17094e-05
1.33565e-05
1.32347e-05
1.3122e-05
1.29805e-05
1.28875e-05
1.27741e-05
2.91932e-05
2.76659e-05
2.6327e-05
2.47517e-05
2.39043e-05
2.22515e-05
5.43383e-05
5.12308e-05
4.84485e-05
4.55723e-05
4.30334e-05
7.41172e-05
6.93602e-05
6.6384e-05
6.39001e-05
6.0412e-05
8.64592e-05
8.06913e-05
7.71952e-05
7.43709e-05
7.02261e-05
9.02123e-05
8.43797e-05
8.07525e-05
7.77889e-05
7.37887e-05
8.63613e-05
8.0653e-05
7.7121e-05
7.42486e-05
7.0498e-05
7.34304e-05
6.87517e-05
6.58078e-05
6.32636e-05
6.01715e-05
5.31676e-05
5.00591e-05
4.73201e-05
4.46069e-05
4.21124e-05
2.83149e-05
2.69499e-05
2.57867e-05
2.44691e-05
2.35539e-05
1.35727e-05
1.3451e-05
1.3329e-05
1.32158e-05
1.31032e-05
1.29945e-05
1.39578e-05
1.38392e-05
1.37101e-05
1.36017e-05
1.34484e-05
1.33576e-05
3.07426e-05
2.94739e-05
2.7978e-05
2.69281e-05
2.52702e-05
2.39592e-05
5.65659e-05
5.34051e-05
5.05453e-05
4.74253e-05
7.71379e-05
7.23036e-05
6.94551e-05
6.64125e-05
9.01297e-05
8.43533e-05
8.09689e-05
7.72917e-05
9.43953e-05
8.81673e-05
8.4489e-05
8.15132e-05
7.69135e-05
9.03029e-05
8.45117e-05
8.08492e-05
7.7926e-05
7.38801e-05
7.72933e-05
7.24295e-05
6.93692e-05
6.68255e-05
6.34192e-05
5.67201e-05
5.34954e-05
5.06539e-05
4.78693e-05
4.50023e-05
3.07643e-05
2.94489e-05
2.80406e-05
2.68484e-05
2.53231e-05
1.39554e-05
1.38346e-05
1.37126e-05
1.35829e-05
1.34635e-05
1.36961e-05
1.35788e-05
1.34377e-05
1.33493e-05
1.32109e-05
1.31062e-05
2.98782e-05
2.83736e-05
2.71258e-05
2.56988e-05
2.49397e-05
2.35614e-05
5.59259e-05
5.28144e-05
5.00126e-05
4.73471e-05
4.46671e-05
4.21131e-05
7.7891e-05
7.30656e-05
6.97835e-05
6.66629e-05
6.42596e-05
6.00685e-05
9.04525e-05
8.53375e-05
8.15961e-05
7.80872e-05
7.52571e-05
7.0748e-05
9.00192e-05
8.4344e-05
8.08072e-05
7.79857e-05
7.3979e-05
8.64473e-05
8.0749e-05
7.72321e-05
7.44498e-05
7.06325e-05
7.40539e-05
6.93416e-05
6.63375e-05
6.3878e-05
6.0579e-05
5.46872e-05
5.14467e-05
4.8564e-05
4.56326e-05
4.31329e-05
2.9192e-05
2.759e-05
2.63203e-05
2.47451e-05
2.37004e-05
1.33539e-05
1.32348e-05
1.31078e-05
1.29934e-05
1.28732e-05
1.23121e-05
1.22077e-05
1.20943e-05
1.20007e-05
1.18935e-05
1.18034e-05
2.42315e-05
2.30131e-05
2.18182e-05
2.11721e-05
2.00639e-05
1.92861e-05
4.63295e-05
4.3678e-05
4.13163e-05
3.90028e-05
3.73956e-05
3.54453e-05
6.67764e-05
6.23444e-05
5.95868e-05
5.68777e-05
5.46953e-05
5.17682e-05
7.84933e-05
7.37291e-05
7.05084e-05
6.741e-05
6.48731e-05
6.13794e-05
7.7823e-05
7.26707e-05
6.96259e-05
6.7098e-05
6.37582e-05
7.34845e-05
6.88531e-05
6.59296e-05
6.35123e-05
6.03679e-05
6.27976e-05
5.86848e-05
5.61204e-05
5.38399e-05
5.11929e-05
4.45831e-05
4.20006e-05
3.96858e-05
3.71285e-05
3.55754e-05
2.27215e-05
2.12148e-05
2.0324e-05
1.89158e-05
1.80317e-05
1.18345e-05
1.1726e-05
1.1623e-05
1.15253e-05
1.1427e-05
1.00723e-05
9.99346e-06
9.91548e-06
9.84016e-06
9.76648e-06
9.69624e-06
1.5949e-05
1.5017e-05
1.44715e-05
1.37787e-05
1.32468e-05
1.2664e-05
3.16154e-05
2.9453e-05
2.82318e-05
2.64737e-05
2.55708e-05
2.3994e-05
4.76771e-05
4.48833e-05
4.23771e-05
3.97373e-05
3.83134e-05
3.61921e-05
5.77029e-05
5.45183e-05
5.15952e-05
4.88487e-05
4.59802e-05
4.38004e-05
5.66087e-05
5.36116e-05
5.08281e-05
4.80656e-05
4.53106e-05
5.32505e-05
5.01999e-05
4.74884e-05
4.47902e-05
4.23308e-05
4.40049e-05
4.13917e-05
3.91563e-05
3.67169e-05
3.52377e-05
2.95448e-05
2.7577e-05
2.64101e-05
2.47766e-05
2.37477e-05
1.38516e-05
1.29429e-05
1.2416e-05
1.16504e-05
1.11596e-05
9.56166e-06
9.48118e-06
9.40362e-06
9.32653e-06
9.25064e-06
6.96986e-06
6.91988e-06
6.87139e-06
6.82406e-06
6.77734e-06
6.7308e-06
6.99749e-06
6.69616e-06
6.47319e-06
6.25883e-06
6.0372e-06
5.78719e-06
1.46826e-05
1.37859e-05
1.32834e-05
1.2484e-05
1.207e-05
1.1327e-05
2.43975e-05
2.2873e-05
2.18603e-05
2.04397e-05
1.9731e-05
1.83964e-05
3.10776e-05
2.95228e-05
2.79449e-05
2.67701e-05
2.5252e-05
2.41535e-05
3.07651e-05
2.9553e-05
2.8286e-05
2.67371e-05
2.56888e-05
2.83692e-05
2.70235e-05
2.58974e-05
2.46159e-05
2.36942e-05
2.31368e-05
2.18484e-05
2.10837e-05
2.00157e-05
1.93011e-05
1.5069e-05
1.4288e-05
1.36407e-05
1.31181e-05
1.26304e-05
6.68267e-06
6.39588e-06
6.21058e-06
6.0007e-06
5.75456e-06
6.71265e-06
6.66176e-06
6.61294e-06
6.56417e-06
6.51467e-06
3.50468e-06
3.48165e-06
3.45857e-06
3.43542e-06
3.41209e-06
3.38938e-06
6.7634e-06
6.7123e-06
6.66332e-06
6.61524e-06
6.5668e-06
6.51775e-06
9.64363e-06
9.56228e-06
9.48448e-06
9.40753e-06
1.19528e-05
1.18405e-05
1.17299e-05
1.16311e-05
1.15342e-05
1.3482e-05
1.33594e-05
1.3241e-05
1.31165e-05
1.30026e-05
1.39594e-05
1.38393e-05
1.37191e-05
1.35862e-05
1.34736e-05
1.35747e-05
1.34531e-05
1.33322e-05
1.32188e-05
1.31071e-05
1.22063e-05
1.21001e-05
1.19971e-05
1.18983e-05
1.18036e-05
9.99413e-06
9.91659e-06
9.84088e-06
9.76719e-06
9.69665e-06
6.92105e-06
6.87156e-06
6.82375e-06
6.77679e-06
6.72995e-06
3.4811e-06
3.45822e-06
3.43504e-06
3.4114e-06
3.38842e-06
)
;

boundaryField
{
    inlet
    {
        type            calculated;
        value           nonuniform List<scalar> 0();
    }
    ami1
    {
        type            cyclicAMI;
        value           nonuniform List<scalar> 0();
    }
    walls
    {
        type            nutkWallFunction;
        blending        stepwise;
        value           uniform 0;
    }
    ami2
    {
        type            cyclicAMI;
        value           nonuniform List<scalar> 0();
    }
    outlet
    {
        type            calculated;
        value           nonuniform List<scalar> 0();
    }
    procBoundary5to6
    {
        type            processor;
        value           nonuniform List<scalar> 
177
(
3.36247e-06
3.36247e-06
6.6804e-06
9.62494e-06
9.62494e-06
9.62494e-06
1.16188e-05
1.28894e-05
1.28894e-05
1.31337e-05
2.16132e-05
1.25611e-05
1.97066e-05
1.11296e-05
9.01308e-06
6.41422e-06
6.41422e-06
6.41422e-06
3.34349e-06
6.40916e-06
5.14888e-06
6.40916e-06
5.14888e-06
5.14888e-06
5.14888e-06
1.0617e-05
1.64475e-05
2.02115e-05
2.16132e-05
1.97066e-05
1.97066e-05
1.31492e-05
2.95396e-05
7.9626e-06
1.95557e-05
4.64144e-06
6.63932e-06
6.63932e-06
9.01211e-06
8.75818e-06
8.75818e-06
8.75818e-06
1.97266e-05
2.97091e-05
3.5894e-05
3.82418e-05
3.60777e-05
5.43945e-05
2.95396e-05
1.95557e-05
1.95557e-05
9.91972e-06
9.55994e-06
1.62664e-05
9.55994e-06
1.11362e-05
1.26715e-05
1.31716e-05
2.93552e-05
1.97786e-05
2.93552e-05
3.86286e-05
4.25547e-05
5.43166e-05
5.04057e-05
6.33901e-05
5.3131e-05
5.43945e-05
6.66155e-05
5.43945e-05
5.43945e-05
4.27081e-05
5.41747e-05
2.91749e-05
3.80764e-05
1.62664e-05
2.13845e-05
1.16205e-05
1.26715e-05
1.97786e-05
3.86286e-05
3.86286e-05
4.30362e-05
5.43166e-05
6.01833e-05
6.33901e-05
7.0197e-05
6.66155e-05
6.36669e-05
5.41747e-05
3.80764e-05
2.13845e-05
2.13845e-05
1.28898e-05
1.33446e-05
1.32371e-05
1.29949e-05
4.30362e-05
2.14942e-05
4.06152e-05
2.14708e-05
4.30362e-05
4.30362e-05
6.01833e-05
6.01833e-05
7.0197e-05
7.0197e-05
7.0197e-05
6.96559e-05
6.67089e-05
5.71222e-05
4.08108e-05
2.30726e-05
1.33446e-05
1.29949e-05
2.14708e-05
3.81132e-05
5.37617e-05
6.38671e-05
6.68187e-05
6.36875e-05
5.43586e-05
3.8844e-05
2.11911e-05
1.27714e-05
1.17091e-05
1.75196e-05
3.19645e-05
4.62384e-05
5.5023e-05
5.74526e-05
5.42986e-05
4.58356e-05
3.17404e-05
1.58439e-05
1.13265e-05
9.62823e-06
1.14773e-05
2.14636e-05
3.23209e-05
3.94357e-05
4.10376e-05
3.83141e-05
3.16605e-05
2.11348e-05
9.73104e-06
9.17179e-06
6.68534e-06
5.24673e-06
9.33038e-06
9.93842e-06
9.25632e-06
1.62808e-05
1.14358e-05
2.16254e-05
1.28807e-05
2.32331e-05
2.15698e-05
1.75525e-05
1.14439e-05
5.21306e-06
6.462e-06
3.36655e-06
9.33038e-06
6.46614e-06
9.25632e-06
9.33038e-06
9.33038e-06
1.14358e-05
1.28807e-05
1.28807e-05
1.33507e-05
1.2999e-05
1.17127e-05
9.62895e-06
6.68417e-06
3.36521e-06
)
;
    }
    procBoundary5to7
    {
        type            processor;
        value           nonuniform List<scalar> 
131
(
3.50493e-06
6.96929e-06
1.0069e-05
1.23066e-05
1.36897e-05
1.40788e-05
1.34763e-05
1.19484e-05
9.64203e-06
6.76453e-06
3.50515e-06
6.76482e-06
7.16791e-06
1.61319e-05
2.46678e-05
2.99564e-05
3.23854e-05
3.1015e-05
2.45735e-05
1.50043e-05
7.16901e-06
6.97094e-06
9.64426e-06
1.50754e-05
3.21632e-05
4.74915e-05
5.62209e-05
6.08059e-05
5.82011e-05
4.8173e-05
3.20077e-05
1.61657e-05
1.00726e-05
1.19528e-05
2.48381e-05
4.89983e-05
6.80842e-05
7.91452e-05
8.31826e-05
7.98843e-05
6.80273e-05
4.75347e-05
2.47741e-05
1.23114e-05
1.3482e-05
3.12202e-05
5.84229e-05
8.02205e-05
9.30853e-05
9.69635e-05
9.2937e-05
7.93297e-05
5.64468e-05
3.00624e-05
1.36947e-05
1.40858e-05
1.40858e-05
3.26636e-05
3.26636e-05
6.08268e-05
6.08268e-05
8.33907e-05
8.33907e-05
9.68976e-05
9.68976e-05
0.000101243
9.70423e-05
8.34745e-05
6.10609e-05
3.26116e-05
1.40828e-05
1.38241e-05
3.15297e-05
5.92904e-05
8.35503e-05
9.66041e-05
9.6724e-05
9.6724e-05
9.30375e-05
8.00579e-05
5.8414e-05
3.12041e-05
1.34794e-05
1.24205e-05
2.57452e-05
4.96177e-05
7.1909e-05
8.42531e-05
8.39229e-05
8.39229e-05
7.94119e-05
6.80809e-05
4.82187e-05
2.46737e-05
1.19514e-05
1.01515e-05
1.708e-05
3.4371e-05
5.12423e-05
6.15297e-05
6.08076e-05
6.08076e-05
5.65847e-05
4.75307e-05
3.20235e-05
1.50677e-05
9.64399e-06
7.02038e-06
7.45605e-06
1.59737e-05
2.64284e-05
3.27604e-05
3.243e-05
3.243e-05
3.00907e-05
2.48029e-05
1.61734e-05
7.19873e-06
6.76608e-06
3.52944e-06
6.81718e-06
9.72749e-06
1.20687e-05
1.36092e-05
1.40857e-05
1.40857e-05
1.3696e-05
1.23113e-05
1.0072e-05
6.97131e-06
3.50572e-06
)
;
    }
}


// ************************************************************************* //
