/*--------------------------------*- C++ -*----------------------------------*\
| =========                 |                                                 |
| \\      /  F ield         | OpenFOAM: The Open Source CFD Toolbox           |
|  \\    /   O peration     | Version:  2212                                  |
|   \\  /    A nd           | Website:  www.openfoam.com                      |
|    \\/     M anipulation  |                                                 |
\*---------------------------------------------------------------------------*/
FoamFile
{
    version     2.0;
    format      ascii;
    arch        "LSB;label=32;scalar=64";
    class       surfaceScalarField;
    location    "1.45";
    object      phi;
}
// * * * * * * * * * * * * * * * * * * * * * * * * * * * * * * * * * * * * * //

dimensions      [0 3 -1 0 0 0 0];

oriented        oriented;

internalField   nonuniform List<scalar> 
1755
(
5.73254e-08
-3.4e-08
3.4644e-08
5.66757e-08
-3.40114e-08
3.46612e-08
5.60155e-08
-3.40298e-08
3.469e-08
5.53574e-08
-3.4052e-08
3.47102e-08
-3.40707e-08
3.47176e-08
1.86835e-07
-6.39749e-08
3.19358e-08
1.84903e-07
-6.40526e-08
3.19733e-08
1.82999e-07
-6.41637e-08
3.20374e-08
1.81111e-07
-6.42518e-08
3.2088e-08
-6.4273e-08
3.20986e-08
3.661e-07
-8.8799e-08
2.85515e-08
3.62435e-07
-8.89348e-08
2.85472e-08
3.58864e-07
-8.91165e-08
2.85239e-08
3.55362e-07
-8.92483e-08
2.84985e-08
-8.93279e-08
2.85292e-08
5.21718e-07
-1.06997e-07
2.36064e-08
5.16482e-07
-1.07097e-07
2.33986e-08
5.11436e-07
-1.07233e-07
2.31618e-08
5.0651e-07
-1.07336e-07
2.30137e-08
5.01631e-07
-1.07402e-07
2.29536e-08
-1.07469e-07
2.28281e-08
6.26067e-07
-1.17122e-07
1.66255e-08
6.19677e-07
-1.17231e-07
1.65245e-08
6.13371e-07
-1.17335e-07
1.64076e-08
6.07129e-07
-1.17414e-07
1.63196e-08
6.00943e-07
-1.17463e-07
1.6246e-08
-1.1751e-07
1.60101e-08
6.53856e-07
-1.18307e-07
7.56055e-09
6.47503e-07
-1.1836e-07
7.48243e-09
6.41141e-07
-1.18364e-07
7.39192e-09
6.3477e-07
-1.18339e-07
7.29621e-09
6.2843e-07
-1.18323e-07
7.20121e-09
6.22255e-07
-1.18333e-07
6.99739e-09
-1.18335e-07
6.01467e-07
-1.09766e-07
-2.85767e-09
5.95762e-07
-1.09743e-07
-2.91194e-09
5.9011e-07
-1.09655e-07
-3.05795e-09
5.84576e-07
-1.09542e-07
-3.26302e-09
5.79127e-07
-1.09443e-07
-3.43152e-09
5.73797e-07
-1.09352e-07
-3.6496e-09
-1.09312e-07
4.8595e-07
-9.17791e-08
-1.35306e-08
4.81461e-07
-9.17134e-08
-1.35406e-08
4.76966e-07
-9.16188e-08
-1.3541e-08
4.72449e-07
-9.1528e-08
-1.34963e-08
4.67885e-07
-9.14725e-08
-1.34074e-08
4.6336e-07
-9.14172e-08
-1.34098e-08
-9.136e-08
-1.3495e-08
3.32565e-07
-6.62973e-08
-2.21249e-08
3.29214e-07
-6.62584e-08
-2.21039e-08
3.25892e-07
-6.62145e-08
-2.20815e-08
3.22589e-07
-6.61706e-08
-2.20551e-08
3.19266e-07
-6.6135e-08
-2.20139e-08
3.16002e-07
-6.60907e-08
-2.20627e-08
-2.21626e-08
1.74595e-07
-3.46417e-08
-2.98375e-08
1.72775e-07
-3.46606e-08
-2.97785e-08
1.70944e-07
-3.46907e-08
-2.96926e-08
1.69122e-07
-3.47107e-08
-2.96373e-08
1.67296e-07
-3.47267e-08
-2.95823e-08
-3.47255e-08
-2.96003e-08
5.73289e-08
-3.39986e-08
5.66811e-08
-3.40127e-08
5.60255e-08
-3.40351e-08
5.53781e-08
-3.40633e-08
5.474e-08
-3.40886e-08
-3.41273e-08
1.74635e-07
-2.98416e-08
6.63016e-08
1.72815e-07
-2.97799e-08
6.62619e-08
1.70973e-07
-2.96882e-08
6.62199e-08
1.69108e-07
-2.96137e-08
6.61884e-08
1.67224e-07
-2.95917e-08
6.61936e-08
6.61114e-08
4.78561e-07
-5.52223e-08
6.07859e-08
4.75056e-07
-5.51366e-08
6.08349e-08
4.71534e-07
-5.50299e-08
6.09006e-08
4.67976e-07
-5.49358e-08
6.09681e-08
-5.48758e-08
6.0999e-08
7.96985e-07
-7.71635e-08
5.29156e-08
7.94439e-07
-7.70427e-08
5.29994e-08
7.91771e-07
-7.69288e-08
5.30904e-08
7.89009e-07
-7.68513e-08
5.3176e-08
7.86138e-07
-7.67691e-08
5.32934e-08
-7.68192e-08
5.32283e-08
1.0257e-06
-9.31973e-08
4.11939e-08
1.02402e-06
-9.31498e-08
4.11905e-08
1.02217e-06
-9.31086e-08
4.11889e-08
1.0202e-06
-9.3072e-08
4.12089e-08
1.01816e-06
-9.30194e-08
4.12429e-08
-9.30398e-08
4.10682e-08
1.16051e-06
-1.01951e-07
2.66817e-08
1.15919e-06
-1.01947e-07
2.66448e-08
1.15783e-06
-1.01944e-07
2.66045e-08
1.15643e-06
-1.01937e-07
2.65776e-08
1.15508e-06
-1.01931e-07
2.65132e-08
-1.01962e-07
2.62567e-08
1.19725e-06
-1.03099e-07
9.69701e-09
1.19628e-06
-1.03141e-07
9.64323e-09
1.19533e-06
-1.03181e-07
9.57681e-09
1.19439e-06
-1.0322e-07
9.51664e-09
1.19351e-06
-1.03268e-07
9.41989e-09
-1.03293e-07
9.14298e-09
1.14001e-06
-9.66738e-08
-8.75671e-09
1.13951e-06
-9.67745e-08
-8.77755e-09
1.13897e-06
-9.68954e-08
-8.80241e-09
1.13832e-06
-9.70338e-08
-8.80222e-09
1.13761e-06
-9.71777e-08
-8.80936e-09
-9.72306e-08
-9.03517e-09
9.97471e-07
-8.279e-08
-2.64881e-08
9.96438e-07
-8.28832e-08
-2.63988e-08
9.9527e-07
-8.29706e-08
-2.62972e-08
9.93957e-07
-8.30533e-08
-2.61639e-08
9.92519e-07
-8.31498e-08
-2.59975e-08
9.9104e-07
-8.31493e-08
-2.6012e-08
-8.30342e-08
7.71772e-07
-6.07796e-08
-4.16051e-08
7.69086e-07
-6.08322e-08
-4.14691e-08
7.66262e-07
-6.08976e-08
-4.13306e-08
7.63302e-07
-6.09482e-08
-4.11996e-08
7.60216e-07
-6.10219e-08
-4.10562e-08
7.57086e-07
-6.10062e-08
-4.10755e-08
-6.08649e-08
4.78513e-07
-3.19319e-08
-5.5206e-08
4.74999e-07
-3.19703e-08
-5.51256e-08
4.71472e-07
-3.20339e-08
-5.503e-08
4.67926e-07
-3.20725e-08
-5.49669e-08
4.64307e-07
-3.2112e-08
-5.48728e-08
4.60668e-07
-3.20899e-08
-5.48774e-08
-5.5008e-08
1.86887e-07
-6.39737e-08
1.8496e-07
-6.40566e-08
1.83068e-07
-6.41766e-08
1.81216e-07
-6.42844e-08
1.79385e-07
-6.43689e-08
-6.44538e-08
3.32747e-07
-2.21301e-08
9.17707e-08
3.29414e-07
-2.21073e-08
9.17018e-08
3.26104e-07
-2.20786e-08
9.16095e-08
3.22793e-07
-2.20301e-08
9.15289e-08
3.19434e-07
-2.19386e-08
9.14911e-08
3.16146e-07
-2.20604e-08
9.146e-08
9.13256e-08
7.71894e-07
-4.16258e-08
8.27942e-08
7.69229e-07
-4.14882e-08
8.28804e-08
7.66435e-07
-4.13443e-08
8.29607e-08
7.63538e-07
-4.12001e-08
8.30353e-08
7.60543e-07
-4.10533e-08
8.31082e-08
-4.11717e-08
8.30064e-08
1.13191e-06
-5.97495e-08
7.00356e-08
1.13281e-06
-5.9573e-08
7.01809e-08
1.1336e-06
-5.93838e-08
7.03436e-08
1.13428e-06
-5.92008e-08
7.04951e-08
1.13494e-06
-5.90364e-08
7.06223e-08
-5.91014e-08
7.05486e-08
1.37532e-06
-7.35373e-08
5.24648e-08
1.37784e-06
-7.34352e-08
5.25339e-08
1.38033e-06
-7.33108e-08
5.26226e-08
1.38278e-06
-7.31717e-08
5.27299e-08
1.38522e-06
-7.30367e-08
5.28009e-08
-7.30327e-08
5.26756e-08
1.51713e-06
-8.16054e-08
3.15436e-08
1.52035e-06
-8.15527e-08
3.15447e-08
1.52357e-06
-8.14953e-08
3.15621e-08
1.52684e-06
-8.144e-08
3.15762e-08
1.53017e-06
-8.13932e-08
3.15476e-08
-8.13828e-08
3.13711e-08
1.55953e-06
-8.36306e-08
8.15267e-09
1.56315e-06
-8.36536e-08
8.12824e-09
1.56681e-06
-8.37011e-08
8.11684e-09
1.57056e-06
-8.37672e-08
8.09502e-09
1.5744e-06
-8.38306e-08
8.02152e-09
-8.38345e-08
7.80934e-09
1.50701e-06
-7.99182e-08
-1.61722e-08
1.51079e-06
-8.00276e-08
-1.61844e-08
1.51461e-06
-8.01656e-08
-1.61604e-08
1.51849e-06
-8.03218e-08
-1.61288e-08
1.52248e-06
-8.04722e-08
-1.61555e-08
-8.04996e-08
1.36512e-06
-7.00372e-08
-3.9457e-08
1.36825e-06
-7.01919e-08
-3.93575e-08
1.37137e-06
-7.03597e-08
-3.92232e-08
1.37447e-06
-7.05172e-08
-3.90674e-08
1.3776e-06
-7.06699e-08
-3.89348e-08
-7.06267e-08
-3.90167e-08
1.13191e-06
-5.29233e-08
-5.97284e-08
1.13281e-06
-5.30149e-08
-5.95549e-08
1.1336e-06
-5.31098e-08
-5.93643e-08
1.13426e-06
-5.31928e-08
-5.91844e-08
1.13487e-06
-5.33259e-08
-5.90077e-08
-5.33018e-08
-5.90314e-08
7.96965e-07
-2.8551e-08
-7.71515e-08
7.94409e-07
-2.85483e-08
-7.70361e-08
7.91717e-07
-2.85231e-08
-7.69249e-08
7.88891e-07
-2.84801e-08
-7.68536e-08
7.85931e-07
-2.84676e-08
-7.67712e-08
7.82949e-07
-2.84023e-08
-7.67949e-08
3.66247e-07
-8.87996e-08
3.62583e-07
-8.894e-08
3.59015e-07
-8.91318e-08
3.55531e-07
-8.92809e-08
3.52092e-07
-8.93971e-08
-8.94922e-08
4.86253e-07
-1.35415e-08
1.09725e-07
4.81807e-07
-1.3556e-08
1.09704e-07
4.77349e-07
-1.3558e-08
1.09625e-07
4.72863e-07
-1.35029e-08
1.09518e-07
4.68329e-07
-1.33961e-08
1.09421e-07
4.63821e-07
-1.33885e-08
1.09357e-07
-1.35253e-08
9.9759e-07
-2.64898e-08
9.66642e-08
9.96544e-07
-2.64022e-08
9.67722e-08
9.95356e-07
-2.62972e-08
9.68879e-08
9.9403e-07
-2.61581e-08
9.70168e-08
9.9261e-07
-2.60043e-08
9.71366e-08
9.91146e-07
-2.60786e-08
9.71598e-08
1.36491e-06
-3.94359e-08
7.99512e-08
1.368e-06
-3.93564e-08
8.00492e-08
1.37109e-06
-3.92273e-08
8.01817e-08
1.37418e-06
-3.90752e-08
8.03263e-08
1.37731e-06
-3.8968e-08
8.04509e-08
-3.91032e-08
1.61132e-06
-5.00019e-08
5.82487e-08
1.61614e-06
-4.99478e-08
5.83028e-08
1.62098e-06
-4.98473e-08
5.84003e-08
1.62585e-06
-4.97255e-08
5.85127e-08
1.63077e-06
-4.96611e-08
5.85772e-08
-4.97452e-08
1.75629e-06
-5.6835e-08
3.2877e-08
1.7618e-06
-5.68042e-08
3.28906e-08
1.76734e-06
-5.67624e-08
3.29359e-08
1.77292e-06
-5.67167e-08
3.29858e-08
1.77852e-06
-5.66905e-08
3.29858e-08
-5.67109e-08
1.80269e-06
-5.95597e-08
5.12249e-09
1.80847e-06
-5.95714e-08
5.11297e-09
1.8143e-06
-5.96051e-08
5.1366e-09
1.82016e-06
-5.96398e-08
5.15536e-09
1.82602e-06
-5.96406e-08
5.10786e-09
1.75322e-06
-5.82182e-08
-2.31517e-08
1.75889e-06
-5.82786e-08
-2.31531e-08
1.76461e-06
-5.83809e-08
-2.31063e-08
1.7704e-06
-5.84879e-08
-2.3064e-08
-5.85384e-08
-2.31018e-08
1.61137e-06
-5.24633e-08
-5.00112e-08
1.61621e-06
-5.25299e-08
-4.99489e-08
1.62107e-06
-5.26237e-08
-4.98342e-08
1.62594e-06
-5.27238e-08
-4.97066e-08
1.63088e-06
-5.27791e-08
-4.96287e-08
-5.26292e-08
1.37526e-06
-4.11975e-08
-7.35249e-08
1.3778e-06
-4.1197e-08
-7.34225e-08
1.38031e-06
-4.12047e-08
-7.32934e-08
1.38277e-06
-4.12271e-08
-7.31459e-08
1.38525e-06
-4.12511e-08
-7.3015e-08
-4.10439e-08
1.02569e-06
-2.36163e-08
-9.31904e-08
1.02401e-06
-2.34148e-08
-9.31427e-08
1.02216e-06
-2.31763e-08
-9.30991e-08
1.02015e-06
-2.30187e-08
-9.30589e-08
1.01809e-06
-2.2934e-08
-9.30236e-08
-2.27865e-08
5.21976e-07
-1.06994e-07
5.16713e-07
-1.07092e-07
5.11637e-07
-1.07232e-07
5.06683e-07
-1.07346e-07
5.01784e-07
-1.07432e-07
-1.07469e-07
6.01902e-07
-2.89637e-09
1.18257e-07
5.96237e-07
-2.95098e-09
1.1832e-07
5.90595e-07
-3.0788e-09
1.18346e-07
5.85061e-07
-3.27161e-09
1.18324e-07
5.79634e-07
-3.45268e-09
1.18301e-07
-3.64559e-09
1.18322e-07
1.13996e-06
-8.7727e-09
1.03112e-07
1.13941e-06
-8.77905e-09
1.0315e-07
1.13883e-06
-8.79515e-09
1.03182e-07
1.13816e-06
-8.79161e-09
1.03212e-07
1.13743e-06
-8.85308e-09
1.03263e-07
1.03291e-07
1.5068e-06
-1.61801e-08
8.36799e-08
1.51055e-06
-1.61818e-08
8.36987e-08
1.51436e-06
-1.61511e-08
8.37316e-08
1.51825e-06
-1.61348e-08
8.37803e-08
-1.62498e-08
1.75308e-06
-2.31535e-08
5.95976e-08
1.75875e-06
-2.31571e-08
5.96041e-08
1.76448e-06
-2.31129e-08
5.96352e-08
1.77027e-06
-2.30907e-08
5.96772e-08
-2.31675e-08
1.89919e-06
-2.84393e-08
3.17445e-08
1.90562e-06
-2.84392e-08
3.17382e-08
1.91211e-06
-2.84206e-08
3.17542e-08
1.91864e-06
-2.84121e-08
3.17807e-08
-2.84376e-08
1.94753e-06
-3.17165e-08
1.74185e-09
1.95419e-06
-3.17183e-08
1.73662e-09
1.96089e-06
-3.17352e-08
1.74828e-09
1.96762e-06
-3.17452e-08
1.75807e-09
-3.17243e-08
1.73797e-09
1.89923e-06
-3.28576e-08
-2.84385e-08
1.90567e-06
-3.28702e-08
-2.84377e-08
1.91216e-06
-3.29185e-08
-2.8418e-08
1.9187e-06
-3.2948e-08
-2.84001e-08
-3.28836e-08
-2.84102e-08
1.75619e-06
-3.15339e-08
-5.68405e-08
1.76172e-06
-3.15388e-08
-5.68076e-08
1.76729e-06
-3.15608e-08
-5.67577e-08
1.77289e-06
-3.15574e-08
-5.67069e-08
-3.14244e-08
-5.66835e-08
1.51701e-06
-2.66678e-08
-8.16067e-08
1.52025e-06
-2.66533e-08
-8.15508e-08
1.52352e-06
-2.66321e-08
-8.149e-08
1.52684e-06
-2.66013e-08
-8.14214e-08
-2.64209e-08
-8.1373e-08
1.16054e-06
-1.66366e-08
-1.01947e-07
1.15923e-06
-1.65468e-08
-1.01938e-07
1.15787e-06
-1.64379e-08
-1.01929e-07
1.15647e-06
-1.63556e-08
-1.01912e-07
-1.62402e-08
-1.01906e-07
6.26305e-07
-1.17091e-07
6.19871e-07
-1.17204e-07
6.13511e-07
-1.1731e-07
6.07207e-07
-1.17397e-07
6.00985e-07
-1.1745e-07
6.54249e-07
7.52464e-09
1.17118e-07
6.47879e-07
7.44464e-09
1.17245e-07
6.4151e-07
7.35577e-09
1.17359e-07
6.35157e-07
7.24486e-09
1.17432e-07
6.28861e-07
7.15053e-09
1.17447e-07
7.00513e-09
1.19727e-06
9.65146e-09
1.0198e-07
1.19627e-06
9.60853e-09
1.01983e-07
1.19525e-06
9.57078e-09
1.01985e-07
1.19425e-06
9.46183e-09
1.01995e-07
1.19333e-06
1.02018e-07
1.55935e-06
8.12008e-09
8.16524e-08
1.56297e-06
8.10526e-09
8.15887e-08
1.56666e-06
8.0922e-09
8.15231e-08
7.97649e-09
8.14643e-08
1.80247e-06
5.09602e-09
5.68672e-08
1.80828e-06
5.0886e-09
5.68092e-08
1.81415e-06
5.10765e-09
5.67512e-08
5.04298e-09
5.67068e-08
1.9474e-06
1.72094e-09
2.84564e-08
1.95408e-06
1.72188e-09
2.84207e-08
1.96082e-06
1.72917e-09
2.83918e-08
1.69657e-09
2.83769e-08
1.99593e-06
-1.73455e-09
-1.72292e-09
2.00284e-06
-1.72714e-09
-1.72622e-09
2.0098e-06
-1.73573e-09
-1.7425e-09
2.01674e-06
-1.7417e-09
-1.74723e-09
-1.71661e-09
-1.71141e-09
1.94749e-06
-5.11234e-09
-3.17191e-08
1.95415e-06
-5.09877e-09
-3.17231e-08
1.96086e-06
-5.12238e-09
-3.17426e-08
1.96759e-06
-5.11906e-09
-3.17531e-08
-5.01416e-09
-3.17273e-08
1.80257e-06
-8.14338e-09
-5.95644e-08
1.80836e-06
-8.12354e-09
-5.95759e-08
1.81421e-06
-8.11937e-09
-5.96069e-08
1.82009e-06
-8.07458e-09
-5.96344e-08
-7.899e-09
-5.96206e-08
1.55941e-06
-9.68022e-09
-8.36402e-08
1.56304e-06
-9.6487e-09
-8.36593e-08
1.56675e-06
-9.62483e-09
-8.36953e-08
1.57055e-06
-9.55433e-09
-8.37426e-08
-9.3212e-09
-8.37622e-08
1.19726e-06
-7.56451e-09
-1.03091e-07
1.1963e-06
-7.4985e-09
-1.03131e-07
1.19535e-06
-7.43065e-09
-1.03169e-07
1.19443e-06
-7.34724e-09
-1.03197e-07
-7.21814e-09
-1.03195e-07
6.54064e-07
-1.18256e-07
6.47679e-07
-1.18318e-07
6.41281e-07
-1.18342e-07
6.34872e-07
-1.18335e-07
-1.18332e-07
6.32982e-07
1.66922e-08
1.06974e-07
6.26463e-07
1.66082e-08
1.0703e-07
6.20055e-07
1.64903e-08
1.07162e-07
6.13731e-07
1.63856e-08
1.07298e-07
6.07471e-07
1.63019e-08
1.07391e-07
1.61922e-08
1.07438e-07
1.16187e-06
2.67001e-08
9.32575e-08
1.16057e-06
2.66587e-08
9.32282e-08
1.15923e-06
2.66257e-08
9.31853e-08
1.15783e-06
2.66146e-08
9.31546e-08
1.15643e-06
2.65685e-08
9.3128e-08
2.63565e-08
9.31497e-08
1.5138e-06
3.15187e-08
7.36605e-08
1.51702e-06
3.15186e-08
7.35665e-08
1.52025e-06
3.15421e-08
7.34408e-08
1.52353e-06
3.15658e-08
7.32997e-08
1.52686e-06
3.15428e-08
7.31588e-08
3.13831e-08
7.31239e-08
1.75058e-06
3.28461e-08
5.00745e-08
1.75609e-06
3.2849e-08
5.0029e-08
1.76162e-06
3.28919e-08
4.9925e-08
1.7672e-06
3.29427e-08
4.97979e-08
1.77281e-06
3.29502e-08
4.96894e-08
3.28474e-08
4.97158e-08
1.89264e-06
2.31512e-08
1.89908e-06
3.171e-08
2.31606e-08
1.90552e-06
3.17465e-08
2.31227e-08
1.91201e-06
3.17722e-08
2.30743e-08
1.91852e-06
3.17728e-08
2.3046e-08
3.17326e-08
2.31251e-08
1.94741e-06
2.84319e-08
-5.09995e-09
1.95408e-06
2.84447e-08
-5.09118e-09
1.96079e-06
2.84377e-08
-5.12315e-09
1.96751e-06
2.84301e-08
-5.12798e-09
2.84517e-08
-5.02789e-09
1.8992e-06
2.31502e-08
-3.28537e-08
1.90563e-06
2.31576e-08
-3.28679e-08
1.91212e-06
2.31191e-08
-3.29191e-08
1.91865e-06
2.30965e-08
-3.29482e-08
2.31786e-08
-3.28744e-08
1.75317e-06
1.61651e-08
-5.82148e-08
1.75885e-06
1.61752e-08
-5.82769e-08
1.76459e-06
1.61522e-08
-5.83828e-08
1.7704e-06
1.61357e-08
-5.84774e-08
1.62682e-08
-5.84603e-08
1.50691e-06
8.74162e-09
-7.99142e-08
1.5107e-06
8.75333e-09
-8.00251e-08
1.51456e-06
8.75615e-09
-8.01605e-08
1.51852e-06
8.75069e-09
-8.0315e-08
8.91952e-09
-8.03779e-08
1.13994e-06
2.85748e-09
-9.6661e-08
1.13943e-06
2.90387e-09
-9.67626e-08
1.13888e-06
3.0213e-09
-9.68922e-08
1.13828e-06
3.19331e-09
-9.70348e-08
3.41243e-09
-9.70769e-08
6.01684e-07
-1.09737e-07
5.95985e-07
-1.09715e-07
5.90301e-07
-1.09638e-07
5.84697e-07
-1.09537e-07
-1.09461e-07
5.27404e-07
2.36806e-08
8.8799e-08
5.21995e-07
2.35725e-08
8.88661e-08
5.16769e-07
2.33764e-08
8.90116e-08
5.11726e-07
2.31661e-08
8.91741e-08
5.06783e-07
2.30308e-08
8.93033e-08
2.29035e-08
8.93808e-08
1.02734e-06
4.12001e-08
7.7257e-08
1.02578e-06
4.11738e-08
7.71839e-08
1.02408e-06
4.1194e-08
7.70732e-08
1.0222e-06
4.12204e-08
7.69755e-08
1.02024e-06
4.12471e-08
7.68737e-08
4.11259e-08
7.69016e-08
1.37277e-06
5.2392e-08
5.98839e-08
1.37533e-06
5.24495e-08
5.97371e-08
1.37785e-06
5.25498e-08
5.95572e-08
1.38034e-06
5.26639e-08
5.937e-08
1.38281e-06
5.27585e-08
5.91737e-08
5.26726e-08
5.91847e-08
1.60646e-06
5.81653e-08
3.95045e-08
1.61128e-06
5.82121e-08
3.94486e-08
1.6161e-06
5.83099e-08
3.93411e-08
1.62095e-06
5.84276e-08
3.91846e-08
1.62585e-06
5.85234e-08
3.90234e-08
5.84845e-08
3.90948e-08
1.74737e-06
1.61545e-08
1.753e-06
5.9562e-08
1.61784e-08
1.75867e-06
5.96024e-08
1.61612e-08
1.76439e-06
5.96468e-08
1.61373e-08
1.77017e-06
5.96809e-08
1.61123e-08
5.96653e-08
1.62458e-08
1.80246e-06
5.68426e-08
-8.11019e-09
1.80825e-06
5.68245e-08
-8.09992e-09
1.81408e-06
5.67881e-08
-8.09897e-09
1.81995e-06
5.67528e-08
-8.06517e-09
5.6751e-08
-7.89701e-09
1.7562e-06
5.00119e-08
-3.1512e-08
1.76172e-06
4.99571e-08
-3.15184e-08
1.76728e-06
4.98504e-08
-3.15424e-08
1.77288e-06
4.97476e-08
-3.1543e-08
4.9758e-08
-3.14064e-08
1.6114e-06
3.9451e-08
-5.24524e-08
1.61625e-06
3.93499e-08
-5.25181e-08
1.62112e-06
3.92115e-08
-5.26146e-08
1.62604e-06
3.90644e-08
-5.27131e-08
3.90883e-08
-5.26597e-08
1.36509e-06
2.64802e-08
-7.0029e-08
1.36822e-06
2.63765e-08
-7.01761e-08
1.37136e-06
2.62494e-08
-7.03458e-08
1.37455e-06
2.6091e-08
-7.05264e-08
2.61089e-08
-7.05516e-08
9.97419e-07
1.35297e-08
-8.27767e-08
9.96376e-07
1.35273e-08
-8.28703e-08
9.95198e-07
1.35034e-08
-8.29683e-08
9.93907e-07
1.34247e-08
-8.30775e-08
1.33974e-08
-8.30395e-08
4.86068e-07
-9.17547e-08
4.81575e-07
-9.16942e-08
4.77049e-07
-9.16082e-08
4.72455e-07
-9.15183e-08
-9.14629e-08
3.70001e-07
2.85407e-08
6.39795e-08
3.66307e-07
2.85174e-08
6.40422e-08
3.62675e-07
2.85137e-08
6.41303e-08
3.5912e-07
2.85023e-08
6.42269e-08
3.5561e-07
2.85133e-08
6.43001e-08
2.8457e-08
6.43525e-08
7.99517e-07
5.28665e-08
5.52717e-08
7.9707e-07
5.29115e-08
5.52377e-08
7.94508e-07
5.2985e-08
5.51634e-08
7.9183e-07
5.30766e-08
5.50792e-08
7.89032e-07
5.32255e-08
5.49598e-08
5.32059e-08
5.49771e-08
1.1309e-06
6.99232e-08
4.1762e-08
1.13188e-06
7.00463e-08
4.16247e-08
1.13273e-06
7.0201e-08
4.14889e-08
1.13347e-06
7.0371e-08
4.13397e-08
1.13418e-06
7.05559e-08
4.11368e-08
7.05396e-08
4.11807e-08
1.36185e-06
7.98497e-08
2.65279e-08
1.36493e-06
7.9936e-08
2.64782e-08
1.36801e-06
8.00526e-08
2.64065e-08
1.37109e-06
8.02069e-08
2.62715e-08
1.37421e-06
8.03772e-08
2.60838e-08
8.04065e-08
2.61679e-08
1.50306e-06
8.69872e-09
1.50676e-06
8.36557e-08
8.76664e-09
1.51051e-06
8.36845e-08
8.77452e-09
1.51433e-06
8.37341e-08
8.78503e-09
1.51824e-06
8.37933e-08
8.78655e-09
8.38106e-08
8.96832e-09
1.55938e-06
8.16115e-08
-9.62473e-09
1.56299e-06
8.15719e-08
-9.60465e-09
1.56666e-06
8.15216e-08
-9.55736e-09
1.57042e-06
8.1468e-08
-9.4978e-09
8.1439e-08
-9.27975e-09
1.51702e-06
7.35202e-08
-2.66227e-08
1.52025e-06
7.34285e-08
-2.66064e-08
1.52351e-06
7.33142e-08
-2.6587e-08
1.52681e-06
7.31778e-08
-2.65572e-08
7.31218e-08
-2.63715e-08
1.3753e-06
5.97166e-08
-4.11739e-08
1.37783e-06
5.95512e-08
-4.1168e-08
1.38035e-06
5.9363e-08
-4.11782e-08
1.38286e-06
5.9169e-08
-4.12141e-08
5.91349e-08
-4.11084e-08
1.13188e-06
4.15946e-08
-5.29144e-08
1.13279e-06
4.14532e-08
-5.29874e-08
1.13359e-06
4.12997e-08
-5.30801e-08
1.13433e-06
4.11214e-08
-5.322e-08
4.11174e-08
-5.32177e-08
7.71751e-07
2.2119e-08
-6.07646e-08
7.69063e-07
2.20941e-08
-6.08226e-08
7.66231e-07
2.20581e-08
-6.08951e-08
7.63259e-07
2.19926e-08
-6.09771e-08
2.20158e-08
-6.09201e-08
3.3265e-07
-6.62809e-08
3.29291e-07
-6.6241e-08
3.25942e-07
-6.62014e-08
3.22583e-07
-6.61667e-08
-6.61266e-08
1.88872e-07
3.19487e-08
3.40061e-08
1.86937e-07
3.19573e-08
3.40204e-08
1.85028e-07
3.20021e-08
3.40372e-08
1.83147e-07
3.205e-08
3.40578e-08
1.81263e-07
3.21075e-08
3.40768e-08
3.20538e-08
3.41092e-08
4.82126e-07
6.07841e-08
2.98503e-08
4.78682e-07
6.08186e-08
2.98196e-08
4.75231e-07
6.08623e-08
2.97545e-08
4.71752e-07
6.09197e-08
2.96889e-08
4.68186e-07
6.1022e-08
2.96109e-08
6.09384e-08
2.96686e-08
7.74602e-07
8.27398e-08
2.2162e-08
7.72062e-07
8.28294e-08
2.2154e-08
7.69373e-07
8.29055e-08
2.21341e-08
7.66546e-07
8.29921e-08
2.20945e-08
7.6358e-07
8.31234e-08
8.30501e-08
9.98564e-07
9.66232e-08
1.35216e-08
9.97596e-07
9.6697e-08
1.35783e-08
9.96501e-07
9.67947e-08
1.3613e-08
9.95271e-07
9.69123e-08
1.35808e-08
9.93944e-07
9.70647e-08
1.34703e-08
9.70922e-08
1.14049e-06
2.83122e-09
1.13991e-06
1.03113e-07
2.9352e-09
1.13933e-06
1.03154e-07
2.99571e-09
1.13874e-06
1.03196e-07
3.09411e-09
1.13811e-06
1.03227e-07
3.25123e-09
1.0322e-07
1.1973e-06
1.01961e-07
-7.49068e-09
1.19631e-06
1.01954e-07
-7.41716e-09
1.19533e-06
1.01948e-07
-7.33361e-09
1.19438e-06
1.01936e-07
-7.25897e-09
1.01943e-07
-7.14024e-09
1.16062e-06
9.31878e-08
-1.65776e-08
1.1593e-06
9.31427e-08
-1.64824e-08
1.15794e-06
9.30971e-08
-1.63703e-08
1.15656e-06
9.30478e-08
-1.62867e-08
9.30596e-08
-1.61837e-08
1.02573e-06
7.71297e-08
-2.35829e-08
1.02406e-06
7.70244e-08
-2.33862e-08
1.02223e-06
7.69114e-08
-2.31531e-08
1.02027e-06
7.67954e-08
-2.30042e-08
7.68162e-08
-2.28777e-08
7.96953e-07
5.51882e-08
-2.85411e-08
7.94412e-07
5.51073e-08
-2.85294e-08
7.91744e-07
5.50041e-08
-2.85043e-08
7.88937e-07
5.48839e-08
-2.85015e-08
5.48971e-08
-2.84507e-08
4.78564e-07
2.98239e-08
-3.19311e-08
4.75046e-07
2.97676e-08
-3.19647e-08
4.71499e-07
2.96801e-08
-3.20244e-08
4.67897e-07
2.95943e-08
-3.2085e-08
2.9633e-08
-3.20448e-08
1.74632e-07
-3.46337e-08
1.72808e-07
-3.46498e-08
1.70964e-07
-3.46778e-08
1.6909e-07
-3.46978e-08
-3.46867e-08
5.80029e-08
3.46649e-08
5.7353e-08
3.46703e-08
5.66988e-08
3.46915e-08
5.60445e-08
3.47121e-08
5.53903e-08
3.4731e-08
3.47137e-08
1.76528e-07
6.6351e-08
1.74716e-07
6.63012e-08
1.72902e-07
6.62601e-08
1.71077e-07
6.62269e-08
1.6921e-07
3.36144e-07
9.18346e-08
3.32851e-07
9.17484e-08
3.29581e-07
9.16642e-08
9.15918e-08
4.90848e-07
1.09711e-07
4.86476e-07
1.09699e-07
4.82092e-07
1.09661e-07
4.77668e-07
1.09596e-07
1.09515e-07
6.0781e-07
6.02221e-07
1.18223e-07
5.9661e-07
1.18268e-07
5.91006e-07
1.18294e-07
1.18308e-07
6.54446e-07
1.17084e-07
6.48121e-07
1.17176e-07
6.41798e-07
1.17283e-07
6.35473e-07
1.17375e-07
1.17437e-07
6.26547e-07
1.06992e-07
6.20168e-07
1.07073e-07
6.13883e-07
1.07198e-07
6.07666e-07
1.07305e-07
1.07367e-07
5.22099e-07
8.87946e-08
5.16871e-07
8.89142e-08
5.1183e-07
8.90866e-08
5.06897e-07
8.92331e-08
8.93194e-08
3.66305e-07
6.39614e-08
3.62647e-07
6.40427e-08
3.59076e-07
6.41526e-08
3.55573e-07
6.42353e-08
6.42899e-08
1.86918e-07
3.39879e-08
1.84995e-07
3.40006e-08
1.83103e-07
3.402e-08
1.81215e-07
3.4039e-08
3.40714e-08
5.73364e-08
5.66872e-08
5.60293e-08
5.53706e-08
)
;

boundaryField
{
    inlet
    {
        type            calculated;
        value           nonuniform List<scalar> 0();
    }
    ami1
    {
        type            cyclicAMI;
        value           nonuniform List<scalar> 0();
    }
    walls
    {
        type            calculated;
        value           nonuniform List<scalar> 
250
(
2.90979e-14
2.43942e-14
1.84387e-14
1.28555e-14
6.40674e-15
-4.06869e-22
-6.40674e-15
-1.28555e-14
-1.84387e-14
-2.43942e-14
-2.90979e-14
2.90979e-14
2.43942e-14
1.84387e-14
1.28555e-14
6.40674e-15
-4.02217e-22
-6.40674e-15
-1.28555e-14
-1.84387e-14
-2.43942e-14
-2.90979e-14
2.90979e-14
2.43942e-14
1.84387e-14
1.28555e-14
6.40674e-15
-4.05835e-22
-6.40674e-15
-1.28555e-14
-1.84387e-14
-2.43942e-14
-2.90979e-14
2.90979e-14
2.43942e-14
1.84387e-14
1.28555e-14
6.40674e-15
-4.05835e-22
-6.40674e-15
-1.28555e-14
-1.84387e-14
-2.43942e-14
-2.90979e-14
2.90979e-14
2.43942e-14
1.84387e-14
1.28555e-14
6.40674e-15
-4.05835e-22
-6.40674e-15
-1.28555e-14
-1.84387e-14
-2.43942e-14
-2.90979e-14
1.28555e-14
6.40674e-15
-4.05577e-22
-6.40674e-15
-1.28555e-14
-1.84387e-14
-2.43942e-14
-2.90979e-14
-4.05835e-22
-6.40674e-15
-1.28555e-14
-1.84387e-14
2.90979e-14
2.43942e-14
1.84387e-14
1.28555e-14
6.40674e-15
-4.06869e-22
-6.40674e-15
-1.28555e-14
-1.84387e-14
-2.43942e-14
-2.90979e-14
2.90979e-14
2.43942e-14
1.84387e-14
1.28555e-14
6.40674e-15
-4.02217e-22
-6.40674e-15
-1.28555e-14
-1.84387e-14
-2.43942e-14
-2.90979e-14
2.90979e-14
2.43942e-14
1.84387e-14
1.28555e-14
6.40674e-15
-4.05835e-22
-6.40674e-15
-1.28555e-14
-1.84387e-14
-2.43942e-14
-2.90979e-14
2.90979e-14
2.43942e-14
1.84387e-14
1.28555e-14
6.40674e-15
-4.05835e-22
-6.40674e-15
-1.28555e-14
-1.84387e-14
-2.43942e-14
-2.90979e-14
2.90979e-14
2.43942e-14
1.84387e-14
1.28555e-14
6.40674e-15
-4.05835e-22
-6.40674e-15
-1.28555e-14
-1.84387e-14
-2.43942e-14
-2.90979e-14
2.90979e-14
2.43942e-14
1.84387e-14
1.28555e-14
6.40674e-15
-2.90979e-14
-2.43942e-14
-1.84387e-14
-1.28555e-14
-6.40674e-15
-2.90979e-14
-2.43942e-14
-1.84387e-14
-1.28555e-14
-6.40674e-15
-6.71826e-22
6.40674e-15
1.28555e-14
1.84387e-14
2.43942e-14
2.90979e-14
-2.90979e-14
-2.43942e-14
-1.84387e-14
-1.28555e-14
-6.40674e-15
-6.64039e-22
6.40674e-15
1.28555e-14
1.84387e-14
2.43942e-14
2.90979e-14
-2.90979e-14
-2.43942e-14
-1.84387e-14
-1.28555e-14
-6.40674e-15
-6.71826e-22
6.40674e-15
1.28555e-14
1.84387e-14
2.43942e-14
2.90979e-14
-2.90979e-14
-2.43942e-14
-1.28555e-14
-6.40674e-15
-6.71826e-22
6.40674e-15
1.28555e-14
1.84387e-14
2.43942e-14
2.90979e-14
-2.90979e-14
-2.43942e-14
-6.71826e-22
6.40674e-15
1.28555e-14
1.84387e-14
2.43942e-14
2.90979e-14
6.40674e-15
1.28555e-14
1.84387e-14
2.43942e-14
2.90979e-14
-2.90979e-14
-2.43942e-14
-1.84387e-14
-1.28555e-14
-6.40674e-15
-6.71826e-22
6.40674e-15
1.28555e-14
1.84387e-14
2.43942e-14
2.90979e-14
-2.90979e-14
-2.43942e-14
-1.84387e-14
-1.28555e-14
-6.40674e-15
-6.64039e-22
6.40674e-15
1.28555e-14
1.84387e-14
2.43942e-14
2.90979e-14
-2.90979e-14
-2.43942e-14
-1.84387e-14
-1.28555e-14
-6.40674e-15
-6.71826e-22
6.40674e-15
1.28555e-14
1.84387e-14
2.43942e-14
2.90979e-14
-2.90979e-14
-2.43942e-14
-1.84387e-14
-1.28555e-14
-6.40674e-15
-6.71826e-22
6.40674e-15
1.28555e-14
1.84387e-14
2.43942e-14
2.90979e-14
-2.90979e-14
-2.43942e-14
-1.84387e-14
-1.28555e-14
-6.40674e-15
-6.71826e-22
6.40674e-15
1.28555e-14
1.84387e-14
2.43942e-14
2.90979e-14
-2.43942e-14
-1.84387e-14
-1.28555e-14
-6.40674e-15
-6.71826e-22
-1.84387e-14
-1.28555e-14
)
;
    }
    ami2
    {
        type            cyclicAMI;
        value           nonuniform List<scalar> 0();
    }
    outlet
    {
        type            calculated;
        value           nonuniform List<scalar> 0();
    }
    procBoundary5to6
    {
        type            processor;
        value           nonuniform List<scalar> 
177
(
5.47105e-08
-3.46951e-08
1.79215e-07
3.51888e-07
8.94049e-08
-2.84382e-08
4.96867e-07
5.94974e-07
1.17566e-07
6.16375e-07
6.64969e-09
5.68583e-07
-3.81011e-09
4.58904e-07
3.12876e-07
-6.60714e-08
1.65531e-07
2.97234e-08
5.41418e-08
1.65489e-07
-2.96809e-08
-6.59764e-08
4.6436e-07
5.49071e-08
-6.08948e-08
7.8326e-07
1.01614e-06
1.15375e-06
1.1927e-06
1.13693e-06
9.72102e-08
9.89567e-07
-2.6198e-08
7.53931e-07
-4.11769e-08
4.57079e-07
-3.19917e-08
1.77621e-07
3.13065e-07
-2.22678e-08
7.57543e-07
-8.29195e-08
1.13555e-06
1.38755e-06
1.5334e-06
1.57818e-06
1.52644e-06
-1.63321e-08
1.38073e-06
1.1355e-06
5.31455e-08
7.80019e-07
-2.83343e-08
-7.68884e-08
3.48728e-07
4.59348e-07
1.09323e-07
9.89692e-07
-2.63064e-08
9.71545e-08
1.38042e-06
8.04677e-08
1.63558e-06
5.85074e-08
1.78398e-06
3.28694e-08
1.83178e-06
-5.9614e-08
4.95945e-09
1.77624e-06
5.84658e-08
1.63572e-06
-4.96941e-08
1.38765e-06
-7.30161e-08
1.01607e-06
-9.30348e-08
4.96974e-07
5.74313e-07
1.13675e-06
-9.09141e-09
1.52227e-06
8.38278e-08
1.77607e-06
5.96902e-08
1.92511e-06
3.17793e-08
1.97428e-06
1.92517e-06
1.77849e-06
1.53019e-06
1.15518e-06
1.59942e-08
5.95004e-07
-1.17481e-07
6.2269e-07
1.17488e-07
9.32292e-09
1.19249e-06
9.11204e-09
1.02019e-07
1.57046e-06
-8.14482e-08
1.82005e-06
-5.67205e-08
1.96757e-06
-1.6459e-09
-2.84101e-08
2.02355e-06
1.97421e-06
1.82591e-06
1.57436e-06
1.19361e-06
6.28535e-07
6.01288e-07
1.15514e-06
1.53016e-06
1.77835e-06
1.92492e-06
1.97411e-06
1.92507e-06
1.77615e-06
1.52248e-06
1.13767e-06
5.79238e-07
5.01937e-07
1.01827e-06
1.38521e-06
1.63066e-06
1.77586e-06
1.82573e-06
1.7784e-06
1.63091e-06
1.3777e-06
9.92581e-07
4.67855e-07
3.52181e-07
7.86207e-07
1.13485e-06
1.37727e-06
1.52212e-06
1.57418e-06
1.53009e-06
1.38529e-06
1.13501e-06
7.60242e-07
3.19263e-07
1.79453e-07
4.6461e-07
2.20016e-08
7.60594e-07
2.20549e-08
9.92608e-07
1.34619e-08
1.13748e-06
3.46978e-09
1.19352e-06
1.15525e-06
1.01828e-06
7.86089e-07
4.64286e-07
1.67283e-07
5.47858e-08
6.62084e-08
1.67435e-07
6.61579e-08
3.26311e-07
-9.15295e-08
4.73154e-07
5.85464e-07
-1.18337e-07
6.29233e-07
6.01552e-07
5.02067e-07
3.52152e-07
1.79388e-07
5.47552e-08
)
;
    }
    procBoundary5to7
    {
        type            processor;
        value           nonuniform List<scalar> 
131
(
-5.79694e-08
-1.88796e-07
-3.69828e-07
-5.27126e-07
-6.32568e-07
-6.60232e-07
-6.07151e-07
-4.90406e-07
-3.35922e-07
-1.76413e-07
-5.7972e-08
-1.76451e-07
-4.8203e-07
-7.99408e-07
-1.02726e-06
-1.16181e-06
-1.19823e-06
-1.14053e-06
-9.98397e-07
-7.74302e-07
-4.81992e-07
-1.88843e-07
-3.36086e-07
-7.74407e-07
-1.13091e-06
-1.3728e-06
-1.51392e-06
-1.55596e-06
-1.5033e-06
-1.36204e-06
-1.1309e-06
-7.99392e-07
-3.69973e-07
-4.90666e-07
-9.98511e-07
-1.36188e-06
-1.60653e-06
-1.75079e-06
-1.79694e-06
-1.74758e-06
-1.60657e-06
-1.37273e-06
-1.02723e-06
-5.27398e-07
-6.07537e-07
-1.14053e-06
-1.50312e-06
-1.74745e-06
-1.89277e-06
-1.94088e-06
-1.8928e-06
-1.75069e-06
-1.51379e-06
-1.16182e-06
-6.32844e-07
-6.60635e-07
-1.17006e-07
-1.19826e-06
-1.01981e-07
-1.5558e-06
-8.17123e-08
-1.79671e-06
-5.69062e-08
-1.94074e-06
-2.84676e-08
-1.98901e-06
-1.94083e-06
-1.79681e-06
-1.55583e-06
-1.19823e-06
-6.60463e-07
-6.39643e-07
-1.16315e-06
-1.51056e-06
-1.74508e-06
-1.88618e-06
3.16971e-08
-1.94075e-06
-1.89278e-06
-1.74753e-06
-1.50321e-06
-1.14049e-06
-6.07346e-07
-5.32909e-07
-1.02886e-06
-1.37019e-06
-1.60166e-06
-1.74176e-06
5.95503e-08
-1.79673e-06
-1.75071e-06
-1.6066e-06
-1.36201e-06
-9.98353e-07
-4.90521e-07
-3.73722e-07
-8.01858e-07
-1.12984e-06
-1.3588e-06
-1.49941e-06
8.36564e-08
-1.55582e-06
-1.51382e-06
-1.37278e-06
-1.13087e-06
-7.74288e-07
-3.36005e-07
-1.90848e-07
-4.8554e-07
-7.76957e-07
-9.99441e-07
-1.14111e-06
1.03103e-07
-1.19828e-06
-1.16189e-06