/*--------------------------------*- C++ -*----------------------------------*\
| =========                 |                                                 |
| \\      /  F ield         | OpenFOAM: The Open Source CFD Toolbox           |
|  \\    /   O peration     | Version:  2212                                  |
|   \\  /    A nd           | Website:  www.openfoam.com                      |
|    \\/     M anipulation  |                                                 |
\*---------------------------------------------------------------------------*/
FoamFile
{
    version     2.0;
    format      ascii;
    arch        "LSB;label=32;scalar=64";
    class       volVectorField;
    location    "1.45";
    object      U;
}
// * * * * * * * * * * * * * * * * * * * * * * * * * * * * * * * * * * * * * //

dimensions      [0 1 -1 0 0 0 0];

internalField   nonuniform List<vector> 
678
(
(0.0228148 1.70524e-05 5.405e-05)
(0.0225591 1.59615e-05 5.39986e-05)
(0.0223031 1.38241e-05 5.33169e-05)
(0.0220405 1.22614e-05 5.23845e-05)
(0.0217826 1.1189e-05 5.16213e-05)
(0.0385522 -0.000137826 0.000176567)
(0.0381485 -0.000135663 0.000169989)
(0.0377631 -0.00013517 0.000160598)
(0.0373738 -0.00013509 0.00015207)
(0.0369904 -0.000137089 0.000148053)
(0.0534887 -0.000460384 0.000192901)
(0.0529414 -0.00044347 0.000183326)
(0.0524266 -0.000419202 0.000166078)
(0.0519087 -0.000398189 0.00015132)
(0.0514044 -0.000387489 0.000144566)
(0.0623006 -0.000873761 0.000194199)
(0.0616573 -0.000813065 0.000168846)
(0.0610576 -0.000746011 0.000136155)
(0.0604616 -0.000700219 0.000114632)
(0.0598859 -0.00067394 0.000102728)
(0.059318 -0.000654642 9.45555e-05)
(0.0670653 -0.00110193 0.000132218)
(0.0663742 -0.00108262 0.000122587)
(0.0657043 -0.00106023 0.000110821)
(0.0650318 -0.00103768 9.91604e-05)
(0.0643749 -0.00101566 9.00545e-05)
(0.0637276 -0.000962355 7.68079e-05)
(0.0676472 -0.00108859 7.34241e-05)
(0.0669926 -0.00107542 5.53515e-05)
(0.0663405 -0.00105964 3.85827e-05)
(0.0656815 -0.00103691 2.35964e-05)
(0.0650295 -0.00101296 1.18574e-05)
(0.064388 -0.000974331 2.02047e-06)
(0.0637513 -0.000899465 -9.34396e-06)
(0.0644021 -0.000904456 -3.75948e-05)
(0.0637918 -0.000889687 -4.35448e-05)
(0.0631922 -0.000842058 -4.14095e-05)
(0.0625865 -0.000764327 -3.75985e-05)
(0.0620104 -0.000696666 -3.52745e-05)
(0.0614433 -0.000651295 -3.43814e-05)
(0.060866 -0.000624731 -3.61951e-05)
(0.0579958 -0.000473043 -5.94421e-05)
(0.0574566 -0.000461252 -5.53542e-05)
(0.0569389 -0.000448556 -4.51967e-05)
(0.0563939 -0.000440272 -3.30738e-05)
(0.0558605 -0.000438308 -2.28324e-05)
(0.0553201 -0.000435524 -1.2881e-05)
(0.0547876 -0.000432625 -5.66654e-06)
(0.0485855 -0.000299463 -5.68886e-05)
(0.0480883 -0.000291223 -4.78993e-05)
(0.0476196 -0.000281798 -3.62493e-05)
(0.0471306 -0.000275316 -2.42704e-05)
(0.0466564 -0.000273746 -1.43606e-05)
(0.046173 -0.000269851 -4.85444e-06)
(0.0457106 -0.000265085 8.84324e-07)
(0.036024 -8.04925e-05 4.93227e-05)
(0.035648 -8.28412e-05 4.9367e-05)
(0.0352826 -8.78366e-05 4.80437e-05)
(0.0349065 -9.16349e-05 4.78366e-05)
(0.0345301 -9.46731e-05 4.81741e-05)
(0.0341631 -9.27604e-05 4.94553e-05)
(0.0228159 -5.45347e-05 1.74868e-05)
(0.0225608 -5.40457e-05 1.58999e-05)
(0.0223056 -5.27979e-05 1.32324e-05)
(0.0220467 -5.09614e-05 1.13095e-05)
(0.0217907 -4.9826e-05 9.44669e-06)
(0.021545 -4.72207e-05 8.38444e-06)
(0.0360323 4.79783e-05 7.9979e-05)
(0.0356563 4.87092e-05 8.27638e-05)
(0.0352903 4.78999e-05 8.84644e-05)
(0.0349087 4.78724e-05 9.41406e-05)
(0.0345287 4.84534e-05 9.95399e-05)
(0.0341427 5.49763e-05 9.16391e-05)
(0.0682365 -0.000156229 0.000286356)
(0.0677283 -0.000160196 0.000301866)
(0.0672454 -0.000170804 0.000321432)
(0.0667356 -0.000180433 0.000336861)
(0.0662304 -0.000179816 0.000335673)
(0.0897169 -0.000663971 0.00038395)
(0.0894347 -0.000669007 0.000404078)
(0.0891456 -0.000676781 0.00042439)
(0.0888359 -0.000680715 0.000438628)
(0.0885202 -0.0006903 0.000456444)
(0.0882043 -0.000675675 0.000450352)
(0.0994489 -0.00106875 0.000314166)
(0.0992964 -0.00106239 0.000325919)
(0.0991225 -0.0010564 0.000336335)
(0.0989372 -0.00105145 0.000344811)
(0.0987414 -0.00105006 0.000354245)
(0.0985448 -0.00101867 0.000349372)
(0.103519 -0.00131266 0.000311765)
(0.103404 -0.00130079 0.000313651)
(0.103282 -0.00128761 0.000315772)
(0.103163 -0.00128145 0.000319858)
(0.103035 -0.00127183 0.000324739)
(0.102917 -0.00123383 0.000320152)
(0.103951 -0.0013364 0.000289092)
(0.103866 -0.00132239 0.000285397)
(0.103782 -0.00130611 0.000280817)
(0.103704 -0.00129594 0.000277311)
(0.103621 -0.00128342 0.00027315)
(0.103547 -0.00124304 0.000264301)
(0.101657 -0.00111938 0.000155769)
(0.101613 -0.00111594 0.000145255)
(0.101563 -0.00111222 0.000132863)
(0.101515 -0.00111784 0.000119586)
(0.101451 -0.00112399 0.000106323)
(0.101389 -0.0010863 9.52954e-05)
(0.0966832 -0.000861826 -7.25634e-05)
(0.0965923 -0.000874402 -8.65728e-05)
(0.0964832 -0.000888165 -0.000100626)
(0.0963634 -0.000905391 -0.000116201)
(0.0962293 -0.000930232 -0.000133849)
(0.0960935 -0.000929812 -0.000144454)
(0.0959341 -0.000895748 -0.000144546)
(0.0868897 -0.000660119 -0.000284023)
(0.086592 -0.000679071 -0.000290951)
(0.0862893 -0.000698075 -0.000296439)
(0.0859583 -0.000712569 -0.000299543)
(0.0856216 -0.000726046 -0.000302631)
(0.0852768 -0.000719629 -0.000296013)
(0.0849107 -0.000694066 -0.000281428)
(0.0682308 -0.000288974 -0.00015397)
(0.0677206 -0.000303487 -0.000159117)
(0.0672368 -0.000321246 -0.000170722)
(0.0667274 -0.000331783 -0.000179614)
(0.0662251 -0.000344135 -0.000191788)
(0.0657085 -0.000342825 -0.000195071)
(0.0651969 -0.000316262 -0.000178781)
(0.0385622 -0.000176951 -0.000137302)
(0.0381597 -0.000169339 -0.000135688)
(0.0377755 -0.000158462 -0.000135628)
(0.037391 -0.000147547 -0.000135104)
(0.0370107 -0.000137672 -0.000134297)
(0.0366459 -0.000125376 -0.000130799)
(0.0486101 -5.76226e-05 0.000298907)
(0.0481166 -4.82124e-05 0.00029105)
(0.0476495 -3.65697e-05 0.000282441)
(0.0471623 -2.54779e-05 0.000278825)
(0.046683 -1.90519e-05 0.000285131)
(0.0462042 -8.42028e-06 0.000283296)
(0.0457158 1.18337e-05 0.000260857)
(0.0869021 -0.000286311 0.000657952)
(0.0866076 -0.000292081 0.00067784)
(0.0863063 -0.000296328 0.000698069)
(0.0859805 -0.000298395 0.000714802)
(0.0856489 -0.000300383 0.000731801)
(0.0853207 -0.000278797 0.000698647)
(0.106448 -0.000746525 0.000776904)
(0.106543 -0.000760959 0.000804084)
(0.106614 -0.000774935 0.00083294)
(0.106686 -0.000787897 0.000861427)
(0.106745 -0.000800202 0.000888709)
(0.106803 -0.000789239 0.00087958)
(0.114909 -0.00109215 0.000572965)
(0.115122 -0.00109463 0.000589498)
(0.115328 -0.00109672 0.000610143)
(0.115538 -0.00110368 0.000635118)
(0.115741 -0.00111084 0.000658767)
(0.115936 -0.00109205 0.000657024)
(0.118463 -0.00128888 0.000435156)
(0.118715 -0.00128659 0.000445963)
(0.118966 -0.00128443 0.000459018)
(0.11922 -0.00128036 0.000472152)
(0.119478 -0.00127277 0.000484595)
(0.119732 -0.00124539 0.000486687)
(0.11911 -0.00131247 0.000265838)
(0.119384 -0.00131095 0.000268616)
(0.119662 -0.00130896 0.000269633)
(0.119946 -0.00130343 0.000268801)
(0.120237 -0.00129319 0.000266642)
(0.120525 -0.00126287 0.00026354)
(0.117652 -0.00118503 1.3271e-06)
(0.117945 -0.00118335 -7.40323e-06)
(0.11824 -0.00118479 -2.07381e-05)
(0.118544 -0.00118829 -3.66059e-05)
(0.11885 -0.00118921 -5.24658e-05)
(0.119155 -0.00116483 -6.2383e-05)
(0.114033 -0.000979399 -0.000387982)
(0.114295 -0.000993623 -0.000404934)
(0.11455 -0.00101031 -0.000424741)
(0.114816 -0.00103411 -0.000446755)
(0.115074 -0.00105937 -0.000467116)
(0.115332 -0.0010494 -0.000471062)
(0.106446 -0.000780615 -0.000747871)
(0.106543 -0.000807853 -0.00076324)
(0.106615 -0.000836471 -0.000777903)
(0.106684 -0.000862861 -0.000790555)
(0.106742 -0.000891401 -0.000804779)
(0.1068 -0.000886592 -0.000795855)
(0.0897152 -0.00038674 -0.000662845)
(0.0894315 -0.000405678 -0.000668816)
(0.0891416 -0.000424668 -0.000677741)
(0.0888274 -0.000436457 -0.000681983)
(0.088506 -0.000452043 -0.000692845)
(0.0881749 -0.000452523 -0.000688088)
(0.087823 -0.000434789 -0.000661403)
(0.0535097 -0.000192176 -0.000461187)
(0.052963 -0.000181498 -0.000445193)
(0.0524478 -0.00016275 -0.000420918)
(0.0519313 -0.000144915 -0.000398253)
(0.0514302 -0.000129341 -0.000381568)
(0.0509424 -0.000115678 -0.000369647)
(0.0580286 -5.62142e-05 0.000471112)
(0.0574959 -5.20978e-05 0.000458814)
(0.0569813 -4.21687e-05 0.00044601)
(0.056442 -3.06477e-05 0.000438571)
(0.0559117 -2.0921e-05 0.000439569)
(0.0553765 -1.39377e-05 0.000443238)
(0.0548393 -3.42506e-06 0.000437697)
(0.0966958 -7.26044e-05 0.000860406)
(0.0966036 -8.61638e-05 0.000874499)
(0.0964917 -9.8992e-05 0.000888555)
(0.096372 -0.00011304 0.000908392)
(0.0962361 -0.00012688 0.000934275)
(0.0960991 -0.000132412 0.000924598)
(0.09595 -0.000133553 0.000879474)
(0.114017 -0.000390898 0.000982168)
(0.114275 -0.000405481 0.000991782)
(0.114529 -0.000424464 0.00100854)
(0.114791 -0.000444862 0.00103119)
(0.115051 -0.000462927 0.00105221)
(0.115304 -0.000464701 0.00103591)
(0.121758 -0.000657944 0.000699662)
(0.122123 -0.000666984 0.000709604)
(0.122487 -0.000680611 0.000728297)
(0.122856 -0.000695625 0.000750054)
(0.123225 -0.00070335 0.000760494)
(0.123589 -0.000691932 0.000743679)
(0.125214 -0.000827872 0.000447126)
(0.125609 -0.000829539 0.000453591)
(0.126002 -0.000835209 0.000463625)
(0.1264 -0.000841272 0.000474936)
(0.126798 -0.000838581 0.000480788)
(0.127191 -0.000816959 0.000473215)
(0.126091 -0.000872081 0.000141135)
(0.126496 -0.000869617 0.000142686)
(0.126902 -0.000872255 0.00014406)
(0.127312 -0.000874744 0.000145116)
(0.127722 -0.000865852 0.00014537)
(0.128127 -0.000838336 0.000143746)
(0.12499 -0.000815427 -0.000220436)
(0.125395 -0.000815502 -0.000225499)
(0.125801 -0.000823811 -0.000233889)
(0.126212 -0.000830714 -0.000242526)
(0.126625 -0.000822545 -0.000246435)
(0.121762 -0.000697862 -0.000656045)
(0.122128 -0.000708389 -0.000665195)
(0.122493 -0.000728649 -0.000679342)
(0.122863 -0.000750615 -0.000692922)
(0.123233 -0.000764658 -0.000698885)
(0.123597 -0.000753283 -0.000686573)
(0.114904 -0.000575577 -0.00109286)
(0.115119 -0.000591766 -0.00109538)
(0.115325 -0.000612817 -0.00109803)
(0.115536 -0.000638339 -0.00110454)
(0.115742 -0.000663115 -0.00110889)
(0.115939 -0.000662401 -0.00108469)
(0.0994465 -0.000315755 -0.00106722)
(0.099295 -0.000326722 -0.00106186)
(0.099122 -0.00033679 -0.0010579)
(0.0989346 -0.000344636 -0.00105293)
(0.098738 -0.000353446 -0.00104839)
(0.0985367 -0.00034779 -0.00101064)
(0.0623319 -0.000193856 -0.0008783)
(0.0616867 -0.000168243 -0.000819232)
(0.0610829 -0.000134287 -0.000750711)
(0.0604845 -0.000110684 -0.000703633)
(0.0599051 -9.47834e-05 -0.000676165)
(0.0593361 -8.83386e-05 -0.000655719)
(0.0644451 -3.05419e-05 0.000896397)
(0.0638414 -3.7115e-05 0.000881375)
(0.0632434 -3.7124e-05 0.000840287)
(0.0626389 -3.37857e-05 0.000766033)
(0.0620636 -3.08642e-05 0.000695949)
(0.0614976 -3.23702e-05 0.000654)
(0.101654 0.000156064 0.0011174)
(0.101606 0.000145615 0.00111424)
(0.101553 0.000134057 0.00111052)
(0.101502 0.000123089 0.00111752)
(0.101439 0.000111844 0.00112248)
(0.101367 0.00010066 0.001083)
(0.117637 -4.68058e-06 0.00118185)
(0.117927 -1.32003e-05 0.00118378)
(0.118221 -2.50938e-05 0.00118684)
(0.118525 -3.93083e-05 0.00118849)
(0.11883 -5.31589e-05 0.00117194)
(0.12498 -0.000225346 0.000816386)
(0.125385 -0.000230079 0.000816131)
(0.125791 -0.000238424 0.000824563)
(0.126203 -0.000248157 0.000828875)
(0.126613 -0.000255118 0.000815116)
(0.128398 -0.000373134 0.000458729)
(0.128835 -0.000373545 0.00045814)
(0.129272 -0.000377642 0.000462364)
(0.129712 -0.000382313 0.00046496)
(0.13015 -0.000383102 0.00045938)
(0.129386 -0.000441096 6.01914e-05)
(0.129831 -0.000439711 6.03045e-05)
(0.130275 -0.000442221 6.09448e-05)
(0.130721 -0.000443836 6.13604e-05)
(0.131165 -0.000439176 6.07594e-05)
(0.128401 -0.00045866 -0.000370051)
(0.128839 -0.000458463 -0.000370436)
(0.129276 -0.00046315 -0.000373923)
(0.129716 -0.000467554 -0.000376295)
(0.130155 -0.000464937 -0.000372377)
(0.125207 -0.000446058 -0.000826226)
(0.125602 -0.000453275 -0.000827693)
(0.125997 -0.000465195 -0.000834187)
(0.126397 -0.000476763 -0.00083652)
(0.126794 -0.000480348 -0.000822286)
(0.118453 -0.000435559 -0.00128849)
(0.118706 -0.0004469 -0.00128665)
(0.118959 -0.000460518 -0.00128456)
(0.119218 -0.000475235 -0.001279)
(0.119476 -0.000484346 -0.001256)
(0.103521 -0.00031161 -0.00130849)
(0.103407 -0.000314929 -0.00130181)
(0.103287 -0.00031824 -0.00129285)
(0.103165 -0.000323525 -0.00128624)
(0.103042 -0.000323371 -0.0012585)
(0.0670909 -0.00013518 -0.00110689)
(0.0663972 -0.000124861 -0.00108803)
(0.0657215 -0.000112931 -0.00106545)
(0.0650448 -0.000100667 -0.00104386)
(0.0643873 -9.10367e-05 -0.00102453)
(0.063722 -8.13584e-05 -0.0009702)
(0.0676869 7.74959e-05 0.00108603)
(0.0670328 5.79769e-05 0.00107253)
(0.0663752 3.91259e-05 0.00105279)
(0.065725 2.39155e-05 0.00102838)
(0.0650697 1.51165e-05 0.00100553)
(0.0644334 5.28128e-06 0.000975631)
(0.103954 0.000284567 0.00132717)
(0.103867 0.000280663 0.00131493)
(0.103781 0.000277104 0.00130787)
(0.103694 0.000273475 0.00129592)
(0.103605 0.000268771 0.00127767)
(0.103525 0.000261506 0.00123941)
(0.119097 0.000258188 0.00130888)
(0.11937 0.000261817 0.0013084)
(0.11965 0.000264275 0.00130366)
(0.119935 0.000263704 0.00128469)
(0.126075 0.000135791 0.00086913)
(0.126481 0.000139053 0.000867287)
(0.12689 0.000141868 0.000870316)
(0.1273 0.00014133 0.000859072)
(0.129377 5.6396e-05 0.000438344)
(0.129822 5.88097e-05 0.000436957)
(0.130269 6.04907e-05 0.0004382)
(0.130715 5.94195e-05 0.000432495)
(0.13037 -1.19682e-06 -6.11992e-07)
(0.130824 -6.71272e-07 -1.66334e-07)
(0.131277 -3.64813e-07 -2.16755e-09)
(0.131731 -8.47315e-07 -1.3447e-06)
(0.13218 -1.93748e-06 -3.27409e-06)
(0.129383 -5.98735e-05 -0.000439871)
(0.129828 -5.97969e-05 -0.000437997)
(0.130272 -6.02444e-05 -0.000439845)
(0.130719 -6.07805e-05 -0.000440096)
(0.131161 -6.06844e-05 -0.000432481)
(0.126082 -0.000140175 -0.000870922)
(0.126488 -0.000141848 -0.000868106)
(0.126895 -0.000143933 -0.000871597)
(0.127306 -0.000145555 -0.000869985)
(0.127714 -0.000145532 -0.000849659)
(0.1191 -0.000264581 -0.00131213)
(0.119375 -0.000267896 -0.0013116)
(0.119655 -0.000270128 -0.00131024)
(0.119943 -0.000271537 -0.00130212)
(0.120233 -0.000271191 -0.00127599)
(0.103952 -0.000289705 -0.00133147)
(0.103868 -0.000286763 -0.0013221)
(0.103785 -0.000283941 -0.00131575)
(0.103703 -0.000282143 -0.00130493)
(0.103626 -0.000279031 -0.00126945)
(0.067669 -8.07244e-05 -0.00109178)
(0.067012 -6.23267e-05 -0.00107964)
(0.0663547 -4.40602e-05 -0.00106378)
(0.0656972 -2.71957e-05 -0.00104353)
(0.0650455 -1.41137e-05 -0.00102562)
(0.0678129 0.000142021 0.00111748)
(0.0671053 0.000130601 0.00110152)
(0.0664192 0.000116086 0.0010796)
(0.0657379 0.000101989 0.00105503)
(0.0650758 9.12027e-05 0.00103352)
(0.0644161 8.87228e-05 0.00101784)
(0.103639 0.000306138 0.00132185)
(0.103525 0.000307023 0.00130945)
(0.103408 0.000307283 0.00129716)
(0.103288 0.000309089 0.0012928)
(0.10316 0.000310709 0.00128531)
(0.103037 0.000304764 0.00125115)
(0.118202 0.000418071 0.00128727)
(0.118454 0.000429133 0.00128579)
(0.118706 0.000442355 0.0012854)
(0.118961 0.000456189 0.00128297)
(0.119218 0.000469614 0.00127556)
(0.119475 0.00047361 0.00125286)
(0.124806 0.000436143 0.000827265)
(0.125201 0.000442694 0.000826774)
(0.125594 0.000454275 0.000831108)
(0.125991 0.000467552 0.000836601)
(0.12639 0.000477684 0.000834654)
(0.126786 0.000474935 0.000814718)
(0.127954 0.000455281 0.000367964)
(0.128393 0.000455831 0.000368873)
(0.128827 0.000461632 0.000373493)
(0.129265 0.000467878 0.000378017)
(0.129705 0.000471699 0.000379017)
(0.13014 0.000466254 0.000372163)
(0.129378 0.000438266 -6.11337e-05)
(0.129822 0.000438286 -5.85938e-05)
(0.130267 0.000441634 -5.73484e-05)
(0.130714 0.00044269 -5.75108e-05)
(0.131156 0.000435266 -5.77969e-05)
(0.128399 0.000370261 -0.000458867)
(0.128836 0.000371181 -0.000457587)
(0.129273 0.000375277 -0.000460942)
(0.129713 0.000377997 -0.000463389)
(0.13015 0.000373795 -0.000457357)
(0.124986 0.000220526 -0.000815827)
(0.125391 0.000225824 -0.000815538)
(0.125799 0.000234276 -0.000823489)
(0.126211 0.000242405 -0.000827662)
(0.126621 0.000244246 -0.000811344)
(0.117645 -1.03982e-06 -0.00118636)
(0.117937 7.4286e-06 -0.00118581)
(0.118234 1.95884e-05 -0.00118774)
(0.118543 3.38544e-05 -0.00119043)
(0.118848 4.50309e-05 -0.0011722)
(0.101652 -0.000157462 -0.001122)
(0.101606 -0.000147497 -0.00111945)
(0.101556 -0.000135605 -0.00112022)
(0.101508 -0.00012368 -0.00112757)
(0.10145 -0.000115615 -0.00110583)
(0.0644242 3.13004e-05 -0.000902203)
(0.0638156 3.7568e-05 -0.000889078)
(0.0632145 3.73239e-05 -0.000846366)
(0.0626054 3.49637e-05 -0.000774678)
(0.0620294 3.45631e-05 -0.000712116)
(0.0629829 0.000197134 0.000899192)
(0.0623305 0.000186394 0.000871972)
(0.0616936 0.000157289 0.000810666)
(0.0610919 0.000125678 0.000744387)
(0.0604967 0.000105193 0.000701736)
(0.0599263 9.51379e-05 0.000677887)
(0.0996054 0.000300492 0.00108055)
(0.0994576 0.000308322 0.00106652)
(0.0993032 0.000321493 0.00106489)
(0.0991254 0.000331721 0.00106269)
(0.0989422 0.000338468 0.00105784)
(0.0987483 0.000335543 0.00103429)
(0.114693 0.00055461 0.0010867)
(0.11491 0.000570161 0.00109005)
(0.115122 0.000590756 0.00109471)
(0.115331 0.000615277 0.00110251)
(0.115538 0.000640255 0.00111076)
(0.115738 0.000644395 0.00109657)
(0.121389 0.000690344 0.000647729)
(0.121755 0.000697587 0.000655416)
(0.122119 0.000715342 0.000669279)
(0.122486 0.000736076 0.000684194)
(0.122854 0.000753859 0.000695448)
(0.123218 0.000746874 0.000688496)
(0.124573 0.000818444 0.000215457)
(0.124976 0.000816577 0.000219978)
(0.125379 0.00082206 0.000228679)
(0.125784 0.000829415 0.000238883)
(0.126196 0.000833104 0.000247906)
(0.126603 0.000816057 0.000248712)
(0.126076 0.000868662 -0.00014031)
(0.12648 0.000866206 -0.000139435)
(0.126886 0.000871032 -0.000139283)
(0.127297 0.00087108 -0.000139353)
(0.127703 0.000852051 -0.000138362)
(0.125208 0.000825028 -0.000445488)
(0.125602 0.000826893 -0.000451188)
(0.125997 0.000834155 -0.000461466)
(0.126396 0.00083709 -0.000470769)
(0.126791 0.000822407 -0.000469554)
(0.121764 0.000654929 -0.000697978)
(0.12213 0.00066443 -0.000708225)
(0.122496 0.000679717 -0.000728762)
(0.122869 0.000692229 -0.000746957)
(0.123235 0.000688213 -0.000742821)
(0.114031 0.000386541 -0.000980704)
(0.114292 0.000403321 -0.000995885)
(0.114549 0.000422904 -0.00101367)
(0.114818 0.000445626 -0.00103906)
(0.115077 0.000455878 -0.00104054)
(0.0966787 6.9649e-05 -0.000862994)
(0.0965865 8.36487e-05 -0.000878091)
(0.0964774 9.83017e-05 -0.000897101)
(0.0963561 0.000114142 -0.000919373)
(0.0962281 0.000121427 -0.000913406)
(0.0580093 5.54238e-05 -0.000472676)
(0.0574711 5.14268e-05 -0.000462357)
(0.0569506 4.18632e-05 -0.000452317)
(0.0564007 2.91977e-05 -0.000448108)
(0.0558679 1.96238e-05 -0.000450706)
(0.0540567 0.00018715 0.0004654)
(0.0535098 0.00018051 0.000454833)
(0.0529836 0.000168682 0.000438503)
(0.0524598 0.000154933 0.000418286)
(0.0519453 0.000141758 0.000401088)
(0.0514514 0.000132787 0.000390019)
(0.0899971 0.000370803 0.000669537)
(0.0897256 0.000381196 0.000665902)
(0.0894449 0.000397443 0.000670222)
(0.089151 0.000412908 0.000675747)
(0.0888437 0.000433862 0.000688693)
(0.0885279 0.00043396 0.000681339)
(0.106348 0.000756032 0.000736683)
(0.10645 0.000777447 0.000748733)
(0.106531 0.000804267 0.000763036)
(0.106607 0.000833005 0.000777932)
(0.106672 0.000865305 0.00079491)
(0.106733 0.000865111 0.000790055)
(0.113759 0.000970069 0.000374656)
(0.114018 0.000977747 0.000389153)
(0.114272 0.000990125 0.000406858)
(0.114534 0.00101436 0.000429456)
(0.114789 0.00104398 0.000453246)
(0.115044 0.00103617 0.00045868)
(0.117346 0.00118377 -3.95795e-06)
(0.117632 0.00118134 2.68433e-06)
(0.117924 0.00118398 1.26638e-05)
(0.118219 0.00118624 2.57104e-05)
(0.118523 0.00119146 4.13835e-05)
(0.118823 0.00117375 5.16476e-05)
(0.119099 0.00130558 -0.000262189)
(0.119372 0.00130689 -0.000264223)
(0.119649 0.00130557 -0.000264913)
(0.119936 0.0012987 -0.00026469)
(0.120221 0.00127315 -0.000263119)
(0.118455 0.0012833 -0.00043546)
(0.118707 0.00128191 -0.00044475)
(0.118959 0.00128025 -0.000456296)
(0.119217 0.00127557 -0.000469042)
(0.119471 0.00125283 -0.000474384)
(0.114908 0.00109016 -0.000576762)
(0.115121 0.00109244 -0.00059216)
(0.115328 0.00109495 -0.000611662)
(0.115542 0.00110236 -0.0006362)
(0.115743 0.00109303 -0.000644837)
(0.106445 0.000745194 -0.00078235)
(0.106538 0.000759443 -0.000809011)
(0.106615 0.000774382 -0.000838744)
(0.106686 0.000790236 -0.000869728)
(0.106748 0.000790359 -0.000877682)
(0.0868876 0.000280947 -0.000662947)
(0.0865901 0.000287081 -0.000682453)
(0.0862863 0.000292921 -0.000703879)
(0.0859534 0.000298963 -0.000727249)
(0.0856219 0.000288743 -0.000717276)
(0.0485966 5.29382e-05 -0.000299481)
(0.0481026 4.38271e-05 -0.000292587)
(0.0476278 3.26616e-05 -0.000285001)
(0.0471337 1.98464e-05 -0.000281621)
(0.0466645 8.99205e-06 -0.000282072)
(0.038973 0.000174645 0.00014008)
(0.0385686 0.00016801 0.000136538)
(0.0381788 0.000159665 0.000136547)
(0.0377909 0.000150564 0.000137417)
(0.0374026 0.000142535 0.000139112)
(0.0370321 0.000134662 0.00013659)
(0.0687407 0.000279971 0.000166582)
(0.0682413 0.000289518 0.000165172)
(0.0677633 0.000303435 0.000170236)
(0.067267 0.000317042 0.000177735)
(0.0667689 0.000332829 0.000189015)
(0.0662749 0.000323422 0.000181898)
(0.0872009 0.000642225 0.000283869)
(0.086919 0.000662799 0.000291846)
(0.0866302 0.000681221 0.000296721)
(0.0863162 0.00069901 0.000300819)
(0.0859932 0.000725959 0.000309325)
(0.0856593 0.000707504 0.000295268)
(0.0967876 0.000863526 6.21356e-05)
(0.0967015 0.000867695 7.53014e-05)
(0.0965978 0.000875272 8.79887e-05)
(0.0964883 0.000892037 0.000102542)
(0.0963603 0.000918993 0.000120682)
(0.0962321 0.000900509 0.000125802)
(0.101703 0.0011366 -0.000162092)
(0.101651 0.00111967 -0.000154331)
(0.101599 0.00111579 -0.000143017)
(0.101547 0.00111518 -0.000130933)
(0.101491 0.00111908 -0.000118584)
(0.101435 0.00109357 -0.000109927)
(0.103955 0.00132301 -0.000285512)
(0.10387 0.00131625 -0.000282624)
(0.103784 0.00130393 -0.00027861)
(0.103702 0.00129539 -0.000276188)
(0.10362 0.00126347 -0.000272543)
(0.103527 0.00130141 -0.000310355)
(0.103414 0.00129458 -0.000313497)
(0.103293 0.00128594 -0.000316646)
(0.103171 0.00127926 -0.000321742)
(0.103048 0.00125133 -0.000319997)
(0.0994503 0.00106263 -0.000317578)
(0.0992983 0.00105633 -0.00032873)
(0.0991292 0.00105311 -0.000339828)
(0.0989426 0.00105062 -0.000349599)
(0.0987505 0.00102847 -0.000347487)
(0.0897144 0.000661134 -0.000391726)
(0.0894299 0.000662593 -0.000407802)
(0.0891444 0.00066974 -0.000426757)
(0.0888306 0.00068333 -0.000449428)
(0.0885164 0.000675848 -0.000450303)
(0.0682351 0.000150452 -0.00029244)
(0.0677328 0.00015517 -0.000308629)
(0.0672392 0.000165689 -0.00032785)
(0.0667258 0.00017654 -0.000344398)
(0.0662328 0.000170467 -0.00033655)
(0.0360313 -5.28803e-05 -8.17125e-05)
(0.0356565 -5.36077e-05 -8.40037e-05)
(0.0352883 -5.27086e-05 -8.93113e-05)
(0.0349043 -5.34376e-05 -9.54549e-05)
(0.0345344 -5.72723e-05 -9.50498e-05)
(0.0230856 5.29704e-05 -1.45735e-05)
(0.0228271 5.27383e-05 -1.42894e-05)
(0.0225715 5.19469e-05 -1.27215e-05)
(0.0223127 5.05759e-05 -1.09226e-05)
(0.0220509 5.01304e-05 -8.79228e-06)
(0.0218037 4.75025e-05 -9.36538e-06)
(0.0364239 7.84104e-05 -3.87913e-05)
(0.0360471 7.92883e-05 -4.15478e-05)
(0.0356814 8.37058e-05 -4.16378e-05)
(0.0353089 8.88255e-05 -4.15734e-05)
(0.0349278 9.51102e-05 -4.22635e-05)
(0.0345618 9.26718e-05 -4.77204e-05)
(0.0491038 0.000301303 6.90467e-05)
(0.0486145 0.000290398 5.86628e-05)
(0.0481507 0.000281115 4.83206e-05)
(0.0476697 0.000275644 3.83921e-05)
(0.0585742 0.00047975 5.9395e-05)
(0.058047 0.000461265 5.57681e-05)
(0.0575376 0.000445094 4.9367e-05)
(0.0570091 0.000435156 4.10299e-05)
(0.0564862 0.000435116 3.1009e-05)
(0.0650751 0.000905257 1.65202e-05)
(0.0644774 0.000886545 2.79608e-05)
(0.0638796 0.000869009 3.25727e-05)
(0.0632854 0.000831954 3.33169e-05)
(0.062685 0.000766549 3.31706e-05)
(0.067705 0.00108002 -8.22658e-05)
(0.0670538 0.00106301 -6.6355e-05)
(0.0664076 0.00104656 -4.81604e-05)
(0.0657504 0.00102721 -2.97085e-05)
(0.0651147 0.00101057 -1.31646e-05)
(0.0671138 0.00109678 -0.000134826)
(0.0664256 0.00107568 -0.00012721)
(0.0657573 0.00105159 -0.000116273)
(0.0650887 0.00102967 -0.000104235)
(0.0644418 0.00101388 -9.61336e-05)
(0.0623441 0.000871391 -0.000195315)
(0.0617042 0.000812759 -0.000172798)
(0.061103 0.000743924 -0.000141876)
(0.0605085 0.000697109 -0.000119076)
(0.059941 0.000670947 -0.0001069)
(0.0535148 0.000456639 -0.000194831)
(0.052977 0.000441129 -0.000186233)
(0.0524534 0.000417135 -0.000170272)
(0.0519384 0.000395341 -0.000154623)
(0.0514476 0.000382715 -0.000144872)
(0.0385677 0.00013551 -0.000180682)
(0.0381682 0.000132981 -0.000173534)
(0.0377826 0.000132048 -0.000163949)
(0.0373935 0.000132678 -0.00015623)
(0.0370209 0.000130831 -0.000148511)
(0.0228191 -1.9201e-05 -5.61279e-05)
(0.022564 -1.81628e-05 -5.58763e-05)
(0.0223081 -1.61107e-05 -5.50074e-05)
(0.0220443 -1.43295e-05 -5.45886e-05)
(0.0217939 -1.45512e-05 -5.2188e-05)
)
;

boundaryField
{
    inlet
    {
        type            fixedValue;
        value           nonuniform List<vector> 0();
    }
    ami1
    {
        type            cyclicAMI;
        value           nonuniform List<vector> 0();
    }
    walls
    {
        type            noSlip;
    }
    ami2
    {
        type            cyclicAMI;
        value           nonuniform List<vector> 0();
    }
    outlet
    {
        type            zeroGradient;
    }
    procBoundary5to6
    {
        type            processor;
        value           nonuniform List<vector> 
177
(
(0.0215328 1.18444e-05 4.82014e-05)
(0.0215328 1.18444e-05 4.82014e-05)
(0.0366008 -0.000130699 0.000136601)
(0.0509119 -0.000378444 0.000134248)
(0.0509119 -0.000378444 0.000134248)
(0.0509119 -0.000378444 0.000134248)
(0.0587482 -0.000629272 8.4774e-05)
(0.0630957 -0.000879722 5.69181e-05)
(0.0630957 -0.000879722 5.69181e-05)
(0.0631666 -0.000808857 -1.98587e-05)
(0.103478 -0.00119733 0.000253967)
(0.0603199 -0.000599631 -3.65402e-05)
(0.101327 -0.0010498 8.2808e-05)
(0.0542516 -0.000420504 8.28851e-07)
(0.0452528 -0.000252604 5.72308e-06)
(0.0338155 -8.7112e-05 4.90555e-05)
(0.0338155 -8.7112e-05 4.90555e-05)
(0.0338155 -8.7112e-05 4.90555e-05)
(0.0213215 -4.30998e-05 7.85169e-06)
(0.0338035 5.86415e-05 8.01241e-05)
(0.065729 -0.00017506 0.000328029)
(0.0338035 5.86415e-05 8.01241e-05)
(0.065729 -0.00017506 0.000328029)
(0.065729 -0.00017506 0.000328029)
(0.065729 -0.00017506 0.000328029)
(0.0878731 -0.000651724 0.000433611)
(0.0983477 -0.000979894 0.000344147)
(0.102797 -0.00118852 0.000314961)
(0.103478 -0.00119733 0.000253967)
(0.101327 -0.0010498 8.2808e-05)
(0.101327 -0.0010498 8.2808e-05)
(0.0958017 -0.000853167 -0.000142719)
(0.115594 -0.00102722 -0.000468309)
(0.0845625 -0.000671749 -0.000272778)
(0.106852 -0.000876155 -0.000784052)
(0.0646778 -0.000299024 -0.000168406)
(0.0362952 -0.00011686 -0.000127388)
(0.0362952 -0.00011686 -0.000127388)
(0.0452872 2.81512e-05 0.000232629)
(0.0849785 -0.000264995 0.000672707)
(0.0849785 -0.000264995 0.000672707)
(0.0849785 -0.000264995 0.000672707)
(0.106863 -0.000777435 0.000864739)
(0.116131 -0.00106624 0.000647519)
(0.119985 -0.00121198 0.000483737)
(0.120816 -0.00122476 0.00026065)
(0.119471 -0.00113288 -6.79817e-05)
(0.127039 -0.000802235 -0.000245702)
(0.115594 -0.00102722 -0.000468309)
(0.106852 -0.000876155 -0.000784052)
(0.106852 -0.000876155 -0.000784052)
(0.0875103 -0.000423173 -0.000639118)
(0.0504543 -0.000116242 -0.00036632)
(0.0983376 -0.000347741 -0.000978808)
(0.0504543 -0.000116242 -0.00036632)
(0.054299 1.34776e-05 0.000411931)
(0.06092 -3.67034e-05 0.000631832)
(0.0958174 -0.000140189 0.000844382)
(0.115567 -0.000462782 0.00101049)
(0.101312 8.50994e-05 0.00104377)
(0.115567 -0.000462782 0.00101049)
(0.119141 -6.38571e-05 0.00114901)
(0.123955 -0.000675037 0.00072)
(0.127027 -0.000255182 0.000791097)
(0.127582 -0.000789668 0.000461386)
(0.130587 -0.000376614 0.000449017)
(0.128531 -0.000807214 0.000140043)
(0.127039 -0.000802235 -0.000245702)
(0.131605 -0.000428716 5.89977e-05)
(0.127039 -0.000802235 -0.000245702)
(0.127039 -0.000802235 -0.000245702)
(0.123967 -0.000729873 -0.000668995)
(0.127192 -0.000475031 -0.000799685)
(0.116145 -0.000650792 -0.00105791)
(0.119737 -0.000486642 -0.00123022)
(0.0983376 -0.000347741 -0.000978808)
(0.102926 -0.000320572 -0.00121812)
(0.0587516 -9.44565e-05 -0.000632114)
(0.06092 -3.67034e-05 0.000631832)
(0.101312 8.50994e-05 0.00104377)
(0.119141 -6.38571e-05 0.00114901)
(0.119141 -6.38571e-05 0.00114901)
(0.120228 0.000260233 0.00126837)
(0.127027 -0.000255182 0.000791097)
(0.127714 0.000137793 0.000839378)
(0.130587 -0.000376614 0.000449017)
(0.131163 5.6417e-05 0.000422639)
(0.131605 -0.000428716 5.89977e-05)
(0.130591 -0.000455857 -0.000365293)
(0.127192 -0.000475031 -0.000799685)
(0.119737 -0.000486642 -0.00123022)
(0.102926 -0.000320572 -0.00121812)
(0.102926 -0.000320572 -0.00121812)
(0.0630928 -7.06871e-05 -0.000881762)
(0.0643892 -5.42159e-06 -0.000986202)
(0.0637945 -1.20121e-05 0.000910165)
(0.0637547 7.83506e-05 0.000968259)
(0.120228 0.000260233 0.00126837)
(0.103463 0.000253457 0.0011882)
(0.120522 0.000259221 0.00125781)
(0.102924 0.000301948 0.00121317)
(0.120228 0.000260233 0.00126837)
(0.120228 0.000260233 0.00126837)
(0.127714 0.000137793 0.000839378)
(0.127714 0.000137793 0.000839378)
(0.131163 5.6417e-05 0.000422639)
(0.131163 5.6417e-05 0.000422639)
(0.131163 5.6417e-05 0.000422639)
(0.132624 -1.82063e-06 -2.63338e-06)
(0.131599 -5.94641e-05 -0.000420853)
(0.128122 -0.000143357 -0.000821776)
(0.120525 -0.000268837 -0.00124702)
(0.103558 -0.000273907 -0.00122681)
(0.0643892 -5.42159e-06 -0.000986202)
(0.0637547 7.83506e-05 0.000968259)
(0.102924 0.000301948 0.00121317)