/*--------------------------------*- C++ -*----------------------------------*\
| =========                 |                                                 |
| \\      /  F ield         | OpenFOAM: The Open Source CFD Toolbox           |
|  \\    /   O peration     | Version:  2212                                  |
|   \\  /    A nd           | Website:  www.openfoam.com                      |
|    \\/     M anipulation  |                                                 |
\*---------------------------------------------------------------------------*/
FoamFile
{
    version     2.0;
    format      ascii;
    arch        "LSB;label=32;scalar=64";
    class       volScalarField;
    location    "3";
    object      epsilon;
}
// * * * * * * * * * * * * * * * * * * * * * * * * * * * * * * * * * * * * * //

dimensions      [0 2 -3 0 0 0 0];

internalField   nonuniform List<scalar> 
693
(
0.097574
0.0957033
0.0938382
0.0920609
0.0903396
0.0887163
0.0364289
0.0356377
0.0349059
0.0342027
0.0335289
0.0328789
0.0246654
0.024074
0.0235248
0.0229942
0.0224871
0.0220042
0.0193992
0.0188444
0.0183336
0.0178557
0.0174108
0.0169882
0.0170465
0.0165221
0.016035
0.0155856
0.0151679
0.0147758
0.0161478
0.0156273
0.0151243
0.0146715
0.0142616
0.0138904
0.0162815
0.0157548
0.0152672
0.0148314
0.014434
0.0140693
0.0177472
0.0172504
0.0167735
0.0163355
0.0159255
0.0155183
0.02187
0.0212939
0.0207343
0.0202235
0.0197441
0.0193039
0.0335224
0.032748
0.0320228
0.031339
0.0306891
0.0300736
0.0974618
0.0956164
0.0937462
0.0919947
0.0902854
0.0886811
0.0335851
0.0327992
0.0320697
0.0313793
0.0307226
0.0301007
0.0138457
0.0133968
0.0130272
0.0127034
0.0124091
0.012086
0.00946188
0.00921661
0.00886026
0.00859832
0.00835841
0.00807697
0.00786707
0.00765562
0.00730426
0.00711764
0.00681496
0.00664146
0.0072583
0.00694784
0.00668474
0.00640888
0.00618796
0.005952
0.00695586
0.0066514
0.00637557
0.00611688
0.00589341
0.00567034
0.00696455
0.00666177
0.00639784
0.00612789
0.00592006
0.00564365
0.00748416
0.00706004
0.00684342
0.00649382
0.00632913
0.006027
0.00865567
0.00833974
0.00810348
0.0077438
0.00757749
0.00725968
0.0138915
0.0134177
0.0130752
0.0127288
0.012453
0.0121259
0.0363981
0.0356152
0.0348841
0.0341832
0.0335136
0.0328679
0.0219272
0.0213345
0.0207746
0.0202566
0.0197723
0.0193265
0.00862087
0.00837846
0.00802647
0.00772477
0.0075493
0.00723952
0.00640248
0.00615274
0.00586049
0.00557935
0.00539834
0.00514752
0.00582026
0.00556906
0.00532584
0.00510196
0.00485902
0.0046812
0.00579597
0.00547976
0.00519912
0.00489686
0.00464393
0.00447287
0.00577041
0.00545175
0.00515931
0.0048898
0.00464785
0.00437637
0.00575109
0.00543174
0.00513998
0.00488148
0.00462388
0.00438938
0.00583909
0.00548319
0.00518764
0.00496642
0.00477105
0.00457447
0.00649752
0.00611081
0.00589133
0.00558541
0.00541605
0.00515696
0.00961857
0.00915677
0.00892888
0.00857705
0.00838222
0.00809202
0.024662
0.0240745
0.0235219
0.0229937
0.0224882
0.0220067
0.0177839
0.0172762
0.0168044
0.016359
0.0159486
0.015544
0.00736617
0.00712544
0.00673664
0.00654316
0.00624153
0.00605541
0.00583081
0.00550455
0.00517036
0.00495364
0.00475464
0.00457417
0.0056964
0.0053655
0.00506499
0.00479412
0.00455479
0.00430449
0.00581898
0.00546968
0.00515213
0.00485848
0.00459891
0.00433122
0.00587509
0.00551761
0.00519229
0.00489481
0.00463012
0.00435402
0.00580249
0.00545304
0.0051357
0.00484659
0.00458894
0.00432036
0.00569518
0.00536309
0.00506468
0.00479478
0.00455733
0.00430673
0.0058389
0.00556178
0.00532181
0.00509084
0.00486894
0.00468334
0.00801912
0.00759129
0.00738855
0.00706069
0.00685106
0.00664759
0.0193991
0.0188479
0.0183345
0.0178594
0.0174146
0.0169933
0.0162923
0.0157703
0.0152828
0.0148445
0.0144458
0.0140825
0.0069568
0.00665601
0.00637879
0.00611986
0.00589662
0.0056538
0.00574687
0.00542902
0.00513578
0.00487513
0.00461039
0.00438269
0.00579731
0.00544766
0.00512962
0.00483971
0.00458056
0.00431291
0.00602783
0.00565127
0.00530906
0.0049966
0.00471744
0.00443522
0.00613381
0.00574622
0.00539413
0.00507305
0.00478589
0.00449753
0.00603236
0.00565485
0.00531216
0.00499924
0.00472033
0.00443791
0.00581207
0.00546348
0.00514651
0.00485215
0.00459327
0.00432802
0.00578834
0.00547205
0.00519206
0.00488094
0.00464417
0.00446862
0.00727245
0.00693737
0.00671149
0.00638265
0.00620423
0.00591304
0.0170511
0.0165268
0.0160409
0.0155921
0.0151741
0.0147839
0.01615
0.0156301
0.0151279
0.0146748
0.0142644
0.013894
0.00694952
0.00664501
0.00636995
0.00611309
0.00588238
0.00567875
0.00576026
0.00544173
0.00514911
0.00488122
0.00462674
0.00437653
0.0058601
0.00550377
0.00517897
0.00488326
0.00461481
0.00434677
0.00612156
0.00573549
0.00538442
0.00506498
0.00477554
0.00449506
0.0062409
0.00584357
0.00548246
0.0051535
0.00485775
0.00456507
0.00613011
0.00574305
0.00539133
0.00507052
0.00478361
0.00449566
0.00586492
0.00550888
0.0051844
0.00488744
0.00462366
0.0043484
0.00576192
0.00544439
0.00515185
0.00488283
0.00464152
0.00437002
0.00695045
0.00664685
0.00637223
0.00611325
0.00588889
0.00566951
0.0161517
0.0156327
0.0151309
0.0146789
0.0142698
0.0138991
0.0170431
0.0165202
0.0160334
0.0155844
0.0151648
0.00726412
0.00693873
0.0067055
0.00638245
0.00618379
0.0057851
0.00546961
0.00518868
0.00487448
0.00465502
0.00580691
0.00545805
0.00513953
0.0048505
0.00456746
0.0060222
0.0056453
0.00530229
0.00499326
0.00469358
0.00612654
0.00573978
0.00538805
0.00506809
0.00477802
0.00449847
0.00603228
0.00565428
0.005311
0.00499786
0.00471787
0.00443572
0.00580083
0.00545121
0.00513302
0.00484332
0.00458514
0.00431658
0.00574739
0.00542975
0.0051372
0.00487734
0.00462094
0.00438312
0.00696119
0.00666126
0.00639796
0.00612735
0.00591949
0.00564024
0.0162872
0.0157621
0.0152751
0.0148402
0.0144437
0.0140798
0.0188345
0.0183223
0.0178476
0.0173996
0.00770327
0.00732212
0.00710248
0.00686335
0.00582095
0.00556637
0.0053192
0.00509116
0.00489153
0.00569153
0.00536061
0.0050568
0.00479255
0.00452911
0.00579631
0.00544636
0.00512685
0.00484199
0.00455694
0.00586675
0.0055098
0.00518434
0.00488803
0.00461815
0.00435427
0.00581799
0.00546747
0.0051489
0.00485467
0.00459279
0.0043271
0.00569696
0.00536486
0.00506423
0.00479351
0.00455625
0.00430581
0.00583117
0.00549363
0.0051856
0.00495948
0.00476555
0.00456914
0.00745458
0.00707402
0.00684793
0.00649569
0.0063267
0.00602603
0.0177568
0.0172602
0.0167841
0.0163474
0.0159387
0.0155325
0.0240522
0.0235009
0.0229718
0.0224659
0.00927195
0.00889685
0.00860422
0.00836568
0.00640488
0.00616077
0.00586567
0.00558007
0.005387
0.00582801
0.00550399
0.00517066
0.0049525
0.00476872
0.0057462
0.00542881
0.00513466
0.0048776
0.00459109
0.00576415
0.00544516
0.0051522
0.00488425
0.00463155
0.00437695
0.00579448
0.00547546
0.00519531
0.0048925
0.00463988
0.00446223
0.00583804
0.00556504
0.00532334
0.00509057
0.00487026
0.00467587
0.00638856
0.00614001
0.00587947
0.00557884
0.00541165
0.00514974
0.0086321
0.00838444
0.00807277
0.00774532
0.00757506
0.00726043
0.0218813
0.021303
0.0207479
0.0202406
0.0197637
0.0193244
0.0356143
0.0348681
0.0341663
0.0334907
0.0135016
0.0130709
0.0127352
0.0123978
0.00864151
0.00838669
0.00805013
0.00772606
0.00753095
0.00737329
0.00710897
0.00676371
0.00651508
0.00629213
0.00695537
0.00665416
0.00637765
0.00611916
0.00589749
0.00695092
0.006645
0.00637073
0.00610773
0.00589299
0.0056562
0.00728259
0.0069372
0.00671493
0.00637556
0.00619806
0.00590869
0.00801775
0.0075907
0.00738554
0.00706219
0.006839
0.00664376
0.00951958
0.00917237
0.00891643
0.00857648
0.00837908
0.0080906
0.0138895
0.0134313
0.0130699
0.0127373
0.0124452
0.0121273
0.0335213
0.0327524
0.0320341
0.0313562
0.0307108
0.0300988
0.0955809
0.0937756
0.0919706
0.0902645
0.0327772
0.0320443
0.0313559
0.0306997
0.0219211
0.0213345
0.0207752
0.0202612
0.0197838
0.0177891
0.017284
0.016811
0.0163672
0.0159602
0.0162962
0.0157761
0.0152895
0.0148508
0.0144579
0.0161504
0.0156305
0.0151295
0.0146774
0.0142691
0.0138969
0.0170425
0.0165181
0.0160319
0.0155832
0.0151646
0.0147756
0.0193853
0.0188344
0.0183213
0.0178462
0.0174013
0.0169811
0.0246421
0.0240596
0.023507
0.0229794
0.0224745
0.021994
0.0363803
0.0356015
0.0348738
0.0341775
0.0335107
0.0328663
0.0974492
0.0956093
0.0937632
0.0920202
0.0903221
0.0887181
)
;

boundaryField
{
    inlet
    {
        type            fixedValue;
        value           nonuniform List<scalar> 0();
    }
    ami1
    {
        type            cyclicAMI;
        value           nonuniform List<scalar> 0();
    }
    walls
    {
        type            epsilonWallFunction;
        blending        stepwise;
        value           nonuniform List<scalar> 
248
(
0.097574
0.0364289
0.0246654
0.0193992
0.0170465
0.0161478
0.0162815
0.0177472
0.02187
0.0335224
0.0974618
0.0957033
0.0356377
0.024074
0.0188444
0.0165221
0.0156273
0.0157548
0.0172504
0.0212939
0.032748
0.0956164
0.0938382
0.0349059
0.0235248
0.0183336
0.016035
0.0151243
0.0152672
0.0167735
0.0207343
0.0320228
0.0937462
0.0920609
0.0342027
0.0229942
0.0178557
0.0155856
0.0146715
0.0148314
0.0163355
0.0202235
0.031339
0.0919947
0.0903396
0.0335289
0.0224871
0.0174108
0.0151679
0.0142616
0.014434
0.0159255
0.0197441
0.0306891
0.0902854
0.0887163
0.0328789
0.0220042
0.0169882
0.0147758
0.0138904
0.0140693
0.0155183
0.0193039
0.0300736
0.0886811
0.0974618
0.0363981
0.024662
0.0193991
0.0170511
0.0161517
0.0162872
0.0177568
0.0218813
0.0335213
0.0974492
0.0956164
0.0356152
0.0240745
0.0188479
0.0165268
0.0156327
0.0157621
0.0172602
0.021303
0.0327524
0.0956093
0.0937462
0.0348841
0.0235219
0.0183345
0.0160409
0.0151309
0.0152751
0.0167841
0.0207479
0.0320341
0.0937632
0.0919947
0.0341832
0.0229937
0.0178594
0.0155921
0.0146789
0.0148402
0.0163474
0.0202406
0.0313562
0.0920202
0.0902854
0.0335136
0.0224882
0.0174146
0.0151741
0.0142698
0.0144437
0.0159387
0.0197637
0.0307108
0.0903221
0.0886811
0.0328679
0.0220067
0.0169933
0.0147839
0.0138991
0.0140798
0.0155325
0.0193244
0.0300988
0.0887181
0.0219211
0.0177891
0.0162962
0.0161504
0.0170425
0.0193853
0.0246421
0.0363803
0.0974492
0.0955809
0.0327772
0.0213345
0.017284
0.0157761
0.0156305
0.0165181
0.0188344
0.0240596
0.0356015
0.0956093
0.0937756
0.0320443
0.0207752
0.016811
0.0152895
0.0151295
0.0160319
0.0183213
0.023507
0.0348738
0.0937632
0.0919706
0.0313559
0.0202612
0.0163672
0.0148508
0.0146774
0.0155832
0.0178462
0.0229794
0.0341775
0.0920202
0.0902645
0.0306997
0.0197838
0.0159602
0.0144579
0.0142691
0.0151646
0.0174013
0.0224745
0.0335107
0.0903221
0.0138969
0.0147756
0.0169811
0.021994
0.0328663
0.0887181
0.097574
0.0335851
0.0219272
0.0177839
0.0162923
0.01615
0.0170431
0.0957033
0.0327992
0.0213345
0.0172762
0.0157703
0.0156301
0.0165202
0.0188345
0.0240522
0.0356143
0.0955809
0.0938382
0.0320697
0.0207746
0.0168044
0.0152828
0.0151279
0.0160334
0.0183223
0.0235009
0.0348681
0.0937756
0.0920609
0.0313793
0.0202566
0.016359
0.0148445
0.0146748
0.0155844
0.0178476
0.0229718
0.0341663
0.0919706
0.0903396
0.0307226
0.0197723
0.0159486
0.0144458
0.0142644
0.0151648
0.0173996
0.0224659
0.0334907
0.0902645
0.0887163
0.0301007
0.0193265
0.015544
0.0140825
0.013894
)
;
    }
    ami2
    {
        type            cyclicAMI;
        value           nonuniform List<scalar> 0();
    }
    outlet
    {
        type            zeroGradient;
    }
    procBoundary7to5
    {
        type            processor;
        value           nonuniform List<scalar> 
131
(
0.087076
0.0322441
0.0215413
0.0165899
0.0144133
0.0135506
0.0137198
0.0151211
0.0188796
0.0294709
0.0870719
0.0294826
0.0119576
0.00792247
0.00639005
0.00576246
0.00548295
0.00551472
0.00593392
0.00717323
0.0119792
0.03224
0.0188919
0.00716689
0.00502927
0.00445111
0.00433252
0.00425231
0.00427032
0.00442234
0.00504133
0.00793455
0.0215459
0.0151388
0.00587589
0.00439854
0.00413129
0.00415438
0.00417199
0.00414319
0.00413357
0.00445935
0.00639871
0.0165975
0.0137274
0.00549337
0.00426454
0.00413591
0.00423584
0.00429141
0.00423841
0.00415048
0.00432835
0.0057899
0.014423
0.013551
0.0147745
0.00546294
0.00591038
0.00425862
0.00450089
0.00416742
0.00435804
0.00429133
0.00446475
0.00435342
0.00428959
0.00416523
0.00424512
0.00547551
0.0135607
0.0147745
0.00591038
0.00450089
0.00435804
0.00446475
0.00446475
0.00429584
0.00423658
0.00413866
0.00426354
0.00551566
0.0137312
0.0169802
0.0065937
0.00464804
0.00433183
0.00434747
0.00434747
0.00417248
0.00414912
0.00413228
0.00441795
0.00593031
0.0151366
0.0219857
0.00809465
0.00515218
0.00458051
0.00441934
0.00441934
0.00425673
0.00432399
0.00446565
0.00503708
0.00717129
0.0189005
0.0328338
0.0122474
0.00727801
0.0060641
0.00566287
0.00566287
0.00549899
0.00578225
0.00639185
0.00792747
0.011974
0.0294957
0.0885803
0.0300504
0.0193228
0.0155455
0.0140837
0.0140837
0.0135555
0.0144126
0.0165852
0.0215356
0.0322414
0.0871158
)
;
    }
    procBoundary7to8
    {
        type            processor;
        value           nonuniform List<scalar> 
68
(
0.0997464
0.0373051
0.0253238
0.0200026
0.01763
0.0344772
0.0140002
0.00983912
0.00828001
0.00757258
0.0225794
0.00897425
0.00676873
0.00621797
0.00613759
0.0183446
0.00773155
0.00614767
0.00605304
0.00619154
0.0167926
0.00726307
0.00607796
0.00617106
0.00643009
0.00654511
0.0166392
0.00725863
0.00610035
0.00624261
0.00653509
0.00666442
0.0176278
0.0193938
0.00756761
0.00787464
0.00613071
0.0061825
0.00642599
0.00653895
0.0193938
0.00787464
0.00787464
0.00621569
0.00604999
0.00617021
0.0062471
0.0246426
0.00945723
0.00945723
0.00677931
0.006149
0.00607783
0.00610256
0.0364158
0.0136577
0.0136577
0.00898272
0.00772463
0.00726107
0.0072596
0.097623
0.033606
0.033606
0.0225798
0.0183522
0.0167979
0.0166402
)
;
    }
    procBoundary7to9
    {
        type            processor;
        value           nonuniform List<scalar> 
59
(
0.0166369
0.0167785
0.0183081
0.0225166
0.0343957
0.099621
0.00726538
0.00726803
0.00771037
0.00901101
0.014047
0.037271
0.00610774
0.00608184
0.00614704
0.00670062
0.0097932
0.025326
0.00625433
0.00617508
0.00605238
0.00619992
0.00819935
0.0200074
0.00643417
0.00618586
0.00613138
0.00756099
0.0176315
0.00654187
0.00624547
0.00610181
0.00725974
0.0166388
0.00643387
0.0061732
0.0060795
0.0072666
0.0167828
0.00619047
0.00605308
0.00615021
0.00771862
0.0183149
0.00613526
0.00620412
0.00677425
0.00901996
0.0225244
0.00756373
0.00821031
0.00987312
0.0140596
0.034392
0.0176239
0.0199944
0.0253021
0.0372448
0.0995855
)
;
    }
}


// ************************************************************************* //
