/*--------------------------------*- C++ -*----------------------------------*\
| =========                 |                                                 |
| \\      /  F ield         | OpenFOAM: The Open Source CFD Toolbox           |
|  \\    /   O peration     | Version:  2212                                  |
|   \\  /    A nd           | Website:  www.openfoam.com                      |
|    \\/     M anipulation  |                                                 |
\*---------------------------------------------------------------------------*/
FoamFile
{
    version     2.0;
    format      ascii;
    arch        "LSB;label=32;scalar=64";
    class       volScalarField;
    location    "3";
    object      k;
}
// * * * * * * * * * * * * * * * * * * * * * * * * * * * * * * * * * * * * * //

dimensions      [0 2 -2 0 0 0 0];

internalField   nonuniform List<scalar> 
693
(
0.00198567
0.00196005
0.00193433
0.00190965
0.00188556
0.00186269
0.00171227
0.00168723
0.00166393
0.00164138
0.0016196
0.00159846
0.00169579
0.00166858
0.00164305
0.00161821
0.00159428
0.00157134
0.00166783
0.0016358
0.00160603
0.00157794
0.00155158
0.00152636
0.00165158
0.00161746
0.00158546
0.00155567
0.00152773
0.00150129
0.00163198
0.00159662
0.00156219
0.00153088
0.00150223
0.00147609
0.00160204
0.00156723
0.00153483
0.00150552
0.00147848
0.00145351
0.00157242
0.001543
0.00151446
0.00148794
0.00146285
0.0014378
0.00156629
0.00153874
0.00151165
0.00148653
0.00146278
0.00144081
0.00162057
0.00159536
0.00157157
0.00154893
0.00152724
0.00150653
0.00198373
0.00195847
0.00193268
0.00190835
0.00188444
0.00186183
0.00162314
0.00159752
0.00157358
0.00155072
0.00152879
0.00150787
0.00118884
0.00114815
0.00111047
0.00107507
0.00104097
0.00100981
0.00147937
0.00142194
0.00137168
0.00132446
0.00127889
0.0012393
0.00164002
0.00157855
0.00152462
0.00147168
0.00142482
0.00137829
0.0017186
0.00165898
0.0016019
0.00154915
0.00149758
0.00144744
0.00175931
0.00168603
0.00162059
0.00156599
0.0015162
0.00146943
0.00173726
0.00166969
0.00160741
0.00154885
0.00149218
0.00144253
0.00161302
0.00155055
0.00148809
0.00143364
0.00137834
0.0013301
0.00138363
0.00132867
0.0012732
0.0012267
0.00117853
0.0011382
0.00118191
0.00114271
0.00110467
0.00106999
0.001036
0.00100519
0.001711
0.00168624
0.00166299
0.00164052
0.00161889
0.00159788
0.00156949
0.00154109
0.0015141
0.00148867
0.00146463
0.00144239
0.00139457
0.00133472
0.0012815
0.00123409
0.00118558
0.00114482
0.00173158
0.00165761
0.00158874
0.00152562
0.00146432
0.00140947
0.00198707
0.00190186
0.00182205
0.0017472
0.00167783
0.00161248
0.00213852
0.00204648
0.00196058
0.00188104
0.00180684
0.00173697
0.00220026
0.00210506
0.0020162
0.00193364
0.00185631
0.00178534
0.00215878
0.00206644
0.00198019
0.00189939
0.00182343
0.00175319
0.00199765
0.00191237
0.00183284
0.00175802
0.00168666
0.00162057
0.00172683
0.00165488
0.00158548
0.00152275
0.00146142
0.00140672
0.00147271
0.00142038
0.00136733
0.00132222
0.00127663
0.001237
0.00169549
0.00166851
0.00164283
0.0016181
0.00159425
0.00157137
0.00157496
0.00154489
0.00151671
0.00148978
0.00146465
0.00143984
0.00162293
0.00155541
0.00149704
0.0014395
0.00138651
0.00133698
0.00200068
0.00191486
0.00183555
0.00176082
0.00168964
0.00162345
0.00230623
0.00220513
0.00211064
0.00202235
0.00193919
0.00186199
0.0024974
0.00238689
0.00228369
0.00218724
0.00209668
0.00201241
0.00256598
0.00245239
0.00234627
0.00224708
0.0021539
0.00206706
0.00250406
0.00239367
0.00229052
0.00219406
0.00210331
0.00201877
0.00230534
0.00220427
0.00210984
0.00202161
0.00193849
0.00186124
0.00198609
0.00190115
0.00182135
0.00174693
0.00167746
0.00161207
0.00163663
0.00157883
0.00152198
0.00147187
0.00142379
0.00137768
0.00166777
0.00163594
0.00160602
0.0015781
0.00155175
0.0015266
0.00160289
0.00156857
0.00153617
0.0015067
0.00147959
0.00145475
0.00174143
0.00167293
0.00161141
0.00155256
0.0014967
0.00144674
0.00216064
0.00206833
0.00198215
0.00190139
0.00182567
0.00175562
0.00250483
0.0023945
0.00229139
0.00219495
0.00210424
0.00201977
0.00272377
0.00260236
0.00248897
0.00238292
0.00228337
0.00219036
0.00279991
0.00267476
0.00255789
0.00244863
0.00234608
0.00225022
0.00272354
0.00260211
0.00248871
0.00238268
0.00228313
0.00219013
0.00249731
0.00238688
0.00228375
0.00218737
0.00209691
0.00201265
0.00213873
0.00204681
0.00196101
0.00188171
0.00180748
0.00173763
0.00171972
0.00165921
0.00160248
0.00154924
0.00149724
0.00144863
0.00165186
0.00161774
0.00158583
0.00155607
0.00152811
0.0015018
0.00163229
0.00159698
0.00156261
0.00153129
0.00150261
0.00147655
0.00176097
0.00168784
0.00162235
0.00156743
0.00151786
0.00147092
0.0022011
0.00210608
0.00201739
0.00193485
0.00185787
0.00178693
0.00256639
0.00245293
0.00234694
0.00224779
0.00215476
0.002068
0.00280003
0.00267496
0.00255817
0.00244892
0.00234644
0.00225063
0.00288102
0.00275197
0.00263148
0.0025188
0.0024131
0.00231426
0.0027999
0.00267478
0.00255794
0.00244869
0.00234617
0.00225032
0.00256614
0.00245264
0.0023466
0.00224747
0.00215436
0.00206753
0.00220062
0.00210558
0.00201686
0.00193441
0.00185717
0.00178625
0.00175991
0.00168685
0.00162148
0.00156681
0.00151709
0.00147043
0.00163223
0.00159697
0.00156262
0.00153136
0.00150277
0.00147668
0.00165145
0.00161743
0.00158545
0.00155568
0.00152762
0.00171905
0.0016598
0.00160243
0.00154934
0.00149719
0.0021385
0.00204664
0.00196086
0.00188162
0.00180745
0.0024973
0.0023869
0.00228386
0.00218735
0.00209737
0.00272364
0.00260229
0.00248897
0.00238287
0.00228366
0.0027999
0.00267481
0.002558
0.00244874
0.00234628
0.00225047
0.00272347
0.00260206
0.00248867
0.00238264
0.00228312
0.00219014
0.00250404
0.00239368
0.00229057
0.00219415
0.00210346
0.00201894
0.00215898
0.00206671
0.00198052
0.00189981
0.00182392
0.00175376
0.00173788
0.00167038
0.00160815
0.00154967
0.00149308
0.0014436
0.00160239
0.00156768
0.00153532
0.00150607
0.00147911
0.0014542
0.00163522
0.00160537
0.00157746
0.00155094
0.00157622
0.00152188
0.00147063
0.00142169
0.0019857
0.00190058
0.00182078
0.00174638
0.00167655
0.00230551
0.00220444
0.00211009
0.00202164
0.00193934
0.00250443
0.0023941
0.00229106
0.00219447
0.00210431
0.00256612
0.00245261
0.00234659
0.00224741
0.0021544
0.00206757
0.00249698
0.00238651
0.00228337
0.00218698
0.00209653
0.00201231
0.00230482
0.00220375
0.00210933
0.00202112
0.00193805
0.00186082
0.0019974
0.00191204
0.00183256
0.00175791
0.00168669
0.00162067
0.00161428
0.00155115
0.00148861
0.00143431
0.00137926
0.00133121
0.00157293
0.00154352
0.00151502
0.00148859
0.00146359
0.00143862
0.00166747
0.00164185
0.00161707
0.0015932
0.00141716
0.00136624
0.0013195
0.0012758
0.00172857
0.00165461
0.00158585
0.00152241
0.00146282
0.00199944
0.00191362
0.00183438
0.0017594
0.00168919
0.00216013
0.00206778
0.00198169
0.00190062
0.00182587
0.00220076
0.00210567
0.00201696
0.00193436
0.00185742
0.00178633
0.0021381
0.00204611
0.00196033
0.00188082
0.00180669
0.00173702
0.00198478
0.00189988
0.0018201
0.00174569
0.00167621
0.00161107
0.00172694
0.00165395
0.00158469
0.00152209
0.00146079
0.00140628
0.00138454
0.00132767
0.00127357
0.00122724
0.00117937
0.00113923
0.00156672
0.00153909
0.00151217
0.00148726
0.00146367
0.00144176
0.00168626
0.00166252
0.00164002
0.00161818
0.00114369
0.00110531
0.00106981
0.00103657
0.00139137
0.00133205
0.00127834
0.0012305
0.00118567
0.00162166
0.00155516
0.00149569
0.00143892
0.0013866
0.00174122
0.00167283
0.00161135
0.00155211
0.0014976
0.0017606
0.00168744
0.00162197
0.00156723
0.00151754
0.00147092
0.00171913
0.00165853
0.00160164
0.00154849
0.00149628
0.001448
0.00163479
0.00157712
0.00152046
0.00147028
0.00142248
0.00137643
0.00147146
0.00141866
0.00136582
0.00132078
0.00127535
0.00123592
0.001181
0.00114176
0.00110438
0.00106989
0.00103646
0.00100586
0.00162039
0.00159535
0.0015718
0.00154938
0.00152786
0.0015073
0.00195808
0.00193319
0.0019081
0.00188423
0.00159647
0.00157243
0.00154964
0.00152775
0.00156895
0.00154093
0.00151382
0.00148858
0.00146497
0.00157513
0.00154523
0.00151694
0.00149009
0.00146523
0.00160317
0.00156888
0.00153654
0.00150703
0.00148037
0.00163233
0.00159701
0.00156271
0.00153143
0.00150293
0.0014767
0.00165139
0.00161728
0.00158534
0.00155559
0.00152758
0.00150135
0.00166701
0.0016352
0.00160529
0.00157737
0.001551
0.00152592
0.00169462
0.00166777
0.0016421
0.0016174
0.00159357
0.00157074
0.00171033
0.00168571
0.00166256
0.00164025
0.00161871
0.00159777
0.00198342
0.00195824
0.00193279
0.0019086
0.00188486
0.00186229
)
;

boundaryField
{
    inlet
    {
        type            fixedValue;
        value           nonuniform List<scalar> 0();
    }
    ami1
    {
        type            cyclicAMI;
        value           nonuniform List<scalar> 0();
    }
    walls
    {
        type            kqRWallFunction;
        value           nonuniform List<scalar> 
248
(
0.00198567
0.00171227
0.00169579
0.00166783
0.00165158
0.00163198
0.00160204
0.00157242
0.00156629
0.00162057
0.00198373
0.00196005
0.00168723
0.00166858
0.0016358
0.00161746
0.00159662
0.00156723
0.001543
0.00153874
0.00159536
0.00195847
0.00193433
0.00166393
0.00164305
0.00160603
0.00158546
0.00156219
0.00153483
0.00151446
0.00151165
0.00157157
0.00193268
0.00190965
0.00164138
0.00161821
0.00157794
0.00155567
0.00153088
0.00150552
0.00148794
0.00148653
0.00154893
0.00190835
0.00188556
0.0016196
0.00159428
0.00155158
0.00152773
0.00150223
0.00147848
0.00146285
0.00146278
0.00152724
0.00188444
0.00186269
0.00159846
0.00157134
0.00152636
0.00150129
0.00147609
0.00145351
0.0014378
0.00144081
0.00150653
0.00186183
0.00198373
0.001711
0.00169549
0.00166777
0.00165186
0.00163223
0.00160239
0.00157293
0.00156672
0.00162039
0.00198342
0.00195847
0.00168624
0.00166851
0.00163594
0.00161774
0.00159697
0.00156768
0.00154352
0.00153909
0.00159535
0.00195824
0.00193268
0.00166299
0.00164283
0.00160602
0.00158583
0.00156262
0.00153532
0.00151502
0.00151217
0.0015718
0.00193279
0.00190835
0.00164052
0.0016181
0.0015781
0.00155607
0.00153136
0.00150607
0.00148859
0.00148726
0.00154938
0.0019086
0.00188444
0.00161889
0.00159425
0.00155175
0.00152811
0.00150277
0.00147911
0.00146359
0.00146367
0.00152786
0.00188486
0.00186183
0.00159788
0.00157137
0.0015266
0.0015018
0.00147668
0.0014542
0.00143862
0.00144176
0.0015073
0.00186229
0.00156895
0.00157513
0.00160317
0.00163233
0.00165139
0.00166701
0.00169462
0.00171033
0.00198342
0.00195808
0.00159647
0.00154093
0.00154523
0.00156888
0.00159701
0.00161728
0.0016352
0.00166777
0.00168571
0.00195824
0.00193319
0.00157243
0.00151382
0.00151694
0.00153654
0.00156271
0.00158534
0.00160529
0.0016421
0.00166256
0.00193279
0.0019081
0.00154964
0.00148858
0.00149009
0.00150703
0.00153143
0.00155559
0.00157737
0.0016174
0.00164025
0.0019086
0.00188423
0.00152775
0.00146497
0.00146523
0.00148037
0.00150293
0.00152758
0.001551
0.00159357
0.00161871
0.00188486
0.0014767
0.00150135
0.00152592
0.00157074
0.00159777
0.00186229
0.00198567
0.00162314
0.00156949
0.00157496
0.00160289
0.00163229
0.00165145
0.00196005
0.00159752
0.00154109
0.00154489
0.00156857
0.00159698
0.00161743
0.00163522
0.00166747
0.00168626
0.00195808
0.00193433
0.00157358
0.0015141
0.00151671
0.00153617
0.00156261
0.00158545
0.00160537
0.00164185
0.00166252
0.00193319
0.00190965
0.00155072
0.00148867
0.00148978
0.0015067
0.00153129
0.00155568
0.00157746
0.00161707
0.00164002
0.0019081
0.00188556
0.00152879
0.00146463
0.00146465
0.00147959
0.00150261
0.00152762
0.00155094
0.0015932
0.00161818
0.00188423
0.00186269
0.00150787
0.00144239
0.00143984
0.00145475
0.00147655
)
;
    }
    ami2
    {
        type            cyclicAMI;
        value           nonuniform List<scalar> 0();
    }
    outlet
    {
        type            zeroGradient;
    }
    procBoundary7to5
    {
        type            processor;
        value           nonuniform List<scalar> 
131
(
0.00183942
0.00157766
0.00154918
0.00150237
0.00147659
0.00145185
0.00142922
0.001413
0.0014194
0.00148605
0.00183899
0.00148687
0.000973976
0.00119757
0.00133533
0.00140045
0.00142462
0.00139203
0.00127843
0.00109241
0.000970708
0.0015773
0.00142045
0.00109759
0.00135355
0.0015509
0.00167013
0.00171744
0.00168495
0.00155523
0.00135111
0.00119556
0.00154932
0.00141459
0.0012853
0.00155804
0.00178809
0.00193269
0.00198521
0.00193876
0.00178755
0.00155066
0.00133491
0.00150277
0.00143009
0.00139617
0.00168707
0.00193966
0.00210271
0.00216001
0.00210255
0.00193305
0.00167099
0.00140105
0.00147722
0.00145208
0.00150128
0.00142627
0.0014481
0.00171866
0.00173701
0.00198606
0.00201279
0.00216035
0.00219054
0.00222126
0.00216016
0.0019858
0.00171854
0.00142589
0.00145255
0.00150128
0.0014481
0.00173701
0.00201279
0.00219054
0.00219054
0.0021602
0.0021026
0.00193907
0.00168578
0.00139322
0.00142999
0.00152586
0.00137744
0.00161146
0.00186114
0.00201933
0.00201933
0.00198565
0.00193274
0.00178729
0.00155564
0.00127993
0.0014139
0.00157036
0.00123429
0.00140563
0.00162079
0.00175422
0.00175422
0.00171824
0.00167039
0.00154972
0.00135104
0.00109396
0.00142041
0.00159678
0.000999828
0.00113904
0.00133365
0.00144521
0.00144521
0.00142565
0.00140042
0.00133396
0.00119533
0.000971895
0.00148684
0.00186045
0.00150585
0.00144195
0.00143973
0.00145469
0.00145469
0.00145237
0.00147662
0.00150206
0.00154879
0.0015773
0.00183958
)
;
    }
    procBoundary7to8
    {
        type            processor;
        value           nonuniform List<scalar> 
68
(
0.00201521
0.00173974
0.00172616
0.00170237
0.00168916
0.00165183
0.00124233
0.0015383
0.00170336
0.0017879
0.00160041
0.00145912
0.0018114
0.00207822
0.00223768
0.0016079
0.00169298
0.00209375
0.00241492
0.00261573
0.00163574
0.00181366
0.00225966
0.00262302
0.00285367
0.00293379
0.0016653
0.00183716
0.00230239
0.00268773
0.00293381
0.00301905
0.00168913
0.00166756
0.00178798
0.0016386
0.00223747
0.0026155
0.00285348
0.0029337
0.00166756
0.0016386
0.0016386
0.00207676
0.0024141
0.00262259
0.00268749
0.00169478
0.00147539
0.00147539
0.00180806
0.00209246
0.00225915
0.00230207
0.00171161
0.00119172
0.00119172
0.00145555
0.00169266
0.00181363
0.00183687
0.00198603
0.00162341
0.00162341
0.00160022
0.00160825
0.00163607
0.00166538
)
;
    }
    procBoundary7to9
    {
        type            processor;
        value           nonuniform List<scalar> 
59
(
0.00166499
0.00163457
0.00160543
0.001597
0.00164866
0.00201305
0.00183588
0.00181038
0.00168633
0.00144828
0.00123368
0.00173835
0.00230166
0.00225777
0.00209067
0.00180889
0.00153631
0.00172617
0.00268745
0.00262223
0.00241388
0.00207746
0.00170473
0.00170259
0.00285346
0.00261549
0.00223758
0.00178833
0.00168925
0.00293373
0.00268742
0.00230174
0.00183613
0.0016651
0.00285336
0.0026221
0.00225775
0.00181064
0.00163483
0.00261522
0.00241327
0.00209008
0.00168665
0.00160576
0.00223707
0.00207605
0.00180598
0.0014475
0.00159725
0.00178756
0.00170272
0.00153265
0.00123133
0.00164839
0.00168885
0.00170189
0.00172503
0.00173744
0.00201243
)
;
    }
}


// ************************************************************************* //
