/*--------------------------------*- C++ -*----------------------------------*\
| =========                 |                                                 |
| \\      /  F ield         | OpenFOAM: The Open Source CFD Toolbox           |
|  \\    /   O peration     | Version:  2212                                  |
|   \\  /    A nd           | Website:  www.openfoam.com                      |
|    \\/     M anipulation  |                                                 |
\*---------------------------------------------------------------------------*/
FoamFile
{
    version     2.0;
    format      ascii;
    arch        "LSB;label=32;scalar=64";
    class       volScalarField;
    location    "3";
    object      nut;
}
// * * * * * * * * * * * * * * * * * * * * * * * * * * * * * * * * * * * * * //

dimensions      [0 2 -1 0 0 0 0];

internalField   nonuniform List<scalar> 
693
(
3.63683e-06
3.61286e-06
3.58859e-06
3.56511e-06
3.54198e-06
3.51984e-06
7.24333e-06
7.18918e-06
7.13861e-06
7.08927e-06
7.04109e-06
6.99403e-06
1.0493e-05
1.04085e-05
1.03281e-05
1.02493e-05
1.01728e-05
1.00989e-05
1.29051e-05
1.27797e-05
1.26619e-05
1.255e-05
1.24444e-05
1.23427e-05
1.44014e-05
1.42509e-05
1.41087e-05
1.39751e-05
1.38487e-05
1.37285e-05
1.48443e-05
1.46813e-05
1.45223e-05
1.43763e-05
1.42412e-05
1.41174e-05
1.41871e-05
1.40312e-05
1.38868e-05
1.3754e-05
1.36297e-05
1.35147e-05
1.25387e-05
1.24215e-05
1.23065e-05
1.21977e-05
1.20934e-05
1.19893e-05
1.00957e-05
1.00073e-05
9.91875e-06
9.83403e-06
9.75356e-06
9.67856e-06
7.05092e-06
6.99477e-06
6.94144e-06
6.89006e-06
6.84025e-06
6.79227e-06
3.63389e-06
3.61029e-06
3.58599e-06
3.56284e-06
3.53987e-06
3.51797e-06
7.06003e-06
7.00281e-06
6.94904e-06
6.89709e-06
6.84671e-06
6.79824e-06
9.18701e-06
8.856e-06
8.51934e-06
8.18832e-06
7.85927e-06
7.59337e-06
2.0817e-05
1.9744e-05
1.91117e-05
1.83614e-05
1.7611e-05
1.71138e-05
3.07702e-05
2.92939e-05
2.86413e-05
2.73861e-05
2.681e-05
2.57429e-05
3.66234e-05
3.56514e-05
3.45485e-05
3.37013e-05
3.26191e-05
3.16796e-05
4.00474e-05
3.84646e-05
3.70741e-05
3.60821e-05
3.51064e-05
3.42712e-05
3.90013e-05
3.7664e-05
3.63466e-05
3.52328e-05
3.385e-05
3.31843e-05
3.12882e-05
3.06485e-05
2.91226e-05
2.84853e-05
2.70155e-05
2.64185e-05
1.99059e-05
1.90513e-05
1.80037e-05
1.7489e-05
1.64966e-05
1.60605e-05
9.0503e-06
8.75865e-06
8.3996e-06
8.09501e-06
7.75694e-06
7.49938e-06
7.23871e-06
7.18536e-06
7.13498e-06
7.08583e-06
7.03808e-06
6.9913e-06
1.01107e-05
1.00188e-05
9.93153e-06
9.84628e-06
9.76432e-06
9.68842e-06
2.03037e-05
1.91363e-05
1.84143e-05
1.77441e-05
1.67571e-05
1.62931e-05
4.2148e-05
4.01917e-05
3.87626e-05
3.75451e-05
3.57483e-05
3.47342e-05
6.10558e-05
5.84546e-05
5.61013e-05
5.38505e-05
5.21424e-05
4.99886e-05
7.10141e-05
6.87851e-05
6.654e-05
6.5031e-05
6.32696e-05
6.07072e-05
7.55065e-05
7.31536e-05
7.09118e-05
6.88183e-05
6.67255e-05
6.55499e-05
7.29306e-05
7.0754e-05
6.86583e-05
6.65151e-05
6.47164e-05
6.30225e-05
6.15084e-05
6.00276e-05
5.82802e-05
5.60075e-05
5.3664e-05
5.16697e-05
4.1304e-05
4.03347e-05
3.84018e-05
3.7363e-05
3.54902e-05
3.45352e-05
2.02941e-05
1.98293e-05
1.88448e-05
1.83449e-05
1.74989e-05
1.70187e-05
1.04908e-05
1.04075e-05
1.03265e-05
1.02481e-05
1.01718e-05
1.00982e-05
1.25532e-05
1.24335e-05
1.23204e-05
1.22104e-05
1.21056e-05
1.20035e-05
3.21812e-05
3.05575e-05
2.99411e-05
2.8502e-05
2.77204e-05
2.65675e-05
6.17829e-05
5.99506e-05
5.86483e-05
5.63312e-05
5.40397e-05
5.18571e-05
8.40326e-05
8.15642e-05
7.91571e-05
7.67797e-05
7.43041e-05
7.24896e-05
9.64654e-05
9.3744e-05
9.11022e-05
8.86204e-05
8.60302e-05
8.41522e-05
0.000100864
9.81003e-05
9.54204e-05
9.28419e-05
9.01783e-05
8.83194e-05
9.72562e-05
9.45657e-05
9.19416e-05
8.93927e-05
8.67635e-05
8.48975e-05
8.39859e-05
8.15377e-05
7.91026e-05
7.67127e-05
7.42095e-05
7.23937e-05
6.0801e-05
5.84874e-05
5.61011e-05
5.39515e-05
5.2013e-05
4.99407e-05
3.00621e-05
2.95527e-05
2.82165e-05
2.76144e-05
2.66305e-05
2.56964e-05
1.29042e-05
1.27796e-05
1.26613e-05
1.25501e-05
1.24443e-05
1.23429e-05
1.41928e-05
1.40414e-05
1.38969e-05
1.37637e-05
1.36391e-05
1.35251e-05
3.92323e-05
3.78431e-05
3.66368e-05
3.54485e-05
3.41908e-05
3.33184e-05
7.31101e-05
7.09186e-05
6.88509e-05
6.67419e-05
6.50649e-05
6.32937e-05
9.74029e-05
9.47241e-05
9.21201e-05
8.95924e-05
8.69994e-05
8.51289e-05
0.00011077
0.000107853
0.000105018
0.000102279
9.9469e-05
9.73552e-05
0.000115027
0.000112055
0.000109166
0.00010637
0.000103506
0.000101326
0.000110668
0.000107764
0.000104935
0.000102204
9.93874e-05
9.72751e-05
9.65731e-05
9.38501e-05
9.12071e-05
8.87471e-05
8.61546e-05
8.42342e-05
7.11214e-05
6.89043e-05
6.66599e-05
6.52897e-05
6.33111e-05
6.08111e-05
3.65996e-05
3.5715e-05
3.44355e-05
3.38437e-05
3.2519e-05
3.1941e-05
1.44024e-05
1.42519e-05
1.41099e-05
1.39765e-05
1.385e-05
1.37303e-05
1.4848e-05
1.46852e-05
1.45266e-05
1.43807e-05
1.42457e-05
1.41224e-05
4.016e-05
3.85841e-05
3.71873e-05
3.61706e-05
3.52494e-05
3.42902e-05
7.56976e-05
7.33593e-05
7.1136e-05
6.90257e-05
6.71426e-05
6.5664e-05
0.000101154
9.83906e-05
9.572e-05
9.31205e-05
9.05493e-05
8.85476e-05
0.000115267
0.000112281
0.000109386
0.000106565
0.000103762
0.000101418
0.000119698
0.000116642
0.000113675
0.000110797
0.000107884
0.000105589
0.000115096
0.000112118
0.000109227
0.000106429
0.000103563
0.000101377
0.000101051
9.82761e-05
9.55923e-05
9.30145e-05
9.03423e-05
8.84744e-05
7.56427e-05
7.32885e-05
7.10607e-05
6.89711e-05
6.68784e-05
6.57116e-05
4.0106e-05
3.85281e-05
3.71343e-05
3.61413e-05
3.51749e-05
3.4323e-05
1.48452e-05
1.46826e-05
1.45239e-05
1.43782e-05
1.42433e-05
1.41198e-05
1.4402e-05
1.4252e-05
1.41098e-05
1.39763e-05
1.38497e-05
3.66133e-05
3.57335e-05
3.44644e-05
3.3849e-05
3.26243e-05
7.11459e-05
6.89236e-05
6.6693e-05
6.53699e-05
6.31615e-05
9.66581e-05
9.39453e-05
9.13393e-05
8.87752e-05
8.668e-05
0.000110863
0.000107961
0.000105152
0.000102343
0.0001
0.000115163
0.000112185
0.000109298
0.000106484
0.000103694
0.000101326
0.000110664
0.00010777
0.000104954
0.000102229
9.94388e-05
9.73247e-05
9.72822e-05
9.45982e-05
9.19936e-05
8.94604e-05
8.68475e-05
8.49866e-05
7.29906e-05
7.0798e-05
6.87188e-05
6.66011e-05
6.47926e-05
6.3154e-05
3.90481e-05
3.7698e-05
3.63791e-05
3.52735e-05
3.38943e-05
3.32534e-05
1.41883e-05
1.40327e-05
1.38885e-05
1.37561e-05
1.36322e-05
1.35175e-05
1.27774e-05
1.26594e-05
1.25482e-05
1.2442e-05
2.9027e-05
2.84686e-05
2.74055e-05
2.65043e-05
6.09645e-05
5.84039e-05
5.60933e-05
5.39144e-05
5.1717e-05
8.40516e-05
8.15875e-05
7.92445e-05
7.67506e-05
7.47375e-05
9.73889e-05
9.47155e-05
9.21439e-05
8.95109e-05
8.74553e-05
0.000101018
9.82572e-05
9.55921e-05
9.29979e-05
9.04542e-05
8.8358e-05
9.64497e-05
9.37522e-05
9.11344e-05
8.8669e-05
8.6133e-05
8.42236e-05
8.39218e-05
8.14723e-05
7.90713e-05
7.66961e-05
7.41931e-05
7.23765e-05
6.15769e-05
5.98931e-05
5.82852e-05
5.60787e-05
5.37277e-05
5.17362e-05
3.14613e-05
3.06114e-05
2.91236e-05
2.85039e-05
2.70617e-05
2.64668e-05
1.25399e-05
1.24228e-05
1.23079e-05
1.21996e-05
1.20957e-05
1.19921e-05
1.04041e-05
1.03235e-05
1.02449e-05
1.01685e-05
1.94945e-05
1.88825e-05
1.82116e-05
1.75109e-05
4.1986e-05
3.99941e-05
3.85879e-05
3.73822e-05
3.57502e-05
6.17364e-05
5.98791e-05
5.85699e-05
5.62529e-05
5.38515e-05
7.30838e-05
7.08838e-05
6.88338e-05
6.66538e-05
6.53528e-05
7.56228e-05
7.32846e-05
7.10632e-05
6.89476e-05
6.70401e-05
6.5614e-05
7.10041e-05
6.88148e-05
6.65718e-05
6.50736e-05
6.33147e-05
6.08556e-05
6.07294e-05
5.83747e-05
5.60077e-05
5.38781e-05
5.19215e-05
4.99586e-05
4.2014e-05
4.00975e-05
3.84406e-05
3.73747e-05
3.54884e-05
3.45623e-05
1.99865e-05
1.89211e-05
1.80829e-05
1.75011e-05
1.65257e-05
1.6088e-05
1.00961e-05
1.00076e-05
9.91906e-06
9.83545e-06
9.75571e-06
9.68111e-06
7.18571e-06
7.13427e-06
7.08504e-06
7.03674e-06
8.71911e-06
8.41204e-06
8.08815e-06
7.79998e-06
2.01622e-05
1.90411e-05
1.82697e-05
1.76378e-05
1.68004e-05
3.20995e-05
3.06187e-05
2.97673e-05
2.86019e-05
2.75009e-05
3.92309e-05
3.7849e-05
3.66404e-05
3.54322e-05
3.4227e-05
4.0135e-05
3.85659e-05
3.71657e-05
3.61933e-05
3.51714e-05
3.44268e-05
3.65236e-05
3.56865e-05
3.43821e-05
3.38487e-05
3.25095e-05
3.19367e-05
2.99993e-05
2.94912e-05
2.81714e-05
2.75487e-05
2.66284e-05
2.56648e-05
2.04701e-05
1.97479e-05
1.88295e-05
1.83061e-05
1.74706e-05
1.69919e-05
9.03763e-06
8.73525e-06
8.39858e-06
8.08801e-06
7.76871e-06
7.5086e-06
7.04953e-06
6.99381e-06
6.94103e-06
6.89024e-06
6.84097e-06
6.79352e-06
3.6102e-06
3.58675e-06
3.56285e-06
3.5399e-06
6.99832e-06
6.94438e-06
6.89265e-06
6.84247e-06
1.01064e-05
1.00167e-05
9.92765e-06
9.84284e-06
9.76312e-06
1.25522e-05
1.24332e-05
1.23193e-05
1.22093e-05
1.21063e-05
1.41944e-05
1.40418e-05
1.38976e-05
1.37638e-05
1.36421e-05
1.48484e-05
1.46854e-05
1.4527e-05
1.43809e-05
1.42471e-05
1.41224e-05
1.44016e-05
1.42512e-05
1.41092e-05
1.39758e-05
1.38491e-05
1.37298e-05
1.29017e-05
1.27771e-05
1.26589e-05
1.25477e-05
1.24419e-05
1.23407e-05
1.04884e-05
1.04046e-05
1.03239e-05
1.02456e-05
1.01694e-05
1.00959e-05
7.23665e-06
7.1836e-06
7.13347e-06
7.08471e-06
7.03712e-06
6.99065e-06
3.63324e-06
3.60971e-06
3.58576e-06
3.56279e-06
3.54004e-06
3.51825e-06
)
;

boundaryField
{
    inlet
    {
        type            calculated;
        value           nonuniform List<scalar> 0();
    }
    ami1
    {
        type            cyclicAMI;
        value           nonuniform List<scalar> 0();
    }
    walls
    {
        type            nutkWallFunction;
        blending        stepwise;
        value           uniform 0;
    }
    ami2
    {
        type            cyclicAMI;
        value           nonuniform List<scalar> 0();
    }
    outlet
    {
        type            calculated;
        value           nonuniform List<scalar> 0();
    }
    procBoundary7to5
    {
        type            processor;
        value           nonuniform List<scalar> 
131
(
3.49708e-06
6.94735e-06
1.00271e-05
1.22447e-05
1.36145e-05
1.40001e-05
1.33997e-05
1.18834e-05
9.60415e-06
6.74399e-06
3.49562e-06
6.74874e-06
7.13998e-06
1.62925e-05
2.51141e-05
3.06315e-05
3.33139e-05
3.16237e-05
2.47886e-05
1.49727e-05
7.07931e-06
6.94505e-06
9.61211e-06
1.51284e-05
3.27858e-05
4.86344e-05
5.79433e-05
6.24283e-05
5.98353e-05
4.92245e-05
3.25895e-05
1.62129e-05
1.00267e-05
1.18962e-05
2.53033e-05
4.96695e-05
6.96521e-05
8.09213e-05
8.50184e-05
8.16499e-05
6.95719e-05
4.85294e-05
2.50642e-05
1.22457e-05
1.34085e-05
3.19361e-05
6.0067e-05
8.18691e-05
9.39427e-05
9.78487e-05
9.38708e-05
8.10269e-05
5.80587e-05
3.05127e-05
1.36169e-05
1.40041e-05
1.37294e-05
3.35134e-05
3.1932e-05
6.24245e-05
6.03319e-05
8.51847e-05
8.36657e-05
9.78814e-05
9.67273e-05
0.000102002
9.79038e-05
8.5207e-05
6.26138e-05
3.34189e-05
1.4003e-05
1.37294e-05
3.1932e-05
6.03319e-05
8.36657e-05
9.67273e-05
9.67273e-05
9.7765e-05
9.39161e-05
8.17653e-05
5.99891e-05
3.16728e-05
1.34028e-05
1.23404e-05
2.58975e-05
5.02817e-05
7.19662e-05
8.44149e-05
8.44149e-05
8.5046e-05
8.10274e-05
6.95734e-05
4.92993e-05
2.4862e-05
1.18864e-05
1.00949e-05
1.69386e-05
3.45136e-05
5.16157e-05
6.26694e-05
6.26694e-05
6.24218e-05
5.80754e-05
4.84021e-05
3.26138e-05
1.50193e-05
9.60715e-06
6.98894e-06
7.34599e-06
1.60439e-05
2.63974e-05
3.31946e-05
3.31946e-05
3.32647e-05
3.05255e-05
2.50554e-05
1.62212e-05
7.09973e-06
6.74551e-06
3.51675e-06
6.79135e-06
9.68435e-06
1.20006e-05
1.35228e-05
1.35228e-05
1.40049e-05
1.36156e-05
1.22433e-05
1.00248e-05
6.94479e-06
3.49611e-06
)
;
    }
    procBoundary7to8
    {
        type            processor;
        value           nonuniform List<scalar> 
68
(
3.66424e-06
7.30204e-06
1.05895e-05
1.30396e-05
1.45657e-05
7.12267e-06
9.92161e-06
2.16456e-05
3.15373e-05
3.79914e-05
1.02092e-05
2.13515e-05
4.36281e-05
6.2514e-05
7.34245e-05
1.2684e-05
3.3364e-05
6.41771e-05
8.6711e-05
9.94558e-05
1.43402e-05
4.07601e-05
7.56086e-05
0.000100342
0.000113981
0.000118354
1.50001e-05
4.18489e-05
7.8207e-05
0.000104147
0.000118537
0.000123089
1.4567e-05
1.29045e-05
3.80199e-05
3.06873e-05
7.34932e-05
9.95835e-05
0.000114039
0.000118459
1.29045e-05
3.06873e-05
3.06873e-05
6.2449e-05
8.66958e-05
0.000100324
0.000104053
1.04902e-05
2.07152e-05
2.07152e-05
4.33992e-05
6.40842e-05
7.55758e-05
7.8157e-05
7.24038e-06
9.35857e-06
9.35857e-06
2.12269e-05
3.33815e-05
4.07697e-05
4.18301e-05
3.6363e-06
7.058e-06
7.058e-06
1.02067e-05
1.26841e-05
1.43415e-05
1.50007e-05
)
;
    }
    procBoundary7to9
    {
        type            processor;
        value           nonuniform List<scalar> 
59
(
1.49967e-05
1.43317e-05
1.26701e-05
1.01941e-05
7.11216e-06
3.661e-06
4.17515e-05
4.05849e-05
3.31934e-05
2.09496e-05
9.7513e-06
7.29705e-06
7.80626e-05
7.54336e-05
6.39949e-05
4.39493e-05
2.16908e-05
1.05887e-05
0.00010393
0.000100217
8.66462e-05
6.26499e-05
3.18988e-05
1.30398e-05
0.000113892
9.95291e-05
7.34923e-05
3.80679e-05
1.4566e-05
0.000118408
0.000104076
7.81442e-05
4.17955e-05
1.4997e-05
0.00011389
0.000100237
7.54617e-05
4.06045e-05
1.43326e-05
9.94339e-05
8.65923e-05
6.39259e-05
3.31707e-05
1.26707e-05
7.34122e-05
6.25228e-05
4.33319e-05
2.09062e-05
1.01938e-05
3.80215e-05
3.17811e-05
2.14128e-05
9.70558e-06
7.11055e-06
1.45653e-05
1.30375e-05
1.05848e-05
7.29456e-06
3.66006e-06
)
;
    }
}


// ************************************************************************* //
