/*--------------------------------*- C++ -*----------------------------------*\
| =========                 |                                                 |
| \\      /  F ield         | OpenFOAM: The Open Source CFD Toolbox           |
|  \\    /   O peration     | Version:  2212                                  |
|   \\  /    A nd           | Website:  www.openfoam.com                      |
|    \\/     M anipulation  |                                                 |
\*---------------------------------------------------------------------------*/
FoamFile
{
    version     2.0;
    format      ascii;
    arch        "LSB;label=32;scalar=64";
    class       volScalarField;
    location    "3";
    object      p;
}
// * * * * * * * * * * * * * * * * * * * * * * * * * * * * * * * * * * * * * //

dimensions      [0 2 -2 0 0 0 0];

internalField   nonuniform List<scalar> 
693
(
0.00185007
0.00173039
0.00161198
0.00149556
0.00138013
0.00126619
0.00184272
0.0017235
0.00160526
0.00148887
0.00137355
0.00125971
0.00183258
0.00171435
0.0015968
0.00148085
0.00136587
0.00125217
0.00183455
0.00171516
0.0015972
0.00148072
0.00136558
0.00125183
0.00184136
0.00172178
0.0016036
0.00148694
0.00137182
0.00125787
0.00184591
0.00172664
0.0016081
0.00149079
0.00137494
0.00126057
0.00184747
0.00172804
0.00160955
0.00149264
0.00137701
0.001263
0.00184685
0.00172817
0.00161124
0.00149569
0.00138102
0.00126742
0.00184839
0.00173038
0.00161378
0.0014982
0.00138325
0.00126928
0.00185762
0.00173765
0.00161954
0.00150296
0.00138745
0.0012732
0.00184957
0.0017298
0.00161169
0.00149512
0.00137969
0.00126557
0.00185826
0.00173818
0.00161968
0.00150329
0.00138789
0.00127389
0.00185872
0.00173934
0.00162033
0.00150345
0.00138759
0.00127318
0.00184349
0.00172544
0.00160809
0.00149183
0.00137669
0.00126248
0.00184708
0.00172849
0.00161103
0.0014942
0.00137872
0.00126416
0.00185076
0.00173159
0.00161344
0.00149643
0.00138102
0.00126687
0.00185216
0.00173267
0.00161445
0.00149747
0.00138167
0.00126736
0.00185014
0.00173064
0.00161216
0.00149497
0.00137924
0.00126511
0.00184695
0.00172714
0.00160863
0.00149195
0.0013766
0.00126242
0.00184617
0.00172792
0.00161085
0.00149487
0.00137979
0.00126561
0.00185819
0.00173856
0.00162003
0.0015029
0.00138707
0.00127252
0.00184231
0.00172286
0.00160484
0.00148835
0.00137311
0.00125918
0.00184903
0.00173065
0.00161355
0.00149842
0.00138372
0.00127003
0.00184594
0.00172816
0.00161099
0.00149505
0.00138002
0.00126597
0.00182236
0.0017053
0.00159004
0.00147473
0.0013603
0.00124627
0.00182057
0.00170232
0.0015856
0.00146961
0.00135475
0.00124091
0.00181762
0.00169938
0.00158234
0.00146625
0.00135087
0.00123657
0.00181726
0.00169884
0.00158198
0.00146627
0.00135128
0.00123691
0.00181703
0.00169888
0.00158154
0.00146505
0.00134988
0.00123561
0.00181814
0.00170076
0.00158394
0.00146779
0.00135272
0.00123884
0.00182258
0.00170564
0.00158993
0.00147487
0.00136035
0.00124638
0.00184345
0.00172504
0.00160779
0.00149152
0.00137644
0.00126216
0.00183245
0.00171362
0.00159628
0.00148024
0.00136552
0.00125179
0.00184693
0.00172824
0.00161107
0.00149578
0.00138126
0.00126803
0.00184682
0.00172723
0.00160887
0.00149202
0.0013768
0.00126254
0.00181815
0.00170056
0.00158415
0.00146785
0.00135271
0.0012386
0.0018124
0.00169408
0.00157671
0.00146007
0.00134463
0.00123056
0.00180651
0.00168832
0.0015713
0.00145506
0.00133938
0.00122444
0.0018061
0.00168787
0.0015708
0.00145466
0.00133941
0.00122446
0.00180687
0.00168857
0.00157122
0.00145481
0.00133946
0.00122459
0.00181241
0.00169416
0.00157655
0.00145989
0.00134453
0.00123059
0.00182025
0.00170257
0.00158561
0.00146965
0.00135455
0.00124083
0.00184662
0.00172826
0.00161067
0.001494
0.00137835
0.00126379
0.00183432
0.00171446
0.00159651
0.00148
0.00136521
0.00125136
0.00184744
0.00172808
0.00160956
0.00149268
0.00137726
0.00126344
0.00185022
0.00173075
0.00161236
0.00149509
0.00137944
0.00126531
0.0018171
0.00169901
0.00158182
0.00146524
0.00134986
0.00123547
0.00180694
0.00168865
0.00157136
0.00145495
0.00133949
0.00122447
0.00179879
0.00168059
0.00156344
0.00144717
0.00133179
0.00121696
0.00179708
0.00167891
0.0015618
0.00144559
0.0013303
0.00121555
0.00179874
0.00168054
0.0015634
0.00144713
0.00133179
0.00121701
0.00180646
0.00168829
0.00157124
0.00145495
0.00133927
0.00122444
0.00181744
0.00169931
0.00158231
0.00146617
0.00135076
0.00123647
0.0018503
0.00173126
0.00161309
0.00149616
0.00138067
0.00126648
0.00184104
0.00172137
0.00160305
0.00148635
0.00137121
0.00125733
0.00184577
0.00172657
0.00160805
0.00149074
0.00137502
0.00126073
0.00185214
0.00173267
0.00161451
0.00149756
0.00138187
0.00126766
0.00181733
0.0016989
0.00158206
0.00146632
0.00135124
0.0012369
0.00180618
0.00168793
0.00157083
0.00145468
0.00133925
0.00122419
0.00179711
0.00167891
0.00156177
0.00144554
0.00133016
0.00121534
0.00179474
0.0016766
0.0015595
0.0014433
0.00132799
0.00121325
0.00179707
0.00167889
0.00156179
0.00144558
0.00133031
0.00121559
0.00180606
0.00168782
0.00157074
0.0014546
0.00133936
0.00122446
0.00181713
0.0016987
0.00158186
0.00146614
0.00135115
0.00123683
0.00185176
0.00173226
0.00161406
0.00149708
0.00138128
0.00126695
0.00184548
0.00172621
0.00160763
0.00149027
0.0013744
0.00126001
0.00184119
0.00172166
0.00160335
0.00148661
0.0013715
0.00185059
0.00173142
0.00161343
0.00149655
0.0013813
0.00181756
0.00169933
0.00158242
0.00146629
0.00135101
0.0018065
0.00168831
0.00157126
0.00145491
0.00133903
0.00179876
0.00168056
0.00156339
0.00144716
0.00133155
0.00179706
0.00167888
0.00156176
0.00144556
0.0013302
0.00121543
0.00179872
0.00168055
0.00156342
0.00144718
0.00133186
0.0012171
0.0018068
0.00168849
0.00157119
0.00145482
0.00133949
0.00122466
0.00181686
0.00169863
0.0015814
0.00146497
0.0013498
0.00123554
0.00184972
0.00173017
0.00161177
0.0014946
0.00137885
0.00126467
0.00184702
0.00172766
0.00160912
0.00149213
0.00137645
0.00126239
0.00171505
0.00159677
0.00148037
0.00136523
0.0017281
0.00161085
0.00149423
0.00137859
0.00182033
0.00170206
0.00158566
0.00146968
0.00135494
0.00181224
0.00169392
0.00157655
0.00145978
0.00134443
0.00180678
0.00168852
0.00157122
0.00145489
0.00133924
0.00180603
0.00168781
0.00157074
0.00145464
0.00133925
0.00122424
0.00180642
0.00168826
0.00157124
0.00145502
0.00133938
0.0012245
0.00181233
0.00169397
0.00157652
0.00145992
0.00134454
0.00123056
0.00181813
0.00170022
0.00158368
0.00146769
0.00135261
0.00123871
0.00184652
0.00172677
0.00160836
0.00149159
0.00137621
0.00126201
0.00184643
0.00172792
0.00161079
0.00149513
0.00138043
0.00126678
0.00171436
0.00159634
0.00148014
0.00136532
0.00172482
0.00160745
0.00149138
0.00137603
0.00182225
0.00170484
0.00158982
0.00147501
0.00136018
0.00181795
0.00170022
0.00158387
0.00146756
0.00135229
0.00181685
0.00169873
0.00158151
0.00146493
0.00134952
0.00181712
0.0016987
0.00158184
0.00146609
0.00135102
0.00123656
0.00181742
0.00169925
0.00158228
0.00146618
0.00135072
0.00123633
0.00182043
0.00170228
0.00158545
0.00146957
0.00135444
0.00124067
0.00182272
0.00170532
0.00158974
0.00147464
0.00136011
0.00124618
0.00184561
0.00172789
0.00161068
0.00149454
0.00137941
0.00126517
0.001848
0.00173008
0.00161319
0.00149767
0.00138274
0.0012687
0.00172395
0.00160507
0.00148813
0.00137323
0.00173916
0.00161985
0.00150253
0.00138693
0.00184594
0.00172754
0.00161039
0.00149453
0.00137935
0.00184653
0.00172684
0.00160853
0.00149173
0.00137624
0.0018499
0.00173037
0.00161195
0.00149456
0.00137885
0.00185184
0.00173234
0.00161412
0.00149708
0.00138128
0.00126696
0.00185028
0.00173122
0.00161307
0.00149609
0.0013805
0.00126629
0.00184666
0.00172809
0.00161046
0.00149379
0.00137812
0.00126356
0.00184314
0.00172501
0.00160762
0.00149127
0.00137617
0.00126186
0.0018575
0.00173832
0.00161962
0.0015025
0.00138666
0.00127203
0.00185695
0.00173722
0.00161899
0.0015024
0.00138688
0.00127259
0.0017308
0.00161175
0.00149475
0.00137979
0.00173849
0.00161942
0.00150246
0.00138751
0.00184878
0.00173047
0.00161312
0.00149759
0.00138317
0.00184662
0.00172803
0.00161077
0.0014954
0.001381
0.00184713
0.00172777
0.00160921
0.00149223
0.00137679
0.00184547
0.0017262
0.00160762
0.0014903
0.00137449
0.00126022
0.00184088
0.00172124
0.00160292
0.00148621
0.00137109
0.00125722
0.00183403
0.00171428
0.00159635
0.00147978
0.00136495
0.00125111
0.00183188
0.00171356
0.00159623
0.0014801
0.00136529
0.00125148
0.00184173
0.0017226
0.0016046
0.00148808
0.00137279
0.0012588
0.00184896
0.00172946
0.00161131
0.00149473
0.00137927
0.0012651
)
;

boundaryField
{
    inlet
    {
        type            zeroGradient;
    }
    ami1
    {
        type            cyclicAMI;
        value           nonuniform List<scalar> 0();
    }
    walls
    {
        type            zeroGradient;
    }
    ami2
    {
        type            cyclicAMI;
        value           nonuniform List<scalar> 0();
    }
    outlet
    {
        type            fixedValue;
        value           nonuniform List<scalar> 0();
    }
    procBoundary7to5
    {
        type            processor;
        value           nonuniform List<scalar> 
131
(
0.0011528
0.0011465
0.00113938
0.00113906
0.00114475
0.00114741
0.00115007
0.00115432
0.00115578
0.00115944
0.00115211
0.00116028
0.00115949
0.0011493
0.00115051
0.00115328
0.00115415
0.00115215
0.00114925
0.00115233
0.00115875
0.00114593
0.00115665
0.00115279
0.00113344
0.00112811
0.00112339
0.00112347
0.00112264
0.00112657
0.00113356
0.00114894
0.00113897
0.00115514
0.00114941
0.00112616
0.00111782
0.00111077
0.00111023
0.00111066
0.00111799
0.00112812
0.0011502
0.00113855
0.0011507
0.00115231
0.00112233
0.00111047
0.00110292
0.00110148
0.00110301
0.00111086
0.00112329
0.00115285
0.00114432
0.00114767
0.00125768
0.00115437
0.0012669
0.00112346
0.00123664
0.00111008
0.00122423
0.00110136
0.00121671
0.00109923
0.00110154
0.0011103
0.00112343
0.00115371
0.00114683
0.00125768
0.0012669
0.00123664
0.00122423
0.00121671
0.00121671
0.00110155
0.00110315
0.00111081
0.00112263
0.00115167
0.00114938
0.00125158
0.00126405
0.00124097
0.00123046
0.00122431
0.00122431
0.00111028
0.00111094
0.00111799
0.0011264
0.00114876
0.00115364
0.0012516
0.00126203
0.00124629
0.00123851
0.00123532
0.00123532
0.00112316
0.00112309
0.00112791
0.00113325
0.00115181
0.00115514
0.00125908
0.00127231
0.00126529
0.00126197
0.00126474
0.00126474
0.00115358
0.0011526
0.00114987
0.00114855
0.00115826
0.00115882
0.00126547
0.00127304
0.00126908
0.00126726
0.00126268
0.00126268
0.001147
0.00114418
0.00113827
0.00113867
0.00114555
0.00115163
)
;
    }
    procBoundary7to8
    {
        type            processor;
        value           nonuniform List<scalar> 
68
(
0.00196909
0.00196087
0.00195105
0.00195561
0.00196215
0.00197814
0.00197821
0.00196372
0.0019677
0.00197124
0.00196803
0.0019652
0.00194179
0.00194012
0.00193694
0.00196609
0.00196721
0.00193758
0.0019318
0.00192582
0.00196716
0.00197075
0.00193675
0.00192643
0.00191815
0.00191642
0.00196565
0.0019728
0.00193726
0.00192565
0.00191646
0.00191402
0.00196201
0.00183437
0.00197104
0.00184689
0.0019368
0.00192578
0.0019181
0.00191639
0.00183437
0.00184689
0.00184689
0.0019398
0.00193157
0.00192624
0.00192549
0.00183239
0.00184358
0.00184358
0.00194157
0.00193728
0.00193646
0.00193704
0.00184222
0.00185843
0.00185843
0.00196543
0.00196695
0.00197042
0.00197251
0.00184955
0.00185763
0.00185763
0.00196777
0.00196583
0.00196688
0.00196539
)
;
    }
    procBoundary7to9
    {
        type            processor;
        value           nonuniform List<scalar> 
59
(
0.00196582
0.00196734
0.00196644
0.00196775
0.0019778
0.00196888
0.00197283
0.00197054
0.0019672
0.00196555
0.00197821
0.00196077
0.00193721
0.00193655
0.00193714
0.00194156
0.00196364
0.00195133
0.00192558
0.00192633
0.00193165
0.00193959
0.00196702
0.00195565
0.00191809
0.00192575
0.00193671
0.00197071
0.0019619
0.0019164
0.00192553
0.00193707
0.00197243
0.00196541
0.00191805
0.00192626
0.00193643
0.00197017
0.00196686
0.0019257
0.00193165
0.0019373
0.00196686
0.00196589
0.00193667
0.00193979
0.00194179
0.00196497
0.00196713
0.00197067
0.001967
0.00196326
0.00197745
0.00197706
0.00196175
0.00195531
0.00195084
0.00196029
0.00196831
)
;
    }
}


// ************************************************************************* //
