/*--------------------------------*- C++ -*----------------------------------*\
| =========                 |                                                 |
| \\      /  F ield         | OpenFOAM: The Open Source CFD Toolbox           |
|  \\    /   O peration     | Version:  2212                                  |
|   \\  /    A nd           | Website:  www.openfoam.com                      |
|    \\/     M anipulation  |                                                 |
\*---------------------------------------------------------------------------*/
FoamFile
{
    version     2.0;
    format      ascii;
    arch        "LSB;label=32;scalar=64";
    class       surfaceScalarField;
    location    "3";
    object      phi;
}
// * * * * * * * * * * * * * * * * * * * * * * * * * * * * * * * * * * * * * //

dimensions      [0 3 -1 0 0 0 0];

oriented        oriented;

internalField   nonuniform List<scalar> 
1826
(
6.16853e-08
-3.40332e-08
3.47437e-08
6.09887e-08
-3.40518e-08
3.47484e-08
6.03044e-08
-3.40601e-08
3.47444e-08
5.96444e-08
-3.40695e-08
3.47296e-08
5.90001e-08
-3.40747e-08
3.4719e-08
-3.40842e-08
3.47046e-08
1.99618e-07
-6.38201e-08
3.18783e-08
1.97592e-07
-6.39258e-08
3.18999e-08
1.95616e-07
-6.4001e-08
3.19169e-08
1.93698e-07
-6.40571e-08
3.19053e-08
1.91814e-07
-6.40938e-08
3.19036e-08
-6.41121e-08
3.18732e-08
3.89513e-07
-8.8784e-08
2.87327e-08
3.8584e-07
-8.88136e-08
2.85614e-08
3.82253e-07
-8.88555e-08
2.84414e-08
3.78753e-07
-8.88797e-08
2.83228e-08
3.75325e-07
-8.89066e-08
2.82402e-08
-8.89279e-08
2.81683e-08
5.56535e-07
-1.06787e-07
2.37354e-08
5.50983e-07
-1.06822e-07
2.35602e-08
5.45588e-07
-1.06856e-07
2.33958e-08
5.40341e-07
-1.06886e-07
2.32533e-08
5.35229e-07
-1.06917e-07
2.31219e-08
-1.06943e-07
2.29945e-08
6.6826e-07
-1.16701e-07
1.67796e-08
6.61581e-07
-1.16747e-07
1.66045e-08
6.55072e-07
-1.16772e-07
1.64251e-08
6.48725e-07
-1.16781e-07
1.62426e-08
6.42546e-07
-1.16783e-07
1.60448e-08
-1.16796e-07
1.58426e-08
6.95521e-07
-1.17773e-07
7.8202e-09
6.8896e-07
-1.17764e-07
7.57786e-09
6.82602e-07
-1.17758e-07
7.34389e-09
6.76467e-07
-1.17769e-07
7.12316e-09
6.7056e-07
-1.17786e-07
6.90971e-09
-1.17811e-07
6.68693e-09
6.37629e-07
-1.09552e-07
-2.45114e-09
6.32053e-07
-1.09501e-07
-2.68651e-09
6.26658e-07
-1.09425e-07
-2.93821e-09
6.21464e-07
-1.09378e-07
-3.19726e-09
6.16463e-07
-1.09366e-07
-3.41967e-09
-1.09358e-07
-3.65034e-09
5.13675e-07
-9.21338e-08
-1.30216e-08
5.09444e-07
-9.20719e-08
-1.31982e-08
5.05438e-07
-9.19326e-08
-1.34867e-08
5.01614e-07
-9.18073e-08
-1.37468e-08
4.97891e-07
-9.17182e-08
-1.3925e-08
-9.16523e-08
-1.40696e-08
3.53525e-07
-6.67304e-08
-2.23278e-08
3.50461e-07
-6.66264e-08
-2.23806e-08
3.47446e-07
-6.65196e-08
-2.23979e-08
3.44488e-07
-6.64321e-08
-2.24179e-08
3.41577e-07
-6.63659e-08
-2.24414e-08
-6.63161e-08
-2.2485e-08
1.86674e-07
-3.47457e-08
-3.00443e-08
1.84787e-07
-3.47471e-08
-2.99925e-08
1.82963e-07
-3.47339e-08
-2.99616e-08
1.81194e-07
-3.47198e-08
-2.9943e-08
1.79469e-07
-3.47105e-08
-2.9931e-08
-3.47007e-08
-2.99461e-08
6.16332e-08
-3.40407e-08
6.09376e-08
-3.40515e-08
6.02618e-08
-3.4058e-08
5.96064e-08
-3.40645e-08
5.89701e-08
-3.40741e-08
-3.40875e-08
1.86899e-07
-3.00476e-08
6.67514e-08
1.84999e-07
-3.00039e-08
6.66521e-08
1.83142e-07
-2.99561e-08
6.65581e-08
1.81352e-07
-2.99439e-08
6.64633e-08
1.79601e-07
-2.99234e-08
6.63938e-08
-2.9941e-08
6.63401e-08
4.99472e-07
-5.57314e-08
6.04421e-08
4.96504e-07
-5.5649e-08
6.05135e-08
4.93501e-07
-5.56145e-08
6.05786e-08
4.90495e-07
-5.56188e-08
6.05854e-08
4.87476e-07
-5.5602e-08
6.06012e-08
-5.56277e-08
6.05482e-08
8.10021e-07
-7.7828e-08
5.23999e-08
8.08335e-07
-7.77731e-08
5.23722e-08
8.06514e-07
-7.77107e-08
5.23589e-08
8.04598e-07
-7.76742e-08
5.22943e-08
8.02585e-07
-7.76152e-08
5.22658e-08
-7.75808e-08
5.22151e-08
1.0342e-06
-9.37252e-08
4.07644e-08
1.03297e-06
-9.36401e-08
4.06549e-08
1.03165e-06
-9.35492e-08
4.05578e-08
1.03023e-06
-9.34763e-08
4.04775e-08
1.02873e-06
-9.34121e-08
4.04107e-08
-9.33696e-08
4.03315e-08
1.16778e-06
-1.02249e-07
2.63675e-08
1.16664e-06
-1.02145e-07
2.62508e-08
1.16544e-06
-1.02057e-07
2.61328e-08
1.16419e-06
-1.01983e-07
2.6006e-08
1.16288e-06
-1.01917e-07
2.58537e-08
-1.01868e-07
2.5689e-08
1.20295e-06
-1.03054e-07
9.52143e-09
1.20208e-06
-1.02998e-07
9.29861e-09
1.2012e-06
-1.02949e-07
9.11343e-09
1.20029e-06
-1.0291e-07
8.95981e-09
1.19935e-06
-1.02899e-07
8.83441e-09
-1.02894e-07
8.68009e-09
1.144e-06
-9.62332e-08
-8.69258e-09
1.14348e-06
-9.62453e-08
-8.91497e-09
1.14298e-06
-9.62684e-08
-9.12026e-09
1.1425e-06
-9.63065e-08
-9.31834e-09
1.14199e-06
-9.63597e-08
-9.45652e-09
-9.638e-08
-9.63751e-09
1.00299e-06
-8.20605e-08
-2.67593e-08
1.00256e-06
-8.214e-08
-2.68692e-08
1.00205e-06
-8.22502e-08
-2.69986e-08
1.00146e-06
-8.23349e-08
-2.71247e-08
1.00079e-06
-8.24009e-08
-2.72139e-08
-8.24096e-08
-2.73217e-08
7.85291e-07
-6.04523e-08
-4.24726e-08
7.83779e-07
-6.05117e-08
-4.24967e-08
7.8216e-07
-6.05481e-08
-4.24815e-08
7.80432e-07
-6.0558e-08
-4.24668e-08
7.78597e-07
-6.05632e-08
-4.24434e-08
-6.05175e-08
-4.2457e-08
4.99215e-07
-3.18714e-08
-5.57525e-08
4.96257e-07
-3.19005e-08
-5.56458e-08
4.93273e-07
-3.19037e-08
-5.56218e-08
4.90286e-07
-3.18989e-08
-5.56151e-08
4.873e-07
-3.18885e-08
-5.56196e-08
-3.18596e-08
-5.56453e-08
1.99493e-07
-6.38428e-08
1.97469e-07
-6.39273e-08
1.95507e-07
-6.40001e-08
1.93593e-07
-6.40497e-08
1.91727e-07
-6.40966e-08
-6.41243e-08
3.53905e-07
-2.23287e-08
9.21976e-08
3.50816e-07
-2.23939e-08
9.21351e-08
3.4777e-07
-2.23839e-08
9.1988e-08
3.44784e-07
-2.24093e-08
9.1859e-08
3.41826e-07
-2.24212e-08
9.1773e-08
-2.24651e-08
9.17032e-08
7.85158e-07
-4.25242e-08
8.20352e-08
7.83687e-07
-4.254e-08
8.21312e-08
7.82075e-07
-4.24728e-08
8.22796e-08
7.80362e-07
-4.24676e-08
8.23565e-08
7.7854e-07
-4.24354e-08
8.24374e-08
-4.24504e-08
8.24404e-08
1.12433e-06
-6.07096e-08
6.90858e-08
1.12571e-06
-6.06971e-08
6.91483e-08
1.12697e-06
-6.06187e-08
6.92406e-08
1.12809e-06
-6.05623e-08
6.92756e-08
1.1291e-06
-6.04994e-08
6.93175e-08
-6.04583e-08
6.93325e-08
1.35847e-06
-7.43163e-08
5.17217e-08
1.36102e-06
-7.42793e-08
5.16832e-08
1.36351e-06
-7.42185e-08
5.16665e-08
1.36589e-06
-7.41382e-08
5.1675e-08
1.36817e-06
-7.4061e-08
5.16933e-08
-7.3989e-08
5.17032e-08
1.4968e-06
-8.20778e-08
3.10735e-08
1.49976e-06
-8.19905e-08
3.10033e-08
1.50264e-06
-8.19171e-08
3.09499e-08
1.50545e-06
-8.18512e-08
3.09043e-08
1.50821e-06
-8.18037e-08
3.08369e-08
-8.17649e-08
3.07455e-08
1.53787e-06
-8.36774e-08
7.94971e-09
1.541e-06
-8.36374e-08
7.81023e-09
1.5441e-06
-8.35997e-08
7.6952e-09
1.54717e-06
-8.35632e-08
7.59969e-09
1.55021e-06
-8.35434e-08
7.53692e-09
-8.35217e-08
7.43783e-09
1.48515e-06
-7.93062e-08
-1.62598e-08
1.48835e-06
-7.93562e-08
-1.6398e-08
1.49154e-06
-7.93904e-08
-1.65267e-08
1.49472e-06
-7.94117e-08
-1.66433e-08
1.49788e-06
-7.94412e-08
-1.67235e-08
-7.94589e-08
-1.68405e-08
1.34647e-06
-6.90723e-08
-3.99102e-08
1.34934e-06
-6.91537e-08
-3.99405e-08
1.35216e-06
-6.92144e-08
-3.99926e-08
1.35494e-06
-6.92528e-08
-4.00655e-08
1.35768e-06
-6.92913e-08
-4.01065e-08
-6.92988e-08
-4.01473e-08
1.12472e-06
-5.2354e-08
-6.07089e-08
1.12611e-06
-5.23674e-08
-6.06679e-08
1.12735e-06
-5.23247e-08
-6.06142e-08
1.12846e-06
-5.22735e-08
-6.05563e-08
1.12945e-06
-5.22235e-08
-6.04984e-08
-5.21657e-08
-6.04573e-08
8.10171e-07
-2.86963e-08
-7.78455e-08
8.0847e-07
-2.855e-08
-7.77617e-08
8.0665e-07
-2.84134e-08
-7.77131e-08
8.04724e-07
-2.83096e-08
-7.76537e-08
8.02713e-07
-2.821e-08
-7.76219e-08
-2.81338e-08
-7.75869e-08
3.89421e-07
-8.8768e-08
3.85752e-07
-8.88076e-08
3.82185e-07
-8.88468e-08
3.78701e-07
-8.88748e-08
3.75301e-07
-8.89074e-08
-8.89303e-08
5.14114e-07
-1.30009e-08
1.0959e-07
5.09855e-07
-1.31657e-08
1.09559e-07
5.05808e-07
-1.34447e-08
1.0948e-07
5.01956e-07
-1.37204e-08
1.09431e-07
4.98201e-07
-1.38892e-08
1.09418e-07
-1.40379e-08
1.0942e-07
1.00255e-06
-2.67736e-08
9.62557e-08
1.00214e-06
-2.68831e-08
9.62641e-08
1.00166e-06
-2.6988e-08
9.62986e-08
1.00109e-06
-2.71238e-08
9.63326e-08
1.00044e-06
-2.71986e-08
9.63963e-08
-2.7316e-08
9.64082e-08
1.34606e-06
-3.99146e-08
7.9327e-08
1.34891e-06
-3.99494e-08
7.9369e-08
1.35173e-06
-3.99837e-08
7.94151e-08
1.35451e-06
-4.00591e-08
7.94371e-08
1.35727e-06
-4.01068e-08
7.9465e-08
-4.01485e-08
7.94822e-08
1.58163e-06
-5.0427e-08
5.77275e-08
1.58607e-06
-5.04405e-08
5.77305e-08
1.59047e-06
-5.04473e-08
5.77322e-08
1.59481e-06
-5.04524e-08
5.7731e-08
1.59908e-06
-5.04356e-08
5.77468e-08
-5.04152e-08
5.77696e-08
1.72206e-06
-5.70865e-08
3.25519e-08
1.72716e-06
-5.70618e-08
3.25223e-08
1.7322e-06
-5.70375e-08
3.2498e-08
1.73719e-06
-5.7016e-08
3.24761e-08
1.74213e-06
-5.69991e-08
3.24599e-08
-5.69834e-08
3.24323e-08
1.76712e-06
-5.94953e-08
5.00382e-09
1.77241e-06
-5.94778e-08
4.93083e-09
1.77766e-06
-5.94592e-08
4.8687e-09
1.78287e-06
-5.94399e-08
4.81635e-09
1.78805e-06
-5.94281e-08
4.78281e-09
-5.94188e-08
4.73828e-09
1.71873e-06
-5.77011e-08
-2.32566e-08
1.72389e-06
-5.77087e-08
-2.33246e-08
1.729e-06
-5.77106e-08
-2.33849e-08
1.73406e-06
-5.7709e-08
-2.34388e-08
1.73911e-06
-5.77231e-08
-2.34728e-08
-5.77438e-08
-2.35146e-08
1.58179e-06
-5.16857e-08
-5.04384e-08
1.58625e-06
-5.16639e-08
-5.04455e-08
1.59065e-06
-5.165e-08
-5.04525e-08
1.59499e-06
-5.16549e-08
-5.04573e-08
1.59926e-06
-5.16593e-08
-5.04391e-08
-5.1666e-08
-5.04163e-08
1.35865e-06
-4.0718e-08
-7.43341e-08
1.36123e-06
-4.06344e-08
-7.42781e-08
1.36371e-06
-4.05336e-08
-7.42138e-08
1.3661e-06
-4.04672e-08
-7.41347e-08
1.36837e-06
-4.03621e-08
-7.40659e-08
-4.02871e-08
-7.39914e-08
1.03437e-06
-2.37282e-08
-9.37407e-08
1.03316e-06
-2.35493e-08
-9.36392e-08
1.03184e-06
-2.33744e-08
-9.35506e-08
1.03042e-06
-2.3234e-08
-9.34651e-08
1.02893e-06
-2.30838e-08
-9.34158e-08
-2.29588e-08
-9.33688e-08
5.56517e-07
-1.06758e-07
5.50971e-07
-1.06812e-07
5.45603e-07
-1.06853e-07
5.40385e-07
-1.06891e-07
5.35309e-07
-1.06915e-07
-1.06945e-07
6.37849e-07
-2.44741e-09
1.17797e-07
6.32282e-07
-2.67014e-09
1.17797e-07
6.26885e-07
-2.91821e-09
1.17795e-07
6.21677e-07
-3.17161e-09
1.17811e-07
6.16653e-07
-3.39444e-09
1.17836e-07
-3.61694e-09
1.17874e-07
1.14368e-06
-8.68211e-09
1.03096e-07
1.14314e-06
-8.90212e-09
1.03037e-07
1.14264e-06
-9.10579e-09
1.02987e-07
1.14215e-06
-9.29772e-09
1.02946e-07
1.14166e-06
-9.439e-09
1.02932e-07
-9.62322e-09
1.02923e-07
1.48487e-06
-1.62478e-08
8.37166e-08
1.48805e-06
-1.63881e-08
8.36714e-08
1.49124e-06
-1.6514e-08
8.36325e-08
1.49441e-06
-1.66268e-08
8.35952e-08
1.49758e-06
-1.671e-08
8.35715e-08
-1.6835e-08
8.35428e-08
1.7186e-06
-2.3242e-08
5.95285e-08
1.72375e-06
-2.33127e-08
5.95072e-08
1.72885e-06
-2.33737e-08
5.94869e-08
1.73392e-06
-2.34278e-08
5.94668e-08
1.73896e-06
-2.34643e-08
5.94553e-08
-2.35114e-08
5.94461e-08
1.85894e-06
-2.84841e-08
3.16403e-08
1.86502e-06
-2.8501e-08
3.16291e-08
1.87104e-06
-2.85153e-08
3.16191e-08
1.87701e-06
-2.85282e-08
3.16097e-08
1.88294e-06
-2.85371e-08
3.16044e-08
-2.85484e-08
3.15975e-08
1.90558e-06
-3.16132e-08
1.69814e-09
1.91194e-06
-3.16045e-08
1.67715e-09
1.91823e-06
-3.15965e-08
1.65913e-09
1.92447e-06
-3.15888e-08
1.64364e-09
1.93066e-06
-3.15837e-08
1.63371e-09
-3.15756e-08
1.6222e-09
1.85898e-06
-3.2531e-08
-2.84945e-08
1.86506e-06
-3.25026e-08
-2.85092e-08
1.87108e-06
-3.24795e-08
-2.85217e-08
1.87704e-06
-3.24574e-08
-2.85333e-08
1.88297e-06
-3.2439e-08
-2.85405e-08
-3.241e-08
-2.85487e-08
1.72207e-06
-3.10497e-08
-5.70978e-08
1.72717e-06
-3.0979e-08
-5.70695e-08
1.73221e-06
-3.09288e-08
-5.70425e-08
1.73719e-06
-3.08788e-08
-5.70206e-08
1.74212e-06
-3.08044e-08
-5.70037e-08
-3.0711e-08
-5.69863e-08
1.49682e-06
-2.63425e-08
-8.20945e-08
1.49978e-06
-2.62178e-08
-8.20021e-08
1.50266e-06
-2.61042e-08
-8.19217e-08
1.50548e-06
-2.59737e-08
-8.18543e-08
1.50823e-06
-2.58204e-08
-8.18075e-08
-2.56487e-08
-8.17692e-08
1.16785e-06
-1.67741e-08
-1.02264e-07
1.16674e-06
-1.65866e-08
-1.02157e-07
1.16555e-06
-1.64032e-08
-1.02064e-07
1.16431e-06
-1.62111e-08
-1.01987e-07
1.163e-06
-1.60136e-08
-1.01919e-07
-1.58064e-08
-1.0187e-07
6.6837e-07
-1.16689e-07
6.61709e-07
-1.16737e-07
6.55223e-07
-1.1677e-07
6.48905e-07
-1.16785e-07
6.42767e-07
-1.16791e-07
-1.16799e-07
6.95556e-07
7.82434e-09
1.16718e-07
6.89001e-07
7.58564e-09
1.16767e-07
6.82643e-07
7.35169e-09
1.16801e-07
6.765e-07
7.13343e-09
1.16821e-07
6.70581e-07
6.91781e-09
1.16837e-07
6.6986e-09
1.2028e-06
9.53407e-09
1.02293e-07
1.20192e-06
9.31085e-09
1.02189e-07
1.20104e-06
9.12412e-09
1.02096e-07
1.20013e-06
8.97711e-09
1.02016e-07
1.19919e-06
8.84472e-09
1.01945e-07
8.68749e-09
1.53773e-06
7.96527e-09
8.2125e-08
1.54086e-06
7.82438e-09
8.20332e-08
1.54395e-06
7.70836e-09
8.19524e-08
1.54702e-06
7.61655e-09
8.18852e-08
1.55006e-06
7.54688e-09
8.18365e-08
7.4352e-09
1.76703e-06
5.01894e-09
5.71284e-08
1.77232e-06
4.94457e-09
5.70994e-08
1.77756e-06
4.88085e-09
5.70716e-08
1.78277e-06
4.82818e-09
5.7047e-08
1.78795e-06
4.78976e-09
5.70335e-08
4.73649e-09
1.90554e-06
1.7083e-09
2.85203e-08
1.9119e-06
1.68604e-09
2.8534e-08
1.91818e-06
1.66615e-09
2.85456e-08
1.92442e-06
1.64906e-09
2.85534e-08
1.93061e-06
1.63461e-09
2.85657e-08
1.61592e-09
1.95214e-06
-1.67416e-09
-1.67683e-09
1.95881e-06
-1.65443e-09
-1.65637e-09
1.96542e-06
-1.63782e-09
-1.63865e-09
1.97196e-06
-1.62393e-09
-1.62414e-09
1.97845e-06
-1.61579e-09
-1.61227e-09
-1.60648e-09
-1.59651e-09
1.90558e-06
-4.98456e-09
-3.16169e-08
1.91193e-06
-4.91113e-09
-3.16071e-08
1.91822e-06
-4.84878e-09
-3.15983e-08
1.92445e-06
-4.79613e-09
-3.15902e-08
1.93064e-06
-4.76216e-09
-3.15843e-08
-4.71826e-09
-3.15744e-08
1.76709e-06
-7.92849e-09
-5.95033e-08
1.77238e-06
-7.78619e-09
-5.94835e-08
1.77762e-06
-7.66929e-09
-5.94637e-08
1.78282e-06
-7.57118e-09
-5.94441e-08
1.78799e-06
-7.50544e-09
-5.94318e-08
-7.40509e-09
-5.94214e-08
1.53784e-06
-9.49724e-09
-8.36929e-08
1.54097e-06
-9.26991e-09
-8.36482e-08
1.54407e-06
-9.08023e-09
-8.36075e-08
1.54714e-06
-8.92221e-09
-8.357e-08
1.55017e-06
-8.79157e-09
-8.35498e-08
-8.63498e-09
-8.35274e-08
1.20297e-06
-7.80294e-09
-1.03068e-07
1.20211e-06
-7.55821e-09
-1.03007e-07
1.20124e-06
-7.31976e-09
-1.02957e-07
1.20034e-06
-7.0937e-09
-1.02918e-07
1.19941e-06
-6.87492e-09
-1.02906e-07
-6.64977e-09
-1.02899e-07
6.95656e-07
-1.1777e-07
6.89126e-07
-1.17764e-07
6.82797e-07
-1.17761e-07
6.7669e-07
-1.17772e-07
6.70811e-07
-1.17787e-07
-1.17811e-07
6.68188e-07
1.67918e-08
6.61512e-07
1.66147e-08
1.06828e-07
6.55007e-07
1.64314e-08
1.06874e-07
6.48674e-07
1.6243e-08
1.06911e-07
1.60384e-08
1.06957e-07
1.16779e-06
2.63795e-08
1.16666e-06
2.62564e-08
9.36811e-08
1.16546e-06
2.61471e-08
9.35767e-08
1.16419e-06
2.60192e-08
9.35104e-08
2.5858e-08
9.34496e-08
1.49681e-06
3.1084e-08
7.43616e-08
1.49976e-06
3.10131e-08
7.432e-08
1.50265e-06
3.09651e-08
7.42493e-08
1.50546e-06
3.09156e-08
7.4176e-08
3.08272e-08
7.40949e-08
1.72205e-06
3.256e-08
5.04706e-08
1.72715e-06
3.2531e-08
5.04796e-08
1.73219e-06
3.25062e-08
5.04838e-08
1.73719e-06
3.24872e-08
5.04804e-08
3.24557e-08
5.04712e-08
1.85894e-06
3.16436e-08
2.32821e-08
1.86502e-06
3.16329e-08
2.33501e-08
1.87104e-06
3.16221e-08
2.34098e-08
1.87701e-06
3.16138e-08
2.34549e-08
3.15989e-08
2.35034e-08
1.90557e-06
2.85173e-08
-4.98395e-09
1.91192e-06
2.85311e-08
-4.91051e-09
1.91821e-06
2.85421e-08
-4.84777e-09
1.92445e-06
2.85516e-08
-4.79684e-09
1.93064e-06
2.85549e-08
-4.75831e-09
2.85574e-08
-4.70497e-09
1.85899e-06
2.32764e-08
-3.2532e-08
1.86508e-06
2.3345e-08
-3.25031e-08
1.87109e-06
2.3405e-08
-3.24792e-08
1.87705e-06
2.34583e-08
-3.24577e-08
1.88297e-06
2.34915e-08
-3.24398e-08
2.35315e-08
-3.24079e-08
1.71874e-06
1.62818e-08
-5.77097e-08
1.72389e-06
1.6424e-08
-5.77141e-08
1.729e-06
1.65529e-08
-5.77152e-08
1.73405e-06
1.66698e-08
-5.77126e-08
1.73909e-06
1.67507e-08
-5.77247e-08
1.68679e-08
-5.77422e-08
1.48515e-06
8.71892e-09
-7.93254e-08
1.48834e-06
8.94737e-09
-7.93624e-08
1.49153e-06
9.15482e-09
-7.93997e-08
1.49469e-06
9.35466e-09
-7.9421e-08
1.49785e-06
9.49331e-09
-7.94473e-08
9.67722e-09
-7.94619e-08
1.14401e-06
2.47171e-09
-9.62419e-08
1.14349e-06
2.70622e-09
-9.62439e-08
1.143e-06
2.96023e-09
-9.62738e-08
1.14253e-06
3.22297e-09
-9.63137e-08
1.14203e-06
3.44804e-09
-9.63678e-08
3.68226e-09
-9.63879e-08
6.37747e-07
-1.09548e-07
6.32194e-07
-1.09506e-07
6.26821e-07
-1.09427e-07
6.21647e-07
-1.09376e-07
6.16673e-07
-1.09364e-07
-1.09358e-07
5.50786e-07
2.3565e-08
8.88164e-08
5.45399e-07
2.34081e-08
8.8853e-08
5.40167e-07
2.32415e-08
8.89017e-08
2.31123e-08
8.89345e-08
1.03316e-06
4.06448e-08
7.7812e-08
1.03184e-06
4.05767e-08
7.77311e-08
1.03042e-06
4.04707e-08
7.76979e-08
4.04123e-08
7.76546e-08
1.35866e-06
5.17213e-08
6.07262e-08
1.36122e-06
5.16849e-08
6.07193e-08
1.36372e-06
5.1677e-08
6.0643e-08
1.36611e-06
5.16794e-08
6.0579e-08
5.16972e-08
6.05304e-08
1.58172e-06
5.77227e-08
3.99442e-08
1.58618e-06
5.77282e-08
3.99797e-08
1.5906e-06
5.77307e-08
4.00135e-08
1.59494e-06
5.7734e-08
4.0084e-08
5.77404e-08
4.01516e-08
1.71864e-06
5.95189e-08
1.6282e-08
1.7238e-06
5.94994e-08
1.64218e-08
1.72891e-06
5.94796e-08
1.65496e-08
1.73398e-06
5.94628e-08
1.66511e-08
5.94424e-08
1.67624e-08
1.76707e-06
5.71137e-08
-7.93233e-09
1.77236e-06
5.70853e-08
-7.79067e-09
1.77761e-06
5.70583e-08
-7.673e-09
1.78282e-06
5.7035e-08
-7.57946e-09
1.788e-06
5.70135e-08
-7.50684e-09
5.69904e-08
-7.39027e-09
1.72212e-06
5.04521e-08
-3.10539e-08
1.72722e-06
5.04618e-08
-3.09831e-08
1.73226e-06
5.04688e-08
-3.09298e-08
1.73725e-06
5.04738e-08
-3.08832e-08
1.74218e-06
5.0456e-08
-3.08127e-08
5.04321e-08
-3.0713e-08
1.58187e-06
3.99255e-08
-5.16994e-08
1.58632e-06
3.99691e-08
-5.16698e-08
1.59071e-06
4.00141e-08
-5.1654e-08
1.59504e-06
4.00854e-08
-5.16563e-08
1.5993e-06
4.01299e-08
-5.16618e-08
4.01733e-08
-5.16648e-08
1.34652e-06
2.67877e-08
-6.91079e-08
1.34936e-06
2.69114e-08
-6.915e-08
1.35217e-06
2.70284e-08
-6.92242e-08
1.35494e-06
2.71518e-08
-6.92569e-08
1.35767e-06
2.72428e-08
-6.92914e-08
2.73527e-08
-6.92978e-08
1.003e-06
1.30413e-08
-8.2055e-08
1.00257e-06
1.32256e-08
-8.21328e-08
1.00208e-06
1.35095e-08
-8.22616e-08
1.00149e-06
1.37674e-08
-8.23405e-08
1.00083e-06
1.39462e-08
-8.24066e-08
1.40918e-08
-8.24146e-08
5.13776e-07
-9.21295e-08
5.09559e-07
-9.20629e-08
5.05564e-07
-9.19222e-08
5.01761e-07
-9.18052e-08
4.98064e-07
-9.17215e-08
-9.16584e-08
3.85602e-07
2.8568e-08
6.39171e-08
3.82012e-07
2.84622e-08
6.39803e-08
3.78527e-07
2.83341e-08
6.40528e-08
2.82456e-08
6.4087e-08
8.08445e-07
5.23646e-08
5.56941e-08
8.06645e-07
5.23584e-08
5.56355e-08
8.04746e-07
5.23032e-08
5.56277e-08
5.22524e-08
5.56499e-08
1.1246e-06
6.90973e-08
4.2519e-08
1.12598e-06
6.91523e-08
4.2547e-08
1.12725e-06
6.92434e-08
4.24935e-08
1.12837e-06
6.92943e-08
4.24691e-08
6.93179e-08
4.24818e-08
1.34621e-06
7.93199e-08
2.67865e-08
1.34907e-06
7.93619e-08
2.69051e-08
1.35191e-06
7.94086e-08
2.70059e-08
1.35472e-06
7.94337e-08
2.71441e-08
7.9451e-08
2.72626e-08
1.48492e-06
8.37002e-08
8.70465e-09
1.48812e-06
8.36569e-08
8.92581e-09
1.49133e-06
8.36187e-08
9.1321e-09
1.49451e-06
8.35845e-08
9.31648e-09
8.35544e-08
9.49096e-09
1.53777e-06
8.21048e-08
-9.50764e-09
1.5409e-06
8.20127e-08
-9.28218e-09
1.54401e-06
8.19347e-08
-9.0951e-09
1.54709e-06
8.18665e-08
-8.94053e-09
1.55013e-06
8.18148e-08
-8.80999e-09
8.17717e-08
-8.63618e-09
1.49687e-06
7.4339e-08
-2.63478e-08
1.49984e-06
7.42913e-08
-2.62245e-08
1.50272e-06
7.42296e-08
-2.61103e-08
1.50554e-06
7.41509e-08
-2.59848e-08
1.5083e-06
7.40788e-08
-2.5834e-08
7.40049e-08
-2.5661e-08
1.35877e-06
6.06988e-08
-4.07213e-08
1.36133e-06
6.07015e-08
-4.06403e-08
1.3638e-06
6.0635e-08
-4.05364e-08
1.36619e-06
6.05813e-08
-4.04714e-08
1.36845e-06
6.05234e-08
-4.03708e-08
6.04825e-08
-4.02934e-08
1.12479e-06
4.24949e-08
-5.23923e-08
1.12616e-06
4.25389e-08
-5.23544e-08
1.1274e-06
4.24948e-08
-5.23221e-08
1.1285e-06
4.24938e-08
-5.22692e-08
1.12948e-06
4.24731e-08
-5.22214e-08
4.24886e-08
-5.21684e-08
7.85354e-07
2.23437e-08
-6.04581e-08
7.83846e-07
2.2419e-08
-6.05055e-08
7.82212e-07
2.24206e-08
-6.05534e-08
7.80483e-07
2.24417e-08
-6.05594e-08
7.78653e-07
2.24624e-08
-6.05659e-08
2.2504e-08
-6.05196e-08
3.53552e-07
-6.67211e-08
3.50521e-07
-6.66124e-08
3.47536e-07
-6.65171e-08
3.44605e-07
-6.64322e-08
3.41715e-07
-6.63686e-08
-6.63219e-08
1.9747e-07
3.18883e-08
3.40612e-08
1.9547e-07
3.1919e-08
3.40614e-08
1.93535e-07
3.19207e-08
3.40678e-08
3.18921e-08
3.4079e-08
4.96313e-07
6.04962e-08
3.00191e-08
4.93339e-07
6.05677e-08
2.99609e-08
4.9036e-07
6.05954e-08
2.99323e-08
6.0557e-08
2.99432e-08
7.85188e-07
8.20554e-08
2.23512e-08
7.83716e-07
8.21314e-08
2.23839e-08
7.82126e-07
8.22732e-08
2.23773e-08
7.80428e-07
8.23641e-08
2.2399e-08
8.23993e-08
2.24381e-08
1.00262e-06
9.62563e-08
1.3012e-08
1.00222e-06
9.62607e-08
1.31773e-08
1.00175e-06
9.62953e-08
1.3448e-08
1.0012e-06
9.63315e-08
1.37289e-08
9.63689e-08
1.39208e-08
1.14371e-06
1.03085e-07
2.45977e-09
1.14319e-06
1.03026e-07
2.68251e-09
1.14271e-06
1.02977e-07
2.93028e-09
1.14224e-06
1.02936e-07
3.17849e-09
1.0292e-07
3.41253e-09
1.20283e-06
1.02281e-07
-7.80954e-09
1.20196e-06
1.02175e-07
-7.56729e-09
1.2011e-06
1.02082e-07
-7.33343e-09
1.2002e-06
1.02005e-07
-7.11345e-09
1.19927e-06
1.0194e-07
-6.90197e-09
1.01893e-07
-6.67331e-09
1.16784e-06
9.37589e-08
-1.67749e-08
1.16672e-06
9.36615e-08
-1.65883e-08
1.16552e-06
9.35743e-08
-1.64066e-08
1.16427e-06
9.34861e-08
-1.62185e-08
1.16297e-06
9.34347e-08
-1.6025e-08
9.3389e-08
-1.58207e-08
1.03443e-06
7.78549e-08
-2.37106e-08
1.0332e-06
7.77886e-08
-2.35419e-08
1.03187e-06
7.77403e-08
-2.33724e-08
1.03044e-06
7.76824e-08
-2.32366e-08
1.02895e-06
7.76472e-08
-2.30897e-08
7.76081e-08
-2.29638e-08
8.10221e-07
5.575e-08
-2.86986e-08
8.08513e-07
5.56728e-08
-2.85299e-08
8.06683e-07
5.56514e-08
-2.84037e-08
8.04755e-07
5.56451e-08
-2.83034e-08
8.02741e-07
5.5647e-08
-2.82077e-08
5.56695e-08
-2.81368e-08
4.99193e-07
3.00402e-08
-3.18857e-08
4.96255e-07
3.00061e-08
-3.19009e-08
4.93286e-07
2.99723e-08
-3.19057e-08
4.90316e-07
2.99555e-08
-3.18991e-08
4.87343e-07
2.99431e-08
-3.18895e-08
2.99567e-08
-3.1862e-08
1.86656e-07
-3.47495e-08
1.84797e-07
-3.47473e-08
1.82991e-07
-3.47385e-08
1.8124e-07
-3.47257e-08
1.79531e-07
-3.47165e-08
-3.47066e-08
6.09612e-08
3.47513e-08
6.02724e-08
3.47502e-08
5.96029e-08
3.47374e-08
3.47187e-08
1.8492e-07
6.66751e-08
1.8305e-07
6.65811e-08
1.81244e-07
6.64758e-08
6.64007e-08
3.53819e-07
9.21825e-08
3.50746e-07
9.21317e-08
3.47712e-07
9.19934e-08
3.44739e-07
9.18471e-08
9.17557e-08
5.14129e-07
1.09581e-07
5.09882e-07
1.09556e-07
5.05842e-07
1.09481e-07
5.01988e-07
1.0943e-07
1.09417e-07
6.3792e-07
1.17788e-07
6.3237e-07
1.17789e-07
6.26991e-07
1.1779e-07
6.21796e-07
1.17804e-07
1.17832e-07
6.95609e-07
1.16707e-07
6.89072e-07
1.16758e-07
6.82733e-07
1.16795e-07
6.7661e-07
1.16814e-07
6.70714e-07
1.16826e-07
1.16846e-07
6.68196e-07
1.06789e-07
6.61525e-07
1.06841e-07
6.55035e-07
1.06878e-07
6.48714e-07
1.06917e-07
6.42571e-07
1.06943e-07
1.06978e-07
5.56337e-07
8.8815e-08
5.50797e-07
8.88397e-08
5.4543e-07
8.88723e-08
5.40216e-07
8.88955e-08
5.35143e-07
8.89263e-08
8.8952e-08
3.8932e-07
6.38641e-08
3.85669e-07
6.39609e-08
3.82107e-07
6.4031e-08
3.78624e-07
6.40749e-08
3.75226e-07
6.41163e-08
6.41395e-08
1.99427e-07
3.40454e-08
1.97427e-07
3.40606e-08
1.95483e-07
3.40694e-08
1.93582e-07
3.4076e-08
1.91725e-07
3.40841e-08
3.40959e-08
6.1619e-08
6.09322e-08
6.02631e-08
5.96134e-08
5.8981e-08
)
;

boundaryField
{
    inlet
    {
        type            calculated;
        value           nonuniform List<scalar> 0();
    }
    ami1
    {
        type            cyclicAMI;
        value           nonuniform List<scalar> 0();
    }
    walls
    {
        type            calculated;
        value           nonuniform List<scalar> 
248
(
2.90979e-14
2.43942e-14
1.84387e-14
1.28555e-14
6.40674e-15
1.34856e-21
-6.40674e-15
-1.28555e-14
-1.84387e-14
-2.43942e-14
-2.90979e-14
2.90979e-14
2.43942e-14
1.84387e-14
1.28555e-14
6.40674e-15
1.34856e-21
-6.40674e-15
-1.28555e-14
-1.84387e-14
-2.43942e-14
-2.90979e-14
2.90979e-14
2.43942e-14
1.84387e-14
1.28555e-14
6.40674e-15
1.34856e-21
-6.40674e-15
-1.28555e-14
-1.84387e-14
-2.43942e-14
-2.90979e-14
2.90979e-14
2.43942e-14
1.84387e-14
1.28555e-14
6.40674e-15
1.34856e-21
-6.40674e-15
-1.28555e-14
-1.84387e-14
-2.43942e-14
-2.90979e-14
2.90979e-14
2.43942e-14
1.84387e-14
1.28555e-14
6.40674e-15
1.34856e-21
-6.40674e-15
-1.28555e-14
-1.84387e-14
-2.43942e-14
-2.90979e-14
2.90979e-14
2.43942e-14
1.84387e-14
1.28555e-14
6.40674e-15
1.34856e-21
-6.40674e-15
-1.28555e-14
-1.84387e-14
-2.43942e-14
-2.90979e-14
2.90979e-14
2.43942e-14
1.84387e-14
1.28555e-14
6.40674e-15
1.34856e-21
-6.40674e-15
-1.28555e-14
-1.84387e-14
-2.43942e-14
-2.90979e-14
2.90979e-14
2.43942e-14
1.84387e-14
1.28555e-14
6.40674e-15
1.34856e-21
-6.40674e-15
-1.28555e-14
-1.84387e-14
-2.43942e-14
-2.90979e-14
2.90979e-14
2.43942e-14
1.84387e-14
1.28555e-14
6.40674e-15
1.34856e-21
-6.40674e-15
-1.28555e-14
-1.84387e-14
-2.43942e-14
-2.90979e-14
2.90979e-14
2.43942e-14
1.84387e-14
1.28555e-14
6.40674e-15
1.34856e-21
-6.40674e-15
-1.28555e-14
-1.84387e-14
-2.43942e-14
-2.90979e-14
2.90979e-14
2.43942e-14
1.84387e-14
1.28555e-14
6.40674e-15
1.34856e-21
-6.40674e-15
-1.28555e-14
-1.84387e-14
-2.43942e-14
-2.90979e-14
2.90979e-14
2.43942e-14
1.84387e-14
1.28555e-14
6.40674e-15
1.34856e-21
-6.40674e-15
-1.28555e-14
-1.84387e-14
-2.43942e-14
-2.90979e-14
-1.84387e-14
-1.28555e-14
-6.40674e-15
8.11493e-22
6.40674e-15
1.28555e-14
1.84387e-14
2.43942e-14
2.90979e-14
-2.90979e-14
-2.43942e-14
-1.84387e-14
-1.28555e-14
-6.40674e-15
8.11493e-22
6.40674e-15
1.28555e-14
1.84387e-14
2.43942e-14
2.90979e-14
-2.90979e-14
-2.43942e-14
-1.84387e-14
-1.28555e-14
-6.40674e-15
8.11493e-22
6.40674e-15
1.28555e-14
1.84387e-14
2.43942e-14
2.90979e-14
-2.90979e-14
-2.43942e-14
-1.84387e-14
-1.28555e-14
-6.40674e-15
8.11493e-22
6.40674e-15
1.28555e-14
1.84387e-14
2.43942e-14
2.90979e-14
-2.90979e-14
-2.43942e-14
-1.84387e-14
-1.28555e-14
-6.40674e-15
8.11493e-22
6.40674e-15
1.28555e-14
1.84387e-14
2.43942e-14
2.90979e-14
8.11493e-22
6.40674e-15
1.28555e-14
1.84387e-14
2.43942e-14
2.90979e-14
-2.90979e-14
-2.43942e-14
-1.84387e-14
-1.28555e-14
-6.40674e-15
8.11493e-22
6.40674e-15
-2.90979e-14
-2.43942e-14
-1.84387e-14
-1.28555e-14
-6.40674e-15
8.11493e-22
6.40674e-15
1.28555e-14
1.84387e-14
2.43942e-14
2.90979e-14
-2.90979e-14
-2.43942e-14
-1.84387e-14
-1.28555e-14
-6.40674e-15
8.11493e-22
6.40674e-15
1.28555e-14
1.84387e-14
2.43942e-14
2.90979e-14
-2.90979e-14
-2.43942e-14
-1.84387e-14
-1.28555e-14
-6.40674e-15
8.11493e-22
6.40674e-15
1.28555e-14
1.84387e-14
2.43942e-14
2.90979e-14
-2.90979e-14
-2.43942e-14
-1.84387e-14
-1.28555e-14
-6.40674e-15
8.11493e-22
6.40674e-15
1.28555e-14
1.84387e-14
2.43942e-14
2.90979e-14
-2.90979e-14
-2.43942e-14
-1.84387e-14
-1.28555e-14
-6.40674e-15
8.11493e-22
)
;
    }
    ami2
    {
        type            cyclicAMI;
        value           nonuniform List<scalar> 0();
    }
    outlet
    {
        type            calculated;
        value           nonuniform List<scalar> 0();
    }
    procBoundary7to5
    {
        type            processor;
        value           nonuniform List<scalar> 
131
(
5.83796e-08
1.89969e-07
3.71973e-07
5.3025e-07
6.36556e-07
6.64888e-07
6.11661e-07
4.94256e-07
3.38726e-07
1.778e-07
5.83568e-08
1.77906e-07
4.84488e-07
8.00492e-07
1.02719e-06
1.16153e-06
1.19838e-06
1.14147e-06
1.00007e-06
7.76677e-07
4.84341e-07
1.89905e-07
3.38928e-07
7.76633e-07
1.12999e-06
1.37033e-06
1.51093e-06
1.55321e-06
1.50102e-06
1.36035e-06
1.13032e-06
8.00623e-07
3.71973e-07
4.94522e-07
9.99752e-07
1.35995e-06
1.60328e-06
1.74701e-06
1.79319e-06
1.74411e-06
1.60345e-06
1.37053e-06
1.02739e-06
5.30365e-07
6.11816e-07
1.14115e-06
1.50073e-06
1.74396e-06
1.88881e-06
1.93681e-06
1.88883e-06
1.74699e-06
1.51095e-06
1.16166e-06
6.36815e-07
6.64897e-07
1.1686e-07
1.19822e-06
1.01904e-07
1.55306e-06
8.17917e-08
1.79308e-06
5.70164e-08
1.93675e-06
2.85795e-08
1.98489e-06
1.93678e-06
1.79311e-06
1.55315e-06
1.19846e-06
6.65173e-07
6.42517e-07
1.16287e-06
1.50823e-06
1.74212e-06
1.88293e-06
-3.15802e-08
1.93677e-06
1.88883e-06
1.74407e-06
1.50097e-06
1.14152e-06
6.11902e-07
5.35077e-07
1.02892e-06
1.36839e-06
1.59921e-06
1.73902e-06
-5.94251e-08
1.79312e-06
1.74705e-06
1.60349e-06
1.36033e-06
1.00011e-06
4.94456e-07
3.75129e-07
8.02744e-07
1.12935e-06
1.35747e-06
1.49768e-06
-8.35282e-08
1.55313e-06
1.51101e-06
1.3706e-06
1.13034e-06
7.76743e-07
3.38882e-07
1.91651e-07
4.87402e-07
7.78629e-07
1.00057e-06
1.14177e-06
-1.02914e-07
1.19833e-06
1.16163e-06
1.0274e-06
8.00648e-07
4.84399e-07
1.77873e-07
5.89632e-08
1.79505e-07
3.41822e-07
4.98248e-07
6.16794e-07
-1.17859e-07
6.65053e-07
6.36619e-07
5.30206e-07
3.71902e-07
1.89907e-07
5.83702e-08
)
;
    }
    procBoundary7to8
    {
        type            processor;
        value           nonuniform List<scalar> 
68
(
-6.23957e-08
-2.01709e-07
-3.93282e-07
-5.62268e-07
-6.75125e-07
-1.88859e-07
-5.02352e-07
-8.11592e-07
-1.03533e-06
-1.16885e-06
-3.57022e-07
-7.86556e-07
-1.12283e-06
-1.35582e-06
-1.49374e-06
-5.18505e-07
-1.003e-06
-1.34316e-06
-1.57712e-06
-1.71687e-06
-6.43608e-07
-1.14429e-06
-1.48169e-06
-1.71341e-06
-1.85279e-06
-1.89915e-06
-7.02302e-07
-1.20371e-06
-1.53457e-06
-1.76168e-06
-1.89911e-06
-1.94538e-06
-6.75056e-07
1.06795e-07
-1.16885e-06
9.37595e-08
-1.49375e-06
-1.71686e-06
-1.85278e-06
-1.89913e-06
-5.5634e-07
-1.03437e-06
-4.07648e-08
-1.35598e-06
-1.5772e-06
-1.71343e-06
-1.76172e-06
-3.89271e-07
-8.10124e-07
-5.2427e-08
-1.12306e-06
-1.34327e-06
-1.48172e-06
-1.5346e-06
-1.99503e-07
-4.99246e-07
-6.04893e-08
-7.86586e-07
-1.00304e-06
-1.14429e-06
-1.20372e-06
-6.16513e-08
-1.86824e-07
-6.67234e-08
-3.56927e-07
-5.18515e-07
-6.43666e-07
-7.02337e-07
)
;
    }
    procBoundary7to9
    {
        type            processor;
        value           nonuniform List<scalar> 
59
(
-7.02269e-07
-6.43399e-07
-5.18071e-07
-3.56601e-07
-1.88614e-07
-6.23382e-08
-1.20384e-06
-1.14458e-06
-1.00343e-06
-7.86754e-07
-5.02087e-07
-2.01563e-07
-1.53469e-06
-1.48195e-06
-1.34356e-06
-1.12321e-06
-8.11736e-07