/*--------------------------------*- C++ -*----------------------------------*\
| =========                 |                                                 |
| \\      /  F ield         | OpenFOAM: The Open Source CFD Toolbox           |
|  \\    /   O peration     | Version:  2212                                  |
|   \\  /    A nd           | Website:  www.openfoam.com                      |
|    \\/     M anipulation  |                                                 |
\*---------------------------------------------------------------------------*/
FoamFile
{
    version     2.0;
    format      ascii;
    arch        "LSB;label=32;scalar=64";
    class       volVectorField;
    location    "3";
    object      U;
}
// * * * * * * * * * * * * * * * * * * * * * * * * * * * * * * * * * * * * * //

dimensions      [0 1 -1 0 0 0 0];

internalField   nonuniform List<vector> 
693
(
(0.0245517 -4.21141e-05 5.31286e-06)
(0.0242753 -4.29878e-05 6.09367e-06)
(0.0240028 -4.4108e-05 7.68182e-06)
(0.0237374 -4.43547e-05 9.66863e-06)
(0.023477 -4.49795e-05 1.0198e-05)
(0.0232304 -4.45288e-05 1.11272e-05)
(0.0411858 -0.000168864 -0.000174149)
(0.040765 -0.000165861 -0.000157678)
(0.0403585 -0.000164298 -0.000146082)
(0.0399604 -0.000162923 -0.000136427)
(0.0395663 -0.000162165 -0.000129624)
(0.0391918 -0.000161539 -0.000124305)
(0.0568952 -0.000206447 -0.000546188)
(0.0563473 -0.00019747 -0.000500357)
(0.0558251 -0.00019006 -0.000466355)
(0.0553109 -0.000185884 -0.000440458)
(0.0548036 -0.00018328 -0.000419875)
(0.0543173 -0.000183386 -0.000404341)
(0.0664572 -0.000214903 -0.000938329)
(0.0657798 -0.000216299 -0.000904561)
(0.0651368 -0.000215518 -0.000871141)
(0.0644987 -0.000215179 -0.000840732)
(0.0638894 -0.000213411 -0.000811856)
(0.0632859 -0.000211372 -0.000785086)
(0.0715784 -0.00021492 -0.00115267)
(0.0708587 -0.000205003 -0.00111945)
(0.0701549 -0.000197073 -0.001085)
(0.069472 -0.000191505 -0.00105053)
(0.0688032 -0.00018706 -0.0010153)
(0.0681551 -0.000182419 -0.000979208)
(0.0719539 -0.000185747 -0.00116493)
(0.0712679 -0.000177272 -0.00112602)
(0.0706012 -0.000169388 -0.0010839)
(0.0699597 -0.000161424 -0.0010404)
(0.0693388 -0.000153811 -0.000997206)
(0.0687445 -0.000144935 -0.000954571)
(0.0682551 -9.53919e-05 -0.000996874)
(0.0676519 -8.75747e-05 -0.000957426)
(0.0670658 -7.71552e-05 -0.000911452)
(0.0665059 -6.36141e-05 -0.000863989)
(0.065956 -4.88323e-05 -0.000818116)
(0.0654435 -3.45497e-05 -0.000774923)
(0.0612752 2.2097e-05 -0.000685828)
(0.0607737 2.33395e-05 -0.000636368)
(0.0602748 2.11292e-05 -0.000553711)
(0.0598223 2.26039e-05 -0.000482704)
(0.0593635 2.71454e-05 -0.000436163)
(0.0589409 3.10074e-05 -0.000405465)
(0.0516087 0.00010058 -0.000330916)
(0.0511726 9.45867e-05 -0.000316487)
(0.0507194 8.60101e-05 -0.000300369)
(0.0502957 7.78369e-05 -0.000285673)
(0.0498568 7.05873e-05 -0.000272992)
(0.049453 6.44202e-05 -0.00026273)
(0.0385106 1.39313e-05 -7.97365e-05)
(0.0381269 7.73016e-06 -7.66159e-05)
(0.0377439 -1.28607e-06 -7.3583e-05)
(0.0373787 -1.00144e-05 -7.15202e-05)
(0.0370146 -1.67237e-05 -7.03772e-05)
(0.0366748 -2.17667e-05 -6.91521e-05)
(0.0245292 -5.15393e-06 -4.20737e-05)
(0.024256 -6.41791e-06 -4.35087e-05)
(0.0239835 -8.81109e-06 -4.45608e-05)
(0.0237215 -1.0335e-05 -4.50891e-05)
(0.0234635 -1.0794e-05 -4.53143e-05)
(0.0232196 -1.13948e-05 -4.47398e-05)
(0.0385609 -7.95524e-05 -1.42822e-05)
(0.0381689 -7.57513e-05 -9.88042e-06)
(0.0377858 -7.4374e-05 -3.15578e-06)
(0.037413 -7.19039e-05 5.46323e-06)
(0.0370445 -7.08004e-05 1.2986e-05)
(0.0367001 -6.92975e-05 1.94186e-05)
(0.0711721 -0.000197806 -0.000152892)
(0.0707451 -0.000219935 -0.000167168)
(0.0703229 -0.000232819 -0.000173101)
(0.0699025 -0.000238852 -0.000171609)
(0.0694633 -0.000245892 -0.000169837)
(0.0690491 -0.000242298 -0.000160401)
(0.0911378 -0.000309251 -0.000667114)
(0.0909515 -0.000316158 -0.000654467)
(0.090753 -0.000324528 -0.000643956)
(0.0905432 -0.000325528 -0.000625917)
(0.0903229 -0.000331571 -0.000613979)
(0.09009 -0.000334396 -0.000599476)
(0.100252 -0.000243119 -0.00107414)
(0.100142 -0.000252023 -0.00104981)
(0.100013 -0.000262396 -0.00102676)
(0.0998822 -0.00027291 -0.001004)
(0.0997407 -0.000284448 -0.000983831)
(0.099592 -0.000292684 -0.00096177)
(0.104159 -0.000274304 -0.00130776)
(0.104061 -0.000289262 -0.00128488)
(0.103955 -0.000302859 -0.00125986)
(0.103846 -0.000313292 -0.00123244)
(0.103733 -0.000321162 -0.00120269)
(0.103615 -0.000326838 -0.00117375)
(0.104441 -0.000290241 -0.00132378)
(0.104365 -0.000298836 -0.00128449)
(0.104291 -0.000306638 -0.00125325)
(0.104213 -0.000313005 -0.0012284)
(0.104132 -0.000317623 -0.00120544)
(0.104051 -0.000319349 -0.00118066)
(0.102015 -0.000227532 -0.00115316)
(0.101964 -0.000222648 -0.00111773)
(0.101921 -0.000216897 -0.00108518)
(0.101875 -0.000209483 -0.00105142)
(0.101835 -0.000199883 -0.00102907)
(0.101787 -0.000191 -0.00100178)
(0.0971944 -4.2852e-05 -0.000844171)
(0.0971485 -2.67965e-05 -0.000829847)
(0.0971112 -1.02473e-05 -0.000814526)
(0.0970532 6.30794e-06 -0.000799365)
(0.0969952 2.16353e-05 -0.000786738)
(0.0969234 3.18565e-05 -0.000768284)
(0.0883425 0.000213046 -0.000567141)
(0.0881829 0.00022146 -0.000558679)
(0.0880032 0.000234607 -0.000563728)
(0.0878193 0.000244328 -0.000568715)
(0.0876142 0.000251153 -0.000573302)
(0.0874067 0.000251232 -0.000569424)
(0.0711234 0.0001509 -0.000199561)
(0.0707188 0.000164964 -0.000221806)
(0.0702846 0.000168857 -0.000233349)
(0.0698723 0.000167276 -0.000240089)
(0.0694358 0.0001643 -0.00024518)
(0.0690255 0.000156008 -0.000242194)
(0.0411554 0.000172082 -0.000165749)
(0.0407427 0.000156865 -0.000165864)
(0.0403334 0.00014407 -0.000165503)
(0.0399387 0.000134632 -0.000165123)
(0.0395464 0.000127418 -0.000162891)
(0.0391752 0.000122022 -0.000160734)
(0.051672 -0.000336365 -0.000106831)
(0.0512172 -0.000319734 -0.000100638)
(0.0507735 -0.000303203 -9.23315e-05)
(0.0503408 -0.000288136 -8.39353e-05)
(0.0498965 -0.000276182 -7.65225e-05)
(0.0494864 -0.000266387 -6.9537e-05)
(0.0883315 -0.000554351 -0.000209853)
(0.088167 -0.000549997 -0.000221612)
(0.0879961 -0.000565327 -0.00024023)
(0.0878076 -0.000567097 -0.000249104)
(0.0876099 -0.000573616 -0.000256729)
(0.0873986 -0.000568783 -0.000256317)
(0.10571 -0.000653324 -0.000635681)
(0.105849 -0.000653389 -0.000639806)
(0.105973 -0.000663765 -0.000647475)
(0.10608 -0.000666711 -0.000648867)
(0.106186 -0.000671467 -0.000651271)
(0.106267 -0.000672091 -0.000649975)
(0.113494 -0.000468223 -0.00100264)
(0.113714 -0.000467915 -0.000989773)
(0.113924 -0.000473369 -0.000979758)
(0.114128 -0.000484349 -0.000975196)
(0.114323 -0.000496679 -0.000970812)
(0.114509 -0.000509759 -0.000966094)
(0.116882 -0.000364558 -0.00122699)
(0.117116 -0.000375547 -0.00121056)
(0.117345 -0.000386857 -0.00119756)
(0.117567 -0.000397625 -0.0011858)
(0.117784 -0.000404342 -0.00116775)
(0.117999 -0.000408365 -0.00114568)
(0.117469 -0.0002452 -0.00128263)
(0.117711 -0.000252862 -0.00125709)
(0.11795 -0.000259138 -0.00123503)
(0.118185 -0.000264873 -0.001216)
(0.118419 -0.000269498 -0.00120311)
(0.118649 -0.000271718 -0.0011824)
(0.115964 -6.16099e-05 -0.00117049)
(0.116214 -5.62932e-05 -0.00114529)
(0.116464 -5.08132e-05 -0.0011215)
(0.116713 -4.60693e-05 -0.00110064)
(0.116962 -4.13748e-05 -0.00108528)
(0.117206 -3.73788e-05 -0.00106086)
(0.112484 0.000250411 -0.00092367)
(0.112722 0.000265979 -0.000914984)
(0.112961 0.000278796 -0.000899913)
(0.113192 0.000289082 -0.000881047)
(0.113427 0.000299523 -0.000868792)
(0.113651 0.000307936 -0.000857012)
(0.105751 0.000631579 -0.00065397)
(0.105882 0.000638939 -0.000659793)
(0.106011 0.000642828 -0.000664154)
(0.106115 0.000644355 -0.000667038)
(0.10622 0.000645817 -0.000671013)
(0.1063 0.000643721 -0.000671427)
(0.0911512 0.000658748 -0.000304674)
(0.0909691 0.000652596 -0.000318507)
(0.0907674 0.000637964 -0.000323695)
(0.0905589 0.000623469 -0.000328471)
(0.0903364 0.000607206 -0.000330526)
(0.0901049 0.000591949 -0.000332511)
(0.0568697 0.000543615 -0.000205077)
(0.0563419 0.00049752 -0.000197336)
(0.0558094 0.000462812 -0.000191177)
(0.0553041 0.00043662 -0.000187862)
(0.0547978 0.000415446 -0.000184063)
(0.0543149 0.000399485 -0.000183006)
(0.0613397 -0.000690627 -3.0276e-05)
(0.0608127 -0.000648156 -3.29468e-05)
(0.0603307 -0.000566352 -2.92206e-05)
(0.0598568 -0.000490833 -2.98808e-05)
(0.0594089 -0.000442823 -3.458e-05)
(0.0589707 -0.000412204 -3.87516e-05)
(0.0971478 -0.000843755 4.05376e-05)
(0.097111 -0.000827125 2.49228e-05)
(0.0970678 -0.000815156 6.68987e-06)
(0.0970194 -0.00079804 -9.84318e-06)
(0.096959 -0.000790432 -2.69343e-05)
(0.0968913 -0.000768725 -3.63329e-05)
(0.112446 -0.000920727 -0.00025224)
(0.11269 -0.000912753 -0.000267416)
(0.112923 -0.000901937 -0.000281961)
(0.113157 -0.000882783 -0.00029219)
(0.11339 -0.000868916 -0.000302345)
(0.113617 -0.000857848 -0.000311554)
(0.119523 -0.000643769 -0.000557898)
(0.119862 -0.000639051 -0.000561159)
(0.120196 -0.000636662 -0.000563909)
(0.120527 -0.000634343 -0.000566357)
(0.120853 -0.000635753 -0.000570777)
(0.121174 -0.000637161 -0.000574528)
(0.122783 -0.000407615 -0.000771047)
(0.12315 -0.000409594 -0.000765095)
(0.123512 -0.000411753 -0.000759964)
(0.12387 -0.000413697 -0.000755619)
(0.124224 -0.000416446 -0.000752824)
(0.124575 -0.000418641 -0.000747769)
(0.123614 -0.000138985 -0.000850839)
(0.123987 -0.000140982 -0.000836611)
(0.124356 -0.000143105 -0.000824617)
(0.124722 -0.000145207 -0.000814646)
(0.125087 -0.000146976 -0.000808365)
(0.125447 -0.000148183 -0.000800663)
(0.122544 0.000168634 -0.000802673)
(0.122914 0.000170562 -0.000789473)
(0.12328 0.000171849 -0.000777777)
(0.123644 0.000172516 -0.000767051)
(0.124005 0.00017382 -0.000760409)
(0.124362 0.000175826 -0.000752861)
(0.119536 0.000554433 -0.000642006)
(0.119874 0.000558361 -0.000638518)
(0.12021 0.000561332 -0.000636056)
(0.12054 0.000563832 -0.000633791)
(0.120867 0.000567594 -0.00063527)
(0.121187 0.00057073 -0.000637152)
(0.113513 0.000997425 -0.000466358)
(0.113728 0.000986162 -0.0004689)
(0.113942 0.000976522 -0.00047481)
(0.114144 0.000971 -0.000485248)
(0.11434 0.000964533 -0.000496299)
(0.114526 0.000959197 -0.000509556)
(0.100273 0.00106671 -0.000241129)
(0.100155 0.00104705 -0.000253411)
(0.100035 0.0010226 -0.00026314)
(0.0998994 0.00100362 -0.000276416)
(0.0997594 0.000975991 -0.000283474)
(0.0996123 0.000955481 -0.00029293)
(0.0664447 0.000939992 -0.000220769)
(0.0657854 0.000903196 -0.000219052)
(0.0651305 0.000868078 -0.000217144)
(0.0645069 0.000835509 -0.000215268)
(0.0638951 0.000806575 -0.000213878)
(0.0632971 0.000779069 -0.000211599)
(0.0682796 -0.000996833 9.11905e-05)
(0.0676742 -0.000960028 8.21408e-05)
(0.0670917 -0.00091532 7.15683e-05)
(0.066528 -0.000868688 5.72877e-05)
(0.0659801 -0.000823867 4.18667e-05)
(0.0654599 -0.0007824 2.61375e-05)
(0.101985 -0.00115514 0.0002226)
(0.101936 -0.0011208 0.000218233)
(0.101889 -0.00108831 0.000212408)
(0.101846 -0.00105523 0.00020526)
(0.101803 -0.00103146 0.000195694)
(0.101759 -0.00100448 0.000187223)
(0.115943 -0.00117204 5.72434e-05)
(0.116192 -0.00114643 5.30469e-05)
(0.11644 -0.00112321 4.75542e-05)
(0.116689 -0.00110347 4.27887e-05)
(0.116937 -0.00108808 3.81357e-05)
(0.117183 -0.00106223 3.46153e-05)
(0.122535 -0.000805143 -0.00017201)
(0.122904 -0.000791506 -0.000173378)
(0.12327 -0.000779813 -0.000174551)
(0.123633 -0.000769145 -0.000175266)
(0.123995 -0.0007622 -0.000176769)
(0.124352 -0.000753926 -0.000178962)
(0.125684 -0.000449086 -0.000337251)
(0.126098 -0.000444415 -0.000335695)
(0.126508 -0.00044041 -0.000334444)
(0.126913 -0.000436832 -0.000333289)
(0.127316 -0.000434434 -0.000332544)
(0.127715 -0.000431309 -0.00033126)
(0.126603 -6.80422e-05 -0.000427168)
(0.127029 -6.74618e-05 -0.000421965)
(0.12745 -6.70206e-05 -0.000417537)
(0.127866 -6.66877e-05 -0.000413764)
(0.12828 -6.65089e-05 -0.000411216)
(0.12869 -6.61557e-05 -0.00040802)
(0.125686 0.000334684 -0.000447017)
(0.1261 0.000333411 -0.000442725)
(0.12651 0.000332344 -0.000438973)
(0.126915 0.00033125 -0.000435588)
(0.127318 0.000330372 -0.000433485)
(0.127717 0.000328895 -0.000430859)
(0.122784 0.000768549 -0.000405658)
(0.123151 0.00076255 -0.000408262)
(0.123513 0.000757524 -0.000410694)
(0.12387 0.000753108 -0.000412754)
(0.124224 0.000749803 -0.000415505)
(0.124574 0.000744295 -0.000417897)
(0.116884 0.00122379 -0.000361885)
(0.117118 0.00120677 -0.000373889)
(0.117347 0.00119408 -0.000386186)
(0.117568 0.00118122 -0.000397099)
(0.117786 0.00116184 -0.000403294)
(0.118 0.00113976 -0.000407424)
(0.104166 0.00130534 -0.000272287)
(0.104066 0.00128028 -0.000287295)
(0.103965 0.00125585 -0.00030169)
(0.103855 0.00122786 -0.00031257)
(0.103745 0.00119907 -0.000321227)
(0.103624 0.00116847 -0.000326639)
(0.0715879 0.00115192 -0.000217975)
(0.0708728 0.00111782 -0.000206915)
(0.0701675 0.00108221 -0.000197659)
(0.0694917 0.00104617 -0.000190679)
(0.0688217 0.00100983 -0.000186197)
(0.0681838 0.000973101 -0.000181721)
(0.0719575 -0.00116533 0.000182602)
(0.0712719 -0.00112742 0.000173544)
(0.0706057 -0.00108603 0.000164715)
(0.0699632 -0.00104289 0.000155529)
(0.0693428 -0.00100038 0.000146193)
(0.0687445 -0.000958123 0.000135494)
(0.104429 -0.00132638 0.000283842)
(0.104352 -0.00128713 0.000292876)
(0.104277 -0.00125537 0.000300945)
(0.104199 -0.0012312 0.000308123)
(0.104118 -0.00120716 0.00031311)
(0.104038 -0.00118369 0.000314968)
(0.11746 -0.00128555 0.00023937)
(0.1177 -0.00125972 0.000247673)
(0.117938 -0.00123751 0.000254482)
(0.118174 -0.00121936 0.00026068)
(0.118407 -0.00120504 0.000265804)
(0.118637 -0.00118175 0.000268483)
(0.123608 -0.000853638 0.000134314)
(0.123981 -0.000839123 0.000136812)
(0.12435 -0.000826896 0.000139253)
(0.124715 -0.000817003 0.000141537)
(0.12508 -0.000810199 0.000143343)
(0.125439 -0.000801382 0.0001446)
(0.126601 -0.0004295 6.41992e-05)
(0.127026 -0.00042408 6.39778e-05)
(0.127446 -0.000419361 6.38348e-05)
(0.127863 -0.000415343 6.38276e-05)
(0.128277 -0.000412143 6.36349e-05)
(0.128686 -0.000407952 6.30355e-05)
(0.127512 -2.3656e-06 -1.06577e-06)
(0.127951 -2.19678e-06 -1.03109e-06)
(0.128385 -1.97522e-06 -1.02032e-06)
(0.128815 -1.72142e-06 -1.0049e-06)
(0.129242 -1.32804e-06 -1.13352e-06)
(0.129664 -7.68453e-07 -1.40365e-06)
(0.126603 0.000424723 -6.67977e-05)
(0.127028 0.000419607 -6.64289e-05)
(0.127449 0.000415267 -6.61628e-05)
(0.127865 0.000411583 -6.59677e-05)
(0.128279 0.000409123 -6.59709e-05)
(0.128688 0.000406063 -6.59384e-05)
(0.123612 0.000848553 -0.000137437)
(0.123985 0.000834077 -0.000139751)
(0.124354 0.000821923 -0.000142066)
(0.124719 0.000811784 -0.000144217)
(0.125083 0.000805277 -0.000146001)
(0.125442 0.000797501 -0.000147344)
(0.117468 0.00127956 -0.000242588)
(0.117709 0.00125336 -0.000250818)
(0.117948 0.00123081 -0.000257552)
(0.118182 0.00121123 -0.000263446)
(0.118416 0.0011978 -0.000268022)
(0.118645 0.00117679 -0.000270201)
(0.104443 0.00132116 -0.000287439)
(0.104367 0.00128106 -0.000296775)
(0.104294 0.00124888 -0.00030477)
(0.104217 0.00122315 -0.00031139)
(0.104137 0.00119919 -0.00031584)
(0.104057 0.00117422 -0.00031773)
(0.0719664 0.00116209 -0.000186011)
(0.0712835 0.00112315 -0.000177322)
(0.0706198 0.00108077 -0.000168796)
(0.0699812 0.00103669 -0.000160317)
(0.0693633 0.000992934 -0.000152468)
(0.0687717 0.000949602 -0.000143751)
(0.0715702 -0.00115493 0.000212812)
(0.0708524 -0.00112224 0.000203151)
(0.0701457 -0.0010871 0.000193602)
(0.0694672 -0.00105138 0.000186421)
(0.0687972 -0.00101454 0.000179552)
(0.10416 -0.00131122 0.000268744)
(0.104062 -0.00128698 0.000283148)
(0.103957 -0.00126285 0.000297356)
(0.103847 -0.00123616 0.00030891)
(0.103734 -0.0012072 0.000317151)
(0.116882 -0.00122999 0.000358084)
(0.117117 -0.00121317 0.000369517)
(0.117346 -0.00120104 0.000382225)
(0.117566 -0.00118724 0.000392915)
(0.117786 -0.00116556 0.000398607)
(0.122782 -0.000773318 0.000401811)
(0.123149 -0.000767318 0.000404344)
(0.123512 -0.000762183 0.000406992)
(0.12387 -0.000758627 0.000409815)
(0.124223 -0.000753513 0.000411593)
(0.125683 -0.000338894 0.000444043)
(0.126098 -0.000337392 0.000439778)
(0.126507 -0.000335997 0.000436066)
(0.126913 -0.000334877 0.000433383)
(0.127315 -0.000332741 0.000430071)
(0.126602 6.35898e-05 0.000425085)
(0.127028 6.33373e-05 0.000419867)
(0.127448 6.32815e-05 0.000415394)
(0.127865 6.33625e-05 0.000411712)
(0.128278 6.39396e-05 0.000408728)
(0.128688 6.47378e-05 0.000404638)
(0.125687 0.000444327 0.000335181)
(0.126101 0.000440082 0.000333765)
(0.126511 0.000436489 0.000332606)
(0.126916 0.000433316 0.000331499)
(0.127319 0.000431532 0.000330545)
(0.127717 0.00042933 0.000328751)
(0.122545 0.000800344 0.000170027)
(0.122915 0.000786863 0.00017162)
(0.123281 0.000775114 0.000172808)
(0.123643 0.0007644 0.00017347)
(0.124004 0.000757688 0.000174687)
(0.12436 0.000750104 0.000176436)
(0.115964 0.00116712 -5.84481e-05)
(0.116213 0.00114113 -5.40911e-05)
(0.116463 0.00111719 -4.89364e-05)
(0.116711 0.00109612 -4.41766e-05)
(0.116959 0.00108067 -3.94584e-05)
(0.117202 0.0010562 -3.55771e-05)
(0.102015 0.00114979 -0.000224847)
(0.101964 0.00111333 -0.000220329)
(0.101922 0.00108028 -0.000214585)
(0.101877 0.00104617 -0.000207203)
(0.101838 0.00102379 -0.000197647)
(0.101791 0.000995866 -0.000188806)
(0.0682669 0.000993598 -9.47863e-05)
(0.0676657 0.000955007 -8.63826e-05)
(0.0670818 0.00090913 -7.59786e-05)
(0.0665243 0.000861205 -6.2716e-05)
(0.0659768 0.000814647 -4.80734e-05)
(0.0654677 0.000770836 -3.3797e-05)
(0.0657555 -0.000907758 0.000216223)
(0.0651113 -0.00087286 0.000213666)
(0.0644814 -0.00084093 0.00021082)
(0.0638646 -0.000810844 0.000207143)
(0.100161 -0.00104876 0.000246205)
(0.100033 -0.001032 0.000259494)
(0.099901 -0.00100518 0.000266862)
(0.0997589 -0.000987076 0.000278165)
(0.113509 -0.00100465 0.000462737)
(0.113731 -0.000991743 0.000462931)
(0.113941 -0.000982656 0.0004694)
(0.114145 -0.000975197 0.000478787)
(0.114344 -0.000972037 0.000492533)
(0.119529 -0.00055871 0.000638232)
(0.11987 -0.000562185 0.00063407)
(0.120205 -0.000565286 0.00063194)
(0.120536 -0.00056874 0.000631249)
(0.120863 -0.000571676 0.000630451)
(0.122538 -0.000171997 0.000799812)
(0.122908 -0.000173628 0.000786491)
(0.123274 -0.000174919 0.000774809)
(0.123638 -0.000175888 0.000765563)
(0.123998 -0.000176496 0.000756077)
(0.123611 0.000135277 0.000848833)
(0.123984 0.000137612 0.000834386)
(0.124353 0.000139949 0.000822172)
(0.124719 0.000142243 0.000812317)
(0.125083 0.0001445 0.000805043)
(0.125443 0.000146516 0.000795662)
(0.122787 0.000403692 0.000769189)
(0.123155 0.000406216 0.000763195)
(0.123517 0.000408664 0.000758055)
(0.123874 0.000410893 0.000753646)
(0.124228 0.000414065 0.000750292)
(0.124578 0.000416898 0.000744227)
(0.119541 0.000640637 0.00055638)
(0.11988 0.000636284 0.000559847)
(0.120214 0.000633648 0.000562566)
(0.120544 0.000631289 0.000564791)
(0.12087 0.000632544 0.000568231)
(0.12119 0.00063428 0.000570961)
(0.112485 0.000920361 0.000254041)
(0.112725 0.000910336 0.000268495)
(0.112963 0.000896944 0.000281607)
(0.113193 0.000878051 0.000291512)
(0.113426 0.000864893 0.000301283)
(0.113649 0.000852493 0.000309209)
(0.0971938 0.000840358 -4.11526e-05)
(0.09715 0.000821598 -2.57995e-05)
(0.0971127 0.000808376 -8.12516e-06)
(0.0970561 0.000794688 8.95313e-06)
(0.0969984 0.000782482 2.44116e-05)
(0.0969273 0.000764023 3.4602e-05)
(0.061289 0.000682446 2.22946e-05)
(0.0607856 0.000635039 2.39454e-05)
(0.0602886 0.000552737 2.12789e-05)
(0.0598384 0.000480874 2.29111e-05)
(0.0593826 0.000433732 2.81124e-05)
(0.0589628 0.000402727 3.25748e-05)
(0.0563119 -0.000501937 0.000196998)
(0.0557877 -0.000469712 0.000192511)
(0.0552775 -0.000442029 0.000184853)
(0.0547738 -0.000421799 0.000182061)
(0.0909634 -0.000653996 0.000311906)
(0.0907673 -0.000646224 0.000322594)
(0.0905603 -0.000629809 0.000324355)
(0.0903367 -0.000615259 0.00032697)
(0.105733 -0.000639499 0.000653376)
(0.105874 -0.000642099 0.000651819)
(0.106 -0.0006489 0.00066076)
(0.106108 -0.000651712 0.000665329)
(0.106207 -0.000652205 0.000666623)
(0.112457 -0.000252783 0.000917824)
(0.112702 -0.000267781 0.000909481)
(0.112939 -0.000282466 0.000898487)
(0.113173 -0.000293436 0.000879043)
(0.113408 -0.000303017 0.000862362)
(0.115946 5.82783e-05 0.00116788)
(0.116196 5.37984e-05 0.00114223)
(0.116446 4.80978e-05 0.00111856)
(0.116696 4.28277e-05 0.00110064)
(0.116944 3.88957e-05 0.00107973)
(0.117462 0.000241281 0.00128086)
(0.117703 0.000249401 0.00125483)
(0.117942 0.000255932 0.00123224)
(0.118178 0.000262075 0.00121365)
(0.118413 0.000267135 0.0011989)
(0.118643 0.000269663 0.00117513)
(0.116888 0.000360837 0.00122482)
(0.117122 0.000372452 0.00120796)
(0.117352 0.000384147 0.00119464)
(0.117573 0.000395331 0.00118262)
(0.117791 0.000402418 0.00116421)
(0.118005 0.000406828 0.00114095)
(0.113521 0.000465673 0.000999166)
(0.113738 0.000467229 0.000987602)
(0.11395 0.000472785 0.000977753)
(0.114152 0.000482687 0.000971842)
(0.114347 0.000493897 0.000965946)
(0.114533 0.000506702 0.000960134)
(0.105755 0.000656426 0.000637677)
(0.10589 0.000652318 0.000638711)
(0.106016 0.000660175 0.000644854)
(0.106119 0.000662579 0.000645835)
(0.106223 0.000666359 0.000647066)
(0.106303 0.000666792 0.00064497)
(0.0883525 0.000560698 0.000213769)
(0.0881906 0.000551469 0.000222001)
(0.0880085 0.000562026 0.000238014)
(0.0878253 0.00056437 0.000246596)
(0.08762 0.000568656 0.000253451)
(0.0874136 0.000564673 0.000253558)
(0.051616 0.000329135 9.99859e-05)
(0.0511742 0.000312868 9.33114e-05)
(0.0507321 0.00029662 8.56337e-05)
(0.0503111 0.000282425 7.86142e-05)
(0.0498754 0.000270299 7.22582e-05)
(0.049474 0.00026042 6.66568e-05)
(0.0407383 -0.000159361 0.000164789)
(0.0403284 -0.000148648 0.000164941)
(0.0399272 -0.000138872 0.000162857)
(0.0395392 -0.000131742 0.000161845)
(0.0707162 -0.000163366 0.000210212)
(0.0702969 -0.000172185 0.00022721)
(0.0698796 -0.00017401 0.00023793)
(0.0694523 -0.000165897 0.000236154)
(0.0883309 -0.000212889 0.000554482)
(0.088171 -0.000224272 0.000550254)
(0.0880004 -0.000241226 0.000563068)
(0.0878158 -0.000251971 0.000569634)
(0.0876153 -0.000254879 0.000566424)
(0.0971539 3.85554e-05 0.000842927)
(0.0971168 2.43451e-05 0.000824081)
(0.0970775 6.60308e-06 0.000813278)
(0.0970281 -9.6021e-06 0.000795465)
(0.09697 -2.38642e-05 0.000778985)
(0.101987 0.000223299 0.00115269)
(0.101939 0.000218801 0.00111818)
(0.101895 0.000212907 0.00108538)
(0.101852 0.000205398 0.00105303)
(0.101813 0.000196302 0.00102528)
(0.104431 0.00028521 0.00132303)
(0.104355 0.000294339 0.00128337)
(0.104282 0.000302293 0.00125196)
(0.104204 0.000309168 0.0012264)
(0.104125 0.000313743 0.00120356)
(0.104045 0.000315092 0.00117608)
(0.104165 0.000270057 0.0013064)
(0.104065 0.000284779 0.00128168)
(0.103963 0.000298993 0.00125784)
(0.103852 0.000310043 0.00123058)
(0.103742 0.000318406 0.00120184)
(0.103621 0.000323473 0.00117174)
(0.100278 0.000237064 0.0010675)
(0.10016 0.000249969 0.00104851)
(0.100038 0.000259518 0.00102399)
(0.0999025 0.000273173 0.00100591)
(0.0997608 0.00028072 0.000978928)
(0.0996142 0.000289941 0.00095816)
(0.0911599 0.000305656 0.000665164)
(0.0909735 0.000312588 0.00065287)
(0.0907712 0.000318021 0.000639179)
(0.0905626 0.000322516 0.000624765)
(0.0903397 0.000325149 0.000609086)
(0.090108 0.000328504 0.000594984)
(0.0711259 0.000198889 0.000156074)
(0.0707139 0.000218785 0.000168423)
(0.070286 0.000229597 0.000172077)
(0.0698756 0.000235824 0.000170454)
(0.0694411 0.00024103 0.000167676)
(0.069032 0.00023798 0.000159316)
(0.0385076 7.91555e-05 1.45759e-05)
(0.0381249 7.46966e-05 8.2764e-06)
(0.0377484 7.23185e-05 8.88264e-07)
(0.0373861 7.03343e-05 -7.15695e-06)
(0.0370263 6.90955e-05 -1.3712e-05)
(0.0366883 6.79421e-05 -1.86919e-05)
(0.0242618 5.63489e-06 4.16378e-05)
(0.0239909 7.18008e-06 4.34658e-05)
(0.0237217 8.96552e-06 4.43136e-05)
(0.023464 1.02147e-05 4.40379e-05)
(0.0381495 -1.27983e-05 7.66868e-05)
(0.0377661 -5.67746e-06 7.58284e-05)
(0.0373905 3.61851e-06 7.34438e-05)
(0.0370307 1.20301e-05 7.11264e-05)
(0.0516591 -0.000104089 0.000330482)
(0.0512067 -0.000102252 0.000319648)
(0.0507631 -9.46889e-05 0.00030512)
(0.0503306 -8.41021e-05 0.000288656)
(0.0498998 -7.58765e-05 0.000275831)
(0.0613394 -2.9786e-05 0.000687978)
(0.060818 -3.30116e-05 0.000646595)
(0.0603309 -2.94997e-05 0.000566677)
(0.0598639 -2.8559e-05 0.000490891)
(0.0594129 -3.28359e-05 0.000442162)
(0.0682862 9.197e-05 0.00099515)
(0.0676829 8.26783e-05 0.000958306)
(0.0671019 7.18375e-05 0.000913994)
(0.0665398 5.77978e-05 0.00086799)
(0.0659951 4.18087e-05 0.000823255)
(0.0719619 0.000183915 0.00116339)
(0.0712783 0.000174598 0.00112491)
(0.0706137 0.000165517 0.00108325)
(0.0699743 0.000156431 0.00104045)
(0.0693537 0.000147244 0.000997944)
(0.0687621 0.000137285 0.000955853)
(0.0715699 0.00021477 0.00115302)
(0.070854 0.000203403 0.00111894)
(0.0701472 0.000193888 0.00108347)
(0.0694718 0.000186371 0.00104785)
(0.068801 0.00018109 0.0010124)
(0.068163 0.000175414 0.000976454)
(0.0664237 0.000213726 0.000938699)
(0.0657644 0.000213611 0.000902976)
(0.0651101 0.000212964 0.000868793)
(0.064486 0.000211595 0.000836681)
(0.0638756 0.000210087 0.000808102)
(0.0632776 0.000207081 0.000780898)
(0.0568587 0.000198573 0.000542191)
(0.056328 0.000190935 0.000496797)
(0.0557977 0.000185584 0.000463025)
(0.0552926 0.000183379 0.000437618)
(0.0547869 0.000180426 0.00041686)
(0.0543035 0.000179633 0.000401161)
(0.041143 0.000163333 0.000174478)
(0.0407308 0.000161942 0.000158092)
(0.040327 0.000160971 0.000145531)
(0.0399349 0.00016085 0.000136177)
(0.0395456 0.0001593 0.000128882)
(0.0391748 0.000157848 0.000123534)
(0.0245238 4.11439e-05 -4.29611e-06)
(0.0242515 4.22937e-05 -5.56207e-06)
(0.023983 4.32533e-05 -7.55939e-06)
(0.0237232 4.37332e-05 -9.30338e-06)
(0.0234673 4.40159e-05 -9.84701e-06)
(0.0232243 4.35453e-05 -1.05212e-05)
)
;

boundaryField
{
    inlet
    {
        type            fixedValue;
        value           nonuniform List<vector> 0();
    }
    ami1
    {
        type            cyclicAMI;
        value           nonuniform List<vector> 0();
    }
    walls
    {
        type            noSlip;
    }
    ami2
    {
        type            cyclicAMI;
        value           nonuniform List<vector> 0();
    }
    outlet
    {
        type            zeroGradient;
    }
    procBoundary7to5
    {
        type            processor;
        value           nonuniform List<vector> 
131
(
(0.022985 -4.35161e-05 1.16283e-05)
(0.0388067 -0.000159224 -0.000119519)
(0.0538268 -0.000183398 -0.000391179)
(0.0627045 -0.000209629 -0.000759704)
(0.0675265 -0.000176481 -0.000943637)
(0.0681716 -0.000134173 -0.000912615)
(0.0649328 -2.34059e-05 -0.000734218)
(0.0584986 3.16341e-05 -0.00038235)
(0.0490274 5.8009e-05 -0.000251775)
(0.0363284 -2.53152e-05 -6.68516e-05)
(0.0229776 -1.16492e-05 -4.35966e-05)
(0.0363472 -6.67119e-05 2.41824e-05)
(0.0686137 -0.000237993 -0.000151638)
(0.0898523 -0.000336729 -0.000585995)
(0.0994411 -0.000300824 -0.000941616)
(0.103491 -0.000329372 -0.00114539)
(0.103965 -0.000317876 -0.00115205)
(0.101741 -0.000184023 -0.000972446)
(0.0968547 3.90808e-05 -0.00075103)
(0.0871826 0.000248455 -0.00056243)
(0.0685952 0.000148228 -0.000237997)
(0.0387965 0.000117355 -0.000157455)
(0.0490527 -0.000255617 -6.21351e-05)
(0.0871806 -0.000561739 -0.000253308)
(0.106354 -0.000672112 -0.000647247)
(0.114684 -0.000521184 -0.000959653)
(0.118209 -0.000414563 -0.00112791)
(0.118878 -0.000272157 -0.0011561)
(0.117453 -3.16653e-05 -0.00103589)
(0.113874 0.00031802 -0.000854309)
(0.106383 0.000640318 -0.000671364)
(0.089867 0.000577937 -0.000333901)
(0.0538292 0.00038585 -0.000181937)
(0.0585313 -0.000389851 -3.93584e-05)
(0.0968253 -0.000752152 -4.38759e-05)
(0.113841 -0.000853496 -0.000321583)
(0.121489 -0.000637898 -0.000576948)
(0.124922 -0.000421128 -0.000740845)
(0.125805 -0.000148953 -0.000790354)
(0.124718 0.000178998 -0.000744108)
(0.121502 0.000572746 -0.000638642)
(0.1147 0.000951754 -0.000520968)
(0.0994603 0.000934002 -0.000300734)
(0.0627207 0.000752666 -0.000208923)
(0.0649495 -0.00074389 1.36054e-05)
(0.101713 -0.000974225 0.000180324)
(0.11743 -0.0010358 2.95991e-05)
(0.124708 -0.000744099 -0.00018193)
(0.128111 -0.000427668 -0.000329635)
(0.129097 -6.56072e-05 -0.00040399)
(0.128112 0.000327348 -0.000427847)
(0.12492 0.000737165 -0.000420874)
(0.118211 0.00112143 -0.000413611)
(0.103504 0.00113528 -0.000327434)
(0.0675546 0.000937268 -0.000176283)
(0.0681734 -0.000917193 0.000123246)
(0.068155 -0.000978375 0.000173025)
(0.103949 -0.00115565 0.000313123)
(0.103609 -0.00117741 0.000322041)
(0.118866 -0.00115515 0.000269647)
(0.118 -0.00114584 0.000404119)
(0.125798 -0.000790247 0.00014618)
(0.124575 -0.000747004 0.000413346)
(0.129093 -0.000403157 6.3182e-05)
(0.127715 -0.000330077 0.000426201)
(0.130084 -2.7378e-07 -1.40689e-06)
(0.129095 0.000402257 -6.57402e-05)
(0.1258 0.000787281 -0.000148348)
(0.118873 0.00115021 -0.000270556)
(0.103972 0.00114485 -0.000316398)
(0.0682032 0.000906943 -0.000133747)
(0.068155 -0.000978375 0.000173025)
(0.103609 -0.00117741 0.000322041)
(0.118 -0.00114584 0.000404119)
(0.124575 -0.000747004 0.000413346)
(0.127715 -0.000330077 0.000426201)
(0.127715 -0.000330077 0.000426201)
(0.129094 6.47309e-05 0.000400517)
(0.128112 0.000426637 0.000326881)
(0.124716 0.000741535 0.000179323)
(0.117449 0.00103104 -3.01544e-05)
(0.101746 0.000967173 -0.000181844)
(0.0649598 0.000729477 -2.2655e-05)
(0.0632752 -0.000783488 0.000202942)
(0.0996102 -0.000963151 0.000284895)
(0.114525 -0.000965419 0.000503843)
(0.121183 -0.000574007 0.000629984)
(0.124356 -0.00017775 0.000746274)
(0.124356 -0.00017775 0.000746274)
(0.125801 0.000147564 0.000785103)
(0.124924 0.000420036 0.000736473)
(0.121504 0.000636009 0.00057267)
(0.113872 0.000849327 0.000318693)
(0.0968587 0.000746504 4.16664e-05)
(0.0585243 0.000379676 3.3758e-05)
(0.0542887 -0.000405333 0.000179294)
(0.0901126 -0.000600918 0.000328556)
(0.106295 -0.000650331 0.000665628)
(0.113635 -0.000312671 0.000851512)
(0.117192 3.51026e-05 0.00105229)
(0.117192 3.51026e-05 0.00105229)
(0.118872 0.000270147 0.00114836)