/*--------------------------------*- C++ -*----------------------------------*\
| =========                 |                                                 |
| \\      /  F ield         | OpenFOAM: The Open Source CFD Toolbox           |
|  \\    /   O peration     | Version:  2212                                  |
|   \\  /    A nd           | Website:  www.openfoam.com                      |
|    \\/     M anipulation  |                                                 |
\*---------------------------------------------------------------------------*/
FoamFile
{
    version     2.0;
    format      ascii;
    arch        "LSB;label=32;scalar=64";
    class       volScalarField;
    location    "1.55";
    object      epsilon;
}
// * * * * * * * * * * * * * * * * * * * * * * * * * * * * * * * * * * * * * //

dimensions      [0 2 -3 0 0 0 0];

internalField   nonuniform List<scalar> 
6840
(
90.5034
12.1248
4.38869
2.46658
1.63315
1.18306
0.902003
0.720646
0.594559
0.502461
0.432612
0.379179
0.336135
0.299564
0.269702
0.245344
0.225164
0.208221
0.194121
0.179489
58.5856
14.5696
6.08946
3.33295
2.08217
1.40266
0.998642
0.740271
0.565884
0.4439
0.355987
0.290878
0.241338
0.202912
0.172981
0.149638
0.13106
0.116049
0.103997
0.0944136
45.0226
13.4729
5.73075
3.07322
1.86023
1.22699
0.873573
0.649776
0.49701
0.389481
0.31129
0.252978
0.208982
0.175218
0.148831
0.127897
0.111131
0.0975706
0.0865304
0.0777061
38.7028
13.0541
5.74336
3.08733
1.88066
1.2275
0.869482
0.645391
0.492601
0.384793
0.307043
0.24907
0.205013
0.171039
0.144476
0.123436
0.106577
0.0929236
0.0817957
0.0731089
36.0571
12.8529
5.76645
3.10212
1.89476
1.2267
0.866515
0.644002
0.492276
0.383999
0.305846
0.247985
0.204011
0.170073
0.143511
0.122449
0.105552
0.091853
0.0806886
0.0719672
36.0571
12.8529
5.76645
3.10212
1.89476
1.2267
0.866514
0.644001
0.492274
0.383996
0.30584
0.247978
0.203999
0.170053
0.14348
0.122409
0.105498
0.0917825
0.0806365
0.0723199
38.7028
13.0541
5.74336
3.08733
1.88066
1.2275
0.86948
0.645387
0.492596
0.384786
0.307031
0.249052
0.204984
0.170992
0.144409
0.123343
0.106445
0.0927373
0.081572
0.073172
45.0226
13.4729
5.73075
3.07322
1.86023
1.22699
0.873571
0.649772
0.497004
0.38947
0.311275
0.252956
0.208948
0.175165
0.148752
0.127784
0.110966
0.097331
0.0862333
0.0775432
58.5856
14.5696
6.08946
3.33295
2.08216
1.40266
0.99864
0.740269
0.565881
0.443895
0.355978
0.290864
0.241318
0.202855
0.172903
0.149528
0.130888
0.115775
0.103605
0.0940866
90.5034
12.1248
4.38869
2.46658
1.63315
1.18306
0.902002
0.720645
0.594559
0.502461
0.43261
0.379179
0.336136
0.29956
0.269702
0.245345
0.225164
0.208222
0.194127
0.179495
58.5856
14.5696
6.08946
3.33295
2.08216
1.40266
0.998641
0.740269
0.565882
0.443895
0.355979
0.290865
0.241317
0.202862
0.172901
0.149525
0.130886
0.115772
0.103601
0.0940817
16.5373
9.49238
5.0127
2.8606
1.75746
1.14759
0.786929
0.562047
0.415362
0.315941
0.246323
0.19621
0.159203
0.131226
0.109747
0.093149
0.0800824
0.0695811
0.0604894
0.0560277
13.6679
8.73671
5.07741
3.05388
1.92224
1.26609
0.869292
0.618635
0.453964
0.342041
0.263659
0.207323
0.165916
0.134864
0.111164
0.0927075
0.0781861
0.0666454
0.0571628
0.0500332
12.9054
8.33993
5.07879
3.15547
2.02775
1.35121
0.933544
0.666467
0.489556
0.368608
0.283621
0.222407
0.177352
0.143555
0.117774
0.097802
0.0821181
0.0696516
0.0596193
0.0513414
12.6882
8.1544
5.07113
3.20039
2.0794
1.39506
0.967836
0.692728
0.509645
0.384025
0.295515
0.231661
0.184608
0.149279
0.122303
0.101404
0.0849884
0.0719358
0.0614456
0.0529623
12.6882
8.1544
5.07113
3.20038
2.07939
1.39506
0.967831
0.692722
0.509637
0.384016
0.295503
0.231647
0.18459
0.149256
0.122275
0.10137
0.0849464
0.0718863
0.061389
0.0528979
12.9054
8.33993
5.07879
3.15547
2.02774
1.3512
0.933534
0.666454
0.489541
0.368589
0.283597
0.222377
0.177314
0.143508
0.117715
0.0977292
0.0820304
0.069549
0.0595052
0.0511919
13.6679
8.73671
5.0774
3.05388
1.92223
1.26609
0.869286
0.618627
0.453954
0.342027
0.263641
0.2073
0.165888
0.134831
0.111116
0.0926492
0.0781189
0.0665731
0.0570934
0.049656
16.5373
9.49238
5.0127
2.8606
1.75746
1.14759
0.786929
0.562047
0.415362
0.315941
0.246323
0.19621
0.159203
0.131233
0.109741
0.0931467
0.0800814
0.0695806
0.060489
0.0560277
58.5856
14.5696
6.08946
3.33295
2.08216
1.40266
0.998641
0.740271
0.565883
0.4439
0.355986
0.290878
0.241338
0.202911
0.17298
0.149639
0.131062
0.116052
0.104003
0.0944233
45.0226
13.4729
5.73075
3.07322
1.86023
1.22699
0.873571
0.649772
0.497004
0.38947
0.311275
0.252957
0.208951
0.175169
0.14875
0.127782
0.110965
0.0973312
0.0862338
0.0775435
13.6679
8.73671
5.0774
3.05388
1.92223
1.26609
0.869285
0.618627
0.453954
0.342027
0.263641
0.2073
0.165887
0.134827
0.111119
0.0926503
0.0781184
0.066571
0.0570941
0.0496551
11.8601
7.76395
4.99734
3.24076
2.14419
1.45499
1.0141
0.725635
0.532155
0.399148
0.305544
0.23822
0.188823
0.151913
0.123875
0.102238
0.08532
0.0719284
0.0611851
0.0525858
11.6229
7.60535
5.01031
3.34209
2.26848
1.57142
1.11236
0.804591
0.594208
0.447522
0.343217
0.267641
0.211908
0.170131
0.138338
0.1138
0.0946187
0.0794474
0.0673151
0.0575211
11.5726
7.56718
5.02065
3.38345
2.32103
1.62326
1.15829
0.843157
0.625693
0.472852
0.363488
0.283858
0.224911
0.180595
0.146795
0.120673
0.100232
0.0840536
0.0711123
0.0606361
11.5726
7.56718
5.02065
3.38344
2.32103
1.62326
1.15828
0.843153
0.625688
0.472846
0.36348
0.283849
0.2249
0.180581
0.146778
0.120652
0.100207
0.0840247
0.0710834
0.0606212
11.6229
7.60535
5.0103
3.34209
2.26848
1.57142
1.11236
0.804585
0.5942
0.447512
0.343204
0.267626
0.21189
0.170108
0.138308
0.113763
0.0945747
0.0793968
0.0672627
0.0574903
11.8601
7.76395
4.99734
3.24076
2.14419
1.45499
1.0141
0.725635
0.532155
0.399148
0.305545
0.238221
0.188825
0.151916
0.123872
0.102237
0.0853198
0.0719285
0.0611858
0.0525891
13.6679
8.73671
5.07741
3.05388
1.92224
1.26609
0.869292
0.618635
0.453964
0.342041
0.263659
0.207323
0.165916
0.134867
0.111162
0.092706
0.0781849
0.0666443
0.0571615
0.050038
45.0226
13.4729
5.73075
3.07322
1.86023
1.22699
0.873573
0.649776
0.497009
0.389481
0.31129
0.252978
0.208983
0.175219
0.148828
0.127895
0.11113
0.0975699
0.0865309
0.0777084
38.7028
13.0541
5.74336
3.08733
1.88067
1.2275
0.86948
0.645387
0.492596
0.384786
0.307031
0.249053
0.204987
0.170996
0.144406
0.123342
0.106444
0.0927376
0.0815733
0.0731746
12.9054
8.33993
5.07879
3.15547
2.02774
1.3512
0.933534
0.666454
0.489541
0.368589
0.283596
0.222376
0.177313
0.143507
0.117717
0.0977292
0.0820295
0.0695472
0.0595027
0.0511878
11.6229
7.60535
5.0103
3.34209
2.26848
1.57142
1.11236
0.804585
0.5942
0.447512
0.343204
0.267625
0.211889
0.170107
0.138309
0.113764
0.0945741
0.0793957
0.0672611
0.0574873
11.4933
7.5119
5.02843
3.434
2.3892
1.6928
1.22111
0.896487
0.669456
0.508122
0.391656
0.306285
0.242784
0.194888
0.158282
0.129955
0.107779
0.0902305
0.0761949
0.0648119
11.4757
7.50136
5.04297
3.47002
2.43665
1.74299
1.26863
0.938713
0.705584
0.538337
0.416595
0.32673
0.259501
0.208559
0.169487
0.139172
0.115394
0.0965486
0.0814527
0.0691557
11.4757
7.50136
5.04297
3.47002
2.43665
1.74299
1.26863
0.938711
0.705583
0.538335
0.416592
0.326727
0.259498
0.208556
0.169483
0.139167
0.115388
0.0965419
0.0814451
0.0691264
11.4933
7.5119
5.02843
3.434
2.3892
1.6928
1.22111
0.896487
0.669456
0.508122
0.391656
0.306286
0.242785
0.194888
0.158281
0.129955
0.10778
0.0902307
0.0761954
0.064814
11.6229
7.60535
5.01031
3.34209
2.26848
1.57142
1.11236
0.804591
0.594208
0.447522
0.343217
0.267641
0.211908
0.170131
0.138337
0.1138
0.0946183
0.079447
0.0673147
0.0575223
12.9054
8.33993
5.07879
3.15547
2.02775
1.35121
0.933544
0.666467
0.489556
0.368608
0.283621
0.222407
0.177351
0.143554
0.117774
0.0978021
0.082118
0.0696512
0.0596189
0.0513414
38.7028
13.0541
5.74336
3.08733
1.88066
1.2275
0.869482
0.645391
0.492601
0.384792
0.307043
0.249069
0.205013
0.17104
0.144473
0.123434
0.106575
0.0929219
0.081794
0.0731062
36.0571
12.8529
5.76645
3.10212
1.89476
1.2267
0.866514
0.644001
0.492274
0.383996
0.305841
0.247978
0.203999
0.170055
0.143481
0.12241
0.105498
0.0917839
0.0806386
0.0723184
12.6882
8.1544
5.07113
3.20038
2.07939
1.39506
0.967831
0.692722
0.509637
0.384016
0.295503
0.231646
0.18459
0.149256
0.122275
0.101369
0.0849454
0.0718849
0.0613869
0.052895
11.5726
7.56718
5.02065
3.38344
2.32103
1.62326
1.15828
0.843153
0.625688
0.472846
0.36348
0.283848
0.224899
0.18058
0.146778
0.120651
0.100206
0.0840235
0.0710818
0.0606194
11.4757
7.50136
5.04297
3.47002
2.43665
1.74299
1.26863
0.938711
0.705583
0.538335
0.416592
0.326727
0.259498
0.208556
0.169483
0.139167
0.115387
0.0965414
0.0814447
0.0691265
11.4647
7.49683
5.0577
3.50272
2.48038
1.79068
1.31522
0.981305
0.742925
0.57021
0.443351
0.348968
0.277889
0.223737
0.182021
0.149546
0.124008
0.103731
0.0874528
0.0740955
11.4647
7.49683
5.0577
3.50272
2.48038
1.79068
1.31522
0.981305
0.742925
0.57021
0.443351
0.348968
0.277889
0.223737
0.182021
0.149546
0.124009
0.103731
0.0874531
0.0740955
11.4757
7.50136
5.04297
3.47002
2.43665
1.74299
1.26863
0.938713
0.705584
0.538336
0.416594
0.32673
0.259501
0.208559
0.169487
0.139172
0.115393
0.0965483
0.0814524
0.0691554
11.5726
7.56718
5.02065
3.38345
2.32103
1.62326
1.15829
0.843157
0.625693
0.472852
0.363488
0.283858
0.22491
0.180594
0.146796
0.120673
0.100232
0.0840528
0.0711112
0.0606356
12.6882
8.1544
5.07113
3.20039
2.0794
1.39506
0.967836
0.692728
0.509645
0.384025
0.295515
0.231661
0.184607
0.149276
0.122306
0.101406
0.0849892
0.0719363
0.0614458
0.0529626
36.0571
12.8529
5.76645
3.10212
1.89476
1.2267
0.866515
0.644002
0.492276
0.383998
0.305845
0.247985
0.20401
0.170073
0.14351
0.122449
0.105551
0.0918522
0.0806877
0.0719656
36.0571
12.8529
5.76645
3.10212
1.89476
1.2267
0.866515
0.644002
0.492276
0.383998
0.305846
0.247985
0.204011
0.170073
0.143511
0.12245
0.105553
0.0918541
0.0806904
0.0719695
12.6882
8.1544
5.07113
3.20039
2.0794
1.39506
0.967836
0.692728
0.509645
0.384025
0.295515
0.231661
0.184608
0.149279
0.122303
0.101404
0.0849884
0.0719359
0.0614456
0.0529624
11.5726
7.56718
5.02065
3.38345
2.32103
1.62326
1.15829
0.843157
0.625693
0.472852
0.363488
0.283858
0.224911
0.180595
0.146795
0.120673
0.100232
0.0840536
0.0711124
0.060637
11.4757
7.50136
5.04297
3.47002
2.43665
1.74299
1.26863
0.938713
0.705584
0.538337
0.416595
0.32673
0.259501
0.20856
0.169487
0.139172
0.115394
0.0965488
0.081453
0.0691565
11.4647
7.49683
5.0577
3.50272
2.48038
1.79068
1.31522
0.981305
0.742925
0.57021
0.443351
0.348968
0.277889
0.223737
0.182021
0.149546
0.124009
0.103731
0.087453
0.074096
11.4647
7.49683
5.0577
3.50272
2.48038
1.79068
1.31522
0.981305
0.742925
0.57021
0.443351
0.348968
0.277889
0.223737
0.182021
0.149546
0.124008
0.103731
0.0874531
0.0740952
11.4757
7.50136
5.04297
3.47002
2.43665
1.74299
1.26863
0.938711
0.705583
0.538335
0.416592
0.326727
0.259498
0.208556
0.169483
0.139167
0.115387
0.0965415
0.0814448
0.0691264
11.5726
7.56718
5.02065
3.38344
2.32103
1.62326
1.15828
0.843153
0.625688
0.472846
0.36348
0.283848
0.224899
0.18058
0.146778
0.120652
0.100206
0.084024
0.0710826
0.0606205
12.6882
8.1544
5.07113
3.20038
2.07939
1.39506
0.967831
0.692721
0.509637
0.384016
0.295503
0.231647
0.184589
0.149253
0.122278
0.101371
0.0849472
0.0718869
0.0613894
0.0528982
36.0571
12.8529
5.76645
3.10212
1.89476
1.2267
0.866514
0.644
0.492273
0.383995
0.30584
0.247977
0.203998
0.170053
0.143483
0.122411
0.105499
0.0917833
0.080637
0.0723149
38.7028
13.0541
5.74336
3.08733
1.88066
1.2275
0.869482
0.645391
0.492601
0.384792
0.307042
0.249069
0.205012
0.171039
0.144475
0.123436
0.106577
0.0929238
0.0817966
0.0731094
12.9054
8.33993
5.07879
3.15547
2.02775
1.35121
0.933544
0.666467
0.489556
0.368608
0.283621
0.222408
0.177352
0.143556
0.117774
0.0978024
0.082119
0.0696528
0.0596209
0.0513435
11.6229
7.60535
5.01031
3.34209
2.26848
1.57142
1.11236
0.804591
0.594208
0.447522
0.343217
0.267641
0.211909
0.170132
0.138338
0.1138
0.0946196
0.0794487
0.067317
0.0575247
11.4933
7.5119
5.02843
3.434
2.3892
1.6928
1.22111
0.896487
0.669456
0.508122
0.391656
0.306286
0.242785
0.194888
0.158282
0.129955
0.10778
0.0902314
0.0761961
0.0648149
11.4757
7.50136
5.04297
3.47002
2.43665
1.74299
1.26863
0.938711
0.705583
0.538335
0.416592
0.326727
0.259498
0.208556
0.169483
0.139167
0.115387
0.0965416
0.081445
0.0691261
11.4757
7.50136
5.04297
3.47002
2.43665
1.74299
1.26863
0.938713
0.705584
0.538336
0.416594
0.32673
0.259501
0.20856
0.169487
0.139172
0.115393
0.0965483
0.0814524
0.0691555
11.4933
7.5119
5.02843
3.434
2.3892
1.6928
1.22111
0.896486
0.669456
0.508122
0.391656
0.306286
0.242785
0.194888
0.158281
0.129955
0.10778
0.0902309
0.0761955
0.0648142
11.6229
7.60535
5.0103
3.34209
2.26848
1.57142
1.11236
0.804584
0.5942
0.447512
0.343204
0.267625
0.21189
0.170108
0.138308
0.113763
0.0945747
0.079397
0.067263
0.0574903
12.9054
8.33993
5.07879
3.15547
2.02774
1.3512
0.933534
0.666454
0.489541
0.368589
0.283597
0.222377
0.177314
0.143508
0.117716
0.0977294
0.0820306
0.0695491
0.0595052
0.0511915
38.7028
13.0541
5.74336
3.08733
1.88066
1.2275
0.869479
0.645387
0.492596
0.384786
0.307031
0.249052
0.204984
0.170992
0.144409
0.123344
0.106445
0.0927383
0.0815731
0.0731744
45.0226
13.4729
5.73075
3.07322
1.86023
1.22699
0.873573
0.649776
0.497009
0.389481
0.31129
0.252977
0.208981
0.175217
0.14883
0.127897
0.11113
0.0975692
0.0865289
0.0777064
13.6679
8.73671
5.07741
3.05388
1.92224
1.26609
0.869292
0.618635
0.453964
0.342041
0.263659
0.207323
0.165917
0.134865
0.111165
0.0927085
0.0781879
0.0666483
0.0571631
0.0500376
11.8601
7.76395
4.99734
3.24076
2.14419
1.45499
1.0141
0.725635
0.532155
0.399148
0.305545
0.238221
0.188824
0.151914
0.123875
0.102239
0.0853216
0.0719305
0.0611882
0.0525898
11.6229
7.60535
5.0103
3.34209
2.26848
1.57142
1.11236
0.804585
0.5942
0.447512
0.343204
0.267625
0.211889
0.170107
0.138309
0.113764
0.0945749
0.0793969
0.0672627
0.0574892
11.5726
7.56718
5.02065
3.38344
2.32103
1.62326
1.15828
0.843153
0.625688
0.472846
0.36348
0.283848
0.224899
0.18058
0.146778
0.120651
0.100206
0.0840234
0.0710818
0.060619
11.5726
7.56718
5.02065
3.38345
2.32103
1.62326
1.15829
0.843158
0.625693
0.472852
0.363488
0.283858
0.224911
0.180594
0.146795
0.120672
0.100231
0.0840528
0.0711111
0.0606354
11.6229
7.60535
5.01031
3.34209
2.26848
1.57142
1.11236
0.804591
0.594208
0.447522
0.343217
0.267641
0.211909
0.170131
0.138337
0.1138
0.0946189
0.0794479
0.0673158
0.0575222
11.8601
7.76395
4.99734
3.24076
2.14419
1.45499
1.0141
0.725634
0.532155
0.399148
0.305545
0.238221
0.188825
0.151916
0.123873
0.102238
0.0853206
0.0719298
0.0611872
0.0525884
13.6679
8.73671
5.0774
3.05388
1.92223
1.26609
0.869286
0.618626
0.453954
0.342027
0.263641
0.2073
0.165888
0.134831
0.111116
0.0926491
0.0781188
0.0665728
0.0570931
0.0496581
45.0226
13.4729
5.73075
3.07322
1.86023
1.22699
0.87357
0.649772
0.497005
0.38947
0.311275
0.252956
0.208948
0.175165
0.148752
0.127785
0.110967
0.0973323
0.0862351
0.0775451
58.5856
14.5696
6.08946
3.33295
2.08216
1.40266
0.998641
0.740271
0.565883
0.443899
0.355986
0.290877
0.241337
0.202911
0.172979
0.149636
0.131058
0.116047
0.103994
0.0944112
16.5373
9.49238
5.0127
2.8606
1.75746
1.14759
0.786928
0.562047
0.415362
0.315941
0.246323
0.19621
0.159203
0.131226
0.109747
0.0931494
0.080083
0.0695816
0.0604909
0.0560308
13.6679
8.73671
5.0774
3.05388
1.92223
1.26609
0.869285
0.618627
0.453954
0.342027
0.263641
0.207299
0.165886
0.134826
0.11112
0.0926503
0.0781184
0.066571
0.0570943
0.0496552
12.9054
8.33993
5.07879
3.15547
2.02774
1.3512
0.933534
0.666454
0.489541
0.368589
0.283596
0.222376
0.177313
0.143507
0.117717
0.097729
0.0820292
0.0695468
0.0595024
0.0511875
12.6882
8.1544
5.07113
3.20038
2.07939
1.39506
0.967831
0.692721
0.509637
0.384016
0.295503
0.231646
0.184589
0.149255
0.122275
0.101369
0.0849452
0.0718846
0.0613866
0.0528948
12.6882
8.1544
5.07113
3.20039
2.0794
1.39506
0.967836
0.692728
0.509645
0.384025
0.295515
0.231661
0.184608
0.149278
0.122303
0.101404
0.0849883
0.0719359
0.0614457
0.0529626
12.9054
8.33993
5.07879
3.15547
2.02775
1.35121
0.933544
0.666467
0.489556
0.368608
0.283621
0.222408
0.177352
0.143554
0.117774
0.0978027
0.0821191
0.0696529
0.059621
0.0513433
13.6679
8.73671
5.07741
3.05388
1.92224
1.2661
0.869293
0.618635
0.453964
0.342041
0.263659
0.207323
0.165917
0.134867
0.111163
0.0927076
0.0781873
0.0666478
0.0571626
0.0500367
16.5373
9.49238
5.0127
2.8606
1.75746
1.14759
0.786929
0.562046
0.415362
0.31594
0.246323
0.19621
0.159203
0.131233
0.109741
0.0931468
0.0800817
0.0695805
0.0604899
0.0560297
58.5856
14.5696
6.08946
3.33295
2.08216
1.40266
0.998639
0.740269
0.565881
0.443895
0.355978
0.290864
0.241318
0.202855
0.172903
0.149527
0.130888
0.115774
0.103603
0.0940847
90.5034
12.1248
4.38869
2.46658
1.63315
1.18306
0.902002
0.720645
0.594559
0.50246
0.43261
0.379178
0.336133
0.299562
0.269699
0.24534
0.225159
0.208215
0.194118
0.179481
58.5856
14.5696
6.08946
3.33295
2.08216
1.40266
0.99864
0.740269
0.565881
0.443894
0.355977
0.290864
0.241315
0.202859
0.172899
0.149522
0.130881
0.115766
0.103592
0.0940704
45.0226
13.4729
5.73075
3.07322
1.86023
1.22699
0.873571
0.649771
0.497004
0.389469
0.311275
0.252956
0.20895
0.175169
0.148748
0.127781
0.110964
0.0973293
0.0862312
0.0775401
38.7028
13.0541
5.74336
3.08733
1.88066
1.2275
0.86948
0.645387
0.492596
0.384786
0.307031
0.249052
0.204987
0.170996
0.144405
0.123341
0.106444
0.0927374
0.081573
0.0731744
36.0571
12.8529
5.76645
3.10212
1.89476
1.2267
0.866514
0.644
0.492273
0.383995
0.30584
0.247978
0.203999
0.170055
0.143481
0.12241
0.105499
0.0917845
0.0806396
0.0723183
36.0571
12.8529
5.76645
3.10212
1.89476
1.2267
0.866515
0.644002
0.492275
0.383998
0.305845
0.247985
0.204011
0.170074
0.143511
0.12245
0.105553
0.0918545
0.0806911
0.0719698
38.7028
13.0541
5.74336
3.08733
1.88066
1.2275
0.869482
0.64539
0.492601
0.384792
0.307042
0.249069
0.205013
0.17104
0.144473
0.123434
0.106576
0.0929231
0.081796
0.0731092
45.0226
13.4729
5.73075
3.07322
1.86023
1.22699
0.873573
0.649775
0.497009
0.38948
0.31129
0.252977
0.208982
0.175218
0.148828
0.127894
0.111129
0.0975681
0.0865279
0.0777054
58.5856
14.5696
6.08946
3.33295
2.08216
1.40266
0.99864
0.740271
0.565883
0.4439
0.355986
0.290877
0.241337
0.20291
0.172979
0.149637
0.131059
0.116049
0.103998
0.0944165
90.5034
12.1248
4.38869
2.46658
1.63315
1.18306
0.902001
0.720646
0.594559
0.502461
0.43261
0.379179
0.336136
0.299559
0.269701
0.245344
0.225164
0.208222
0.19413
0.179496
0.223012
0.207272
0.18964
0.176748
0.166957
0.159863
0.153608
0.148082
0.142801
0.138297
0.134319
0.130776
0.127141
0.123725
0.12038
0.117313
0.114312
0.111565
0.108919
0.106433
0.104027
0.101689
0.0995322
0.0974303
0.0954586
0.0935353
0.091652
0.0897896
0.0879719
0.0861621
0.0844588
0.0827901
0.0811108
0.0794651
0.0778292
0.0763851
0.0750554
0.0737077
0.0725753
0.0708033
0.100595
0.0903519
0.082028
0.0760603
0.0712499
0.0675187
0.0641018
0.0611517
0.0582589
0.0557364
0.0535396
0.0516789
0.0498374
0.0482295
0.0466171
0.0451366
0.0437467
0.0424833
0.0413056
0.040204
0.0391631
0.0381666
0.037244
0.0363785
0.0355752
0.0348122
0.0340743
0.0333565
0.0326508
0.0319559
0.0312775
0.0306312
0.0300086
0.0293924
0.0288062
0.0282337
0.0276927
0.0271837
0.0267086
0.0261653
0.0773599
0.0701695
0.0641713
0.0589434
0.0546027
0.0508967
0.0477768
0.0450751
0.0427305
0.0406102
0.0386918
0.0369659
0.0354377
0.0341579
0.0328169
0.0316205
0.0305238
0.0295507
0.0286278
0.0277517
0.0269443
0.0261211
0.025361
0.0246708
0.0240517
0.0234696
0.0229066
0.0223629
0.0218441
0.0213437
0.0208497
0.0203792
0.0199293
0.0195056
0.0191126
0.0187186
0.0183329
0.0179651
0.0176169
0.0172622
0.0705212
0.0634902
0.0576534
0.0527484
0.048593
0.045036
0.0419325
0.0392116
0.0368085
0.0346781
0.0327807
0.0310792
0.0295387
0.0281866
0.0269636
0.0258516
0.024831
0.0239348
0.0230308
0.0221593
0.0214005
0.0206909
0.0200256
0.0193963
0.0188194
0.0182795
0.0177798
0.0173043
0.0168535
0.0164266
0.0160013
0.0155989
0.0152191
0.0148649
0.014531
0.0142151
0.0139055
0.0136109
0.013332
0.0130621
0.0690651
0.0618797
0.0558538
0.0507531
0.0464043
0.0426795
0.0394787
0.0367039
0.03426
0.0320973
0.030174
0.0284546
0.0268995
0.0255328
0.0243011
0.0231991
0.0221946
0.0212741
0.0204315
0.0196558
0.0189691
0.0182863
0.0176221
0.0170279
0.0164815
0.0159772
0.0155076
0.0150689
0.0146553
0.0142731
0.0138878
0.0135269
0.0131831
0.012858
0.0125506
0.012264
0.0119875
0.0117222
0.0114709
0.0112348
0.0696549
0.0621061
0.0557899
0.0504578
0.0459238
0.0420388
0.0387077
0.0358304
0.0333134
0.0310903
0.0291206
0.027366
0.0257917
0.0243987
0.0231483
0.0220229
0.0210116
0.0201055
0.0192843
0.0185361
0.0178553
0.0172309
0.0166684
0.0161277
0.0155762
0.0150614
0.0145946
0.0141704
0.0137825
0.0134161
0.0130727
0.0127323
0.0123809
0.0120524
0.0117564
0.011481
0.0112256
0.0109738
0.0107308
0.0105038
0.0711658
0.063083
0.0564313
0.0508771
0.0461856
0.0422028
0.0387966
0.0358571
0.0332894
0.0310392
0.0290617
0.0273163
0.0257629
0.0243886
0.0231603
0.022058
0.0210671
0.0201754
0.0193756
0.0186492
0.017992
0.0173821
0.0168093
0.0162808
0.0157313
0.0152361
0.0147804
0.0143638
0.0139735
0.0135898
0.0132267
0.0128674
0.0125107
0.0121937
0.011902
0.0116257
0.011353
0.0110801
0.0108153
0.0105647
0.0739787
0.0654686
0.0585694
0.0528103
0.0479561
0.0438491
0.0403572
0.0373649
0.0347956
0.0325714
0.0306268
0.0289022
0.0273661
0.0260076
0.0247929
0.0236972
0.0227188
0.0218292
0.0210233
0.020284
0.019628
0.0189721
0.0183487
0.0177911
0.0172624
0.0167711
0.0162999
0.0158606
0.0154138
0.0149719
0.0145603
0.0141891
0.0138358
0.0134911
0.0131555
0.0128269
0.0125027
0.012181
0.0118755
0.0115857
0.0810896
0.0722834
0.0647447
0.058458
0.0532521
0.0489363
0.0453813
0.0424223
0.0398435
0.0376014
0.0356381
0.0338827
0.0323686
0.0309822
0.0297969
0.0285442
0.0274427
0.0264416
0.0255647
0.0247209
0.0239636
0.0232327
0.0225539
0.0219144
0.0212954
0.0207213
0.0201759
0.0196632
0.0191724
0.0186883
0.018221
0.017779
0.0173504
0.0169376
0.0165201
0.0161187
0.0157177
0.0153291
0.0149759
0.0146393
0.104246
0.09442
0.0841741
0.0764456
0.0704892
0.0658089
0.0619672
0.0587654
0.0557239
0.053122
0.0508969
0.0490158
0.0473209
0.045485
0.0438386
0.0423095
0.0408928
0.0395834
0.0383707
0.0372435
0.0361951
0.0352239
0.034344
0.0335058
0.0327149
0.0319655
0.0312424
0.0305427
0.0298507
0.0291534
0.0284964
0.0278768
0.0272741
0.0266871
0.0261029
0.0255068
0.0249341
0.0243942
0.023924
0.0233795
0.223013
0.207192
0.189596
0.176653
0.167148
0.160182
0.153912
0.148347
0.143016
0.138424
0.134446
0.130776
0.127215
0.123786
0.120475
0.117379
0.114393
0.111612
0.108941
0.106456
0.104017
0.101702
0.0995261
0.0974502
0.0954746
0.0935697
0.0916789
0.0898139
0.0879915
0.0861762
0.084477
0.0828108
0.0811517
0.0795397
0.077991
0.0765197
0.0750558
0.0736641
0.0724676
0.0706089
0.104296
0.0943759
0.0841744
0.0764846
0.0703672
0.065638
0.0618094
0.058631
0.0556054
0.0530486
0.0508212
0.0490116
0.0472985
0.045468
0.0437897
0.0422831
0.0408515
0.039564
0.0383584
0.0372413
0.0362025
0.035229
0.034347
0.033503
0.0327143
0.0319632
0.0312404
0.0305427
0.0298535
0.029159
0.0285039
0.0278851
0.0272784
0.026666
0.0260438
0.0254556
0.0249222
0.0244267
0.0239767
0.0234545
0.0597587
0.0498509
0.0430396
0.0383537
0.0349769
0.0321746
0.0299588
0.0280595
0.0263943
0.0249853
0.0237313
0.0225858
0.0215983
0.0205116
0.0196525
0.0187369
0.017995
0.0172471
0.0166067
0.0160047
0.0154117
0.0148772
0.0143323
0.013969
0.0136074
0.0131891
0.0128139
0.012464
0.0121073
0.0120084
0.0116627
0.0112409
0.0109374
0.010682
0.0107803
0.0104159
0.0100581
0.00981802
0.00964506
0.00947538
0.0472218
0.0419997
0.0360692
0.0316948
0.0284801
0.0259463
0.0237948
0.0219601
0.0204057
0.0190256
0.0178397
0.0166449
0.0159243
0.0147703
0.014178
0.0132867
0.0128059
0.0121009
0.011687
0.0111469
0.0107105
0.0103621
0.00989746
0.0096331
0.00927363
0.00899139
0.00873379
0.00843039
0.00820433
0.00815068
0.00796521
0.00761467
0.00743418
0.00718762
0.00707215
0.00718499
0.00697371
0.0066439
0.00644352
0.00622418
0.0470124
0.0405466
0.0353371
0.0310858
0.0274175
0.0244198
0.0222394
0.0203942
0.01878
0.0173621
0.0161141
0.0150104
0.0140346
0.0131581
0.0123785
0.0116794
0.0110631
0.010516
0.00997088
0.00958759
0.00902806
0.00873719
0.00828375
0.00808963
0.00769826
0.00750638
0.00717741
0.00703226
0.00668982
0.00665896
0.00653763
0.00628119
0.00615463
0.0059081
0.00582515
0.00589469
0.005771
0.00549039
0.00539737
0.0051689
0.0455485
0.0400325
0.0352224
0.0311359
0.0276832
0.0246845
0.0220455
0.019855
0.0182369
0.0167962
0.0155196
0.0143886
0.0133807
0.0124897
0.0116937
0.0109816
0.0103443
0.00977251
0.00925712
0.00879342
0.00837351
0.00800049
0.00766804
0.00735913
0.00708695
0.00678798
0.00655014
0.00630604
0.00609042
0.00595981
0.00584072
0.00566771
0.00555072
0.00532096
0.00524015
0.00529164
0.0051733
0.00495303
0.00485918
0.00464696
0.0456785
0.0400625
0.0352756
0.0311991
0.0277278
0.0247753
0.0220709
0.0197881
0.0179995
0.0165687
0.0152859
0.0141413
0.0131164
0.0122123
0.0114042
0.0106831
0.0100387
0.00946169
0.00894432
0.00847947
0.00806161
0.00768664
0.00736414
0.00708618
0.00679065
0.00651324
0.00626173
0.00602859
0.00582163
0.00569449
0.00556664
0.00542236
0.00527956
0.005097
0.0049954
0.00504351
0.0048994
0.00478605
0.00454012
0.00443856
0.0474113
0.040969
0.0356732
0.0312926
0.027643
0.024477
0.0217939
0.0195803
0.0179218
0.0164691
0.0151811
0.014044
0.0130353
0.0121427
0.0113471
0.0106383
0.0100045
0.00943666
0.00892622
0.00846793
0.00805467
0.00768275
0.00736771
0.00708422
0.00681529
0.0065031
0.00630994
0.0060116
0.00584243
0.00575956
0.0056056
0.00541287
0.00529109
0.00504026
0.00496263
0.00504325
0.00488848
0.00477737
0.00451718
0.00441282
0.0500685
0.0420881
0.0359382
0.0311244
0.0271327
0.023941
0.0215943
0.0197381
0.0181207
0.0167098
0.0154759
0.0143935
0.0134361
0.0125725
0.0117998
0.011107
0.010477
0.00991701
0.00940114
0.00894955
0.00853612
0.00813716
0.00781648
0.00745027
0.00724212
0.0068739
0.00671323
0.00638904
0.00623641
0.00618049
0.00601622
0.00573213
0.00560734
0.00532794
0.00520484
0.0051445
0.00526535
0.00510855
0.00479283
0.00463816
0.0524379
0.0431262
0.0362996
0.0311803
0.0277404
0.0251982
0.0230466
0.0212084
0.0196255
0.0182554
0.0170654
0.0159935
0.0150553
0.0141756
0.0133633
0.0127214
0.0119321
0.011465
0.010773
0.0104173
0.00984571
0.00953145
0.00906321
0.0087871
0.00851534
0.0081288
0.00794257
0.00758628
0.00740476
0.00733496
0.00713146
0.00677323
0.00662462
0.00632342
0.00618366
0.00612618
0.00625089
0.0060345
0.00566884
0.00550425
0.0597474
0.0498833
0.0430612
0.0384098
0.034836
0.0322098
0.0300189
0.0281267
0.0264381
0.0250079
0.0237456
0.0225701
0.0215827
0.0205144
0.0196138
0.0187377
0.0179756
0.0172422
0.0166049
0.015992
0.0154224
0.0148572
0.0143318
0.0139393
0.0136264
0.0131781
0.0128195
0.0124643
0.0121052
0.012005
0.0116561
0.0112373
0.0109303
0.0106715
0.0104009
0.0103177
0.0104035
0.0100285
0.00968593
0.00946793
0.100588
0.090382
0.0820672
0.0761197
0.0714986
0.0678034
0.0643008
0.0613024
0.0583862
0.0558145
0.053633
0.0516668
0.0498739
0.0482653
0.0466641
0.0451794
0.0437848
0.0425193
0.0413238
0.0402257
0.0391699
0.0381772
0.0372553
0.0363949
0.0355929
0.0348327
0.0340965
0.0333778
0.0326723
0.031975
0.0312963
0.0306502
0.0300291
0.0294293
0.0288465
0.0282829
0.0277334
0.0271906
0.0266922
0.0261217
0.0810793
0.0722084
0.0647252
0.0585236
0.0532278
0.0488672
0.0452938
0.0423532
0.0397902
0.0375638
0.0356078
0.0338847
0.0323607
0.0309822
0.0297874
0.0285494
0.0274242
0.0264542
0.0255672
0.024733
0.0239787
0.0232443
0.0225723
0.0219204
0.0213058
0.020731
0.0201869
0.0196749
0.019186
0.0187041
0.01824
0.0178005
0.0173743
0.0169621
0.0165559
0.0161295
0.0157165
0.0153418
0.0150022
0.0146778
0.0524515
0.0430809
0.0361846
0.0312454
0.0277706
0.0251949
0.0230328
0.0211932
0.019614
0.0182477
0.0170568
0.0159893
0.0151009
0.0141411
0.013478
0.012577
0.0120722
0.0112985
0.0108837
0.010344
0.00987118
0.00955529
0.00905775
0.00882681
0.00845773
0.00815419
0.00793354
0.00757603
0.00739379
0.00733389
0.00711705
0.00676458
0.00659943
0.00633039
0.00622348
0.00636302
0.0060904
0.00583312
0.00560972
0.00540199
0.0460765
0.0396863
0.0343817
0.0300348
0.0264484
0.0235247
0.0211013
0.0190686
0.0173447
0.0158637
0.0145814
0.0134542
0.012476
0.0115847
0.01081
0.0100919
0.00943761
0.0087911
0.00836711
0.00795269
0.00755935
0.00718958
0.00682351
0.00652285
0.00626688
0.00596304
0.00578542
0.0055203
0.00534955
0.00531748
0.00519009
0.00494643
0.00481932
0.00458102
0.00449313
0.00459427
0.00447678
0.00425598
0.00415671
0.00392524
0.0473619
0.0412297
0.0359917
0.031557
0.0278102
0.0246505
0.0220058
0.0197616
0.017842
0.0161883
0.0147547
0.0135034
0.0124095
0.0114433
0.0105857
0.00982586
0.00914348
0.00852818
0.00798449
0.00750352
0.00706744
0.00666386
0.0062369
0.0060219
0.00575686
0.00552693
0.00526236
0.00509765
0.00479155
0.00475937
0.00463549
0.0044966
0.00438496
0.00417505
0.00406886
0.00414197
0.00402513
0.00390473
0.00381073
0.00359457
0.0495198
0.0429488
0.0374692
0.0328656
0.0289788
0.0256795
0.0228616
0.0204511
0.0184032
0.0166445
0.0151198
0.0137893
0.0126322
0.0116091
0.010705
0.00990347
0.00919013
0.00855246
0.00798198
0.00747024
0.00701169
0.00660075
0.00620192
0.00590071
0.00556885
0.00528713
0.00508442
0.00489744
0.004713
0.0045994
0.0044814
0.00434878
0.00421998
0.00409876
0.0039804
0.00402859
0.00390946
0.00379455
0.00368471
0.00356928
0.0506365
0.0437897
0.0381311
0.0334046
0.0294259
0.0260561
0.0231734
0.0207008
0.0185894
0.0167847
0.0152268
0.0138698
0.0126917
0.0116505
0.0107314
0.00991719
0.0091934
0.00854664
0.00796846
0.00745135
0.00698659
0.00657421
0.00617454
0.00588067
0.00556454
0.00526022
0.00505019
0.00479302
0.00462141
0.00457294
0.00445172
0.00431592
0.00418346
0.00407039
0.00395509
0.004008
0.00388723
0.00377087
0.00365704
0.00354508
0.0501472
0.0433332
0.037672
0.0329431
0.0289703
0.0256108
0.0227578
0.0203301
0.0182675
0.0164988
0.0149729
0.0136478
0.0125005
0.0114857
0.0105901
0.00979656
0.00909074
0.00845994
0.00789712
0.00739307
0.0069386
0.00653516
0.00613897
0.00584642
0.00554006
0.00524524
0.00501459
0.00482467
0.00465648
0.00456637
0.00444982