/*--------------------------------*- C++ -*----------------------------------*\
| =========                 |                                                 |
| \\      /  F ield         | OpenFOAM: The Open Source CFD Toolbox           |
|  \\    /   O peration     | Version:  2212                                  |
|   \\  /    A nd           | Website:  www.openfoam.com                      |
|    \\/     M anipulation  |                                                 |
\*---------------------------------------------------------------------------*/
FoamFile
{
    version     2.0;
    format      ascii;
    arch        "LSB;label=32;scalar=64";
    class       volScalarField;
    location    "1.55";
    object      nut;
}
// * * * * * * * * * * * * * * * * * * * * * * * * * * * * * * * * * * * * * //

dimensions      [0 2 -1 0 0 0 0];

internalField   nonuniform List<scalar> 
6840
(
4.5356e-05
2.3208e-05
1.65396e-05
1.36493e-05
1.18966e-05
1.06844e-05
9.76075e-06
9.05709e-06
8.49468e-06
8.03128e-06
7.64045e-06
7.31206e-06
7.02426e-06
6.75986e-06
6.52745e-06
6.32516e-06
6.14746e-06
5.98871e-06
5.84552e-06
5.6957e-06
0.000107685
6.77183e-05
5.06311e-05
4.14159e-05
3.54048e-05
3.10367e-05
2.77137e-05
2.50816e-05
2.29334e-05
2.11505e-05
1.96504e-05
1.83709e-05
1.72625e-05
1.62927e-05
1.54484e-05
1.47194e-05
1.40823e-05
1.35196e-05
1.30275e-05
1.26284e-05
0.000160509
0.00010736
8.07408e-05
6.55975e-05
5.54896e-05
4.83025e-05
4.3131e-05
3.9079e-05
3.57391e-05
3.29496e-05
3.05779e-05
2.8535e-05
2.67741e-05
2.52462e-05
2.39084e-05
2.2729e-05
2.16866e-05
2.0762e-05
1.99481e-05
1.93339e-05
0.000198681
0.0001383
0.000105187
8.55269e-05
7.25012e-05
6.28901e-05
5.60611e-05
5.07593e-05
4.6388e-05
4.27217e-05
3.96252e-05
3.69553e-05
3.46331e-05
3.26028e-05
3.08183e-05
2.92417e-05
2.78425e-05
2.65958e-05
2.54901e-05
2.46302e-05
0.000218609
0.000155003
0.000118661
9.65069e-05
8.18824e-05
7.08356e-05
6.30857e-05
5.71436e-05
5.22486e-05
4.80967e-05
4.45833e-05
4.15732e-05
3.89542e-05
3.66618e-05
3.4644e-05
3.28585e-05
3.1271e-05
2.98539e-05
2.85901e-05
2.75188e-05
0.000218609
0.000155003
0.000118661
9.65069e-05
8.18824e-05
7.08356e-05
6.30857e-05
5.71437e-05
5.22487e-05
4.80969e-05
4.45836e-05
4.15735e-05
3.89547e-05
3.66623e-05
3.46444e-05
3.28592e-05
3.12722e-05
2.9856e-05
2.85943e-05
2.75067e-05
0.000198681
0.0001383
0.000105187
8.55269e-05
7.25013e-05
6.28902e-05
5.60612e-05
5.07594e-05
4.63883e-05
4.27221e-05
3.96257e-05
3.6956e-05
3.4634e-05
3.26038e-05
3.08196e-05
2.92438e-05
2.78455e-05
2.65998e-05
2.54913e-05
2.45663e-05
0.000160509
0.00010736
8.07409e-05
6.55976e-05
5.54896e-05
4.83026e-05
4.3131e-05
3.90791e-05
3.57393e-05
3.29499e-05
3.05783e-05
2.85356e-05
2.67748e-05
2.5247e-05
2.39096e-05
2.27309e-05
2.16895e-05
2.07665e-05
1.99482e-05
1.92299e-05
0.000107685
6.77183e-05
5.06311e-05
4.14159e-05
3.54048e-05
3.10367e-05
2.77137e-05
2.50816e-05
2.29334e-05
2.11506e-05
1.96505e-05
1.8371e-05
1.72626e-05
1.62926e-05
1.54486e-05
1.47199e-05
1.40833e-05
1.3522e-05
1.30312e-05
1.2588e-05
4.5356e-05
2.3208e-05
1.65396e-05
1.36493e-05
1.18966e-05
1.06844e-05
9.76075e-06
9.05709e-06
8.49468e-06
8.03127e-06
7.64045e-06
7.31202e-06
7.02431e-06
6.75976e-06
6.52746e-06
6.32515e-06
6.14743e-06
5.98864e-06
5.8454e-06
5.69526e-06
0.000107685
6.77183e-05
5.06311e-05
4.14159e-05
3.54048e-05
3.10367e-05
2.77137e-05
2.50816e-05
2.29334e-05
2.11506e-05
1.96505e-05
1.8371e-05
1.72626e-05
1.62929e-05
1.54486e-05
1.47198e-05
1.40833e-05
1.35221e-05
1.30313e-05
1.25882e-05
0.000528907
0.000369984
0.000305097
0.000261371
0.000228528
0.000202475
0.000181113
0.000163071
0.000147536
0.000133979
0.000122042
0.000111455
0.000102117
9.38362e-05
8.64128e-05
7.95917e-05
7.33481e-05
6.766e-05
6.33484e-05
5.57749e-05
0.000663952
0.000488458
0.000404619
0.000347248
0.000305035
0.000272127
0.000245317
0.000222887
0.000203753
0.000187175
0.000172648
0.000159805
0.00014836
0.000138097
0.000128846
0.000120597
0.000113146
0.000106323
0.000100491
9.41481e-05
0.00071288
0.000556432
0.000466397
0.000402355
0.000354425
0.00031705
0.000286674
0.000261255
0.000239581
0.000220845
0.000204443
0.000189949
0.000177046
0.000165477
0.000155038
0.000145576
0.000136967
0.000129095
0.00012188
0.000115647
0.000728543
0.000588231
0.000496002
0.000429132
0.00037851
0.000338935
0.00030682
0.000279975
0.000257076
0.00023726
0.000219916
0.000204588
0.000190933
0.000178688
0.000167649
0.000157634
0.000148516
0.000140178
0.000132501
0.000125349
0.000728543
0.000588231
0.000496002
0.000429132
0.00037851
0.000338936
0.000306821
0.000279977
0.000257078
0.000237264
0.000219922
0.000204596
0.000190944
0.000178699
0.000167662
0.000157653
0.00014854
0.000140204
0.000132533
0.000125541
0.00071288
0.000556432
0.000466397
0.000402355
0.000354426
0.000317052
0.000286677
0.000261258
0.000239587
0.000220853
0.000204455
0.000189967
0.000177067
0.0001655
0.000155068
0.000145617
0.000137013
0.000129134
0.000121891
0.00011596
0.000663952
0.000488458
0.000404619
0.000347248
0.000305036
0.000272128
0.000245319
0.000222889
0.000203756
0.000187181
0.000172656
0.000159817
0.000148373
0.000138108
0.000128868
0.000120624
0.000113167
0.000106314
0.000100376
9.48438e-05
0.000528907
0.000369984
0.000305097
0.000261371
0.000228528
0.000202475
0.000181113
0.000163071
0.000147536
0.000133979
0.000122042
0.000111454
0.000102117
9.38288e-05
8.64181e-05
7.95954e-05
7.33512e-05
6.76633e-05
6.33535e-05
5.57818e-05
0.000107685
6.77183e-05
5.06311e-05
4.14159e-05
3.54048e-05
3.10367e-05
2.77137e-05
2.50816e-05
2.29334e-05
2.11505e-05
1.96504e-05
1.83709e-05
1.72625e-05
1.62925e-05
1.54484e-05
1.47195e-05
1.40823e-05
1.35197e-05
1.30275e-05
1.2627e-05
0.000160509
0.00010736
8.07409e-05
6.55976e-05
5.54896e-05
4.83026e-05
4.3131e-05
3.90791e-05
3.57393e-05
3.29499e-05
3.05784e-05
2.85356e-05
2.6775e-05
2.52472e-05
2.39095e-05
2.27308e-05
2.16894e-05
2.07666e-05
1.99484e-05
1.92303e-05
0.000663952
0.000488458
0.000404619
0.000347248
0.000305036
0.000272128
0.000245319
0.000222889
0.000203757
0.000187181
0.000172657
0.000159817
0.000148376
0.000138117
0.000128862
0.00012062
0.000113166
0.000106316
0.000100372
9.4842e-05
0.000786827
0.000662293
0.000567974
0.000495805
0.000439463
0.000394561
0.000357973
0.000327449
0.000301487
0.000279045
0.00025939
0.000241991
0.000226455
0.000212481
0.000199836
0.000188361
0.000177888
0.000168273
0.000159449
0.00015096
0.000809324
0.000713906
0.000631504
0.000562574
0.000505377
0.000457785
0.00041784
0.000383938
0.000354802
0.000329446
0.000307151
0.000287371
0.00026969
0.00025378
0.000239382
0.000226289
0.000214325
0.000203321
0.00019306
0.000182981
0.000814958
0.000730426
0.000654634
0.000589044
0.000533067
0.000485439
0.000444764
0.000409795
0.000379472
0.000352935
0.000329496
0.000308637
0.000289951
0.000273119
0.000257879
0.00024401
0.000231332
0.000219658
0.000208717
0.000197827
0.000814958
0.000730426
0.000654634
0.000589044
0.000533068
0.000485439
0.000444765
0.000409796
0.000379474
0.000352938
0.000329501
0.000308643
0.00028996
0.000273129
0.000257892
0.000244031
0.000231362
0.000219698
0.000208765
0.000197903
0.000809324
0.000713906
0.000631505
0.000562574
0.000505377
0.000457786
0.000417841
0.00038394
0.000354805
0.000329451
0.000307159
0.000287382
0.000269703
0.000253797
0.000239409
0.000226329
0.000214379
0.000203388
0.000193138
0.000183089
0.000786827
0.000662293
0.000567974
0.000495805
0.000439463
0.000394561
0.000357973
0.000327449
0.000301486
0.000279045
0.00025939
0.000241991
0.000226453
0.000212477
0.00019984
0.000188364
0.00017789
0.000168275
0.000159451
0.000150948
0.000663952
0.000488458
0.000404619
0.000347248
0.000305035
0.000272127
0.000245317
0.000222887
0.000203753
0.000187175
0.000172648
0.000159805
0.00014836
0.000138095
0.000128847
0.000120598
0.000113148
0.000106327
0.000100497
9.41464e-05
0.000160509
0.00010736
8.07408e-05
6.55975e-05
5.54896e-05
4.83025e-05
4.3131e-05
3.9079e-05
3.57391e-05
3.29495e-05
3.05779e-05
2.8535e-05
2.67742e-05
2.52462e-05
2.39084e-05
2.2729e-05
2.16866e-05
2.0762e-05
1.99477e-05
1.93298e-05
0.000198681
0.0001383
0.000105187
8.55269e-05
7.25013e-05
6.28902e-05
5.60612e-05
5.07594e-05
4.63883e-05
4.27221e-05
3.96257e-05
3.6956e-05
3.46342e-05
3.2604e-05
3.08194e-05
2.92437e-05
2.78455e-05
2.65999e-05
2.54914e-05
2.45666e-05
0.00071288
0.000556432
0.000466397
0.000402355
0.000354426
0.000317052
0.000286677
0.000261258
0.000239587
0.000220854
0.000204456
0.000189968
0.000177071
0.000165504
0.000155064
0.000145615
0.000137014
0.000129138
0.000121898
0.000115975
0.000809324
0.000713906
0.000631505
0.000562574
0.000505377
0.000457786
0.000417842
0.00038394
0.000354805
0.000329452
0.000307159
0.000287383
0.000269707
0.0002538
0.000239406
0.000226327
0.000214379
0.00020339
0.000193142
0.000183105
0.000823497
0.000753987
0.000688491
0.000628748
0.000575387
0.000528266
0.000486845
0.00045044
0.000418361
0.000389971
0.000364723
0.000342155
0.000321884
0.000303588
0.000287002
0.000271902
0.000258084
0.000245325
0.000233259
0.000220886
0.000826292
0.000764347
0.000706102
0.000651936
0.00060223
0.000557103
0.000516428
0.000479912
0.00044718
0.000417831
0.000391474
0.000367747
0.000346328
0.000326934
0.000309314
0.000293246
0.000278521
0.00026489
0.0002519
0.000238277
0.000826292
0.000764347
0.000706102
0.000651936
0.00060223
0.000557103
0.000516428
0.000479912
0.000447181
0.000417832
0.000391475
0.000367749
0.00034633
0.000326936
0.000309317
0.000293251
0.000278528
0.000264899
0.000251913
0.000238388
0.000823497
0.000753987
0.000688491
0.000628748
0.000575387
0.000528266
0.000486845
0.00045044
0.000418361
0.000389971
0.000364723
0.000342155
0.000321883
0.000303587
0.000287003
0.000271903
0.000258084
0.000245325
0.000233258
0.000220868
0.000809324
0.000713906
0.000631504
0.000562574
0.000505377
0.000457785
0.00041784
0.000383938
0.000354802
0.000329446
0.000307151
0.000287371
0.00026969
0.00025378
0.000239382
0.00022629
0.000214327
0.000203324
0.000193064
0.00018297
0.00071288
0.000556432
0.000466397
0.000402355
0.000354425
0.00031705
0.000286674
0.000261255
0.000239581
0.000220845
0.000204443
0.000189949
0.000177047
0.000165479
0.000155036
0.000145574
0.000136966
0.000129096
0.000121883
0.000115649
0.000198681
0.0001383
0.000105187
8.55269e-05
7.25012e-05
6.28901e-05
5.60611e-05
5.07593e-05
4.6388e-05
4.27217e-05
3.96252e-05
3.69552e-05
3.46332e-05
3.26029e-05
3.08181e-05
2.92416e-05
2.78424e-05
2.65956e-05
2.54898e-05
2.46288e-05
0.000218609
0.000155003
0.000118661
9.65069e-05
8.18824e-05
7.08357e-05
6.30857e-05
5.71437e-05
5.22488e-05
4.80969e-05
4.45836e-05
4.15735e-05
3.89547e-05
3.66624e-05
3.46445e-05
3.28593e-05
3.12724e-05
2.98562e-05
2.85945e-05
2.7507e-05
0.000728543
0.000588231
0.000496002
0.000429132
0.00037851
0.000338936
0.000306821
0.000279977
0.000257078
0.000237264
0.000219922
0.000204596
0.000190945
0.000178703
0.000167664
0.000157656
0.000148544
0.00014021
0.000132543
0.000125558
0.000814958
0.000730426
0.000654634
0.000589044
0.000533068
0.000485439
0.000444765
0.000409796
0.000379474
0.000352938
0.000329501
0.000308644
0.000289962
0.000273131
0.000257894
0.000244033
0.000231365
0.000219702
0.000208772
0.000197916
0.000826292
0.000764347
0.000706102
0.000651936
0.00060223
0.000557103
0.000516428
0.000479912
0.000447181
0.000417832
0.000391475
0.000367749
0.000346331
0.000326937
0.000309317
0.000293251
0.000278529
0.0002649
0.000251915
0.000238388
0.000828382
0.0007726
0.000721137
0.00067296
0.000627781
0.00058562
0.000546547
0.000510578
0.000477647
0.000447612
0.000420283
0.00039544
0.000372854
0.000352303
0.000333568
0.000316444
0.000300715
0.000286095
0.000272008
0.000256882
0.000828382
0.0007726
0.000721137
0.00067296
0.000627781
0.00058562
0.000546547
0.000510578
0.000477647
0.000447612
0.000420283
0.00039544
0.000372854
0.000352303
0.000333568
0.000316444
0.000300715
0.000286095
0.000272006
0.000256876
0.000826292
0.000764347
0.000706102
0.000651936
0.00060223
0.000557103
0.000516428
0.000479912
0.00044718
0.000417831
0.000391474
0.000367747
0.000346329
0.000326934
0.000309313
0.000293245
0.000278521
0.000264891
0.000251899
0.000238264
0.000814958
0.000730426
0.000654634
0.000589044
0.000533067
0.000485439
0.000444764
0.000409795
0.000379472
0.000352935
0.000329496
0.000308637
0.000289953
0.000273121
0.000257877
0.000244009
0.000231333
0.000219661
0.000208722
0.000197823
0.000728543
0.000588231
0.000496002
0.000429132
0.00037851
0.000338935
0.00030682
0.000279975
0.000257075
0.00023726
0.000219916
0.000204587
0.000190934
0.000178693
0.000167645
0.000157631
0.000148514
0.000140177
0.000132501
0.000125346
0.000218609
0.000155003
0.000118661
9.65069e-05
8.18824e-05
7.08356e-05
6.30857e-05
5.71436e-05
5.22486e-05
4.80967e-05
4.45833e-05
4.15732e-05
3.89542e-05
3.66619e-05
3.46439e-05
3.28583e-05
3.12708e-05
2.98538e-05
2.85899e-05
2.75186e-05
0.000218609
0.000155003
0.000118661
9.65069e-05
8.18824e-05
7.08356e-05
6.30857e-05
5.71436e-05
5.22486e-05
4.80967e-05
4.45833e-05
4.15732e-05
3.89542e-05
3.66618e-05
3.4644e-05
3.28585e-05
3.1271e-05
2.9854e-05
2.85905e-05
2.75191e-05
0.000728543
0.000588231
0.000496002
0.000429132
0.00037851
0.000338935
0.00030682
0.000279975
0.000257076
0.00023726
0.000219916
0.000204588
0.000190933
0.000178689
0.00016765
0.000157635
0.000148518
0.000140181
0.000132507
0.000125358
0.000814958
0.000730426
0.000654634
0.000589044
0.000533067
0.000485439
0.000444764
0.000409795
0.000379472
0.000352935
0.000329496
0.000308637
0.000289951
0.000273119
0.000257879
0.00024401
0.000231333
0.00021966
0.000208721
0.000197826
0.000826292
0.000764347
0.000706102
0.000651936
0.00060223
0.000557103
0.000516428
0.000479912
0.00044718
0.000417831
0.000391474
0.000367747
0.000346328
0.000326933
0.000309314
0.000293246
0.000278521
0.00026489
0.000251899
0.000238268
0.000828382
0.0007726
0.000721137
0.00067296
0.000627781
0.00058562
0.000546547
0.000510578
0.000477647
0.000447612
0.000420283
0.00039544
0.000372854
0.000352302
0.000333568
0.000316443
0.000300715
0.000286095
0.000272007
0.000256879
0.000828382
0.0007726
0.000721137
0.00067296
0.000627781
0.00058562
0.000546547
0.000510578
0.000477647
0.000447612
0.000420283
0.00039544
0.000372854
0.000352303
0.000333568
0.000316443
0.000300715
0.000286095
0.000272005
0.000256877
0.000826292
0.000764347
0.000706102
0.000651936
0.00060223
0.000557103
0.000516428
0.000479912
0.000447181
0.000417832
0.000391475
0.000367749
0.000346331
0.000326937
0.000309317
0.000293251
0.000278528
0.000264899
0.000251913
0.000238381
0.000814958
0.000730426
0.000654634
0.000589044
0.000533068
0.000485439
0.000444765
0.000409796
0.000379474
0.000352938
0.000329501
0.000308643
0.00028996
0.000273131
0.000257893
0.000244032
0.000231363
0.000219699
0.000208768
0.000197904
0.000728543
0.000588231
0.000496002
0.000429132
0.00037851
0.000338936
0.000306821
0.000279977
0.000257078
0.000237264
0.000219922
0.000204595
0.000190943
0.000178703
0.000167661
0.000157653
0.000148539
0.000140203
0.000132532
0.000125539
0.000218609
0.000155003
0.000118661
9.65069e-05
8.18824e-05
7.08356e-05
6.30857e-05
5.71437e-05
5.22487e-05
4.80969e-05
4.45836e-05
4.15735e-05
3.89546e-05
3.66623e-05
3.46446e-05
3.28593e-05
3.12723e-05
2.9856e-05
2.85943e-05
2.75066e-05
0.000198681
0.0001383
0.000105187
8.55269e-05
7.25012e-05
6.28901e-05
5.60611e-05
5.07593e-05
4.6388e-05
4.27217e-05
3.96252e-05
3.69552e-05
3.46331e-05
3.26028e-05
3.08182e-05
2.92417e-05
2.78425e-05
2.65957e-05
2.54901e-05
2.46297e-05
0.00071288
0.000556432
0.000466397
0.000402355
0.000354425
0.00031705
0.000286674
0.000261255
0.000239581
0.000220845
0.000204442
0.000189949
0.000177045
0.000165476
0.000155038
0.000145575
0.000136966
0.000129094
0.00012188
0.000115648
0.000809324
0.000713906
0.000631504
0.000562574
0.000505377
0.000457785
0.00041784
0.000383938
0.000354802
0.000329446
0.000307151
0.000287371
0.000269689
0.000253779
0.000239381
0.000226288
0.000214323
0.000203318
0.000193057
0.000182969
0.000823497
0.000753987
0.000688491
0.000628748
0.000575387
0.000528266
0.000486845
0.00045044
0.000418361
0.000389971
0.000364723
0.000342155
0.000321883
0.000303587
0.000287001
0.000271901
0.000258081
0.000245321
0.000233255
0.000220872
0.000826292
0.000764347
0.000706102
0.000651936
0.00060223
0.000557103
0.000516428
0.000479912
0.000447181
0.000417832
0.000391475
0.000367749
0.00034633
0.000326936
0.000309316
0.00029325
0.000278527
0.000264898
0.000251912
0.000238391
0.000826292
0.000764347
0.000706102
0.000651936
0.00060223
0.000557103
0.000516428
0.000479912
0.00044718
0.000417831
0.000391474
0.000367747
0.000346328
0.000326933
0.000309313
0.000293245
0.000278521
0.00026489
0.0002519
0.000238269
0.000823497
0.000753987
0.000688491
0.000628748
0.000575387
0.000528266
0.000486845
0.00045044
0.000418361
0.000389971
0.000364723
0.000342155
0.000321883
0.000303587
0.000287003
0.000271902
0.000258083
0.000245324
0.000233258
0.000220872
0.000809324
0.000713906
0.000631505
0.000562574
0.000505377
0.000457786
0.000417841
0.00038394
0.000354805
0.000329451
0.000307159
0.000287382
0.000269703
0.000253797
0.000239409
0.000226328
0.000214377
0.000203385
0.000193135
0.000183089
0.00071288
0.000556432
0.000466397
0.000402355
0.000354426
0.000317051
0.000286677
0.000261259
0.000239587
0.000220853
0.000204455
0.000189967
0.000177067
0.000165499
0.000155067
0.000145616
0.000137012
0.000129133
0.000121888
0.000115959
0.000198681
0.0001383
0.000105187
8.55269e-05
7.25013e-05
6.28902e-05
5.60612e-05
5.07594e-05
4.63883e-05
4.27221e-05
3.96257e-05
3.6956e-05
3.4634e-05
3.26038e-05
3.08196e-05
2.92438e-05
2.78456e-05
2.65999e-05
2.54915e-05
2.45668e-05
0.000160509
0.00010736
8.07408e-05
6.55975e-05
5.54896e-05
4.83025e-05
4.3131e-05
3.9079e-05
3.57391e-05
3.29495e-05
3.05779e-05
2.8535e-05
2.67741e-05
2.52462e-05
2.39083e-05
2.2729e-05
2.16865e-05
2.07618e-05
1.99479e-05
1.93332e-05
0.000663952
0.000488458
0.000404619
0.000347248
0.000305035
0.000272127
0.000245317
0.000222887
0.000203753
0.000187175
0.000172648
0.000159805
0.000148358
0.000138095
0.000128845
0.000120594
0.000113141
0.000106315
0.000100487
9.41369e-05
0.000786827
0.000662293
0.000567974
0.000495805
0.000439463
0.000394561
0.000357973
0.000327449
0.000301486
0.000279045
0.00025939
0.00024199
0.000226453
0.000212479
0.000199834
0.000188357
0.000177881
0.000168264
0.000159435
0.000150939
0.000809324
0.000713906
0.000631505
0.000562574
0.000505377
0.000457786
0.000417841
0.00038394
0.000354805
0.000329451
0.000307159
0.000287383
0.000269706
0.000253799
0.000239404
0.000226324
0.000214375
0.000203382
0.000193131
0.000183092
0.000814958
0.000730426
0.000654634
0.000589044
0.000533068
0.000485439
0.000444765
0.000409796
0.000379474
0.000352938
0.000329501
0.000308644
0.000289961
0.000273131
0.000257893
0.000244032
0.000231363
0.000219699
0.000208769
0.000197914
0.000814958
0.000730426
0.000654634
0.000589044
0.000533067
0.000485439
0.000444764
0.000409794
0.000379472
0.000352934
0.000329496
0.000308636
0.000289951
0.00027312
0.000257879
0.00024401
0.000231333
0.000219661
0.000208724
0.000197829
0.000809324
0.000713906
0.000631504
0.000562574
0.000505377
0.000457785
0.00041784
0.000383938
0.000354802
0.000329446
0.000307151
0.000287371
0.00026969
0.00025378
0.000239382
0.000226289
0.000214325
0.00020332
0.000193062
0.000182977
0.000786827
0.000662293
0.000567974
0.000495805
0.000439463
0.000394561
0.000357973
0.000327449
0.000301487
0.000279045
0.00025939
0.00024199
0.000226452
0.000212476
0.000199839
0.000188362
0.000177886
0.000168268
0.000159442
0.00015095
0.000663952
0.000488458
0.000404619
0.000347248
0.000305036
0.000272128
0.000245318
0.000222889
0.000203757
0.000187181
0.000172656
0.000159817
0.000148373
0.000138108
0.000128868
0.000120623
0.000113166
0.000106313
0.000100373
9.48353e-05
0.000160509
0.00010736
8.07409e-05
6.55976e-05
5.54896e-05
4.83026e-05
4.3131e-05
3.90791e-05
3.57393e-05
3.29499e-05
3.05783e-05
2.85356e-05
2.67748e-05
2.5247e-05
2.39096e-05
2.27309e-05
2.16896e-05
2.07666e-05
1.99484e-05
1.92302e-05
0.000107685
6.77183e-05
5.06311e-05
4.14159e-05
3.54048e-05
3.10367e-05
2.77137e-05
2.50816e-05
2.29334e-05
2.11505e-05
1.96504e-05
1.83709e-05
1.72624e-05
1.62926e-05
1.54483e-05
1.47193e-05
1.40821e-05
1.35193e-05
1.3027e-05
1.26283e-05
0.000528907
0.000369984
0.000305097
0.000261371
0.000228528
0.000202475
0.000181113
0.000163071
0.000147536
0.000133979
0.000122041
0.000111454
0.000102116
9.38351e-05
8.64114e-05
7.95894e-05
7.33446e-05
6.76551e-05
6.33402e-05
5.57628e-05
0.000663952
0.000488458
0.000404619
0.000347248
0.000305036
0.000272128
0.000245319
0.000222889
0.000203756
0.000187181
0.000172656
0.000159817
0.000148375
0.000138116
0.00012886
0.000120618
0.000113163
0.000106311
0.000100363
9.48316e-05
0.00071288
0.000556432
0.000466397
0.000402355
0.000354426
0.000317052
0.000286677
0.000261258
0.000239587
0.000220853
0.000204455
0.000189967
0.00017707
0.000165504
0.000155063
0.000145614
0.000137012
0.000129135
0.000121893
0.00011597
0.000728543
0.000588231
0.000496002
0.000429132
0.00037851
0.000338936
0.000306821
0.000279977
0.000257078
0.000237264
0.000219922
0.000204596
0.000190945
0.000178702
0.000167663
0.000157655
0.000148543
0.000140209
0.000132542
0.000125556
0.000728543
0.000588231
0.000496002
0.000429132
0.00037851
0.000338935
0.00030682
0.000279975
0.000257075
0.00023726
0.000219916
0.000204587
0.000190933
0.00017869
0.000167651
0.000157635
0.000148518
0.000140181
0.000132507
0.000125354
0.00071288
0.000556432
0.000466397
0.000402355
0.000354425
0.00031705
0.000286674
0.000261255
0.000239581
0.000220844
0.000204442
0.000189949
0.000177046
0.000165479
0.000155036
0.000145574
0.000136965
0.000129093
0.000121881
0.000115647
0.000663952
0.000488458
0.000404619
0.000347248
0.000305035
0.000272127
0.000245317
0.000222887
0.000203753
0.000187175
0.000172648
0.000159805
0.000148359
0.000138094
0.000128845
0.000120595
0.000113142
0.000106317
0.00010049
9.41406e-05
0.000528907
0.000369984
0.000305097
0.000261371
0.000228528
0.000202475
0.000181112
0.000163072
0.000147536
0.000133979
0.000122042
0.000111454
0.000102117
9.38283e-05
8.64173e-05
7.9594e-05
7.33489e-05
6.76602e-05
6.3347e-05
5.57715e-05
0.000107685
6.77183e-05
5.06311e-05
4.14159e-05
3.54048e-05
3.10367e-05
2.77137e-05
2.50816e-05
2.29334e-05
2.11506e-05
1.96505e-05
1.8371e-05
1.72627e-05
1.62926e-05
1.54486e-05
1.47199e-05
1.40833e-05
1.3522e-05
1.30311e-05
1.25879e-05
4.5356e-05
2.3208e-05
1.65396e-05
1.36493e-05
1.18966e-05
1.06844e-05
9.76075e-06
9.05709e-06
8.49468e-06
8.03127e-06
7.64044e-06
7.31205e-06
7.02424e-06
6.75983e-06
6.52741e-06
6.3251e-06
6.14738e-06
5.9886e-06
5.84527e-06
5.69571e-06
0.000107685
6.77183e-05
5.06311e-05
4.14159e-05
3.54048e-05
3.10367e-05
2.77137e-05
2.50816e-05
2.29334e-05
2.11505e-05
1.96504e-05
1.8371e-05
1.72626e-05
1.62929e-05
1.54485e-05
1.47197e-05
1.40831e-05
1.35218e-05
1.3031e-05
1.2588e-05
0.000160509
0.00010736
8.07409e-05
6.55976e-05
5.54896e-05
4.83026e-05
4.3131e-05
3.90791e-05
3.57393e-05
3.29499e-05
3.05783e-05
2.85356e-05
2.67749e-05
2.52472e-05
2.39094e-05
2.27307e-05
2.16894e-05
2.07665e-05
1.99483e-05
1.92299e-05
0.000198681
0.0001383
0.000105187
8.55269e-05
7.25013e-05
6.28902e-05
5.60612e-05
5.07594e-05
4.63883e-05
4.27221e-05
3.96257e-05
3.6956e-05
3.46342e-05
3.2604e-05
3.08194e-05
2.92436e-05
2.78455e-05
2.65999e-05
2.54915e-05
2.45676e-05
0.000218609
0.000155003
0.000118661
9.65069e-05
8.18824e-05
7.08357e-05
6.30857e-05
5.71437e-05
5.22487e-05
4.80969e-05
4.45836e-05
4.15735e-05
3.89547e-05
3.66624e-05
3.46445e-05
3.28594e-05
3.12724e-05
2.98563e-05
2.85948e-05
2.75085e-05
0.000218609
0.000155003
0.000118661
9.65069e-05
8.18824e-05
7.08356e-05
6.30857e-05
5.71436e-05
5.22486e-05
4.80967e-05
4.45833e-05
4.15732e-05
3.89542e-05
3.66619e-05
3.46441e-05
3.28585e-05
3.12711e-05
2.98541e-05
2.85906e-05
2.75197e-05
0.000198681
0.0001383
0.000105187
8.55269e-05
7.25012e-05
6.28901e-05
5.60611e-05
5.07593e-05
4.6388e-05
4.27217e-05
3.96252e-05
3.69552e-05
3.46331e-05
3.26029e-05
3.08182e-05
2.92416e-05
2.78424e-05
2.65957e-05
2.54901e-05
2.463e-05
0.000160509
0.00010736
8.07408e-05
6.55975e-05
5.54896e-05
4.83025e-05
4.31309e-05
3.9079e-05
3.57391e-05
3.29495e-05
3.05779e-05
2.8535e-05
2.67741e-05
2.52462e-05
2.39083e-05
2.27289e-05
2.16865e-05
2.07618e-05
1.99479e-05
1.93334e-05
0.000107685
6.77183e-05
5.06311e-05
4.14159e-05
3.54048e-05
3.10367e-05
2.77137e-05
2.50816e-05
2.29334e-05
2.11505e-05
1.96504e-05
1.83709e-05
1.72624e-05
1.62925e-05
1.54483e-05
1.47194e-05
1.40822e-05
1.35195e-05
1.30272e-05
1.26282e-05
4.5356e-05
2.3208e-05
1.65396e-05
1.36493e-05
1.18966e-05
1.06844e-05
9.76075e-06
9.05709e-06
8.49469e-06
8.03128e-06
7.64045e-06
7.31203e-06
7.02432e-06
6.75976e-06
6.52747e-06
6.32516e-06
6.14744e-06
5.98867e-06
5.84536e-06
5.69561e-06
4.63371e-06
4.60517e-06
4.5356e-06
4.44418e-06
4.36224e-06
4.29916e-06
4.23894e-06
4.18529e-06
4.13377e-06
4.0865e-06
4.04435e-06
4.0071e-06
3.96843e-06
3.93206e-06
3.89581e-06
3.86199e-06
3.82848e-06
3.79728e-06
3.76676e-06
3.7377e-06
3.70919e-06
3.68116e-06
3.65494e-06
3.6291e-06
3.60441e-06
3.58007e-06
3.55591e-06
3.53166e-06
3.5076e-06
3.48332e-06
3.46005e-06
3.43679e-06
3.413e-06
3.38906e-06
3.36441e-06
3.34281e-06
3.32177e-06
3.30014e-06
3.28157e-06
3.25192e-06
1.01117e-05
9.84244e-06
9.5919e-06
9.33084e-06
9.11198e-06
8.94095e-06
8.77481e-06
8.63042e-06
8.49165e-06
8.36001e-06
8.24222e-06
8.1422e-06
8.03966e-06
7.95014e-06
7.85896e-06
7.77378e-06
7.69201e-06
7.61632e-06
7.54444e-06
7.47596e-06
7.41021e-06
7.34629e-06
7.28626e-06
7.22928e-06
7.17535e-06
7.12347e-06
7.07255e-06
7.0223e-06
6.97196e-06
6.92168e-06
6.87171e-06
6.82346e-06
6.77608e-06
6.72843e-06
6.68135e-06
6.6345e-06
6.58988e-06
6.54627e-06
6.50497e-06
6.45725e-06
1.56439e-05
1.50167e-05
1.45386e-05
1.40925e-05
1.37363e-05
1.34125e-05
1.31241e-05
1.28635e-05
1.26303e-05
1.2416e-05
1.22148e-05
1.20279e-05
1.18559e-05
1.17066e-05
1.15489e-05
1.14056e-05
1.12703e-05
1.11489e-05
1.1029e-05
1.09137e-05
1.08057e-05
1.06933e-05
1.05881e-05
1.04894e-05
1.04005e-05
1.03152e-05
1.02314e-05
1.0149e-05
1.0069e-05
9.99035e-06
9.91175e-06
9.83545e-06
9.76132e-06
9.68968e-06
9.62097e-06
9.55235e-06
9.4841e-06
9.41723e-06
9.35399e-06
9.28658e-06
2.02155e-05
1.93959e-05
1.87113e-05
1.81234e-05
1.76094e-05
1.71549e-05
1.67396e-05
1.63631e-05
1.60165e-05
1.56968e-05
1.5401e-05
1.51261e-05
1.48702e-05
1.46359e-05
1.44177e-05
1.42141e-05
1.40213e-05
1.38523e-05
1.36663e-05
1.34913e-05
1.33357e-05
1.31847e-05
1.30406e-05
1.29014e-05
1.27712e-05
1.26469e-05
1.25299e-05
1.24159e-05
1.23067e-05
1.22007e-05
1.20937e-05
1.19892e-05
1.18903e-05
1.17946e-05
1.17033e-05
1.16125e-05
1.15249e-05
1.14388e-05
1.13562e-05
1.12741e-05
2.32118e-05
2.22988e-05
2.15071e-05
2.08078e-05
2.0182e-05
1.9618e-05
1.91079e-05
1.86436e-05
1.82154e-05
1.78195e-05
1.74523e-05
1.71115e-05
1.67916e-05
1.6499e-05
1.62277e-05
1.59756e-05
1.57389e-05
1.55156e-05
1.53061e-05
1.51073e-05
1.4931e-05
1.47419e-05
1.45613e-05
1.43953e-05
1.42391e-05
1.40918e-05
1.3952e-05
1.38184e-05
1.36908e-05
1.35691e-05
1.34481e-05
1.33241e-05
1.3212e-05
1.30987e-05
1.29905e-05
1.28844e-05
1.27848e-05
1.26863e-05
1.25911e-05
1.24999e-05
2.41661e-05
2.32559e-05
2.24456e-05
2.17149e-05
2.10476e-05
2.04395e-05
1.98866e-05
1.93819e-05
1.89169e-05
1.84858e-05
1.80861e-05
1.77142e-05
1.73674e-05
1.70469e-05
1.67489e-05
1.64715e-05
1.6215e-05
1.5977e-05
1.57551e-05
1.55474e-05
1.53537e-05
1.51713e-05
1.50049e-05
1.48383e-05
1.46662e-05
1.45033e-05
1.43525e-05
1.42124e-05
1.40824e-05
1.39565e-05
1.38363e-05
1.37143e-05
1.3588e-05
1.34626e-05
1.33485e-05
1.32404e-05
1.31366e-05
1.30342e-05
1.29333e-05
1.2837e-05
2.29419e-05
2.21027e-05
2.13456e-05
2.06557e-05
2.00278e-05
1.94547e-05
1.89305e-05
1.84494e-05
1.80044e-05
1.75934e-05
1.72133e-05
1.68623e-05
1.65357e-05
1.62356e-05
1.59575e-05
1.56994e-05
1.54599e-05
1.52378e-05
1.50332e-05
1.48424e-05
1.46653e-05
1.44974e-05
1.43364e-05
1.4184e-05
1.40227e-05
1.38747e-05
1.3736e-05
1.36067e-05
1.34833e-05
1.336e-05
1.32426e-05
1.31145e-05
1.30056e-05
1.28809e-05
1.27803e-05
1.26776e-05
1.25723e-05
1.24682e-05
1.23643e-05
1.22635e-05
1.9832e-05
1.91356e-05
1.85094e-05
1.79333e-05
1.74021e-05
1.69194e-05
1.64754e-05
1.60674e-05
1.5694e-05
1.5355e-05
1.50398e-05
1.47486e-05
1.44791e-05
1.42342e-05
1.4008e-05
1.37978e-05
1.36046e-05
1.34243e-05
1.32566e-05
1.30992e-05
1.29559e-05
1.28109e-05
1.26686e-05
1.25392e-05
1.24145e-05
1.22965e-05
1.21812e-05
1.20717e-05
1.19583e-05
1.18445e-05
1.17359e-05
1.16352e-05
1.1538e-05
1.14413e-05
1.13442e-05
1.12478e-05
1.11468e-05
1.10488e-05
1.09508e-05
1.08552e-05
1.53776e-05
1.48227e-05
1.43962e-05
1.39641e-05
1.35664e-05
1.3206e-05
1.28883e-05
1.25983e-05
1.23339e-05
1.20939e-05
1.18767e-05
1.16733e-05
1.1494e-05
1.13255e-05
1.11768e-05
1.10205e-05
1.0875e-05
1.07404e-05
1.06199e-05
1.05017e-05
1.03931e-05
1.02865e-05
1.01852e-05
1.00884e-05
9.99389e-06
9.90387e-06
9.81687e-06
9.7339e-06
9.65329e-06
9.57264e-06
9.49291e-06
9.41582e-06
9.33964e-06
9.26463e-06
9.18769e-06
9.11035e-06
9.03226e-06
8.95242e-06
8.87719e-06
8.80395e-06
1.00653e-05
9.81118e-06
9.54236e-06
9.26669e-06
9.03852e-06
8.84019e-06
8.66352e-06
8.50875e-06
8.36225e-06
8.22314e-06
8.09976e-06
7.99416e-06
7.89815e-06
7.7931e-06
7.69742e-06
7.60692e-06
7.52087e-06
7.43951e-06
7.36255e-06
7.2895e-06
7.22018e-06
7.15478e-06
7.09466e-06
7.03696e-06
6.98146e-06
6.92822e-06
6.87611e-06
6.82494e-06
6.77349e-06
6.72098e-06
6.67012e-06
6.62133e-06
6.5729e-06
6.52472e-06
6.47565e-06
6.42375e-06
6.37242e-06
6.32219e-06
6.27723e-06
6.22519e-06
4.63403e-06
4.60708e-06
4.53708e-06
4.44439e-06
4.3665e-06
4.30316e-06
4.24344e-06
4.18885e-06
4.13699e-06
4.0886e-06
4.04635e-06
4.00737e-06
3.96966e-06
3.93296e-06
3.89706e-06
3.8631e-06
3.82985e-06
3.79836e-06
3.76757e-06
3.73846e-06
3.70947e-06
3.68156e-06
3.65502e-06
3.6295e-06
3.60478e-06
3.58071e-06
3.55648e-06
3.53223e-06
3.50811e-06
3.48375e-06
3.4605e-06
3.43722e-06
3.4137e-06
3.39033e-06
3.36728e-06
3.34449e-06
3.32191e-06
3.29933e-06
3.27979e-06
3.24861e-06
1.00634e-05
9.80785e-06
9.53739e-06
9.26346e-06
9.02302e-06
8.82586e-06
8.65094e-06
8.49923e-06