/*--------------------------------*- C++ -*----------------------------------*\
| =========                 |                                                 |
| \\      /  F ield         | OpenFOAM: The Open Source CFD Toolbox           |
|  \\    /   O peration     | Version:  2212                                  |
|   \\  /    A nd           | Website:  www.openfoam.com                      |
|    \\/     M anipulation  |                                                 |
\*---------------------------------------------------------------------------*/
FoamFile
{
    version     2.0;
    format      ascii;
    arch        "LSB;label=32;scalar=64";
    class       volScalarField;
    location    "1.55";
    object      p;
}
// * * * * * * * * * * * * * * * * * * * * * * * * * * * * * * * * * * * * * //

dimensions      [0 2 -2 0 0 0 0];

internalField   nonuniform List<scalar> 
6840
(
0.0178345
0.0107201
0.00842865
0.00789082
0.00761645
0.00739423
0.00720761
0.0070412
0.00688007
0.00672069
0.00656315
0.00640739
0.00625264
0.006098
0.00594349
0.00579013
0.00563817
0.00548591
0.00533268
0.00521001
0.0106557
0.00992187
0.00882897
0.008163
0.0077604
0.00748667
0.00727549
0.00708928
0.0069149
0.00674764
0.00658501
0.00642537
0.00626742
0.00611051
0.00595476
0.00580054
0.00564785
0.00549621
0.00534782
0.00519886
0.0103074
0.00945592
0.00869165
0.00813252
0.00775635
0.00748829
0.00727259
0.00707962
0.00690112
0.00673251
0.00656891
0.00640812
0.00624959
0.00609318
0.00593867
0.0057857
0.00563404
0.00548346
0.0053331
0.00518407
0.00989814
0.00913541
0.00851664
0.0080653
0.0077213
0.00745222
0.00723252
0.00704358
0.00687553
0.00671778
0.00656162
0.00640557
0.00625027
0.00609625
0.00594371
0.00579273
0.0056435
0.00549641
0.00535221
0.00521425
0.00976391
0.00902272
0.00843454
0.00802639
0.0077044
0.0074376
0.00721593
0.00702507
0.00685394
0.00669665
0.00654583
0.00639448
0.00624159
0.00608872
0.00593699
0.0057869
0.00563885
0.00549327
0.0053511
0.00521422
0.00976391
0.00902272
0.00843454
0.0080264
0.0077044
0.0074376
0.00721594
0.00702508
0.00685396
0.00669668
0.00654588
0.00639456
0.00624174
0.00608897
0.00593736
0.00578744
0.0056395
0.00549379
0.00535043
0.00520885
0.00989815
0.00913541
0.00851664
0.00806531
0.00772131
0.00745223
0.00723253
0.00704361
0.00687558
0.00671786
0.00656176
0.0064058
0.00625063
0.00609676
0.00594442
0.00579374
0.00564488
0.00549797
0.00535146
0.0052009
0.0103074
0.00945593
0.00869166
0.00813252
0.00775635
0.0074883
0.00727261
0.00707965
0.00690118
0.00673261
0.00656909
0.00640842
0.00625005
0.00609383
0.00593958
0.00578703
0.00563612
0.00548694
0.00533771
0.00517606
0.0106557
0.00992187
0.00882898
0.008163
0.0077604
0.00748667
0.0072755
0.00708928
0.00691489
0.00674763
0.00658499
0.00642534
0.00626738
0.00611057
0.00595499
0.00580103
0.0056485
0.00549692
0.00534814
0.00519407
0.0178345
0.0107201
0.00842866
0.00789083
0.00761646
0.00739425
0.00720762
0.00704121
0.00688009
0.00672071
0.00656319
0.00640743
0.0062527
0.00609806
0.00594356
0.00579023
0.00563831
0.00548611
0.00533301
0.00521061
0.0106557
0.00992186
0.00882897
0.00816299
0.00776039
0.00748666
0.00727548
0.00708926
0.00691487
0.0067476
0.00658496
0.00642529
0.00626732
0.00611051
0.00595493
0.00580093
0.00564836
0.00549672
0.00534783
0.00519353
0.00993913
0.00990743
0.00917922
0.00846872
0.00802237
0.00770643
0.00744757
0.00721996
0.00701548
0.00682727
0.00664983
0.00647958
0.00631385
0.00615103
0.00599074
0.00583317
0.00567782
0.00552402
0.005374
0.00522539
0.00901366
0.00913985
0.00883697
0.00842076
0.00805362
0.00773499
0.00745645
0.00721603
0.00700351
0.00680907
0.00662598
0.00645104
0.00628233
0.00611827
0.00595769
0.00579988
0.00564435
0.00549028
0.00533418
0.00518143
0.00859528
0.00863878
0.00847321
0.00821027
0.00792989
0.00765854
0.0074075
0.00718108
0.00697798
0.00679134
0.00661434
0.00644382
0.00627814
0.00611642
0.00595823
0.00580308
0.00565045
0.00550043
0.00535383
0.00521445
0.00837928
0.0084011
0.00827389
0.00805636
0.0078239
0.00759469
0.00737182
0.00715858
0.00695766
0.00677012
0.00659341
0.00642404
0.00626029
0.00610103
0.00594526
0.00579233
0.00564218
0.00549575
0.00535581
0.00522238
0.00837928
0.0084011
0.00827389
0.00805636
0.00782391
0.00759471
0.00737184
0.00715861
0.00695769
0.00677018
0.00659354
0.00642428
0.00626068
0.00610162
0.00594613
0.00579365
0.00564395
0.00549778
0.00535749
0.00521884
0.00859528
0.00863879
0.00847322
0.00821029
0.00792991
0.00765856
0.00740753
0.00718112
0.00697804
0.00679148
0.00661466
0.00644438
0.00627903
0.00611759
0.00595965
0.00580492
0.00565307
0.00550407
0.00535776
0.00520577
0.00901366
0.00913986
0.00883698
0.00842078
0.00805363
0.00773501
0.00745648
0.00721608
0.0070036
0.00680923
0.00662622
0.0064514
0.00628288
0.00611913
0.005959
0.00580187
0.0056474
0.0054953
0.0053413
0.00517832
0.00993914
0.00990744
0.00917923
0.00846873
0.00802238
0.00770645
0.00744758
0.00721998
0.0070155
0.0068273
0.00664986
0.00647963
0.0063139
0.00615109
0.00599081
0.00583328
0.00567797
0.00552424
0.0053743
0.00522583
0.0106557
0.00992188
0.00882898
0.00816301
0.00776041
0.00748668
0.00727551
0.0070893
0.00691492
0.00674766
0.00658504
0.00642541
0.00626747
0.00611057
0.00595483
0.00580063
0.00564799
0.00549641
0.00534814
0.0051994
0.0103074
0.00945592
0.00869165
0.00813251
0.00775634
0.00748829
0.0072726
0.00707963
0.00690116
0.00673258
0.00656906
0.00640838
0.00625001
0.0060938
0.00593953
0.00578695
0.005636
0.00548678
0.00533746
0.00517566
0.00901365
0.00913985
0.00883697
0.00842076
0.00805362
0.00773499
0.00745646
0.00721607
0.00700358
0.0068092
0.00662619
0.00645136
0.00628284
0.00611907
0.00595893
0.00580178
0.00564728
0.00549513
0.00534107
0.00517809
0.00844417
0.00854514
0.00843358
0.00820813
0.00795239
0.00769401
0.00743567
0.00719414
0.00697642
0.00677642
0.00658923
0.0064118
0.00624172
0.006077
0.00591629
0.00575862
0.00560297
0.0054481
0.00529094
0.00512856
0.00807617
0.00814423
0.00809185
0.00794488
0.00776003
0.00755493
0.00734429
0.00713745
0.00693646
0.00674425
0.00656202
0.00638796
0.0062201
0.00605712
0.00589815
0.00574245
0.00558928
0.00543841
0.00529056
0.00514327
0.00789309
0.00795752
0.00792804
0.00780319
0.00764416
0.00747045
0.00728413
0.00709609
0.00690994
0.00672653
0.00654747
0.00637376
0.00620582
0.00604303
0.00588479
0.00573079
0.0055802
0.00543286
0.00529131
0.00515116
0.00789309
0.00795752
0.00792804
0.0078032
0.00764418
0.00747048
0.00728416
0.00709613
0.00690999
0.00672661
0.00654758
0.00637393
0.00620602
0.00604323
0.00588505
0.00573126
0.00558083
0.00543347
0.00529126
0.00514845
0.00807618
0.00814424
0.00809186
0.0079449
0.00776006
0.00755496
0.00734433
0.00713749
0.00693652
0.00674434
0.00656217
0.00638818
0.00622042
0.00605752
0.00589863
0.00574301
0.00558989
0.00543877
0.00529006
0.00513776
0.00844418
0.00854515
0.00843359
0.00820814
0.0079524
0.00769403
0.00743568
0.00719416
0.00697644
0.00677645
0.00658926
0.00641183
0.00624176
0.00607706
0.00591637
0.0057587
0.00560306
0.00544819
0.00529101
0.00512853
0.00901367
0.00913986
0.00883698
0.00842077
0.00805363
0.007735
0.00745647
0.00721605
0.00700353
0.0068091
0.00662602
0.00645108
0.00628239
0.00611834
0.00595778
0.00579998
0.00564449
0.00549046
0.0053344
0.00518168
0.0103074
0.00945593
0.00869167
0.00813253
0.00775636
0.00748831
0.00727261
0.00707964
0.00690114
0.00673254
0.00656895
0.00640816
0.00624964
0.00609324
0.00593874
0.00578579
0.00563416
0.00548364
0.00533335
0.00518443
0.00989813
0.0091354
0.00851663
0.0080653
0.0077213
0.00745222
0.00723252
0.00704359
0.00687557
0.00671784
0.00656174
0.00640578
0.0062506
0.00609673
0.00594438
0.00579368
0.0056448
0.00549784
0.00535127
0.00520065
0.00859527
0.00863878
0.00847321
0.00821028
0.0079299
0.00765855
0.00740752
0.00718111
0.00697802
0.00679147
0.00661464
0.00644436
0.006279
0.00611754
0.0059596
0.00580486
0.005653
0.00550397
0.00535764
0.00520566
0.00807617
0.00814423
0.00809185
0.00794489
0.00776005
0.00755495
0.00734431
0.00713748
0.0069365
0.00674432
0.00656215
0.00638816
0.00622039
0.00605749
0.00589859
0.00574298
0.00558987
0.00543877
0.00529009
0.00513788
0.0077783
0.00783744
0.0078255
0.00773012
0.0075905
0.00742504
0.00724489
0.00706049
0.00687662
0.00669644
0.00652157
0.0063519
0.00618689
0.00602596
0.00586861
0.00571431
0.00556249
0.0054133
0.0052684
0.00512159
0.00762719
0.00769008
0.00769384
0.00762018
0.00750006
0.00735367
0.00719077
0.00701936
0.00684526
0.00667179
0.00650083
0.0063333
0.00616952
0.00600945
0.00585286
0.00569947
0.00554883
0.00540139
0.00525946
0.00511509
0.00762719
0.00769008
0.00769384
0.00762019
0.00750007
0.00735368
0.00719079
0.00701938
0.00684528
0.00667183
0.00650088
0.00633335
0.00616958
0.00600953
0.00585299
0.00569969
0.00554909
0.00540161
0.00525951
0.00511457
0.00777831
0.00783745
0.00782551
0.00773013
0.00759051
0.00742505
0.00724491
0.0070605
0.00687664
0.00669645
0.00652159
0.00635192
0.00618691
0.00602598
0.00586863
0.00571433
0.0055625
0.00541328
0.00526834
0.00512146
0.00807618
0.00814424
0.00809186
0.00794489
0.00776005
0.00755495
0.00734431
0.00713747
0.00693648
0.00674428
0.00656205
0.00638799
0.00622014
0.00605717
0.0058982
0.0057425
0.00558933
0.00543845
0.00529055
0.00514316
0.00859529
0.0086388
0.00847322
0.00821029
0.0079299
0.00765855
0.00740752
0.00718111
0.00697801
0.00679137
0.00661438
0.00644386
0.0062782
0.00611648
0.00595831
0.00580316
0.00565055
0.00550055
0.00535394
0.0052145
0.00989815
0.00913542
0.00851665
0.00806531
0.00772131
0.00745224
0.00723254
0.0070436
0.00687556
0.0067178
0.00656165
0.00640561
0.00625032
0.00609631
0.00594378
0.00579281
0.0056436
0.00549654
0.00535237
0.00521447
0.0097639
0.00902271
0.00843453
0.00802639
0.00770439
0.00743759
0.00721593
0.00702506
0.00685395
0.00669667
0.00654587
0.00639455
0.00624172
0.00608895
0.00593733
0.0057874
0.00563944
0.0054937
0.00535031
0.00520868
0.00837927
0.00840109
0.00827388
0.00805635
0.0078239
0.0075947
0.00737183
0.00715859
0.00695768
0.00677017
0.00659352
0.00642427
0.00626067
0.0061016
0.0059461
0.00579362
0.00564392
0.00549774
0.00535746
0.00521883
0.00789308
0.00795751
0.00792804
0.00780319
0.00764417
0.00747047
0.00728415
0.00709612
0.00690998
0.0067266
0.00654757
0.00637392
0.00620601
0.00604322
0.00588505
0.00573126
0.00558085
0.00543351
0.00529134
0.0051486
0.00762719
0.00769008
0.00769383
0.00762018
0.00750006
0.00735367
0.00719078
0.00701937
0.00684527
0.00667182
0.00650087
0.00633334
0.00616958
0.00600952
0.00585299
0.0056997
0.00554912
0.00540165
0.00525958
0.00511466
0.0074844
0.00755391
0.00757602
0.00752348
0.00742223
0.00729131
0.00714141
0.00698047
0.00681406
0.00664587
0.00647831
0.00631282
0.0061502
0.00599078
0.00583461
0.00568151
0.00553105
0.00538335
0.00523977
0.00509847
0.0074844
0.00755391
0.00757603
0.00752348
0.00742224
0.00729132
0.00714142
0.00698048
0.00681406
0.00664588
0.00647831
0.00631283
0.00615021
0.00599078
0.00583461
0.00568151
0.00553105
0.00538335
0.00523976
0.00509844
0.0076272
0.00769009
0.00769384
0.00762019
0.00750007
0.00735368
0.00719078
0.00701937
0.00684527
0.0066718
0.00650085
0.00633331
0.00616954
0.00600947
0.00585288
0.00569949
0.00554885
0.0054014
0.00525947
0.00511508
0.0078931
0.00795753
0.00792805
0.0078032
0.00764417
0.00747046
0.00728415
0.00709611
0.00690996
0.00672655
0.00654749
0.00637379
0.00620585
0.00604307
0.00588482
0.00573084
0.00558025
0.00543291
0.00529136
0.00515121
0.00837929
0.00840111
0.0082739
0.00805637
0.00782392
0.00759471
0.00737184
0.00715859
0.00695768
0.00677014
0.00659344
0.00642408
0.00626033
0.00610108
0.00594531
0.00579239
0.00564225
0.00549583
0.00535588
0.00522244
0.00976392
0.00902273
0.00843455
0.00802641
0.00770441
0.00743761
0.00721595
0.00702509
0.00685396
0.00669667
0.00654586
0.00639451
0.00624163
0.00608877
0.00593705
0.00578697
0.00563892
0.00549336
0.00535119
0.00521431
0.0097639
0.00902271
0.00843453
0.00802638
0.00770439
0.00743759
0.00721592
0.00702506
0.00685393
0.00669664
0.00654582
0.00639447
0.00624158
0.00608872
0.00593699
0.00578689
0.00563883
0.00549325
0.00535107
0.00521419
0.00837927
0.00840109
0.00827388
0.00805635
0.00782389
0.00759468
0.00737181
0.00715857
0.00695765
0.00677011
0.0065934
0.00642404
0.00626029
0.00610103
0.00594527
0.00579233
0.00564219
0.00549577
0.00535584
0.00522243
0.00789308
0.00795751
0.00792803
0.00780318
0.00764415
0.00747044
0.00728412
0.00709608
0.00690994
0.00672653
0.00654746
0.00637376
0.00620583
0.00604304
0.0058848
0.00573082
0.00558023
0.00543291
0.00529137
0.00515124
0.00762718
0.00769007
0.00769383
0.00762018
0.00750005
0.00735366
0.00719076
0.00701935
0.00684525
0.00667179
0.00650083
0.0063333
0.00616953
0.00600946
0.00585287
0.00569949
0.00554886
0.00540142
0.0052595
0.00511513
0.0074844
0.00755391
0.00757602
0.00752348
0.00742223
0.00729131
0.00714141
0.00698047
0.00681406
0.00664587
0.00647831
0.00631283
0.00615021
0.00599079
0.00583462
0.00568152
0.00553106
0.00538337
0.00523979
0.00509848
0.0074844
0.00755391
0.00757603
0.00752348
0.00742224
0.00729132
0.00714142
0.00698048
0.00681406
0.00664588
0.00647832
0.00631283
0.00615021
0.00599079
0.00583462
0.00568152
0.00553106
0.00538337
0.00523978
0.00509848
0.0076272
0.00769009
0.00769385
0.0076202
0.00750007
0.00735368
0.00719079
0.00701939
0.00684529
0.00667183
0.00650088
0.00633336
0.00616959
0.00600954
0.00585301
0.00569971
0.00554913
0.00540166
0.00525958
0.00511465
0.0078931
0.00795753
0.00792805
0.00780321
0.00764419
0.00747049
0.00728417
0.00709614
0.00691001
0.00672662
0.0065476
0.00637394
0.00620604
0.00604326
0.00588508
0.00573129
0.00558087
0.00543353
0.00529136
0.0051486
0.00837929
0.00840111
0.0082739
0.00805638
0.00782393
0.00759472
0.00737186
0.00715862
0.00695771
0.0067702
0.00659356
0.0064243
0.00626071
0.00610165
0.00594616
0.00579368
0.00564399
0.00549783
0.00535755
0.00521891
0.00976392
0.00902273
0.00843455
0.00802641
0.00770442
0.00743762
0.00721595
0.00702509
0.00685398
0.0066967
0.0065459
0.00639459
0.00624177
0.006089
0.0059374
0.00578748
0.00563955
0.00549384
0.00535048
0.00520888
0.00989813
0.0091354
0.00851663
0.00806529
0.00772129
0.00745221
0.00723251
0.00704357
0.00687553
0.00671777
0.00656162
0.00640557
0.00625028
0.00609626
0.00594372
0.00579274
0.00564351
0.00549643
0.00535223
0.00521429
0.00859527
0.00863877
0.0084732
0.00821026
0.00792988
0.00765853
0.00740749
0.00718108
0.00697798
0.00679134
0.00661435
0.00644383
0.00627816
0.00611643
0.00595826
0.00580311
0.00565049
0.00550049
0.0053539
0.00521453
0.00807617
0.00814422
0.00809184
0.00794487
0.00776003
0.00755493
0.00734429
0.00713745
0.00693646
0.00674426
0.00656202
0.00638797
0.00622012
0.00605715
0.00589818
0.00574248
0.00558933
0.00543846
0.00529062
0.00514333
0.0077783
0.00783744
0.0078255
0.00773012
0.0075905
0.00742504
0.00724489
0.00706049
0.00687663
0.00669644
0.00652158
0.00635192
0.00618691
0.00602598
0.00586863
0.00571434
0.00556253
0.00541334
0.00526844
0.00512163
0.00762719
0.00769008
0.00769384
0.00762019
0.00750006
0.00735367
0.00719078
0.00701938
0.00684528
0.00667183
0.00650088
0.00633335
0.00616959
0.00600954
0.00585301
0.00569972
0.00554914
0.00540168
0.00525961
0.00511471
0.00762719
0.00769008
0.00769384
0.00762019
0.00750006
0.00735367
0.00719078
0.00701936
0.00684526
0.0066718
0.00650084
0.00633331
0.00616954
0.00600947
0.00585288
0.0056995
0.00554887
0.00540144
0.00525953
0.00511517
0.00777831
0.00783745
0.00782552
0.00773013
0.00759052
0.00742505
0.00724491
0.0070605
0.00687664
0.00669645
0.00652159
0.00635192
0.00618691
0.00602599
0.00586864
0.00571434
0.00556253
0.00541334
0.00526844
0.00512163
0.00807619
0.00814425
0.00809187
0.00794491
0.00776007
0.00755497
0.00734433
0.0071375
0.00693652
0.00674435
0.00656218
0.00638819
0.00622043
0.00605753
0.00589863
0.00574302
0.00558991
0.00543881
0.00529014
0.0051379
0.0085953
0.0086388
0.00847323
0.0082103
0.00792992
0.00765857
0.00740754
0.00718113
0.00697805
0.0067915
0.00661468
0.0064444
0.00627904
0.0061176
0.00595966
0.00580493
0.00565308
0.00550408
0.00535777
0.00520577
0.00989816
0.00913542
0.00851665
0.00806532
0.00772132
0.00745224
0.00723255
0.00704362
0.0068756
0.00671788
0.00656178
0.00640582
0.00625065
0.00609678
0.00594444
0.00579376
0.00564491
0.005498
0.0053515
0.00520096
0.0103074
0.00945591
0.00869164
0.00813251
0.00775634
0.00748828
0.00727258
0.00707961
0.00690112
0.00673251
0.00656892
0.00640812
0.0062496
0.0060932
0.00593869
0.00578574
0.00563409
0.00548352
0.00533317
0.00518416
0.00901365
0.00913984
0.00883696
0.00842075
0.00805361
0.00773498
0.00745644
0.00721603
0.0070035
0.00680907
0.00662599
0.00645105
0.00628236
0.0061183
0.00595773
0.00579993
0.00564442
0.00549035
0.00533428
0.00518156
0.00844416
0.00854513
0.00843358
0.00820812
0.00795239
0.00769401
0.00743566
0.00719414
0.00697642
0.00677643
0.00658924
0.00641182
0.00624174
0.00607703
0.00591634
0.00575867
0.00560303
0.00544817
0.00529102
0.00512862
0.00807617
0.00814423
0.00809185
0.00794489
0.00776005
0.00755495
0.00734431
0.00713748
0.00693651
0.00674433
0.00656216
0.00638818
0.00622042
0.00605752
0.00589863
0.00574302
0.00558992
0.00543882
0.00529015
0.00513791
0.00789309
0.00795752
0.00792804
0.0078032
0.00764418
0.00747047
0.00728416
0.00709612
0.00690999
0.00672661
0.00654759
0.00637393
0.00620603
0.00604325
0.00588508
0.0057313
0.00558089
0.00543356
0.00529142
0.0051487
0.00789309
0.00795752
0.00792805
0.00780319
0.00764416
0.00747045
0.00728414
0.0070961
0.00690995
0.00672654
0.00654748
0.00637378
0.00620584
0.00604306
0.00588482
0.00573084
0.00558026
0.00543295
0.00529144
0.00515137
0.00807618
0.00814424
0.00809186
0.00794489
0.00776004
0.00755495
0.00734431
0.00713747
0.00693647
0.00674427
0.00656204
0.00638798
0.00622013
0.00605716
0.00589819
0.00574249
0.00558933
0.00543848
0.00529066
0.00514341
0.00844418
0.00854516
0.0084336
0.00820814
0.00795241
0.00769403
0.00743569
0.00719416
0.00697644
0.00677645
0.00658926
0.00641183
0.00624175
0.00607705
0.00591635
0.00575867
0.00560302
0.00544816
0.00529102
0.00512865
0.00901368
0.00913987
0.00883699
0.00842079
0.00805364
0.00773502
0.00745649
0.00721609
0.0070036
0.00680923
0.00662623
0.0064514
0.00628288
0.00611913
0.005959
0.00580185
0.00564737
0.00549524
0.00534122
0.00517826
0.0103075
0.00945594
0.00869167
0.00813253
0.00775636
0.00748832
0.00727262
0.00707966
0.00690118
0.00673262
0.0065691
0.00640843
0.00625006
0.00609384
0.00593959
0.00578704
0.00563612
0.00548693
0.00533769
0.00517602
0.0106557
0.00992186
0.00882896
0.00816299
0.00776039
0.00748666
0.00727549
0.00708928
0.0069149
0.00674764
0.00658501
0.00642538
0.00626744
0.00611054
0.00595481
0.0058006
0.00564793
0.00549631
0.00534794
0.00519899
0.00993912
0.00990742
0.00917921
0.00846871
0.00802236
0.00770643
0.00744756
0.00721996
0.00701548
0.00682728
0.00664984
0.0064796
0.00631388
0.00615107
0.0059908
0.00583325
0.00567792
0.00552415
0.00537416
0.00522565
0.00901365
0.00913984
0.00883697
0.00842076
0.00805362
0.00773499
0.00745646
0.00721607
0.00700358
0.00680921
0.00662621
0.00645138
0.00628287
0.00611911
0.00595898
0.00580185
0.00564738
0.00549526
0.00534125
0.00517832
0.00859527
0.00863878
0.00847321
0.00821028
0.0079299
0.00765855
0.00740752
0.00718111
0.00697803
0.00679148
0.00661466
0.00644438
0.00627903
0.00611759
0.00595965
0.00580493
0.00565308
0.00550408
0.00535776
0.00520577
0.00837928
0.0084011
0.00827389
0.00805636
0.00782391
0.0075947
0.00737184
0.0071586
0.00695769
0.00677018
0.00659354
0.00642429
0.0062607
0.00610163
0.00594615
0.00579367
0.00564398
0.00549781
0.00535754
0.00521892
0.00837928
0.0084011
0.00827389
0.00805636
0.0078239
0.0075947
0.00737182
0.00715858
0.00695766
0.00677013
0.00659342
0.00642406
0.00626031
0.00610105
0.00594529
0.00579236
0.00564221
0.00549579
0.00535588
0.00522251
0.00859529
0.00863879
0.00847322
0.00821028
0.0079299
0.00765855
0.00740751
0.00718109
0.006978
0.00679136
0.00661436
0.00644384
0.00627817
0.00611645
0.00595827
0.00580311
0.00565048
0.00550047
0.00535387
0.00521452
0.00901367
0.00913986
0.00883699
0.00842078
0.00805364
0.007735
0.00745647
0.00721605
0.00700353
0.00680909
0.00662601
0.00645107
0.00628237
0.00611831
0.00595774
0.00579992
0.00564439
0.00549031
0.0053342
0.00518145
0.00993915
0.00990745
0.00917923
0.00846874
0.00802239
0.00770645
0.00744759
0.00721998
0.0070155
0.0068273
0.00664986
0.00647962
0.0063139
0.00615108
0.00599079
0.00583323
0.00567789
0.00552409
0.00537407
0.00522547
0.0106557
0.00992188
0.00882899
0.00816301
0.00776042
0.00748668
0.0072755
0.00708929
0.0069149
0.00674763
0.006585
0.00642534
0.00626738
0.00611057
0.00595498
0.00580101
0.00564846
0.00549685
0.005348
0.00519379
0.0178345
0.0107201
0.00842864
0.00789081
0.00761644
0.00739422
0.0072076
0.00704119
0.00688006
0.00672069
0.00656316
0.0064074
0.00625267
0.00609804
0.00594355
0.0057902
0.00563826
0.00548603
0.00533285
0.00521017
0.0106557
0.00992185
0.00882896
0.00816298
0.00776038
0.00748665
0.00727547
0.00708926
0.00691487
0.0067476
0.00658497
0.00642531
0.00626735
0.00611055
0.00595499
0.00580102
0.00564847
0.00549687
0.00534804
0.00519382
0.0103074
0.00945591
0.00869165
0.00813251
0.00775633
0.00748829
0.0072726
0.00707964
0.00690116
0.00673259
0.00656908
0.0064084
0.00625004
0.00609384
0.00593959
0.00578703
0.00563611
0.00548693
0.00533768
0.00517602
0.00989814
0.0091354
0.00851663
0.0080653
0.0077213
0.00745222
0.00723252
0.0070436
0.00687557
0.00671785
0.00656175
0.0064058
0.00625063
0.00609676
0.00594443
0.00579374
0.00564488
0.00549796
0.00535145
0.0052009
0.0097639
0.00902271
0.00843453
0.00802639
0.0077044
0.0074376
0.00721593
0.00702507
0.00685396
0.00669668
0.00654588
0.00639457
0.00624175
0.00608898
0.00593737
0.00578744
0.0056395
0.00549377
0.00535038
0.00520874
0.00976391
0.00902272
0.00843454
0.0080264
0.0077044
0.0074376
0.00721594
0.00702507
0.00685394
0.00669665
0.00654584
0.00639449
0.0062416
0.00608874
0.00593701
0.00578691
0.00563885
0.00549325
0.00535104
0.00521411
0.00989815
0.00913542
0.00851665
0.00806531
0.00772131
0.00745223
0.00723253
0.00704359
0.00687555
0.00671779
0.00656164
0.00640559
0.0062503
0.00609628
0.00594374
0.00579275
0.0056435
0.00549639
0.00535214
0.00521413
0.0103074
0.00945594
0.00869167
0.00813253
0.00775636
0.00748831
0.00727261
0.00707963
0.00690114
0.00673253
0.00656894
0.00640815
0.00624963
0.00609322
0.0059387
0.00578574
0.00563406
0.00548346
0.00533304
0.00518393
0.0106557
0.00992188
0.00882899
0.00816302
0.00776042
0.00748669
0.00727551
0.0070893
0.00691492
0.00674766
0.00658504
0.00642541
0.00626747
0.00611056
0.0059548
0.00580058
0.0056479
0.00549624
0.00534782
0.0051988
0.0178345
0.0107201
0.00842867
0.00789084
0.00761647
0.00739425
0.00720763
0.00704122
0.00688009
0.00672072
0.00656319
0.00640743
0.0062527
0.00609806
0.00594354
0.00579019
0.00563824
0.00548598
0.00533278
0.00521012
0.00517502
0.00489155
0.00466359
0.00452147
0.00438678
0.00424219
0.00410002
0.00396184
0.0038246
0.00368681
0.00354959
0.0034149
0.00328142
0.00314878
0.00301751
0.00288711
0.00275788
0.00262985
0.00250395
0.00237909
0.00225586
0.00213355
0.00201263
0.00189341
0.00177432
0.00165624
0.00153926
0.00142318
0.0013091
0.00119538
0.00107954
0.000964182
0.000850794
0.000738989
0.000628122
0.000515698
0.000401088
0.000285721
0.000173261
5.34498e-05
0.00516673
0.00491534
0.00468779
0.00453716
0.00439743
0.00425117
0.00410671
0.0039658
0.00382589
0.00368586
0.00354683
0.00341055
0.00327548
0.00314118
0.00300825
0.00287657
0.00274667
0.00261839
0.00249233
0.00236756
0.00224452
0.00212284
0.00200323
0.00188513
0.00176661
0.00164861
0.00153163
0.00141568
0.0013017
0.00118813
0.00107276
0.000957873
0.0008449
0.000733549
0.000622785
0.000510271
0.000395968
0.000281658
0.00016967
5.2255e-05
0.00510833
0.00489944
0.00469176
0.00452951
0.00438256
0.00423714
0.00409277
0.0039504
0.00380958
0.00367015
0.00353209
0.00339622
0.00326107
0.00312715
0.00299525
0.00286486
0.00273606
0.00260868
0.00248318
0.00235857
0.00223557
0.00211392
0.00199421
0.00187581
0.00175745
0.00163993
0.00152327
0.00140762
0.00129375
0.00118075
0.00106646
0.000952467
0.000839844
0.000728232
0.000618025
0.000506577
0.000392435
0.00027854
0.000167691
5.12978e-05
0.00508628
0.00489623
0.00470525
0.00454065
0.00438931
0.0042432
0.00410004
0.00395878
0.00381923
0.00368085
0.00354364
0.00340791
0.00327344
0.00314019
0.00300838
0.00287804
0.00274908
0.00262131
0.00249513
0.00236985
0.00224586
0.00212268
0.00200002
0.00187854
0.0017586
0.00164027
0.00152337
0.0014076
0.0012933
0.00118024
0.0010659
0.000951594
0.0008385
0.00072701
0.000617476
0.00050664
0.000392918
0.000279373
0.000168519
5.11882e-05
0.00507151
0.0048919
0.00471208
0.00454673
0.00439142
0.00424191
0.0040968
0.00395581
0.0038174
0.00368012
0.00354382
0.00340877
0.00327504
0.00314262
0.00301145
0.00288153
0.0027529
0.00262549
0.00249939
0.00237456
0.00225121
0.002129
0.0020073
0.00188625
0.00176616
0.00164752
0.00153052
0.00141477
0.00130021
0.00118585
0.00107059
0.000955736
0.000842079
0.00073014
0.000620042
0.000508643
0.000394589
0.000280614
0.00016922
5.11947e-05
0.00506692
0.0048925
0.00471594
0.00455027
0.00439462
0.00424468
0.00409896
0.00395742
0.003819
0.00368205
0.00354593
0.00341087
0.00327707
0.00314457
0.00301348
0.00288376
0.00275539
0.00262831
0.00250248
0.00237789
0.00225462
0.00213262
0.00201186
0.00189174
0.00177166
0.00165234
0.00153456
0.00141846
0.00130405
0.00119019
0.00107595
0.00096202
0.000848667
0.000736336
0.000625446
0.000513352
0.000399056
0.000284175
0.000171441
5.24014e-05
0.00508031
0.00490263
0.00471839
0.00454991
0.00439428
0.00424474
0.00409931
0.00395768
0.00381884
0.00368135
0.00354498
0.00340997
0.00327626
0.00314364
0.00301241
0.00288287
0.00275486
0.00262817
0.00250271
0.0023785
0.00225553
0.00213383
0.00201332
0.00189345
0.00177343
0.00165452
0.00153728
0.00142161
0.00130798
0.00119445
0.00107982
0.000965792
0.000852626
0.000740698
0.000630808
0.000519521
0.000405332
0.000289559
0.000175152
5.44583e-05
0.00510807
0.00491977
0.00471903
0.00454447
0.00438796
0.00423857
0.00409369
0.00395232
0.00381346
0.00367636
0.00354079
0.0034067
0.00327363
0.00314101
0.0030094
0.00287951
0.00275158
0.0026252
0.00250014
0.00237628
0.00225345
0.00213191
0.00201146
0.00189241
0.00177418
0.00165726
0.00154138
0.0014263
0.0013132
0.00119964
0.00108419
0.0009697
0.000856783
0.000744812
0.000634293
0.00052333
0.000409503
0.000292411
0.000176327
5.52167e-05
0.00514711
0.0049241
0.00469269
0.00451626
0.00436402
0.00421777
0.00407507
0.00393669
0.00380105
0.00366652
0.00353303
0.00340056
0.00326868
0.00313824
0.00300991
0.00288181
0.00275431
0.0026278
0.00250256
0.00237856
0.00225542
0.00213354
0.00201287
0.00189421
0.00177628
0.00165968
0.00154385
0.0014284
0.00131485
0.0012009
0.00108473
0.000969387
0.00085593
0.000743768
0.000633081
0.000522105
0.000408253
0.000290761
0.000174325
5.43869e-05
0.00518601
0.00491673
0.00466787
0.00450849
0.00437086
0.00423034
0.00409077
0.00395462
0.00382003
0.00368476
0.00354982
0.00341667
0.00328471
0.00315445
0.00302597
0.00289739
0.00276886
0.00264133
0.00251522
0.00239055
0.0022669
0.00214391
0.00202229
0.00190273
0.00178367
0.00166542
0.00154857
0.0014326
0.00131873
0.00120477
0.00108824
0.000972132
0.000858076
0.000745395
0.000634463
0.000524033
0.000410459
0.000292819
0.000176115
5.52387e-05
0.00517429
0.00489088
0.00466229
0.00451914
0.00438593
0.00424358
0.00410172
0.00396303
0.00382547
0.00368741
0.00355012
0.00341505
0.00328126
0.00314864
0.00301769
0.00288743
0.0027581
0.0026302
0.00250393
0.0023792
0.00225569
0.0021332
0.00201246
0.00189372
0.00177498
0.00165664
0.00153972
0.00142358
0.00130947
0.00119569
0.00107976
0.000964276
0.00085072
0.000738392
0.00062769
0.000517355
0.000404145
0.000287389
0.000173444
5.33072e-05
0.00518644
0.0049172
0.00466922
0.0045111
0.00437202
0.00422917
0.00408913
0.00395341
0.00381912
0.00368407
0.00354916
0.00341632
0.00328469
0.00315459
0.00302573
0.00289695
0.00276846
0.00264079
0.00251504
0.00239021
0.00226689
0.00214403
0.00202224
0.00190223
0.00178287
0.00166485
0.00154797
0.00143206
0.00131823
0.00120434
0.00108792
0.000971983
0.00085822
0.000746357
0.000635378
0.000522346
0.000406849
0.00029054
0.000175479
5.51412e-05
0.00514199
0.00492781
0.00471243
0.00454747
0.00439898
0.00425372
0.00411145
0.0039722
0.00383435
0.00369743
0.00356133
0.00342708
0.00329305
0.00316001
0.00302833
0.00289789
0.00276879
0.00264107
0.00251548
0.00239041
0.00226723
0.00214476
0.00202344
0.00190357
0.0017839
0.00166551
0.00154792
0.00143136
0.00131721
0.0012033
0.00108676
0.000970517
0.000856216
0.000743542
0.000633453
0.000521748
0.000405845
0.000289305
0.000175613
5.54755e-05
0.00504889
0.00487905
0.00469916
0.00453506
0.00438372
0.00423771
0.00409432
0.00395309
0.00381404
0.00367719
0.00354189
0.00340726
0.00327387
0.00314192
0.00301125
0.00288189
0.00275356
0.00262685
0.00250157
0.00237691
0.00225306
0.00213046
0.00200895
0.00188864
0.00176958
0.00165171
0.00153486
0.00141867
0.00130359
0.00118937
0.00107439
0.000959517
0.000845177
0.000731594
0.000620379
0.000509087
0.000395286
0.00028141
0.000170288
5.34291e-05
0.00502149
0.00486023
0.00470111
0.00454478
0.00439356
0.00424644
0.00410243
0.00396133
0.00382254
0.00368533
0.00354953
0.00341451
0.00328124
0.00314936
0.00301826
0.00288827
0.00275944
0.00263201
0.00250567
0.00238083
0.00225677
0.00213363
0.00201185
0.0018913
0.00177178
0.0016531
0.00153566
0.00141891
0.00130274
0.00118703
0.00107168
0.000956828
0.000842352
0.000728712
0.000616027
0.000503568
0.000391246
0.000279176
0.000168139
5.32066e-05
0.00500922
0.00485029
0.00470391
0.00455394
0.00440401
0.00425665
0.00411171
0.00396911
0.00382884
0.00369066
0.0035541
0.00341905
0.00328543
0.00315316
0.00302207
0.00289213
0.00276339
0.00263593
0.00250957
0.00238449
0.0022603
0.0021369
0.00201484
0.00189408
0.00177452
0.00165621
0.00153885
0.00142205
0.00130564
0.00118931
0.00107367
0.000958615
0.000844177
0.000729792
0.000614928
0.000500601
0.000387825
0.000276077
0.000165621
5.30259e-05
0.0050044
0.00485068
0.00471203
0.00456557
0.00441686
0.00426995
0.00412487
0.00398134
0.0038396
0.00369993
0.00356224
0.00342626
0.00329177
0.00315859
0.0030267
0.00289608
0.00276673
0.00263871
0.00251195
0.00238645
0.00226212