/*--------------------------------*- C++ -*----------------------------------*\
| =========                 |                                                 |
| \\      /  F ield         | OpenFOAM: The Open Source CFD Toolbox           |
|  \\    /   O peration     | Version:  2212                                  |
|   \\  /    A nd           | Website:  www.openfoam.com                      |
|    \\/     M anipulation  |                                                 |
\*---------------------------------------------------------------------------*/
FoamFile
{
    version     2.0;
    format      ascii;
    arch        "LSB;label=32;scalar=64";
    class       surfaceScalarField;
    location    "1.55";
    object      phi;
}
// * * * * * * * * * * * * * * * * * * * * * * * * * * * * * * * * * * * * * //

dimensions      [0 3 -1 0 0 0 0];

oriented        oriented;

internalField   nonuniform List<scalar> 
19019
(
3.32249e-07
1.09682e-09
1.09686e-09
2.7919e-07
2.65296e-08
2.65296e-08
2.49217e-07
1.49865e-08
1.49866e-08
2.29253e-07
9.98221e-09
9.98236e-09
2.14832e-07
7.2103e-09
7.21036e-09
2.03194e-07
5.81893e-09
5.81901e-09
1.93763e-07
4.71552e-09
4.71548e-09
1.8599e-07
3.88678e-09
3.88662e-09
1.79331e-07
3.32962e-09
3.32919e-09
1.73486e-07
2.92322e-09
2.92208e-09
1.68285e-07
2.60156e-09
2.59928e-09
1.63612e-07
2.33871e-09
2.33439e-09
1.59367e-07
2.12664e-09
2.11884e-09
1.55471e-07
1.95748e-09
1.93781e-09
1.51875e-07
1.8176e-09
1.77884e-09
1.48545e-07
1.69992e-09
1.62982e-09
1.45458e-07
1.59449e-09
1.49227e-09
1.42673e-07
1.45545e-09
1.32949e-09
1.39668e-07
1.46589e-09
1.53917e-09
1.3105e-09
1.39614e-09
6.3138e-07
3.58764e-09
7.40289e-09
6.14563e-07
2.26461e-08
2.07004e-08
5.86444e-07
2.43763e-08
1.87292e-08
5.61723e-07
1.88555e-08
1.58474e-08
5.39613e-07
1.55705e-08
1.37498e-08
5.2063e-07
1.35118e-08
1.12901e-08
5.04681e-07
1.19544e-08
8.71078e-09
4.90921e-07
1.08041e-08
6.84262e-09
4.78688e-07
9.95483e-09
5.60797e-09
4.67586e-07
9.25038e-09
4.77438e-09
4.57377e-07
8.63552e-09
4.17587e-09
4.47905e-07
8.09179e-09
3.71901e-09
4.3905e-07
7.61163e-09
3.36924e-09
4.30702e-07
7.19483e-09
3.11055e-09
4.22768e-07
6.84128e-09
2.90993e-09
4.15196e-07
6.53725e-09
2.73512e-09
4.07978e-07
6.25866e-09
2.55347e-09
4.01112e-07
5.95524e-09
2.36628e-09
3.9481e-07
5.8157e-09
1.95234e-09
5.93119e-09
6.46134e-10
8.90375e-07
2.8527e-09
6.33234e-09
8.82486e-07
1.3409e-08
1.71258e-08
8.70359e-07
1.78681e-08
1.86358e-08
8.55111e-07
1.69566e-08
1.7147e-08
8.39979e-07
1.53419e-08
1.53598e-08
8.2553e-07
1.41722e-08
1.37886e-08
8.11761e-07
1.33834e-08
1.23404e-08
7.98765e-07
1.2682e-08
1.11185e-08
7.86688e-07
1.18978e-08
1.01335e-08
7.7554e-07
1.10599e-08
9.33889e-09
7.65179e-07
1.0264e-08
8.73209e-09
7.55454e-07
9.53311e-09
8.28368e-09
7.4623e-07
8.88173e-09
7.95456e-09
7.37406e-07
8.31058e-09
7.70768e-09
7.28928e-07
7.80336e-09
7.51648e-09
7.20764e-07
7.33572e-09
7.36452e-09
7.12925e-07
6.87647e-09
7.22172e-09
7.05461e-07
6.36988e-09
7.04938e-09
6.98609e-07
5.81549e-09
6.85169e-09
5.9755e-09
7.12596e-09
1.07432e-06
1.06498e-09
5.56883e-09
1.06824e-06
5.5872e-09
1.39e-08
1.06138e-06
8.46523e-09
1.62613e-08
1.05339e-06
9.04179e-09
1.59078e-08
1.04511e-06
8.62086e-09
1.49997e-08
1.03722e-06
8.12537e-09
1.39294e-08
1.02984e-06
7.79447e-09
1.29714e-08
1.02285e-06
7.56693e-09
1.21061e-08
1.01603e-06
7.38892e-09
1.13314e-08
1.0093e-06
7.11723e-09
1.06703e-08
1.0027e-06
6.69897e-09
1.01635e-08
9.96216e-07
6.23625e-09
9.78366e-09
9.89798e-07
5.80042e-09
9.49969e-09
9.83412e-07
5.40421e-09
9.29162e-09
9.77039e-07
5.03747e-09
9.13964e-09
9.70657e-07
4.69527e-09
9.02235e-09
9.64248e-07
4.36307e-09
8.92257e-09
9.57797e-07
4.00447e-09
8.81553e-09
9.5131e-07
3.60285e-09
8.7003e-09
3.62053e-09
9.09979e-09
1.16914e-06
2.26601e-15
4.9065e-09
1.16312e-06
2.30546e-14
1.16083e-08
1.15731e-06
3.30276e-14
1.42749e-08
1.15202e-06
6.8766e-15
1.43323e-08
1.14692e-06
-6.37902e-14
1.37275e-08
1.14208e-06
-2.54446e-13
1.29644e-08
1.13778e-06
-7.33683e-13
1.20932e-08
1.13405e-06
-1.57888e-12
1.12962e-08
1.13081e-06
-3.13645e-12
1.06307e-08
1.12778e-06
-5.78147e-12
1.01586e-08
1.12464e-06
-1.01879e-11
9.84653e-09
1.12128e-06
-1.7729e-11
9.61343e-09
1.11766e-06
-3.05016e-11
9.45251e-09
1.11375e-06
-5.19518e-11
9.36497e-09
1.10954e-06
-8.6889e-11
9.33321e-09
1.10503e-06
-1.34617e-10
9.34139e-09
1.10023e-06
-2.03694e-10
9.37011e-09
1.09514e-06
-3.06736e-10
9.39807e-09
1.08974e-06
-4.11256e-10
9.41829e-09
-4.85256e-10
9.73053e-09
1.16914e-06
-1.06498e-09
4.9065e-09
1.16312e-06
-5.58718e-09
1.16082e-08
1.15731e-06
-8.46515e-09
1.42748e-08
1.15202e-06
-9.04167e-09
1.43323e-08
1.14692e-06
-8.62086e-09
1.37276e-08
1.14208e-06
-8.12576e-09
1.29649e-08
1.13778e-06
-7.7957e-09
1.2094e-08
1.13405e-06
-7.56964e-09
1.12975e-08
1.13081e-06
-7.39472e-09
1.06332e-08
1.12777e-06
-7.12799e-09
1.01634e-08
1.12462e-06
-6.7174e-09
9.85541e-09
1.12124e-06
-6.26719e-09
9.62926e-09
1.11758e-06
-5.85163e-09
9.48003e-09
1.1136e-06
-5.49e-09
9.41209e-09
1.10929e-06
-5.18334e-09
9.40918e-09
1.10464e-06
-4.93297e-09
9.45568e-09
1.09964e-06
-4.74857e-09
9.54504e-09
1.0943e-06
-4.64097e-09
9.66461e-09
1.0887e-06
-4.58857e-09
9.7853e-09
-4.62569e-09
9.77748e-09
1.07432e-06
-2.85269e-09
5.56882e-09
1.06824e-06
-1.34089e-08
1.39e-08
1.06138e-06
-1.7868e-08
1.62613e-08
1.05339e-06
-1.69564e-08
1.5908e-08
1.04511e-06
-1.53417e-08
1.50003e-08
1.03722e-06
-1.41722e-08
1.39304e-08
1.02984e-06
-1.33838e-08
1.29727e-08
1.02284e-06
-1.26828e-08
1.21084e-08
1.01601e-06
-1.18997e-08
1.13359e-08
1.00927e-06
-1.10639e-08
1.06785e-08
1.00264e-06
-1.02709e-08
1.01793e-08
9.9611e-07
-9.5447e-09
9.81126e-09
9.89612e-07
-8.90097e-09
9.54704e-09
9.83095e-07
-8.34424e-09
9.37196e-09
9.76506e-07
-7.86688e-09
9.27186e-09
9.69793e-07
-7.45817e-09
9.23846e-09
9.6289e-07
-7.11817e-09
9.27262e-09
9.55741e-07
-6.88045e-09
9.38846e-09
9.48506e-07
-6.93696e-09
9.58325e-09
-6.81065e-09
9.11496e-09
8.90375e-07
-3.58765e-09
6.33234e-09
8.82486e-07
-2.26461e-08
1.71259e-08
8.70358e-07
-2.43763e-08
1.8636e-08
8.5511e-07
-1.88555e-08
1.71474e-08
8.39978e-07
-1.55704e-08
1.53604e-08
8.25528e-07
-1.35115e-08
1.37894e-08
8.11757e-07
-1.19538e-08
1.23417e-08
7.98756e-07
-1.08033e-08
1.1121e-08
7.86673e-07
-9.95346e-09
1.01377e-08
7.7551e-07
-9.24767e-09
9.34585e-09
7.65126e-07
-8.63001e-09
8.74388e-09
7.55359e-07
-8.08207e-09
8.30389e-09
7.46067e-07
-7.59712e-09
7.98867e-09
7.37133e-07
-7.17352e-09
7.7634e-09
7.2847e-07
-6.81391e-09
7.60924e-09
7.19994e-07
-6.50281e-09
7.52142e-09
7.11589e-07
-6.21625e-09
7.50295e-09
7.03073e-07
-5.94523e-09
7.58067e-09
6.94474e-07
-6.30479e-09
7.96648e-09
-6.1482e-09
7.10691e-09
6.3138e-07
-1.09686e-09
7.4029e-09
6.14563e-07
-2.65296e-08
2.07004e-08
5.86444e-07
-1.49865e-08
1.87293e-08
5.61723e-07
-9.98232e-09
1.58476e-08
5.39613e-07
-7.21035e-09
1.375e-08
5.2063e-07
-5.81899e-09
1.12906e-08
5.0468e-07
-4.71546e-09
8.7116e-09
4.9092e-07
-3.88661e-09
6.84411e-09
4.78685e-07
-3.32919e-09
5.61069e-09
4.6758e-07
-2.9221e-09
4.77943e-09
4.57362e-07
-2.59934e-09
4.18683e-09
4.47875e-07
-2.33451e-09
3.73964e-09
4.38992e-07
-2.11896e-09
3.40503e-09
4.30604e-07
-1.93814e-09
3.15305e-09
4.22605e-07
-1.77946e-09
2.96376e-09
4.14928e-07
-1.63041e-09
2.80502e-09
4.07515e-07
-1.49303e-09
2.68939e-09
4.00271e-07
-1.33069e-09
2.62969e-09
3.92728e-07
-1.54151e-09
2.77875e-09
-1.40051e-09
1.39891e-09
3.32249e-07
1.09682e-09
2.7919e-07
2.65296e-08
2.49217e-07
1.49865e-08
2.29253e-07
9.98223e-09
2.14832e-07
7.21033e-09
2.03194e-07
5.81896e-09
1.93763e-07
4.71556e-09
1.8599e-07
3.88683e-09
1.79331e-07
3.32968e-09
1.73486e-07
2.92329e-09
1.68285e-07
2.60164e-09
1.63611e-07
2.33879e-09
1.59366e-07
2.12666e-09
1.5547e-07
1.95744e-09
1.51873e-07
1.81753e-09
1.48543e-07
1.69984e-09
1.45455e-07
1.59472e-09
1.42668e-07
1.45631e-09
1.39659e-07
1.46739e-09
1.3102e-09
6.3138e-07
7.40289e-09
3.58765e-09
6.14563e-07
2.07004e-08
2.26461e-08
5.86444e-07
1.87293e-08
2.43764e-08
5.61723e-07
1.58476e-08
1.88555e-08
5.39613e-07
1.375e-08
1.55703e-08
5.2063e-07
1.12906e-08
1.35115e-08
5.04681e-07
8.71156e-09
1.19538e-08
4.9092e-07
6.84408e-09
1.08032e-08
4.78685e-07
5.61066e-09
9.95333e-09
4.67581e-07
4.77939e-09
9.24746e-09
4.57363e-07
4.18677e-09
8.62969e-09
4.47877e-07
3.7396e-09
8.08158e-09
4.38994e-07
3.40529e-09
7.59636e-09
4.30606e-07
3.1531e-09
7.17273e-09
4.22608e-07
2.96329e-09
6.813e-09
4.14932e-07
2.80467e-09
6.50138e-09
4.07522e-07
2.68864e-09
6.21392e-09
4.00282e-07
2.62802e-09
5.94138e-09
3.92748e-07
2.77518e-09
6.29796e-09
1.39395e-09
6.13726e-09
9.23616e-07
7.03395e-09
7.03395e-09
9.25317e-07
1.98501e-08
1.98501e-08
9.17181e-07
2.27972e-08
2.27971e-08
9.0427e-07
2.23032e-08
2.2303e-08
8.90525e-07
2.06223e-08
2.0622e-08
8.77395e-07
1.78561e-08
1.78554e-08
8.65414e-07
1.47018e-08
1.47006e-08
8.54718e-07
1.21924e-08
1.21905e-08
8.45248e-07
1.03464e-08
1.03429e-08
8.36852e-07
8.97796e-09
8.97103e-09
8.29343e-07
7.9428e-09
7.92961e-09
8.22523e-07
7.15091e-09
7.12715e-09
8.1625e-07
6.54433e-09
6.50362e-09
8.10449e-07
6.0649e-09
5.99946e-09
8.05081e-07
5.67224e-09
5.56863e-09
8.00078e-07
5.35234e-09
5.19066e-09
7.95349e-07
5.1109e-09
4.86092e-09
7.90718e-07
4.9888e-09
4.63571e-09
7.86551e-07
4.6861e-09
4.20917e-09
3.27375e-09
2.42966e-09
1.1589e-06
5.28149e-09
6.10262e-09
1.1657e-06
1.39992e-08
1.6183e-08
1.16844e-06
1.79789e-08
2.07066e-08
1.16661e-06
1.91805e-08
2.21048e-08
1.16221e-06
1.88784e-08
2.15056e-08
1.15653e-06
1.75492e-08
1.97697e-08
1.15046e-06
1.56913e-08
1.74252e-08
1.14454e-06
1.38957e-08
1.53294e-08
1.13909e-06
1.23003e-08
1.36297e-08
1.13423e-06
1.0911e-08
1.22697e-08
1.12995e-06
9.76727e-09
1.11906e-08
1.1262e-06
8.83873e-09
1.03424e-08
1.12294e-06
8.081e-09
9.67554e-09
1.12011e-06
7.45855e-09
9.14151e-09
1.11767e-06
6.93265e-09
8.70436e-09
1.11556e-06
6.47515e-09
8.34503e-09
1.1138e-06
6.05928e-09
8.03575e-09
1.11245e-06
5.65001e-09
7.73999e-09
1.11162e-06
5.05237e-09
7.31044e-09
4.24986e-09
6.78071e-09
1.32762e-06
2.71844e-09
4.93107e-09
1.33539e-06
7.12149e-09
1.30088e-08
1.34286e-06
9.55458e-09
1.72155e-08
1.34847e-06
1.05797e-08
1.88989e-08
1.35197e-06
1.08778e-08
1.95001e-08
1.35375e-06
1.05844e-08
1.91135e-08
1.35442e-06
9.89787e-09
1.80983e-08
1.35456e-06
9.05564e-09
1.68079e-08
1.35452e-06
8.20936e-09
1.54589e-08
1.35446e-06
7.41956e-09
1.42257e-08
1.35443e-06
6.72307e-09
1.32362e-08
1.35448e-06
6.11673e-09
1.24561e-08
1.35463e-06
5.5901e-09
1.18407e-08
1.35489e-06
5.13439e-09
1.13583e-08
1.35524e-06
4.73524e-09
1.09816e-08
1.35569e-06
4.37e-09
1.06837e-08
1.35622e-06
4.01284e-09
1.04381e-08
1.35684e-06
3.63175e-09
1.02165e-08
1.35744e-06
3.17133e-09
9.97789e-09
2.71418e-09
9.85159e-09
1.41518e-06
1.82897e-15
4.19277e-09
1.42279e-06
9.40108e-15
1.11156e-08
1.43152e-06
9.85247e-15
1.50979e-08
1.43981e-06
-3.99838e-14
1.66281e-08
1.44714e-06
-1.72018e-13
1.72727e-08
1.45318e-06
-4.34775e-13
1.7505e-08
1.45803e-06
-8.46041e-13
1.71456e-08
1.46196e-06
-1.50146e-12
1.64253e-08
1.46527e-06
-2.79613e-12
1.55304e-08
1.46822e-06
-5.64297e-12
1.46355e-08
1.471e-06
-1.12239e-11
1.38024e-08
1.47368e-06
-2.02656e-11
1.30677e-08
1.47626e-06
-3.40529e-11
1.24982e-08
1.47871e-06
-5.32483e-11
1.21033e-08
1.48102e-06
-8.00671e-11
1.18376e-08
1.4832e-06
-1.19065e-10
1.16526e-08
1.48524e-06
-1.75846e-10
1.15162e-08
1.48711e-06
-2.53441e-10
1.14163e-08
1.4887e-06
-3.42487e-10
1.13394e-08
-3.58977e-10
1.13568e-08
1.41518e-06
-2.71844e-09
4.19277e-09
1.42279e-06
-7.12147e-09
1.11156e-08
1.43152e-06
-9.55456e-09
1.50979e-08
1.43981e-06
-1.05797e-08
1.66282e-08
1.44714e-06
-1.08779e-08
1.7273e-08
1.45318e-06
-1.05849e-08
1.75056e-08
1.45803e-06
-9.89892e-09
1.71468e-08
1.46195e-06
-9.05758e-09
1.64272e-08
1.46526e-06
-8.21303e-09
1.55331e-08
1.46821e-06
-7.42783e-09
1.46401e-08
1.47098e-06
-6.74004e-09
1.38111e-08
1.47365e-06
-6.14622e-09
1.30839e-08
1.47621e-06
-5.63773e-09
1.25273e-08
1.47862e-06
-5.20439e-09
1.2153e-08
1.48087e-06
-4.83448e-09
1.19166e-08
1.48295e-06
-4.52041e-09
1.17711e-08
1.48489e-06
-4.24915e-09
1.1685e-08
1.48665e-06
-3.99914e-09
1.16461e-08
1.48819e-06
-3.71521e-09
1.16221e-08
-3.14897e-09
1.14515e-08
1.32762e-06
-5.28149e-09
4.93107e-09
1.33539e-06
-1.39992e-08
1.30089e-08
1.34286e-06
-1.79789e-08
1.72157e-08
1.34847e-06
-1.91804e-08
1.88993e-08
1.35197e-06
-1.88784e-08
1.95011e-08
1.35375e-06
-1.7549e-08
1.91152e-08
1.35442e-06
-1.56912e-08
1.81011e-08
1.35455e-06
-1.3896e-08
1.68122e-08
1.35451e-06
-1.23009e-08
1.54656e-08
1.35443e-06
-1.09119e-08
1.42369e-08
1.35439e-06
-9.76827e-09
1.32561e-08
1.3544e-06
-8.83798e-09
1.24903e-08
1.35449e-06
-8.07609e-09
1.1898e-08
1.35465e-06
-7.44369e-09
1.1451e-08
1.35486e-06
-6.90867e-09
1.11289e-08
1.35511e-06
-6.4464e-09
1.09147e-08
1.35538e-06
-6.04091e-09
1.07966e-08
1.35569e-06
-5.67641e-09
1.07594e-08
1.35607e-06
-5.24096e-09
1.07227e-08
-3.99888e-09
1.00885e-08
1.1589e-06
-7.03395e-09
6.10264e-09
1.1657e-06
-1.98501e-08
1.61831e-08
1.16844e-06
-2.27972e-08
2.07071e-08
1.16661e-06
-2.2303e-08
2.21055e-08
1.1622e-06
-2.06221e-08
2.15065e-08
1.15653e-06
-1.78555e-08
1.9771e-08
1.15045e-06
-1.47008e-08
1.74273e-08
1.14454e-06
-1.21907e-08
1.53334e-08
1.13908e-06
-1.03432e-08
1.36368e-08
1.1342e-06
-8.97144e-09
1.22818e-08
1.1299e-06
-7.93014e-09
1.12108e-08
1.12612e-06
-7.12779e-09
1.03757e-08
1.1228e-06
-6.5041e-09
9.72958e-09
1.11989e-06
-6.00091e-09
9.22838e-09
1.11732e-06
-5.57121e-09
8.84377e-09
1.11503e-06
-5.19335e-09
8.56576e-09
1.11296e-06
-4.86471e-09
8.38959e-09
1.1112e-06
-4.64163e-09
8.31146e-09
1.10993e-06
-4.21807e-09
8.21524e-09
-2.43985e-09
7.06638e-09
9.23616e-07
-7.40289e-09
7.03396e-09
9.25317e-07
-2.07004e-08
1.98501e-08
9.17181e-07
-1.87292e-08
2.27972e-08
9.0427e-07
-1.58474e-08
2.23032e-08
8.90525e-07
-1.37498e-08
2.06224e-08
8.77394e-07
-1.12902e-08
1.78561e-08
8.65414e-07
-8.71086e-09
1.47019e-08
8.54718e-07
-6.84273e-09
1.21925e-08
8.45247e-07
-5.60812e-09
1.03466e-08
8.36851e-07
-4.77459e-09
8.97812e-09
8.29341e-07
-4.17616e-09
7.94299e-09
8.22521e-07
-3.71938e-09
7.15111e-09
8.16248e-07
-3.36948e-09
6.54423e-09
8.10445e-07
-3.11101e-09
6.06525e-09
8.05076e-07
-2.91085e-09
5.67328e-09
8.0007e-07
-2.73606e-09
5.35348e-09
7.95336e-07
-2.555e-09
5.11304e-09
7.90701e-07
-2.36906e-09
4.99262e-09
7.86526e-07
-1.95661e-09
4.69182e-09
-6.47762e-10
3.27718e-09
6.3138e-07
3.58763e-09
6.14563e-07
2.26461e-08
5.86444e-07
2.43763e-08
5.61723e-07
1.88555e-08
5.39613e-07
1.55705e-08
5.2063e-07
1.35119e-08
5.04681e-07
1.19544e-08
4.90921e-07
1.08041e-08
4.78687e-07
9.9549e-09
4.67586e-07
9.25047e-09
4.57375e-07
8.63565e-09
4.47903e-07
8.092e-09
4.39048e-07
7.61201e-09
4.307e-07
7.19484e-09
4.22765e-07
6.84099e-09
4.15192e-07
6.53742e-09
4.07972e-07
6.25968e-09
4.01101e-07
5.95768e-09
3.94792e-07
5.82017e-09
5.93304e-09
8.90375e-07
6.33234e-09
2.85269e-09
8.82486e-07
1.71259e-08
1.3409e-08
8.70358e-07
1.8636e-08
1.7868e-08
8.5511e-07
1.71473e-08
1.69564e-08
8.39979e-07
1.53603e-08
1.53417e-08
8.25529e-07
1.37893e-08
1.41722e-08
8.11757e-07
1.23417e-08
1.33836e-08
7.98757e-07
1.11209e-08
1.26826e-08
7.86673e-07
1.01376e-08
1.18995e-08
7.75511e-07
9.34577e-09
1.10635e-08
7.65127e-07
8.74378e-09
1.02703e-08
7.55361e-07
8.30381e-09
9.54388e-09
7.46069e-07
7.98858e-09
8.89985e-09
7.37136e-07
7.76314e-09
8.34292e-09
7.28475e-07
7.60885e-09
7.86519e-09
7.2e-07
7.52077e-09
7.4556e-09
7.11598e-07
7.50154e-09
7.11414e-09
7.03088e-07
7.57769e-09
6.87431e-09
6.94498e-07
7.96029e-09
6.92723e-09
7.09678e-09
6.79495e-09
1.1589e-06
6.10264e-09
5.28148e-09
1.1657e-06
1.61831e-08
1.39992e-08
1.16844e-06
2.0707e-08
1.79789e-08
1.16661e-06
2.21054e-08
1.91804e-08
1.1622e-06
2.15065e-08
1.88782e-08
1.15653e-06
1.97709e-08
1.75488e-08
1.15045e-06
1.74273e-08
1.5691e-08
1.14454e-06
1.53332e-08
1.38957e-08
1.13908e-06
1.36367e-08
1.23005e-08
1.1342e-06
1.22816e-08
1.09113e-08
1.1299e-06
1.12106e-08
9.76749e-09
1.12612e-06
1.03756e-08
8.83703e-09
1.12281e-06
9.72946e-09
8.07493e-09
1.1199e-06
9.2276e-09
7.44155e-09
1.11733e-06
8.84239e-09
6.9055e-09
1.11503e-06
8.56415e-09
6.44258e-09
1.11297e-06
8.38702e-09
6.03575e-09
1.11121e-06
8.30687e-09
5.66886e-09
1.10994e-06
8.20814e-09
5.23011e-09
7.05903e-09
3.98561e-09
1.37712e-06
4.57742e-09
4.57739e-09
1.38565e-06
1.19174e-08
1.19173e-08
1.39417e-06
1.64477e-08
1.64474e-08
1.40126e-06
1.85617e-08
1.85613e-08
1.40641e-06
1.89316e-08
1.89309e-08
1.4095e-06
1.82239e-08
1.82228e-08
1.41092e-06
1.67189e-08
1.6717e-08
1.41149e-06
1.50476e-08
1.50447e-08
1.41174e-06
1.35072e-08
1.35024e-08
1.41195e-06
1.21753e-08
1.21675e-08
1.41228e-06
1.10451e-08
1.10325e-08
1.41281e-06
1.0103e-08
1.00824e-08
1.4136e-06
9.32615e-09
9.29264e-09
1.41465e-06
8.68701e-09
8.63247e-09
1.41596e-06
8.1614e-09
8.07434e-09
1.41754e-06
7.73097e-09
7.59856e-09
1.41942e-06
7.36805e-09
7.17337e-09
1.42169e-06
7.02469e-09
6.75248e-09
1.4244e-06
6.57339e-09
6.23142e-09
5.90156e-09
5.59067e-09
1.53312e-06
2.36622e-09
3.64923e-09
1.54218e-06
6.23935e-09
9.63367e-09
1.55328e-06
8.87432e-09
1.36915e-08
1.56445e-06
1.03489e-08
1.59364e-08
1.57507e-06
1.09028e-08
1.69117e-08
1.5847e-06
1.07598e-08
1.69454e-08
1.59299e-06
1.01516e-08
1.63766e-08
1.60005e-06
9.34445e-09
1.54461e-08
1.60619e-06
8.48124e-09
1.43452e-08
1.61167e-06
7.67257e-09
1.32525e-08
1.61672e-06
6.96583e-09
1.22629e-08
1.62151e-06
6.36361e-09
1.14041e-08
1.62615e-06
5.8489e-09
1.06779e-08
1.63072e-06
5.40718e-09
1.00721e-08
1.63527e-06
5.02598e-09
9.56833e-09
1.63984e-06
4.69379e-09
9.14612e-09
1.64448e-06
4.38699e-09
8.78142e-09
1.64921e-06
4.07498e-09
8.44225e-09
1.65397e-06
3.71058e-09
8.08047e-09
3.34335e-09
7.75603e-09
1.61424e-06
-5.52809e-15
3.09258e-09
1.62332e-06
-9.09579e-15
8.27336e-09
1.63534e-06
-2.54916e-14
1.1956e-08
1.6482e-06
-6.7616e-14
1.41128e-08
1.66118e-06
-1.5606e-13
1.51976e-08
1.67387e-06
-2.67951e-13
1.55786e-08
1.68574e-06
-4.95124e-13
1.54228e-08
1.69656e-06
-8.09366e-13
1.49477e-08
1.70631e-06
-1.47328e-12
1.42685e-08
1.71513e-06
-2.82613e-12
1.34859e-08
1.72322e-06
-5.22437e-12
1.26878e-08
1.73072e-06
-8.74741e-12
1.19388e-08
1.7378e-06
-1.32143e-11
1.12826e-08
1.74459e-06
-1.82136e-11
1.07378e-08
1.75118e-06
-2.48799e-11
1.03022e-08
1.75759e-06
-3.54302e-11
9.96594e-09
1.76384e-06
-5.05364e-11
9.70181e-09
1.76992e-06
-7.00067e-11
9.48174e-09
1.77578e-06
-9.03438e-11
9.27854e-09
-9.3995e-11
9.1243e-09
1.61424e-06
-2.36623e-09
3.09259e-09
1.62332e-06
-6.23936e-09
8.2734e-09
1.63534e-06
-8.87433e-09
1.19561e-08
1.6482e-06
-1.03489e-08
1.4113e-08
1.66118e-06
-1.09027e-08
1.51981e-08
1.67386e-06
-1.07597e-08
1.55795e-08
1.68574e-06
-1.01515e-08
1.54241e-08
1.69656e-06
-9.34444e-09
1.49495e-08
1.7063e-06
-8.4813e-09
1.42713e-08
1.71512e-06
-7.67337e-09
1.34903e-08
1.7232e-06
-6.96828e-09
1.2695e-08
1.73069e-06
-6.3683e-09
1.19508e-08
1.73776e-06
-5.85591e-09
1.13024e-08
1.74454e-06
-5.41525e-09
1.07693e-08
1.75111e-06
-5.03265e-09
1.03517e-08
1.75751e-06
-4.70062e-09
1.00424e-08
1.76373e-06
-4.39713e-09
9.80928e-09
1.76978e-06
-4.09458e-09
9.62177e-09
1.77562e-06
-3.75173e-09
9.44099e-09
-3.379e-09
9.24212e-09
1.53312e-06
-4.5774e-09
3.64926e-09
1.54218e-06
-1.19174e-08
9.63381e-09
1.55327e-06
-1.64475e-08
1.36918e-08
1.56445e-06
-1.85614e-08
1.59371e-08
1.57507e-06
-1.89311e-08
1.69127e-08
1.5847e-06
-1.8223e-08
1.69471e-08
1.59299e-06
-1.67173e-08
1.63791e-08
1.60005e-06
-1.50451e-08
1.54503e-08
1.60618e-06
-1.35029e-08
1.43515e-08
1.61165e-06
-1.21682e-08
1.32623e-08
1.6167e-06
-1.10334e-08
1.22784e-08
1.62147e-06
-1.00836e-08
1.14291e-08
1.62609e-06
-9.29423e-09
1.07183e-08
1.63062e-06
-8.63481e-09
1.01371e-08
1.63513e-06
-8.07758e-09
9.67143e-09
1.63964e-06
-7.60276e-09
9.30353e-09
1.64421e-06
-7.17899e-09
9.01044e-09
1.64888e-06
-6.75987e-09
8.75416e-09
1.65363e-06
-6.24014e-09
8.4636e-09
-5.59839e-09
8.05293e-09
1.37712e-06
-6.10262e-09
4.57742e-09
1.38565e-06
-1.6183e-08
1.19175e-08
1.39417e-06
-2.07067e-08
1.64477e-08
1.40126e-06
-2.21049e-08
1.85618e-08
1.40641e-06
-2.15057e-08
1.89317e-08
1.4095e-06
-1.97698e-08
1.8224e-08
1.41092e-06
-1.74254e-08
1.6719e-08
1.41149e-06
-1.53297e-08
1.50478e-08
1.41174e-06
-1.36301e-08
1.35074e-08
1.41195e-06
-1.22702e-08
1.21756e-08
1.41227e-06
-1.11913e-08
1.10454e-08
1.41281e-06
-1.03433e-08
1.01033e-08
1.41359e-06
-9.67663e-09
9.32656e-09
1.41464e-06
-9.14314e-09
8.68777e-09
1.41595e-06
-8.70667e-09
8.16257e-09
1.41753e-06
-8.34819e-09
7.73245e-09
1.41941e-06
-8.04037e-09
7.37011e-09
1.42168e-06
-7.74659e-09
7.02748e-09
1.4244e-06
-7.31852e-09
6.57611e-09
-6.78472e-09
5.9016e-09
1.1589e-06
-6.33234e-09
5.28149e-09
1.1657e-06
-1.71258e-08
1.39992e-08
1.16844e-06
-1.86358e-08
1.7979e-08
1.16661e-06
-1.7147e-08
1.91806e-08
1.16221e-06
-1.53598e-08
1.88785e-08
1.15653e-06
-1.37886e-08
1.75492e-08
1.15046e-06
-1.23405e-08
1.56914e-08
1.14454e-06
-1.11187e-08
1.38958e-08
1.13909e-06
-1.01337e-08
1.23005e-08
1.13423e-06
-9.33914e-09
1.09113e-08
1.12994e-06
-8.73243e-09
9.76759e-09
1.1262e-06
-8.28416e-09
8.83914e-09
1.12294e-06
-7.95523e-09
8.08144e-09
1.12011e-06
-7.70832e-09
7.45918e-09
1.11766e-06
-7.51707e-09
6.93365e-09
1.11555e-06
-7.3656e-09
6.47672e-09
1.11379e-06
-7.22371e-09
6.06189e-09
1.11243e-06
-7.05268e-09
5.65417e-09
1.11161e-06
-6.85582e-09
5.05748e-09
-7.1236e-09
4.24949e-09
8.90375e-07
2.85269e-09
8.82486e-07
1.3409e-08
8.70359e-07
1.78681e-08
8.5511e-07
1.69566e-08
8.39979e-07
1.5342e-08
8.2553e-07
1.41723e-08
8.11761e-07
1.33835e-08
7.98764e-07
1.26821e-08
7.86688e-07
1.18979e-08
7.75539e-07
1.10601e-08
7.65178e-07
1.02642e-08
7.55452e-07
9.53342e-09
7.46227e-07
8.88217e-09
7.37403e-07
8.31097e-09
7.28923e-07
7.80375e-09
7.20758e-07
7.33656e-09
7.12916e-07
6.87827e-09
7.05448e-07
6.3733e-09
6.98592e-07
5.82099e-09
5.98069e-09
1.07432e-06
5.56882e-09
1.06499e-09
1.06824e-06
1.39e-08
5.5872e-09
1.06138e-06
1.62613e-08
8.46518e-09
1.05339e-06
1.5908e-08
9.04167e-09
1.04511e-06
1.50002e-08
8.62083e-09
1.03722e-06
1.39303e-08
8.12569e-09
1.02984e-06
1.29727e-08
7.79556e-09
1.02284e-06
1.21083e-08
7.56941e-09
1.01601e-06
1.13358e-08
7.39437e-09
1.00927e-06
1.06784e-08
7.12748e-09
1.00264e-06
1.01791e-08
6.71669e-09
9.96111e-07
9.81106e-09
6.26622e-09
9.89614e-07
9.54678e-09
5.85036e-09
9.83097e-07
9.37154e-09
5.48838e-09
9.7651e-07
9.27117e-09
5.18123e-09
9.69799e-07
9.23723e-09
4.92992e-09
9.62899e-07
9.27034e-09
4.744e-09
9.55754e-07
9.38443e-09
4.63424e-09
9.48527e-07
9.57626e-09
4.5788e-09
9.10333e-09
4.61189e-09
1.32762e-06
4.93107e-09
2.71844e-09
1.33539e-06
1.30089e-08
7.12145e-09
1.34286e-06
1.72157e-08
9.5545e-09
1.34847e-06
1.88993e-08
1.05796e-08
1.35197e-06
1.9501e-08
1.08778e-08
1.35375e-06
1.91151e-08
1.05847e-08
1.35442e-06
1.8101e-08
9.89859e-09
1.35455e-06
1.68122e-08
9.05713e-09
1.35451e-06
1.54655e-08
8.21245e-09
1.35444e-06
1.42367e-08
7.42707e-09
1.35439e-06
1.32559e-08
6.73906e-09
1.3544e-06
1.24901e-08
6.14497e-09
1.35449e-06
1.18976e-08
5.6361e-09
1.35465e-06
1.14502e-08
5.20203e-09
1.35487e-06
1.11277e-08
4.83129e-09
1.35512e-06
1.09131e-08
4.51635e-09
1.35539e-06
1.07941e-08
4.24384e-09
1.35569e-06
1.07554e-08
3.99202e-09
1.35608e-06
1.07168e-08
3.70581e-09
1.0081e-08
3.13775e-09
1.53312e-06
3.64926e-09
2.36622e-09
1.54218e-06
9.6338e-09
6.23931e-09
1.55327e-06
1.36918e-08
8.87424e-09
1.56445e-06
1.5937e-08
1.03488e-08
1.57507e-06
1.69127e-08
1.09025e-08
1.5847e-06
1.69471e-08
1.07594e-08
1.59299e-06
1.63791e-08
1.01511e-08
1.60005e-06
1.54502e-08
9.34389e-09
1.60618e-06
1.43514e-08
8.48061e-09
1.61165e-06
1.32621e-08
7.67248e-09
1.6167e-06
1.22782e-08
6.96716e-09
1.62147e-06
1.14289e-08
6.36687e-09
1.62609e-06
1.0718e-08
5.85405e-09
1.63063e-06
1.01366e-08
5.41273e-09
1.63513e-06
9.67072e-09
5.02938e-09
1.63964e-06
9.30272e-09
4.69655e-09
1.64421e-06
9.00951e-09
4.39217e-09
1.64887e-06
8.7532e-09
4.08861e-09
1.65361e-06
8.46326e-09
3.74516e-09
8.05493e-09
3.37316e-09
1.68027e-06
1.89108e-09
1.89105e-09
1.68934e-06
5.09943e-09
5.09934e-09
1.70179e-06
7.46446e-09
7.46425e-09
1.71577e-06
8.94656e-09
8.94619e-09
1.73021e-06
9.69398e-09
9.69335e-09
1.74438e-06
9.8625e-09
9.86148e-09
1.75783e-06
9.65469e-09
9.65311e-09
1.77032e-06
9.20282e-09
9.20049e-09
1.78178e-06
8.61894e-09
8.6156e-09
1.79231e-06
7.99668e-09
7.99187e-09
1.80206e-06
7.40094e-09
7.39381e-09
1.81117e-06
6.86437e-09
6.85328e-09
1.81979e-06
6.3983e-09
6.38037e-09
1.82802e-06
6.00236e-09
5.97295e-09
1.83597e-06
5.66964e-09
5.62241e-09
1.84371e-06
5.38773e-09
5.31627e-09
1.85132e-06
5.14057e-09
5.04188e-09
1.85883e-06
4.90457e-09
4.78117e-09
1.86622e-06
4.65002e-09
4.51032e-09
4.39741e-09
4.27177e-09
1.7569e-06
-7.36103e-15
1.6131e-09
1.76589e-06
-5.12401e-15
4.38376e-09
1.77878e-06
-7.35856e-16
6.53119e-09
1.79389e-06
1.24684e-14
7.95017e-09
1.81003e-06
4.88294e-14
8.75433e-09
1.82638e-06
1.20794e-13
9.08353e-09
1.84239e-06
2.26298e-13
9.06875e-09
1.85771e-06
3.02045e-13
8.83085e-09
1.87214e-06
3.35867e-13
8.45463e-09
1.88562e-06
3.45857e-13
8.00578e-09
1.89817e-06
4.27765e-13
7.5351e-09
1.9099e-06
8.47229e-13
7.07901e-09
1.92091e-06
2.10257e-12
6.6608e-09
1.93136e-06
4.81421e-12
6.29269e-09
1.94134e-06
9.27559e-12
5.97869e-09
1.95096e-06
1.49297e-11
5.71803e-09
1.96028e-06
2.03491e-11
5.50084e-09
1.96934e-06
2.44359e-11
5.30702e-09
1.97814e-06
2.53375e-11
5.0964e-09
1.97669e-11
4.98276e-09
1.7569e-06
-1.89107e-09
1.61312e-09
1.76589e-06
-5.09939e-09
4.38383e-09
1.77878e-06
-7.46436e-09
6.53133e-09
1.79389e-06
-8.94636e-09
7.95044e-09
1.81002e-06
-9.6936e-09
8.75477e-09
1.82638e-06
-9.86181e-09
9.08421e-09
1.84239e-06
-9.65356e-09
9.06971e-09
1.85771e-06
-9.20105e-09
8.83223e-09
1.87214e-06
-8.61631e-09
8.45663e-09
1.88561e-06
-7.99277e-09
8.00874e-09
1.89817e-06
-7.39494e-09
7.53954e-09
1.90989e-06
-6.8547e-09
7.08577e-09
1.9209e-06
-6.38216e-09
6.6712e-09
1.93134e-06
-5.97522e-09
6.30876e-09
1.94133e-06
-5.62521e-09
6.00352e-09
1.95095e-06
-5.31964e-09
5.75588e-09
1.96027e-06
-5.04581e-09
5.5537e-09
1.96933e-06
-4.78555e-09
5.37406e-09
1.97813e-06
-4.51457e-09
5.17261e-09
-4.27496e-09
5.05057e-09
1.68027e-06
-3.64924e-09
1.89108e-09
1.68934e-06
-9.63371e-09
5.09945e-09
1.70179e-06
-1.36916e-08
7.4645e-09
1.71577e-06
-1.59366e-08
8.94661e-09
1.73021e-06
-1.69119e-08
9.69405e-09
1.74438e-06
-1.69457e-08
9.86258e-09
1.75783e-06
-1.63769e-08
9.65478e-09
1.77032e-06
-1.54466e-08
9.20293e-09
1.78178e-06
-1.43458e-08
8.61908e-09
1.79231e-06
-1.32533e-08
7.99685e-09
1.80205e-06
-1.22639e-08
7.40114e-09
1.81117e-06
-1.14054e-08
6.86459e-09
1.81979e-06
-1.06795e-08
6.39854e-09
1.82802e-06
-1.00742e-08
6.00261e-09
1.83597e-06
-9.57101e-09
5.66984e-09
1.84371e-06
-9.14956e-09
5.38772e-09
1.85132e-06
-8.78579e-09
5.14011e-09
1.85884e-06
-8.44755e-09
4.90319e-09
1.86623e-06
-8.08594e-09
4.64684e-09
-7.76027e-09
4.39116e-09
1.53312e-06
-4.93107e-09
2.36623e-09
1.54218e-06
-1.30088e-08
6.23937e-09
1.55327e-06
-1.72156e-08
8.87436e-09
1.56445e-06
-1.88989e-08
1.0349e-08
1.57507e-06
-1.95002e-08
1.09029e-08
1.5847e-06
-1.91137e-08
1.07599e-08
1.59299e-06
-1.80986e-08
1.01517e-08
1.60005e-06
-1.68082e-08
9.34462e-09
1.60619e-06
-1.54594e-08
8.48145e-09
1.61167e-06
-1.42263e-08
7.67285e-09
1.61672e-06
-1.32369e-08
6.96618e-09
1.62151e-06
-1.24571e-08
6.36405e-09
1.62615e-06
-1.18419e-08
5.84943e-09
1.63072e-06
-1.13597e-08
5.40785e-09
1.63527e-06
-1.09835e-08
5.02681e-09
1.63984e-06
-1.06863e-08
4.69473e-09
1.64448e-06
-1.04417e-08
4.38789e-09
1.6492e-06
-1.02213e-08
4.07543e-09
1.65397e-06
-9.98313e-09
3.70941e-09
-9.85223e-09
3.3386e-09
1.32762e-06
-5.56882e-09
2.71845e-09
1.33539e-06
-1.39e-08
7.12151e-09
1.34286e-06
-1.62613e-08
9.55462e-09
1.34847e-06
-1.59078e-08
1.05798e-08
1.35197e-06
-1.49998e-08
1.08778e-08
1.35375e-06
-1.39295e-08
1.05845e-08
1.35442e-06
-1.29715e-08
9.89802e-09
1.35456e-06
-1.21062e-08
9.05583e-09
1.35452e-06
-1.13316e-08
8.2096e-09
1.35446e-06
-1.06706e-08
7.41988e-09
1.35443e-06
-1.01639e-08
6.72349e-09
1.35448e-06
-9.78417e-09
6.11728e-09
1.35463e-06
-9.50035e-09
5.59082e-09
1.35488e-06
-9.2923e-09
5.13525e-09
1.35524e-06
-9.14041e-09
4.73637e-09
1.35568e-06
-9.02352e-09
4.37164e-09
1.35621e-06
-8.92441e-09
4.01508e-09
1.35683e-06
-8.81843e-09
3.6346e-09
1.35743e-06
-8.70427e-09
3.17402e-09
-9.1012e-09
2.71277e-09
1.07432e-06
1.06498e-09
1.06824e-06
5.58721e-09
1.06138e-06
8.46525e-09
1.05339e-06
9.04182e-09
1.04511e-06
8.62091e-09
1.03722e-06
8.12544e-09
1.02984e-06
7.79456e-09
1.02285e-06
7.56705e-09
1.01603e-06
7.38908e-09
1.0093e-06
7.11745e-09
1.0027e-06
6.69926e-09
9.96214e-07
6.23665e-09
9.89795e-07
5.80097e-09
9.83409e-07
5.40491e-09
9.77034e-07
5.03842e-09
9.7065e-07
4.69661e-09
9.64239e-07
4.36512e-09
9.57787e-07
4.00769e-09
9.51296e-07
3.60783e-09
3.62826e-09
1.16914e-06
4.90649e-09
-8.57128e-16
1.16312e-06
1.16082e-08
-1.22287e-14
1.15731e-06
1.42748e-08
-5.31369e-15
1.15202e-06
1.43323e-08
-3.70717e-15
1.14692e-06
1.37276e-08
3.0042e-14
1.14208e-06
1.29648e-08
1.73201e-13
1.13778e-06
1.2094e-08
5.87927e-13
1.13405e-06
1.12975e-08
1.34651e-12
1.13081e-06
1.06332e-08
2.78759e-12
1.12777e-06
1.01633e-08
5.27826e-12
1.12462e-06
9.85529e-09
9.48205e-12
1.12124e-06
9.62908e-09
1.67577e-11
1.11758e-06
9.47979e-09
2.91907e-11
1.11361e-06
9.41171e-09
5.02154e-11
1.10929e-06
9.40851e-09
8.45809e-11
1.10464e-06
9.45443e-09
1.31504e-10
1.09964e-06
9.54275e-09
1.99325e-10
1.09431e-06
9.66071e-09
3.00587e-10
1.08871e-06
9.7791e-09
4.02661e-10
9.76947e-09
4.72915e-10
1.41518e-06
4.19277e-09
-8.48526e-15
1.42279e-06
1.11156e-08
-3.21811e-14
1.43152e-06
1.50979e-08
-7.36867e-14
1.43981e-06
1.66281e-08
-8.16626e-14
1.44714e-06
1.7273e-08
-1.82021e-14
1.45318e-06
1.75056e-08
1.62235e-13
1.45803e-06
1.71468e-08
4.75167e-13
1.46195e-06
1.64271e-08
1.01015e-12
1.46526e-06
1.5533e-08
2.15578e-12
1.46821e-06
1.464e-08
4.81679e-12
1.47098e-06
1.3811e-08
1.0163e-11
1.47365e-06
1.30838e-08
1.89061e-11
1.47621e-06
1.25271e-08
3.23009e-11
1.47862e-06
1.21525e-08
5.0951e-11
1.48087e-06
1.19158e-08
7.70884e-11
1.48295e-06
1.17699e-08
1.15324e-10
1.48489e-06
1.16832e-08
1.71169e-10
1.48665e-06
1.16435e-08
2.47661e-10
1.48818e-06
1.16185e-08
3.3566e-10
1.14482e-08
3.52239e-10
1.61424e-06
3.09259e-09
-8.63823e-15
1.62332e-06
8.27339e-09
-4.17023e-14
1.63534e-06
1.19561e-08
-8.0887e-14
1.6482e-06
1.4113e-08
-1.08502e-13
1.66118e-06
1.51981e-08