/*--------------------------------*- C++ -*----------------------------------*\
| =========                 |                                                 |
| \\      /  F ield         | OpenFOAM: The Open Source CFD Toolbox           |
|  \\    /   O peration     | Version:  2212                                  |
|   \\  /    A nd           | Website:  www.openfoam.com                      |
|    \\/     M anipulation  |                                                 |
\*---------------------------------------------------------------------------*/
FoamFile
{
    version     2.0;
    format      ascii;
    arch        "LSB;label=32;scalar=64";
    class       volScalarField;
    location    "2.9";
    object      k;
}
// * * * * * * * * * * * * * * * * * * * * * * * * * * * * * * * * * * * * * //

dimensions      [0 2 -2 0 0 0 0];

internalField   nonuniform List<scalar> 
6840
(
0.213564
0.055916
0.0283994
0.0193411
0.0146927
0.011851
0.00989062
0.00851595
0.00749117
0.00669609
0.00606022
0.00555043
0.00512229
0.00474412
0.00442408
0.00415499
0.00392739
0.00373508
0.00359132
0.00342844
0.264759
0.104702
0.0585298
0.039163
0.0286198
0.0219934
0.017536
0.0143632
0.0120082
0.0102137
0.00881632
0.00770579
0.00680424
0.00606181
0.00545087
0.00495045
0.00453545
0.00419094
0.00391596
0.0037088
0.283364
0.126774
0.071702
0.0473282
0.0338663
0.0256617
0.0204609
0.0167972
0.0140488
0.0119416
0.0102846
0.00895666
0.00788597
0.00701261
0.00629078
0.00568801
0.00518247
0.00475691
0.0044
0.00411026
0.292299
0.141633
0.0819302
0.0541654
0.0389231
0.0292875
0.0232724
0.0190788
0.0159344
0.0135153
0.0116273
0.0101136
0.008883
0.00787273
0.00703555
0.0063358
0.00574644
0.00524673
0.00482131
0.00446438
0.295943
0.148782
0.0871941
0.057675
0.0415194
0.0310723
0.0246452
0.0202212
0.0169052
0.0143252
0.0123087
0.0107027
0.00939669
0.00832314
0.00743194
0.00668551
0.00605503
0.0055187
0.00506235
0.00469945
0.295943
0.148782
0.0871941
0.0576749
0.0415194
0.0310722
0.024645
0.0202209
0.0169049
0.0143247
0.0123081
0.0107017
0.00939525
0.00832099
0.0074287
0.00668081
0.00604824
0.00550912
0.00505065
0.00470187
0.292299
0.141633
0.0819301
0.0541653
0.038923
0.0292873
0.0232721
0.0190783
0.0159337
0.0135144
0.0116259
0.0101114
0.00887985
0.00786796
0.00702844
0.00632522
0.00573059
0.00522322
0.00479004
0.00446372
0.283364
0.126774
0.0717019
0.0473281
0.0338662
0.0256615
0.0204607
0.0167968
0.0140483
0.0119405
0.0102832
0.00895458
0.0078829
0.00700793
0.0062834
0.00567662
0.00516466
0.0047287
0.00435645
0.00405064
0.264759
0.104702
0.0585298
0.039163
0.0286198
0.0219934
0.0175359
0.0143631
0.012008
0.0102134
0.00881587
0.00770501
0.00680293
0.00605894
0.00544632
0.00494295
0.00452198
0.00416526
0.00386676
0.00362319
0.213564
0.055916
0.0283994
0.0193411
0.0146927
0.011851
0.00989062
0.00851596
0.00749117
0.00669611
0.00606021
0.00555048
0.00512225
0.00474422
0.00442408
0.00415501
0.00392743
0.00373516
0.00359145
0.00342867
0.264759
0.104702
0.0585298
0.039163
0.0286198
0.0219933
0.0175359
0.0143631
0.012008
0.0102134
0.00881584
0.00770499
0.0068029
0.00605883
0.00544629
0.00494291
0.0045219
0.00416512
0.00386656
0.0036229
0.311746
0.197541
0.130357
0.0911456
0.0668021
0.050811
0.0397943
0.0319119
0.026094
0.0216869
0.0182761
0.0155878
0.01344
0.0116968
0.0102652
0.00907663
0.00807995
0.00723664
0.00653143
0.00589527
0.31754
0.217754
0.151085
0.108549
0.0807156
0.0618726
0.0486774
0.0391418
0.0320587
0.0266716
0.0224902
0.0191875
0.0165393
0.0143874
0.0126185
0.0111506
0.00992205
0.00888515
0.0080075
0.00726273
0.319723
0.227073
0.162232
0.118772
0.0893612
0.0689929
0.0545308
0.0439847
0.0361002
0.0300753
0.025383
0.0216665
0.0186796
0.016248
0.014246
0.0125811
0.0111843
0.0100031
0.00899639
0.00813521
0.320484
0.23086
0.167176
0.123531
0.093516
0.0724826
0.0574409
0.0464215
0.0381542
0.0318177
0.0268716
0.0229477
0.0197895
0.017215
0.0150926
0.0133254
0.0118406
0.0105825
0.00950808
0.00858503
0.320484
0.23086
0.167176
0.123531
0.0935159
0.0724825
0.0574406
0.0464211
0.0381536
0.031817
0.0268706
0.0229462
0.0197873
0.0172118
0.0150879
0.0133189
0.0118315
0.01057
0.00949097
0.00856419
0.319723
0.227073
0.162232
0.118772
0.0893609
0.0689925
0.0545302
0.043984
0.0360991
0.0300738
0.0253808
0.0216633
0.0186749
0.0162411
0.0142361
0.012567
0.0111641
0.00997415
0.00895516
0.00807254
0.31754
0.217754
0.151085
0.108549
0.0807154
0.0618723
0.048677
0.0391412
0.0320578
0.0266704
0.0224885
0.019185
0.0165357
0.014382
0.0126105
0.0111389
0.00990461
0.00885883
0.00796824
0.00717059
0.311746
0.197541
0.130357
0.0911456
0.0668021
0.050811
0.0397943
0.031912
0.026094
0.021687
0.0182761
0.0155879
0.0134401
0.011697
0.0102652
0.00907666
0.00808006
0.00723683
0.00653174
0.0058958
0.264759
0.104702
0.0585298
0.039163
0.0286199
0.0219934
0.017536
0.0143632
0.0120082
0.0102137
0.00881635
0.00770581
0.00680427
0.00606195
0.00545089
0.00495044
0.00453546
0.00419097
0.00391601
0.00370893
0.283364
0.126774
0.0717019
0.0473281
0.0338662
0.0256615
0.0204606
0.0167968
0.0140482
0.0119405
0.0102832
0.00895456
0.00788288
0.00700795
0.00628336
0.00567656
0.00516458
0.00472859
0.0043563
0.00405041
0.31754
0.217754
0.151085
0.108549
0.0807154
0.0618723
0.0486769
0.0391412
0.0320578
0.0266704
0.0224884
0.019185
0.0165356
0.014382
0.0126105
0.0111388
0.00990446
0.00885859
0.00796792
0.00717019
0.322005
0.239026
0.177588
0.133616
0.102323
0.0798668
0.0635104
0.0513819
0.0422213
0.035179
0.0296752
0.0253086
0.0217971
0.0189384
0.0165853
0.0146286
0.0129871
0.0115982
0.0104124
0.00937807
0.323293
0.245617
0.187499
0.144537
0.112864
0.0894039
0.0718633
0.0585865
0.0483997
0.0404744
0.034225
0.0292337
0.0251998
0.0219037
0.0191833
0.0169172
0.0150135
0.0134009
0.0120225
0.0108247
0.323714
0.247819
0.191099
0.14881
0.117249
0.0935708
0.0756574
0.0619607
0.0513629
0.0430614
0.0364795
0.0311999
0.0269182
0.0234102
0.0205088
0.0180878
0.0160509
0.0143232
0.0128433
0.0115527
0.323714
0.247819
0.191099
0.14881
0.117249
0.0935707
0.0756572
0.0619604
0.0513626
0.043061
0.0364789
0.031199
0.0269171
0.0234086
0.0205065
0.0180847
0.0160467
0.0143172
0.0128333
0.0115252
0.323293
0.245617
0.187499
0.144536
0.112864
0.0894037
0.0718631
0.0585862
0.0483992
0.0404737
0.034224
0.0292323
0.0251978
0.0219009
0.0191794
0.0169118
0.0150059
0.0133901
0.0120042
0.0107717
0.322005
0.239026
0.177588
0.133616
0.102323
0.0798668
0.0635104
0.0513819
0.0422214
0.035179
0.0296752
0.0253087
0.0217972
0.0189385
0.0165853
0.0146287
0.0129872
0.0115983
0.0104126
0.00937838
0.31754
0.217754
0.151085
0.108549
0.0807156
0.0618726
0.0486774
0.0391418
0.0320587
0.0266716
0.0224902
0.0191875
0.0165394
0.0143876
0.0126185
0.0111506
0.00992206
0.00888521
0.00800764
0.00726286
0.283364
0.126774
0.071702
0.0473282
0.0338663
0.0256617
0.0204609
0.0167972
0.0140488
0.0119416
0.0102846
0.00895668
0.00788601
0.00701268
0.00629075
0.00568798
0.00518245
0.00475689
0.0044
0.00411026
0.292299
0.141633
0.0819301
0.0541653
0.038923
0.0292873
0.0232721
0.0190783
0.0159337
0.0135144
0.0116259
0.0101114
0.00887987
0.00786804
0.00702838
0.00632516
0.00573052
0.00522314
0.00478992
0.00446359
0.319723
0.227073
0.162232
0.118772
0.0893609
0.0689925
0.0545302
0.0439839
0.0360991
0.0300738
0.0253808
0.0216632
0.0186749
0.0162412
0.0142361
0.0125669
0.011164
0.00997401
0.00895497
0.0080724
0.323293
0.245617
0.187499
0.144536
0.112864
0.0894037
0.071863
0.0585862
0.0483991
0.0404737
0.034224
0.0292323
0.0251978
0.0219009
0.0191794
0.0169118
0.0150059
0.0133901
0.0120042
0.0107716
0.324288
0.250862
0.19613
0.154888
0.123591
0.09968
0.0812741
0.0669838
0.0557847
0.0469223
0.0398395
0.0341236
0.0294673
0.0256399
0.0224669
0.0198149
0.017581
0.0156841
0.0140553
0.012619
0.32459
0.252403
0.19891
0.158543
0.12769
0.103871
0.0853201
0.0707499
0.05921
0.0499927
0.0425685
0.0365384
0.0316006
0.0275251
0.0241354
0.0212954
0.0188985
0.0168596
0.0151056
0.0135575
0.32459
0.252403
0.19891
0.158543
0.12769
0.103871
0.08532
0.0707499
0.0592099
0.0499926
0.0425683
0.0365382
0.0316003
0.0275247
0.0241349
0.0212946
0.0188974
0.0168579
0.0151021
0.0135447
0.324288
0.250862
0.19613
0.154888
0.123591
0.09968
0.0812741
0.0669838
0.0557847
0.0469223
0.0398395
0.0341236
0.0294673
0.0256399
0.0224669
0.0198149
0.0175811
0.0156842
0.0140554
0.0126192
0.323293
0.245617
0.187499
0.144537
0.112864
0.0894039
0.0718633
0.0585866
0.0483997
0.0404745
0.034225
0.0292337
0.0251998
0.0219037
0.0191833
0.0169173
0.0150135
0.013401
0.0120225
0.0108247
0.319723
0.227073
0.162232
0.118772
0.0893612
0.0689929
0.0545308
0.0439848
0.0361002
0.0300754
0.025383
0.0216665
0.0186796
0.016248
0.014246
0.0125811
0.0111843
0.0100031
0.00899638
0.00813505
0.292299
0.141633
0.0819302
0.0541654
0.0389231
0.0292875
0.0232724
0.0190788
0.0159344
0.0135153
0.0116273
0.0101136
0.008883
0.00787278
0.00703555
0.0063358
0.00574644
0.00524673
0.00482131
0.00446441
0.295943
0.148782
0.0871941
0.0576749
0.0415194
0.0310722
0.024645
0.0202209
0.0169049
0.0143247
0.012308
0.0107017
0.00939525
0.00832101
0.0074287
0.00668081
0.00604823
0.00550911
0.00505062
0.00470182
0.320484
0.23086
0.167176
0.123531
0.0935159
0.0724825
0.0574406
0.0464211
0.0381536
0.031817
0.0268706
0.0229462
0.0197873
0.0172118
0.0150879
0.0133189
0.0118315
0.0105699
0.00949095
0.00856426
0.323714
0.247819
0.191099
0.14881
0.117249
0.0935707
0.0756572
0.0619604
0.0513625
0.043061
0.0364789
0.031199
0.0269171
0.0234086
0.0205065
0.0180847
0.0160467
0.0143172
0.0128333
0.0115253
0.32459
0.252403
0.19891
0.158543
0.12769
0.103871
0.08532
0.0707499
0.0592099
0.0499926
0.0425683
0.0365382
0.0316003
0.0275246
0.0241348
0.0212946
0.0188974
0.0168579
0.015102
0.0135447
0.324844
0.253685
0.20131
0.161836
0.131535
0.107943
0.0893701
0.0746126
0.0627921
0.0532535
0.0455015
0.0391575
0.0339304
0.0295946
0.0259743
0.0229316
0.0203572
0.018162
0.0162653
0.0145662
0.324844
0.253685
0.20131
0.161836
0.131535
0.107943
0.0893701
0.0746126
0.0627921
0.0532535
0.0455015
0.0391575
0.0339304
0.0295946
0.0259743
0.0229316
0.0203572
0.018162
0.0162653
0.0145662
0.32459
0.252403
0.19891
0.158543
0.12769
0.103871
0.0853201
0.0707499
0.05921
0.0499928
0.0425685
0.0365384
0.0316006
0.0275251
0.0241354
0.0212954
0.0188985
0.0168596
0.0151057
0.0135574
0.323714
0.247819
0.191099
0.14881
0.117249
0.0935708
0.0756574
0.0619607
0.0513629
0.0430615
0.0364795
0.0311999
0.0269182
0.0234102
0.0205088
0.0180878
0.0160509
0.0143232
0.0128433
0.0115524
0.320484
0.23086
0.167176
0.123531
0.093516
0.0724827
0.0574409
0.0464215
0.0381542
0.0318178
0.0268716
0.0229477
0.0197895
0.017215
0.0150927
0.0133255
0.0118407
0.0105825
0.00950801
0.00858449
0.295943
0.148782
0.0871941
0.057675
0.0415194
0.0310723
0.0246452
0.0202212
0.0169052
0.0143252
0.0123087
0.0107027
0.00939666
0.00832311
0.00743202
0.00668559
0.0060551
0.00551877
0.00506244
0.00469989
0.295943
0.148782
0.0871941
0.057675
0.0415194
0.0310723
0.0246452
0.0202212
0.0169052
0.0143252
0.0123087
0.0107027
0.0093967
0.00832316
0.00743195
0.00668553
0.00605506
0.00551875
0.00506242
0.00469948
0.320484
0.23086
0.167176
0.123531
0.093516
0.0724826
0.0574409
0.0464215
0.0381542
0.0318177
0.0268716
0.0229477
0.0197895
0.0172151
0.0150926
0.0133255
0.0118407
0.0105826
0.00950823
0.00858527
0.323714
0.247819
0.191099
0.14881
0.117249
0.0935708
0.0756574
0.0619607
0.0513629
0.0430614
0.0364795
0.0311999
0.0269182
0.0234103
0.0205088
0.0180878
0.016051
0.0143232
0.0128434
0.0115527
0.32459
0.252403
0.19891
0.158543
0.12769
0.103871
0.0853201
0.0707499
0.05921
0.0499928
0.0425685
0.0365384
0.0316006
0.0275251
0.0241354
0.0212954
0.0188985
0.0168596
0.0151056
0.0135575
0.324844
0.253685
0.20131
0.161836
0.131535
0.107943
0.0893701
0.0746126
0.0627921
0.0532535
0.0455015
0.0391575
0.0339304
0.0295946
0.0259743
0.0229316
0.0203572
0.018162
0.0162653
0.0145662
0.324844
0.253685
0.20131
0.161836
0.131535
0.107943
0.0893701
0.0746126
0.0627921
0.0532535
0.0455015
0.0391575
0.0339304
0.0295946
0.0259743
0.0229316
0.0203572
0.018162
0.0162653
0.0145661
0.32459
0.252403
0.19891
0.158543
0.12769
0.103871
0.08532
0.0707499
0.0592099
0.0499926
0.0425683
0.0365382
0.0316003
0.0275246
0.0241349
0.0212946
0.0188974
0.016858
0.0151021
0.0135444
0.323714
0.247819
0.191099
0.14881
0.117249
0.0935707
0.0756572
0.0619604
0.0513626
0.043061
0.0364789
0.031199
0.026917
0.0234086
0.0205065
0.0180847
0.0160467
0.0143172
0.0128332
0.0115249
0.320484
0.23086
0.167176
0.123531
0.0935159
0.0724825
0.0574406
0.0464211
0.0381536
0.031817
0.0268706
0.0229462
0.0197873
0.0172117
0.0150881
0.013319
0.0118316
0.01057
0.00949091
0.00856389
0.295943
0.148782
0.0871941
0.0576749
0.0415194
0.0310722
0.024645
0.0202209
0.0169049
0.0143247
0.0123081
0.0107017
0.00939521
0.00832092
0.00742883
0.00668093
0.00604835
0.00550922
0.00505073
0.00470194
0.292299
0.141633
0.0819302
0.0541654
0.0389231
0.0292875
0.0232724
0.0190788
0.0159344
0.0135153
0.0116273
0.0101136
0.00888301
0.00787275
0.00703557
0.00633583
0.00574648
0.0052468
0.00482142
0.0044644
0.319723
0.227073
0.162232
0.118772
0.0893612
0.0689929
0.0545308
0.0439847
0.0361002
0.0300753
0.025383
0.0216665
0.0186796
0.016248
0.014246
0.0125811
0.0111844
0.0100032
0.00899661
0.00813547
0.323293
0.245617
0.187499
0.144537
0.112864
0.0894039
0.0718633
0.0585865
0.0483997
0.0404744
0.034225
0.0292337
0.0251998
0.0219037
0.0191833
0.0169173
0.0150135
0.013401
0.0120225
0.0108249
0.324288
0.250862
0.19613
0.154888
0.123591
0.09968
0.0812741
0.0669838
0.0557847
0.0469223
0.0398395
0.0341236
0.0294673
0.0256399
0.0224669
0.0198149
0.0175811
0.0156842
0.0140554
0.0126191
0.32459
0.252403
0.19891
0.158543
0.12769
0.103871
0.08532
0.0707499
0.0592099
0.0499926
0.0425683
0.0365382
0.0316003
0.0275246
0.0241349
0.0212946
0.0188974
0.016858
0.0151021
0.0135446
0.32459
0.252403
0.19891
0.158543
0.12769
0.103871
0.0853201
0.0707499
0.05921
0.0499928
0.0425685
0.0365384
0.0316006
0.0275251
0.0241355
0.0212954
0.0188985
0.0168596
0.0151056
0.0135574
0.324288
0.250862
0.19613
0.154888
0.123591
0.09968
0.0812741
0.0669838
0.0557847
0.0469223
0.0398395
0.0341236
0.0294673
0.0256399
0.0224669
0.0198149
0.017581
0.0156841
0.0140553
0.0126189
0.323293
0.245617
0.187499
0.144536
0.112864
0.0894038
0.0718631
0.0585862
0.0483992
0.0404737
0.034224
0.0292323
0.0251978
0.0219009
0.0191794
0.0169118
0.0150059
0.0133901
0.0120042
0.0107715
0.319723
0.227073
0.162232
0.118772
0.0893609
0.0689925
0.0545302
0.043984
0.0360991
0.0300738
0.0253808
0.0216633
0.0186749
0.0162412
0.0142362
0.0125671
0.0111641
0.00997417
0.00895515
0.00807277
0.292299
0.141633
0.0819301
0.0541653
0.038923
0.0292873
0.0232721
0.0190783
0.0159337
0.0135144
0.0116259
0.0101115
0.00887986
0.00786798
0.00702848
0.00632527
0.00573064
0.00522328
0.00479009
0.00446385
0.283364
0.126774
0.071702
0.0473282
0.0338663
0.0256617
0.0204609
0.0167972
0.0140488
0.0119416
0.0102846
0.00895667
0.00788598
0.00701262
0.00629079
0.00568805
0.00518252
0.00475698
0.00440009
0.00411039
0.31754
0.217754
0.151085
0.108549
0.0807156
0.0618726
0.0486773
0.0391418
0.0320587
0.0266716
0.0224902
0.0191875
0.0165393
0.0143874
0.0126186
0.0111507
0.00992216
0.00888532
0.00800771
0.00726302
0.322005
0.239026
0.177588
0.133616
0.102323
0.0798668
0.0635104
0.0513819
0.0422213
0.035179
0.0296752
0.0253087
0.0217972
0.0189385
0.0165853
0.0146287
0.0129872
0.0115983
0.0104125
0.00937835
0.323293
0.245617
0.187499
0.144536
0.112864
0.0894037
0.0718631
0.0585862
0.0483992
0.0404737
0.034224
0.0292323
0.0251978
0.0219009
0.0191794
0.0169118
0.0150059
0.0133901
0.0120042
0.0107716
0.323714
0.247819
0.191099
0.14881
0.117249
0.0935707
0.0756572
0.0619604
0.0513626
0.043061
0.0364789
0.031199
0.0269171
0.0234086
0.0205065
0.0180847
0.0160467
0.0143171
0.0128332
0.0115251
0.323714
0.247819
0.191099
0.14881
0.117249
0.0935708
0.0756574
0.0619607
0.0513629
0.0430615
0.0364795
0.0311999
0.0269183
0.0234103
0.0205088
0.0180878
0.0160509
0.0143232
0.0128433
0.0115526
0.323293
0.245617
0.187499
0.144537
0.112864
0.0894039
0.0718633
0.0585866
0.0483997
0.0404745
0.034225
0.0292337
0.0251998
0.0219037
0.0191833
0.0169173
0.0150135
0.0134009
0.0120225
0.0108248
0.322005
0.239026
0.177588
0.133616
0.102323
0.0798668
0.0635104
0.0513819
0.0422214
0.035179
0.0296752
0.0253087
0.0217972
0.0189385
0.0165853
0.0146287
0.0129872
0.0115983
0.0104125
0.00937834
0.31754
0.217754
0.151085
0.108549
0.0807154
0.0618723
0.048677
0.0391412
0.0320579
0.0266704
0.0224885
0.019185
0.0165357
0.014382
0.0126105
0.0111389
0.00990461
0.00885882
0.00796814
0.00717084
0.283364
0.126774
0.0717019
0.0473281
0.0338662
0.0256615
0.0204607
0.0167968
0.0140483
0.0119405
0.0102832
0.00895458
0.0078829
0.00700794
0.00628341
0.00567664
0.00516468
0.00472872
0.00435646
0.00405074
0.264759
0.104702
0.0585298
0.039163
0.0286199
0.0219934
0.017536
0.0143632
0.0120082
0.0102137
0.00881632
0.00770579
0.00680424
0.00606181
0.00545088
0.00495047
0.00453549
0.004191
0.00391605
0.0037089
0.311746
0.197541
0.130357
0.0911456
0.0668021
0.050811
0.0397943
0.0319119
0.026094
0.0216869
0.0182761
0.0155878
0.01344
0.0116968
0.0102652
0.00907667
0.00807999
0.0072367
0.0065315
0.00589546
0.31754
0.217754
0.151085
0.108549
0.0807154
0.0618723
0.0486769
0.0391412
0.0320578
0.0266704
0.0224884
0.019185
0.0165356
0.014382
0.0126105
0.0111388
0.00990447
0.0088586
0.00796798
0.00717026
0.319723
0.227073
0.162232
0.118772
0.0893609
0.0689925
0.0545302
0.043984
0.0360991
0.0300738
0.0253808
0.0216632
0.0186749
0.0162412
0.0142361
0.0125669
0.0111639
0.00997397
0.00895491
0.00807227
0.320484
0.23086
0.167176
0.123531
0.0935159
0.0724825
0.0574406
0.0464211
0.0381536
0.031817
0.0268706
0.0229462
0.0197873
0.0172118
0.0150879
0.0133189
0.0118315
0.0105699
0.00949079
0.00856405
0.320484
0.23086
0.167176
0.123531
0.093516
0.0724826
0.0574409
0.0464215
0.0381542
0.0318178
0.0268716
0.0229477
0.0197895
0.0172151
0.0150926
0.0133255
0.0118406
0.0105825
0.00950811
0.0085852
0.319723
0.227073
0.162232
0.118772
0.0893612
0.0689929
0.0545308
0.0439848
0.0361002
0.0300754
0.025383
0.0216665
0.0186796
0.016248
0.014246
0.0125811
0.0111844
0.0100032
0.00899655
0.00813553
0.31754
0.217754
0.151085
0.108549
0.0807156
0.0618726
0.0486774
0.0391418
0.0320587
0.0266716
0.0224902
0.0191875
0.0165394
0.0143876
0.0126185
0.0111506
0.00992209
0.00888527
0.0080077
0.00726325
0.311746
0.197541
0.130357
0.0911456
0.0668021
0.050811
0.0397943
0.0319119
0.026094
0.021687
0.0182761
0.0155879
0.0134401
0.011697
0.0102652
0.00907665
0.00808002
0.00723678
0.00653153
0.00589585
0.264759
0.104702
0.0585298
0.039163
0.0286198
0.0219934
0.017536
0.0143631
0.012008
0.0102134
0.00881587
0.007705
0.00680292
0.00605893
0.00544632
0.00494293
0.00452194
0.00416519
0.00386664
0.00362312
0.213564
0.055916
0.0283994
0.0193411
0.0146927
0.011851
0.00989062
0.00851595
0.00749117
0.00669609
0.00606023
0.00555043
0.00512229
0.00474412
0.00442408
0.004155
0.0039274
0.0037351
0.00359138
0.00342849
0.264759
0.104702
0.0585298
0.039163
0.0286198
0.0219933
0.0175359
0.0143631
0.012008
0.0102134
0.00881584
0.00770498
0.00680289
0.00605881
0.00544629
0.0049429
0.00452188
0.00416507
0.00386648
0.00362283
0.283364
0.126774
0.0717019
0.0473281
0.0338662
0.0256615
0.0204606
0.0167968
0.0140482
0.0119405
0.0102831
0.00895455
0.00788287
0.00700794
0.00628335
0.00567654
0.00516456
0.00472856
0.00435625
0.00405032
0.292299
0.141633
0.0819301
0.0541653
0.038923
0.0292873
0.0232721
0.0190783
0.0159337
0.0135144
0.0116259
0.0101114
0.00887987
0.00786803
0.00702837
0.00632515
0.00573051
0.00522313
0.00478989
0.00446358
0.295943
0.148782
0.0871941
0.0576749
0.0415194
0.0310722
0.024645
0.0202209
0.0169049
0.0143247
0.0123081
0.0107017
0.00939526
0.00832102
0.0074287
0.00668081
0.00604825
0.00550913
0.00505065
0.00470193
0.295943
0.148782
0.0871941
0.057675
0.0415194
0.0310723
0.0246452
0.0202212
0.0169052
0.0143252
0.0123087
0.0107027
0.00939671
0.00832318
0.00743195
0.00668554
0.00605508
0.00551878
0.00506248
0.00469967
0.292299
0.141633
0.0819302
0.0541654
0.0389231
0.0292875
0.0232724
0.0190788
0.0159344
0.0135153
0.0116273
0.0101136
0.00888302
0.00787279
0.00703556
0.00633582
0.00574648
0.0052468
0.00482144
0.00446457
0.283364
0.126774
0.071702
0.0473282
0.0338663
0.0256617
0.0204609
0.0167972
0.0140488
0.0119416
0.0102846
0.00895668
0.00788601
0.00701269
0.00629077
0.00568801
0.00518249
0.00475695
0.00440007
0.00411037
0.264759
0.104702
0.0585298
0.039163
0.0286199
0.0219934
0.017536
0.0143632
0.0120082
0.0102137
0.00881634
0.0077058
0.00680425
0.00606195
0.00545089
0.00495044
0.00453547
0.00419098
0.00391601
0.00370892
0.213564
0.055916
0.0283994
0.0193411
0.0146927
0.011851
0.00989062
0.00851596
0.00749117
0.00669611
0.00606021
0.00555048
0.00512224
0.00474422
0.00442407
0.004155
0.00392741
0.00373513
0.00359139
0.00342857
0.00384479
0.00346154
0.00313615
0.00294232
0.00281788
0.00273049
0.00265934
0.00259464
0.00253635
0.00248745
0.00244174
0.00239988
0.0023552
0.00231159
0.00227119
0.0022316
0.00219528
0.00215982
0.0021267
0.00209495
0.00206348
0.00203332
0.00200514
0.00197659
0.00195185
0.0019271
0.00190334
0.00188024
0.00185833
0.00183615
0.00181588
0.00179588
0.00177683
0.00175862
0.00174086
0.00172391
0.00170824
0.00169293
0.00168038
0.00165792
0.00334813
0.00307961
0.00286886
0.002728
0.00261752
0.00252886
0.00245009
0.00237653
0.0023062
0.00224607
0.00219089
0.00214357
0.00209473
0.00204887
0.00200456
0.00196187
0.00192303
0.00188653
0.00185251
0.0018207
0.00178965
0.00175986
0.00173224
0.00170558
0.00168138
0.00165869
0.00163679
0.00161566
0.00159523
0.00157514
0.00155595
0.00153751
0.00151986
0.0015029
0.00148669
0.00147122
0.00145653
0.00144244
0.00142936
0.00141457
0.00393991
0.00347528
0.0031838
0.00298948
0.00283836
0.0027091
0.00259766
0.0025003
0.00241371
0.00233447
0.00226307
0.00219819
0.00214014
0.00208979
0.00203622
0.00198661
0.00194227
0.00190108
0.001863
0.00182663
0.00179177
0.00175622
0.00172336
0.00169361
0.00166697
0.00164156
0.00161688
0.00159313
0.00157035
0.00154838
0.0015273
0.00150681
0.00148736
0.00146878
0.00145118
0.00143448
0.00141858
0.00140322
0.00138863
0.0013736
0.00407117
0.00370466
0.00343169
0.00321435
0.00303426
0.00288091
0.00274687
0.00262809
0.00252179
0.00242604
0.00233922
0.00225986
0.002186
0.00212042
0.00206039
0.0020048
0.0019533
0.00190606
0.0018615
0.00181618
0.00177438
0.00173686
0.00170074
0.00166675
0.00163507
0.00160558
0.0015777
0.0015515
0.00152628
0.00150248
0.0014798
0.00145741
0.00143623
0.00141627
0.00139768
0.00138001
0.00136341
0.00134731
0.00133202
0.00131617
0.00414888
0.00384487
0.00358572
0.00336273
0.00316904
0.00299947
0.00285097
0.00271904
0.00260001
0.00249211
0.00239391
0.00230392
0.0022205
0.00214625
0.00207803
0.00201542
0.00195838
0.00190542
0.00185607
0.00181034
0.00176773
0.00172907
0.00168871
0.00165159
0.0016177
0.00158584
0.00155616
0.00152823
0.00150179
0.00147728
0.00145424
0.00143139
0.00140976
0.00138975
0.00137045
0.00135226
0.00133493
0.00131844
0.00130294
0.00128851
0.00420076
0.00391782
0.0036629
0.00343559
0.00323379
0.00305444
0.00289516
0.00275373
0.00262601
0.00250963
0.00240367
0.00230695
0.00221788
0.00213832
0.00206553
0.00199888
0.00193781
0.00188213
0.00183141
0.00178472
0.00174168
0.00170206
0.00166466
0.00163244
0.00159724
0.00156268
0.0015313
0.00150275
0.00147643
0.00145249
0.00142975
0.00140855
0.0013879
0.00136657
0.00134752
0.00132928
0.0013131
0.0012973
0.00128251
0.00126845
0.00430482
0.00397051
0.00368456
0.00343711
0.00322024
0.00302857
0.00285961
0.00271008
0.00257661
0.00245715
0.00235005
0.00225375
0.00216647
0.00208867
0.00201804
0.00195374
0.00189514
0.00184164
0.00179287
0.00174836
0.00170783
0.00166965
0.00163361
0.00160122
0.0015663
0.0015337
0.00150444
0.00147763
0.00145257
0.00142889
0.00140664
0.00138628
0.00136541
0.00134605
0.00132786
0.0013119
0.00129648
0.0012811
0.00126625
0.00125214
0.00426649
0.00387743
0.00355808
0.00329864
0.00307679
0.00288508
0.00272091
0.00257962
0.00245649
0.00234788
0.00225167
0.0021659
0.00208789
0.00201789
0.00195423
0.00189621
0.0018435
0.00179532
0.00175105
0.0017101
0.00167364
0.0016362
0.00160155
0.00156877
0.0015392
0.00151078
0.00148464
0.00146009
0.0014352
0.00141136
0.00139021
0.00137149
0.00135344
0.00133572
0.00131876
0.00130255
0.00128711
0.00127182
0.00125716
0.00124302
0.00408538
0.00366409
0.00331758
0.00304082
0.0028378
0.00267304
0.00253758
0.00242335
0.00232284
0.00223391
0.00215517
0.00208407
0.0020209
0.00196252
0.00190944
0.00185567
0.00180728
0.00176504
0.00172517
0.00168839
0.00165384
0.00162078
0.00159043
0.00155991
0.0015321
0.00150569
0.00148151
0.00145865
0.00143746
0.00141709
0.00139827
0.00138035
0.00136334
0.00134695
0.0013314
0.00131662
0.00130214
0.00128774
0.00127405
0.00126047
0.0037832
0.00340757
0.00307316
0.00282634
0.00265238
0.0025264
0.00242583
0.00233653
0.00225728
0.00218827
0.00213081
0.00207755
0.00202591
0.0019702
0.00192231
0.00187765
0.00183629
0.00179799
0.00176196
0.00172832
0.00169634
0.00166647
0.00163904
0.0016117
0.00158741
0.00156453
0.00154293
0.0015223
0.00150261
0.00148338
0.00146549
0.00144841
0.00143213
0.00141656
0.00140166
0.00138757
0.00137368
0.00136047
0.00134853
0.0013352
0.00384495
0.00346135
0.0031373
0.00294197
0.00281887
0.00273515
0.00266533
0.00259981
0.00254033
0.00248765
0.00244353
0.00239813
0.00235304
0.00230929
0.00226877
0.00223014
0.00219384
0.00215886
0.00212588
0.00209396
0.00206282
0.00203266
0.00200488
0.00197634
0.00195187
0.00192702
0.0019036
0.00188065
0.00185897
0.00183717
0.00181695
0.00179704
0.00177814
0.00175997
0.0017425
0.00172598
0.00170984
0.00169457
0.0016818
0.00165917
0.00378378
0.00340717
0.00307043
0.00282721
0.00265207
0.00252141
0.00241846
0.00233004
0.00225158
0.00218681
0.00212783
0.00207832
0.0020286
0.00197356
0.00192565
0.0018798
0.00183863
0.00179956
0.00176355
0.00172971
0.0016976
0.00166749
0.00163988
0.00161206
0.00158757
0.00156464
0.00154288
0.00152207
0.0015022
0.00148253
0.0014645
0.00144734
0.00143101
0.00141528
0.00140017
0.00138581
0.00137208
0.001359
0.00134721
0.001334
0.0043576
0.00381151
0.00346685
0.00323901
0.00302315
0.00285285
0.00268831
0.00252732
0.00237509
0.00225332
0.00213368
0.00203716
0.0019206
0.00181167
0.00172389
0.00163727
0.00156511
0.00149522
0.00143334
0.00137622
0.00131597
0.00126024
0.00121551
0.00116545
0.00112608
0.00108999
0.00105651
0.00102462
0.000995886
0.000963125
0.00093765
0.000913893
0.000892113
0.000872045
0.000850888
0.000833092
0.00081677
0.00080169
0.000788129
0.000776347
0.00591674
0.00532569
0.00483296
0.00443128
0.00408575
0.00378514
0.00352012
0.00328478
0.00307546
0.0028859
0.00271638
0.0025617
0.00242098
0.00228966
0.00217744
0.00206821
0.0019746
0.00188403
0.00180436
0.00172887
0.00165585
0.00159082
0.00152929
0.00147048
0.0014135
0.00136366
0.00131691
0.00127192
0.00123282
0.00119186
0.00115651
0.0011208
0.00108995
0.00105847
0.00103066
0.00100311
0.000978332
0.000952737
0.000929456
0.000900007
0.00689129
0.00620457
0.00562951
0.00514402
0.00472931
0.00437023
0.00405313
0.0037707
0.00351799
0.00329127
0.00308772
0.00290478
0.00273767
0.00258744
0.00245135
0.00232712
0.00221371
0.00211025
0.00201455
0.00192849
0.00184579
0.00177326
0.00170183
0.00163865
0.00157733
0.00152347
0.00147061
0.00142352
0.00137686
0.00133393
0.00129294
0.0012526
0.00121724
0.00118137
0.0011495
0.00111837
0.00108846
0.00105825
0.00103041
0.00099583
0.00728454
0.00661685
0.00603254
0.0055224
0.00507599
0.00468343
0.00434082
0.00403843
0.00376638
0.00352094
0.0032998
0.00310025
0.00292
0.00275658
0.00260834
0.00247344
0.00235046
0.00223806
0.00213502
0.0020402
0.0019539
0.00186932
0.00178926
0.00172023
0.00166043
0.00160311
0.00155
0.00149742
0.00144735
0.00140049
0.00135732
0.00131509
0.00127764
0.00123991
0.00120497
0.00117107
0.00113751
0.00110477
0.00107335
0.00103503
0.00746702
0.00677872
0.00617794
0.00565303
0.00519338
0.00478918
0.00443414
0.00412414
0.00384825
0.00359878
0.0033734
0.00316973
0.00298616
0.00281943
0.00266806
0.00253019
0.0024043
0.00228908
0.00218338
0.00208609
0.00199658
0.00191333
0.0018371
0.0017607
0.00168734
0.0016216
0.00156671
0.00151676
0.00146989
0.00142519
0.00138231
0.00134288
0.001304
0.00126314
0.0012234
0.00118646
0.00115033
0.00111609
0.00108268
0.00104231
0.00728218
0.00660241
0.00601026
0.00549554
0.00504753
0.00465607
0.004316
0.00401851
0.0037525
0.00351294
0.0032972
0.0031024
0.00292598
0.00276591
0.0026202
0.00248715
0.00236515
0.00225309
0.00214985
0.00205458
0.0019666
0.00188455
0.00180896
0.00173574
0.00166943
0.00160522
0.00154667
0.0014901
0.00144048
0.00139043
0.00134551
0.00130226
0.00126112
0.00122117
0.00118334
0.00114784
0.00111271
0.00107935
0.00104636
0.00100582
0.0067058
0.00604176
0.0054863
0.00501944
0.00462066
0.00427756
0.00397863
0.00371244
0.00347389
0.00325889
0.00306509
0.00288804
0.00272547
0.00257834
0.00244329
0.00231947
0.00220494
0.00210005
0.00200259
0.00191284
0.00182953
0.00175039
0.00167872
0.00160514
0.00154264
0.00148001
0.00142566
0.00137058
0.00132274
0.00127236
0.00122973
0.00118706
0.00114775
0.00110793
0.00107386
0.00103977
0.00100749
0.000975598
0.000944093
0.000906432
0.00571925
0.00509876
0.00462576
0.00424675
0.00393394
0.0036656
0.00342787
0.00320882
0.00301
0.00282844
0.00266499
0.002505
0.002363
0.00223127
0.00210962
0.00200026
0.00189442
0.00180518
0.00171588
0.0016395
0.00156282
0.00149313
0.00143127
0.00136672
0.00131231
0.00125737
0.00121194
0.00116499
0.00112615
0.00108295
0.00104827
0.00101332
0.000982587
0.000951187
0.000924265
0.000899064
0.000872273
0.000846682
0.000823167
0.000803443
0.00435912
0.00381231
0.00346967
0.00323241
0.00304217
0.00287282
0.00270983
0.00254384
0.00238739
0.00225433
0.00214784
0.00202795
0.00191275
0.00180607
0.00171582
0.00163178
0.00155814
0.00148982
0.00142828
0.00137068
0.0013107
0.00125576
0.00121221
0.00116263
0.00112451
0.0010879
0.00105503
0.00102315
0.000994696
0.000963207
0.000938012
0.000914387
0.00089287
0.000872394
0.00085367
0.000836841
0.000818365
0.000803256
0.00078889
0.000776396
0.00334846
0.00308077
0.00287044
0.00272692
0.00262037
0.0025338
0.00245637
0.00238185
0.00231123
0.00224707
0.00219462
0.00214278
0.00209359
0.0020475