/*--------------------------------*- C++ -*----------------------------------*\
| =========                 |                                                 |
| \\      /  F ield         | OpenFOAM: The Open Source CFD Toolbox           |
|  \\    /   O peration     | Version:  2212                                  |
|   \\  /    A nd           | Website:  www.openfoam.com                      |
|    \\/     M anipulation  |                                                 |
\*---------------------------------------------------------------------------*/
FoamFile
{
    version     2.0;
    format      ascii;
    arch        "LSB;label=32;scalar=64";
    class       volScalarField;
    location    "2.9";
    object      p;
}
// * * * * * * * * * * * * * * * * * * * * * * * * * * * * * * * * * * * * * //

dimensions      [0 2 -2 0 0 0 0];

internalField   nonuniform List<scalar> 
6840
(
0.0178261
0.0107117
0.00842026
0.00788245
0.00760811
0.00738593
0.00719935
0.00703301
0.00687197
0.00671271
0.00655534
0.00639975
0.00624489
0.00608979
0.00593452
0.00577931
0.00562495
0.0054704
0.00530204
0.00503672
0.0106473
0.00991347
0.00882058
0.00815461
0.00775202
0.0074783
0.00726714
0.00708091
0.00690649
0.00673912
0.00657631
0.00641623
0.00625721
0.00609818
0.00593887
0.00577915
0.00561565
0.00543885
0.00522123
0.00490372
0.010299
0.00944752
0.00868325
0.00812411
0.00774794
0.00747986
0.00726412
0.00707107
0.00689243
0.00672352
0.00655938
0.00639769
0.00623771
0.00607874
0.00591944
0.00575773
0.00559069
0.00541421
0.00522598
0.00502153
0.00988973
0.009127
0.00850823
0.00805689
0.00771289
0.0074438
0.00722407
0.00703505
0.00686688
0.00670888
0.0065523
0.00639553
0.00623904
0.00608298
0.00592693
0.0057703
0.00561254
0.00545381
0.00529669
0.00514317
0.00975552
0.00901433
0.00842615
0.00801801
0.00769603
0.00742924
0.00720759
0.00701675
0.00684564
0.00668837
0.00653756
0.00638617
0.00623314
0.00607993
0.00592755
0.00577648
0.00562703
0.00547942
0.00533246
0.00518959
0.00975553
0.00901435
0.00842618
0.00801806
0.0076961
0.00742935
0.00720777
0.00701705
0.00684614
0.00668919
0.0065389
0.00638836
0.00623671
0.00608566
0.00593661
0.00579065
0.00564878
0.00551145
0.0053752
0.00524189
0.00988978
0.00912705
0.0085083
0.00805699
0.00771303
0.00744404
0.00722449
0.00703579
0.00686813
0.00671095
0.00655569
0.00640104
0.00624788
0.00609714
0.00594973
0.00580707
0.00567128
0.0055444
0.00542672
0.0053209
0.0102991
0.00944756
0.0086833
0.00812419
0.00774807
0.00748012
0.00726458
0.00707183
0.00689369
0.00672566
0.00656299
0.00640365
0.00624744
0.00609472
0.00594598
0.0058023
0.00566643
0.00554176
0.0054379
0.00537108
0.0106473
0.00991348
0.0088206
0.00815464
0.00775209
0.00747842
0.00726734
0.00708128
0.00690712
0.00674022
0.00657812
0.00641926
0.00626245
0.00610754
0.00595542
0.00580777
0.00566448
0.00552635
0.00540218
0.00531719
0.0178261
0.0107117
0.00842026
0.00788244
0.0076081
0.00738592
0.00719935
0.00703299
0.00687195
0.00671269
0.00655532
0.00639972
0.00624486
0.00608976
0.00593448
0.00577925
0.00562487
0.00547031
0.00530194
0.00503653
0.0106473
0.00991349
0.00882061
0.00815465
0.00775209
0.00747843
0.00726735
0.00708129
0.00690714
0.00674024
0.00657814
0.00641929
0.00626248
0.00610757
0.00595546
0.00580784
0.00566457
0.00552645
0.00540232
0.00531739
0.00993075
0.00989905
0.00917084
0.00846035
0.00801404
0.00769815
0.00743933
0.0072118
0.00700742
0.00681936
0.00664215
0.00647213
0.00630644
0.00614349
0.00598288
0.00582392
0.00566639
0.00550965
0.0053614
0.00523886
0.00900526
0.00913144
0.00882857
0.00841236
0.00804523
0.00772659
0.00744804
0.00720757
0.00699491
0.00680025
0.00661679
0.0064412
0.00627139
0.00610531
0.00594127
0.00577767
0.00561345
0.00544782
0.00528093
0.00512368
0.00858685
0.00863036
0.00846478
0.00820184
0.00792145
0.00765009
0.00739903
0.00717256
0.00696933
0.00678236
0.00660469
0.00643314
0.00626634
0.00610295
0.00594155
0.00578121
0.00562145
0.00546276
0.00530691
0.0051588
0.00837087
0.0083927
0.00826549
0.00804796
0.00781551
0.00758632
0.00736345
0.00715021
0.00694931
0.00676176
0.00658498
0.00641552
0.00625175
0.00609214
0.0059352
0.00578099
0.00562998
0.00548255
0.00534019
0.00520341
0.00837091
0.00839274
0.00826554
0.00804805
0.00781565
0.00758651
0.00736374
0.00715064
0.00694994
0.0067628
0.00658679
0.00641853
0.00625648
0.00609945
0.00594622
0.00579697
0.00565284
0.00551485
0.00538397
0.00525524
0.00858693
0.00863044
0.00846489
0.008202
0.00792168
0.00765041
0.00739951
0.00717332
0.0069706
0.00678471
0.00660895
0.0064401
0.00627663
0.00611803
0.0059647
0.00581726
0.00567645
0.0055439
0.00542184
0.00530573
0.00900529
0.00913149
0.00882863
0.00841245
0.00804535
0.00772679
0.00744839
0.00720819
0.00699603
0.00680213
0.00661977
0.00644591
0.00627891
0.00611761
0.00596145
0.00581045
0.00566593
0.00553015
0.00540867
0.00531841
0.00993074
0.00989904
0.00917083
0.00846034
0.00801403
0.00769814
0.00743932
0.00721179
0.00700741
0.00681935
0.00664213
0.0064721
0.00630641
0.00614346
0.00598285
0.00582386
0.00566632
0.00550956
0.00536129
0.00523871
0.0106473
0.00991346
0.00882057
0.0081546
0.00775201
0.00747829
0.00726713
0.0070809
0.00690648
0.00673911
0.00657629
0.00641621
0.00625717
0.00609815
0.00593884
0.0057791
0.00561558
0.00543877
0.00522111
0.00490356
0.0102991
0.00944757
0.00868331
0.0081242
0.00774808
0.00748013
0.00726459
0.00707184
0.00689371
0.00672568
0.00656301
0.00640367
0.00624747
0.00609475
0.00594603
0.00580236
0.00566651
0.00554185
0.00543803
0.00537129
0.0090053
0.0091315
0.00882864
0.00841246
0.00804536
0.0077268
0.0074484
0.0072082
0.00699604
0.00680214
0.00661979
0.00644592
0.00627893
0.00611764
0.00596149
0.00581048
0.00566598
0.00553021
0.00540874
0.00531846
0.00843579
0.00853677
0.00842522
0.00819978
0.00794406
0.00768571
0.00742741
0.00718594
0.00696828
0.00676835
0.00658121
0.0064038
0.0062336
0.00606864
0.00590771
0.00574988
0.00559441
0.00544118
0.00529011
0.00513973
0.00806776
0.00813582
0.00808344
0.00793646
0.0077516
0.00754649
0.00733586
0.00712899
0.00692792
0.00673554
0.00655298
0.00637841
0.00620986
0.00604585
0.00588531
0.00572723
0.00557057
0.00541425
0.00525679
0.0050959
0.00788468
0.00794912
0.00791965
0.00779479
0.00763576
0.00746206
0.00727576
0.00708772
0.00690153
0.00671803
0.00653876
0.00636471
0.00619625
0.00603269
0.00587344
0.00571823
0.00556601
0.00541553
0.00526646
0.00511555
0.00788471
0.00794914
0.00791968
0.00779487
0.00763591
0.00746227
0.00727602
0.00708806
0.00690203
0.0067188
0.00653995
0.00636647
0.00619877
0.0060364
0.00587904
0.00572622
0.00557693
0.00543118
0.00529049
0.00514749
0.0080678
0.00813587
0.00808351
0.00793659
0.0077518
0.00754674
0.00733617
0.00712946
0.00692864
0.00673671
0.00655492
0.00638145
0.00621439
0.00605261
0.0058954
0.00574162
0.00559117
0.00544555
0.00530614
0.00516313
0.00843578
0.00853676
0.00842521
0.00819977
0.00794405
0.0076857
0.00742739
0.00718593
0.00696827
0.00676833
0.0065812
0.00640379
0.00623358
0.00606861
0.00590769
0.00574987
0.00559439
0.00544116
0.0052901
0.00513977
0.00900524
0.00913143
0.00882855
0.00841235
0.00804522
0.00772658
0.00744803
0.00720755
0.0069949
0.00680024
0.00661678
0.00644118
0.00627137
0.00610528
0.00594123
0.00577764
0.00561341
0.00544777
0.00528087
0.0051236
0.010299
0.00944751
0.00868324
0.0081241
0.00774793
0.00747985
0.00726411
0.00707106
0.00689242
0.00672351
0.00655936
0.00639767
0.00623769
0.00607871
0.00591942
0.00575769
0.00559063
0.00541413
0.00522589
0.00502142
0.00988979
0.00912706
0.00850831
0.008057
0.00771304
0.00744405
0.0072245
0.00703581
0.00686814
0.00671096
0.00655571
0.00640106
0.0062479
0.00609717
0.00594976
0.00580711
0.00567134
0.00554447
0.00542681
0.00532102
0.00858694
0.00863045
0.00846491
0.00820201
0.00792169
0.00765042
0.00739953
0.00717334
0.00697061
0.00678472
0.00660896
0.00644012
0.00627665
0.00611805
0.00596472
0.00581728
0.00567649
0.00554394
0.00542188
0.00530573
0.00806781
0.00813588
0.00808352
0.0079366
0.00775181
0.00754675
0.00733618
0.00712947
0.00692865
0.00673672
0.00655493
0.00638146
0.0062144
0.00605262
0.0058954
0.00574163
0.00559118
0.00544555
0.00530613
0.00516307
0.00776989
0.00782903
0.00781711
0.00772173
0.00758212
0.00741666
0.00723652
0.0070521
0.00686821
0.00668797
0.006513
0.00634318
0.00617791
0.00601659
0.00585866
0.00570341
0.00555021
0.00539866
0.00524929
0.00509614
0.00761875
0.00768165
0.00768541
0.00761176
0.00749163
0.00734523
0.00718232
0.00701087
0.0068367
0.00666311
0.00649193
0.00632405
0.00615975
0.00599891
0.0058412
0.00568628
0.00553344
0.00538227
0.00523341
0.00508094
0.00761876
0.00768166
0.00768543
0.00761178
0.00749167
0.00734529
0.00718241
0.007011
0.00683688
0.00666335
0.00649227
0.00632452
0.00616042
0.00599991
0.00584276
0.00568845
0.00553619
0.00538572
0.0052381
0.00508623
0.00776988
0.00782903
0.0078171
0.00772172
0.00758211
0.00741665
0.00723651
0.00705209
0.0068682
0.00668796
0.00651299
0.00634318
0.00617791
0.00601659
0.00585865
0.0057034
0.00555021
0.00539866
0.0052493
0.00509616
0.00806775
0.00813581
0.00808343
0.00793645
0.00775159
0.00754648
0.00733585
0.00712898
0.00692791
0.00673553
0.00655297
0.0063784
0.00620984
0.00604583
0.00588529
0.00572722
0.00557055
0.00541424
0.00525678
0.00509592
0.00858684
0.00863035
0.00846477
0.00820183
0.00792144
0.00765008
0.00739902
0.00717255
0.00696932
0.00678235
0.00660468
0.00643312
0.00626632
0.00610292
0.00594151
0.00578117
0.00562141
0.00546271
0.00530686
0.00515877
0.00988972
0.00912699
0.00850822
0.00805688
0.00771288
0.00744379
0.00722406
0.00703504
0.00686686
0.00670887
0.00655228
0.00639551
0.00623901
0.00608295
0.00592689
0.00577024
0.00561246
0.0054537
0.00529654
0.00514296
0.00975554
0.00901436
0.00842619
0.00801807
0.00769611
0.00742937
0.00720779
0.00701706
0.00684616
0.00668921
0.00653891
0.00638837
0.00623673
0.00608568
0.00593663
0.00579067
0.00564881
0.00551149
0.00537526
0.00524196
0.00837092
0.00839275
0.00826555
0.00804807
0.00781566
0.00758652
0.00736376
0.00715066
0.00694995
0.00676282
0.0065868
0.00641855
0.0062565
0.00609947
0.00594624
0.00579699
0.00565286
0.00551488
0.005384
0.00525526
0.00788472
0.00794915
0.00791969
0.00779488
0.00763592
0.00746228
0.00727604
0.00708808
0.00690204
0.00671881
0.00653996
0.00636649
0.00619878
0.00603641
0.00587904
0.00572623
0.00557694
0.00543119
0.0052905
0.00514748
0.00761877
0.00768167
0.00768543
0.00761179
0.00749167
0.0073453
0.00718242
0.00701101
0.00683689
0.00666336
0.00649228
0.00632452
0.00616042
0.00599992
0.00584276
0.00568845
0.00553619
0.00538571
0.00523808
0.0050862
0.00747595
0.00754546
0.00756759
0.00751504
0.00741379
0.00728285
0.00713291
0.00697191
0.00680538
0.00663703
0.00646922
0.00630337
0.00614024
0.00598014
0.00582309
0.0056688
0.00551673
0.00536706
0.00522149
0.00507287
0.00747594
0.00754546
0.00756759
0.00751504
0.00741378
0.00728284
0.00713291
0.0069719
0.00680538
0.00663703
0.00646921
0.00630336
0.00614024
0.00598014
0.00582308
0.0056688
0.00551673
0.00536707
0.0052215
0.00507287
0.00761874
0.00768164
0.0076854
0.00761175
0.00749163
0.00734522
0.00718231
0.00701086
0.00683669
0.0066631
0.00649192
0.00632405
0.00615975
0.0059989
0.0058412
0.00568627
0.00553343
0.00538227
0.00523341
0.00508096
0.00788467
0.00794911
0.00791964
0.00779478
0.00763575
0.00746205
0.00727575
0.00708771
0.00690152
0.00671802
0.00653875
0.0063647
0.00619624
0.00603268
0.00587343
0.00571822
0.00556601
0.00541553
0.00526651
0.00511571
0.00837086
0.00839269
0.00826548
0.00804795
0.0078155
0.00758631
0.00736344
0.00715019
0.00694929
0.00676174
0.00658497
0.0064155
0.00625173
0.00609212
0.00593517
0.00578096
0.00562994
0.0054825
0.00534017
0.00520348
0.00975551
0.00901432
0.00842614
0.008018
0.00769602
0.00742923
0.00720758
0.00701674
0.00684563
0.00668836
0.00653755
0.00638615
0.00623312
0.00607991
0.00592751
0.00577642
0.00562694
0.00547927
0.00533221
0.00518916
0.00975553
0.00901435
0.00842616
0.00801803
0.00769604
0.00742926
0.00720761
0.00701676
0.00684566
0.00668839
0.00653758
0.00638619
0.00623316
0.00607995
0.00592757
0.00577649
0.00562704
0.00547942
0.00533247
0.00518958
0.00837089
0.00839271
0.00826551
0.00804797
0.00781553
0.00758633
0.00736346
0.00715022
0.00694932
0.00676178
0.006585
0.00641554
0.00625177
0.00609216
0.00593522
0.00578101
0.00563
0.00548257
0.00534022
0.00520345
0.00788469
0.00794913
0.00791966
0.0077948
0.00763577
0.00746207
0.00727577
0.00708773
0.00690154
0.00671804
0.00653878
0.00636473
0.00619627
0.00603271
0.00587346
0.00571824
0.00556603
0.00541555
0.0052665
0.00511559
0.00761876
0.00768165
0.00768541
0.00761176
0.00749164
0.00734524
0.00718233
0.00701088
0.00683671
0.00666312
0.00649194
0.00632406
0.00615976
0.00599891
0.00584121
0.00568628
0.00553344
0.00538227
0.00523341
0.00508093
0.00747595
0.00754547
0.00756759
0.00751504
0.00741379
0.00728285
0.00713291
0.00697191
0.00680539
0.00663703
0.00646922
0.00630337
0.00614024
0.00598014
0.00582308
0.00566879
0.00551673
0.00536706
0.00522148
0.00507285
0.00747594
0.00754546
0.00756759
0.00751504
0.00741379
0.00728284
0.00713291
0.0069719
0.00680538
0.00663703
0.00646921
0.00630336
0.00614024
0.00598014
0.00582308
0.00566879
0.00551672
0.00536705
0.00522148
0.00507285
0.00761876
0.00768166
0.00768542
0.00761178
0.00749166
0.00734529
0.00718241
0.007011
0.00683688
0.00666335
0.00649226
0.00632451
0.00616041
0.0059999
0.00584275
0.00568843
0.00553617
0.00538568
0.00523805
0.00508617
0.0078847
0.00794913
0.00791968
0.00779487
0.0076359
0.00746226
0.00727602
0.00708806
0.00690202
0.00671879
0.00653994
0.00636646
0.00619875
0.00603638
0.00587902
0.0057262
0.0055769
0.00543115
0.00529048
0.00514754
0.0083709
0.00839273
0.00826553
0.00804804
0.00781564
0.0075865
0.00736373
0.00715063
0.00694993
0.00676279
0.00658677
0.00641851
0.00625646
0.00609943
0.0059462
0.00579694
0.00565281
0.00551482
0.00538395
0.00525524
0.00975552
0.00901434
0.00842617
0.00801805
0.00769609
0.00742934
0.00720776
0.00701704
0.00684613
0.00668918
0.00653889
0.00638834
0.00623669
0.00608564
0.00593658
0.00579062
0.00564874
0.00551139
0.00537512
0.00524178
0.00988975
0.00912701
0.00850824
0.00805691
0.00771291
0.00744382
0.00722408
0.00703507
0.0068669
0.00670891
0.00655232
0.00639555
0.00623906
0.006083
0.00592695
0.00577031
0.00561254
0.0054538
0.00529667
0.00514311
0.00858686
0.00863037
0.0084648
0.00820186
0.00792146
0.0076501
0.00739904
0.00717258
0.00696935
0.00678238
0.00660471
0.00643316
0.00626636
0.00610297
0.00594156
0.00578123
0.00562146
0.00546277
0.00530692
0.00515882
0.00806777
0.00813583
0.00808345
0.00793648
0.00775161
0.00754651
0.00733587
0.007129
0.00692793
0.00673555
0.00655299
0.00637843
0.00620987
0.00604587
0.00588533
0.00572725
0.00557058
0.00541427
0.0052568
0.00509592
0.00776989
0.00782904
0.00781711
0.00772173
0.00758213
0.00741667
0.00723652
0.00705211
0.00686822
0.00668798
0.00651301
0.00634319
0.00617792
0.0060166
0.00585866
0.00570341
0.0055502
0.00539864
0.00524926
0.00509609
0.00761877
0.00768167
0.00768543
0.00761179
0.00749167
0.0073453
0.00718242
0.00701101
0.00683689
0.00666336
0.00649227
0.00632452
0.00616042
0.00599991
0.00584275
0.00568844
0.00553618
0.0053857
0.00523806
0.00508618
0.00761875
0.00768165
0.00768541
0.00761176
0.00749163
0.00734523
0.00718232
0.00701087
0.0068367
0.00666311
0.00649193
0.00632405
0.00615975
0.0059989
0.00584119
0.00568626
0.00553342
0.00538224
0.00523337
0.00508089
0.00776988
0.00782903
0.0078171
0.00772172
0.00758211
0.00741666
0.00723651
0.0070521
0.00686821
0.00668796
0.00651299
0.00634317
0.0061779
0.00601658
0.00585863
0.00570338
0.00555017
0.0053986
0.00524921
0.00509602
0.0080678
0.00813587
0.00808351
0.00793659
0.00775179
0.00754674
0.00733617
0.00712946
0.00692863
0.0067367
0.00655491
0.00638144
0.00621438
0.0060526
0.00589538
0.00574159
0.00559112
0.00544549
0.00530603
0.00516291
0.00858692
0.00863043
0.00846489
0.00820199
0.00792167
0.0076504
0.00739951
0.00717331
0.00697059
0.0067847
0.00660894
0.00644009
0.00627661
0.00611802
0.00596469
0.00581724
0.00567644
0.00554389
0.00542181
0.00530557
0.00988977
0.00912705
0.00850829
0.00805698
0.00771302
0.00744403
0.00722448
0.00703578
0.00686812
0.00671094
0.00655568
0.00640103
0.00624787
0.00609712
0.00594971
0.00580706
0.00567128
0.00554439
0.00542672
0.00532091
0.010299
0.00944753
0.00868327
0.00812413
0.00774795
0.00747988
0.00726414
0.00707109
0.00689245
0.00672355
0.00655941
0.00639771
0.00623774
0.00607876
0.00591946
0.00575775
0.0055907
0.00541421
0.00522596
0.00502149
0.00900527
0.00913146
0.00882858
0.00841238
0.00804524
0.00772661
0.00744805
0.00720758
0.00699493
0.00680027
0.00661681
0.00644122
0.0062714
0.00610533
0.00594128
0.00577768
0.00561346
0.00544783
0.00528093
0.00512368
0.00843579
0.00853677
0.00842523
0.00819979
0.00794407
0.00768572
0.00742742
0.00718595
0.00696829
0.00676836
0.00658123
0.00640381
0.00623361
0.00606865
0.00590773
0.0057499
0.00559442
0.00544119
0.00529012
0.00513974
0.00806782
0.00813588
0.00808353
0.00793661
0.00775181
0.00754675
0.00733619
0.00712947
0.00692865
0.00673672
0.00655494
0.00638147
0.0062144
0.00605263
0.0058954
0.00574162
0.00559116
0.00544553
0.00530609
0.00516299
0.00788471
0.00794915
0.00791969
0.00779488
0.00763592
0.00746228
0.00727603
0.00708807
0.00690204
0.00671881
0.00653996
0.00636648
0.00619877
0.00603639
0.00587903
0.00572621
0.00557691
0.00543116
0.00529046
0.00514743
0.00788468
0.00794912
0.00791965
0.00779479
0.00763576
0.00746206
0.00727576
0.00708772
0.00690153
0.00671803
0.00653876
0.00636471
0.00619625
0.00603269
0.00587343
0.00571821
0.00556599
0.0054155
0.00526644
0.00511552
0.00806775
0.00813582
0.00808344
0.00793646
0.0077516
0.00754649
0.00733585
0.00712899
0.00692791
0.00673553
0.00655297
0.00637841
0.00620985
0.00604583
0.00588529
0.00572721
0.00557054
0.00541421
0.00525672
0.00509579
0.00843578
0.00853676
0.00842521
0.00819977
0.00794405
0.0076857
0.0074274
0.00718593
0.00696827
0.00676833
0.0065812
0.00640379
0.00623358
0.00606861
0.00590769
0.00574986
0.00559437
0.00544113
0.00529002
0.00513949
0.00900528
0.00913148
0.00882863
0.00841244
0.00804535
0.00772679
0.00744838
0.00720819
0.00699602
0.00680212
0.00661977
0.0064459
0.00627891
0.00611761
0.00596145
0.00581045
0.00566594
0.00553017
0.00540869
0.00531832
0.0102991
0.00944755
0.0086833
0.00812418
0.00774807
0.00748011
0.00726457
0.00707183
0.00689369
0.00672565
0.00656299
0.00640364
0.00624743
0.00609471
0.00594598
0.0058023
0.00566645
0.00554179
0.00543796
0.00537131
0.0106473
0.00991348
0.00882059
0.00815463
0.00775204
0.00747832
0.00726716
0.00708093
0.00690651
0.00673914
0.00657633
0.00641626
0.00625723
0.0060982
0.00593889
0.00577917
0.00561566
0.00543886
0.00522122
0.0049037
0.00993076
0.00989905
0.00917085
0.00846036
0.00801405
0.00769816
0.00743935
0.00721181
0.00700744
0.00681938
0.00664216
0.00647214
0.00630645
0.00614351
0.00598289
0.00582393
0.0056664
0.00550965
0.00536141
0.00523888
0.0090053
0.0091315
0.00882865
0.00841246
0.00804537
0.00772681
0.00744841
0.00720821
0.00699605
0.00680215
0.00661979
0.00644593
0.00627894
0.00611765
0.0059615
0.00581049
0.00566599
0.00553023
0.00540877
0.00531851
0.00858694
0.00863045
0.00846491
0.00820201
0.00792169
0.00765042
0.00739953
0.00717334
0.00697061
0.00678472
0.00660896
0.00644012
0.00627665
0.00611805
0.00596472
0.00581728
0.00567648
0.00554394
0.00542187
0.00530571
0.00837091
0.00839274
0.00826555
0.00804806
0.00781566
0.00758652
0.00736375
0.00715065
0.00694995
0.00676281
0.00658679
0.00641854
0.00625649
0.00609945
0.00594622
0.00579697
0.00565284
0.00551486
0.00538396
0.0052552
0.00837088
0.0083927
0.0082655
0.00804796
0.00781551
0.00758632
0.00736345
0.00715021
0.00694931
0.00676176
0.00658499
0.00641552
0.00625175
0.00609214
0.00593519
0.00578098
0.00562997
0.00548253
0.00534016
0.00520337
0.00858685
0.00863036
0.00846478
0.00820184
0.00792145
0.00765009
0.00739903
0.00717256
0.00696933
0.00678236
0.00660469
0.00643313
0.00626633
0.00610293
0.00594153
0.00578119
0.00562143
0.00546273
0.00530686
0.0051587
0.00900525
0.00913144
0.00882856
0.00841236
0.00804522
0.00772659
0.00744803
0.00720756
0.00699491
0.00680025
0.00661678
0.00644119
0.00627137
0.00610529
0.00594124
0.00577765
0.00561343
0.0054478
0.00528089
0.00512355
0.00993074
0.00989904
0.00917083
0.00846034
0.00801403
0.00769814
0.00743933
0.00721179
0.00700741
0.00681935
0.00664213
0.00647211
0.00630641
0.00614347
0.00598286
0.00582389
0.00566636
0.00550964
0.0053614
0.00523902
0.0106473
0.00991348
0.00882059
0.00815464
0.00775208
0.00747841
0.00726734
0.00708127
0.00690712
0.00674022
0.00657812
0.00641926
0.00626245
0.00610753
0.00595542
0.00580779
0.00566451
0.0055264
0.00540227
0.00531747
0.0178261
0.0107117
0.00842028
0.00788246
0.00760812
0.00738594
0.00719937
0.00703302
0.00687198
0.00671272
0.00655536
0.00639976
0.00624491
0.0060898
0.00593453
0.00577932
0.00562495
0.0054704
0.00530203
0.00503669
0.0106473
0.0099135
0.00882061
0.00815466
0.0077521
0.00747844
0.00726736
0.0070813
0.00690715
0.00674025
0.00657815
0.0064193
0.00626249
0.00610757
0.00595546
0.00580784
0.00566456
0.00552645
0.00540231
0.00531737
0.0102991
0.00944757
0.00868332
0.0081242
0.00774809
0.00748014
0.00726459
0.00707185
0.00689371
0.00672568
0.00656302
0.00640367
0.00624747
0.00609475
0.00594603
0.00580236
0.00566651
0.00554185
0.00543804
0.0053713
0.00988979
0.00912706
0.00850831
0.008057
0.00771304
0.00744405
0.0072245
0.00703581
0.00686814
0.00671096
0.00655571
0.00640106
0.0062479
0.00609716
0.00594976
0.00580711
0.00567133
0.00554447
0.00542682
0.00532103
0.00975554
0.00901436
0.00842619
0.00801807
0.00769611
0.00742936
0.00720778
0.00701706
0.00684615
0.0066892
0.00653891
0.00638837
0.00623672
0.00608567
0.00593662
0.00579066
0.0056488
0.00551148
0.00537524
0.00524193
0.00975552
0.00901434
0.00842616
0.00801802
0.00769603
0.00742925
0.0072076
0.00701675
0.00684565
0.00668837
0.00653756
0.00638617
0.00623314
0.00607994
0.00592755
0.00577647
0.00562702
0.0054794
0.00533243
0.00518953
0.00988973
0.009127
0.00850823
0.00805689
0.00771289
0.0074438
0.00722407
0.00703506
0.00686688
0.00670889
0.0065523
0.00639553
0.00623903
0.00608297
0.00592693
0.00577029
0.00561252
0.00545379
0.00529668
0.00514315
0.010299
0.00944751
0.00868325
0.00812411
0.00774793
0.00747986
0.00726412
0.00707107
0.00689243
0.00672352
0.00655938
0.00639768
0.0062377
0.00607873
0.00591944
0.00575773
0.00559068
0.00541422
0.00522602
0.00502163
0.0106473
0.00991346
0.00882057
0.0081546
0.00775202
0.0074783
0.00726714
0.00708091
0.00690649
0.00673912
0.0065763
0.00641622
0.00625719
0.00609816
0.00593886
0.00577914
0.00561563
0.00543886
0.00522127
0.00490397
0.0178261
0.0107117
0.00842026
0.00788244
0.0076081
0.00738592
0.00719935
0.007033
0.00687196
0.00671269
0.00655533
0.00639973
0.00624486
0.00608977
0.0059345
0.00577928
0.00562491
0.00547037
0.00530201
0.00503684
0.00538851
0.00486068
0.00455383
0.00442175
0.00430622
0.00417344
0.00403882
0.00390518
0.00377038
0.00363525
0.00350071
0.00336839
0.0032374
0.00310455
0.00297337
0.00284354
0.00271462
0.00258749
0.0024616
0.00233767
0.00221468
0.00209259
0.00197266
0.00185355
0.00173392
0.00161552
0.00149899
0.00138344
0.00126931
0.0011558
0.0010424
0.000930335
0.000819291
0.000709018
0.000599145
0.000489864
0.000381279
0.000272345
0.000164755
5.09729e-05
0.00522393
0.00486348
0.00460807
0.00447371
0.00434785
0.00420742
0.00406655
0.00392693
0.0037867
0.00364681
0.00350815
0.00337239
0.00323792
0.0031019
0.00296812
0.00283677
0.00270701
0.00257929
0.00245305
0.00232884
0.00220579
0.00208421
0.00196519
0.00184675
0.00172749
0.00160918
0.00149269
0.00137724
0.00126324
0.00114991
0.00103694
0.000925356
0.000814808
0.000705056
0.000595609
0.000486671
0.000378502
0.00027018
0.000162618
5.04132e-05
0.00509366
0.00490208
0.00467913
0.00451132
0.00436656
0.00422035
0.0040729
0.00392706
0.0037834
0.00364177
0.00350219
0.00336439
0.003228
0.00309237
0.00295903
0.0028282
0.00269912
0.00257179
0.00244579
0.00232148
0.00219775
0.00207582
0.00195615
0.0018375
0.00171919
0.00160153
0.00148544
0.00137032
0.00125646
0.00114349
0.00103154
0.000920803
0.000811008
0.000701712
0.000592608
0.000484283
0.000376706
0.000268851
0.00016188
5.00295e-05
0.00495157
0.00483488
0.00467056
0.00451531
0.00437001
0.00422529
0.00407992
0.0039355
0.00379259
0.00365124
0.00351171
0.0033741
0.00323828
0.00310348
0.00297051
0.00283959
0.00271027
0.00258247
0.00245589
0.00233079
0.00220636
0.00208259
0.00196002
0.00183911
0.00171983
0.00160186
0.00148533
0.00137008
0.00125615
0.00114317
0.00103128
0.000919854
0.000809455
0.000699973
0.000591002
0.000483083
0.00037582
0.000268146
0.000161449
4.95603e-05
0.00494878
0.00482407
0.00467134
0.00451419
0.00436246
0.00421415
0.00406796
0.00392483
0.00378429
0.00364529
0.00350754
0.00337158
0.00323707
0.00310384
0.00297214
0.00284209
0.00271337
0.00258587
0.00245957
0.00233459
0.00221088
0.00208834
0.00196675
0.00184604
0.00172655
0.00160839
0.00149173
0.00137651
0.0012624
0.0011491
0.00103627
0.000923623
0.00081217
0.000702166
0.00059301
0.000484844
0.000377029
0.000268818
0.000161753
4.952e-05
0.0049954
0.00484113
0.00467566
0.00451227
0.00435655
0.0042065
0.00406025
0.0039179
0.00377889
0.00364168
0.00350541
0.00337015
0.00323607
0.0031036
0.00297253
0.00284276
0.00271434
0.0025872
0.00246132
0.00233669
0.00221331
0.00209113
0.0019702
0.0018503
0.00173109
0.0016126
0.00149531
0.0013794
0.00126491
0.00115159
0.00103901
0.000927365
0.000816885
0.000707178
0.000597824
0.000488993
0.000380334
0.000271308
0.000163386
5.05071e-05
0.00508894
0.00489881
0.00469684
0.00451865
0.00435723
0.00420349
0.00405527
0.00391224
0.00377314
0.00363598
0.00350024
0.0033657
0.00323224
0.00310008
0.00296957
0.00284062
0.00271295
0.00258638
0.00246099
0.00233686
0.00221395
0.00209215
0.00197154
0.00185161
0.00173215
0.00161369
0.0014968
0.00138111
0.00126695
0.00115382
0.0010412
0.000929894
0.000819389
0.000709363
0.000600055
0.000491476
0.000382952
0.000274045
0.000165728
5.21241e-05
0.00520204
0.00496706
0.00471609
0.0045147
0.00434434
0.00418781
0.00403979
0.00389802
0.00376042
0.00362499
0.00349114
0.00335841
0.0032262
0.00309432
0.00296381
0.00283537
0.00270837
0.00258256
0.00245785
0.00233423
0.00221182
0.00209038
0.00197046
0.00185088
0.0017323
0.00161538
0.00149964
0.00138478
0.00127094
0.00115761
0.00104456
0.000933082
0.000822468
0.000712178
0.000602687
0.000494097
0.00038533
0.000276149
0.000167207
5.31468e-05
0.00533227
0.0050004
0.00468268
0.0044688
0.00430109
0.00414946
0.00400747
0.00387213
0.00374037
0.00360983
0.00348015
0.00335012
0.00321988
0.00309167
0.00296455
0.00283763
0.00271048
0.00258443
0.00245974
0.00233601
0.00221344
0.00209152
0.00197143
0.00185218
0.00173435
0.00161768
0.00150175
0.00138653
0.0012723
0.00115859
0.00104509
0.000933141
0.000822234
0.000711748
0.000601711
0.000492812
0.000383921
0.000274574
0.00016561
5.2466e-05
0.00542708
0.00493805
0.00455504
0.004381
0.00425978
0.00413398
0.00400677
0.00388011
0.00375204
0.00362167
0.00349287
0.00336432
0.00323425
0.00310627
0.00297896
0.00285105
0.00272302
0.0025962
0.00247089
0.00234696
0.0022242
0.00210167
0.00198087
0.00186076
0.00174094
0.00162279
0.00150601
0.00139028
0.00127582
0.00116195
0.00104815
0.000935709
0.000824318
0.000713509
0.000603144
0.000493953
0.000384882
0.000275274
0.000166228
5.26513e-05
0.00538862
0.00486074
0.0045535
0.0044201
0.00430454
0.004174
0.00403997
0.00390621
0.00377157
0.00363568
0.00350222
0.00336975
0.00323599
0.00310404
0.00297334
0.00284356
0.00271463
0.00258727
0.00246159
0.00233743
0.0022146
0.00209246
0.00197244
0.00185306
0.00173329
0.0016152
0.00149855
0.00138301
0.00126873
0.00115513
0.00104181
0.000929835
0.000818914
0.000708626
0.000598734
0.000489941
0.000381325
0.000272172
0.000164832
5.0946e-05
0.00542698
0.00493808
0.00455536
0.00438313
0.00426198
0.00413351
0.00400536
0.00387871
0.00375056
0.003621
0.00349102
0.00336274
0.00323523
0.00310628
0.00297863
0.00285073
0.00272282
0.0025963
0.00247084
0.00234713
0.00222423
0.00210188
0.0019812
0.00186138
0.00174154
0.00162301
0.00150637
0.00139073
0.0012765
0.00116274
0.00104885
0.000936267
0.000824735
0.000713973
0.000603657
0.000493925
0.000384734
0.000275284
0.000166014
5.25403e-05
0.00512061
0.00483616
0.00461514
0.00445874
0.00431669
0.00417845
0.00404406
0.0039111
0.00377792
0.00364442
0.00351119
0.00337879
0.00324707
0.00311467
0.00298344
0.00285342
0.0027247
0.00259773
0.00247198
0.00234798
0.00222432
0.00210214
0.00198158
0.00186203
0.00174262
0.00162354
0.00150655
0.0013906
0.00127606
0.00116228
0.00104869
0.000936216
0.000824752
0.000713849
0.000603501
0.000494153
0.000385323
0.000276132
0.000167538
5.3353e-05
0.00497362
0.00478915
0.00463119
0.00447212
0.00432351
0.00418273
0.00404339
0.00390542
0.0037693
0.00363414
0.00349958
0.00336505
0.00323138
0.00310017
0.00296989
0.00284042
0.00271236
0.00258571
0.00246042
0.00233595
0.00221211
0.00208943
0.00196762
0.00184758
0.00172956
0.00161224
0.00149602
0.00138087
0.0012666
0.00115331
0.00104111
0.000929312
0.000818411
0.000708061
0.000598549
0.000490376
0.000382322
0.000273538
0.000165805
5.27363e-05
0.00492548
0.0047664
0.00461995
0.00447314
0.00432989
0.00418927
0.00404998
0.00391239
0.0037761
0.00364057
0.00350571
0.00337167
0.00323871
0.00310716
0.0029764
0.00284648
0.00271791
0.00259064
0.00246477
0.00233982
0.0022163
0.00209356
0.00197142
0.00185097
0.00173248
0.00161506
0.00149826
0.00138277
0.00126817
0.00115445
0.00104147
0.000928978
0.000817617
0.000707197
0.000598075
0.000489865
0.000381326
0.000272658
0.000164969
5.28216e-05
0.00493211
0.0047765
0.00463572
0.00449117
0.00434562
0.00420197
0.00406024
0.00392015
0.00378159
0.00364467
0.00350913
0.00337477
0.0032417
0.00311
0.0029793
0.00284969
0.0027213
0.00259409
0.0024681
0.00234317
0.00221941
0.00209658
0.00197482
0.00185448
0.00173541
0.00161735
0.00150043
0.0013851
0.001271
0.00115738
0.00104403
0.000931734
0.000820417
0.000709857
0.000600377
0.000491179
0.000381575
0.000272236
0.000164017
5.29706e-05
0.00497481
0.00481478
0.00466886
0.00451966
0.00436995
0.00422292
0.00407835
0.00393525
0.00379363
0.00365427
0.00351707
0.00338143
0.0032471
0.0031143
0.00298285
0.0028526
0.00272367
0.00259607
0.00246975
0.00234469