/*--------------------------------*- C++ -*----------------------------------*\
| =========                 |                                                 |
| \\      /  F ield         | OpenFOAM: The Open Source CFD Toolbox           |
|  \\    /   O peration     | Version:  2212                                  |
|   \\  /    A nd           | Website:  www.openfoam.com                      |
|    \\/     M anipulation  |                                                 |
\*---------------------------------------------------------------------------*/
FoamFile
{
    version     2.0;
    format      ascii;
    arch        "LSB;label=32;scalar=64";
    class       surfaceScalarField;
    location    "2.9";
    object      phi;
}
// * * * * * * * * * * * * * * * * * * * * * * * * * * * * * * * * * * * * * //

dimensions      [0 3 -1 0 0 0 0];

oriented        oriented;

internalField   nonuniform List<scalar> 
19019
(
3.32249e-07
1.09685e-09
1.09683e-09
2.7919e-07
2.65298e-08
2.65294e-08
2.49217e-07
1.49868e-08
1.49863e-08
2.29253e-07
9.98274e-09
9.98183e-09
2.14832e-07
7.21148e-09
7.20922e-09
2.03194e-07
5.82062e-09
5.81716e-09
1.93763e-07
4.71887e-09
4.71176e-09
1.8599e-07
3.89283e-09
3.88003e-09
1.79333e-07
3.33999e-09
3.31764e-09
1.7349e-07
2.94082e-09
2.90209e-09
1.68295e-07
2.62933e-09
2.56534e-09
1.63637e-07
2.38211e-09
2.27582e-09
1.59414e-07
2.20266e-09
2.02026e-09
1.55547e-07
2.09674e-09
1.77101e-09
1.52021e-07
2.04812e-09
1.47777e-09
1.48854e-07
2.04269e-09
1.12395e-09
1.4611e-07
2.09128e-09
6.53123e-10
1.44158e-07
2.15597e-09
-2.04086e-10
1.43843e-07
2.7335e-09
-2.41802e-09
-4.01743e-09
-1.53234e-08
6.3138e-07
3.58769e-09
7.40286e-09
6.14563e-07
2.26463e-08
2.07003e-08
5.86444e-07
2.43767e-08
1.87291e-08
5.61724e-07
1.88561e-08
1.5847e-08
5.39614e-07
1.55718e-08
1.37492e-08
5.20632e-07
1.35142e-08
1.12885e-08
5.04684e-07
1.19584e-08
8.70798e-09
4.90928e-07
1.08104e-08
6.83834e-09
4.78703e-07
9.96499e-09
5.60057e-09
4.67616e-07
9.26713e-09
4.76082e-09
4.57436e-07
8.66244e-09
4.14683e-09
4.48021e-07
8.12994e-09
3.66681e-09
4.3926e-07
7.6651e-09
3.2983e-09
4.31065e-07
7.27151e-09
3.02068e-09
4.23403e-07
6.94523e-09
2.76478e-09
4.16464e-07
6.62467e-09
2.35779e-09
4.10651e-07
6.18678e-09
1.7167e-09
4.07391e-07
5.06006e-09
3.56529e-10
4.09558e-07
3.04941e-09
-2.48221e-09
-3.07649e-09
-1.26032e-08
8.90375e-07
2.85272e-09
6.33234e-09
8.82486e-07
1.3409e-08
1.71257e-08
8.70359e-07
1.78681e-08
1.86354e-08
8.55113e-07
1.69565e-08
1.71463e-08
8.39984e-07
1.53415e-08
1.53588e-08
8.2554e-07
1.41711e-08
1.37876e-08
8.11778e-07
1.33809e-08
1.2339e-08
7.98796e-07
1.26774e-08
1.11155e-08
7.86743e-07
1.18893e-08
1.01283e-08
7.75635e-07
1.10447e-08
9.32994e-09
7.65344e-07
1.02374e-08
8.71667e-09
7.55733e-07
9.48626e-09
8.25427e-09
7.4671e-07
8.79607e-09
7.89258e-09
7.38249e-07
8.14967e-09
7.58241e-09
7.30422e-07
7.50082e-09
7.27194e-09
7.23453e-07
6.73112e-09
6.86261e-09
7.1777e-07
5.6731e-09
6.19595e-09
7.13729e-07
4.07602e-09
5.02531e-09
7.11761e-07
1.81756e-09
3.20042e-09
-2.85333e-09
-3.072e-10
1.07432e-06
1.06485e-09
5.5689e-09
1.06824e-06
5.58674e-09
1.39002e-08
1.06138e-06
8.46436e-09
1.62615e-08
1.05339e-06
9.04028e-09
1.59077e-08
1.04511e-06
8.61804e-09
1.49994e-08
1.03723e-06
8.12003e-09
1.3929e-08
1.02986e-06
7.78475e-09
1.29708e-08
1.02288e-06
7.55007e-09
1.21048e-08
1.01608e-06
7.3598e-09
1.13291e-08
1.00939e-06
7.06803e-09
1.0665e-08
1.00286e-06
6.6169e-09
1.01532e-08
9.96486e-07
6.10059e-09
9.76111e-09
9.90254e-07
5.5745e-09
9.45365e-09
9.84171e-07
5.02804e-09
9.20493e-09
9.78256e-07
4.4424e-09
8.9735e-09
9.72551e-07
3.73355e-09
8.70179e-09
9.67127e-07
2.78304e-09
8.31419e-09
9.62015e-07
1.45071e-09
7.73745e-09
9.57156e-07
-3.17157e-10
6.99442e-09
-2.63028e-09
6.41739e-09
1.16914e-06
-1.0331e-13
4.90656e-09
1.16312e-06
-4.99737e-13
1.16085e-08
1.15731e-06
-1.20244e-12
1.42754e-08
1.15202e-06
-2.20647e-12
1.43331e-08
1.14692e-06
-3.85161e-12
1.37286e-08
1.14208e-06
-6.83946e-12
1.2966e-08
1.13778e-06
-1.22551e-11
1.20955e-08
1.13405e-06
-2.11628e-11
1.12996e-08
1.13081e-06
-3.61957e-11
1.06358e-08
1.12777e-06
-6.09569e-11
1.01663e-08
1.12463e-06
-1.01563e-10
9.85739e-09
1.12127e-06
-1.67868e-10
9.62799e-09
1.11765e-06
-2.76676e-10
9.47117e-09
1.11374e-06
-4.54284e-10
9.39366e-09
1.10952e-06
-7.27276e-10
9.39263e-09
1.10497e-06
-1.15738e-09
9.43547e-09
1.10009e-06
-1.83139e-09
9.49833e-09
1.09486e-06
-2.8982e-09
9.57919e-09
1.08912e-06
-4.22917e-09
9.64788e-09
-6.72092e-09
9.92985e-09
1.16914e-06
-1.06508e-09
4.9066e-09
1.16312e-06
-5.58756e-09
1.16086e-08
1.15731e-06
-8.46591e-09
1.42755e-08
1.15202e-06
-9.04297e-09
1.43336e-08
1.14691e-06
-8.62328e-09
1.37303e-08
1.14206e-06
-8.13011e-09
1.29695e-08
1.13775e-06
-7.80331e-09
1.21009e-08
1.134e-06
-7.58259e-09
1.13086e-08
1.13073e-06
-7.41708e-09
1.06515e-08
1.12764e-06
-7.16415e-09
1.01932e-08
1.12441e-06
-6.77474e-09
9.90168e-09
1.1209e-06
-6.35834e-09
9.70212e-09
1.11703e-06
-5.99975e-09
9.59752e-09
1.11271e-06
-5.73693e-09
9.60542e-09
1.10785e-06
-5.60927e-09
9.73839e-09
1.10236e-06
-5.66833e-09
1.00007e-08
1.09612e-06
-5.99602e-09
1.04092e-08
1.08898e-06
-6.75006e-09
1.09832e-08
1.08104e-06
-7.91088e-09
1.16199e-08
-1.0871e-08
1.19044e-08
1.07432e-06
-2.85267e-09
5.56889e-09
1.06824e-06
-1.34089e-08
1.39003e-08
1.06138e-06
-1.78679e-08
1.62621e-08
1.05338e-06
-1.69563e-08
1.59098e-08
1.04509e-06
-1.53418e-08
1.50036e-08
1.0372e-06
-1.41728e-08
1.39355e-08
1.0298e-06
-1.33846e-08
1.29805e-08
1.02278e-06
-1.26834e-08
1.21208e-08
1.01591e-06
-1.19006e-08
1.1356e-08
1.0091e-06
-1.10644e-08
1.07113e-08
1.00236e-06
-1.02704e-08
1.02332e-08
9.95647e-07
-9.54353e-09
9.89967e-09
9.8886e-07
-8.90281e-09
9.69e-09
9.81873e-07
-8.35648e-09
9.60589e-09
9.74506e-07
-7.9021e-09
9.65972e-09
9.6649e-07
-7.54057e-09
9.88819e-09
9.57459e-07
-7.33798e-09
1.03731e-08
9.46933e-07
-7.40659e-09
1.11828e-08
9.34748e-07
-8.01653e-09
1.22901e-08
-1.08443e-08
1.30651e-08
8.90374e-07
-3.58757e-09
6.33243e-09
8.82485e-07
-2.26457e-08
1.71263e-08
8.70356e-07
-2.43759e-08
1.8637e-08
8.55105e-07
-1.88547e-08
1.71489e-08
8.3997e-07
-1.55688e-08
1.53627e-08
8.25513e-07
-1.35091e-08
1.37929e-08
8.11731e-07
-1.19497e-08
1.23475e-08
7.98713e-07
-1.07962e-08
1.11307e-08
7.866e-07
-9.94112e-09
1.0153e-08
7.75392e-07
-9.22621e-09
9.37038e-09
7.64929e-07
-8.59226e-09
8.78444e-09
7.5503e-07
-8.01671e-09
8.37186e-09
7.45522e-07
-7.49081e-09
8.09652e-09
7.3624e-07
-7.00494e-09
7.93013e-09
7.27e-07
-6.53609e-09
7.87395e-09
7.17491e-07
-6.00238e-09
7.97159e-09
7.07246e-07
-5.38798e-09
8.29467e-09
6.95498e-07
-4.61182e-09
8.95249e-09
6.81197e-07
-3.4829e-09
9.76806e-09
-3.7105e-09
1.20002e-08
6.3138e-07
-1.09683e-09
7.40295e-09
6.14563e-07
-2.65294e-08
2.07008e-08
5.86443e-07
-1.49862e-08
1.873e-08
5.61722e-07
-9.9818e-09
1.58487e-08
5.3961e-07
-7.20918e-09
1.37515e-08
5.20625e-07
-5.81711e-09
1.12931e-08
5.04672e-07
-4.7117e-09
8.71531e-09
4.90905e-07
-3.87995e-09
6.85035e-09
4.78661e-07
-3.31754e-09
5.62087e-09
4.67541e-07
-2.90197e-09
4.79593e-09
4.57298e-07
-2.56519e-09
4.21518e-09
4.47771e-07
-2.27563e-09
3.78614e-09
4.38817e-07
-2.02001e-09
3.48375e-09
4.30301e-07
-1.77068e-09
3.28193e-09
4.22082e-07
-1.47749e-09
3.16041e-09
4.14112e-07
-1.12374e-09
3.09084e-09
4.06241e-07
-6.52731e-10
3.13625e-09
3.98155e-07
2.04699e-10
3.26912e-09
3.89395e-07
2.41937e-09
2.85803e-09
1.5327e-08
2.23097e-09
3.32249e-07
1.09686e-09
2.7919e-07
2.65298e-08
2.49217e-07
1.49868e-08
2.29253e-07
9.98275e-09
2.14832e-07
7.2115e-09
2.03194e-07
5.82065e-09
1.93764e-07
4.71891e-09
1.85991e-07
3.89287e-09
1.79333e-07
3.34003e-09
1.7349e-07
2.94086e-09
1.68296e-07
2.62938e-09
1.63638e-07
2.38217e-09
1.59415e-07
2.20278e-09
1.55548e-07
2.09678e-09
1.52022e-07
2.04801e-09
1.48856e-07
2.04256e-09
1.46112e-07
2.09109e-09
1.44161e-07
2.15581e-09
1.43848e-07
2.73285e-09
-4.02021e-09
6.3138e-07
7.40295e-09
3.58757e-09
6.14563e-07
2.07008e-08
2.26457e-08
5.86443e-07
1.873e-08
2.43759e-08
5.61722e-07
1.58487e-08
1.88548e-08
5.3961e-07
1.37515e-08
1.55689e-08
5.20625e-07
1.12931e-08
1.35093e-08
5.04672e-07
8.7153e-09
1.19499e-08
4.90905e-07
6.85035e-09
1.07964e-08
4.7866e-07
5.62087e-09
9.94136e-09
4.6754e-07
4.79593e-09
9.22653e-09
4.57297e-07
4.21517e-09
8.59269e-09
4.4777e-07
3.78608e-09
8.01732e-09
4.38815e-07
3.48363e-09
7.49164e-09
4.30298e-07
3.2821e-09
7.00559e-09
4.22078e-07
3.1608e-09
6.53666e-09
4.14108e-07
3.09114e-09
6.00347e-09
4.06234e-07
3.13682e-09
5.38977e-09
3.98145e-07
3.27037e-09
4.61476e-09
3.89379e-07
2.86072e-09
3.48767e-09
2.23926e-09
3.71636e-09
9.23616e-07
7.03406e-09
7.03389e-09
9.25317e-07
1.98506e-08
1.98499e-08
9.17181e-07
2.2798e-08
2.27969e-08
9.04269e-07
2.23047e-08
2.23025e-08
8.90524e-07
2.06247e-08
2.0621e-08
8.77393e-07
1.78598e-08
1.78529e-08
8.65413e-07
1.47076e-08
1.46962e-08
8.54716e-07
1.22017e-08
1.21834e-08
8.45246e-07
1.03618e-08
1.03297e-08
8.36852e-07
9.00373e-09
8.94736e-09
8.2934e-07
7.98539e-09
7.8884e-09
8.22516e-07
7.2189e-09
7.05827e-09
8.16257e-07
6.64916e-09
6.39184e-09
8.10527e-07
6.22099e-09
5.81138e-09
8.05319e-07
5.89525e-09
5.238e-09
8.00563e-07
5.6328e-09
4.57247e-09
7.96254e-07
5.41171e-09
3.75064e-09
7.92128e-07
5.15983e-09
2.59334e-09
7.87634e-07
4.38061e-09
4.92264e-10
1.77317e-09
-3.13238e-09
1.1589e-06
5.28161e-09
6.10256e-09
1.1657e-06
1.39995e-08
1.61827e-08
1.16844e-06
1.79793e-08
2.0706e-08
1.16661e-06
1.91811e-08
2.21038e-08
1.16221e-06
1.88794e-08
2.15039e-08
1.15654e-06
1.75505e-08
1.97673e-08
1.15047e-06
1.56927e-08
1.74212e-08
1.14457e-06
1.38967e-08
1.53222e-08
1.13914e-06
1.23012e-08
1.3617e-08
1.13432e-06
1.09113e-08
1.22478e-08
1.1301e-06
9.76638e-09
1.11529e-08
1.12646e-06
8.83563e-09
1.0278e-08
1.12337e-06
8.06933e-09
9.55997e-09
1.12082e-06
7.41812e-09
8.93365e-09
1.11883e-06
6.82395e-09
8.34083e-09
1.11738e-06
6.2345e-09
7.70718e-09
1.11649e-06
5.57031e-09
6.92717e-09
1.11601e-06
4.74597e-09
5.92078e-09
1.11549e-06
3.54421e-09
4.55708e-09
1.63265e-09
3.0969e-09
1.32763e-06
2.71834e-09
4.93109e-09
1.33539e-06
7.12121e-09
1.30089e-08
1.34287e-06
9.55405e-09
1.72155e-08
1.34848e-06
1.05787e-08
1.88984e-08
1.35198e-06
1.08758e-08
1.94993e-08
1.35377e-06
1.05809e-08
1.91123e-08
1.35444e-06
9.89178e-09
1.80964e-08
1.35459e-06
9.04526e-09
1.68047e-08
1.35458e-06
8.1912e-09
1.54538e-08
1.35455e-06
7.38577e-09
1.42164e-08
1.35459e-06
6.66184e-09
1.32173e-08
1.35476e-06
6.01106e-09
1.24206e-08
1.35508e-06
5.42467e-09
1.17782e-08
1.35558e-06
4.87408e-09
1.12477e-08
1.3563e-06
4.29633e-09
1.07846e-08
1.35724e-06
3.64885e-09
1.03403e-08
1.35839e-06
2.87313e-09
9.8677e-09
1.35963e-06
1.90253e-09
9.33814e-09
1.36071e-06
6.60967e-10
8.79868e-09
-7.88223e-10
8.53976e-09
1.41518e-06
-2.04591e-13
4.1929e-09
1.42279e-06
-5.92396e-13
1.1116e-08
1.43152e-06
-1.03043e-12
1.50986e-08
1.43981e-06
-1.9508e-12
1.66292e-08
1.44714e-06
-3.72142e-12
1.72744e-08
1.45319e-06
-6.6259e-12
1.75076e-08
1.45804e-06
-1.10159e-11
1.71495e-08
1.46197e-06
-1.81451e-11
1.64311e-08
1.46528e-06
-3.0714e-11
1.554e-08
1.46824e-06
-5.37166e-11
1.46511e-08
1.47103e-06
-9.26854e-11
1.38263e-08
1.47371e-06
-1.5495e-10
1.31048e-08
1.4763e-06
-2.47452e-10
1.25587e-08
1.47876e-06
-3.8898e-10
1.2195e-08
1.4811e-06
-6.10018e-10
1.19581e-08
1.48333e-06
-9.46361e-10
1.18024e-08
1.48542e-06
-1.44053e-09
1.17213e-08
1.48732e-06
-2.14285e-09
1.17284e-08
1.48885e-06
-3.06705e-09
1.18383e-08
-4.02948e-09
1.21222e-08
1.41518e-06
-2.71857e-09
4.19302e-09
1.42279e-06
-7.12183e-09
1.11163e-08
1.43152e-06
-9.55518e-09
1.50991e-08
1.4398e-06
-1.05809e-08
1.66304e-08
1.44713e-06
-1.08802e-08
1.72772e-08
1.45317e-06
-1.05886e-08
1.75126e-08
1.45801e-06
-9.90497e-09
1.71575e-08
1.46192e-06
-9.06755e-09
1.64437e-08
1.46521e-06
-8.22939e-09
1.55591e-08
1.46813e-06
-7.45659e-09
1.46824e-08
1.47084e-06
-6.78794e-09
1.38793e-08
1.47342e-06
-6.22018e-09
1.31967e-08
1.47579e-06
-5.74469e-09
1.27158e-08
1.47793e-06
-5.36815e-09
1.2453e-08
1.47979e-06
-5.09622e-09
1.23616e-08
1.48138e-06
-4.94399e-09
1.24088e-08
1.48265e-06
-4.93987e-09
1.26338e-08
1.48356e-06
-5.13839e-09
1.30671e-08
1.48399e-06
-5.49345e-09
1.36199e-08
-5.74402e-09
1.39652e-08
1.32762e-06
-5.28146e-09
4.93134e-09
1.33539e-06
-1.39992e-08
1.30096e-08
1.34286e-06
-1.79789e-08
1.72172e-08
1.34847e-06
-1.91805e-08
1.89025e-08
1.35196e-06
-1.88784e-08
1.95066e-08
1.35373e-06
-1.75485e-08
1.91237e-08
1.35439e-06
-1.56904e-08
1.8114e-08
1.3545e-06
-1.3895e-08
1.68325e-08
1.35443e-06
-1.22979e-08
1.54967e-08
1.3543e-06
-1.0905e-08
1.42865e-08
1.35417e-06
-9.75528e-09
1.33385e-08
1.35404e-06
-8.81413e-09
1.26236e-08
1.3539e-06
-8.03137e-09
1.21093e-08
1.35372e-06
-7.36332e-09
1.17838e-08
1.3534e-06
-6.76812e-09
1.16553e-08
1.35281e-06
-6.22311e-09
1.17554e-08
1.35184e-06
-5.72168e-09
1.21226e-08
1.3504e-06
-5.26062e-09
1.27434e-08
1.34831e-06
-4.649e-09
1.35344e-08
-3.91229e-09
1.38423e-08
1.1589e-06
-7.03388e-09
6.10287e-09
1.16569e-06
-1.98499e-08
1.61839e-08
1.16844e-06
-2.27969e-08
2.07087e-08
1.1666e-06
-2.23024e-08
2.21082e-08
1.1622e-06
-2.0621e-08
2.15104e-08
1.15652e-06
-1.78528e-08
1.97765e-08
1.15044e-06
-1.46961e-08
1.74362e-08
1.14451e-06
-1.21832e-08
1.53485e-08
1.13903e-06
-1.03295e-08
1.3662e-08
1.13412e-06
-8.94707e-09
1.23226e-08
1.12976e-06
-7.88804e-09
1.12769e-08
1.12589e-06
-7.05786e-09
1.04813e-08
1.12246e-06
-6.39129e-09
9.89409e-09
1.11935e-06
-5.81047e-09
9.48082e-09
1.11646e-06
-5.23685e-09
9.23599e-09
1.11359e-06
-4.57124e-09
9.18875e-09
1.11054e-06
-3.74898e-09
9.3763e-09
1.10699e-06
-2.5909e-09
9.82955e-09
1.10229e-06
-4.88357e-10
1.03107e-08
3.13886e-09
1.05445e-08
9.23616e-07
-7.40286e-09
7.03406e-09
9.25317e-07
-2.07003e-08
1.98506e-08
9.17181e-07
-1.87291e-08
2.2798e-08
9.0427e-07
-1.5847e-08
2.23047e-08
8.90525e-07
-1.37492e-08
2.06247e-08
8.77393e-07
-1.12885e-08
1.78598e-08
8.65413e-07
-8.70792e-09
1.47076e-08
8.54717e-07
-6.83826e-09
1.22017e-08
8.45247e-07
-5.60046e-09
1.03618e-08
8.36853e-07
-4.76067e-09
9.00371e-09
8.29341e-07
-4.14663e-09
7.98537e-09
8.22517e-07
-3.66658e-09
7.21896e-09
8.16258e-07
-3.29814e-09
6.6494e-09
8.10529e-07
-3.02024e-09
6.22052e-09
8.05322e-07
-2.76396e-09
5.89428e-09
8.00567e-07
-2.35694e-09
5.63222e-09
7.96259e-07
-1.71562e-09
5.41092e-09
7.92134e-07
-3.54984e-10
5.15853e-09
7.87641e-07
2.48458e-09
4.37838e-09
1.26069e-08
1.76838e-09
6.3138e-07
3.58769e-09
6.14563e-07
2.26464e-08
5.86444e-07
2.43767e-08
5.61724e-07
1.88561e-08
5.39614e-07
1.55718e-08
5.20632e-07
1.35142e-08
5.04685e-07
1.19584e-08
4.90929e-07
1.08104e-08
4.78703e-07
9.96499e-09
4.67617e-07
9.26711e-09
4.57437e-07
8.66239e-09
4.48023e-07
8.12986e-09
4.39262e-07
7.66507e-09
4.31067e-07
7.27156e-09
4.23406e-07
6.94519e-09
4.16467e-07
6.6244e-09
4.10656e-07
6.18626e-09
4.07398e-07
5.05915e-09
4.09568e-07
3.04818e-09
-3.07773e-09
8.90374e-07
6.33242e-09
2.85268e-09
8.82485e-07
1.71263e-08
1.34089e-08
8.70356e-07
1.8637e-08
1.7868e-08
8.55105e-07
1.7149e-08
1.69564e-08
8.3997e-07
1.53628e-08
1.5342e-08
8.25513e-07
1.37929e-08
1.41729e-08
8.1173e-07
1.23476e-08
1.33848e-08
7.98712e-07
1.11307e-08
1.26837e-08
7.86599e-07
1.01531e-08
1.1901e-08
7.75391e-07
9.37044e-09
1.10649e-08
7.64928e-07
8.78454e-09
1.0271e-08
7.55029e-07
8.37206e-09
9.54431e-09
7.4552e-07
8.09697e-09
8.90378e-09
7.36237e-07
7.93051e-09
8.35761e-09
7.26996e-07
7.87423e-09
7.90351e-09
7.17484e-07
7.97243e-09
7.54259e-09
7.07237e-07
8.29628e-09
7.34102e-09
6.95485e-07
8.95557e-09
7.41091e-09
6.81176e-07
9.77377e-09
8.02293e-09
1.20069e-08
1.08528e-08
1.1589e-06
6.10287e-09
5.28148e-09
1.16569e-06
1.61839e-08
1.39992e-08
1.16844e-06
2.07087e-08
1.7979e-08
1.1666e-06
2.21082e-08
1.91806e-08
1.1622e-06
2.15104e-08
1.88785e-08
1.15652e-06
1.97765e-08
1.75487e-08
1.15044e-06
1.74363e-08
1.56906e-08
1.14451e-06
1.53486e-08
1.38953e-08
1.13903e-06
1.36621e-08
1.22982e-08
1.13412e-06
1.23227e-08
1.09054e-08
1.12976e-06
1.1277e-08
9.7558e-09
1.12589e-06
1.04815e-08
8.81478e-09
1.12245e-06
9.89451e-09
8.03239e-09
1.11935e-06
9.48134e-09
7.3644e-09
1.11646e-06
9.23649e-09
6.76923e-09
1.11359e-06
9.18951e-09
6.22471e-09
1.11053e-06
9.37743e-09
5.72387e-09
1.10699e-06
9.83156e-09
5.26381e-09
1.10228e-06
1.03142e-08
4.65361e-09
1.05486e-08
3.91775e-09
1.37712e-06
4.57768e-09
4.57737e-09
1.38565e-06
1.19181e-08
1.19173e-08
1.39417e-06
1.64489e-08
1.64472e-08
1.40126e-06
1.85636e-08
1.85609e-08
1.40641e-06
1.89345e-08
1.893e-08
1.4095e-06
1.8228e-08
1.82211e-08
1.41092e-06
1.67255e-08
1.67141e-08
1.41149e-06
1.50578e-08
1.50398e-08
1.41175e-06
1.3523e-08
1.34936e-08
1.41197e-06
1.21996e-08
1.21525e-08
1.41231e-06
1.10823e-08
1.10066e-08
1.41288e-06
1.01595e-08
1.00376e-08
1.41371e-06
9.41111e-09
9.21361e-09
1.41481e-06
8.81334e-09
8.49597e-09
1.41619e-06
8.348e-09
7.85117e-09
1.41783e-06
8.01138e-09
7.24792e-09
1.4197e-06
7.79282e-09
6.63434e-09
1.42184e-06
7.66235e-09
5.95938e-09
1.42409e-06
7.48352e-09
5.12925e-09
6.93508e-09
4.27355e-09
1.53312e-06
2.36624e-09
3.64929e-09
1.54218e-06
6.23943e-09
9.6338e-09
1.55328e-06
8.8744e-09
1.36916e-08
1.56445e-06
1.03489e-08
1.59363e-08
1.57507e-06
1.09026e-08
1.69112e-08
1.58471e-06
1.07593e-08
1.69444e-08
1.59301e-06
1.01506e-08
1.63751e-08
1.60008e-06
9.3422e-09
1.54434e-08
1.60624e-06
8.47678e-09
1.43406e-08
1.61175e-06
7.66369e-09
1.32447e-08
1.61685e-06
6.94935e-09
1.22489e-08
1.62172e-06
6.3352e-09
1.13794e-08
1.62647e-06
5.80456e-09
1.06324e-08
1.6312e-06
5.33849e-09
9.99093e-09
1.63599e-06
4.91087e-09
9.43418e-09
1.6409e-06
4.50824e-09
8.93432e-09
1.646e-06
4.10307e-09
8.45925e-09
1.65137e-06
3.66158e-09
7.96603e-09
1.6571e-06
3.1113e-09
7.43947e-09
2.41337e-09
7.0447e-09
1.61424e-06
-1.40176e-13
3.09282e-09
1.62332e-06
-3.38144e-13
8.27397e-09
1.63534e-06
-6.11048e-13
1.1957e-08
1.6482e-06
-1.125e-12
1.41141e-08
1.66118e-06
-2.06972e-12
1.51993e-08
1.67387e-06
-3.45911e-12
1.55812e-08
1.68575e-06
-5.79642e-12
1.5427e-08
1.69658e-06
-9.3709e-12
1.49538e-08
1.70633e-06
-1.5648e-11
1.42776e-08
1.71518e-06
-2.65714e-11
1.34995e-08
1.72329e-06
-4.42604e-11
1.27079e-08
1.73083e-06
-7.10982e-11
1.19687e-08
1.73798e-06
-1.09594e-10
1.13269e-08
1.74487e-06
-1.66937e-10
1.08017e-08
1.75161e-06
-2.57131e-10
1.03904e-08
1.75822e-06
-3.92951e-10
1.009e-08
1.76476e-06
-5.93404e-10
9.88113e-09
1.77127e-06
-8.68282e-10
9.74332e-09
1.77782e-06
-1.23439e-09
9.64217e-09
-1.60798e-09
9.598e-09
1.61424e-06
-2.36632e-09
3.09298e-09
1.62332e-06
-6.23959e-09
8.27444e-09
1.63533e-06
-8.87471e-09
1.19579e-08
1.6482e-06
-1.03495e-08
1.41159e-08
1.66117e-06
-1.09035e-08
1.52028e-08
1.67386e-06
-1.07606e-08
1.55866e-08
1.68573e-06
-1.01531e-08
1.54348e-08
1.69654e-06
-9.3469e-09
1.49653e-08
1.70628e-06
-8.48515e-09
1.42953e-08
1.71508e-06
-7.68024e-09
1.35275e-08
1.72315e-06
-6.98035e-09
1.27533e-08
1.73062e-06
-6.38756e-09
1.20425e-08
1.73766e-06
-5.884e-09
1.14458e-08
1.74441e-06
-5.45602e-09
1.09904e-08
1.75093e-06
-5.09504e-09
1.06834e-08
1.75722e-06
-4.80069e-09
1.05227e-08
1.76333e-06
-4.5712e-09
1.05061e-08
1.76929e-06
-4.3873e-09
1.06269e-08
1.77507e-06
-4.21844e-09
1.0817e-08
-4.00358e-09
1.09179e-08
1.53312e-06
-4.57736e-09
3.64967e-09
1.54218e-06
-1.19172e-08
9.6349e-09
1.55327e-06
-1.64472e-08
1.36937e-08
1.56445e-06
-1.85608e-08
1.59402e-08
1.57506e-06
-1.89299e-08
1.69176e-08
1.58469e-06
-1.82209e-08
1.69546e-08
1.59297e-06
-1.67138e-08
1.63905e-08
1.60003e-06
-1.50395e-08
1.54682e-08
1.60616e-06
-1.34933e-08
1.43789e-08
1.61161e-06
-1.2152e-08
1.33045e-08
1.61663e-06
-1.1006e-08
1.23447e-08
1.62137e-06
-1.00369e-08
1.15334e-08
1.62593e-06
-9.21274e-09
1.08822e-08
1.63036e-06
-8.49472e-09
1.03922e-08
1.6347e-06
-7.84959e-09
1.00625e-08
1.63901e-06
-7.24616e-09
9.89363e-09
1.6433e-06
-6.63229e-09
9.89389e-09
1.64757e-06
-5.95684e-09
1.00448e-08
1.65175e-06
-5.12616e-09
1.02612e-08
-4.27e-09
1.02636e-08
1.37712e-06
-6.10255e-09
4.57767e-09
1.38565e-06
-1.61827e-08
1.19181e-08
1.39417e-06
-2.07059e-08
1.64489e-08
1.40126e-06
-2.21037e-08
1.85636e-08
1.40641e-06
-2.15038e-08
1.89344e-08
1.4095e-06
-1.97672e-08
1.8228e-08
1.41092e-06
-1.7421e-08
1.67254e-08
1.41149e-06
-1.5322e-08
1.50577e-08
1.41176e-06
-1.36167e-08
1.35229e-08
1.41197e-06
-1.22474e-08
1.21994e-08
1.41232e-06
-1.11525e-08
1.10821e-08
1.41288e-06
-1.02776e-08
1.01593e-08
1.41371e-06
-9.55944e-09
9.41087e-09
1.41481e-06
-8.9324e-09
8.8129e-09
1.41619e-06
-8.33899e-09
8.34748e-09
1.41783e-06
-7.70534e-09
8.01094e-09
1.4197e-06
-6.92492e-09
7.7924e-09
1.42183e-06
-5.91776e-09
7.66184e-09
1.42409e-06
-4.55295e-09
7.48281e-09
-3.09095e-09
6.93472e-09
1.1589e-06
-6.33234e-09
5.28161e-09
1.1657e-06
-1.71257e-08
1.39995e-08
1.16844e-06
-1.86353e-08
1.79793e-08
1.16661e-06
-1.71462e-08
1.91811e-08
1.16221e-06
-1.53588e-08
1.88793e-08
1.15654e-06
-1.37876e-08
1.75505e-08
1.15047e-06
-1.23389e-08
1.56927e-08
1.14457e-06
-1.11154e-08
1.38966e-08
1.13914e-06
-1.01282e-08
1.23011e-08
1.13432e-06
-9.32972e-09
1.09112e-08
1.1301e-06
-8.71637e-09
9.76628e-09
1.12646e-06
-8.25388e-09
8.83557e-09
1.12337e-06
-7.89215e-09
8.06945e-09
1.12083e-06
-7.58171e-09
7.41774e-09
1.11883e-06
-7.27084e-09
6.82319e-09
1.11738e-06
-6.86117e-09
6.23406e-09
1.11649e-06
-6.19391e-09
5.56987e-09
1.11601e-06
-5.02233e-09
4.74527e-09
1.11549e-06
-3.1965e-09
3.54302e-09
3.12172e-10
1.63145e-09
8.90375e-07
2.85272e-09
8.82486e-07
1.3409e-08
8.7036e-07
1.78681e-08
8.55113e-07
1.69565e-08
8.39984e-07
1.53415e-08
8.2554e-07
1.41711e-08
8.11778e-07
1.33809e-08
7.98796e-07
1.26774e-08
7.86744e-07
1.18892e-08
7.75636e-07
1.10446e-08
7.65345e-07
1.02374e-08
7.55735e-07
9.48617e-09
7.46712e-07
8.79603e-09
7.38252e-07
8.1499e-09
7.30425e-07
7.50123e-09
7.23456e-07
6.73152e-09
7.17775e-07
5.67347e-09
7.13736e-07
4.0765e-09
7.11769e-07
1.81856e-09
-2.84921e-09
1.07432e-06
5.56889e-09
1.06509e-09
1.06824e-06
1.39003e-08
5.5876e-09
1.06138e-06
1.62621e-08
8.46601e-09
1.05338e-06
1.59099e-08
9.04311e-09
1.04509e-06
1.50036e-08
8.62346e-09
1.0372e-06
1.39356e-08
8.13035e-09
1.0298e-06
1.29806e-08
7.80361e-09
1.02278e-06
1.21209e-08
7.58296e-09
1.01591e-06
1.13561e-08
7.41754e-09
1.0091e-06
1.07114e-08
7.16472e-09
1.00236e-06
1.02334e-08
6.77542e-09
9.95645e-07
9.89992e-09
6.35917e-09
9.88858e-07
9.69044e-09
6.00075e-09
9.8187e-07
9.60637e-09
5.73827e-09
9.74502e-07
9.66036e-09
5.61108e-09
9.66485e-07
9.88939e-09
5.67071e-09
9.57451e-07
1.0375e-08
5.99926e-09
9.46922e-07
1.11857e-08
6.75431e-09
9.34733e-07
1.22949e-08
7.91666e-09
1.30727e-08
1.08788e-08
1.32762e-06
4.93134e-09
2.71859e-09
1.33539e-06
1.30097e-08
7.12188e-09
1.34286e-06
1.72173e-08
9.55527e-09
1.34847e-06
1.89025e-08
1.0581e-08
1.35196e-06
1.95067e-08
1.08803e-08
1.35373e-06
1.91237e-08
1.05888e-08
1.35439e-06
1.81141e-08
9.90525e-09
1.3545e-06
1.68327e-08
9.0679e-09
1.35443e-06
1.54968e-08
8.22982e-09
1.3543e-06
1.42867e-08
7.45713e-09
1.35416e-06
1.33388e-08
6.78862e-09
1.35403e-06
1.26239e-08
6.22104e-09
1.3539e-06
1.21099e-08
5.74581e-09
1.35372e-06
1.17843e-08
5.36931e-09
1.35339e-06
1.16557e-08
5.09748e-09
1.35281e-06
1.17563e-08
4.94573e-09
1.35184e-06
1.21239e-08
4.94209e-09
1.3504e-06
1.27452e-08
5.14112e-09
1.34832e-06
1.35369e-08
5.49656e-09
1.38446e-08
5.74677e-09
1.53312e-06
3.64968e-09
2.36634e-09
1.54218e-06
9.63493e-09
6.23964e-09
1.55327e-06
1.36937e-08
8.8748e-09
1.56445e-06
1.59402e-08
1.03496e-08
1.57506e-06
1.69177e-08
1.09037e-08
1.58469e-06
1.69547e-08
1.07608e-08
1.59297e-06
1.63906e-08
1.01534e-08
1.60003e-06
1.54684e-08
9.34725e-09
1.60616e-06
1.43791e-08
8.48558e-09
1.61161e-06
1.33047e-08
7.68078e-09
1.61663e-06
1.23449e-08
6.98101e-09
1.62137e-06
1.15337e-08
6.38837e-09
1.62593e-06
1.08826e-08
5.885e-09
1.63036e-06
1.03926e-08
5.45718e-09
1.6347e-06
1.00629e-08
5.09637e-09
1.63901e-06
9.89405e-09
4.80224e-09
1.6433e-06
9.89431e-09
4.5729e-09
1.64757e-06
1.00451e-08
4.38908e-09
1.65176e-06
1.02611e-08
4.21999e-09
1.02621e-08
4.00437e-09
1.68027e-06
1.89132e-09
1.89114e-09
1.68934e-06
5.10008e-09
5.09955e-09
1.70179e-06
7.46554e-09
7.46455e-09
1.71578e-06
8.94818e-09
8.94652e-09
1.73022e-06
9.69634e-09
9.69365e-09
1.74439e-06
9.86604e-09
9.86174e-09
1.75784e-06
9.65997e-09
9.65339e-09
1.77034e-06
9.21064e-09
9.2008e-09
1.78181e-06
8.63042e-09
8.61602e-09
1.79236e-06
8.01375e-09
7.99245e-09
1.80213e-06
7.42684e-09
7.3943e-09
1.81128e-06
6.90422e-09
6.85282e-09
1.81996e-06
6.4599e-09
6.37676e-09
1.82829e-06
6.09648e-09
5.96279e-09
1.83637e-06
5.80946e-09
5.60246e-09
1.84432e-06
5.58766e-09
5.28859e-09
1.85224e-06
5.42258e-09
5.01241e-09
1.86021e-06
5.29869e-09
4.74471e-09
1.86826e-06
5.17408e-09
4.47963e-09
4.97999e-09
4.26038e-09
1.7569e-06
-1.25226e-15
1.61325e-09
1.76589e-06
4.4374e-14
4.38417e-09
1.77878e-06
9.52739e-14
6.53181e-09
1.79389e-06
1.61183e-13
7.95102e-09
1.81003e-06
2.67594e-13
8.75552e-09
1.82639e-06
4.3184e-13
9.08528e-09
1.84241e-06
6.03846e-13
9.07143e-09
1.85774e-06
5.34611e-13
8.83487e-09
1.87219e-06
9.69454e-14
8.46048e-09
1.88568e-06
-7.05269e-13
8.01415e-09
1.89827e-06
-1.68298e-12
7.5468e-09
1.91005e-06
-2.18604e-12
7.09502e-09
1.92116e-06
-1.21379e-12
6.68232e-09
1.93174e-06
1.54652e-12
6.32129e-09
1.94191e-06
4.51013e-12
6.01709e-09
1.95182e-06
1.66572e-12
5.77174e-09
1.96156e-06
-1.19034e-11
5.57671e-09
1.97123e-06
-4.14613e-11
5.41177e-09
1.98089e-06
-8.76558e-11
5.2445e-09
-1.47316e-10
5.10379e-09
1.7569e-06
-1.89112e-09
1.61338e-09
1.76589e-06
-5.09949e-09
4.38453e-09
1.77878e-06
-7.46445e-09
6.53252e-09
1.79389e-06
-8.94639e-09
7.95229e-09
1.81003e-06
-9.69347e-09
8.75758e-09
1.82639e-06
-9.86151e-09
9.08847e-09
1.8424e-06
-9.65309e-09
9.0761e-09
1.85773e-06
-9.20041e-09
8.84167e-09
1.87217e-06
-8.61554e-09
8.4706e-09
1.88566e-06
-7.99186e-09
8.02946e-09
1.89823e-06
-7.39359e-09
7.57031e-09
1.90999e-06
-6.85196e-09
7.13143e-09
1.92107e-06
-6.37572e-09
6.73886e-09
1.93162e-06
-5.96151e-09
6.40886e-09
1.94175e-06
-5.60093e-09
6.15105e-09
1.9516e-06
-5.28681e-09
5.96833e-09
1.96125e-06
-5.01038e-09
5.85314e-09
1.97079e-06
-4.7425e-09
5.78558e-09
1.98028e-06
-4.47732e-09
5.71836e-09
-4.25832e-09
5.61447e-09
1.68027e-06
-3.64927e-09
1.8913e-09
1.68934e-06
-9.63375e-09
5.10005e-09
1.7018e-06
-1.36915e-08
7.46549e-09
1.71578e-06
-1.59362e-08
8.9481e-09
1.73022e-06
-1.6911e-08
9.69623e-09
1.74439e-06
-1.69442e-08
9.86591e-09
1.75784e-06
-1.63748e-08
9.6598e-09
1.77034e-06
-1.54431e-08
9.21044e-09
1.78181e-06
-1.43402e-08
8.6302e-09
1.79236e-06
-1.32442e-08
8.0135e-09
1.80213e-06
-1.22483e-08
7.42657e-09
1.81129e-06
-1.13786e-08
6.90393e-09
1.81996e-06
-1.06315e-08
6.45959e-09
1.82829e-06
-9.98964e-09
6.09618e-09
1.83637e-06
-9.43253e-09
5.80922e-09
1.84432e-06
-8.93239e-09
5.58754e-09
1.85224e-06
-8.45697e-09
5.42267e-09
1.86021e-06
-7.96335e-09
5.29914e-09
1.86825e-06
-7.43647e-09
5.17528e-09
-7.04184e-09
4.98271e-09
1.53312e-06
-4.93108e-09
2.36623e-09
1.54218e-06
-1.30089e-08
6.2394e-09
1.55328e-06
-1.72155e-08
8.87435e-09
1.56445e-06
-1.88984e-08
1.03488e-08
1.57507e-06
-1.94992e-08
1.09025e-08
1.58471e-06
-1.91122e-08
1.07592e-08
1.59301e-06
-1.80962e-08
1.01504e-08
1.60008e-06
-1.68044e-08
9.34205e-09
1.60624e-06
-1.54535e-08
8.47661e-09
1.61175e-06
-1.4216e-08
7.6635e-09
1.61685e-06
-1.32169e-08
6.94915e-09
1.62172e-06
-1.242e-08
6.33501e-09
1.62647e-06
-1.17776e-08
5.80436e-09
1.6312e-06
-1.12465e-08
5.33818e-09
1.63599e-06
-1.07828e-08
4.9105e-09
1.6409e-06
-1.03382e-08
4.50801e-09
1.646e-06
-9.86497e-09
4.10302e-09
1.65137e-06
-9.33445e-09
3.66172e-09
1.6571e-06
-8.79424e-09
3.11157e-09
-8.53746e-09
2.4141e-09
1.32763e-06
-5.56889e-09
2.71834e-09
1.33539e-06
-1.39002e-08
7.12119e-09
1.34287e-06
-1.62614e-08
9.55401e-09
1.34848e-06
-1.59077e-08
1.05786e-08
1.35198e-06
-1.49994e-08
1.08757e-08
1.35377e-06
-1.39289e-08
1.05808e-08
1.35444e-06
-1.29707e-08
9.89168e-09
1.3546e-06
-1.21047e-08
9.04514e-09
1.35458e-06
-1.13289e-08
8.19105e-09
1.35455e-06
-1.06648e-08
7.3856e-09
1.3546e-06
-1.01529e-08
6.66167e-09
1.35476e-06
-9.76072e-09
6.0109e-09
1.35508e-06
-9.45318e-09
5.42459e-09
1.35558e-06
-9.20427e-09
4.87381e-09
1.3563e-06
-8.97248e-09
4.29585e-09
1.35725e-06
-8.7002e-09
3.64851e-09
1.35839e-06
-8.31155e-09
2.8728e-09
1.35963e-06
-7.73324e-09
1.9021e-09
1.36071e-06
-6.98835e-09
6.60228e-10
-6.41153e-09
-7.87718e-10
1.07432e-06
1.06484e-09
1.06824e-06
5.58673e-09
1.06138e-06
8.46433e-09
1.05339e-06
9.04024e-09
1.04511e-06
8.618e-09
1.03723e-06
8.11997e-09
1.02986e-06
7.78468e-09
1.02288e-06
7.54999e-09
1.01608e-06
7.35969e-09
1.0094e-06
7.06791e-09
1.00286e-06
6.61676e-09
9.96488e-07
6.10045e-09
9.90256e-07
5.57438e-09
9.84174e-07
5.02811e-09
9.7826e-07
4.4427e-09
9.72557e-07
3.73388e-09
9.67136e-07
2.78328e-09
9.62028e-07
1.45109e-09
9.57175e-07
-3.1613e-10
-2.62655e-09
1.16914e-06
4.9066e-09
1.05433e-13
1.16312e-06
1.16086e-08
5.41928e-13
1.15731e-06
1.42755e-08
1.31495e-12
1.15202e-06
1.43336e-08
2.35951e-12
1.14691e-06
1.37304e-08
4.05111e-12
1.14206e-06
1.29695e-08
7.09385e-12
1.13775e-06
1.2101e-08
1.25735e-11
1.134e-06
1.13087e-08
2.15583e-11
1.13073e-06
1.06517e-08
3.66818e-11
1.12764e-06
1.01934e-08
6.15485e-11
1.12441e-06
9.90185e-09
1.02278e-10
1.1209e-06
9.70232e-09
1.68729e-10
1.11703e-06
9.59778e-09
2.77715e-10
1.1127e-06
9.6058e-09
4.55577e-10
1.10785e-06
9.73895e-09
7.2894e-10
1.10236e-06
1.00015e-08
1.15953e-09
1.09611e-06
1.04102e-08
1.83417e-09
1.08898e-06
1.09847e-08
2.90188e-09
1.08104e-06
1.1622e-08
4.23394e-09
1.19071e-08
6.727e-09
1.41518e-06
4.19303e-09
2.232e-13
1.42279e-06
1.11163e-08
6.58175e-13
1.43152e-06
1.50992e-08
1.1314e-12
1.4398e-06
1.66304e-08
2.08824e-12
1.44713e-06
1.72773e-08
3.90472e-12
1.45317e-06
1.75127e-08
6.86613e-12
1.45801e-06
1.71577e-08
1.1321e-11
1.46192e-06
1.64438e-08
1.85272e-11
1.46521e-06
1.55593e-08
3.11882e-11
1.46813e-06
1.46826e-08
5.43015e-11
1.47084e-06
1.38796e-08
9.34101e-11
1.47341e-06
1.31971e-08
1.55845e-10
1.47579e-06
1.27162e-08
2.4853e-10
1.47792e-06
1.24534e-08
3.90221e-10
1.47979e-06
1.23621e-08
6.11438e-10
1.48138e-06
1.24095e-08
9.48057e-10
1.48265e-06
1.26348e-08
1.44251e-09
1.48356e-06
1.30684e-08
2.14505e-09
1.48399e-06
1.36214e-08
3.06916e-09
1.39662e-08
4.03045e-09
1.61424e-06
3.093e-09
1.64254e-13
1.62332e-06
8.27448e-09
4.03814e-13
1.63533e-06
1.1958e-08
7.09064e-13
1.6482e-06
1.4116e-08
1.25919e-12
1.66117e-06
1.52029e-08
2.24957e-12