/*--------------------------------*- C++ -*----------------------------------*\
| =========                 |                                                 |
| \\      /  F ield         | OpenFOAM: The Open Source CFD Toolbox           |
|  \\    /   O peration     | Version:  2212                                  |
|   \\  /    A nd           | Website:  www.openfoam.com                      |
|    \\/     M anipulation  |                                                 |
\*---------------------------------------------------------------------------*/
FoamFile
{
    version     2.0;
    format      ascii;
    arch        "LSB;label=32;scalar=64";
    class       surfaceVectorField;
    location    "2.9";
    object      Uf;
}
// * * * * * * * * * * * * * * * * * * * * * * * * * * * * * * * * * * * * * //

dimensions      [0 1 -1 0 0 0 0];

internalField   nonuniform List<vector> 
19019
(
(0.0993441 -0.00341899 -0.00341903)
(0.0973536 0.00106248 -0.00148428)
(0.0973536 -0.00148427 0.00106247)
(0.0834791 0.00197595 0.00197584)
(0.0930872 0.00326905 0.00253344)
(0.0930872 0.00253352 0.00326894)
(0.074517 0.00195887 0.00195863)
(0.084864 0.00163595 0.0017923)
(0.0848639 0.00179245 0.00163576)
(0.0685475 0.00115934 0.00115886)
(0.078628 0.00107371 0.00122126)
(0.0786279 0.00122159 0.00107336)
(0.0642357 0.000697472 0.000696639)
(0.0740528 0.000785739 0.000864932)
(0.0740526 0.000865493 0.000785008)
(0.0607559 0.000495779 0.000494094)
(0.0704421 0.000651181 0.00066901)
(0.0704418 0.000669967 0.000650004)
(0.0579361 0.000376589 0.000373383)
(0.067491 0.000548005 0.000507963)
(0.0674905 0.000509914 0.000545595)
(0.055612 0.00029095 0.000285558)
(0.0650499 0.000471075 0.00038649)
(0.0650488 0.000389791 0.000466859)
(0.0536213 0.000231905 0.000223026)
(0.0629645 0.000418942 0.000306299)
(0.0629625 0.000311707 0.000411786)
(0.0518743 0.000191361 0.000176401)
(0.0611292 0.000378949 0.000252429)
(0.0611258 0.000261356 0.000366808)
(0.050321 0.000164861 0.000139664)
(0.0594847 0.000345129 0.000214866)
(0.0594784 0.000230861 0.000324342)
(0.0489283 0.000148918 0.000107953)
(0.0579967 0.00031704 0.000187187)
(0.0579851 0.000214323 0.000282183)
(0.0476656 0.000141392 7.68915e-05)
(0.0566381 0.000297796 0.000165137)
(0.0566172 0.000206914 0.000240775)
(0.0465092 0.000142346 4.21104e-05)
(0.055386 0.000289835 0.000146299)
(0.0553497 0.000205717 0.00019687)
(0.0454549 0.000154981 1.00124e-05)
(0.0542276 0.000293925 0.000124382)
(0.0541656 0.00021099 0.000141319)
(0.0445081 0.000191022 -4.27423e-05)
(0.0531684 0.000309771 9.55645e-05)
(0.0530604 0.000225289 6.96566e-05)
(0.0436876 0.000255701 -0.000156974)
(0.0522374 0.000358905 2.62688e-05)
(0.0520364 0.000272669 -4.22474e-05)
(0.043104 0.000343756 -0.000376946)
(0.0515053 0.000450057 -0.000110088)
(0.0511026 0.000340784 -0.000235396)
(0.0430097 -0.00015064 -0.0014233)
(0.0512896 0.00066156 -0.000295418)
(0.0504128 0.00038408 -0.000656846)
(0.0496423 0.000122649 -0.00144208)
(0.0490478 -0.00036336 -0.00253007)
(0.0984572 0.00247649 0.00172987)
(0.0996871 0.00043925 0.00034548)
(0.100049 0.00105639 0.000750962)
(0.0958348 0.00314817 0.00243261)
(0.0978161 0.00273289 0.00228225)
(0.0982936 0.00280929 0.00216142)
(0.0914499 0.00223054 0.0018692)
(0.095496 0.00300187 0.00230302)
(0.0963039 0.00244278 0.00199772)
(0.087595 0.00167504 0.00150532)
(0.0926191 0.00229965 0.00183862)
(0.0936666 0.00198098 0.00172685)
(0.0841472 0.00144077 0.00127539)
(0.0897673 0.00189242 0.00153545)
(0.0909043 0.00172015 0.00149765)
(0.0811872 0.00126658 0.00102831)
(0.0872322 0.00165734 0.00129432)
(0.0884338 0.00145519 0.00121136)
(0.0787003 0.00111215 0.000793296)
(0.0850069 0.00149342 0.00107666)
(0.0863038 0.00118452 0.000908078)
(0.0765552 0.00099548 0.00062415)
(0.0830614 0.00137387 0.000912527)
(0.084479 0.000984835 0.000689868)
(0.0746488 0.000910805 0.000516524)
(0.0813257 0.00128237 0.000800456)
(0.0828774 0.000848332 0.000547234)
(0.0729198 0.000840658 0.000449593)
(0.0797485 0.00120036 0.000724512)
(0.0814434 0.000749856 0.000452961)
(0.0713324 0.000775438 0.000407021)
(0.0783017 0.0011226 0.000675771)
(0.0801444 0.000671691 0.000386657)
(0.0698643 0.00071657 0.000378598)
(0.0769641 0.00104954 0.000644578)
(0.078954 0.000606519 0.000336546)
(0.0684981 0.000670619 0.000360466)
(0.0757183 0.000983244 0.000623779)
(0.0778526 0.000557005 0.000297856)
(0.0672201 0.000641379 0.000348225)
(0.0745525 0.00092558 0.000610068)
(0.0768296 0.000524316 0.000266746)
(0.0660254 0.00062667 0.000320854)
(0.0734618 0.000878373 0.000597183)
(0.0758794 0.000508264 0.000232082)
(0.0649432 0.000622067 0.000258784)
(0.0724575 0.000840549 0.000562681)
(0.0750047 0.000508361 0.000166047)
(0.0640369 0.000604267 0.000116928)
(0.0715838 0.000796938 0.000494985)
(0.0742303 0.000523753 5.55449e-05)
(0.0635284 0.000612549 -9.41768e-05)
(0.0709228 0.000684423 0.000321558)
(0.0736108 0.000530175 -0.000167741)
(0.0638663 0.000495555 -0.000452605)
(0.0706844 0.000463056 6.4625e-05)
(0.0733212 0.000505328 -0.000617476)
(0.0693073 -0.000304181 -0.000481294)
(0.0721484 -6.81413e-05 -0.00201464)
(0.0993753 0.0011822 0.00107254)
(0.099473 0.000349775 0.000307058)
(0.0997475 0.000611006 0.00077987)
(0.0984948 0.00229624 0.00203184)
(0.0990504 0.00157689 0.00172044)
(0.0995971 0.00201841 0.00200282)
(0.0971414 0.00247678 0.00204846)
(0.0983578 0.00213129 0.00216877)
(0.0992973 0.00246173 0.00210227)
(0.0954397 0.00224748 0.00176715)
(0.0971935 0.00203611 0.00200224)
(0.0984883 0.00237484 0.00190238)
(0.0937512 0.00202125 0.00152204)
(0.0959057 0.00185612 0.00175409)
(0.0974224 0.00218145 0.00168832)
(0.092139 0.00186546 0.00134391)
(0.0946729 0.00173345 0.00154218)
(0.0963099 0.00198564 0.00150766)
(0.0906031 0.00175568 0.00121394)
(0.0934839 0.00165388 0.0013857)
(0.0952051 0.0018031 0.00134168)
(0.0891541 0.00165886 0.00111224)
(0.0923718 0.00157869 0.00126434)
(0.0941491 0.00164703 0.00120204)
(0.0878089 0.00155579 0.00102969)
(0.0913382 0.00148436 0.00117002)
(0.0931677 0.00150871 0.00109298)
(0.0865692 0.00144925 0.000967295)
(0.0903532 0.00137572 0.00110006)
(0.0922648 0.00138145 0.00100924)
(0.0854205 0.00134823 0.000925448)
(0.08943 0.00126723 0.00105241)
(0.0914404 0.00126782 0.000949534)
(0.0843479 0.00125659 0.000899089)
(0.0885618 0.00116303 0.00102143)
(0.0906865 0.00116999 0.000908045)
(0.0833407 0.0011728 0.000882142)
(0.0877379 0.00106509 0.00100208)
(0.0899929 0.00108639 0.000877649)
(0.0823964 0.0010932 0.000868132)
(0.086953 0.000971954 0.000989723)
(0.0893544 0.00101368 0.00085188)
(0.0815228 0.0010122 0.000847382)
(0.0862085 0.000878434 0.000977466)
(0.088772 0.000948297 0.000823936)
(0.080745 0.000917287 0.000806115)
(0.0855131 0.000769571 0.000954377)
(0.0882536 0.000883336 0.000780922)
(0.0801108 0.000783066 0.00071908)
(0.0848881 0.000623575 0.000907602)
(0.0878193 0.000805181 0.000702836)
(0.0796598 0.000563157 0.000562992)
(0.0843623 0.000408415 0.000815452)
(0.0874947 0.000692594 0.000558558)
(0.0794401 -1.24023e-05 0.000259332)
(0.0839691 0.000104933 0.000681935)
(0.0872894 0.000500357 0.000338503)
(0.0834134 -0.000538399 0.000470457)
(0.0869711 -7.77223e-05 -2.38651e-05)
(0.0996493 0.000650323 0.000931411)
(0.0994625 0.000129377 0.000192505)
(0.0997993 0.00037514 0.000741358)
(0.0990855 0.00127897 0.00182765)
(0.0992626 0.00063688 0.00137061)
(0.0998409 0.00115043 0.0018142)
(0.0984494 0.00154086 0.00210293)
(0.098913 0.000973414 0.0020035)
(0.0999049 0.00153659 0.00209006)
(0.0977082 0.00154703 0.00198869)
(0.0982953 0.00105002 0.0020505)
(0.0997676 0.00163184 0.00202279)
(0.0969405 0.00148034 0.00177571)
(0.0976581 0.00100741 0.00189938)
(0.0995101 0.0016098 0.00189524)
(0.0962098 0.00142766 0.00158151)
(0.0970661 0.000959848 0.00169791)
(0.0992008 0.00154793 0.00175101)
(0.0955258 0.00139341 0.00143413)
(0.0965082 0.000932727 0.00152012)
(0.0988568 0.0014752 0.00162483)
(0.0948785 0.00135405 0.00132708)
(0.0959971 0.000915775 0.00137819)
(0.0985146 0.00139386 0.00151345)
(0.0942478 0.00129412 0.00125504)
(0.0955314 0.000900443 0.00127677)
(0.0981837 0.00130097 0.00141706)
(0.0936274 0.0012114 0.0012071)
(0.0950814 0.000866195 0.00121368)
(0.0978414 0.00119669 0.00133875)
(0.0930215 0.0011149 0.00117449)
(0.0946336 0.000805916 0.00117919)
(0.097511 0.00109076 0.00128272)
(0.0924301 0.00101436 0.00115336)
(0.0941889 0.000734231 0.00116292)
(0.0971959 0.000988754 0.00124333)
(0.0918521 0.00091399 0.00114077)
(0.0937447 0.000660015 0.00115645)
(0.096894 0.00089249 0.0012152)
(0.0912878 0.000812429 0.00113214)
(0.0932962 0.000582219 0.00115581)
(0.0966044 0.000800024 0.00119492)
(0.0907391 0.000700587 0.00112086)
(0.0928417 0.000498416 0.00115881)
(0.0963291 0.00070561 0.00117746)
(0.09021 0.000561342 0.00109908)
(0.0923825 0.000397028 0.00116205)
(0.096071 0.000599471 0.00115617)
(0.0897069 0.000369604 0.00105935)
(0.0919205 0.000261843 0.00115979)
(0.0958313 0.000467152 0.00112257)
(0.0892328 9.59957e-05 0.00100253)
(0.0914591 7.31301e-05 0.00114994)
(0.0956118 0.000286649 0.00106979)
(0.088782 -0.00028798 0.000971516)
(0.0909936 -0.000177317 0.00113723)
(0.0954132 3.59043e-05 0.00100488)
(0.0904879 -0.000512599 0.00118595)
(0.0952644 -0.000304099 0.000979083)
(0.0996725 0.000154037 0.00062949)
(0.0993802 -1.4518e-08 5.89827e-05)
(0.0997132 0.000103913 0.000687948)
(0.0991592 0.000353253 0.00154422)
(0.0992678 -7.02272e-08 0.00120004)
(0.0998377 0.000341602 0.00162229)
(0.0986639 0.000457658 0.00194737)
(0.0989805 -1.68976e-07 0.00188844)
(0.0999632 0.000485388 0.00199136)
(0.0982128 0.000480668 0.00196033)
(0.0984749 -3.10072e-07 0.00200634)
(0.0999922 0.000539461 0.0019965)
(0.0977775 0.000471269 0.00182428)
(0.0979961 -5.41261e-07 0.00191444)
(0.10001 0.00054606 0.00191066)
(0.0973649 0.000457471 0.00164033)
(0.0975719 -9.61138e-07 0.00173437)
(0.100009 0.000532828 0.00180357)
(0.0969984 0.000444507 0.00146684)
(0.0971828 -1.72218e-06 0.00154671)
(0.0999835 0.000510268 0.00168175)
(0.0966806 0.000433891 0.00132751)
(0.0968341 -2.97398e-06 0.00138767)
(0.099943 0.000482939 0.00157074)
(0.0964044 0.000423112 0.00123179)
(0.0965356 -5.08652e-06 0.00126865)
(0.0999053 0.000457462 0.0014783)
(0.0961455 0.000404447 0.00118107)
(0.0962837 -8.56617e-06 0.00119734)
(0.0998766 0.000430913 0.00141341)
(0.0958778 0.000373998 0.00116372)
(0.0960135 -1.42725e-05 0.001169)
(0.0998295 0.000396732 0.00137163)
(0.0955914 0.000333553 0.00116305)
(0.0957261 -2.35903e-05 0.00116548)
(0.099771 0.000355265 0.00134151)
(0.0952828 0.000283966 0.0011691)
(0.095421 -3.88808e-05 0.00117238)
(0.0997027 0.000309125 0.0013219)
(0.0949494 0.000225132 0.00118065)
(0.095088 -6.38398e-05 0.00118555)
(0.0996178 0.000256779 0.00131386)
(0.0945893 0.000153314 0.00119902)
(0.09472 -0.000102203 0.00120866)
(0.0995142 0.000195577 0.00131713)
(0.0942019 5.66266e-05 0.00122296)
(0.0943142 -0.000162644 0.0012445)
(0.0993933 0.000118965 0.00132745)
(0.0937855 -8.08242e-05 0.00125165)
(0.0938655 -0.000257361 0.00129214)
(0.0992535 1.61978e-05 0.00134206)
(0.0933396 -0.00026858 0.00128554)
(0.0933731 -0.00040728 0.00135253)
(0.0990939 -0.000124708 0.00136134)
(0.0928506 -0.000527152 0.00134811)
(0.0927966 -0.000594318 0.00142427)
(0.0989017 -0.000308665 0.0013813)
(0.0920943 -0.00094448 0.0014883)
(0.0987156 -0.000545912 0.00143439)
(0.0996725 -0.000154124 0.000629528)
(0.0994625 -0.000129407 0.000192529)
(0.0997132 -0.00010395 0.000687951)
(0.0991591 -0.000353485 0.00154425)
(0.0992625 -0.000636994 0.00137062)
(0.0998377 -0.000341747 0.0016223)
(0.0986638 -0.000458101 0.00194741)
(0.0989129 -0.000973628 0.00200356)
(0.0999631 -0.000485677 0.00199135)
(0.0982125 -0.000481453 0.00196044)
(0.098295 -0.00105039 0.00205063)
(0.099992 -0.000539979 0.00199654)
(0.0977768 -0.000472676 0.00182453)
(0.0976573 -0.00100813 0.00189961)
(0.100009 -0.000547008 0.00191085)
(0.0973637 -0.000460026 0.00164076)
(0.0970645 -0.000961238 0.00169832)
(0.100008 -0.000534544 0.00180397)
(0.0969962 -0.000449023 0.00146754)
(0.0965054 -0.000935309 0.00152066)
(0.099982 -0.00051327 0.00168235)
(0.0966768 -0.000441667 0.00132881)
(0.0959922 -0.000920301 0.00137911)
(0.0999404 -0.000488063 0.00157173)
(0.0963979 -0.000436302 0.0012342)
(0.0955228 -0.000908382 0.00127869)
(0.0999008 -0.000466256 0.00148004)
(0.0961345 -0.000426541 0.00118527)
(0.0950668 -0.000879433 0.00121765)
(0.0998693 -0.000446033 0.00141637)
(0.0958593 -0.000410584 0.00117076)
(0.0946088 -0.000827553 0.00118656)
(0.0998174 -0.000422349 0.00137647)
(0.0955599 -0.000393731 0.00117481)
(0.094147 -0.000769441 0.00117601)
(0.099751 -0.000397679 0.00134963)
(0.0952296 -0.000382782 0.00118883)
(0.0936744 -0.000718104 0.00117806)
(0.0996687 -0.000377723 0.00133595)
(0.094861 -0.00038519 0.00121357)
(0.0931792 -0.000679148 0.001191)
(0.0995609 -0.000367079 0.00133766)
(0.094447 -0.00040991 0.00125414)
(0.0926496 -0.000657778 0.00121835)
(0.0994208 -0.000371197 0.00135623)
(0.093979 -0.000466683 0.00131369)
(0.0920734 -0.000660702 0.00126563)
(0.0992469 -0.000397714 0.00139184)
(0.0934466 -0.000574311 0.00139302)
(0.0914311 -0.000698806 0.00133959)
(0.0990328 -0.000454333 0.00144644)
(0.0928386 -0.000731465 0.00149126)
(0.0907025 -0.000793695 0.00144771)
(0.098775 -0.000558148 0.00152182)
(0.0921618 -0.00103605 0.00156446)
(0.0898251 -0.000942325 0.00159221)
(0.0984467 -0.000692251 0.00160437)
(0.0887793 -0.00135437 0.00167633)
(0.0980938 -0.000966898 0.0016293)
(0.0996493 -0.00065035 0.00093141)
(0.099473 -0.000349767 0.000307061)
(0.0997993 -0.000375143 0.000741357)
(0.0990854 -0.00127903 0.0018277)
(0.0990504 -0.00157686 0.00172048)
(0.0998409 -0.00115045 0.0018142)
(0.0984491 -0.00154099 0.00210307)
(0.0983576 -0.00213122 0.00216894)
(0.0999046 -0.00153664 0.00209015)
(0.0977074 -0.00154733 0.00198894)
(0.097193 -0.002036 0.00200253)
(0.0997671 -0.00163196 0.00202308)
(0.0969389 -0.00148104 0.00177609)
(0.0959046 -0.00185606 0.00175452)
(0.099509 -0.0016101 0.0018958)
(0.0962067 -0.00142903 0.001582)
(0.0946707 -0.00173353 0.00154283)
(0.0991987 -0.00154856 0.00175185)
(0.0955204 -0.00139581 0.00143485)
(0.09348 -0.00165419 0.00138666)
(0.0988533 -0.00147641 0.00162603)
(0.0948693 -0.00135828 0.00132856)
(0.092365 -0.00157919 0.00126594)
(0.0985084 -0.00139596 0.0015154)
(0.0942318 -0.00130129 0.00125838)
(0.0913261 -0.00148535 0.00117284)
(0.0981732 -0.00130468 0.00142032)
(0.0936 -0.00122284 0.00121398)
(0.0903327 -0.00137738 0.00110532)
(0.0978238 -0.00120305 0.00134436)
(0.0929751 -0.0011331 0.00118745)
(0.0893951 -0.00126989 0.0010616)
(0.0974813 -0.00110107 0.00129253)
(0.0923523 -0.00104452 0.00117557)
(0.0885025 -0.00116756 0.00103789)
(0.0971453 -0.00100523 0.00126056)
(0.0917227 -0.000965977 0.00117676)
(0.0876381 -0.0010742 0.00102996)
(0.0968088 -0.000919125 0.00124485)
(0.0910747 -0.000902071 0.00119223)
(0.0867858 -0.000991432 0.00103623)
(0.0964655 -0.000845554 0.00124516)
(0.0903914 -0.000855858 0.0012259)
(0.0859293 -0.000918634 0.00105778)
(0.0961053 -0.000785101 0.00126318)
(0.0896478 -0.000833809 0.00128658)
(0.0850466 -0.000854628 0.00110002)
(0.0957142 -0.000738267 0.00130414)
(0.0888101 -0.000847321 0.00138707)
(0.084104 -0.000806003 0.00117631)
(0.0952718 -0.000711716 0.00137873)
(0.0878337 -0.000914135 0.00153749)
(0.0830372 -0.000784808 0.0013058)
(0.0947559 -0.000716112 0.00149502)
(0.0867035 -0.00115219 0.00168848)
(0.0817805 -0.000832163 0.00148457)
(0.094132 -0.000758829 0.00164782)
(0.0804278 -0.00116084 0.00186333)
(0.0935307 -0.000946056 0.00172811)
(0.0993753 -0.00118214 0.00107258)
(0.0996871 -0.000439226 0.00034549)
(0.0997475 -0.000610978 0.000779891)
(0.0984947 -0.0022961 0.00203199)
(0.0978161 -0.00273276 0.00228232)
(0.099597 -0.00201831 0.00200294)
(0.097141 -0.00247653 0.00204876)
(0.0954958 -0.00300166 0.00230322)
(0.0992971 -0.00246153 0.00210258)
(0.0954389 -0.00224706 0.00176761)
(0.0926188 -0.00229928 0.00183899)
(0.0984879 -0.00237447 0.00190289)
(0.0937495 -0.0020206 0.00152271)
(0.0897665 -0.00189173 0.00153597)
(0.0974215 -0.00218085 0.00168909)
(0.092136 -0.00186447 0.00134495)
(0.0872308 -0.0016562 0.00129515)
(0.0963081 -0.00198464 0.00150875)
(0.0905978 -0.00175415 0.00121567)
(0.0850044 -0.0014915 0.00107804)
(0.0952019 -0.00180159 0.00134341)
(0.0891448 -0.00165638 0.00111507)
(0.0830569 -0.00137069 0.000914809)
(0.0941435 -0.00164471 0.00120502)
(0.0877929 -0.0015517 0.0010343)
(0.0813177 -0.00127706 0.00080425)
(0.0931579 -0.00150477 0.00109786)
(0.0865419 -0.00144255 0.000974671)
(0.0797346 -0.00119131 0.000730877)
(0.092248 -0.00137471 0.00101731)
(0.0853742 -0.00133742 0.000937791)
(0.0782775 -0.0011069 0.000687171)
(0.0914116 -0.0012568 0.000962982)
(0.0842694 -0.00123997 0.000920568)
(0.0769216 -0.00102358 0.000664553)
(0.0906371 -0.00115201 0.000931047)
(0.0832082 -0.00114881 0.00091924)
(0.0756445 -0.000942841 0.000655668)
(0.0899102 -0.00105786 0.000916773)
(0.0821722 -0.0010612 0.000932372)
(0.0744265 -0.000864513 0.000656981)
(0.0892172 -0.000969173 0.000917382)
(0.081141 -0.000975071 0.00096318)
(0.0732476 -0.000784031 0.000670751)
(0.0885435 -0.000881622 0.000934323)
(0.0800796 -0.000888089 0.00102113)
(0.0720879 -0.000686443 0.000701673)
(0.0878697 -0.000792033 0.000975114)
(0.0789361 -0.00080018 0.00112372)
(0.0709213 -0.000564925 0.000760698)
(0.0871671 -0.000694828 0.0010522)
(0.077625 -0.000724437 0.00127118)
(0.0696834 -0.000401303 0.000861078)
(0.0863772 -0.00058547 0.00118343)
(0.0760288 -0.000762536 0.00163784)
(0.068307 -0.000169551 0.000991154)
(0.085447 -0.000461148 0.00134285)
(0.0669597 2.20831e-05 0.00157344)
(0.0846407 -0.000432994 0.0016885)
(0.0984572 -0.00247642 0.00172992)
(0.0973536 -0.00106247 -0.00148427)
(0.100049 -0.00105637 0.000750985)
(0.0958347 -0.003148 0.00243275)
(0.0930872 -0.00326894 0.00253352)
(0.0982936 -0.00280916 0.00216155)
(0.0914498 -0.00223025 0.00186948)
(0.0848639 -0.00163575 0.00179245)
(0.0963038 -0.00244252 0.00199797)
(0.0875947 -0.00167446 0.00150576)
(0.0786279 -0.00107335 0.00122159)
(0.0936665 -0.00198052 0.00172731)
(0.0841467 -0.00143978 0.00127614)
(0.0740526 -0.000784997 0.0008655)
(0.090904 -0.00171934 0.00149837)
(0.0811861 -0.00126488 0.00102958)
(0.0704418 -0.000649991 0.000669974)
(0.0884334 -0.00145384 0.00121268)
(0.0786984 -0.00110919 0.000795372)
(0.0674905 -0.000545579 0.000509923)
(0.0863031 -0.00118221 0.000910251)
(0.0765516 -0.000990403 0.000627587)
(0.0650489 -0.000466839 0.000389801)
(0.0844775 -0.000980907 0.000693486)
(0.0746422 -0.000902026 0.000522334)
(0.0629626 -0.000411763 0.000311718)
(0.0828748 -0.000841565 0.000553404)
(0.0729081 -0.00082542 0.000460369)
(0.0611259 -0.000366781 0.000261365)
(0.0814387 -0.000738117 0.00046365)
(0.071311 -0.000749584 0.000426623)
(0.0594785 -0.000324311 0.000230869)
(0.0801358 -0.000650842 0.000406608)
(0.0698253 -0.000674245 0.000409794)
(0.0579852 -0.000282147 0.000214329)
(0.078938 -0.000571836 0.000370651)
(0.0684289 -0.000602222 0.000403284)
(0.0566174 -0.000240733 0.00020691)
(0.0778237 -0.000502229 0.000351231)
(0.0671009 -0.000528282 0.000405846)
(0.05535 -0.000196826 0.000205692)
(0.0767794 -0.000439035 0.00034539)
(0.0658193 -0.000430115 0.000418693)
(0.0541659 -0.00014129 0.000210951)
(0.0757936 -0.000369959 0.000355074)
(0.0645765 -0.000293928 0.00044989)
(0.0530608 -6.96389e-05 0.000225255)
(0.074855 -0.000267938 0.000387195)
(0.063349 -0.000109316 0.000511932)
(0.052037 4.2289e-05 0.00027262)
(0.0739517 -0.000130285 0.000453121)
(0.0620882 0.000190687 0.000599643)
(0.0511035 0.000235458 0.000340703)
(0.0730521 7.60161e-05 0.000562432)
(0.0607221 0.000758072 0.000887143)
(0.0504142 0.000656932 0.000383813)
(0.0721043 0.00046851 0.000662754)
(0.0490504 0.0025305 -0.000363729)
(0.0713248 0.00126164 0.000898495)
(0.0993441 0.00341903 -0.00341899)
(0.0973536 0.00148428 0.00106248)
(0.0834791 -0.00197584 0.00197595)
(0.0930872 -0.00253344 0.00326905)
(0.0745171 -0.00195863 0.00195887)
(0.084864 -0.0017923 0.00163595)
(0.0685476 -0.00115886 0.00115935)
(0.078628 -0.00122126 0.00107372)
(0.0642357 -0.00069663 0.00069748)
(0.0740528 -0.000864927 0.000785747)
(0.060756 -0.000494081 0.00049579)
(0.0704421 -0.000669003 0.00065119)
(0.0579362 -0.000373368 0.000376602)
(0.0674911 -0.000507953 0.000548018)
(0.055612 -0.000285541 0.000290964)
(0.06505 -0.000386478 0.00047109)
(0.0536214 -0.000223006 0.000231919)
(0.0629646 -0.000306285 0.000418958)
(0.0518744 -0.000176379 0.000191374)
(0.0611293 -0.000252413 0.000378966)
(0.0503212 -0.000139638 0.000164872)
(0.0594848 -0.000214846 0.000345148)
(0.0489285 -0.000107925 0.000148925)
(0.0579969 -0.000187165 0.000317064)
(0.0476658 -7.68585e-05 0.000141385)
(0.0566383 -0.000165119 0.000297829)
(0.0465094 -4.20764e-05 0.000142314)
(0.0553863 -0.000146284 0.000289852)
(0.0454553 -9.99208e-06 0.000154948)
(0.0542279 -0.00012436 0.000293919)
(0.0445086 4.27576e-05 0.000191003)
(0.0531688 -9.55319e-05 0.000309766)
(0.0436882 0.000156994 0.00025569)
(0.0522379 -2.62112e-05 0.000358905)
(0.0431048 0.000376967 0.00034365)
(0.0515061 0.000110165 0.000450074)
(0.0430111 0.00142349 -0.000150936)
(0.0512908 0.000295497 0.000661491)
(0.0496439 0.00144248 0.000122386)
(0.0984572 0.00172992 0.00247642)
(0.100049 0.000750985 0.00105637)
(0.0996871 0.00034549 0.000439227)
(0.0958347 0.00243274 0.003148)
(0.0982936 0.00216155 0.00280917)
(0.0978161 0.00228232 0.00273276)
(0.0914498 0.00186948 0.00223026)
(0.0963038 0.00199796 0.00244253)
(0.0954958 0.00230322 0.00300167)
(0.0875947 0.00150576 0.00167448)
(0.0936665 0.00172731 0.00198053)
(0.0926188 0.00183899 0.00229929)
(0.0841467 0.00127613 0.0014398)
(0.090904 0.00149837 0.00171935)
(0.0897665 0.00153597 0.00189175)
(0.0811861 0.00102957 0.0012649)
(0.0884334 0.00121267 0.00145386)
(0.0872308 0.00129515 0.00165622)
(0.0786983 0.000795368 0.00110921)
(0.0863031 0.000910242 0.00118223)
(0.0850043 0.00107804 0.00149152)
(0.0765516 0.000627584 0.000990434)
(0.0844775 0.000693476 0.00098093)
(0.0830569 0.000914806 0.00137073)
(0.0746421 0.000522332 0.000902065)
(0.0828747 0.000553392 0.000841592)
(0.0813176 0.000804249 0.0012771)
(0.072908 0.000460371 0.000825468)
(0.0814386 0.000463636 0.00073815)
(0.0797345 0.000730878 0.00119136)
(0.0713108 0.000426629 0.000749642)
(0.0801357 0.000406591 0.000650882)
(0.0782774 0.000687179 0.00110697)
(0.0698251 0.000409811 0.000674314)
(0.0789379 0.000370624 0.000571876)
(0.0769215 0.000664572 0.00102367)
(0.0684286 0.000403313 0.00060229)
(0.0778235 0.000351198 0.000502264)
(0.0756443 0.000655708 0.000942956)
(0.0671006 0.000405885 0.000528337)
(0.0767791 0.000345393 0.000439095)
(0.0744262 0.000657021 0.000864601)
(0.0658188 0.000418752 0.000430174)
(0.0757932 0.000355102 0.000370041)
(0.0732472 0.000670798 0.000784105)
(0.0645758 0.000449987 0.000294018)
(0.0748546 0.000387214 0.000268009)
(0.0720873 0.000701771 0.00068658)
(0.0633481 0.000512107 0.000109463)
(0.073951 0.00045317 0.000130387)
(0.0709205 0.000760875 0.000565144)
(0.0620866 0.000599962 -0.000190462)
(0.0730512 0.000562568 -7.58582e-05)
(0.0696822 0.000861403 0.000401645)
(0.0607196 0.000887723 -0.000757333)
(0.0721029 0.000663075 -0.000468242)
(0.0683051 0.000991735 0.000170088)
(0.0713224 0.0008994 -0.00126061)
(0.0669562 0.00157401 -2.13669e-05)
(0.10008 0.00135183 0.00135175)
(0.100186 0.000798791 0.00080494)
(0.100186 0.000804974 0.000798756)
(0.100264 0.00221744 0.00221722)
(0.10019 0.00231197 0.00207142)
(0.100189 0.00207158 0.00231183)
(0.0993826 0.00243605 0.0024356)
(0.100306 0.00263393 0.00245294)
(0.100306 0.00245332 0.00263365)
(0.0979836 0.00231073 0.00231001)
(0.0998048 0.00256082 0.00245573)
(0.0998046 0.00245637 0.00256031)
(0.0964942 0.00200694 0.0020057)
(0.0988624 0.0023651 0.00228059)
(0.0988621 0.00228156 0.00236429)
(0.0950714 0.00159818 0.00159609)
(0.0978403 0.00205018 0.00196746)
(0.0978396 0.00196896 0.00204873)
(0.0937732 0.00122832 0.00122483)
(0.0968604 0.00169311 0.00160364)
(0.0968593 0.00160604 0.00169074)
(0.0926142 0.000965574 0.000959596)
(0.0959578 0.00140768 0.00131982)
(0.0959558 0.00132397 0.0014038)
(0.091588 0.000783873 0.000773488)
(0.0951452 0.00119688 0.00111578)
(0.0951418 0.00112291 0.00119011)
(0.0906785 0.00065621 0.0006376)
(0.0944213 0.00104072 0.000967035)
(0.0944154 0.000979247 0.00102894)
(0.0898645 0.000565117 0.000533131)
(0.0937809 0.000923663 0.000855419)
(0.0937706 0.000876999 0.000903224)
(0.089125 0.000502134 0.000450903)
(0.0932098 0.000835933 0.000770089)
(0.0931924 0.000806 0.000802033)
(0.0884468 0.00046213 0.000383206)
(0.0926957 0.000771893 0.000702605)
(0.092667 0.000760103 0.000717595)
(0.087826 0.00044091 0.000317418)
(0.0922343 0.000726242 0.000643298)
(0.0921885 0.000733631 0.000640156)
(0.0872617 0.000439582 0.000233966)
(0.0918262 0.000696635 0.000580419)
(0.0917527 0.000725973 0.000558328)
(0.0867463 0.00046355 0.000114472)
(0.0914687 0.000682442 0.000496254)
(0.0913503 0.000742985 0.000455879)
(0.0862794 0.000516373 -7.00929e-05)
(0.0911583 0.000685093 0.000374707)
(0.0909699 0.000791866 0.000321332)
(0.0858323 0.000551894 -0.000407315)
(0.0908869 0.000703357 0.000183373)
(0.0905929 0.000878647 0.000126687)
(0.0853454 0.000427145 -0.00109267)
(0.0906201 0.000685913 -0.000152138)
(0.0901846 0.000939267 -0.000198737)
(0.0905576 0.00047856 -0.000758248)
(0.0900696 0.000845748 -0.000703006)
(0.100171 0.00136877 0.00141637)
(0.100118 0.000577449 0.000811292)
(0.100102 0.00069981 0.000700673)
(0.100759 0.00219511 0.00214892)
(0.100478 0.00158299 0.0018587)
(0.100477 0.0018227 0.00186459)
(0.100996 0.00247733 0.00238765)
(0.101004 0.00205901 0.00224236)
(0.101024 0.00234709 0.00238281)
(0.100838 0.00247688 0.00238862)
(0.101292 0.00220391 0.00235172)
(0.101337 0.00250651 0.00254347)
(0.100457 0.00231263 0.00222404)
(0.101309 0.00216804 0.00232142)
(0.101408 0.00245138 0.00247189)
(0.0999672 0.00205832 0.00196699)
(0.101156 0.00201191 0.00217768)
(0.101301 0.00226592 0.00226979)
(0.0994427 0.00179319 0.00169793)
(0.100927 0.00179542 0.00196681)
(0.101097 0.00201115 0.00199759)
(0.0989326 0.00156747 0.00148018)
(0.100665 0.00158609 0.00176308)
(0.100853 0.00177333 0.00175602)
(0.0984634 0.0013848 0.00131582)
(0.100409 0.00139941 0.00158616)
(0.100604 0.00157407 0.00156097)
(0.0980463 0.00123599 0.00119168)
(0.100174 0.00123556 0.00143886)
(0.100375 0.00141027 0.0014051)
(0.0976818 0.00111539 0.00109864)
(0.0999686 0.00109852 0.00132901)
(0.100177 0.00127671 0.00128098)
(0.0973671 0.00101873 0.00102725)
(0.099795 0.000985604 0.00124816)
(0.100014 0.00116964 0.00118187)
(0.0971003 0.00094174 0.000967371)
(0.0996524 0.000891882 0.0011858)
(0.0998844 0.00108558 0.00109976)
(0.09688 0.000880703 0.000910406)
(0.0995398 0.0008121 0.00113356)
(0.0997891 0.00102136 0.00102634)
(0.0967073 0.000831062 0.000847189)
(0.0994586 0.000739554 0.00108451)
(0.0997282 0.000974862 0.000954021)
(0.0965823 0.000786377 0.000762204)
(0.0994109 0.000668713 0.00102957)
(0.0997015 0.000943657 0.000873049)
(0.0965054 0.000740472 0.000636061)
(0.0993958 0.000591261 0.000954466)
(0.0997086 0.000925564 0.000769346)
(0.0964638 0.000675161 0.000450528)
(0.0994113 0.000497806 0.000846376)
(0.0997488 0.000917474 0.000632521)
(0.0964188 0.000524494 0.000212138)
(0.09943 0.000359816 0.000698515)
(0.0998024 0.000894353 0.00044953)
(0.0995593 0.00012585 0.000543908)
(0.0999838 0.00077936 0.000271479)
(0.100242 0.000820243 0.0012561)
(0.10009 0.000294351 0.000735345)
(0.100071 0.000415715 0.00060276)
(0.100828 0.00139072 0.00193925)
(0.100491 0.000792036 0.00168399)
(0.100493 0.00112454 0.00158694)
(0.101392 0.00166373 0.00218198)
(0.101086 0.00107782 0.00208331)
(0.101128 0.00154106 0.00209396)
(0.101816 0.00176151 0.00226055)
(0.101664 0.00120446 0.00217873)
(0.101768 0.00173307 0.00229385)
(0.102081 0.00175592 0.00226095)
(0.102121 0.0012399 0.0022213)
(0.102291 0.00179046 0.00236652)
(0.102216 0.00166901 0.0021751)
(0.102452 0.00120214 0.00220895)
(0.102711 0.00174472 0.00232074)
(0.102267 0.00153489 0.00203905)
(0.102681 0.00111872 0.00212454)
(0.103037 0.00162751 0.00220022)
(0.102278 0.00138381 0.00188163)
(0.102843 0.0010178 0.00200269)
(0.103287 0.00148147 0.00204663)
(0.102277 0.00123246 0.00172482)
(0.102969 0.000917186 0.00186586)
(0.103493 0.00133072 0.00188578)
(0.102275 0.00109482 0.00159402)
(0.103074 0.000822272 0.00173716)
(0.103672 0.00118946 0.00173881)
(0.102278 0.000977147 0.00149833)
(0.103171 0.000736042 0.00163214)
(0.103835 0.00106717 0.00162111)
(0.10229 0.000875881 0.00142816)
(0.103269 0.000657625 0.00154815)
(0.103992 0.000963214 0.00152799)
(0.102315 0.000785665 0.00137496)
(0.10337 0.000585713 0.00148698)
(0.104151 0.000873757 0.00145357)
(0.102352 0.000699406 0.00133235)
(0.103473 0.000516748 0.00144628)
(0.104314 0.000794783 0.0013927)
(0.102407 0.000610593 0.00129384)
(0.103578 0.000443083 0.00141859)
(0.104486 0.000720309 0.00134019)
(0.102478 0.000512784 0.00125209)
(0.10369 0.000359842 0.00139551)
(0.10467 0.000647795 0.00128996)
(0.102564 0.000395728 0.00120022)
(0.103805 0.000259705 0.00137257)
(0.104866 0.000571221 0.00123645)
(0.102658 0.000245963 0.00113874)
(0.103921 0.000134102 0.00134748)
(0.105077 0.000482422 0.00117685)
(0.10274 5.3193e-05 0.0010882)
(0.104031 -2.73482e-05 0.00132443)
(0.105298 0.000368019 0.0011189)
(0.104246 -0.000218267 0.00132613)
(0.105602 0.000217364 0.00110221)
(0.100243 0.000267418 0.0011624)
(0.100087 -2.65878e-08 0.000707019)
(0.100064 0.000135819 0.000537326)
(0.100782 0.000465757 0.00182621)
(0.100477 -7.69851e-08 0.00161778)
(0.100463 0.000370918 0.00142411)
(0.101401 0.000575542 0.0020761)
(0.101066 -1.3391e-07 0.00203464)
(0.101089 0.000525225 0.00193353)
(0.101988 0.000622887 0.00213371)
(0.101694 -2.53517e-07 0.00211759)
(0.101798 0.000605958 0.00212848)
(0.102507 0.000631013 0.00216456)
(0.102269 -4.83619e-07 0.00215003)
(0.10249 0.000639386 0.00221069)
(0.102936 0.000610089 0.00215627)
(0.102742 -8.61073e-07 0.00217952)
(0.10312 0.000634242 0.00224106)
(0.103279 0.000570829 0.00208822)
(0.103124 -1.43157e-06 0.00213373)
(0.103688 0.000600984 0.00219599)
(0.103558 0.000524463 0.0019883)
(0.103429 -2.35806e-06 0.00204383)
(0.104187 0.000554886 0.00210481)
(0.103793 0.000478653 0.00188026)
(0.103682 -3.99146e-06 0.0019345)