/*--------------------------------*- C++ -*----------------------------------*\
| =========                 |                                                 |
| \\      /  F ield         | OpenFOAM: The Open Source CFD Toolbox           |
|  \\    /   O peration     | Version:  2212                                  |
|   \\  /    A nd           | Website:  www.openfoam.com                      |
|    \\/     M anipulation  |                                                 |
\*---------------------------------------------------------------------------*/
FoamFile
{
    version     2.0;
    format      ascii;
    arch        "LSB;label=32;scalar=64";
    class       volScalarField;
    location    "2.7";
    object      nut;
}
// * * * * * * * * * * * * * * * * * * * * * * * * * * * * * * * * * * * * * //

dimensions      [0 2 -1 0 0 0 0];

internalField   nonuniform List<scalar> 
693
(
3.60892e-06
3.58777e-06
3.56713e-06
3.5466e-06
3.52677e-06
3.50747e-06
7.19489e-06
7.14813e-06
7.10274e-06
7.05833e-06
7.01488e-06
6.97272e-06
1.04753e-05
1.0393e-05
1.03135e-05
1.02362e-05
1.01615e-05
1.00893e-05
1.28945e-05
1.2772e-05
1.26576e-05
1.25475e-05
1.24435e-05
1.23412e-05
1.44029e-05
1.42559e-05
1.41152e-05
1.39835e-05
1.3857e-05
1.37364e-05
1.48521e-05
1.46906e-05
1.4532e-05
1.43863e-05
1.42527e-05
1.41268e-05
1.41767e-05
1.40179e-05
1.38765e-05
1.37477e-05
1.36263e-05
1.35109e-05
1.2494e-05
1.23808e-05
1.22692e-05
1.2168e-05
1.20694e-05
1.19677e-05
1.00284e-05
9.94778e-06
9.86774e-06
9.79376e-06
9.72113e-06
9.65279e-06
6.98725e-06
6.94077e-06
6.89532e-06
6.85204e-06
6.80939e-06
6.76831e-06
3.61145e-06
3.5902e-06
3.56956e-06
3.54914e-06
3.52936e-06
3.51007e-06
6.98115e-06
6.93413e-06
6.88935e-06
6.84574e-06
6.80321e-06
6.76211e-06
8.15279e-06
7.97922e-06
7.77977e-06
7.55955e-06
7.34208e-06
7.16826e-06
2.00138e-05
1.90677e-05
1.85195e-05
1.78249e-05
1.71703e-05
1.66833e-05
3.05793e-05
2.91474e-05
2.84793e-05
2.72558e-05
2.66371e-05
2.55709e-05
3.6855e-05
3.58355e-05
3.46942e-05
3.37833e-05
3.25652e-05
3.16442e-05
4.03064e-05
3.86964e-05
3.72699e-05
3.62584e-05
3.52642e-05
3.44059e-05
3.90806e-05
3.77641e-05
3.63978e-05
3.52658e-05
3.39431e-05
3.32258e-05
3.07421e-05
3.01197e-05
2.87121e-05
2.81095e-05
2.67406e-05
2.61261e-05
1.86509e-05
1.79426e-05
1.71121e-05
1.67167e-05
1.58928e-05
1.55091e-05
8.1982e-06
8.04676e-06
7.82344e-06
7.61976e-06
7.38473e-06
7.20921e-06
7.19825e-06
7.15239e-06
7.10664e-06
7.0627e-06
7.01935e-06
6.97723e-06
1.00207e-05
9.93703e-06
9.85856e-06
9.78436e-06
9.71204e-06
9.64361e-06
1.85662e-05
1.76355e-05
1.71304e-05
1.65927e-05
1.5802e-05
1.54045e-05
4.09653e-05
3.909e-05
3.77669e-05
3.66023e-05
3.49321e-05
3.39265e-05
6.07059e-05
5.81196e-05
5.57668e-05
5.35269e-05
5.18131e-05
4.96549e-05
7.11783e-05
6.8929e-05
6.66529e-05
6.5115e-05
6.33016e-05
6.07097e-05
7.58031e-05
7.34199e-05
7.11445e-05
6.9013e-05
6.68815e-05
6.56817e-05
7.30206e-05
7.08268e-05
6.87208e-05
6.65556e-05
6.47541e-05
6.30307e-05
6.10707e-05
5.96096e-05
5.79034e-05
5.56548e-05
5.33547e-05
5.13263e-05
4.04246e-05
3.95244e-05
3.77166e-05
3.67337e-05
3.49769e-05
3.40236e-05
1.96532e-05
1.92836e-05
1.84326e-05
1.79861e-05
1.72232e-05
1.67467e-05
1.04756e-05
1.03954e-05
1.03159e-05
1.02401e-05
1.01661e-05
1.00942e-05
1.24887e-05
1.23691e-05
1.22614e-05
1.21565e-05
1.20598e-05
1.19557e-05
3.11485e-05
2.96174e-05
2.90384e-05
2.76664e-05
2.69832e-05
2.58148e-05
6.10389e-05
5.92199e-05
5.7942e-05
5.56408e-05
5.33968e-05
5.11796e-05
8.37807e-05
8.13014e-05
7.88862e-05
7.64976e-05
7.40104e-05
7.21737e-05
9.65236e-05
9.37799e-05
9.11122e-05
8.86024e-05
8.5978e-05
8.40767e-05
0.000101018
9.82287e-05
9.55202e-05
9.2911e-05
9.02097e-05
8.83271e-05
9.73316e-05
9.46207e-05
9.19763e-05
8.94052e-05
8.6749e-05
8.4863e-05
8.38709e-05
8.1419e-05
7.89829e-05
7.65893e-05
7.40777e-05
7.22478e-05
6.05865e-05
5.82915e-05
5.59227e-05
5.37909e-05
5.18526e-05
4.97809e-05
2.99395e-05
2.94523e-05
2.81631e-05
2.7581e-05
2.65814e-05
2.56428e-05
1.28935e-05
1.27738e-05
1.26585e-05
1.25506e-05
1.24473e-05
1.2346e-05
1.41652e-05
1.40101e-05
1.38683e-05
1.37379e-05
1.36174e-05
1.3501e-05
3.9034e-05
3.76744e-05
3.63889e-05
3.51805e-05
3.39734e-05
3.30388e-05
7.2999e-05
7.07806e-05
6.8688e-05
6.65485e-05
6.48637e-05
6.30519e-05
9.73956e-05
9.46897e-05
9.2059e-05
8.95029e-05
8.68789e-05
8.4981e-05
0.000110833
0.000107888
0.000105024
0.000102255
9.94099e-05
9.72694e-05
0.000115113
0.000112114
0.000109198
0.000106372
0.000103473
0.000101268
0.000110757
0.000107831
0.000104977
0.00010222
9.93707e-05
9.72362e-05
9.67009e-05
9.39576e-05
9.12907e-05
8.88068e-05
8.61832e-05
8.42448e-05
7.13613e-05
6.91233e-05
6.68544e-05
6.5462e-05
6.34417e-05
6.09191e-05
3.68218e-05
3.59203e-05
3.46101e-05
3.3985e-05
3.25846e-05
3.19968e-05
1.44049e-05
1.42574e-05
1.41176e-05
1.39859e-05
1.38604e-05
1.37413e-05
1.48474e-05
1.46855e-05
1.45262e-05
1.43802e-05
1.4247e-05
1.41205e-05
4.02869e-05
3.86816e-05
3.72556e-05
3.62347e-05
3.52958e-05
3.43139e-05
7.59205e-05
7.35451e-05
7.12831e-05
6.91304e-05
6.72131e-05
6.5698e-05
0.0001013
9.85059e-05
9.58031e-05
9.31691e-05
9.05592e-05
8.85259e-05
0.000115364
0.00011235
0.000109424
0.000106571
0.000103734
0.000101356
0.000119783
0.000116699
0.000113704
0.000110796
0.000107848
0.000105527
0.000115205
0.000112204
0.000109285
0.000106459
0.000103559
0.000101349
0.000101265
9.84636e-05
9.5751e-05
9.31431e-05
9.04334e-05
8.85445e-05
7.60077e-05
7.36236e-05
7.13627e-05
6.92359e-05
6.71055e-05
6.59192e-05
4.04066e-05
3.88056e-05
3.73756e-05
3.6356e-05
3.53756e-05
3.45042e-05
1.4854e-05
1.46935e-05
1.45352e-05
1.43896e-05
1.42564e-05
1.41307e-05
1.44e-05
1.42533e-05
1.41117e-05
1.39803e-05
1.38532e-05
3.6782e-05
3.58456e-05
3.45393e-05
3.39175e-05
3.26291e-05
7.13297e-05
6.90836e-05
6.68231e-05
6.54712e-05
6.32361e-05
9.67642e-05
9.40303e-05
9.14002e-05
8.88081e-05
8.66902e-05
0.000110961
0.000108034
0.000105199
0.00010236
9.99915e-05
0.000115274
0.000112269
0.000109355
0.000106511
0.000103687
0.000101289
0.000110776
0.000107861
0.000105021
0.00010227
9.94471e-05
9.7311e-05
9.74159e-05
9.47129e-05
9.20883e-05
8.95335e-05
8.68927e-05
8.50145e-05
7.31522e-05
7.09438e-05
6.88514e-05
6.67127e-05
6.48985e-05
6.32341e-05
3.91529e-05
3.78359e-05
3.64649e-05
3.53364e-05
3.40163e-05
3.33215e-05
1.41776e-05
1.4022e-05
1.388e-05
1.37506e-05
1.36295e-05
1.35142e-05
1.27705e-05
1.26556e-05
1.25472e-05
1.24416e-05
2.89242e-05
2.83922e-05
2.73368e-05
2.64644e-05
6.07522e-05
5.82036e-05
5.591e-05
5.37381e-05
5.15573e-05
8.39153e-05
8.14471e-05
7.91042e-05
7.66061e-05
7.45816e-05
9.74477e-05
9.47534e-05
9.21605e-05
8.95036e-05
8.74246e-05
0.000101193
9.84047e-05
9.57099e-05
9.30839e-05
9.0503e-05
8.83829e-05
9.65844e-05
9.38678e-05
9.12267e-05
8.87363e-05
8.61687e-05
8.42409e-05
8.38808e-05
8.14277e-05
7.90232e-05
7.6642e-05
7.41262e-05
7.22953e-05
6.12483e-05
5.95801e-05
5.80025e-05
5.58155e-05
5.34981e-05
5.14724e-05
3.09664e-05
3.01229e-05
2.87518e-05
2.81577e-05
2.68125e-05
2.61949e-05
1.2498e-05
1.23837e-05
1.22722e-05
1.21705e-05
1.2072e-05
1.19712e-05
1.03938e-05
1.03142e-05
1.02376e-05
1.01632e-05
1.89501e-05
1.84569e-05
1.78671e-05
1.72092e-05
4.10501e-05
3.91269e-05
3.78234e-05
3.6713e-05
3.51241e-05
6.11581e-05
5.93204e-05
5.80396e-05
5.57702e-05
5.33509e-05
7.30513e-05
7.08318e-05
6.87589e-05
6.6568e-05
6.52353e-05
7.58796e-05
7.35063e-05
7.12477e-05
6.90942e-05
6.71476e-05
6.57045e-05
7.12203e-05
6.90071e-05
6.67346e-05
6.52086e-05
6.34103e-05
6.09275e-05
6.06004e-05
5.82563e-05
5.5894e-05
5.37723e-05
5.181e-05
4.98426e-05
4.12798e-05
3.94105e-05
3.78481e-05
3.68226e-05
3.50409e-05
3.41118e-05
1.87972e-05
1.78748e-05
1.72347e-05
1.67527e-05
1.59344e-05
1.554e-05
1.00327e-05
9.95027e-06
9.87063e-06
9.79674e-06
9.72386e-06
9.65543e-06
7.1497e-06
7.10461e-06
7.06027e-06
7.0168e-06
7.92562e-06
7.77244e-06
7.57474e-06
7.39179e-06
1.86044e-05
1.76911e-05
1.71332e-05
1.66791e-05
1.59123e-05
3.11882e-05
2.97775e-05
2.89776e-05
2.79129e-05
2.67847e-05
3.90618e-05
3.77133e-05
3.64233e-05
3.52385e-05
3.39951e-05
4.0272e-05
3.86738e-05
3.72478e-05
3.6268e-05
3.52291e-05
3.44715e-05
3.66729e-05
3.58229e-05
3.44906e-05
3.3929e-05
3.25444e-05
3.19474e-05
2.99143e-05
2.94184e-05
2.81312e-05
2.75236e-05
2.65884e-05
2.56211e-05
1.99549e-05
1.92714e-05
1.84674e-05
1.79828e-05
1.72238e-05
1.67467e-05
8.22482e-06
8.05055e-06
7.83633e-06
7.61848e-06
7.39422e-06
7.21241e-06
6.98932e-06
6.94245e-06
6.89707e-06
6.8535e-06
6.81081e-06
6.76969e-06
3.58908e-06
3.56829e-06
3.54798e-06
3.52823e-06
6.93688e-06
6.89206e-06
6.84874e-06
6.80618e-06
1.00269e-05
9.94175e-06
9.86349e-06
9.78978e-06
9.7177e-06
1.24928e-05
1.23746e-05
1.22651e-05
1.21624e-05
1.20645e-05
1.41695e-05
1.40127e-05
1.38708e-05
1.37414e-05
1.36194e-05
1.48471e-05
1.46857e-05
1.45265e-05
1.43814e-05
1.4247e-05
1.41233e-05
1.43999e-05
1.4252e-05
1.41116e-05
1.39798e-05
1.3854e-05
1.37349e-05
1.28908e-05
1.27709e-05
1.26554e-05
1.2547e-05
1.24435e-05
1.23423e-05
1.04759e-05
1.03955e-05
1.03155e-05
1.02391e-05
1.01648e-05
1.00928e-05
7.19931e-06
7.15287e-06
7.10699e-06
7.06282e-06
7.01933e-06
6.97714e-06
3.61197e-06
3.59067e-06
3.57005e-06
3.54953e-06
3.52972e-06
3.51045e-06
)
;

boundaryField
{
    inlet
    {
        type            calculated;
        value           nonuniform List<scalar> 0();
    }
    ami1
    {
        type            cyclicAMI;
        value           nonuniform List<scalar> 0();
    }
    walls
    {
        type            nutkWallFunction;
        blending        stepwise;
        value           uniform 0;
    }
    ami2
    {
        type            cyclicAMI;
        value           nonuniform List<scalar> 0();
    }
    outlet
    {
        type            calculated;
        value           nonuniform List<scalar> 0();
    }
    procBoundary7to5
    {
        type            processor;
        value           nonuniform List<scalar> 
131
(
3.4887e-06
6.93118e-06
1.00196e-05
1.22457e-05
1.3625e-05
1.40127e-05
1.34017e-05
1.18709e-05
9.5873e-06
6.72852e-06
3.49135e-06
6.72237e-06
6.87154e-06
1.59517e-05
2.49419e-05
3.06017e-05
3.34339e-05
3.17222e-05
2.4654e-05
1.46365e-05
6.92444e-06
6.93563e-06
9.57779e-06
1.44886e-05
3.21278e-05
4.82808e-05
5.78576e-05
6.24838e-05
5.98326e-05
4.89731e-05
3.22116e-05
1.60224e-05
1.00245e-05
1.18626e-05
2.47469e-05
4.90983e-05
6.93265e-05
8.07806e-05
8.49576e-05
8.1573e-05
6.94072e-05
4.83443e-05
2.50066e-05
1.2251e-05
1.33938e-05
3.17413e-05
5.98434e-05
8.16905e-05
9.3789e-05
9.77132e-05
9.37597e-05
8.09681e-05
5.80719e-05
3.05575e-05
1.36298e-05
1.40075e-05
1.3736e-05
3.35357e-05
3.19293e-05
6.24065e-05
6.03477e-05
8.51068e-05
8.36222e-05
9.77489e-05
9.66508e-05
0.000101859
9.7796e-05
8.52036e-05
6.27402e-05
3.3583e-05
1.40171e-05
1.3736e-05
3.19293e-05
6.03477e-05
8.36222e-05
9.66508e-05
9.66508e-05
9.76522e-05
9.38264e-05
8.17403e-05
6.00452e-05
3.1796e-05
1.34051e-05
1.23436e-05
2.58405e-05
5.01143e-05
7.1809e-05
8.43518e-05
8.43518e-05
8.50035e-05
8.09721e-05
6.94587e-05
4.91069e-05
2.47406e-05
1.18732e-05
1.00925e-05
1.67237e-05
3.40379e-05
5.12168e-05
6.25753e-05
6.25753e-05
6.24456e-05
5.8059e-05
4.82512e-05
3.22769e-05
1.4673e-05
9.58887e-06
6.97511e-06
7.09146e-06
1.54089e-05
2.58592e-05
3.30409e-05
3.30409e-05
3.33047e-05
3.05264e-05
2.50029e-05
1.60412e-05
6.93155e-06
6.72958e-06
3.50908e-06
6.76539e-06
9.64847e-06
1.19613e-05
1.35065e-05
1.35065e-05
1.40091e-05
1.36231e-05
1.22474e-05
1.00235e-05
6.93555e-06
3.49166e-06
)
;
    }
    procBoundary7to8
    {
        type            processor;
        value           nonuniform List<scalar> 
68
(
3.63181e-06
7.24674e-06
1.05629e-05
1.30211e-05
1.45614e-05
7.03443e-06
8.65531e-06
2.08171e-05
3.13506e-05
3.81612e-05
1.01135e-05
1.94677e-05
4.23537e-05
6.21505e-05
7.36144e-05
1.26126e-05
3.23129e-05
6.33741e-05
8.64587e-05
9.95533e-05
1.43194e-05
4.05407e-05
7.54895e-05
0.000100361
0.000114097
0.000118499
1.49935e-05
4.19956e-05
7.84558e-05
0.000104336
0.000118695
0.00012324
1.4559e-05
1.2893e-05
3.81562e-05
3.05473e-05
7.36945e-05
9.97215e-05
0.000114187
0.000118629
1.2893e-05
3.05473e-05
3.05473e-05
6.22056e-05
8.65433e-05
0.000100401
0.000104273
1.04756e-05
2.00931e-05
2.00931e-05
4.23447e-05
6.34181e-05
7.5521e-05
7.84394e-05
7.19868e-06
8.38152e-06
8.38152e-06
1.95427e-05
3.24088e-05
4.05696e-05
4.1983e-05
3.61095e-06
6.98847e-06
6.98847e-06
1.01214e-05
1.2619e-05
1.43201e-05
1.49924e-05
)
;
    }
    procBoundary7to9
    {
        type            processor;
        value           nonuniform List<scalar> 
59
(
1.49966e-05
1.43251e-05
1.26217e-05
1.0121e-05
7.04086e-06
3.63422e-06
4.20031e-05
4.06133e-05
3.25318e-05
1.94959e-05
8.70248e-06
7.25167e-06
7.8383e-05
7.55021e-05
6.3473e-05
4.29192e-05
2.09846e-05
1.05663e-05
0.000104127
0.000100315
8.65213e-05
6.24095e-05
3.17325e-05
1.30246e-05
0.000114032
9.96952e-05
7.37578e-05
3.82664e-05
1.45627e-05
0.000118577
0.000104337
7.8534e-05
4.20783e-05
1.49975e-05
0.000114053
0.000100397
7.56051e-05
4.06643e-05
1.43263e-05
9.96074e-05
8.65455e-05
6.35123e-05
3.25528e-05
1.26241e-05
7.36582e-05
6.23654e-05
4.24648e-05
1.95338e-05
1.01239e-05
3.81684e-05
3.16451e-05
2.07862e-05
8.71623e-06
7.04378e-06
1.45586e-05
1.30218e-05
1.05647e-05
7.25228e-06
3.63514e-06
)
;
    }
}


// ************************************************************************* //
