/*--------------------------------*- C++ -*----------------------------------*\
| =========                 |                                                 |
| \\      /  F ield         | OpenFOAM: The Open Source CFD Toolbox           |
|  \\    /   O peration     | Version:  2212                                  |
|   \\  /    A nd           | Website:  www.openfoam.com                      |
|    \\/     M anipulation  |                                                 |
\*---------------------------------------------------------------------------*/
FoamFile
{
    version     2.0;
    format      ascii;
    arch        "LSB;label=32;scalar=64";
    class       volScalarField;
    location    "0.25";
    object      k;
}
// * * * * * * * * * * * * * * * * * * * * * * * * * * * * * * * * * * * * * //

dimensions      [0 2 -2 0 0 0 0];

internalField   nonuniform List<scalar> 
6840
(
0.213564
0.055916
0.0284013
0.0193394
0.0146991
0.0118648
0.00991529
0.00856256
0.00758288
0.00685233
0.00630377
0.00589332
0.00558652
0.00535062
0.00517005
0.0050329
0.0049296
0.0048521
0.00481364
0.00483304
0.264759
0.104703
0.0585355
0.0391835
0.0286631
0.0220824
0.0176986
0.0146311
0.0124246
0.0108041
0.00960291
0.00870525
0.00804578
0.00754294
0.00715639
0.00686663
0.0066421
0.00646605
0.00630803
0.00610083
0.283364
0.126775
0.071707
0.0473435
0.0338841
0.0257229
0.0205859
0.0170181
0.014436
0.0124822
0.0110063
0.00989459
0.00905874
0.00842813
0.00794992
0.00758718
0.00730014
0.0070696
0.00687775
0.00677258
0.2923
0.141634
0.0819351
0.0541804
0.0389395
0.029352
0.0234143
0.0193246
0.0163456
0.0141092
0.0124011
0.011099
0.0101078
0.00935379
0.00878128
0.00834661
0.00801359
0.0077486
0.00753746
0.0074438
0.295943
0.148783
0.0871991
0.057689
0.041533
0.0311353
0.0247883
0.020469
0.0173239
0.0149413
0.0131051
0.0117053
0.0106376
0.0098229
0.00920099
0.0087258
0.00836191
0.00807983
0.0078573
0.00776381
0.295943
0.148783
0.0871991
0.057689
0.0415331
0.0311353
0.0247884
0.0204691
0.0173241
0.0149416
0.0131056
0.0117059
0.0106384
0.00982398
0.0092028
0.00872875
0.00836654
0.00808694
0.00786556
0.00773469
0.2923
0.141634
0.0819351
0.0541805
0.0389396
0.0293522
0.0234146
0.0193249
0.0163461
0.0141099
0.012402
0.0111003
0.0101099
0.00935793
0.00878707
0.00835478
0.00802581
0.0077676
0.00755942
0.00739908
0.283364
0.126775
0.0717071
0.0473436
0.0338842
0.025723
0.0205861
0.0170184
0.0144364
0.0124828
0.0110072
0.00989598
0.0090608
0.00843159
0.00795536
0.00759575
0.00731414
0.00709409
0.00692218
0.00682004
0.264759
0.104703
0.0585355
0.0391835
0.0286631
0.0220824
0.0176986
0.0146312
0.0124246
0.0108043
0.0096032
0.00870567
0.00804612
0.00754408
0.00715833
0.00686978
0.00664854
0.00648299
0.00635319
0.00625898
0.213564
0.055916
0.0284013
0.0193394
0.0146991
0.0118648
0.00991529
0.00856255
0.00758289
0.00685236
0.00630366
0.00589372
0.00558656
0.00535007
0.00516923
0.00503259
0.0049297
0.0048523
0.00481371
0.00483284
0.264759
0.104703
0.0585355
0.0391835
0.0286631
0.0220824
0.0176986
0.0146312
0.0124246
0.0108043
0.00960314
0.00870562
0.0080464
0.007544
0.00715831
0.00687014
0.00664828
0.0064828
0.00635301
0.00625906
0.311746
0.197544
0.130373
0.0911945
0.0669188
0.0510405
0.0401982
0.0325601
0.0270603
0.0230424
0.0200796
0.0178819
0.0162474
0.0150341
0.0141044
0.0133977
0.0128529
0.0124162
0.0120102
0.011502
0.31754
0.217757
0.151099
0.108591
0.0808156
0.0620782
0.0490516
0.0397588
0.0329975
0.0280092
0.0242955
0.0215173
0.0194328
0.0178667
0.0166804
0.0157772
0.0150802
0.014517
0.0140172
0.0134688
0.319723
0.227076
0.162245
0.118812
0.0894547
0.0691892
0.054893
0.0445876
0.0370241
0.0314008
0.027182
0.0239989
0.021589
0.0197602
0.0183685
0.017305
0.0164873
0.0158429
0.0152943
0.0147441
0.320484
0.230863
0.167188
0.123568
0.0936059
0.0726732
0.057795
0.0470138
0.0390667
0.0331327
0.0286628
0.0252779
0.0227055
0.0207453
0.0192477
0.0180992
0.0172132
0.0165207
0.0159573
0.0154468
0.320484
0.230863
0.167188
0.123568
0.093606
0.0726734
0.0577952
0.0470141
0.0390671
0.0331332
0.0286635
0.0252788
0.0227068
0.0207471
0.0192503
0.0181035
0.0172202
0.0165329
0.0159823
0.0155098
0.319723
0.227076
0.162245
0.118812
0.0894549
0.0691895
0.0548934
0.0445881
0.0370249
0.0314018
0.0271833
0.0240009
0.0215918
0.0197652
0.0183759
0.0173159
0.0165045
0.015873
0.0153563
0.0148989
0.31754
0.217757
0.1511
0.108591
0.0808157
0.0620784
0.0490519
0.0397592
0.032998
0.0280099
0.0242966
0.0215189
0.0194353
0.0178709
0.0166867
0.0157869
0.0150956
0.0145446
0.0140761
0.0136074
0.311746
0.197544
0.130373
0.0911945
0.0669188
0.0510405
0.0401982
0.0325601
0.0270603
0.0230425
0.0200796
0.0178822
0.0162477
0.0150344
0.0141049
0.0133983
0.0128531
0.0124166
0.0120105
0.011502
0.264759
0.104703
0.0585355
0.0391835
0.0286631
0.0220824
0.0176986
0.0146311
0.0124246
0.0108041
0.00960297
0.0087053
0.00804548
0.00754291
0.00715624
0.0068661
0.00664221
0.00646613
0.00630813
0.00610074
0.283364
0.126775
0.0717071
0.0473436
0.0338842
0.025723
0.0205861
0.0170184
0.0144364
0.0124828
0.0110071
0.00989582
0.00906063
0.0084311
0.00795468
0.00759505
0.00731353
0.00709361
0.00692186
0.00681997
0.31754
0.217757
0.1511
0.108591
0.0808157
0.0620784
0.0490519
0.0397592
0.032998
0.0280099
0.0242966
0.0215188
0.0194351
0.0178702
0.0166857
0.0157859
0.0150949
0.014544
0.0140756
0.0136071
0.322005
0.23903
0.177603
0.133659
0.102424
0.0800735
0.0638898
0.0520178
0.0432076
0.0366112
0.0316416
0.0278822
0.0250319
0.022867
0.0212175
0.0199545
0.0189809
0.0182093
0.0175618
0.0169415
0.323293
0.245621
0.187515
0.144582
0.112967
0.089613
0.0722442
0.0592236
0.0493894
0.0419182
0.0362196
0.0318628
0.0285273
0.0259705
0.0240065
0.0224923
0.0213156
0.0203836
0.0196074
0.0188752
0.323714
0.247823
0.191116
0.148857
0.117355
0.0937828
0.0760414
0.0626005
0.0523557
0.0445101
0.0384835
0.0338467
0.0302765
0.0275256
0.0254028
0.0237597
0.0224791
0.0214653
0.0206327
0.0198836
0.323714
0.247823
0.191116
0.148857
0.117355
0.0937829
0.0760415
0.0626007
0.0523559
0.0445104
0.0384839
0.0338473
0.0302773
0.0275266
0.0254043
0.023762
0.0224834
0.0214747
0.0206572
0.0199571
0.323293
0.245621
0.187515
0.144582
0.112967
0.0896131
0.0722444
0.0592239
0.0493898
0.0419187
0.0362203
0.0318638
0.0285286
0.0259721
0.024009
0.0224965
0.0213232
0.0203999
0.0196497
0.0190055
0.322005
0.23903
0.177603
0.133659
0.102424
0.0800736
0.0638898
0.0520178
0.0432076
0.0366112
0.0316416
0.0278823
0.0250319
0.0228669
0.0212174
0.0199546
0.018981
0.0182095
0.017562
0.0169417
0.31754
0.217757
0.151099
0.108591
0.0808156
0.0620782
0.0490516
0.0397588
0.0329975
0.0280092
0.0242955
0.0215174
0.0194329
0.0178667
0.0166804
0.0157774
0.0150804
0.0145172
0.0140174
0.0134688
0.283364
0.126775
0.071707
0.0473435
0.0338841
0.0257229
0.0205859
0.0170181
0.014436
0.0124822
0.0110063
0.00989472
0.00905877
0.00842808
0.00794989
0.00758721
0.00730025
0.00706975
0.00687788
0.00677238
0.2923
0.141634
0.0819351
0.0541805
0.0389396
0.0293522
0.0234146
0.0193249
0.0163461
0.0141099
0.012402
0.0111003
0.0101097
0.00935664
0.00878568
0.00835354
0.00802486
0.00776699
0.00755898
0.00739866
0.319723
0.227076
0.162245
0.118812
0.0894549
0.0691895
0.0548934
0.0445881
0.0370249
0.0314018
0.0271834
0.0240009
0.0215919
0.0197645
0.0183748
0.017315
0.0165037
0.0158724
0.0153559
0.0148983
0.323293
0.245621
0.187515
0.144582
0.112967
0.0896131
0.0722444
0.0592238
0.0493898
0.0419187
0.0362203
0.0318638
0.0285286
0.0259723
0.0240092
0.0224965
0.0213231
0.0203998
0.0196495
0.0190055
0.324288
0.250868
0.19615
0.154941
0.123707
0.0999064
0.0816768
0.0676476
0.0568097
0.0484162
0.0419085
0.036863
0.0329532
0.0299245
0.0275766
0.0257521
0.0243251
0.0231921
0.0222621
0.0214452
0.32459
0.252409
0.198933
0.158602
0.127815
0.104111
0.0857402
0.0714348
0.0602595
0.0515159
0.0446742
0.0393258
0.0351506
0.0318953
0.0293571
0.0273743
0.0258163
0.0245739
0.0235504
0.0226473
0.32459
0.252409
0.198933
0.158602
0.127815
0.104111
0.0857402
0.0714348
0.0602596
0.051516
0.0446744
0.039326
0.0351509
0.0318956
0.0293574
0.0273749
0.0258175
0.024577
0.0235589
0.0226726
0.324288
0.250868
0.19615
0.154941
0.123707
0.0999064
0.0816768
0.0676477
0.0568097
0.0484162
0.0419086
0.0368632
0.0329534
0.0299243
0.0275764
0.0257519
0.024325
0.0231921
0.022262
0.021445
0.323293
0.245621
0.187515
0.144582
0.112967
0.089613
0.0722443
0.0592236
0.0493894
0.0419183
0.0362197
0.0318629
0.0285274
0.0259704
0.0240064
0.0224922
0.0213156
0.0203838
0.0196075
0.0188753
0.319723
0.227076
0.162245
0.118812
0.0894547
0.0691892
0.054893
0.0445876
0.0370241
0.0314008
0.027182
0.023999
0.0215891
0.0197602
0.0183685
0.0173051
0.0164875
0.0158431
0.0152945
0.0147443
0.2923
0.141634
0.0819351
0.0541804
0.0389395
0.029352
0.0234143
0.0193246
0.0163456
0.0141092
0.0124011
0.011099
0.0101077
0.0093537
0.00878128
0.00834671
0.00801375
0.00774878
0.00753758
0.00744377
0.295943
0.148783
0.0871991
0.057689
0.0415331
0.0311353
0.0247884
0.0204691
0.0173241
0.0149416
0.0131056
0.0117059
0.0106385
0.00982426
0.00920303
0.00872886
0.00836656
0.00808691
0.00786549
0.00773459
0.320484
0.230863
0.167188
0.123568
0.093606
0.0726734
0.0577952
0.0470141
0.0390671
0.0331332
0.0286635
0.0252788
0.0227068
0.0207473
0.0192506
0.0181037
0.0172203
0.0165329
0.0159822
0.0155096
0.323714
0.247823
0.191116
0.148857
0.117355
0.0937829
0.0760415
0.0626006
0.0523559
0.0445104
0.0384839
0.0338472
0.0302772
0.0275266
0.0254044
0.0237622
0.0224835
0.0214748
0.0206573
0.0199572
0.32459
0.252409
0.198933
0.158602
0.127815
0.104111
0.0857402
0.0714348
0.0602596
0.051516
0.0446743
0.0393259
0.0351508
0.0318955
0.0293575
0.027375
0.0258177
0.0245772
0.0235591
0.022673
0.324844
0.253693
0.201337
0.161904
0.131675
0.108205
0.0898182
0.0753318
0.0638822
0.0548242
0.0476639
0.0420145
0.037568
0.0340756
0.0313347
0.0291811
0.0274794
0.0261145
0.024981
0.0239657
0.324844
0.253693
0.201337
0.161904
0.131675
0.108205
0.0898182
0.0753318
0.0638822
0.0548243
0.0476639
0.0420146
0.0375681
0.0340757
0.0313347
0.029181
0.0274793
0.0261144
0.0249809
0.0239655
0.32459
0.252409
0.198933
0.158602
0.127815
0.104111
0.0857402
0.0714348
0.0602596
0.051516
0.0446743
0.039326
0.0351509
0.0318952
0.0293567
0.0273741
0.0258162
0.0245739
0.0235504
0.0226473
0.323714
0.247823
0.191116
0.148857
0.117355
0.0937829
0.0760414
0.0626005
0.0523557
0.0445102
0.0384836
0.0338469
0.0302766
0.0275255
0.0254026
0.0237596
0.0224792
0.0214654
0.0206329
0.0198838
0.320484
0.230863
0.167188
0.123568
0.0936059
0.0726732
0.057795
0.0470138
0.0390667
0.0331327
0.0286629
0.0252779
0.0227055
0.0207454
0.0192477
0.0180994
0.0172134
0.0165209
0.0159576
0.0154473
0.295943
0.148783
0.0871991
0.057689
0.041533
0.0311353
0.0247883
0.020469
0.0173239
0.0149413
0.0131052
0.0117053
0.0106376
0.00982293
0.00920107
0.00872593
0.00836207
0.00808002
0.00785755
0.00776431
0.295943
0.148783
0.0871991
0.057689
0.041533
0.0311353
0.0247883
0.020469
0.0173239
0.0149413
0.0131052
0.0117053
0.0106376
0.00982298
0.0092011
0.00872591
0.008362
0.0080799
0.00785737
0.00776405
0.320484
0.230863
0.167188
0.123568
0.0936059
0.0726732
0.057795
0.0470139
0.0390667
0.0331327
0.0286629
0.0252779
0.0227055
0.0207454
0.0192478
0.0180994
0.0172134
0.0165207
0.0159574
0.0154469
0.323714
0.247823
0.191116
0.148857
0.117355
0.0937828
0.0760414
0.0626005
0.0523557
0.0445101
0.0384835
0.0338467
0.0302765
0.0275256
0.0254029
0.0237598
0.0224792
0.0214654
0.0206328
0.0198837
0.32459
0.252409
0.198933
0.158602
0.127815
0.104111
0.0857402
0.0714348
0.0602595
0.0515159
0.0446742
0.0393257
0.0351506
0.0318953
0.0293571
0.0273744
0.0258164
0.024574
0.0235505
0.0226475
0.324844
0.253693
0.201337
0.161904
0.131675
0.108205
0.0898182
0.0753318
0.0638822
0.0548243
0.0476639
0.0420145
0.037568
0.0340756
0.0313348
0.0291811
0.0274794
0.0261146
0.024981
0.0239657
0.324844
0.253693
0.201337
0.161904
0.131675
0.108205
0.0898183
0.0753318
0.0638822
0.0548243
0.047664
0.0420146
0.0375682
0.0340757
0.0313347
0.029181
0.0274793
0.0261145
0.024981
0.0239657
0.32459
0.252409
0.198933
0.158602
0.127815
0.104111
0.0857403
0.0714348
0.0602596
0.0515161
0.0446745
0.0393262
0.0351511
0.0318955
0.0293572
0.0273748
0.0258176
0.0245771
0.023559
0.0226728
0.323714
0.247823
0.191116
0.148857
0.117355
0.093783
0.0760416
0.0626007
0.052356
0.0445105
0.038484
0.0338474
0.0302774
0.0275265
0.0254042
0.023762
0.0224835
0.0214748
0.0206574
0.0199573
0.320484
0.230863
0.167188
0.123568
0.093606
0.0726734
0.0577952
0.0470141
0.0390671
0.0331332
0.0286636
0.0252789
0.0227069
0.0207473
0.0192506
0.0181037
0.0172204
0.0165331
0.0159825
0.0155101
0.295943
0.148783
0.0871991
0.057689
0.0415331
0.0311353
0.0247883
0.0204691
0.0173241
0.0149416
0.0131056
0.011706
0.0106385
0.00982424
0.00920302
0.0087289
0.00836666
0.00808707
0.00786572
0.00773498
0.2923
0.141634
0.0819351
0.0541804
0.0389395
0.029352
0.0234143
0.0193246
0.0163457
0.0141092
0.0124011
0.011099
0.0101078
0.00935382
0.00878133
0.00834666
0.00801363
0.00774863
0.00753742
0.00744356
0.319723
0.227076
0.162245
0.118812
0.0894547
0.0691892
0.054893
0.0445876
0.0370242
0.0314008
0.027182
0.023999
0.0215891
0.0197603
0.0183685
0.0173051
0.0164874
0.0158429
0.0152943
0.014744
0.323293
0.245621
0.187515
0.144582
0.112967
0.089613
0.0722442
0.0592236
0.0493894
0.0419182
0.0362197
0.0318629
0.0285274
0.0259706
0.0240066
0.0224923
0.0213157
0.0203837
0.0196074
0.0188751
0.324288
0.250868
0.19615
0.154941
0.123707
0.0999064
0.0816768
0.0676477
0.0568097
0.0484162
0.0419086
0.0368631
0.0329532
0.0299245
0.0275767
0.0257522
0.0243252
0.0231921
0.0222621
0.0214451
0.32459
0.252409
0.198933
0.158602
0.127815
0.104111
0.0857403
0.0714348
0.0602596
0.0515161
0.0446744
0.039326
0.0351509
0.0318956
0.0293576
0.027375
0.0258177
0.0245771
0.023559
0.0226727
0.32459
0.252409
0.198933
0.158602
0.127815
0.104111
0.0857402
0.0714347
0.0602595
0.051516
0.0446743
0.0393259
0.0351508
0.0318954
0.0293571
0.0273743
0.0258163
0.024574
0.0235504
0.0226474
0.324288
0.250868
0.19615
0.154941
0.123707
0.0999064
0.0816768
0.0676476
0.0568097
0.0484163
0.0419087
0.0368633
0.0329534
0.0299244
0.0275764
0.025752
0.0243251
0.0231922
0.0222622
0.0214452
0.323293
0.245621
0.187515
0.144582
0.112967
0.0896131
0.0722444
0.0592239
0.0493899
0.0419189
0.0362205
0.031864
0.0285288
0.0259723
0.0240091
0.0224965
0.0213232
0.0204
0.0196498
0.0190056
0.319723
0.227076
0.162245
0.118812
0.0894549
0.0691894
0.0548936
0.0445885
0.0370253
0.0314022
0.0271837
0.0240012
0.0215921
0.0197645
0.0183749
0.0173151
0.0165039
0.0158727
0.0153563
0.0148992
0.2923
0.141634
0.0819351
0.0541805
0.0389396
0.0293521
0.0234149
0.0193254
0.0163465
0.0141101
0.0124022
0.0111004
0.0101097
0.00935662
0.00878571
0.00835366
0.00802505
0.00776723
0.00755933
0.00739931
0.283364
0.126775
0.071707
0.0473435
0.0338841
0.0257229
0.0205859
0.0170181
0.014436
0.0124822
0.0110063
0.0098946
0.00905875
0.00842814
0.00794993
0.0075872
0.00730016
0.0070696
0.00687771
0.0067722
0.31754
0.217757
0.151099
0.108591
0.0808156
0.0620782
0.0490516
0.0397589
0.0329975
0.0280092
0.0242955
0.0215173
0.0194328
0.0178668
0.0166804
0.0157772
0.0150803
0.014517
0.0140171
0.0134684
0.322005
0.23903
0.177603
0.133659
0.102424
0.0800736
0.0638898
0.0520178
0.0432076
0.0366112
0.0316416
0.0278823
0.0250319
0.022867
0.0212175
0.0199546
0.0189809
0.0182093
0.0175618
0.0169414
0.323293
0.245621
0.187515
0.144582
0.112967
0.0896131
0.0722444
0.0592239
0.0493898
0.0419188
0.0362204
0.0318638
0.0285287
0.0259724
0.0240093
0.0224965
0.0213232
0.0203998
0.0196495
0.0190054
0.323714
0.247823
0.191116
0.148857
0.117355
0.0937829
0.0760415
0.0626007
0.052356
0.0445105
0.038484
0.0338474
0.0302774
0.0275267
0.0254044
0.0237622
0.0224835
0.0214748
0.0206573
0.0199572
0.323714
0.247823
0.191116
0.148857
0.117355
0.0937829
0.0760414
0.0626005
0.0523558
0.0445102
0.0384837
0.0338469
0.0302767
0.0275257
0.0254029
0.0237598
0.0224792
0.0214655
0.0206329
0.0198838
0.323293
0.245621
0.187515
0.144582
0.112967
0.089613
0.0722442
0.0592236
0.0493895
0.0419183
0.0362198
0.031863
0.0285274
0.0259704
0.0240065
0.0224924
0.0213158
0.020384
0.0196077
0.0188754
0.322005
0.23903
0.177603
0.133659
0.102424
0.0800736
0.0638898
0.0520178
0.0432077
0.0366113
0.0316418
0.0278824
0.0250321
0.022867
0.0212176
0.0199548
0.0189812
0.0182097
0.0175622
0.0169419
0.31754
0.217757
0.1511
0.108591
0.0808157
0.0620784
0.0490521
0.0397595
0.0329983
0.0280102
0.0242968
0.0215192
0.0194353
0.0178703
0.0166859
0.0157862
0.0150952
0.0145445
0.0140761
0.0136077
0.283364
0.126775
0.0717071
0.0473436
0.0338842
0.025723
0.0205862
0.0170186
0.0144366
0.012483
0.0110073
0.00989609
0.00906077
0.00843113
0.00795473
0.00759516
0.00731373
0.00709386
0.00692213
0.00682025
0.264759
0.104703
0.0585355
0.0391835
0.0286631
0.0220824
0.0176986
0.0146311
0.0124246
0.0108041
0.00960292
0.00870527
0.00804579
0.00754295
0.0071564
0.00686663
0.0066421
0.00646603
0.00630795
0.00610057
0.311746
0.197544
0.130373
0.0911945
0.0669188
0.0510405
0.0401982
0.0325601
0.0270604
0.0230425
0.0200796
0.0178819
0.0162474
0.0150342
0.0141044
0.0133978
0.012853
0.0124162
0.0120101
0.0115016
0.31754
0.217757
0.1511
0.108591
0.0808157
0.0620784
0.0490519
0.0397593
0.0329981
0.02801
0.0242966
0.0215189
0.0194351
0.0178702
0.0166858
0.0157859
0.0150949
0.0145441
0.0140756
0.013607
0.319723
0.227076
0.162245
0.118812
0.0894549
0.0691895
0.0548934
0.0445882
0.037025
0.0314019
0.0271835
0.0240011
0.021592
0.0197645
0.0183749
0.017315
0.0165038
0.0158725
0.015356
0.0148987
0.320484
0.230863
0.167188
0.123568
0.093606
0.0726733
0.0577953
0.0470143
0.0390673
0.0331334
0.0286638
0.025279
0.022707
0.0207474
0.0192506
0.0181037
0.0172203
0.016533
0.0159823
0.0155099
0.320484
0.230863
0.167188
0.123568
0.0936059
0.0726732
0.0577951
0.0470141
0.039067
0.033133
0.0286631
0.0252781
0.0227057
0.0207453
0.0192477
0.0180994
0.0172135
0.016521
0.0159577
0.0154472
0.319723
0.227076
0.162245
0.118812
0.0894547
0.0691893
0.0548931
0.0445877
0.0370243
0.031401
0.0271822
0.0239991
0.0215892
0.0197611
0.0183697
0.0173062
0.0164884
0.0158437
0.0152949
0.0147446
0.31754
0.217757
0.151099
0.108591
0.0808156
0.0620782
0.0490516
0.0397589
0.0329976
0.0280093
0.0242957
0.0215176
0.0194332
0.0178676
0.0166815
0.0157784
0.0150812
0.0145178
0.0140178
0.0134691
0.311746
0.197544
0.130373
0.0911945
0.0669188
0.0510406
0.0401983
0.0325602
0.0270606
0.0230427
0.0200799
0.0178824
0.0162479
0.0150346
0.014105
0.0133984
0.0128533
0.0124168
0.0120107
0.0115023
0.264759
0.104703
0.0585355
0.0391835
0.0286631
0.0220824
0.0176987
0.0146313
0.0124248
0.0108044
0.00960334
0.00870579
0.0080462
0.00754405
0.00715824
0.00686968
0.00664847
0.00648298
0.00635323
0.00625912
0.213564
0.055916
0.0284013
0.0193394
0.0146991
0.0118648
0.00991529
0.00856256
0.00758289
0.00685234
0.00630378
0.00589333
0.00558654
0.00535063
0.00517006
0.00503291
0.0049296
0.0048521
0.00481356
0.00483279
0.264759
0.104703
0.0585355
0.0391835
0.0286631
0.0220824
0.0176986
0.0146312
0.0124247
0.0108043
0.00960317
0.00870565
0.00804642
0.00754402
0.00715833
0.00687015
0.00664828
0.00648278
0.00635296
0.00625877
0.283364
0.126775
0.0717071
0.0473436
0.0338842
0.025723
0.0205861
0.0170184
0.0144364
0.0124828
0.0110072
0.00989587
0.00906067
0.00843113
0.0079547
0.00759506
0.00731354
0.00709362
0.00692183
0.00681979
0.2923
0.141634
0.0819351
0.0541804
0.0389396
0.0293522
0.0234146
0.019325
0.0163462
0.0141099
0.012402
0.0111003
0.0101097
0.00935668
0.0087857
0.00835355
0.00802488
0.00776704
0.00755908
0.00739889
0.295943
0.148783
0.0871991
0.057689
0.0415331
0.0311353
0.0247885
0.0204693
0.0173243
0.0149418
0.0131057
0.0117061
0.0106386
0.00982428
0.00920301
0.00872884
0.00836657
0.00808696
0.0078656
0.00773481
0.295943
0.148783
0.0871991
0.057689
0.041533
0.0311352
0.0247884
0.0204692
0.0173241
0.0149415
0.0131053
0.0117055
0.0106377
0.00982281
0.00920098
0.00872591
0.00836209
0.00808005
0.00785757
0.0077643
0.2923
0.141634
0.0819351
0.0541804
0.0389395
0.029352
0.0234144
0.0193247
0.0163458
0.0141094
0.0124012
0.0110991
0.0101081
0.0093552
0.00878282
0.008348
0.00801469
0.00774935
0.00753793
0.00744399
0.283364
0.126775
0.0717071
0.0473435
0.0338841
0.0257229
0.0205859
0.0170181
0.014436
0.0124823
0.0110064
0.00989483
0.009059
0.00842872
0.00795072
0.00758801
0.00730089
0.00707021
0.00687821
0.00677261
0.264759
0.104703
0.0585355
0.0391835
0.0286631
0.0220824
0.0176987
0.0146312
0.0124247
0.0108042
0.00960307
0.0087054
0.00804559
0.00754311
0.0071565
0.00686635
0.00664243
0.00646632
0.0063083
0.00610089
0.213564
0.055916
0.0284013
0.0193394
0.0146991
0.0118648
0.00991532
0.00856259
0.00758294
0.00685241
0.00630371
0.00589377
0.00558661
0.00535012
0.00516928
0.00503263
0.00492974
0.00485235
0.00481377
0.00483293
0.0054913
0.00493271
0.00475724
0.00471681
0.00471326
0.00472224
0.00473121
0.00473924
0.00474641
0.0047529
0.00475873
0.00476399
0.00476861
0.0047725
0.00477591
0.00477896
0.00478158
0.00478377
0.0047856
0.00478711
0.00478834
0.00478934
0.00479011
0.0047906
0.00479093
0.00479113
0.0047913
0.00479148
0.00479165
0.00479166
0.00479171
0.00479167
0.00479158
0.00479183
0.00479002
0.00479209
0.00479212
0.00479196
0.00479189
0.00479196
0.00610562
0.00569844
0.00563285
0.00563817
0.00565219
0.00566958
0.00568696
0.00570284
0.00571683
0.0057292
0.00574025
0.00574996
0.00575854
0.00576621
0.005773
0.00577888
0.00578394
0.00578824
0.00579185
0.00579484
0.00579724
0.00579911
0.00580042
0.00580136
0.00580205
0.00580258
0.00580296
0.00580321
0.00580329
0.00580331
0.00580333
0.00580339
0.00580344
0.00580303
0.00580019
0.00580422
0.00580458
0.0058043
0.00580409
0.00580405
0.0067517
0.00632272
0.00614338
0.00608159
0.00606865
0.0060717
0.00608101
0.00609236
0.00610411
0.00611559
0.00612647
0.00613655
0.0061458
0.00615422
0.00616179
0.00616851
0.00617439
0.00617944
0.00618373
0.0061873
0.00619021
0.00619249
0.00619415
0.00619525
0.00619601
0.00619656
0.00619695
0.00619723
0.00619738
0.0061974
0.00619743
0.00619751
0.00619766
0.00619825
0.00620082
0.00620036
0.00619944
0.0061988
0.00619851
0.00619843
0.00717415
0.00685759
0.00669561
0.00661762
0.00658224
0.00657205
0.00657245
0.00657843
0.00658728
0.00659748
0.00660806
0.00661846
0.0066285
0.00663796
0.00664663
0.00665439
0.00666121
0.0066671
0.00667211
0.00667629
0.00667971
0.00668235
0.00668418
0.00668528
0.00668596
0.00668644
0.00668677
0.00668698
0.00668704
0.00668706
0.00668713
0.00668722
0.00668727
0.00668705
0.00668596
0.00668643
0.00668707
0.00668754
0.00668788
0.00668811
0.00736343
0.00713789
0.007004
0.0069261
0.00688277
0.00686103
0.00685312
0.0068531
0.00685792
0.0068656
0.00687479
0.00688465
0.00689506
0.0069051
0.00691434
0.00692262
0.00692989
0.0069362
0.00694157
0.00694608
0.00694975
0.00695256
0.00695423
0.00695493
0.00695512
0.00695531
0.00695551
0.00695571
0.00695576
0.00695577
0.00695585
0.00695598
0.00695611
0.0069562
0.00695632
0.00695701
0.00695704
0.006957
0.00695703
0.00695711
0.00733141
0.00721603
0.00712402
0.00705798
0.00701431
0.00698822
0.00697525
0.00697135
0.00697328
0.00697893
0.0069867
0.0069954
0.00700446
0.00701344
0.00702199
0.00702985
0.0070369
0.0070431
0.00704844
0.00705294
0.00705663
0.00705951
0.00706155
0.00706296
0.00706401
0.00706484
0.00706548
0.00706592
0.00706612
0.00706622
0.00706636
0.00706653
0.0070667
0.00706679
0.00706679
0.00706691
0.00706695
0.00706703
0.00706721
0.00706741
0.00740099
0.00722782
0.00710429
0.0070212
0.00696879
0.0069384
0.00692333
0.00691827
0.00691942
0.00692442
0.00693156
0.00693954
0.00694801
0.00695656
0.00696476
0.00697232
0.00697912
0.00698508
0.00699021
0.00699455
0.00699811
0.00700091
0.00700295
0.00700448
0.00700572
0.0070067
0.00700745
0.00700797
0.00700821
0.00700833
0.0070085
0.00700869
0.00700886
0.00700887
0.00700867
0.00700848
0.00700842
0.00700855
0.00700886
0.00700916
0.00737171
0.00703989
0.00685355
0.00675564
0.0067071
0.00668495
0.00667427
0.00667467
0.00667928
0.00668637
0.00669447
0.00670202
0.00671097
0.00671979
0.00672794
0.00673523
0.00674163
0.00674719
0.00675193
0.00675592
0.0067592
0.00676179
0.00676373
0.00676518
0.00676631
0.00676722
0.00676792
0.0067684
0.00676865
0.00676878
0.00676891
0.00676906
0.00676917
0.00676912
0.00676875
0.00676792
0.00676767
0.00676797
0.00676853
0.00676905
0.00701483
0.00646115
0.0062898
0.0062308
0.00621291
0.00621261
0.00621775
0.00622572
0.006235
0.00624477
0.00625468
0.00626609
0.00627444
0.00628145
0.00628797
0.00629399
0.00629941
0.00630417
0.00630826
0.0063117
0.00631453
0.00631677
0.00631846
0.00631969
0.00632065
0.00632142
0.00632201
0.00632244
0.00632269
0.00632278
0.00632287
0.00632296
0.006323
0.00632283
0.00632191
0.00631839
0.00631884
0.00632027
0.00632154
0.00632243
0.00546061
0.00546882
0.00554456
0.00563084
0.00568762
0.0057234
0.00574855
0.00576751
0.00578281
0.0057958
0.00580703
0.00581783
0.00582679
0.0058341
0.00584035
0.00584583
0.00585062
0.00585474
0.00585823
0.00586113
0.00586347
0.0058653
0.00586662
0.00586761
0.0058684
0.00586902
0.00586951
0.00586984
0.00586997
0.00587003
0.00587008
0.00587017
0.00587026
0.00587017
0.00586967
0.00586873
0.00586812
0.00586858
0.00586917
0.00586983
0.00549089
0.00493157
0.00475612
0.00471305
0.00471046
0.00472109
0.00473098
0.00473928
0.00474655
0.00475306
0.00475892
0.0047645
0.00476888
0.00477265
0.00477602
0.00477892
0.0047814
0.00478352
0.00478531
0.00478678
0.004788
0.00478899
0.00478978
0.00479029
0.00479066
0.0047909
0.00479111
0.00479135
0.00479153
0.00479157
0.00479162
0.0047916
0.00479155
0.0047915
0.00479146
0.00479146
0.00479125
0.00479108
0.0047912
0.00479149
0.00546149
0.00547096
0.00554819
0.00563933
0.00569278
0.0057253
0.00574914
0.00576764
0.00578284
0.00579586
0.00580723
0.00581711
0.00582569
0.00583335
0.00584006
0.00584583
0.00585078
0.00585501
0.00585855
0.00586148
0.00586385
0.00586568
0.00586699
0.00586795
0.00586868
0.00586925
0.0058697
0.00586999
0.0058701
0.00587014
0.00587016
0.00587021
0.0058702
0.00586954
0.00586543
0.00586922
0.00586995
0.00587008
0.00587031
0.00587055
0.00889811
0.00935173
0.00965217
0.00984838
0.00996961
0.0100486
0.0101045
0.0101471
0.0101816
0.0102108
0.0102362
0.0102583
0.0102776
0.0102946
0.0103096
0.0103227
0.0103339
0.0103436
0.0103517
0.0103584
0.0103639
0.0103681
0.0103712
0.0103734
0.010375
0.0103763
0.0103772
0.0103779
0.0103783
0.0103784
0.0103784
0.0103786
0.0103786
0.0103783
0.0103758
0.0103778
0.0103785
0.0103789
0.0103793
0.0103797
0.0113142
0.0113367
0.0114063
0.011482
0.0115505
0.0116062
0.011652
0.0116908
0.0117248
0.0117551
0.0117823
0.0118068
0.0118287
0.0118485
0.0118661
0.0118818
0.0118954
0.0119071
0.0119171
0.0119254
0.0119321
0.0119374
0.0119413
0.0119441
0.0119461
0.0119476
0.0119488
0.0119496
0.01195
0.0119502
0.0119504
0.0119507
0.011951
0.0119517
0.0119539
0.0119534
0.0119527
0.0119524
0.0119524
0.0119526
0.013004
0.012836
0.0127496
0.0127128
0.0127065
0.0127133
0.0127298
0.012751
0.0127748
0.0127995
0.0128241
0.0128476
0.01287
0.0128908
0.0129097
0.0129267
0.0129417
0.0129547
0.0129658
0.0129752
0.0129829
0.0129888
0.0129932
0.0129962
0.0129982
0.0129999
0.0130011
0.013002
0.0130026
0.0130029
0.0130031
0.0130034
0.0130037
0.0130037
0.0130031
0.0130036
0.0130041
0.0130047
0.0130052
0.0130056
0.0140802
0.0138216
0.013647
0.013536
0.0134708
0.0134365
0.0134269
0.0134295
0.0134406
0.0134572
0.013477
0.0134979
0.0135192
0.0135395
0.0135585
0.0135758
0.0135913
0.0136049
0.0136166
0.0136265
0.0136346
0.013641
0.0136457
0.0136487
0.0136508
0.0136525
0.0136539
0.0136549
0.0136556
0.0136561
0.0136564
0.0136567
0.0136571
0.0136574
0.0136577
0.0136582
0.0136583
0.0136585
0.0136588
0.0136591
0.0145845
0.0142842
0.014069
0.0139215
0.0138257
0.0137683
0.0137385
0.0137308
0.0137332
0.0137435
0.0137588
0.0137769
0.0137958
0.0138146
0.0138326
0.0138494
0.0138646
0.013878
0.0138898
0.0138998
0.013908
0.0139146
0.0139197
0.0139235
0.0139263
0.0139285
0.0139302
0.0139315
0.0139324
0.013933
0.0139333
0.0139338
0.0139341
0.0139344
0.0139346
0.0139348
0.0139349
0.0139352
0.0139356
0.0139359
0.0144392
0.0141653
0.0139541
0.0138048
0.0137067
0.0136474
0.0136162
0.0136076
0.0136088
0.013618
0.0136323
0.0136495
0.0136676
0.0136857
0.0137032
0.0137195
0.0137343
0.0137474
0.0137588
0.0137685
0.0137766
0.013783
0.013788
0.0137918
0.0137947
0.0137971
0.0137989
0.0138002
0.0138011
0.0138017
0.0138021
0.0138025
0.0138029
0.0138031
0.0138032
0.0138034
0.0138034
0.0138035
0.0138039
0.0138043
0.0138119
0.0134859
0.013278
0.0131536
0.0130828
0.0130457
0.0130344
0.0130344
0.0130428
0.013057
0.0130743
0.0130919
0.0131109
0.0131297
0.0131472
0.0131632
0.0131774
0.0131899
0.0132007
0.0132098
0.0132174
0.0132234
0.013228
0.0132315
0.0132343
0.0132365
0.0132382
0.0132394
0.0132402
0.0132406
0.013241
0.0132414
0.0132417
0.0132418
0.0132417
0.013242
0.0132417
0.0132415
0.0132419
0.0132425
0.0121817
0.0119962
0.0119248
0.0119117
0.011916
0.0119304
0.0119501
0.0119718
0.0119943
0.012017
0.0120393
0.0120617
0.0120814
0.0120992
0.0121154
0.01213
0.012143
0.0121543
0.0121639
0.0121721
0.0121788
0.0121841
0.0121881
0.0121912
0.0121935
0.0121953
0.0121968
0.0121978
0.0121985
0.0121988
0.0121991
0.0121994
0.0121996
0.0121994
0.0121985
0.0121961
0.0121963
0.0121972
0.0121985
0.0121996
0.00889584
0.0093462
0.00964544
0.00984016
0.00996515
0.0100473
0.0101046
0.0101476
0.010182
0.010211
0.0102362
0.01026
0.0102791
0.0102954
0.0103097
0.0103223
0.0103333
0.0103427
0.0103507
0.0103573
0.0103627
0.0103669
0.0103701
0.0103724
0.0103741
0.0103755
0.0103766
0.0103774
0.0103779
0.0103781
0.0103782
0.0103784
0.0103786
0.0103784
0.0103773
0.0103738
0.0103742
0.0103756
0.0103772
0.0103785
0.00610498
0.00569607
0.00562895
0.00563122
0.0056475
0.00566768
0.00568674
0.0057031
0.00571714
0.00572947
0.0057404
0.00575035
0.00575916
0.00576661
0.00577303
0.00577862
0.00578347
0.00578763
0.00579113
0.00579405
0.00579641
0.00579825
0.00579959
0.0058006
0.0058014
0.00580206
0.00580257
0.0058029
0.00580305
0.00580312
0.00580319
0.00580329
0.0058034
0.00580337
0.00580301
0.00580249
0.00580205
0.00580239
0.00580284
0.00580332
0.0070153
0.00646277
0.00629093
0.00622947
0.00621168
0.00621172
0.00621744
0.00622578
0.00623531
0.00624525
0.00625508
0.00626438
0.00627295
0.00628074
0.00628778