/*--------------------------------*- C++ -*----------------------------------*\
| =========                 |                                                 |
| \\      /  F ield         | OpenFOAM: The Open Source CFD Toolbox           |
|  \\    /   O peration     | Version:  2212                                  |
|   \\  /    A nd           | Website:  www.openfoam.com                      |
|    \\/     M anipulation  |                                                 |
\*---------------------------------------------------------------------------*/
FoamFile
{
    version     2.0;
    format      ascii;
    arch        "LSB;label=32;scalar=64";
    class       volScalarField;
    location    "0.25";
    object      p;
}
// * * * * * * * * * * * * * * * * * * * * * * * * * * * * * * * * * * * * * //

dimensions      [0 2 -2 0 0 0 0];

internalField   nonuniform List<scalar> 
6840
(
0.0188308
0.011716
0.00942483
0.00888705
0.00861298
0.00838945
0.00819858
0.00802747
0.00786056
0.0076944
0.00752984
0.00736611
0.00720592
0.00705086
0.00689725
0.00674631
0.00659607
0.00644314
0.00626702
0.00591661
0.0116518
0.0109177
0.00982463
0.0091585
0.00875487
0.00847826
0.00826232
0.00807001
0.00788835
0.00771347
0.00754359
0.00737723
0.00721617
0.00706149
0.00691057
0.00676468
0.00662614
0.00649479
0.00637243
0.00624031
0.0113032
0.0104511
0.00968624
0.00912628
0.00874807
0.00847603
0.00825506
0.00805602
0.00787105
0.0076966
0.0075289
0.00736644
0.00720934
0.00705756
0.00691105
0.00677253
0.006645
0.0065323
0.00644712
0.00640824
0.0108938
0.0101306
0.00951106
0.00905855
0.00871286
0.00844062
0.00821525
0.00801874
0.00784316
0.00767945
0.00751958
0.00736247
0.00720854
0.00705861
0.00691393
0.00677656
0.00664956
0.00653691
0.00644578
0.00638973
0.0107588
0.0100175
0.00942927
0.00902056
0.00869724
0.00842885
0.0082039
0.00800704
0.00782838
0.00766306
0.00750702
0.0073548
0.00720299
0.00705277
0.00690596
0.00676386
0.0066278
0.00649886
0.00637763
0.00626942
0.0107588
0.0100175
0.00942924
0.00902051
0.00869716
0.00842873
0.0082037
0.0080067
0.00782782
0.00766215
0.00750552
0.00735236
0.00719907
0.00704648
0.00689593
0.00674783
0.00660246
0.00646001
0.00631991
0.00618315
0.0108937
0.0101306
0.009511
0.00905846
0.00871271
0.00844035
0.00821478
0.00801793
0.00784182
0.00767722
0.00751591
0.00735645
0.00719869
0.00704259
0.00688778
0.00673369
0.0065797
0.00642465
0.00626744
0.00610606
0.0113032
0.0104511
0.00968619
0.0091262
0.00874792
0.00847574
0.00825457
0.00805519
0.00786968
0.00769437
0.00752522
0.00736033
0.00719919
0.00704066
0.00688262
0.00672389
0.00656073
0.00638583
0.00619037
0.00594956
0.0116518
0.0109176
0.00982461
0.00915847
0.0087548
0.00847811
0.00826206
0.00806957
0.00788761
0.00771224
0.00754154
0.00737377
0.00721052
0.00705218
0.00689479
0.00673699
0.00657545
0.00639665
0.00615793
0.00578147
0.0188308
0.011716
0.00942484
0.00888705
0.00861298
0.00838945
0.00819858
0.00802746
0.00786054
0.00769436
0.00752975
0.00736601
0.00720593
0.00705121
0.00689759
0.00674624
0.00659587
0.006443
0.00626697
0.00591672
0.0116518
0.0109177
0.00982462
0.00915848
0.00875481
0.00847814
0.00826209
0.0080696
0.00788764
0.00771228
0.00754161
0.00737393
0.00721063
0.00705212
0.00689461
0.00673693
0.00657551
0.00639665
0.0061579
0.0057813
0.0109344
0.0109025
0.0101741
0.00946237
0.00901258
0.00869088
0.00842503
0.00818878
0.00797428
0.0077759
0.00758832
0.00740911
0.0072375
0.00707226
0.00691173
0.00675618
0.0066028
0.00644574
0.00628963
0.00614722
0.010008
0.010134
0.0098301
0.00941275
0.00904373
0.00872165
0.00843769
0.00819073
0.00797119
0.00777023
0.00758185
0.00740363
0.00723347
0.00707019
0.00691496
0.00676713
0.00662616
0.00649308
0.00637853
0.00630443
0.00958952
0.00963309
0.00946608
0.00920101
0.00891787
0.00864289
0.00838636
0.00815456
0.0079471
0.00775496
0.00757266
0.00739931
0.00723354
0.00707451
0.0069227
0.00677793
0.00664087
0.00651408
0.00640453
0.00632074
0.00937306
0.00939494
0.00926709
0.00904819
0.00881441
0.00858303
0.00835554
0.00813724
0.00793315
0.00774182
0.00756139
0.00738989
0.00722529
0.00706682
0.00691409
0.00676673
0.00662419
0.00648678
0.00635891
0.00624177
0.00937303
0.00939489
0.00926703
0.00904809
0.00881427
0.00858284
0.00835525
0.00813677
0.0079324
0.00774065
0.00755954
0.00738697
0.00722071
0.00705964
0.00690295
0.00674977
0.00659894
0.00645008
0.00630601
0.00616586
0.00958943
0.00963301
0.00946597
0.00920085
0.00891763
0.00864256
0.00838582
0.00815359
0.0079455
0.00775248
0.00756869
0.00739292
0.00722333
0.00705822
0.00689676
0.00673683
0.00657675
0.00641609
0.00625589
0.0060939
0.0100079
0.0101339
0.00983003
0.00941265
0.00904358
0.00872141
0.00843728
0.00819003
0.00797004
0.00776838
0.00757886
0.00739876
0.00722542
0.00705688
0.00689315
0.00673148
0.00656759
0.00639675
0.00621738
0.00602708
0.0109344
0.0109025
0.0101741
0.00946236
0.00901258
0.00869087
0.00842502
0.00818877
0.00797426
0.00777588
0.0075883
0.0074091
0.00723748
0.00707214
0.00691162
0.0067562
0.00660287
0.00644584
0.00628978
0.00614746
0.0116518
0.0109177
0.00982465
0.00915852
0.00875489
0.00847828
0.00826233
0.00807003
0.00788835
0.00771347
0.00754356
0.00737712
0.00721611
0.00706159
0.00691076
0.0067647
0.00662603
0.00649475
0.00637247
0.0062405
0.0113032
0.0104511
0.00968623
0.00912624
0.00874796
0.00847579
0.00825462
0.00805525
0.00786974
0.00769442
0.00752528
0.0073604
0.00719929
0.0070408
0.00688269
0.00672386
0.00656067
0.00638579
0.00619033
0.00594952
0.010008
0.0101339
0.00983006
0.00941269
0.00904362
0.00872145
0.00843732
0.00819007
0.00797008
0.00776841
0.00757889
0.00739878
0.00722548
0.00705699
0.00689327
0.00673151
0.00656755
0.00639671
0.00621735
0.00602709
0.00943701
0.00953777
0.00942561
0.00920009
0.00894459
0.0086852
0.00842477
0.00818086
0.00796143
0.00776066
0.00757334
0.00739624
0.0072261
0.00706104
0.00690072
0.00674237
0.00658472
0.00642778
0.00627248
0.00611589
0.00906869
0.00913661
0.00908355
0.00893536
0.00874968
0.00854527
0.00833544
0.00812891
0.00792957
0.00773973
0.00755995
0.0073888
0.00722406
0.00706445
0.00690923
0.00675723
0.00660744
0.00646098
0.00632377
0.00618914
0.00888538
0.00894969
0.00891949
0.00879357
0.00863374
0.00846103
0.0082782
0.00809268
0.00790789
0.00772728
0.00755273
0.00738363
0.0072198
0.00706113
0.00690649
0.00675471
0.00660481
0.0064572
0.00631641
0.00617662
0.00888534
0.00894966
0.00891945
0.00879349
0.00863361
0.00846085
0.00827797
0.00809233
0.00790736
0.00772653
0.00755162
0.00738191
0.00721714
0.00705709
0.00690042
0.00674573
0.00659178
0.00643816
0.00628699
0.00613445
0.00906862
0.00913654
0.00908346
0.00893523
0.00874949
0.00854502
0.00833506
0.00812832
0.00792877
0.00773856
0.00755798
0.00738564
0.00721917
0.00705685
0.00689745
0.0067393
0.00658067
0.0064207
0.00625982
0.00609507
0.009437
0.00953776
0.0094256
0.00920007
0.00894458
0.00868519
0.00842476
0.00818085
0.00796143
0.00776066
0.00757335
0.00739625
0.00722608
0.00706098
0.00690063
0.00674232
0.00658471
0.00642775
0.00627238
0.00611562
0.010008
0.010134
0.00983011
0.00941277
0.00904375
0.00872167
0.00843771
0.00819075
0.0079712
0.00777025
0.00758187
0.00740368
0.00723349
0.00707012
0.00691482
0.00676708
0.00662622
0.00649313
0.00637859
0.00630446
0.0113033
0.0104511
0.00968627
0.00912632
0.00874811
0.00847607
0.0082551
0.00805606
0.00787108
0.00769663
0.00752892
0.00736645
0.00720932
0.00705749
0.006911
0.00677255
0.00664504
0.00653234
0.00644718
0.0064084
0.0108938
0.0101306
0.00951106
0.00905852
0.00871277
0.00844042
0.00821485
0.008018
0.00784188
0.00767729
0.00751599
0.00735654
0.00719881
0.00704269
0.00688781
0.00673368
0.00657968
0.00642463
0.00626745
0.0061061
0.00958949
0.00963306
0.00946602
0.0092009
0.00891769
0.00864261
0.00838588
0.00815365
0.00794556
0.00775253
0.00756874
0.00739295
0.00722336
0.00705828
0.00689687
0.00673692
0.00657679
0.00641612
0.00625592
0.00609398
0.00906866
0.00913658
0.0090835
0.00893526
0.00874953
0.00854506
0.00833509
0.00812835
0.0079288
0.00773859
0.007558
0.00738564
0.00721915
0.00705684
0.0068975
0.00673936
0.00658072
0.00642073
0.00625983
0.00609508
0.00877014
0.00882907
0.0088168
0.00872107
0.00858104
0.00841504
0.00823664
0.00805538
0.00787571
0.00770096
0.00753222
0.00736882
0.0072095
0.00705314
0.00689885
0.00674566
0.00659266
0.00644026
0.00629122
0.00613753
0.00861882
0.00868143
0.00868489
0.00861106
0.00849112
0.00834536
0.00818459
0.00801729
0.00784865
0.00768189
0.00751867
0.00735918
0.00720291
0.00704921
0.00689733
0.0067464
0.00659535
0.00644483
0.00629823
0.00614522
0.0086188
0.00868141
0.00868487
0.00861104
0.00849109
0.00834531
0.00818452
0.00801719
0.00784851
0.00768169
0.00751838
0.00735873
0.00720226
0.00704826
0.00689595
0.00674443
0.00659258
0.00644088
0.006292
0.00613659
0.00877012
0.00882906
0.00881679
0.00872106
0.00858103
0.00841503
0.00823664
0.00805538
0.0078757
0.00770095
0.00753221
0.00736881
0.00720949
0.00705314
0.00689886
0.00674567
0.00659267
0.00644027
0.00629124
0.00613755
0.00906869
0.00913661
0.00908356
0.00893537
0.00874969
0.00854528
0.00833545
0.00812892
0.00792958
0.00773973
0.00755995
0.00738879
0.00722403
0.00706443
0.00690922
0.00675722
0.00660743
0.00646095
0.00632369
0.00618897
0.00958954
0.00963312
0.00946611
0.00920104
0.00891791
0.00864293
0.00838639
0.00815459
0.00794713
0.00775499
0.00757268
0.00739932
0.00723353
0.00707447
0.00692264
0.0067779
0.00664086
0.00651406
0.00640446
0.00632054
0.0108938
0.0101307
0.00951111
0.0090586
0.00871291
0.00844067
0.0082153
0.00801879
0.0078432
0.00767948
0.0075196
0.00736248
0.00720853
0.00705859
0.00691391
0.00677655
0.00664957
0.00653693
0.00644579
0.00638977
0.0107589
0.0100176
0.0094293
0.00902057
0.00869723
0.0084288
0.00820377
0.00800677
0.00782789
0.00766222
0.00750559
0.00735242
0.00719912
0.00704653
0.00689598
0.00674787
0.00660248
0.00646003
0.00631993
0.00618317
0.00937309
0.00939496
0.0092671
0.00904816
0.00881433
0.0085829
0.00835531
0.00813684
0.00793247
0.00774071
0.00755959
0.00738701
0.00722074
0.00705968
0.00690302
0.00674983
0.00659899
0.0064501
0.00630602
0.00616586
0.00888539
0.0089497
0.0089195
0.00879353
0.00863365
0.00846089
0.00827801
0.00809237
0.0079074
0.00772657
0.00755165
0.00738194
0.00721718
0.00705712
0.00690044
0.00674574
0.00659178
0.00643814
0.00628696
0.00613441
0.00861883
0.00868143
0.00868489
0.00861106
0.0084911
0.00834533
0.00818454
0.00801721
0.00784853
0.00768171
0.0075184
0.00735875
0.00720227
0.00704826
0.00689595
0.00674441
0.00659255
0.00644084
0.00629194
0.00613652
0.00847579
0.00854491
0.00856666
0.00851405
0.00841332
0.00828392
0.00813715
0.00798093
0.00782082
0.0076606
0.00750234
0.00734666
0.00719327
0.00704143
0.00688992
0.00673831
0.00658829
0.00644091
0.0062986
0.0061522
0.00847578
0.0085449
0.00856665
0.00851404
0.00841332
0.00828392
0.00813715
0.00798093
0.00782081
0.00766059
0.00750233
0.00734665
0.00719326
0.00704143
0.00688993
0.00673833
0.00658831
0.00644094
0.00629863
0.00615223
0.00861882
0.00868143
0.00868489
0.00861106
0.00849112
0.00834537
0.00818459
0.00801729
0.00784865
0.00768188
0.00751867
0.00735916
0.0072029
0.00704921
0.00689735
0.00674642
0.00659536
0.00644484
0.00629823
0.00614523
0.00888539
0.0089497
0.00891951
0.00879358
0.00863376
0.00846105
0.00827822
0.00809269
0.00790789
0.00772728
0.00755273
0.00738362
0.00721979
0.00706113
0.0069065
0.00675471
0.0066048
0.00645719
0.0063164
0.00617661
0.00937309
0.00939497
0.00926712
0.00904822
0.00881444
0.00858306
0.00835557
0.00813728
0.00793317
0.00774183
0.0075614
0.00738989
0.00722528
0.0070668
0.00691407
0.00676671
0.00662417
0.00648673
0.00635885
0.00624168
0.0107589
0.0100176
0.00942931
0.0090206
0.00869728
0.00842889
0.00820395
0.00800708
0.00782841
0.00766309
0.00750704
0.00735481
0.00720299
0.00705276
0.00690594
0.00676383
0.00662777
0.00649881
0.00637756
0.00626932
0.0107589
0.0100176
0.00942934
0.00902063
0.00869731
0.00842892
0.00820397
0.00800711
0.00782845
0.00766313
0.00750709
0.00735486
0.00720304
0.00705282
0.00690601
0.0067639
0.00662783
0.00649888
0.00637764
0.00626941
0.00937313
0.009395
0.00926715
0.00904825
0.00881447
0.00858309
0.0083556
0.00813731
0.00793321
0.00774187
0.00756145
0.00738994
0.00722534
0.00706686
0.00691413
0.00676676
0.00662421
0.00648678
0.0063589
0.00624172
0.00888542
0.00894973
0.00891953
0.00879361
0.00863379
0.00846107
0.00827824
0.00809272
0.00790792
0.00772731
0.00755277
0.00738366
0.00721983
0.00706116
0.00690651
0.00675472
0.00660481
0.0064572
0.0063164
0.00617661
0.00861883
0.00868145
0.0086849
0.00861108
0.00849113
0.00834538
0.0081846
0.0080173
0.00784867
0.0076819
0.00751869
0.00735919
0.00720292
0.00704921
0.00689733
0.0067464
0.00659534
0.00644482
0.00629821
0.00614521
0.00847579
0.0085449
0.00856666
0.00851404
0.00841332
0.00828392
0.00813715
0.00798093
0.00782082
0.0076606
0.00750234
0.00734666
0.00719326
0.00704143
0.00688992
0.00673831
0.00658829
0.00644092
0.0062986
0.0061522
0.00847577
0.00854489
0.00856665
0.00851404
0.00841332
0.00828391
0.00813715
0.00798093
0.00782081
0.00766059
0.00750233
0.00734665
0.00719326
0.00704143
0.00688992
0.00673833
0.00658831
0.00644093
0.00629862
0.00615222
0.0086188
0.00868141
0.00868487
0.00861104
0.00849109
0.00834531
0.00818452
0.00801719
0.00784851
0.00768169
0.00751837
0.00735872
0.00720225
0.00704826
0.00689596
0.00674443
0.00659257
0.00644086
0.00629198
0.00613657
0.00888536
0.00894967
0.00891947
0.0087935
0.00863362
0.00846086
0.00827798
0.00809234
0.00790737
0.00772653
0.00755161
0.00738189
0.00721713
0.00705708
0.00690042
0.00674573
0.00659178
0.00643814
0.00628698
0.00613446
0.00937305
0.00939492
0.00926706
0.00904812
0.0088143
0.00858287
0.00835527
0.0081368
0.00793242
0.00774066
0.00755954
0.00738695
0.00722067
0.00705961
0.00690295
0.00674976
0.00659892
0.00645004
0.00630597
0.00616583
0.0107589
0.0100175
0.00942927
0.00902054
0.0086972
0.00842876
0.00820374
0.00800673
0.00782785
0.00766217
0.00750554
0.00735237
0.00719906
0.00704646
0.0068959
0.00674779
0.00660241
0.00645994
0.00631982
0.00618304
0.0108938
0.0101307
0.00951114
0.00905863
0.00871294
0.0084407
0.00821533
0.00801882
0.00784323
0.00767952
0.00751964
0.00736253
0.00720859
0.00705866
0.00691398
0.00677661
0.00664961
0.00653697
0.00644585
0.00638984
0.00958957
0.00963315
0.00946614
0.00920107
0.00891793
0.00864295
0.00838641
0.00815461
0.00794715
0.00775501
0.0075727
0.00739935
0.00723358
0.00707455
0.00692274
0.00677795
0.00664088
0.00651408
0.00640448
0.00632057
0.00906871
0.00913663
0.00908358
0.00893539
0.00874971
0.0085453
0.00833547
0.00812894
0.00792959
0.00773975
0.00755997
0.00738882
0.00722407
0.00706446
0.00690924
0.00675723
0.00660742
0.00646095
0.00632369
0.00618898
0.00877013
0.00882907
0.0088168
0.00872106
0.00858104
0.00841504
0.00823664
0.00805538
0.0078757
0.00770096
0.00753221
0.00736882
0.00720949
0.00705313
0.00689884
0.00674566
0.00659266
0.00644026
0.00629123
0.00613755
0.0086188
0.00868141
0.00868487
0.00861104
0.00849108
0.00834531
0.00818452
0.00801719
0.00784851
0.00768169
0.00751838
0.00735874
0.00720226
0.00704825
0.00689594
0.00674442
0.00659256
0.00644087
0.00629199
0.00613658
0.0086188
0.00868142
0.00868488
0.00861105
0.00849111
0.00834535
0.00818458
0.00801728
0.00784864
0.00768188
0.00751866
0.00735916
0.00720289
0.0070492
0.00689733
0.0067464
0.00659535
0.00644484
0.00629824
0.00614524
0.00877011
0.00882905
0.00881678
0.00872104
0.00858102
0.00841502
0.00823662
0.00805537
0.00787568
0.00770094
0.00753219
0.00736879
0.00720947
0.00705312
0.00689884
0.00674565
0.00659265
0.00644026
0.00629123
0.00613755
0.00906862
0.00913654
0.00908347
0.00893523
0.0087495
0.00854503
0.00833507
0.00812831
0.00792876
0.00773855
0.00755795
0.00738559
0.00721908
0.00705678
0.00689746
0.00673933
0.0065807
0.00642072
0.00625985
0.00609515
0.00958945
0.00963302
0.00946598
0.00920086
0.00891765
0.00864258
0.00838584
0.00815361
0.00794552
0.00775249
0.0075687
0.00739291
0.00722329
0.00705818
0.00689675
0.00673682
0.00657672
0.00641604
0.00625581
0.00609383
0.0108937
0.0101306
0.00951101
0.00905847
0.00871272
0.00844037
0.0082148
0.00801796
0.00784185
0.00767726
0.00751595
0.0073565
0.00719875
0.00704261
0.00688773
0.0067336
0.00657958
0.00642452
0.00626729
0.00610585
0.0113033
0.0104512
0.00968631
0.00912635
0.00874815
0.00847611
0.00825513
0.00805609
0.00787111
0.00769667
0.00752895
0.00736649
0.00720939
0.00705761
0.0069111
0.00677258
0.00664505
0.00653238
0.00644725
0.00640848
0.010008
0.010134
0.00983014
0.00941279
0.00904376
0.00872168
0.00843773
0.00819077
0.00797122
0.00777026
0.00758188
0.00740365
0.0072335
0.00707022
0.00691499
0.00676716
0.00662618
0.00649312
0.00637858
0.00630446
0.00943701
0.00953777
0.00942561
0.00920009
0.00894459
0.0086852
0.00842477
0.00818085
0.00796143
0.00776066
0.00757334
0.00739624
0.00722609
0.00706103
0.00690071
0.00674236
0.0065847
0.00642773
0.00627236
0.00611561
0.00906862
0.00913654
0.00908347
0.00893523
0.0087495
0.00854503
0.00833506
0.00812832
0.00792877
0.00773856
0.00755797
0.00738562
0.00721912
0.00705682
0.00689748
0.00673933
0.0065807
0.00642071
0.00625981
0.00609506
0.00888534
0.00894965
0.00891945
0.00879348
0.0086336
0.00846085
0.00827797
0.00809233
0.00790736
0.00772653
0.00755161
0.0073819
0.00721714
0.00705708
0.00690041
0.00674572
0.00659177
0.00643814
0.00628699
0.00613445
0.00888536
0.00894967
0.00891948
0.00879355
0.00863373
0.00846102
0.00827819
0.00809267
0.00790787
0.00772726
0.00755272
0.00738361
0.00721979
0.00706112
0.00690648
0.00675469
0.00660478
0.00645718
0.0063164
0.00617661
0.00906866
0.00913659
0.00908353
0.00893534
0.00874966
0.00854525
0.00833542
0.00812889
0.00792955
0.00773971
0.00755994
0.0073888
0.00722408
0.00706445
0.00690917
0.00675715
0.00660735
0.0064609
0.00632366
0.00618895
0.00943698
0.00953774
0.00942558
0.00920005
0.00894456
0.00868517
0.00842474
0.00818083
0.00796141
0.00776064
0.00757333
0.00739623
0.00722606
0.00706096
0.00690061
0.00674229
0.00658467
0.00642771
0.00627234
0.00611559
0.0100079
0.0101339
0.00983002
0.00941265
0.00904357
0.00872141
0.00843728
0.00819004
0.00797004
0.00776839
0.00757887
0.00739878
0.00722545
0.00705688
0.0068931
0.0067314
0.00656751
0.00639664
0.00621724
0.0060269
0.0113032
0.0104511
0.00968618
0.00912619
0.00874791
0.00847574
0.00825457
0.0080552
0.0078697
0.00769439
0.00752525
0.00736037
0.00719924
0.00704069
0.00688258
0.0067238
0.00656062
0.00638569
0.00619019
0.00594928
0.0116518
0.0109177
0.00982468
0.00915856
0.00875493
0.00847831
0.00826237
0.00807006
0.0078884
0.00771352
0.00754363
0.00737727
0.00721621
0.00706152
0.0069106
0.00676471
0.00662617
0.00649485
0.00637256
0.00624058
0.0109344
0.0109025
0.0101742
0.00946238
0.00901259
0.00869089
0.00842504
0.00818879
0.00797428
0.0077759
0.00758832
0.00740911
0.0072375
0.00707226
0.00691173
0.00675619
0.00660282
0.00644579
0.00628974
0.00614742
0.0100079
0.0101339
0.00983003
0.00941266
0.00904359
0.00872142
0.0084373
0.00819004
0.00797005
0.00776838
0.00757886
0.00739875
0.00722545
0.00705697
0.00689325
0.00673148
0.00656752
0.00639668
0.00621731
0.00602702
0.00958943
0.00963301
0.00946597
0.00920085
0.00891764
0.00864256
0.00838583
0.0081536
0.00794551
0.00775248
0.00756869
0.00739291
0.00722331
0.00705824
0.00689682
0.00673687
0.00657674
0.00641606
0.00625583
0.00609384
0.00937302
0.00939489
0.00926703
0.00904809
0.00881427
0.00858284
0.00835525
0.00813678
0.0079324
0.00774065
0.00755953
0.00738695
0.00722068
0.00705963
0.00690296
0.00674978
0.00659894
0.00645006
0.00630598
0.00616583
0.00937305
0.00939493
0.00926708
0.00904818
0.0088144
0.00858302
0.00835553
0.00813724
0.00793314
0.00774181
0.00756138
0.00738989
0.0072253
0.0070668
0.00691405
0.00676668
0.00662414
0.00648673
0.00635886
0.00624169
0.0095895
0.00963308
0.00946607
0.00920099
0.00891786
0.00864287
0.00838634
0.00815455
0.00794709
0.00775495
0.00757265
0.00739931
0.00723354
0.00707447
0.00692261
0.00677784
0.00664081
0.00651404
0.00640446
0.00632054
0.010008
0.0101339
0.00983007
0.00941273
0.0090437
0.00872162
0.00843767
0.00819071
0.00797117
0.00777021
0.00758184
0.00740363
0.00723343
0.00707008
0.00691482
0.00676708
0.00662621
0.00649312
0.00637857
0.00630442
0.0109343
0.0109024
0.0101741
0.00946233
0.00901255
0.00869084
0.00842499
0.00818875
0.00797425
0.00777587
0.00758829
0.00740909
0.00723747
0.00707212
0.00691159
0.00675616
0.00660283
0.00644578
0.00628969
0.00614733
0.0116518
0.0109176
0.00982458
0.00915844
0.00875477
0.00847809
0.00826204
0.00806955
0.0078876
0.00771224
0.00754155
0.00737379
0.00721054
0.00705219
0.00689477
0.00673693
0.00657536
0.00639653
0.00615778
0.00578127
0.0188308
0.011716
0.00942485
0.00888707
0.008613
0.00838947
0.0081986
0.00802748
0.00786057
0.0076944
0.00752984
0.00736612
0.00720592
0.00705086
0.00689725
0.00674631
0.00659607
0.00644315
0.00626709
0.0059168
0.0116518
0.0109176
0.0098246
0.00915846
0.00875479
0.00847811
0.00826206
0.00806957
0.00788761
0.00771225
0.00754158
0.0073739
0.0072106
0.00705209
0.00689458
0.0067369
0.00657549
0.00639664
0.00615794
0.00578147
0.0113032
0.0104511
0.00968618
0.00912619
0.00874791
0.00847574
0.00825457
0.0080552
0.00786968
0.00769437
0.00752522
0.00736035
0.00719925
0.00704075
0.00688264
0.00672381
0.00656062
0.00638575
0.00619032
0.00594951
0.0108937
0.0101306
0.00951099
0.00905845
0.00871271
0.00844035
0.00821478
0.00801794
0.00784182
0.00767723
0.00751593
0.00735648
0.00719875
0.00704263
0.00688775
0.00673362
0.00657961
0.00642456
0.00626737
0.00610599
0.0107588
0.0100175
0.00942924
0.0090205
0.00869716
0.00842873
0.00820371
0.00800671
0.00782783
0.00766215
0.00750552
0.00735236
0.00719906
0.00704646
0.00689591
0.0067478
0.00660242
0.00645996
0.00631986
0.0061831
0.0107588
0.0100175
0.00942927
0.00902055
0.00869724
0.00842884
0.0082039
0.00800704
0.00782838
0.00766306
0.00750702
0.00735479
0.00720298
0.00705276
0.00690594
0.00676384
0.00662778
0.00649883
0.00637758
0.00626936
0.0108937
0.0101306
0.00951105
0.00905854
0.00871285
0.00844061
0.00821525
0.00801874
0.00784316
0.00767944
0.00751956
0.00736243
0.00720846
0.00705855
0.00691393
0.00677659
0.00664961
0.00653697
0.00644583
0.0063898
0.0113032
0.0104511
0.00968622
0.00912626
0.00874805
0.00847601
0.00825505
0.00805601
0.00787104
0.0076966
0.00752889
0.00736641
0.00720927
0.00705745
0.00691101
0.00677258
0.00664507
0.00653237
0.00644721
0.00640842
0.0116518
0.0109176
0.00982461
0.00915848
0.00875485
0.00847823
0.00826229
0.00806999
0.00788833
0.00771345
0.00754354
0.0073771
0.00721608
0.00706156
0.00691075
0.00676471
0.00662605
0.00649477
0.00637246
0.00624047
0.0188308
0.0117159
0.0094248
0.00888702
0.00861294
0.00838941
0.00819854
0.00802743
0.00786053
0.00769436
0.00752975
0.007366
0.00720592
0.0070512
0.00689757
0.00674622
0.00659584
0.00644295
0.0062669
0.00591662
0.00633355
0.00578696
0.00550351
0.00537725
0.00525537
0.00511938
0.00497847
0.00483553
0.00469089
0.00454491
0.00439808
0.00425065
0.00410273
0.00395445
0.00380594
0.00365731
0.00350858
0.00335978
0.00321089
0.00306194
0.00291296
0.00276393
0.00261479
0.00246552
0.00231616
0.00216678
0.00201743
0.0018681
0.00171873
0.00156928
0.00141981
0.00127037
0.00112103
0.00097178
0.000821892
0.000672168
0.000522993
0.000373492
0.000224038
7.47025e-05
0.00646011
0.00592173
0.00552785
0.00536165
0.00523815
0.00510507
0.00496679
0.00482661
0.00468448
0.00454039
0.00439494
0.00424849
0.00410124
0.00395346
0.00380534
0.00365698
0.00350841
0.0033597
0.00321088
0.00306197
0.002913
0.00276398
0.00261486
0.00246558
0.0023162
0.00216681
0.00201745
0.00186811
0.00171873
0.00156927
0.00141977
0.00127032
0.00112099
0.000971823
0.000821748
0.000671952
0.000523064
0.000373655
0.000224145
7.47328e-05
0.00635335
0.00598411
0.00565045
0.00544591
0.0052879
0.00513491
0.00498448
0.00483697
0.0046904
0.00454382
0.00439695
0.00424965
0.00410194
0.00395394
0.00380568
0.00365722
0.0035086
0.00335985
0.00321101
0.00306209
0.0029131
0.00276404
0.00261488
0.00246559
0.00231622
0.00216683
0.00201747
0.0018681
0.0017187
0.00156924
0.00141975
0.00127027
0.00112079
0.000971221
0.000821695
0.000672434
0.00052319
0.000373696
0.000224169
7.47297e-05
0.00619477
0.00593482
0.00567279
0.00547056
0.00530309
0.00514602
0.004993
0.00484291
0.00469446
0.00454658
0.00439878
0.00425085
0.00410272
0.00395443
0.00380597
0.00365737
0.00350867
0.00335988
0.00321102
0.00306208
0.00291309
0.00276404
0.00261489
0.00246561
0.00231623
0.00216683
0.00201745
0.00186807
0.00171867
0.00156923
0.00141976
0.00127031
0.00112092
0.000971537
0.000821963
0.000672325
0.000522874
0.000373484
0.000224069
7.47021e-05
0.0060706
0.0058688
0.005662
0.00547993
0.00531446
0.00515629
0.00500183
0.00484995
0.00469978
0.00455047
0.00440154
0.00425274
0.00410401
0.00395529
0.00380653
0.00365774
0.00350891
0.00336004
0.00321111
0.00306214
0.00291313
0.00276409
0.00261497
0.00246569
0.00231628
0.00216686
0.00201746
0.00186808
0.00171867
0.00156922
0.00141975
0.00127029
0.00112085
0.000971391
0.000821884
0.000672412
0.000523001
0.00037356
0.000224103
7.4706e-05
0.00595644
0.00579792
0.00563526
0.00547259
0.00531349
0.00515804
0.0050049
0.00485327
0.00470269
0.00455282
0.00440339
0.00425419
0.00410509
0.00395605
0.00380705
0.00365809
0.00350914
0.00336018
0.00321119
0.00306217
0.00291312
0.00276403
0.00261484
0.00246554
0.00231617
0.00216679
0.00201742
0.00186806
0.00171866
0.00156921
0.00141975
0.00127031
0.00112089
0.000971469
0.000822011
0.0006725
0.00052297
0.000373468
0.000224025
7.46741e-05
0.00584246
0.00573147
0.0056053
0.00545889
0.00530736
0.0051561
0.00500514
0.00485437
0.00470395
0.00455397
0.00440436
0.00425493
0.0041056
0.0039564
0.00380732
0.00365828
0.00350927
0.00336025
0.00321122
0.00306218
0.00291311
0.00276399
0.00261479
0.00246549
0.00231613
0.00216677
0.00201742
0.00186807
0.00171868
0.00156924
0.00141977
0.00127035
0.00112095
0.000971562
0.000822118
0.000672545
0.000522923
0.000373381
0.00022396
7.46513e-05
0.0057594
0.00568566
0.00557971
0.00544271
0.00529823
0.0051516
0.00500305
0.00485345
0.00470361
0.0045539
0.00440442
0.004255
0.00410561
0.00395639
0.00380729
0.00365825
0.00350923
0.00336021
0.00321119
0.00306215
0.00291308
0.00276397
0.00261477
0.00246547
0.00231611
0.00216675
0.00201742
0.00186808
0.00171871
0.00156926
0.0014198
0.00127039
0.00112103
0.00097168
0.000822263
0.000672609
0.000522834
0.000373257
0.000223878
7.46298e-05
0.00592126
0.00577946
0.00560716
0.00545114
0.00530205
0.0051523
0.0050023
0.00485246
0.00470271
0.00455309
0.00440352
0.00425439
0.00410556
0.00395648
0.00380729
0.00365818
0.00350915
0.00336014
0.00321113
0.0030621
0.00291304
0.00276394
0.00261475
0.00246546
0.0023161
0.00216675
0.00201742
0.0018681
0.00171873
0.00156928
0.00141983
0.00127043
0.00112112
0.000971881
0.000822653
0.000672793
0.000522566
0.000372948
0.000223718
7.45909e-05
0.00610088
0.00576718
0.00554361
0.00541475
0.00528349
0.00514033
0.00499381
0.00484647
0.00469851
0.00455011
0.00440144
0.00425284
0.00410434
0.00395559
0.00380664
0.00365769
0.00350877
0.00335985
0.00321089
0.00306192
0.00291291
0.00276387
0.00261473
0.00246544
0.00231608
0.00216672
0.0020174
0.00186809
0.00171875
0.00156931
0.00141983
0.00127042
0.00112112
0.000971903
0.000822663
0.000672859
0.000522672
0.000372931
0.000223665
7.4573e-05
0.00633379
0.00578709
0.00550339
0.0053766
0.00525448
0.00511908
0.00497872
0.00483587
0.00469113
0.00454502
0.00439799
0.00425054
0.00410282
0.00395458
0.003806
0.00365731
0.00350855
0.00335973
0.00321083
0.00306188
0.0029129
0.00276386
0.00261471
0.00246544
0.00231609
0.00216672
0.00201739
0.00186808
0.00171872
0.00156928
0.00141982
0.0012704
0.00112107
0.000971826
0.000822592
0.00067283
0.000522666
0.000372963
0.00022371
7.46052e-05
0.00610052
0.00576693
0.00554343
0.00541519
0.00528452
0.00514072
0.00499363
0.00484616
0.00469826
0.00454997
0.00440151
0.00425295
0.00410422
0.00395539
0.00380652
0.00365765
0.00350876
0.00335985
0.0032109
0.00306192
0.00291291
0.00276387
0.00261474
0.00246545
0.00231609
0.00216673
0.00201741
0.0018681
0.00171875
0.00156931
0.00141983
0.00127043
0.00112118
0.000972151
0.000822014
0.00067187
0.000522768
0.000373357
0.000223957
7.46717e-05
0.00608717
0.00581044
0.00558552
0.00542036
0.00527223
0.00512558
0.00498021
0.00483555
0.00469031
0.00454414
0.00439724
0.00424982
0.00410195
0.00395374
0.00380533
0.00365678
0.00350813
0.00335938
0.00321055
0.00306167
0.00291274
0.00276374
0.00261464
0.0024654
0.00231607
0.00216673
0.0020174
0.00186808
0.00171872
0.00156928
0.0014198
0.00127036
0.00112091
0.000971436
0.000822244
0.000672699
0.000522795
0.000373301
0.000223978
7.4667e-05
0.0061598
0.00594808
0.00571659
0.0055099
0.00533
0.00516363
0.00500493
0.00485119
0.0047001
0.0045502
0.00440096
0.00425212
0.00410342
0.00395473
0.00380605
0.00365732
0.00350854
0.00335971
0.00321082
0.00306188
0.00291289
0.00276384
0.00261469
0.00246541
0.00231607
0.00216673
0.00201741
0.00186807
0.00171868
0.00156922
0.00141974
0.00127028
0.00112079
0.000971214
0.000822178
0.000672817
0.000522845
0.000373339
0.000224048
7.46926e-05
0.00606965
0.00589838
0.00570997
0.00552145
0.005345
0.00517775
0.00501656
0.00485982
0.00470618
0.00455451
0.00440403
0.00425427
0.0041049
0.00395574
0.00380673
0.00365779
0.00350886
0.00335992
0.00321095
0.00306195
0.00291291
0.00276382
0.00261465
0.00246537
0.00231603
0.00216669
0.00201736
0.00186801
0.00171863
0.00156919
0.00141974
0.00127033
0.00112097
0.000971645
0.000822122
0.000672381
0.000522756
0.000373363
0.000224054
7.46822e-05
0.00598307
0.00582679
0.00566897
0.00550079
0.00533449
0.00517331
0.00501577
0.00486081
0.00470778
0.00455617
0.00440556
0.00425559
0.00410595
0.00395655
0.00380733
0.00365822
0.00350915
0.00336011
0.00321106
0.00306199
0.00291289
0.00276373
0.00261449
0.00246521
0.00231592
0.00216662
0.0020173
0.00186795
0.00171857
0.00156915
0.00141972
0.00127029
0.00112085
0.000971399
0.00082198
0.000672522
0.000522995
0.000373541
0.000224144
7.47038e-05
0.00591284
0.00576046
0.00561865
0.0054661
0.0053112
0.00515807
0.00500618
0.00485501
0.00470441
0.00455431
0.00440458
0.00425514
0.00410582
0.00395656
0.00380739
0.00365829
0.00350921
0.00336015
0.00321108
0.003062
0.00291288
0.00276371
0.00261447
0.00246519
0.0023159
0.00216659
0.00201727
0.00186792
0.00171854