/*--------------------------------*- C++ -*----------------------------------*\
| =========                 |                                                 |
| \\      /  F ield         | OpenFOAM: The Open Source CFD Toolbox           |
|  \\    /   O peration     | Version:  2212                                  |
|   \\  /    A nd           | Website:  www.openfoam.com                      |
|    \\/     M anipulation  |                                                 |
\*---------------------------------------------------------------------------*/
FoamFile
{
    version     2.0;
    format      ascii;
    arch        "LSB;label=32;scalar=64";
    class       surfaceScalarField;
    location    "0.25";
    object      phi;
}
// * * * * * * * * * * * * * * * * * * * * * * * * * * * * * * * * * * * * * //

dimensions      [0 3 -1 0 0 0 0];

oriented        oriented;

internalField   nonuniform List<scalar> 
19019
(
3.32252e-07
1.09569e-09
1.09563e-09
2.79185e-07
2.65331e-08
2.65333e-08
2.49218e-07
1.49837e-08
1.4984e-08
2.29272e-07
9.97229e-09
9.97307e-09
2.14921e-07
7.17472e-09
7.17666e-09
2.03415e-07
5.75124e-09
5.75456e-09
1.94135e-07
4.63677e-09
4.6435e-09
1.86643e-07
3.73993e-09
3.75227e-09
1.80464e-07
3.07866e-09
3.10044e-09
1.75338e-07
2.54443e-09
2.58164e-09
1.71112e-07
2.08202e-09
2.14426e-09
1.67664e-07
1.67217e-09
1.77631e-09
1.64876e-07
1.30701e-09
1.48159e-09
1.62645e-07
9.69454e-10
1.26126e-09
1.60859e-07
6.62686e-10
1.12463e-09
1.59498e-07
3.06429e-10
1.05456e-09
1.58577e-07
-2.16383e-10
1.13736e-09
1.58499e-07
-1.23799e-09
1.31642e-09
1.60874e-07
-3.98825e-09
1.6137e-09
-1.77256e-08
-8.31445e-09
6.31373e-07
3.58983e-09
7.40645e-09
6.14551e-07
2.26598e-08
2.06953e-08
5.86472e-07
2.43709e-08
1.8692e-08
5.61876e-07
1.88044e-08
1.57637e-08
5.40014e-07
1.54289e-08
1.36077e-08
5.21459e-07
1.31989e-08
1.11069e-08
5.06216e-07
1.14005e-08
8.47999e-09
4.93584e-07
9.88093e-09
6.4907e-09
4.82973e-07
8.57559e-09
5.11474e-09
4.74028e-07
7.3478e-09
4.14171e-09
4.66511e-07
6.1737e-09
3.42475e-09
4.60219e-07
5.07316e-09
2.89142e-09
4.54951e-07
4.11027e-09
2.46543e-09
4.50503e-07
3.30505e-09
2.1128e-09
4.46727e-07
2.55833e-09
1.88064e-09
4.43461e-07
1.82461e-09
1.74783e-09
4.40487e-07
1.06908e-09
1.68935e-09
4.37532e-07
1.69631e-10
1.54691e-09
4.35307e-07
-1.92328e-09
1.60109e-10
1.07856e-09
1.71546e-10
8.90368e-07
2.85555e-09
6.33813e-09
8.82485e-07
1.3417e-08
1.7126e-08
8.70427e-07
1.78439e-08
1.85848e-08
8.55323e-07
1.68927e-08
1.70159e-08
8.40471e-07
1.51703e-08
1.51103e-08
8.26582e-07
1.37762e-08
1.33121e-08
8.13809e-07
1.26468e-08
1.15265e-08
8.02324e-07
1.1504e-08
9.86177e-09
7.9232e-07
1.01892e-08
8.39017e-09
7.83842e-07
8.75468e-09
7.07163e-09
7.76745e-07
7.34315e-09
5.92716e-09
7.70825e-07
6.02748e-09
4.96656e-09
7.65874e-07
4.85986e-09
4.20151e-09
7.6166e-07
3.89206e-09
3.62654e-09
7.57886e-07
3.12142e-09
3.21198e-09
7.54186e-07
2.55888e-09
2.96524e-09
7.50048e-07
2.21612e-09
2.9911e-09
7.44614e-07
2.18069e-09
3.42285e-09
7.36175e-07
2.54398e-09
3.97266e-09
8.43135e-09
9.43486e-09
1.07431e-06
1.06824e-09
5.57343e-09
1.06823e-06
5.59265e-09
1.3905e-08
1.06141e-06
8.45365e-09
1.6208e-08
1.05354e-06
8.99479e-09
1.57679e-08
1.04549e-06
8.50585e-09
1.47201e-08
1.03796e-06
7.86819e-09
1.3433e-08
1.03119e-06
7.29973e-09
1.21208e-08
1.02521e-06
6.75622e-09
1.07298e-08
1.01984e-06
6.21022e-09
9.34742e-09
1.01501e-06
5.60225e-09
7.97751e-09
1.01076e-06
4.86769e-09
6.72614e-09
1.00706e-06
4.08834e-09
5.64274e-09
1.0038e-06
3.37681e-09
4.73689e-09
1.00086e-06
2.8113e-09
4.02597e-09
9.98015e-07
2.44121e-09
3.52482e-09
9.94972e-07
2.33506e-09
3.2666e-09
9.91317e-07
2.55503e-09
3.31591e-09
9.86567e-07
3.19727e-09
3.73343e-09
9.80071e-07
4.59127e-09
4.44859e-09
8.78778e-09
7.3394e-09
1.16914e-06
1.24028e-13
4.90937e-09
1.16313e-06
6.37123e-13
1.16078e-08
1.15734e-06
1.43591e-12
1.42404e-08
1.15211e-06
2.39505e-12
1.42268e-08
1.14712e-06
3.96464e-12
1.34902e-08
1.14246e-06
6.73294e-12
1.25192e-08
1.13836e-06
1.13861e-11
1.13838e-08
1.13492e-06
1.90506e-11
1.01836e-08
1.13214e-06
3.17588e-11
8.95132e-09
1.12993e-06
5.27052e-11
7.76221e-09
1.12805e-06
8.69628e-11
6.66343e-09
1.12637e-06
1.42197e-10
5.62965e-09
1.12481e-06
2.3147e-10
4.6994e-09
1.1233e-06
3.76541e-10
3.94627e-09
1.12175e-06
6.09872e-10
3.38006e-09
1.12007e-06
9.96433e-10
3.0166e-09
1.11817e-06
1.59179e-09
2.86949e-09
1.11594e-06
2.5017e-09
2.92143e-09
1.11353e-06
3.89433e-09
3.10624e-09
6.25608e-09
4.09464e-09
1.16914e-06
-1.06795e-09
4.90937e-09
1.16313e-06
-5.59163e-09
1.16076e-08
1.15734e-06
-8.45174e-09
1.42403e-08
1.15211e-06
-8.99168e-09
1.42264e-08
1.14712e-06
-8.50041e-09
1.34887e-08
1.14247e-06
-7.8583e-09
1.25162e-08
1.13839e-06
-7.28251e-09
1.13795e-08
1.13496e-06
-6.72774e-09
1.01764e-08
1.13221e-06
-6.16325e-09
8.93946e-09
1.13005e-06
-5.52413e-09
7.74276e-09
1.12824e-06
-4.73704e-09
6.63424e-09
1.12667e-06
-3.87394e-09
5.58257e-09
1.12531e-06
-3.02457e-09
4.6181e-09
1.12411e-06
-2.2287e-09
3.8082e-09
1.12304e-06
-1.47635e-09
3.14795e-09
1.12209e-06
-6.85996e-10
2.63507e-09
1.12122e-06
2.0989e-10
2.24857e-09
1.12044e-06
1.34805e-09
1.9426e-09
1.11977e-06
2.92459e-09
1.63947e-09
5.08506e-09
1.64868e-09
1.07431e-06
-2.85558e-09
5.57345e-09
1.06823e-06
-1.3417e-08
1.3905e-08
1.06142e-06
-1.78437e-08
1.62074e-08
1.05355e-06
-1.68924e-08
1.57662e-08
1.0455e-06
-1.51695e-08
1.47167e-08
1.03799e-06
-1.37745e-08
1.34276e-08
1.03124e-06
-1.26436e-08
1.21123e-08
1.0253e-06
-1.14993e-08
1.07159e-08
1.01999e-06
-1.01824e-08
9.32729e-09
1.01526e-06
-8.74357e-09
7.94587e-09
1.01118e-06
-7.32094e-09
6.66836e-09
1.00775e-06
-5.98857e-09
5.5417e-09
1.00495e-06
-4.78995e-09
4.56319e-09
1.00275e-06
-3.75259e-09
3.72539e-09
1.00111e-06
-2.84507e-09
3.00509e-09
1.00004e-06
-1.97478e-09
2.36502e-09
9.99524e-07
-1.00985e-09
1.7329e-09
9.99539e-07
2.94117e-10
1.03815e-09
9.99745e-07
2.60511e-09
1.14001e-10
7.04107e-09
-8.5885e-10
8.90368e-07
-3.58987e-09
6.33811e-09
8.82486e-07
-2.26603e-08
1.71257e-08
8.7043e-07
-2.43715e-08
1.85836e-08
8.55329e-07
-1.88056e-08
1.70137e-08
8.40484e-07
-1.54315e-08
1.51072e-08
8.26605e-07
-1.32034e-08
1.33077e-08
8.1385e-07
-1.14084e-08
1.15197e-08
8.02395e-07
-9.89457e-09
9.85014e-09
7.92441e-07
-8.59887e-09
8.37115e-09
7.84044e-07
-7.38681e-09
7.04026e-09
7.77087e-07
-6.23671e-09
5.87223e-09
7.71404e-07
-5.17723e-09
4.87173e-09
7.66859e-07
-4.27954e-09
4.03531e-09
7.63346e-07
-3.56881e-09
3.32882e-09
7.6079e-07
-2.96752e-09
2.67928e-09
7.59247e-07
-2.441e-09
2.00889e-09
7.58988e-07
-1.97233e-09
1.22115e-09
7.60305e-07
-1.08483e-09
6.21391e-11
7.63756e-07
9.68207e-10
-1.81497e-09
8.33964e-09
-5.66905e-09
6.31373e-07
-1.09572e-09
7.4064e-09
6.14551e-07
-2.65334e-08
2.06949e-08
5.86473e-07
-1.49842e-08
1.86913e-08
5.61878e-07
-9.97329e-09
1.57624e-08
5.40018e-07
-7.17698e-09
1.36058e-08
5.21466e-07
-5.75491e-09
1.11029e-08
5.06228e-07
-4.64385e-09
8.47362e-09
4.93606e-07
-3.7526e-09
6.48039e-09
4.8301e-07
-3.10064e-09
5.09804e-09
4.7409e-07
-2.58171e-09
4.11464e-09
4.66618e-07
-2.14407e-09
3.37929e-09
4.60404e-07
-1.77738e-09
2.81506e-09
4.55273e-07
-1.48519e-09
2.3367e-09
4.51081e-07
-1.2666e-09
1.89033e-09
4.4776e-07
-1.12511e-09
1.47872e-09
4.45347e-07
-1.0513e-09
1.02264e-09
4.44115e-07
-1.13381e-09
3.94373e-10
4.45344e-07
-1.31404e-09
-1.00071e-09
4.51974e-07
-1.61354e-09
-4.04773e-09
8.31132e-09
-1.60166e-08
3.32252e-07
1.09562e-09
2.79185e-07
2.65329e-08
2.49218e-07
1.49835e-08
2.29272e-07
9.9721e-09
2.14921e-07
7.17443e-09
2.03415e-07
5.75094e-09
1.94135e-07
4.63644e-09
1.86643e-07
3.73957e-09
1.80464e-07
3.07833e-09
1.75339e-07
2.54403e-09
1.71113e-07
2.08134e-09
1.67664e-07
1.67258e-09
1.64869e-07
1.30956e-09
1.62629e-07
9.73626e-10
1.60841e-07
6.63229e-10
1.59487e-07
3.02168e-10
1.58571e-07
-2.1779e-10
1.58495e-07
-1.23768e-09
1.60868e-07
-3.98692e-09
-1.77243e-08
6.31373e-07
7.40639e-09
3.5898e-09
6.14551e-07
2.0695e-08
2.26601e-08
5.86473e-07
1.86913e-08
2.43714e-08
5.61878e-07
1.57624e-08
1.88054e-08
5.40017e-07
1.36058e-08
1.54312e-08
5.21466e-07
1.1103e-08
1.32032e-08
5.06228e-07
8.47375e-09
1.14082e-08
4.93605e-07
6.48051e-09
9.89443e-09
4.83009e-07
5.09805e-09
8.59887e-09
4.7409e-07
4.11433e-09
7.38677e-09
4.66619e-07
3.37934e-09
6.23647e-09
4.60404e-07
2.81574e-09
5.17511e-09
4.55275e-07
2.33661e-09
4.27443e-09
4.51083e-07
1.88888e-09
3.56548e-09
4.47761e-07
1.47711e-09
2.96954e-09
4.45347e-07
1.02047e-09
2.44806e-09
4.44111e-07
3.93852e-10
1.98017e-09
4.45343e-07
-9.99841e-10
1.08428e-09
4.51981e-07
-4.04865e-09
-9.75635e-10
-1.60204e-08
-8.35255e-09
9.23616e-07
7.03728e-09
7.0374e-09
9.25335e-07
1.98356e-08
1.98361e-08
9.17253e-07
2.2732e-08
2.27329e-08
9.04419e-07
2.21794e-08
2.21812e-08
8.90821e-07
2.04041e-08
2.04071e-08
8.77982e-07
1.75218e-08
1.75279e-08
8.66506e-07
1.42096e-08
1.42202e-08
8.56565e-07
1.14471e-08
1.14645e-08
8.48144e-07
9.30252e-09
9.33185e-09
8.41135e-07
7.60841e-09
7.65689e-09
8.35387e-07
6.23644e-09
6.31577e-09
8.30711e-07
5.12679e-09
5.25662e-09
8.27002e-07
4.14914e-09
4.36204e-09
8.2417e-07
3.24209e-09
3.5913e-09
8.21986e-07
2.48527e-09
3.05702e-09
8.203e-07
1.76371e-09
2.6907e-09
8.19121e-07
8.95856e-10
2.36667e-09
8.18253e-07
-4.33694e-10
1.84811e-09
8.16605e-07
-2.75577e-09
5.15305e-10
-6.94257e-09
-2.98623e-09
1.15891e-06
5.28157e-09
6.10445e-09
1.16572e-06
1.39859e-08
1.61667e-08
1.16847e-06
1.79289e-08
2.06338e-08
1.16668e-06
1.9062e-08
2.19277e-08
1.16236e-06
1.86478e-08
2.11824e-08
1.15681e-06
1.71404e-08
1.92459e-08
1.15093e-06
1.50134e-08
1.66045e-08
1.14529e-06
1.28673e-08
1.40766e-08
1.14021e-06
1.08976e-08
1.18774e-08
1.13584e-06
9.06816e-09
9.97886e-09
1.13217e-06
7.47511e-09
8.35789e-09
1.12914e-06
6.12817e-09
6.99664e-09
1.12667e-06
4.96684e-09
5.85603e-09
1.12464e-06
3.96936e-09
4.92932e-09
1.12293e-06
3.14996e-09
4.25561e-09
1.1214e-06
2.45083e-09
3.81451e-09
1.11982e-06
1.83147e-09
3.62613e-09
1.1179e-06
1.23616e-09
3.67479e-09
1.11465e-06
6.2247e-10
3.84957e-09
7.63407e-10
4.67656e-09
1.32763e-06
2.71911e-09
4.93184e-09
1.33541e-06
7.11654e-09
1.29934e-08
1.34287e-06
9.52881e-09
1.7146e-08
1.34848e-06
1.05062e-08
1.87191e-08
1.35199e-06
1.07217e-08
1.9131e-08
1.35381e-06
1.02915e-08
1.84626e-08
1.3545e-06
9.386e-09
1.70623e-08
1.35454e-06
8.30368e-09
1.52467e-08
1.35424e-06
7.23413e-09
1.33165e-08
1.35374e-06
6.14578e-09
1.13925e-08
1.35317e-06
5.13739e-09
9.63684e-09
1.35257e-06
4.25461e-09
8.11446e-09
1.35195e-06
3.50674e-09
6.82092e-09
1.35126e-06
2.91259e-09
5.7674e-09
1.35048e-06
2.48323e-09
4.97729e-09
1.3495e-06
2.22788e-09
4.46756e-09
1.34824e-06
2.15964e-09
4.25243e-09
1.34657e-06
2.30441e-09
4.33326e-09
1.34423e-06
2.71824e-09
4.69336e-09
3.61617e-09
5.68282e-09
1.41518e-06
2.4863e-13
4.19242e-09
1.4228e-06
7.07965e-13
1.1099e-08
1.43154e-06
1.15518e-12
1.50337e-08
1.4398e-06
2.03634e-12
1.64721e-08
1.44704e-06
3.70719e-12
1.69621e-08
1.45292e-06
6.40421e-12
1.69326e-08
1.45749e-06
1.06195e-11
1.61801e-08
1.46104e-06
1.78604e-11
1.49257e-08
1.46381e-06
2.93041e-11
1.33836e-08
1.46591e-06
4.72962e-11
1.17599e-08
1.4675e-06
7.65036e-11
1.01352e-08
1.46871e-06
1.23656e-10
8.55551e-09
1.46958e-06
1.9963e-10
7.1288e-09
1.47017e-06
3.20592e-10
5.95098e-09
1.47049e-06
5.11293e-10
5.02784e-09
1.47057e-06
8.06508e-10
4.36131e-09
1.47041e-06
1.25244e-09
3.93942e-09
1.47001e-06
1.90295e-09
3.72341e-09
1.46932e-06
2.8015e-09
3.70712e-09
3.89696e-09
4.06381e-09
1.41518e-06
-2.71881e-09
4.1923e-09
1.42281e-06
-7.11575e-09
1.10986e-08
1.43154e-06
-9.52747e-09
1.50332e-08
1.4398e-06
-1.05038e-08
1.6471e-08
1.44705e-06
-1.07171e-08
1.69595e-08
1.45293e-06
-1.02837e-08
1.69281e-08
1.45752e-06
-9.37292e-09
1.61734e-08
1.46108e-06
-8.28063e-09
1.49148e-08
1.46388e-06
-7.1978e-09
1.33661e-08
1.46603e-06
-6.08858e-09
1.17317e-08
1.46769e-06
-5.0408e-09
1.00914e-08
1.469e-06
-4.09431e-09
8.48437e-09
1.47005e-06
-3.24382e-09
7.00991e-09
1.47091e-06
-2.4804e-09
5.75674e-09
1.47162e-06
-1.77309e-09
4.71601e-09
1.47226e-06
-1.06518e-09
3.86975e-09
1.47285e-06
-2.77791e-10
3.1851e-09
1.47341e-06
6.78687e-10
2.61167e-09
1.47382e-06
1.88881e-09
2.14529e-09
3.32192e-09
1.90488e-09
1.32763e-06
-5.28166e-09
4.93163e-09
1.33541e-06
-1.3986e-08
1.29928e-08
1.34288e-06
-1.79291e-08
1.71446e-08
1.34848e-06
-1.90623e-08
1.87157e-08
1.35201e-06
-1.86483e-08
1.91249e-08
1.35384e-06
-1.71417e-08
1.84533e-08
1.35455e-06
-1.50154e-08
1.70476e-08
1.35463e-06
-1.28703e-08
1.5223e-08
1.35438e-06
-1.09047e-08
1.32802e-08
1.35399e-06
-9.08026e-09
1.1334e-08
1.35357e-06
-7.49018e-09
9.53621e-09
1.35322e-06
-6.14766e-09
7.94608e-09
1.35299e-06
-4.9924e-09
6.54243e-09
1.35292e-06
-3.9965e-09
5.30614e-09
1.3531e-06
-3.16397e-09
4.21896e-09
1.35357e-06
-2.41337e-09
3.2417e-09
1.35437e-06
-1.64478e-09
2.30418e-09
1.35545e-06
-7.08658e-10
1.34576e-09
1.35641e-06
6.86953e-10
3.5129e-10
2.90389e-09
-5.81336e-10
1.15891e-06
-7.03743e-09
6.10421e-09
1.16572e-06
-1.98361e-08
1.61658e-08
1.16847e-06
-2.2733e-08
2.06317e-08
1.16668e-06
-2.21813e-08
2.19241e-08
1.16237e-06
-2.04072e-08
2.11768e-08
1.15683e-06
-1.75279e-08
1.92378e-08
1.15096e-06
-1.42202e-08
1.65914e-08
1.14535e-06
-1.14645e-08
1.40541e-08
1.14031e-06
-9.33182e-09
1.184e-08
1.13601e-06
-7.65704e-09
9.91716e-09
1.13245e-06
-6.31557e-09
8.25444e-09
1.12961e-06
-5.25513e-09
6.82263e-09
1.12745e-06
-4.36078e-09
5.56596e-09
1.12592e-06
-3.59154e-09
4.4477e-09
1.12504e-06
-3.0566e-09
3.45491e-09
1.12484e-06
-2.69319e-09
2.48638e-09
1.12536e-06
-2.36898e-09
1.43169e-09
1.12643e-06
-1.84815e-09
1.29724e-10
1.12745e-06
-5.17758e-10
-1.63147e-09
2.98416e-09
-3.77676e-09
9.23617e-07
-7.40648e-09
7.03726e-09
9.25335e-07
-2.06954e-08
1.98355e-08
9.17254e-07
-1.86921e-08
2.27319e-08
9.04419e-07
-1.57638e-08
2.21794e-08
8.90822e-07
-1.36078e-08
2.0404e-08
8.77982e-07
-1.1107e-08
1.75217e-08
8.66506e-07
-8.48007e-09
1.42095e-08
8.56566e-07
-6.49077e-09
1.1447e-08
8.48145e-07
-5.11483e-09
9.3025e-09
8.41136e-07
-4.14206e-09
7.60863e-09
8.35388e-07
-3.42472e-09
6.23625e-09
8.30714e-07
-2.89071e-09
5.12492e-09
8.27009e-07
-2.46539e-09
4.1465e-09
8.2418e-07
-2.1135e-09
3.24136e-09
8.21998e-07
-1.88151e-09
2.48552e-09
8.2031e-07
-1.74969e-09
1.76783e-09
8.19125e-07
-1.68991e-09
9.00175e-10
8.18254e-07
-1.54667e-09
-4.31696e-10
8.16601e-07
-1.6139e-10
-2.7512e-09
-1.74788e-10
-6.93747e-09
6.31373e-07
3.58974e-09
6.14551e-07
2.26597e-08
5.86472e-07
2.43706e-08
5.61876e-07
1.88042e-08
5.40014e-07
1.54286e-08
5.2146e-07
1.31986e-08
5.06216e-07
1.14002e-08
4.93585e-07
9.88057e-09
4.82973e-07
8.57522e-09
4.74028e-07
7.34757e-09
4.66511e-07
6.17363e-09
4.60218e-07
5.07478e-09
4.54948e-07
4.11435e-09
4.50502e-07
3.307e-09
4.46727e-07
2.55646e-09
4.43462e-07
1.81768e-09
4.40489e-07
1.06526e-09
4.37531e-07
1.73701e-10
4.35297e-07
-1.91479e-09
1.08593e-09
8.90368e-07
6.33811e-09
2.85554e-09
8.82486e-07
1.71256e-08
1.3417e-08
8.7043e-07
1.85836e-08
1.78437e-08
8.55329e-07
1.70137e-08
1.68924e-08
8.40484e-07
1.51072e-08
1.51695e-08
8.26605e-07
1.33077e-08
1.37746e-08
8.1385e-07
1.15197e-08
1.26438e-08
8.02395e-07
9.85019e-09
1.14996e-08
7.9244e-07
8.37123e-09
1.01827e-08
7.84043e-07
7.04027e-09
8.74392e-09
7.77086e-07
5.87203e-09
7.32133e-09
7.71403e-07
4.87057e-09
5.98779e-09
7.66857e-07
4.0333e-09
4.78791e-09
7.63341e-07
3.32772e-09
3.75371e-09
7.60778e-07
2.68042e-09
2.85196e-09
7.59231e-07
2.0124e-09
1.98286e-09
7.58973e-07
1.22403e-09
1.01463e-09
7.60296e-07
5.92427e-11
-2.98262e-10
7.63754e-07
-1.82152e-09
-2.61246e-09
-5.67642e-09
-7.05217e-09
1.15891e-06
6.10423e-09
5.28165e-09
1.16572e-06
1.61658e-08
1.3986e-08
1.16847e-06
2.06317e-08
1.79291e-08
1.16668e-06
2.19241e-08
1.90623e-08
1.16237e-06
2.11768e-08
1.86484e-08
1.15683e-06
1.92378e-08
1.71417e-08
1.15096e-06
1.65915e-08
1.50156e-08
1.14535e-06
1.40542e-08
1.28706e-08
1.14031e-06
1.18402e-08
1.0905e-08
1.13601e-06
9.91729e-09
9.08063e-09
1.13245e-06
8.25459e-09
7.49059e-09
1.12961e-06
6.82349e-09
6.14847e-09
1.12744e-06
5.56687e-09
4.99215e-09
1.12592e-06
4.44791e-09
3.99602e-09
1.12504e-06
3.45501e-09
3.16541e-09
1.12484e-06
2.48564e-09
2.41491e-09
1.12535e-06
1.43008e-09
1.64595e-09
1.12642e-06
1.26845e-10
7.08556e-10
1.12744e-06
-1.63532e-09
-6.8856e-10
-3.77891e-09
-2.90458e-09
1.37713e-06
4.57371e-09
4.57393e-09
1.38568e-06
1.18933e-08
1.18939e-08
1.39418e-06
1.63796e-08
1.63808e-08
1.4012e-06
1.84159e-08
1.8418e-08
1.40622e-06
1.86659e-08
1.86693e-08
1.40916e-06
1.77727e-08
1.77784e-08
1.41034e-06
1.59989e-08
1.60086e-08
1.41054e-06
1.39582e-08
1.39737e-08
1.41028e-06
1.19776e-08
1.20024e-08
1.40983e-06
1.01527e-08
1.01932e-08
1.40936e-06
8.51e-09
8.57533e-09
1.40897e-06
7.0483e-09
7.15567e-09
1.40872e-06
5.75235e-09
5.92519e-09
1.40861e-06
4.60665e-09
4.88256e-09
1.40869e-06
3.59561e-09
4.03166e-09
1.40897e-06
2.67167e-09
3.34984e-09
1.40943e-06
1.78236e-09
2.81366e-09
1.41001e-06
8.54038e-10
2.36977e-09
1.41047e-06
-1.63698e-10
1.91271e-09
-1.0062e-09
1.39227e-09
1.53313e-06
2.36338e-09
3.64515e-09
1.54218e-06
6.22435e-09
9.60865e-09
1.55325e-06
8.83475e-09
1.36202e-08
1.56435e-06
1.02614e-08
1.57802e-08
1.57479e-06
1.07372e-08
1.66194e-08
1.58409e-06
1.04756e-08
1.64521e-08
1.59185e-06
9.71321e-09
1.55955e-08
1.59811e-06
8.69238e-09
1.42462e-08
1.60317e-06
7.57734e-09
1.26624e-08
1.6072e-06
6.47901e-09
1.10279e-08
1.61043e-06
5.46669e-09
9.45585e-09
1.61301e-06
4.56574e-09
8.01228e-09
1.61508e-06
3.77774e-09
6.73068e-09
1.61672e-06
3.09697e-09
5.63491e-09
1.61803e-06
2.52216e-09
4.74223e-09
1.61906e-06
2.0485e-09
4.06045e-09
1.61984e-06
1.66573e-09
3.58532e-09
1.62036e-06
1.36869e-09
3.29936e-09
1.62054e-06
1.16582e-09
3.18379e-09
1.14736e-09
3.2417e-09
1.61424e-06
1.99464e-13
3.0886e-09
1.62331e-06
4.55617e-13
8.24972e-09
1.63529e-06
7.34975e-13
1.18882e-08
1.64806e-06
1.23587e-12
1.39617e-08
1.66085e-06
2.14779e-12
1.49127e-08
1.67315e-06
3.49301e-12
1.51e-08
1.68436e-06
5.56044e-12
1.46817e-08
1.69416e-06
8.95022e-12
1.38097e-08
1.70251e-06
1.42668e-11
1.25917e-08
1.70952e-06
2.22942e-11
1.12033e-08
1.71533e-06
3.60158e-11
9.76226e-09
1.72004e-06
5.75932e-11
8.35084e-09
1.72382e-06
9.13828e-11
7.03947e-09
1.72684e-06
1.4366e-10
5.88341e-09
1.72925e-06
2.24004e-10
4.91135e-09
1.73118e-06
3.4569e-10
4.13844e-09
1.73269e-06
5.2607e-10
3.55981e-09
1.73385e-06
7.88806e-10
3.14574e-09
1.73469e-06
1.14885e-09
2.88578e-09
1.56791e-09
2.83084e-09
1.61424e-06
-2.36319e-09
3.08845e-09
1.62331e-06
-6.22394e-09
8.2493e-09
1.63529e-06
-8.83411e-09
1.18874e-08
1.64807e-06
-1.02604e-08
1.39602e-08
1.66085e-06
-1.07357e-08
1.491e-08
1.67316e-06
-1.04733e-08
1.50958e-08
1.68438e-06
-9.70955e-09
1.46754e-08
1.69419e-06
-8.68617e-09
1.37996e-08
1.70256e-06
-7.56817e-09
1.25757e-08
1.7096e-06
-6.46518e-09
1.11779e-08
1.71544e-06
-5.44063e-09
9.72205e-09
1.72022e-06
-4.52385e-09
8.28655e-09
1.7241e-06
-3.71089e-09
6.93707e-09
1.72727e-06
-2.98958e-09
5.72238e-09
1.72989e-06
-2.34868e-09
4.66228e-09
1.73211e-06
-1.76876e-09
3.76126e-09
1.73404e-06
-1.2187e-09
3.00459e-09
1.73574e-06
-6.56697e-10
2.35685e-09
1.73726e-06
-4.02664e-11
1.8142e-09
6.23643e-10
1.47037e-09
1.53313e-06
-4.57394e-09
3.64482e-09
1.54218e-06
-1.18939e-08
9.60773e-09
1.55326e-06
-1.63808e-08
1.36185e-08
1.56435e-06
-1.8418e-08
1.57771e-08
1.5748e-06
-1.86693e-08
1.66143e-08
1.58411e-06
-1.77784e-08
1.6444e-08
1.59188e-06
-1.60085e-08
1.55824e-08
1.59816e-06
-1.39735e-08
1.42257e-08
1.60324e-06
-1.20021e-08
1.26301e-08
1.60733e-06
-1.01927e-08
1.09751e-08
1.61063e-06
-8.57442e-09
9.36973e-09
1.61333e-06
-7.15376e-09
7.87242e-09
1.61558e-06
-5.92293e-09
6.50655e-09
1.6175e-06
-4.88146e-09
5.27852e-09
1.61922e-06
-4.03181e-09
4.18199e-09
1.62085e-06
-3.35046e-09
3.19621e-09
1.62246e-06
-2.8141e-09
2.28763e-09
1.6241e-06
-2.36982e-09
1.41765e-09
1.62574e-06
-1.91171e-09
5.81661e-10
-1.38833e-09
-8.1589e-11
1.37713e-06
-6.10446e-09
4.57368e-09
1.38568e-06
-1.61667e-08
1.18932e-08
1.39418e-06
-2.06338e-08
1.63796e-08
1.4012e-06
-2.19277e-08
1.84159e-08
1.40622e-06
-2.11824e-08
1.86659e-08
1.40916e-06
-1.9246e-08
1.77727e-08
1.41034e-06
-1.66045e-08
1.59989e-08
1.41054e-06
-1.40766e-08
1.39581e-08
1.41028e-06
-1.18773e-08
1.19775e-08
1.40983e-06
-9.97869e-09
1.01526e-08
1.40936e-06
-8.3576e-09
8.50962e-09
1.40898e-06
-6.99523e-09
7.04711e-09
1.40872e-06
-5.85365e-09
5.75103e-09
1.40861e-06
-4.92719e-09
4.60641e-09
1.40869e-06
-4.25433e-09
3.59641e-09
1.40897e-06
-3.81507e-09
2.67296e-09
1.40943e-06
-3.62834e-09
1.78357e-09
1.41001e-06
-3.67798e-09
8.5512e-10
1.41049e-06
-3.85369e-09
-1.63162e-10
-4.67875e-09
-1.00769e-09
1.15891e-06
-6.33814e-09
5.28152e-09
1.16572e-06
-1.7126e-08
1.39858e-08
1.16847e-06
-1.85849e-08
1.79288e-08
1.16668e-06
-1.7016e-08
1.9062e-08
1.16236e-06
-1.51104e-08
1.86478e-08
1.15681e-06
-1.33121e-08
1.71404e-08
1.15093e-06
-1.15265e-08
1.50134e-08
1.14529e-06
-9.86172e-09
1.28673e-08
1.14021e-06
-8.39012e-09
1.08977e-08
1.13584e-06
-7.0717e-09
9.06828e-09
1.13218e-06
-5.92741e-09
7.47527e-09
1.12914e-06
-4.96736e-09
6.12758e-09
1.12667e-06
-4.20223e-09
4.96561e-09
1.12465e-06
-3.62536e-09
3.96837e-09
1.12294e-06
-3.20902e-09
3.14926e-09
1.1214e-06
-2.96147e-09
2.45154e-09
1.11983e-06
-2.99126e-09
1.83361e-09
1.11791e-06
-3.42745e-09
1.23956e-09
1.11466e-06
-3.98063e-09
6.27432e-10
-9.442e-09
7.67478e-10
8.90368e-07
2.85549e-09
8.82485e-07
1.34169e-08
8.70427e-07
1.78437e-08
8.55323e-07
1.68925e-08
8.40471e-07
1.51702e-08
8.26582e-07
1.37761e-08
8.13809e-07
1.26467e-08
8.02324e-07
1.1504e-08
7.9232e-07
1.01891e-08
7.83842e-07
8.75476e-09
7.76745e-07
7.34338e-09
7.70823e-07
6.02911e-09
7.65873e-07
4.86266e-09
7.61663e-07
3.8922e-09
7.57893e-07
3.11696e-09
7.54197e-07
2.55227e-09
7.50057e-07
2.21474e-09
7.44617e-07
2.18538e-09
7.36168e-07
2.55414e-09
8.44201e-09
1.07431e-06
5.57345e-09
1.06795e-09
1.06823e-06
1.39049e-08
5.59174e-09
1.06142e-06
1.62074e-08
8.45192e-09
1.05355e-06
1.57661e-08
8.99188e-09
1.0455e-06
1.47166e-08
8.50067e-09
1.03799e-06
1.34276e-08
7.85863e-09
1.03124e-06
1.21123e-08
7.28292e-09
1.02529e-06
1.0716e-08
6.72827e-09
1.01999e-06
9.32742e-09
6.16387e-09
1.01526e-06
7.94618e-09
5.52497e-09
1.01117e-06
6.669e-09
4.73835e-09
1.00774e-06
5.54238e-09
3.876e-09
1.00494e-06
4.56321e-09
3.02809e-09
1.00273e-06
3.72656e-09
2.23335e-09
1.0011e-06
3.00814e-09
1.48131e-09
1.00002e-06
2.36702e-09
6.89431e-10
9.99512e-07
1.7328e-09
-2.09179e-10
9.99529e-07
1.03536e-09
-1.34983e-09
9.99734e-07
1.08751e-10
-2.92698e-09
-8.67327e-10
-5.08791e-09
1.32763e-06
4.93165e-09
2.71882e-09
1.33541e-06
1.29928e-08
7.11581e-09
1.34288e-06
1.71446e-08
9.52753e-09
1.34848e-06
1.87156e-08
1.05038e-08
1.35201e-06
1.91248e-08
1.07172e-08
1.35384e-06
1.84532e-08
1.02838e-08
1.35455e-06
1.70476e-08
9.3731e-09
1.35463e-06
1.52231e-08
8.2809e-09
1.35438e-06
1.32803e-08
7.19817e-09
1.35399e-06
1.13341e-08
6.08907e-09
1.35357e-06
9.53633e-09
5.04138e-09
1.35322e-06
7.94586e-09
4.09488e-09
1.35299e-06
6.54047e-09
3.24323e-09
1.35293e-06
5.30503e-09
2.48016e-09
1.35311e-06
4.22083e-09
1.7748e-09
1.35358e-06
3.24384e-09
1.06732e-09
1.35437e-06
2.30525e-09
2.79716e-10
1.35545e-06
1.34498e-09
-6.77486e-10
1.35641e-06
3.48144e-10
-1.88842e-09
-5.87062e-10
-3.3224e-09
1.53313e-06
3.64486e-09
2.36322e-09
1.54218e-06
9.60776e-09
6.22399e-09
1.55326e-06
1.36185e-08
8.83414e-09
1.56435e-06
1.57771e-08
1.02604e-08
1.5748e-06
1.66143e-08
1.07357e-08
1.58411e-06
1.6444e-08
1.04733e-08
1.59188e-06
1.55824e-08
9.70964e-09
1.59816e-06
1.42257e-08
8.68633e-09
1.60324e-06
1.26302e-08
7.56844e-09
1.60733e-06
1.09752e-08
6.46557e-09
1.61063e-06
9.36981e-09
5.44116e-09
1.61334e-06
7.87246e-09
4.52444e-09
1.61558e-06
6.5061e-09
3.71111e-09
1.6175e-06
5.27786e-09
2.98956e-09
1.61922e-06
4.18184e-09
2.34894e-09
1.62085e-06
3.19643e-09
1.7694e-09
1.62246e-06
2.28785e-09
1.2197e-09
1.6241e-06
1.41749e-09
6.57984e-10
1.62574e-06
5.80822e-10
4.17521e-11
-8.31136e-11
-6.21944e-10
1.68027e-06
1.88733e-09
1.8874e-09
1.68932e-06
5.08168e-09
5.08198e-09
1.70172e-06
7.41971e-09
7.42034e-09
1.71557e-06
8.85372e-09
8.85479e-09
1.72975e-06
9.52476e-09
9.52655e-09
1.74349e-06
9.57944e-09
9.58239e-09
1.75624e-06
9.2112e-09
9.21587e-09
1.76763e-06
8.53666e-09
8.54389e-09
1.77755e-06
7.68016e-09
7.69169e-09
1.78604e-06
6.74769e-09
6.76647e-09
1.79321e-06
5.81324e-09
5.84202e-09
1.7992e-06
4.92188e-09
4.96729e-09
1.80417e-06
4.09738e-09
4.16852e-09
1.80828e-06
3.34997e-09
3.45969e-09
1.81167e-06
2.68162e-09
2.8473e-09
1.8145e-06
2.09068e-09
2.33386e-09
1.81689e-06
1.57301e-09
1.91628e-09
1.81891e-06
1.11972e-09
1.57722e-09
1.82063e-06
7.39767e-10
1.2967e-09
5.23375e-10
1.07924e-09
1.7569e-06
6.11062e-14
1.60982e-09
1.76586e-06
8.97171e-14
4.3679e-09
1.77868e-06
6.66237e-14
6.48994e-09
1.79363e-06
5.61529e-14
7.86296e-09
1.80947e-06
6.55786e-14
8.59344e-09
1.82534e-06
8.25164e-14
8.81359e-09
1.84058e-06
1.35477e-13
8.65079e-09
1.85472e-06
3.35075e-13
8.20431e-09
1.86744e-06
5.53486e-13
7.55418e-09
1.87861e-06
8.05749e-13
6.78207e-09
1.88822e-06
1.37784e-12
5.95735e-09
1.89636e-06
2.22303e-12
5.1339e-09
1.90314e-06
3.53925e-12
4.35175e-09
1.90873e-06
5.85601e-12
3.63732e-09
1.91331e-06
1.03631e-11
2.99972e-09
1.91707e-06
1.92401e-11
2.45399e-09
1.92014e-06
3.62468e-11
2.02743e-09
1.92264e-06
6.86611e-11
1.69425e-09
1.92476e-06
1.30234e-10
1.37921e-09
2.31489e-10
1.27297e-09
1.7569e-06
-1.88739e-09
1.60974e-09
1.76586e-06
-5.08194e-09
4.36764e-09
1.77868e-06
-7.42033e-09
6.48943e-09
1.79363e-06
-8.8548e-09
7.86206e-09
1.80948e-06
-9.52655e-09
8.59197e-09
1.82534e-06
-9.58236e-09
8.81129e-09
1.84059e-06
-9.21578e-09
8.64735e-09
1.85473e-06
-8.54371e-09
8.19898e-09
1.86745e-06
-7.6914e-09
7.54585e-09
1.87863e-06
-6.76604e-09
6.76902e-09
1.88826e-06
-5.8414e-09
5.93693e-09
1.89641e-06
-4.96651e-09
5.10202e-09
1.90321e-06
-4.1678e-09
4.30244e-09
1.90884e-06
-3.45933e-09
3.56224e-09
1.91347e-06
-2.84722e-09
2.88773e-09
1.91729e-06
-2.33374e-09
2.29119e-09
1.92045e-06
-1.91597e-09
1.79769e-09
1.92307e-06
-1.57668e-09
1.3831e-09
1.92533e-06
-1.29589e-09
9.84338e-10
-1.07819e-09
8.29801e-10
1.68027e-06
-3.64516e-09
1.8873e-09
1.68932e-06
-9.60864e-09
5.08166e-09
1.70172e-06
-1.36202e-08
7.41972e-09
1.71557e-06
-1.57802e-08
8.85375e-09
1.72975e-06
-1.66194e-08
9.5248e-09
1.74349e-06
-1.6452e-08
9.57947e-09
1.75624e-06
-1.55954e-08
9.21122e-09
1.76763e-06
-1.4246e-08
8.53666e-09
1.77755e-06
-1.2662e-08
7.68014e-09
1.78604e-06
-1.10273e-08
6.74763e-09
1.79321e-06
-9.45497e-09
5.81315e-09
1.7992e-06
-8.01092e-09
4.92179e-09
1.80417e-06
-6.72918e-09
4.09748e-09
1.80827e-06
-5.63391e-09
3.35037e-09
1.81167e-06
-4.74181e-09
2.68205e-09
1.8145e-06
-4.06034e-09
2.09096e-09
1.81688e-06
-3.58521e-09
1.57314e-09
1.8189e-06
-3.29901e-09
1.11974e-09
1.82063e-06
-3.18275e-09
7.3976e-10
-3.23945e-09
5.23242e-10
1.53313e-06
-4.93185e-09
2.36336e-09
1.54218e-06
-1.29934e-08
6.22433e-09
1.55325e-06
-1.7146e-08
8.83478e-09
1.56435e-06
-1.87191e-08
1.02614e-08
1.57479e-06
-1.91311e-08
1.07373e-08
1.58409e-06
-1.84626e-08
1.04756e-08
1.59185e-06
-1.70622e-08
9.71323e-09
1.59811e-06
-1.52466e-08
8.69237e-09
1.60317e-06
-1.33163e-08
7.5773e-09
1.60721e-06
-1.13923e-08
6.4789e-09
1.61043e-06
-9.63645e-09
5.46643e-09
1.61301e-06
-8.11363e-09
4.56521e-09
1.61508e-06
-6.81956e-09
3.77722e-09
1.61672e-06
-5.76575e-09
3.09696e-09
1.61803e-06
-4.97572e-09
2.52262e-09
1.61906e-06
-4.46674e-09
2.04904e-09
1.61984e-06
-4.25269e-09
1.66594e-09
1.62036e-06
-4.33431e-09
1.36824e-09
1.62055e-06
-4.69476e-09
1.16438e-09
-5.6819e-09
1.14457e-09
1.32763e-06
-5.57343e-09
2.71908e-09
1.33541e-06
-1.3905e-08
7.11651e-09
1.34287e-06
-1.6208e-08
9.52882e-09
1.34848e-06
-1.57679e-08
1.05063e-08
1.35199e-06
-1.47201e-08
1.07217e-08
1.35381e-06
-1.3433e-08
1.02915e-08
1.3545e-06
-1.21208e-08
9.38601e-09
1.35454e-06
-1.07297e-08
8.30369e-09
1.35424e-06
-9.34738e-09
7.23416e-09
1.35375e-06
-7.97751e-09
6.14583e-09
1.35317e-06
-6.72616e-09
5.1374e-09
1.35258e-06
-5.64286e-09
4.25432e-09
1.35195e-06
-4.7368e-09
3.50622e-09
1.35127e-06
-4.02474e-09
2.91214e-09
1.35048e-06
-3.52233e-09
2.483e-09
1.3495e-06
-3.26438e-09
2.22801e-09
1.34824e-06
-3.31599e-09
2.16024e-09
1.34657e-06
-3.73624e-09
2.3054e-09
1.34424e-06
-4.45358e-09
2.71911e-09
-7.34469e-09
3.61519e-09
1.07431e-06
1.0682e-09
1.06823e-06
5.59258e-09
1.06141e-06
8.45354e-09
1.05354e-06
8.9947e-09
1.04549e-06
8.50582e-09
1.03796e-06
7.86819e-09
1.03119e-06
7.29976e-09
1.02521e-06
6.75627e-09
1.01984e-06
6.21026e-09
1.01501e-06
5.60231e-09
1.01076e-06
4.86777e-09
1.00706e-06
4.08873e-09
1.00381e-06
3.37731e-09
1.00087e-06
2.81071e-09
9.98021e-07
2.439e-09
9.94975e-07
2.33316e-09
9.91319e-07
2.55523e-09
9.86568e-07
3.20063e-09
9.80071e-07
4.5979e-09
8.79675e-09
1.16914e-06
4.90936e-09
-1.17832e-13
1.16313e-06
1.16076e-08
-5.06672e-13
1.15734e-06
1.42402e-08
-1.11824e-12
1.15211e-06
1.42263e-08
-2.08914e-12
1.14712e-06
1.34886e-08
-3.63914e-12
1.14247e-06
1.25161e-08
-6.36669e-12
1.13839e-06
1.13793e-08
-1.09576e-11
1.13496e-06
1.01763e-08
-1.8539e-11
1.13221e-06
8.93941e-09
-3.11614e-11
1.13005e-06
7.74282e-09
-5.19886e-11
1.12824e-06
6.63454e-09
-8.60807e-11
1.12667e-06
5.58321e-09
-1.41107e-10
1.12531e-06
4.61938e-09
-2.29998e-10
1.12411e-06
3.80959e-09
-3.74299e-10
1.12305e-06
3.14862e-09
-6.07039e-10
1.12209e-06
2.63516e-09
-9.93937e-10
1.12123e-06
2.24802e-09
-1.59034e-09
1.12044e-06
1.94143e-09
-2.50136e-09
1.11977e-06
1.63777e-09
-3.89439e-09
1.64631e-09
-6.25601e-09
1.41518e-06
4.19233e-09
-2.09326e-13
1.42281e-06
1.10986e-08
-5.92306e-13
1.43154e-06
1.50331e-08
-1.07605e-12
1.4398e-06
1.64709e-08
-1.98215e-12
1.44705e-06
1.69594e-08
-3.6476e-12
1.45293e-06
1.6928e-08
-6.31691e-12
1.45752e-06
1.61733e-08
-1.0485e-11
1.46108e-06
1.49147e-08
-1.76655e-11
1.46388e-06
1.3366e-08
-2.9046e-11
1.46603e-06
1.17316e-08
-4.69776e-11
1.46769e-06
1.00914e-08
-7.61456e-11
1.46901e-06
8.48447e-09
-1.23323e-10
1.47006e-06
7.01027e-09
-1.99441e-10
1.47091e-06
5.75718e-09
-3.20363e-10
1.47163e-06
4.71628e-09
-5.10661e-10
1.47226e-06
3.86993e-09
-8.05494e-10
1.47286e-06
3.18499e-09
-1.25121e-09
1.47341e-06
2.61095e-09
-1.90159e-09
1.47382e-06
2.14371e-09
-2.79996e-09
1.90253e-09
-3.89531e-09
1.61424e-06
3.08849e-09
-1.50787e-13
1.62331e-06
8.24933e-09
-3.88105e-13
1.63529e-06
1.18874e-08
-7.22108e-13
1.64807e-06