/*--------------------------------*- C++ -*----------------------------------*\
| =========                 |                                                 |
| \\      /  F ield         | OpenFOAM: The Open Source CFD Toolbox           |
|  \\    /   O peration     | Version:  2212                                  |
|   \\  /    A nd           | Website:  www.openfoam.com                      |
|    \\/     M anipulation  |                                                 |
\*---------------------------------------------------------------------------*/
FoamFile
{
    version     2.0;
    format      ascii;
    arch        "LSB;label=32;scalar=64";
    class       volVectorField;
    location    "0.25";
    object      U;
}
// * * * * * * * * * * * * * * * * * * * * * * * * * * * * * * * * * * * * * //

dimensions      [0 1 -1 0 0 0 0];

internalField   nonuniform List<vector> 
6840
(
(0.0956457 -0.0083605 -0.00836049)
(0.0904925 0.00152254 0.00152259)
(0.0790667 0.00242921 0.00242938)
(0.0713026 0.00149031 0.00149058)
(0.0661928 0.000832067 0.000832545)
(0.0623661 0.000563109 0.000563928)
(0.0593028 0.000429283 0.000430915)
(0.0568232 0.000324822 0.00032765)
(0.054798 0.000248019 0.000252718)
(0.0531199 0.000189663 0.000197329)
(0.0517338 0.000142236 0.000154703)
(0.0505866 0.000102444 0.000122878)
(0.049677 6.70402e-05 0.000100957)
(0.0489273 3.30627e-05 8.95918e-05)
(0.0483334 9.67084e-06 9.00307e-05)
(0.0478663 -3.66961e-05 0.000103118)
(0.0475227 -0.000106519 0.000144915)
(0.047359 -0.00024682 0.000210889)
(0.0477876 -0.000535489 0.000237441)
(0.0469527 -0.00283972 -0.00120401)
(0.0999085 0.00129736 0.000712602)
(0.0969646 0.00365679 0.00274702)
(0.0935335 0.00264074 0.00211585)
(0.0896002 0.00181665 0.0016079)
(0.0858706 0.00151761 0.00136265)
(0.0826758 0.0013271 0.00112039)
(0.0800342 0.00114381 0.000842305)
(0.0778731 0.000977591 0.000615549)
(0.0760744 0.000841301 0.00046053)
(0.074559 0.000718551 0.000358285)
(0.073283 0.00060183 0.000290246)
(0.0722076 0.000491034 0.000245069)
(0.0713249 0.000389128 0.000217173)
(0.0705709 0.000294843 0.000200558)
(0.0699277 0.000195745 0.000189823)
(0.0693913 8.55049e-05 0.00019048)
(0.068914 -5.78503e-05 0.000211656)
(0.06846 -0.000275848 0.00025229)
(0.0680564 -0.000806641 0.000236385)
(0.0675373 -0.00126382 0.00108525)
(0.0994131 0.000345607 0.000270886)
(0.0988645 0.00202121 0.00187522)
(0.0979235 0.00257117 0.00218251)
(0.0963814 0.00237454 0.00189185)
(0.0946673 0.00209742 0.00159596)
(0.0930469 0.00188331 0.00135566)
(0.091524 0.00171503 0.00115745)
(0.090152 0.00156464 0.000984917)
(0.0889511 0.00140007 0.000828811)
(0.0879204 0.00121533 0.000685041)
(0.0870536 0.00102404 0.0005604)
(0.0863325 0.000838192 0.000459125)
(0.0857323 0.000670472 0.000386476)
(0.0852265 0.000529093 0.000340853)
(0.0847857 0.000407401 0.000313676)
(0.0843824 0.000298459 0.000306533)
(0.0839552 0.000193542 0.000336786)
(0.0834331 0.00010239 0.000428951)
(0.0827232 -1.35429e-05 0.000535476)
(0.0819762 0.000550793 0.00169206)
(0.0995408 0.000245331 0.000322528)
(0.0992567 0.00105631 0.0015431)
(0.0988486 0.00150178 0.002106)
(0.0981318 0.00157482 0.00207242)
(0.0973617 0.00149923 0.00185142)
(0.0966344 0.00140864 0.00160463)
(0.0959546 0.00133539 0.00138878)
(0.0953589 0.0012531 0.00118997)
(0.094848 0.00114467 0.00101685)
(0.0943629 0.00101397 0.000855081)
(0.0939378 0.000868994 0.000707802)
(0.0935699 0.000722684 0.000581417)
(0.0932495 0.000585903 0.000480136)
(0.0929651 0.000470074 0.000404379)
(0.0927009 0.00038176 0.000353847)
(0.0924349 0.000328286 0.00033086)
(0.0921342 0.000317045 0.000346194)
(0.0917477 0.000347514 0.000412733)
(0.091235 0.000473035 0.000504451)
(0.0907836 0.00108158 0.00100405)
(0.0993805 3.38743e-05 5.97518e-05)
(0.0992679 0.000274199 0.00120102)
(0.0989823 0.000431883 0.00188513)
(0.0984783 0.00048138 0.00199331)
(0.0980064 0.000473084 0.00188388)
(0.0976001 0.000451162 0.00167656)
(0.0972236 0.000424802 0.00145754)
(0.0968927 0.000397915 0.00125074)
(0.0966266 0.000373074 0.00105988)
(0.0964187 0.000349197 0.000884485)
(0.0962528 0.000318057 0.000734213)
(0.0960941 0.000279366 0.000608825)
(0.0959551 0.000242742 0.000504114)
(0.0958267 0.000217677 0.00041979)
(0.0956982 0.000211656 0.000356844)
(0.0955626 0.000236006 0.000317441)
(0.0954134 0.000295468 0.00030365)
(0.0952386 0.000409768 0.000314955)
(0.095021 0.000614472 0.000341882)
(0.0948469 0.00103151 0.000524955)
(0.0993805 -3.3838e-05 5.97168e-05)
(0.0992679 -0.000274023 0.00120097)
(0.0989824 -0.000431509 0.00188512)
(0.0984785 -0.000480762 0.00199327)
(0.0980068 -0.000472052 0.00188376)
(0.097601 -0.000449366 0.00167632)
(0.0972252 -0.000421754 0.00145718)
(0.0968953 -0.000392816 0.0012501)
(0.096631 -0.000364555 0.00105877)
(0.0964263 -0.000335047 0.000882606)
(0.0962653 -0.000294756 0.000731442)
(0.0961143 -0.000241178 0.000604551)
(0.0959879 -0.000180294 0.000496904)
(0.0958799 -0.000115766 0.000407351)
(0.0957847 -4.55846e-05 0.000335332)
(0.0956994 3.7343e-05 0.000282688)
(0.0956228 0.000144919 0.000246941)
(0.0955532 0.000291785 0.000224321)
(0.0954839 0.00049793 0.000205192)
(0.095438 0.000781674 0.000253055)
(0.0995408 -0.000245315 0.00032253)
(0.0992568 -0.00105623 0.00154311)
(0.0988488 -0.00150162 0.00210593)
(0.0981323 -0.00157456 0.00207229)
(0.0973628 -0.00149874 0.00185122)
(0.0966364 -0.00140772 0.00160429)
(0.0959582 -0.00133377 0.00138827)
(0.0953651 -0.00125057 0.00118888)
(0.0948587 -0.00114073 0.00101497)
(0.0943805 -0.00100746 0.000852279)
(0.0939671 -0.000857735 0.000703001)
(0.093619 -0.000704375 0.000572739)
(0.0933309 -0.000555951 0.00046482)
(0.0931007 -0.000419271 0.000377653)
(0.0929231 -0.000295362 0.000307026)
(0.0927976 -0.000168851 0.000247762)
(0.0927249 -2.92362e-05 0.000191319)
(0.0927015 0.000154576 0.000135333)
(0.0927301 0.000428833 5.90749e-05)
(0.0927556 0.000860235 -1.92802e-05)
(0.0994131 -0.000345617 0.000270888)
(0.0988645 -0.00202127 0.00187519)
(0.0979237 -0.00257131 0.00218237)
(0.0963819 -0.00237475 0.00189158)
(0.0946683 -0.00209778 0.00159558)
(0.0930488 -0.00188393 0.00135507)
(0.0915275 -0.001716 0.00115648)
(0.090158 -0.00156624 0.000983306)
(0.0889614 -0.00140273 0.00082617)
(0.0879377 -0.0012196 0.000680793)
(0.0870825 -0.00103056 0.000553037)
(0.0863816 -0.000848502 0.000446877)
(0.0858155 -0.000686826 0.000364969)
(0.085369 -0.000553334 0.000301762)
(0.0850306 -0.000441814 0.000244673)
(0.0848051 -0.00034468 0.000186116)
(0.0846957 -0.000246273 0.000114049)
(0.0847534 -0.000107765 -7.31891e-06)
(0.0850327 0.000194425 -0.000202101)
(0.0850008 0.000962415 -0.000674439)
(0.0999085 -0.00129736 0.00071259)
(0.0969646 -0.0036569 0.00274696)
(0.0935336 -0.0026409 0.00211571)
(0.0896004 -0.00181697 0.00160762)
(0.085871 -0.00151827 0.00136228)
(0.0826766 -0.0013282 0.00111965)
(0.0800356 -0.00114586 0.000841047)
(0.0778756 -0.000981204 0.000613484)
(0.0760788 -0.000847532 0.000457183)
(0.0745665 -0.000729085 0.000352919)
(0.0732956 -0.000619316 0.000281466)
(0.0722295 -0.000520259 0.000230985)
(0.0713623 -0.000437755 0.000193287)
(0.0706374 -0.000374848 0.00015836)
(0.0700492 -0.000327219 0.000114648)
(0.0696088 -0.000297801 6.08579e-05)
(0.0693252 -0.000303183 -1.93797e-05)
(0.0693126 -0.000318221 -0.000182247)
(0.069817 -0.000354664 -0.000403876)
(0.0685246 9.41401e-05 -0.00120043)
(0.0956457 0.0083605 -0.0083605)
(0.0904925 -0.0015226 0.00152253)
(0.0790667 -0.00242936 0.00242924)
(0.0713026 -0.00149059 0.00149031)
(0.0661929 -0.000832561 0.000832054)
(0.0623661 -0.000563946 0.000563094)
(0.0593029 -0.000430931 0.000429252)
(0.0568232 -0.000327667 0.000324787)
(0.054798 -0.000252736 0.000247986)
(0.0531201 -0.000197329 0.000189607)
(0.0517338 -0.000154742 0.000142198)
(0.0505875 -0.000122762 0.000102212)
(0.0496757 -0.000101007 6.69396e-05)
(0.0489252 -8.99786e-05 3.33808e-05)
(0.0483259 -9.00985e-05 9.78666e-06)
(0.0478623 -0.00010294 -3.68043e-05)
(0.0475205 -0.0001447 -0.000106529)
(0.0473577 -0.000210727 -0.000246645)
(0.0477864 -0.0002375 -0.000535347)
(0.046951 0.00120386 -0.00283936)
(0.0999085 0.00071259 0.00129736)
(0.0969646 0.00274695 0.00365687)
(0.0935336 0.0021157 0.00264087)
(0.0896004 0.00160761 0.00181695)
(0.085871 0.00136226 0.00151822)
(0.0826766 0.00111964 0.00132817)
(0.0800355 0.000841035 0.00114582)
(0.0778756 0.000613469 0.000981172)
(0.0760788 0.000457159 0.000847512)
(0.0745664 0.000352846 0.000729047)
(0.0732956 0.000281367 0.000619281)
(0.0722295 0.000230619 0.000519916)
(0.0713626 0.000192974 0.000436995)
(0.0706378 0.000158854 0.000374452)
(0.0700488 0.000115153 0.000327722)
(0.0696098 6.09637e-05 0.000298525)
(0.0693243 -1.93942e-05 0.000303987)
(0.0693122 -0.00018259 0.000318707)
(0.0698173 -0.000404373 0.000354702)
(0.0685255 -0.00120157 -9.4848e-05)
(0.100225 0.000721246 0.000721269)
(0.0999602 0.00198035 0.00198045)
(0.099787 0.00244339 0.00244365)
(0.0988 0.00240781 0.00240826)
(0.0972959 0.00218485 0.00218556)
(0.0958167 0.00179349 0.00179485)
(0.0944771 0.0013612 0.00136349)
(0.093313 0.00103747 0.00104133)
(0.0923214 0.000807568 0.00081406)
(0.0914884 0.000640901 0.000651712)
(0.0907995 0.00051446 0.000532395)
(0.0902408 0.000417921 0.000447726)
(0.0897868 0.00032892 0.000378524)
(0.0894375 0.00023726 0.00032008)
(0.0891712 0.000158629 0.000298403)
(0.0889683 7.16447e-05 0.000308256)
(0.0888096 -6.0783e-05 0.000335474)
(0.0886972 -0.000304076 0.000356923)
(0.0886087 -0.000791567 0.000273853)
(0.088561 -0.00188852 -0.000221007)
(0.10014 0.000775127 0.000869768)
(0.100456 0.00196086 0.00196213)
(0.100913 0.00242093 0.00232601)
(0.100981 0.00251172 0.00242021)
(0.100703 0.00239748 0.00229982)
(0.100242 0.00214929 0.00205253)
(0.0997377 0.00183963 0.00173142)
(0.0992336 0.00154828 0.00143471)
(0.098764 0.00129745 0.00119447)
(0.098353 0.00107965 0.000997033)
(0.0980058 0.000891502 0.000836164)
(0.0977185 0.000729314 0.000707731)
(0.0974806 0.0005858 0.000604635)
(0.0972888 0.000456972 0.000525088)
(0.0971317 0.000341967 0.000475065)
(0.0969933 0.000227997 0.000453393)
(0.0968644 0.000105593 0.000471244)
(0.0967092 -4.19253e-05 0.000536224)
(0.0965181 -0.000238486 0.000627573)
(0.0965407 -0.000368563 0.000819943)
(0.100094 0.000445915 0.000763519)
(0.100505 0.00119355 0.00174758)
(0.101106 0.00158341 0.0021215)
(0.101635 0.0017306 0.00221179)
(0.101979 0.00176105 0.00223906)
(0.102175 0.0016865 0.00215439)
(0.102257 0.00153375 0.0019874)
(0.102284 0.00135185 0.001771)
(0.102272 0.00116724 0.00153676)
(0.102235 0.000975247 0.00130112)
(0.102193 0.000801884 0.00109318)
(0.102149 0.00065546 0.000919898)
(0.102102 0.000531034 0.000776497)
(0.102054 0.00042692 0.000663432)
(0.102 0.00034373 0.00058309)
(0.101934 0.000280317 0.000538258)
(0.10185 0.000233496 0.000531884)
(0.101738 0.000201949 0.000565967)
(0.101596 0.000194757 0.000639548)
(0.101627 0.000256544 0.000807777)
(0.100087 0.000144433 0.00070712)
(0.100478 0.000390187 0.00161602)
(0.101067 0.000539626 0.00202666)
(0.101695 0.000606054 0.0020979)
(0.102268 0.000627582 0.00210998)
(0.102732 0.00061192 0.00210492)
(0.103096 0.000564586 0.0020089)
(0.10338 0.000502983 0.00184912)
(0.103604 0.000443885 0.00165456)
(0.103773 0.000386792 0.00145284)
(0.103902 0.000331598 0.00125096)
(0.103999 0.000279657 0.00104905)
(0.104072 0.000236558 0.000866274)
(0.104123 0.000207582 0.000721259)
(0.104155 0.000194736 0.000611825)
(0.104169 0.000201131 0.000536663)
(0.104165 0.000231537 0.000493646)
(0.104141 0.000291534 0.000475872)
(0.104112 0.00038706 0.000481326)
(0.104191 0.000518857 0.000542954)
(0.100087 -0.000144373 0.000707115)
(0.100478 -0.000390014 0.00161601)
(0.101067 -0.000539341 0.00202665)
(0.101695 -0.000605565 0.00209784)
(0.102268 -0.000626687 0.00210971)
(0.102732 -0.000610353 0.00210441)
(0.103098 -0.000561974 0.00200819)
(0.103383 -0.000498546 0.00184797)
(0.103608 -0.000436579 0.00165277)
(0.10378 -0.000375011 0.00145)
(0.103912 -0.000312533 0.00124684)
(0.104015 -0.000248768 0.0010423)
(0.104098 -0.00018656 0.000854317)
(0.104164 -0.000127081 0.000701079)
(0.104219 -6.58789e-05 0.000578543)
(0.104266 3.26437e-06 0.000482489)
(0.104308 8.79608e-05 0.00040774)
(0.104346 0.000197178 0.000345401)
(0.104391 0.000336973 0.000292306)
(0.104496 0.000496466 0.000268388)
(0.100094 -0.000445905 0.000763513)
(0.100505 -0.00119352 0.00174756)
(0.101106 -0.00158336 0.00212139)
(0.101635 -0.00173049 0.00221137)
(0.10198 -0.00176084 0.00223824)
(0.102176 -0.00168615 0.00215321)
(0.102259 -0.00153313 0.00198559)
(0.102289 -0.00135068 0.00176817)
(0.10228 -0.00116574 0.00153281)
(0.102249 -0.000973118 0.00129493)
(0.102216 -0.000797501 0.00108192)
(0.102187 -0.000647598 0.000900662)
(0.102163 -0.000517657 0.000744151)
(0.102151 -0.00040349 0.000608456)
(0.102155 -0.000302296 0.000490283)
(0.102177 -0.000206754 0.000384893)
(0.102225 -0.000103686 0.000281263)
(0.102296 2.24322e-05 0.000170011)
(0.102391 0.000187828 4.67167e-05)
(0.102512 0.000397941 -7.5079e-05)
(0.10014 -0.000775154 0.000869742)
(0.100456 -0.00196094 0.001962)
(0.100914 -0.00242109 0.00232568)
(0.100982 -0.00251206 0.00241961)
(0.100704 -0.00239807 0.00229891)
(0.100243 -0.00215033 0.00205127)
(0.0997399 -0.00184136 0.00172944)
(0.0992374 -0.0015511 0.00143126)
(0.0987706 -0.00130215 0.00118875)
(0.098364 -0.00108729 0.000987606)
(0.0980241 -0.000903904 0.000820307)
(0.0977492 -0.000749297 0.000680818)
(0.0975317 -0.000618116 0.000559335)
(0.0973736 -0.000508831 0.000448909)
(0.0972715 -0.000424032 0.000346202)
(0.0972228 -0.000355273 0.000235146)
(0.0972381 -0.000296868 0.000101762)
(0.097308 -0.000233386 -7.78988e-05)
(0.0974242 -0.000116988 -0.000338833)
(0.0974989 0.000122095 -0.000704055)
(0.100225 -0.000721274 0.000721248)
(0.0999602 -0.00198044 0.00198034)
(0.099787 -0.00244366 0.0024434)
(0.0988 -0.00240827 0.00240782)
(0.0972959 -0.00218557 0.00218486)
(0.0958167 -0.00179486 0.00179349)
(0.0944771 -0.00136349 0.0013612)
(0.0933131 -0.00104133 0.00103746)
(0.0923215 -0.000814071 0.000807579)
(0.0914884 -0.000651757 0.000640946)
(0.0907995 -0.000532336 0.000514392)
(0.0902411 -0.000447363 0.000417528)
(0.0897873 -0.000378179 0.000328507)
(0.0894383 -0.000320345 0.000237473)
(0.0891725 -0.000298666 0.000158943)
(0.0889699 -0.000308817 7.23749e-05)
(0.0888101 -0.0003358 -6.01918e-05)
(0.0886976 -0.000356594 -0.000304153)
(0.0886086 -0.000273866 -0.000791356)
(0.0885607 0.000220829 -0.00188828)
(0.0999085 -0.000712597 0.00129735)
(0.0969646 -0.00274702 0.00365678)
(0.0935335 -0.00211585 0.00264072)
(0.0896002 -0.0016079 0.00181663)
(0.0858706 -0.00136264 0.00151757)
(0.0826758 -0.00112038 0.00132707)
(0.0800342 -0.000842299 0.00114378)
(0.0778731 -0.000615542 0.000977554)
(0.0760745 -0.000460534 0.000841265)
(0.0745591 -0.000358342 0.000718535)
(0.0732829 -0.000290334 0.000601791)
(0.0722076 -0.000245435 0.000491243)
(0.0713244 -0.000217515 0.000389607)
(0.0705705 -0.000199902 0.00029493)
(0.0699281 -0.00018904 0.000195396)
(0.0693905 -0.00019034 8.49649e-05)
(0.0689148 -0.000211807 -5.80731e-05)
(0.0684601 -0.000252664 -0.000275535)
(0.0680556 -0.000236593 -0.00080578)
(0.0675354 -0.00108551 -0.0012632)
(0.0994131 0.000270886 0.000345609)
(0.0988645 0.00187518 0.00202126)
(0.0979237 0.00218236 0.0025713)
(0.0963818 0.00189157 0.00237474)
(0.0946683 0.00159557 0.00209777)
(0.0930488 0.00135507 0.00188392)
(0.0915275 0.00115648 0.001716)
(0.090158 0.000983309 0.00156626)
(0.0889613 0.000826181 0.00140276)
(0.0879376 0.00068081 0.00121963)
(0.0870825 0.000553067 0.00103058)
(0.0863814 0.000446681 0.000848247)
(0.0858156 0.000364664 0.000686073)
(0.0853688 0.000301498 0.000552727)
(0.0850294 0.000244712 0.000442327)
(0.0848034 0.000186816 0.000346233)
(0.0846939 0.000114756 0.000247655)
(0.084752 -7.72763e-06 0.000107535)
(0.085032 -0.000203207 -0.000195387)
(0.085001 -0.000675973 -0.000964033)
(0.10014 0.000869742 0.000775151)
(0.100456 0.00196199 0.00196093)
(0.100914 0.00232567 0.00242109)
(0.100982 0.0024196 0.00251206)
(0.100704 0.00229891 0.00239806)
(0.100243 0.00205127 0.00215033)
(0.0997398 0.00172945 0.00184138)
(0.0992374 0.00143126 0.00155113)
(0.0987706 0.00118875 0.00130218)
(0.0983639 0.000987583 0.00108732)
(0.098024 0.000820234 0.00090392)
(0.097749 0.000680796 0.000749397)
(0.0975314 0.000559295 0.000618173)
(0.0973731 0.000448913 0.000508837)
(0.097271 0.000346353 0.000424141)
(0.0972221 0.000235192 0.000355402)
(0.0972377 0.000101617 0.000297025)
(0.0973077 -7.82601e-05 0.000233377)
(0.0974238 -0.000339364 0.000116865)
(0.097498 -0.000704316 -0.000121831)
(0.10006 0.000641168 0.000641211)
(0.100503 0.00164229 0.00164244)
(0.10115 0.00220374 0.00220404)
(0.101738 0.00242033 0.00242083)
(0.102197 0.00240601 0.00240683)
(0.102481 0.00225503 0.00225639)
(0.102613 0.00199905 0.00200125)
(0.10266 0.00172692 0.00173052)
(0.102652 0.00147135 0.00147722)
(0.102622 0.00124169 0.00125124)
(0.102586 0.00103751 0.00105341)
(0.102553 0.000856552 0.000882729)
(0.102529 0.000694969 0.000737729)
(0.102515 0.000549842 0.000619245)
(0.102514 0.000418024 0.000529804)
(0.102526 0.000291175 0.000469117)
(0.102554 0.000158277 0.000436551)
(0.102592 4.32064e-06 0.000426372)
(0.102642 -0.00017732 0.000424452)
(0.102748 -0.000345058 0.000427372)
(0.100046 0.000395243 0.000539931)
(0.10048 0.00104246 0.00138118)
(0.101154 0.00146914 0.00191361)
(0.101909 0.00169206 0.00217138)
(0.102621 0.00175559 0.00225269)
(0.103276 0.00170219 0.00220497)
(0.10384 0.00156737 0.00206976)
(0.104292 0.00139211 0.00187453)
(0.10466 0.00120736 0.00165687)
(0.104954 0.00102788 0.00143897)
(0.105189 0.000862924 0.00123262)
(0.105377 0.000715218 0.0010453)
(0.105527 0.000584795 0.000881188)
(0.105646 0.00047003 0.000743567)
(0.105742 0.000369477 0.000635575)
(0.105817 0.000280385 0.000559469)
(0.105874 0.000199162 0.000516272)
(0.105916 0.000122302 0.000504385)
(0.105953 4.97213e-05 0.000519198)
(0.106051 5.44362e-06 0.00056699)
(0.100039 0.000131164 0.000478358)
(0.100449 0.000349599 0.00123177)
(0.101113 0.000502743 0.00173739)
(0.101905 0.000591926 0.00200597)
(0.102715 0.000628316 0.00211187)
(0.103501 0.000620514 0.00211612)
(0.10424 0.000579372 0.00203977)
(0.104894 0.000522918 0.00190403)
(0.105456 0.000458865 0.00172415)
(0.105933 0.000394708 0.0015263)
(0.106329 0.000335205 0.0013252)
(0.106653 0.000282623 0.00113128)
(0.106914 0.000237774 0.000953099)
(0.107123 0.000201031 0.00079776)
(0.107289 0.000173086 0.000669392)
(0.107422 0.000154757 0.000569859)
(0.107527 0.000147155 0.000498737)
(0.107608 0.000152079 0.000453187)
(0.107679 0.000169747 0.000431363)
(0.10779 0.000198845 0.000441649)
(0.100039 -0.00013112 0.000478342)
(0.100449 -0.000349492 0.00123172)
(0.101113 -0.00050257 0.00173729)
(0.101905 -0.000591646 0.00200579)
(0.102716 -0.000627847 0.00211153)
(0.103502 -0.000619742 0.00211557)
(0.104241 -0.0005781 0.00203894)
(0.104896 -0.000520861 0.00190268)
(0.105459 -0.000455618 0.00172198)
(0.105936 -0.000389598 0.00152277)
(0.106335 -0.000326846 0.00131956)
(0.106662 -0.0002692 0.00112216)
(0.106928 -0.000216452 0.000938393)
(0.107144 -0.000167398 0.000774306)
(0.107321 -0.000120418 0.000632577)
(0.10747 -7.31319e-05 0.000513305)
(0.107597 -2.24105e-05 0.000414358)
(0.107707 3.5531e-05 0.000332218)
(0.107813 0.000103473 0.000266408)
(0.107934 0.000174135 0.000226961)
(0.100046 -0.000395251 0.000539889)
(0.10048 -0.00104249 0.00138105)
(0.101154 -0.00146919 0.00191336)
(0.10191 -0.00169214 0.00217093)
(0.102621 -0.00175574 0.00225193)
(0.103277 -0.0017025 0.00220374)
(0.103841 -0.00156795 0.00206775)
(0.104295 -0.001393 0.00187136)
(0.104664 -0.00120882 0.00165178)
(0.104961 -0.00103037 0.00143056)
(0.105199 -0.000866391 0.00121872)
(0.105393 -0.00072092 0.0010225)
(0.105552 -0.000593805 0.000844176)
(0.105687 -0.000483984 0.000683986)
(0.105804 -0.000390392 0.000540679)
(0.105911 -0.000310506 0.000410813)
(0.106016 -0.000240583 0.000289299)
(0.106121 -0.00017491 0.000170662)
(0.106233 -0.000105293 5.47515e-05)
(0.106356 -2.8856e-05 -4.18165e-05)
(0.10006 -0.000641213 0.000641166)
(0.100503 -0.00164244 0.00164229)
(0.10115 -0.00220404 0.00220375)
(0.101738 -0.00242083 0.00242034)
(0.102197 -0.00240683 0.00240601)
(0.102481 -0.00225639 0.00225503)
(0.102613 -0.00200124 0.00199905)
(0.10266 -0.0017305 0.00172692)
(0.102653 -0.00147718 0.00147134)
(0.102622 -0.00125117 0.00124166)
(0.102586 -0.00105328 0.00103744)
(0.102553 -0.00088244 0.000856361)
(0.102529 -0.00073739 0.00069476)
(0.102515 -0.000619074 0.000549818)
(0.102514 -0.000529829 0.000418192)
(0.102526 -0.000469247 0.000291426)
(0.102554 -0.000436686 0.000158528)
(0.102592 -0.000426485 4.60788e-06)
(0.102643 -0.000424476 -0.000177014)
(0.102749 -0.000426984 -0.000344924)
(0.10014 -0.00086977 0.000775123)
(0.100456 -0.00196213 0.00196085)
(0.100913 -0.00232602 0.00242093)
(0.100981 -0.00242022 0.00251173)
(0.100703 -0.00229983 0.00239748)
(0.100242 -0.00205254 0.00214929)
(0.0997377 -0.00173142 0.00183962)
(0.0992337 -0.00143471 0.00154827)
(0.0987641 -0.00119447 0.00129745)
(0.0983531 -0.000997057 0.00107967)
(0.0980059 -0.000836219 0.000891533)
(0.0977187 -0.000707639 0.000729211)
(0.0974809 -0.00060432 0.000585588)
(0.0972892 -0.000524695 0.000456829)
(0.0971321 -0.000474778 0.000341946)
(0.0969938 -0.000453391 0.000228163)
(0.0968646 -0.000471519 0.000105868)
(0.0967096 -0.000536687 -4.14511e-05)
(0.0965185 -0.00062817 -0.000237749)
(0.0965417 -0.000820331 -0.000367834)
(0.0994131 -0.000270887 0.000345598)
(0.0988645 -0.00187523 0.00202119)
(0.0979235 -0.00218252 0.00257115)
(0.0963814 -0.00189186 0.00237451)
(0.0946673 -0.00159597 0.0020974)
(0.0930469 -0.00135566 0.00188328)
(0.091524 -0.00115744 0.001715)
(0.090152 -0.000984911 0.0015646)
(0.0889512 -0.000828802 0.00140003)
(0.0879205 -0.000685036 0.00121529)
(0.0870535 -0.000560389 0.00102402)
(0.0863325 -0.00045935 0.000838417)
(0.085732 -0.000386841 0.000671115)
(0.0852263 -0.000340837 0.000529713)
(0.0847864 -0.000313098 0.000407141)
(0.0843837 -0.000305663 0.000296973)
(0.0839563 -0.000336638 0.000192828)
(0.0834337 -0.00042954 0.000102917)
(0.0827231 -0.000536594 -1.20677e-05)
(0.0819745 -0.00169257 0.000552654)
(0.0995408 0.00032253 0.000245312)
(0.0992568 0.0015431 0.00105623)
(0.0988488 0.00210593 0.00150164)
(0.0981323 0.00207228 0.00157458)
(0.0973628 0.00185122 0.00149876)
(0.0966364 0.00160429 0.00140775)
(0.0959582 0.00138827 0.00133381)
(0.0953651 0.00118888 0.00125063)
(0.0948587 0.00101499 0.00114079)
(0.0943805 0.000852326 0.00100755)
(0.0939669 0.000703105 0.000857859)
(0.0936186 0.000572888 0.000704553)
(0.0933303 0.000465073 0.000556241)
(0.0930991 0.000378119 0.000419855)
(0.0929214 0.00030757 0.000296264)
(0.092796 0.000248025 0.000169483)
(0.0927236 0.000191219 2.9362e-05)
(0.0927005 0.000134857 -0.000154815)
(0.0927291 5.83264e-05 -0.000429318)
(0.0927546 -2.03542e-05 -0.000861078)
(0.100094 0.000763512 0.000445905)
(0.100505 0.00174755 0.00119353)
(0.101106 0.00212138 0.00158337)
(0.101635 0.00221136 0.00173049)
(0.10198 0.00223823 0.00176084)
(0.102176 0.0021532 0.00168616)
(0.102259 0.00198559 0.00153315)
(0.102289 0.00176817 0.00135072)
(0.10228 0.00153281 0.00116579)
(0.102249 0.00129494 0.000973192)
(0.102216 0.00108193 0.000797594)
(0.102187 0.000900581 0.000647685)
(0.102163 0.000743699 0.000517491)
(0.102151 0.000608197 0.000403375)
(0.102155 0.000490644 0.000302557)
(0.102178 0.000385311 0.000207061)
(0.102225 0.000281476 0.000103945)
(0.102296 0.000169862 -2.23093e-05)
(0.102391 4.61087e-05 -0.000187911)
(0.102512 -7.62379e-05 -0.00039826)
(0.100046 0.000539892 0.000395251)
(0.10048 0.00138105 0.00104249)
(0.101154 0.00191336 0.0014692)
(0.10191 0.00217092 0.00169214)
(0.102621 0.00225192 0.00175574)
(0.103277 0.00220373 0.00170251)
(0.103841 0.00206775 0.00156797)
(0.104295 0.00187136 0.00139302)
(0.104664 0.00165178 0.00120886)
(0.104961 0.00143056 0.00103043)
(0.105199 0.00121873 0.00086649)
(0.105393 0.00102251 0.000721058)
(0.105553 0.000844136 0.000593926)
(0.105687 0.000683925 0.000484038)
(0.105804 0.000540677 0.000390423)
(0.105912 0.000410842 0.000310546)
(0.106016 0.000289299 0.000240659)
(0.106121 0.000170568 0.000175039)
(0.106233 5.45124e-05 0.000105491)
(0.106356 -4.22088e-05 2.91708e-05)
(0.100036 0.000322558 0.000322585)
(0.100429 0.000865794 0.00086588)
(0.101078 0.001255 0.00125516)
(0.101884 0.00148894 0.00148922)
(0.102738 0.00159385 0.00159431)
(0.103577 0.00159722 0.00159796)
(0.104378 0.00153201 0.00153319)
(0.1051 0.00141609 0.00141795)
(0.105737 0.00127097 0.00127393)
(0.106285 0.00111388 0.0011187)
(0.10675 0.000956978 0.000964478)
(0.107141 0.000807678 0.000819618)
(0.107465 0.000669771 0.000688591)
(0.107734 0.000544799 0.000574087)
(0.107955 0.00043283 0.000477655)
(0.108138 0.000332645 0.00039974)
(0.108292 0.000242055 0.000339496)
(0.108421 0.000158707 0.000294591)
(0.10854 8.40481e-05 0.000262983)
(0.108674 3.36505e-05 0.000242434)
(0.100031 0.000106843 0.000280839)
(0.100394 0.000291933 0.000765871)
(0.101021 0.000431324 0.00112586)
(0.101835 0.000520524 0.00135391)
(0.10273 0.00056588 0.00147342)
(0.103645 0.000574281 0.00150809)
(0.10454 0.000555691 0.00147887)
(0.105385 0.000518102 0.00140165)
(0.106154 0.000468649 0.00128908)
(0.106837 0.000413757 0.00115556)
(0.107429 0.00035813 0.00101327)
(0.107934 0.000304748 0.000871536)
(0.108357 0.000255216 0.000737702)
(0.108707 0.000210258 0.000617278)
(0.108995 0.000170102 0.000513777)
(0.10923 0.000135281 0.000429241)
(0.109422 0.000106776 0.00036207)
(0.109578 8.48625e-05 0.000307845)
(0.109717 7.01693e-05 0.00026536)
(0.109863 6.85142e-05 0.000237634)
(0.100031 -0.000106834 0.000280824)
(0.100394 -0.000291918 0.000765827)
(0.101021 -0.000431318 0.00112578)
(0.101835 -0.000520523 0.00135375)
(0.10273 -0.000565884 0.00147315)
(0.103646 -0.000574295 0.00150768)
(0.104541 -0.000555708 0.00147827)
(0.105386 -0.000518097 0.0014007)
(0.106155 -0.000468629 0.00128759)
(0.106838 -0.000413729 0.00115321)
(0.10743 -0.000358056 0.00100958)
(0.107936 -0.000304605 0.000865721)
(0.10836 -0.000254953 0.000728614)
(0.108712 -0.000209725 0.000603272)
(0.109002 -0.000168902 0.000492578)
(0.109241 -0.000132536 0.000397887)
(0.109437 -0.000100751 0.000317055)
(0.1096 -7.22575e-05 0.000245661)
(0.109744 -4.50989e-05 0.000184181)
(0.10989 -2.17569e-05 0.000142365)
(0.100036 -0.000322584 0.000322554)
(0.100429 -0.000865877 0.000865791)
(0.101078 -0.00125516 0.001255)
(0.101884 -0.00148922 0.00148894)
(0.102738 -0.00159431 0.00159385)
(0.103577 -0.00159795 0.00159723)
(0.104378 -0.00153317 0.00153202)
(0.1051 -0.00141792 0.00141609)
(0.105737 -0.00127389 0.00127097)
(0.106285 -0.00111863 0.00111387)
(0.10675 -0.000964377 0.000956973)
(0.107141 -0.000819482 0.000807677)
(0.107465 -0.00068846 0.000669807)
(0.107733 -0.000574015 0.000544872)
(0.107955 -0.000477633 0.000432885)
(0.108138 -0.000399724 0.000332664)
(0.108291 -0.00033946 0.000242052)
(0.108421 -0.000294517 0.000158702)
(0.10854 -0.000262845 8.40556e-05)
(0.108674 -0.00024222 3.36563e-05)
(0.100046 -0.000539932 0.000395239)
(0.10048 -0.00138118 0.00104246)
(0.101154 -0.00191361 0.00146915)
(0.101909 -0.00217138 0.00169206)
(0.102621 -0.00225269 0.0017556)
(0.103276 -0.00220496 0.0017022)
(0.10384 -0.00206974 0.00156737)
(0.104292 -0.0018745 0.00139211)
(0.10466 -0.00165683 0.00120736)
(0.104954 -0.0014389 0.00102786)
(0.105189 -0.00123251 0.00086289)
(0.105377 -0.00104512 0.000715139)
(0.105527 -0.000880972 0.000584711)
(0.105646 -0.000743398 0.000470023)
(0.105742 -0.00063548 0.000369544)
(0.105817 -0.000559442 0.000280487)
(0.105874 -0.000516276 0.000199237)
(0.105916 -0.000504388 0.00012231)
(0.105953 -0.000519148 4.96214e-05)
(0.106052 -0.000566777 5.17574e-06)
(0.100094 -0.000763521 0.000445911)
(0.100505 -0.00174759 0.00119354)
(0.101106 -0.00212151 0.00158341)
(0.101635 -0.0022118 0.0017306)
(0.101979 -0.00223907 0.00176106)
(0.102175 -0.00215439 0.0016865)
(0.102257 -0.0019874 0.00153375)
(0.102284 -0.00177099 0.00135185)
(0.102272 -0.00153675 0.00116724)
(0.102235 -0.00130112 0.000975252)
(0.102193 -0.00109317 0.000801875)
(0.102149 -0.000919852 0.000655399)
(0.102103 -0.000776369 0.000530943)
(0.102054 -0.00066321 0.000426855)
(0.102 -0.00058283 0.000343711)
(0.101934 -0.000538083 0.000280401)
(0.10185 -0.000531927 0.000233674)
(0.101738 -0.000566207 0.000202211)
(0.101597 -0.000639937 0.000195061)
(0.101628 -0.000807956 0.000256632)
(0.0995408 -0.000322528 0.000245324)
(0.0992567 -0.0015431 0.00105629)
(0.0988486 -0.00210601 0.00150176)
(0.0981318 -0.00207242 0.0015748)
(0.0973617 -0.00185143 0.00149922)
(0.0966344 -0.00160464 0.00140863)
(0.0959546 -0.00138878 0.00133539)
(0.0953589 -0.00118997 0.00125309)
(0.0948481 -0.00101684 0.00114467)
(0.0943629 -0.000855082 0.00101399)
(0.0939378 -0.000707814 0.000869018)
(0.09357 -0.000581471 0.000722778)
(0.0932497 -0.000480181 0.000585998)
(0.0929656 -0.0004042 0.000469908)
(0.0927015 -0.000353386 0.000381313)
(0.0924354 -0.000330396 0.000328002)
(0.0921344 -0.000346071 0.000317134)
(0.0917478 -0.000413066 0.000347991)
(0.091235 -0.000505051 0.000474008)
(0.0907837 -0.00100467 0.00108276)
(0.0993804 5.97068e-05 3.38406e-05)
(0.0992679 0.00120099 0.000274038)
(0.0989824 0.00188511 0.000431544)
(0.0984785 0.00199326 0.000480797)
(0.0980068 0.00188375 0.000472091)
(0.097601 0.00167631 0.000449413)
(0.0972251 0.00145717 0.000421811)
(0.0968953 0.00125009 0.000392885)
(0.096631 0.00105877 0.000364637)
(0.0964263 0.000882623 0.000335154)
(0.0962653 0.000731497 0.00029491)
(0.0961143 0.000604645 0.00024141)
(0.0959879 0.000497068 0.0001807)
(0.09588 0.000407578 0.000116335)
(0.0957849 0.000335511 4.61476e-05)
(0.0956997 0.000282766 -3.69421e-05)
(0.0956231 0.00024689 -0.000144757)
(0.0955534 0.000224165 -0.00029185)
(0.0954841 0.000204966 -0.000498046)
(0.095438 0.000252733 -0.000781654)
(0.100087 0.000707116 0.000144377)
(0.100478 0.001616 0.000390026)
(0.101067 0.00202664 0.00053935)
(0.101695 0.00209782 0.000605572)
(0.102268 0.00210969 0.000626696)
(0.102732 0.00210439 0.000610367)
(0.103098 0.00200817 0.000561994)
(0.103383 0.00184796 0.000498575)
(0.103608 0.00165275 0.000436619)
(0.10378 0.00144999 0.000375062)
(0.103912 0.00124684 0.000312597)
(0.104015 0.00104234 0.000248842)