/*--------------------------------*- C++ -*----------------------------------*\
| =========                 |                                                 |
| \\      /  F ield         | OpenFOAM: The Open Source CFD Toolbox           |
|  \\    /   O peration     | Version:  2212                                  |
|   \\  /    A nd           | Website:  www.openfoam.com                      |
|    \\/     M anipulation  |                                                 |
\*---------------------------------------------------------------------------*/
FoamFile
{
    version     2.0;
    format      ascii;
    arch        "LSB;label=32;scalar=64";
    class       surfaceVectorField;
    location    "0.25";
    object      Uf;
}
// * * * * * * * * * * * * * * * * * * * * * * * * * * * * * * * * * * * * * //

dimensions      [0 1 -1 0 0 0 0];

internalField   nonuniform List<vector> 
19019
(
(0.0993448 -0.00341898 -0.00341895)
(0.0973535 0.0010624 -0.0014845)
(0.0973535 -0.00148451 0.00106239)
(0.0834777 0.00197588 0.00197598)
(0.0930855 0.00326952 0.00253365)
(0.0930855 0.00253359 0.00326958)
(0.0745172 0.00195976 0.00195998)
(0.0848627 0.00163593 0.00179136)
(0.0848627 0.00179121 0.00163608)
(0.0685534 0.00116119 0.00116156)
(0.0786333 0.00107366 0.00121814)
(0.0786334 0.00121787 0.00107396)
(0.0642623 0.000697588 0.000698236)
(0.0740765 0.000784022 0.000856604)
(0.0740767 0.000856193 0.000784609)
(0.060822 0.000496196 0.000497421)
(0.0705029 0.000645999 0.000656615)
(0.0705032 0.000655884 0.00064702)
(0.0580472 0.000377053 0.000379282)
(0.0676086 0.000541402 0.000494105)
(0.0676092 0.000492742 0.000543401)
(0.055807 0.000286421 0.000290184)
(0.0652566 0.000455352 0.000366548)
(0.0652576 0.00036426 0.000458894)
(0.0539595 0.000218841 0.000225023)
(0.0633222 0.000388101 0.000279012)
(0.0633239 0.000275291 0.00039417)
(0.0524269 0.00016595 0.000176016)
(0.0617093 0.000327692 0.000218708)
(0.0617123 0.000212724 0.000337844)
(0.0511632 0.00012234 0.000138791)
(0.0603672 0.000269854 0.000176026)
(0.0603723 0.000166351 0.000286637)
(0.0501322 8.47424e-05 0.000111918)
(0.0592488 0.00021399 0.000146074)
(0.0592576 0.000130363 0.000241793)
(0.0492985 5.00515e-05 9.52745e-05)
(0.05835 0.000160066 0.0001265)
(0.0583651 0.000100507 0.000206478)
(0.0486317 2.13668e-05 8.98112e-05)
(0.0575986 0.0001061 0.000115467)
(0.0576254 7.18272e-05 0.000183785)
(0.0480975 -1.35127e-05 9.65742e-05)
(0.0569849 5.32597e-05 0.000111944)
(0.0570335 4.5701e-05 0.000174583)
(0.0476906 -7.16077e-05 0.000124016)
(0.0564901 -1.61062e-05 0.000121563)
(0.0565776 4.99452e-06 0.0001858)
(0.0474153 -0.000176669 0.000177902)
(0.0560929 -0.000125717 0.000149071)
(0.0562572 -5.5647e-05 0.000236005)
(0.0473919 -0.000391155 0.000224165)
(0.0558129 -0.000329942 0.000185754)
(0.0561543 -0.000172979 0.00033652)
(0.0481019 -0.0016876 -0.000483283)
(0.0559081 -0.000799203 0.000146516)
(0.0566136 -0.00035837 0.00049791)
(0.0551997 -0.00280233 -0.000633471)
(0.0555956 -0.00194574 -0.000352377)
(0.0984561 0.00247707 0.00172981)
(0.099687 0.000439484 0.000345758)
(0.100049 0.00105684 0.000751356)
(0.0958329 0.00314877 0.00243143)
(0.097814 0.00273492 0.00228258)
(0.0982924 0.00280884 0.0021608)
(0.0914542 0.0022287 0.00186187)
(0.0954963 0.00300233 0.00229947)
(0.0963055 0.00243927 0.0019932)
(0.0876187 0.00166713 0.00148527)
(0.092632 0.00229663 0.00182516)
(0.0936781 0.0019739 0.00171636)
(0.0842096 0.00142235 0.00124152)
(0.0898036 0.00188045 0.00150755)
(0.090935 0.00170805 0.00147985)
(0.0813162 0.00123546 0.000981346)
(0.0873127 0.00162605 0.00124527)
(0.0885007 0.00143625 0.00118997)
(0.0789391 0.0010607 0.000728927)
(0.0851713 0.00143517 0.000997292)
(0.0864362 0.0011588 0.000882054)
(0.0769693 0.000909446 0.000538039)
(0.083363 0.00127178 0.000793119)
(0.0847171 0.000939652 0.00065272)
(0.0753146 0.000779926 0.000409407)
(0.0818316 0.00112354 0.000637883)
(0.0832762 0.000776121 0.000499177)
(0.0739197 0.000660191 0.000324265)
(0.0805329 0.000974071 0.000517465)
(0.0820632 0.000645292 0.000397058)
(0.0727476 0.000546432 0.000267657)
(0.0794398 0.000822788 0.00042364)
(0.0810474 0.00053363 0.000328306)
(0.0717664 0.000440081 0.000231121)
(0.0785229 0.000674638 0.000351894)
(0.0802012 0.000436592 0.000283108)
(0.0709449 0.000341985 0.000208865)
(0.0777664 0.000539741 0.000302592)
(0.0795084 0.000346909 0.000252188)
(0.0702513 0.000245294 0.00019519)
(0.0771234 0.000422641 0.000272318)
(0.0789339 0.000260125 0.000231928)
(0.0696625 0.000140625 0.000190151)
(0.0765707 0.000310577 0.00025311)
(0.0784577 0.000175949 0.000230094)
(0.0691532 1.38273e-05 0.000201068)
(0.0760938 0.000195076 0.000247992)
(0.0780691 8.18699e-05 0.000248583)
(0.0686894 -0.000166849 0.000231973)
(0.0756389 6.48186e-05 0.000271625)
(0.077733 -4.74231e-05 0.000294106)
(0.0682286 -0.000541244 0.000244337)
(0.0751545 -0.000103147 0.000332681)
(0.0774305 -0.0002614 0.000362041)
(0.0678817 -0.00103523 0.000660819)
(0.0746139 -0.000452866 0.000369788)
(0.0771665 -0.000759146 0.000348927)
(0.0739929 -0.000371128 0.00138844)
(0.0768564 -0.00147695 0.000656156)
(0.0993745 0.00118341 0.00107305)
(0.0994732 0.000350042 0.000307689)
(0.0997476 0.00061129 0.000780663)
(0.0984947 0.00229619 0.00202887)
(0.099049 0.00157781 0.00172154)
(0.0995967 0.00201887 0.00200274)
(0.0971489 0.00247286 0.00203718)
(0.0983586 0.00212948 0.00216139)
(0.0992993 0.00245767 0.00209581)
(0.0954631 0.00223598 0.00174391)
(0.0972047 0.00203088 0.00198466)
(0.0984981 0.00236518 0.00188548)
(0.0938055 0.00199036 0.00147581)
(0.0959346 0.00183854 0.00172157)
(0.0974447 0.0021592 0.00165722)
(0.0922553 0.00179917 0.00125655)
(0.0947343 0.0016898 0.00147998)
(0.0963577 0.00193969 0.00144912)
(0.0908297 0.00163984 0.00107118)
(0.093608 0.00157161 0.00127477)
(0.0953035 0.00172045 0.00124285)
(0.0895479 0.00148236 0.000906864)
(0.0926011 0.00144687 0.00108834)
(0.0943308 0.00151605 0.00105054)
(0.0884314 0.0013077 0.000756926)
(0.0917248 0.00129211 0.000920206)
(0.0934665 0.00132027 0.000884931)
(0.0874851 0.00111968 0.000622721)
(0.0909507 0.00111665 0.000764057)
(0.0927209 0.00112761 0.000741557)
(0.086693 0.000931116 0.000509763)
(0.0902916 0.000939963 0.000627028)
(0.0920932 0.000944043 0.000621856)
(0.0860322 0.000754332 0.000422801)
(0.0897367 0.000771784 0.000513717)
(0.0915717 0.000774271 0.000525945)
(0.0854797 0.000599782 0.000363664)
(0.089268 0.000619006 0.000427695)
(0.0911382 0.000622105 0.000454487)
(0.0850094 0.000468247 0.000327264)
(0.0888664 0.000489586 0.000367884)
(0.0907769 0.000490172 0.000405887)
(0.0845881 0.00035293 0.000310105)
(0.0885086 0.000384202 0.00032987)
(0.0904666 0.000374095 0.000376934)
(0.0841752 0.000246 0.00032166)
(0.0881699 0.000303933 0.000315901)
(0.0901852 0.000265209 0.000371262)
(0.0837134 0.000147966 0.000382869)
(0.0878022 0.00024709 0.00034011)
(0.0898953 0.000155509 0.000407043)
(0.0831069 4.44235e-05 0.000482214)
(0.087344 0.000221882 0.000422341)
(0.089542 4.36822e-05 0.000504807)
(0.0821649 0.000268625 0.00111377)
(0.0867268 0.000249975 0.000529286)
(0.0890708 -0.000101838 0.000630211)
(0.0861188 0.000915258 0.00139629)
(0.0886779 0.000154167 0.00138166)
(0.0996488 0.000650819 0.000932814)
(0.0994628 0.000129776 0.000193236)
(0.0997995 0.000375305 0.000741986)
(0.0990848 0.00127904 0.00182455)
(0.0992621 0.00063753 0.00137226)
(0.099841 0.00115037 0.00181489)
(0.0984524 0.0015383 0.00208921)
(0.0989136 0.000972579 0.00199755)
(0.0999049 0.00153479 0.00208264)
(0.0977224 0.00153702 0.00196192)
(0.0983003 0.00104543 0.00203423)
(0.0997712 0.00162503 0.00200374)
(0.0969752 0.00145394 0.00172803)
(0.0976753 0.000995226 0.00186664)
(0.0995228 0.00159212 0.00185786)
(0.0962772 0.00137202 0.00149671)
(0.0971041 0.000930896 0.00163822)
(0.0992272 0.00150886 0.00168594)
(0.0956489 0.00129425 0.00128937)
(0.0965719 0.000875218 0.00142022)
(0.0989039 0.00140204 0.00151438)
(0.095094 0.00119888 0.00110341)
(0.0961049 0.000821296 0.00121769)
(0.0985997 0.00127771 0.00133438)
(0.0945961 0.00107932 0.000935964)
(0.0957131 0.000764459 0.00103721)
(0.0983223 0.00113797 0.00115825)
(0.0941485 0.000941484 0.000781442)
(0.0953629 0.000697232 0.000870152)
(0.098047 0.000982756 0.000986546)
(0.0937543 0.000795839 0.00064461)
(0.0950638 0.000609807 0.00072167)
(0.0978013 0.000828054 0.000831888)
(0.0934107 0.000654293 0.000530776)
(0.0947977 0.000513408 0.000595487)
(0.0975849 0.000684414 0.000699631)
(0.0931089 0.000527988 0.000442257)
(0.0945655 0.000423993 0.000492381)
(0.0973926 0.000555433 0.000590554)
(0.0928357 0.000425917 0.000379113)
(0.094357 0.000352688 0.0004125)
(0.0972184 0.000446596 0.00050624)
(0.0925719 0.000355023 0.000342353)
(0.0941588 0.000306494 0.000356173)
(0.0970526 0.000361767 0.000448176)
(0.0922897 0.000322666 0.000338527)
(0.0939562 0.000294912 0.00032567)
(0.0968804 0.000304587 0.000420543)
(0.0919507 0.00033228 0.000379464)
(0.0937292 0.000326015 0.000327761)
(0.0966811 0.000277795 0.00043221)
(0.0915101 0.000410275 0.000458592)
(0.0934457 0.000412717 0.00036923)
(0.0964229 0.000280682 0.000492067)
(0.0909076 0.000777308 0.000754248)
(0.0930765 0.000604001 0.000432599)
(0.096084 0.000345641 0.000584429)
(0.09276 0.00116128 0.000783101)
(0.0958582 0.000700541 0.000942131)
(0.0996725 0.000154037 0.000630388)
(0.0993805 1.74294e-08 5.97343e-05)
(0.0997134 0.000103996 0.000688341)
(0.0991597 0.000353041 0.00154308)
(0.0992679 8.95337e-08 0.001201)
(0.0998381 0.000341424 0.0016222)
(0.0986662 0.000456631 0.00193922)
(0.0989823 2.01785e-07 0.00188513)
(0.0999647 0.000484585 0.00198645)
(0.0982199 0.000477232 0.00193859)
(0.0984784 3.36572e-07 0.00199329)
(0.0999942 0.000536735 0.00198163)
(0.0977947 0.000462123 0.00178022)
(0.0980066 5.57144e-07 0.00188382)
(0.100015 0.000539589 0.00187731)
(0.0973976 0.000437982 0.00156705)
(0.0976005 9.46169e-07 0.00167644)
(0.100018 0.000519272 0.00174116)
(0.0970484 0.000411359 0.00135414)
(0.0972244 1.60007e-06 0.00145736)
(0.0999911 0.000483169 0.00158263)
(0.0967546 0.000385495 0.00115531)
(0.096894 2.67715e-06 0.00125042)
(0.0999499 0.000440887 0.0014153)
(0.0965182 0.000361136 0.00097218)
(0.0966288 4.46301e-06 0.00105932)
(0.0999146 0.000401049 0.00124328)
(0.0963296 0.000333627 0.000809349)
(0.0964225 7.40657e-06 0.000883546)
(0.0998846 0.000362735 0.00107729)
(0.0961691 0.000298711 0.000671519)
(0.096259 1.22207e-05 0.000732828)
(0.0998574 0.000321458 0.000924232)
(0.0960256 0.000261054 0.00055647)
(0.0961042 1.99827e-05 0.000606688)
(0.0998191 0.000277511 0.000780515)
(0.0958931 0.000230209 0.000461952)
(0.0959715 3.25281e-05 0.000500509)
(0.0997799 0.000238512 0.00065116)
(0.0957642 0.000214666 0.000388317)
(0.0958533 5.29146e-05 0.000413571)
(0.0997361 0.000212045 0.00054615)
(0.0956322 0.000223831 0.000337143)
(0.0957415 8.57043e-05 0.000346088)
(0.0996833 0.000203102 0.000466592)
(0.0954891 0.000265737 0.000310545)
(0.095631 0.000140027 0.000300064)
(0.0996182 0.000219213 0.000414305)
(0.0953266 0.000352618 0.000309302)
(0.0955181 0.000223691 0.000275295)
(0.0995373 0.000265216 0.000390942)
(0.0951368 0.00051212 0.000328419)
(0.0953959 0.000351559 0.000269638)
(0.0994338 0.000354193 0.000393329)
(0.0949314 0.000822989 0.000433419)
(0.0952524 0.000547264 0.000273537)
(0.0993048 0.000507491 0.00041092)
(0.0951424 0.000879156 0.000389005)
(0.0992503 0.000790009 0.000534933)
(0.0996725 -0.00015393 0.000630344)
(0.0994628 -0.000129736 0.000193218)
(0.0997134 -0.000103949 0.000688342)
(0.0991597 -0.000352766 0.00154305)
(0.0992622 -0.000637388 0.00137223)
(0.0998381 -0.000341251 0.00162218)
(0.0986663 -0.000456136 0.00193919)
(0.0989138 -0.000972312 0.0019975)
(0.0999648 -0.000484254 0.00198646)
(0.0982203 -0.000476407 0.00193851)
(0.0983007 -0.001045 0.00203414)
(0.0999944 -0.000536179 0.0019816)
(0.0977953 -0.000460709 0.00178004)
(0.097676 -0.00099447 0.00186648)
(0.100015 -0.000538623 0.00187716)
(0.0973988 -0.00043556 0.00156675)
(0.0971056 -0.000929522 0.00163793)
(0.100019 -0.000517586 0.00174083)
(0.0970505 -0.000407285 0.00135364)
(0.0965745 -0.000872815 0.00141977)
(0.0999926 -0.000480331 0.00158218)
(0.0967581 -0.000378686 0.00115443)
(0.0961094 -0.000817343 0.0012168)
(0.0999523 -0.000436107 0.00141455)
(0.0965241 -0.000349801 0.000970688)
(0.0957208 -0.000757945 0.00103566)
(0.0999187 -0.000393112 0.00124205)
(0.0963395 -0.000314902 0.000807024)
(0.0953756 -0.000686381 0.000867726)
(0.0998915 -0.000349718 0.00107526)
(0.0961851 -0.000267967 0.000667997)
(0.0950849 -0.000591646 0.000717736)
(0.0998688 -0.00030018 0.00092129)
(0.0960516 -0.000210736 0.000550728)
(0.0948327 -0.000483639 0.000588744)
(0.0998375 -0.000242803 0.000775792)
(0.0959355 -0.00014803 0.000452127)
(0.0946233 -0.000375162 0.000480651)
(0.0998096 -0.000181993 0.000642814)
(0.0958329 -8.06754e-05 0.000371341)
(0.0944525 -0.000272032 0.000392144)
(0.0997837 -0.000120316 0.000531737)
(0.0957424 -4.12076e-06 0.00030901)
(0.094315 -0.000173122 0.000320707)
(0.0997591 -5.47078e-05 0.000442039)
(0.0956612 9.1131e-05 0.000264814)
(0.0942091 -6.70175e-05 0.000264571)
(0.0997362 2.14551e-05 0.000373766)
(0.0955873 0.000218352 0.000235631)
(0.0941344 5.52824e-05 0.000218396)
(0.0997156 0.000117979 0.000324496)
(0.09552 0.000394858 0.000214756)
(0.0940886 0.000212962 0.000179588)
(0.0996968 0.00024681 0.000288411)
(0.0954629 0.000639802 0.000229124)
(0.0940696 0.000432283 0.000133651)
(0.0996811 0.000421577 0.000255288)
(0.0940603 0.000738896 0.000122844)
(0.0997063 0.000646779 0.000269134)
(0.0996488 -0.000650772 0.000932817)
(0.0994732 -0.000350046 0.000307692)
(0.0997995 -0.000375293 0.000741991)
(0.0990849 -0.00127893 0.00182452)
(0.099049 -0.00157782 0.00172153)
(0.099841 -0.00115032 0.0018149)
(0.0984527 -0.00153809 0.00208911)
(0.0983588 -0.00212948 0.00216128)
(0.0999052 -0.00153469 0.00208257)
(0.0977232 -0.00153665 0.00196175)
(0.0972052 -0.00203088 0.00198446)
(0.0997717 -0.00162485 0.00200351)
(0.0969767 -0.00145323 0.00172775)
(0.0959357 -0.00183849 0.00172127)
(0.0995238 -0.00159177 0.00185743)
(0.09628 -0.00137075 0.00149628)
(0.0947363 -0.00168966 0.0014795)
(0.0992291 -0.00150822 0.00168526)
(0.0956537 -0.00129217 0.00128857)
(0.0936115 -0.00157131 0.00127402)
(0.0989071 -0.0014009 0.00151334)
(0.0951023 -0.00119565 0.00110192)
(0.0926072 -0.0014465 0.00108697)
(0.0986053 -0.00127586 0.0013327)
(0.09461 -0.00107409 0.000933624)
(0.0917352 -0.00129165 0.00091792)
(0.0983319 -0.00113523 0.00115581)
(0.0941716 -0.000932598 0.00077764)
(0.0909681 -0.00111586 0.000760493)
(0.098063 -0.000978389 0.000982714)
(0.0937927 -0.000781055 0.00063787)
(0.0903207 -0.000938151 0.000620877)
(0.0978277 -0.000820149 0.000824875)
(0.0934748 -0.000630163 0.00051878)
(0.0897858 -0.000768564 0.000503132)
(0.0976286 -0.000671206 0.000687265)
(0.0932153 -0.000487611 0.000421237)
(0.0893504 -0.000613144 0.000408994)
(0.0974644 -0.000533558 0.000569154)
(0.0930111 -0.000357316 0.00034234)
(0.0890056 -0.000477004 0.00033424)
(0.0973362 -0.000409087 0.000469149)
(0.0928593 -0.000232107 0.000277394)
(0.0887429 -0.000357557 0.000270273)
(0.0972434 -0.00029712 0.00038401)
(0.0927595 -9.90437e-05 0.00021954)
(0.0885645 -0.000242647 0.000210424)
(0.0971873 -0.000186307 0.00031027)
(0.0927119 6.26698e-05 0.000163326)
(0.0884722 -0.000115401 0.000143413)
(0.0971707 -6.50995e-05 0.00023944)
(0.0927133 0.000291705 9.72042e-05)
(0.0884918 5.58676e-05 5.00212e-05)
(0.0971915 9.03941e-05 0.000165368)
(0.0927324 0.000644534 1.98973e-05)
(0.0886532 0.000364663 -9.38002e-05)
(0.0972515 0.000313288 6.95581e-05)
(0.0886483 0.000955828 -0.000376338)
(0.0973215 0.000638885 -1.58901e-05)
(0.0993746 -0.00118344 0.00107304)
(0.099687 -0.000439492 0.000345752)
(0.0997476 -0.000611308 0.000780655)
(0.0984948 -0.00229629 0.00202878)
(0.097814 -0.00273501 0.00228254)
(0.0995968 -0.00201894 0.00200267)
(0.0971492 -0.00247303 0.00203697)
(0.0954964 -0.00300249 0.00229934)
(0.0992995 -0.00245782 0.00209559)
(0.0954638 -0.00223627 0.00174358)
(0.0926324 -0.00229693 0.0018249)
(0.0984985 -0.00236545 0.00188507)
(0.0938069 -0.00199086 0.00147532)
(0.0898043 -0.00188101 0.00150718)
(0.0974455 -0.00215966 0.00165661)
(0.0922579 -0.00179997 0.00125578)
(0.087314 -0.00162703 0.00124463)
(0.0963593 -0.0019405 0.00144821)
(0.0908343 -0.00164112 0.0010699)
(0.0851736 -0.00143686 0.000996217)
(0.0953063 -0.00172177 0.00124144)
(0.0895558 -0.00148449 0.000904738)
(0.0833671 -0.00127467 0.000791324)
(0.0943358 -0.00151823 0.00104815)
(0.0884448 -0.00131116 0.000753481)
(0.0818386 -0.00112841 0.000634948)
(0.093475 -0.00132391 0.000881)
(0.0875076 -0.00112508 0.000616915)
(0.0805448 -0.00098217 0.000512742)
(0.0927352 -0.00113348 0.000735108)
(0.0867312 -0.00093953 0.000499957)
(0.0794597 -0.000835977 0.000415731)
(0.0921172 -0.000953346 0.000610848)
(0.0860969 -0.000767664 0.000405923)
(0.0785569 -0.000696355 0.000339002)
(0.0916123 -0.000789131 0.000507291)
(0.0855896 -0.00062008 0.000333365)
(0.0778243 -0.000575544 0.000280398)
(0.0912066 -0.000645923 0.00042244)
(0.0851976 -0.000497574 0.000273217)
(0.0772239 -0.000480449 0.000232581)
(0.0908928 -0.000527231 0.000350108)
(0.0849122 -0.000393247 0.000215394)
(0.0767474 -0.000403701 0.000182672)
(0.0906631 -0.000430339 0.000280055)
(0.08474 -0.000295476 0.000150083)
(0.0764031 -0.000341645 0.000125825)
(0.090519 -0.00034781 0.000202674)
(0.0847111 -0.000177019 5.33651e-05)
(0.0761973 -0.000297122 4.78689e-05)
(0.0904669 -0.000268996 0.000106475)
(0.0848581 4.333e-05 -0.00010471)
(0.0762162 -0.000215771 -0.000107309)
(0.0905303 -0.00016586 -3.87917e-05)
(0.0852433 0.00057842 -0.00043827)
(0.07662 1.33919e-05 -0.000361669)
(0.0907346 4.96658e-05 -0.000259975)
(0.0758911 0.000894304 -0.00112662)
(0.0907517 0.000576222 -0.000689693)
(0.0984561 -0.00247713 0.00172978)
(0.0973535 -0.0010624 -0.0014845)
(0.100049 -0.00105685 0.00075134)
(0.0958329 -0.0031489 0.00243134)
(0.0930855 -0.00326961 0.0025336)
(0.0982924 -0.00280893 0.0021607)
(0.0914543 -0.00222894 0.00186167)
(0.0848627 -0.0016361 0.00179124)
(0.0963055 -0.00243947 0.00199299)
(0.0876191 -0.00166762 0.00148495)
(0.0786334 -0.00107399 0.00121788)
(0.0936783 -0.00197427 0.00171597)
(0.0842102 -0.00142323 0.00124096)
(0.0740767 -0.000784659 0.000856207)
(0.0909353 -0.00170871 0.00147927)
(0.0813173 -0.00123703 0.000980348)
(0.0705033 -0.000647075 0.000655897)
(0.0885012 -0.00143742 0.00118884)
(0.078941 -0.00106353 0.000727265)
(0.0676092 -0.00054346 0.000492749)
(0.086437 -0.00116087 0.00088014)
(0.0769727 -0.000914368 0.000535333)
(0.0652576 -0.000458952 0.000364265)
(0.0847185 -0.000943235 0.000649523)
(0.0753204 -0.000788309 0.000405051)
(0.063324 -0.000394207 0.000275292)
(0.0832786 -0.00078223 0.000493869)
(0.0739294 -0.000674201 0.000317192)
(0.0617124 -0.000337859 0.000212719)
(0.0820675 -0.000655547 0.000388305)
(0.0727643 -0.000569788 0.000256225)
(0.0603723 -0.000286614 0.000166332)
(0.0810545 -0.000550562 0.000313731)
(0.0717952 -0.000479007 0.000212136)
(0.0592581 -0.000241951 0.000130423)
(0.0802134 -0.000464605 0.000258808)
(0.0709951 -0.000406302 0.000175824)
(0.0583642 -0.000207015 0.00010069)
(0.0795294 -0.000393579 0.000211459)
(0.0703414 -0.000351033 0.000136504)
(0.057624 -0.000184601 7.2068e-05)
(0.0789712 -0.000337684 0.000162859)
(0.0698235 -0.00031251 8.77531e-05)
(0.0570291 -0.000174665 4.57095e-05)
(0.0785259 -0.000304356 0.000110293)
(0.0694473 -0.000300492 2.07391e-05)
(0.0565748 -0.00018531 4.83273e-06)
(0.0781909 -0.000292269 4.14823e-05)
(0.0692551 -0.000310702 -0.000100813)
(0.0562563 -0.000235417 -5.57273e-05)
(0.0779622 -0.000305496 -6.60191e-05)
(0.0694469 -0.000336442 -0.000293062)
(0.0561537 -0.000336023 -0.000172857)
(0.0779053 -0.000310518 -0.000294371)
(0.0704806 -0.000130262 -0.000802151)
(0.0566127 -0.000497769 -0.00035818)
(0.0781467 -0.000240908 -0.000758836)
(0.0555942 0.000352157 -0.00194516)
(0.0774059 0.00052056 -0.00237565)
(0.0993448 0.00341895 -0.00341898)
(0.0973535 0.0014845 0.00106239)
(0.0834777 -0.00197598 0.00197589)
(0.0930854 -0.00253364 0.00326949)
(0.0745172 -0.00195998 0.00195977)
(0.0848627 -0.00179134 0.00163591)
(0.0685534 -0.00116158 0.00116118)
(0.0786333 -0.00121813 0.00107364)
(0.0642623 -0.000698253 0.000697574)
(0.0740765 -0.000856596 0.000783975)
(0.060822 -0.000497438 0.000496173)
(0.070503 -0.000656607 0.000645951)
(0.0580472 -0.000379299 0.000377019)
(0.0676087 -0.000494098 0.000541347)
(0.0558071 -0.000290201 0.000286386)
(0.0652567 -0.000366541 0.000455292)
(0.0539596 -0.000225032 0.000218796)
(0.0633222 -0.000279011 0.000388043)
(0.052427 -0.000176036 0.000165902)
(0.0617094 -0.000218713 0.000327619)
(0.0511637 -0.000138752 0.000122205)
(0.0603672 -0.000176034 0.000269727)
(0.0501322 -0.000111884 8.45757e-05)
(0.0592494 -0.000146187 0.000213996)
(0.0492966 -9.54928e-05 5.01602e-05)
(0.058349 -0.000126766 0.000160368)
(0.0486268 -9.00386e-05 2.15837e-05)
(0.0575971 -0.000115671 0.000106728)
(0.0480921 -9.65195e-05 -1.35088e-05)
(0.0569806 -0.000111813 5.34332e-05)
(0.0476874 -0.00012382 -7.16669e-05)
(0.0564873 -0.000121232 -1.66758e-05)
(0.0474136 -0.000177714 -0.000176587)
(0.0560919 -0.000148953 -0.0001259)
(0.0473907 -0.000224114 -0.000390996)
(0.0558122 -0.000185718 -0.000329865)
(0.0481004 0.000483179 -0.00168735)
(0.055907 -0.000146521 -0.000798968)
(0.0551979 0.000633424 -0.00280212)
(0.0984561 0.00172977 0.00247711)
(0.100049 0.00075134 0.00105685)
(0.099687 0.000345748 0.000439482)
(0.0958329 0.00243132 0.00314887)
(0.0982924 0.00216071 0.00280893)
(0.097814 0.00228252 0.00273499)
(0.0914543 0.00186166 0.00222891)
(0.0963055 0.001993 0.00243945)
(0.0954964 0.00229933 0.00300247)
(0.087619 0.00148493 0.00166759)
(0.0936783 0.00171598 0.00197426)
(0.0926324 0.00182488 0.00229691)
(0.0842101 0.00124095 0.0014232)
(0.0909353 0.00147928 0.00170869)
(0.0898043 0.00150717 0.00188098)
(0.0813172 0.000980336 0.001237)
(0.0885011 0.00118886 0.00143741)
(0.087314 0.00124462 0.001627)
(0.078941 0.000727252 0.0010635)
(0.086437 0.000880164 0.00116086)
(0.0851736 0.000996205 0.00143683)
(0.0769727 0.000535314 0.000914342)
(0.0847185 0.000649545 0.000943229)
(0.083367 0.000791315 0.00127465)
(0.0753203 0.000405003 0.00078828)
(0.0832786 0.000493874 0.000782224)
(0.0818386 0.00063494 0.00112842)
(0.0739294 0.000317107 0.000674164)
(0.0820674 0.000388268 0.000655516)
(0.0805447 0.000512713 0.000982175)
(0.0727643 0.000255993 0.000569598)
(0.0810545 0.000313731 0.000550579)
(0.0794597 0.000415685 0.000835957)
(0.0717953 0.000211797 0.000478455)
(0.0802133 0.000258908 0.00046463)
(0.0785568 0.000338739 0.000696119)
(0.0709955 0.000175914 0.000405724)
(0.0795294 0.000211545 0.000393341)
(0.0778246 0.00028011 0.000574839)
(0.0703417 0.000137004 0.000351087)
(0.0789711 0.000162809 0.000337248)
(0.077224 0.000232701 0.000479869)
(0.0698237 8.80586e-05 0.000313123)
(0.0785251 0.000110036 0.00030435)
(0.0767467 0.000182866 0.000403948)
(0.0694473 2.07847e-05 0.000301256)
(0.0781908 4.10882e-05 0.000292369)
(0.0764029 0.000126159 0.000342645)
(0.0692545 -0.000100992 0.000311347)
(0.0779615 -6.62412e-05 0.000305819)
(0.076196 4.82021e-05 0.000298248)
(0.0694466 -0.000293481 0.000336704)
(0.0779049 -0.000294425 0.000310978)
(0.0762154 -0.000107718 0.000215843)
(0.0704817 -0.000802971 0.000129927)
(0.0781469 -0.000759024 0.000241001)
(0.0766198 -0.000362601 -1.42165e-05)
(0.0774065 -0.00237612 -0.000520918)
(0.0758917 -0.00112809 -0.000895797)
(0.10008 0.0013508 0.00135086)
(0.100186 0.000799114 0.000805455)
(0.100186 0.000805431 0.000799139)
(0.100266 0.00221187 0.00221205)
(0.10019 0.00231027 0.0020697)
(0.10019 0.00206959 0.00231037)
(0.0993905 0.0024256 0.00242596)
(0.10031 0.00262657 0.00244487)
(0.10031 0.00244458 0.00262679)
(0.0979998 0.00229633 0.00229691)
(0.0998128 0.00254699 0.00244003)
(0.0998129 0.00243951 0.0025474)
(0.0965264 0.00198917 0.00199021)
(0.0988778 0.00234017 0.00225493)
(0.0988781 0.00225413 0.00234084)
(0.0951351 0.00157735 0.00157917)
(0.0978712 0.00201152 0.00192973)
(0.0978718 0.00192843 0.00201278)
(0.0938916 0.00119934 0.00120241)
(0.0969194 0.00163576 0.00154943)
(0.0969204 0.00154732 0.00163791)
(0.0928146 0.000922518 0.000927695)
(0.0960618 0.00132088 0.00123731)
(0.0960635 0.0012337 0.00132448)
(0.091902 0.000724235 0.000732886)
(0.0953125 0.00107442 0.00100204)
(0.0953156 0.000996013 0.00108046)
(0.0911425 0.000577681 0.000592054)
(0.0946754 0.000878135 0.000821706)
(0.0946805 0.00081171 0.000888122)
(0.0905197 0.000466191 0.00049006)
(0.0941452 0.00071749 0.000681495)
(0.0941536 0.0006648 0.000733932)
(0.090013 0.00037342 0.000413125)
(0.0937125 0.000585545 0.000575087)
(0.0937266 0.000547133 0.000612635)
(0.0896111 0.00028309 0.000349302)
(0.0933588 0.000467097 0.000488956)
(0.0933824 0.000442219 0.000511779)
(0.0893043 0.000197944 0.000309241)
(0.0930827 0.000354172 0.000419558)
(0.0931218 0.000341348 0.000427908)
(0.0890676 0.000115137 0.000303329)
(0.092867 0.000253708 0.000383295)
(0.0929317 0.000251211 0.000375598)
(0.0888849 5.43084e-06 0.000321865)
(0.0926941 0.000149706 0.000377217)
(0.0928003 0.00015334 0.000350134)
(0.0887572 -0.00018243 0.000346198)
(0.0925492 1.6377e-05 0.000398484)
(0.0927225 2.12784e-05 0.00034073)
(0.0886632 -0.000547822 0.000315388)
(0.092417 -0.000189883 0.000438)
(0.0926948 -0.000191579 0.000326116)
(0.0884846 -0.00134004 2.64229e-05)
(0.0922808 -0.000530585 0.000439287)
(0.0927013 -0.000570361 0.000240017)
(0.0922657 -0.00110005 0.000286153)
(0.0927102 -0.00130588 -6.10562e-05)
(0.100172 0.00136799 0.00141595)
(0.100118 0.000577369 0.000811703)
(0.100102 0.000699735 0.000700948)
(0.100761 0.00219089 0.00214407)
(0.100479 0.00158138 0.00185726)
(0.100478 0.00182048 0.00186283)
(0.100999 0.00246633 0.00237311)
(0.101005 0.00205357 0.00223416)
(0.101025 0.00233925 0.00237444)
(0.100843 0.0024546 0.00236001)
(0.101294 0.00219148 0.0023301)
(0.101339 0.00248877 0.00252276)
(0.10047 0.00227339 0.00217618)
(0.101314 0.0021438 0.00227988)
(0.10141 0.00241813 0.00243425)
(0.0999905 0.00199446 0.00189198)
(0.101167 0.00196818 0.00210851)
(0.101301 0.00221119 0.00220892)
(0.0994821 0.00169395 0.00158306)
(0.100943 0.00172176 0.00185901)
(0.101098 0.00192366 0.00190259)
(0.098995 0.00142287 0.00131459)
(0.100693 0.00147457 0.00159925)
(0.100854 0.00164 0.00161112)
(0.0985557 0.00118855 0.00109575)
(0.100442 0.00124776 0.00136051)
(0.100603 0.0013858 0.00135901)
(0.0981783 0.000985577 0.000916598)
(0.10021 0.00103621 0.0011437)
(0.100372 0.00116126 0.00114238)
(0.0978611 0.000810408 0.000771947)
(0.100009 0.000851152 0.000959589)
(0.100172 0.000964424 0.000958437)
(0.0975991 0.000657557 0.000656183)
(0.0998384 0.000693738 0.000809202)
(0.100005 0.000792423 0.000805294)
(0.0973854 0.000521386 0.000564862)
(0.099692 0.00055679 0.00068636)
(0.099868 0.000639633 0.000678693)
(0.0972099 0.000399469 0.000500077)
(0.0995686 0.000437456 0.000590358)
(0.0997605 0.000502631 0.000578384)
(0.0970622 0.000284982 0.000464229)
(0.0994608 0.000336878 0.000525685)
(0.0996773 0.000379745 0.000510076)
(0.0969294 0.000166795 0.000462319)
(0.0993572 0.000247037 0.000492921)
(0.0996099 0.000260304 0.000473081)
(0.0967937 3.18338e-05 0.000503734)
(0.0992498 0.000161097 0.000499235)
(0.0995552 0.000133954 0.000472215)
(0.0966276 -0.000140206 0.000581899)
(0.0991151 7.05224e-05 0.000549694)
(0.0994912 -1.52535e-05 0.000508487)
(0.0963462 -0.000303525 0.000723758)
(0.0989478 -2.86069e-05 0.000633768)
(0.0994142 -0.000202018 0.000569551)
(0.0989742 -4.25725e-05 0.000818954)
(0.0994763 -0.00034222 0.000711096)
(0.100242 0.000819731 0.00125555)
(0.10009 0.000294433 0.000735566)
(0.100071 0.000415468 0.000602888)
(0.100829 0.00138848 0.00193454)
(0.100492 0.000791557 0.00168241)
(0.100493 0.00112286 0.00158509)
(0.101393 0.001657 0.00216665)
(0.101087 0.00107519 0.00207531)
(0.101129 0.00153618 0.00208535)
(0.101816 0.00174583 0.00222543)
(0.101664 0.00119676 0.00215747)
(0.101766 0.00172137 0.00227153)
(0.102081 0.00172378 0.00219673)
(0.102121 0.0012234 0.00217735)
(0.102286 0.00176715 0.00232061)
(0.102219 0.00161013 0.0020709)
(0.102447 0.00117077 0.00213108)
(0.1027 0.00170113 0.00224002)
(0.102271 0.0014428 0.0018792)
(0.102668 0.00106304 0.00199828)
(0.103012 0.00155507 0.0020721)
(0.102274 0.00125954 0.00165388)
(0.102821 0.000936874 0.00180933)
(0.103243 0.00137489 0.00185332)
(0.102251 0.00107124 0.00141894)
(0.102924 0.00081462 0.0015946)
(0.103412 0.0011894 0.00162001)
(0.102214 0.000888566 0.00119715)
(0.102989 0.000690248 0.00137571)
(0.103533 0.00100278 0.00138767)
(0.102171 0.000728672 0.00100654)
(0.10303 0.000575198 0.00117077)
(0.103624 0.000832867 0.0011756)
(0.102125 0.000593247 0.000848197)
(0.103055 0.000475161 0.000983481)
(0.10369 0.00068538 0.000991735)
(0.102078 0.000478977 0.000719964)
(0.103067 0.000390757 0.00082081)
(0.103737 0.00055778 0.000835769)
(0.102027 0.000385325 0.000623261)
(0.103067 0.000323654 0.000692115)
(0.103769 0.000448395 0.000709378)
(0.101967 0.000312024 0.000560674)
(0.103055 0.000275297 0.000597556)
(0.103786 0.000356898 0.000615687)
(0.101893 0.000256907 0.000535071)
(0.103029 0.000246831 0.000537934)
(0.103788 0.000281368 0.000557158)
(0.101798 0.000217723 0.000548925)
(0.102984 0.000239932 0.000513794)
(0.103771 0.000218453 0.000536059)
(0.101672 0.000198353 0.000602757)
(0.102915 0.000258203 0.000522908)
(0.103732 0.000165811 0.000552839)
(0.101495 0.000225651 0.000723663)
(0.102828 0.000309149 0.000563797)
(0.103676 0.000128141 0.000604753)
(0.102883 0.000417247 0.000680852)
(0.103739 0.00014142 0.000733842)
(0.100243 0.00026731 0.00116157)
(0.100087 3.23108e-08 0.000707118)
(0.100064 0.000135771 0.000537266)
(0.100783 0.000464906 0.00182134)
(0.100478 9.2004e-08 0.00161601)
(0.100464 0.000370351 0.00142193)
(0.101402 0.00057284 0.00206228)
(0.101067 1.50122e-07 0.00202665)
(0.101089 0.000523367 0.0019252)
(0.101987 0.000616818 0.00210394)
(0.101695 2.64634e-07 0.00209787)
(0.101796 0.000601364 0.00210833)
(0.1025 0.000619751 0.00210745)
(0.102268 4.81771e-07 0.00210985)
(0.102482 0.000630218 0.00217063)
(0.102916 0.000588253 0.00205691)
(0.102732 8.32264e-07 0.00210467)
(0.1031 0.000618219 0.00216727)
(0.103241 0.000533784 0.00192901)