/*--------------------------------*- C++ -*----------------------------------*\
| =========                 |                                                 |
| \\      /  F ield         | OpenFOAM: The Open Source CFD Toolbox           |
|  \\    /   O peration     | Version:  2212                                  |
|   \\  /    A nd           | Website:  www.openfoam.com                      |
|    \\/     M anipulation  |                                                 |
\*---------------------------------------------------------------------------*/
FoamFile
{
    version     2.0;
    format      ascii;
    arch        "LSB;label=32;scalar=64";
    class       volScalarField;
    location    "0.6";
    object      nut;
}
// * * * * * * * * * * * * * * * * * * * * * * * * * * * * * * * * * * * * * //

dimensions      [0 2 -1 0 0 0 0];

internalField   nonuniform List<scalar> 
682
(
1.78026e-05
1.76241e-05
1.74732e-05
1.73476e-05
1.72433e-05
1.71569e-05
1.70851e-05
1.70257e-05
1.69769e-05
1.69367e-05
1.6902e-05
1.70192e-05
1.68557e-05
1.67193e-05
1.66057e-05
1.65112e-05
1.64329e-05
1.63675e-05
1.63141e-05
1.62699e-05
1.62345e-05
1.62029e-05
1.49562e-05
1.4827e-05
1.47201e-05
1.46317e-05
1.45564e-05
1.44954e-05
1.44437e-05
1.44025e-05
1.43686e-05
1.43417e-05
1.43171e-05
1.19625e-05
1.18611e-05
1.17751e-05
1.17035e-05
1.16436e-05
1.15935e-05
1.1552e-05
1.15177e-05
1.14898e-05
1.14675e-05
1.14498e-05
1.14338e-05
8.19513e-06
8.14245e-06
8.09788e-06
8.06053e-06
8.02942e-06
8.00337e-06
7.9813e-06
7.96323e-06
7.94862e-06
7.93696e-06
7.92776e-06
7.92018e-06
4.12059e-06
4.10123e-06
4.08505e-06
4.07161e-06
4.06062e-06
4.05166e-06
4.04433e-06
4.03839e-06
4.03354e-06
4.02962e-06
4.02655e-06
4.02446e-06
7.20623e-05
7.09349e-05
7.00907e-05
6.94174e-05
6.88657e-05
6.83975e-05
6.79583e-05
6.75542e-05
6.72057e-05
6.68888e-05
6.59576e-05
6.9814e-05
6.87769e-05
6.79993e-05
6.73641e-05
6.68387e-05
6.63361e-05
6.59597e-05
6.55012e-05
6.53279e-05
6.49378e-05
6.40595e-05
5.97326e-05
5.8843e-05
5.8271e-05
5.75939e-05
5.73476e-05
5.66852e-05
5.64933e-05
5.60404e-05
5.59339e-05
5.56569e-05
5.50428e-05
4.35991e-05
4.24579e-05
4.18154e-05
4.11636e-05
4.07034e-05
4.02982e-05
3.99491e-05
3.96626e-05
3.94351e-05
3.92598e-05
3.91194e-05
3.88256e-05
2.02383e-05
1.9792e-05
1.94379e-05
1.91561e-05
1.89206e-05
1.8729e-05
1.85746e-05
1.84514e-05
1.8355e-05
1.82813e-05
1.82276e-05
1.81336e-05
8.33287e-06
8.28149e-06
8.23571e-06
8.19677e-06
8.16432e-06
8.13724e-06
8.11447e-06
8.0959e-06
8.08092e-06
8.06897e-06
8.0595e-06
8.05168e-06
0.00012681
0.000125075
0.000123888
0.000123025
0.000122398
0.000121993
0.000120803
0.000119699
0.000118848
0.000117846
0.000115651
0.000122859
0.000121311
0.00012027
0.000119432
0.000119013
0.000118027
0.000116917
0.000116118
0.000115472
0.000114641
0.00011255
0.000107198
0.000105967
0.000105453
0.000104116
0.00010299
0.000102035
0.000101627
0.000101043
0.000100923
0.000100427
9.85744e-05
8.06863e-05
7.89993e-05
7.78112e-05
7.71971e-05
7.64433e-05
7.57415e-05
7.51294e-05
7.4628e-05
7.42275e-05
7.39338e-05
7.35716e-05
7.24359e-05
4.09659e-05
4.03776e-05
3.95387e-05
3.9161e-05
3.86399e-05
3.83333e-05
3.80039e-05
3.77687e-05
3.75655e-05
3.74065e-05
3.7291e-05
3.71278e-05
1.22735e-05
1.21664e-05
1.20769e-05
1.20014e-05
1.1939e-05
1.18871e-05
1.18445e-05
1.18097e-05
1.17814e-05
1.17586e-05
1.17403e-05
1.17246e-05
0.000161525
0.000159828
0.000158649
0.000157756
0.000157041
0.00015641
0.000155801
0.000155249
0.00015474
0.00015393
0.000151745
0.000156679
0.000155146
0.000154097
0.000153283
0.000152623
0.000152025
0.000151483
0.000151019
0.000150612
0.00014979
0.00014773
0.00013832
0.000137079
0.000136222
0.000135422
0.000134679
0.000134042
0.000133505
0.000133066
0.000132769
0.000131885
0.000130191
0.000107365
0.000105694
0.00010454
0.00010412
0.000102785
0.000101769
0.000100951
0.000100246
9.97106e-05
9.93012e-05
9.89145e-05
9.71187e-05
5.74344e-05
5.64337e-05
5.55947e-05
5.51435e-05
5.43698e-05
5.42002e-05
5.35994e-05
5.34303e-05
5.30033e-05
5.2895e-05
5.26191e-05
5.20576e-05
1.54208e-05
1.52583e-05
1.51227e-05
1.5009e-05
1.49159e-05
1.48375e-05
1.47742e-05
1.47211e-05
1.46785e-05
1.46434e-05
1.46152e-05
1.45904e-05
0.000174826
0.000173193
0.000172105
0.000171318
0.000170724
0.000170265
0.000169887
0.00016956
0.000169224
0.000168428
0.000166006
0.00015555
0.000154266
0.000153371
0.000152692
0.000152185
0.00015173
0.000151266
0.000150849
0.000150455
0.000149657
0.000147669
0.000122639
0.000120871
0.000119631
0.000118725
0.000117985
0.000117676
0.000117035
0.000115971
0.000115171
0.000114499
0.000113585
0.000111487
6.84692e-05
6.72862e-05
6.63569e-05
6.56173e-05
6.50073e-05
6.45078e-05
6.40642e-05
6.37156e-05
6.3324e-05
6.31274e-05
6.27743e-05
6.19627e-05
1.73991e-05
1.72009e-05
1.70336e-05
1.68943e-05
1.67778e-05
1.66813e-05
1.66016e-05
1.65358e-05
1.6482e-05
1.64376e-05
1.64015e-05
1.63698e-05
0.000180491
0.000178982
0.000177992
0.000177294
0.000176782
0.000176399
0.000176098
0.000175841
0.000175551
0.000174747
0.000172284
0.00016117
0.000159974
0.000159144
0.000158537
0.000158086
0.00015774
0.000157374
0.000156985
0.000156577
0.000155645
0.00015336
0.000128329
0.000126585
0.000125304
0.000124344
0.000123619
0.000123117
0.000122944
0.000122054
0.000121041
0.000120245
0.000119225
0.000116948
7.34863e-05
7.22587e-05
7.12868e-05
7.04987e-05
6.98526e-05
6.93245e-05
6.8882e-05
6.84754e-05
6.81102e-05
6.77889e-05
6.74562e-05
6.65553e-05
1.80067e-05
1.77982e-05
1.76219e-05
1.74725e-05
1.73481e-05
1.72451e-05
1.71601e-05
1.70899e-05
1.7032e-05
1.69844e-05
1.69454e-05
1.6911e-05
0.000174279
0.00017281
0.000171852
0.000171169
0.000170658
0.000170263
0.000169929
0.000169635
0.000169324
0.000168527
0.000166168
0.000155768
0.000154608
0.000153811
0.000153191
0.000152702
0.000152256
0.000151808
0.000151394
0.000151012
0.000150165
0.000148076
0.00012421
0.000122438
0.000121194
0.000120316
0.000119573
0.000119211
0.000118441
0.000117352
0.000116577
0.000115951
0.000115094
0.000112981
7.11283e-05
6.9932e-05
6.89859e-05
6.82217e-05
6.75777e-05
6.70483e-05
6.65458e-05
6.61845e-05
6.57539e-05
6.55684e-05
6.51983e-05
6.43344e-05
1.72081e-05
1.70155e-05
1.68537e-05
1.67183e-05
1.66056e-05
1.65119e-05
1.64346e-05
1.63702e-05
1.63177e-05
1.62743e-05
1.62395e-05
1.62081e-05
0.000155631
0.000153989
0.000152909
0.000152115
0.000151508
0.000150943
0.000150389
0.00014991
0.000149484
0.000148685
0.000146643
0.000138275
0.000136959
0.000136102
0.000135307
0.000134559
0.000133889
0.000133325
0.000132858
0.000132526
0.000131832
0.000130123
0.000109061
0.000107314
0.000106108
0.000105604
0.000104318
0.000103205
0.000102269
0.000101697
0.000101116
0.00010101
0.000100531
9.86355e-05
6.10879e-05
5.99701e-05
5.9155e-05
5.85202e-05
5.77561e-05
5.75012e-05
5.6843e-05
5.66382e-05
5.62107e-05
5.60236e-05
5.58283e-05
5.51984e-05
1.51076e-05
1.49551e-05
1.48274e-05
1.47208e-05
1.46332e-05
1.45582e-05
1.44976e-05
1.44464e-05
1.44051e-05
1.43716e-05
1.43447e-05
1.432e-05
0.000120864
0.000119303
0.000118268
0.000117447
0.00011708
0.000116151
0.00011497
0.00011409
0.000113376
0.000112475
0.000110428
0.000105644
0.000104419
0.000103944
0.000102564
0.000101519
0.000100632
9.99707e-05
9.93451e-05
9.91784e-05
9.86472e-05
9.68253e-05
8.07375e-05
7.90389e-05
7.78594e-05
7.72147e-05
7.64445e-05
7.57478e-05
7.51364e-05
7.4644e-05
7.4252e-05
7.39858e-05
7.36107e-05
7.24777e-05
4.35983e-05
4.24952e-05
4.18602e-05
4.12392e-05
4.07562e-05
4.03454e-05
3.99902e-05
3.97014e-05
3.9472e-05
3.92986e-05
3.91521e-05
3.89241e-05
1.19625e-05
1.18615e-05
1.17761e-05
1.17046e-05
1.16448e-05
1.15947e-05
1.15531e-05
1.15188e-05
1.14909e-05
1.14685e-05
1.14506e-05
1.14346e-05
6.71151e-05
6.60927e-05
6.53291e-05
6.47106e-05
6.42021e-05
6.37402e-05
6.33661e-05
6.29663e-05
6.27477e-05
6.23968e-05
6.15832e-05
5.63656e-05
5.5485e-05
5.50232e-05
5.42748e-05
5.41085e-05
5.35089e-05
5.33369e-05
5.29161e-05
5.27912e-05
5.25607e-05
5.19221e-05
4.12447e-05
4.02232e-05
3.97146e-05
3.91111e-05
3.86715e-05
3.83351e-05
3.80076e-05
3.77641e-05
3.75609e-05
3.74064e-05
3.72815e-05
3.7094e-05
2.02566e-05
1.9813e-05
1.94626e-05
1.91701e-05
1.89295e-05
1.87342e-05
1.85759e-05
1.84507e-05
1.83524e-05
1.8279e-05
1.82222e-05
1.81189e-05
8.19553e-06
8.14313e-06
8.09863e-06
8.06122e-06
8.02998e-06
8.00374e-06
7.98149e-06
7.96325e-06
7.94852e-06
7.93674e-06
7.92736e-06
7.91926e-06
1.72054e-05
1.70364e-05
1.68958e-05
1.67783e-05
1.66807e-05
1.65999e-05
1.65327e-05
1.64777e-05
1.64323e-05
1.63957e-05
1.63638e-05
1.52613e-05
1.51247e-05
1.50105e-05
1.49165e-05
1.48373e-05
1.47731e-05
1.47192e-05
1.46757e-05
1.46402e-05
1.46116e-05
1.45865e-05
1.22741e-05
1.21681e-05
1.2078e-05
1.20026e-05
1.19397e-05
1.18873e-05
1.18442e-05
1.18088e-05
1.17801e-05
1.1757e-05
1.17385e-05
1.17226e-05
8.33333e-06
8.28228e-06
8.23646e-06
8.19746e-06
8.16479e-06
8.13742e-06
8.11436e-06
8.09551e-06
8.08032e-06
8.06821e-06
8.05856e-06
8.05025e-06
4.12081e-06
4.10145e-06
4.08523e-06
4.07177e-06
4.06074e-06
4.05172e-06
4.04433e-06
4.03833e-06
4.03343e-06
4.02943e-06
4.02635e-06
4.02413e-06
)
;

boundaryField
{
    inlet
    {
        type            calculated;
        value           nonuniform List<scalar> 0();
    }
    ami1
    {
        type            cyclicAMI;
        value           nonuniform List<scalar> 0();
    }
    walls
    {
        type            nutkWallFunction;
        blending        stepwise;
        value           uniform 0;
    }
    ami2
    {
        type            cyclicAMI;
        value           nonuniform List<scalar> 0();
    }
    outlet
    {
        type            calculated;
        value           nonuniform List<scalar> 0();
    }
    procBoundary9to0
    {
        type            processor;
        value           nonuniform List<scalar> 
40
(
1.80126e-05
1.72134e-05
1.51104e-05
1.51104e-05
1.20816e-05
8.2563e-06
4.14413e-06
7.40942e-05
7.16736e-05
6.12571e-05
6.12571e-05
4.44422e-05
2.06762e-05
8.39788e-06
0.0001297
0.000125458
0.000109466
0.000109466
8.30309e-05
4.20347e-05
1.23966e-05
0.000164939
0.000159452
0.00014081
0.00014081
0.000109715
5.89059e-05
1.56136e-05
0.000178001
0.00015824
0.00015824
0.000125313
7.0423e-05
1.76313e-05
0.000183759
0.000163973
0.000163973
0.00013128
7.56587e-05
1.82507e-05
)
;
    }
    procBoundary9to1
    {
        type            processor;
        value           nonuniform List<scalar> 
30
(
0.000177586
0.000158568
0.000158568
0.00012713
7.32294e-05
1.74357e-05
0.000158783
0.000140871
0.000140871
0.000111568
6.274e-05
1.529e-05
0.000123685
0.000107814
0.000107814
8.30358e-05
4.44545e-05
1.20817e-05
6.89921e-05
5.77009e-05
5.77009e-05
4.20052e-05
2.06817e-05
8.25673e-06
1.74052e-05
1.54246e-05
1.54246e-05
1.23982e-05
8.39846e-06
4.14433e-06
)
;
    }
    procBoundary9to7
    {
        type            processor;
        value           nonuniform List<scalar> 
59
(
1.68715e-05
1.61747e-05
1.42943e-05
1.14187e-05
7.9134e-06
4.0229e-06
6.49315e-05
6.30873e-05
5.42211e-05
3.83451e-05
1.80316e-05
8.04471e-06
0.000113545
0.000110385
9.66263e-05
7.11771e-05
3.67174e-05
1.17104e-05
0.00014883
0.000144479
0.000127199
9.52212e-05
5.13554e-05
1.45684e-05
0.000162756
0.000144355
0.000109295
6.10403e-05
1.63418e-05
0.000168838
0.000149883
0.000114621
6.55334e-05
1.68805e-05
0.000162765
0.00014469
0.000110726
6.33415e-05
1.61797e-05
0.000143502
0.00012709
9.66694e-05
5.43977e-05
1.42972e-05
0.000108316
9.49008e-05
7.11602e-05
3.84293e-05
1.14193e-05
6.05629e-05
5.11987e-05
3.66677e-05
1.80124e-05
7.91215e-06
1.63352e-05
1.4564e-05
1.17081e-05
8.04297e-06
4.02251e-06
)
;
    }
    procBoundary9to8
    {
        type            processor;
        value           nonuniform List<scalar> 
132
(
1.72039e-05
1.70348e-05
1.68942e-05
1.67767e-05
1.6679e-05
1.65979e-05
1.65305e-05
1.6475e-05
1.64291e-05
1.6392e-05
1.63601e-05
6.69705e-05
6.59727e-05
6.52129e-05
6.45928e-05
6.40616e-05
6.361e-05
6.32043e-05
6.27914e-05
6.25491e-05
6.21981e-05
6.13733e-05
0.000120798
0.000119314
0.00011825
0.00011742
0.000117039
0.00011599
0.0001148
0.000113911
0.000113178
0.000112282
0.000110269
0.000155799
0.00015425
0.000153129
0.000152261
0.000151552
0.000150882
0.000150266
0.000149739
0.000149275
0.00014853
0.000146594
0.000180671
0.000179017
0.00017788
0.000177042
0.0001764
0.000175894
0.000175484
0.00017514
0.000174786
0.000173953
0.000171439
0.000180671
0.000179017
0.00017788
0.000177042
0.0001764
0.000175894
0.000175484
0.00017514
0.000174786
0.000173953
0.000171439
0.000186768
0.000185348
0.000184381
0.000183694
0.000183199
0.000182839
0.000182576
0.000182368
0.000182117
0.000181291
0.000178796
0.000180416
0.000179078
0.000178173
0.000177527
0.000177058
0.000176712
0.000176443
0.000176218
0.000175953
0.00017513
0.000172727
0.000161706
0.000160193
0.000159145
0.000158375
0.000157798
0.000157341
0.000156883
0.000156439
0.000156003
0.000155131
0.000153038
0.000126916
0.000125373
0.000124248
0.000123395
0.000122791
0.000122488
0.00012142
0.000120397
0.000119585
0.000118556
0.000116347
7.22352e-05
7.1192e-05
7.03706e-05
6.97045e-05
6.91569e-05
6.86899e-05
6.82605e-05
6.78801e-05
6.75519e-05
6.71899e-05
6.63034e-05
1.78046e-05
1.76268e-05
1.74765e-05
1.73513e-05
1.72474e-05
1.71613e-05
1.70899e-05
1.7031e-05
1.69825e-05
1.6943e-05
1.69081e-05
)
;
    }
}


// ************************************************************************* //
