/*--------------------------------*- C++ -*----------------------------------*\
| =========                 |                                                 |
| \\      /  F ield         | OpenFOAM: The Open Source CFD Toolbox           |
|  \\    /   O peration     | Version:  2212                                  |
|   \\  /    A nd           | Website:  www.openfoam.com                      |
|    \\/     M anipulation  |                                                 |
\*---------------------------------------------------------------------------*/
FoamFile
{
    version     2.0;
    format      ascii;
    arch        "LSB;label=32;scalar=64";
    class       volScalarField;
    location    "0.6";
    object      p;
}
// * * * * * * * * * * * * * * * * * * * * * * * * * * * * * * * * * * * * * //

dimensions      [0 2 -2 0 0 0 0];

internalField   nonuniform List<scalar> 
682
(
0.00336399
0.00323333
0.00310462
0.00297769
0.00285216
0.00272777
0.00260428
0.00248153
0.00235953
0.00223821
0.00211683
0.00336528
0.0032345
0.00310567
0.00297865
0.002853
0.0027285
0.00260486
0.00248204
0.00236003
0.0022388
0.00211754
0.00336327
0.00323309
0.00310464
0.00297796
0.00285243
0.00272796
0.00260442
0.00248166
0.00235986
0.0022389
0.00211787
0.00348719
0.00335747
0.00322866
0.0031012
0.00297522
0.00285029
0.00272627
0.00260304
0.00248058
0.00235898
0.00223823
0.0021175
0.00348026
0.00335215
0.00322453
0.00309806
0.00297275
0.00284836
0.00272473
0.00260181
0.00247958
0.00235812
0.00223732
0.00211667
0.00347273
0.00334615
0.00321978
0.0030943
0.00296977
0.00284603
0.00272292
0.00260042
0.00247851
0.00235725
0.00223657
0.002116
0.00335063
0.00322366
0.00309756
0.00297235
0.00284806
0.00272464
0.00260177
0.00247926
0.00235718
0.00223531
0.00211343
0.00335254
0.00322518
0.00309879
0.00297333
0.00284902
0.00272549
0.00260241
0.0024799
0.00235788
0.00223617
0.00211437
0.00335244
0.00322471
0.00309846
0.00297314
0.00284867
0.00272497
0.00260189
0.00247958
0.00235798
0.00223682
0.00211549
0.00347745
0.00334891
0.00322149
0.00309569
0.00297103
0.00284703
0.00272369
0.002601
0.00247894
0.00235766
0.00223712
0.00211645
0.00347123
0.00334468
0.00321857
0.00309345
0.0029692
0.00284563
0.0027226
0.00260017
0.00247831
0.00235716
0.00223685
0.0021165
0.00346629
0.00334108
0.00321579
0.00309119
0.00296733
0.00284411
0.00272142
0.00259926
0.0024776
0.00235651
0.00223591
0.0021154
0.00334199
0.00321629
0.00309137
0.00296698
0.00284301
0.00271951
0.00259663
0.00247419
0.00235185
0.00222935
0.00210738
0.00334317
0.00321723
0.00309195
0.00296733
0.00284343
0.00272017
0.00259751
0.00247515
0.00235285
0.00223036
0.00210814
0.00334439
0.00321798
0.00309233
0.00296749
0.00284373
0.0027207
0.00259813
0.00247601
0.00235408
0.00223201
0.00210977
0.00347224
0.00334384
0.00321722
0.00309202
0.00296764
0.00284389
0.00272086
0.00259836
0.00247644
0.00235504
0.00223382
0.00211228
0.00347181
0.00334375
0.00321721
0.00309205
0.00296789
0.0028444
0.00272152
0.00259921
0.00247744
0.0023563
0.00223578
0.00211513
0.00347078
0.00334403
0.00321781
0.00309266
0.00296835
0.00284485
0.00272194
0.00259964
0.00247788
0.00235671
0.00223614
0.00211549
0.00333975
0.00321412
0.00308938
0.00296511
0.00284117
0.00271754
0.0025944
0.00247164
0.00234887
0.00222603
0.00210412
0.00334078
0.00321495
0.00308991
0.00296543
0.00284139
0.00271787
0.00259494
0.00247224
0.00234938
0.00222637
0.00210431
0.00334251
0.00321607
0.00309024
0.00296544
0.00284166
0.00271854
0.00259593
0.00247351
0.00235092
0.00222804
0.00210581
0.00347163
0.00334387
0.00321725
0.00309151
0.00296671
0.00284289
0.00271985
0.00259729
0.00247521
0.00235332
0.00223126
0.00210912
0.00347496
0.00334638
0.00321945
0.0030939
0.00296926
0.00284536
0.00272224
0.00259967
0.00247766
0.00235614
0.00223502
0.00211378
0.00348027
0.00335098
0.00322325
0.00309681
0.0029716
0.00284736
0.00272392
0.00260121
0.00247907
0.00235764
0.00223681
0.0021159
0.00334025
0.0032146
0.00308977
0.00296543
0.00284147
0.0027179
0.00259467
0.00247158
0.0023484
0.00222521
0.00210304
0.00334121
0.00321534
0.0030902
0.0029657
0.00284165
0.00271803
0.00259496
0.00247215
0.0023492
0.00222614
0.00210406
0.00347079
0.00334351
0.00321715
0.00309155
0.00296685
0.00284288
0.0027195
0.00259673
0.00247436
0.00235209
0.0022296
0.00210752
0.00347718
0.00334881
0.00322162
0.00309558
0.00297051
0.00284648
0.00272329
0.00260056
0.00247832
0.0023565
0.00223492
0.00211329
0.00348981
0.00335829
0.00322879
0.00310108
0.00297485
0.00284986
0.0027259
0.00260276
0.00248035
0.00235864
0.00223755
0.00211642
0.00333998
0.00321455
0.00308987
0.0029656
0.00284168
0.00271805
0.00259468
0.00247144
0.00234813
0.00222488
0.00210274
0.00334066
0.0032151
0.00309021
0.00296584
0.00284184
0.0027181
0.00259478
0.00247183
0.00234884
0.00222577
0.00210371
0.00346986
0.00334306
0.00321704
0.00309175
0.0029672
0.00284318
0.00271963
0.00259672
0.00247428
0.002352
0.00222958
0.00210751
0.00347847
0.00335024
0.00322304
0.00309689
0.00297169
0.00284744
0.0027241
0.00260138
0.00247905
0.00235713
0.00223544
0.00211369
0.00349474
0.00336215
0.00323186
0.00310356
0.00297683
0.00285142
0.00272716
0.0026038
0.00248122
0.00235937
0.00223822
0.00211701
0.00334021
0.00321464
0.00308985
0.00296551
0.00284155
0.00271795
0.0025947
0.00247161
0.0023484
0.0022252
0.00210305
0.00334129
0.00321545
0.0030903
0.00296576
0.00284166
0.00271806
0.00259507
0.00247233
0.00234946
0.00222642
0.00210426
0.00347099
0.00334397
0.00321765
0.00309204
0.00296726
0.00284328
0.00271999
0.00259735
0.00247506
0.00235286
0.00223045
0.00210821
0.00348068
0.00335205
0.0032245
0.00309813
0.00297271
0.00284843
0.00272501
0.00260205
0.00247967
0.00235778
0.00223616
0.00211447
0.00349637
0.00336365
0.00323324
0.0031048
0.00297792
0.00285236
0.00272795
0.00260445
0.00248175
0.00235988
0.00223879
0.00211764
0.00334058
0.00321472
0.00308971
0.00296528
0.00284125
0.00271771
0.00259476
0.00247206
0.00234925
0.00222629
0.00210426
0.00334261
0.00321606
0.00309016
0.00296533
0.00284151
0.00271841
0.00259585
0.00247349
0.00235099
0.00222818
0.00210584
0.00347248
0.00334482
0.00321805
0.00309221
0.00296729
0.00284348
0.00272047
0.00259793
0.00247586
0.00235396
0.00223188
0.00210969
0.00348088
0.00335179
0.00322408
0.00309797
0.00297277
0.00284836
0.00272473
0.00260171
0.00247944
0.00235782
0.00223665
0.00211541
0.00349373
0.00336193
0.0032321
0.00310394
0.00297742
0.00285201
0.0027276
0.00260417
0.00248147
0.00235973
0.0022389
0.00211791
0.00334261
0.00321652
0.00309121
0.00296666
0.00284275
0.00271942
0.00259671
0.00247437
0.00235211
0.00222962
0.00210748
0.00334368
0.00321709
0.00309143
0.0029667
0.00284296
0.00271995
0.00259739
0.00247528
0.00235331
0.00223115
0.00210893
0.00347234
0.00334402
0.00321718
0.00309198
0.00296757
0.00284386
0.00272083
0.00259831
0.00247637
0.00235487
0.00223349
0.00211199
0.00347704
0.00334838
0.00322117
0.00309548
0.00297086
0.00284691
0.00272357
0.0026009
0.00247882
0.00235751
0.00223687
0.00211622
0.00348667
0.00335666
0.00322797
0.00310068
0.00297479
0.00284996
0.002726
0.00260284
0.00248042
0.00235889
0.00223827
0.00211754
0.00334907
0.00322201
0.00309601
0.00297093
0.0028469
0.00272364
0.00260081
0.00247848
0.00235654
0.00223482
0.00211306
0.00334694
0.00321987
0.00309429
0.00296956
0.00284565
0.00272246
0.00259979
0.00247771
0.00235609
0.00223482
0.00211352
0.0034721
0.00334415
0.00321748
0.00309228
0.00296808
0.00284454
0.0027216
0.00259923
0.00247737
0.00235617
0.00223549
0.00211482
0.00347109
0.00334447
0.00321859
0.00309349
0.00296929
0.00284571
0.00272266
0.00260018
0.00247827
0.0023571
0.0022368
0.00211643
0.0034799
0.00335163
0.00322416
0.00309778
0.00297255
0.0028482
0.0027246
0.00260169
0.00247948
0.00235806
0.0022375
0.00211685
0.00335968
0.00322986
0.00310182
0.00297542
0.00285035
0.0027263
0.00260304
0.0024805
0.00235865
0.00223747
0.00211627
0.00335199
0.00322407
0.00309742
0.00297209
0.00284774
0.0027242
0.00260139
0.00247912
0.00235761
0.00223672
0.00211574
0.00347104
0.00334445
0.00321843
0.00309311
0.00296877
0.00284515
0.00272215
0.00259975
0.00247789
0.00235665
0.00223607
0.00211536
0.00346635
0.00334125
0.00321619
0.00309158
0.00296768
0.00284438
0.00272161
0.00259936
0.00247761
0.00235647
0.00223604
0.00211549
0.00347258
0.00334599
0.0032198
0.00309439
0.00296988
0.00284611
0.00272297
0.00260042
0.00247847
0.00235721
0.00223668
0.00211608
)
;

boundaryField
{
    inlet
    {
        type            zeroGradient;
    }
    ami1
    {
        type            cyclicAMI;
        value           nonuniform List<scalar> 0();
    }
    walls
    {
        type            zeroGradient;
    }
    ami2
    {
        type            cyclicAMI;
        value           nonuniform List<scalar> 0();
    }
    outlet
    {
        type            fixedValue;
        value           nonuniform List<scalar> 0();
    }
    procBoundary9to0
    {
        type            processor;
        value           nonuniform List<scalar> 
40
(
0.00349602
0.00349747
0.0034947
0.0034947
0.00361727
0.0036085
0.00359906
0.00347862
0.00348084
0.00348124
0.00348124
0.00360602
0.00359766
0.00359089
0.00346938
0.00347057
0.00347211
0.00347211
0.00360254
0.00360055
0.0035977
0.00346718
0.00346821
0.00347013
0.00347013
0.00360195
0.00360512
0.00361071
0.00346751
0.0034684
0.0034684
0.00360018
0.003607
0.00362294
0.00346698
0.00346745
0.00346745
0.00359852
0.00360788
0.00362909
)
;
    }
    procBoundary9to1
    {
        type            processor;
        value           nonuniform List<scalar> 
30
(
0.00346744
0.00346833
0.00346833
0.00359991
0.00361031
0.00363078
0.0034682
0.00347023
0.00347023
0.00360229
0.00361084
0.00362692
0.00347034
0.00347152
0.00347152
0.00360243
0.00360599
0.00361718
0.00347725
0.00347529
0.00347529
0.00360055
0.00359774
0.00360845
0.00349073
0.00348095
0.00348095
0.0035979
0.00359096
0.00359905
)
;
    }
    procBoundary9to7
    {
        type            processor;
        value           nonuniform List<scalar> 
59
(
0.00199422
0.00199491
0.00199534
0.00199538
0.00199513
0.00199455
0.0019916
0.00199234
0.00199327
0.0019942
0.00199465
0.00199407
0.00198707
0.00198737
0.00198838
0.00199041
0.00199313
0.00199368
0.00198423
0.00198434
0.00198551
0.00198793
0.00199195
0.00199382
0.00198295
0.00198406
0.001987
0.0019916
0.00199416
0.0019827
0.00198376
0.00198692
0.00199191
0.0019946
0.00198303
0.0019842
0.00198736
0.00199253
0.00199511
0.00198438
0.00198542
0.00198835
0.00199336
0.00199539
0.00198704
0.00198774
0.00199035
0.00199419
0.00199529
0.0019913
0.00199169
0.00199299
0.00199445
0.00199489
0.00199378
0.00199349
0.00199338
0.00199369
0.00199425
)
;
    }
    procBoundary9to8
    {
        type            processor;
        value           nonuniform List<scalar> 
132
(
0.00335993
0.0032301
0.00310206
0.00297566
0.00285058
0.00272652
0.00260322
0.00248064
0.00235874
0.0022375
0.00211621
0.00334918
0.00322218
0.00309615
0.00297113
0.00284707
0.00272377
0.00260092
0.00247851
0.00235656
0.00223478
0.002113
0.00334257
0.00321646
0.00309116
0.00296665
0.00284272
0.00271938
0.00259665
0.00247432
0.00235207
0.00222959
0.00210755
0.00334052
0.00321457
0.00308954
0.00296511
0.00284109
0.00271758
0.00259466
0.00247201
0.00234928
0.00222641
0.00210445
0.0033396
0.00321407
0.0030894
0.00296518
0.00284131
0.00271775
0.00259448
0.00247138
0.00234825
0.00222519
0.00210308
0.0033396
0.00321407
0.0030894
0.00296518
0.00284131
0.00271775
0.00259448
0.00247138
0.00234825
0.00222519
0.00210308
0.00333941
0.00321409
0.00308953
0.00296536
0.00284151
0.00271792
0.00259455
0.00247129
0.002348
0.0022248
0.00210263
0.00333983
0.00321439
0.00308973
0.00296548
0.00284158
0.00271798
0.00259465
0.00247146
0.0023482
0.002225
0.00210283
0.00333988
0.00321426
0.00308952
0.00296527
0.00284135
0.00271771
0.00259454
0.00247172
0.00234887
0.00222595
0.00210397
0.00334201
0.00321629
0.00309134
0.00296694
0.00284298
0.00271949
0.00259664
0.00247422
0.00235193
0.00222948
0.0021075
0.00335042
0.00322341
0.00309729
0.00297209
0.00284781
0.00272442
0.0026016
0.00247918
0.00235718
0.0022354
0.0021136
0.00336356
0.00323294
0.00310431
0.00297743
0.00285193
0.00272757
0.0026041
0.0024814
0.00235943
0.00223816
0.00211684
)
;
    }
}


// ************************************************************************* //
