/*--------------------------------*- C++ -*----------------------------------*\
| =========                 |                                                 |
| \\      /  F ield         | OpenFOAM: The Open Source CFD Toolbox           |
|  \\    /   O peration     | Version:  2212                                  |
|   \\  /    A nd           | Website:  www.openfoam.com                      |
|    \\/     M anipulation  |                                                 |
\*---------------------------------------------------------------------------*/
FoamFile
{
    version     2.0;
    format      ascii;
    arch        "LSB;label=32;scalar=64";
    class       volScalarField;
    location    "0.3";
    object      epsilon;
}
// * * * * * * * * * * * * * * * * * * * * * * * * * * * * * * * * * * * * * //

dimensions      [0 2 -3 0 0 0 0];

internalField   nonuniform List<scalar> 
689
(
0.322732
0.323197
0.323854
0.324478
0.325065
0.325622
0.326144
0.326627
0.187393
0.187793
0.188378
0.188974
0.189532
0.190045
0.190518
0.190953
0.144452
0.143104
0.14282
0.142854
0.143038
0.143294
0.143583
0.143883
0.144178
0.150592
0.140028
0.134339
0.131273
0.129711
0.128858
0.128567
0.128503
0.128586
0.128754
0.128969
0.129204
0.138841
0.132026
0.12769
0.124965
0.123289
0.122296
0.121802
0.121488
0.121457
0.121531
0.121673
0.121858
0.133004
0.129169
0.126067
0.123768
0.12216
0.121094
0.120443
0.1201
0.11997
0.119976
0.120069
0.120214
0.141117
0.134799
0.130422
0.127443
0.125483
0.124251
0.123519
0.123145
0.123
0.122997
0.123083
0.123219
0.157092
0.145301
0.138606
0.134894
0.132899
0.131835
0.131292
0.13107
0.131041
0.131124
0.13127
0.131431
0.178687
0.157937
0.150985
0.148441
0.147467
0.147082
0.147064
0.14718
0.147376
0.147619
0.147889
0.182277
0.179819
0.182111
0.185065
0.187718
0.189362
0.190502
0.191348
0.192016
0.192583
0.193086
0.420513
0.354585
0.331092
0.324036
0.322468
0.323103
0.323837
0.324489
0.325084
0.325641
0.326159
0.187933
0.189449
0.190529
0.191349
0.192012
0.192581
0.193086
0.193538
0.0943578
0.0945751
0.0947621
0.0949529
0.0951437
0.0953329
0.0955214
0.0957091
0.0790961
0.0777542
0.0771291
0.0768194
0.0767242
0.0767095
0.076756
0.076846
0.076966
0.0903222
0.0836704
0.0785311
0.075339
0.0733911
0.0722174
0.0714917
0.071052
0.0708277
0.0707602
0.0707678
0.0708421
0.0853831
0.080446
0.0767112
0.0739816
0.072041
0.0706955
0.0697864
0.0691953
0.0688459
0.0685966
0.0685323
0.068559
0.0822222
0.078663
0.0757215
0.0734035
0.0716432
0.0703489
0.0694297
0.0688049
0.0684093
0.0681603
0.0680323
0.068056
0.0831019
0.0794335
0.0764598
0.0741446
0.072403
0.071137
0.07025
0.0696565
0.0692994
0.0690403
0.0689723
0.0690108
0.0856147
0.0814104
0.07815
0.0757678
0.0741012
0.0729649
0.0722535
0.0718051
0.0715638
0.0714853
0.0714936
0.0716502
0.089373
0.0847743
0.0814149
0.079345
0.0783341
0.0778106
0.0775383
0.0774472
0.0774293
0.0774698
0.0775514
0.112002
0.0998074
0.0957942
0.0945926
0.094473
0.0945695
0.0947508
0.0949492
0.0951447
0.0953364
0.0955272
0.218713
0.193898
0.187975
0.187117
0.187202
0.187712
0.188365
0.18899
0.189552
0.190061
0.190529
0.148404
0.147365
0.147085
0.14706
0.147179
0.147382
0.14763
0.147901
0.148175
0.0796335
0.0784311
0.0778592
0.0775638
0.0774636
0.0774394
0.0774752
0.0775558
0.0776685
0.0709937
0.0694068
0.0685398
0.0679025
0.0675058
0.0672893
0.0672104
0.0671986
0.067254
0.08251
0.0775371
0.0736794
0.0707829
0.068712
0.06727
0.066215
0.065638
0.065244
0.0650104
0.0649084
0.064939
0.0828124
0.0780979
0.074379
0.0715079
0.0693382
0.067724
0.0665434
0.0657093
0.0651108
0.0647949
0.0646394
0.0646558
0.0827918
0.07817
0.0745578
0.0717566
0.0696116
0.0679942
0.066798
0.0659337
0.0653274
0.0649429
0.064747
0.0647704
0.0819345
0.0775559
0.0741105
0.0714284
0.0693743
0.0678234
0.0666887
0.0658764
0.0652943
0.0649942
0.0648362
0.0648398
0.0807479
0.0766031
0.07329
0.0707077
0.068796
0.0674069
0.066464
0.0658932
0.0655081
0.0652897
0.0651744
0.0652315
0.0823322
0.0772164
0.073515
0.07096
0.0693379
0.0684908
0.0678725
0.0674875
0.0672814
0.0672138
0.0672263
0.0972062
0.0873927
0.0816878
0.0790157
0.0777319
0.0771149
0.076813
0.0767224
0.0767121
0.0767641
0.0768627
0.172253
0.155241
0.147431
0.144478
0.143102
0.142843
0.142883
0.143066
0.143319
0.143602
0.143895
0.134963
0.132936
0.131864
0.131351
0.131075
0.131069
0.131165
0.131325
0.131519
0.075782
0.0741411
0.0730122
0.0722888
0.0718255
0.0715751
0.0714897
0.0714814
0.0715445
0.0708041
0.0688744
0.0674716
0.0665088
0.0659291
0.0655334
0.0652975
0.0651919
0.0652176
0.083537
0.0788257
0.0750875
0.0721664
0.0699375
0.0682645
0.0670339
0.0661659
0.0655672
0.0651848
0.0649906
0.0650079
0.0865907
0.0812926
0.0771671
0.073972
0.0715205
0.0696609
0.0682717
0.0672557
0.0665337
0.0660584
0.0658006
0.0657903
0.087851
0.0822623
0.0779744
0.0746802
0.0721582
0.0702424
0.0688049
0.0677458
0.0669883
0.0664816
0.0662056
0.0661981
0.0864134
0.0811645
0.0770879
0.0739335
0.0715121
0.0696732
0.0682987
0.067292
0.0665761
0.0661035
0.065846
0.0658223
0.0835066
0.0787866
0.0750399
0.0721186
0.069893
0.0682252
0.0670011
0.0661398
0.0655491
0.0651791
0.0650062
0.0650458
0.0824894
0.0775085
0.0736464
0.0707512
0.0686811
0.0672443
0.0661976
0.0656271
0.0652438
0.0650331
0.0649864
0.0902226
0.0835383
0.0784201
0.0752944
0.073375
0.0722097
0.0714923
0.0710558
0.0708366
0.0707778
0.0708064
0.150628
0.140103
0.134418
0.131344
0.129761
0.128906
0.128607
0.128536
0.128614
0.128776
0.128982
0.127435
0.125502
0.12429
0.12358
0.123219
0.123086
0.123093
0.123186
0.123326
0.0742156
0.0724087
0.0711051
0.0701943
0.0695879
0.0692216
0.0689549
0.0688854
0.0689263
0.07158
0.0694805
0.0679017
0.0667491
0.065927
0.0653352
0.0650334
0.0648776
0.0648879
0.0864604
0.0812252
0.077161
0.0740052
0.0715779
0.0697322
0.0683513
0.0673393
0.0666184
0.0661405
0.065875
0.0658445
0.090296
0.0844417
0.0799186
0.0764266
0.0737418
0.071693
0.0701473
0.0690007
0.068174
0.0676139
0.0672977
0.0672621
0.0916555
0.0856195
0.0809491
0.0773424
0.0745684
0.0724491
0.0708468
0.0696547
0.0687926
0.0682077
0.0678824
0.0678596
0.0902787
0.0844212
0.0798952
0.0764021
0.0737177
0.0716704
0.0701269
0.0689831
0.0681604
0.0676065
0.067299
0.0672675
0.0865813
0.0812825
0.0771558
0.0739604
0.0715098
0.0696522
0.0682661
0.0672547
0.06654
0.0660786
0.0658412
0.0658299
0.0828045
0.0780875
0.0743674
0.0714969
0.0693287
0.0677169
0.0665399
0.0657109
0.0651227
0.0648426
0.0647567
0.0853712
0.0804264
0.0766907
0.073967
0.0720326
0.070692
0.0697868
0.0691992
0.068855
0.0686198
0.068586
0.138853
0.132046
0.127717
0.124998
0.123326
0.122335
0.121841
0.121526
0.121493
0.121562
0.121695
0.0879113
0.0823359
0.0780573
0.0747701
0.0722501
0.0703332
0.0688938
0.0678334
0.067076
0.0665711
0.0662941
0.0662664
0.0916941
0.0856643
0.0809977
0.0773932
0.0746202
0.0725012
0.0708989
0.0697071
0.0688457
0.0682616
0.0679315
0.0678812
0.0930352
0.0868753
0.0820869
0.0783771
0.0755166
0.0733263
0.0716665
0.0704287
0.0695322
0.0689245
0.0685872
0.068551
0.0916782
0.0856441
0.0809739
0.0773668
0.0745924
0.0724733
0.0708719
0.069682
0.0688245
0.0682479
0.0679328
0.0679016
0.0878741
0.0822869
0.0779991
0.0747044
0.0721822
0.0702668
0.0688312
0.0677761
0.0670272
0.0665379
0.0662918
0.0662839
0.0828025
0.0781794
0.0745655
0.0717631
0.0696177
0.0680009
0.0668071
0.0659483
0.0653546
0.0649991
0.0649321
0.0822187
0.0786537
0.075708
0.0733885
0.0716285
0.0703356
0.0694184
0.0687977
0.0684125
0.0681561
0.0680986
0.133017
0.129193
0.126101
0.123811
0.122212
0.121154
0.120509
0.120168
0.120038
0.120041
0.120125
)
;

boundaryField
{
    inlet
    {
        type            fixedValue;
        value           nonuniform List<scalar> 0();
    }
    ami1
    {
        type            cyclicAMI;
        value           nonuniform List<scalar> 0();
    }
    walls
    {
        type            epsilonWallFunction;
        blending        stepwise;
        value           nonuniform List<scalar> 
227
(
0.150592
0.138841
0.133004
0.141117
0.157092
0.178687
0.182277
0.420513
0.140028
0.132026
0.129169
0.134799
0.145301
0.157937
0.179819
0.354585
0.134339
0.12769
0.126067
0.130422
0.138606
0.150985
0.182111
0.331092
0.144452
0.131273
0.124965
0.123768
0.127443
0.134894
0.148441
0.185065
0.324036
0.322732
0.187393
0.143104
0.129711
0.123289
0.12216
0.125483
0.132899
0.147467
0.187718
0.322468
0.323197
0.187793
0.14282
0.128858
0.122296
0.121094
0.124251
0.131835
0.147082
0.189362
0.323103
0.323854
0.188378
0.142854
0.128567
0.121802
0.120443
0.123519
0.131292
0.147064
0.190502
0.323837
0.324478
0.188974
0.143038
0.128503
0.121488
0.1201
0.123145
0.13107
0.14718
0.191348
0.324489
0.325065
0.189532
0.143294
0.128586
0.121457
0.11997
0.123
0.131041
0.147376
0.192016
0.325084
0.325622
0.190045
0.143583
0.128754
0.121531
0.119976
0.122997
0.131124
0.147619
0.192583
0.325641
0.326144
0.190518
0.143883
0.128969
0.121673
0.120069
0.123083
0.13127
0.147889
0.193086
0.326159
0.326627
0.190953
0.144178
0.129204
0.121858
0.120214
0.123219
0.131431
0.420513
0.218713
0.172253
0.150628
0.138853
0.133017
0.354585
0.193898
0.155241
0.140103
0.132046
0.129193
0.331092
0.187975
0.147431
0.134418
0.127717
0.126101
0.324036
0.187117
0.144478
0.131344
0.124998
0.123811
0.322468
0.187202
0.143102
0.129761
0.123326
0.122212
0.323103
0.187712
0.142843
0.128906
0.122335
0.121154
0.323837
0.188365
0.142883
0.128607
0.121841
0.120509
0.324489
0.18899
0.143066
0.128536
0.121526
0.120168
0.325084
0.189552
0.143319
0.128614
0.121493
0.120038
0.325641
0.190061
0.143602
0.128776
0.121562
0.120041
0.326159
0.190529
0.143895
0.128982
0.121695
0.120125
0.148404
0.134963
0.127435
0.322732
0.187933
0.147365
0.132936
0.125502
0.323197
0.189449
0.147085
0.131864
0.12429
0.323854
0.190529
0.14706
0.131351
0.12358
0.324478
0.191349
0.147179
0.131075
0.123219
0.325065
0.192012
0.147382
0.131069
0.123086
0.325622
0.192581
0.14763
0.131165
0.123093
0.326144
0.193086
0.147901
0.131325
0.123186
0.326627
0.193538
0.148175
0.131519
0.123326
)
;
    }
    ami2
    {
        type            cyclicAMI;
        value           nonuniform List<scalar> 
48
(
0.14177
0.136015
0.134416
0.140132
0.156586
0.183438
0.189427
0.289807
0.0948844
0.0885686
0.0842345
0.0852459
0.0879721
0.0915433
0.123975
0.179469
0.084956
0.0857197
0.0857293
0.0846934
0.0832239
0.0846563
0.103962
0.15363
0.0864382
0.0899676
0.0914898
0.0897774
0.0864144
0.0849399
0.0948309
0.141792
0.0898139
0.0940629
0.0955211
0.0940477
0.0899573
0.0857113
0.0885602
0.136024
0.0915326
0.0955477
0.096948
0.0955341
0.0915032
0.0857336
0.0842298
0.134425
)
;
    }
    outlet
    {
        type            zeroGradient;
    }
    procBoundary0to1
    {
        type            processor;
        value           nonuniform List<scalar> 
138
(
0.130388
0.123752
0.122151
0.121097
0.120457
0.120124
0.120003
0.120015
0.120111
0.120255
0.076597
0.073445
0.0716802
0.0703787
0.0694526
0.0688226
0.0684228
0.0681762
0.0680491
0.0680822
0.0819969
0.077639
0.0742349
0.0742349
0.0718523
0.0697075
0.0680837
0.0668812
0.0660128
0.0654044
0.0650227
0.0648379
0.0648688
0.0828418
0.0782306
0.0746304
0.0718523
0.0697075
0.0680837
0.0668812
0.0660128
0.0654044
0.0650227
0.0648379
0.0648688
0.0866245
0.0813357
0.0772153
0.0740241
0.0715753
0.0697178
0.0683306
0.067317
0.0665984
0.0661267
0.0658692
0.0658453
0.0903203
0.0844712
0.0799495
0.0764585
0.0737749
0.0717277
0.070184
0.0690398
0.0682164
0.0676606
0.067348
0.0673079
0.0916843
0.0856556
0.0809879
0.0773818
0.0746077
0.0724885
0.0708868
0.0696959
0.0688362
0.0682551
0.0679334
0.0679057
0.0903069
0.0844548
0.0799306
0.0764373
0.0737523
0.0717044
0.0701608
0.0690177
0.0681972
0.0676482
0.067351
0.0673313
0.0864397
0.0811948
0.077119
0.073964
0.0715417
0.0697023
0.0683283
0.0673241
0.0666145
0.0661571
0.0659306
0.0659379
0.0819425
0.0775613
0.074113
0.0714287
0.0693732
0.0678219
0.0666885
0.0658813
0.0653133
0.0650477
0.0649811
0.083046
0.0793516
0.0763688
0.0740499
0.0723061
0.0710383
0.0701498
0.0695589
0.0692055
0.0689631
0.0689362
0.141149
0.134858
0.130502
0.127539
0.12559
0.124363
0.123636
0.123265
0.123121
0.123116
0.123193
)
;
    }
    procBoundary0to2
    {
        type            processor;
        value           nonuniform List<scalar> 
28
(
0.324381
0.187401
0.187401
0.172292
0.1553
0.147517
0.147517
0.185404
0.185404
0.0941357
0.0941357
0.0941357
0.0970409
0.0871728
0.0814306
0.0814306
0.151014
0.0814393
0.0823346
0.0772102
0.0735142
0.0735142
0.138695
0.0780334
0.080781
0.0766401
0.0733548
0.0733548
)
;
    }
    procBoundary0to8
    {
        type            processor;
        value           nonuniform List<scalar> 
29
(
0.327064
0.191348
0.144463
0.12945
0.122078
0.193942
0.0958921
0.0771009
0.0709356
0.0685805
0.148441
0.0777971
0.0673386
0.0649904
0.0647025
0.131724
0.0716324
0.0652619
0.0650287
0.0658173
0.12348
0.069042
0.0649021
0.0658245
0.0672284
0.067873
0.0662112
0.0678134
0.068519
)
;
    }
    procBoundary0to9
    {
        type            processor;
        value           nonuniform List<scalar> 
40
(
0.120391
0.12339
0.131643
0.148223
0.148223
0.193563
0.326664
0.0681141
0.0690691
0.0716647
0.0774958
0.0774958
0.0957149
0.190972
0.0648112
0.0648635
0.0652771
0.0672768
0.0672768
0.0769891
0.144182
0.0662411
0.0658184
0.0650601
0.0650015
0.0650015
0.0708784
0.129209
0.0672626
0.065803
0.0647347
0.0647347
0.0686145
0.121868
0.0678772
0.0662356
0.064901
0.064901
0.0681112
0.12026
)
;
    }
}


// ************************************************************************* //
