/*--------------------------------*- C++ -*----------------------------------*\
| =========                 |                                                 |
| \\      /  F ield         | OpenFOAM: The Open Source CFD Toolbox           |
|  \\    /   O peration     | Version:  2212                                  |
|   \\  /    A nd           | Website:  www.openfoam.com                      |
|    \\/     M anipulation  |                                                 |
\*---------------------------------------------------------------------------*/
FoamFile
{
    version     2.0;
    format      ascii;
    arch        "LSB;label=32;scalar=64";
    class       volScalarField;
    location    "0.85";
    object      epsilon;
}
// * * * * * * * * * * * * * * * * * * * * * * * * * * * * * * * * * * * * * //

dimensions      [0 2 -3 0 0 0 0];

internalField   nonuniform List<scalar> 
680
(
0.720676
0.594606
0.50253
0.432716
0.379339
0.3364
0.300032
0.740295
0.565916
0.44394
0.356042
0.290958
0.241457
0.203053
0.649782
0.497017
0.389484
0.311295
0.252985
0.208992
0.175235
0.645382
0.492589
0.384776
0.307017
0.249036
0.204965
0.17097
0.64398
0.492247
0.383959
0.305789
0.24791
0.203907
0.169928
0.64398
0.492247
0.38396
0.30579
0.247912
0.20391
0.169933
0.645382
0.492589
0.384777
0.30702
0.249039
0.204971
0.649782
0.497017
0.389486
0.311299
0.25299
0.208999
0.740295
0.565916
0.443942
0.356044
0.290961
0.241462
0.720676
0.594606
0.502531
0.432717
0.379339
0.3364
0.740295
0.565916
0.443942
0.356044
0.290961
0.241461
0.203064
0.562055
0.415374
0.315956
0.246343
0.196237
0.159239
0.131274
0.618637
0.453967
0.342044
0.263662
0.207327
0.165921
0.134868
0.666461
0.489549
0.368599
0.283609
0.222393
0.177334
0.143534
0.69272
0.509635
0.384013
0.295499
0.231641
0.184583
0.149249
0.692719
0.509634
0.384012
0.295499
0.231641
0.184584
0.14925
0.666461
0.489549
0.368599
0.283609
0.222393
0.177336
0.618637
0.453967
0.342044
0.263663
0.207327
0.165922
0.562055
0.415374
0.315956
0.246343
0.196237
0.159239
0.740295
0.565916
0.443941
0.356042
0.290958
0.241458
0.649782
0.497017
0.389486
0.311299
0.252989
0.208999
0.175244
0.618637
0.453967
0.342044
0.263663
0.207327
0.165922
0.134872
0.72564
0.532162
0.399157
0.305556
0.238234
0.18884
0.151933
0.80459
0.594207
0.447521
0.343215
0.267638
0.211905
0.170126
0.843153
0.625688
0.472846
0.36348
0.283848
0.224899
0.180581
0.843153
0.625688
0.472846
0.36348
0.283848
0.2249
0.180582
0.80459
0.594207
0.44752
0.343215
0.267638
0.211905
0.72564
0.532162
0.399157
0.305556
0.238234
0.18884
0.618637
0.453967
0.342044
0.263662
0.207327
0.165921
0.649782
0.497017
0.389484
0.311295
0.252985
0.208993
0.645382
0.492589
0.384777
0.30702
0.249039
0.204971
0.170979
0.666461
0.489549
0.368599
0.283609
0.222393
0.177335
0.143537
0.80459
0.594207
0.44752
0.343215
0.267638
0.211905
0.170127
0.896488
0.669458
0.508124
0.391659
0.306289
0.242789
0.194893
0.938711
0.705583
0.538335
0.416592
0.326728
0.259499
0.208558
0.938711
0.705583
0.538335
0.416592
0.326728
0.259499
0.208558
0.896488
0.669458
0.508124
0.391659
0.306289
0.242789
0.80459
0.594207
0.447521
0.343215
0.267638
0.211905
0.666461
0.489549
0.368599
0.283609
0.222393
0.177334
0.645382
0.492589
0.384777
0.307018
0.249036
0.204965
0.64398
0.492247
0.38396
0.30579
0.247912
0.20391
0.169933
0.692719
0.509634
0.384012
0.295499
0.231641
0.184583
0.14925
0.843153
0.625688
0.472846
0.36348
0.283848
0.224899
0.180582
0.938711
0.705583
0.538335
0.416592
0.326728
0.259499
0.208558
0.981304
0.742923
0.570209
0.44335
0.348967
0.277889
0.223737
0.981304
0.742923
0.570209
0.44335
0.348967
0.277889
0.223737
0.938711
0.705583
0.538335
0.416592
0.326728
0.259499
0.843153
0.625688
0.472846
0.36348
0.283848
0.224899
0.69272
0.509635
0.384013
0.295499
0.231641
0.184583
0.64398
0.492247
0.383959
0.305789
0.24791
0.203907
0.64398
0.492247
0.38396
0.305789
0.24791
0.203907
0.169929
0.69272
0.509635
0.384013
0.295499
0.231641
0.184583
0.149249
0.843153
0.625688
0.472846
0.36348
0.283848
0.224899
0.180581
0.938711
0.705583
0.538335
0.416592
0.326728
0.259499
0.208557
0.981304
0.742923
0.570209
0.44335
0.348967
0.277889
0.223737
0.981304
0.742923
0.570209
0.44335
0.348967
0.277889
0.223737
0.938711
0.705583
0.538335
0.416592
0.326728
0.259499
0.843153
0.625688
0.472846
0.36348
0.283848
0.2249
0.692719
0.509634
0.384012
0.295499
0.231641
0.184584
0.64398
0.492247
0.38396
0.30579
0.247912
0.20391
0.645382
0.492589
0.384777
0.307018
0.249036
0.204965
0.170971
0.666461
0.489549
0.368599
0.283609
0.222393
0.177334
0.143534
0.80459
0.594207
0.447521
0.343215
0.267639
0.211905
0.170127
0.896488
0.669458
0.508124
0.391659
0.306289
0.242789
0.194893
0.938711
0.705583
0.538335
0.416592
0.326728
0.259499
0.208558
1.26863
0.938711
0.705583
0.538335
0.416592
0.326728
0.259499
0.208558
1.22111
0.896488
0.669458
0.508124
0.391659
0.306289
0.242789
1.11236
0.80459
0.594207
0.44752
0.343215
0.267638
0.211906
0.933539
0.66646
0.489549
0.368599
0.283609
0.222393
0.177336
0.869476
0.645382
0.492589
0.384777
0.30702
0.249039
0.204971
0.649782
0.497017
0.389484
0.311295
0.252985
0.208993
0.175236
0.618637
0.453967
0.342044
0.263662
0.207327
0.165921
0.134869
0.72564
0.532162
0.399158
0.305556
0.238234
0.18884
0.151933
0.80459
0.594207
0.44752
0.343215
0.267638
0.211905
0.170128
0.843153
0.625688
0.472846
0.36348
0.283848
0.2249
0.180582
1.15828
0.843153
0.625688
0.472846
0.36348
0.283848
0.224899
0.180581
1.11236
0.80459
0.594207
0.447521
0.343215
0.267638
0.211905
1.01411
0.72564
0.532162
0.399157
0.305556
0.238234
0.18884
0.869294
0.618637
0.453967
0.342044
0.263663
0.207327
0.165922
0.873578
0.649782
0.497017
0.389486
0.311299
0.25299
0.208999
0.740295
0.565916
0.443941
0.356042
0.290958
0.241458
0.203053
0.562055
0.415374
0.315956
0.246343
0.196237
0.159239
0.131274
0.618637
0.453967
0.342044
0.263663
0.207327
0.165922
0.134872
0.666461
0.489549
0.368599
0.283609
0.222393
0.177335
0.143537
0.692719
0.509634
0.384012
0.295499
0.231641
0.184583
0.14925
0.967829
0.69272
0.509635
0.384013
0.295499
0.231641
0.184583
0.149248
0.933539
0.666461
0.489549
0.368599
0.283609
0.222393
0.177334
0.869294
0.618637
0.453967
0.342044
0.263662
0.207327
0.165921
0.786936
0.562055
0.415374
0.315956
0.246343
0.196237
0.159239
0.998659
0.740295
0.565916
0.443942
0.356044
0.290961
0.241462
0.720676
0.594606
0.502531
0.432717
0.379339
0.3364
0.300032
0.740295
0.565916
0.443942
0.356044
0.290961
0.241462
0.203064
0.649782
0.497017
0.389486
0.311299
0.25299
0.208999
0.175244
0.645382
0.492589
0.384777
0.30702
0.249039
0.204971
0.170979
0.64398
0.492247
0.38396
0.30579
0.247912
0.20391
0.169933
0.866498
0.64398
0.492247
0.383959
0.305789
0.24791
0.203907
0.169928
0.869476
0.645382
0.492589
0.384777
0.307018
0.249036
0.204965
0.873578
0.649782
0.497017
0.389484
0.311295
0.252985
0.208993
0.998659
0.740295
0.565916
0.443941
0.356042
0.290958
0.241458
0.902024
0.720676
0.594606
0.50253
0.432717
0.379338
0.3364
)
;

boundaryField
{
    inlet
    {
        type            fixedValue;
        value           nonuniform List<scalar> 0();
    }
    ami1
    {
        type            cyclicAMI;
        value           nonuniform List<scalar> 0();
    }
    walls
    {
        type            epsilonWallFunction;
        blending        stepwise;
        value           nonuniform List<scalar> 
271
(
0.869476
0.873578
0.998659
0.902024
0.720676
0.740295
0.649782
0.645382
0.64398
0.64398
0.645382
0.649782
0.740295
0.720676
0.594606
0.565916
0.497017
0.492589
0.492247
0.492247
0.492589
0.497017
0.565916
0.594606
0.502531
0.443941
0.389484
0.384777
0.383959
0.38396
0.384777
0.389486
0.443942
0.50253
0.432717
0.356042
0.311295
0.307018
0.305789
0.30579
0.30702
0.311299
0.356044
0.432717
0.379339
0.290958
0.252985
0.249036
0.24791
0.247912
0.249039
0.25299
0.290961
0.379338
0.3364
0.241458
0.208993
0.204965
0.203907
0.20391
0.204971
0.208999
0.241462
0.3364
0.720676
0.740295
0.649782
0.645382
0.64398
0.64398
0.645382
0.649782
0.740295
0.720676
0.594606
0.565916
0.497017
0.492589
0.492247
0.492247
0.492589
0.497017
0.565916
0.594606
0.50253
0.44394
0.389484
0.384776
0.383959
0.38396
0.384777
0.389486
0.443942
0.502531
0.432716
0.356042
0.311295
0.307017
0.305789
0.30579
0.30702
0.311299
0.356044
0.432717
0.379339
0.290958
0.252985
0.249036
0.24791
0.247912
0.249039
0.25299
0.290961
0.379339
0.3364
0.241457
0.208992
0.204965
0.203907
0.20391
0.204971
0.208999
0.241462
0.3364
0.300032
0.203053
0.175235
0.17097
0.169928
0.169933
0.720676
0.740295
0.649782
0.645382
0.64398
0.64398
0.645382
0.649782
0.740295
0.720676
0.594606
0.565916
0.497017
0.492589
0.492247
0.492247
0.492589
0.497017
0.565916
0.594606
0.50253
0.443942
0.389486
0.384777
0.38396
0.38396
0.384777
0.389484
0.443941
0.502531
0.432716
0.356044
0.311299
0.30702
0.30579
0.305789
0.307018
0.311295
0.356042
0.432717
0.379339
0.290961
0.252989
0.249039
0.247912
0.24791
0.249036
0.252985
0.290958
0.379339
0.3364
0.241461
0.208999
0.204971
0.20391
0.203907
0.204965
0.208993
0.241458
0.3364
0.300032
0.203064
0.175244
0.170979
0.169933
0.169929
0.170971
0.175236
0.203053
0.300032
0.866498
0.869476
0.873578
0.998659
0.902024
0.720676
0.740295
0.649782
0.645382
0.64398
0.64398
0.645382
0.649782
0.740295
0.720676
0.594606
0.565916
0.497017
0.492589
0.492247
0.492247
0.492589
0.497017
0.565916
0.594606
0.502531
0.443942
0.389486
0.384777
0.38396
0.383959
0.384777
0.389484
0.443941
0.50253
0.432717
0.356044
0.311299
0.30702
0.30579
0.305789
0.307018
0.311295
0.356042
0.432717
0.379339
0.290961
0.25299
0.249039
0.247912
0.24791
0.249036
0.252985
0.290958
0.379338
0.3364
0.241462
0.208999
0.204971
0.20391
0.203907
0.204965
0.208993
0.241458
0.3364
0.300032
0.203064
0.175244
0.170979
0.169933
0.169928
)
;
    }
    ami2
    {
        type            cyclicAMI;
        value           nonuniform List<scalar> 0();
    }
    outlet
    {
        type            zeroGradient;
    }
    procBoundary3to2
    {
        type            processor;
        value           nonuniform List<scalar> 
110
(
0.270447
0.173191
0.148856
0.144376
0.143306
0.143313
0.170979
0.170979
0.175244
0.203064
0.300032
0.173205
0.109806
0.111166
0.117748
0.122272
0.122275
0.143538
0.143538
0.134872
0.131274
0.203053
0.148869
0.111173
0.123896
0.138331
0.14678
0.146782
0.170128
0.170128
0.151933
0.134868
0.175236
0.144388
0.117755
0.138334
0.158289
0.169486
0.169486
0.194893
0.194893
0.170126
0.143533
0.17097
0.143313
0.122275
0.146781
0.169486
0.182022
0.182022
0.208558
0.208558
0.180581
0.149249
0.169928
0.143306
0.122272
0.14678
0.169486
0.182022
0.182022
0.208558
0.208558
0.180582
0.149251
0.169933
0.144376
0.117748
0.138331
0.158289
0.169486
0.169486
0.194894
0.194894
0.170128
0.143538
0.170979
0.148856
0.111166
0.123896
0.138334
0.146782
0.14678
0.170126
0.170126
0.151933
0.134872
0.175244
0.173192
0.109806
0.111173
0.117755
0.122275
0.122272
0.143533
0.143533
0.134868
0.131274
0.203064
0.270448
0.173205
0.148869
0.144388
0.143313
0.143306
0.17097
0.17097
0.175236
0.203053
0.300032
)
;
    }
    procBoundary3to4
    {
        type            processor;
        value           nonuniform List<scalar> 
109
(
0.902024
0.998659
0.873578
0.869476
0.866498
0.866498
0.869476
0.873578
0.998659
0.902024
0.998659
0.786936
0.869294
0.93354
0.967829
0.967829
0.933539
0.869294
0.786936
0.998659
0.873578
0.869294
1.01411
1.11236
1.15828
1.15828
1.11236
1.01411
0.869294
0.873578
0.869476
0.933539
1.11236
1.22111
1.26863
1.26863
1.22111
1.11236
0.93354
0.869476
0.866498
0.967829
1.15828
1.26863
1.31522
1.31522
1.26863
1.15828
0.96783
0.866498
0.866498
0.96783
1.15828
1.26863
1.31522
1.31522
1.31522
1.26863
1.26863
1.15828
1.15828
0.967829
0.967829
0.866498
0.866498
0.869476
0.93354
1.11236
1.22111
1.26863
1.26863
1.74299
1.6928
1.57142
1.3512
1.2275
0.873578
0.869294
1.01411
1.11236
1.15828
1.15828
1.62326
1.57142
1.455
1.2661
1.227
0.998659
0.786936
0.869294
0.933539
0.967829
0.967829
1.39506
1.35121
1.2661
1.1476
1.40267
0.902024
0.998659
0.873578
0.869476
0.866498
0.866498
1.22669
1.2275
1.227
1.40267
1.18308
)
;
    }
}


// ************************************************************************* //
