/*--------------------------------*- C++ -*----------------------------------*\
| =========                 |                                                 |
| \\      /  F ield         | OpenFOAM: The Open Source CFD Toolbox           |
|  \\    /   O peration     | Version:  2212                                  |
|   \\  /    A nd           | Website:  www.openfoam.com                      |
|    \\/     M anipulation  |                                                 |
\*---------------------------------------------------------------------------*/
FoamFile
{
    version     2.0;
    format      ascii;
    arch        "LSB;label=32;scalar=64";
    class       volScalarField;
    location    "2.15";
    object      epsilon;
}
// * * * * * * * * * * * * * * * * * * * * * * * * * * * * * * * * * * * * * //

dimensions      [0 2 -3 0 0 0 0];

internalField   nonuniform List<scalar> 
6840
(
90.5034
12.1248
4.38869
2.46659
1.63315
1.18307
0.902016
0.720665
0.59459
0.502508
0.432684
0.379297
0.336332
0.29992
0.270252
0.246264
0.2268
0.21134
0.202183
0.192859
58.5856
14.5696
6.08947
3.33295
2.08217
1.40267
0.998649
0.740281
0.565899
0.443916
0.356009
0.290912
0.241386
0.202938
0.173024
0.149725
0.131225
0.1164
0.105099
0.0971747
45.0226
13.4729
5.73075
3.07322
1.86022
1.22698
0.873564
0.649763
0.496993
0.389449
0.311252
0.252929
0.208917
0.17513
0.148704
0.127728
0.110907
0.0972789
0.0861922
0.077588
38.7028
13.0541
5.74336
3.08733
1.88066
1.22749
0.869464
0.645367
0.492571
0.384754
0.306987
0.248996
0.204913
0.1709
0.144279
0.123159
0.106179
0.0923471
0.0810045
0.0724863
36.0571
12.8529
5.76645
3.10211
1.89475
1.22669
0.866496
0.643978
0.492245
0.383958
0.305789
0.247912
0.203912
0.169941
0.143329
0.122191
0.105186
0.0913376
0.0800106
0.071517
36.0571
12.8529
5.76645
3.10212
1.89476
1.22669
0.866505
0.643991
0.492261
0.38398
0.30582
0.247953
0.203969
0.17002
0.143442
0.122352
0.105416
0.0916705
0.0805148
0.0725155
38.7028
13.0541
5.74336
3.08734
1.88067
1.22751
0.869486
0.645396
0.492608
0.384802
0.307056
0.249088
0.205039
0.171077
0.144525
0.123507
0.10668
0.0930783
0.0820447
0.0737221
45.0226
13.4729
5.73075
3.07323
1.86023
1.227
0.873584
0.649791
0.497029
0.38951
0.311328
0.253029
0.209052
0.175319
0.148975
0.128112
0.111461
0.0980903
0.087415
0.0794291
58.5856
14.5696
6.08947
3.33295
2.08217
1.40267
0.998654
0.740289
0.565908
0.443937
0.356039
0.290958
0.241457
0.203076
0.173219
0.150014
0.131694
0.117235
0.106573
0.0996039
90.5034
12.1248
4.38869
2.46659
1.63315
1.18307
0.902016
0.720665
0.59459
0.502506
0.432685
0.379292
0.336338
0.299911
0.270252
0.246263
0.226798
0.211335
0.202174
0.192856
58.5856
14.5696
6.08947
3.33295
2.08217
1.40267
0.998655
0.740289
0.565908
0.443937
0.35604
0.290959
0.241458
0.20308
0.173221
0.150014
0.131696
0.11724
0.106579
0.0996093
16.5373
9.49239
5.0127
2.8606
1.75746
1.14759
0.786931
0.562048
0.415366
0.315946
0.24633
0.19622
0.159216
0.131245
0.109752
0.0931736
0.0801243
0.0696343
0.0606191
0.0562527
13.6679
8.73671
5.07741
3.05388
1.92223
1.26609
0.869288
0.618629
0.453957
0.342031
0.263647
0.207307
0.165897
0.134839
0.111132
0.0926691
0.0781387
0.0666052
0.0571708
0.0497629
12.9054
8.33993
5.07879
3.15547
2.02774
1.3512
0.933536
0.666457
0.489543
0.368592
0.2836
0.222382
0.177321
0.14352
0.11774
0.0977522
0.0820563
0.0695816
0.0595496
0.0513675
12.6882
8.1544
5.07113
3.20038
2.07939
1.39506
0.967831
0.692723
0.509637
0.384016
0.295503
0.231647
0.184592
0.149262
0.122295
0.101385
0.0849635
0.0719095
0.0614253
0.0529682
12.6882
8.1544
5.07113
3.20038
2.07939
1.39506
0.967834
0.692726
0.509643
0.384023
0.295512
0.231657
0.184604
0.149273
0.122305
0.101404
0.0849888
0.0719389
0.0614548
0.0530002
12.9054
8.33993
5.07879
3.15547
2.02775
1.35121
0.933542
0.666464
0.489554
0.368606
0.283618
0.222403
0.177345
0.143543
0.117765
0.0977935
0.082109
0.0696431
0.0596139
0.0513604
13.6679
8.73671
5.07741
3.05388
1.92224
1.2661
0.869292
0.618633
0.453965
0.342042
0.26366
0.207324
0.165916
0.134855
0.111158
0.0927038
0.078179
0.0666463
0.057194
0.0501926
16.5373
9.49239
5.0127
2.8606
1.75746
1.14759
0.786931
0.562047
0.415366
0.315946
0.24633
0.19622
0.159216
0.131236
0.10976
0.0931766
0.0801259
0.0696354
0.0606199
0.0562568
58.5856
14.5696
6.08947
3.33295
2.08217
1.40267
0.998649
0.740281
0.565899
0.443916
0.356008
0.290911
0.241386
0.202932
0.173024
0.149726
0.131225
0.116399
0.105096
0.0971735
45.0226
13.4729
5.73075
3.07323
1.86023
1.227
0.873584
0.649791
0.49703
0.38951
0.311329
0.25303
0.209053
0.175319
0.148976
0.128114
0.111464
0.0980935
0.0874192
0.0794345
13.6679
8.73671
5.07741
3.05388
1.92224
1.2661
0.869292
0.618634
0.453965
0.342042
0.26366
0.207324
0.165917
0.134864
0.111149
0.0927011
0.0781785
0.0666477
0.0571909
0.050184
11.8601
7.76395
4.99734
3.24076
2.14419
1.45499
1.0141
0.725634
0.532156
0.399149
0.305546
0.238222
0.188824
0.151913
0.123869
0.102235
0.0853171
0.0719261
0.0611842
0.0526144
11.6229
7.60535
5.0103
3.34209
2.26848
1.57142
1.11236
0.804587
0.594203
0.447515
0.343208
0.26763
0.211895
0.170116
0.13832
0.113775
0.0945876
0.0794103
0.0672738
0.0574924
11.5726
7.56718
5.02065
3.38344
2.32103
1.62326
1.15828
0.843156
0.62569
0.472848
0.363482
0.283851
0.224903
0.180587
0.146789
0.120661
0.100216
0.0840342
0.0710911
0.0606085
11.5726
7.56718
5.02065
3.38344
2.32103
1.62326
1.15828
0.843156
0.625692
0.472851
0.363486
0.283855
0.224908
0.180589
0.14679
0.120667
0.100224
0.0840448
0.0711042
0.0606438
11.6229
7.60535
5.0103
3.34209
2.26848
1.57142
1.11236
0.804588
0.594206
0.44752
0.343214
0.267637
0.211901
0.17012
0.138326
0.113787
0.0946041
0.0794307
0.0672998
0.0575622
11.8601
7.76395
4.99734
3.24076
2.14419
1.45499
1.0141
0.725634
0.532155
0.399149
0.305546
0.238222
0.188824
0.151911
0.123871
0.102236
0.0853182
0.0719276
0.0611857
0.0526192
13.6679
8.73671
5.07741
3.05388
1.92223
1.26609
0.869288
0.618629
0.453957
0.342031
0.263647
0.207308
0.165898
0.134841
0.11113
0.0926689
0.0781393
0.0666062
0.0571717
0.0497655
45.0226
13.4729
5.73075
3.07322
1.86022
1.22698
0.873564
0.649763
0.496993
0.389449
0.311252
0.252928
0.208916
0.175129
0.148705
0.127729
0.110909
0.0972806
0.0861945
0.0775904
38.7028
13.0541
5.74336
3.08734
1.88067
1.22751
0.869486
0.645397
0.492608
0.384802
0.307057
0.249088
0.205039
0.171075
0.144526
0.123509
0.106682
0.0930807
0.0820478
0.0737263
12.9054
8.33993
5.07879
3.15547
2.02775
1.35121
0.933542
0.666464
0.489554
0.368606
0.283618
0.222404
0.177348
0.143549
0.117759
0.0977915
0.0821091
0.0696443
0.0596159
0.0513624
11.6229
7.60535
5.01031
3.34209
2.26848
1.57142
1.11236
0.804589
0.594206
0.44752
0.343214
0.267637
0.211903
0.170122
0.138323
0.113786
0.0946036
0.0794305
0.0672997
0.0575614
11.4933
7.5119
5.02843
3.434
2.3892
1.6928
1.22111
0.896487
0.669456
0.508122
0.391656
0.306285
0.242784
0.194886
0.158279
0.129952
0.107776
0.0902254
0.0761875
0.064808
11.4757
7.50136
5.04297
3.47002
2.43665
1.74299
1.26863
0.938712
0.705583
0.538335
0.416593
0.326728
0.259498
0.208556
0.169484
0.139167
0.115387
0.0965403
0.0814421
0.0691208
11.4757
7.50136
5.04297
3.47002
2.43665
1.74299
1.26863
0.938712
0.705584
0.538336
0.416594
0.326728
0.259499
0.208557
0.169483
0.139167
0.115388
0.0965414
0.0814421
0.0691033
11.4933
7.5119
5.02843
3.434
2.3892
1.6928
1.22111
0.896486
0.669456
0.508122
0.391656
0.306285
0.242784
0.194886
0.158279
0.129952
0.107776
0.0902263
0.0761889
0.0648095
11.6229
7.60535
5.0103
3.34209
2.26848
1.57142
1.11236
0.804587
0.594203
0.447515
0.343208
0.267631
0.211897
0.170117
0.138318
0.113775
0.0945885
0.0794119
0.0672758
0.0574949
12.9054
8.33993
5.07879
3.15547
2.02774
1.3512
0.933536
0.666457
0.489543
0.368592
0.283601
0.222383
0.177323
0.143526
0.117733
0.0977496
0.0820553
0.0695812
0.0595493
0.0513667
38.7028
13.0541
5.74336
3.08733
1.88066
1.22749
0.869464
0.645367
0.492571
0.384754
0.306987
0.248997
0.204914
0.1709
0.144279
0.12316
0.10618
0.0923482
0.0810063
0.0724898
36.0571
12.8529
5.76645
3.10212
1.89476
1.22669
0.866505
0.643991
0.492262
0.38398
0.305821
0.247954
0.203969
0.17002
0.143442
0.122352
0.105417
0.0916713
0.0805155
0.0725174
12.6882
8.1544
5.07113
3.20038
2.07939
1.39506
0.967834
0.692726
0.509643
0.384023
0.295512
0.231658
0.184605
0.149276
0.122305
0.101405
0.0849907
0.0719419
0.0614586
0.0530047
11.5726
7.56718
5.02065
3.38344
2.32103
1.62326
1.15828
0.843157
0.625692
0.472851
0.363486
0.283856
0.224909
0.180591
0.14679
0.120667
0.100226
0.0840466
0.0711063
0.0606455
11.4757
7.50136
5.04297
3.47002
2.43665
1.74299
1.26863
0.938712
0.705584
0.538336
0.416594
0.326729
0.259499
0.208557
0.169483
0.139168
0.115388
0.0965418
0.0814425
0.0691042
11.4647
7.49683
5.0577
3.50272
2.48038
1.79068
1.31522
0.981305
0.742925
0.57021
0.44335
0.348968
0.277888
0.223735
0.182018
0.149543
0.124005
0.103725
0.0874412
0.0740569
11.4647
7.49683
5.0577
3.50272
2.48038
1.79068
1.31522
0.981305
0.742924
0.57021
0.44335
0.348968
0.277888
0.223735
0.182018
0.149543
0.124005
0.103725
0.0874413
0.0740563
11.4757
7.50136
5.04297
3.47002
2.43665
1.74299
1.26863
0.938712
0.705583
0.538335
0.416593
0.326728
0.259499
0.208556
0.169483
0.139167
0.115387
0.096541
0.0814431
0.0691208
11.5726
7.56718
5.02065
3.38344
2.32103
1.62326
1.15828
0.843156
0.62569
0.472848
0.363483
0.283852
0.224905
0.180589
0.146786
0.12066
0.100216
0.0840354
0.0710927
0.0606113
12.6882
8.1544
5.07113
3.20038
2.07939
1.39506
0.967831
0.692723
0.509637
0.384016
0.295503
0.231647
0.184593
0.149268
0.122289
0.101383
0.0849622
0.0719086
0.0614244
0.0529672
36.0571
12.8529
5.76645
3.10211
1.89475
1.22669
0.866496
0.643978
0.492245
0.383958
0.305789
0.247913
0.203914
0.169943
0.143326
0.122189
0.105185
0.0913367
0.0800099
0.0715168
36.0571
12.8529
5.76645
3.10211
1.89475
1.22669
0.866496
0.643978
0.492245
0.383958
0.305789
0.247912
0.203912
0.16994
0.143329
0.122191
0.105186
0.091337
0.0800097
0.071515
12.6882
8.1544
5.07113
3.20038
2.07939
1.39506
0.967831
0.692723
0.509638
0.384016
0.295504
0.231648
0.184592
0.149263
0.122295
0.101386
0.0849651
0.0719118
0.0614281
0.0529715
11.5726
7.56718
5.02065
3.38344
2.32103
1.62326
1.15828
0.843156
0.62569
0.472848
0.363483
0.283852
0.224904
0.180587
0.146789
0.120662
0.100217
0.084036
0.0710934
0.0606108
11.4757
7.50136
5.04297
3.47002
2.43665
1.74299
1.26863
0.938712
0.705584
0.538335
0.416593
0.326728
0.259498
0.208556
0.169484
0.139167
0.115387
0.0965409
0.0814432
0.0691218
11.4647
7.49683
5.0577
3.50272
2.48038
1.79068
1.31522
0.981305
0.742925
0.57021
0.44335
0.348968
0.277888
0.223735
0.182018
0.149543
0.124005
0.103725
0.0874411
0.0740566
11.4647
7.49683
5.0577
3.50272
2.48038
1.79068
1.31522
0.981305
0.742924
0.57021
0.44335
0.348968
0.277888
0.223735
0.182018
0.149543
0.124005
0.103725
0.0874411
0.0740554
11.4757
7.50136
5.04297
3.47002
2.43665
1.74299
1.26863
0.938712
0.705584
0.538336
0.416594
0.326728
0.259499
0.208556
0.169484
0.139167
0.115388
0.0965414
0.0814421
0.0691026
11.5726
7.56718
5.02065
3.38344
2.32103
1.62326
1.15828
0.843156
0.625692
0.472851
0.363486
0.283855
0.224907
0.18059
0.146791
0.120667
0.100225
0.0840449
0.0711041
0.0606428
12.6882
8.1544
5.07113
3.20038
2.07939
1.39506
0.967834
0.692726
0.509643
0.384023
0.295511
0.231657
0.184603
0.149276
0.122305
0.101404
0.0849886
0.0719386
0.0614545
0.0529998
36.0571
12.8529
5.76645
3.10212
1.89476
1.22669
0.866505
0.643991
0.492262
0.38398
0.305821
0.247954
0.203971
0.170023
0.143438
0.122349
0.105414
0.0916686
0.0805133
0.0725158
38.7028
13.0541
5.74336
3.08733
1.88066
1.22749
0.869464
0.645367
0.492571
0.384754
0.306987
0.248996
0.204913
0.1709
0.144279
0.123159
0.106178
0.0923454
0.0810018
0.0724816
12.9054
8.33993
5.07879
3.15547
2.02774
1.3512
0.933535
0.666457
0.489543
0.368592
0.2836
0.222382
0.177321
0.14352
0.11774
0.0977525
0.0820564
0.0695814
0.0595495
0.0513662
11.6229
7.60535
5.0103
3.34209
2.26848
1.57142
1.11236
0.804587
0.594203
0.447515
0.343208
0.26763
0.211895
0.170115
0.138321
0.113776
0.0945877
0.0794101
0.0672734
0.0574902
11.4933
7.5119
5.02843
3.434
2.3892
1.6928
1.22111
0.896487
0.669456
0.508122
0.391656
0.306285
0.242783
0.194886
0.158279
0.129952
0.107775
0.0902248
0.0761867
0.0648065
11.4757
7.50136
5.04297
3.47002
2.43665
1.74299
1.26863
0.938712
0.705584
0.538336
0.416594
0.326728
0.259499
0.208557
0.169483
0.139167
0.115388
0.0965411
0.0814415
0.0691022
11.4757
7.50136
5.04297
3.47002
2.43665
1.74299
1.26863
0.938712
0.705583
0.538335
0.416593
0.326728
0.259499
0.208557
0.169483
0.139167
0.115387
0.0965409
0.0814431
0.0691201
11.4933
7.5119
5.02843
3.434
2.3892
1.6928
1.22111
0.896487
0.669456
0.508122
0.391656
0.306285
0.242784
0.194886
0.158279
0.129952
0.107776
0.0902256
0.076188
0.0648079
11.6229
7.60535
5.0103
3.34209
2.26848
1.57142
1.11236
0.804589
0.594206
0.44752
0.343214
0.267637
0.211901
0.17012
0.138326
0.113787
0.0946029
0.0794291
0.0672976
0.0575588
12.9054
8.33993
5.07879
3.15547
2.02775
1.35121
0.933542
0.666465
0.489554
0.368606
0.283618
0.222403
0.177345
0.143542
0.117766
0.0977936
0.0821091
0.0696431
0.0596139
0.0513597
38.7028
13.0541
5.74336
3.08734
1.88067
1.22751
0.869486
0.645396
0.492608
0.384802
0.307056
0.249088
0.205039
0.171077
0.144524
0.123506
0.106679
0.0930772
0.0820437
0.0737214
45.0226
13.4729
5.73075
3.07322
1.86022
1.22698
0.873564
0.649763
0.496994
0.38945
0.311252
0.252929
0.208917
0.17513
0.148703
0.127727
0.110906
0.0972764
0.0861884
0.0775809
13.6679
8.73671
5.07741
3.05388
1.92223
1.26609
0.869287
0.618629
0.453957
0.342031
0.263646
0.207307
0.165896
0.134838
0.111132
0.0926681
0.0781362
0.0666006
0.0571701
0.0497556
11.8601
7.76395
4.99734
3.24076
2.14419
1.45499
1.0141
0.725634
0.532155
0.399149
0.305545
0.238221
0.188823
0.151912
0.123869
0.102234
0.0853148
0.0719229
0.0611793
0.052605
11.6229
7.60535
5.0103
3.34209
2.26848
1.57142
1.11236
0.804588
0.594206
0.447519
0.343213
0.267637
0.211902
0.170121
0.138322
0.113785
0.0946017
0.0794279
0.0672961
0.0575571
11.5726
7.56718
5.02065
3.38344
2.32103
1.62326
1.15828
0.843156
0.625692
0.472851
0.363486
0.283856
0.224908
0.180591
0.14679
0.120666
0.100224
0.0840452
0.0711046
0.0606436
11.5726
7.56718
5.02065
3.38344
2.32103
1.62326
1.15828
0.843155
0.62569
0.472848
0.363483
0.283852
0.224904
0.180588
0.146789
0.120661
0.100217
0.0840362
0.0710938
0.0606109
11.6229
7.60535
5.0103
3.34209
2.26848
1.57142
1.11236
0.804587
0.594202
0.447515
0.343208
0.267631
0.211897
0.170118
0.138318
0.113775
0.094588
0.0794112
0.0672751
0.0574932
11.8601
7.76395
4.99734
3.24076
2.14419
1.45499
1.0141
0.725634
0.532155
0.399149
0.305545
0.238221
0.188824
0.151912
0.12387
0.102235
0.0853162
0.0719249
0.0611825
0.0526108
13.6679
8.73671
5.07741
3.05388
1.92224
1.2661
0.869291
0.618635
0.453965
0.342042
0.26366
0.207324
0.165916
0.134855
0.111157
0.0927037
0.0781789
0.0666462
0.0571936
0.0501791
45.0226
13.4729
5.73075
3.07323
1.86023
1.227
0.873584
0.649791
0.49703
0.38951
0.311328
0.253029
0.209052
0.175319
0.148975
0.128112
0.111461
0.0980901
0.0874155
0.07943
58.5856
14.5696
6.08947
3.33295
2.08217
1.40267
0.99865
0.740282
0.5659
0.443917
0.35601
0.290912
0.241387
0.202939
0.173025
0.149724
0.131223
0.116398
0.105096
0.0971694
16.5373
9.49239
5.0127
2.8606
1.75746
1.14759
0.786931
0.562048
0.415366
0.315946
0.24633
0.196219
0.159215
0.131244
0.109752
0.0931725
0.0801226
0.0696324
0.0606152
0.0562454
13.6679
8.73671
5.07741
3.05388
1.92224
1.2661
0.869292
0.618633
0.453965
0.342042
0.26366
0.207324
0.165917
0.134863
0.111149
0.0927003
0.0781776
0.0666466
0.0571894
0.0501837
12.9054
8.33993
5.07879
3.15547
2.02775
1.35121
0.933542
0.666464
0.489554
0.368606
0.283618
0.222404
0.177348
0.143549
0.117758
0.0977912
0.0821089
0.0696442
0.0596157
0.0513625
12.6882
8.1544
5.07113
3.20038
2.07939
1.39506
0.967835
0.692726
0.509643
0.384023
0.295512
0.231658
0.184605
0.149277
0.122305
0.101405
0.0849909
0.0719421
0.061459
0.0530049
12.6882
8.1544
5.07113
3.20038
2.07939
1.39506
0.967832
0.692722
0.509637
0.384016
0.295504
0.231648
0.184593
0.149264
0.122295
0.101386
0.0849652
0.0719117
0.061428
0.0529709
12.9054
8.33993
5.07879
3.15547
2.02774
1.3512
0.933536
0.666456
0.489543
0.368592
0.2836
0.222382
0.177323
0.143527
0.117734
0.0977497
0.082055
0.0695806
0.0595488
0.0513656
13.6679
8.73671
5.07741
3.05388
1.92223
1.26609
0.869287
0.618628
0.453957
0.342031
0.263646
0.207307
0.165896
0.134841
0.111129
0.0926664
0.0781355
0.0666003
0.0571698
0.049755
16.5373
9.49239
5.0127
2.8606
1.75746
1.14759
0.78693
0.562048
0.415366
0.315946
0.24633
0.19622
0.159216
0.131236
0.109759
0.0931758
0.0801247
0.0696341
0.0606168
0.0562453
58.5856
14.5696
6.08947
3.33295
2.08217
1.40267
0.998654
0.74029
0.565909
0.443937
0.35604
0.290959
0.241458
0.203076
0.17322
0.150014
0.131695
0.117237
0.106573
0.099601
90.5034
12.1248
4.38869
2.46659
1.63315
1.18307
0.902016
0.720666
0.59459
0.502508
0.432684
0.379298
0.336334
0.299921
0.270252
0.246264
0.226801
0.211339
0.20218
0.192864
58.5856
14.5696
6.08947
3.33295
2.08217
1.40267
0.998655
0.740289
0.565909
0.443938
0.356041
0.29096
0.241459
0.203082
0.173222
0.150015
0.131697
0.117241
0.10658
0.099611
45.0226
13.4729
5.73075
3.07323
1.86023
1.227
0.873585
0.649791
0.49703
0.389511
0.311329
0.25303
0.209054
0.175319
0.148977
0.128115
0.111464
0.0980945
0.0874203
0.0794349
38.7028
13.0541
5.74337
3.08734
1.88067
1.22751
0.869486
0.645397
0.492609
0.384803
0.307057
0.249089
0.205039
0.171075
0.144527
0.12351
0.106683
0.0930812
0.0820483
0.0737256
36.0571
12.8529
5.76645
3.10212
1.89476
1.22669
0.866506
0.643992
0.492262
0.383981
0.305821
0.247954
0.20397
0.17002
0.143443
0.122352
0.105417
0.0916712
0.0805152
0.0725163
36.0571
12.8529
5.76645
3.10211
1.89475
1.22669
0.866496
0.643978
0.492245
0.383958
0.305789
0.247912
0.203912
0.169941
0.143329
0.122191
0.105186
0.0913368
0.0800091
0.0715139
38.7028
13.0541
5.74336
3.08733
1.88066
1.22749
0.869463
0.645367
0.492571
0.384754
0.306987
0.248996
0.204913
0.1709
0.144279
0.123159
0.106179
0.092346
0.0810026
0.0724824
45.0226
13.4729
5.73075
3.07322
1.86022
1.22698
0.873563
0.649764
0.496994
0.38945
0.311252
0.252929
0.208917
0.175129
0.148705
0.127729
0.110908
0.0972787
0.0861918
0.0775867
58.5856
14.5696
6.08947
3.33295
2.08217
1.40267
0.998649
0.740282
0.565899
0.443917
0.356009
0.290912
0.241387
0.202933
0.173025
0.149726
0.131225
0.116398
0.105095
0.0971677
90.5034
12.1248
4.38869
2.46659
1.63315
1.18307
0.902015
0.720665
0.594591
0.502507
0.432686
0.379293
0.336339
0.299912
0.270254
0.246265
0.2268
0.211337
0.202174
0.192849
0.362322
0.289348
0.23294
0.201083
0.18221
0.170479
0.161655
0.154398
0.148001
0.142528
0.138015
0.133851
0.130018
0.126173
0.122644
0.119281
0.116177
0.113172
0.110374
0.107742
0.105196
0.102778
0.100474
0.0983732
0.0964033
0.0945125
0.0927109
0.0909498
0.0892682
0.0876577
0.0861494
0.0846911
0.0832809
0.0818978
0.0805775
0.0794266
0.078355
0.0772854
0.0763763
0.0746111
0.14064
0.116771
0.0996881
0.0872933
0.0786893
0.0726114
0.0678547
0.0639715
0.0604778
0.0575318
0.0551203
0.0529015
0.0510279
0.0491739
0.0474582
0.0458549
0.0443967
0.043047
0.0417978
0.0406389
0.0395401
0.0384984
0.0375326
0.0366472
0.0358375
0.0350787
0.0343524
0.0336516
0.0329766
0.0323292
0.0317079
0.0311124
0.0305463
0.0300024
0.0294868
0.0289908
0.0285332
0.0280968
0.0276896
0.0272102
0.09889
0.0839309
0.073404
0.0649011
0.0587706
0.0540869
0.0501282
0.046784
0.0439919
0.0415816
0.0395024
0.0376492
0.0360921
0.0345296
0.0331341
0.031891
0.0307663
0.0297609
0.0288066
0.0279171
0.0270843
0.026257
0.0254875
0.0247954
0.0241731
0.0235937
0.0230347
0.0224973
0.021984
0.0214931
0.0210206
0.0205644
0.020131
0.019721
0.0193304
0.0189611
0.0186013
0.0182451
0.0179047
0.017572
0.0765969
0.0681202
0.0610655
0.0552651
0.0504659
0.046411
0.0429352
0.0399409
0.0373423
0.035073
0.0330847
0.0313348
0.0297977
0.0283909
0.0271211
0.0259819
0.0249436
0.0240419
0.0231043
0.022243
0.021486
0.0207851
0.0201177
0.0194938
0.0189164
0.0183798
0.0178801
0.0174075
0.0169654
0.0165444
0.0161365
0.0157454
0.0153739
0.0150361
0.0147081
0.0144048
0.0141065
0.013826
0.0135566
0.0132893
0.0674773
0.060577
0.0547317
0.0497769
0.0455679
0.0419798
0.0388913
0.0362084
0.0338494
0.0317656
0.0299172
0.0282747
0.0268261
0.0254869
0.0242802
0.0231996
0.0222177
0.0213135
0.0204888
0.019724
0.0190541
0.0183838
0.0177213
0.0171254
0.0165849
0.0160798
0.0156153
0.0151774
0.0147722
0.0143883
0.0140189
0.013666
0.0133352
0.013028
0.0127236
0.0124445
0.0121755
0.0119247
0.0116877
0.0114661
0.0704045
0.0601497
0.0532671
0.0479184
0.0436014
0.0400341
0.0370322
0.0344634
0.0322166
0.0302291
0.0284619
0.0268886
0.0254936
0.0242095
0.0230495
0.0219976
0.0210395
0.0201649
0.0193749
0.0186494
0.0179823
0.0173658
0.0167996
0.0162752
0.0157261
0.0152065
0.0147389
0.0143145
0.0139331
0.0135694
0.0132347
0.0129189
0.0125801
0.0123032
0.0119732
0.0117298
0.0114752
0.011246
0.011024
0.0108138
0.0718487
0.0608316
0.053488
0.0480326
0.0436796
0.0401166
0.0371328
0.0345748
0.0323315
0.0303518
0.0285965
0.0270362
0.0256501
0.0243782
0.0232276
0.0221822
0.021229
0.0203598
0.0195667
0.0188482
0.018191
0.017586
0.0170113
0.0164973
0.0159416
0.0154304
0.0149739
0.0145562
0.0141758
0.0138042
0.0134597
0.0131345
0.0127914
0.01251
0.0122174
0.0119683
0.0117202
0.0114812
0.011251
0.0110307
0.0736935
0.0626209
0.0553799
0.0500963
0.0457989
0.0422397
0.0392079
0.0365835
0.0342915
0.0322748
0.030489
0.0289104
0.0275071
0.0262174
0.0250486
0.0239846
0.0230101
0.0221318
0.0213241
0.0205803
0.0198985
0.0192671
0.0186294
0.0180417
0.0175117
0.0170116
0.0165468
0.0161095
0.0156865
0.0152667
0.0148814
0.0145338
0.0142204
0.0139167
0.0136231
0.0133386
0.0130601
0.0127934
0.0125404
0.0122964
0.0787494
0.0705661
0.0631597
0.0570081
0.052113
0.0481441
0.0448521
0.0420699
0.0396622
0.0375637
0.0357169
0.0341259
0.0326968
0.0313772
0.0301632
0.0290254
0.0278779
0.026875
0.0259559
0.0251136
0.0243186
0.023582
0.0228905
0.0222196
0.0216113
0.0210318
0.0204938
0.0199925
0.0195253
0.0190877
0.0186752
0.0182826
0.0179137
0.0175655
0.0172276
0.0168903
0.0165696
0.0162695
0.0159915
0.0157009
0.123628
0.104774
0.0893947
0.0787172
0.0714811
0.066376
0.0624133
0.0591812
0.0561542
0.0536517
0.0515346
0.0497266
0.0480479
0.0462342
0.0445618
0.0430324
0.0415808
0.0402366
0.0389769
0.0378122
0.0367152
0.0357004
0.0347687
0.0339129
0.0331263
0.0323845
0.0316814
0.0310165
0.030389
0.0297919
0.0292275
0.0286945
0.0281921
0.0277105
0.0272509
0.0268118
0.0263929
0.02601
0.0256771
0.0252615
0.36229
0.289359
0.23284
0.200912
0.182059
0.170072
0.161095
0.153808
0.147309
0.141965
0.137418
0.133449
0.129671
0.125911
0.122412
0.119114
0.116031
0.113072
0.11031
0.107681
0.105182
0.102757
0.100497
0.0983834
0.0964368
0.0945264
0.092724
0.0909508
0.0892597
0.0876407
0.0861305
0.08467
0.08326
0.0818775
0.0805669
0.0793655
0.0782525
0.0771489
0.0762153
0.0743553
0.12361
0.104834
0.0895108
0.0788369
0.0716009
0.066626
0.0627032
0.0594787
0.056493
0.0539373
0.0518489
0.0499325
0.0482628
0.0463837
0.0446973
0.043129
0.0416764
0.0403026
0.0390297
0.0378544
0.0367425
0.0357127
0.0347717
0.0339093
0.0331214
0.0323797
0.0316805
0.0310194
0.030396
0.0298033
0.029242
0.0287113
0.0282122
0.0277279
0.027272
0.0268198
0.0264305
0.0260744
0.0257575
0.0253583
0.0642674
0.0533093
0.046794
0.0413438
0.0368999
0.0337503
0.0314989
0.0293856
0.0275109
0.0258831
0.0244908
0.0232102
0.0221123
0.0210052
0.0201896
0.0191986
0.0184596
0.0176468
0.0169788
0.0163328
0.0157266
0.0151651
0.0146202
0.0141466
0.0137397
0.0133581
0.0130085
0.0126391
0.0123755
0.0119722
0.0117141
0.0114756
0.0112151
0.0110404
0.0106158
0.0104935
0.0103386
0.0101655
0.0100118
0.00983565
0.054364
0.0432676
0.0374319
0.0325944
0.0293882
0.0266915
0.024422
0.0224825
0.0208242
0.0193851
0.0181478
0.0168926
0.0161059
0.0149363
0.0143285
0.0134173
0.0129244
0.0121973
0.0117729
0.0112079
0.0107632
0.0104064
0.0099047
0.00964021
0.00922134
0.00896602
0.00867894
0.00836011
0.00815083
0.00787173
0.00767819
0.00746896
0.0073129
0.00706474
0.00688449
0.00671079
0.00660362
0.00640997
0.00626019
0.00603088
0.0499064
0.0418847
0.0360659
0.0314336
0.0278179
0.024938
0.0226878
0.0207356
0.0190446
0.017571
0.0162799
0.015133
0.0141061
0.013221
0.0124316
0.0117189
0.0110919
0.0105288
0.00998838
0.00957123
0.00903409
0.00872638
0.0082379
0.00803136
0.00761863
0.00741182
0.00707705
0.00690057
0.00662244
0.00646886
0.00624473
0.00606274
0.00594199
0.00570805
0.00557819
0.00548812
0.00538234
0.00519478
0.00508023
0.00485501
0.0459722
0.0403568
0.0354839
0.0313522
0.0278729
0.0247595
0.0221365
0.020057
0.0184004
0.0169258
0.015619
0.014458
0.0134212
0.0125153
0.011709
0.0109883
0.0103426
0.00976247
0.00923861
0.00876556
0.00833635
0.00794707
0.00759788
0.00727261
0.00698546
0.00669001
0.00645136
0.00618645
0.0059775
0.00579924
0.00562519
0.00542967
0.00531752
0.00510346
0.00498619
0.00491434
0.0048028
0.00464788
0.00452687
0.00432664
0.0457488
0.0402095
0.0353823
0.0312651
0.0277755
0.0247853
0.0221316
0.0197782
0.0180302
0.0166143
0.0153268
0.0141702
0.0131412
0.0122198
0.0114025
0.0106747
0.0100242
0.00944094
0.00891665
0.00844407
0.00801743
0.00763181
0.00728856
0.00698146
0.00667862
0.00639963
0.00615184
0.0059076
0.00570066
0.00551826
0.00533738
0.00518493
0.00504472
0.00487974
0.00474715
0.00466837
0.00454586
0.00442651
0.00424745
0.00410097
0.0461755
0.0403467
0.0353571
0.0311308
0.0275832
0.0245392
0.0218289
0.0195763
0.0179352
0.0165133
0.0152314
0.0140849
0.0130657
0.0121674
0.0113668
0.0106509
0.0100093
0.00943303
0.0089134
0.00844495
0.00802122
0.00763783
0.00729573
0.00698671
0.00669893
0.00641611
0.00618756
0.00589382
0.00571211
0.00546242
0.0053223
0.00517711
0.00503536
0.00484144
0.00470907
0.00462682
0.00450471
0.00437898
0.00421991
0.00405945
0.0454597
0.0400694
0.0350329
0.0307412
0.0272221
0.0240246
0.021646
0.0198586
0.0182582
0.016842
0.0155905
0.0144756
0.0134872
0.0126303
0.0118581
0.0111599
0.0105246
0.00995484
0.00942581
0.00895686
0.0085252
0.00813611
0.00780661
0.00740443
0.00716837
0.00679646
0.00661322
0.0062949
0.0061179
0.0058413
0.00570723
0.00554595
0.00540566
0.00515379
0.00501323
0.00486204
0.00476294
0.00463941
0.00449085
0.00430393
0.0508035
0.0417226
0.0364471
0.0314569
0.0280514
0.025559
0.0234001
0.0215453
0.019921
0.0185063
0.0172619
0.0161552
0.0151991
0.014325
0.0135347
0.0128539
0.0121045
0.0116113
0.0108997
0.0105189
0.00994127
0.00961386
0.00910747
0.00881794
0.00849227
0.00812897
0.00792486
0.0075758
0.00739602
0.00706816
0.00690283
0.0067129
0.00655314
0.00629732
0.00613734
0.00599854
0.00576905
0.00565703
0.00549935
0.00533019
0.0641935
0.053362
0.0467729
0.0415562
0.0372636
0.0340672
0.0314018
0.0292911
0.0273327
0.025735
0.0243542
0.0230529
0.0220617
0.0209799
0.0201084
0.019184
0.0183889
0.0176187
0.0169471
0.0163052
0.0157258
0.0151387
0.0146442
0.0141249
0.0137515
0.0133402
0.0130212
0.0126406
0.0123745
0.0119717
0.0117095
0.0114686
0.011221
0.0109722
0.0107305
0.0106117
0.0101856
0.0100951
0.00996412
0.00979159
0.140648
0.116716
0.0995927
0.0871605
0.0785226
0.0724
0.0676203
0.0637249
0.0601791
0.057318
0.054818
0.0527173
0.0508618
0.049036
0.0473432
0.0457625
0.0443262
0.0429895
0.0417665
0.0406088
0.0395307
0.0384972
0.0375406
0.0366588
0.0358492
0.0350909
0.0343615
0.033659
0.0329819
0.0323323
0.03171
0.0311141
0.0305473
0.0300057
0.0294904
0.0289997
0.0285314
0.0280817
0.0276591
0.0271615
0.0787763
0.0706567
0.0632637
0.0570293
0.0522046
0.0482573
0.0449718
0.0421891
0.0397769
0.0376698
0.035819
0.0341757
0.0327666
0.0314322
0.0302085
0.0290609
0.0279147
0.026894
0.025979
0.0251347
0.0243307
0.0235927
0.0228893
0.0222205
0.0216104
0.0210311
0.0204949
0.0199955
0.0195307
0.0190955
0.0186859
0.0182965
0.0179306
0.0175848
0.0172488
0.0169107
0.0165878
0.0162969
0.0160324
0.0157555
0.0507893
0.0418735
0.0366667
0.0313335
0.0280422
0.0255784
0.0234433
0.021592
0.0199711
0.0185539
0.0173238
0.016194
0.0152507
0.0143105
0.0136283
0.0127798
0.0122516
0.0114611
0.0110374
0.0104234
0.00999277
0.0096488
0.00911905
0.00886408
0.0084332
0.00815479
0.00793105
0.00758189
0.007401
0.00706955
0.00690849
0.00671933
0.00656299
0.00631225
0.00616504
0.00593912
0.00581721
0.00566299
0.00550759
0.00535754
0.0457519
0.0395513
0.034445
0.0300837
0.0265606
0.0236697
0.021255
0.0192162
0.0174765
0.015977
0.014678
0.013542
0.0125223
0.011627
0.0108522
0.0101146
0.00948298
0.00882954
0.00836152
0.00793383
0.00753895
0.00718102
0.00678394
0.00650158
0.00618079
0.00587395
0.00567131
0.00539346
0.00521258
0.00500535
0.00486682
0.00470594
0.004591
0.00437906
0.00426111
0.0041973
0.00411053
0.00394406
0.00384659
0.00364477
0.0477987
0.0414094
0.0360657
0.0315865
0.0278396
0.0246975
0.0220544
0.0198058
0.0178793
0.0162179
0.0147771
0.0135207
0.0124111
0.0114401
0.0105795
0.00981414
0.00913085
0.00851191
0.00796034
0.00747232
0.00702538
0.00663868
0.00620258
0.00587048
0.00561421
0.00538048
0.00512368
0.0049203
0.00469436
0.00452085
0.00434081
0.00421813
0.00411127
0.00392891
0.0038112
0.00377584
0.00366827
0.00355818
0.00344379
0.00330586
0.0500841
0.0432591
0.0376371
0.0329589
0.0290346
0.0257079
0.0228806
0.0204742
0.0184249
0.0166595
0.0151283
0.0137926
0.01262
0.0115924
0.010684
0.00987814
0.00916066
0.00851897
0.00794381
0.00742691
0.00696068
0.00654521
0.00614586
0.00581821
0.00550531
0.00521579
0.00490476
0.00469764
0.0045326
0.00439203
0.00423233
0.00408516
0.00394858
0.00382732
0.00370733
0.00367444
0.00356079
0.00344639
0.00333292
0.00322414
0.0503283
0.0437272
0.0381488
0.0334419
0.0294637
0.0260841
0.0231958
0.0207182
0.0186066
0.0167994
0.0152368
0.0138754
0.0126809
0.0116358
0.0107122
0.0098933
0.00916437
0.00851284
0.00792963
0.00740656
0.00693567
0.00651454
0.00611829
0.0057924
0.00547566
0.00518162
0.00491742
0.00466712
0.00442807
0.00433109
0.00418108
0.00403983
0.00390558
0.00378694
0.00367067
0.00364891
0.00353294
0.00341732
0.00330164
0.00318887
0.049362
0.0429535
0.0375097
0.0328894
0.0289701
0.025636
0.0227906
0.020363
0.0182976
0.0165259
0.0149964
0.0136673
0.0124975
0.0114813
0.0105824
0.00978423
0.00907411
0.00843829
0.00786872
0.00735722
0.00689655
0.00648238
0.0060944
0.00576839
0.00545152
0.00516587
0.0049088
0.00463407
0.00446034