/*--------------------------------*- C++ -*----------------------------------*\
| =========                 |                                                 |
| \\      /  F ield         | OpenFOAM: The Open Source CFD Toolbox           |
|  \\    /   O peration     | Version:  2212                                  |
|   \\  /    A nd           | Website:  www.openfoam.com                      |
|    \\/     M anipulation  |                                                 |
\*---------------------------------------------------------------------------*/
FoamFile
{
    version     2.0;
    format      ascii;
    arch        "LSB;label=32;scalar=64";
    class       volScalarField;
    location    "2.15";
    object      nut;
}
// * * * * * * * * * * * * * * * * * * * * * * * * * * * * * * * * * * * * * //

dimensions      [0 2 -1 0 0 0 0];

internalField   nonuniform List<scalar> 
6840
(
4.5356e-05
2.3208e-05
1.65396e-05
1.36493e-05
1.18966e-05
1.06844e-05
9.76078e-06
9.05715e-06
8.4948e-06
8.03149e-06
7.64083e-06
7.31272e-06
7.02559e-06
6.76254e-06
6.53231e-06
6.3335e-06
6.16277e-06
6.02093e-06
5.93847e-06
5.84281e-06
0.000107685
6.77183e-05
5.06311e-05
4.14159e-05
3.54048e-05
3.10367e-05
2.77137e-05
2.50817e-05
2.29335e-05
2.11507e-05
1.96507e-05
1.83715e-05
1.72635e-05
1.62936e-05
1.54514e-05
1.47247e-05
1.40927e-05
1.35457e-05
1.30979e-05
1.27629e-05
0.000160509
0.00010736
8.07408e-05
6.55975e-05
5.54896e-05
4.83025e-05
4.31309e-05
3.90789e-05
3.5739e-05
3.29492e-05
3.05774e-05
2.85343e-05
2.67731e-05
2.52447e-05
2.3906e-05
2.27263e-05
2.1684e-05
2.076e-05
1.99396e-05
1.9245e-05
0.000198681
0.0001383
0.000105187
8.55269e-05
7.25012e-05
6.289e-05
5.60609e-05
5.07589e-05
4.63875e-05
4.27209e-05
3.96237e-05
3.6953e-05
3.46295e-05
3.25967e-05
3.08075e-05
2.92255e-05
2.78169e-05
2.65547e-05
2.54268e-05
2.4556e-05
0.000218609
0.000155003
0.000118661
9.65068e-05
8.18823e-05
7.08354e-05
6.30853e-05
5.71429e-05
5.22476e-05
4.80951e-05
4.45807e-05
4.15691e-05
3.89479e-05
3.66517e-05
3.46272e-05
3.28323e-05
3.12297e-05
2.97883e-05
2.84855e-05
2.73399e-05
0.000218609
0.000155003
0.000118661
9.65068e-05
8.18823e-05
7.08354e-05
6.30854e-05
5.71432e-05
5.22479e-05
4.80956e-05
4.45815e-05
4.15705e-05
3.89502e-05
3.66559e-05
3.46347e-05
3.28439e-05
3.12486e-05
2.982e-05
2.85466e-05
2.75358e-05
0.000198681
0.0001383
0.000105187
8.55269e-05
7.25012e-05
6.28901e-05
5.60611e-05
5.07593e-05
4.6388e-05
4.27217e-05
3.96253e-05
3.69555e-05
3.46339e-05
3.26045e-05
3.08205e-05
2.92455e-05
2.78494e-05
2.66082e-05
2.55106e-05
2.4656e-05
0.000160509
0.00010736
8.07408e-05
6.55976e-05
5.54896e-05
4.83026e-05
4.3131e-05
3.90792e-05
3.57394e-05
3.29501e-05
3.05788e-05
2.85364e-05
2.67766e-05
2.52511e-05
2.39161e-05
2.2742e-05
2.17097e-05
2.08034e-05
2.00167e-05
1.93673e-05
0.000107685
6.77183e-05
5.06311e-05
4.14159e-05
3.54048e-05
3.10367e-05
2.77137e-05
2.50817e-05
2.29336e-05
2.11509e-05
1.96511e-05
1.83722e-05
1.72647e-05
1.62972e-05
1.54555e-05
1.47314e-05
1.41049e-05
1.35692e-05
1.31423e-05
1.28358e-05
4.5356e-05
2.3208e-05
1.65396e-05
1.36493e-05
1.18966e-05
1.06844e-05
9.76078e-06
9.05715e-06
8.4948e-06
8.03147e-06
7.64083e-06
7.31268e-06
7.02558e-06
6.76259e-06
6.53223e-06
6.33343e-06
6.1627e-06
6.02085e-06
5.93842e-06
5.84277e-06
0.000107685
6.77183e-05
5.06311e-05
4.14159e-05
3.54048e-05
3.10367e-05
2.77137e-05
2.50817e-05
2.29336e-05
2.11509e-05
1.96511e-05
1.83722e-05
1.72649e-05
1.62965e-05
1.5456e-05
1.47318e-05
1.41052e-05
1.35694e-05
1.31426e-05
1.28362e-05
0.000528907
0.000369984
0.000305097
0.000261371
0.000228528
0.000202475
0.000181113
0.000163073
0.000147538
0.000133983
0.000122047
0.000111464
0.000102132
9.38574e-05
8.64703e-05
7.96761e-05
7.34926e-05
6.79334e-05
6.37151e-05
5.53254e-05
0.000663952
0.000488458
0.000404619
0.000347248
0.000305035
0.000272127
0.000245317
0.000222886
0.000203752
0.000187174
0.000172646
0.000159801
0.000148353
0.000138085
0.000128826
0.000120571
0.000113112
0.00010625
0.00010027
9.42364e-05
0.00071288
0.000556432
0.000466396
0.000402354
0.000354425
0.000317049
0.000286672
0.00026125
0.000239574
0.000220834
0.000204426
0.000189922
0.000177001
0.000165399
0.000154898
0.000145373
0.000136654
0.000128602
0.000121098
0.000113919
0.000728543
0.000588231
0.000496001
0.000429131
0.000378509
0.000338933
0.000306815
0.000279967
0.000257064
0.000237242
0.000219888
0.000204543
0.000190861
0.000178573
0.000167451
0.000157345
0.000148081
0.000139513
0.000131473
0.000123257
0.000728543
0.000588231
0.000496002
0.000429131
0.000378509
0.000338934
0.000306817
0.000279971
0.000257069
0.00023725
0.0002199
0.000204562
0.000190893
0.000178631
0.00016755
0.000157485
0.000148293
0.000139846
0.000132011
0.000124574
0.00071288
0.000556432
0.000466397
0.000402355
0.000354426
0.000317051
0.000286676
0.000261257
0.000239584
0.000220849
0.000204449
0.00018996
0.000177066
0.000165514
0.000155081
0.000145642
0.000137071
0.000129257
0.000122125
0.00011597
0.000663952
0.000488458
0.000404619
0.000347248
0.000305036
0.000272128
0.00024532
0.000222892
0.00020376
0.000187185
0.000172664
0.00015983
0.0001484
0.000138171
0.000128953
0.00012076
0.000113411
0.000106742
0.000101107
9.47404e-05
0.000528907
0.000369984
0.000305097
0.000261371
0.000228528
0.000202475
0.000181113
0.000163073
0.000147538
0.000133982
0.000122047
0.000111464
0.000102131
9.38642e-05
8.64628e-05
7.96714e-05
7.34888e-05
6.79293e-05
6.37097e-05
5.53187e-05
0.000107685
6.77183e-05
5.06311e-05
4.14159e-05
3.54048e-05
3.10367e-05
2.77137e-05
2.50817e-05
2.29335e-05
2.11506e-05
1.96506e-05
1.83715e-05
1.72634e-05
1.62941e-05
1.54509e-05
1.47243e-05
1.40925e-05
1.35455e-05
1.30977e-05
1.27629e-05
0.000160509
0.00010736
8.07409e-05
6.55976e-05
5.54896e-05
4.83026e-05
4.31311e-05
3.90792e-05
3.57394e-05
3.29501e-05
3.05788e-05
2.85364e-05
2.67765e-05
2.52505e-05
2.39167e-05
2.27425e-05
2.171e-05
2.08035e-05
2.0017e-05
1.93679e-05
0.000663952
0.000488458
0.000404619
0.000347248
0.000305036
0.000272128
0.00024532
0.000222892
0.00020376
0.000187185
0.000172664
0.00015983
0.000148399
0.000138161
0.000128965
0.000120766
0.000113415
0.000106744
0.000101118
9.47636e-05
0.000786828
0.000662293
0.000567974
0.000495805
0.000439463
0.000394562
0.000357975
0.000327452
0.000301491
0.000279052
0.0002594
0.000242006
0.000226479
0.00021252
0.000199904
0.000188455
0.000178026
0.00016847
0.000159653
0.00015018
0.000809324
0.000713906
0.000631504
0.000562574
0.000505377
0.000457785
0.00041784
0.000383938
0.000354801
0.000329446
0.000307151
0.000287371
0.000269688
0.000253771
0.000239362
0.000226265
0.000214288
0.000203253
0.000192892
0.000182211
0.000814958
0.000730426
0.000654634
0.000589043
0.000533067
0.000485438
0.000444762
0.000409791
0.000379467
0.000352928
0.000329486
0.000308621
0.000289927
0.000273078
0.00025781
0.000243916
0.000231197
0.00021946
0.0002084
0.000197175
0.000814958
0.000730426
0.000654634
0.000589044
0.000533067
0.000485438
0.000444764
0.000409794
0.000379471
0.000352933
0.000329494
0.000308633
0.000289946
0.000273113
0.000257866
0.000243991
0.000231303
0.000219613
0.000208628
0.000197492
0.000809324
0.000713906
0.000631505
0.000562574
0.000505377
0.000457786
0.000417842
0.000383942
0.000354807
0.000329454
0.000307163
0.00028739
0.00026972
0.000253829
0.000239449
0.000226385
0.000214463
0.000203515
0.000193318
0.000183104
0.000786828
0.000662293
0.000567974
0.000495805
0.000439463
0.000394562
0.000357975
0.000327452
0.000301491
0.000279051
0.0002594
0.000242005
0.000226477
0.000212521
0.000199901
0.000188452
0.000178022
0.000168463
0.000159645
0.000150169
0.000663952
0.000488458
0.000404619
0.000347248
0.000305035
0.000272127
0.000245317
0.000222886
0.000203752
0.000187174
0.000172646
0.000159801
0.000148351
0.000138081
0.000128829
0.000120572
0.000113111
0.000106247
0.000100268
9.42324e-05
0.000160509
0.00010736
8.07408e-05
6.55975e-05
5.54896e-05
4.83025e-05
4.31309e-05
3.90789e-05
3.5739e-05
3.29491e-05
3.05774e-05
2.85342e-05
2.6773e-05
2.52446e-05
2.39061e-05
2.27264e-05
2.16841e-05
2.07601e-05
1.99397e-05
1.92448e-05
0.000198681
0.0001383
0.000105187
8.55269e-05
7.25012e-05
6.28901e-05
5.60611e-05
5.07593e-05
4.6388e-05
4.27217e-05
3.96253e-05
3.69555e-05
3.46336e-05
3.2604e-05
3.08211e-05
2.92459e-05
2.78495e-05
2.66083e-05
2.55106e-05
2.46565e-05
0.00071288
0.000556432
0.000466397
0.000402355
0.000354426
0.000317051
0.000286676
0.000261257
0.000239584
0.000220849
0.000204449
0.00018996
0.000177062
0.000165504
0.000155092
0.000145648
0.000137073
0.000129258
0.000122126
0.000115973
0.000809324
0.000713906
0.000631505
0.000562574
0.000505377
0.000457786
0.000417842
0.000383942
0.000354807
0.000329454
0.000307163
0.00028739
0.000269719
0.000253825
0.000239455
0.000226389
0.000214466
0.000203519
0.000193322
0.000183104
0.000823497
0.000753987
0.000688491
0.000628748
0.000575387
0.000528266
0.000486846
0.000450442
0.000418363
0.000389975
0.000364729
0.000342164
0.000321896
0.000303606
0.000287031
0.000271943
0.000258143
0.000245417
0.000233429
0.000221318
0.000826292
0.000764347
0.000706102
0.000651936
0.00060223
0.000557104
0.000516428
0.000479912
0.000447181
0.000417833
0.000391476
0.00036775
0.000346333
0.00032694
0.000309322
0.000293262
0.00027855
0.00026495
0.000252062
0.000238938
0.000826292
0.000764347
0.000706102
0.000651937
0.00060223
0.000557104
0.000516428
0.000479913
0.000447182
0.000417834
0.000391479
0.000367754
0.000346339
0.000326949
0.000309337
0.000293281
0.000278576
0.00026498
0.000252066
0.000238706
0.000823497
0.000753987
0.000688491
0.000628748
0.000575387
0.000528266
0.000486846
0.000450442
0.000418363
0.000389974
0.000364728
0.000342163
0.000321895
0.000303607
0.00028703
0.000271941
0.00025814
0.000245414
0.000233425
0.00022132
0.000809324
0.000713906
0.000631504
0.000562574
0.000505377
0.000457785
0.00041784
0.000383938
0.000354801
0.000329446
0.00030715
0.00028737
0.000269684
0.000253767
0.000239366
0.000226265
0.000214285
0.000203248
0.000192885
0.000182209
0.00071288
0.000556432
0.000466396
0.000402354
0.000354425
0.000317049
0.000286672
0.00026125
0.000239574
0.000220834
0.000204426
0.000189922
0.000176998
0.000165389
0.000154907
0.000145378
0.000136657
0.000128603
0.0001211
0.000113922
0.000198681
0.0001383
0.000105187
8.55269e-05
7.25012e-05
6.289e-05
5.60609e-05
5.07589e-05
4.63875e-05
4.27209e-05
3.96237e-05
3.69529e-05
3.46293e-05
3.25962e-05
3.08081e-05
2.92258e-05
2.78171e-05
2.65548e-05
2.54269e-05
2.45561e-05
0.000218609
0.000155003
0.000118661
9.65068e-05
8.18823e-05
7.08354e-05
6.30854e-05
5.71432e-05
5.22479e-05
4.80956e-05
4.45815e-05
4.15705e-05
3.89502e-05
3.66557e-05
3.46347e-05
3.28439e-05
3.12485e-05
2.98198e-05
2.85462e-05
2.75359e-05
0.000728543
0.000588231
0.000496002
0.000429131
0.000378509
0.000338934
0.000306817
0.000279971
0.000257069
0.00023725
0.0002199
0.000204562
0.000190892
0.000178625
0.00016755
0.000157484
0.00014829
0.00013984
0.000132003
0.000124566
0.000814958
0.000730426
0.000654634
0.000589044
0.000533067
0.000485438
0.000444764
0.000409794
0.000379471
0.000352933
0.000329494
0.000308633
0.000289945
0.000273111
0.000257867
0.00024399
0.000231301
0.00021961
0.000208623
0.000197483
0.000826292
0.000764347
0.000706102
0.000651937
0.000602231
0.000557104
0.000516429
0.000479913
0.000447182
0.000417834
0.000391479
0.000367754
0.000346339
0.000326949
0.000309338
0.000293281
0.000278576
0.00026498
0.000252065
0.000238696
0.000828382
0.0007726
0.000721138
0.00067296
0.000627782
0.00058562
0.000546548
0.00051058
0.00047765
0.000447617
0.00042029
0.00039545
0.00037287
0.000352325
0.000333602
0.000316497
0.000300804
0.00028627
0.000272464
0.000258524
0.000828382
0.0007726
0.000721138
0.00067296
0.000627782
0.00058562
0.000546548
0.00051058
0.00047765
0.000447617
0.00042029
0.00039545
0.00037287
0.000352325
0.000333602
0.000316496
0.000300804
0.000286269
0.000272464
0.000258529
0.000826292
0.000764347
0.000706102
0.000651936
0.00060223
0.000557104
0.000516428
0.000479912
0.000447181
0.000417833
0.000391476
0.00036775
0.000346332
0.00032694
0.000309322
0.000293261
0.000278548
0.000264948
0.00025206
0.000238944
0.000814958
0.000730426
0.000654634
0.000589043
0.000533067
0.000485438
0.000444762
0.000409791
0.000379467
0.000352928
0.000329486
0.00030862
0.000289925
0.000273075
0.000257813
0.000243916
0.000231196
0.000219457
0.000208397
0.000197175
0.000728543
0.000588231
0.000496001
0.000429131
0.000378509
0.000338933
0.000306815
0.000279967
0.000257064
0.000237242
0.000219888
0.000204543
0.000190861
0.000178565
0.000167458
0.000157349
0.000148084
0.000139515
0.000131474
0.000123266
0.000218609
0.000155003
0.000118661
9.65068e-05
8.18823e-05
7.08354e-05
6.30853e-05
5.71429e-05
5.22476e-05
4.80951e-05
4.45807e-05
4.15691e-05
3.89478e-05
3.66512e-05
3.46275e-05
3.28325e-05
3.12299e-05
2.97883e-05
2.84852e-05
2.73376e-05
0.000218609
0.000155003
0.000118661
9.65068e-05
8.18823e-05
7.08354e-05
6.30853e-05
5.71429e-05
5.22476e-05
4.80951e-05
4.45807e-05
4.15691e-05
3.89478e-05
3.66516e-05
3.46272e-05
3.28322e-05
3.12296e-05
2.97881e-05
2.84852e-05
2.73389e-05
0.000728543
0.000588231
0.000496001
0.000429131
0.000378509
0.000338933
0.000306815
0.000279967
0.000257064
0.000237242
0.000219888
0.000204543
0.000190861
0.000178571
0.00016745
0.000157343
0.000148077
0.000139506
0.000131462
0.000123244
0.000814958
0.000730426
0.000654634
0.000589043
0.000533067
0.000485438
0.000444762
0.000409791
0.000379467
0.000352928
0.000329486
0.00030862
0.000289926
0.000273077
0.000257809
0.000243914
0.000231194
0.000219453
0.00020839
0.000197162
0.000826292
0.000764347
0.000706102
0.000651937
0.00060223
0.000557104
0.000516428
0.000479912
0.000447181
0.000417833
0.000391476
0.00036775
0.000346333
0.00032694
0.000309322
0.000293261
0.000278549
0.000264948
0.000252059
0.000238932
0.000828382
0.0007726
0.000721138
0.00067296
0.000627782
0.00058562
0.000546548
0.00051058
0.00047765
0.000447617
0.00042029
0.00039545
0.00037287
0.000352325
0.000333603
0.000316497
0.000300804
0.00028627
0.000272463
0.000258526
0.000828382
0.0007726
0.000721138
0.00067296
0.000627782
0.00058562
0.000546548
0.00051058
0.00047765
0.000447617
0.00042029
0.00039545
0.00037287
0.000352325
0.000333602
0.000316497
0.000300804
0.000286269
0.000272462
0.000258531
0.000826292
0.000764347
0.000706102
0.000651937
0.00060223
0.000557104
0.000516428
0.000479913
0.000447182
0.000417834
0.000391479
0.000367754
0.000346339
0.000326951
0.000309337
0.000293281
0.000278576
0.00026498
0.000252066
0.000238707
0.000814958
0.000730426
0.000654634
0.000589044
0.000533067
0.000485438
0.000444764
0.000409794
0.000379471
0.000352933
0.000329494
0.000308633
0.000289948
0.000273113
0.000257864
0.00024399
0.000231303
0.000219615
0.000208632
0.000197498
0.000728543
0.000588231
0.000496002
0.000429131
0.000378509
0.000338934
0.000306817
0.000279971
0.000257069
0.00023725
0.0002199
0.000204563
0.000190896
0.000178628
0.000167546
0.000157483
0.000148292
0.000139846
0.000132013
0.000124578
0.000218609
0.000155003
0.000118661
9.65068e-05
8.18823e-05
7.08354e-05
6.30854e-05
5.71432e-05
5.22479e-05
4.80956e-05
4.45815e-05
4.15706e-05
3.89503e-05
3.66558e-05
3.46345e-05
3.28438e-05
3.12485e-05
2.98199e-05
2.85466e-05
2.75381e-05
0.000198681
0.0001383
0.000105187
8.55269e-05
7.25012e-05
6.28901e-05
5.60609e-05
5.07589e-05
4.63875e-05
4.27209e-05
3.96237e-05
3.6953e-05
3.46295e-05
3.25967e-05
3.08075e-05
2.92255e-05
2.78169e-05
2.65547e-05
2.54268e-05
2.45561e-05
0.00071288
0.000556432
0.000466396
0.000402354
0.000354425
0.000317049
0.000286672
0.00026125
0.000239574
0.000220834
0.000204426
0.000189922
0.000177001
0.000165399
0.000154897
0.000145372
0.000136653
0.000128599
0.000121091
0.00011391
0.000809324
0.000713906
0.000631504
0.000562574
0.000505377
0.000457785
0.00041784
0.000383938
0.000354802
0.000329446
0.000307151
0.000287371
0.000269688
0.000253772
0.000239361
0.000226263
0.000214286
0.00020325
0.000192887
0.000182212
0.000823497
0.000753987
0.000688491
0.000628748
0.000575387
0.000528266
0.000486846
0.000450442
0.000418363
0.000389975
0.000364729
0.000342164
0.000321896
0.000303607
0.000287031
0.000271943
0.000258143
0.000245418
0.000233431
0.000221326
0.000826292
0.000764347
0.000706102
0.000651937
0.000602231
0.000557104
0.000516429
0.000479913
0.000447182
0.000417835
0.000391479
0.000367754
0.000346339
0.00032695
0.000309339
0.000293282
0.000278577
0.000264982
0.000252069
0.000238708
0.000826292
0.000764347
0.000706102
0.000651937
0.00060223
0.000557104
0.000516428
0.000479912
0.000447181
0.000417833
0.000391476
0.00036775
0.000346333
0.000326939
0.000309323
0.000293262
0.00027855
0.000264949
0.000252061
0.000238942
0.000823497
0.000753987
0.000688491
0.000628748
0.000575387
0.000528266
0.000486846
0.000450442
0.000418363
0.000389975
0.000364728
0.000342163
0.000321896
0.000303607
0.00028703
0.000271943
0.000258143
0.000245417
0.000233428
0.000221319
0.000809324
0.000713906
0.000631505
0.000562574
0.000505378
0.000457786
0.000417843
0.000383942
0.000354807
0.000329454
0.000307164
0.000287391
0.000269721
0.00025383
0.00023945
0.000226387
0.000214467
0.000203523
0.000193329
0.000183113
0.00071288
0.000556432
0.000466397
0.000402355
0.000354426
0.000317051
0.000286676
0.000261257
0.000239584
0.000220849
0.000204449
0.000189961
0.000177066
0.000165514
0.000155081
0.000145642
0.000137071
0.000129258
0.000122129
0.000115975
0.000198681
0.0001383
0.000105187
8.55269e-05
7.25012e-05
6.28901e-05
5.60611e-05
5.07593e-05
4.6388e-05
4.27217e-05
3.96253e-05
3.69555e-05
3.46339e-05
3.26045e-05
3.08205e-05
2.92456e-05
2.78494e-05
2.66082e-05
2.55107e-05
2.46578e-05
0.000160509
0.00010736
8.07408e-05
6.55975e-05
5.54896e-05
4.83025e-05
4.31309e-05
3.90789e-05
3.5739e-05
3.29492e-05
3.05774e-05
2.85343e-05
2.67731e-05
2.52448e-05
2.3906e-05
2.27264e-05
2.16842e-05
2.07603e-05
1.99397e-05
1.92456e-05
0.000663952
0.000488458
0.000404619
0.000347248
0.000305035
0.000272127
0.000245317
0.000222886
0.000203752
0.000187174
0.000172647
0.000159802
0.000148354
0.000138087
0.000128825
0.000120572
0.000113115
0.000106257
0.00010027
9.42478e-05
0.000786828
0.000662293
0.000567974
0.000495805
0.000439463
0.000394562
0.000357975
0.000327452
0.000301491
0.000279052
0.000259401
0.000242007
0.00022648
0.000212522
0.000199904
0.000188457
0.000178031
0.000168478
0.000159667
0.000150211
0.000809324
0.000713906
0.000631505
0.000562574
0.000505378
0.000457786
0.000417843
0.000383942
0.000354807
0.000329455
0.000307164
0.000287391
0.00026972
0.000253827
0.000239456
0.000226392
0.000214471
0.000203528
0.000193337
0.000183128
0.000814958
0.000730426
0.000654634
0.000589044
0.000533067
0.000485438
0.000444764
0.000409794
0.000379471
0.000352933
0.000329494
0.000308633
0.000289946
0.000273112
0.000257869
0.000243993
0.000231306
0.000219617
0.000208635
0.000197498
0.000814958
0.000730426
0.000654634
0.000589043
0.000533067
0.000485438
0.000444762
0.000409791
0.000379468
0.000352928
0.000329486
0.00030862
0.000289925
0.000273076
0.000257811
0.000243916
0.000231196
0.000219456
0.000208394
0.000197167
0.000809324
0.000713906
0.000631504
0.000562574
0.000505377
0.000457785
0.00041784
0.000383938
0.000354802
0.000329446
0.000307151
0.00028737
0.000269685
0.000253768
0.000239367
0.000226267
0.000214288
0.00020325
0.000192885
0.000182205
0.000786828
0.000662293
0.000567974
0.000495805
0.000439463
0.000394562
0.000357975
0.000327452
0.000301491
0.000279052
0.0002594
0.000242006
0.000226478
0.000212521
0.000199903
0.000188456
0.000178028
0.000168473
0.000159657
0.000150189
0.000663952
0.000488458
0.000404619
0.000347248
0.000305036
0.000272128
0.00024532
0.000222891
0.000203759
0.000187185
0.000172664
0.00015983
0.0001484
0.000138171
0.000128953
0.000120761
0.000113413
0.000106745
0.000101112
9.47696e-05
0.000160509
0.00010736
8.07409e-05
6.55976e-05
5.54896e-05
4.83026e-05
4.31311e-05
3.90792e-05
3.57394e-05
3.29501e-05
3.05788e-05
2.85364e-05
2.67767e-05
2.52511e-05
2.39161e-05
2.27421e-05
2.17098e-05
2.08034e-05
2.00168e-05
1.93682e-05
0.000107685
6.77183e-05
5.06311e-05
4.14159e-05
3.54048e-05
3.10367e-05
2.77137e-05
2.50817e-05
2.29335e-05
2.11507e-05
1.96507e-05
1.83715e-05
1.72636e-05
1.62936e-05
1.54514e-05
1.47247e-05
1.40927e-05
1.35458e-05
1.30981e-05
1.27633e-05
0.000528907
0.000369984
0.000305097
0.000261371
0.000228528
0.000202475
0.000181114
0.000163073
0.000147538
0.000133983
0.000122048
0.000111465
0.000102133
9.38585e-05
8.64708e-05
7.96773e-05
7.34948e-05
6.79363e-05
6.37208e-05
5.53372e-05
0.000663952
0.000488458
0.000404619
0.000347248
0.000305036
0.000272128
0.00024532
0.000222892
0.00020376
0.000187186
0.000172664
0.00015983
0.0001484
0.000138162
0.000128966
0.000120768
0.000113418
0.000106748
0.000101126
9.47716e-05
0.00071288
0.000556432
0.000466397
0.000402355
0.000354426
0.000317051
0.000286676
0.000261257
0.000239584
0.000220849
0.000204449
0.00018996
0.000177063
0.000165505
0.000155093
0.000145649
0.000137075
0.000129261
0.000122131
0.000115978
0.000728543
0.000588231
0.000496002
0.000429131
0.000378509
0.000338934
0.000306817
0.000279971
0.000257069
0.00023725
0.0002199
0.000204562
0.000190892
0.000178625
0.000167551
0.000157485
0.000148291
0.000139842
0.000132006
0.000124567
0.000728543
0.000588231
0.000496001
0.000429131
0.000378509
0.000338933
0.000306815
0.000279968
0.000257064
0.000237243
0.000219888
0.000204543
0.00019086
0.000178569
0.000167451
0.000157344
0.000148079
0.000139508
0.000131463
0.000123246
0.00071288
0.000556432
0.000466396
0.000402354
0.000354425
0.000317049
0.000286672
0.000261251
0.000239575
0.000220835
0.000204426
0.000189922
0.000176999
0.000165388
0.000154907
0.000145378
0.000136657
0.000128603
0.000121097
0.000113917
0.000663952
0.000488458
0.000404619
0.000347248
0.000305035
0.000272127
0.000245317
0.000222887
0.000203752
0.000187175
0.000172647
0.000159802
0.000148353
0.000138082
0.000128831
0.000120576
0.000113118
0.000106259
0.000100274
9.42508e-05
0.000528907
0.000369984
0.000305097
0.000261371
0.000228528
0.000202475
0.000181114
0.000163073
0.000147538
0.000133983
0.000122048
0.000111464
0.000102131
9.38647e-05
8.64639e-05
7.96733e-05
7.34917e-05
6.79332e-05
6.37171e-05
5.53345e-05
0.000107685
6.77183e-05
5.06311e-05
4.14159e-05
3.54048e-05
3.10367e-05
2.77138e-05
2.50817e-05
2.29336e-05
2.11509e-05
1.96511e-05
1.83723e-05
1.72648e-05
1.62972e-05
1.54555e-05
1.47315e-05
1.41051e-05
1.35693e-05
1.31426e-05
1.28365e-05
4.5356e-05
2.3208e-05
1.65396e-05
1.36493e-05
1.18966e-05
1.06844e-05
9.76078e-06
9.05715e-06
8.4948e-06
8.03149e-06
7.64083e-06
7.31272e-06
7.02559e-06
6.76255e-06
6.53233e-06
6.33351e-06
6.16279e-06
6.02096e-06
5.93859e-06
5.84255e-06
0.000107685
6.77183e-05
5.06311e-05
4.14159e-05
3.54048e-05
3.10367e-05
2.77137e-05
2.50818e-05
2.29336e-05
2.11509e-05
1.96511e-05
1.83722e-05
1.72649e-05
1.62966e-05
1.5456e-05
1.47319e-05
1.41053e-05
1.35696e-05
1.31428e-05
1.28368e-05
0.000160509
0.00010736
8.07409e-05
6.55976e-05
5.54896e-05
4.83026e-05
4.31311e-05
3.90793e-05
3.57394e-05
3.29501e-05
3.05788e-05
2.85364e-05
2.67765e-05
2.52506e-05
2.39168e-05
2.27426e-05
2.17101e-05
2.08036e-05
2.00173e-05
1.93683e-05
0.000198681
0.0001383
0.000105187
8.55269e-05
7.25012e-05
6.28901e-05
5.60611e-05
5.07593e-05
4.6388e-05
4.27218e-05
3.96253e-05
3.69555e-05
3.46336e-05
3.26041e-05
3.08212e-05
2.9246e-05
2.78496e-05
2.66083e-05
2.55107e-05
2.46559e-05
0.000218609
0.000155003
0.000118661
9.65068e-05
8.18823e-05
7.08354e-05
6.30854e-05
5.71432e-05
5.22479e-05
4.80956e-05
4.45815e-05
4.15705e-05
3.89502e-05
3.66557e-05
3.46347e-05
3.28439e-05
3.12485e-05
2.98197e-05
2.8546e-05
2.75353e-05
0.000218609
0.000155003
0.000118661
9.65068e-05
8.18823e-05
7.08354e-05
6.30852e-05
5.7143e-05
5.22476e-05
4.80951e-05
4.45807e-05
4.15691e-05
3.89478e-05
3.66515e-05
3.46272e-05
3.28322e-05
3.12296e-05
2.9788e-05
2.84849e-05
2.73389e-05
0.000198681
0.0001383
0.000105187
8.55269e-05
7.25012e-05
6.289e-05
5.60609e-05
5.07589e-05
4.63875e-05
4.27209e-05
3.96237e-05
3.6953e-05
3.46293e-05
3.25961e-05
3.0808e-05
2.92258e-05
2.78171e-05
2.65548e-05
2.54269e-05
2.45561e-05
0.000160509
0.00010736
8.07408e-05
6.55975e-05
5.54896e-05
4.83025e-05
4.31309e-05
3.9079e-05
3.5739e-05
3.29492e-05
3.05775e-05
2.85343e-05
2.67731e-05
2.52446e-05
2.39062e-05
2.27266e-05
2.16844e-05
2.07606e-05
1.99401e-05
1.92461e-05
0.000107685
6.77183e-05
5.06311e-05
4.14159e-05
3.54048e-05
3.10367e-05
2.77137e-05
2.50817e-05
2.29335e-05
2.11507e-05
1.96507e-05
1.83715e-05
1.72635e-05
1.62941e-05
1.5451e-05
1.47245e-05
1.40927e-05
1.35458e-05
1.30982e-05
1.27636e-05
4.5356e-05
2.3208e-05
1.65396e-05
1.36493e-05
1.18966e-05
1.06844e-05
9.76078e-06
9.05714e-06
8.4948e-06
8.03147e-06
7.64084e-06
7.31269e-06
7.0256e-06
6.76261e-06
6.53225e-06
6.33346e-06
6.16274e-06
6.0209e-06
5.93856e-06
5.84256e-06
5.72081e-06
5.28869e-06
4.88981e-06
4.63944e-06
4.4824e-06
4.37587e-06
4.29282e-06
4.22441e-06
4.1616e-06
4.10814e-06
4.06438e-06
4.02329e-06
3.98474e-06
3.94658e-06
3.90942e-06
3.87531e-06
3.842e-06
3.80994e-06
3.77883e-06
3.74915e-06
3.72008e-06
3.69156e-06
3.6643e-06
3.6388e-06
3.6142e-06
3.5903e-06
3.56726e-06
3.54468e-06
3.52258e-06
3.50136e-06
3.48046e-06
3.46051e-06
3.44143e-06
3.42244e-06
3.40519e-06
3.38758e-06
3.3719e-06
3.35688e-06
3.34445e-06
3.31999e-06
1.13459e-05
1.06402e-05
1.00688e-05
9.63821e-06
9.32155e-06
9.07201e-06
8.86718e-06
8.69467e-06
8.52997e-06
8.39386e-06
8.27412e-06
8.16188e-06
8.06651e-06
7.97113e-06
7.87653e-06
7.79259e-06
7.70957e-06
7.63495e-06
7.56162e-06
7.49289e-06
7.42701e-06
7.36159e-06
7.3009e-06
7.24369e-06
7.19008e-06
7.13882e-06
7.08915e-06
7.04077e-06
6.99338e-06
6.94741e-06
6.9021e-06
6.85839e-06
6.81608e-06
6.77593e-06
6.73678e-06
6.69878e-06
6.66264e-06
6.6282e-06
6.59612e-06
6.56044e-06
1.6508e-05
1.56272e-05
1.4959e-05
1.44172e-05
1.39353e-05
1.35651e-05
1.32372e-05
1.29417e-05
1.2685e-05
1.245e-05
1.22391e-05
1.20492e-05
1.18847e-05
1.17096e-05
1.15508e-05
1.14124e-05
1.12761e-05
1.11568e-05
1.10375e-05
1.09238e-05
1.08175e-05
1.07048e-05
1.06018e-05
1.05051e-05
1.04176e-05
1.03341e-05
1.02524e-05
1.01727e-05
1.00952e-05
1.00192e-05
9.94616e-06
9.87483e-06
9.80549e-06
9.73802e-06
9.67263e-06
9.61156e-06
9.55228e-06
9.49286e-06
9.4336e-06
9.37438e-06
2.00974e-05
1.93637e-05
1.87286e-05
1.81596e-05
1.76353e-05
1.71603e-05
1.67319e-05
1.63435e-05
1.59894e-05
1.56659e-05
1.53691e-05
1.50996e-05
1.48572e-05
1.4623e-05
1.4405e-05
1.4203e-05
1.40138e-05
1.38465e-05
1.36687e-05
1.3496e-05
1.33446e-05
1.31982e-05
1.30588e-05
1.29219e-05
1.27952e-05
1.26732e-05
1.25589e-05
1.24474e-05
1.23425e-05
1.22384e-05
1.2139e-05
1.20372e-05
1.19495e-05
1.18511e-05
1.17764e-05
1.16826e-05
1.16111e-05
1.15314e-05
1.14596e-05
1.13833e-05
2.2804e-05
2.1939e-05
2.1169e-05
2.04925e-05
1.98937e-05
1.93601e-05
1.88815e-05
1.84443e-05
1.80414e-05
1.76693e-05
1.73253e-05
1.70079e-05
1.67182e-05
1.64396e-05
1.61799e-05
1.59385e-05
1.57147e-05
1.55024e-05
1.53027e-05
1.5114e-05
1.49391e-05
1.47719e-05
1.45929e-05
1.44289e-05
1.42755e-05
1.41308e-05
1.3993e-05
1.38617e-05
1.37386e-05
1.36173e-05
1.35002e-05
1.33868e-05
1.32827e-05
1.31652e-05
1.30827e-05
1.29701e-05
1.28833e-05
1.27943e-05
1.27112e-05
1.2631e-05
2.45539e-05
2.3096e-05
2.21097e-05
2.13117e-05
2.06366e-05
2.00483e-05
1.95309e-05
1.90725e-05
1.86524e-05
1.82619e-05
1.79e-05
1.75653e-05
1.72566e-05
1.69656e-05
1.6694e-05
1.64398e-05
1.62012e-05
1.59769e-05
1.57676e-05
1.55718e-05
1.53868e-05
1.5212e-05
1.50454e-05
1.4893e-05
1.47259e-05
1.45621e-05
1.4411e-05
1.42714e-05
1.4144e-05
1.40183e-05
1.39031e-05
1.37832e-05
1.37057e-05
1.35072e-05
1.35041e-05
1.3334e-05
1.3269e-05
1.31743e-05
1.3086e-05
1.30045e-05
2.32045e-05
2.1936e-05
2.10595e-05
2.03248e-05
1.96904e-05
1.91327e-05
1.8642e-05
1.82045e-05
1.78021e-05
1.74292e-05
1.7085e-05
1.67681e-05
1.64766e-05
1.62017e-05
1.59454e-05
1.57057e-05
1.54811e-05
1.52704e-05
1.5073e-05
1.48888e-05
1.47168e-05
1.45549e-05
1.43963e-05
1.42548e-05
1.40953e-05
1.39433e-05
1.3803e-05
1.36746e-05
1.35543e-05
1.34339e-05
1.33227e-05
1.32059e-05
1.31292e-05
1.29678e-05
1.29132e-05
1.28077e-05
1.27228e-05
1.26378e-05
1.25541e-05
1.24749e-05
1.976e-05
1.90152e-05
1.8332e-05
1.77211e-05
1.7185e-05
1.67185e-05
1.63035e-05
1.59245e-05
1.55786e-05
1.52621e-05
1.4972e-05
1.47077e-05
1.44661e-05
1.42373e-05
1.4025e-05
1.38265e-05
1.36407e-05
1.34686e-05
1.33071e-05
1.3154e-05
1.30098e-05
1.28741e-05
1.27308e-05
1.26034e-05
1.24757e-05
1.23596e-05
1.22435e-05
1.21366e-05
1.203e-05
1.19203e-05
1.18202e-05
1.17274e-05
1.16418e-05
1.15579e-05
1.14769e-05
1.13972e-05
1.13172e-05
1.12428e-05
1.11708e-05
1.11015e-05
1.54692e-05
1.49258e-05
1.43929e-05
1.38999e-05
1.3472e-05
1.3114e-05
1.28e-05
1.25202e-05
1.22708e-05
1.20445e-05
1.18406e-05
1.16607e-05
1.14922e-05
1.13355e-05
1.11914e-05
1.10476e-05
1.09093e-05
1.07761e-05
1.06602e-05
1.05432e-05
1.04366e-05
1.03304e-05
1.02308e-05
1.01347e-05
1.00388e-05
9.95122e-06
9.86474e-06
9.78431e-06
9.70656e-06
9.63354e-06
9.5647e-06
9.49779e-06
9.43211e-06
9.36985e-06
9.31131e-06
9.25209e-06
9.19116e-06
9.13931e-06
9.08892e-06
9.03682e-06
1.10822e-05
1.04171e-05
9.82232e-06
9.36962e-06
9.05372e-06
8.82377e-06
8.64255e-06
8.48103e-06
8.33718e-06
8.20557e-06
8.09422e-06
8.0021e-06
7.89757e-06
7.80088e-06
7.70891e-06
7.62389e-06
7.54054e-06
7.4616e-06
7.38585e-06
7.31409e-06
7.2447e-06
7.17903e-06
7.11752e-06
7.06069e-06
7.00516e-06
6.95276e-06
6.90146e-06
6.85288e-06
6.80561e-06
6.76099e-06
6.71688e-06
6.67478e-06
6.63444e-06
6.59602e-06
6.55796e-06
6.52858e-06
6.49252e-06
6.46003e-06
6.43179e-06
6.39986e-06
5.72095e-06
5.28854e-06
4.88927e-06
4.63709e-06
4.47674e-06
4.37049e-06
4.28883e-06
4.21982e-06
4.15747e-06
4.10546e-06
4.0606e-06
4.02098e-06
3.98123e-06
3.94356e-06
3.90718e-06
3.8731e-06
3.84014e-06
3.80825e-06
3.77764e-06
3.74817e-06
3.71946e-06
3.69128e-06
3.66425e-06
3.63898e-06
3.61451e-06
3.59068e-06
3.5676e-06
3.54497e-06
3.52276e-06
3.50134e-06
3.48037e-06
3.46035e-06
3.44113e-06
3.42212e-06
3.40401e-06
3.38752e-06
3.37166e-06
3.35562e-06
3.34266e-06
3.31725e-06
1.10828e-05
1.04182e-05
9.82402e-06
9.37616e-06
9.07361e-06
8.84326e-06
8.65285e-06
8.49466e-06
8.34221e-06
8.21128e-06