/*--------------------------------*- C++ -*----------------------------------*\
| =========                 |                                                 |
| \\      /  F ield         | OpenFOAM: The Open Source CFD Toolbox           |
|  \\    /   O peration     | Version:  2212                                  |
|   \\  /    A nd           | Website:  www.openfoam.com                      |
|    \\/     M anipulation  |                                                 |
\*---------------------------------------------------------------------------*/
FoamFile
{
    version     2.0;
    format      ascii;
    arch        "LSB;label=32;scalar=64";
    class       volScalarField;
    location    "2.15";
    object      p;
}
// * * * * * * * * * * * * * * * * * * * * * * * * * * * * * * * * * * * * * //

dimensions      [0 2 -2 0 0 0 0];

internalField   nonuniform List<scalar> 
6840
(
0.0179258
0.0108114
0.00851997
0.00798212
0.00770774
0.0074855
0.0072988
0.00713227
0.00697096
0.00681127
0.00665321
0.00649653
0.00633986
0.00618188
0.00602212
0.00585923
0.0056923
0.00551229
0.00527071
0.00478879
0.0107471
0.0100132
0.0089203
0.00825432
0.00785172
0.00757798
0.00736678
0.00718054
0.0070061
0.00683873
0.00667589
0.00651583
0.00635701
0.00619873
0.0060408
0.00588251
0.00571954
0.00554392
0.00533131
0.00500402
0.0103988
0.00954731
0.00878304
0.0082239
0.00784776
0.00757978
0.00736419
0.00717138
0.00699312
0.0068249
0.0066619
0.00650202
0.0063449
0.00619047
0.00603845
0.00588838
0.00573985
0.00559413
0.00546108
0.00536256
0.00998956
0.00922683
0.00860807
0.00815677
0.00781283
0.00754386
0.00732437
0.0071358
0.00696832
0.00681145
0.00665671
0.00650293
0.00635121
0.00620288
0.00605972
0.00592489
0.00580293
0.00569997
0.00563187
0.00561362
0.00985535
0.00911417
0.008526
0.0081179
0.00779598
0.00752932
0.00730788
0.0071174
0.00694692
0.00679069
0.0066416
0.00649304
0.00634462
0.00619886
0.00605897
0.005929
0.00581485
0.00572484
0.00567402
0.00569211
0.00985534
0.00911415
0.00852597
0.00811786
0.00779592
0.00752921
0.0073077
0.0071171
0.0069464
0.00678981
0.00664012
0.00649055
0.00634043
0.00619187
0.00604709
0.00590828
0.00577885
0.00566221
0.00556476
0.00549933
0.00998952
0.00922679
0.00860802
0.00815668
0.0078127
0.00754365
0.00732398
0.0071351
0.00696713
0.00680948
0.00665344
0.00649754
0.0063424
0.00618844
0.0060356
0.00588385
0.00573351
0.00558597
0.00544585
0.00532268
0.0103988
0.00954727
0.00878299
0.00822384
0.00784764
0.00757955
0.00736379
0.0071707
0.00699201
0.00682302
0.00665876
0.00649687
0.00633661
0.00617715
0.00601693
0.0058536
0.00568315
0.00550066
0.00530255
0.00507557
0.0107471
0.0100132
0.00892029
0.0082543
0.00785167
0.00757788
0.00736661
0.00718023
0.00700556
0.0068378
0.00667437
0.00651333
0.00635271
0.00619121
0.00602821
0.00586235
0.00568825
0.00549089
0.0052272
0.00477905
0.0179259
0.0108114
0.00851997
0.00798213
0.00770774
0.00748551
0.00729881
0.00713228
0.00697097
0.00681128
0.00665324
0.00649656
0.0063399
0.00618194
0.00602218
0.00585929
0.00569236
0.00551237
0.00527074
0.0047887
0.010747
0.0100132
0.00892028
0.00825429
0.00785166
0.00757787
0.0073666
0.00718021
0.00700554
0.00683778
0.00667435
0.0065133
0.00635268
0.00619114
0.00602813
0.00586228
0.00568817
0.00549079
0.00522711
0.00477901
0.0100305
0.00999874
0.00927051
0.00855999
0.00811362
0.00779762
0.00753865
0.00731087
0.0071061
0.00691741
0.0067392
0.00656756
0.00639921
0.00623213
0.00606492
0.00589523
0.00571987
0.00553535
0.00535791
0.00526235
0.00910501
0.0092312
0.00892832
0.0085121
0.00814495
0.00782632
0.00754779
0.00730739
0.00709489
0.00690042
0.00671718
0.00654188
0.00637254
0.00620738
0.00604463
0.00588264
0.00571977
0.00555408
0.00538597
0.0052249
0.00868669
0.00873019
0.00856464
0.00830174
0.0080214
0.00775011
0.00749922
0.00727304
0.00707034
0.00688441
0.00670848
0.0065395
0.00637595
0.00621714
0.00606349
0.00591587
0.00577525
0.00564368
0.0055298
0.0054471
0.00847071
0.00849254
0.00836536
0.00814789
0.00791552
0.00768644
0.00746377
0.00725084
0.00705045
0.00686384
0.00668865
0.00652185
0.00636201
0.00620775
0.00605896
0.00591783
0.00578613
0.00566518
0.00555755
0.00546191
0.00847068
0.00849251
0.00836531
0.0081478
0.00791538
0.00768625
0.00746348
0.0072504
0.00704978
0.00686271
0.0066867
0.00651852
0.00635664
0.00619957
0.00604649
0.00589833
0.00575597
0.00561972
0.00549181
0.00536999
0.00868661
0.00873012
0.00856454
0.00830159
0.00802119
0.00774982
0.00749877
0.00727232
0.00706911
0.00688221
0.00670458
0.00653313
0.00636645
0.00620307
0.00604156
0.00588085
0.00572047
0.00556089
0.00540431
0.00524773
0.00910498
0.00923116
0.00892826
0.00851203
0.00814485
0.00782616
0.00754749
0.00730685
0.00709394
0.00689886
0.00671475
0.00653815
0.00636676
0.0061983
0.00603061
0.00586159
0.00568953
0.00551412
0.00534252
0.00518999
0.0100305
0.00999875
0.00927052
0.00856
0.00811362
0.00779763
0.00753866
0.00731088
0.00710612
0.00691743
0.00673923
0.00656759
0.00639925
0.00623218
0.00606498
0.00589529
0.00571994
0.00553545
0.00535802
0.00526249
0.0107471
0.0100132
0.0089203
0.00825432
0.00785173
0.00757798
0.00736679
0.00718055
0.00700611
0.00683875
0.00667591
0.00651585
0.00635704
0.00619877
0.00604085
0.00588255
0.00571958
0.00554396
0.00533132
0.00500394
0.0103988
0.00954726
0.00878298
0.00822382
0.00784763
0.00757954
0.00736377
0.00717068
0.00699199
0.006823
0.00665872
0.00649684
0.00633657
0.00617708
0.00601685
0.00585352
0.00568306
0.00550055
0.00530243
0.00507546
0.00910498
0.00923116
0.00892825
0.00851201
0.00814484
0.00782614
0.00754748
0.00730683
0.00709392
0.00689884
0.00671472
0.00653812
0.00636672
0.00619825
0.00603055
0.00586152
0.00568945
0.00551403
0.00534243
0.0051899
0.0085355
0.00863648
0.00852491
0.00829943
0.00804365
0.00778522
0.00752678
0.00728509
0.00706708
0.00686661
0.00667867
0.00650004
0.00632796
0.00616022
0.00599523
0.00583169
0.00566885
0.00550844
0.00535794
0.0052165
0.00816756
0.00823562
0.00818326
0.00803632
0.00785148
0.00764637
0.00743575
0.00722894
0.00702796
0.00683577
0.00665359
0.00647957
0.00631175
0.00614894
0.00599049
0.00583571
0.00568402
0.00553573
0.00539328
0.00524965
0.00798451
0.00804894
0.00801949
0.00789468
0.00773574
0.00756213
0.00737592
0.00718803
0.00700208
0.00681895
0.0066402
0.00646686
0.00629937
0.00613777
0.00598212
0.00583183
0.00568515
0.00554024
0.00539593
0.00524224
0.00798449
0.00804892
0.00801946
0.0078946
0.00773558
0.00756191
0.00737566
0.00718766
0.00700154
0.00681812
0.00663894
0.006465
0.0062967
0.00613377
0.00597605
0.00582295
0.00567286
0.00552463
0.00537923
0.00523007
0.00816751
0.00823558
0.00818319
0.00803619
0.00785129
0.00764614
0.00743545
0.00722849
0.00702726
0.00683465
0.00665174
0.00647667
0.00630738
0.00614236
0.00598043
0.0058205
0.00566152
0.00550335
0.00534766
0.00518835
0.00853551
0.00863648
0.00852492
0.00829943
0.00804366
0.00778523
0.00752679
0.0072851
0.00706709
0.00686663
0.0066787
0.00650007
0.00632799
0.00616025
0.00599526
0.00583173
0.00566889
0.00550849
0.00535797
0.00521648
0.00910502
0.00923121
0.00892833
0.00851211
0.00814496
0.00782633
0.0075478
0.00730739
0.0070949
0.00690043
0.00671719
0.00654189
0.00637256
0.0062074
0.00604464
0.00588267
0.00571981
0.00555412
0.005386
0.00522493
0.0103988
0.00954731
0.00878304
0.0082239
0.00784776
0.00757978
0.00736419
0.00717138
0.00699313
0.0068249
0.00666191
0.00650203
0.00634491
0.00619047
0.00603846
0.00588839
0.00573986
0.0055941
0.00546099
0.00536235
0.00998951
0.00922677
0.008608
0.00815667
0.00781268
0.00754363
0.00732397
0.00713508
0.00696711
0.00680945
0.0066534
0.0064975
0.00634235
0.00618837
0.00603552
0.00588376
0.00573341
0.00558584
0.0054457
0.0053225
0.0086866
0.00873011
0.00856453
0.00830158
0.00802117
0.0077498
0.00749875
0.00727229
0.00706909
0.00688218
0.00670455
0.00653309
0.0063664
0.00620302
0.0060415
0.00588078
0.00572038
0.0055608
0.00540423
0.00524765
0.0081675
0.00823557
0.00818318
0.00803618
0.00785128
0.00764612
0.00743543
0.00722848
0.00702725
0.00683463
0.00665172
0.00647664
0.00630734
0.00614233
0.0059804
0.00582046
0.00566147
0.00550329
0.00534759
0.00518828
0.00786964
0.00792878
0.00791684
0.00782145
0.00768182
0.00751633
0.00733612
0.00715162
0.0069676
0.00678718
0.00661197
0.00644181
0.00627606
0.00611413
0.00595543
0.00579918
0.00564444
0.0054909
0.00533941
0.00518096
0.00771855
0.00778144
0.0077852
0.00771155
0.00759144
0.00744507
0.0072822
0.0071108
0.00693668
0.00676313
0.006592
0.00642419
0.00626002
0.00609951
0.00594244
0.0057881
0.00563534
0.00548376
0.0053342
0.00517657
0.00771853
0.00778143
0.00778518
0.00771153
0.0075914
0.00744501
0.00728211
0.00711066
0.00693649
0.00676287
0.00659165
0.00642371
0.00625935
0.00609852
0.00594102
0.0057863
0.00563344
0.0054823
0.00533455
0.00518101
0.00786964
0.00792878
0.00791685
0.00782145
0.00768183
0.00751633
0.00733613
0.00715163
0.00696762
0.00678719
0.00661198
0.00644183
0.00627608
0.00611415
0.00595546
0.00579921
0.00564448
0.00549096
0.0053395
0.00518106
0.00816756
0.00823562
0.00818326
0.00803632
0.00785148
0.00764637
0.00743575
0.00722895
0.00702797
0.00683578
0.0066536
0.00647958
0.00631176
0.00614897
0.00599052
0.00583574
0.00568406
0.00553579
0.00539336
0.00524974
0.00868669
0.00873019
0.00856464
0.00830174
0.0080214
0.00775011
0.00749922
0.00727304
0.00707034
0.00688441
0.00670848
0.0065395
0.00637596
0.00621714
0.0060635
0.00591588
0.00577527
0.00564372
0.00552985
0.00544722
0.00998956
0.00922683
0.00860807
0.00815676
0.00781282
0.00754386
0.00732437
0.00713579
0.00696832
0.00681145
0.00665671
0.00650293
0.00635121
0.00620286
0.0060597
0.00592486
0.00580289
0.00569989
0.00563173
0.00561333
0.00985533
0.00911414
0.00852596
0.00811784
0.0077959
0.00752919
0.00730768
0.00711707
0.00694637
0.00678978
0.00664009
0.00649051
0.00634038
0.00619181
0.00604701
0.00590819
0.00577873
0.00566207
0.00556456
0.00549905
0.00847067
0.0084925
0.0083653
0.00814778
0.00791537
0.00768623
0.00746345
0.00725037
0.00704975
0.00686268
0.00668667
0.00651848
0.0063566
0.00619952
0.00604642
0.00589826
0.00575589
0.00561963
0.00549172
0.00536992
0.00798447
0.00804891
0.00801945
0.00789459
0.00773557
0.0075619
0.00737564
0.00718764
0.00700152
0.0068181
0.00663891
0.00646497
0.00629666
0.00613374
0.00597602
0.00582291
0.00567282
0.00552459
0.00537919
0.00523005
0.00771853
0.00778142
0.00778517
0.00771152
0.0075914
0.007445
0.0072821
0.00711065
0.00693647
0.00676285
0.00659164
0.00642369
0.00625933
0.0060985
0.00594099
0.00578627
0.0056334
0.00548226
0.0053345
0.00518096
0.00757574
0.00764525
0.00766737
0.00761483
0.00751357
0.00738263
0.0072327
0.00707169
0.00690515
0.00673676
0.00656888
0.00640293
0.00623964
0.0060793
0.00592183
0.00576661
0.00561257
0.00545916
0.00530686
0.00514652
0.00757574
0.00764525
0.00766738
0.00761483
0.00751358
0.00738263
0.0072327
0.00707169
0.00690516
0.00673677
0.00656889
0.00640294
0.00623965
0.00607931
0.00592184
0.00576662
0.00561259
0.00545919
0.00530689
0.00514656
0.00771855
0.00778144
0.0077852
0.00771156
0.00759144
0.00744507
0.00728221
0.00711081
0.00693668
0.00676313
0.00659201
0.0064242
0.00626003
0.00609952
0.00594246
0.00578813
0.00563538
0.00548381
0.00533427
0.00517667
0.00798451
0.00804894
0.00801949
0.00789468
0.00773573
0.00756213
0.00737592
0.00718802
0.00700208
0.00681895
0.0066402
0.00646687
0.00629938
0.00613779
0.00598215
0.00583185
0.0056852
0.00554032
0.00539608
0.00524249
0.00847071
0.00849254
0.00836536
0.00814788
0.00791552
0.00768644
0.00746376
0.00725084
0.00705045
0.00686383
0.00668864
0.00652184
0.006362
0.00620775
0.00605896
0.00591783
0.00578615
0.00566524
0.00555771
0.00546225
0.00985535
0.00911416
0.008526
0.0081179
0.00779598
0.00752931
0.00730787
0.00711739
0.00694691
0.00679068
0.00664158
0.00649302
0.0063446
0.00619883
0.00605894
0.00592895
0.00581478
0.00572473
0.00567384
0.00569176
0.00985534
0.00911415
0.00852599
0.00811789
0.00779597
0.0075293
0.00730786
0.00711738
0.00694689
0.00679065
0.00664156
0.00649299
0.00634457
0.0061988
0.0060589
0.00592891
0.00581473
0.00572467
0.00567378
0.00569173
0.0084707
0.00849253
0.00836534
0.00814787
0.0079155
0.00768642
0.00746375
0.00725082
0.00705043
0.00686381
0.00668861
0.00652181
0.00636197
0.0062077
0.00605891
0.00591776
0.00578606
0.00566511
0.00555751
0.00546193
0.0079845
0.00804893
0.00801948
0.00789467
0.00773572
0.00756211
0.0073759
0.00718801
0.00700206
0.00681892
0.00664017
0.00646684
0.00629934
0.00613774
0.00598209
0.0058318
0.00568513
0.00554023
0.00539596
0.00524235
0.00771854
0.00778143
0.00778519
0.00771155
0.00759143
0.00744506
0.00728219
0.00711079
0.00693667
0.00676312
0.00659199
0.00642417
0.00626
0.00609949
0.00594242
0.00578808
0.00563533
0.00548374
0.00533419
0.00517658
0.00757573
0.00764525
0.00766737
0.00761482
0.00751357
0.00738263
0.0072327
0.00707169
0.00690515
0.00673676
0.00656888
0.00640292
0.00623964
0.00607929
0.00592183
0.0057666
0.00561257
0.00545916
0.00530686
0.00514653
0.00757574
0.00764525
0.00766738
0.00761483
0.00751357
0.00738263
0.0072327
0.00707169
0.00690515
0.00673676
0.00656888
0.00640293
0.00623964
0.0060793
0.00592184
0.00576662
0.00561259
0.00545919
0.0053069
0.00514657
0.00771853
0.00778142
0.00778518
0.00771153
0.0075914
0.00744501
0.0072821
0.00711066
0.00693648
0.00676287
0.00659165
0.00642371
0.00625935
0.00609852
0.00594102
0.00578631
0.00563345
0.00548233
0.00533459
0.00518106
0.00798448
0.00804892
0.00801945
0.0078946
0.00773558
0.00756191
0.00737565
0.00718766
0.00700153
0.00681811
0.00663894
0.006465
0.00629669
0.00613377
0.00597605
0.00582296
0.00567289
0.00552469
0.00537935
0.00523027
0.00847068
0.0084925
0.00836531
0.00814779
0.00791538
0.00768624
0.00746347
0.00725039
0.00704977
0.0068627
0.00668669
0.0065185
0.00635662
0.00619955
0.00604646
0.00589831
0.00575596
0.00561975
0.00549194
0.00537031
0.00985534
0.00911415
0.00852597
0.00811785
0.00779591
0.0075292
0.00730769
0.00711709
0.00694639
0.0067898
0.00664011
0.00649053
0.00634041
0.00619184
0.00604704
0.00590821
0.00577875
0.00566207
0.00556451
0.00549892
0.00998955
0.00922682
0.00860806
0.00815675
0.00781281
0.00754385
0.00732435
0.00713577
0.0069683
0.00681143
0.00665668
0.00650289
0.00635116
0.00620282
0.00605965
0.00592479
0.0058028
0.00569978
0.00563158
0.00561315
0.00868667
0.00873018
0.00856463
0.00830172
0.00802138
0.00775009
0.0074992
0.00727301
0.00707032
0.00688439
0.00670845
0.00653946
0.00637591
0.00621709
0.00606344
0.0059158
0.00577518
0.00564361
0.00552974
0.0054471
0.00816755
0.00823561
0.00818325
0.0080363
0.00785146
0.00764636
0.00743573
0.00722893
0.00702794
0.00683575
0.00665357
0.00647955
0.00631172
0.00614892
0.00599046
0.00583569
0.005684
0.00553573
0.00539331
0.00524974
0.00786963
0.00792877
0.00791684
0.00782144
0.00768181
0.00751632
0.00733611
0.00715161
0.00696759
0.00678717
0.00661196
0.0064418
0.00627605
0.00611412
0.00595542
0.00579916
0.00564443
0.00549089
0.00533939
0.00518093
0.00771852
0.00778142
0.00778517
0.00771152
0.00759139
0.007445
0.00728209
0.00711065
0.00693647
0.00676285
0.00659164
0.00642369
0.00625933
0.0060985
0.00594099
0.00578627
0.00563341
0.00548226
0.0053345
0.00518095
0.00771854
0.00778144
0.0077852
0.00771155
0.00759144
0.00744507
0.0072822
0.0071108
0.00693667
0.00676312
0.006592
0.00642418
0.00626001
0.0060995
0.00594244
0.00578811
0.00563535
0.00548378
0.00533425
0.00517665
0.00786964
0.00792878
0.00791684
0.00782145
0.00768182
0.00751633
0.00733612
0.00715162
0.00696761
0.00678718
0.00661197
0.00644181
0.00627607
0.00611414
0.00595545
0.0057992
0.00564448
0.00549096
0.0053395
0.00518109
0.00816751
0.00823557
0.00818318
0.00803619
0.00785128
0.00764613
0.00743544
0.00722848
0.00702725
0.00683464
0.00665173
0.00647666
0.00630736
0.00614234
0.00598041
0.00582049
0.00566152
0.00550335
0.00534768
0.00518839
0.00868661
0.00873011
0.00856453
0.00830158
0.00802118
0.00774981
0.00749876
0.0072723
0.0070691
0.00688219
0.00670456
0.00653311
0.00636642
0.00620304
0.00604152
0.00588081
0.00572043
0.00556086
0.00540433
0.00524782
0.00998952
0.00922678
0.00860801
0.00815668
0.00781269
0.00754364
0.00732397
0.00713509
0.00696712
0.00680946
0.00665342
0.00649751
0.00634237
0.0061884
0.00603555
0.00588378
0.00573342
0.00558583
0.00544563
0.00532231
0.0103988
0.0095473
0.00878302
0.00822389
0.00784775
0.00757976
0.00736417
0.00717136
0.0069931
0.00682487
0.00666187
0.00650198
0.00634486
0.00619041
0.00603838
0.00588829
0.00573972
0.00559393
0.00546076
0.00536197
0.009105
0.00923119
0.00892831
0.00851209
0.00814494
0.00782631
0.00754777
0.00730737
0.00709487
0.0069004
0.00671715
0.00654185
0.0063725
0.00620734
0.00604458
0.00588258
0.0057197
0.005554
0.00538589
0.00522483
0.00853549
0.00863647
0.0085249
0.00829941
0.00804364
0.00778521
0.00752677
0.00728507
0.00706706
0.00686659
0.00667866
0.00650002
0.00632794
0.0061602
0.00599521
0.00583167
0.00566883
0.00550843
0.00535794
0.00521653
0.0081675
0.00823556
0.00818317
0.00803618
0.00785127
0.00764612
0.00743543
0.00722847
0.00702724
0.00683462
0.00665171
0.00647663
0.00630734
0.00614232
0.00598039
0.00582045
0.00566145
0.00550326
0.00534753
0.00518814
0.00798447
0.00804891
0.00801944
0.00789459
0.00773557
0.0075619
0.00737564
0.00718764
0.00700152
0.0068181
0.00663892
0.00646497
0.00629667
0.00613374
0.00597602
0.0058229
0.00567281
0.00552457
0.00537915
0.00522996
0.0079845
0.00804894
0.00801948
0.00789467
0.00773573
0.00756212
0.00737591
0.00718801
0.00700206
0.00681893
0.00664018
0.00646685
0.00629935
0.00613776
0.00598211
0.00583182
0.00568515
0.00554026
0.00539599
0.0052424
0.00816756
0.00823562
0.00818326
0.00803631
0.00785147
0.00764637
0.00743574
0.00722894
0.00702795
0.00683577
0.00665358
0.00647956
0.00631174
0.00614894
0.00599049
0.00583572
0.00568404
0.00553577
0.00539338
0.00524985
0.0085355
0.00863648
0.00852491
0.00829943
0.00804365
0.00778522
0.00752678
0.00728509
0.00706708
0.00686661
0.00667868
0.00650005
0.00632797
0.00616022
0.00599523
0.00583169
0.00566886
0.00550847
0.005358
0.00521661
0.00910498
0.00923116
0.00892826
0.00851202
0.00814484
0.00782615
0.00754748
0.00730683
0.00709392
0.00689884
0.00671473
0.00653812
0.00636673
0.00619826
0.00603056
0.00586153
0.00568946
0.00551405
0.00534247
0.00518995
0.0103988
0.00954726
0.00878298
0.00822383
0.00784763
0.00757954
0.00736378
0.00717069
0.00699199
0.00682301
0.00665873
0.00649685
0.00633658
0.00617711
0.00601688
0.00585354
0.00568307
0.00550056
0.00530242
0.00507544
0.010747
0.0100132
0.00892029
0.00825431
0.00785171
0.00757796
0.00736677
0.00718052
0.00700608
0.00683871
0.00667587
0.0065158
0.00635698
0.00619869
0.00604075
0.00588244
0.00571944
0.00554377
0.00533107
0.00500356
0.0100304
0.00999873
0.0092705
0.00855998
0.0081136
0.00779761
0.00753863
0.00731086
0.00710608
0.00691739
0.00673918
0.00656754
0.00639919
0.0062321
0.00606489
0.00589519
0.00571982
0.00553531
0.00535788
0.00526234
0.00910497
0.00923115
0.00892824
0.00851201
0.00814483
0.00782613
0.00754747
0.00730682
0.0070939
0.00689882
0.00671471
0.00653811
0.00636671
0.00619824
0.00603054
0.00586151
0.00568945
0.00551405
0.00534248
0.00519
0.0086866
0.0087301
0.00856452
0.00830157
0.00802117
0.0077498
0.00749875
0.00727229
0.00706908
0.00688217
0.00670455
0.00653309
0.0063664
0.00620302
0.0060415
0.00588079
0.00572039
0.00556081
0.00540423
0.00524762
0.00847067
0.0084925
0.0083653
0.00814778
0.00791537
0.00768623
0.00746345
0.00725037
0.00704976
0.00686268
0.00668667
0.00651848
0.0063566
0.00619953
0.00604644
0.00589827
0.0057559
0.00561964
0.00549171
0.00536988
0.0084707
0.00849253
0.00836535
0.00814788
0.00791551
0.00768643
0.00746375
0.00725083
0.00705043
0.00686382
0.00668862
0.00652182
0.00636198
0.00620772
0.00605893
0.00591779
0.00578608
0.00566513
0.00555752
0.00546193
0.00868668
0.00873019
0.00856464
0.00830173
0.00802139
0.0077501
0.00749921
0.00727302
0.00707033
0.0068844
0.00670847
0.00653948
0.00637593
0.00621712
0.00606347
0.00591583
0.0057752
0.00564363
0.00552975
0.00544711
0.00910501
0.0092312
0.00892832
0.0085121
0.00814495
0.00782632
0.00754779
0.00730738
0.00709488
0.00690041
0.00671717
0.00654187
0.00637253
0.00620736
0.00604459
0.0058826
0.00571972
0.00555401
0.00538587
0.00522477
0.0100305
0.00999874
0.00927051
0.00855999
0.00811361
0.00779762
0.00753864
0.00731087
0.0071061
0.00691741
0.0067392
0.00656756
0.00639921
0.00623213
0.00606491
0.0058952
0.00571983
0.0055353
0.00535783
0.0052622
0.010747
0.0100132
0.00892028
0.00825429
0.00785166
0.00757787
0.0073666
0.00718021
0.00700554
0.00683778
0.00667435
0.0065133
0.00635268
0.00619117
0.00602816
0.00586228
0.00568816
0.00549077
0.00522708
0.00477899
0.0179258
0.0108114
0.00851995
0.00798211
0.00770773
0.00748549
0.00729878
0.00713225
0.00697094
0.00681125
0.0066532
0.00649651
0.00633984
0.00618186
0.00602209
0.00585919
0.00569225
0.00551223
0.00527059
0.00478847
0.010747
0.0100132
0.00892027
0.00825428
0.00785165
0.00757786
0.00736659
0.0071802
0.00700553
0.00683777
0.00667433
0.00651329
0.00635266
0.00619113
0.00602812
0.00586227
0.00568817
0.00549081
0.00522717
0.00477918
0.0103988
0.00954725
0.00878297
0.00822382
0.00784762
0.00757953
0.00736376
0.00717068
0.00699198
0.00682299
0.00665872
0.00649683
0.00633656
0.00617708
0.00601685
0.00585354
0.00568309
0.00550062
0.00530256
0.00507569
0.00998951
0.00922677
0.008608
0.00815667
0.00781268
0.00754363
0.00732396
0.00713507
0.00696711
0.00680945
0.0066534
0.0064975
0.00634236
0.00618838
0.00603553
0.00588379
0.00573346
0.00558592
0.00544583
0.00532271
0.00985533
0.00911414
0.00852596
0.00811784
0.0077959
0.00752919
0.00730768
0.00711707
0.00694638
0.00678978
0.00664009
0.00649052
0.00634039
0.00619182
0.00604703
0.00590822
0.00577878
0.00566214
0.00556467
0.00549922
0.00985534
0.00911416
0.00852599
0.00811789
0.00779597
0.0075293
0.00730786
0.00711738
0.0069469
0.00679066
0.00664157
0.00649301
0.00634458
0.00619882
0.00605892
0.00592894
0.00581478
0.00572474
0.00567388
0.00569188
0.00998956
0.00922683
0.00860807
0.00815676
0.00781282
0.00754385
0.00732436
0.00713578
0.00696831
0.00681144
0.00665669
0.00650291
0.00635118
0.00620284
0.00605967
0.00592482
0.00580284
0.00569983
0.00563166
0.00561329
0.0103988
0.0095473
0.00878303
0.00822389
0.00784775
0.00757977
0.00736418
0.00717136
0.00699311
0.00682489
0.00666189
0.006502
0.00634487
0.00619043
0.0060384
0.00588831
0.00573975
0.00559397
0.0054608
0.00536204
0.0107471
0.0100132
0.0089203
0.00825432
0.00785172
0.00757797
0.00736678
0.00718053
0.00700609
0.00683872
0.00667588
0.00651582
0.006357
0.00619872
0.00604078
0.00588245
0.00571945
0.00554378
0.00533107
0.00500357
0.0179258
0.0108114
0.00851996
0.00798212
0.00770774
0.0074855
0.00729879
0.00713226
0.00697095
0.00681126
0.00665321
0.00649653
0.00633986
0.00618189
0.00602212
0.0058592
0.00569225
0.00551221
0.00527055
0.00478841
0.0056495
0.0049756
0.00453731
0.00440121
0.00428931
0.00416459
0.0040391
0.00391197
0.0037818
0.00364922
0.00351734
0.00338627
0.0032559
0.00312744
0.00299943
0.0028715
0.00274384
0.00261712
0.00249166
0.00236733
0.00224435
0.00212169
0.0020001
0.0018796
0.00176022
0.00164205
0.00152442
0.00140773
0.0012917
0.00117712
0.0010642
0.000951123
0.000837599
0.000724558
0.000613241
0.000502839
0.00039153
0.000279149
0.0001685
5.13556e-05
0.00575628
0.00506716
0.00457469
0.00438515
0.00426167
0.00413756
0.00401368
0.0038894
0.00376226
0.00363237
0.00350242
0.00337279
0.00324317
0.00311489
0.00298666
0.00285834
0.00273071
0.00260411
0.00247896
0.00235479
0.00223222
0.0021103
0.00198992
0.00187073
0.00175212
0.00163434
0.00151686
0.00140037
0.00128461
0.00117029
0.00105783
0.000945419
0.000832485
0.000719863
0.000608989
0.000499065
0.000388236
0.000276608
0.000165951
5.05949e-05
0.00550459
0.00509443
0.00472959
0.00450978
0.00434518
0.00418904
0.00404069
0.00390111
0.00376632
0.00363342
0.00350131
0.00337003
0.00323884
0.00310919
0.0029805
0.00285222
0.00272481
0.00259831
0.00247317
0.0023487
0.00222576
0.00210328
0.00198257
0.00186317
0.00174449
0.00162686
0.00150956
0.00139346
0.0012783
0.00116449
0.00105251
0.000941024
0.000828789
0.000717088
0.000606865
0.000497261
0.000387166
0.000276294
0.000166137
5.05917e-05
0.00526184
0.00502921
0.00477948
0.00457427
0.00439956
0.00423829
0.00408554
0.00393971
0.00379874
0.00366068
0.0035246
0.00339019
0.00325735
0.00312617
0.00299613
0.00286704
0.00273891
0.00261177
0.00248574
0.00236033
0.00223606
0.00211216
0.00198885
0.00186675
0.00174629
0.00162754
0.00150998
0.00139363
0.00127835
0.00116416
0.00105088
0.000938618
0.000826188
0.000714839
0.000605171
0.000495718
0.000385484
0.00027478
0.00016529
5.01086e-05
0.00506546
0.00493795
0.00476843
0.00459224
0.00442463
0.0042647
0.00411108
0.00396309
0.00381932
0.00367857
0.0035402
0.00340396
0.00326969
0.00313709
0.00300589
0.00287592
0.00274715
0.00261952
0.00249301
0.00236761
0.00224349
0.00212038
0.00199781
0.00187592
0.00175513
0.00163575
0.00151781
0.00140136
0.00128617
0.00117138
0.0010566
0.000942753
0.000829776
0.00071809
0.000607934
0.000497738
0.00038681
0.000275796
0.000166185
5.05597e-05
0.00494029
0.00487844
0.00475281
0.0045922
0.0044295
0.00427238
0.00411979
0.00397195
0.00382841
0.00368777
0.00354918
0.00341253
0.00327768
0.00314445
0.00301268
0.00288225
0.00275312
0.00262524
0.00249854
0.00237301
0.00224867
0.00212549
0.00200352
0.0018825
0.00176188
0.00164178
0.00152285
0.00140572
0.00129025
0.00117578
0.00106215
0.00094944
0.000837161
0.00072545
0.000614378
0.00050302
0.00039108
0.000278813
0.000168276
5.16667e-05
0.0049375
0.00487347
0.00475191
0.00459054
0.00442757
0.00427155
0.00412045
0.00397384
0.00383104
0.00369081
0.00355232
0.00341557
0.0032806
0.00314718
0.00301495
0.00288403
0.00275461
0.00262657
0.00249981
0.0023743
0.00225003
0.0021269
0.0020049
0.00188405
0.00176358
0.00164358
0.00152462
0.00140751
0.00129209
0.00117806
0.00106522
0.000952329
0.000839232
0.000727445
0.000617067
0.000506465
0.000395036
0.000282514
0.000170964
5.32488e-05
0.005027
0.00492812
0.00475322
0.00457219
0.00440974
0.00425782
0.00411092
0.00396726
0.00382602
0.00368658
0.00354849
0.00341206
0.00327757
0.00314438
0.00301187
0.00288054
0.00275103
0.00262305
0.00249651
0.00237128
0.00224729
0.00212446
0.00200248
0.00188202
0.00176233
0.00164411
0.00152721
0.00141106
0.00129585
0.00118198
0.00106944
0.000956268
0.000842436
0.00073024
0.000619657
0.000508749
0.000397456
0.000284807
0.000172254
5.41096e-05
0.00529858
0.00501421
0.00472203
0.00452132
0.00436819
0.00422356
0.0040817
0.00394287
0.00380546
0.00366862
0.00353271
0.00339853
0.00326629
0.00313575
0.0030067
0.00287813
0.00275026
0.00262275
0.00249667
0.0023719
0.00224793
0.00212493
0.00200303
0.00188273
0.00176311
0.0016456
0.00152897
0.00141263
0.00129685
0.00118234
0.00106949
0.000956071
0.000841955
0.000729144
0.000617943
0.000506374
0.000394701
0.00028226
0.000169804
5.30999e-05
0.00560779
0.00502262
0.0046188
0.00446536
0.00434002
0.00420362
0.0040679
0.0039345
0.00380025
0.0036653
0.00353107
0.00339865
0.00326832
0.00313973
0.0030124
0.00288503
0.00275764
0.00263051
0.00250462
0.00238
0.0022562
0.00213304
0.00201055
0.00188934
0.00176934
0.00165076
0.00153295
0.00141578
0.00129932
0.00118435
0.00107115
0.000957529
0.000843284
0.000730036
0.000618189
0.000506348
0.000394979
0.000282875
0.000170241
5.30707e-05
0.00564968
0.00497616
0.00453906
0.00440344
0.00428985
0.00416354
0.00403784
0.00391108
0.00378097
0.00364881
0.00351673
0.00338584
0.00325655
0.00312804
0.00299979
0.00287167
0.00274409
0.00261722
0.00249169
0.00236738
0.00224393
0.00212136
0.00199998
0.00187991
0.0017608
0.00164258
0.00152502
0.00140809
0.00129194
0.0011773
0.00106442
0.000951363
0.000837792
0.000725123
0.000613659
0.000502482
0.000391726
0.000279992
0.000169223
5.14795e-05
0.00560786
0.00502221
0.00461695
0.00446266
0.00433871
0.00420479
0.00406974
0.0039356
0.00380109
0.00366567
0.00353157
0.00339894
0.00326764
0.00313912
0.00301197
0.00288487
0.00275736
0.00263038
0.00250462
0.00237993
0.00225665
0.00213332
0.00201062
0.00188891
0.00176866
0.00165018
0.0015323
0.00141535
0.001299
0.00118408
0.0010708
0.000957162
0.000843024
0.000729414
0.000617606
0.000506672
0.000394644
0.000281589
0.000169257
5.28244e-05
0.00544814
0.00504034
0.0046997
0.00449254
0.00433979
0.00419417
0.00405448
0.00392043
0.00378837
0.00365665
0.00352528
0.00339465
0.00326418
0.0031354
0.00300745
0.00287981
0.00275244
0.00262608
0.00250108
0.00237681
0.00225421
0.00213122
0.00200961
0.00188889
0.00176895
0.00165065
0.00153239
0.0014153
0.00129898
0.00118405
0.00107087
0.000957433
0.000843137
0.000729722
0.000618229
0.000507501
0.000395976
0.000283133
0.000171151
5.3439e-05
0.00526361
0.0050113
0.00477196
0.00456486
0.00438743
0.00422399
0.00407085
0.00392607
0.00378662
0.00365065
0.00351667
0.00338401
0.00325285
0.00312275
0.00299388
0.00286625
0.00273926
0.0026134
0.00248869
0.00236458
0.00224106
0.00211815
0.00199645
0.00187597
0.00175648
0.00163849
0.00152148
0.00140532
0.00129028
0.00117615
0.00106258
0.000949711
0.000836733
0.000724798
0.000614262
0.000503636
0.000392507
0.000281164
0.000171065
5.38393e-05
0.00514127
0.0049603
0.00477416
0.00458594
0.00441259
0.00425092
0.00409633
0.003948
0.00380513
0.00366625
0.00353034
0.00339623
0.00326408
0.00313309
0.00300338
0.00287493
0.00274739
0.00262087
0.0024952
0.0023707
0.00224678
0.00212371
0.00200124
0.00188032
0.00176081
0.00164202
0.00152451
0.00140778
0.00129208
0.00117695
0.00106189
0.00094773
0.000834766
0.000722867
0.00061187
0.000500656
0.000389177
0.000278053
0.000168434
5.36661e-05
0.00502984
0.00486857
0.00471645
0.00455466
0.00439532
0.00424269
0.00409489
0.00395065
0.00380969
0.00367178
0.00353636
0.0034027
0.00327039
0.00313923
0.0030093
0.00288054
0.00275283
0.00262612
0.00250033
0.0023756
0.00225151
0.00212815
0.00200587
0.00188492
0.00176498
0.00164581
0.00152803
0.00141153
0.00129581
0.00118043
0.0010653
0.000950772
0.000837692
0.000725333
0.000612985
0.000500285
0.000387678
0.00027613
0.000166439
5.36369e-05
0.00489036
0.00475013
0.00464553
0.00451272
0.00436876
0.00422675
0.00408686
0.00394755
0.00380957
0.00367385
0.00353973
0.00340675
0.00327486
0.00314395
0.00301396
0.00288494
0.00275689
0.00262984
0.00250374
0.0023786
0.00225432
0.00213093
0.00200859
0.00188724
0.00176696
0.00164785