/*--------------------------------*- C++ -*----------------------------------*\
| =========                 |                                                 |
| \\      /  F ield         | OpenFOAM: The Open Source CFD Toolbox           |
|  \\    /   O peration     | Version:  2212                                  |
|   \\  /    A nd           | Website:  www.openfoam.com                      |
|    \\/     M anipulation  |                                                 |
\*---------------------------------------------------------------------------*/
FoamFile
{
    version     2.0;
    format      ascii;
    arch        "LSB;label=32;scalar=64";
    class       surfaceScalarField;
    location    "2.15";
    object      phi;
}
// * * * * * * * * * * * * * * * * * * * * * * * * * * * * * * * * * * * * * //

dimensions      [0 3 -1 0 0 0 0];

oriented        oriented;

internalField   nonuniform List<scalar> 
19019
(
3.3225e-07
1.09683e-09
1.09683e-09
2.7919e-07
2.65294e-08
2.65297e-08
2.49218e-07
1.49861e-08
1.49866e-08
2.29254e-07
9.98149e-09
9.98233e-09
2.14834e-07
7.20875e-09
7.21088e-09
2.03199e-07
5.8163e-09
5.81954e-09
1.93771e-07
4.71066e-09
4.71732e-09
1.86002e-07
3.87816e-09
3.8901e-09
1.79353e-07
3.31449e-09
3.33518e-09
1.73523e-07
2.89722e-09
2.93268e-09
1.68349e-07
2.55787e-09
2.61559e-09
1.63727e-07
2.26387e-09
2.35849e-09
1.59561e-07
2.00134e-09
2.16456e-09
1.55786e-07
1.73984e-09
2.03492e-09
1.52424e-07
1.42903e-09
1.93334e-09
1.49524e-07
1.05887e-09
1.84112e-09
1.47293e-07
5.28299e-10
1.70285e-09
1.46786e-07
-6.99857e-10
1.20681e-09
1.50376e-07
-3.51476e-09
-7.5358e-11
-2.69772e-08
-1.27123e-08
6.3138e-07
3.58746e-09
7.40294e-09
6.14564e-07
2.26451e-08
2.07007e-08
5.86445e-07
2.4375e-08
1.873e-08
5.61725e-07
1.8853e-08
1.58484e-08
5.39616e-07
1.5566e-08
1.37512e-08
5.20635e-07
1.35044e-08
1.12933e-08
5.04688e-07
1.19419e-08
8.71573e-09
4.90933e-07
1.07829e-08
6.85055e-09
4.78708e-07
9.91871e-09
5.62075e-09
4.6762e-07
9.18922e-09
4.79559e-09
4.57433e-07
8.53149e-09
4.21398e-09
4.47999e-07
7.91547e-09
3.78243e-09
4.39205e-07
7.32202e-09
3.47366e-09
4.30974e-07
6.71945e-09
3.25098e-09
4.23278e-07
6.04699e-09
3.07845e-09
4.16259e-07
5.18021e-09
2.89688e-09
4.10203e-07
3.97437e-09
2.61009e-09
4.06383e-07
1.51996e-09
1.5999e-09
4.08708e-07
-3.7719e-09
-2.06732e-09
-1.93963e-08
-1.86826e-08
8.90375e-07
2.8525e-09
6.33243e-09
8.82485e-07
1.3408e-08
1.71263e-08
8.70357e-07
1.78663e-08
1.86371e-08
8.55108e-07
1.69534e-08
1.7149e-08
8.39973e-07
1.53371e-08
1.53631e-08
8.25519e-07
1.41651e-08
1.37939e-08
8.1174e-07
1.33713e-08
1.23492e-08
7.98729e-07
1.26607e-08
1.11331e-08
7.86629e-07
1.18625e-08
1.01565e-08
7.75442e-07
1.10006e-08
9.37602e-09
7.65016e-07
1.0164e-08
8.79357e-09
7.55182e-07
9.36504e-09
8.38447e-09
7.45793e-07
8.60118e-09
8.10936e-09
7.36738e-07
7.84095e-09
7.93356e-09
7.27931e-07
7.00608e-09
7.84847e-09
7.19295e-07
5.9673e-09
7.84843e-09
7.10718e-07
4.61902e-09
7.93255e-09
7.0173e-07
2.49628e-09
8.01196e-09
6.90805e-07
-9.16576e-10
8.069e-09
-2.28108e-09
9.61735e-09
1.07432e-06
1.06487e-09
5.56893e-09
1.06824e-06
5.58676e-09
1.39004e-08
1.06138e-06
8.4645e-09
1.62626e-08
1.05338e-06
9.04068e-09
1.59108e-08
1.04509e-06
8.61953e-09
1.50056e-08
1.03719e-06
8.12378e-09
1.39387e-08
1.02979e-06
7.79255e-09
1.29855e-08
1.02275e-06
7.56459e-09
1.21285e-08
1.01586e-06
7.387e-09
1.13682e-08
1.00902e-06
7.11335e-09
1.07313e-08
1.00223e-06
6.69021e-09
1.02644e-08
9.95423e-07
6.21783e-09
9.94981e-09
9.88485e-07
5.76678e-09
9.77292e-09
9.81225e-07
5.35675e-09
9.74379e-09
9.73352e-07
4.98916e-09
9.88964e-09
9.64405e-07
4.63821e-09
1.02765e-08
9.53611e-07
4.3653e-09
1.10473e-08
9.39707e-07
3.99262e-09
1.24079e-08
9.20952e-07
3.47365e-09
1.43647e-08
5.52345e-09
2.27639e-08
1.16914e-06
9.62006e-14
4.90665e-09
1.16312e-06
4.75764e-13
1.16088e-08
1.15731e-06
1.15851e-12
1.42761e-08
1.15201e-06
2.1441e-12
1.4335e-08
1.14689e-06
3.76932e-12
1.37335e-08
1.14204e-06
6.73442e-12
1.29749e-08
1.13771e-06
1.21336e-11
1.21093e-08
1.13393e-06
2.10911e-11
1.13219e-08
1.13061e-06
3.63212e-11
1.06732e-08
1.12743e-06
6.16766e-11
1.02287e-08
1.12406e-06
1.03889e-10
9.95836e-09
1.12031e-06
1.7405e-10
9.79527e-09
1.11602e-06
2.91546e-10
9.75913e-09
1.111e-06
4.87638e-10
9.895e-09
1.10493e-06
8.11477e-10
1.02417e-08
1.09734e-06
1.35299e-09
1.08734e-08
1.08742e-06
2.3179e-09
1.19703e-08
1.07374e-06
3.84644e-09
1.38243e-08
1.05402e-06
6.56802e-09
1.66343e-08
1.21722e-08
2.20915e-08
1.16914e-06
-1.06465e-09
4.90661e-09
1.16312e-06
-5.586e-09
1.16087e-08
1.15731e-06
-8.46304e-09
1.42761e-08
1.15202e-06
-9.03814e-09
1.43345e-08
1.1469e-06
-8.61456e-09
1.37318e-08
1.14205e-06
-8.11415e-09
1.29714e-08
1.13773e-06
-7.77482e-09
1.21038e-08
1.13398e-06
-7.5336e-09
1.13129e-08
1.13069e-06
-7.33269e-09
1.06575e-08
1.12757e-06
-7.02266e-09
1.02018e-08
1.1243e-06
-6.54142e-09
9.91383e-09
1.12073e-06
-5.97542e-09
9.71965e-09
1.11677e-06
-5.36818e-09
9.62659e-09
1.11229e-06
-4.69641e-09
9.66046e-09
1.10717e-06
-3.90688e-09
9.83368e-09
1.10118e-06
-2.82591e-09
1.01682e-08
1.09402e-06
-1.26507e-09
1.07427e-08
1.08519e-06
1.05421e-09
1.16317e-08
1.07438e-06
4.5052e-09
1.28731e-08
1.01513e-08
1.4483e-08
1.07432e-06
-2.85254e-09
5.56894e-09
1.06824e-06
-1.34082e-08
1.39004e-08
1.06138e-06
-1.78665e-08
1.62619e-08
1.05339e-06
-1.69537e-08
1.59087e-08
1.04511e-06
-1.5337e-08
1.50014e-08
1.03722e-06
-1.41637e-08
1.39323e-08
1.02984e-06
-1.33683e-08
1.29759e-08
1.02285e-06
-1.26562e-08
1.2113e-08
1.01603e-06
-1.18544e-08
1.13421e-08
1.00931e-06
-1.09872e-08
1.0686e-08
1.00272e-06
-1.0143e-08
1.01862e-08
9.96269e-07
-9.3319e-09
9.81283e-09
9.8991e-07
-8.54654e-09
9.53694e-09
9.83626e-07
-7.74987e-09
9.33739e-09
9.77397e-07
-6.86018e-09
9.18274e-09
9.7123e-07
-5.6801e-09
9.02118e-09
9.65147e-07
-3.98489e-09
8.80281e-09
9.59032e-07
-1.32282e-09
8.49201e-09
9.52269e-07
3.11892e-09
8.14944e-09
1.17388e-08
7.55248e-09
8.90375e-07
-3.58756e-09
6.33235e-09
8.82486e-07
-2.26457e-08
1.71257e-08
8.7036e-07
-2.43757e-08
1.86355e-08
8.55114e-07
-1.88544e-08
1.71464e-08
8.39987e-07
-1.55689e-08
1.53593e-08
8.25544e-07
-1.35092e-08
1.37888e-08
8.11785e-07
-1.19501e-08
1.23409e-08
7.98807e-07
-1.07965e-08
1.11185e-08
7.86761e-07
-9.94162e-09
1.01329e-08
7.75665e-07
-9.22829e-09
9.33704e-09
7.65392e-07
-8.59804e-09
8.72794e-09
7.55812e-07
-8.02283e-09
8.27155e-09
7.46837e-07
-7.48991e-09
7.91838e-09
7.38457e-07
-6.98871e-09
7.61857e-09
7.30767e-07
-6.483e-09
7.31334e-09
7.24088e-07
-5.87688e-09
6.87524e-09
7.18919e-07
-4.9262e-09
6.11072e-09
7.15784e-07
-2.70824e-09
4.52025e-09
7.15317e-07
1.86147e-09
1.72494e-09
1.43526e-08
-4.89165e-09
6.3138e-07
-1.09682e-09
7.40286e-09
6.14564e-07
-2.65297e-08
2.07003e-08
5.86445e-07
-1.49866e-08
1.87291e-08
5.61727e-07
-9.9823e-09
1.58467e-08
5.3962e-07
-7.21083e-09
1.37489e-08
5.20641e-07
-5.81948e-09
1.12889e-08
5.047e-07
-4.71725e-09
8.70875e-09
4.90954e-07
-3.89001e-09
6.83921e-09
4.78746e-07
-3.33508e-09
5.60176e-09
4.67687e-07
-2.93257e-09
4.76306e-09
4.57553e-07
-2.61547e-09
4.15126e-09
4.48214e-07
-2.35835e-09
3.67461e-09
4.39572e-07
-2.16442e-09
3.3163e-09
4.31567e-07
-2.03452e-09
3.05095e-09
4.2423e-07
-1.93279e-09
2.7875e-09
4.17809e-07
-1.84064e-09
2.38456e-09
4.12942e-07
-1.70247e-09
1.64321e-09
4.11692e-07
-1.20613e-09
-2.51472e-10
4.18641e-07
7.67794e-11
-5.16464e-09
1.27079e-08
-2.09915e-08
3.3225e-07
1.09684e-09
2.7919e-07
2.65294e-08
2.49218e-07
1.49861e-08
2.29254e-07
9.98153e-09
2.14834e-07
7.20881e-09
2.03199e-07
5.81637e-09
1.93771e-07
4.71075e-09
1.86002e-07
3.87827e-09
1.79353e-07
3.31463e-09
1.73523e-07
2.89739e-09
1.68349e-07
2.55807e-09
1.63727e-07
2.26413e-09
1.59561e-07
2.00173e-09
1.55786e-07
1.74034e-09
1.52423e-07
1.42969e-09
1.49523e-07
1.05984e-09
1.47291e-07
5.29385e-10
1.46784e-07
-6.98707e-10
1.50374e-07
-3.51397e-09
-2.69735e-08
6.3138e-07
7.40286e-09
3.58757e-09
6.14564e-07
2.07003e-08
2.26457e-08
5.86446e-07
1.87291e-08
2.43758e-08
5.61727e-07
1.58467e-08
1.88544e-08
5.3962e-07
1.37489e-08
1.55689e-08
5.20641e-07
1.12889e-08
1.35093e-08
5.047e-07
8.70869e-09
1.19502e-08
4.90954e-07
6.83913e-09
1.07966e-08
4.78746e-07
5.60165e-09
9.94169e-09
4.67688e-07
4.76292e-09
9.22836e-09
4.57554e-07
4.15107e-09
8.5981e-09
4.48215e-07
3.6744e-09
8.02287e-09
4.39574e-07
3.316e-09
7.48995e-09
4.31569e-07
3.05077e-09
6.98871e-09
4.24233e-07
2.78699e-09
6.48301e-09
4.17813e-07
2.38374e-09
5.877e-09
4.12948e-07
1.6423e-09
4.92591e-09
4.117e-07
-2.52551e-10
2.70736e-09
4.18653e-07
-5.16598e-09
-1.86318e-09
-2.09987e-08
-1.43588e-08
9.23616e-07
7.03375e-09
7.03391e-09
9.25318e-07
1.98495e-08
1.98501e-08
9.17184e-07
2.27961e-08
2.27973e-08
9.04274e-07
2.2301e-08
2.23032e-08
8.90533e-07
2.0619e-08
2.06226e-08
8.77408e-07
1.78502e-08
1.78569e-08
8.65438e-07
1.46917e-08
1.47027e-08
8.5476e-07
1.21753e-08
1.21929e-08
8.45319e-07
1.03161e-08
1.03466e-08
8.36974e-07
8.92547e-09
8.97813e-09
8.29543e-07
7.85384e-09
7.94274e-09
8.2285e-07
7.00238e-09
7.14742e-09
8.16811e-07
6.2996e-09
6.52868e-09
8.1144e-07
5.65633e-09
6.01645e-09
8.06801e-07
4.96866e-09
5.53632e-09
8.02964e-07
4.12103e-09
4.99656e-09
8.00049e-07
2.9299e-09
4.23674e-09
7.97378e-07
1.06996e-09
2.94919e-09
7.91507e-07
-1.83297e-09
4.70194e-10
-6.20849e-09
-4.09466e-09
1.1589e-06
5.28122e-09
6.10277e-09
1.1657e-06
1.39984e-08
1.61836e-08
1.16844e-06
1.79774e-08
2.0708e-08
1.16661e-06
1.91781e-08
2.21071e-08
1.16221e-06
1.88747e-08
2.15093e-08
1.15653e-06
1.75424e-08
1.97753e-08
1.15046e-06
1.56798e-08
1.74341e-08
1.14455e-06
1.38768e-08
1.53447e-08
1.1391e-06
1.22668e-08
1.36553e-08
1.13423e-06
1.08535e-08
1.23107e-08
1.12995e-06
9.67132e-09
1.12563e-08
1.12622e-06
8.67862e-09
1.04446e-08
1.123e-06
7.80603e-09
9.8242e-09
1.12026e-06
6.98001e-09
9.34588e-09
1.11798e-06
6.1221e-09
8.97742e-09
1.11612e-06
5.14616e-09
8.68162e-09
1.11466e-06
3.92133e-09
8.40118e-09
1.11344e-06
2.265e-09
8.03364e-09
1.11228e-06
1.7254e-11
7.38571e-09
-2.86628e-09
6.60037e-09
1.32762e-06
2.7183e-09
4.93133e-09
1.33539e-06
7.12104e-09
1.30097e-08
1.34286e-06
9.55378e-09
1.72173e-08
1.34847e-06
1.05788e-08
1.89029e-08
1.35196e-06
1.08767e-08
1.9508e-08
1.35374e-06
1.05828e-08
1.91259e-08
1.35439e-06
9.89542e-09
1.81175e-08
1.3545e-06
9.05185e-09
1.68381e-08
1.35443e-06
8.2036e-09
1.55055e-08
1.3543e-06
7.41275e-09
1.43004e-08
1.35417e-06
6.71093e-09
1.33602e-08
1.35404e-06
6.09415e-09
1.2658e-08
1.35392e-06
5.54331e-09
1.21633e-08
1.35373e-06
5.04121e-09
1.18648e-08
1.3534e-06
4.56832e-09
1.17721e-08
1.35279e-06
4.11194e-09
1.19207e-08
1.35173e-06
3.65205e-09
1.23835e-08
1.34998e-06
3.17314e-09
1.32504e-08
1.34701e-06
2.76855e-09
1.45855e-08
3.09879e-09
1.67021e-08
1.41518e-06
1.9881e-13
4.19309e-09
1.42279e-06
5.7609e-13
1.11166e-08
1.43152e-06
1.00245e-12
1.50998e-08
1.4398e-06
1.90433e-12
1.66317e-08
1.44712e-06
3.64628e-12
1.72805e-08
1.45316e-06
6.51846e-12
1.75186e-08
1.45798e-06
1.09096e-11
1.71667e-08
1.46188e-06
1.80834e-11
1.64582e-08
1.46514e-06
3.07632e-11
1.55831e-08
1.46801e-06
5.35225e-11
1.47224e-08
1.47064e-06
9.15045e-11
1.3944e-08
1.47307e-06
1.53905e-10
1.33058e-08
1.47522e-06
2.49273e-10
1.2903e-08
1.47701e-06
3.9588e-10
1.27508e-08
1.47838e-06
6.30701e-10
1.281e-08
1.47923e-06
9.95251e-10
1.31374e-08
1.47944e-06
1.55544e-09
1.38602e-08
1.47893e-06
2.39865e-09
1.51087e-08
1.47783e-06
3.6182e-09
1.68901e-08
5.26304e-09
1.887e-08
1.41518e-06
-2.71808e-09
4.19298e-09
1.42279e-06
-7.12046e-09
1.11163e-08
1.43152e-06
-9.55271e-09
1.50993e-08
1.4398e-06
-1.05766e-08
1.66306e-08
1.44713e-06
-1.08725e-08
1.72777e-08
1.45317e-06
-1.05755e-08
1.75137e-08
1.45801e-06
-9.88289e-09
1.71587e-08
1.46193e-06
-9.03067e-09
1.64457e-08
1.46522e-06
-8.16733e-09
1.55638e-08
1.46813e-06
-7.34713e-09
1.46904e-08
1.47084e-06
-6.59727e-09
1.38895e-08
1.47341e-06
-5.90565e-09
1.321e-08
1.47581e-06
-5.25569e-09
1.27356e-08
1.47799e-06
-4.59693e-09
1.24749e-08
1.47993e-06
-3.85118e-09
1.23782e-08
1.4816e-06
-2.95083e-09
1.24418e-08
1.48297e-06
-1.79135e-09
1.27187e-08
1.484e-06
-2.58667e-10
1.32591e-08
1.4847e-06
1.7594e-09
1.40351e-08
4.2599e-09
1.48506e-08
1.32763e-06
-5.28136e-09
4.9311e-09
1.33539e-06
-1.39987e-08
1.30089e-08
1.34287e-06
-1.79779e-08
1.72157e-08
1.34848e-06
-1.91787e-08
1.8899e-08
1.35198e-06
-1.88757e-08
1.95009e-08
1.35377e-06
-1.75445e-08
1.9115e-08
1.35444e-06
-1.56825e-08
1.81005e-08
1.35459e-06
-1.38795e-08
1.68112e-08
1.35458e-06
-1.22724e-08
1.5464e-08
1.35455e-06
-1.0864e-08
1.42329e-08
1.35458e-06
-9.68931e-09
1.32443e-08
1.35474e-06
-8.7119e-09
1.24642e-08
1.35504e-06
-7.87213e-09
1.18468e-08
1.35553e-06
-7.10054e-09
1.1351e-08
1.35624e-06
-6.31274e-09
1.09335e-08
1.35718e-06
-5.41377e-09
1.05492e-08
1.3583e-06
-4.26398e-09
1.01539e-08
1.35952e-06
-2.6984e-09
9.7125e-09
1.36076e-06
-5.60179e-10
9.2294e-09
2.64651e-09
8.72755e-09
1.1589e-06
-7.03391e-09
6.10248e-09
1.1657e-06
-1.98501e-08
1.61824e-08
1.16845e-06
-2.27973e-08
2.07054e-08
1.16661e-06
-2.23032e-08
2.21029e-08
1.16222e-06
-2.06226e-08
2.15031e-08
1.15655e-06
-1.78569e-08
1.97665e-08
1.15049e-06
-1.47026e-08
1.74198e-08
1.1446e-06
-1.21928e-08
1.53199e-08
1.1392e-06
-1.03466e-08
1.36132e-08
1.13441e-06
-8.97805e-09
1.22415e-08
1.13025e-06
-7.94264e-09
1.11425e-08
1.12669e-06
-7.14731e-09
1.02606e-08
1.12374e-06
-6.52885e-09
9.52903e-09
1.1214e-06
-6.01606e-09
8.87802e-09
1.11969e-06
-5.53574e-09
8.23845e-09
1.11865e-06
-4.99658e-09
7.50404e-09
1.11821e-06
-4.23665e-09
6.52175e-09
1.11789e-06
-2.94916e-09
5.08949e-09
1.11643e-06
-4.70232e-10
3.09654e-09
4.09267e-09
5.72349e-10
9.23616e-07
-7.40294e-09
7.03376e-09
9.25318e-07
-2.07007e-08
1.98495e-08
9.17184e-07
-1.873e-08
2.27962e-08
9.04274e-07
-1.58483e-08
2.23011e-08
8.90533e-07
-1.37511e-08
2.06191e-08
8.77408e-07
-1.12933e-08
1.78503e-08
8.65438e-07
-8.71569e-09
1.46918e-08
8.54759e-07
-6.8505e-09
1.21755e-08
8.45319e-07
-5.62069e-09
1.03163e-08
8.36973e-07
-4.79552e-09
8.92578e-09
8.29542e-07
-4.21389e-09
7.85421e-09
8.22849e-07
-3.78227e-09
7.00279e-09
8.16809e-07
-3.47352e-09
6.30029e-09
8.11438e-07
-3.25075e-09
5.65719e-09
8.06798e-07
-3.07828e-09
4.96994e-09
8.0296e-07
-2.89668e-09
4.1227e-09
8.00044e-07
-2.60924e-09
2.9316e-09
7.97369e-07
-1.59775e-09
1.07197e-09
7.91494e-07
2.07186e-09
-1.83121e-09
1.86909e-08
-6.2065e-09
6.3138e-07
3.58748e-09
6.14564e-07
2.26452e-08
5.86445e-07
2.43751e-08
5.61725e-07
1.88531e-08
5.39616e-07
1.55661e-08
5.20635e-07
1.35046e-08
5.04688e-07
1.19421e-08
4.90933e-07
1.07831e-08
4.78708e-07
9.919e-09
4.6762e-07
9.18957e-09
4.57432e-07
8.53194e-09
4.47998e-07
7.91601e-09
4.39204e-07
7.32262e-09
4.30973e-07
6.72057e-09
4.23276e-07
6.0486e-09
4.16257e-07
5.18174e-09
4.10201e-07
3.97641e-09
4.06382e-07
1.52264e-09
4.08709e-07
-3.76924e-09
-1.93928e-08
8.90375e-07
6.33234e-09
2.85255e-09
8.82487e-07
1.71257e-08
1.34082e-08
8.7036e-07
1.86355e-08
1.78665e-08
8.55115e-07
1.71464e-08
1.69537e-08
8.39987e-07
1.53592e-08
1.5337e-08
8.25544e-07
1.37888e-08
1.41637e-08
8.11785e-07
1.23408e-08
1.33683e-08
7.98807e-07
1.11184e-08
1.26562e-08
7.86762e-07
1.01327e-08
1.18544e-08
7.75666e-07
9.33686e-09
1.09872e-08
7.65394e-07
8.72769e-09
1.0143e-08
7.55813e-07
8.27117e-09
9.33188e-09
7.46839e-07
7.9177e-09
8.54646e-09
7.3846e-07
7.61783e-09
7.74964e-09
7.30771e-07
7.31253e-09
6.85982e-09
7.24094e-07
6.87398e-09
5.67966e-09
7.18927e-07
6.10895e-09
3.98414e-09
7.15796e-07
4.51752e-09
1.32144e-09
7.15333e-07
1.72106e-09
-3.12123e-09
-4.89532e-09
-1.17428e-08
1.1589e-06
6.10247e-09
5.28136e-09
1.1657e-06
1.61824e-08
1.39987e-08
1.16845e-06
2.07054e-08
1.79779e-08
1.16661e-06
2.21028e-08
1.91787e-08
1.16222e-06
2.1503e-08
1.88757e-08
1.15655e-06
1.97664e-08
1.75445e-08
1.15049e-06
1.74196e-08
1.56825e-08
1.14461e-06
1.53197e-08
1.38795e-08
1.1392e-06
1.3613e-08
1.22724e-08
1.13441e-06
1.22412e-08
1.0864e-08
1.13025e-06
1.11421e-08
9.6893e-09
1.1267e-06
1.02599e-08
8.7118e-09
1.12374e-06
9.528e-09
7.87181e-09
1.1214e-06
8.87715e-09
7.10068e-09
1.1197e-06
8.23749e-09
6.31305e-09
1.11865e-06
7.50234e-09
5.41348e-09
1.11821e-06
6.51967e-09
4.26343e-09
1.1179e-06
5.08687e-09
2.69745e-09
1.11644e-06
3.09325e-09
5.58716e-10
5.72412e-10
-2.64707e-09
1.37712e-06
4.57712e-09
4.57742e-09
1.38565e-06
1.19165e-08
1.19174e-08
1.39417e-06
1.64458e-08
1.64475e-08
1.40126e-06
1.85586e-08
1.85613e-08
1.40642e-06
1.89267e-08
1.89312e-08
1.40952e-06
1.82163e-08
1.82232e-08
1.41095e-06
1.67063e-08
1.67177e-08
1.41154e-06
1.50274e-08
1.50451e-08
1.41183e-06
1.34736e-08
1.35025e-08
1.4121e-06
1.21204e-08
1.21665e-08
1.41251e-06
1.0955e-08
1.10291e-08
1.41319e-06
9.95507e-09
1.00736e-08
1.41419e-06
9.08093e-09
9.27148e-09
1.41554e-06
8.28272e-09
8.58568e-09
1.41726e-06
7.51385e-09
7.98202e-09
1.41931e-06
6.71161e-09
7.42185e-09
1.42157e-06
5.80676e-09
6.85986e-09
1.42368e-06
4.74142e-09
6.26119e-09
1.42501e-06
3.53361e-09
5.62275e-09
2.53129e-09
5.17317e-09
1.53312e-06
2.36604e-09
3.64959e-09
1.54218e-06
6.23886e-09
9.63468e-09
1.55327e-06
8.87345e-09
1.36933e-08
1.56445e-06
1.03474e-08
1.59396e-08
1.57507e-06
1.09001e-08
1.69167e-08
1.5847e-06
1.07553e-08
1.69532e-08
1.59299e-06
1.01448e-08
1.63888e-08
1.60006e-06
9.33371e-09
1.54659e-08
1.6062e-06
8.46412e-09
1.43752e-08
1.61167e-06
7.64677e-09
1.32987e-08
1.61672e-06
6.92717e-09
1.23365e-08
1.62151e-06
6.30484e-09
1.15208e-08
1.62614e-06
5.75672e-09
1.08617e-08
1.63067e-06
5.25708e-09
1.03589e-08
1.63515e-06
4.79347e-09
1.00099e-08
1.63961e-06
4.35486e-09
9.82066e-09
1.64406e-06
3.93131e-09
9.80638e-09
1.64855e-06
3.5217e-09
9.98128e-09
1.65319e-06
3.15961e-09
1.0315e-08
2.9456e-09
1.07108e-08
1.61424e-06
1.42893e-13
3.09307e-09
1.62332e-06
3.41692e-13
8.27469e-09
1.63533e-06
6.14485e-13
1.19584e-08
1.64819e-06
1.13319e-12
1.41167e-08
1.66117e-06
2.08884e-12
1.52041e-08
1.67385e-06
3.47983e-12
1.55891e-08
1.68572e-06
5.85524e-12
1.54389e-08
1.69653e-06
9.47765e-12
1.49722e-08
1.70625e-06
1.58243e-11
1.43064e-08
1.71505e-06
2.66756e-11
1.35459e-08
1.72309e-06
4.40937e-11
1.27838e-08
1.73054e-06
7.07938e-11
1.20931e-08
1.73756e-06
1.09593e-10
1.15298e-08
1.74427e-06
1.68053e-10
1.11285e-08
1.75071e-06
2.57803e-10
1.091e-08
1.75691e-06
3.97747e-10
1.08893e-08
1.76301e-06
6.0056e-10
1.10902e-08
1.76924e-06
8.78906e-10
1.15191e-08
1.77599e-06
1.22168e-09
1.20871e-08
1.59042e-09
1.26015e-08
1.61424e-06
-2.36596e-09
3.09292e-09
1.62332e-06
-6.23871e-09
8.27423e-09
1.63533e-06
-8.87315e-09
1.19575e-08
1.6482e-06
-1.03468e-08
1.41149e-08
1.66118e-06
-1.08993e-08
1.52008e-08
1.67386e-06
-1.0754e-08
1.55837e-08
1.68574e-06
-1.01423e-08
1.54313e-08
1.69656e-06
-9.32924e-09
1.49606e-08
1.70631e-06
-8.45622e-09
1.42885e-08
1.71514e-06
-7.63152e-09
1.35173e-08
1.72324e-06
-6.89917e-09
1.27371e-08
1.73076e-06
-6.2573e-09
1.20166e-08
1.73788e-06
-5.68388e-09
1.14054e-08
1.74475e-06
-5.14852e-09
1.09295e-08
1.7514e-06
-4.62188e-09
1.05985e-08
1.75791e-06
-4.07259e-09
1.04113e-08
1.76433e-06
-3.46802e-09
1.03663e-08
1.77079e-06
-2.77324e-09
1.04528e-08
1.77738e-06
-1.96135e-09
1.0622e-08
-1.04601e-09
1.07945e-08
1.53312e-06
-4.57742e-09
3.64923e-09
1.54218e-06
-1.19174e-08
9.63362e-09
1.55328e-06
-1.64475e-08
1.36913e-08
1.56446e-06
-1.85613e-08
1.59358e-08
1.57508e-06
-1.89312e-08
1.69104e-08
1.58472e-06
-1.82232e-08
1.69434e-08
1.59302e-06
-1.67177e-08
1.63738e-08
1.60011e-06
-1.50451e-08
1.54418e-08
1.60628e-06
-1.35025e-08
1.43379e-08
1.61181e-06
-1.21665e-08
1.32404e-08
1.61694e-06
-1.10291e-08
1.22426e-08
1.62185e-06
-1.00736e-08
1.13699e-08
1.62666e-06
-9.2715e-09
1.06174e-08
1.63149e-06
-8.58568e-09
9.96689e-09
1.63639e-06
-7.98203e-09
9.39291e-09
1.64142e-06
-7.42183e-09
8.86395e-09
1.64662e-06
-6.85963e-09
8.35106e-09
1.65198e-06
-6.2606e-09
7.83312e-09
1.65756e-06
-5.62129e-09
7.31668e-09
-5.16875e-09
6.91998e-09
1.37712e-06
-6.10277e-09
4.57714e-09
1.38565e-06
-1.61836e-08
1.19166e-08
1.39417e-06
-2.0708e-08
1.64459e-08
1.40126e-06
-2.21071e-08
1.85587e-08
1.40642e-06
-2.15093e-08
1.89268e-08
1.40952e-06
-1.97753e-08
1.82165e-08
1.41095e-06
-1.7434e-08
1.67066e-08
1.41154e-06
-1.53446e-08
1.50277e-08
1.41183e-06
-1.36552e-08
1.3474e-08
1.4121e-06
-1.23106e-08
1.21209e-08
1.41251e-06
-1.12562e-08
1.09556e-08
1.41319e-06
-1.04444e-08
9.95583e-09
1.41419e-06
-9.824e-09
9.08187e-09
1.41554e-06
-9.34585e-09
8.28379e-09
1.41726e-06
-8.97742e-09
7.51501e-09
1.41931e-06
-8.68128e-09
6.71281e-09
1.42156e-06
-8.40034e-09
5.80776e-09
1.42368e-06
-8.03223e-09
4.7419e-09
1.42501e-06
-7.38275e-09
3.53274e-09
-6.59101e-09
2.52662e-09
1.1589e-06
-6.33243e-09
5.28124e-09
1.1657e-06
-1.71263e-08
1.39984e-08
1.16844e-06
-1.86371e-08
1.79775e-08
1.16661e-06
-1.7149e-08
1.91782e-08
1.16221e-06
-1.53631e-08
1.88748e-08
1.15653e-06
-1.37939e-08
1.75426e-08
1.15046e-06
-1.23492e-08
1.56801e-08
1.14455e-06
-1.1133e-08
1.38771e-08
1.1391e-06
-1.01565e-08
1.22672e-08
1.13423e-06
-9.37594e-09
1.0854e-08
1.12995e-06
-8.79346e-09
9.6719e-09
1.12622e-06
-8.38428e-09
8.67927e-09
1.123e-06
-8.10911e-09
7.80679e-09
1.12026e-06
-7.93353e-09
6.9812e-09
1.11798e-06
-7.84835e-09
6.1236e-09
1.11612e-06
-7.84765e-09
5.14753e-09
1.11466e-06
-7.93091e-09
3.92251e-09
1.11344e-06
-8.00872e-09
2.26575e-09
1.11227e-06
-8.06215e-09
1.62538e-11
-9.60147e-09
-2.87403e-09
8.90375e-07
2.85251e-09
8.82485e-07
1.34081e-08
8.70357e-07
1.78664e-08
8.55108e-07
1.69535e-08
8.39973e-07
1.53373e-08
8.25519e-07
1.41653e-08
8.1174e-07
1.33716e-08
7.98729e-07
1.26611e-08
7.86629e-07
1.18629e-08
7.75441e-07
1.10012e-08
7.65015e-07
1.01647e-08
7.55181e-07
9.36584e-09
7.45792e-07
8.60212e-09
7.36737e-07
7.84205e-09
7.2793e-07
7.00736e-09
7.19296e-07
5.96865e-09
7.10721e-07
4.62055e-09
7.01736e-07
2.49793e-09
6.9082e-07
-9.15475e-10
-2.27994e-09
1.07432e-06
5.56894e-09
1.06465e-09
1.06824e-06
1.39004e-08
5.58599e-09
1.06138e-06
1.62619e-08
8.46301e-09
1.05339e-06
1.59086e-08
9.0381e-09
1.04511e-06
1.50014e-08
8.61451e-09
1.03722e-06
1.39322e-08
8.1141e-09
1.02984e-06
1.29759e-08
7.77477e-09
1.02285e-06
1.21129e-08
7.53354e-09
1.01603e-06
1.13419e-08
7.33261e-09
1.00931e-06
1.06858e-08
7.02258e-09
1.00273e-06
1.01859e-08
6.54132e-09
9.96271e-07
9.81244e-09
5.9753e-09
9.89913e-07
9.53633e-09
5.36801e-09
9.8363e-07
9.33663e-09
4.69608e-09
9.77402e-07
9.18177e-09
3.90644e-09
9.71236e-07
9.01975e-09
2.8254e-09
9.65155e-07
8.80083e-09
1.26438e-09
9.59043e-07
8.48919e-09
-1.05513e-09
9.52282e-07
8.14551e-09
-4.50612e-09
7.54729e-09
-1.01524e-08
1.32763e-06
4.93108e-09
2.71808e-09
1.33539e-06
1.30089e-08
7.12045e-09
1.34287e-06
1.72156e-08
9.55269e-09
1.34848e-06
1.88989e-08
1.05766e-08
1.35198e-06
1.95008e-08
1.08725e-08
1.35377e-06
1.91148e-08
1.05754e-08
1.35444e-06
1.81003e-08
9.88285e-09
1.35459e-06
1.68109e-08
9.03062e-09
1.35458e-06
1.54637e-08
8.16726e-09
1.35455e-06
1.42325e-08
7.34704e-09
1.35458e-06
1.32438e-08
6.59714e-09
1.35474e-06
1.24635e-08
5.90545e-09
1.35504e-06
1.18458e-08
5.2554e-09
1.35554e-06
1.13501e-08
4.59681e-09
1.35625e-06
1.09325e-08
3.85112e-09
1.35718e-06
1.05475e-08
2.95044e-09
1.3583e-06
1.01517e-08
1.7907e-09
1.35952e-06
9.70993e-09
2.57777e-10
1.36076e-06
9.22643e-09
-1.76054e-09
8.72466e-09
-4.26079e-09
1.53312e-06
3.64921e-09
2.36596e-09
1.54218e-06
9.63357e-09
6.23869e-09
1.55328e-06
1.36912e-08
8.87314e-09
1.56446e-06
1.59357e-08
1.03468e-08
1.57508e-06
1.69102e-08
1.08993e-08
1.58472e-06
1.69431e-08
1.0754e-08
1.59302e-06
1.63735e-08
1.01423e-08
1.60011e-06
1.54414e-08
9.32919e-09
1.60628e-06
1.43375e-08
8.45617e-09
1.61181e-06
1.32398e-08
7.63145e-09
1.61694e-06
1.22419e-08
6.89907e-09
1.62185e-06
1.13691e-08
6.25717e-09
1.62667e-06
1.06164e-08
5.68374e-09
1.63149e-06
9.96582e-09
5.14843e-09
1.63639e-06
9.39172e-09
4.6218e-09
1.64142e-06
8.86255e-09
4.07243e-09
1.64662e-06
8.3496e-09
3.46786e-09
1.65198e-06
7.83185e-09
2.77315e-09
1.65756e-06
7.31593e-09
1.96135e-09
6.92057e-09
1.04607e-09
1.68027e-06
1.89097e-09
1.89116e-09
1.68934e-06
5.09913e-09
5.09968e-09
1.7018e-06
7.46384e-09
7.46487e-09
1.71578e-06
8.94536e-09
8.94706e-09
1.73022e-06
9.69178e-09
9.69452e-09
1.74439e-06
9.859e-09
9.86337e-09
1.75785e-06
9.64937e-09
9.65603e-09
1.77036e-06
9.19479e-09
9.20474e-09
1.78184e-06
8.60698e-09
8.62157e-09
1.7924e-06
7.97893e-09
8.00059e-09
1.8022e-06
7.3743e-09
7.40747e-09
1.81139e-06
6.82334e-09
6.87568e-09
1.82012e-06
6.33321e-09
6.41761e-09
1.82851e-06
5.89813e-09
6.0335e-09
1.83669e-06
5.50626e-09
5.71501e-09
1.84477e-06
5.14878e-09
5.45341e-09
1.85286e-06
4.81873e-09
5.24344e-09
1.86109e-06
4.51002e-09
5.07554e-09
1.86958e-06
4.22621e-09
4.91848e-09
4.03691e-09
4.72702e-09
1.7569e-06
1.0478e-14
1.61335e-09
1.76589e-06
-2.79897e-14
4.38448e-09
1.77878e-06
-7.51041e-14
6.53245e-09
1.79389e-06
-1.30297e-13
7.95221e-09
1.81003e-06
-2.18069e-13
8.75755e-09
1.82639e-06
-3.59414e-13
9.08859e-09
1.8424e-06
-5.10327e-13
9.07653e-09
1.85773e-06
-4.06789e-13
8.8427e-09
1.87217e-06
4.43929e-14
8.47255e-09
1.88566e-06
8.06437e-13
8.03297e-09
1.89824e-06
1.64511e-12
7.57652e-09
1.91001e-06
1.90669e-12
7.14247e-09
1.92111e-06
6.18667e-13
6.75881e-09
1.9317e-06
-2.42946e-12
6.44577e-09
1.9419e-06
-5.14633e-12
6.22056e-09
1.95185e-06
-2.48528e-12
6.09083e-09
1.96169e-06
7.26535e-12
6.05731e-09
1.97159e-06
2.42334e-11
6.10772e-09
1.98165e-06
4.39343e-11
6.20607e-09
8.11744e-11
6.26755e-09
1.7569e-06
-1.89116e-09
1.61323e-09
1.76589e-06
-5.0997e-09
4.38411e-09
1.77878e-06
-7.46489e-09
6.53174e-09
1.79389e-06
-8.94709e-09
7.95095e-09
1.81003e-06
-9.69456e-09
8.7555e-09
1.82639e-06
-9.86341e-09
9.08542e-09
1.84241e-06
-9.65608e-09
9.07189e-09
1.85774e-06
-9.2048e-09
8.83584e-09
1.87219e-06
-8.62164e-09
8.46226e-09
1.88569e-06
-8.00068e-09
8.01729e-09
1.89828e-06
-7.40759e-09
7.55235e-09
1.91007e-06
-6.87582e-09
7.10491e-09
1.92119e-06
-6.41779e-09
6.70027e-09
1.9318e-06
-6.03374e-09
6.35466e-09
1.94203e-06
-5.71533e-09
6.08018e-09
1.95201e-06
-5.45383e-09
5.88328e-09
1.96186e-06
-5.244e-09
5.7637e-09
1.9717e-06
-5.07631e-09
5.71519e-09
1.98156e-06
-4.91956e-09
5.72322e-09
-4.72834e-09
5.74236e-09
1.68027e-06
-3.64959e-09
1.891e-09
1.68934e-06
-9.63469e-09
5.09921e-09
1.7018e-06
-1.36933e-08
7.46395e-09
1.71578e-06
-1.59396e-08
8.94552e-09
1.73022e-06
-1.69167e-08
9.692e-09
1.74439e-06
-1.69533e-08
9.85929e-09
1.75785e-06
-1.63888e-08
9.64974e-09
1.77036e-06
-1.5466e-08
9.19525e-09
1.78184e-06
-1.43752e-08
8.60754e-09
1.7924e-06
-1.32987e-08
7.97961e-09
1.8022e-06
-1.23365e-08
7.37513e-09
1.81139e-06
-1.15208e-08
6.82433e-09
1.82011e-06
-1.08617e-08
6.33436e-09
1.82851e-06
-1.03589e-08
5.89946e-09
1.83669e-06
-1.001e-08
5.50776e-09
1.84477e-06
-9.8206e-09
5.15044e-09
1.85286e-06
-9.80612e-09
4.82052e-09
1.86109e-06
-9.9808e-09
4.5118e-09
1.86957e-06
-1.03141e-08
4.22779e-09
-1.07094e-08
4.03768e-09
1.53312e-06
-4.93133e-09
2.36607e-09
1.54218e-06
-1.30097e-08
6.23893e-09
1.55327e-06
-1.72173e-08
8.87356e-09
1.56445e-06
-1.89029e-08
1.03476e-08
1.57507e-06
-1.9508e-08
1.09003e-08
1.5847e-06
-1.91259e-08
1.07556e-08
1.59299e-06
-1.81175e-08
1.01451e-08
1.60005e-06
-1.68381e-08
9.33414e-09
1.60619e-06
-1.55055e-08
8.46464e-09
1.61167e-06
-1.43003e-08
7.64741e-09
1.61672e-06
-1.33601e-08
6.92794e-09
1.62151e-06
-1.26578e-08
6.30574e-09
1.62613e-06
-1.2163e-08
5.75778e-09
1.63066e-06
-1.18646e-08
5.25836e-09
1.63515e-06
-1.17718e-08
4.79486e-09
1.6396e-06
-1.19197e-08
4.3562e-09
1.64405e-06
-1.23818e-08
3.93242e-09
1.64854e-06
-1.32477e-08
3.52231e-09
1.65318e-06
-1.45811e-08
3.15916e-09
-1.66961e-08
2.94343e-09
1.32762e-06
-5.56893e-09
2.71832e-09
1.33539e-06
-1.39005e-08
7.1211e-09
1.34286e-06
-1.62626e-08
9.55388e-09
1.34847e-06
-1.59108e-08
1.05789e-08
1.35196e-06
-1.50056e-08
1.08769e-08
1.35374e-06
-1.39387e-08
1.05831e-08
1.35439e-06
-1.29855e-08
9.89574e-09
1.3545e-06
-1.21285e-08
9.05226e-09
1.35443e-06
-1.13681e-08
8.2041e-09
1.3543e-06
-1.07312e-08
7.41338e-09
1.35417e-06
-1.02644e-08
6.7117e-09
1.35404e-06
-9.94965e-09
6.09506e-09
1.35391e-06
-9.77258e-09
5.54431e-09
1.35373e-06
-9.74333e-09
5.04255e-09
1.3534e-06
-9.8888e-09
4.5699e-09
1.35279e-06
-1.02748e-08
4.11345e-09
1.35172e-06
-1.10443e-08
3.65343e-09
1.34997e-06
-1.24027e-08
3.17396e-09
1.34699e-06
-1.43551e-08
2.76779e-09
-2.27506e-08
3.0957e-09
1.07432e-06
1.06489e-09
1.06824e-06
5.58683e-09
1.06138e-06
8.46462e-09
1.05338e-06
9.04085e-09
1.04509e-06
8.61976e-09
1.03719e-06
8.12407e-09
1.02978e-06
7.79291e-09
1.02275e-06
7.56505e-09
1.01586e-06
7.38755e-09
1.00902e-06
7.11403e-09
1.00223e-06
6.69103e-09
9.95423e-07
6.21881e-09
9.88484e-07
5.76792e-09
9.81225e-07
5.35793e-09
9.73353e-07
4.99039e-09
9.64407e-07
4.63962e-09
9.53617e-07
4.36694e-09
9.39718e-07
3.99433e-09
9.20972e-07
3.4749e-09
5.52648e-09
1.16914e-06
4.90661e-09
-9.7987e-14
1.16312e-06
1.16087e-08
-4.95273e-13
1.15731e-06
1.4276e-08
-1.20746e-12
1.15202e-06
1.43345e-08
-2.20466e-12
1.1469e-06
1.37317e-08
-3.8426e-12
1.14205e-06
1.29713e-08
-6.82196e-12
1.13774e-06
1.21037e-08
-1.22369e-11
1.13398e-06
1.13127e-08
-2.1212e-11
1.13069e-06
1.06573e-08
-3.64633e-11
1.12757e-06
1.02016e-08
-6.1845e-11
1.1243e-06
9.91357e-09
-1.04091e-10
1.12073e-06
9.71932e-09
-1.74294e-10
1.11677e-06
9.62612e-09
-2.91845e-10
1.11229e-06
9.65981e-09
-4.88034e-10
1.10718e-06
9.83281e-09
-8.11977e-10
1.10119e-06
1.0167e-08
-1.35359e-09
1.09403e-06
1.0741e-08
-2.31859e-09
1.08519e-06
1.16292e-08
-3.84719e-09
1.07439e-06
1.28694e-08
-6.56848e-09
1.44786e-08
-1.21724e-08
1.41518e-06
4.19296e-09
-2.04547e-13
1.42279e-06
1.11162e-08
-5.97325e-13
1.43152e-06
1.50992e-08
-1.03127e-12
1.4398e-06
1.66305e-08
-1.93975e-12
1.44713e-06
1.72776e-08
-3.6913e-12
1.45317e-06
1.75135e-08
-6.57599e-12
1.45801e-06
1.71585e-08
-1.09816e-11
1.46193e-06
1.64454e-08
-1.81732e-11
1.46522e-06
1.55634e-08
-3.08767e-11
1.46813e-06
1.46899e-08
-5.36704e-11
1.47085e-06
1.3889e-08
-9.16979e-11
1.47342e-06
1.32093e-08
-1.54155e-10
1.47581e-06
1.27347e-08
-2.4958e-10
1.47799e-06
1.24738e-08
-3.96208e-10
1.47993e-06
1.2377e-08
-6.31057e-10
1.4816e-06
1.24401e-08
-9.95742e-10
1.48297e-06
1.27166e-08
-1.55609e-09
1.484e-06
1.32565e-08
-2.3995e-09
1.4847e-06
1.40319e-08
-3.61949e-09
1.48476e-08
-5.26532e-09
1.61424e-06
3.0929e-09
-1.48866e-13
1.62332e-06
8.27417e-09
-3.5898e-13
1.63534e-06
1.19574e-08
-6.38502e-13
1.6482e-06
1.41148e-08
-1.1634e-12
1.66118e-06
1.52006e-08
-2.12726e-12