/*--------------------------------*- C++ -*----------------------------------*\
| =========                 |                                                 |
| \\      /  F ield         | OpenFOAM: The Open Source CFD Toolbox           |
|  \\    /   O peration     | Version:  2212                                  |
|   \\  /    A nd           | Website:  www.openfoam.com                      |
|    \\/     M anipulation  |                                                 |
\*---------------------------------------------------------------------------*/
FoamFile
{
    version     2.0;
    format      ascii;
    arch        "LSB;label=32;scalar=64";
    class       volVectorField;
    location    "2.15";
    object      U;
}
// * * * * * * * * * * * * * * * * * * * * * * * * * * * * * * * * * * * * * //

dimensions      [0 1 -1 0 0 0 0];

internalField   nonuniform List<vector> 
6840
(
(0.0956456 -0.00836006 -0.00836005)
(0.0904939 0.00152199 0.00152206)
(0.0790684 0.00242962 0.00242977)
(0.0713013 0.00148756 0.00148788)
(0.0661798 0.00083012 0.000830745)
(0.0623232 0.000562999 0.000564013)
(0.0592218 0.000424915 0.000427187)
(0.0566865 0.000321518 0.000325448)
(0.0545525 0.000249091 0.000255499)
(0.052702 0.000196179 0.000206622)
(0.0510669 0.000155526 0.000173175)
(0.0496107 0.000122328 0.000151493)
(0.0483028 9.17198e-05 0.000137571)
(0.0471175 5.99837e-05 0.000130125)
(0.0460475 2.25819e-05 0.000128984)
(0.045106 -1.79697e-06 0.000136398)
(0.0443339 -7.57213e-05 0.000160935)
(0.0438717 -0.000234981 0.000174078)
(0.0443611 -0.00046663 0.000100705)
(0.0428092 -0.00277364 -0.00173263)
(0.0999088 0.001297 0.000712572)
(0.0969669 0.00365578 0.00274729)
(0.0935346 0.00264008 0.00211825)
(0.0895893 0.00182016 0.00162076)
(0.0858321 0.00152825 0.00139084)
(0.08259 0.00135043 0.00116166)
(0.079865 0.00117797 0.000897875)
(0.0775664 0.00103821 0.000693459)
(0.0755565 0.000938879 0.000562657)
(0.0737489 0.000859055 0.000483439)
(0.0720968 0.000781822 0.000439486)
(0.0705712 0.000701036 0.000416849)
(0.0691523 0.000621093 0.000406214)
(0.0678269 0.000540175 0.000402675)
(0.0665871 0.000442545 0.000408934)
(0.0654384 0.000296994 0.000421004)
(0.0644114 9.67119e-05 0.000437486)
(0.0636038 -0.000260912 0.000389417)
(0.0634005 -0.00100318 0.000165452)
(0.062157 -0.00368389 -0.0014652)
(0.099413 0.000345208 0.000270236)
(0.0988664 0.00201893 0.00187494)
(0.0979214 0.00257292 0.00218912)
(0.0963657 0.0023795 0.00190856)
(0.0946332 0.00211354 0.00162692)
(0.0929717 0.00192588 0.00141903)
(0.0913631 0.00180005 0.00127183)
(0.0898521 0.00170312 0.00116104)
(0.0884514 0.00160101 0.0010715)
(0.0871527 0.00148801 0.00100091)
(0.0859478 0.00137317 0.000954535)
(0.0848207 0.00126184 0.000930506)
(0.0837518 0.00115142 0.000924746)
(0.0827256 0.00103415 0.000933971)
(0.0817311 0.000899099 0.000957851)
(0.0807592 0.00073073 0.000998903)
(0.0797984 0.000509211 0.00106194)
(0.0788163 0.000110079 0.0011496)
(0.0777516 -0.000618989 0.00126013)
(0.0762328 -0.0017622 0.00176042)
(0.0995405 0.000245021 0.000321903)
(0.0992576 0.00105552 0.00154095)
(0.0988488 0.00150215 0.00211458)
(0.0981246 0.00157911 0.00209184)
(0.0973363 0.00151436 0.00188651)
(0.0965838 0.00144568 0.00166649)
(0.0958634 0.00140887 0.00149891)
(0.0951941 0.00137683 0.00137305)
(0.0945625 0.00132985 0.00128775)
(0.0939123 0.00125625 0.00123503)
(0.0932753 0.00116231 0.00120198)
(0.0926467 0.00105927 0.00118645)
(0.0920126 0.000955594 0.00118657)
(0.091358 0.000852073 0.00120338)
(0.0906617 0.000741306 0.00124171)
(0.0898927 0.000609625 0.0013115)
(0.0889963 0.000446687 0.0014315)
(0.0878592 0.000216831 0.00163631)
(0.0864135 -0.000174259 0.00191279)
(0.084914 -7.06058e-05 0.00363977)
(0.0993802 3.37765e-05 5.89678e-05)
(0.0992677 0.000274393 0.00120006)
(0.0989803 0.000432391 0.00188855)
(0.0984744 0.000483497 0.00200659)
(0.0979951 0.000478901 0.0019149)
(0.0975699 0.000465627 0.00173511)
(0.0971792 0.000453059 0.00154785)
(0.0968278 0.000442719 0.00138953)
(0.0965249 0.000436852 0.00127182)
(0.0962657 0.000429446 0.00120271)
(0.0959832 0.00041308 0.00117794)
(0.0956754 0.0003906 0.00118031)
(0.0953358 0.000368256 0.00119757)
(0.0949429 0.000352254 0.00123073)
(0.0944763 0.000351019 0.00129027)
(0.0939033 0.000367994 0.00138484)
(0.0931751 0.000425807 0.00153411)
(0.0921923 0.000505572 0.00178025)
(0.0907987 0.000688584 0.00213581)
(0.0892124 0.000915686 0.00271067)
(0.0993801 -3.37497e-05 5.8925e-05)
(0.0992677 -0.000274255 0.00120003)
(0.0989804 -0.000432087 0.00188853)
(0.0984746 -0.000482949 0.00200653)
(0.0979955 -0.000477929 0.00191473)
(0.0975708 -0.000463857 0.00173476)
(0.0971809 -0.000449827 0.00154733)
(0.0968308 -0.000437073 0.00138864)
(0.0965301 -0.000427153 0.00127014)
(0.0962746 -0.000413028 0.00119964)
(0.0959987 -0.000385542 0.00117265)
(0.0957023 -0.000344802 0.00117135)
(0.0953827 -0.000292121 0.00118216)
(0.0950254 -0.000225523 0.00120318)
(0.0946194 -0.000141423 0.0012399)
(0.0941499 -2.18262e-05 0.00129855)
(0.0935982 0.000162697 0.0013892)
(0.0929215 0.000453566 0.00151906)
(0.0920697 0.000921193 0.00169647)
(0.0912953 0.00180774 0.00193652)
(0.0995405 -0.000245013 0.000321903)
(0.0992576 -0.00105548 0.00154095)
(0.098849 -0.00150207 0.00211447)
(0.098125 -0.00157896 0.00209166)
(0.0973374 -0.00151395 0.00188621)
(0.096586 -0.00144479 0.00166602)
(0.0958673 -0.00140724 0.00149835)
(0.0952008 -0.00137409 0.00137211)
(0.0945743 -0.001325 0.00128563)
(0.0939328 -0.00124847 0.00123031)
(0.0933101 -0.00115018 0.00119306)
(0.0927059 -0.00104041 0.00116982)
(0.0921129 -0.000924963 0.00115855)
(0.0915276 -0.000801832 0.00115665)
(0.0909473 -0.000662365 0.00115967)
(0.090371 -0.00047561 0.00116187)
(0.0898001 -0.000214172 0.00115861)
(0.0892329 0.000175258 0.0011517)
(0.0886513 0.000761828 0.00115986)
(0.0879723 0.00166229 0.00110664)
(0.099413 -0.000345225 0.00027023)
(0.0988664 -0.00201901 0.00187487)
(0.0979216 -0.00257309 0.00218889)
(0.0963663 -0.00237982 0.00190819)
(0.0946342 -0.00211403 0.00162638)
(0.0929737 -0.00192668 0.00141826)
(0.0913668 -0.00180123 0.00127057)
(0.0898585 -0.00170503 0.00115892)
(0.0884626 -0.00160421 0.00106809)
(0.0871715 -0.00149334 0.000995284)
(0.0859795 -0.00138204 0.000945674)
(0.0848744 -0.00127638 0.000915192)
(0.0838412 -0.00117455 0.000898355)
(0.0828733 -0.00106996 0.000889294)
(0.0819733 -0.000953554 0.000881151)
(0.0811623 -0.000809181 0.000859032)
(0.0804861 -0.000609523 0.000808256)
(0.0800049 -0.000275116 0.00065627)
(0.0798196 0.000379234 0.000382541)
(0.0790974 0.00200665 -0.000422399)
(0.0999088 -0.00129701 0.000712554)
(0.0969669 -0.00365591 0.0027472)
(0.0935346 -0.00264027 0.00211806)
(0.0895894 -0.0018205 0.0016204)
(0.0858325 -0.00152898 0.00139032)
(0.0825907 -0.00135157 0.00116073)
(0.0798663 -0.00118004 0.000896346)
(0.0775688 -0.00104173 0.000691001)
(0.0755609 -0.000944929 0.000558571)
(0.0737564 -0.000869473 0.000476574)
(0.0721106 -0.000799727 0.000426256)
(0.0705963 -0.000730718 0.000393981)
(0.0691963 -0.000668673 0.000374106)
(0.0678992 -0.000617903 0.000365893)
(0.0667021 -0.00057437 0.000358953)
(0.0656244 -0.000529454 0.000325289)
(0.0647332 -0.000456733 0.000254047)
(0.0642041 -0.000287202 1.81665e-05)
(0.0645954 5.58326e-06 -0.000371596)
(0.0623886 0.000389271 -0.000844498)
(0.0956456 0.00836005 -0.00836006)
(0.0904939 -0.00152206 0.00152199)
(0.0790684 -0.00242977 0.00242962)
(0.0713013 -0.00148788 0.00148757)
(0.0661797 -0.000830734 0.000830129)
(0.0623232 -0.000564001 0.000563011)
(0.0592217 -0.000427168 0.000424934)
(0.0566864 -0.000325423 0.000321544)
(0.0545524 -0.000255469 0.000249122)
(0.0527019 -0.000206589 0.000196218)
(0.0510668 -0.000173134 0.000155574)
(0.0496106 -0.000151446 0.000122392)
(0.0483026 -0.000137516 9.18018e-05)
(0.0471173 -0.000130057 6.00973e-05)
(0.0460472 -0.000128894 2.26718e-05)
(0.0451057 -0.000136259 -1.63424e-06)
(0.0443334 -0.00016075 -7.54833e-05)
(0.0438711 -0.000173789 -0.000234691)
(0.0443604 -0.000100326 -0.00046624)
(0.042807 0.00173211 -0.0027713)
(0.0999088 0.000712554 0.00129701)
(0.0969669 0.0027472 0.00365591)
(0.0935346 0.00211806 0.00264028)
(0.0895895 0.0016204 0.00182051)
(0.0858325 0.00139032 0.00152899)
(0.0825907 0.00116073 0.00135158)
(0.0798663 0.000896338 0.00118005)
(0.0775688 0.000690989 0.00104175)
(0.0755609 0.000558554 0.00094495)
(0.0737565 0.00047655 0.000869499)
(0.0721107 0.00042622 0.000799757)
(0.0705965 0.000393935 0.000730755)
(0.0691966 0.000374055 0.000668725)
(0.0678994 0.000365852 0.000617991)
(0.0667026 0.000358851 0.000574476)
(0.0656249 0.000325147 0.000529574)
(0.0647339 0.000253856 0.000456791)
(0.0642051 1.7901e-05 0.000287295)
(0.0645969 -0.000371911 -5.39358e-06)
(0.062391 -0.000846117 -0.000389771)
(0.100226 0.000720793 0.000720821)
(0.0999601 0.00198268 0.00198281)
(0.0997823 0.0024517 0.00245202)
(0.0987883 0.00241936 0.00241991)
(0.0972758 0.00220041 0.00220128)
(0.0957752 0.0018108 0.00181233)
(0.0943937 0.00138125 0.00138374)
(0.0931653 0.00106812 0.0010723)
(0.0920793 0.000850485 0.000857626)
(0.0911189 0.000695638 0.000707926)
(0.0902693 0.000578519 0.000600588)
(0.089508 0.000486578 0.00052261)
(0.0888174 0.000414589 0.000468822)
(0.0881986 0.000352208 0.000431577)
(0.0876554 0.000280397 0.000405418)
(0.087195 0.000182426 0.000387232)
(0.0868248 3.05941e-05 0.000363977)
(0.0865243 -0.000239094 0.000297621)
(0.0861203 -0.000788629 1.55843e-05)
(0.0859038 -0.00202211 -0.000860076)
(0.10014 0.000774986 0.000869281)
(0.100454 0.0019623 0.00196369)
(0.100911 0.00242735 0.0023348)
(0.100978 0.00252623 0.00244175)
(0.100694 0.00242568 0.00233749)
(0.100224 0.00219646 0.00211349)
(0.0997083 0.00191501 0.00182485)
(0.0991826 0.00166315 0.00157829)
(0.0986872 0.00145822 0.00139453)
(0.0982384 0.00128821 0.00125793)
(0.0978432 0.00114547 0.00116004)
(0.0974973 0.00102255 0.00109431)
(0.0971973 0.000910909 0.00105292)
(0.0969406 0.000799557 0.00103014)
(0.0967243 0.000678345 0.00102601)
(0.0965462 0.000532445 0.00104106)
(0.0964036 0.00033824 0.00107483)
(0.09629 6.4587e-05 0.0011263)
(0.0961781 -0.000318534 0.00119075)
(0.0962567 -0.000786494 0.00126033)
(0.100093 0.000445904 0.000763222)
(0.100504 0.00119441 0.00174908)
(0.101105 0.00158667 0.00212972)
(0.101634 0.00174025 0.00223516)
(0.101979 0.00178201 0.00228803)
(0.102171 0.00172859 0.00223738)
(0.102251 0.00160746 0.00211814)
(0.102274 0.00145932 0.00196809)
(0.102274 0.00130341 0.00180758)
(0.102263 0.00115405 0.00166151)
(0.102251 0.00102421 0.00155887)
(0.102242 0.000911922 0.00149219)
(0.102232 0.000808328 0.00145447)
(0.102221 0.000707254 0.00144434)
(0.102204 0.000601149 0.00146464)
(0.102171 0.000482866 0.00152287)
(0.10211 0.000340451 0.00163548)
(0.102 0.000157411 0.00182371)
(0.101838 -7.25353e-05 0.00210369)
(0.102021 -0.000232035 0.00251797)
(0.100087 0.000144402 0.000707034)
(0.100477 0.00039054 0.00161784)
(0.101065 0.000541192 0.00203472)
(0.101694 0.000610311 0.00211782)
(0.102268 0.000636333 0.00215073)
(0.102741 0.000627403 0.00218082)
(0.103122 0.000595774 0.00213571)
(0.103425 0.000550923 0.00204691)
(0.103676 0.000506747 0.00193941)
(0.103891 0.000466133 0.00183675)
(0.104083 0.000426096 0.00174339)
(0.104263 0.000388381 0.001666)
(0.104427 0.000356589 0.00162286)
(0.104566 0.000331063 0.00161786)
(0.104678 0.000312939 0.00164292)
(0.10476 0.000305537 0.00170756)
(0.104799 0.000312343 0.00183459)
(0.104787 0.000338541 0.00204953)
(0.104732 0.000396846 0.002365)
(0.104988 0.000513506 0.00273505)
(0.100087 -0.000144354 0.000707029)
(0.100477 -0.000390398 0.00161783)
(0.101066 -0.000540943 0.00203473)
(0.101694 -0.00060986 0.00211775)
(0.102269 -0.000635464 0.00215044)
(0.102742 -0.000625825 0.00218027)
(0.103124 -0.000593135 0.00213483)
(0.103428 -0.000546521 0.00204552)
(0.10368 -0.000499154 0.00193731)
(0.103898 -0.000452859 0.00183329)
(0.104094 -0.000403421 0.00173769)
(0.10428 -0.000350544 0.00165587)
(0.104458 -0.000295969 0.00160453)
(0.104619 -0.0002351 0.00158662)
(0.104764 -0.000159705 0.00159341)
(0.104894 -6.36105e-05 0.00162409)
(0.105002 6.56219e-05 0.00168921)
(0.105085 0.000244063 0.0018002)
(0.105154 0.000486632 0.00195663)
(0.10544 0.000790563 0.00212907)
(0.100093 -0.000445904 0.000763211)
(0.100504 -0.00119442 0.00174905)
(0.101105 -0.00158667 0.00212958)
(0.101635 -0.00174019 0.00223467)
(0.10198 -0.00178187 0.00228707)
(0.102172 -0.00172837 0.00223598)
(0.102254 -0.00160697 0.00211602)
(0.102279 -0.00145841 0.00196485)
(0.102282 -0.00130199 0.00180272)
(0.102277 -0.00115121 0.00165373)
(0.102274 -0.00101935 0.0015453)
(0.102281 -0.000904071 0.00146907)
(0.102298 -0.000798491 0.00141559)
(0.102327 -0.000693859 0.0013792)
(0.102372 -0.000579011 0.00135524)
(0.102434 -0.000444267 0.00133895)
(0.102512 -0.000274739 0.00132511)
(0.102601 -5.38909e-05 0.00130975)
(0.102704 0.000228399 0.00129686)
(0.102903 0.000553809 0.00128482)
(0.10014 -0.000775019 0.000869241)
(0.100454 -0.0019624 0.00196351)
(0.100911 -0.00242754 0.00233437)
(0.100978 -0.00252664 0.00244103)
(0.100694 -0.00242636 0.00233644)
(0.100225 -0.00219764 0.0021121)
(0.0997105 -0.00191686 0.00182268)
(0.0991864 -0.00166591 0.00157446)
(0.0986936 -0.00146298 0.00138799)
(0.0982497 -0.00129652 0.00124706)
(0.0978623 -0.00115888 0.00114181)
(0.0975293 -0.00104501 0.00106436)
(0.0972482 -0.000949015 0.00100425)
(0.0970188 -0.000864326 0.000952374)
(0.0968432 -0.000782208 0.000901616)
(0.0967241 -0.000689738 0.000837731)
(0.0966603 -0.000568316 0.000735691)
(0.0966362 -0.000394169 0.000559363)
(0.0965919 -0.000136521 0.000285542)
(0.0966641 0.000308141 -0.000153832)
(0.100226 -0.00072082 0.000720793)
(0.0999601 -0.00198281 0.00198268)
(0.0997823 -0.00245201 0.0024517)
(0.0987883 -0.00241991 0.00241936)
(0.0972758 -0.00220127 0.00220042)
(0.0957752 -0.00181232 0.00181081)
(0.0943936 -0.00138373 0.00138127)
(0.0931653 -0.00107228 0.00106815)
(0.0920792 -0.000857603 0.00085052)
(0.0911188 -0.000707896 0.000695683)
(0.0902693 -0.000600547 0.000578578)
(0.0895079 -0.000522552 0.000486645)
(0.0888173 -0.000468788 0.000414702)
(0.0881984 -0.00043148 0.000352293)
(0.0876551 -0.000405273 0.00028055)
(0.0871947 -0.000387114 0.000182696)
(0.0868243 -0.000363759 3.08816e-05)
(0.0865237 -0.000297283 -0.000238746)
(0.086119 -1.50838e-05 -0.000788115)
(0.0859022 0.000860399 -0.00202069)
(0.0999088 -0.000712572 0.001297)
(0.0969669 -0.00274729 0.00365579)
(0.0935346 -0.00211824 0.00264009)
(0.0895892 -0.00162076 0.00182017)
(0.0858321 -0.00139083 0.00152827)
(0.08259 -0.00116165 0.00135045)
(0.079865 -0.000897864 0.001178)
(0.0775664 -0.000693445 0.00103824)
(0.0755565 -0.00056264 0.000938924)
(0.0737488 -0.00048342 0.000859111)
(0.0720967 -0.000439461 0.000781894)
(0.0705711 -0.000416813 0.000701124)
(0.0691522 -0.000406175 0.00062119)
(0.0678268 -0.000402648 0.000540327)
(0.0665868 -0.000408908 0.000442829)
(0.0654381 -0.000420932 0.000297338)
(0.064411 -0.000437332 9.71498e-05)
(0.0636035 -0.000389044 -0.000260351)
(0.0634003 -0.000164632 -0.00100249)
(0.0621579 0.00146702 -0.00368252)
(0.099413 0.00027023 0.000345226)
(0.0988664 0.00187487 0.00201901)
(0.0979216 0.00218889 0.0025731)
(0.0963663 0.00190818 0.00237982)
(0.0946342 0.00162638 0.00211404)
(0.0929738 0.00141825 0.00192669)
(0.0913668 0.00127056 0.00180123)
(0.0898586 0.00115891 0.00170504)
(0.0884627 0.00106807 0.00160422)
(0.0871716 0.000995259 0.00149335)
(0.0859796 0.000945641 0.00138205)
(0.0848745 0.000915145 0.00127639)
(0.0838414 0.000898283 0.00117455)
(0.0828736 0.000889179 0.00106995)
(0.0819737 0.000881009 0.000953556)
(0.0811628 0.000858866 0.000809194)
(0.0804869 0.000808032 0.000609513)
(0.0800059 0.000655918 0.000274982)
(0.0798211 0.000382048 -0.000379503)
(0.0790994 -0.000422848 -0.00200731)
(0.10014 0.00086924 0.000775019)
(0.100454 0.0019635 0.0019624)
(0.100911 0.00233436 0.00242754)
(0.100978 0.00244102 0.00252664)
(0.100694 0.00233643 0.00242636)
(0.100225 0.00211209 0.00219765)
(0.0997105 0.00182266 0.00191686)
(0.0991864 0.00157443 0.00166592)
(0.0986936 0.00138796 0.00146299)
(0.0982498 0.00124701 0.00129653)
(0.0978624 0.00114176 0.00115889)
(0.0975294 0.00106427 0.00104502)
(0.0972484 0.00100409 0.000949)
(0.097019 0.000952263 0.000864389)
(0.0968435 0.000901512 0.000782305)
(0.0967244 0.00083749 0.000689765)
(0.0966606 0.000735372 0.000568324)
(0.0966366 0.000558944 0.000394139)
(0.0965924 0.000284961 0.000136433)
(0.0966644 -0.000154398 -0.000308058)
(0.10006 0.000641369 0.000641426)
(0.100502 0.00164496 0.00164515)
(0.101149 0.00221225 0.00221261)
(0.101738 0.00243972 0.00244034)
(0.102205 0.00244155 0.00244255)
(0.102502 0.00231291 0.00231446)
(0.102646 0.0020915 0.00209405)
(0.102716 0.00186737 0.00187143)
(0.102742 0.00166833 0.00167495)
(0.102758 0.00150022 0.00151102)
(0.10278 0.00135888 0.00137639)
(0.102818 0.00123901 0.00126719)
(0.102878 0.0011348 0.00117986)
(0.102963 0.00103899 0.0011105)
(0.103075 0.000943079 0.00105508)
(0.103213 0.000836502 0.00100913)
(0.10337 0.000706659 0.000967169)
(0.103533 0.000540409 0.000921514)
(0.103689 0.000333309 0.000860654)
(0.103984 0.000150531 0.000829064)
(0.100046 0.000395693 0.000540284)
(0.10048 0.00104479 0.00138422)
(0.101154 0.00147525 0.0019232)
(0.101913 0.00170507 0.00219299)
(0.102632 0.00177979 0.0022948)
(0.103301 0.00174437 0.00227943)
(0.103893 0.00163345 0.00218746)
(0.104389 0.00149036 0.00205558)
(0.104816 0.0013431 0.00190972)
(0.105193 0.00120674 0.00177318)
(0.105535 0.0010855 0.00165572)
(0.105854 0.000979057 0.00155982)
(0.10616 0.000883181 0.00148692)
(0.106458 0.000793164 0.00143728)
(0.106753 0.000706364 0.00141115)
(0.107044 0.000617666 0.00141122)
(0.107334 0.000522238 0.00144246)
(0.107624 0.000416719 0.00151009)
(0.107932 0.000306837 0.00161241)
(0.108394 0.000216204 0.00174286)
(0.100039 0.000131342 0.000478799)
(0.100448 0.00035052 0.00123487)
(0.101114 0.000505124 0.00174665)
(0.101909 0.000597269 0.00202711)
(0.102728 0.000638745 0.00215262)
(0.103529 0.000638526 0.00218729)
(0.104297 0.000605018 0.00215461)
(0.105006 0.000560069 0.00208148)
(0.105641 0.000511539 0.0019842)
(0.106213 0.00046446 0.00187939)
(0.106733 0.000421756 0.0017796)
(0.107212 0.000384311 0.00169375)
(0.107658 0.000351778 0.00162914)
(0.108084 0.000323107 0.0015894)
(0.108492 0.000298295 0.0015754)
(0.108884 0.000279367 0.00159001)
(0.109263 0.000266764 0.0016409)
(0.109641 0.000260887 0.00173563)
(0.110047 0.000262637 0.00186522)
(0.110577 0.000273674 0.00200226)
(0.100039 -0.000131311 0.000478781)
(0.100448 -0.00035044 0.00123481)
(0.101114 -0.000504978 0.00174654)
(0.101909 -0.00059702 0.00202691)
(0.102729 -0.000638307 0.00215222)
(0.103529 -0.000637793 0.00218663)
(0.104298 -0.000603735 0.0021536)
(0.105008 -0.000557954 0.00207995)
(0.105644 -0.000507977 0.0019818)
(0.106218 -0.000458417 0.00187551)
(0.106741 -0.000411682 0.00177309)
(0.107223 -0.00036803 0.00168265)
(0.107675 -0.000326429 0.00161039)
(0.108108 -0.00028427 0.00155888)
(0.108527 -0.000238823 0.00152761)
(0.108936 -0.000187259 0.00151595)
(0.109334 -0.00012649 0.00152594)
(0.109731 -5.24119e-05 0.00155935)
(0.110145 3.55387e-05 0.00161053)
(0.110658 0.000132482 0.00166595)
(0.100046 -0.000395714 0.000540236)
(0.10048 -0.00104486 0.00138407)
(0.101154 -0.00147536 0.00192291)
(0.101913 -0.00170523 0.00219244)
(0.102632 -0.00178008 0.00229387)
(0.103302 -0.00174485 0.00227793)
(0.103895 -0.00163426 0.00218512)
(0.104392 -0.00149161 0.00205175)
(0.10482 -0.00134511 0.0019038)
(0.1052 -0.0012097 0.00176389)
(0.105546 -0.00108995 0.00164059)
(0.105871 -0.00098593 0.00153529)
(0.106187 -0.000894619 0.0014468)
(0.106501 -0.000811843 0.00137234)
(0.106818 -0.000734112 0.00130795)
(0.107142 -0.000657424 0.00124867)
(0.107475 -0.000576796 0.00119039)
(0.107819 -0.000488244 0.00113018)
(0.108186 -0.000390051 0.00106856)
(0.108643 -0.00028503 0.00102194)
(0.10006 -0.000641425 0.000641371)
(0.100502 -0.00164515 0.00164497)
(0.101149 -0.00221261 0.00221226)
(0.101738 -0.00244034 0.00243973)
(0.102205 -0.00244255 0.00244157)
(0.102502 -0.00231445 0.00231294)
(0.102646 -0.00209405 0.00209153)
(0.102716 -0.00187142 0.00186741)
(0.102742 -0.00167493 0.00166838)
(0.102758 -0.001511 0.00150028)
(0.10278 -0.00137637 0.00135895)
(0.102818 -0.00126717 0.0012391)
(0.102878 -0.00117983 0.00113492)
(0.102963 -0.00111047 0.00103913)
(0.103075 -0.00105505 0.000943252)
(0.103213 -0.00100909 0.000836707)
(0.10337 -0.00096709 0.000706874)
(0.103533 -0.000921395 0.000540626)
(0.103689 -0.000860438 0.000333458)
(0.103984 -0.000828418 0.000150252)
(0.10014 -0.00086928 0.000774988)
(0.100454 -0.00196369 0.00196231)
(0.100911 -0.00233479 0.00242736)
(0.100978 -0.00244174 0.00252625)
(0.100694 -0.00233748 0.00242569)
(0.100224 -0.00211348 0.00219648)
(0.0997083 -0.00182483 0.00191504)
(0.0991826 -0.00157827 0.00166319)
(0.0986871 -0.00139451 0.00145827)
(0.0982384 -0.00125791 0.00128828)
(0.0978431 -0.00116 0.00114554)
(0.0974972 -0.00109425 0.00102263)
(0.0971972 -0.00105285 0.000911022)
(0.0969405 -0.00103011 0.000799751)
(0.0967242 -0.00102597 0.000678599)
(0.096546 -0.00104092 0.000532702)
(0.0964034 -0.00107457 0.000338514)
(0.0962897 -0.00112586 6.48918e-05)
(0.0961778 -0.00118991 -0.00031835)
(0.0962565 -0.00125817 -0.000787175)
(0.099413 -0.000270236 0.00034521)
(0.0988664 -0.00187494 0.00201894)
(0.0979214 -0.00218912 0.00257293)
(0.0963657 -0.00190856 0.00237952)
(0.0946332 -0.00162691 0.00211357)
(0.0929717 -0.00141902 0.00192591)
(0.0913631 -0.00127182 0.00180009)
(0.0898521 -0.00116102 0.00170317)
(0.0884513 -0.00107147 0.00160107)
(0.0871526 -0.00100088 0.00148809)
(0.0859477 -0.000954504 0.00137326)
(0.0848207 -0.000930465 0.00126195)
(0.0837517 -0.000924695 0.00115157)
(0.0827255 -0.000933922 0.00103436)
(0.081731 -0.000957773 0.000899347)
(0.0807593 -0.000998742 0.000730989)
(0.0797986 -0.00106166 0.000509573)
(0.0788168 -0.00114909 0.000110589)
(0.0777528 -0.00125916 -0.000618387)
(0.0762355 -0.00175868 -0.00176147)
(0.0995405 0.000321903 0.000245013)
(0.0992576 0.00154095 0.00105547)
(0.098849 0.00211447 0.00150207)
(0.0981251 0.00209165 0.00157896)
(0.0973374 0.0018862 0.00151395)
(0.096586 0.00166601 0.00144479)
(0.0958673 0.00149834 0.00140723)
(0.0952009 0.0013721 0.00137409)
(0.0945744 0.00128562 0.00132499)
(0.0939329 0.00123029 0.00124847)
(0.0933103 0.00119303 0.00115017)
(0.0927061 0.00116978 0.0010404)
(0.0921132 0.00115849 0.000924957)
(0.0915278 0.00115655 0.000801812)
(0.0909477 0.00115953 0.000662328)
(0.0903715 0.00116169 0.000475561)
(0.0898008 0.00115838 0.000214085)
(0.0892337 0.00115139 -0.000175395)
(0.0886523 0.00115945 -0.000761985)
(0.0879736 0.00110612 -0.00166255)
(0.100093 0.00076321 0.000445904)
(0.100504 0.00174905 0.00119441)
(0.101105 0.00212957 0.00158667)
(0.101635 0.00223466 0.00174019)
(0.10198 0.00228705 0.00178187)
(0.102172 0.00223596 0.00172837)
(0.102254 0.002116 0.00160697)
(0.102279 0.00196483 0.00145841)
(0.102283 0.00180269 0.00130199)
(0.102277 0.00165369 0.00115121)
(0.102275 0.00154524 0.00101935)
(0.102281 0.00146898 0.000904059)
(0.102298 0.00141546 0.000798466)
(0.102327 0.0013791 0.00069387)
(0.102372 0.00135512 0.000579035)
(0.102434 0.00133873 0.000444243)
(0.102512 0.0013248 0.000274683)
(0.102601 0.00130934 5.37965e-05)
(0.102704 0.00129631 -0.00022853)
(0.102903 0.00128414 -0.00055389)
(0.100046 0.000540234 0.000395714)
(0.10048 0.00138407 0.00104486)
(0.101154 0.0019229 0.00147536)
(0.101913 0.00219243 0.00170523)
(0.102632 0.00229386 0.00178008)
(0.103302 0.00227791 0.00174485)
(0.103895 0.00218509 0.00163426)
(0.104392 0.00205171 0.00149161)
(0.10482 0.00190375 0.00134511)
(0.1052 0.00176383 0.0012097)
(0.105546 0.00164051 0.00108995)
(0.105871 0.00153519 0.000985929)
(0.106187 0.00144668 0.000894617)
(0.106501 0.00137221 0.000811852)
(0.106818 0.0013078 0.000734125)
(0.107142 0.00124847 0.000657431)
(0.107475 0.00119017 0.000576815)
(0.107819 0.00112996 0.000488292)
(0.108186 0.00106836 0.000390153)
(0.108643 0.00102186 0.000285229)
(0.100036 0.000323125 0.000323167)
(0.100429 0.000868621 0.000868743)
(0.10108 0.00126229 0.00126252)
(0.101891 0.00150419 0.00150457)
(0.102756 0.00162126 0.00162188)
(0.103616 0.00164226 0.00164323)
(0.104446 0.00160395 0.0016054)
(0.105224 0.00152526 0.0015275)
(0.105939 0.00142513 0.00142861)
(0.106595 0.0013193 0.00132472)
(0.1072 0.00121799 0.00122653)
(0.107764 0.00112582 0.0011393)
(0.108296 0.00104369 0.00106499)
(0.108805 0.000970611 0.00100397)
(0.109297 0.000904708 0.000956091)
(0.10978 0.000843743 0.000921063)
(0.110261 0.000785609 0.000898604)
(0.110745 0.000728799 0.000887548)
(0.111252 0.000674661 0.00088333)
(0.111841 0.000636081 0.000877535)
(0.100031 0.000107076 0.000281403)
(0.100395 0.00029304 0.000768694)
(0.101024 0.000434069 0.00113319)
(0.101843 0.000526212 0.00136941)
(0.102751 0.000576323 0.00150178)
(0.103688 0.000591697 0.00155477)
(0.104617 0.000582265 0.00155005)
(0.105516 0.000557633 0.00150956)
(0.106367 0.000524019 0.00144661)
(0.107163 0.000486927 0.0013716)
(0.107906 0.000450557 0.00129344)
(0.108599 0.000417138 0.00121912)
(0.109249 0.000387353 0.00115377)
(0.109865 0.000360827 0.00110126)
(0.110456 0.000336523 0.00106524)
(0.111029 0.00031442 0.0010474)
(0.11159 0.000294653 0.00104796)
(0.112151 0.00027726 0.0010641)
(0.11273 0.000262192 0.00108831)
(0.113381 0.000253811 0.00110733)
(0.100031 -0.000107079 0.000281385)
(0.100395 -0.000293055 0.000768638)
(0.101024 -0.000434099 0.00113308)
(0.101844 -0.00052626 0.0013692)
(0.102751 -0.000576401 0.00150143)
(0.103689 -0.000591828 0.00155423)
(0.104618 -0.000582462 0.00154928)
(0.105516 -0.000557842 0.00150842)
(0.106367 -0.000524171 0.00144487)
(0.107165 -0.000486968 0.00136889)
(0.107908 -0.000450502 0.00128917)
(0.108601 -0.000417154 0.0012124)
(0.109253 -0.000387872 0.00114326)
(0.10987 -0.000362424 0.00108484)
(0.110463 -0.000339263 0.00103959)
(0.111037 -0.000316999 0.00100859)
(0.1116 -0.000295124 0.000991243)
(0.112159 -0.000273424 0.000985362)
(0.112733 -0.000251345 0.000987)
(0.113374 -0.000228201 0.000990995)
(0.100036 -0.000323167 0.000323129)
(0.100429 -0.000868743 0.00086863)
(0.10108 -0.00126252 0.00126231)
(0.101891 -0.00150458 0.00150421)
(0.102756 -0.00162188 0.00162128)
(0.103616 -0.00164323 0.0016423)
(0.104446 -0.0016054 0.00160399)
(0.105224 -0.0015275 0.00152531)
(0.105939 -0.00142861 0.00142519)
(0.106595 -0.00132472 0.00131938)
(0.107199 -0.00122653 0.00121809)
(0.107763 -0.0011393 0.00112593)
(0.108296 -0.00106499 0.00104382)
(0.108804 -0.00100399 0.000970753)
(0.109297 -0.000956112 0.000904861)
(0.10978 -0.000921089 0.000843906)
(0.11026 -0.000898636 0.000785765)
(0.110744 -0.000887594 0.000728917)
(0.111252 -0.000883398 0.000674692)
(0.11184 -0.000877609 0.000635914)
(0.100046 -0.000540284 0.000395696)
(0.10048 -0.00138422 0.0010448)
(0.101154 -0.0019232 0.00147526)
(0.101913 -0.00219299 0.00170509)
(0.102631 -0.0022948 0.00177981)
(0.103301 -0.00227943 0.0017444)
(0.103893 -0.00218746 0.00163349)
(0.104389 -0.00205558 0.00149041)
(0.104816 -0.00190972 0.00134316)
(0.105193 -0.00177317 0.00120681)
(0.105535 -0.0016557 0.00108559)
(0.105854 -0.00155979 0.000979164)
(0.10616 -0.00148689 0.000883306)
(0.106458 -0.00143726 0.000793311)
(0.106752 -0.00141112 0.000706515)
(0.107044 -0.00141116 0.0006178)
(0.107334 -0.00144235 0.000522322)
(0.107624 -0.00150993 0.000416701)
(0.107932 -0.00161217 0.000306605)
(0.108393 -0.00174255 0.000215593)
(0.100093 -0.000763222 0.000445906)
(0.100504 -0.00174908 0.00119442)
(0.101105 -0.00212972 0.00158668)
(0.101634 -0.00223516 0.00174027)
(0.101979 -0.00228802 0.00178203)
(0.102171 -0.00223738 0.00172863)
(0.102251 -0.00211813 0.0016075)
(0.102274 -0.00196807 0.00145937)
(0.102274 -0.00180756 0.00130347)
(0.102263 -0.00166149 0.00115413)
(0.102251 -0.00155884 0.00102431)
(0.102241 -0.00149214 0.000912035)
(0.102232 -0.00145439 0.000808452)
(0.102221 -0.00144428 0.000707429)
(0.102204 -0.00146455 0.00060136)
(0.102171 -0.00152264 0.00048306)
(0.10211 -0.0016351 0.000340627)
(0.102 -0.0018231 0.000157518)
(0.101837 -0.00210269 -7.26545e-05)
(0.10202 -0.00251643 -0.000232592)
(0.0995405 -0.000321903 0.000245024)
(0.0992576 -0.00154095 0.00105553)
(0.0988488 -0.00211458 0.00150216)
(0.0981245 -0.00209184 0.00157913)
(0.0973363 -0.0018865 0.00151439)
(0.0965838 -0.00166648 0.00144572)
(0.0958633 -0.0014989 0.00140893)
(0.0951941 -0.00137304 0.00137689)
(0.0945625 -0.00128774 0.00132994)
(0.0939123 -0.00123501 0.00125635)
(0.0932753 -0.00120196 0.00116243)
(0.0926466 -0.00118642 0.00105942)
(0.0920126 -0.00118652 0.000955761)
(0.0913579 -0.00120329 0.000852255)
(0.0906618 -0.00124156 0.000741507)
(0.0898928 -0.00131126 0.000609857)
(0.0889966 -0.00143109 0.000446956)
(0.0878599 -0.0016356 0.000217163)
(0.0864149 -0.00191147 -0.000173917)
(0.0849161 -0.00363864 -7.02145e-05)
(0.0993801 5.8926e-05 3.37493e-05)
(0.0992677 0.00120003 0.000274253)
(0.0989804 0.00188853 0.000432081)
(0.0984746 0.00200652 0.000482943)
(0.0979955 0.00191472 0.000477921)
(0.0975708 0.00173475 0.000463848)
(0.0971809 0.00154732 0.000449816)
(0.0968308 0.00138863 0.00043706)
(0.0965302 0.00127012 0.000427138)
(0.0962747 0.00119962 0.000413011)
(0.0959988 0.00117263 0.000385523)
(0.0957024 0.00117132 0.00034478)
(0.0953829 0.00118212 0.000292093)
(0.0950257 0.00120312 0.000225478)
(0.0946197 0.00123981 0.000141366)
(0.0941503 0.00129843 2.17573e-05)
(0.0935987 0.00138904 -0.000162774)
(0.0929222 0.0015188 -0.000453649)
(0.0920707 0.00169607 -0.000921233)
(0.0912965 0.00193616 -0.00180774)
(0.100087 0.000707028 0.000144354)
(0.100477 0.00161782 0.000390396)
(0.101066 0.00203472 0.00054094)
(0.101694 0.00211774 0.000609857)
(0.102269 0.00215043 0.00063546)
(0.102742 0.00218025 0.00062582)
(0.103124 0.0021348 0.000593129)
(0.103428 0.00204549 0.000546513)
(0.10368 0.00193727 0.000499142)
(0.103898 0.00183325 0.000452843)
(0.104094 0.00173764 0.000403401)
(0.10428 0.0016558 0.000350518)
(0.104458 0.00160443 0.000295935)
(0.104619 0.00158651 0.000235069)
(0.104764 0.00159327 0.000159675)
(0.104894 0.00162389 6.35619e-05)
(0.105002 0.00168894 -6.56926e-05)
(0.105085 0.00179983 -0.000244157)
(0.105155 0.00195615 -0.000486762)
(0.10544 0.00212854 -0.000790718)
(0.100039 0.000478779 0.000131311)