/*--------------------------------*- C++ -*----------------------------------*\
| =========                 |                                                 |
| \\      /  F ield         | OpenFOAM: The Open Source CFD Toolbox           |
|  \\    /   O peration     | Version:  2212                                  |
|   \\  /    A nd           | Website:  www.openfoam.com                      |
|    \\/     M anipulation  |                                                 |
\*---------------------------------------------------------------------------*/
FoamFile
{
    version     2.0;
    format      ascii;
    arch        "LSB;label=32;scalar=64";
    class       surfaceVectorField;
    location    "2.15";
    object      Uf;
}
// * * * * * * * * * * * * * * * * * * * * * * * * * * * * * * * * * * * * * //

dimensions      [0 1 -1 0 0 0 0];

internalField   nonuniform List<vector> 
19019
(
(0.0993441 -0.00341903 -0.00341899)
(0.0973536 0.00106247 -0.00148427)
(0.0973536 -0.00148428 0.00106248)
(0.0834792 0.0019758 0.00197592)
(0.0930873 0.00326892 0.00253352)
(0.0930873 0.00253344 0.00326903)
(0.0745172 0.00195859 0.00195883)
(0.0848641 0.00163573 0.00179245)
(0.0848642 0.0017923 0.00163591)
(0.068548 0.00115884 0.00115931)
(0.0786282 0.00107329 0.0012216)
(0.0786283 0.00122127 0.00107364)
(0.0642364 0.00069656 0.000697379)
(0.0740533 0.000784905 0.000865527)
(0.0740534 0.000864966 0.000785613)
(0.0607573 0.000493957 0.0004956)
(0.0704429 0.00064982 0.000670017)
(0.0704432 0.000669071 0.000650952)
(0.0579383 0.000373217 0.000376317)
(0.0674923 0.000545359 0.000509983)
(0.0674928 0.000508071 0.000547666)
(0.0556156 0.000285305 0.000290473)
(0.0650518 0.000466457 0.000389905)
(0.0650528 0.000386697 0.000470466)
(0.0536273 0.000222635 0.00023106)
(0.0629675 0.00041114 0.000311851)
(0.0629693 0.00030664 0.000417882)
(0.0518841 0.000175852 0.000189898)
(0.0611342 0.000365826 0.000261545)
(0.0611372 0.000253033 0.000377139)
(0.0503372 0.000138927 0.000162334)
(0.0594923 0.000322869 0.000231096)
(0.0594979 0.000216005 0.000342005)
(0.0489551 0.000107024 0.000144532)
(0.0580083 0.00027995 0.000214485)
(0.0580185 0.000189176 0.000311653)
(0.0477095 7.58517e-05 0.000133848)
(0.0566559 0.000237596 0.000206561)
(0.0566736 0.000168894 0.000288786)
(0.0465809 4.12828e-05 0.000129555)
(0.0554145 0.00019218 0.000204195)
(0.0554435 0.000152945 0.000274893)
(0.0455755 1.03925e-05 0.000132691)
(0.0542765 0.000134264 0.000208129)
(0.0543227 0.000134105 0.000267712)
(0.0447084 -3.87591e-05 0.000148666)
(0.053252 6.22865e-05 0.000217961)
(0.0533267 0.000111845 0.000264198)
(0.0440412 -0.000155351 0.000167506)
(0.0523777 -4.94557e-05 0.000246744)
(0.0525069 5.30081e-05 0.000273791)
(0.0438896 -0.000350805 0.000137392)
(0.0517772 -0.000269095 0.000246505)
(0.0520181 -0.000101223 0.00027503)
(0.0449631 -0.00162013 -0.00081596)
(0.051989 -0.000697468 0.000117381)
(0.0524684 -0.000350982 0.000191341)
(0.0505606 -0.00369082 -0.00194791)
(0.0506544 -0.00196321 -0.00112919)
(0.0984572 0.00247639 0.00172993)
(0.0996871 0.000439208 0.00034549)
(0.100049 0.00105637 0.000750985)
(0.0958348 0.00314793 0.00243277)
(0.0978161 0.00273266 0.00228234)
(0.0982937 0.00280913 0.00216156)
(0.09145 0.00223012 0.00186951)
(0.0954959 0.0030015 0.00230327)
(0.096304 0.00244247 0.00199799)
(0.0875952 0.0016742 0.0015058)
(0.092619 0.00229899 0.00183904)
(0.0936669 0.00198039 0.00172731)
(0.0841476 0.00143934 0.00127625)
(0.0897671 0.00189124 0.00153607)
(0.0909047 0.00171912 0.0014984)
(0.0811877 0.0012642 0.00102977)
(0.0872317 0.00165535 0.00129539)
(0.0884346 0.00145356 0.00121283)
(0.0787009 0.00110809 0.000795667)
(0.0850058 0.0014901 0.00107839)
(0.0863051 0.00118182 0.000910485)
(0.0765559 0.000988543 0.000628058)
(0.0830593 0.00136834 0.000915381)
(0.0844809 0.000980183 0.000693826)
(0.0746496 0.000898967 0.000523048)
(0.0813218 0.00127313 0.000805127)
(0.0828805 0.000840347 0.000553903)
(0.0729206 0.000820438 0.000461462)
(0.0797417 0.00118484 0.000732262)
(0.0814484 0.00073619 0.000464414)
(0.0713319 0.000741429 0.000428167)
(0.0782896 0.0010963 0.000689384)
(0.0801521 0.000647804 0.000407707)
(0.0698608 0.000661064 0.000411531)
(0.0769422 0.0010061 0.000667788)
(0.0789653 0.000566996 0.000372109)
(0.0684894 0.000580634 0.000404445)
(0.0756798 0.000914128 0.000659956)
(0.0778692 0.000494976 0.000352682)
(0.0672059 0.00049136 0.000405805)
(0.0744881 0.0008168 0.000662062)
(0.076857 0.000427066 0.000345464)
(0.0660058 0.00036977 0.000414969)
(0.073358 0.000703416 0.000676583)
(0.075926 0.000346933 0.00035158)
(0.0649113 0.000196853 0.000429245)
(0.0722884 0.000553847 0.000704033)
(0.0750824 0.000231424 0.000371279)
(0.0639669 -8.20999e-05 0.000413451)
(0.0712909 0.000345847 0.000742025)
(0.0743465 6.36768e-05 0.00039614)
(0.0633713 -0.000632047 0.000277434)
(0.0704053 -4.92689e-05 0.000747224)
(0.0737637 -0.000244906 0.000363616)
(0.0637337 -0.00234354 -0.000649872)
(0.0698169 -0.000856718 0.00064497)
(0.0734714 -0.000925338 5.8449e-05)
(0.0684503 -0.00306108 -0.000115611)
(0.0726831 -0.0031557 -0.00168688)
(0.0993753 0.00118207 0.00107259)
(0.099473 0.00034974 0.000307063)
(0.0997475 0.000610954 0.000779898)
(0.0984947 0.00229592 0.00203203)
(0.0990504 0.00157673 0.0017205)
(0.0995971 0.0020182 0.00200297)
(0.0971411 0.00247621 0.00204884)
(0.0983576 0.00213096 0.00216902)
(0.0992972 0.00246134 0.00210265)
(0.0954391 0.00224652 0.00176774)
(0.097193 0.00203554 0.00200265)
(0.0984881 0.00237413 0.00190301)
(0.09375 0.00201971 0.00152297)
(0.0959046 0.00185531 0.00175474)
(0.0974219 0.0021803 0.0016893)
(0.0921367 0.00186297 0.00134543)
(0.0946707 0.00173229 0.00154325)
(0.0963088 0.00198374 0.00150917)
(0.0905988 0.00175158 0.00121643)
(0.0934798 0.00165204 0.00138736)
(0.0952031 0.00180002 0.00134411)
(0.0891467 0.00165206 0.00111627)
(0.0923648 0.00157555 0.00126704)
(0.0941455 0.00164205 0.00120615)
(0.0877962 0.00154451 0.0010362)
(0.0913258 0.00147926 0.00117462)
(0.0931613 0.00150031 0.00109968)
(0.0865475 0.00143059 0.000977721)
(0.0903321 0.0013672 0.00110817)
(0.0922537 0.00136735 0.0010203)
(0.0853839 0.0013175 0.00094252)
(0.0893943 0.00125304 0.00106585)
(0.0914213 0.00124479 0.000967852)
(0.0842863 0.00120663 0.000927626)
(0.0885017 0.00113945 0.00104432)
(0.0906538 0.00113221 0.000938706)
(0.0832384 0.00109279 0.000929358)
(0.0876373 0.0010269 0.00104004)
(0.0899386 0.00102467 0.000928357)
(0.0822278 0.000966626 0.000945911)
(0.0867859 0.000911039 0.0010516)
(0.0892665 0.000913389 0.000934108)
(0.0812448 0.000814914 0.000978377)
(0.0859317 0.000779889 0.00108045)
(0.0886301 0.000788329 0.000957575)
(0.080281 0.00061997 0.00103042)
(0.0850552 0.0006131 0.00113122)
(0.0880235 0.000634805 0.00100217)
(0.0793237 0.000309645 0.00110577)
(0.0841247 0.000392387 0.00121457)
(0.0874391 0.000432244 0.00107374)
(0.0783205 -0.000254455 0.00120486)
(0.0830697 4.38047e-05 0.00135028)
(0.0868567 0.000101616 0.0011818)
(0.0771012 -0.00119059 0.00151028)
(0.0818258 -0.000510388 0.00154272)
(0.0862304 -0.000445532 0.00134939)
(0.0803161 -0.000979668 0.0026412)
(0.0854467 -0.00123145 0.00181181)
(0.0996493 0.000650269 0.000931428)
(0.0994625 0.000129379 0.000192511)
(0.0997993 0.00037511 0.000741369)
(0.0990854 0.00127883 0.00182776)
(0.0992625 0.000636878 0.00137064)
(0.0998409 0.00115032 0.00181425)
(0.098449 0.00154063 0.00210321)
(0.0989128 0.000973415 0.00200366)
(0.0999046 0.00153638 0.00209025)
(0.0977071 0.00154673 0.00198917)
(0.0982947 0.00105004 0.00205082)
(0.0997671 0.00163154 0.00202328)
(0.0969384 0.00148002 0.0017765)
(0.0976567 0.00100756 0.00189995)
(0.0995089 0.00160942 0.00189619)
(0.0962058 0.00142728 0.0015827)
(0.0970634 0.000960274 0.00169886)
(0.0991984 0.00154739 0.00175251)
(0.0955188 0.00139285 0.00143598)
(0.0965034 0.000933676 0.00152152)
(0.0988527 0.00147443 0.00162709)
(0.0948665 0.00135334 0.0013304)
(0.0959888 0.000917576 0.0013805)
(0.0985074 0.00139265 0.00151707)
(0.0942272 0.00129305 0.00126139)
(0.095517 0.000903831 0.00128097)
(0.0981714 0.00129918 0.00142302)
(0.0935924 0.00120928 0.00121851)
(0.095057 0.000871762 0.00122136)
(0.0978206 0.00119388 0.0013488)
(0.0929625 0.00111079 0.00119422)
(0.0945924 0.000814844 0.00119226)
(0.097476 0.00108592 0.00129962)
(0.0923315 0.00100743 0.00118651)
(0.0941199 0.000748359 0.00118513)
(0.097137 0.000980563 0.00127199)
(0.0916879 0.000903834 0.00119498)
(0.093629 0.000683116 0.00119345)
(0.0967951 0.000878502 0.00126372)
(0.0910146 0.00079669 0.00122254)
(0.0931017 0.000621815 0.00121818)
(0.0964418 0.000777598 0.0012766)
(0.0902843 0.000675466 0.0012766)
(0.0925172 0.00056379 0.00126676)
(0.0960633 0.000670592 0.00131581)
(0.0894544 0.000528156 0.0013715)
(0.0918435 0.000504271 0.00134859)
(0.0956389 0.000547287 0.00139262)
(0.0884532 0.000331759 0.0015339)
(0.0910289 0.000449772 0.00148295)
(0.0951334 0.000397387 0.00152942)
(0.0871635 2.12861e-05 0.00177455)
(0.0899669 0.000370535 0.00170786)
(0.0944771 0.000195179 0.00176034)
(0.0854239 -0.000122432 0.00277628)
(0.0885465 0.000259974 0.00202296)
(0.093632 -0.000110911 0.00209504)
(0.0870048 0.000416636 0.00318872)
(0.09292 -0.000113173 0.00330943)
(0.0996725 0.000154085 0.000629514)
(0.0993801 1.35189e-08 5.89464e-05)
(0.0997132 0.000103933 0.000687959)
(0.099159 0.000353392 0.0015443)
(0.0992677 6.68583e-08 0.00120005)
(0.0998376 0.000341682 0.00162233)
(0.0986635 0.000457944 0.00194757)
(0.0989804 1.62804e-07 0.00188854)
(0.0999629 0.000485557 0.00199144)
(0.098212 0.000481199 0.00196074)
(0.0984745 3.01306e-07 0.00200656)
(0.0999916 0.000539789 0.00199674)
(0.0977757 0.000472264 0.001825)
(0.0979953 5.29696e-07 0.00191481)
(0.100009 0.0005467 0.00191132)
(0.0973615 0.000459343 0.00164148)
(0.0975703 9.46376e-07 0.00173494)
(0.100007 0.000534043 0.00180477)
(0.0969925 0.000447889 0.00146869)
(0.09718 1.70511e-06 0.00154759)
(0.0999799 0.000512441 0.00168358)
(0.0966704 0.000439785 0.00133067)
(0.0968293 2.9639e-06 0.00138908)
(0.0999367 0.000486711 0.00157368)
(0.0963871 0.000433149 0.00123726)
(0.0965275 5.10415e-06 0.00127098)
(0.0998947 0.000464042 0.00148323)
(0.0961163 0.000421263 0.00119033)
(0.0962701 8.66731e-06 0.00120117)
(0.099859 0.000442284 0.0014216)
(0.0958288 0.00040184 0.00117912)
(0.0959909 1.45994e-05 0.0011753)
(0.0998 0.000415896 0.00138484)
(0.095509 0.000379428 0.00118894)
(0.0956889 2.44589e-05 0.00117583)
(0.099722 0.000387004 0.00136339)
(0.0951438 0.000360255 0.00121415)
(0.0953592 4.09705e-05 0.00118987)
(0.09962 0.000360628 0.00135975)
(0.0947153 0.000351636 0.0012605)
(0.0949842 6.85269e-05 0.00121696)
(0.0994776 0.000340426 0.00138009)
(0.0941983 0.000359506 0.00133755)
(0.0945478 0.000114035 0.00126508)
(0.0992836 0.000331578 0.0014296)
(0.0935514 0.0003969 0.00145947)
(0.0940266 0.000190133 0.00134169)
(0.0990194 0.000337541 0.00151859)
(0.0927055 0.00046569 0.00165718)
(0.0933866 0.000325731 0.00146166)
(0.0986527 0.000372117 0.00167174)
(0.0915394 0.000597078 0.00195803)
(0.0925569 0.000540534 0.00164965)
(0.0981274 0.000428176 0.00193075)
(0.0898575 0.000802135 0.00242324)
(0.0914342 0.000922992 0.00191614)
(0.0973647 0.000555404 0.00232098)
(0.0902538 0.00171054 0.0023236)
(0.0966466 0.000746203 0.00308193)
(0.0996725 -0.000154003 0.000629478)
(0.0994625 -0.000129351 0.000192489)
(0.0997132 -0.000103898 0.000687956)
(0.0991591 -0.000353171 0.00154428)
(0.0992625 -0.000636772 0.00137063)
(0.0998376 -0.000341543 0.00162232)
(0.0986636 -0.000457518 0.00194753)
(0.0989129 -0.000973214 0.0020036)
(0.099963 -0.00048528 0.00199145)
(0.0982122 -0.000480439 0.00196063)
(0.0982951 -0.00104969 0.00205069)
(0.0999918 -0.000539288 0.00199671)
(0.0977763 -0.000470893 0.00182475)
(0.0976575 -0.00100687 0.00189972)
(0.100009 -0.000545778 0.00191113)
(0.0973628 -0.000456842 0.00164105)
(0.097065 -0.00095895 0.00169845)
(0.100008 -0.000532366 0.00180437)
(0.0969948 -0.00044345 0.00146799)
(0.0965062 -0.000931213 0.00152098)
(0.0999815 -0.000509494 0.00168297)
(0.0966744 -0.000432113 0.00132939)
(0.0959937 -0.000913267 0.00137956)
(0.0999395 -0.000481658 0.00157269)
(0.096394 -0.00042009 0.00123489)
(0.0955256 -0.000896317 0.00127903)
(0.0998994 -0.000455343 0.00148149)
(0.0961283 -0.000399285 0.00118615)
(0.0950718 -0.0008593 0.00121739)
(0.0998669 -0.000427363 0.00141863)
(0.0958496 -0.000365172 0.001172)
(0.0946179 -0.000794482 0.00118502)
(0.0998134 -0.000390682 0.00137995)
(0.0955452 -0.000318461 0.00117676)
(0.0941634 -0.000715328 0.00117211)
(0.0997446 -0.000345021 0.00135504)
(0.0952071 -0.000258822 0.00119267)
(0.0937034 -0.000628878 0.0011714)
(0.0996592 -0.000291908 0.00134484)
(0.0948255 -0.000183473 0.00122154)
(0.093229 -0.000532091 0.00118051)
(0.0995464 -0.000228326 0.00135317)
(0.0943894 -8.16247e-05 0.00126923)
(0.0927334 -0.000417358 0.00119967)
(0.0994 -0.00014868 0.0013821)
(0.0938788 7.04356e-05 0.00134388)
(0.0922091 -0.000259918 0.00122894)
(0.0992128 -4.05949e-05 0.00143541)
(0.0932684 0.000308132 0.00145413)
(0.0916475 -3.26129e-05 0.00127098)
(0.098972 0.000117238 0.00152544)
(0.0925148 0.000687379 0.00160776)
(0.0910271 0.000304866 0.00133106)
(0.0986534 0.000354128 0.00166432)
(0.0915932 0.00136447 0.0018165)
(0.090314 0.000807497 0.00142457)
(0.0982357 0.000714135 0.0018599)
(0.0895886 0.00162352 0.00152303)
(0.0979607 0.00132316 0.00212145)
(0.0996493 -0.000650244 0.000931429)
(0.099473 -0.000349747 0.000307061)
(0.0997993 -0.000375107 0.000741371)
(0.0990855 -0.00127877 0.00182771)
(0.0990504 -0.00157676 0.00172047)
(0.0998409 -0.0011503 0.00181425)
(0.0984493 -0.00154051 0.00210306)
(0.0983578 -0.00213103 0.00216885)
(0.0999048 -0.00153634 0.00209016)
(0.0977079 -0.00154646 0.00198893)
(0.0971935 -0.00203566 0.00200237)
(0.0997676 -0.00163144 0.00202299)
(0.09694 -0.00147937 0.00177611)
(0.0959057 -0.00185538 0.00175431)
(0.0995099 -0.00160915 0.00189564)
(0.0962088 -0.00142601 0.00158218)
(0.0946728 -0.00173225 0.00154261)
(0.0992004 -0.00154682 0.00175167)
(0.0955241 -0.00139066 0.00143523)
(0.0934836 -0.00165183 0.00138642)
(0.0988562 -0.00147334 0.00162589)
(0.0948757 -0.00134954 0.00132887)
(0.0923713 -0.00157526 0.00126548)
(0.0985134 -0.00139079 0.00151515)
(0.094243 -0.00128673 0.00125797)
(0.0913373 -0.00147873 0.00117183)
(0.0981817 -0.00129596 0.00141979)
(0.0936196 -0.00119932 0.00121169)
(0.0903517 -0.00136645 0.00110299)
(0.097838 -0.0011885 0.00134317)
(0.0930088 -0.00109529 0.00118144)
(0.0894275 -0.00125208 0.00105696)
(0.0975054 -0.0010774 0.00128975)
(0.09241 -0.000982686 0.00116418)
(0.088558 -0.00113838 0.00102841)
(0.0971869 -0.000967214 0.00125445)
(0.0918202 -0.000863398 0.0011576)
(0.0877318 -0.00102532 0.00101302)
(0.0968795 -0.000858022 0.00123308)
(0.0912373 -0.000732099 0.00115816)
(0.0869439 -0.00090844 0.00100646)
(0.0965818 -0.000744962 0.00122339)
(0.0906595 -0.000568988 0.00116077)
(0.0861943 -0.000777078 0.00100257)
(0.0962939 -0.000618489 0.00122247)
(0.0900875 -0.000344891 0.00116024)
(0.0854936 -0.000604653 0.000989923)
(0.0960164 -0.000457823 0.00122634)
(0.0895233 -1.94569e-05 0.00115516)
(0.084867 -0.000360366 0.000957722)
(0.095749 -0.000241647 0.0012314)
(0.0889561 0.000468543 0.00115578)
(0.0843453 1.43576e-05 0.000870475)
(0.0954889 6.58308e-05 0.00123857)
(0.0883288 0.00121206 0.00113325)
(0.0839736 0.000640454 0.000728452)
(0.0952279 0.000505481 0.00126355)
(0.0832718 0.00181915 0.000302983)
(0.0949597 0.00112782 0.00128271)
(0.0993753 -0.00118212 0.00107255)
(0.0996871 -0.000439229 0.00034548)
(0.0997475 -0.00061098 0.000779879)
(0.0984949 -0.00229605 0.00203188)
(0.0978162 -0.00273278 0.00228226)
(0.0995971 -0.0020183 0.00200286)
(0.0971415 -0.00247646 0.00204854)
(0.0954961 -0.0030017 0.00230307)
(0.0992974 -0.00246153 0.00210236)
(0.0954399 -0.00224693 0.00176728)
(0.0926194 -0.00229934 0.00183868)
(0.0984885 -0.00237449 0.00190251)
(0.0937515 -0.00202036 0.00152232)
(0.0897677 -0.0018919 0.00153556)
(0.0974228 -0.00218089 0.00168856)
(0.0921395 -0.00186395 0.00134442)
(0.0872329 -0.00165644 0.00129457)
(0.0963104 -0.00198471 0.00150811)
(0.0906038 -0.00175313 0.00121475)
(0.0850081 -0.00149195 0.00107705)
(0.095206 -0.0018015 0.00134243)
(0.0891553 -0.00165462 0.00111351)
(0.0830635 -0.00137139 0.000913173)
(0.0941507 -0.00164436 0.00120327)
(0.0878109 -0.00154877 0.00103169)
(0.0813292 -0.00127823 0.000801472)
(0.0931703 -0.00150427 0.00109496)
(0.0865725 -0.00143769 0.000970479)
(0.0797543 -0.00119349 0.000726151)
(0.092269 -0.0013741 0.00101245)
(0.0854259 -0.00132921 0.000930433)
(0.0783113 -0.00111121 0.000678518)
(0.0914472 -0.00125577 0.000954739)
(0.0843566 -0.00122546 0.000906773)
(0.0769801 -0.00103068 0.000648948)
(0.0906974 -0.00115032 0.000916374)
(0.0833549 -0.00112225 0.000893824)
(0.075744 -0.000952349 0.000631021)
(0.0900103 -0.00105443 0.000890836)
(0.0824197 -0.00101176 0.000885222)
(0.0745941 -0.000875723 0.000621726)
(0.0893822 -0.000961987 0.000872365)
(0.0815613 -0.000881368 0.000870092)
(0.0735298 -0.000797921 0.000613587)
(0.0888156 -0.000864263 0.000854608)
(0.080816 -0.000709352 0.000833644)
(0.0725714 -0.000711551 0.000586265)
(0.0883229 -0.000746481 0.000822591)
(0.080239 -0.000442319 0.000732263)
(0.0717763 -0.000583414 0.000524697)
(0.0879285 -0.000584517 0.000754059)
(0.0798891 5.20594e-05 0.000519405)
(0.0712687 -0.000310464 0.000314691)
(0.0876576 -0.000323438 0.000589447)
(0.079837 0.00119294 -1.99288e-05)
(0.0714021 0.000269739 -7.24542e-05)
(0.0875372 0.000151528 0.000304815)
(0.0698591 0.00191811 -0.00097138)
(0.0871806 0.00124782 -0.000377041)
(0.0984572 -0.00247646 0.00172988)
(0.0973536 -0.00106248 -0.00148428)
(0.100049 -0.00105639 0.000750963)
(0.0958349 -0.00314809 0.00243263)
(0.0930873 -0.00326902 0.00253344)
(0.0982937 -0.00280925 0.00216144)
(0.0914501 -0.00223039 0.00186923)
(0.0848641 -0.0016359 0.0017923)
(0.096304 -0.00244272 0.00199775)
(0.0875955 -0.00167474 0.00150536)
(0.0786283 -0.00107363 0.00122127)
(0.093667 -0.00198082 0.00172687)
(0.0841481 -0.00144028 0.00127553)
(0.0740534 -0.0007856 0.000864971)
(0.0909049 -0.0017199 0.0014977)
(0.0811886 -0.00126581 0.00102854)
(0.0704431 -0.000650937 0.000669079)
(0.0884349 -0.00145484 0.00121158)
(0.0787027 -0.00111089 0.000793674)
(0.0674928 -0.000547646 0.000508084)
(0.0863057 -0.00118402 0.000908419)
(0.0765592 -0.000993331 0.000624786)
(0.0650527 -0.00047044 0.000386715)
(0.0844822 -0.000983899 0.000690406)
(0.0746554 -0.000907201 0.000517572)
(0.0629692 -0.000417852 0.000306663)
(0.0828829 -0.000846716 0.000548114)
(0.0729309 -0.0008346 0.000451415)
(0.0611371 -0.000377102 0.000253062)
(0.0814526 -0.000747134 0.000454483)
(0.0713507 -0.000765223 0.000410118)
(0.0594978 -0.000341961 0.000216043)
(0.0801597 -0.000667017 0.000389363)
(0.0698944 -0.000699696 0.000384043)
(0.0580183 -0.000311599 0.000189226)
(0.0789792 -0.000598522 0.000341214)
(0.0685468 -0.000643288 0.00037)
(0.0566734 -0.000288723 0.000168958)
(0.0778936 -0.000543638 0.000306463)
(0.0672985 -0.000596137 0.000362423)
(0.0554433 -0.000274784 0.00015301)
(0.0768971 -0.000501814 0.000281229)
(0.0661542 -0.000551912 0.000342121)
(0.0543224 -0.000267572 0.000134175)
(0.0759899 -0.000468914 0.000252506)
(0.065153 -0.000493094 0.000289668)
(0.0533263 -0.000264033 0.00011198)
(0.0751858 -0.000439765 0.000199571)
(0.0643941 -0.000371968 0.000136107)
(0.0525064 -0.000273611 5.31999e-05)
(0.0745254 -0.000391943 9.97044e-05)
(0.064199 -0.00014081 -0.000176715)
(0.0520173 -0.000274765 -0.000100975)
(0.0740977 -0.000266761 -0.000154265)
(0.0652827 0.000197427 -0.000608047)
(0.0524673 -0.000190917 -0.000350692)
(0.0741361 9.82787e-05 -0.000795644)
(0.0506522 0.00112936 -0.00196156)
(0.0728114 0.00124058 -0.00287603)
(0.0993441 0.00341899 -0.00341903)
(0.0973536 0.00148427 0.00106247)
(0.0834792 -0.00197592 0.00197581)
(0.0930872 -0.00253352 0.00326893)
(0.0745172 -0.00195882 0.0019586)
(0.0848641 -0.00179245 0.00163573)
(0.068548 -0.00115931 0.00115885)
(0.0786282 -0.00122159 0.0010733)
(0.0642364 -0.000697368 0.00069657)
(0.0740533 -0.00086552 0.00078492)
(0.0607573 -0.000495584 0.000493973)
(0.0704429 -0.000670007 0.000649839)
(0.0579383 -0.000376296 0.000373239)
(0.0674922 -0.000509968 0.000545384)
(0.0556155 -0.000290446 0.000285333)
(0.0650518 -0.000389886 0.000466488)
(0.0536272 -0.000231029 0.00022267)
(0.0629675 -0.000311828 0.000411177)
(0.051884 -0.000189861 0.000175896)
(0.0611341 -0.000261518 0.000365872)
(0.0503371 -0.00016229 0.000138983)
(0.0594922 -0.000231061 0.000322926)
(0.048955 -0.000144481 0.000107097)
(0.0580082 -0.000214442 0.000280022)
(0.0477093 -0.000133786 7.59495e-05)
(0.0566558 -0.000206516 0.000237691)
(0.0465806 -0.000129475 4.13845e-05)
(0.0554143 -0.00020414 0.000192302)
(0.0455752 -0.000132576 1.05188e-05)
(0.0542762 -0.00020806 0.000134424)
(0.044708 -0.000148504 -3.85588e-05)
(0.0532517 -0.00021785 6.25248e-05)
(0.0440407 -0.00016727 -0.000155087)
(0.0523773 -0.000246562 -4.9155e-05)
(0.043889 -0.000137058 -0.000350465)
(0.0517767 -0.000246181 -0.0002687)
(0.0449626 0.000815892 -0.00161877)
(0.0519885 -0.000116805 -0.000696992)
(0.0505597 0.00194878 -0.00368965)
(0.0984572 0.00172988 0.00247646)
(0.100049 0.000750963 0.00105639)
(0.0996871 0.00034548 0.00043923)
(0.0958349 0.00243263 0.00314809)
(0.0982937 0.00216143 0.00280925)
(0.0978162 0.00228226 0.00273278)
(0.0914501 0.00186923 0.00223039)
(0.096304 0.00199774 0.00244272)
(0.0954961 0.00230307 0.0030017)
(0.0875955 0.00150536 0.00167475)
(0.093667 0.00172686 0.00198083)
(0.0926194 0.00183868 0.00229935)
(0.0841482 0.00127552 0.00144029)
(0.090905 0.0014977 0.00171991)
(0.0897678 0.00153555 0.00189191)
(0.0811886 0.00102853 0.00126582)
(0.088435 0.00121157 0.00145485)
(0.087233 0.00129457 0.00165645)
(0.0787027 0.000793664 0.0011109)
(0.0863058 0.000908403 0.00118403)
(0.0850082 0.00107704 0.00149196)
(0.0765592 0.000624771 0.00099335)
(0.0844822 0.000690386 0.000983916)
(0.0830636 0.00091316 0.0013714)
(0.0746555 0.000517552 0.000907225)
(0.082883 0.000548088 0.000846737)
(0.0813293 0.000801454 0.00127825)
(0.072931 0.000451385 0.000834628)
(0.0814526 0.000454449 0.000747161)
(0.0797544 0.000726127 0.00119351)
(0.0713508 0.000410078 0.000765256)
(0.0801598 0.000389317 0.000667052)
(0.0783115 0.000678484 0.00111124)
(0.0698945 0.000383995 0.00069974)
(0.0789793 0.00034116 0.000598569)
(0.0769802 0.000648902 0.0010307)
(0.068547 0.000369954 0.000643358)
(0.0778938 0.000306394 0.000543685)
(0.0757443 0.000630961 0.000952379)
(0.0672988 0.000362352 0.000596233)
(0.0768973 0.000281161 0.000501903)
(0.0745943 0.000621647 0.000875754)
(0.0661547 0.000341999 0.000552025)
(0.0759902 0.000252373 0.000469034)
(0.0735303 0.000613463 0.000797971)
(0.0651536 0.000289501 0.000493183)
(0.0751862 0.000199384 0.000439889)
(0.0725719 0.000586115 0.000711629)
(0.0643949 0.000135878 0.000372043)
(0.0745261 9.94975e-05 0.000392083)
(0.0717771 0.000524494 0.000583447)
(0.0642003 -0.000177005 0.00014095)
(0.0740985 -0.000154532 0.000266977)
(0.0712697 0.000314383 0.000310443)
(0.0652847 -0.000609014 -0.000197583)
(0.0741375 -0.000796008 -9.79346e-05)
(0.0714036 -7.28839e-05 -0.000269843)
(0.0728134 -0.00287719 -0.00124056)
(0.0698613 -0.00097247 -0.00191867)
(0.10008 0.00135173 0.00135181)
(0.100186 0.000798737 0.000804969)
(0.100186 0.000804936 0.00079877)
(0.100264 0.00221719 0.00221741)
(0.10019 0.00231177 0.00207157)
(0.10019 0.00207142 0.0023119)
(0.0993829 0.00243553 0.00243596)
(0.100306 0.00263354 0.0024533)
(0.100307 0.00245293 0.00263382)
(0.0979841 0.00230988 0.00231059)
(0.099805 0.00256011 0.00245633)
(0.0998052 0.0024557 0.00256061)
(0.0964952 0.0020056 0.0020068)
(0.0988627 0.00236399 0.00228153)
(0.098863 0.00228058 0.00236479)
(0.095073 0.00159603 0.00159804)
(0.0978407 0.00204832 0.00196901)
(0.0978412 0.00196755 0.00204973)
(0.093776 0.00122469 0.00122802)
(0.0968611 0.00169005 0.00160613)
(0.0968621 0.0016038 0.00169234)
(0.0926189 0.000959304 0.000964963)
(0.095959 0.00140261 0.00132401)
(0.0959607 0.00132004 0.00140633)
(0.091596 0.000773062 0.000782776)
(0.0951471 0.00118812 0.0011229)
(0.0951501 0.00111613 0.00119454)
(0.0906917 0.000637079 0.000654257)
(0.0944243 0.00102576 0.000979143)
(0.0944295 0.000967658 0.00103679)
(0.0898865 0.000532549 0.000561599)
(0.0937857 0.000898266 0.000876626)
(0.0937946 0.000856537 0.000917089)
(0.0891612 0.000450583 0.000495716)
(0.0932172 0.000794139 0.000804968)
(0.0932321 0.000772014 0.000824901)
(0.0885069 0.000383399 0.0004502)
(0.0927079 0.000704894 0.000757269)
(0.0927317 0.000706013 0.000753251)
(0.0879249 0.000316303 0.000418498)
(0.0922573 0.000619446 0.000726646)
(0.0922937 0.000648728 0.000694697)
(0.0874222 0.000231411 0.000396325)
(0.0918658 0.000523365 0.000710329)
(0.0919211 0.0005866 0.000642246)
(0.0870064 0.00010651 0.000375604)
(0.0915365 0.000400175 0.000706716)
(0.0916192 0.000503673 0.000587054)
(0.0866907 -0.00010425 0.000330799)
(0.0912719 0.000224977 0.000708873)
(0.0913913 0.000373487 0.000513237)
(0.0864012 -0.000513862 0.000156603)
(0.0910582 -4.44375e-05 0.000697829)
(0.0912192 0.000145233 0.000390358)
(0.085765 -0.00140537 -0.000422246)
(0.0907898 -0.000441232 0.000598425)
(0.0909822 -0.00026865 0.000146392)
(0.0907104 -0.000984402 0.000258196)
(0.0908996 -0.00106532 -0.000292887)
(0.100171 0.00136864 0.00141649)
(0.100118 0.000577389 0.000811325)
(0.100102 0.00069974 0.000700716)
(0.100759 0.00219482 0.00214924)
(0.100478 0.00158281 0.00185884)
(0.100477 0.00182247 0.00186475)
(0.100996 0.00247679 0.00238827)
(0.101004 0.00205869 0.0022427)
(0.101024 0.00234666 0.00238317)
(0.100837 0.00247595 0.00238962)
(0.101292 0.00220337 0.00235246)
(0.101337 0.00250574 0.00254409)
(0.100457 0.00231107 0.00222549)
(0.101309 0.00216717 0.00232271)
(0.101408 0.00245017 0.00247287)
(0.0999666 0.00205574 0.00196917)
(0.101155 0.00201046 0.00217957)
(0.101301 0.00226397 0.00227127)
(0.0994416 0.00178908 0.00170157)
(0.100925 0.00179312 0.00196971)
(0.101098 0.00200796 0.00199999)
(0.0989305 0.00156068 0.00148641)
(0.100662 0.00158251 0.00176782)
(0.100854 0.00176829 0.0017601)
(0.0984595 0.00137322 0.00132623)
(0.100403 0.00139333 0.00159381)
(0.100605 0.00156566 0.0015679)
(0.0980392 0.00121684 0.00120898)
(0.100164 0.00122542 0.00145128)
(0.100376 0.00139619 0.00141655)
(0.0976692 0.00108401 0.00112717)
(0.0999523 0.00108177 0.00134984)
(0.100178 0.00125381 0.00129975)
(0.0973463 0.000966729 0.00107361)
(0.0997672 0.000957925 0.00128258)
(0.100014 0.00113209 0.00121222)
(0.0970678 0.000855233 0.00104153)
(0.0996061 0.000845708 0.00124215)
(0.0998838 0.00102381 0.00114835)
(0.0968313 0.000738951 0.00102808)
(0.099467 0.000735725 0.00122479)
(0.0997888 0.000919739 0.00110319)
(0.0966341 0.000605395 0.00103353)
(0.099346 0.000617052 0.0012315)
(0.0997277 0.000810373 0.00107419)
(0.0964734 0.000435342 0.00105794)
(0.0992374 0.00047724 0.00126593)
(0.099699 0.000682755 0.0010588)
(0.0963472 0.000201413 0.00110057)
(0.0991338 0.000297039 0.00133549)
(0.0996984 0.000518213 0.00105285)
(0.0962421 -0.000126974 0.00115853)
(0.099022 4.97977e-05 0.00144935)
(0.0997156 0.000293083 0.00104692)
(0.0961412 -0.000552514 0.00122554)
(0.098886 -0.000287193 0.00161205)
(0.0997303 -1.34419e-05 0.00101856)
(0.0990148 -0.000720492 0.00182626)
(0.099911 -0.000358684 0.000978978)
(0.100242 0.000820158 0.00125615)
(0.10009 0.000294343 0.000735366)
(0.100071 0.000415665 0.000602798)
(0.100828 0.00139054 0.0019394)
(0.100491 0.000792008 0.00168405)
(0.100492 0.00112439 0.00158705)
(0.101392 0.00166346 0.00218244)
(0.101086 0.00107777 0.00208346)
(0.101128 0.0015408 0.00209423)
(0.101815 0.00176113 0.00226159)
(0.101664 0.00120443 0.00217921)
(0.101767 0.00173268 0.00229449)
(0.102079 0.0017553 0.0022627)
(0.102121 0.00123992 0.00222243)
(0.10229 0.00178983 0.00236774)
(0.102213 0.00166803 0.00217776)
(0.10245 0.00120224 0.0022108)
(0.10271 0.00174369 0.00232265)
(0.102263 0.00153339 0.00204311)
(0.102678 0.00111895 0.00212735)
(0.103035 0.0016259 0.00220319)
(0.102271 0.00138136 0.00188783)
(0.102838 0.00101829 0.00200703)
(0.103284 0.00147895 0.00205134)
(0.102266 0.00122873 0.00173455)
(0.102961 0.000918238 0.00187258)
(0.103488 0.00132662 0.00189309)
(0.102256 0.00108913 0.00161019)
(0.103061 0.000824886 0.00174801)
(0.103662 0.00118336 0.00175062)
(0.102246 0.000968068 0.00152553)
(0.103148 0.000740953 0.00165008)
(0.103819 0.00105765 0.00164109)
(0.102236 0.000860125 0.00147333)
(0.103231 0.000665965 0.00157822)
(0.103966 0.000948223 0.00156107)
(0.102227 0.000757791 0.00144941)
(0.103307 0.000596943 0.0015378)
(0.104107 0.000848405 0.00150734)
(0.102213 0.000654201 0.00145449)
(0.103369 0.000531514 0.00153006)
(0.104244 0.000752691 0.00147905)
(0.102188 0.000542007 0.00149375)
(0.103415 0.000467317 0.00155259)
(0.104376 0.000655904 0.00147805)
(0.102142 0.000411658 0.00157917)
(0.103439 0.000401951 0.00161384)
(0.104498 0.000551888 0.00150973)
(0.102062 0.000248931 0.00172959)
(0.103427 0.000331089 0.00173338)
(0.104604 0.000432052 0.00158474)
(0.101929 4.24377e-05 0.0019637)
(0.103365 0.000250662 0.0019347)
(0.104685 0.00028611 0.00171614)
(0.101705 -0.000152285 0.00231083)
(0.103255 0.000171652 0.00223291)
(0.104748 0.000113617 0.00191241)
(0.103474 0.000180975 0.00262842)
(0.105064 -1.12404e-05 0.00220635)
(0.100243 0.000267471 0.00116244)
(0.100087 2.58365e-08 0.000707031)
(0.100064 0.000135837 0.000537351)
(0.100782 0.000465866 0.00182628)
(0.100477 7.48661e-08 0.00161783)
(0.100463 0.00037097 0.00142419)
(0.101401 0.000575751 0.00207627)
(0.101066 1.30273e-07 0.00203472)
(0.101089 0.000525317 0.00193367)
(0.101987 0.000623322 0.00213427)
(0.101694 2.47478e-07 0.00211778)
(0.101797 0.000606141 0.0021288)
(0.102506 0.000631868 0.00216578)
(0.102269 4.73854e-07 0.00215059)
(0.102489 0.000639777 0.00221146)
(0.102933 0.000611589 0.00215827)
(0.102742 8.47111e-07 0.00218055)
(0.103119 0.000634973 0.00224245)
(0.103275 0.000573349 0.00209131)
(0.103123 1.41776e-06 0.00213527)
(0.103686 0.000602248 0.00219818)
(0.103551 0.000528835 0.00199316)
(0.103426 2.35004e-06 0.00204621)
(0.104183 0.000557019 0.00210823)
(0.103783 0.00048644 0.00188808)
(0.103678 3.99785e-06 0.00193836)
(0.104618 0.000510417 0.00199679)
(0.103986 0.000446114 0.00179007)