/*--------------------------------*- C++ -*----------------------------------*\
| =========                 |                                                 |
| \\      /  F ield         | OpenFOAM: The Open Source CFD Toolbox           |
|  \\    /   O peration     | Version:  2212                                  |
|   \\  /    A nd           | Website:  www.openfoam.com                      |
|    \\/     M anipulation  |                                                 |
\*---------------------------------------------------------------------------*/
FoamFile
{
    version     2.0;
    format      ascii;
    arch        "LSB;label=32;scalar=64";
    class       volScalarField;
    location    "1.5";
    object      k;
}
// * * * * * * * * * * * * * * * * * * * * * * * * * * * * * * * * * * * * * //

dimensions      [0 2 -2 0 0 0 0];

internalField   nonuniform List<scalar> 
689
(
0.00283163
0.00275092
0.00267956
0.00261511
0.00255296
0.00249987
0.00245233
0.00240935
0.0026661
0.00257349
0.00248752
0.00241117
0.0023346
0.00226769
0.00220845
0.00215743
0.00302562
0.00287386
0.0027427
0.00262998
0.00253048
0.00244223
0.00236088
0.00228613
0.00221788
0.00391296
0.00365947
0.00343689
0.0032413
0.00306972
0.00291852
0.00278318
0.00266173
0.00255213
0.00245298
0.00236297
0.00228075
0.00417521
0.00388687
0.00363329
0.00341011
0.00321332
0.00303966
0.00288627
0.00274988
0.00262683
0.00251545
0.00241424
0.00232186
0.004323
0.00400363
0.00372648
0.00348462
0.00327249
0.00308553
0.00292057
0.00277422
0.00264293
0.00252417
0.00241654
0.00231859
0.00429703
0.00396058
0.00367404
0.0034272
0.00321204
0.0030235
0.00285782
0.00271112
0.00257979
0.002462
0.00235621
0.00226086
0.0040901
0.00376698
0.00349188
0.00325651
0.00305159
0.00287273
0.00271699
0.00258041
0.00246047
0.00235428
0.00225981
0.00217435
0.00378586
0.00349565
0.00323556
0.00301716
0.00283178
0.002675
0.00254281
0.00243124
0.00233189
0.00224387
0.00216523
0.00350469
0.00325003
0.002999
0.00280516
0.0026538
0.00253374
0.00243415
0.00234947
0.00226731
0.00219707
0.00213599
0.00350666
0.00329847
0.00309113
0.00294184
0.00283362
0.00275426
0.00268275
0.00261801
0.00255528
0.00250122
0.00245371
0.00265155
0.00252997
0.00243054
0.00234602
0.00226445
0.00219529
0.0021341
0.00208347
0.00316729
0.00295713
0.00276947
0.00259875
0.00242199
0.00227903
0.00215091
0.00204419
0.00445823
0.00411566
0.00381672
0.00355172
0.0033148
0.00310312
0.00291192
0.00273712
0.00258312
0.00677019
0.00612715
0.00558394
0.00511844
0.0047168
0.00436703
0.00405531
0.00377637
0.00352565
0.00330008
0.00309672
0.00291305
0.00727554
0.00660562
0.00602297
0.00551512
0.00507041
0.0046801
0.0043379
0.00403644
0.00376524
0.00352063
0.00330009
0.00310074
0.0074695
0.00678591
0.00618525
0.00565884
0.00519735
0.0047915
0.00443636
0.00412488
0.00384777
0.00359789
0.0033725
0.00316907
0.00732883
0.00663472
0.0060341
0.00551419
0.00506263
0.0046705
0.00432901
0.00402967
0.00376184
0.00352112
0.00330453
0.00310949
0.00681482
0.00612952
0.00556081
0.00508179
0.00467598
0.00432832
0.00402312
0.00375129
0.00350735
0.00328807
0.00309043
0.00291094
0.00593788
0.0053083
0.00481052
0.00440963
0.00407176
0.00377726
0.00351718
0.00328469
0.0030707
0.00287779
0.00270456
0.00473404
0.00415131
0.00373983
0.00343498
0.00318949
0.00297436
0.00278164
0.00260838
0.00242944
0.00228276
0.00215661
0.003403
0.00312703
0.00292841
0.00278458
0.00267128
0.00258004
0.00249199
0.00241487
0.00233767
0.00226957
0.00221079
0.00302051
0.00283198
0.0026733
0.00254016
0.002429
0.00233013
0.00224262
0.0021642
0.00209397
0.00439099
0.00405638
0.00376499
0.00350788
0.00327743
0.00306551
0.00287455
0.00270049
0.00254394
0.0057748
0.00531087
0.00490666
0.00455077
0.00423447
0.00395031
0.00369392
0.00346128
0.00325062
0.00895858
0.00812598
0.00740101
0.00677012
0.00621831
0.00573374
0.00530595
0.00492588
0.00458628
0.00428111
0.0040055
0.00375593
0.0096997
0.00881275
0.00803646
0.00735491
0.0067546
0.00622407
0.00575372
0.0053356
0.0049626
0.00462806
0.00432662
0.00405414
0.00995505
0.00904674
0.00825075
0.00755074
0.00693332
0.00638715
0.00590259
0.00547188
0.00508802
0.00474442
0.0044353
0.00415621
0.00971081
0.00881816
0.00803566
0.00734918
0.00674578
0.00621397
0.00574393
0.00532719
0.00495627
0.00462439
0.00432602
0.00405669
0.00896128
0.00812161
0.00738956
0.00675275
0.00619784
0.00571255
0.00528601
0.00490852
0.004572
0.0042703
0.00399854
0.00375228
0.00772438
0.00697901
0.00634015
0.00579417
0.00532543
0.004918
0.00455961
0.00424132
0.00395553
0.0036978
0.00346458
0.00595218
0.00535407
0.0048692
0.00447026
0.00412742
0.00382707
0.00356013
0.00332124
0.00310784
0.00291575
0.00273933
0.0036353
0.00340705
0.00320416
0.00302788
0.00287637
0.00274512
0.00263247
0.00253257
0.00244398
0.00236236
0.00228689
0.0032596
0.00305352
0.00287333
0.00271679
0.00257989
0.00245993
0.00235379
0.0022596
0.00217458
0.00506926
0.0046681
0.00432345
0.00402002
0.00374936
0.00350632
0.00328779
0.00309026
0.00291224
0.00673847
0.00618791
0.00570567
0.00528125
0.00490522
0.00456976
0.00426885
0.00399756
0.00375225
0.0104921
0.00953052
0.00868848
0.0079504
0.00730136
0.00672869
0.00622159
0.00577062
0.00536781
0.00500647
0.00468099
0.00438678
0.011423
0.0103841
0.00947531
0.00867668
0.00797192
0.00734767
0.00679276
0.00629786
0.00585505
0.00545752
0.00509937
0.00477573
0.0117394
0.010673
0.0097406
0.00892093
0.00819712
0.00755547
0.00698466
0.00647525
0.00601927
0.00560985
0.00524105
0.00490787
0.0114293
0.01039
0.00947959
0.00867918
0.00797302
0.00734787
0.00679258
0.0062977
0.00585518
0.00545809
0.00510053
0.00477752
0.0104949
0.00953411
0.00869236
0.00795392
0.00730441
0.00673127
0.00622369
0.00577229
0.00536908
0.00500741
0.00468167
0.00438715
0.00896367
0.00813248
0.00740821
0.00677674
0.00622426
0.00573895
0.00531036
0.0049295
0.00458917
0.00428337
0.0040073
0.00677277
0.00613177
0.00558946
0.00512362
0.00472166
0.00437121
0.00405868
0.00377902
0.00352768
0.00330166
0.00309778
0.00391224
0.00365957
0.00343768
0.00324224
0.00307076
0.00291952
0.00278406
0.00266251
0.00255281
0.00245354
0.00236314
0.00342842
0.00321272
0.00302407
0.00285833
0.00271156
0.00258018
0.00246237
0.0023566
0.0022613
0.00550798
0.00505912
0.00466899
0.00432873
0.00403007
0.0037627
0.0035223
0.00330584
0.00311095
0.00734378
0.00674206
0.00621164
0.00574265
0.00532665
0.00495624
0.00462469
0.00432654
0.00405741
0.011429
0.0103897
0.00947917
0.00867884
0.00797282
0.00734781
0.00679264
0.00629785
0.00585541
0.00545838
0.00510087
0.00477791
0.0124732
0.0113462
0.0103595
0.00949139
0.00872437
0.00804395
0.00743814
0.00689694
0.00641189
0.00597581
0.00558258
0.00522707
0.0128255
0.0116692
0.0106566
0.00976561
0.00897803
0.00827902
0.0076563
0.00709964
0.00660044
0.0061514
0.00574632
0.00538002
0.0124732
0.0113463
0.0103596
0.00949147
0.00872437
0.00804387
0.00743799
0.00689674
0.00641166
0.00597556
0.00558233
0.00522684
0.0114233
0.0103849
0.0094763
0.00867765
0.00797277
0.00734836
0.00679329
0.00629825
0.00585532
0.00545769
0.00509949
0.00477586
0.00970026
0.0088136
0.00803747
0.00735594
0.0067556
0.00622502
0.00575459
0.00533636
0.00496325
0.00462862
0.00432712
0.00727634
0.00660575
0.0060228
0.00551484
0.00507019
0.00468001
0.00433791
0.0040365
0.00376535
0.0035208
0.00330008
0.00417548
0.00388676
0.00363297
0.00340977
0.00321306
0.00303951
0.00288623
0.00274991
0.00262692
0.00251554
0.00241401
0.0117417
0.0106759
0.00974341
0.00892323
0.00819888
0.00755679
0.00698565
0.00647602
0.00601991
0.00561041
0.00524157
0.00490836
0.0128265
0.0116705
0.010658
0.00976688
0.00897914
0.00827995
0.00765707
0.00710028
0.00660097
0.00615185
0.00574671
0.00538034
0.0131921
0.0120072
0.0109684
0.0100536
0.00924451
0.0085261
0.00788581
0.00731316
0.00679935
0.00633695
0.00591962
0.00554211
0.0128264
0.0116705
0.010658
0.00976675
0.00897887
0.00827956
0.0076566
0.00709978
0.00660046
0.00615136
0.00574625
0.00537994
0.0117405
0.0106744
0.0097418
0.00892172
0.00819749
0.00755552
0.0069845
0.00647497
0.00601894
0.00560952
0.00524077
0.00490766
0.00995564
0.00904672
0.00825016
0.00754976
0.0069322
0.00638607
0.00590164
0.00547108
0.00508737
0.00474392
0.00443499
0.00747051
0.00678484
0.00618315
0.0056565
0.00519524
0.00478971
0.00443498
0.00412391
0.00384715
0.00359752
0.00337227
0.00432335
0.00400334
0.00372598
0.00348418
0.00327222
0.00308541
0.00292058
0.00277433
0.00264308
0.0025243
0.00241644
)
;

boundaryField
{
    inlet
    {
        type            fixedValue;
        value           nonuniform List<scalar> 0();
    }
    ami1
    {
        type            cyclicAMI;
        value           nonuniform List<scalar> 0();
    }
    walls
    {
        type            kqRWallFunction;
        value           nonuniform List<scalar> 
227
(
0.00391296
0.00417521
0.004323
0.00429703
0.0040901
0.00378586
0.00350469
0.00350666
0.00365947
0.00388687
0.00400363
0.00396058
0.00376698
0.00349565
0.00325003
0.00329847
0.00343689
0.00363329
0.00372648
0.00367404
0.00349188
0.00323556
0.002999
0.00309113
0.00302562
0.0032413
0.00341011
0.00348462
0.0034272
0.00325651
0.00301716
0.00280516
0.00294184
0.00283163
0.0026661
0.00287386
0.00306972
0.00321332
0.00327249
0.00321204
0.00305159
0.00283178
0.0026538
0.00283362
0.00275092
0.00257349
0.0027427
0.00291852
0.00303966
0.00308553
0.0030235
0.00287273
0.002675
0.00253374
0.00275426
0.00267956
0.00248752
0.00262998
0.00278318
0.00288627
0.00292057
0.00285782
0.00271699
0.00254281
0.00243415
0.00268275
0.00261511
0.00241117
0.00253048
0.00266173
0.00274988
0.00277422
0.00271112
0.00258041
0.00243124
0.00234947
0.00261801
0.00255296
0.0023346
0.00244223
0.00255213
0.00262683
0.00264293
0.00257979
0.00246047
0.00233189
0.00226731
0.00255528
0.00249987
0.00226769
0.00236088
0.00245298
0.00251545
0.00252417
0.002462
0.00235428
0.00224387
0.00219707
0.00250122
0.00245233
0.00220845
0.00228613
0.00236297
0.00241424
0.00241654
0.00235621
0.00225981
0.00216523
0.00213599
0.00245371
0.00240935
0.00215743
0.00221788
0.00228075
0.00232186
0.00231859
0.00226086
0.00217435
0.00350666
0.003403
0.0036353
0.00391224
0.00417548
0.00432335
0.00329847
0.00312703
0.00340705
0.00365957
0.00388676
0.00400334
0.00309113
0.00292841
0.00320416
0.00343768
0.00363297
0.00372598
0.00294184
0.00278458
0.00302788
0.00324224
0.00340977
0.00348418
0.00283362
0.00267128
0.00287637
0.00307076
0.00321306
0.00327222
0.00275426
0.00258004
0.00274512
0.00291952
0.00303951
0.00308541
0.00268275
0.00249199
0.00263247
0.00278406
0.00288623
0.00292058
0.00261801
0.00241487
0.00253257
0.00266251
0.00274991
0.00277433
0.00255528
0.00233767
0.00244398
0.00255281
0.00262692
0.00264308
0.00250122
0.00226957
0.00236236
0.00245354
0.00251554
0.0025243
0.00245371
0.00221079
0.00228689
0.00236314
0.00241401
0.00241644
0.00302051
0.0032596
0.00342842
0.00283163
0.00265155
0.00283198
0.00305352
0.00321272
0.00275092
0.00252997
0.0026733
0.00287333
0.00302407
0.00267956
0.00243054
0.00254016
0.00271679
0.00285833
0.00261511
0.00234602
0.002429
0.00257989
0.00271156
0.00255296
0.00226445
0.00233013
0.00245993
0.00258018
0.00249987
0.00219529
0.00224262
0.00235379
0.00246237
0.00245233
0.0021341
0.0021642
0.0022596
0.0023566
0.00240935
0.00208347
0.00209397
0.00217458
0.0022613
)
;
    }
    ami2
    {
        type            cyclicAMI;
        value           nonuniform List<scalar> 
48
(
0.00405199
0.00433908
0.00450781
0.00449911
0.00428343
0.00395486
0.00361887
0.00348143
0.00714929
0.0076605
0.00785571
0.00770434
0.00717429
0.00627323
0.00505304
0.00355413
0.00943563
0.0102099
0.0104771
0.0102198
0.00943577
0.00814912
0.00629559
0.00376995
0.0110446
0.0120201
0.0123517
0.0120257
0.0110462
0.00943824
0.00715048
0.00405153
0.0120255
0.0131191
0.0134876
0.0131192
0.0120204
0.0102103
0.00766091
0.00433927
0.0123529
0.0134881
0.0138697
0.0134881
0.0123523
0.0104774
0.00785628
0.00450806
)
;
    }
    outlet
    {
        type            zeroGradient;
    }
    procBoundary0to1
    {
        type            processor;
        value           nonuniform List<scalar> 
138
(
0.0036744
0.00348434
0.00327236
0.00308554
0.00292071
0.00277446
0.00264323
0.00252449
0.00241686
0.00231888
0.00603
0.00565758
0.00519619
0.00479068
0.00443597
0.00412488
0.00384807
0.00359838
0.00337309
0.00316968
0.00970808
0.00881513
0.00803193
0.00803193
0.00755106
0.00693313
0.00638685
0.00590237
0.0054718
0.0050881
0.00474464
0.00443564
0.00415662
0.00995618
0.00904819
0.00825222
0.00755106
0.00693313
0.00638685
0.00590237
0.0054718
0.0050881
0.00474464
0.00443564
0.00415662
0.0114249
0.0103862
0.0094772
0.00867816
0.00797303
0.00734848
0.00679337
0.00629833
0.00585543
0.00545784
0.00509965
0.00477596
0.0124741
0.0113475
0.010361
0.00949285
0.00872565
0.008045
0.00743898
0.00689759
0.00641239
0.0059762
0.00558289
0.00522731
0.0128262
0.0116705
0.0106583
0.0097673
0.00897957
0.00828033
0.00765737
0.0071005
0.00660111
0.00615193
0.00574675
0.00538035
0.0124741
0.0113477
0.0103609
0.00949258
0.0087252
0.00804444
0.00743837
0.00689698
0.00641181
0.00597565
0.00558239
0.00522686
0.0114309
0.010392
0.00948115
0.00868013
0.00797342
0.00734787
0.00679232
0.00629729
0.00585471
0.00545761
0.0051001
0.00477699
0.00971256
0.00882006
0.00803717
0.00735021
0.00674637
0.00621423
0.00574395
0.00532704
0.00495605
0.00462414
0.00432586
0.00732972
0.00663556
0.00603506
0.0055153
0.00506389
0.00467185
0.0043303
0.00403085
0.00376294
0.00352206
0.00330581
0.00429676
0.00396031
0.00367413
0.00342769
0.00321288
0.00302453
0.00285889
0.00271212
0.0025807
0.00246277
0.00235676
)
;
    }
    procBoundary0to2
    {
        type            processor;
        value           nonuniform List<scalar> 
28
(
0.00294295
0.00278404
0.00278404
0.00363553
0.00340712
0.00320329
0.00320329
0.00280662
0.00280662
0.00343329
0.00343329
0.00343329
0.00594982
0.00534903
0.00486493
0.00486493
0.00323508
0.00481646
0.0077215
0.00697442
0.00633468
0.00633468
0.00349062
0.00556193
0.00895955
0.00812004
0.00738615
0.00738615
)
;
    }
    procBoundary0to8
    {
        type            processor;
        value           nonuniform List<scalar> 
29
(
0.00236474
0.00210636
0.00215668
0.00220489
0.00223667
0.00203491
0.00192839
0.00243363
0.0027464
0.00292058
0.002031
0.00239267
0.00305569
0.00352884
0.0038073
0.00209713
0.00274608
0.00352748
0.00411946
0.00448253
0.00217486
0.00293254
0.00381246
0.004485
0.00490494
0.00504825
0.00460645
0.00504836
0.00520009
)
;
    }
    procBoundary0to9
    {
        type            processor;
        value           nonuniform List<scalar> 
40
(
0.00222886
0.00217434
0.0020968
0.00209389
0.00209389
0.00208347
0.00240928
0.00298481
0.00293111
0.00274495
0.00254074
0.00254074
0.00204248
0.00215703
0.00390334
0.00381168
0.00352724
0.0032504
0.0032504
0.00258397
0.00221791
0.0046062
0.00448461
0.00411954
0.00375683
0.00375683
0.00291388
0.00227969
0.00490479
0.00448249
0.00405485
0.00405485
0.00310125
0.00232061
0.00504814
0.00460593
0.00415611
0.00415611
0.00316883
0.00231784
)
;
    }
}


// ************************************************************************* //
