/*--------------------------------*- C++ -*----------------------------------*\
| =========                 |                                                 |
| \\      /  F ield         | OpenFOAM: The Open Source CFD Toolbox           |
|  \\    /   O peration     | Version:  2212                                  |
|   \\  /    A nd           | Website:  www.openfoam.com                      |
|    \\/     M anipulation  |                                                 |
\*---------------------------------------------------------------------------*/
FoamFile
{
    version     2.0;
    format      ascii;
    arch        "LSB;label=32;scalar=64";
    class       volScalarField;
    location    "1.5";
    object      p;
}
// * * * * * * * * * * * * * * * * * * * * * * * * * * * * * * * * * * * * * //

dimensions      [0 2 -2 0 0 0 0];

internalField   nonuniform List<scalar> 
689
(
0.00438555
0.00424266
0.00410171
0.00396444
0.00382748
0.00368988
0.00355313
0.00341873
0.00440432
0.00425799
0.00411387
0.0039732
0.00383274
0.0036922
0.00355299
0.00341643
0.00453263
0.00439057
0.00424674
0.00410245
0.0039597
0.00381831
0.0036783
0.00353972
0.00340328
0.00503134
0.00486194
0.00469713
0.00454246
0.00439538
0.00425145
0.00410873
0.0039673
0.00382715
0.00368805
0.00355029
0.00341408
0.00505019
0.00487923
0.00470959
0.00454888
0.004396
0.00424782
0.00410298
0.00396167
0.0038231
0.00368579
0.00354931
0.00341403
0.0050813
0.00490625
0.00472349
0.00455571
0.00439991
0.00424986
0.00410384
0.00396212
0.00382368
0.00368668
0.00355037
0.00341511
0.00512029
0.00493555
0.00473666
0.00456123
0.00440229
0.0042507
0.00410373
0.00396139
0.00382228
0.00368459
0.0035481
0.00341306
0.00514928
0.00495195
0.00474002
0.0045561
0.00439332
0.00424128
0.00409555
0.00395385
0.0038149
0.00367786
0.00354251
0.00340878
0.00518839
0.00494816
0.00470565
0.00451957
0.00436239
0.00421488
0.00407295
0.00393545
0.00380058
0.00366689
0.00353421
0.00525855
0.00492949
0.00464992
0.00449107
0.00436036
0.00422328
0.00408621
0.00395248
0.00381909
0.00368458
0.00355067
0.00527108
0.00490098
0.00464632
0.00451257
0.00438468
0.00424383
0.00410308
0.00396539
0.00382821
0.0036903
0.0035535
0.00436142
0.00422227
0.00408486
0.00395149
0.00381833
0.0036841
0.00355022
0.00341816
0.0043958
0.00425266
0.00411226
0.00397433
0.00383719
0.0037008
0.00356511
0.00343104
0.00453208
0.00438268
0.00423874
0.00409694
0.00395655
0.00381828
0.00368197
0.0035468
0.00341214
0.00500153
0.0048418
0.00469149
0.00453975
0.00439117
0.00424643
0.00410419
0.00396424
0.00382621
0.00368941
0.00355378
0.00341892
0.00500455
0.00484555
0.00470027
0.0045517
0.0044035
0.00425766
0.00411377
0.00397195
0.00383223
0.00369435
0.00355796
0.00342292
0.00501963
0.00486389
0.0047187
0.00456995
0.00442102
0.00427398
0.00412894
0.00398557
0.00384382
0.00370408
0.00356631
0.00343023
0.00504401
0.00489625
0.00474715
0.00459274
0.00443915
0.00428819
0.00413978
0.00399371
0.00384991
0.00370846
0.00356914
0.00343156
0.00506513
0.00492455
0.00476616
0.00460127
0.00444046
0.00428466
0.0041328
0.00398489
0.00384068
0.00369947
0.00356024
0.00342277
0.00506467
0.00491199
0.00473641
0.00456738
0.00440925
0.00425649
0.00410815
0.00396335
0.00382182
0.00368367
0.00354754
0.00514577
0.00492207
0.00470514
0.0045408
0.00439578
0.00425346
0.00411323
0.00397517
0.00383783
0.00370128
0.00356535
0.00519859
0.00491257
0.00468356
0.00453981
0.00440353
0.00425927
0.00411538
0.00397422
0.0038334
0.00369253
0.00355319
0.00452076
0.00436241
0.00421395
0.00407193
0.00393469
0.00380003
0.00366652
0.00353383
0.00340231
0.00456688
0.00440843
0.00425618
0.00410793
0.00396303
0.0038215
0.00368337
0.00354738
0.00341272
0.00453297
0.0043746
0.00422173
0.00407335
0.00392856
0.00378726
0.00364898
0.00351307
0.00337818
0.00493551
0.0047888
0.00465365
0.00450762
0.0043588
0.00421192
0.00406723
0.00392501
0.00378525
0.00364764
0.00351187
0.0033775
0.00493243
0.00477879
0.00464505
0.00450243
0.00435606
0.00421135
0.00406842
0.00392655
0.00378621
0.00364805
0.00351191
0.00337741
0.00494028
0.00478693
0.00465343
0.00451092
0.00436467
0.00422014
0.00407744
0.00393538
0.00379418
0.0036548
0.00351753
0.00338208
0.00495561
0.00480783
0.00467288
0.00452738
0.00437869
0.00423177
0.00408661
0.00394235
0.00379944
0.00365885
0.00352053
0.00338404
0.00497139
0.00483193
0.00469397
0.00454178
0.00438714
0.00423529
0.00408596
0.00393953
0.00379599
0.00365525
0.00351689
0.00338048
0.00497823
0.00483823
0.00469331
0.00453462
0.00437527
0.00422154
0.00407305
0.00392837
0.00378713
0.00364886
0.00351306
0.00503547
0.00486368
0.00469222
0.00453251
0.00438344
0.00423906
0.00409721
0.00395686
0.00381853
0.00368216
0.00354691
0.00506775
0.00487539
0.00468614
0.00453182
0.0043909
0.0042478
0.00410348
0.00396041
0.00381868
0.00367849
0.00353957
0.0045565
0.0043933
0.0042409
0.00409502
0.00395332
0.00381444
0.00367749
0.0035422
0.00340858
0.00460057
0.0044401
0.00428456
0.00413267
0.00398471
0.00384049
0.00369929
0.00356014
0.00342257
0.00454082
0.00438681
0.00423538
0.00408612
0.00393967
0.00379613
0.00365537
0.00351701
0.00338048
0.00491535
0.00476739
0.0046365
0.00449508
0.0043494
0.0042048
0.00406165
0.00391987
0.00377975
0.00364143
0.00350486
0.00336985
0.00489397
0.00474216
0.00461441
0.00447665
0.00433355
0.00419123
0.00405024
0.00391016
0.00377123
0.00363378
0.00349785
0.00336336
0.0048894
0.0047375
0.00461122
0.00447465
0.00433247
0.0041909
0.00405057
0.00391094
0.0037722
0.00363475
0.00349875
0.00336418
0.00489911
0.00474844
0.00462055
0.00448248
0.00433921
0.0041967
0.0040555
0.00391506
0.00377567
0.00363772
0.0035013
0.00336632
0.0049157
0.00476779
0.00463703
0.00449552
0.00434948
0.00420465
0.00406144
0.00391967
0.00377957
0.00364127
0.00350472
0.00336976
0.00493581
0.00478913
0.00465428
0.00450827
0.00435893
0.00421167
0.00406693
0.00392478
0.00378508
0.00364751
0.00351182
0.00500137
0.00484171
0.0046917
0.0045401
0.00439127
0.0042464
0.00410424
0.00396437
0.00382634
0.00368949
0.00355395
0.00503086
0.00486151
0.00469682
0.00454229
0.00439553
0.00425192
0.0041093
0.00396777
0.0038274
0.00368818
0.00355024
0.00456103
0.0044021
0.0042505
0.00410351
0.00396114
0.00382201
0.00368435
0.00354788
0.00341286
0.00459256
0.00443903
0.00428806
0.00413963
0.00399355
0.00384978
0.00370833
0.00356903
0.00343143
0.00452722
0.00437865
0.0042318
0.00408665
0.00394238
0.00379947
0.00365887
0.00352055
0.00338402
0.00489888
0.00474823
0.00462036
0.00448235
0.00433919
0.00419675
0.00405556
0.00391512
0.00377573
0.00363778
0.00350135
0.00336636
0.00487218
0.00472041
0.00459573
0.00446065
0.00431953
0.00417881
0.00403918
0.00390015
0.00376188
0.00362479
0.00348908
0.00335472
0.00486409
0.0047117
0.00458829
0.00445418
0.0043138
0.00417393
0.00403507
0.00389657
0.00375868
0.00362185
0.00348633
0.00335213
0.00487227
0.00472049
0.0045958
0.0044607
0.00431956
0.0041788
0.00403916
0.00390012
0.00376185
0.00362476
0.00348905
0.00335469
0.00489413
0.00474232
0.00461459
0.00447681
0.00433363
0.00419122
0.00405019
0.00391009
0.00377116
0.00363371
0.00349778
0.0033633
0.00493266
0.00477899
0.00464525
0.0045026
0.00435613
0.00421133
0.00406837
0.0039265
0.00378617
0.00364802
0.00351191
0.00500462
0.00484558
0.00470028
0.00455171
0.0044035
0.00425768
0.00411383
0.00397203
0.00383231
0.00369439
0.00355801
0.00505004
0.00487917
0.00470952
0.00454882
0.00439605
0.00424801
0.00410323
0.00396187
0.00382327
0.00368584
0.00354922
0.0048893
0.00473741
0.00461115
0.00447459
0.00433241
0.00419086
0.00405053
0.0039109
0.00377216
0.00363471
0.00349872
0.00336415
0.00486407
0.00471168
0.00458826
0.00445414
0.00431375
0.00417389
0.00403503
0.00389652
0.00375864
0.00362181
0.0034863
0.00335212
0.00485708
0.00470342
0.0045803
0.00444668
0.00430662
0.00416734
0.00402926
0.00389146
0.00375412
0.00361774
0.00348255
0.00334862
0.00486411
0.00471171
0.00458829
0.00445417
0.00431378
0.0041739
0.00403503
0.00389653
0.00375865
0.00362182
0.0034863
0.00335212
0.00488943
0.00473753
0.00461126
0.00447469
0.00433248
0.00419089
0.00405054
0.00391091
0.00377216
0.00363471
0.0034987
0.00336414
0.00494035
0.00478694
0.00465345
0.00451098
0.00436471
0.00422015
0.00407746
0.00393539
0.00379417
0.00365477
0.00351751
0.00501965
0.00486389
0.0047187
0.00456997
0.00442105
0.00427401
0.00412898
0.0039856
0.00384384
0.00370407
0.00356629
0.00508123
0.00490625
0.00472351
0.00455571
0.00439995
0.00424994
0.00410393
0.00396219
0.00382373
0.00368668
0.00355029
)
;

boundaryField
{
    inlet
    {
        type            zeroGradient;
    }
    ami1
    {
        type            cyclicAMI;
        value           nonuniform List<scalar> 0();
    }
    walls
    {
        type            zeroGradient;
    }
    ami2
    {
        type            cyclicAMI;
        value           nonuniform List<scalar> 
48
(
0.0051168
0.00513144
0.005143
0.00516053
0.00518654
0.00520808
0.0052413
0.00524052
0.00510323
0.00510989
0.00511843
0.00512866
0.00513947
0.0051423
0.00520387
0.00520438
0.0050411
0.00504542
0.0050527
0.00505989
0.00506611
0.0050724
0.0051347
0.00513521
0.00502444
0.00501167
0.00500943
0.00501486
0.0050247
0.0050413
0.00510306
0.00511641
0.00501467
0.00499367
0.00498734
0.00499376
0.00501182
0.00504561
0.00510992
0.00513127
0.00500935
0.00498732
0.00498078
0.00498736
0.00500948
0.00505278
0.00511845
0.00514291
)
;
    }
    outlet
    {
        type            fixedValue;
        value           nonuniform List<scalar> 0();
    }
    procBoundary0to1
    {
        type            processor;
        value           nonuniform List<scalar> 
138
(
0.00473652
0.0045555
0.00439972
0.00424971
0.00410369
0.00396197
0.00382355
0.00368655
0.00355023
0.00341495
0.00474702
0.00456988
0.00442094
0.00427388
0.00412884
0.00398547
0.00384372
0.00370397
0.00356619
0.00343009
0.00495537
0.00480763
0.00467267
0.00467267
0.00451091
0.00436467
0.00422014
0.00407745
0.00393538
0.00379416
0.00365476
0.00351747
0.00338202
0.00494006
0.00478672
0.00465332
0.00451091
0.00436467
0.00422014
0.00407745
0.00393538
0.00379416
0.00365476
0.00351747
0.00338202
0.004894
0.00474217
0.00461444
0.00447669
0.00433354
0.00419116
0.00405016
0.00391008
0.00377115
0.00363371
0.00349779
0.0033633
0.00487224
0.00472046
0.00459577
0.00446067
0.00431951
0.00417875
0.0040391
0.00390007
0.00376181
0.00362473
0.00348903
0.00335467
0.0048641
0.00471171
0.0045883
0.00445418
0.00431379
0.00417391
0.00403503
0.00389652
0.00375863
0.00362181
0.00348629
0.0033521
0.00487224
0.00472045
0.00459576
0.00446068
0.00431954
0.00417879
0.00403914
0.00390011
0.00376184
0.00362475
0.00348903
0.00335467
0.00489912
0.00474843
0.00462052
0.00448244
0.00433916
0.00419665
0.00405544
0.00391501
0.00377563
0.00363767
0.00350122
0.00336627
0.00495567
0.00480792
0.00467296
0.00452742
0.00437869
0.00423173
0.00408654
0.00394228
0.00379936
0.00365876
0.00352041
0.00504404
0.00489635
0.00474726
0.00459283
0.00443921
0.0042882
0.00413977
0.00399368
0.00384987
0.00370841
0.00356907
0.00512023
0.00493551
0.00473663
0.0045612
0.00440229
0.00425073
0.00410378
0.00396143
0.0038223
0.0036846
0.0035481
)
;
    }
    procBoundary0to2
    {
        type            processor;
        value           nonuniform List<scalar> 
28
(
0.00451451
0.00454183
0.00454183
0.00506824
0.00487603
0.00468712
0.00468712
0.00449317
0.00449317
0.00454231
0.00454231
0.00454231
0.00503605
0.00486421
0.00469258
0.00469258
0.00470654
0.00473678
0.00497847
0.00483844
0.00469236
0.00469236
0.00474032
0.0047659
0.00497135
0.00483181
0.0046932
0.0046932
)
;
    }
    procBoundary0to8
    {
        type            processor;
        value           nonuniform List<scalar> 
29
(
0.00328544
0.00328109
0.00326754
0.00327919
0.00328009
0.00328708
0.00329697
0.00327859
0.00328574
0.00328935
0.00327106
0.00327898
0.0032456
0.00324481
0.00324442
0.00327589
0.00328699
0.00324603
0.00323647
0.00323027
0.00327917
0.00329551
0.00324931
0.00323283
0.00322171
0.00321927
0.00323099
0.00321927
0.00321595
)
;
    }
    procBoundary0to9
    {
        type            processor;
        value           nonuniform List<scalar> 
40
(
0.0032812
0.00327936
0.00327604
0.00340242
0.00340242
0.0034183
0.00341872
0.00329559
0.00329569
0.00328723
0.00341287
0.00341287
0.00343077
0.00341628
0.00324838
0.00324937
0.00324612
0.0033786
0.0033786
0.00341227
0.00340276
0.003231
0.00323282
0.00323644
0.00337757
0.00337757
0.00341924
0.00341389
0.00322168
0.00323025
0.00337743
0.00337743
0.00342297
0.00341386
0.00321926
0.003231
0.00338206
0.00338206
0.0034302
0.00341499
)
;
    }
}


// ************************************************************************* //
