/*--------------------------------*- C++ -*----------------------------------*\
| =========                 |                                                 |
| \\      /  F ield         | OpenFOAM: The Open Source CFD Toolbox           |
|  \\    /   O peration     | Version:  2212                                  |
|   \\  /    A nd           | Website:  www.openfoam.com                      |
|    \\/     M anipulation  |                                                 |
\*---------------------------------------------------------------------------*/
FoamFile
{
    version     2.0;
    format      ascii;
    arch        "LSB;label=32;scalar=64";
    class       volScalarField;
    location    "0.35";
    object      k;
}
// * * * * * * * * * * * * * * * * * * * * * * * * * * * * * * * * * * * * * //

dimensions      [0 2 -2 0 0 0 0];

internalField   nonuniform List<scalar> 
6840
(
0.213564
0.0559159
0.0283993
0.0193409
0.0146937
0.0118522
0.00989226
0.00852247
0.0075024
0.00671551
0.00609708
0.00560584
0.00521308
0.00489161
0.00463795
0.00443321
0.00426798
0.00414217
0.00406569
0.00403776
0.264759
0.104702
0.0585301
0.0391647
0.0286237
0.0220025
0.0175541
0.014396
0.0120625
0.010304
0.00895066
0.00789681
0.00707227
0.00641844
0.00590853
0.00550602
0.00517773
0.00491916
0.00471075
0.00452335
0.283364
0.126774
0.0717022
0.0473293
0.0338677
0.0256673
0.020474
0.0168218
0.014091
0.0120209
0.0104013
0.00912322
0.00811508
0.00732035
0.00669092
0.0061911
0.00579127
0.00547096
0.0052084
0.00501154
0.292299
0.141633
0.0819303
0.0541664
0.0389244
0.0292936
0.0232872
0.0191068
0.0159811
0.0136035
0.0117581
0.0102941
0.00912836
0.00819768
0.00745335
0.00685714
0.00637894
0.00599425
0.00568466
0.00546981
0.295943
0.148782
0.0871943
0.0576759
0.0415204
0.0310782
0.02466
0.020249
0.0169524
0.0144113
0.0124452
0.0108866
0.00964371
0.00864902
0.0078511
0.00721016
0.00669476
0.00627989
0.00594962
0.00574405
0.295943
0.148782
0.0871943
0.057676
0.0415205
0.0310783
0.0246602
0.0202492
0.0169527
0.0144118
0.0124458
0.0108874
0.00964497
0.00865081
0.00785378
0.0072142
0.00670085
0.00628886
0.00596146
0.00574074
0.292299
0.141633
0.0819303
0.0541665
0.0389245
0.0292938
0.0232875
0.0191072
0.0159818
0.0136044
0.0117594
0.0102959
0.00913112
0.00820202
0.0074598
0.0068668
0.00639379
0.00601788
0.00572055
0.00550351
0.283364
0.126774
0.0717023
0.0473294
0.0338678
0.0256675
0.0204742
0.0168221
0.0140915
0.0120218
0.0104025
0.00912503
0.0081176
0.0073244
0.00669727
0.00620116
0.00580762
0.00549852
0.00525738
0.0050963
0.264759
0.104702
0.0585301
0.0391647
0.0286237
0.0220026
0.0175542
0.0143961
0.0120626
0.0103042
0.00895104
0.00789744
0.00707327
0.00642025
0.00591158
0.00551197
0.00518894
0.00494223
0.00476899
0.00465593
0.213564
0.0559159
0.0283993
0.0193409
0.0146937
0.0118522
0.00989225
0.00852247
0.00750238
0.00671553
0.00609711
0.00560579
0.00521306
0.0048916
0.00463797
0.00443326
0.00426804
0.00414224
0.00406576
0.0040378
0.264759
0.104702
0.0585301
0.0391647
0.0286237
0.0220026
0.0175542
0.0143961
0.0120626
0.0103042
0.00895104
0.00789742
0.00707326
0.00642023
0.00591152
0.00551188
0.0051888
0.00494214
0.00476884
0.00465583
0.311746
0.197541
0.130358
0.0911496
0.066813
0.0508341
0.0398391
0.0319922
0.0262271
0.0218942
0.0185833
0.016022
0.0140249
0.0124618
0.0112366
0.0102816
0.00951447
0.00890028
0.0083927
0.0078571
0.31754
0.217754
0.151086
0.108552
0.0807245
0.0618926
0.0487173
0.0392146
0.0321819
0.0268664
0.0227825
0.0196059
0.0171139
0.0151494
0.0135958
0.0123663
0.0113879
0.0106033
0.00996409
0.00936644
0.319723
0.227073
0.162233
0.118776
0.0893696
0.0690122
0.0545694
0.0440551
0.0362193
0.030265
0.0256681
0.0220755
0.019243
0.0169963
0.0152077
0.0137804
0.0126385
0.0117199
0.0109682
0.0102709
0.320484
0.23086
0.167176
0.123534
0.0935242
0.0725014
0.0574785
0.04649
0.0382703
0.0320034
0.0271518
0.0233508
0.0203466
0.0179578
0.0160508
0.0145246
0.0133004
0.0123144
0.0115117
0.0108282
0.320484
0.23086
0.167176
0.123534
0.0935243
0.0725016
0.0574787
0.0464904
0.0382709
0.0320041
0.0271528
0.0233522
0.0203486
0.0179605
0.0160546
0.0145302
0.0133086
0.012327
0.0115333
0.0108828
0.319723
0.227073
0.162233
0.118776
0.0893699
0.0690126
0.0545699
0.0440558
0.0362204
0.0302664
0.0256701
0.0220784
0.019247
0.0170023
0.0152164
0.0137931
0.0126576
0.0117501
0.0110219
0.0104195
0.31754
0.217754
0.151086
0.108552
0.0807247
0.0618929
0.0487177
0.0392152
0.0321827
0.0268675
0.022784
0.0196081
0.017117
0.0151541
0.0136029
0.012377
0.0114044
0.0106305
0.0100081
0.00944094
0.311746
0.197541
0.130358
0.0911496
0.066813
0.0508341
0.0398391
0.0319922
0.0262271
0.0218942
0.0185833
0.016022
0.0140249
0.0124619
0.0112367
0.0102817
0.00951463
0.00890046
0.00839288
0.00785732
0.264759
0.104702
0.0585301
0.0391647
0.0286237
0.0220025
0.0175541
0.014396
0.0120625
0.010304
0.00895065
0.00789683
0.00707227
0.00641842
0.00590853
0.00550603
0.0051778
0.00491918
0.00471085
0.00452339
0.283364
0.126774
0.0717023
0.0473294
0.0338678
0.0256675
0.0204742
0.0168221
0.0140915
0.0120218
0.0104025
0.00912502
0.00811758
0.00732431
0.00669711
0.00620097
0.00580743
0.00549833
0.00525719
0.00509607
0.31754
0.217754
0.151086
0.108552
0.0807247
0.0618929
0.0487177
0.0392152
0.0321827
0.0268675
0.022784
0.0196081
0.017117
0.015154
0.0136027
0.0123768
0.0114041
0.0106302
0.0100078
0.00944062
0.322005
0.239026
0.177589
0.133619
0.102331
0.0798859
0.0635485
0.0514521
0.0423418
0.0353734
0.0299724
0.0257419
0.0224019
0.0197507
0.0176397
0.0159562
0.0146109
0.0135304
0.0126522
0.0118963
0.323293
0.245618
0.1875
0.14454
0.112872
0.0894223
0.0718999
0.0586537
0.048515
0.0406614
0.0345124
0.0296556
0.0257935
0.0227079
0.0202354
0.0182505
0.0166538
0.015363
0.0143028
0.0133797
0.323714
0.247819
0.1911
0.148813
0.117258
0.0935891
0.0756935
0.0620267
0.0514761
0.043245
0.036762
0.0316153
0.0275046
0.0242072
0.021555
0.0194182
0.0176937
0.0162956
0.0151445
0.0141426
0.323714
0.247819
0.1911
0.148814
0.117258
0.0935892
0.0756937
0.0620269
0.0514764
0.0432454
0.0367626
0.0316161
0.0275057
0.0242088
0.021557
0.019421
0.0176979
0.0163027
0.0151602
0.01419
0.323293
0.245618
0.1875
0.14454
0.112872
0.0894225
0.0719001
0.0586541
0.0485156
0.0406621
0.0345134
0.029657
0.0257954
0.0227104
0.0202387
0.0182553
0.0166611
0.0153752
0.0143273
0.0134446
0.322005
0.239026
0.177589
0.133619
0.102331
0.0798859
0.0635485
0.0514521
0.0423419
0.0353734
0.0299724
0.0257419
0.0224019
0.0197507
0.0176396
0.0159562
0.0146109
0.0135305
0.0126523
0.0118964
0.31754
0.217754
0.151086
0.108552
0.0807245
0.0618926
0.0487173
0.0392146
0.0321819
0.0268664
0.0227825
0.019606
0.0171139
0.0151493
0.0135957
0.0123663
0.0113879
0.0106034
0.00996423
0.00936656
0.283364
0.126774
0.0717022
0.0473293
0.0338677
0.0256673
0.020474
0.0168217
0.014091
0.0120209
0.0104013
0.00912321
0.00811507
0.00732032
0.00669089
0.00619109
0.00579129
0.005471
0.00520846
0.00501156
0.292299
0.141633
0.0819303
0.0541665
0.0389245
0.0292938
0.0232875
0.0191072
0.0159817
0.0136044
0.0117593
0.0102959
0.00913108
0.00820174
0.00745947
0.0068665
0.00639353
0.00601765
0.00572035
0.00550328
0.319723
0.227073
0.162233
0.118776
0.0893699
0.0690125
0.0545699
0.0440558
0.0362204
0.0302664
0.0256701
0.0220784
0.0192471
0.0170022
0.0152161
0.0137928
0.0126574
0.0117499
0.0110217
0.0104193
0.323293
0.245618
0.1875
0.14454
0.112872
0.0894225
0.0719001
0.0586541
0.0485155
0.0406621
0.0345134
0.0296569
0.0257953
0.0227104
0.0202389
0.0182555
0.0166612
0.0153752
0.0143273
0.0134448
0.324288
0.250863
0.196131
0.154891
0.123599
0.0996982
0.0813099
0.0670491
0.0558968
0.0471042
0.0401208
0.0345396
0.0300577
0.026447
0.023532
0.021176
0.0192697
0.0177215
0.0164495
0.01537
0.32459
0.252403
0.198911
0.158547
0.127698
0.103889
0.0853557
0.0708147
0.0593207
0.0501724
0.0428462
0.0369496
0.0321857
0.0283271
0.0251971
0.0226564
0.0205922
0.0189083
0.0175163
0.0163176
0.32459
0.252403
0.198911
0.158547
0.127698
0.103889
0.0853558
0.0708148
0.0593208
0.0501725
0.0428464
0.03695
0.0321861
0.0283276
0.0251977
0.0226571
0.0205933
0.0189108
0.0175231
0.0163408
0.324288
0.250863
0.196131
0.154891
0.123599
0.0996982
0.0813099
0.0670491
0.0558968
0.0471043
0.0401209
0.0345398
0.030058
0.026447
0.0235317
0.0211758
0.0192696
0.0177214
0.0164493
0.0153696
0.323293
0.245618
0.1875
0.14454
0.112872
0.0894223
0.0718999
0.0586537
0.0485151
0.0406614
0.0345125
0.0296557
0.0257936
0.0227079
0.0202352
0.0182503
0.0166538
0.0153631
0.0143028
0.0133796
0.319723
0.227073
0.162233
0.118776
0.0893696
0.0690122
0.0545694
0.0440551
0.0362193
0.030265
0.0256681
0.0220755
0.019243
0.0169963
0.0152076
0.0137804
0.0126386
0.0117201
0.0109683
0.010271
0.292299
0.141633
0.0819303
0.0541664
0.0389243
0.0292936
0.0232872
0.0191068
0.0159811
0.0136035
0.0117581
0.0102941
0.00912834
0.00819764
0.00745333
0.00685715
0.00637899
0.00599433
0.00568475
0.00546982
0.295943
0.148782
0.0871943
0.057676
0.0415205
0.0310783
0.0246602
0.0202492
0.0169527
0.0144118
0.0124458
0.0108874
0.00964498
0.0086509
0.00785387
0.00721428
0.00670091
0.00628889
0.00596147
0.00574073
0.320484
0.23086
0.167176
0.123534
0.0935243
0.0725016
0.0574787
0.0464904
0.0382708
0.0320041
0.0271528
0.0233522
0.0203485
0.0179606
0.0160548
0.0145303
0.0133087
0.0123271
0.0115333
0.0108828
0.323714
0.247819
0.1911
0.148814
0.117258
0.0935892
0.0756937
0.0620269
0.0514764
0.0432454
0.0367626
0.0316161
0.0275056
0.0242087
0.021557
0.0194211
0.017698
0.0163028
0.0151604
0.0141903
0.32459
0.252403
0.198911
0.158547
0.127698
0.103889
0.0853558
0.0708148
0.0593208
0.0501725
0.0428464
0.0369498
0.0321859
0.0283274
0.0251977
0.0226572
0.0205935
0.018911
0.0175233
0.0163413
0.324844
0.253685
0.201311
0.16184
0.131544
0.107962
0.0894062
0.0746777
0.0629028
0.0534324
0.0457777
0.0395666
0.0345133
0.0303955
0.0270373
0.0242981
0.0220628
0.0202314
0.0187097
0.0173905
0.324844
0.253685
0.201311
0.16184
0.131544
0.107962
0.0894062
0.0746777
0.0629028
0.0534325
0.0457777
0.0395667
0.0345134
0.0303956
0.0270373
0.0242981
0.0220627
0.0202313
0.0187095
0.0173903
0.32459
0.252403
0.198911
0.158547
0.127698
0.103889
0.0853558
0.0708148
0.0593208
0.0501724
0.0428464
0.0369499
0.032186
0.0283271
0.0251968
0.0226562
0.020592
0.0189082
0.0175162
0.0163174
0.323714
0.247819
0.1911
0.148813
0.117258
0.0935891
0.0756935
0.0620267
0.0514761
0.043245
0.0367621
0.0316155
0.0275047
0.0242071
0.0215547
0.019418
0.0176936
0.0162956
0.0151446
0.0141426
0.320484
0.23086
0.167176
0.123534
0.0935242
0.0725014
0.0574785
0.04649
0.0382704
0.0320034
0.0271519
0.0233508
0.0203466
0.0179577
0.0160507
0.0145246
0.0133005
0.0123146
0.0115119
0.0108284
0.295943
0.148782
0.0871943
0.0576759
0.0415204
0.0310782
0.02466
0.020249
0.0169524
0.0144113
0.0124452
0.0108866
0.0096437
0.00864901
0.0078511
0.0072102
0.00669484
0.00627999
0.00594975
0.00574425
0.295943
0.148782
0.0871943
0.0576759
0.0415204
0.0310782
0.02466
0.020249
0.0169524
0.0144113
0.0124452
0.0108866
0.00964372
0.00864905
0.00785114
0.00721021
0.00669481
0.00627994
0.00594967
0.00574413
0.320484
0.23086
0.167176
0.123534
0.0935242
0.0725014
0.0574785
0.04649
0.0382703
0.0320034
0.0271518
0.0233508
0.0203466
0.0179578
0.0160508
0.0145247
0.0133005
0.0123145
0.0115118
0.0108283
0.323714
0.247819
0.1911
0.148813
0.117258
0.0935891
0.0756935
0.0620267
0.0514761
0.043245
0.036762
0.0316153
0.0275045
0.0242072
0.021555
0.0194182
0.0176938
0.0162957
0.0151446
0.0141427
0.32459
0.252403
0.198911
0.158547
0.127698
0.103889
0.0853558
0.0708147
0.0593207
0.0501724
0.0428462
0.0369496
0.0321856
0.028327
0.0251971
0.0226564
0.0205922
0.0189084
0.0175165
0.0163178
0.324844
0.253685
0.201311
0.16184
0.131544
0.107962
0.0894062
0.0746777
0.0629028
0.0534324
0.0457777
0.0395666
0.0345133
0.0303955
0.0270373
0.0242981
0.0220628
0.0202314
0.0187097
0.0173906
0.324844
0.253685
0.201311
0.16184
0.131544
0.107962
0.0894063
0.0746778
0.0629028
0.0534325
0.0457778
0.0395667
0.0345134
0.0303956
0.0270373
0.024298
0.0220627
0.0202313
0.0187096
0.0173904
0.32459
0.252403
0.198911
0.158547
0.127698
0.103889
0.0853559
0.0708148
0.0593209
0.0501725
0.0428465
0.0369501
0.0321863
0.0283275
0.0251973
0.0226569
0.0205932
0.0189108
0.0175231
0.016341
0.323714
0.247819
0.1911
0.148814
0.117258
0.0935893
0.0756937
0.0620269
0.0514764
0.0432454
0.0367627
0.0316162
0.0275058
0.0242086
0.0215568
0.0194209
0.0176978
0.0163028
0.0151603
0.0141901
0.320484
0.23086
0.167176
0.123534
0.0935243
0.0725016
0.0574787
0.0464904
0.0382709
0.0320042
0.0271529
0.0233522
0.0203486
0.0179605
0.0160546
0.0145302
0.0133087
0.0123272
0.0115334
0.010883
0.295943
0.148782
0.0871943
0.057676
0.0415205
0.0310783
0.0246602
0.0202492
0.0169527
0.0144118
0.0124458
0.0108874
0.00964497
0.00865087
0.00785385
0.00721429
0.00670095
0.00628896
0.00596157
0.00574088
0.292299
0.141633
0.0819303
0.0541664
0.0389244
0.0292936
0.0232872
0.0191068
0.0159811
0.0136035
0.0117581
0.0102941
0.00912837
0.00819769
0.00745336
0.00685717
0.00637897
0.00599428
0.00568468
0.00546973
0.319723
0.227073
0.162233
0.118776
0.0893696
0.0690122
0.0545694
0.0440551
0.0362193
0.030265
0.0256681
0.0220755
0.019243
0.0169964
0.0152077
0.0137804
0.0126386
0.01172
0.0109682
0.0102709
0.323293
0.245618
0.1875
0.14454
0.112872
0.0894223
0.0718999
0.0586537
0.0485151
0.0406614
0.0345124
0.0296556
0.0257935
0.0227079
0.0202354
0.0182505
0.0166538
0.0153631
0.0143028
0.0133796
0.324288
0.250863
0.196131
0.154891
0.123599
0.0996982
0.0813099
0.0670491
0.0558968
0.0471043
0.0401208
0.0345396
0.0300578
0.026447
0.023532
0.021176
0.0192697
0.0177215
0.0164494
0.0153697
0.32459
0.252403
0.198911
0.158547
0.127698
0.103889
0.0853559
0.0708148
0.0593209
0.0501725
0.0428464
0.0369499
0.032186
0.0283275
0.0251977
0.0226572
0.0205934
0.0189108
0.0175232
0.0163409
0.32459
0.252403
0.198911
0.158547
0.127698
0.103889
0.0853558
0.0708147
0.0593208
0.0501724
0.0428463
0.0369498
0.0321858
0.0283272
0.0251971
0.0226563
0.020592
0.0189083
0.0175163
0.0163176
0.324288
0.250863
0.196131
0.154891
0.123599
0.0996983
0.0813099
0.0670491
0.0558968
0.0471043
0.0401209
0.0345398
0.030058
0.026447
0.0235317
0.0211758
0.0192696
0.0177214
0.0164494
0.0153698
0.323293
0.245618
0.1875
0.14454
0.112872
0.0894226
0.0719002
0.0586541
0.0485156
0.0406621
0.0345135
0.029657
0.0257954
0.0227104
0.0202387
0.0182553
0.0166611
0.0153752
0.0143274
0.0134447
0.319723
0.227073
0.162233
0.118776
0.0893699
0.0690126
0.0545699
0.0440559
0.0362204
0.0302665
0.0256702
0.0220785
0.0192471
0.0170022
0.015216
0.0137928
0.0126574
0.01175
0.0110219
0.0104196
0.292299
0.141633
0.0819303
0.0541665
0.0389245
0.0292938
0.0232875
0.0191073
0.0159818
0.0136045
0.0117594
0.0102959
0.00913109
0.00820173
0.00745947
0.00686652
0.00639359
0.00601775
0.00572049
0.00550348
0.283364
0.126774
0.0717022
0.0473293
0.0338677
0.0256673
0.020474
0.0168218
0.014091
0.0120209
0.0104013
0.00912323
0.00811509
0.00732036
0.00669093
0.00619111
0.00579129
0.00547098
0.00520841
0.0050115
0.31754
0.217754
0.151086
0.108552
0.0807245
0.0618926
0.0487173
0.0392146
0.0321819
0.0268664
0.0227825
0.019606
0.0171139
0.0151494
0.0135959
0.0123664
0.0113879
0.0106033
0.00996413
0.00936642
0.322005
0.239026
0.177589
0.133619
0.102331
0.0798859
0.0635485
0.0514521
0.0423419
0.0353734
0.0299724
0.0257419
0.0224019
0.0197508
0.0176398
0.0159563
0.0146109
0.0135304
0.0126522
0.0118963
0.323293
0.245618
0.1875
0.14454
0.112872
0.0894225
0.0719002
0.0586541
0.0485156
0.0406621
0.0345134
0.0296569
0.0257953
0.0227105
0.0202389
0.0182555
0.0166612
0.0153752
0.0143273
0.0134446
0.323714
0.247819
0.1911
0.148814
0.117258
0.0935893
0.0756937
0.0620269
0.0514764
0.0432454
0.0367626
0.0316161
0.0275057
0.0242087
0.0215571
0.019421
0.0176979
0.0163028
0.0151602
0.01419
0.323714
0.247819
0.1911
0.148813
0.117258
0.0935892
0.0756935
0.0620267
0.0514761
0.043245
0.0367621
0.0316154
0.0275047
0.0242073
0.021555
0.0194181
0.0176936
0.0162956
0.0151445
0.0141426
0.323293
0.245618
0.1875
0.14454
0.112872
0.0894224
0.0718999
0.0586537
0.0485151
0.0406614
0.0345125
0.0296557
0.0257936
0.0227079
0.0202352
0.0182504
0.0166538
0.0153631
0.0143028
0.0133797
0.322005
0.239026
0.177589
0.133619
0.102331
0.0798859
0.0635485
0.0514521
0.0423419
0.0353735
0.0299725
0.025742
0.0224019
0.0197507
0.0176396
0.0159562
0.014611
0.0135306
0.0126524
0.0118965
0.31754
0.217754
0.151086
0.108552
0.0807247
0.0618929
0.0487177
0.0392152
0.0321828
0.0268676
0.0227841
0.0196082
0.0171171
0.015154
0.0136027
0.0123768
0.0114042
0.0106304
0.0100081
0.00944103
0.283364
0.126774
0.0717023
0.0473294
0.0338678
0.0256675
0.0204742
0.0168221
0.0140916
0.0120219
0.0104025
0.00912505
0.0081176
0.0073243
0.00669711
0.00620099
0.00580749
0.00549843
0.00525735
0.00509634
0.264759
0.104702
0.0585301
0.0391647
0.0286237
0.0220025
0.0175541
0.014396
0.0120625
0.010304
0.00895066
0.00789682
0.00707228
0.00641845
0.00590853
0.00550603
0.00517775
0.00491917
0.00471075
0.00452334
0.311746
0.197541
0.130358
0.0911496
0.066813
0.0508341
0.0398391
0.0319922
0.0262271
0.0218942
0.0185833
0.016022
0.014025
0.0124618
0.0112366
0.0102817
0.0095145
0.00890033
0.00839275
0.00785715
0.31754
0.217754
0.151086
0.108552
0.0807247
0.0618929
0.0487177
0.0392152
0.0321827
0.0268675
0.022784
0.0196081
0.0171171
0.015154
0.0136027
0.0123768
0.0114041
0.0106303
0.0100079
0.00944079
0.319723
0.227073
0.162233
0.118776
0.0893699
0.0690126
0.0545699
0.0440558
0.0362204
0.0302665
0.0256701
0.0220784
0.0192471
0.0170022
0.0152161
0.0137928
0.0126574
0.0117499
0.0110217
0.0104194
0.320484
0.23086
0.167176
0.123534
0.0935243
0.0725016
0.0574788
0.0464904
0.0382709
0.0320042
0.0271529
0.0233522
0.0203486
0.0179606
0.0160548
0.0145303
0.0133087
0.0123271
0.0115333
0.0108829
0.320484
0.23086
0.167176
0.123534
0.0935242
0.0725014
0.0574785
0.04649
0.0382704
0.0320035
0.0271519
0.0233509
0.0203467
0.0179578
0.0160508
0.0145246
0.0133005
0.0123145
0.0115119
0.0108284
0.319723
0.227073
0.162233
0.118776
0.0893696
0.0690122
0.0545694
0.0440551
0.0362194
0.030265
0.0256682
0.0220756
0.019243
0.0169965
0.015208
0.0137807
0.0126389
0.0117203
0.0109685
0.0102711
0.31754
0.217754
0.151086
0.108552
0.0807245
0.0618927
0.0487173
0.0392146
0.032182
0.0268665
0.0227825
0.019606
0.0171139
0.0151496
0.0135961
0.0123666
0.0113882
0.0106036
0.00996447
0.00936675
0.311746
0.197541
0.130358
0.0911497
0.066813
0.0508341
0.0398391
0.0319923
0.0262272
0.0218943
0.0185834
0.0160221
0.014025
0.0124619
0.0112367
0.0102818
0.00951473
0.00890058
0.00839301
0.00785746
0.264759
0.104702
0.0585301
0.0391647
0.0286237
0.0220026
0.0175542
0.0143961
0.0120626
0.0103043
0.00895107
0.00789747
0.0070733
0.00642025
0.00591156
0.00551193
0.00518891
0.00494222
0.00476901
0.004656
0.213564
0.0559159
0.0283993
0.0193409
0.0146937
0.0118522
0.00989225
0.00852246
0.0075024
0.00671551
0.00609708
0.00560584
0.00521309
0.00489161
0.00463796
0.00443322
0.00426799
0.00414219
0.00406571
0.00403775
0.264759
0.104702
0.0585301
0.0391647
0.0286237
0.0220026
0.0175542
0.0143961
0.0120626
0.0103042
0.00895105
0.00789743
0.00707327
0.00642024
0.00591153
0.00551189
0.00518882
0.00494216
0.00476886
0.00465583
0.283364
0.126774
0.0717023
0.0473294
0.0338678
0.0256675
0.0204742
0.0168221
0.0140915
0.0120218
0.0104025
0.00912503
0.0081176
0.00732432
0.00669712
0.00620098
0.00580744
0.00549836
0.00525724
0.00509619
0.292299
0.141633
0.0819303
0.0541665
0.0389245
0.0292938
0.0232875
0.0191072
0.0159818
0.0136044
0.0117594
0.0102959
0.0091311
0.00820176
0.00745948
0.00686651
0.00639354
0.00601768
0.0057204
0.00550339
0.295943
0.148782
0.0871943
0.057676
0.0415205
0.0310783
0.0246602
0.0202492
0.0169527
0.0144118
0.0124459
0.0108874
0.009645
0.0086509
0.00785386
0.00721427
0.00670091
0.0062889
0.00596151
0.00574082
0.295943
0.148782
0.0871943
0.0576759
0.0415204
0.0310782
0.0246601
0.020249
0.0169524
0.0144114
0.0124453
0.0108866
0.00964374
0.00864899
0.00785107
0.00721016
0.0066948
0.00627997
0.00594973
0.00574423
0.292299
0.141633
0.0819303
0.0541664
0.0389244
0.0292936
0.0232872
0.0191068
0.0159812
0.0136035
0.0117581
0.0102941
0.00912843
0.00819799
0.00745372
0.0068575
0.00637928
0.00599456
0.00568492
0.00546995
0.283364
0.126774
0.0717022
0.0473293
0.0338677
0.0256673
0.020474
0.0168218
0.014091
0.0120209
0.0104013
0.00912325
0.00811513
0.00732048
0.00669112
0.00619134
0.00579153
0.00547122
0.00520863
0.0050117
0.264759
0.104702
0.0585301
0.0391647
0.0286237
0.0220025
0.0175541
0.014396
0.0120625
0.010304
0.00895068
0.00789686
0.0070723
0.00641849
0.00590863
0.00550615
0.00517793
0.0049193
0.00471097
0.00452349
0.213564
0.0559159
0.0283993
0.0193409
0.0146937
0.0118522
0.00989226
0.00852248
0.00750238
0.00671554
0.00609712
0.0056058
0.00521307
0.00489163
0.004638
0.00443328
0.00426807
0.00414228
0.0040658
0.00403786
0.00484178
0.00423664
0.00394044
0.00380842
0.00375158
0.00373246
0.0037241
0.0037199
0.00371813
0.00371765
0.00371801
0.00371896
0.00372028
0.00372182
0.00372349
0.00372523
0.00372697
0.00372867
0.00373028
0.00373176
0.0037331
0.00373426
0.00373525
0.00373603
0.00373664
0.0037371
0.00373746
0.00373775
0.00373798
0.00373813
0.00373821
0.00373823
0.00373822
0.00373843
0.00373754
0.00373811
0.00373824
0.00373834
0.00373843
0.00373853
0.00481074
0.00432249
0.0041256
0.00402874
0.00398466
0.00396448
0.00395443
0.00394883
0.00394665
0.00394582
0.00394621
0.00394743
0.00394919
0.00395141
0.00395396
0.00395673
0.00395958
0.00396241
0.00396512
0.00396764
0.00396991
0.00397187
0.00397346
0.00397468
0.00397565
0.00397646
0.00397714
0.00397768
0.00397803
0.00397821
0.00397833
0.00397844
0.00397853
0.00397833
0.00397712
0.00397813
0.00397861
0.00397881
0.00397899
0.00397922
0.00511903
0.00473826
0.00450145
0.0043662
0.00429094
0.00424599
0.00421878
0.0042019
0.00419166
0.00418516
0.00418233
0.00418129
0.00418154
0.00418282
0.00418488
0.00418744
0.0041903
0.00419328
0.00419622
0.00419901
0.00420155
0.00420374
0.00420549
0.00420679
0.00420787
0.00420882
0.00420964
0.00421029
0.00421068
0.00421086
0.00421103
0.00421123
0.00421146
0.00421175
0.00421245
0.00421228
0.0042121
0.00421209
0.00421224
0.00421249
0.00530175
0.00500217
0.00480417
0.00467195
0.00458297
0.00452314
0.00448315
0.00445674
0.00443922
0.0044285
0.00442186
0.00441845
0.00441716
0.00441755
0.00441915
0.00442158
0.0044245
0.00442767
0.00443088
0.00443397
0.00443681
0.00443924
0.00444109
0.00444244
0.00444363
0.00444471
0.00444566
0.00444641
0.00444681
0.004447
0.00444723
0.00444753
0.00444785
0.00444801
0.00444765
0.00444764
0.00444785
0.00444822
0.00444869
0.00444911
0.00535175
0.00513849
0.00497341
0.00484944
0.00475818
0.00469208
0.004645
0.00461219
0.00458972
0.00457491
0.00456581
0.00456032
0.00455776
0.00455736
0.00455846
0.0045606
0.00456339
0.00456654
0.00456981
0.004573
0.00457595
0.00457844
0.0045802
0.00458137
0.00458251
0.00458363
0.00458467
0.00458549
0.0045859
0.00458611
0.0045864
0.00458679
0.0045872
0.00458749
0.00458751
0.00458762
0.0045877
0.00458794
0.0045883
0.00458868
0.00538451
0.00519233
0.0050382
0.00491891
0.00482815
0.00476016
0.00471037
0.00467481
0.00465014
0.00463358
0.00462283
0.00461624
0.0046126
0.00461143
0.00461199
0.00461374
0.00461627
0.00461925
0.00462243
0.00462558
0.00462852
0.00463102
0.00463284
0.00463426
0.00463573
0.0046371
0.00463833
0.00463929
0.00463977
0.00464001
0.00464034
0.00464077
0.00464121
0.00464149
0.00464142
0.00464136
0.00464147
0.0046417
0.0046421
0.00464253
0.00552708
0.00523266
0.00503084
0.00488917
0.00478903
0.00471853
0.0046692
0.0046351
0.00461203
0.00459668
0.00458675
0.0045807
0.00457749
0.00457663
0.00457735
0.00457918
0.00458174
0.00458471
0.00458786
0.00459096
0.00459385
0.00459634
0.00459821
0.00459968
0.00460115
0.00460251
0.00460371
0.00460463
0.00460508
0.00460528
0.0046056
0.00460602
0.00460643
0.00460666
0.00460649
0.00460623
0.0046062
0.00460642
0.00460686
0.00460733
0.00540313
0.00504793
0.00482716
0.00468883
0.00460091
0.00454359
0.00450595
0.00448102
0.00446478
0.00445399
0.00444717
0.00444306
0.00444177
0.00444209
0.00444357
0.00444587
0.00444868
0.00445175
0.00445487
0.00445789
0.00446067
0.00446309
0.00446499
0.00446647
0.00446782
0.00446904
0.0044701
0.00447092
0.00447137
0.00447157
0.00447181
0.00447213
0.00447244
0.0044726
0.00447242
0.00447181
0.00447153
0.00447173
0.00447225
0.00447283
0.00491125
0.00460872
0.00442899
0.00433528
0.00428555
0.00425779
0.00424048
0.00422953
0.00422227
0.00421725
0.00421563
0.00421576
0.00421635
0.0042176
0.00421955
0.00422203
0.00422484
0.0042278
0.00423074
0.00423353
0.00423609
0.00423832
0.00424012
0.00424151
0.00424268
0.00424372
0.00424462
0.00424533
0.00424576
0.00424595
0.00424611
0.00424631
0.0042465
0.00424653
0.00424615
0.00424465
0.00424432
0.0042449
0.00424566
0.00424639
0.00425085
0.00401838
0.0039449
0.00392932
0.00393265
0.00393832
0.00394262
0.00394495
0.00394659
0.00394806
0.00394974
0.00395188
0.00395419
0.00395664
0.00395924
0.00396198
0.00396478
0.00396755
0.0039702
0.00397268
0.00397491
0.00397685
0.00397845
0.00397967
0.00398066
0.0039815
0.00398221
0.00398278
0.00398316
0.00398334
0.00398345
0.00398356
0.00398366
0.00398364
0.0039833
0.00398206
0.00398169
0.00398209
0.0039827
0.00398338
0.00484177
0.00423642
0.00393998
0.00380722
0.00375024
0.00373175
0.00372384
0.00372007
0.0037184
0.0037179
0.0037182
0.00371919
0.00372047
0.00372197
0.00372358
0.00372525
0.00372695
0.00372862
0.0037302
0.00373166
0.00373298
0.00373414
0.00373513
0.00373593
0.00373655
0.00373703
0.00373742
0.00373773
0.00373797
0.00373813
0.00373821
0.00373823
0.00373824
0.00373818
0.00373828
0.00373768
0.00373745
0.00373754
0.00373779
0.00373811
0.00425087
0.00401892
0.00394571
0.00393163
0.00393402
0.00393888
0.0039426
0.00394469
0.00394628
0.00394779
0.00394959
0.00395163
0.00395387
0.00395635
0.00395904
0.00396185
0.00396471
0.00396753
0.00397022
0.00397272
0.00397497
0.00397692
0.00397851
0.00397973
0.00398071
0.00398152
0.00398222
0.00398277
0.00398315
0.00398333
0.00398344
0.00398353
0.00398356
0.00398327
0.00398165
0.00398243
0.00398285
0.00398319
0.00398354
0.00398392
0.00559459
0.00570127
0.00581274
0.00590304
0.00595748
0.00598757
0.00600397
0.00601317
0.00601914
0.00602377
0.00602825
0.00603265
0.00603724
0.00604244
0.00604826
0.00605452
0.00606098
0.00606739
0.00607354
0.00607925
0.00608438
0.00608876
0.00609216
0.00609461
0.00609663
0.00609847
0.00610014
0.00610146
0.00610221
0.00610241
0.00610263
0.00610293
0.00610321
0.00610295
0.00610032
0.0061014
0.00610209
0.00610287
0.00610376
0.00610477
0.00745026
0.00725193
0.00714524
0.00708793
0.0070554
0.00703104
0.00701802
0.00700883
0.00700173
0.00699826
0.00699691
0.00699738
0.00699952
0.00700334
0.00700849
0.00701466
0.00702145
0.00702844
0.00703533
0.00704185
0.00704777
0.0070528
0.00705665
0.00705947
0.00706196
0.00706429
0.00706639
0.00706802
0.0070689
0.00706923
0.00706965
0.00707017
0.00707082
0.00707139
0.00707222
0.00707188
0.00707164
0.00707198
0.00707264
0.00707349
0.00885973
0.00848185
0.00821469
0.0080295
0.00790135
0.00781265
0.00775198
0.00771065
0.00768241
0.00766447
0.00765279
0.00764763
0.00764529
0.00764606
0.00764927
0.00765432
0.00766056
0.00766745
0.00767447
0.00768125
0.00768748
0.00769278
0.00769667
0.00769962
0.00770241
0.00770508
0.0077075
0.00770938
0.00771033
0.00771084
0.00771147
0.00771229
0.00771315
0.00771366
0.00771353
0.00771361
0.00771387
0.00771456
0.00771554
0.00771658
0.00971727
0.00925694
0.00891454
0.00866105
0.00847472
0.00833901
0.00824131
0.00817213
0.00812409
0.00809148
0.00807036
0.0080567
0.00805085
0.00804852
0.00804938
0.00805285
0.0080581
0.00806443
0.0080712
0.00807791
0.00808416
0.00808949
0.00809338
0.00809632
0.0080992
0.00810208
0.00810477
0.00810686
0.00810797
0.00810867
0.00810946
0.00811043
0.00811143
0.00811214
0.00811238
0.00811259
0.0081128
0.00811342
0.0081143
0.00811525
0.00997443
0.00955284
0.00921346
0.00894685
0.00874163
0.00858659
0.00847163
0.00838813
0.00832892
0.00828794
0.00826009
0.0082425
0.00823146
0.00822753
0.00822694
0.00822912
0.00823346
0.00823919
0.00824564
0.00825218
0.00825836
0.00826369
0.00826773
0.00827108
0.00827429
0.0082775
0.00828043
0.00828266
0.0082839
0.00828472
0.00828558
0.0082866
0.00828764
0.00828832
0.00828837
0.00828844
0.0082888
0.00828947
0.00829042
0.00829137
0.00984219
0.00944699
0.00912108
0.00886169
0.00866102
0.00850941
0.00839723
0.00831592
0.00825834
0.0082184
0.00819118
0.00817393
0.00816315
0.00815936
0.00815881
0.00816101
0.00816533
0.00817102
0.0081774
0.00818387
0.00818999
0.00819532
0.0081994
0.00820278
0.00820601
0.00820915
0.00821195
0.0082141
0.00821524
0.00821597
0.0082168
0.0082178
0.00821879
0.00821939
0.00821945
0.00821955
0.00821967
0.00822027
0.00822112
0.00822204
0.00934296
0.00893521
0.00861537
0.00837764
0.00820563
0.00808264
0.00799532
0.00793368
0.00789063
0.00786145
0.00784218
0.00782902
0.00782367
0.00782198
0.0078232
0.0078268
0.00783202
0.00783822
0.0078448
0.00785129
0.00785735
0.0078626
0.00786669
0.00786999
0.00787307
0.00787594
0.00787847
0.00788042
0.00788144
0.00788201
0.00788269
0.00788352
0.00788442
0.0078849
0.00788483
0.00788502
0.007885
0.00788507
0.00788574
0.00788671
0.00822846
0.00781969
0.00757572
0.00743258
0.00734579
0.00728793
0.00724808
0.00722037
0.00720184
0.00718892
0.00718264
0.00717961
0.00717884
0.00718052
0.00718417
0.0071893
0.00719539
0.00720196
0.00720857
0.00721491
0.00722072
0.00722574
0.00722969
0.00723271
0.00723538
0.00723786
0.00724005
0.00724175
0.00724269
0.00724305
0.00724349
0.00724405
0.00724473
0.00724494
0.00724446
0.0072428
0.00724244
0.0072431
0.0072444
0.00724592
0.00559405
0.00569965
0.005811
0.00589853
0.00595547
0.00598721
0.0060047
0.00601423
0.00602009
0.00602446
0.00602841
0.00603302
0.0060377
0.00604282
0.00604852
0.00605468
0.00606106
0.00606739
0.00607347
0.00607913
0.00608421
0.00608855
0.00609197
0.00609444
0.00609654
0.00609846
0.00610017
0.00610153
0.0061023
0.00610246
0.00610268
0.00610301
0.00610346
0.00610349
0.00610277
0.00609979
0.00609945
0.00610047
0.00610211
0.00610394
0.00481066
0.00432196
0.00412431
0.00402724
0.00398328
0.00396411
0.00395395
0.00394956
0.00394711
0.00394618
0.00394642
0.00394758
0.00394935
0.00395153
0.00395402
0.00395672
0.00395951