/*--------------------------------*- C++ -*----------------------------------*\
| =========                 |                                                 |
| \\      /  F ield         | OpenFOAM: The Open Source CFD Toolbox           |
|  \\    /   O peration     | Version:  2212                                  |
|   \\  /    A nd           | Website:  www.openfoam.com                      |
|    \\/     M anipulation  |                                                 |
\*---------------------------------------------------------------------------*/
FoamFile
{
    version     2.0;
    format      ascii;
    arch        "LSB;label=32;scalar=64";
    class       volScalarField;
    location    "0.35";
    object      nut;
}
// * * * * * * * * * * * * * * * * * * * * * * * * * * * * * * * * * * * * * //

dimensions      [0 2 -1 0 0 0 0];

internalField   nonuniform List<scalar> 
6840
(
4.5356e-05
2.3208e-05
1.65396e-05
1.3649e-05
1.18963e-05
1.06853e-05
9.75752e-06
9.05421e-06
8.48907e-06
8.01861e-06
7.62156e-06
7.28291e-06
6.99288e-06
6.72035e-06
6.49715e-06
6.31604e-06
6.15798e-06
6.03464e-06
5.96033e-06
5.91666e-06
0.000107685
6.77183e-05
5.06306e-05
4.14146e-05
3.54012e-05
3.1028e-05
2.76967e-05
2.50514e-05
2.28797e-05
2.10718e-05
1.95432e-05
1.82347e-05
1.71212e-05
1.61481e-05
1.53215e-05
1.46641e-05
1.40745e-05
1.35997e-05
1.32148e-05
1.29271e-05
0.000160509
0.00010736
8.07404e-05
6.5596e-05
5.54875e-05
4.8295e-05
4.3113e-05
3.90476e-05
3.56731e-05
3.28486e-05
3.04439e-05
2.83486e-05
2.65444e-05
2.50084e-05
2.36858e-05
2.25621e-05
2.16035e-05
2.0797e-05
2.01375e-05
1.96133e-05
0.000198681
0.0001383
0.000105187
8.55252e-05
7.24989e-05
6.2881e-05
5.60384e-05
5.07164e-05
4.63144e-05
4.2589e-05
3.94637e-05
3.67477e-05
3.43837e-05
3.23269e-05
3.05433e-05
2.90028e-05
2.76786e-05
2.65469e-05
2.55889e-05
2.4838e-05
0.000218609
0.000155003
0.00011866
9.65051e-05
8.18803e-05
7.08262e-05
6.30615e-05
5.70981e-05
5.21682e-05
4.794e-05
4.44122e-05
4.13516e-05
3.86846e-05
3.63589e-05
3.4335e-05
3.25816e-05
3.10713e-05
2.97799e-05
2.86923e-05
2.79245e-05
0.000218609
0.000155003
0.000118661
9.65052e-05
8.18803e-05
7.08263e-05
6.30617e-05
5.70984e-05
5.21687e-05
4.79409e-05
4.44135e-05
4.13536e-05
3.86877e-05
3.63638e-05
3.43427e-05
3.25934e-05
3.10896e-05
2.98074e-05
2.87326e-05
2.79575e-05
0.000198681
0.0001383
0.000105187
8.55252e-05
7.24991e-05
6.28813e-05
5.60389e-05
5.07171e-05
4.63155e-05
4.25907e-05
3.94664e-05
3.67518e-05
3.439e-05
3.23367e-05
3.0559e-05
2.9028e-05
2.77192e-05
2.66145e-05
2.57008e-05
2.50529e-05
0.000160509
0.00010736
8.07404e-05
6.55961e-05
5.54876e-05
4.82952e-05
4.31133e-05
3.90481e-05
3.56738e-05
3.28503e-05
3.04463e-05
2.83526e-05
2.65488e-05
2.50163e-05
2.3699e-05
2.25842e-05
2.1641e-05
2.08605e-05
2.0245e-05
1.98029e-05
0.000107685
6.77183e-05
5.06307e-05
4.14147e-05
3.54013e-05
3.1028e-05
2.76967e-05
2.50515e-05
2.28798e-05
2.10722e-05
1.95437e-05
1.82356e-05
1.71227e-05
1.61511e-05
1.53261e-05
1.46755e-05
1.41033e-05
1.36327e-05
1.33186e-05
1.3095e-05
4.5356e-05
2.3208e-05
1.65396e-05
1.3649e-05
1.18963e-05
1.06853e-05
9.75751e-06
9.05422e-06
8.48905e-06
8.01857e-06
7.62166e-06
7.28297e-06
6.99277e-06
6.72019e-06
6.49701e-06
6.31596e-06
6.158e-06
6.03474e-06
5.96041e-06
5.91676e-06
0.000107685
6.77183e-05
5.06307e-05
4.14147e-05
3.54013e-05
3.1028e-05
2.76967e-05
2.50515e-05
2.28798e-05
2.10721e-05
1.95437e-05
1.82357e-05
1.71227e-05
1.61511e-05
1.53262e-05
1.46755e-05
1.41033e-05
1.36331e-05
1.33182e-05
1.30946e-05
0.000528907
0.000369984
0.0003051
0.000261384
0.000228567
0.000202567
0.000181307
0.000163443
0.000148193
0.00013505
0.000123696
0.00011389
0.000105466
9.81778e-05
9.19162e-05
8.76821e-05
8.25975e-05
7.79667e-05
7.43014e-05
6.73484e-05
0.000663952
0.000488459
0.000404622
0.000347262
0.000305077
0.000272228
0.000245534
0.000223313
0.000204519
0.000188438
0.000174646
0.000162803
0.00015267
0.000144227
0.000137268
0.000131684
0.000126725
0.000122222
0.000118968
0.000111117
0.00071288
0.000556432
0.000466401
0.000402371
0.000354473
0.000317163
0.000286913
0.000261721
0.000240424
0.000222246
0.000206675
0.000193338
0.00018195
0.000172279
0.000164128
0.000157315
0.000151615
0.000146874
0.000142682
0.000135978
0.000728543
0.000588232
0.000496006
0.000429148
0.000378558
0.00033905
0.000307061
0.000280445
0.000257927
0.000238684
0.000222195
0.00020807
0.000196014
0.00018578
0.000177155
0.00016994
0.000163914
0.000158835
0.000154374
0.000149223
0.000728543
0.000588232
0.000496006
0.000429148
0.000378558
0.00033905
0.000307063
0.000280447
0.00025793
0.000238689
0.000222203
0.000208082
0.000196033
0.000185801
0.000177201
0.000170025
0.000164063
0.000159102
0.000154924
0.000151245
0.00071288
0.000556432
0.000466401
0.000402371
0.000354474
0.000317164
0.000286916
0.000261725
0.00024043
0.000222256
0.000206691
0.000193364
0.000181992
0.000172386
0.000164267
0.000157528
0.000151978
0.000147551
0.00014406
0.000140619
0.000663952
0.000488459
0.000404622
0.000347262
0.000305078
0.00027223
0.000245536
0.000223317
0.000204525
0.000188446
0.000174659
0.000162823
0.000152702
0.000144286
0.00013737
0.000131859
0.000127034
0.000122788
0.000119718
0.000111163
0.000528907
0.000369984
0.0003051
0.000261384
0.000228567
0.000202567
0.000181307
0.000163443
0.000148193
0.00013505
0.000123696
0.00011389
0.000105465
9.8177e-05
9.19163e-05
8.76834e-05
8.25997e-05
7.79704e-05
7.43024e-05
6.7353e-05
0.000107685
6.77183e-05
5.06306e-05
4.14146e-05
3.54013e-05
3.1028e-05
2.76967e-05
2.50514e-05
2.28797e-05
2.10718e-05
1.95431e-05
1.82347e-05
1.71212e-05
1.61481e-05
1.53214e-05
1.46639e-05
1.40746e-05
1.35992e-05
1.32153e-05
1.29273e-05
0.000160509
0.00010736
8.07404e-05
6.55961e-05
5.54876e-05
4.82952e-05
4.31133e-05
3.9048e-05
3.56738e-05
3.28502e-05
3.04462e-05
2.83526e-05
2.65488e-05
2.50164e-05
2.36991e-05
2.25842e-05
2.16409e-05
2.08604e-05
2.02447e-05
1.98023e-05
0.000663952
0.000488459
0.000404622
0.000347262
0.000305078
0.00027223
0.000245536
0.000223317
0.000204524
0.000188446
0.000174659
0.000162824
0.000152704
0.000144284
0.000137365
0.000131853
0.000127028
0.000122783
0.00011971
0.000111146
0.000786828
0.000662294
0.000567981
0.000495825
0.000439518
0.000394692
0.000358254
0.000328006
0.000302512
0.000280808
0.000262252
0.0002464
0.00023293
0.000221613
0.000212257
0.000204644
0.000198405
0.000193334
0.000188973
0.000182543
0.000809324
0.000713907
0.000631512
0.000562597
0.000505439
0.00045793
0.000418149
0.000384547
0.000355921
0.000331377
0.000310308
0.00029228
0.000276974
0.000264131
0.000253527
0.000244928
0.000238003
0.000232352
0.000227193
0.000220466
0.000814959
0.000730428
0.000654642
0.000589069
0.000533132
0.000485589
0.000445083
0.00041042
0.00038062
0.000354918
0.000332737
0.000313688
0.000297473
0.000283842
0.000272578
0.000263459
0.000256157
0.000250227
0.000244857
0.000238008
0.000814959
0.000730428
0.000654642
0.000589069
0.000533133
0.00048559
0.000445083
0.000410421
0.000380622
0.00035492
0.000332741
0.000313692
0.000297478
0.000283845
0.000272588
0.00026349
0.000256227
0.000250393
0.000245329
0.000239658
0.000809324
0.000713908
0.000631512
0.000562598
0.000505439
0.000457931
0.00041815
0.000384548
0.000355923
0.000331381
0.000310313
0.000292286
0.000276977
0.000264141
0.000253567
0.000245001
0.00023814
0.000232639
0.000227893
0.000222543
0.000786828
0.000662294
0.000567981
0.000495825
0.000439518
0.000394692
0.000358254
0.000328006
0.000302512
0.000280808
0.000262252
0.000246398
0.000232923
0.000221602
0.000212257
0.000204649
0.000198414
0.000193346
0.000188988
0.000182574
0.000663952
0.000488459
0.000404622
0.000347262
0.000305077
0.000272228
0.000245534
0.000223313
0.000204519
0.000188438
0.000174646
0.000162802
0.000152668
0.000144223
0.000137267
0.000131685
0.000126729
0.000122227
0.000118974
0.000111124
0.000160509
0.00010736
8.07404e-05
6.5596e-05
5.54875e-05
4.8295e-05
4.3113e-05
3.90476e-05
3.56731e-05
3.28486e-05
3.04439e-05
2.83485e-05
2.65444e-05
2.50083e-05
2.36857e-05
2.25622e-05
2.16036e-05
2.07971e-05
2.01377e-05
1.96137e-05
0.000198681
0.0001383
0.000105187
8.55252e-05
7.24991e-05
6.28813e-05
5.60388e-05
5.0717e-05
4.63155e-05
4.25907e-05
3.94664e-05
3.67518e-05
3.43901e-05
3.2337e-05
3.05592e-05
2.90281e-05
2.77192e-05
2.66144e-05
2.57006e-05
2.50525e-05
0.00071288
0.000556432
0.000466401
0.000402371
0.000354474
0.000317164
0.000286916
0.000261725
0.00024043
0.000222256
0.000206691
0.000193364
0.000181992
0.00017235
0.000164246
0.000157516
0.00015197
0.000147545
0.000144054
0.000140601
0.000809324
0.000713908
0.000631512
0.000562598
0.000505439
0.000457931
0.00041815
0.000384548
0.000355923
0.000331381
0.000310313
0.000292288
0.000276988
0.000264155
0.000253566
0.000244996
0.000238133
0.000232629
0.000227876
0.000222491
0.000823497
0.00075399
0.000688501
0.000628776
0.000575459
0.00052843
0.000487189
0.000451112
0.000419592
0.000392103
0.000368228
0.000347643
0.000330097
0.000315362
0.000303242
0.000293523
0.000285857
0.000279782
0.000274556
0.00026889
0.000826292
0.00076435
0.000706113
0.000651968
0.000602308
0.000557278
0.000516789
0.000480611
0.000448456
0.000420036
0.000395093
0.000373418
0.000354831
0.000339154
0.000326226
0.00031586
0.000307701
0.000301246
0.000295651
0.000289388
0.000826292
0.00076435
0.000706113
0.000651968
0.000602308
0.000557278
0.000516789
0.000480612
0.000448457
0.000420036
0.000395094
0.000373418
0.000354829
0.000339144
0.000326217
0.000315862
0.000307722
0.00030131
0.00029586
0.000290106
0.000823497
0.00075399
0.000688501
0.000628776
0.000575459
0.00052843
0.000487189
0.000451112
0.000419592
0.000392103
0.000368227
0.000347639
0.000330079
0.00031534
0.000303244
0.00029353
0.000285869
0.000279799
0.000274582
0.000268954
0.000809324
0.000713908
0.000631512
0.000562597
0.000505439
0.00045793
0.000418149
0.000384547
0.000355921
0.000331377
0.000310307
0.000292277
0.000276962
0.000264117
0.000253531
0.000244939
0.000238019
0.000232371
0.000227217
0.000220512
0.00071288
0.000556432
0.000466401
0.000402371
0.000354473
0.000317163
0.000286913
0.000261721
0.000240424
0.000222247
0.000206675
0.000193337
0.000181946
0.000172274
0.000164129
0.00015732
0.000151622
0.000146883
0.000142692
0.000135985
0.000198681
0.0001383
0.000105187
8.55252e-05
7.24989e-05
6.2881e-05
5.60384e-05
5.07164e-05
4.63144e-05
4.2589e-05
3.94637e-05
3.67476e-05
3.43836e-05
3.23267e-05
3.05432e-05
2.90028e-05
2.76787e-05
2.65471e-05
2.55892e-05
2.48383e-05
0.000218609
0.000155003
0.000118661
9.65052e-05
8.18803e-05
7.08263e-05
6.30617e-05
5.70984e-05
5.21686e-05
4.79409e-05
4.44135e-05
4.13536e-05
3.86877e-05
3.63638e-05
3.43428e-05
3.25936e-05
3.10898e-05
2.98075e-05
2.87327e-05
2.79576e-05
0.000728543
0.000588232
0.000496006
0.000429148
0.000378558
0.00033905
0.000307063
0.000280447
0.00025793
0.000238689
0.000222202
0.000208083
0.000196035
0.000185815
0.000177212
0.000170033
0.000164068
0.000159104
0.000154925
0.000151238
0.000814959
0.000730428
0.000654642
0.000589069
0.000533133
0.00048559
0.000445083
0.000410421
0.000380622
0.00035492
0.000332741
0.000313693
0.000297482
0.000283859
0.000272606
0.000263503
0.000256236
0.000250396
0.000245324
0.000239624
0.000826292
0.00076435
0.000706113
0.000651968
0.000602308
0.000557278
0.000516789
0.000480612
0.000448457
0.000420036
0.000395094
0.00037342
0.000354835
0.000339161
0.000326238
0.000315876
0.00030773
0.000301311
0.000295847
0.000290049
0.000828382
0.000772604
0.00072115
0.000672995
0.000627866
0.000585808
0.000546932
0.000511316
0.000478982
0.000449907
0.000424042
0.000401326
0.000381688
0.000365024
0.00035123
0.000340153
0.000331447
0.000324582
0.000318675
0.000312205
0.000828382
0.000772604
0.00072115
0.000672995
0.000627866
0.000585808
0.000546932
0.000511316
0.000478982
0.000449907
0.000424042
0.000401325
0.000381683
0.000365009
0.000351214
0.000340145
0.000331444
0.000324584
0.000318683
0.00031223
0.000826292
0.00076435
0.000706113
0.000651968
0.000602308
0.000557278
0.000516789
0.000480611
0.000448457
0.000420036
0.000395092
0.000373414
0.000354811
0.000339133
0.000326236
0.000315875
0.000307721
0.000301267
0.000295675
0.000289422
0.000814959
0.000730428
0.000654642
0.000589069
0.000533132
0.000485589
0.000445083
0.00041042
0.00038062
0.000354918
0.000332737
0.000313684
0.00029746
0.000283829
0.00027259
0.000263478
0.000256181
0.000250253
0.000244885
0.000238043
0.000728543
0.000588232
0.000496006
0.000429148
0.000378558
0.00033905
0.000307061
0.000280445
0.000257927
0.000238684
0.000222195
0.000208069
0.000196011
0.000185776
0.000177158
0.000169948
0.000163926
0.000158848
0.000154388
0.000149243
0.000218609
0.000155003
0.00011866
9.65051e-05
8.18802e-05
7.08262e-05
6.30615e-05
5.70981e-05
5.21681e-05
4.794e-05
4.44122e-05
4.13516e-05
3.86845e-05
3.63588e-05
3.4335e-05
3.25817e-05
3.10715e-05
2.97801e-05
2.86926e-05
2.79248e-05
0.000218609
0.000155003
0.00011866
9.65051e-05
8.18802e-05
7.08262e-05
6.30615e-05
5.70981e-05
5.21681e-05
4.794e-05
4.44122e-05
4.13516e-05
3.86846e-05
3.63589e-05
3.43351e-05
3.25817e-05
3.10714e-05
2.978e-05
2.86924e-05
2.79246e-05
0.000728543
0.000588232
0.000496006
0.000429148
0.000378558
0.00033905
0.000307061
0.000280445
0.000257927
0.000238684
0.000222195
0.00020807
0.000196014
0.000185782
0.000177158
0.000169944
0.000163918
0.000158838
0.000154377
0.000149227
0.000814959
0.000730428
0.000654642
0.000589069
0.000533132
0.000485589
0.000445083
0.00041042
0.00038062
0.000354917
0.000332737
0.000313688
0.000297474
0.000283846
0.000272584
0.000263466
0.000256164
0.000250232
0.000244859
0.000238002
0.000826292
0.00076435
0.000706113
0.000651968
0.000602308
0.000557278
0.000516789
0.000480611
0.000448456
0.000420036
0.000395093
0.000373418
0.000354833
0.000339157
0.000326232
0.000315866
0.000307707
0.000301249
0.00029565
0.000289368
0.000828382
0.000772604
0.00072115
0.000672995
0.000627866
0.000585808
0.000546932
0.000511316
0.000478982
0.000449907
0.000424042
0.000401326
0.000381688
0.000365024
0.000351229
0.000340154
0.000331448
0.000324583
0.000318675
0.000312202
0.000828382
0.000772604
0.00072115
0.000672995
0.000627866
0.000585808
0.000546932
0.000511316
0.000478982
0.000449907
0.000424042
0.000401325
0.000381683
0.000365009
0.000351214
0.000340145
0.000331445
0.000324585
0.000318681
0.000312213
0.000826292
0.00076435
0.000706113
0.000651968
0.000602308
0.000557278
0.000516789
0.000480612
0.000448457
0.000420036
0.000395093
0.000373415
0.000354814
0.000339136
0.000326242
0.000315887
0.000307745
0.000301331
0.000295874
0.000290098
0.000814959
0.000730428
0.000654643
0.000589069
0.000533133
0.00048559
0.000445083
0.000410421
0.000380622
0.00035492
0.00033274
0.00031369
0.000297468
0.000283843
0.000272612
0.000263517
0.000256255
0.000250419
0.000245352
0.000239672
0.000728543
0.000588232
0.000496006
0.000429148
0.000378558
0.00033905
0.000307062
0.000280447
0.00025793
0.000238689
0.000222203
0.000208082
0.000196031
0.000185809
0.000177213
0.000170038
0.000164076
0.000159115
0.000154937
0.000151257
0.000218609
0.000155003
0.000118661
9.65052e-05
8.18803e-05
7.08263e-05
6.30617e-05
5.70984e-05
5.21687e-05
4.79409e-05
4.44135e-05
4.13536e-05
3.86876e-05
3.63637e-05
3.43427e-05
3.25936e-05
3.10899e-05
2.98077e-05
2.87329e-05
2.79578e-05
0.000198681
0.0001383
0.000105187
8.55252e-05
7.24989e-05
6.2881e-05
5.60384e-05
5.07164e-05
4.63144e-05
4.2589e-05
3.94637e-05
3.67477e-05
3.43837e-05
3.23269e-05
3.05433e-05
2.90029e-05
2.76786e-05
2.65469e-05
2.55891e-05
2.48382e-05
0.00071288
0.000556432
0.000466401
0.000402371
0.000354473
0.000317163
0.000286913
0.000261721
0.000240424
0.000222246
0.000206675
0.000193338
0.00018195
0.00017228
0.000164129
0.000157317
0.000151617
0.000146876
0.000142684
0.000135974
0.000809324
0.000713908
0.000631512
0.000562597
0.000505439
0.00045793
0.000418149
0.000384547
0.000355921
0.000331377
0.000310308
0.00029228
0.000276974
0.000264132
0.000253528
0.00024493
0.000238007
0.000232356
0.000227199
0.000220487
0.000823497
0.00075399
0.000688501
0.000628776
0.000575459
0.00052843
0.000487189
0.000451112
0.000419592
0.000392103
0.000368228
0.000347643
0.000330097
0.000315362
0.000303242
0.000293524
0.00028586
0.000279787
0.000274566
0.000268928
0.000826292
0.00076435
0.000706113
0.000651968
0.000602308
0.000557278
0.000516789
0.000480612
0.000448457
0.000420036
0.000395094
0.00037342
0.000354833
0.000339157
0.000326232
0.000315872
0.000307728
0.000301313
0.000295858
0.000290093
0.000826292
0.00076435
0.000706113
0.000651968
0.000602308
0.000557278
0.000516789
0.000480612
0.000448457
0.000420036
0.000395093
0.000373417
0.000354827
0.000339141
0.000326211
0.000315853
0.000307702
0.000301251
0.000295659
0.000289396
0.000823497
0.00075399
0.000688501
0.000628776
0.000575459
0.00052843
0.000487189
0.000451113
0.000419593
0.000392104
0.000368228
0.00034764
0.000330079
0.00031534
0.000303246
0.000293533
0.000285874
0.000279803
0.000274582
0.000268935
0.000809324
0.000713908
0.000631512
0.000562598
0.00050544
0.000457931
0.000418151
0.000384549
0.000355924
0.000331382
0.000310313
0.000292286
0.000276977
0.00026414
0.000253571
0.000245009
0.000238151
0.000232652
0.000227904
0.000222544
0.00071288
0.000556432
0.000466401
0.000402371
0.000354474
0.000317165
0.000286917
0.000261726
0.000240431
0.000222257
0.000206691
0.000193364
0.00018199
0.000172345
0.000164247
0.00015752
0.000151978
0.000147555
0.000144066
0.000140623
0.000198681
0.0001383
0.000105187
8.55252e-05
7.24991e-05
6.28813e-05
5.60388e-05
5.0717e-05
4.63154e-05
4.25907e-05
3.94663e-05
3.67518e-05
3.439e-05
3.23368e-05
3.05592e-05
2.90282e-05
2.77193e-05
2.66146e-05
2.57009e-05
2.50527e-05
0.000160509
0.00010736
8.07404e-05
6.5596e-05
5.54875e-05
4.8295e-05
4.3113e-05
3.90476e-05
3.56731e-05
3.28486e-05
3.04439e-05
2.83486e-05
2.65444e-05
2.50084e-05
2.36858e-05
2.25621e-05
2.16035e-05
2.07971e-05
2.01376e-05
1.96136e-05
0.000663952
0.000488459
0.000404622
0.000347262
0.000305077
0.000272228
0.000245534
0.000223313
0.000204519
0.000188438
0.000174646
0.000162803
0.00015267
0.000144227
0.000137268
0.000131684
0.000126726
0.000122223
0.00011897
0.000111119
0.000786828
0.000662294
0.000567981
0.000495825
0.000439518
0.000394692
0.000358254
0.000328006
0.000302512
0.000280808
0.000262252
0.0002464
0.00023293
0.000221613
0.000212256
0.000204645
0.000198408
0.000193338
0.00018898
0.000182565
0.000809324
0.000713908
0.000631512
0.000562598
0.000505439
0.000457931
0.00041815
0.000384548
0.000355923
0.000331381
0.000310313
0.000292288
0.000276988
0.000264154
0.000253564
0.000244997
0.000238135
0.000232634
0.000227888
0.000222537
0.000814959
0.000730428
0.000654643
0.000589069
0.000533133
0.00048559
0.000445084
0.000410421
0.000380622
0.00035492
0.000332741
0.000313693
0.000297481
0.000283856
0.0002726
0.0002635
0.000256236
0.0002504
0.000245335
0.000239665
0.000814959
0.000730428
0.000654642
0.000589069
0.000533133
0.00048559
0.000445083
0.00041042
0.000380621
0.000354918
0.000332738
0.000313688
0.00029747
0.000283833
0.000272567
0.000263457
0.000256162
0.000250237
0.000244871
0.000238031
0.000809324
0.000713908
0.000631512
0.000562597
0.000505439
0.00045793
0.000418149
0.000384548
0.000355922
0.000331378
0.000310308
0.000292278
0.000276964
0.000264119
0.000253532
0.00024494
0.00023802
0.000232372
0.000227216
0.000220509
0.000786828
0.000662294
0.000567981
0.000495825
0.000439518
0.000394692
0.000358255
0.000328007
0.000302513
0.000280809
0.000262253
0.000246399
0.000232924
0.000221603
0.00021226
0.000204654
0.00019842
0.000193352
0.000188995
0.000182579
0.000663952
0.000488459
0.000404622
0.000347262
0.000305078
0.00027223
0.000245537
0.000223317
0.000204525
0.000188447
0.000174659
0.000162824
0.000152702
0.00014428
0.000137365
0.000131857
0.000127034
0.00012279
0.000119721
0.000111169
0.000160509
0.00010736
8.07404e-05
6.55961e-05
5.54876e-05
4.82952e-05
4.31133e-05
3.9048e-05
3.56738e-05
3.28502e-05
3.04462e-05
2.83525e-05
2.65488e-05
2.50163e-05
2.36991e-05
2.25843e-05
2.16411e-05
2.08605e-05
2.0245e-05
1.98028e-05
0.000107685
6.77183e-05
5.06307e-05
4.14146e-05
3.54013e-05
3.1028e-05
2.76967e-05
2.50514e-05
2.28797e-05
2.10718e-05
1.95432e-05
1.82348e-05
1.71212e-05
1.61481e-05
1.53215e-05
1.46641e-05
1.40746e-05
1.35998e-05
1.32149e-05
1.29272e-05
0.000528907
0.000369984
0.0003051
0.000261384
0.000228567
0.000202567
0.000181307
0.000163443
0.000148193
0.00013505
0.000123696
0.000113891
0.000105466
9.81778e-05
9.1916e-05
8.76822e-05
8.25982e-05
7.79676e-05
7.4303e-05
6.73513e-05
0.000663952
0.000488459
0.000404622
0.000347262
0.000305078
0.00027223
0.000245536
0.000223317
0.000204525
0.000188446
0.000174659
0.000162824
0.000152704
0.000144284
0.000137365
0.000131854
0.00012703
0.000122785
0.000119715
0.000111161
0.00071288
0.000556432
0.000466401
0.000402371
0.000354474
0.000317164
0.000286916
0.000261725
0.00024043
0.000222257
0.000206691
0.000193364
0.000181992
0.00017235
0.000164245
0.000157516
0.000151972
0.000147548
0.000144059
0.00014062
0.000728543
0.000588232
0.000496006
0.000429148
0.000378558
0.00033905
0.000307063
0.000280448
0.00025793
0.00023869
0.000222203
0.000208083
0.000196035
0.000185814
0.000177209
0.000170032
0.000164069
0.000159107
0.00015493
0.000151251
0.000728543
0.000588232
0.000496006
0.000429148
0.000378558
0.00033905
0.000307062
0.000280446
0.000257928
0.000238685
0.000222195
0.00020807
0.000196013
0.000185768
0.000177147
0.000169939
0.000163918
0.000158842
0.000154382
0.000149239
0.00071288
0.000556432
0.000466401
0.000402371
0.000354473
0.000317163
0.000286913
0.000261721
0.000240425
0.000222247
0.000206675
0.000193338
0.00018195
0.000172316
0.000164152
0.000157332
0.000151629
0.000146887
0.000142694
0.000135985
0.000663952
0.000488459
0.000404622
0.000347262
0.000305077
0.000272229
0.000245535
0.000223314
0.00020452
0.000188439
0.000174647
0.000162803
0.000152669
0.00014423
0.000137276
0.000131693
0.000126735
0.000122232
0.000118978
0.000111127
0.000528907
0.000369984
0.0003051
0.000261384
0.000228567
0.000202567
0.000181307
0.000163443
0.000148193
0.000135051
0.000123696
0.000113891
0.000105465
9.81777e-05
9.19174e-05
8.76848e-05
8.26014e-05
7.79718e-05
7.43046e-05
6.73547e-05
0.000107685
6.77183e-05
5.06307e-05
4.14147e-05
3.54013e-05
3.1028e-05
2.76967e-05
2.50515e-05
2.28798e-05
2.10722e-05
1.95437e-05
1.82356e-05
1.71228e-05
1.61511e-05
1.53261e-05
1.46755e-05
1.41034e-05
1.36327e-05
1.33186e-05
1.30951e-05
4.5356e-05
2.3208e-05
1.65396e-05
1.3649e-05
1.18963e-05
1.06853e-05
9.75752e-06
9.05421e-06
8.48907e-06
8.01861e-06
7.62156e-06
7.28291e-06
6.99288e-06
6.72035e-06
6.49716e-06
6.31606e-06
6.15801e-06
6.03467e-06
5.96039e-06
5.91674e-06
0.000107685
6.77183e-05
5.06306e-05
4.14146e-05
3.54013e-05
3.1028e-05
2.76967e-05
2.50515e-05
2.28798e-05
2.10721e-05
1.95437e-05
1.82357e-05
1.71227e-05
1.61511e-05
1.53262e-05
1.46756e-05
1.41033e-05
1.36331e-05
1.33183e-05
1.30948e-05
0.000160509
0.00010736
8.07404e-05
6.55961e-05
5.54876e-05
4.82952e-05
4.31133e-05
3.9048e-05
3.56738e-05
3.28503e-05
3.04462e-05
2.83526e-05
2.65488e-05
2.50164e-05
2.36991e-05
2.25843e-05
2.16409e-05
2.08605e-05
2.02449e-05
1.98027e-05
0.000198681
0.0001383
0.000105187
8.55252e-05
7.24991e-05
6.28813e-05
5.60388e-05
5.0717e-05
4.63155e-05
4.25907e-05
3.94664e-05
3.67518e-05
3.43901e-05
3.2337e-05
3.05593e-05
2.90282e-05
2.77192e-05
2.66145e-05
2.57007e-05
2.50527e-05
0.000218609
0.000155003
0.000118661
9.65052e-05
8.18803e-05
7.08263e-05
6.30617e-05
5.70984e-05
5.21686e-05
4.79409e-05
4.44134e-05
4.13536e-05
3.86877e-05
3.63638e-05
3.43427e-05
3.25936e-05
3.10898e-05
2.98076e-05
2.87328e-05
2.79577e-05
0.000218609
0.000155003
0.000118661
9.65051e-05
8.18803e-05
7.08262e-05
6.30615e-05
5.70981e-05
5.21681e-05
4.794e-05
4.44122e-05
4.13516e-05
3.86845e-05
3.63588e-05
3.43349e-05
3.25815e-05
3.10713e-05
2.97799e-05
2.86925e-05
2.79247e-05
0.000198681
0.0001383
0.000105187
8.55252e-05
7.24989e-05
6.28811e-05
5.60384e-05
5.07164e-05
4.63144e-05
4.2589e-05
3.94637e-05
3.67477e-05
3.43836e-05
3.23266e-05
3.05431e-05
2.90028e-05
2.76787e-05
2.65471e-05
2.55893e-05
2.48385e-05
0.000160509
0.00010736
8.07404e-05
6.5596e-05
5.54875e-05
4.8295e-05
4.3113e-05
3.90476e-05
3.56731e-05
3.28486e-05
3.04439e-05
2.83486e-05
2.65444e-05
2.50083e-05
2.36857e-05
2.25622e-05
2.16037e-05
2.07972e-05
2.01379e-05
1.96139e-05
0.000107685
6.77183e-05
5.06306e-05
4.14146e-05
3.54013e-05
3.1028e-05
2.76967e-05
2.50514e-05
2.28797e-05
2.10718e-05
1.95431e-05
1.82347e-05
1.71213e-05
1.61481e-05
1.53214e-05
1.4664e-05
1.40747e-05
1.35992e-05
1.32155e-05
1.29274e-05
4.5356e-05
2.3208e-05
1.65396e-05
1.3649e-05
1.18963e-05
1.06853e-05
9.75751e-06
9.05422e-06
8.48906e-06
8.01858e-06
7.62167e-06
7.28297e-06
6.99277e-06
6.7202e-06
6.49703e-06
6.31598e-06
6.15801e-06
6.03476e-06
5.96043e-06
5.91679e-06
5.49092e-06
5.12041e-06
4.84028e-06
4.72437e-06
4.6536e-06
4.62707e-06
4.61045e-06
4.60038e-06
4.59449e-06
4.59057e-06
4.588e-06
4.58644e-06
4.58561e-06
4.58531e-06
4.58539e-06
4.58577e-06
4.5864e-06
4.58718e-06
4.58804e-06
4.58892e-06
4.58979e-06
4.59062e-06
4.59137e-06
4.59199e-06
4.59248e-06
4.59286e-06
4.59316e-06
4.59343e-06
4.59366e-06
4.59382e-06
4.5939e-06
4.59392e-06
4.59391e-06
4.59401e-06
4.5937e-06
4.59372e-06
4.59386e-06
4.59396e-06
4.59402e-06
4.59407e-06
1.13597e-05
1.06255e-05
1.02817e-05
1.00295e-05
9.90377e-06
9.84117e-06
9.80051e-06
9.77275e-06
9.75625e-06
9.74316e-06
9.73418e-06
9.72811e-06
9.72426e-06
9.72233e-06
9.722e-06
9.72291e-06
9.72472e-06
9.72715e-06
9.72994e-06
9.73288e-06
9.73576e-06
9.73842e-06
9.74068e-06
9.74244e-06
9.74392e-06
9.74528e-06
9.7465e-06
9.74753e-06
9.74823e-06
9.74856e-06
9.74881e-06
9.74905e-06
9.74926e-06
9.74914e-06
9.7481e-06
9.74816e-06
9.74858e-06
9.74925e-06
9.74974e-06
9.75029e-06
1.68479e-05
1.61272e-05
1.55941e-05
1.52197e-05
1.49935e-05
1.4833e-05
1.47367e-05
1.46672e-05
1.46158e-05
1.45762e-05
1.45529e-05
1.45363e-05
1.45249e-05
1.4518e-05
1.45147e-05
1.45141e-05
1.45157e-05
1.45186e-05
1.45225e-05
1.45267e-05
1.4531e-05
1.4535e-05
1.45383e-05
1.45407e-05
1.4543e-05
1.45452e-05
1.45474e-05
1.45491e-05
1.45502e-05
1.45506e-05
1.45511e-05
1.45517e-05
1.45523e-05
1.45529e-05
1.45531e-05
1.45526e-05
1.45527e-05
1.45532e-05
1.45539e-05
1.45549e-05
2.10581e-05
2.0352e-05
1.98146e-05
1.94089e-05
1.91079e-05
1.88856e-05
1.87254e-05
1.86086e-05
1.85294e-05
1.8469e-05
1.84243e-05
1.83943e-05
1.83733e-05
1.83599e-05
1.83524e-05
1.83496e-05
1.83502e-05
1.83532e-05
1.83577e-05
1.83631e-05
1.83686e-05
1.83737e-05
1.83775e-05
1.83804e-05
1.83835e-05
1.83868e-05
1.83899e-05
1.83925e-05
1.83938e-05
1.83944e-05
1.83952e-05
1.83963e-05
1.83975e-05
1.83986e-05
1.83982e-05
1.83977e-05
1.83978e-05
1.83986e-05
1.84002e-05
1.84017e-05
2.35655e-05
2.30044e-05
2.25114e-05
2.21027e-05
2.17764e-05
2.15226e-05
2.13282e-05
2.11813e-05
2.10756e-05
2.09952e-05
2.09386e-05
2.08968e-05
2.08679e-05
2.08491e-05
2.0838e-05
2.08329e-05
2.08322e-05
2.08348e-05
2.08394e-05
2.08451e-05
2.08512e-05
2.08567e-05
2.08604e-05
2.08631e-05
2.08668e-05
2.08709e-05
2.08749e-05
2.08781e-05
2.08796e-05
2.08803e-05
2.08814e-05
2.0883e-05
2.08847e-05
2.0886e-05
2.08859e-05
2.08855e-05
2.08857e-05
2.08868e-05
2.08883e-05
2.089e-05
2.46667e-05
2.40054e-05
2.34673e-05
2.30402e-05
2.27026e-05
2.24377e-05
2.22334e-05
2.20783e-05
2.19616e-05
2.1876e-05
2.18126e-05
2.17667e-05
2.17336e-05
2.17127e-05
2.17001e-05
2.16939e-05
2.16924e-05
2.16944e-05
2.16988e-05
2.17046e-05
2.17108e-05
2.17164e-05
2.17201e-05
2.1723e-05
2.17273e-05
2.17318e-05
2.17362e-05
2.17397e-05
2.17414e-05
2.1742e-05
2.17432e-05
2.1745e-05
2.17469e-05
2.17482e-05
2.17478e-05
2.17471e-05
2.17475e-05
2.17485e-05
2.17502e-05
2.17521e-05
2.42238e-05
2.32656e-05
2.2601e-05
2.21228e-05
2.17725e-05
2.15143e-05
2.13235e-05
2.11823e-05
2.10775e-05
2.10006e-05
2.09487e-05
2.09066e-05
2.08772e-05
2.0859e-05
2.08482e-05
2.08431e-05
2.08422e-05
2.08446e-05
2.08491e-05
2.08548e-05
2.08609e-05
2.08665e-05
2.08704e-05
2.08735e-05
2.08774e-05
2.08815e-05
2.08855e-05
2.08886e-05
2.08899e-05
2.08904e-05
2.08915e-05
2.08931e-05
2.08949e-05
2.08959e-05
2.08953e-05
2.08941e-05
2.0894e-05
2.0895e-05
2.08967e-05
2.08985e-05
2.11191e-05
2.02332e-05
1.96625e-05
1.92719e-05
1.90016e-05
1.88082e-05
1.86708e-05
1.8571e-05
1.8497e-05
1.8453e-05
1.84099e-05
1.83798e-05
1.83615e-05
1.83497e-05
1.83431e-05
1.83407e-05
1.83416e-05
1.83448e-05
1.83495e-05
1.83549e-05
1.83605e-05
1.83657e-05
1.83697e-05
1.83728e-05
1.83761e-05
1.83794e-05
1.83824e-05
1.83849e-05
1.83862e-05
1.83865e-05
1.83873e-05
1.83883e-05
1.83896e-05
1.83903e-05
1.839e-05
1.83883e-05
1.83873e-05
1.83879e-05
1.83895e-05
1.83914e-05
1.58429e-05
1.55674e-05
1.52029e-05
1.49621e-05
1.48026e-05
1.47064e-05
1.4637e-05
1.46004e-05
1.45619e-05
1.45298e-05
1.45139e-05
1.45016e-05
1.44929e-05
1.44877e-05
1.44854e-05
1.44855e-05
1.44876e-05
1.44909e-05
1.44951e-05
1.44996e-05
1.45041e-05
1.45083e-05
1.45117e-05
1.45144e-05
1.45168e-05
1.45191e-05
1.45212e-05
1.4523e-05
1.45241e-05
1.45244e-05
1.45248e-05
1.45254e-05
1.45261e-05
1.45264e-05
1.4526e-05
1.45241e-05
1.45224e-05
1.45233e-05
1.45247e-05
1.45263e-05
1.07271e-05
1.01619e-05
9.91585e-06
9.80887e-06
9.7722e-06
9.75259e-06
9.7401e-06
9.72915e-06
9.71988e-06
9.71217e-06
9.70646e-06
9.70233e-06
9.69984e-06
9.69886e-06
9.69912e-06
9.7004e-06
9.70244e-06
9.70501e-06
9.70787e-06
9.71083e-06
9.71374e-06
9.71643e-06
9.71873e-06
9.72051e-06
9.72202e-06
9.72339e-06
9.72461e-06
9.72564e-06
9.72632e-06
9.72664e-06
9.72683e-06
9.72705e-06
9.72731e-06
9.72742e-06
9.72714e-06
9.72625e-06
9.72526e-06
9.72548e-06
9.72611e-06
9.72699e-06
5.491e-06
5.12062e-06
4.83904e-06
4.72486e-06
4.65309e-06
4.62654e-06
4.60997e-06
4.60056e-06
4.59475e-06
4.5908e-06
4.58818e-06
4.58658e-06
4.5857e-06
4.58536e-06
4.58543e-06
4.58583e-06
4.58645e-06
4.58722e-06
4.58807e-06
4.58895e-06
4.58982e-06
4.59064e-06
4.59139e-06
4.59201e-06
4.59251e-06
4.5929e-06
4.59321e-06
4.59348e-06
4.59371e-06
4.59387e-06
4.59395e-06
4.59397e-06
4.59398e-06
4.59394e-06
4.59413e-06
4.59389e-06
4.59365e-06
4.59364e-06
4.59372e-06
4.59387e-06
1.07265e-05
1.01618e-05
9.91506e-06
9.81061e-06
9.7719e-06
9.75232e-06
9.7394e-06
9.72835e-06
9.71912e-06
9.71152e-06