/*--------------------------------*- C++ -*----------------------------------*\
| =========                 |                                                 |
| \\      /  F ield         | OpenFOAM: The Open Source CFD Toolbox           |
|  \\    /   O peration     | Version:  2212                                  |
|   \\  /    A nd           | Website:  www.openfoam.com                      |
|    \\/     M anipulation  |                                                 |
\*---------------------------------------------------------------------------*/
FoamFile
{
    version     2.0;
    format      ascii;
    arch        "LSB;label=32;scalar=64";
    class       surfaceScalarField;
    location    "0.35";
    object      phi;
}
// * * * * * * * * * * * * * * * * * * * * * * * * * * * * * * * * * * * * * //

dimensions      [0 3 -1 0 0 0 0];

oriented        oriented;

internalField   nonuniform List<scalar> 
19019
(
3.32249e-07
1.0971e-09
1.09709e-09
2.79189e-07
2.65299e-08
2.65303e-08
2.49215e-07
1.49867e-08
1.49873e-08
2.2925e-07
9.98162e-09
9.98274e-09
2.14843e-07
7.20199e-09
7.20462e-09
2.03231e-07
5.8038e-09
5.80806e-09
1.93829e-07
4.69665e-09
4.70547e-09
1.86114e-07
3.84961e-09
3.86557e-09
1.79558e-07
3.26398e-09
3.29194e-09
1.73883e-07
2.81349e-09
2.86117e-09
1.68943e-07
2.43025e-09
2.5098e-09
1.64638e-07
2.08637e-09
2.21782e-09
1.609e-07
1.76107e-09
1.97758e-09
1.57692e-07
1.42515e-09
1.7829e-09
1.54973e-07
1.0692e-09
1.6489e-09
1.52788e-07
6.44345e-10
1.54121e-09
1.51198e-07
4.71442e-11
1.54254e-09
1.50871e-07
-1.21963e-09
1.54672e-09
1.5374e-07
-4.36632e-09
1.49715e-09
-2.24683e-08
-9.87357e-09
6.31379e-07
3.58784e-09
7.40417e-09
6.14558e-07
2.26478e-08
2.07027e-08
5.8644e-07
2.43749e-08
1.87303e-08
5.61733e-07
1.88466e-08
1.58411e-08
5.39663e-07
1.5543e-08
1.37292e-08
5.20747e-07
1.3456e-08
1.12638e-08
5.0492e-07
1.18527e-08
8.67049e-09
4.91382e-07
1.0615e-08
6.77279e-09
4.79512e-07
9.63525e-09
5.49813e-09
4.68966e-07
8.74222e-09
4.61754e-09
4.59549e-07
7.86009e-09
3.98657e-09
4.51134e-07
6.97875e-09
3.5229e-09
4.43632e-07
6.0907e-09
3.17252e-09
4.36955e-07
5.17858e-09
2.92368e-09
4.3102e-07
4.25032e-09
2.75335e-09
4.25679e-07
3.34048e-09
2.64484e-09
4.20854e-07
2.28005e-09
2.59185e-09
4.167e-07
6.64841e-10
2.2694e-09
4.15119e-07
-2.77972e-09
-5.3958e-12
-5.57588e-09
-6.09264e-09
8.90373e-07
2.85264e-09
6.3342e-09
8.82481e-07
1.34091e-08
1.71307e-08
8.70357e-07
1.78621e-08
1.86369e-08
8.55121e-07
1.6944e-08
1.71378e-08
8.40025e-07
1.53087e-08
1.53309e-08
8.25666e-07
1.41022e-08
1.37123e-08
8.12084e-07
1.32517e-08
1.21832e-08
7.99421e-07
1.24487e-08
1.08283e-08
7.87885e-07
1.15034e-08
9.66775e-09
7.77531e-07
1.04468e-08
8.64997e-09
7.68272e-07
9.36191e-09
7.7563e-09
7.59995e-07
8.27597e-09
6.97964e-09
7.52575e-07
7.20336e-09
6.30762e-09
7.45846e-07
6.16532e-09
5.74227e-09
7.39598e-07
5.17936e-09
5.31883e-09
7.33557e-07
4.27067e-09
5.11086e-09
7.27185e-07
3.45695e-09
5.19478e-09
7.19526e-07
2.68823e-09
5.6359e-09
7.08885e-07
1.6982e-09
6.16241e-09
5.93447e-09
1.30597e-08
1.07431e-06
1.06573e-09
5.57148e-09
1.06822e-06
5.58895e-09
1.39077e-08
1.06136e-06
8.4635e-09
1.62604e-08
1.05338e-06
9.03312e-09
1.58914e-08
1.04514e-06
8.59867e-09
1.49493e-08
1.03734e-06
8.08206e-09
1.38241e-08
1.03011e-06
7.70505e-09
1.27733e-08
1.02342e-06
7.39929e-09
1.17436e-08
1.01706e-06
7.11539e-09
1.07415e-08
1.01098e-06
6.73421e-09
9.7957e-09
1.00525e-06
6.17605e-09
8.9175e-09
9.99883e-07
5.5333e-09
8.10834e-09
9.94814e-07
4.9066e-09
7.36606e-09
9.89897e-07
4.35993e-09
6.72225e-09
9.84912e-07
3.93687e-09
6.22734e-09
9.79499e-07
3.71306e-09
5.97045e-09
9.72948e-07
3.87374e-09
6.13454e-09
9.64158e-07
4.55113e-09
6.92668e-09
9.51464e-07
6.1677e-09
8.22429e-09
1.13772e-08
1.24988e-08
1.16914e-06
1.44311e-13
4.90898e-09
1.16312e-06
7.49142e-13
1.16146e-08
1.1573e-06
1.74401e-12
1.42774e-08
1.15201e-06
2.96977e-12
1.43202e-08
1.14693e-06
4.96332e-12
1.36771e-08
1.14215e-06
8.48926e-12
1.28513e-08
1.13794e-06
1.47108e-11
1.18946e-08
1.13435e-06
2.50674e-11
1.09653e-08
1.13132e-06
4.20194e-11
1.0103e-08
1.12863e-06
6.99061e-11
9.35291e-09
1.12601e-06
1.15538e-10
8.682e-09
1.12336e-06
1.89543e-10
7.99373e-09
1.12066e-06
3.10284e-10
7.30204e-09
1.11782e-06
5.06762e-10
6.68722e-09
1.11475e-06
8.22503e-10
6.18603e-09
1.11127e-06
1.33907e-09
5.85272e-09
1.10716e-06
2.20357e-09
5.78338e-09
1.10213e-06
3.49337e-09
6.09223e-09
1.096e-06
5.53513e-09
6.75519e-09
9.27532e-09
8.28968e-09
1.16914e-06
-1.06537e-09
4.90896e-09
1.16312e-06
-5.58768e-09
1.16143e-08
1.1573e-06
-8.46112e-09
1.42773e-08
1.15201e-06
-9.02924e-09
1.43196e-08
1.14694e-06
-8.59172e-09
1.36752e-08
1.14217e-06
-8.06932e-09
1.28473e-08
1.13797e-06
-7.68243e-09
1.18885e-08
1.1344e-06
-7.36023e-09
1.09554e-08
1.13141e-06
-7.05123e-09
1.00869e-08
1.12878e-06
-6.62967e-09
9.32582e-09
1.12627e-06
-6.00521e-09
8.63863e-09
1.12379e-06
-5.25258e-09
7.92314e-09
1.12135e-06
-4.44123e-09
7.18224e-09
1.11896e-06
-3.58638e-09
6.48652e-09
1.11661e-06
-2.6708e-09
5.84878e-09
1.11423e-06
-1.5821e-09
5.29386e-09
1.1118e-06
-2.21363e-10
4.85477e-09
1.10921e-06
1.54713e-09
4.54328e-09
1.10643e-06
3.9536e-09
4.35362e-09
7.29144e-09
4.51018e-09
1.07431e-06
-2.85264e-09
5.57148e-09
1.06823e-06
-1.34091e-08
1.39076e-08
1.06137e-06
-1.78618e-08
1.62596e-08
1.05339e-06
-1.69437e-08
1.58891e-08
1.04516e-06
-1.53077e-08
1.49448e-08
1.03738e-06
-1.40996e-08
1.3817e-08
1.03018e-06
-1.3247e-08
1.27622e-08
1.02353e-06
-1.24409e-08
1.1725e-08
1.01726e-06
-1.14921e-08
1.07127e-08
1.01131e-06
-1.043e-08
9.74893e-09
1.00581e-06
-9.33457e-09
8.83707e-09
1.00081e-06
-8.2289e-09
7.97138e-09
9.96356e-07
-7.11691e-09
7.13003e-09
9.92455e-07
-5.99853e-09
6.31315e-09
9.89142e-07
-4.87782e-09
5.51984e-09
9.86495e-07
-3.66384e-09
4.72827e-09
9.84597e-07
-2.21051e-09
3.88752e-09
9.83428e-07
-2.33078e-10
2.94927e-09
9.82444e-07
3.14815e-09
1.78899e-09
9.44503e-09
2.67708e-10
8.90373e-07
-3.58793e-09
6.3341e-09
8.82482e-07
-2.26484e-08
1.71301e-08
8.70361e-07
-2.43756e-08
1.86353e-08
8.5513e-07
-1.88479e-08
1.7135e-08
8.40042e-07
-1.55462e-08
1.53268e-08
8.25697e-07
-1.34616e-08
1.37066e-08
8.12138e-07
-1.18626e-08
1.21739e-08
7.99516e-07
-1.06319e-08
1.08124e-08
7.88046e-07
-9.66464e-09
9.64224e-09
7.778e-07
-8.79201e-09
8.6081e-09
7.68722e-07
-7.94177e-09
7.6849e-09
7.60747e-07
-7.11046e-09
6.85632e-09
7.53838e-07
-6.29937e-09
6.09182e-09
7.47983e-07
-5.50156e-09
5.35777e-09
7.43247e-07
-4.77065e-09
4.62832e-09
7.39848e-07
-4.11782e-09
3.85293e-09
7.38167e-07
-3.40648e-09
2.87664e-09
7.38629e-07
-1.91418e-09
1.2192e-09
7.42295e-07
1.03444e-09
-1.55202e-09
1.03884e-08
-7.35133e-09
6.31379e-07
-1.09713e-09
7.40407e-09
6.14558e-07
-2.65303e-08
2.07022e-08
5.86441e-07
-1.49873e-08
1.87294e-08
5.61736e-07
-9.98275e-09
1.58393e-08
5.39668e-07
-7.20473e-09
1.37267e-08
5.20755e-07
-5.80823e-09
1.12588e-08
5.04936e-07
-4.70567e-09
8.66251e-09
4.9141e-07
-3.86576e-09
6.75948e-09
4.79561e-07
-3.29201e-09
5.47596e-09
4.69049e-07
-2.86116e-09
4.58079e-09
4.59692e-07
-2.50979e-09
3.92568e-09
4.51377e-07
-2.21789e-09
3.42171e-09
4.44052e-07
-1.9778e-09
3.00313e-09
4.37698e-07
-1.78315e-09
2.63525e-09
4.32324e-07
-1.64892e-09
2.25229e-09
4.28006e-07
-1.54081e-09
1.74087e-09
4.25154e-07
-1.54204e-09
9.87697e-10
4.25523e-07
-1.54645e-09
-7.36719e-10
4.32747e-07
-1.49767e-09
-4.69226e-09
9.87189e-09
-1.99608e-08
3.32249e-07
1.09708e-09
2.79189e-07
2.65299e-08
2.49215e-07
1.49867e-08
2.2925e-07
9.98163e-09
2.14843e-07
7.20197e-09
2.03231e-07
5.80373e-09
1.93829e-07
4.69661e-09
1.86114e-07
3.84956e-09
1.79558e-07
3.26398e-09
1.73883e-07
2.81353e-09
1.68943e-07
2.43029e-09
1.64639e-07
2.08637e-09
1.609e-07
1.76097e-09
1.57692e-07
1.42491e-09
1.54974e-07
1.06894e-09
1.52789e-07
6.44272e-10
1.512e-07
4.69658e-11
1.50873e-07
-1.21952e-09
1.53741e-07
-4.36622e-09
-2.24688e-08
6.31379e-07
7.40407e-09
3.5879e-09
6.14558e-07
2.07022e-08
2.26483e-08
5.86441e-07
1.87294e-08
2.43756e-08
5.61736e-07
1.58393e-08
1.8848e-08
5.39668e-07
1.37268e-08
1.55462e-08
5.20755e-07
1.12589e-08
1.34615e-08
5.04936e-07
8.66263e-09
1.18625e-08
4.9141e-07
6.75964e-09
1.06318e-08
4.79561e-07
5.47614e-09
9.66462e-09
4.69049e-07
4.58101e-09
8.79209e-09
4.59691e-07
3.92599e-09
7.94196e-09
4.51376e-07
3.42213e-09
7.11067e-09
4.44051e-07
3.0035e-09
6.29943e-09
4.37697e-07
2.63547e-09
5.50157e-09
4.32322e-07
2.25242e-09
4.77094e-09
4.28004e-07
1.7409e-09
4.11882e-09
4.25151e-07
9.87585e-10
3.40797e-09
4.25518e-07
-7.37282e-10
1.9164e-09
4.32742e-07
-4.69329e-09
-1.03331e-09
-1.99626e-08
-1.03912e-08
9.23616e-07
7.03515e-09
7.03531e-09
9.25319e-07
1.98508e-08
1.98515e-08
9.17191e-07
2.27929e-08
2.27942e-08
9.04293e-07
2.22883e-08
2.22907e-08
8.90572e-07
2.05865e-08
2.05905e-08
8.77501e-07
1.77926e-08
1.78003e-08
8.65637e-07
1.45925e-08
1.46054e-08
8.55124e-07
1.20118e-08
1.20334e-08
8.45919e-07
1.00706e-08
1.01082e-08
8.3791e-07
8.57197e-09
8.63551e-09
8.30969e-07
7.37477e-09
7.4792e-09
8.24988e-07
6.37855e-09
6.54771e-09
8.19883e-07
5.5043e-09
5.7764e-09
8.15561e-07
4.72198e-09
5.15914e-09
8.11996e-07
3.93611e-09
4.63521e-09
8.09292e-07
2.98909e-09
4.10024e-09
8.07441e-07
1.8484e-09
3.58198e-09
8.05935e-07
2.23828e-10
2.81457e-09
8.02732e-07
-2.50937e-09
1.01326e-09
-7.61897e-09
-3.56359e-09
1.1589e-06
5.282e-09
6.10516e-09
1.1657e-06
1.39988e-08
1.61874e-08
1.16845e-06
1.79737e-08
2.07066e-08
1.16662e-06
1.91626e-08
2.20897e-08
1.16224e-06
1.88352e-08
2.14639e-08
1.1566e-06
1.74629e-08
1.96827e-08
1.15058e-06
1.55346e-08
1.72596e-08
1.14475e-06
1.36386e-08
1.50294e-08
1.13941e-06
1.19283e-08
1.31489e-08
1.1347e-06
1.03743e-08
1.15621e-08
1.13062e-06
9.00077e-09
1.02116e-08
1.12712e-06
7.79813e-09
9.05913e-09
1.12411e-06
6.7317e-09
8.08435e-09
1.12152e-06
5.77429e-09
7.28442e-09
1.11926e-06
4.86926e-09
6.64693e-09
1.11722e-06
3.96623e-09
6.17236e-09
1.11528e-06
3.05361e-09
5.92942e-09
1.11323e-06
2.04117e-09
5.86595e-09
1.11037e-06
7.42366e-10
5.77314e-09
-4.89321e-11
6.2952e-09
1.32762e-06
2.71927e-09
4.93435e-09
1.33539e-06
7.12236e-09
1.30137e-08
1.34286e-06
9.5525e-09
1.72137e-08
1.34847e-06
1.05686e-08
1.88741e-08
1.35199e-06
1.08471e-08
1.94212e-08
1.3538e-06
1.0521e-08
1.89527e-08
1.35452e-06
9.77306e-09
1.78159e-08
1.35471e-06
8.85474e-09
1.63382e-08
1.35466e-06
7.94192e-09
1.47749e-08
1.35451e-06
7.06509e-09
1.32614e-08
1.35429e-06
6.2388e-09
1.18923e-08
1.35404e-06
5.47309e-09
1.06841e-08
1.35373e-06
4.78983e-09
9.6243e-09
1.35328e-06
4.21577e-09
8.72599e-09
1.3526e-06
3.75549e-09
8.02429e-09
1.35153e-06
3.42123e-09
7.57903e-09
1.34999e-06
3.26915e-09
7.46688e-09
1.34787e-06
3.34383e-09
7.73628e-09
1.34489e-06
3.66368e-09
8.29218e-09
4.54221e-09
9.29447e-09
1.41518e-06
2.87674e-13
4.19565e-09
1.42279e-06
8.41321e-13
1.11191e-08
1.43153e-06
1.3999e-12
1.50928e-08
1.43981e-06
2.50011e-12
1.66009e-08
1.44714e-06
4.57568e-12
1.71964e-08
1.45316e-06
7.92321e-12
1.73377e-08
1.45798e-06
1.30705e-11
1.68383e-08
1.46186e-06
2.20161e-11
1.59236e-08
1.4651e-06
3.75172e-11
1.47666e-08
1.4679e-06
6.27544e-11
1.35492e-08
1.47037e-06
1.02544e-10
1.23544e-08
1.4725e-06
1.6532e-10
1.117e-08
1.47428e-06
2.64513e-10
1.00477e-08
1.47568e-06
4.19712e-10
9.07717e-09
1.47668e-06
6.64916e-10
8.27678e-09
1.47723e-06
1.04501e-09
7.68051e-09
1.47732e-06
1.62873e-09
7.33094e-09
1.47702e-06
2.48462e-09
7.25012e-09
1.47641e-06
3.66952e-09
7.3657e-09
5.15821e-09
7.68751e-09
1.41518e-06
-2.71891e-09
4.1955e-09
1.42279e-06
-7.1214e-09
1.11187e-08
1.43153e-06
-9.55084e-09
1.50922e-08
1.43982e-06
-1.05656e-08
1.65995e-08
1.44715e-06
-1.08415e-08
1.71931e-08
1.45318e-06
-1.05113e-08
1.7332e-08
1.45801e-06
-9.75721e-09
1.68293e-08
1.46191e-06
-8.82741e-09
1.59093e-08
1.46518e-06
-7.89445e-09
1.4744e-08
1.46804e-06
-6.98604e-09
1.35127e-08
1.4706e-06
-6.10861e-09
1.22965e-08
1.47287e-06
-5.26277e-09
1.10763e-08
1.47488e-06
-4.45332e-09
9.89169e-09
1.47664e-06
-3.67337e-09
8.82202e-09
1.47815e-06
-2.86523e-09
7.86327e-09
1.47945e-06
-1.97238e-09
7.01657e-09
1.48057e-06
-9.28932e-10
6.28937e-09
1.48156e-06
3.66585e-10
5.67197e-09
1.48243e-06
2.02056e-09
5.12854e-09
4.05078e-09
4.69408e-09
1.32762e-06
-5.28211e-09
4.93406e-09
1.3354e-06
-1.3999e-08
1.30129e-08
1.34287e-06
-1.7974e-08
1.72119e-08
1.34848e-06
-1.9163e-08
1.88697e-08
1.35201e-06
-1.88359e-08
1.94132e-08
1.35384e-06
-1.74646e-08
1.89404e-08
1.35458e-06
-1.55367e-08
1.77972e-08
1.35482e-06
-1.3641e-08
1.63077e-08
1.35484e-06
-1.19346e-08
1.47281e-08
1.35481e-06
-1.03878e-08
1.31852e-08
1.35479e-06
-9.02278e-09
1.17636e-08
1.35486e-06
-7.83179e-09
1.04695e-08
1.35505e-06
-6.77897e-09
9.26922e-09
1.35538e-06
-5.83186e-09
8.13908e-09
1.35591e-06
-4.92599e-09
7.05308e-09
1.35667e-06
-3.99071e-09
5.9826e-09
1.35771e-06
-2.97278e-09
4.89158e-09
1.35899e-06
-1.67142e-09
3.71467e-09
1.3602e-06
2.04228e-10
2.39536e-09
3.14585e-09
1.03178e-09
1.1589e-06
-7.03533e-09
6.10482e-09
1.1657e-06
-1.98514e-08
1.61862e-08
1.16845e-06
-2.27943e-08
2.07038e-08
1.16663e-06
-2.22908e-08
2.20851e-08
1.16225e-06
-2.05906e-08
2.14568e-08
1.15662e-06
-1.78004e-08
1.96725e-08
1.15062e-06
-1.46056e-08
1.7243e-08
1.14483e-06
-1.20336e-08
1.50004e-08
1.13954e-06
-1.01082e-08
1.31004e-08
1.13491e-06
-8.63547e-09
1.14825e-08
1.13098e-06
-7.47898e-09
1.00809e-08
1.1277e-06
-6.5473e-09
8.84352e-09
1.12506e-06
-5.77608e-09
7.72763e-09
1.12306e-06
-5.15906e-09
6.69296e-09
1.12173e-06
-4.63503e-09
5.66705e-09
1.12113e-06
-4.09999e-09
4.55475e-09
1.12135e-06
-3.58163e-09
3.27104e-09
1.1221e-06
-2.81475e-09
1.60706e-09
1.12242e-06
-1.01429e-09
-6.46623e-10
3.56176e-09
-3.36848e-09
9.23616e-07
-7.40418e-09
7.03513e-09
9.25319e-07
-2.07028e-08
1.98508e-08
9.17191e-07
-1.87305e-08
2.2793e-08
9.04293e-07
-1.58413e-08
2.22884e-08
8.90572e-07
-1.37294e-08
2.05866e-08
8.77502e-07
-1.12641e-08
1.77927e-08
8.65637e-07
-8.67084e-09
1.45925e-08
8.55124e-07
-6.77317e-09
1.20118e-08
8.4592e-07
-5.49848e-09
1.00706e-08
8.37911e-07
-4.61783e-09
8.57189e-09
8.3097e-07
-3.98675e-09
7.37453e-09
8.24989e-07
-3.52297e-09
6.37801e-09
8.19885e-07
-3.17258e-09
5.50351e-09
8.15564e-07
-2.92379e-09
4.72141e-09
8.11999e-07
-2.7535e-09
3.93593e-09
8.09295e-07
-2.64516e-09
2.98928e-09
8.07445e-07
-2.59231e-09
1.84872e-09
8.05939e-07
-2.27033e-09
2.24687e-10
8.02737e-07
3.84523e-12
-2.50814e-09
6.09117e-09
-7.61808e-09
6.31379e-07
3.58777e-09
6.14558e-07
2.26477e-08
5.8644e-07
2.43747e-08
5.61734e-07
1.88465e-08
5.39663e-07
1.55429e-08
5.20747e-07
1.34558e-08
5.0492e-07
1.18525e-08
4.91382e-07
1.06148e-08
4.79512e-07
9.63507e-09
4.68966e-07
8.74206e-09
4.5955e-07
7.85987e-09
4.51135e-07
6.97842e-09
4.43633e-07
6.09023e-09
4.36956e-07
5.17797e-09
4.31022e-07
4.24986e-09
4.25681e-07
3.34023e-09
4.20856e-07
2.27962e-09
4.16702e-07
6.64044e-10
4.1512e-07
-2.78014e-09
-5.57619e-09
8.90373e-07
6.33411e-09
2.85261e-09
8.82482e-07
1.71301e-08
1.34091e-08
8.70361e-07
1.86353e-08
1.7862e-08
8.5513e-07
1.7135e-08
1.69438e-08
8.40041e-07
1.53268e-08
1.53079e-08
8.25697e-07
1.37065e-08
1.40998e-08
8.12138e-07
1.21739e-08
1.32473e-08
7.99516e-07
1.08124e-08
1.24412e-08
7.88046e-07
9.64231e-09
1.14925e-08
7.778e-07
8.60825e-09
1.04305e-08
7.68721e-07
7.68517e-09
9.3353e-09
7.60746e-07
6.85663e-09
8.22978e-09
7.53836e-07
6.09184e-09
7.11785e-09
7.4798e-07
5.35756e-09
5.99973e-09
7.43243e-07
4.62848e-09
4.87962e-09
7.39842e-07
3.85357e-09
3.66673e-09
7.38158e-07
2.87757e-09
2.21407e-09
7.38617e-07
1.22023e-09
2.37412e-10
7.42279e-07
-1.55206e-09
-3.14373e-09
-7.35348e-09
-9.44029e-09
1.1589e-06
6.10484e-09
5.2821e-09
1.1657e-06
1.61862e-08
1.3999e-08
1.16845e-06
2.07038e-08
1.7974e-08
1.16663e-06
2.2085e-08
1.9163e-08
1.16225e-06
2.14568e-08
1.88359e-08
1.15662e-06
1.96724e-08
1.74645e-08
1.15062e-06
1.7243e-08
1.55367e-08
1.14483e-06
1.50004e-08
1.36411e-08
1.13954e-06
1.31004e-08
1.19347e-08
1.13491e-06
1.14827e-08
1.03881e-08
1.13097e-06
1.00813e-08
9.02332e-09
1.1277e-06
8.84415e-09
7.83252e-09
1.12506e-06
7.72821e-09
6.77935e-09
1.12305e-06
6.69316e-09
5.83201e-09
1.12172e-06
5.66718e-09
4.92674e-09
1.12113e-06
4.5552e-09
3.99217e-09
1.12134e-06
3.27178e-09
2.97481e-09
1.1221e-06
1.60779e-09
1.67378e-09
1.12241e-06
-6.46579e-10
-2.02089e-10
-3.36972e-09
-3.14439e-09
1.37712e-06
4.57871e-09
4.579e-09
1.38566e-06
1.19182e-08
1.1919e-08
1.39418e-06
1.64428e-08
1.64445e-08
1.40127e-06
1.8543e-08
1.85457e-08
1.40641e-06
1.88875e-08
1.88919e-08
1.40949e-06
1.8135e-08
1.81421e-08
1.41087e-06
1.65546e-08
1.65667e-08
1.41136e-06
1.47605e-08
1.47802e-08
1.41147e-06
1.30509e-08
1.30823e-08
1.41148e-06
1.14951e-08
1.15457e-08
1.41151e-06
1.00895e-08
1.01718e-08
1.41164e-06
8.81904e-09
8.95226e-09
1.41191e-06
7.66533e-09
7.87961e-09
1.41234e-06
6.5999e-09
6.94153e-09
1.41297e-06
5.57534e-09
6.11203e-09
1.41378e-06
4.54534e-09
5.37058e-09
1.41483e-06
3.44911e-09
4.70925e-09
1.41603e-06
2.21574e-09
4.05123e-09
1.41708e-06
8.0208e-10
3.2786e-09
-4.62659e-10
2.42037e-09
1.53313e-06
2.36671e-09
3.64973e-09
1.54219e-06
6.23898e-09
9.6318e-09
1.55329e-06
8.87029e-09
1.36804e-08
1.56447e-06
1.03363e-08
1.59053e-08
1.57506e-06
1.08735e-08
1.68452e-08
1.58462e-06
1.07021e-08
1.68222e-08
1.59278e-06
1.00498e-08
1.61627e-08
1.59962e-06
9.17724e-09
1.50784e-08
1.60543e-06
8.22461e-09
1.37946e-08
1.61042e-06
7.29616e-09
1.24714e-08
1.61476e-06
6.4373e-09
1.1201e-08
1.61858e-06
5.66083e-09
1.00262e-08
1.62194e-06
4.96316e-09
8.96619e-09
1.6249e-06
4.33393e-09
8.03503e-09
1.62749e-06
3.76419e-09
7.24682e-09
1.62975e-06
3.24446e-09
6.61677e-09
1.63175e-06
2.76288e-09
6.15393e-09
1.63351e-06
2.31078e-09
5.87598e-09
1.63504e-06
1.87773e-09
5.68887e-09
1.57994e-09
5.52221e-09
1.61424e-06
2.14858e-13
3.09211e-09
1.62333e-06
5.12013e-13
8.26869e-09
1.63535e-06
8.6187e-13
1.19395e-08
1.64822e-06
1.50415e-12
1.40719e-08
1.66117e-06
2.66359e-12
1.51147e-08
1.67378e-06
4.28373e-12
1.54296e-08
1.68548e-06
6.99114e-12
1.51804e-08
1.696e-06
1.11537e-11
1.45649e-08
1.70531e-06
1.84228e-11
1.36659e-08
1.71352e-06
3.00532e-11
1.26064e-08
1.72076e-06
4.80064e-11
1.1503e-08
1.7271e-06
7.61555e-11
1.04102e-08
1.73262e-06
1.19941e-10
9.36899e-09
1.73743e-06
1.87083e-10
8.41902e-09
1.74159e-06
2.89439e-10
7.58662e-09
1.74518e-06
4.42313e-10
6.89177e-09
1.74827e-06
6.6443e-10
6.34567e-09
1.75091e-06
9.75233e-10
5.94609e-09
1.75309e-06
1.39098e-09
5.66876e-09
1.89217e-09
5.51518e-09
1.61424e-06
-2.36653e-09
3.09193e-09
1.62333e-06
-6.23859e-09
8.26818e-09
1.63536e-06
-8.86964e-09
1.19385e-08
1.64822e-06
-1.03352e-08
1.407e-08
1.66118e-06
-1.08717e-08
1.51111e-08
1.67379e-06
-1.06995e-08
1.5424e-08
1.6855e-06
-1.00456e-08
1.51724e-08
1.69604e-06
-9.17029e-09
1.45525e-08
1.70537e-06
-8.21213e-09
1.36456e-08
1.71361e-06
-7.2749e-09
1.25742e-08
1.72091e-06
-6.40214e-09
1.14518e-08
1.72733e-06
-5.60436e-09
1.03286e-08
1.73298e-06
-4.87437e-09
9.23895e-09
1.73797e-06
-4.19422e-09
8.21386e-09
1.7424e-06
-3.54126e-09
7.26758e-09
1.74634e-06
-2.89167e-09
6.40579e-09
1.74988e-06
-2.21613e-09
5.62942e-09
1.75306e-06
-1.46514e-09
4.93055e-09
1.75587e-06
-5.97046e-10
4.30863e-09
3.50775e-10
3.84548e-09
1.53313e-06
-4.579e-09
3.64931e-09
1.54219e-06
-1.1919e-08
9.63064e-09
1.5533e-06
-1.64445e-08
1.36782e-08
1.56448e-06
-1.85458e-08
1.59013e-08
1.57507e-06
-1.8892e-08
1.68385e-08
1.58465e-06
-1.81423e-08
1.68116e-08
1.59282e-06
-1.65668e-08
1.61466e-08
1.59968e-06
-1.47803e-08
1.50523e-08
1.60553e-06
-1.30823e-08
1.37538e-08
1.61058e-06
-1.15456e-08
1.24062e-08
1.61501e-06
-1.01714e-08
1.1095e-08
1.61898e-06
-8.95155e-09
9.85409e-09
1.62256e-06
-7.87867e-09
8.68808e-09
1.62586e-06
-6.94082e-09
7.58898e-09
1.62894e-06
-6.1115e-09
6.5419e-09
1.63187e-06
-5.36984e-09
5.52632e-09
1.63474e-06
-4.70822e-09
4.52079e-09
1.63755e-06
-4.04994e-09
3.48459e-09
1.6402e-06
-3.27731e-09
2.43117e-09
-2.41894e-09
1.51332e-09
1.37712e-06
-6.10516e-09
4.57868e-09
1.38566e-06
-1.61874e-08
1.19182e-08
1.39418e-06
-2.07066e-08
1.64429e-08
1.40127e-06
-2.20898e-08
1.8543e-08
1.40641e-06
-2.14641e-08
1.88875e-08
1.40949e-06
-1.96829e-08
1.81351e-08
1.41087e-06
-1.72598e-08
1.65546e-08
1.41136e-06
-1.50296e-08
1.47605e-08
1.41147e-06
-1.3149e-08
1.30509e-08
1.41148e-06
-1.15622e-08
1.14949e-08
1.41151e-06
-1.02114e-08
1.00892e-08
1.41164e-06
-9.0586e-09
8.8185e-09
1.41191e-06
-8.08352e-09
7.66468e-09
1.41235e-06
-7.28371e-09
6.59948e-09
1.41297e-06
-6.64647e-09
5.57503e-09
1.41378e-06
-6.17193e-09
4.54482e-09
1.41483e-06
-5.92913e-09
3.44839e-09
1.41604e-06
-5.86611e-09
2.21491e-09
1.41709e-06
-5.77399e-09
8.01516e-10
-6.29571e-09
-4.62697e-10
1.1589e-06
-6.33419e-09
5.28196e-09
1.1657e-06
-1.71307e-08
1.39988e-08
1.16845e-06
-1.86369e-08
1.79737e-08
1.16662e-06
-1.71379e-08
1.91626e-08
1.16224e-06
-1.5331e-08
1.88353e-08
1.1566e-06
-1.37125e-08
1.7463e-08
1.15058e-06
-1.21834e-08
1.55347e-08
1.14475e-06
-1.08285e-08
1.36386e-08
1.13941e-06
-9.66793e-09
1.19283e-08
1.1347e-06
-8.65009e-09
1.03743e-08
1.13062e-06
-7.75631e-09
9.00064e-09
1.12712e-06
-6.97947e-09
7.7978e-09
1.12411e-06
-6.30727e-09
6.73118e-09
1.12152e-06
-5.74193e-09
5.77388e-09
1.11926e-06
-5.31854e-09
4.86904e-09
1.11722e-06
-5.11047e-09
3.96605e-09
1.11528e-06
-5.19452e-09
3.05346e-09
1.11324e-06
-5.63644e-09
2.04129e-09
1.11038e-06
-6.16466e-09
7.42965e-10
-1.30629e-08
-4.86105e-11
8.90373e-07
2.85259e-09
8.82481e-07
1.3409e-08
8.70357e-07
1.7862e-08
8.55122e-07
1.69438e-08
8.40025e-07
1.53086e-08
8.25666e-07
1.4102e-08
8.12084e-07
1.32515e-08
7.99422e-07
1.24486e-08
7.87886e-07
1.15033e-08
7.77531e-07
1.04467e-08
7.68273e-07
9.36181e-09
7.59996e-07
8.27589e-09
7.52576e-07
7.20331e-09
7.45847e-07
6.16524e-09
7.39599e-07
5.17919e-09
7.33559e-07
4.2703e-09
7.27188e-07
3.4562e-09
7.19528e-07
2.68751e-09
7.08885e-07
1.69862e-09
5.93459e-09
1.07431e-06
5.57147e-09
1.06538e-09
1.06823e-06
1.39076e-08
5.58779e-09
1.06137e-06
1.62596e-08
8.46137e-09
1.05339e-06
1.5889e-08
9.02955e-09
1.04516e-06
1.49447e-08
8.59209e-09
1.03738e-06
1.3817e-08
8.06977e-09
1.03018e-06
1.27622e-08
7.68296e-09
1.02353e-06
1.17251e-08
7.36086e-09
1.01726e-06
1.07128e-08
7.05197e-09
1.01131e-06
9.74921e-09
6.63059e-09
1.0058e-06
8.83758e-09
6.00642e-09
1.00081e-06
7.97212e-09
5.25425e-09
9.96352e-07
7.13075e-09
4.44364e-09
9.92448e-07
6.31397e-09
3.58921e-09
9.89134e-07
5.52118e-09
2.67357e-09
9.86485e-07
4.72993e-09
1.58549e-09
9.84585e-07
3.88919e-09
2.2521e-10
9.83414e-07
2.95072e-09
-1.54285e-09
9.82429e-07
1.78976e-09
-3.94874e-09
2.67165e-10
-7.28568e-09
1.32762e-06
4.93407e-09
2.71893e-09
1.3354e-06
1.30129e-08
7.12148e-09
1.34287e-06
1.72118e-08
9.55093e-09
1.34848e-06
1.88697e-08
1.05656e-08
1.35201e-06
1.94132e-08
1.08416e-08
1.35384e-06
1.89404e-08
1.05114e-08
1.35458e-06
1.77972e-08
9.75734e-09
1.35482e-06
1.63078e-08
8.82761e-09
1.35484e-06
1.47282e-08
7.89474e-09
1.35481e-06
1.31855e-08
6.98646e-09
1.35479e-06
1.1764e-08
6.10922e-09
1.35486e-06
1.047e-08
5.26354e-09
1.35505e-06
9.26927e-09
4.45388e-09
1.35538e-06
8.13915e-09
3.67397e-09
1.35591e-06
7.05421e-09
2.86668e-09
1.35667e-06
5.98443e-09
1.97465e-09
1.35771e-06
4.89362e-09
9.31796e-10
1.35898e-06
3.71651e-09
-3.63311e-10
1.36019e-06
2.39617e-09
-2.01728e-09
1.03052e-09
-4.04808e-09
1.53313e-06
3.64934e-09
2.36655e-09
1.54219e-06
9.63065e-09
6.23862e-09
1.5533e-06
1.36781e-08
8.86964e-09
1.56448e-06
1.59013e-08
1.03351e-08
1.57507e-06
1.68384e-08
1.08716e-08
1.58465e-06
1.68115e-08
1.06994e-08
1.59282e-06
1.61466e-08
1.00455e-08
1.59968e-06
1.50523e-08
9.17025e-09
1.60553e-06
1.3754e-08
8.21216e-09
1.61058e-06
1.24064e-08
7.27505e-09
1.61501e-06
1.10954e-08
6.40245e-09
1.61898e-06
9.85455e-09
5.60484e-09
1.62256e-06
8.68846e-09
4.87489e-09
1.62586e-06
7.58927e-09
4.19473e-09
1.62894e-06
6.5425e-09
3.54197e-09
1.63188e-06
5.52737e-09
2.89276e-09
1.63474e-06
4.52204e-09
2.21751e-09
1.63755e-06
3.48565e-09
1.46657e-09
1.6402e-06
2.43133e-09
5.97963e-10
1.51175e-09
-3.51054e-10
1.68027e-06
1.89024e-09
1.89037e-09
1.68934e-06
5.09527e-09
5.09572e-09
1.70179e-06
7.45336e-09
7.45423e-09
1.71575e-06
8.92269e-09
8.92415e-09
1.73014e-06
9.64908e-09
9.65147e-09
1.7442e-06
9.7815e-09
9.7854e-09
1.75746e-06
9.5215e-09
9.52753e-09
1.76961e-06
8.98799e-09
8.99716e-09
1.78056e-06
8.29401e-09
8.30802e-09
1.79035e-06
7.53287e-09
7.55479e-09
1.79908e-06
6.76525e-09
6.79996e-09
1.80686e-06
6.02371e-09
6.07883e-09
1.81378e-06
5.32171e-09
5.40873e-09
1.81995e-06
4.66148e-09
4.79709e-09
1.82545e-06
4.03928e-09
4.2462e-09
1.83039e-06
3.44699e-09
3.7537e-09
1.83489e-06
2.87383e-09
3.30936e-09
1.83905e-06
2.29826e-09
2.8981e-09
1.84296e-06
1.7308e-09
2.47673e-09
1.27984e-09
2.0419e-09
1.7569e-06
5.2888e-14
1.61191e-09
1.76589e-06
6.73561e-14
4.37857e-09
1.77876e-06
4.04612e-14
6.51811e-09
1.79383e-06
2.19492e-14
7.92267e-09
1.80989e-06
9.8065e-15
8.7028e-09
1.82611e-06
-1.54077e-14
8.99464e-09
1.84189e-06
-1.26034e-14
8.92632e-09
1.85683e-06
2.73945e-13
8.61114e-09
1.87066e-06
8.44369e-13
8.12451e-09
1.88327e-06
1.64109e-12
7.5329e-09
1.89464e-06
2.73876e-12
6.89374e-09
1.90482e-06
4.36671e-12
6.2474e-09
1.91388e-06
6.8664e-12
5.62147e-09
1.92192e-06
1.08162e-11
5.03598e-09
1.92902e-06
1.75048e-11
4.50405e-09
1.9353e-06
2.93723e-11
4.03111e-09
1.94085e-06
5.05506e-11
3.61245e-09
1.94578e-06
8.8248e-11
3.22585e-09
1.95023e-06
1.67093e-10
2.78725e-09
2.96927e-10
2.57781e-09
1.7569e-06
-1.89036e-09
1.6118e-09
1.76589e-06
-5.09569e-09
4.37821e-09
1.77876e-06
-7.45426e-09
6.51742e-09
1.79383e-06
-8.92423e-09
7.92145e-09
1.8099e-06
-9.6516e-09
8.70082e-09
1.82611e-06
-9.78554e-09
8.99158e-09
1.84189e-06
-9.52767e-09
8.92185e-09
1.85684e-06
-8.99725e-09
8.60438e-09
1.87068e-06
-8.30805e-09
8.11392e-09
1.88329e-06
-7.55471e-09
7.51628e-09
1.89468e-06
-6.79972e-09
6.8677e-09
1.90488e-06
-6.07838e-09
6.20669e-09
1.91398e-06
-5.40817e-09
5.55821e-09
1.92206e-06
-4.79665e-09
4.93883e-09
1.92923e-06
-4.2459e-09
4.35745e-09
1.93561e-06
-3.75336e-09
3.81528e-09
1.94129e-06
-3.309e-09
3.30567e-09
1.9464e-06
-2.8979e-09
2.80987e-09
1.95109e-06
-2.47707e-09
2.2606e-09
-2.04324e-09
1.99391e-09
1.68027e-06
-3.64973e-09
1.89022e-09
1.68934e-06
-9.63179e-09
5.09527e-09
1.70179e-06
-1.36804e-08
7.45339e-09
1.71575e-06
-1.59054e-08
8.92274e-09
1.73014e-06
-1.68453e-08
9.64914e-09
1.7442e-06
-1.68224e-08
9.78156e-09
1.75746e-06
-1.61629e-08
9.52155e-09
1.76961e-06
-1.50785e-08
8.98801e-09
1.78056e-06
-1.37946e-08
8.29398e-09
1.79035e-06
-1.24713e-08
7.53276e-09
1.79908e-06
-1.12008e-08
6.76503e-09
1.80686e-06
-1.00256e-08
6.02337e-09
1.81378e-06
-8.9655e-09
5.32132e-09
1.81995e-06
-8.03452e-09
4.66117e-09
1.82545e-06
-7.24639e-09
4.0389e-09
1.83039e-06
-6.61615e-09
3.44647e-09
1.83488e-06
-6.15305e-09
2.87335e-09
1.83905e-06
-5.87479e-09
2.2981e-09
1.84296e-06
-5.68745e-09
1.73146e-09
-5.52054e-09
1.2818e-09
1.53313e-06
-4.93434e-09
2.3667e-09
1.54219e-06
-1.30137e-08
6.23898e-09
1.55329e-06
-1.72137e-08
8.87032e-09
1.56447e-06
-1.88742e-08
1.03364e-08
1.57506e-06
-1.94213e-08
1.08736e-08
1.58462e-06
-1.89529e-08
1.07022e-08
1.59278e-06
-1.78161e-08
1.00499e-08
1.59962e-06
-1.63384e-08
9.17732e-09
1.60543e-06
-1.47751e-08
8.22464e-09
1.61042e-06
-1.32615e-08
7.29611e-09
1.61476e-06
-1.18923e-08
6.43713e-09
1.61858e-06
-1.06838e-08
5.66049e-09
1.62194e-06
-9.62376e-09
4.96273e-09
1.6249e-06
-8.72557e-09
4.33359e-09
1.62749e-06
-8.02389e-09
3.76381e-09
1.62975e-06
-7.57841e-09
3.24385e-09
1.63175e-06
-7.46609e-09
2.76202e-09
1.63351e-06
-7.73545e-09
2.30966e-09
1.63504e-06
-8.29108e-09
1.87648e-09
-9.2916e-09
1.5788e-09
1.32762e-06
-5.57147e-09
2.71924e-09
1.33539e-06
-1.39076e-08
7.12232e-09
1.34286e-06
-1.62604e-08
9.55249e-09
1.34847e-06
-1.58914e-08
1.05686e-08
1.35199e-06
-1.49494e-08
1.08472e-08
1.3538e-06
-1.38242e-08
1.05211e-08
1.35452e-06
-1.27735e-08
9.77314e-09
1.35471e-06
-1.17438e-08
8.85481e-09
1.35466e-06
-1.07417e-08
7.94196e-09
1.35451e-06
-9.79586e-09
7.0651e-09
1.3543e-06
-8.91758e-09
6.23876e-09
1.35404e-06
-8.1083e-09
5.47295e-09
1.35373e-06
-7.36591e-09
4.78958e-09
1.35328e-06
-6.72213e-09
4.21555e-09
1.3526e-06
-6.22712e-09
3.7552e-09
1.35154e-06
-5.96994e-09
3.42068e-09
1.34999e-06
-6.13406e-09
3.26832e-09
1.34788e-06
-6.92695e-09
3.34273e-09
1.3449e-06
-8.22573e-09
3.66219e-09
-1.24989e-08
4.53952e-09
1.07431e-06
1.06569e-09
1.06822e-06
5.58886e-09
1.06136e-06
8.46337e-09
1.05338e-06
9.03298e-09
1.04514e-06
8.59855e-09
1.03734e-06
8.08196e-09
1.03011e-06
7.70496e-09
1.02342e-06
7.39921e-09
1.01706e-06
7.11529e-09
1.01098e-06
6.73412e-09
1.00525e-06
6.17597e-09
9.99884e-07
5.53324e-09
9.94815e-07
4.90656e-09
9.89899e-07
4.35985e-09
9.84914e-07
3.93659e-09
9.79502e-07
3.71248e-09
9.72952e-07
3.87286e-09
9.64162e-07
4.55049e-09
9.51467e-07
6.16769e-09
1.1377e-08
1.16914e-06
4.90894e-09
-1.39113e-13
1.16312e-06
1.16144e-08
-6.14143e-13
1.1573e-06
1.42773e-08
-1.38725e-12
1.15201e-06
1.43196e-08
-2.57844e-12
1.14694e-06
1.36752e-08
-4.52548e-12
1.14217e-06
1.28473e-08
-7.98128e-12
1.13797e-06
1.18886e-08
-1.41201e-11
1.1344e-06
1.09555e-08
-2.43731e-11
1.13141e-06
1.0087e-08
-4.12224e-11
1.12878e-06
9.32605e-09
-6.89773e-11
1.12627e-06
8.63898e-09
-1.14453e-10
1.12379e-06
7.92369e-09
-1.88259e-10
1.12135e-06
7.18312e-09
-3.08734e-10
1.11896e-06
6.48762e-09
-5.04808e-10
1.1166e-06
5.84983e-09
-8.20117e-10
1.11423e-06
5.29488e-09
-1.33622e-09
1.1118e-06
4.85576e-09
-2.20018e-09
1.1092e-06
4.54424e-09
-3.48969e-09
1.10643e-06
4.35448e-09
-5.53114e-09
4.5109e-09
-9.27097e-09
1.41518e-06
4.19552e-09
-2.51243e-13
1.42279e-06
1.11187e-08
-7.18076e-13
1.43153e-06
1.50922e-08
-1.28655e-12
1.43982e-06
1.65995e-08
-2.40792e-12
1.44715e-06
1.71932e-08
-4.48402e-12
1.45318e-06
1.7332e-08
-7.80569e-12
1.45801e-06
1.68294e-08
-1.29077e-11
1.46191e-06
1.59095e-08
-2.17831e-11
1.46518e-06
1.47442e-08
-3.71947e-11
1.46804e-06
1.35129e-08
-6.23206e-11
1.4706e-06
1.22969e-08
-1.01982e-10
1.47287e-06
1.10768e-08
-1.6462e-10
1.47488e-06
9.89244e-09
-2.6367e-10
1.47664e-06
8.82296e-09
-4.18657e-10
1.47815e-06
7.86428e-09
-6.63443e-10
1.47945e-06
7.01768e-09
-1.04301e-09
1.48057e-06
6.29055e-09
-1.62622e-09
1.48156e-06
5.67306e-09
-2.48162e-09
1.48244e-06
5.12927e-09
-3.66615e-09
4.69428e-09
-5.15471e-09
1.61424e-06
3.09195e-09
-1.79802e-13
1.62333e-06
8.26819e-09
-4.58908e-13
1.63536e-06
1.19385e-08
-8.54459e-13
1.64822e-06
1.407e-08
-1.54293e-12
1.66118e-06