/*--------------------------------*- C++ -*----------------------------------*\
| =========                 |                                                 |
| \\      /  F ield         | OpenFOAM: The Open Source CFD Toolbox           |
|  \\    /   O peration     | Version:  2212                                  |
|   \\  /    A nd           | Website:  www.openfoam.com                      |
|    \\/     M anipulation  |                                                 |
\*---------------------------------------------------------------------------*/
FoamFile
{
    version     2.0;
    format      ascii;
    arch        "LSB;label=32;scalar=64";
    class       volVectorField;
    location    "0.35";
    object      U;
}
// * * * * * * * * * * * * * * * * * * * * * * * * * * * * * * * * * * * * * //

dimensions      [0 1 -1 0 0 0 0];

internalField   nonuniform List<vector> 
6840
(
(0.0956456 -0.00835996 -0.00835995)
(0.090493 0.00152198 0.00152207)
(0.0790667 0.00242982 0.00243003)
(0.0712997 0.00148826 0.00148864)
(0.0661806 0.000830406 0.000831101)
(0.0623287 0.000562449 0.000563594)
(0.0592333 0.000427079 0.000429482)
(0.0567108 0.000324968 0.000329147)
(0.0545959 0.000252352 0.000259215)
(0.0527814 0.000198778 0.000209853)
(0.0512029 0.000156028 0.000173806)
(0.049826 0.00011897 0.000147583)
(0.0486308 8.40232e-05 0.000130488)
(0.0475859 4.77035e-05 0.000124026)
(0.0467088 1.61015e-05 0.000127104)
(0.0459789 -3.51725e-05 0.000139027)
(0.0454048 -0.000124016 0.000178973)
(0.0450903 -0.000294209 0.00025005)
(0.0454832 -0.000562872 0.000287423)
(0.0448153 -0.00314097 -0.00137474)
(0.0999089 0.00129698 0.000712689)
(0.0969663 0.00365587 0.00274781)
(0.0935334 0.0026401 0.00211873)
(0.0895889 0.00181942 0.00161973)
(0.085836 0.00152561 0.00138692)
(0.0826005 0.0013469 0.00115505)
(0.0798891 0.0011725 0.000886316)
(0.0776155 0.00102783 0.000672924)
(0.0756475 0.000921208 0.000530348)
(0.0739086 0.000830108 0.00043724)
(0.0723563 0.000741537 0.000375137)
(0.0709685 0.000651393 0.000334299)
(0.069731 0.000556328 0.000308165)
(0.0686226 0.000451798 0.000294092)
(0.0676488 0.000330351 0.000292848)
(0.0667832 0.000191099 0.000310674)
(0.0659812 2.65688e-06 0.000343707)
(0.0652809 -0.00030645 0.00037154)
(0.0648043 -0.00099898 0.000267271)
(0.0639507 -0.00250214 0.000212351)
(0.0994131 0.000345199 0.000270398)
(0.0988659 0.0020191 0.00187553)
(0.0979209 0.00257231 0.00218915)
(0.0963665 0.00237859 0.00190728)
(0.094636 0.00211113 0.00162313)
(0.0929806 0.00191912 0.00140825)
(0.0913869 0.00178605 0.00124838)
(0.0899048 0.00167863 0.00111696)
(0.0885528 0.00156232 0.00100001)
(0.0873301 0.00142851 0.000894248)
(0.086236 0.00128315 0.000799952)
(0.0852595 0.0011327 0.000718843)
(0.0843858 0.000979723 0.000650668)
(0.0836002 0.000823524 0.000596553)
(0.0828825 0.00066598 0.000562597)
(0.0822043 0.000510899 0.000560745)
(0.0815239 0.000341305 0.000602084)
(0.0807544 0.000119844 0.000708039)
(0.0798024 -0.000233016 0.000831733)
(0.0788073 9.68555e-06 0.00236745)
(0.0995406 0.000245052 0.000322191)
(0.0992569 0.00105557 0.00154236)
(0.0988474 0.00150187 0.00211416)
(0.0981236 0.0015781 0.00208934)
(0.0973387 0.00151101 0.00188075)
(0.0965925 0.00144004 0.00165451)
(0.0958822 0.00139823 0.00147496)
(0.0952342 0.00135677 0.00132488)
(0.0946449 0.00129317 0.00120163)
(0.0940532 0.00120133 0.00110065)
(0.0934985 0.00108587 0.00100768)
(0.0929839 0.000959346 0.000917882)
(0.0925021 0.0008331 0.000832784)
(0.092042 0.000714908 0.000757407)
(0.0915871 0.000607339 0.000699064)
(0.0911135 0.000514336 0.000668115)
(0.0905736 0.000452148 0.000689767)
(0.0898748 0.000431171 0.000799935)
(0.0889136 0.000462282 0.000957864)
(0.0878217 0.000857919 0.00152227)
(0.0993803 3.38008e-05 5.92366e-05)
(0.0992673 0.000274363 0.00120101)
(0.0989801 0.000432347 0.00188911)
(0.0984735 0.000483259 0.00200508)
(0.0979953 0.000478139 0.00190852)
(0.097576 0.000463467 0.00172147)
(0.0971936 0.000448185 0.00152512)
(0.0968541 0.000434171 0.00135103)
(0.0965705 0.000424686 0.00120683)
(0.0963401 0.000414754 0.00109552)
(0.0961122 0.000395457 0.00100852)
(0.0958816 0.000368004 0.000930302)
(0.0956528 0.000340179 0.000854707)
(0.0954189 0.000320774 0.000783337)
(0.0951697 0.000318541 0.000721877)
(0.0948936 0.000346004 0.000678308)
(0.0945763 0.000428328 0.000665718)
(0.0941899 0.00056988 0.000702145)
(0.0937009 0.000848342 0.000788762)
(0.0932873 0.00150003 0.00103955)
(0.0993802 -3.37575e-05 5.91873e-05)
(0.0992673 -0.000274151 0.00120095)
(0.0989801 -0.000431888 0.00188909)
(0.0984738 -0.00048249 0.00200502)
(0.0979958 -0.000476842 0.00190834)
(0.0975771 -0.000461207 0.0017211)
(0.0971955 -0.000444228 0.00152457)
(0.0968574 -0.000427433 0.00135011)
(0.0965761 -0.000413395 0.00120522)
(0.0963497 -0.000395993 0.00109271)
(0.0961287 -0.000364484 0.00100376)
(0.0959091 -0.00031718 0.000922401)
(0.0956985 -0.000256894 0.000841676)
(0.0954937 -0.000184618 0.000762322)
(0.0952924 -9.65431e-05 0.000686948)
(0.0950914 1.73392e-05 0.000622062)
(0.0948891 0.000174272 0.000573831)
(0.094674 0.000394874 0.000544739)
(0.0944374 0.000709765 0.000538575)
(0.0942496 0.00116503 0.000609638)
(0.0995406 -0.000245031 0.000322189)
(0.099257 -0.00105547 0.00154236)
(0.0988477 -0.00150169 0.00211405)
(0.0981242 -0.00157779 0.00208916)
(0.0973401 -0.00151038 0.00188046)
(0.0965951 -0.0014388 0.00165404)
(0.0958867 -0.00139605 0.00147432)
(0.0952423 -0.00135301 0.00132367)
(0.0946588 -0.00128739 0.00119898)
(0.0940767 -0.00119238 0.00109588)
(0.0935379 -0.00107162 0.00099956)
(0.0930498 -0.000936114 0.000904244)
(0.0926116 -0.000794109 0.00080972)
(0.0922245 -0.000648383 0.000718102)
(0.0918892 -0.000499768 0.000630333)
(0.091611 -0.00032492 0.00054566)
(0.0913972 -0.000109626 0.000458117)
(0.0912551 0.000174472 0.000369724)
(0.091177 0.000578489 0.000267325)
(0.0910571 0.00120196 0.000125048)
(0.0994131 -0.000345213 0.000270392)
(0.098866 -0.00201916 0.00187546)
(0.0979212 -0.00257245 0.00218893)
(0.0963672 -0.00237887 0.0019069)
(0.0946373 -0.00211161 0.00162262)
(0.0929831 -0.00191992 0.00140746)
(0.0913914 -0.00178727 0.00124705)
(0.0899127 -0.00168067 0.00111474)
(0.0885665 -0.00156581 0.000996397)
(0.0873531 -0.00143432 0.000888253)
(0.0862744 -0.00129249 0.0007898)
(0.0853236 -0.00114738 0.000701616)
(0.0844933 -0.00100227 0.000621128)
(0.0837817 -0.000857025 0.000544485)
(0.0831905 -0.00071554 0.000470877)
(0.0827316 -0.000582743 0.000398233)
(0.0824355 -0.000436951 0.000310922)
(0.0823655 -0.000207485 0.000137687)
(0.0826097 0.000240851 -0.0001426)
(0.0823216 0.00128552 -0.000856405)
(0.0999089 -0.00129699 0.000712667)
(0.0969663 -0.00365601 0.00274774)
(0.0935335 -0.00264031 0.00211855)
(0.0895892 -0.0018198 0.00161936)
(0.0858365 -0.00152645 0.0013864)
(0.0826015 -0.00134827 0.00115409)
(0.0798908 -0.00117511 0.000884697)
(0.0776188 -0.00103239 0.000670198)
(0.0756533 -0.000929107 0.000525806)
(0.0739185 -0.000843573 0.000429779)
(0.0723731 -0.000764032 0.000362966)
(0.0709972 -0.000688501 0.00031444)
(0.0697804 -0.000617059 0.000275541)
(0.0687084 -0.000550875 0.000239682)
(0.067801 -0.00049893 0.000198023)
(0.0670554 -0.000455556 0.000147123)
(0.0664775 -0.000428677 6.29431e-05)
(0.0662545 -0.000392055 -0.000153855)
(0.0667723 -0.000350327 -0.000458809)
(0.0650782 0.000128014 -0.00133366)
(0.0956456 0.00835995 -0.00835995)
(0.090493 -0.00152205 0.00152199)
(0.0790667 -0.00243 0.00242986)
(0.0712997 -0.00148861 0.0014883)
(0.0661806 -0.000831076 0.000830457)
(0.0623287 -0.000563566 0.000562502)
(0.0592333 -0.000429454 0.000427148)
(0.0567109 -0.000329112 0.000325036)
(0.0545959 -0.000259173 0.000252424)
(0.0527814 -0.000209814 0.000198859)
(0.051203 -0.000173742 0.000156083)
(0.0498261 -0.00014749 0.000118983)
(0.0486308 -0.000130433 8.40488e-05)
(0.047586 -0.000124018 4.77688e-05)
(0.0467089 -0.000127064 1.61565e-05)
(0.0459791 -0.000138907 -3.5118e-05)
(0.0454051 -0.000178899 -0.000123938)
(0.045091 -0.000250004 -0.000294142)
(0.0454836 -0.000287413 -0.000562878)
(0.0448156 0.00137466 -0.00314094)
(0.0999089 0.000712668 0.001297)
(0.0969663 0.00274771 0.00365601)
(0.0935335 0.00211853 0.00264032)
(0.0895892 0.00161933 0.00181984)
(0.0858365 0.00138636 0.00152647)
(0.0826015 0.00115404 0.0013483)
(0.0798908 0.000884645 0.00117515)
(0.0776187 0.000670145 0.00103243)
(0.0756532 0.000525761 0.00092918)
(0.0739184 0.000429742 0.000843667)
(0.072373 0.00036293 0.000764126)
(0.0709971 0.000314385 0.000688582)
(0.0697801 0.000275471 0.000617147)
(0.0687081 0.00023966 0.000550971)
(0.0678007 0.000198053 0.000499019)
(0.0670551 0.000147133 0.000455712)
(0.066477 6.28993e-05 0.000428857)
(0.0662539 -0.00015394 0.000392272)
(0.0667715 -0.000458965 0.000350397)
(0.0650775 -0.00133417 -0.000128162)
(0.100226 0.000720935 0.000720968)
(0.0999599 0.00198253 0.00198268)
(0.0997826 0.00245121 0.00245157)
(0.09879 0.0024183 0.00241893)
(0.0972785 0.00219812 0.00219909)
(0.095781 0.00180782 0.0018096)
(0.0944083 0.00137678 0.00137972)
(0.0931939 0.0010614 0.00106639)
(0.0921295 0.000840802 0.000849285)
(0.0911993 0.000682737 0.000696927)
(0.0903912 0.000565747 0.000589161)
(0.089693 0.000474331 0.00051276)
(0.0890936 0.00039618 0.000459228)
(0.0885863 0.000326864 0.000430709)
(0.0881578 0.000249008 0.000420644)
(0.0878168 0.000131156 0.000417383)
(0.0875719 -3.39477e-05 0.000439733)
(0.0873941 -0.000310955 0.000462564)
(0.0872132 -0.00087605 0.00034188)
(0.0870801 -0.00226635 -0.000356405)
(0.10014 0.000775079 0.000869587)
(0.100454 0.0019624 0.00196424)
(0.100911 0.00242692 0.0023347)
(0.100979 0.00252435 0.00243975)
(0.100696 0.00242115 0.00233252)
(0.100228 0.00218808 0.0021026)
(0.0997156 0.00190028 0.00180422)
(0.099196 0.00163872 0.0015407)
(0.0987089 0.00142189 0.00133391)
(0.0982712 0.0012353 0.00116868)
(0.0978902 0.00107159 0.00103523)
(0.0975639 0.000925702 0.000927912)
(0.0972846 0.000792493 0.000843628)
(0.0970453 0.000666357 0.00078244)
(0.0968362 0.000537629 0.000745145)
(0.0966513 0.000395612 0.00073612)
(0.0964844 0.000228154 0.000773378)
(0.0963074 1.2642e-05 0.000856727)
(0.096113 -0.000283582 0.000958157)
(0.0961616 -0.000528751 0.00118765)
(0.100093 0.000445968 0.000763628)
(0.100504 0.00119441 0.00174971)
(0.101105 0.00158635 0.00212953)
(0.101634 0.00173882 0.00223173)
(0.101979 0.00177793 0.00227649)
(0.102174 0.00171993 0.00221465)
(0.102257 0.00159085 0.00207899)
(0.102287 0.00143339 0.00190493)
(0.102292 0.00127139 0.00171606)
(0.102281 0.00111153 0.00153218)
(0.102264 0.0009636 0.00137277)
(0.102247 0.000831396 0.00123892)
(0.102226 0.000713446 0.00112471)
(0.102198 0.000608514 0.001031)
(0.102159 0.000513352 0.000963037)
(0.102094 0.00042552 0.000931516)
(0.101997 0.000345926 0.00095408)
(0.101855 0.000273766 0.00104005)
(0.101671 0.000204 0.00117853)
(0.101757 0.000195417 0.00139087)
(0.100087 0.000144457 0.000707422)
(0.100477 0.000390615 0.00161842)
(0.101066 0.000541106 0.00203424)
(0.101695 0.000609831 0.00211451)
(0.10227 0.000635271 0.00213997)
(0.102742 0.00062477 0.00215664)
(0.103123 0.0005891 0.00209195)
(0.103424 0.000539222 0.00197574)
(0.103673 0.000489493 0.00183273)
(0.103887 0.00044408 0.00168538)
(0.104072 0.000400745 0.00154052)
(0.104234 0.00035774 0.00139139)
(0.104373 0.000320154 0.00124822)
(0.104486 0.000294338 0.00112945)
(0.104572 0.000282916 0.00103554)
(0.104628 0.000289643 0.000970256)
(0.104649 0.000324799 0.000941107)
(0.104637 0.000395347 0.000955786)
(0.104611 0.0005097 0.00100056)
(0.104744 0.000677904 0.00107581)
(0.100087 -0.000144388 0.000707414)
(0.100477 -0.000390408 0.0016184)
(0.101066 -0.000540759 0.00203424)
(0.101695 -0.00060923 0.00211443)
(0.10227 -0.000634166 0.00213963)
(0.102743 -0.000622831 0.00215598)
(0.103125 -0.000585906 0.00209095)
(0.103427 -0.000533808 0.00197421)
(0.103678 -0.000480166 0.0018304)
(0.103894 -0.000428416 0.00168163)
(0.104085 -0.000375161 0.00153483)
(0.104254 -0.000316591 0.00138228)
(0.104406 -0.000254427 0.00123236)
(0.104539 -0.000189887 0.00110255)
(0.104655 -0.000116756 0.000990443)
(0.104754 -2.74967e-05 0.000895085)
(0.104838 8.59687e-05 0.000818204)
(0.104911 0.000235519 0.000759945)
(0.104982 0.000427752 0.000714827)
(0.105132 0.000652645 0.000681886)
(0.100093 -0.000445957 0.000763615)
(0.100504 -0.00119439 0.00174967)
(0.101105 -0.0015863 0.00212938)
(0.101635 -0.00173868 0.00223119)
(0.101981 -0.00177767 0.00227542)
(0.102177 -0.00171951 0.0022131)
(0.102261 -0.00159009 0.00207667)
(0.102293 -0.00143202 0.00190121)
(0.102302 -0.00126908 0.00171078)
(0.102298 -0.001108 0.00152374)
(0.102293 -0.0009577 0.00135808)
(0.102294 -0.000821774 0.00121397)
(0.102304 -0.000697989 0.0010826)
(0.102323 -0.000582472 0.000959869)
(0.102354 -0.000466843 0.000842779)
(0.102402 -0.000343856 0.000728736)
(0.102469 -0.000204452 0.000612584)
(0.102556 -3.30081e-05 0.000483909)
(0.102666 0.000189972 0.00033154)
(0.102822 0.000475685 0.000160078)
(0.10014 -0.000775112 0.000869544)
(0.100454 -0.0019625 0.00196405)
(0.100912 -0.00242712 0.00233426)
(0.100979 -0.00252478 0.00243899)
(0.100696 -0.00242189 0.00233134)
(0.10023 -0.00218939 0.002101)
(0.0997183 -0.00190239 0.00180174)
(0.0992007 -0.00164209 0.00153627)
(0.0987172 -0.00142777 0.00132646)
(0.0982854 -0.00124535 0.00115643)
(0.0979139 -0.00108815 0.00101496)
(0.0976028 -0.000952382 0.000894194)
(0.0973481 -0.00083478 0.000787289)
(0.0971479 -0.000732814 0.000687858)
(0.0970017 -0.000641791 0.000585393)
(0.096916 -0.000555837 0.000465525)
(0.0969018 -0.00047151 0.000312876)
(0.0969451 -0.000361789 8.71137e-05)
(0.0970327 -0.000174267 -0.00025371)
(0.0971326 0.000170061 -0.000737407)
(0.100226 -0.000720972 0.00072094)
(0.0999599 -0.00198265 0.00198253)
(0.0997826 -0.00245157 0.00245125)
(0.09879 -0.00241892 0.00241834)
(0.0972785 -0.00219908 0.00219816)
(0.095781 -0.00180959 0.00180788)
(0.0944083 -0.00137971 0.00137684)
(0.0931939 -0.00106638 0.00106145)
(0.0921295 -0.000849265 0.000840857)
(0.0911994 -0.000696893 0.000682786)
(0.0903913 -0.0005891 0.000565778)
(0.0896931 -0.000512661 0.000474325)
(0.0890938 -0.000459123 0.00039616)
(0.0885866 -0.000430647 0.000326892)
(0.0881581 -0.000420606 0.000249084)
(0.0878171 -0.000417367 0.000131274)
(0.0875723 -0.000439701 -3.38284e-05)
(0.0873946 -0.00046265 -0.000310757)
(0.0872137 -0.000342076 -0.000875848)
(0.0870808 0.000356268 -0.00226624)
(0.0999089 -0.000712683 0.00129698)
(0.0969663 -0.00274781 0.00365588)
(0.0935334 -0.00211873 0.00264011)
(0.0895889 -0.00161973 0.00181945)
(0.085836 -0.00138693 0.00152564)
(0.0826005 -0.00115506 0.00134693)
(0.0798891 -0.000886325 0.00117255)
(0.0776155 -0.00067293 0.00102789)
(0.0756476 -0.000530348 0.000921278)
(0.0739086 -0.000437231 0.00083018)
(0.0723563 -0.000375123 0.000741622)
(0.0709686 -0.000334291 0.000651479)
(0.0697311 -0.000308151 0.00055636)
(0.0686229 -0.000294011 0.000451765)
(0.0676491 -0.000292716 0.000330358)
(0.0667835 -0.000310581 0.000191192)
(0.0659815 -0.000343705 2.73883e-06)
(0.0652811 -0.000371617 -0.000306436)
(0.0648046 -0.000267463 -0.000998999)
(0.0639509 -0.000212551 -0.00250228)
(0.0994131 0.000270389 0.00034521)
(0.098866 0.00187545 0.00201917)
(0.0979212 0.00218892 0.00257248)
(0.0963672 0.00190687 0.0023789)
(0.0946373 0.00162259 0.00211164)
(0.0929831 0.00140743 0.00191996)
(0.0913914 0.00124701 0.00178731)
(0.0899127 0.0011147 0.00168072)
(0.0885665 0.000996362 0.00156587)
(0.087353 0.000888227 0.00143439)
(0.0862743 0.000789786 0.00129258)
(0.0853234 0.000701604 0.00114748)
(0.0844931 0.000621085 0.00100236)
(0.0837814 0.00054443 0.000857117)
(0.0831902 0.000470894 0.000715686)
(0.0827311 0.000398309 0.000583003)
(0.0824346 0.00031104 0.000437361)
(0.0823643 0.000137783 0.000208104)
(0.0826082 -0.000142664 -0.00024032)
(0.0823197 -0.000856706 -0.00128517)
(0.10014 0.000869542 0.000775113)
(0.100454 0.00196403 0.00196251)
(0.100912 0.00233424 0.00242713)
(0.100979 0.00243896 0.00252479)
(0.100696 0.00233131 0.00242189)
(0.10023 0.00210096 0.0021894)
(0.0997183 0.0018017 0.00190239)
(0.0992006 0.00153624 0.0016421)
(0.0987172 0.00132644 0.0014278)
(0.0982854 0.00115642 0.00124539)
(0.0979138 0.00101497 0.00108822)
(0.0976027 0.000894212 0.000952479)
(0.097348 0.000787262 0.000834859)
(0.0971477 0.000687782 0.000732863)
(0.0970015 0.000585351 0.00064186)
(0.0969157 0.000465545 0.000555956)
(0.0969015 0.000312925 0.00047167)
(0.0969446 8.71403e-05 0.000361975)
(0.097032 -0.000253816 0.000174386)
(0.0971316 -0.000737797 -0.00017006)
(0.10006 0.000641611 0.00064167)
(0.100502 0.00164527 0.00164547)
(0.101149 0.002212 0.00221238)
(0.101739 0.00243773 0.00243839)
(0.102205 0.00243631 0.00243739)
(0.102501 0.00230269 0.00230441)
(0.102642 0.00207213 0.00207498)
(0.102707 0.0018323 0.0018369)
(0.102724 0.00161202 0.00161957)
(0.102724 0.00141684 0.0014292)
(0.102723 0.00124315 0.0012633)
(0.102728 0.00108625 0.00111901)
(0.102742 0.000941916 0.00099499)
(0.102768 0.000805385 0.000891009)
(0.102805 0.000669016 0.000806142)
(0.102857 0.000523932 0.000740852)
(0.102925 0.000359884 0.00069805)
(0.103005 0.000164964 0.000669443)
(0.103102 -7.09869e-05 0.000636072)
(0.103285 -0.000295341 0.000598859)
(0.100046 0.000395806 0.000540482)
(0.10048 0.00104486 0.00138425)
(0.101155 0.00147486 0.001922)
(0.101914 0.00170364 0.00218876)
(0.102633 0.00177641 0.00228458)
(0.1033 0.00173696 0.00225983)
(0.103885 0.00161982 0.00215385)
(0.10437 0.00146738 0.00199735)
(0.10478 0.00130777 0.00182319)
(0.10513 0.00115455 0.00164985)
(0.105433 0.00101257 0.00148611)
(0.105699 0.000883129 0.00133607)
(0.105932 0.00076544 0.00120212)
(0.106138 0.000657064 0.00108669)
(0.106319 0.000554541 0.000993355)
(0.106475 0.000454407 0.000926981)
(0.106614 0.000350816 0.000890492)
(0.106737 0.000240567 0.000889336)
(0.106854 0.000124237 0.000909774)
(0.107057 2.9696e-05 0.000949422)
(0.100039 0.000131377 0.000478887)
(0.100449 0.000350514 0.00123456)
(0.101115 0.000504927 0.00174482)
(0.101911 0.000596574 0.0020218)
(0.102729 0.000636871 0.00214101)
(0.103527 0.000635009 0.00216502)
(0.10429 0.000599468 0.00211634)
(0.104984 0.000552155 0.00202024)
(0.105597 0.000498439 0.0018876)
(0.106139 0.000444443 0.00173768)
(0.106618 0.000394154 0.0015861)
(0.107038 0.000349118 0.00143811)
(0.107406 0.000309952 0.0012978)
(0.107725 0.000276932 0.00117035)
(0.108002 0.000250473 0.00106013)
(0.108242 0.000231219 0.000971279)
(0.108447 0.000220919 0.000906782)
(0.108623 0.000219308 0.00086654)
(0.108785 0.000227621 0.000846687)
(0.109007 0.000250094 0.000847517)
(0.100039 -0.000131329 0.000478867)
(0.100449 -0.000350393 0.00123449)
(0.101115 -0.000504723 0.00174469)
(0.101911 -0.000596236 0.00202157)
(0.10273 -0.000636295 0.00214058)
(0.103528 -0.000634074 0.00216431)
(0.104291 -0.000597879 0.00211526)
(0.104986 -0.000549588 0.00201853)
(0.105599 -0.000494217 0.00188479)
(0.106144 -0.000437539 0.00173321)
(0.106625 -0.000383061 0.00157894)
(0.10705 -0.000331478 0.00142653)
(0.107423 -0.000282151 0.00127908)
(0.107752 -0.00023346 0.00114033)
(0.108043 -0.000183006 0.00101263)
(0.108301 -0.000127909 0.000897407)
(0.108532 -6.48022e-05 0.000795336)
(0.108739 1.10731e-05 0.000705363)
(0.108935 0.00010092 0.000626097)
(0.109163 0.000196779 0.000567038)
(0.100046 -0.00039582 0.000540428)
(0.10048 -0.0010449 0.00138409)
(0.101155 -0.00147495 0.00192167)
(0.101915 -0.00170376 0.00218817)
(0.102633 -0.00177662 0.00228357)
(0.103301 -0.00173736 0.00225818)
(0.103887 -0.00162058 0.00215132)
(0.104372 -0.00146863 0.00199319)
(0.104785 -0.00130954 0.00181672)
(0.105138 -0.00115726 0.00163943)
(0.105446 -0.00101684 0.00146902)
(0.105719 -0.000889963 0.00130805)
(0.105964 -0.000776428 0.00115626)
(0.106188 -0.000674394 0.00101204)
(0.106395 -0.000580485 0.00087336)
(0.106591 -0.000491422 0.000737021)
(0.106779 -0.000403937 0.000599618)
(0.106963 -0.000310907 0.000456409)
(0.107153 -0.000204138 0.00030756)
(0.107376 -8.58753e-05 0.000177743)
(0.10006 -0.000641669 0.000641611)
(0.100502 -0.00164546 0.00164528)
(0.101149 -0.00221238 0.00221201)
(0.101739 -0.0024384 0.00243774)
(0.102205 -0.0024374 0.00243633)
(0.102501 -0.00230442 0.0023027)
(0.102642 -0.00207499 0.00207214)
(0.102707 -0.00183691 0.00183231)
(0.102724 -0.00161957 0.00161202)
(0.102724 -0.00142918 0.00141683)
(0.102723 -0.00126325 0.00124312)
(0.102728 -0.00111891 0.00108619)
(0.102742 -0.000994859 0.000941831)
(0.102768 -0.000890908 0.000805337)
(0.102806 -0.000806077 0.000669003)
(0.102857 -0.000740784 0.000523907)
(0.102926 -0.000697969 0.000359839)
(0.103005 -0.000669352 0.00016491)
(0.103103 -0.000635983 -7.09871e-05)
(0.103285 -0.000598677 -0.000295247)
(0.10014 -0.000869585 0.000775078)
(0.100454 -0.00196423 0.00196241)
(0.100911 -0.0023347 0.00242693)
(0.100979 -0.00243976 0.00252437)
(0.100696 -0.00233253 0.00242117)
(0.100228 -0.00210261 0.0021881)
(0.0997156 -0.00180424 0.0019003)
(0.099196 -0.00154072 0.00163874)
(0.0987089 -0.00133391 0.0014219)
(0.0982712 -0.00116867 0.00123531)
(0.0978903 -0.0010352 0.00107159)
(0.097564 -0.000927844 0.000925669)
(0.0972847 -0.000843519 0.000792427)
(0.0970454 -0.000782334 0.000666305)
(0.0968364 -0.000745067 0.000537624)
(0.0966515 -0.000736061 0.000395639)
(0.0964847 -0.000773368 0.000228198)
(0.0963077 -0.000856814 1.27076e-05)
(0.0961135 -0.00095838 -0.000283442)
(0.0961623 -0.00118787 -0.000528591)
(0.0994131 -0.000270396 0.000345194)
(0.0988659 -0.00187552 0.00201909)
(0.0979209 -0.00218915 0.0025723)
(0.0963665 -0.00190727 0.00237859)
(0.094636 -0.00162314 0.00211113)
(0.0929807 -0.00140825 0.00191912)
(0.0913869 -0.00124839 0.00178605)
(0.0899048 -0.00111696 0.00167863)
(0.0885529 -0.00100001 0.00156232)
(0.0873301 -0.000894241 0.00142851)
(0.086236 -0.000799932 0.00128316)
(0.0852596 -0.000718808 0.00113269)
(0.0843859 -0.000650622 0.000979714)
(0.0836003 -0.000596501 0.000823514)
(0.0828827 -0.000562519 0.000665987)
(0.0822045 -0.000560609 0.000510917)
(0.0815242 -0.000601954 0.000341223)
(0.0807547 -0.000708078 0.000119677)
(0.0798026 -0.000832034 -0.000233085)
(0.0788071 -0.0023677 9.88027e-06)
(0.0995406 0.000322189 0.00024503)
(0.099257 0.00154235 0.00105548)
(0.0988477 0.00211404 0.00150172)
(0.0981242 0.00208914 0.00157783)
(0.0973401 0.00188044 0.00151042)
(0.0965951 0.00165403 0.00143885)
(0.0958867 0.00147431 0.00139612)
(0.0952423 0.00132367 0.00135309)
(0.0946588 0.00119898 0.00128748)
(0.0940767 0.00109589 0.0011925)
(0.0935379 0.000999608 0.00107178)
(0.0930496 0.000904335 0.000936316)
(0.0926113 0.00080988 0.00079437)
(0.0922239 0.000718298 0.000648692)
(0.0918885 0.000630532 0.000500115)
(0.0916101 0.000545845 0.000325462)
(0.0913962 0.00045827 0.00011023)
(0.0912539 0.000369825 -0.000173852)
(0.0911757 0.000267357 -0.000577802)
(0.0910557 0.000124992 -0.00120116)
(0.100093 0.000763613 0.000445959)
(0.100504 0.00174967 0.0011944)
(0.101105 0.00212936 0.00158631)
(0.101635 0.00223118 0.00173869)
(0.101981 0.00227541 0.00177768)
(0.102176 0.00221309 0.00171952)
(0.102261 0.00207666 0.0015901)
(0.102293 0.00190121 0.00143204)
(0.102302 0.00171079 0.00126912)
(0.102298 0.00152376 0.00110805)
(0.102293 0.00135812 0.000957779)
(0.102294 0.00121402 0.000821871)
(0.102304 0.00108254 0.00069802)
(0.102323 0.000959817 0.000582491)
(0.102354 0.000842931 0.000467007)
(0.102402 0.00072898 0.000344141)
(0.102469 0.000612834 0.000204814)
(0.102556 0.000484113 3.34179e-05)
(0.102666 0.000331588 -0.000189575)
(0.102822 0.000159827 -0.000475392)
(0.100046 0.000540429 0.000395821)
(0.10048 0.00138408 0.00104491)
(0.101155 0.00192167 0.00147495)
(0.101915 0.00218816 0.00170375)
(0.102633 0.00228357 0.00177661)
(0.103301 0.00225817 0.00173735)
(0.103887 0.00215132 0.00162057)
(0.104372 0.0019932 0.00146863)
(0.104785 0.00181674 0.00130954)
(0.105138 0.00163945 0.00115728)
(0.105446 0.00146907 0.00101689)
(0.105719 0.00130811 0.000890037)
(0.105964 0.00115631 0.000776513)
(0.106188 0.00101207 0.000674459)
(0.106395 0.000873435 0.000580559)
(0.106591 0.000737158 0.000491543)
(0.106779 0.000599788 0.000404104)
(0.106963 0.000456562 0.000311097)
(0.107153 0.000307592 0.000204291)
(0.107376 0.000177525 8.59159e-05)
(0.100036 0.000323031 0.000323069)
(0.100429 0.000868049 0.000868165)
(0.10108 0.00126066 0.00126088)
(0.101891 0.00150059 0.00150097)
(0.102753 0.00161465 0.00161526)
(0.103608 0.0016303 0.00163126)
(0.104432 0.00158332 0.00158478)
(0.105192 0.00149108 0.00149338)
(0.105881 0.00137316 0.0013768)
(0.106499 0.00124491 0.0012507)
(0.10705 0.00111601 0.00112528)
(0.107541 0.000991565 0.00100634)
(0.107978 0.000873546 0.000896939)
(0.108367 0.000762109 0.000798712)
(0.108714 0.000656235 0.00071252)
(0.109024 0.000554302 0.000638573)
(0.109303 0.000454602 0.000576498)
(0.109559 0.000352945 0.000525472)
(0.109807 0.000252361 0.000478163)
(0.110074 0.000166952 0.000427714)
(0.100031 0.000107017 0.000281179)
(0.100395 0.000292757 0.000767716)
(0.101024 0.000433351 0.00113077)
(0.101842 0.000524707 0.0013644)
(0.102746 0.000573465 0.00149252)
(0.103678 0.000586691 0.00153912)
(0.104596 0.000574309 0.00152544)
(0.105478 0.000545166 0.00147126)
(0.106302 0.00050533 0.0013877)
(0.107056 0.000460569 0.00128584)
(0.10774 0.000414843 0.00117594)
(0.108354 0.000370448 0.00106492)
(0.108902 0.000328501 0.000957695)
(0.109388 0.000289392 0.000858088)
(0.109818 0.00025312 0.000768602)
(0.110198 0.000219414 0.000690706)
(0.110533 0.000187756 0.000624846)
(0.11083 0.000157504 0.000570145)
(0.111107 0.000130703 0.000523853)
(0.111397 0.000117012 0.000482453)
(0.100031 -0.00010701 0.000281159)
(0.100395 -0.000292749 0.000767657)
(0.101024 -0.000433354 0.00113066)
(0.101842 -0.000524719 0.00136419)
(0.102747 -0.000573488 0.00149216)
(0.103678 -0.000586739 0.00153858)
(0.104597 -0.000574381 0.00152468)
(0.105478 -0.000545199 0.00147009)
(0.106302 -0.000505283 0.00138583)
(0.107058 -0.00046042 0.00128287)
(0.107742 -0.000414562 0.00117125)
(0.108357 -0.000369982 0.00105754)
(0.108906 -0.000327748 0.00094614)
(0.109395 -0.000288159 0.000840217)
(0.109828 -0.000250976 0.000741422)
(0.110213 -0.000215427 0.00065035)
(0.110554 -0.0001801 0.000566981)
(0.11086 -0.000142936 0.000490609)
(0.111146 -0.000101369 0.000421217)
(0.111435 -6.05266e-05 0.00036502)
(0.100036 -0.000323068 0.000323029)
(0.100429 -0.000868163 0.00086805)
(0.10108 -0.00126088 0.00126066)
(0.101891 -0.00150098 0.0015006)
(0.102753 -0.00161528 0.00161466)
(0.103608 -0.00163127 0.00163031)
(0.104432 -0.00158479 0.00158333)
(0.105192 -0.00149339 0.00149108)
(0.105881 -0.0013768 0.00137315)
(0.106499 -0.00125068 0.00124489)
(0.10705 -0.00112524 0.00111598)
(0.107541 -0.00100628 0.000991521)
(0.107978 -0.000896861 0.000873503)
(0.108367 -0.000798657 0.000762077)
(0.108714 -0.00071248 0.000656184)
(0.109024 -0.000638515 0.000554216)
(0.109302 -0.000576418 0.000454505)
(0.109559 -0.000525377 0.000352879)
(0.109806 -0.000478083 0.000252395)
(0.110073 -0.00042769 0.000167158)
(0.100046 -0.000540481 0.000395804)
(0.10048 -0.00138425 0.00104486)
(0.101155 -0.001922 0.00147487)
(0.101914 -0.00218877 0.00170365)
(0.102633 -0.0022846 0.00177642)
(0.1033 -0.00225985 0.00173697)
(0.103885 -0.00215387 0.00161983)
(0.10437 -0.00199736 0.00146739)
(0.10478 -0.0018232 0.00130777)
(0.10513 -0.00164985 0.00115454)
(0.105433 -0.00148607 0.00101254)
(0.105699 -0.001336 0.000883084)
(0.105932 -0.00120203 0.000765385)
(0.106138 -0.00108662 0.000657029)
(0.106319 -0.000993295 0.000554506)
(0.106476 -0.000926897 0.000454341)
(0.106614 -0.000890375 0.000350718)
(0.106737 -0.000889179 0.000240446)
(0.106854 -0.000909572 0.000124122)
(0.107057 -0.000949141 2.96299e-05)
(0.100093 -0.000763626 0.000445966)
(0.100504 -0.00174971 0.00119441)
(0.101105 -0.00212953 0.00158635)
(0.101634 -0.00223174 0.00173882)
(0.101979 -0.0022765 0.00177793)
(0.102174 -0.00221467 0.00171994)
(0.102257 -0.00207902 0.00159086)
(0.102287 -0.00190496 0.0014334)
(0.102292 -0.00171608 0.0012714)
(0.102281 -0.00153219 0.00111154)
(0.102264 -0.00137277 0.000963595)
(0.102247 -0.00123888 0.000831377)
(0.102226 -0.00112465 0.000713413)
(0.102198 -0.00103095 0.000608493)
(0.102159 -0.000962998 0.000513335)
(0.102094 -0.000931458 0.000425483)
(0.101997 -0.000954021 0.000345869)
(0.101855 -0.00104003 0.000273697)
(0.101672 -0.00117852 0.000203907)
(0.101758 -0.0013906 0.000195202)
(0.0995406 -0.000322189 0.000245047)
(0.0992569 -0.00154236 0.00105556)
(0.0988474 -0.00211415 0.00150186)
(0.0981236 -0.00208934 0.00157808)
(0.0973387 -0.00188075 0.001511)
(0.0965926 -0.00165452 0.00144002)
(0.0958822 -0.00147498 0.00139822)
(0.0952343 -0.0013249 0.00135676)
(0.0946449 -0.00120165 0.00129315)
(0.0940532 -0.00110067 0.00120132)
(0.0934986 -0.00100769 0.00108587)
(0.092984 -0.000917883 0.000959347)
(0.0925022 -0.000832778 0.000833111)
(0.0920422 -0.000757394 0.000714925)
(0.0915873 -0.000699021 0.000607337)
(0.0911137 -0.000668012 0.000514287)
(0.090574 -0.00068966 0.00045207)
(0.0898752 -0.00079997 0.000431099)
(0.0889138 -0.000958098 0.000462292)
(0.0878219 -0.00152181 0.000857713)
(0.0993802 5.91729e-05 3.37603e-05)
(0.0992674 0.00120097 0.000274167)
(0.0989801 0.00188908 0.000431931)
(0.0984738 0.00200501 0.000482539)
(0.0979958 0.00190834 0.000476898)
(0.0975771 0.00172111 0.000461271)
(0.0971955 0.00152457 0.000444303)
(0.0968574 0.00135012 0.000427521)
(0.0965761 0.00120524 0.000413497)
(0.0963497 0.00109273 0.000396116)
(0.0961286 0.0010038 0.000364637)
(0.0959091 0.000922468 0.000317379)
(0.0956985 0.000841781 0.000257172)
(0.0954937 0.000762472 0.000184976)
(0.0952923 0.00068712 9.6939e-05)
(0.0950913 0.000622217 -1.69164e-05)
(0.094889 0.000573953 -0.000173801)
(0.0946738 0.000544843 -0.00039433)
(0.0944373 0.000538669 -0.000709139)
(0.0942493 0.000609726 -0.00116429)
(0.100087 0.000707415 0.000144392)
(0.100477 0.0016184 0.000390422)
(0.101066 0.00203424 0.000540773)
(0.101695 0.00211442 0.000609241)
(0.10227 0.00213963 0.000634176)
(0.102743 0.00215599 0.000622844)
(0.103125 0.00209096 0.000585925)
(0.103427 0.00197422 0.000533837)
(0.103678 0.00183042 0.000480206)
(0.103894 0.00168165 0.000428471)
(0.104085 0.00153487 0.000375236)
(0.104254 0.00138235 0.00031669)
(0.104406 0.00123248 0.000254549)
(0.104539 0.00110269 0.000190029)
(0.104655 0.000990565 0.000116946)