/*--------------------------------*- C++ -*----------------------------------*\
| =========                 |                                                 |
| \\      /  F ield         | OpenFOAM: The Open Source CFD Toolbox           |
|  \\    /   O peration     | Version:  2212                                  |
|   \\  /    A nd           | Website:  www.openfoam.com                      |
|    \\/     M anipulation  |                                                 |
\*---------------------------------------------------------------------------*/
FoamFile
{
    version     2.0;
    format      ascii;
    arch        "LSB;label=32;scalar=64";
    class       surfaceVectorField;
    location    "0.35";
    object      Uf;
}
// * * * * * * * * * * * * * * * * * * * * * * * * * * * * * * * * * * * * * //

dimensions      [0 1 -1 0 0 0 0];

internalField   nonuniform List<vector> 
19019
(
(0.0993439 -0.00341899 -0.00341894)
(0.0973537 0.00106247 -0.00148419)
(0.0973537 -0.00148421 0.00106248)
(0.0834787 0.0019759 0.00197605)
(0.0930865 0.00326892 0.00253371)
(0.0930865 0.00253362 0.00326903)
(0.0745163 0.00195904 0.00195934)
(0.0848626 0.00163569 0.00179271)
(0.0848627 0.00179251 0.00163592)
(0.0685468 0.00115933 0.00115987)
(0.0786271 0.00107332 0.00122159)
(0.0786272 0.00122121 0.00107374)
(0.0642391 0.000696428 0.000697347)
(0.0740553 0.000784367 0.000864374)
(0.0740555 0.000863769 0.000785191)
(0.0607671 0.000494764 0.000496538)
(0.0704504 0.000648971 0.00066764)
(0.0704508 0.000666614 0.000650331)
(0.0579558 0.000376023 0.000379315)
(0.0675088 0.000544677 0.000506853)
(0.0675095 0.000504877 0.00054741)
(0.0556488 0.00028866 0.000294181)
(0.0650861 0.000464731 0.000384109)
(0.0650874 0.000380759 0.000469542)
(0.0536885 0.000225565 0.000234534)
(0.06303 0.000407761 0.000302153)
(0.0630323 0.000296711 0.00041594)
(0.0519917 0.000177403 0.00019183)
(0.0612458 0.000359314 0.00024703)
(0.0612497 0.000238297 0.000372941)
(0.0505146 0.000137499 0.000160695)
(0.0596778 0.000312867 0.0002091)
(0.0596845 0.000195122 0.00033526)
(0.0492276 0.000101496 0.000139036)
(0.0582965 0.000266109 0.000183774)
(0.058308 0.000161317 0.000302737)
(0.0481097 6.58633e-05 0.000127257)
(0.0570844 0.000216707 0.000168677)
(0.0571041 0.000132268 0.0002767)
(0.0471505 3.19025e-05 0.000125565)
(0.056014 0.000159838 0.000163121)
(0.0560483 0.000103389 0.000258715)
(0.0463378 -9.53552e-06 0.000133065)
(0.0550982 9.45628e-05 0.000165823)
(0.0551591 7.4644e-05 0.000251511)
(0.0456843 -7.95944e-05 0.000159)
(0.0543139 9.64914e-06 0.000181049)
(0.0544228 3.2555e-05 0.000256802)
(0.0452089 -0.000209112 0.000214511)
(0.0536485 -0.000118962 0.000218305)
(0.0538472 -3.79764e-05 0.000298199)
(0.0451111 -0.00042854 0.000268736)
(0.0531794 -0.000368837 0.000258034)
(0.0535693 -0.000190711 0.000388082)
(0.045969 -0.00185192 -0.000543657)
(0.053224 -0.000891844 0.000189332)
(0.0540121 -0.000408298 0.00050619)
(0.0524817 -0.00341055 -0.00104557)
(0.0529332 -0.00219116 -0.000488162)
(0.098457 0.00247643 0.00173025)
(0.0996872 0.000439213 0.000345634)
(0.100049 0.00105644 0.000751153)
(0.095834 0.00314799 0.00243327)
(0.0978156 0.00273286 0.00228292)
(0.0982933 0.00280915 0.00216188)
(0.0914492 0.00222976 0.00186923)
(0.0954951 0.00300135 0.00230359)
(0.0963035 0.0024423 0.00199812)
(0.0875965 0.00167251 0.00150332)
(0.0926192 0.00229837 0.00183797)
(0.0936675 0.00197959 0.00172648)
(0.0841549 0.00143625 0.00127099)
(0.0897705 0.00188902 0.00153234)
(0.090908 0.00171687 0.0014958)
(0.0812051 0.0012597 0.00102069)
(0.0872415 0.00165084 0.0012871)
(0.088443 0.00145082 0.00120922)
(0.0787371 0.00110017 0.00077962)
(0.0850297 0.00148221 0.00106206)
(0.086325 0.00117788 0.000904825)
(0.0766259 0.000974519 0.000601636)
(0.08311 0.00135336 0.000884987)
(0.0845209 0.000973288 0.00068415)
(0.074775 0.000875658 0.000483794)
(0.0814175 0.00124709 0.000755706)
(0.0829534 0.000829032 0.000538834)
(0.0731304 0.000785823 0.000406188)
(0.0799093 0.00114198 0.000658931)
(0.081573 0.000718323 0.000443144)
(0.071662 0.000696465 0.000354718)
(0.0785619 0.00103032 0.000583334)
(0.0803505 0.000625466 0.000380335)
(0.0703497 0.000603861 0.000321232)
(0.077358 0.000912347 0.000524155)
(0.0792684 0.000541965 0.000340674)
(0.0691798 0.000504063 0.000301128)
(0.0762832 0.000788211 0.000477978)
(0.0783138 0.000461141 0.000318245)
(0.0681386 0.000391075 0.00029347)
(0.0753191 0.000655447 0.000443992)
(0.0774719 0.000378689 0.000312973)
(0.0672131 0.000260725 0.000301761)
(0.0744598 0.000513646 0.000426472)
(0.0767398 0.000284122 0.000325586)
(0.0663802 9.68778e-05 0.000327191)
(0.073678 0.000364786 0.000434508)
(0.0761067 0.000164851 0.000358733)
(0.0656279 -0.000151897 0.000357624)
(0.0729303 0.000181121 0.000469825)
(0.0755516 7.58895e-07 0.00041995)
(0.0649801 -0.000652715 0.000319405)
(0.0721991 -0.000100367 0.000528055)
(0.0750829 -0.000276991 0.000485827)
(0.0647335 -0.00175056 0.000239811)
(0.07151 -0.000649762 0.000522288)
(0.0747374 -0.000908251 0.000385523)
(0.0705931 -0.00135699 0.00118456)
(0.0742032 -0.00237174 2.10821e-05)
(0.0993751 0.00118215 0.00107297)
(0.0994731 0.00034971 0.000307275)
(0.0997475 0.000611001 0.000780153)
(0.0984942 0.0022957 0.00203234)
(0.0990498 0.00157666 0.00172144)
(0.0995969 0.00201836 0.0020036)
(0.0971411 0.00247545 0.00204822)
(0.0983567 0.00213039 0.00216881)
(0.099297 0.00246085 0.00210277)
(0.0954406 0.00224486 0.00176521)
(0.097193 0.00203459 0.0020008)
(0.0984887 0.00237285 0.00190168)
(0.0937557 0.00201512 0.00151569)
(0.0959072 0.00185223 0.00174997)
(0.0974243 0.00217703 0.00168539)
(0.0921531 0.00185258 0.00132832)
(0.0946795 0.00172571 0.00153182)
(0.0963155 0.00197641 0.00149896)
(0.0906372 0.00173234 0.00118267)
(0.0935013 0.00163998 0.00136377)
(0.0952192 0.00178601 0.00132309)
(0.0892239 0.00162048 0.00105849)
(0.0924115 0.00155507 0.00122151)
(0.09418 0.00161816 0.00116701)
(0.0879364 0.00149541 0.00094713)
(0.0914183 0.00144468 0.00109702)
(0.0932261 0.00146365 0.00103643)
(0.0867807 0.00135583 0.0008471)
(0.0904923 0.00131364 0.000989389)
(0.0923645 0.00131229 0.000926528)
(0.0857474 0.00120792 0.000759398)
(0.089652 0.00117543 0.000894038)
(0.0915986 0.00116436 0.000834394)
(0.0848236 0.00105621 0.000684755)
(0.0888927 0.00103469 0.000808468)
(0.0909213 0.00102105 0.000758606)
(0.0839954 0.000901623 0.00062361)
(0.0882034 0.000893676 0.000732185)
(0.0903211 0.000881403 0.000697575)
(0.0832443 0.000744752 0.000579575)
(0.0875709 0.000754883 0.000667956)
(0.0897869 0.000742589 0.000652429)
(0.082547 0.000588439 0.000561671)
(0.0869768 0.000619362 0.00062217)
(0.0893032 0.000601892 0.000629286)
(0.0818727 0.000426102 0.000581415)
(0.0863948 0.000488302 0.000605375)
(0.088852 0.000457382 0.000639827)
(0.0811616 0.000230575 0.000655062)
(0.0857805 0.000360054 0.00063523)
(0.0884079 0.000294721 0.000699771)
(0.0803067 -5.65862e-05 0.000769886)
(0.0850443 0.000220304 0.000740115)
(0.087911 8.529e-05 0.000827309)
(0.0791191 -0.000111665 0.00159959)
(0.0840879 3.96701e-05 0.00087788)
(0.0873076 -0.000225141 0.0009971)
(0.0830473 0.000405061 0.00196904)
(0.0867927 -0.000179378 0.0020266)
(0.099649 0.00065031 0.000932278)
(0.0994626 0.000129468 0.000192797)
(0.0997993 0.00037516 0.000741729)
(0.0990843 0.00127872 0.00182826)
(0.099262 0.00063705 0.00137185)
(0.0998405 0.00115035 0.00181529)
(0.0984478 0.00153998 0.00210175)
(0.0989119 0.000973266 0.00200372)
(0.099904 0.00153609 0.00208999)
(0.0977076 0.00154455 0.00198504)
(0.0982938 0.0010492 0.00204878)
(0.0997665 0.00163039 0.00202067)
(0.0969433 0.00147552 0.00176763)
(0.0976581 0.00100529 0.00189387)
(0.0995105 0.00160589 0.00188866)
(0.0962194 0.00141913 0.00156474)
(0.0970709 0.000955821 0.00168601)
(0.0992048 0.0015406 0.00173709)
(0.0955491 0.0013775 0.00139992)
(0.0965201 0.000923947 0.00149794)
(0.0988655 0.00146143 0.00159862)
(0.0949282 0.00132497 0.00126326)
(0.0960222 0.000899124 0.00133657)
(0.098535 0.00137041 0.00146521)
(0.0943388 0.00124725 0.00115114)
(0.0955815 0.000874006 0.00120454)
(0.0982238 0.00126532 0.00133818)
(0.0937746 0.0011436 0.00105417)
(0.0951656 0.00083187 0.00109968)
(0.0979037 0.00114561 0.00122175)
(0.0932429 0.00102261 0.000962781)
(0.0947698 0.000762801 0.00100957)
(0.0976008 0.00101812 0.00111642)
(0.0927452 0.000896223 0.000875333)
(0.0943934 0.000681033 0.000925006)
(0.0973188 0.000891469 0.00102092)
(0.092275 0.000774004 0.000795096)
(0.0940347 0.000601098 0.000844349)
(0.0970528 0.000771109 0.000934028)
(0.0918189 0.000661124 0.000728236)
(0.0936846 0.000531718 0.000771009)
(0.0967951 0.000660749 0.000859671)
(0.0913566 0.000560838 0.00068359)
(0.0933297 0.000478346 0.000711494)
(0.0965346 0.000560395 0.000805141)
(0.0908545 0.000483242 0.000678941)
(0.0929522 0.000450671 0.000675189)
(0.0962522 0.000471366 0.000783094)
(0.0902468 0.00044166 0.000744851)
(0.0925205 0.000472798 0.000681814)
(0.0959195 0.000403265 0.00081835)
(0.0894315 0.000446727 0.000878899)
(0.0919737 0.000560298 0.000759533)
(0.0954813 0.000362166 0.000939809)
(0.0882541 0.0006601 0.00124007)
(0.0912422 0.000775482 0.000890182)
(0.0948842 0.000352895 0.00112893)
(0.0904802 0.00146767 0.00132203)
(0.0943435 0.000589535 0.00170668)
(0.0996723 0.000154082 0.000630124)
(0.0993802 2.02797e-08 5.9212e-05)
(0.0997132 0.000103972 0.000688287)
(0.0991586 0.000353355 0.00154506)
(0.0992673 1.05276e-07 0.00120098)
(0.0998375 0.000341703 0.00162315)
(0.0986628 0.000457803 0.00194709)
(0.0989801 2.45083e-07 0.0018891)
(0.0999631 0.0004855 0.00199163)
(0.0982118 0.000480699 0.0019568)
(0.0984736 4.17336e-07 0.00200505)
(0.0999917 0.000539453 0.00199468)
(0.0977784 0.000470803 0.001815)
(0.0979955 6.97487e-07 0.00190843)
(0.10001 0.000545825 0.0019034)
(0.0973711 0.000455826 0.0016233)
(0.0975765 1.19298e-06 0.00172129)
(0.10001 0.00053173 0.00178742)
(0.0970127 0.000441178 0.00143807)
(0.0971946 2.06729e-06 0.00152484)
(0.0999878 0.000506865 0.00165354)
(0.0967065 0.000429428 0.00127893)
(0.0968558 3.52268e-06 0.00135057)
(0.0999502 0.000476901 0.00152381)
(0.0964482 0.00041972 0.00115118)
(0.0965733 5.90492e-06 0.00120602)
(0.0999175 0.000449746 0.00140341)
(0.096219 0.000405105 0.00105202)
(0.0963449 9.82379e-06 0.00109411)
(0.0998964 0.000424411 0.00129876)
(0.0959955 0.000381731 0.00096941)
(0.0961205 1.62363e-05 0.00100614)
(0.0998634 0.000394959 0.00120554)
(0.0957696 0.000354091 0.000892505)
(0.0958953 2.66361e-05 0.000926352)
(0.0998175 0.00036108 0.00111012)
(0.0955389 0.000330477 0.000819022)
(0.0956757 4.36036e-05 0.000848191)
(0.099762 0.000329291 0.00101409)
(0.0952973 0.000319658 0.000752607)
(0.0954563 7.12143e-05 0.000772829)
(0.0996916 0.00030731 0.000928385)
(0.0950354 0.000332272 0.000700093)
(0.095231 0.000115585 0.000704412)
(0.0996002 0.000301094 0.000857868)
(0.0947388 0.000387166 0.000672013)
(0.0949925 0.000188177 0.000650185)
(0.0994808 0.000319102 0.000809738)
(0.0943882 0.000499104 0.000683932)
(0.0947327 0.000309664 0.000619775)
(0.0993231 0.000379601 0.000796564)
(0.093959 0.000709111 0.000745453)
(0.0944319 0.000490917 0.000623442)
(0.0991132 0.000488329 0.000834176)
(0.093437 0.00117419 0.000914156)
(0.0940692 0.000777842 0.000663669)
(0.098842 0.000690325 0.000916659)
(0.0937684 0.00130344 0.000824594)
(0.0986861 0.00111558 0.00110993)
(0.0996723 -0.000153954 0.00063007)
(0.0994626 -0.00012942 0.00019277)
(0.0997132 -0.000103918 0.000688287)
(0.0991586 -0.000353019 0.00154502)
(0.099262 -0.000636873 0.00137182)
(0.0998375 -0.000341494 0.00162312)
(0.0986629 -0.000457189 0.00194705)
(0.0989121 -0.000972934 0.00200365)
(0.0999632 -0.000485095 0.00199164)
(0.0982121 -0.000479666 0.00195668)
(0.0982942 -0.00104866 0.00204865)
(0.0999919 -0.000538765 0.00199464)
(0.0977792 -0.000469025 0.00181472)
(0.097659 -0.00100433 0.00189363)
(0.10001 -0.000544621 0.00190319)
(0.0973726 -0.000452718 0.00162284)
(0.0970728 -0.000954055 0.00168559)
(0.100011 -0.000529624 0.00178697)
(0.0970152 -0.000435831 0.00143734)
(0.0965234 -0.000920794 0.00149733)
(0.0999896 -0.000503273 0.00165288)
(0.0967109 -0.000420414 0.00127766)
(0.0960279 -0.000893684 0.00133547)
(0.0999533 -0.000470796 0.00152275)
(0.0964557 -0.000404694 0.00114896)
(0.0955914 -0.000865118 0.00120234)
(0.0999227 -0.000439394 0.0014017)
(0.0962318 -0.000380239 0.00104823)
(0.0951823 -0.000817426 0.00109578)
(0.0999051 -0.000407131 0.00129589)
(0.0960171 -0.000340832 0.00096308)
(0.0947981 -0.000739225 0.00100295)
(0.0998781 -0.000366562 0.00120099)
(0.0958056 -0.000287037 0.000882039)
(0.0944406 -0.000642319 0.000913919)
(0.0998417 -0.000314874 0.00110271)
(0.0955983 -0.000220756 0.000801999)
(0.0941131 -0.000536945 0.000825745)
(0.0998018 -0.000254369 0.00100132)
(0.0953943 -0.00014058 0.000724635)
(0.0938147 -0.000425104 0.000739878)
(0.0997563 -0.000186215 0.000906753)
(0.0951935 -3.96019e-05 0.000654505)
(0.0935445 -0.000304154 0.000657932)
(0.0997043 -0.000105573 0.000821075)
(0.0949912 9.58055e-05 0.000597947)
(0.0933039 -0.000157748 0.000582742)
(0.0996447 -3.654e-06 0.000748293)
(0.094784 0.000284573 0.000559285)
(0.0930957 2.82211e-05 0.000514429)
(0.0995776 0.000132392 0.000693788)
(0.0945626 0.00055232 0.000541657)
(0.0929181 0.000273422 0.000455812)
(0.099498 0.000319 0.000660142)
(0.0943263 0.000937397 0.000574106)
(0.0927629 0.000610209 0.000402996)
(0.0994064 0.000575422 0.00064761)
(0.0926099 0.00108232 0.00037257)
(0.099378 0.000921048 0.000688998)
(0.099649 -0.00065025 0.000932276)
(0.0994731 -0.00034971 0.000307272)
(0.0997993 -0.000375145 0.000741731)
(0.0990845 -0.00127858 0.00182821)
(0.0990499 -0.00157666 0.0017214)
(0.0998406 -0.00115029 0.00181529)
(0.0984482 -0.00153974 0.00210161)
(0.098357 -0.00213039 0.00216864)
(0.0999043 -0.00153598 0.0020899)
(0.0977085 -0.00154409 0.00198481)
(0.0971936 -0.00203462 0.00200051)
(0.0997671 -0.00163017 0.00202038)
(0.0969453 -0.00147459 0.00176725)
(0.0959086 -0.00185218 0.00174956)
(0.0995118 -0.00160544 0.00188808)
(0.096223 -0.00141742 0.00156418)
(0.0946821 -0.00172548 0.00153117)
(0.0992072 -0.00153976 0.0017362)
(0.0955554 -0.00137453 0.001399)
(0.0935058 -0.00163953 0.00136274)
(0.0988697 -0.00145993 0.00159727)
(0.094939 -0.0013202 0.00126132)
(0.0924195 -0.00155433 0.00121975)
(0.0985421 -0.00136779 0.00146297)
(0.0943573 -0.00123988 0.00114743)
(0.0914321 -0.00144377 0.00109384)
(0.0982359 -0.00126124 0.0013347)
(0.0938055 -0.001132 0.00104772)
(0.0905156 -0.00131246 0.000983954)
(0.0979242 -0.00113933 0.00121606)
(0.0932946 -0.00100387 0.000951902)
(0.0896909 -0.0011736 0.000884823)
(0.0976351 -0.001008 0.00110651)
(0.0928313 -0.000865111 0.000856982)
(0.0889576 -0.00103146 0.00079291)
(0.097376 -0.000874934 0.00100393)
(0.0924181 -0.000721246 0.000763911)
(0.0883118 -0.000887246 0.000705684)
(0.0971474 -0.00074356 0.000904581)
(0.0920562 -0.000574075 0.000674218)
(0.0877528 -0.000741254 0.00062187)
(0.0969504 -0.000613685 0.000808514)
(0.0917489 -0.000412344 0.000587997)
(0.087282 -0.000594186 0.000541062)
(0.0967867 -0.000482054 0.000716154)
(0.0915034 -0.000217273 0.000501888)
(0.0869081 -0.00043314 0.000460705)
(0.096661 -0.000333045 0.000626989)
(0.0913273 3.24228e-05 0.00041392)
(0.0866507 -0.000239125 0.000369519)
(0.0965789 -0.000154893 0.000535652)
(0.0912189 0.00037648 0.000318524)
(0.0865468 2.22456e-05 0.000234684)
(0.096544 7.46992e-05 0.000438938)
(0.0911277 0.000890227 0.000196186)
(0.0866394 0.000475859 3.1734e-05)
(0.0965537 0.000391986 0.000324992)
(0.0864304 0.00130537 -0.000409117)
(0.0965631 0.000854936 0.000183546)
(0.0993751 -0.00118219 0.00107293)
(0.0996872 -0.000439231 0.000345623)
(0.0997475 -0.000611023 0.000780131)
(0.0984944 -0.00229581 0.0020322)
(0.0978157 -0.00273298 0.00228285)
(0.0995969 -0.00201844 0.00200348)
(0.0971415 -0.00247566 0.00204791)
(0.0954953 -0.00300154 0.0023034)
(0.0992972 -0.00246103 0.00210246)
(0.0954416 -0.00224524 0.00176476)
(0.0926196 -0.00229873 0.00183761)
(0.0984893 -0.00237321 0.00190115)
(0.0937576 -0.00201577 0.00151504)
(0.0897713 -0.00188973 0.00153183)
(0.0974254 -0.00217764 0.00168459)
(0.0921565 -0.0018536 0.00132726)
(0.0872431 -0.00165207 0.00128626)
(0.0963176 -0.00197745 0.00149779)
(0.0906433 -0.00173397 0.0011809)
(0.0850327 -0.00148436 0.00106063)
(0.0952229 -0.00178763 0.00132121)
(0.0892345 -0.00162324 0.00105557)
(0.0831154 -0.00135701 0.000882574)
(0.0941865 -0.00162083 0.00116383)
(0.0879544 -0.00150007 0.000942325)
(0.0814268 -0.00125336 0.000751713)
(0.0932373 -0.00146829 0.00103123)
(0.0868108 -0.00136341 0.000839027)
(0.0799251 -0.00115254 0.000652328)
(0.0923835 -0.00132014 0.00091792)
(0.0857976 -0.00121994 0.000745708)
(0.0785884 -0.00104769 0.000572365)
(0.0916302 -0.00117711 0.000819896)
(0.0849075 -0.00107482 0.000661372)
(0.0774025 -0.000940582 0.000505924)
(0.0909738 -0.00104134 0.000734067)
(0.0841363 -0.000929646 0.000582806)
(0.0763585 -0.000833603 0.000447413)
(0.0904083 -0.000913046 0.000655756)
(0.0834828 -0.000786283 0.000507681)
(0.0754477 -0.000727694 0.000391604)
(0.0899321 -0.000791083 0.000580208)
(0.0829543 -0.000649142 0.000434555)
(0.0746816 -0.000632971 0.000334586)
(0.0895456 -0.000675753 0.000503429)
(0.0825749 -0.000509847 0.000354578)
(0.0740643 -0.000551825 0.000274829)
(0.0892584 -0.000567046 0.000417781)
(0.0823873 -0.000322218 0.000224305)
(0.0736123 -0.000471473 0.000189129)
(0.089092 -0.000450584 0.000304012)
(0.0824389 1.66828e-05 -2.45631e-06)
(0.0734577 -0.000314939 -2.13891e-05)
(0.0890742 -0.000275542 0.000104279)
(0.082848 0.000763185 -0.000499503)
(0.0738532 2.43877e-05 -0.000360676)
(0.0892463 5.69223e-05 -0.000218111)
(0.0727877 0.00114784 -0.00131704)
(0.0891368 0.00079514 -0.000880434)
(0.098457 -0.0024765 0.0017302)
(0.0973537 -0.00106248 -0.0014842)
(0.100049 -0.00105646 0.000751129)
(0.095834 -0.00314816 0.00243314)
(0.0930865 -0.00326903 0.00253364)
(0.0982933 -0.00280927 0.00216175)
(0.0914494 -0.00223006 0.00186895)
(0.0848627 -0.0016359 0.00179255)
(0.0963035 -0.00244256 0.00199786)
(0.0875969 -0.00167312 0.00150288)
(0.0786272 -0.00107372 0.00122125)
(0.0936676 -0.00198006 0.00172599)
(0.0841556 -0.00143736 0.00127024)
(0.0740555 -0.000785179 0.000863824)
(0.0909084 -0.00171773 0.00149503)
(0.0812064 -0.00126169 0.00101939)
(0.0704508 -0.000650324 0.000666679)
(0.0884435 -0.00145231 0.00120778)
(0.0787395 -0.00110375 0.000777447)
(0.0675095 -0.000547401 0.000504953)
(0.0863259 -0.00118053 0.000902406)
(0.0766303 -0.000980746 0.000598002)
(0.0650874 -0.00046953 0.000380838)
(0.0845227 -0.00097786 0.000680047)
(0.0747826 -0.00088634 0.000477793)
(0.0630323 -0.000415908 0.000296785)
(0.0829567 -0.000836894 0.000531895)
(0.0731434 -0.000803803 0.000396373)
(0.0612497 -0.000372897 0.000238371)
(0.0815785 -0.000731592 0.00043154)
(0.0716841 -0.000726267 0.000338703)
(0.0596846 -0.000335219 0.00019519)
(0.08036 -0.000647454 0.000361107)
(0.0703876 -0.00065278 0.00029499)
(0.0583081 -0.000302711 0.000161383)
(0.0792845 -0.000578055 0.000308912)
(0.0692454 -0.000583967 0.000257612)
(0.0571042 -0.000276693 0.000132347)
(0.0783414 -0.000520114 0.000265689)
(0.0682545 -0.000524903 0.000218853)
(0.0560484 -0.000258716 0.000103463)
(0.0775197 -0.00047499 0.000225234)
(0.0674165 -0.000477243 0.000172573)
(0.0551593 -0.00025149 7.46873e-05)
(0.0768246 -0.000445143 0.000175835)
(0.0667432 -0.000442117 0.000105033)
(0.0544231 -0.000256702 3.26034e-05)
(0.0762584 -0.000422627 0.000102485)
(0.0662984 -0.000410366 -4.54557e-05)
(0.0538475 -0.000298076 -3.79159e-05)
(0.0758281 -0.00041759 -1.74992e-05)
(0.0663559 -0.000371191 -0.000306332)
(0.0535699 -0.000387984 -0.000190627)
(0.0756252 -0.000395912 -0.000287893)
(0.0674824 -0.000111156 -0.000896236)
(0.0540127 -0.000506225 -0.000408199)
(0.0758333 -0.000251326 -0.00086778)
(0.0529336 0.000488005 -0.00219091)
(0.0748312 0.000730681 -0.00292582)
(0.0993439 0.00341895 -0.00341898)
(0.0973537 0.0014842 0.00106247)
(0.0834787 -0.00197602 0.00197592)
(0.0930865 -0.0025337 0.00326891)
(0.0745163 -0.0019593 0.00195908)
(0.0848626 -0.00179268 0.00163571)
(0.0685468 -0.00115984 0.00115938)
(0.0786271 -0.00122156 0.00107334)
(0.0642392 -0.000697321 0.000696479)
(0.0740553 -0.000864346 0.000784381)
(0.0607671 -0.00049651 0.000494825)
(0.0704504 -0.000667605 0.000648979)
(0.0579558 -0.000379283 0.000376092)
(0.0675088 -0.000506813 0.000544695)
(0.0556488 -0.000294142 0.00028873)
(0.0650861 -0.000384062 0.00046475)
(0.0536885 -0.000234494 0.000225642)
(0.06303 -0.000302103 0.00040779)
(0.0519918 -0.000191778 0.000177471)
(0.0612458 -0.000246979 0.00035935)
(0.0505147 -0.000160616 0.000137533)
(0.0596779 -0.000209042 0.000312909)
(0.0492277 -0.000138962 0.000101516)
(0.0582966 -0.000183711 0.000266146)
(0.0481098 -0.000127225 6.59088e-05)
(0.0570844 -0.000168628 0.000216718)
(0.0471505 -0.000125541 3.19626e-05)
(0.0560142 -0.000163063 0.000159827)
(0.0463379 -0.000132986 -9.48073e-06)
(0.0550984 -0.00016573 9.45701e-05)
(0.0456845 -0.000158903 -7.9528e-05)
(0.0543141 -0.000180932 9.70461e-06)
(0.0452094 -0.000214451 -0.00020904)
(0.0536488 -0.000218222 -0.000118946)
(0.0451117 -0.000268708 -0.00042851)
(0.0531799 -0.000258026 -0.000368812)
(0.0459693 0.000543623 -0.00185191)
(0.0532243 -0.000189398 -0.000891864)
(0.052482 0.00104549 -0.00341068)
(0.098457 0.00173019 0.0024765)
(0.100049 0.000751128 0.00105647)
(0.0996872 0.000345619 0.000439228)
(0.095834 0.00243312 0.00314816)
(0.0982933 0.00216174 0.00280929)
(0.0978157 0.00228283 0.00273298)
(0.0914494 0.00186893 0.00223008)
(0.0963035 0.00199785 0.00244258)
(0.0954953 0.00230338 0.00300156)
(0.0875969 0.00150285 0.00167316)
(0.0936676 0.00172598 0.0019801)
(0.0926196 0.00183757 0.00229875)
(0.0841556 0.0012702 0.00143738)
(0.0909084 0.00149502 0.00171777)
(0.0897713 0.00153179 0.00188974)
(0.0812064 0.00101934 0.00126172)
(0.0884435 0.00120777 0.00145235)
(0.0872431 0.0012862 0.00165207)
(0.0787395 0.000777395 0.00110379)
(0.0863259 0.000902404 0.00118058)
(0.0850327 0.00106057 0.00148437)
(0.0766303 0.000597953 0.000980808)
(0.0845227 0.000680049 0.000977916)
(0.0831154 0.000882511 0.00135701)
(0.0747826 0.000477752 0.000886424)
(0.0829566 0.000531894 0.000836964)
(0.0814268 0.000751655 0.00125338)
(0.0731433 0.000396336 0.000803897)
(0.0815785 0.000431539 0.000731677)
(0.079925 0.000652276 0.00115257)
(0.071684 0.000338658 0.000726354)
(0.0803599 0.000361117 0.000647552)
(0.0785883 0.000572321 0.00104774)
(0.0703874 0.000294928 0.000652865)
(0.0792843 0.000308934 0.000578165)
(0.0774024 0.000505874 0.000940635)
(0.0692451 0.000257566 0.000584059)
(0.0783412 0.000265701 0.000520227)
(0.0763583 0.000447336 0.000833644)
(0.0682543 0.000218856 0.000524995)
(0.0775195 0.000225232 0.00047508)
(0.0754474 0.00039154 0.000727719)
(0.0674162 0.000172593 0.000477365)
(0.0768243 0.000175826 0.000445213)
(0.0746813 0.000334583 0.000633018)
(0.0667428 0.000105016 0.000442285)
(0.076258 0.000102448 0.000422725)
(0.0740638 0.00027485 0.000551978)
(0.0662979 -4.55202e-05 0.000410565)
(0.0758277 -1.75678e-05 0.000417708)
(0.0736117 0.000189138 0.000471707)
(0.0663552 -0.000306453 0.000371335)
(0.0756246 -0.000288021 0.000395997)
(0.0734569 -2.14065e-05 0.000315302)
(0.0674817 -0.000896566 0.000111118)
(0.0758326 -0.00086793 0.000251289)
(0.0738521 -0.000360808 -2.41556e-05)
(0.0748305 -0.00292607 -0.000730788)
(0.0727865 -0.00131757 -0.00114807)
(0.10008 0.00135173 0.00135183)
(0.100186 0.000798876 0.000805196)
(0.100186 0.000805158 0.000798911)
(0.100264 0.00221687 0.00221713)
(0.100189 0.00231189 0.0020718)
(0.100189 0.00207163 0.00231204)
(0.0993838 0.00243476 0.00243525)
(0.100307 0.00263316 0.00245304)
(0.100307 0.00245263 0.00263345)
(0.0979861 0.00230821 0.00230901)
(0.0998061 0.00255866 0.00245488)
(0.0998063 0.00245418 0.00255921)
(0.0964994 0.00200297 0.00200434)
(0.0988649 0.00236028 0.00227794)
(0.0988653 0.00227686 0.00236116)
(0.0950831 0.0015923 0.00159466)
(0.0978456 0.00204185 0.00196221)
(0.0978464 0.00196051 0.00204346)
(0.0937975 0.00121909 0.00122305)
(0.0968723 0.00167905 0.00159388)
(0.0968736 0.00159118 0.00168173)
(0.0926583 0.000951101 0.000957836)
(0.0959805 0.00138483 0.00130257)
(0.0959826 0.00129791 0.00138934)
(0.091661 0.000761769 0.000773106)
(0.0951841 0.00116189 0.00108908)
(0.095188 0.00108121 0.00116967)
(0.0907931 0.000624242 0.000643044)
(0.0944826 0.000988116 0.000930032)
(0.0944892 0.000916967 0.0010012)
(0.090041 0.000520039 0.00055096)
(0.0938728 0.000847342 0.000809739)
(0.0938837 0.000788153 0.000868873)
(0.0893929 0.000435255 0.000485994)
(0.0933472 0.000727747 0.000718151)
(0.0933653 0.00068251 0.000762819)
(0.0888398 0.000361522 0.000444969)
(0.0928965 0.000619543 0.000649047)
(0.0929259 0.000590092 0.000676426)
(0.0883715 0.000287936 0.000425677)
(0.0925136 0.000517972 0.000603666)
(0.0925611 0.000505759 0.00061028)
(0.0879851 0.000190082 0.000419014)
(0.0921869 0.000409891 0.000579054)
(0.0922637 0.000415587 0.000559496)
(0.0876922 4.86041e-05 0.000428558)
(0.0919184 0.00027342 0.000570983)
(0.0920411 0.000296155 0.000515534)
(0.0874916 -0.000172451 0.000451149)
(0.0917097 9.85187e-05 0.000597744)
(0.0919033 0.000136087 0.00048574)
(0.0873284 -0.000593502 0.000402222)
(0.0915323 -0.000153939 0.000647517)
(0.0918281 -0.000117338 0.000446354)
(0.0869814 -0.0015712 -7.26242e-06)
(0.0913451 -0.000552897 0.000641868)
(0.0917718 -0.00057286 0.000313719)
(0.0912964 -0.00123897 0.000424094)
(0.0917467 -0.00150436 -8.84353e-05)
(0.100171 0.00136874 0.00141691)
(0.100118 0.000577433 0.000811673)
(0.100102 0.000699908 0.000701012)
(0.100759 0.00219466 0.00214947)
(0.100478 0.00158277 0.00185941)
(0.100477 0.00182268 0.00186524)
(0.100996 0.00247564 0.00238723)
(0.101004 0.0020582 0.00224254)
(0.101024 0.00234633 0.00238304)
(0.100839 0.00247275 0.00238614)
(0.101292 0.00220173 0.00234978)
(0.101338 0.00250379 0.00254207)
(0.10046 0.00230461 0.00221756)
(0.10131 0.00216321 0.00231466)
(0.10141 0.00244527 0.0024676)
(0.0999722 0.00204418 0.00195341)
(0.101159 0.00200253 0.00216312)
(0.101303 0.00225464 0.00226038)
(0.099452 0.0017695 0.00167246)
(0.100931 0.0017785 0.00194041)
(0.1011 0.00199089 0.00197938)
(0.0989483 0.0015303 0.0014373)
(0.100675 0.0015588 0.00171826)
(0.100856 0.00173857 0.00172263)
(0.0984868 0.00132859 0.00125129)
(0.100423 0.00136047 0.00151865)
(0.100608 0.00151942 0.00150741)
(0.0980793 0.00115344 0.00110195)
(0.10019 0.00117922 0.00134316)
(0.100377 0.00132813 0.00132708)
(0.0977265 0.000998647 0.00098157)
(0.099983 0.00101753 0.0011963)
(0.100176 0.00115902 0.00117484)
(0.0974241 0.000859098 0.00088577)
(0.0998044 0.000874536 0.00107563)
(0.100006 0.00100721 0.00104641)
(0.0971644 0.000729425 0.000813034)
(0.0996489 0.000746304 0.000976612)
(0.0998657 0.000868057 0.000939915)
(0.0969401 0.000601993 0.000763793)
(0.0995108 0.00062904 0.000899633)
(0.0997516 0.000736504 0.000855963)
(0.0967447 0.000466621 0.000740633)
(0.0993828 0.000514514 0.000847333)
(0.0996593 0.000603847 0.000794575)
(0.0965684 0.000311883 0.000754749)
(0.0992554 0.000394549 0.000826848)
(0.0995863 0.00046015 0.000757783)
(0.0964008 0.000120398 0.000815052)
(0.0991218 0.000264317 0.000856211)
(0.0995306 0.000294317 0.000757242)
(0.0962238 -0.00013547 0.000907442)
(0.0989615 0.000110709 0.000939614)
(0.0994748 8.88601e-05 0.00078924)
(0.0959764 -0.000406167 0.00107291)
(0.0987725 -8.8174e-05 0.00105679)
(0.0994185 -0.000178357 0.000829446)
(0.098839 -0.000235764 0.00127527)
(0.0995305 -0.000410802 0.000947333)
(0.100242 0.000820191 0.00125667)
(0.10009 0.000294436 0.000735766)
(0.100071 0.000415762 0.000603185)
(0.100828 0.00139038 0.00193962)
(0.100491 0.000792129 0.00168466)
(0.100493 0.00112444 0.00158759)
(0.101392 0.00166258 0.00218063)
(0.101086 0.00107763 0.00208314)
(0.101129 0.00154047 0.00209379)
(0.101816 0.00175837 0.00225411)
(0.101664 0.00120338 0.00217583)
(0.101768 0.00173127 0.00229085)
(0.102081 0.00174893 0.00224557)
(0.102122 0.00123699 0.00221124)
(0.102291 0.00178607 0.00235672)
(0.102218 0.00165539 0.00214682)
(0.102452 0.00119612 0.00218732)
(0.102712 0.00173555 0.00230073)
(0.102273 0.00151212 0.00199196)
(0.102681 0.00110643 0.00208588)
(0.103034 0.00161053 0.00216515)
(0.102287 0.00135239 0.00181049)
(0.102844 0.000998147 0.00193985)
(0.103281 0.00145416 0.00198822)
(0.102283 0.00119146 0.00162412)
(0.102969 0.000892342 0.00177354)
(0.10348 0.00129263 0.00180058)
(0.102271 0.00103757 0.00145248)
(0.103067 0.000791228 0.00160778)
(0.103641 0.00113562 0.00161898)
(0.102255 0.000897498 0.00130585)
(0.10315 0.000695596 0.0014556)
(0.103777 0.000990255 0.00145511)
(0.102236 0.000772421 0.00118181)
(0.10322 0.000607001 0.00131425)
(0.103895 0.000859059 0.00131083)
(0.102213 0.00066098 0.00107785)
(0.103277 0.000528144 0.00118584)
(0.103995 0.000740934 0.00118462)
(0.102179 0.000560933 0.000997017)
(0.103319 0.000461728 0.00107983)
(0.104079 0.000634113 0.00107842)
(0.102127 0.000469436 0.000947277)
(0.10334 0.000408098 0.000999206)
(0.104145 0.000535308 0.000997249)
(0.102047 0.000385723 0.000942798)
(0.103335 0.000368233 0.000951291)
(0.104186 0.000441632 0.000949338)
(0.10193 0.000309846 0.000997065)
(0.103296 0.000348425 0.000948835)
(0.104201 0.00035074 0.000945081)
(0.101771 0.000238883 0.00110929)
(0.103218 0.000353791 0.00100055)
(0.104186 0.000260588 0.000991113)
(0.101545 0.000199709 0.0012847)
(0.103111 0.000387801 0.0010943)
(0.104146 0.000168813 0.00107516)
(0.10322 0.000490729 0.00124165)
(0.104288 0.000120128 0.00121313)
(0.100243 0.000267536 0.00116292)
(0.100087 3.73849e-08 0.000707418)
(0.100064 0.000135886 0.00053768)
(0.100783 0.000465861 0.00182633)
(0.100477 1.09334e-07 0.00161841)
(0.100464 0.000371013 0.00142451)
(0.101401 0.000575468 0.00207438)
(0.101066 1.81925e-07 0.00203424)
(0.101089 0.000525187 0.00193278)
(0.101988 0.000622551 0.00212724)
(0.101695 3.24904e-07 0.00211447)
(0.101799 0.000605569 0.00212483)
(0.102507 0.000630021 0.0021483)
(0.10227 5.94636e-07 0.0021398)
(0.10249 0.000638338 0.00220063)
(0.102934 0.000606935 0.00212429)
(0.102742 1.02967e-06 0.00215631)
(0.103119 0.000631915 0.00221916)
(0.103275 0.000564161 0.00203385)
(0.103124 1.69858e-06 0.00209145)
(0.103682 0.000596069 0.00215592)
(0.10355 0.000514357 0.00190423)