/*--------------------------------*- C++ -*----------------------------------*\
| =========                 |                                                 |
| \\      /  F ield         | OpenFOAM: The Open Source CFD Toolbox           |
|  \\    /   O peration     | Version:  2212                                  |
|   \\  /    A nd           | Website:  www.openfoam.com                      |
|    \\/     M anipulation  |                                                 |
\*---------------------------------------------------------------------------*/
FoamFile
{
    version     2.0;
    format      ascii;
    arch        "LSB;label=32;scalar=64";
    class       volScalarField;
    location    "1.85";
    object      nut;
}
// * * * * * * * * * * * * * * * * * * * * * * * * * * * * * * * * * * * * * //

dimensions      [0 2 -1 0 0 0 0];

internalField   nonuniform List<scalar> 
6840
(
4.5356e-05
2.3208e-05
1.65396e-05
1.36493e-05
1.18966e-05
1.06844e-05
9.76073e-06
9.05707e-06
8.49467e-06
8.03126e-06
7.64045e-06
7.3121e-06
7.02449e-06
6.7605e-06
6.52873e-06
6.32763e-06
6.15289e-06
6.00253e-06
5.89614e-06
5.77614e-06
0.000107685
6.77183e-05
5.06311e-05
4.14159e-05
3.54048e-05
3.10366e-05
2.77136e-05
2.50815e-05
2.29333e-05
2.11503e-05
1.96501e-05
1.83705e-05
1.72619e-05
1.6291e-05
1.5446e-05
1.47156e-05
1.40764e-05
1.35116e-05
1.30245e-05
1.26081e-05
0.000160509
0.00010736
8.07408e-05
6.55975e-05
5.54895e-05
4.83024e-05
4.31308e-05
3.90787e-05
3.57387e-05
3.29487e-05
3.05767e-05
2.85332e-05
2.67715e-05
2.52423e-05
2.39022e-05
2.27193e-05
2.16716e-05
2.07391e-05
1.99095e-05
1.91869e-05
0.000198681
0.0001383
0.000105187
8.55268e-05
7.25011e-05
6.28899e-05
5.60608e-05
5.07588e-05
4.63873e-05
4.27207e-05
3.96236e-05
3.69529e-05
3.46295e-05
3.25974e-05
3.081e-05
2.92288e-05
2.78224e-05
2.65645e-05
2.54443e-05
2.45824e-05
0.000218609
0.000155003
0.000118661
9.65068e-05
8.18823e-05
7.08354e-05
6.30854e-05
5.71432e-05
5.2248e-05
4.80958e-05
4.4582e-05
4.15712e-05
3.89514e-05
3.66577e-05
3.46379e-05
3.28491e-05
3.12571e-05
2.98347e-05
2.85744e-05
2.7619e-05
0.000218609
0.000155003
0.000118661
9.65069e-05
8.18823e-05
7.08356e-05
6.30856e-05
5.71436e-05
5.22486e-05
4.80966e-05
4.45833e-05
4.15732e-05
3.89544e-05
3.66622e-05
3.46448e-05
3.28599e-05
3.12735e-05
2.98588e-05
2.86052e-05
2.76124e-05
0.000198681
0.0001383
0.000105187
8.55269e-05
7.25013e-05
6.28902e-05
5.60612e-05
5.07595e-05
4.63884e-05
4.27224e-05
3.96263e-05
3.6957e-05
3.46359e-05
3.26072e-05
3.08252e-05
2.92527e-05
2.78596e-05
2.66216e-05
2.55208e-05
2.45645e-05
0.000160509
0.00010736
8.07409e-05
6.55976e-05
5.54896e-05
4.83026e-05
4.31311e-05
3.90792e-05
3.57395e-05
3.29503e-05
3.05791e-05
2.85368e-05
2.6777e-05
2.52509e-05
2.39163e-05
2.27421e-05
2.17085e-05
2.07985e-05
2.00012e-05
1.93458e-05
0.000107685
6.77183e-05
5.06311e-05
4.14159e-05
3.54048e-05
3.10366e-05
2.77137e-05
2.50816e-05
2.29334e-05
2.11506e-05
1.96507e-05
1.83715e-05
1.72637e-05
1.6295e-05
1.54524e-05
1.4727e-05
1.40978e-05
1.35541e-05
1.31132e-05
1.27999e-05
4.5356e-05
2.3208e-05
1.65396e-05
1.36493e-05
1.18966e-05
1.06844e-05
9.76073e-06
9.05707e-06
8.49467e-06
8.03126e-06
7.64045e-06
7.31209e-06
7.02452e-06
6.76047e-06
6.52875e-06
6.32765e-06
6.15291e-06
6.00256e-06
5.89618e-06
5.77633e-06
0.000107685
6.77183e-05
5.06311e-05
4.14159e-05
3.54048e-05
3.10366e-05
2.77137e-05
2.50816e-05
2.29334e-05
2.11506e-05
1.96507e-05
1.83715e-05
1.72637e-05
1.62951e-05
1.54524e-05
1.47269e-05
1.40978e-05
1.35542e-05
1.31133e-05
1.28001e-05
0.000528907
0.000369984
0.000305097
0.000261371
0.000228527
0.000202475
0.000181113
0.000163072
0.000147537
0.000133981
0.000122046
0.000111463
0.000102131
9.38568e-05
8.64497e-05
7.96527e-05
7.34545e-05
6.77948e-05
6.36939e-05
5.73318e-05
0.000663952
0.000488458
0.000404618
0.000347247
0.000305034
0.000272126
0.000245316
0.000222885
0.00020375
0.000187171
0.000172642
0.000159795
0.000148345
0.000138074
0.000128807
0.000120535
0.000113045
0.00010614
0.000100149
9.33658e-05
0.00071288
0.000556432
0.000466396
0.000402354
0.000354424
0.000317048
0.000286672
0.00026125
0.000239575
0.000220835
0.000204428
0.000189927
0.000177011
0.000165423
0.00015495
0.000145447
0.000136772
0.000128798
0.00012143
0.00011451
0.000728543
0.000588231
0.000496001
0.000429131
0.000378509
0.000338933
0.000306817
0.000279971
0.000257069
0.00023725
0.000219901
0.000204565
0.000190899
0.000178639
0.000167575
0.000157523
0.000148357
0.000139955
0.000132203
0.000125012
0.000728543
0.000588231
0.000496002
0.000429132
0.00037851
0.000338935
0.000306819
0.000279975
0.000257076
0.00023726
0.000219917
0.000204589
0.000190936
0.000178696
0.000167663
0.000157651
0.000148542
0.000140218
0.000132573
0.0001256
0.00071288
0.000556432
0.000466397
0.000402355
0.000354426
0.000317051
0.000286677
0.00026126
0.000239588
0.000220856
0.000204461
0.000189978
0.00017709
0.000165548
0.000155135
0.000145719
0.000137175
0.000129394
0.000122309
0.00011633
0.000663952
0.000488458
0.000404619
0.000347248
0.000305036
0.000272128
0.00024532
0.000222892
0.00020376
0.000187187
0.000172666
0.000159833
0.000148403
0.000138165
0.000128952
0.000120749
0.000113371
0.000106637
0.000100938
9.52862e-05
0.000528907
0.000369984
0.000305097
0.000261371
0.000228527
0.000202475
0.000181113
0.000163072
0.000147537
0.000133981
0.000122046
0.000111462
0.00010213
9.38538e-05
8.64527e-05
7.9654e-05
7.34547e-05
6.77945e-05
6.36925e-05
5.73294e-05
0.000107685
6.77183e-05
5.06311e-05
4.14159e-05
3.54048e-05
3.10366e-05
2.77136e-05
2.50815e-05
2.29333e-05
2.11503e-05
1.96501e-05
1.83705e-05
1.72619e-05
1.6291e-05
1.5446e-05
1.47157e-05
1.40765e-05
1.35117e-05
1.30247e-05
1.26086e-05
0.000160509
0.00010736
8.07409e-05
6.55976e-05
5.54896e-05
4.83026e-05
4.31311e-05
3.90792e-05
3.57395e-05
3.29503e-05
3.05791e-05
2.85369e-05
2.67771e-05
2.5251e-05
2.39162e-05
2.27421e-05
2.17085e-05
2.07986e-05
2.00015e-05
1.9349e-05
0.000663952
0.000488458
0.000404619
0.000347248
0.000305036
0.000272128
0.00024532
0.000222892
0.00020376
0.000187187
0.000172666
0.000159834
0.000148404
0.000138165
0.000128952
0.00012075
0.000113374
0.000106644
0.000100937
9.52844e-05
0.000786827
0.000662293
0.000567974
0.000495805
0.000439463
0.000394561
0.000357973
0.00032745
0.000301488
0.000279047
0.000259394
0.000241997
0.000226464
0.000212497
0.000199861
0.000188396
0.000177938
0.000168338
0.000159509
0.00015063
0.000809324
0.000713905
0.000631504
0.000562573
0.000505376
0.000457785
0.000417839
0.000383937
0.0003548
0.000329443
0.000307147
0.000287365
0.000269679
0.000253762
0.000239352
0.000226247
0.000214261
0.000203213
0.000192814
0.000181808
0.000814958
0.000730426
0.000654634
0.000589043
0.000533067
0.000485438
0.000444763
0.000409793
0.000379469
0.000352931
0.00032949
0.000308627
0.000289937
0.000273098
0.000257846
0.000243963
0.000231266
0.000219564
0.000208563
0.000197367
0.000814958
0.000730426
0.000654634
0.000589044
0.000533068
0.000485439
0.000444765
0.000409796
0.000379474
0.000352938
0.000329501
0.000308643
0.000289961
0.000273134
0.000257902
0.000244043
0.000231379
0.000219731
0.000208848
0.000198112
0.000809324
0.000713906
0.000631505
0.000562574
0.000505378
0.000457786
0.000417842
0.000383942
0.000354807
0.000329455
0.000307164
0.000287392
0.000269719
0.000253825
0.000239447
0.000226384
0.00021446
0.000203513
0.000193342
0.0001834
0.000786827
0.000662293
0.000567974
0.000495805
0.000439463
0.000394561
0.000357973
0.00032745
0.000301488
0.000279047
0.000259393
0.000241996
0.000226462
0.000212493
0.000199864
0.000188397
0.000177936
0.000168335
0.000159504
0.000150619
0.000663952
0.000488458
0.000404618
0.000347247
0.000305034
0.000272126
0.000245316
0.000222885
0.00020375
0.000187171
0.000172642
0.000159796
0.000148345
0.00013807
0.000128811
0.000120537
0.000113047
0.000106142
0.000100153
9.3374e-05
0.000160509
0.00010736
8.07408e-05
6.55975e-05
5.54895e-05
4.83024e-05
4.31308e-05
3.90787e-05
3.57387e-05
3.29487e-05
3.05767e-05
2.85332e-05
2.67715e-05
2.52423e-05
2.39021e-05
2.27193e-05
2.16716e-05
2.07392e-05
1.99097e-05
1.91876e-05
0.000198681
0.0001383
0.000105187
8.55269e-05
7.25013e-05
6.28902e-05
5.60612e-05
5.07595e-05
4.63884e-05
4.27224e-05
3.96263e-05
3.69571e-05
3.4636e-05
3.26072e-05
3.08251e-05
2.92527e-05
2.78597e-05
2.66218e-05
2.5521e-05
2.45648e-05
0.00071288
0.000556432
0.000466397
0.000402355
0.000354426
0.000317051
0.000286677
0.00026126
0.000239588
0.000220856
0.000204461
0.000189978
0.00017709
0.000165541
0.000155139
0.000145722
0.000137179
0.0001294
0.000122316
0.000116331
0.000809324
0.000713906
0.000631505
0.000562574
0.000505378
0.000457786
0.000417842
0.000383942
0.000354808
0.000329455
0.000307165
0.000287393
0.000269721
0.000253825
0.000239449
0.000226386
0.000214464
0.000203518
0.000193349
0.00018341
0.000823497
0.000753987
0.000688491
0.000628748
0.000575387
0.000528266
0.000486845
0.000450441
0.000418362
0.000389973
0.000364726
0.00034216
0.00032189
0.000303596
0.000287013
0.00027192
0.000258111
0.00024537
0.000233354
0.000221241
0.000826292
0.000764347
0.000706102
0.000651937
0.000602231
0.000557104
0.000516428
0.000479912
0.000447181
0.000417833
0.000391476
0.00036775
0.000346332
0.000326936
0.000309316
0.000293254
0.000278537
0.000264924
0.000251997
0.000238749
0.000826292
0.000764347
0.000706102
0.000651937
0.000602231
0.000557104
0.000516429
0.000479913
0.000447183
0.000417835
0.000391479
0.000367755
0.000346338
0.000326945
0.000309331
0.000293275
0.000278567
0.000264971
0.000252097
0.000239115
0.000823497
0.000753987
0.000688491
0.000628748
0.000575387
0.000528266
0.000486845
0.000450441
0.000418362
0.000389973
0.000364726
0.00034216
0.000321888
0.000303594
0.000287014
0.00027192
0.00025811
0.000245367
0.000233348
0.000221238
0.000809324
0.000713905
0.000631504
0.000562573
0.000505376
0.000457784
0.000417839
0.000383937
0.0003548
0.000329443
0.000307146
0.000287364
0.000269679
0.00025376
0.000239354
0.000226247
0.000214261
0.000203213
0.000192815
0.000181825
0.00071288
0.000556432
0.000466396
0.000402354
0.000354424
0.000317048
0.000286672
0.00026125
0.000239575
0.000220835
0.000204428
0.000189927
0.000177013
0.000165421
0.000154952
0.000145448
0.000136773
0.000128801
0.000121437
0.000114534
0.000198681
0.0001383
0.000105187
8.55268e-05
7.25011e-05
6.28899e-05
5.60608e-05
5.07588e-05
4.63873e-05
4.27207e-05
3.96236e-05
3.69529e-05
3.46296e-05
3.25976e-05
3.08098e-05
2.92287e-05
2.78223e-05
2.65645e-05
2.54445e-05
2.45828e-05
0.000218609
0.000155003
0.000118661
9.65069e-05
8.18823e-05
7.08356e-05
6.30856e-05
5.71436e-05
5.22486e-05
4.80966e-05
4.45833e-05
4.15732e-05
3.89544e-05
3.66623e-05
3.46449e-05
3.286e-05
3.12736e-05
2.98589e-05
2.86054e-05
2.76121e-05
0.000728543
0.000588231
0.000496002
0.000429132
0.00037851
0.000338935
0.000306819
0.000279976
0.000257076
0.00023726
0.000219917
0.000204589
0.000190936
0.000178695
0.000167664
0.000157652
0.000148543
0.00014022
0.000132577
0.000125607
0.000814958
0.000730426
0.000654634
0.000589044
0.000533068
0.000485439
0.000444765
0.000409796
0.000379474
0.000352938
0.000329501
0.000308644
0.000289962
0.000273134
0.000257903
0.000244044
0.000231381
0.000219734
0.000208851
0.00019812
0.000826292
0.000764347
0.000706102
0.000651937
0.000602231
0.000557104
0.000516429
0.000479913
0.000447183
0.000417835
0.00039148
0.000367755
0.000346339
0.000326947
0.000309332
0.000293276
0.000278568
0.000264972
0.000252099
0.000239114
0.000828382
0.0007726
0.000721138
0.00067296
0.000627782
0.000585621
0.000546548
0.00051058
0.000477649
0.000447616
0.000420289
0.000395448
0.000372865
0.000352313
0.000333581
0.000316468
0.000300756
0.000286167
0.000272173
0.000257492
0.000828382
0.0007726
0.000721138
0.00067296
0.000627782
0.000585621
0.000546548
0.000510579
0.000477649
0.000447616
0.000420289
0.000395448
0.000372865
0.000352313
0.000333581
0.000316468
0.000300756
0.000286166
0.000272172
0.000257496
0.000826292
0.000764347
0.000706102
0.000651937
0.000602231
0.000557104
0.000516428
0.000479912
0.000447181
0.000417833
0.000391476
0.00036775
0.000346331
0.000326935
0.000309318
0.000293255
0.000278538
0.000264925
0.000251996
0.000238757
0.000814958
0.000730426
0.000654634
0.000589043
0.000533067
0.000485438
0.000444763
0.000409793
0.000379469
0.000352931
0.00032949
0.000308628
0.000289939
0.000273099
0.000257845
0.000243963
0.000231267
0.000219567
0.000208569
0.00019739
0.000728543
0.000588231
0.000496001
0.000429131
0.000378509
0.000338933
0.000306817
0.000279971
0.000257069
0.00023725
0.000219902
0.000204566
0.000190902
0.000178643
0.00016757
0.00015752
0.000148356
0.000139955
0.000132207
0.000125019
0.000218609
0.000155003
0.000118661
9.65068e-05
8.18823e-05
7.08354e-05
6.30854e-05
5.71432e-05
5.2248e-05
4.80958e-05
4.4582e-05
4.15712e-05
3.89515e-05
3.66579e-05
3.46377e-05
3.28489e-05
3.12569e-05
2.98345e-05
2.85742e-05
2.76187e-05
0.000218609
0.000155003
0.000118661
9.65068e-05
8.18823e-05
7.08354e-05
6.30854e-05
5.71432e-05
5.2248e-05
4.80958e-05
4.4582e-05
4.15712e-05
3.89514e-05
3.66577e-05
3.46379e-05
3.28491e-05
3.12571e-05
2.98347e-05
2.85744e-05
2.76192e-05
0.000728543
0.000588231
0.000496001
0.000429131
0.000378509
0.000338933
0.000306817
0.000279971
0.000257069
0.00023725
0.000219901
0.000204565
0.000190899
0.000178638
0.000167575
0.000157523
0.000148356
0.000139952
0.000132199
0.000125008
0.000814958
0.000730426
0.000654634
0.000589043
0.000533067
0.000485438
0.000444763
0.000409793
0.000379469
0.00035293
0.00032949
0.000308627
0.000289937
0.000273097
0.000257846
0.000243963
0.000231264
0.000219561
0.000208559
0.000197366
0.000826292
0.000764347
0.000706102
0.000651937
0.000602231
0.000557104
0.000516428
0.000479912
0.000447181
0.000417833
0.000391476
0.00036775
0.000346332
0.000326936
0.000309316
0.000293254
0.000278537
0.000264923
0.000251995
0.000238744
0.000828382
0.0007726
0.000721138
0.00067296
0.000627782
0.000585621
0.000546548
0.000510579
0.000477649
0.000447616
0.000420289
0.000395448
0.000372865
0.000352314
0.000333581
0.000316468
0.000300756
0.000286167
0.000272172
0.00025749
0.000828382
0.0007726
0.000721138
0.00067296
0.000627782
0.000585621
0.000546548
0.000510579
0.000477649
0.000447616
0.000420289
0.000395448
0.000372865
0.000352313
0.000333581
0.000316468
0.000300756
0.000286167
0.000272173
0.0002575
0.000826292
0.000764347
0.000706102
0.000651937
0.000602231
0.000557104
0.000516429
0.000479913
0.000447183
0.000417835
0.000391479
0.000367755
0.000346338
0.000326946
0.000309333
0.000293276
0.000278569
0.000264973
0.000252099
0.000239121
0.000814958
0.000730426
0.000654634
0.000589044
0.000533068
0.000485439
0.000444765
0.000409796
0.000379474
0.000352938
0.000329501
0.000308644
0.000289964
0.000273137
0.0002579
0.000244043
0.000231382
0.000219736
0.000208855
0.000198126
0.000728543
0.000588231
0.000496002
0.000429132
0.00037851
0.000338935
0.00030682
0.000279975
0.000257076
0.00023726
0.000219917
0.00020459
0.000190938
0.000178702
0.000167656
0.000157646
0.000148539
0.000140216
0.000132574
0.000125599
0.000218609
0.000155003
0.000118661
9.65069e-05
8.18823e-05
7.08356e-05
6.30856e-05
5.71436e-05
5.22486e-05
4.80966e-05
4.45833e-05
4.15732e-05
3.89544e-05
3.66624e-05
3.46448e-05
3.28598e-05
3.12734e-05
2.98587e-05
2.86051e-05
2.7612e-05
0.000198681
0.0001383
0.000105187
8.55268e-05
7.25011e-05
6.28899e-05
5.60608e-05
5.07588e-05
4.63873e-05
4.27207e-05
3.96236e-05
3.69529e-05
3.46295e-05
3.25974e-05
3.081e-05
2.92288e-05
2.78223e-05
2.65644e-05
2.54441e-05
2.45821e-05
0.00071288
0.000556432
0.000466396
0.000402354
0.000354424
0.000317048
0.000286672
0.000261251
0.000239575
0.000220835
0.000204428
0.000189926
0.00017701
0.000165422
0.00015495
0.000145446
0.000136769
0.000128794
0.000121423
0.000114501
0.000809324
0.000713905
0.000631504
0.000562573
0.000505376
0.000457785
0.000417839
0.000383937
0.0003548
0.000329443
0.000307146
0.000287364
0.000269678
0.000253761
0.000239351
0.000226245
0.000214257
0.000203208
0.000192808
0.000181792
0.000823497
0.000753987
0.000688491
0.000628748
0.000575387
0.000528266
0.000486845
0.000450441
0.000418362
0.000389973
0.000364726
0.00034216
0.00032189
0.000303596
0.000287012
0.000271919
0.000258109
0.000245367
0.000233348
0.000221226
0.000826292
0.000764347
0.000706102
0.000651937
0.000602231
0.000557104
0.000516429
0.000479913
0.000447183
0.000417835
0.00039148
0.000367755
0.000346339
0.000326947
0.000309331
0.000293275
0.000278568
0.000264972
0.000252097
0.000239116
0.000826292
0.000764347
0.000706102
0.000651937
0.000602231
0.000557104
0.000516428
0.000479912
0.000447181
0.000417833
0.000391476
0.00036775
0.000346332
0.000326936
0.000309316
0.000293254
0.000278538
0.000264924
0.000251996
0.000238755
0.000823497
0.000753987
0.000688491
0.000628748
0.000575387
0.000528266
0.000486845
0.000450441
0.000418362
0.000389973
0.000364726
0.00034216
0.000321889
0.000303595
0.000287015
0.000271921
0.000258112
0.000245369
0.000233351
0.000221239
0.000809324
0.000713906
0.000631505
0.000562574
0.000505378
0.000457786
0.000417843
0.000383942
0.000354808
0.000329455
0.000307165
0.000287392
0.00026972
0.000253825
0.000239448
0.000226385
0.000214463
0.000203516
0.000193346
0.000183404
0.00071288
0.000556432
0.000466397
0.000402355
0.000354426
0.000317052
0.000286677
0.000261259
0.000239588
0.000220856
0.000204461
0.000189978
0.00017709
0.000165547
0.000155134
0.000145718
0.000137174
0.000129392
0.000122307
0.000116316
0.000198681
0.0001383
0.000105187
8.55269e-05
7.25013e-05
6.28902e-05
5.60612e-05
5.07595e-05
4.63884e-05
4.27224e-05
3.96263e-05
3.6957e-05
3.46359e-05
3.26072e-05
3.08251e-05
2.92526e-05
2.78596e-05
2.66216e-05
2.55208e-05
2.45644e-05
0.000160509
0.00010736
8.07408e-05
6.55975e-05
5.54895e-05
4.83024e-05
4.31308e-05
3.90787e-05
3.57387e-05
3.29487e-05
3.05767e-05
2.85332e-05
2.67715e-05
2.52423e-05
2.39022e-05
2.27193e-05
2.16715e-05
2.0739e-05
1.99094e-05
1.91864e-05
0.000663952
0.000488458
0.000404618
0.000347247
0.000305034
0.000272126
0.000245316
0.000222885
0.00020375
0.000187171
0.000172642
0.000159795
0.000148345
0.000138074
0.000128806
0.000120533
0.000113041
0.000106133
0.000100152
9.33505e-05
0.000786827
0.000662293
0.000567974
0.000495805
0.000439463
0.000394561
0.000357973
0.00032745
0.000301488
0.000279047
0.000259394
0.000241997
0.000226464
0.000212496
0.000199859
0.000188394
0.000177934
0.000168333
0.000159502
0.000150603
0.000809324
0.000713906
0.000631505
0.000562574
0.000505378
0.000457786
0.000417842
0.000383942
0.000354808
0.000329455
0.000307165
0.000287393
0.000269721
0.000253825
0.000239447
0.000226384
0.000214462
0.000203516
0.000193345
0.000183403
0.000814958
0.000730426
0.000654634
0.000589044
0.000533068
0.000485439
0.000444765
0.000409796
0.000379474
0.000352938
0.000329501
0.000308644
0.000289963
0.000273136
0.000257903
0.000244045
0.000231383
0.000219736
0.000208854
0.000198126
0.000814958
0.000730426
0.000654634
0.000589043
0.000533067
0.000485438
0.000444763
0.000409793
0.000379469
0.000352931
0.00032949
0.000308627
0.000289937
0.000273098
0.000257847
0.000243965
0.000231267
0.000219566
0.000208565
0.000197375
0.000809324
0.000713905
0.000631504
0.000562573
0.000505376
0.000457784
0.000417839
0.000383937
0.0003548
0.000329443
0.000307146
0.000287364
0.000269679
0.000253761
0.000239354
0.000226247
0.00021426
0.000203211
0.000192812
0.000181806
0.000786827
0.000662293
0.000567974
0.000495805
0.000439463
0.000394561
0.000357973
0.00032745
0.000301488
0.000279047
0.000259394
0.000241996
0.000226462
0.000212494
0.000199864
0.000188397
0.000177937
0.000168335
0.000159507
0.000150624
0.000663952
0.000488458
0.000404619
0.000347248
0.000305036
0.000272128
0.00024532
0.000222891
0.00020376
0.000187187
0.000172666
0.000159833
0.000148403
0.000138165
0.000128951
0.000120749
0.00011337
0.000106637
0.000100937
9.52729e-05
0.000160509
0.00010736
8.07409e-05
6.55976e-05
5.54896e-05
4.83026e-05
4.31311e-05
3.90793e-05
3.57395e-05
3.29503e-05
3.05791e-05
2.85368e-05
2.6777e-05
2.52509e-05
2.39163e-05
2.27421e-05
2.17085e-05
2.07985e-05
2.00014e-05
1.93487e-05
0.000107685
6.77183e-05
5.06311e-05
4.14159e-05
3.54048e-05
3.10366e-05
2.77136e-05
2.50815e-05
2.29333e-05
2.11503e-05
1.96501e-05
1.83705e-05
1.72619e-05
1.6291e-05
1.5446e-05
1.47156e-05
1.40763e-05
1.35114e-05
1.30243e-05
1.26076e-05
0.000528907
0.000369984
0.000305097
0.000261371
0.000228527
0.000202475
0.000181113
0.000163072
0.000147537
0.000133982
0.000122046
0.000111463
0.000102131
9.3857e-05
8.64493e-05
7.96522e-05
7.34535e-05
6.77927e-05
6.36912e-05
5.73202e-05
0.000663952
0.000488458
0.000404619
0.000347248
0.000305036
0.000272128
0.00024532
0.000222892
0.00020376
0.000187187
0.000172667
0.000159834
0.000148405
0.000138165
0.000128951
0.00012075
0.000113373
0.000106643
0.000100933
9.52753e-05
0.00071288
0.000556432
0.000466397
0.000402355
0.000354426
0.000317052
0.000286677
0.00026126
0.000239588
0.000220857
0.000204461
0.000189978
0.00017709
0.000165542
0.000155139
0.000145722
0.000137179
0.000129399
0.000122315
0.00011633
0.000728543
0.000588231
0.000496002
0.000429132
0.00037851
0.000338935
0.00030682
0.000279976
0.000257076
0.000237261
0.000219917
0.000204589
0.000190936
0.000178695
0.000167665
0.000157653
0.000148544
0.000140221
0.000132579
0.000125609
0.000728543
0.000588231
0.000496001
0.000429131
0.000378509
0.000338934
0.000306817
0.000279971
0.000257069
0.00023725
0.000219901
0.000204565
0.000190899
0.000178639
0.000167576
0.000157524
0.000148357
0.000139954
0.000132203
0.000125012
0.00071288
0.000556432
0.000466396
0.000402354
0.000354424
0.000317048
0.000286672
0.000261251
0.000239575
0.000220835
0.000204428
0.000189927
0.000177012
0.000165422
0.000154952
0.000145447
0.000136771
0.000128796
0.000121429
0.000114507
0.000663952
0.000488458
0.000404618
0.000347247
0.000305034
0.000272126
0.000245316
0.000222885
0.00020375
0.000187171
0.000172642
0.000159796
0.000148345
0.00013807
0.00012881
0.000120536
0.000113044
0.000106136
0.000100156
9.33565e-05
0.000528907
0.000369984
0.000305097
0.000261371
0.000228527
0.000202475
0.000181113
0.000163072
0.000147537
0.000133981
0.000122046
0.000111462
0.00010213
9.38537e-05
8.64526e-05
7.96537e-05
7.34541e-05
6.77931e-05
6.36919e-05
5.73194e-05
0.000107685
6.77183e-05
5.06311e-05
4.14159e-05
3.54048e-05
3.10366e-05
2.77137e-05
2.50816e-05
2.29334e-05
2.11506e-05
1.96507e-05
1.83715e-05
1.72637e-05
1.6295e-05
1.54524e-05
1.47269e-05
1.40978e-05
1.35541e-05
1.31131e-05
1.27998e-05
4.5356e-05
2.3208e-05
1.65396e-05
1.36493e-05
1.18966e-05
1.06844e-05
9.76073e-06
9.05707e-06
8.49467e-06
8.03126e-06
7.64045e-06
7.31211e-06
7.02449e-06
6.7605e-06
6.52873e-06
6.32762e-06
6.15287e-06
6.00249e-06
5.89606e-06
5.77601e-06
0.000107685
6.77183e-05
5.06311e-05
4.14159e-05
3.54048e-05
3.10367e-05
2.77137e-05
2.50816e-05
2.29334e-05
2.11506e-05
1.96507e-05
1.83715e-05
1.72637e-05
1.6295e-05
1.54523e-05
1.47268e-05
1.40977e-05
1.35541e-05
1.31131e-05
1.27997e-05
0.000160509
0.00010736
8.07409e-05
6.55976e-05
5.54896e-05
4.83026e-05
4.31311e-05
3.90792e-05
3.57395e-05
3.29503e-05
3.05791e-05
2.85369e-05
2.67771e-05
2.5251e-05
2.39162e-05
2.27421e-05
2.17085e-05
2.07986e-05
2.00015e-05
1.93489e-05
0.000198681
0.0001383
0.000105187
8.55269e-05
7.25013e-05
6.28902e-05
5.60612e-05
5.07595e-05
4.63884e-05
4.27224e-05
3.96264e-05
3.69571e-05
3.4636e-05
3.26073e-05
3.08251e-05
2.92527e-05
2.78597e-05
2.66218e-05
2.55211e-05
2.45644e-05
0.000218609
0.000155003
0.000118661
9.65069e-05
8.18823e-05
7.08356e-05
6.30856e-05
5.71436e-05
5.22486e-05
4.80966e-05
4.45833e-05
4.15732e-05
3.89544e-05
3.66623e-05
3.46449e-05
3.286e-05
3.12736e-05
2.9859e-05
2.86055e-05
2.76129e-05
0.000218609
0.000155003
0.000118661
9.65068e-05
8.18823e-05
7.08354e-05
6.30854e-05
5.71432e-05
5.2248e-05
4.80958e-05
4.4582e-05
4.15712e-05
3.89514e-05
3.66577e-05
3.4638e-05
3.28492e-05
3.12571e-05
2.98347e-05
2.85744e-05
2.76191e-05
0.000198681
0.0001383
0.000105187
8.55268e-05
7.25011e-05
6.28899e-05
5.60608e-05
5.07588e-05
4.63873e-05
4.27207e-05
3.96236e-05
3.69529e-05
3.46296e-05
3.25976e-05
3.08099e-05
2.92287e-05
2.78222e-05
2.65644e-05
2.54442e-05
2.45819e-05
0.000160509
0.00010736
8.07408e-05
6.55975e-05
5.54895e-05
4.83024e-05
4.31308e-05
3.90787e-05
3.57387e-05
3.29487e-05
3.05767e-05
2.85332e-05
2.67715e-05
2.52423e-05
2.39021e-05
2.27192e-05
2.16715e-05
2.0739e-05
1.99093e-05
1.91864e-05
0.000107685
6.77183e-05
5.06311e-05
4.14159e-05
3.54048e-05
3.10366e-05
2.77136e-05
2.50815e-05
2.29333e-05
2.11503e-05
1.96501e-05
1.83705e-05
1.72619e-05
1.6291e-05
1.54459e-05
1.47156e-05
1.40763e-05
1.35115e-05
1.30243e-05
1.26078e-05
4.5356e-05
2.3208e-05
1.65396e-05
1.36493e-05
1.18966e-05
1.06844e-05
9.76073e-06
9.05707e-06
8.49467e-06
8.03126e-06
7.64045e-06
7.31209e-06
7.02452e-06
6.76047e-06
6.52874e-06
6.32763e-06
6.15288e-06
6.00251e-06
5.89609e-06
5.77608e-06
5.2932e-06
4.95707e-06
4.69739e-06
4.52958e-06
4.42372e-06
4.34983e-06
4.28957e-06
4.2306e-06
4.1765e-06
4.12348e-06
4.07588e-06
4.03187e-06
3.98981e-06
3.94849e-06
3.91066e-06
3.87398e-06
3.84006e-06
3.80668e-06
3.77531e-06
3.74532e-06
3.71566e-06
3.68748e-06
3.66024e-06
3.63496e-06
3.61078e-06
3.5872e-06
3.56431e-06
3.54152e-06
3.51932e-06
3.49754e-06
3.47695e-06
3.45646e-06
3.43613e-06
3.41547e-06
3.39442e-06
3.37692e-06
3.35928e-06
3.3412e-06
3.3254e-06
3.2969e-06
1.10861e-05
1.04449e-05
9.95663e-06
9.59108e-06
9.31574e-06
9.09539e-06
8.90757e-06
8.74022e-06
8.58942e-06
8.44371e-06
8.31815e-06
8.20004e-06
8.09011e-06
7.98577e-06
7.88902e-06
7.79708e-06
7.71334e-06
7.63447e-06
7.56032e-06
7.49028e-06
7.42232e-06
7.35724e-06
7.29588e-06
7.23866e-06
7.18531e-06
7.13441e-06
7.08491e-06
7.03636e-06
6.98895e-06
6.94227e-06
6.89699e-06
6.85287e-06
6.81005e-06
6.76793e-06
6.72564e-06
6.6848e-06
6.6466e-06
6.60877e-06
6.57276e-06
6.53074e-06
1.66826e-05
1.57479e-05
1.50029e-05
1.4486e-05
1.4042e-05
1.36499e-05
1.33087e-05
1.30102e-05
1.27434e-05
1.25072e-05
1.22943e-05
1.20956e-05
1.19156e-05
1.17402e-05
1.15771e-05
1.14281e-05
1.1292e-05
1.11661e-05
1.10449e-05
1.09295e-05
1.08194e-05
1.07075e-05
1.0601e-05
1.05037e-05
1.04142e-05
1.03298e-05
1.0247e-05
1.01661e-05
1.00879e-05
1.00116e-05
9.93761e-06
9.86416e-06
9.7945e-06
9.72553e-06
9.65895e-06
9.59522e-06
9.53248e-06
9.46976e-06
9.40962e-06
9.34657e-06
2.07544e-05
1.98527e-05
1.90714e-05
1.84087e-05
1.78508e-05
1.73512e-05
1.68985e-05
1.64877e-05
1.61137e-05
1.57717e-05
1.54607e-05
1.51741e-05
1.49089e-05
1.46655e-05
1.44409e-05
1.42337e-05
1.404e-05
1.38639e-05
1.36794e-05
1.35067e-05
1.33502e-05
1.32007e-05
1.30557e-05
1.29181e-05
1.27876e-05
1.26646e-05
1.25474e-05
1.24353e-05
1.23283e-05
1.22247e-05
1.2126e-05
1.20201e-05
1.19349e-05
1.1833e-05
1.17556e-05
1.16607e-05
1.15838e-05
1.15004e-05
1.1423e-05
1.13427e-05
2.31479e-05
2.22691e-05
2.14923e-05
2.07969e-05
2.01714e-05
1.96083e-05
1.90973e-05
1.86309e-05
1.82018e-05
1.78063e-05
1.74412e-05
1.71041e-05
1.67931e-05
1.6502e-05
1.62334e-05
1.59829e-05
1.57478e-05
1.55265e-05
1.53196e-05
1.51223e-05
1.49474e-05
1.4759e-05
1.45793e-05
1.4413e-05
1.42584e-05
1.41111e-05
1.39731e-05
1.38407e-05
1.3716e-05
1.35957e-05
1.34825e-05
1.33593e-05
1.32654e-05
1.31386e-05
1.3058e-05
1.29401e-05
1.28507e-05
1.27549e-05
1.26669e-05
1.25825e-05
2.36906e-05
2.28557e-05
2.20902e-05
2.13969e-05
2.07693e-05
2.02013e-05
1.96859e-05
1.92158e-05
1.87818e-05
1.83788e-05
1.80039e-05
1.76556e-05
1.73332e-05
1.7027e-05
1.67411e-05
1.64743e-05
1.62241e-05
1.59927e-05
1.57752e-05
1.55702e-05
1.53779e-05
1.51959e-05
1.5028e-05
1.48644e-05
1.46934e-05
1.453e-05
1.43801e-05
1.42413e-05
1.41142e-05
1.3991e-05
1.38762e-05
1.37544e-05
1.36764e-05
1.34776e-05
1.34799e-05
1.32927e-05
1.32346e-05
1.31284e-05
1.30336e-05
1.29448e-05
2.30031e-05
2.19655e-05
2.11159e-05
2.03971e-05
1.97745e-05
1.92285e-05
1.87428e-05
1.8303e-05
1.78973e-05
1.7521e-05
1.71705e-05
1.68436e-05
1.65391e-05
1.62512e-05
1.5982e-05
1.57299e-05
1.54938e-05
1.52733e-05
1.50679e-05
1.48772e-05
1.46986e-05
1.45305e-05
1.43688e-05
1.42187e-05
1.40569e-05
1.39064e-05
1.37697e-05
1.36416e-05
1.35226e-05
1.34042e-05
1.32937e-05
1.31719e-05
1.30981e-05
1.29403e-05
1.28838e-05
1.27716e-05
1.26791e-05
1.25865e-05
1.24945e-05
1.24052e-05
2.03224e-05
1.92239e-05
1.83965e-05
1.7759e-05
1.72276e-05
1.67744e-05
1.63719e-05
1.60059e-05
1.56683e-05
1.53541e-05
1.50603e-05
1.47853e-05
1.45283e-05
1.42865e-05
1.40605e-05
1.38493e-05
1.36524e-05
1.34696e-05
1.32983e-05
1.31381e-05
1.29897e-05
1.28471e-05
1.27034e-05
1.2568e-05
1.24454e-05
1.23265e-05
1.22152e-05
1.21075e-05
1.20006e-05
1.18936e-05
1.17939e-05
1.17014e-05
1.16161e-05
1.15301e-05
1.14458e-05
1.13605e-05
1.12726e-05
1.11884e-05
1.11053e-05
1.1023e-05
1.59324e-05
1.48937e-05
1.42024e-05
1.37912e-05
1.34374e-05
1.3126e-05
1.28478e-05
1.2593e-05
1.23568e-05
1.21338e-05
1.19252e-05
1.1734e-05
1.15542e-05
1.13833e-05
1.12247e-05
1.10723e-05
1.09158e-05
1.07796e-05
1.06513e-05
1.05329e-05
1.04188e-05
1.0312e-05
1.02095e-05
1.01094e-05
1.00179e-05
9.92838e-06
9.84477e-06
9.7644e-06
9.68898e-06
9.61597e-06
9.54614e-06
9.47785e-06
9.41269e-06
9.34868e-06
9.28557e-06
9.21882e-06
9.15075e-06
9.08733e-06
9.02649e-06
8.96267e-06
1.02733e-05
9.82177e-06
9.4672e-06
9.18954e-06
8.98417e-06
8.82098e-06
8.67807e-06
8.53228e-06
8.40177e-06
8.26761e-06
8.15193e-06
8.04239e-06
7.94103e-06
7.82999e-06
7.72976e-06
7.63554e-06
7.5454e-06
7.4609e-06
7.38072e-06
7.3059e-06
7.23428e-06
7.16724e-06
7.10558e-06
7.04797e-06
6.99427e-06
6.94227e-06
6.89236e-06
6.84408e-06
6.79796e-06
6.75262e-06
6.70917e-06
6.66729e-06
6.62672e-06
6.5864e-06
6.5463e-06
6.50317e-06
6.46427e-06
6.42663e-06
6.39252e-06
6.35147e-06
5.29255e-06
4.95656e-06
4.69638e-06
4.52863e-06
4.41916e-06
4.34256e-06
4.28131e-06
4.223e-06
4.17005e-06
4.11835e-06
4.07301e-06
4.02987e-06
3.98928e-06
3.94891e-06
3.9109e-06
3.87452e-06
3.84032e-06
3.80702e-06
3.77557e-06
3.74536e-06
3.71595e-06
3.68743e-06
3.66055e-06
3.635e-06
3.61107e-06
3.5872e-06
3.56429e-06
3.54136e-06
3.51909e-06
3.49734e-06
3.47681e-06
3.45642e-06
3.43626e-06
3.41589e-06
3.39574e-06
3.37622e-06
3.35836e-06
3.33981e-06
3.32369e-06
3.29365e-06
1.02728e-05
9.8287e-06
9.47058e-06
9.19255e-06
9.00363e-06
8.84708e-06