/*--------------------------------*- C++ -*----------------------------------*\
| =========                 |                                                 |
| \\      /  F ield         | OpenFOAM: The Open Source CFD Toolbox           |
|  \\    /   O peration     | Version:  2212                                  |
|   \\  /    A nd           | Website:  www.openfoam.com                      |
|    \\/     M anipulation  |                                                 |
\*---------------------------------------------------------------------------*/
FoamFile
{
    version     2.0;
    format      ascii;
    arch        "LSB;label=32;scalar=64";
    class       volScalarField;
    location    "1.85";
    object      p;
}
// * * * * * * * * * * * * * * * * * * * * * * * * * * * * * * * * * * * * * //

dimensions      [0 2 -2 0 0 0 0];

internalField   nonuniform List<scalar> 
6840
(
0.0178854
0.0107709
0.0084795
0.00794168
0.00766732
0.00744513
0.00725852
0.00709213
0.00693103
0.00677167
0.00661415
0.00645833
0.00630328
0.00614792
0.00599215
0.00583583
0.00567811
0.00551698
0.00533445
0.00500439
0.0107066
0.00997274
0.00887985
0.00821389
0.00781132
0.00753764
0.00732655
0.00714046
0.00696627
0.00679932
0.00663715
0.0064782
0.0063213
0.00616622
0.00601361
0.00586468
0.00571987
0.00557735
0.00543848
0.00531418
0.0103583
0.00950682
0.00874256
0.00818345
0.00780733
0.00753937
0.00732381
0.00713106
0.00695291
0.00678487
0.0066222
0.00646286
0.00630666
0.00615396
0.00600533
0.00586179
0.00572565
0.00560016
0.00549503
0.00543549
0.00994904
0.00918632
0.00856756
0.00811625
0.00777229
0.0075033
0.00728375
0.00709506
0.00692741
0.00677025
0.00661504
0.00646049
0.00630752
0.00615715
0.00601039
0.00586871
0.00573467
0.0056117
0.00550529
0.00543156
0.00981479
0.00907361
0.00848544
0.00807732
0.00775536
0.00748861
0.00726705
0.00707634
0.00690545
0.00674854
0.00659831
0.00644786
0.0062964
0.00614573
0.00599735
0.0058524
0.00571219
0.00557812
0.00544992
0.00533606
0.00981478
0.00907359
0.0084854
0.00807726
0.00775528
0.00748849
0.00726684
0.007076
0.0069049
0.00674765
0.00659687
0.00644555
0.00629265
0.0061397
0.00598777
0.00583736
0.00568887
0.00554276
0.00539851
0.00525934
0.00994898
0.00918625
0.00856748
0.00811613
0.00777212
0.00750302
0.00728327
0.00709424
0.00692604
0.00676801
0.00661138
0.00645455
0.00629797
0.00614183
0.0059858
0.00582916
0.00567126
0.00551201
0.00535291
0.00519148
0.0103583
0.00950676
0.00874249
0.00818334
0.00780715
0.00753906
0.00732329
0.0071302
0.00695149
0.00678251
0.00661826
0.00645639
0.0062961
0.00613666
0.00597676
0.00581407
0.00564523
0.00546504
0.00526887
0.00503975
0.0107066
0.00997271
0.00887981
0.00821384
0.00781123
0.00753749
0.00732628
0.00714
0.00696549
0.00679799
0.00663496
0.00647458
0.0063152
0.00615561
0.00599522
0.00583312
0.00566577
0.00548156
0.00524931
0.00489587
0.0178854
0.0107709
0.00847951
0.00794168
0.00766732
0.00744513
0.00725852
0.00709214
0.00693103
0.00677168
0.00661416
0.00645834
0.0063033
0.00614792
0.00599215
0.00583583
0.0056781
0.00551693
0.00533435
0.00500408
0.0107066
0.00997271
0.00887981
0.00821383
0.00781122
0.00753748
0.00732628
0.00713999
0.00696548
0.00679798
0.00663495
0.00647457
0.00631518
0.0061556
0.00599521
0.00583311
0.00566574
0.00548154
0.00524931
0.00489591
0.00998999
0.00995829
0.00923007
0.00851958
0.00807325
0.00775733
0.00749849
0.0072709
0.00706644
0.00687825
0.00670082
0.00653052
0.00636446
0.00620094
0.00603939
0.00587906
0.00571858
0.00555677
0.00540236
0.00527365
0.00906454
0.00919074
0.00888788
0.00847169
0.00810458
0.00778601
0.00750758
0.00726735
0.00705512
0.00686113
0.00667867
0.00650467
0.00633744
0.00617578
0.00601904
0.00586719
0.00572122
0.00558383
0.00546239
0.00537792
0.00864619
0.0086897
0.00852415
0.00826125
0.00798092
0.00770965
0.00745874
0.00723253
0.00702977
0.0068438
0.00666792
0.00649898
0.00633549
0.00617688
0.00602354
0.00587611
0.00573563
0.00560446
0.00548706
0.0053887
0.00843017
0.008452
0.0083248
0.00810731
0.0078749
0.00764576
0.00742298
0.00720988
0.00700917
0.006822
0.00664591
0.00647751
0.00631523
0.00615814
0.0060054
0.00585665
0.00571243
0.00557425
0.00544437
0.00532197
0.00843013
0.00845196
0.00832475
0.00810722
0.00787477
0.00764557
0.00742269
0.00720944
0.00700852
0.00682095
0.00664413
0.00647461
0.00631067
0.00615112
0.0059946
0.00584054
0.00568926
0.00554154
0.00539927
0.00526054
0.0086461
0.00868961
0.00852403
0.00826109
0.00798068
0.0077093
0.00745821
0.00723171
0.00702843
0.00684139
0.00666367
0.00649205
0.00632496
0.00616129
0.0059998
0.00583937
0.00567938
0.00552032
0.00536511
0.00521111
0.0090645
0.00919069
0.00888781
0.00847159
0.00810444
0.00778579
0.00750719
0.00726667
0.00705395
0.00685918
0.00667556
0.00649972
0.00632955
0.006163
0.0059983
0.00583383
0.00566821
0.00550122
0.0053366
0.0051762
0.00998999
0.00995829
0.00923008
0.00851958
0.00807325
0.00775734
0.00749849
0.0072709
0.00706644
0.00687826
0.00670083
0.00653053
0.00636447
0.00620094
0.00603938
0.00587903
0.00571854
0.00555668
0.00540218
0.00527338
0.0107066
0.00997274
0.00887985
0.00821389
0.00781133
0.00753765
0.00732656
0.00714047
0.00696628
0.00679932
0.00663715
0.0064782
0.00632131
0.00616621
0.00601359
0.00586465
0.0057198
0.00557722
0.00543822
0.00531368
0.0103583
0.00950676
0.00874248
0.00818334
0.00780715
0.00753905
0.00732329
0.00713019
0.00695149
0.0067825
0.00661825
0.00645638
0.00629609
0.00613665
0.00597674
0.00581403
0.00564517
0.00546493
0.00526865
0.00503923
0.0090645
0.00919069
0.00888781
0.00847159
0.00810444
0.00778578
0.00750719
0.00726667
0.00705394
0.00685917
0.00667555
0.00649971
0.00632955
0.00616299
0.00599829
0.00583382
0.0056682
0.00550121
0.00533658
0.00517616
0.00849503
0.00859601
0.00848446
0.008259
0.00800327
0.0077449
0.00748656
0.00724504
0.00702732
0.0068273
0.00664005
0.00646248
0.00629211
0.00612692
0.00596565
0.00580732
0.00565098
0.00549666
0.0053447
0.00519048
0.00812705
0.00819512
0.00814276
0.00799582
0.00781101
0.00760594
0.00739535
0.0071886
0.00698774
0.00679576
0.0066139
0.00644037
0.00627326
0.00611139
0.00595419
0.00580101
0.00565089
0.00550512
0.00536756
0.00523134
0.00794396
0.00800839
0.00797893
0.00785411
0.00769512
0.00752146
0.00733518
0.00714719
0.00696113
0.00677787
0.00659901
0.00642561
0.00625809
0.00609583
0.00593845
0.00578578
0.00563672
0.0054913
0.0053527
0.00521491
0.00794393
0.00800836
0.00797889
0.00785403
0.00769499
0.00752127
0.00733494
0.00714687
0.00696065
0.00677711
0.00659784
0.00642383
0.00625546
0.00609204
0.00593281
0.00577737
0.00562471
0.00547433
0.00532728
0.00517812
0.008127
0.00819507
0.00814268
0.0079957
0.00781083
0.0076057
0.00739503
0.00718812
0.00698699
0.00679454
0.00661191
0.00643726
0.00626856
0.00610437
0.00594359
0.00578521
0.00562822
0.0054717
0.0053149
0.00515173
0.00849503
0.00859601
0.00848446
0.00825901
0.00800328
0.00774491
0.00748657
0.00724505
0.00702732
0.00682731
0.00664005
0.00646249
0.00629212
0.00612693
0.00596566
0.00580733
0.005651
0.00549669
0.00534474
0.00519058
0.00906455
0.00919075
0.00888789
0.0084717
0.00810459
0.00778602
0.00750759
0.00726736
0.00705513
0.00686114
0.00667868
0.00650468
0.00633744
0.00617578
0.00601903
0.00586717
0.00572116
0.00558373
0.00546224
0.00537772
0.0103583
0.00950683
0.00874257
0.00818345
0.00780733
0.00753937
0.00732382
0.00713106
0.00695292
0.00678488
0.00662221
0.00646287
0.00630666
0.00615396
0.00600531
0.00586176
0.00572558
0.00560002
0.00549478
0.00543507
0.00994898
0.00918625
0.00856747
0.00811613
0.00777212
0.00750302
0.00728327
0.00709424
0.00692603
0.006768
0.00661137
0.00645454
0.00629797
0.00614182
0.00598578
0.00582913
0.0056712
0.0055119
0.00535273
0.0051912
0.0086461
0.00868961
0.00852403
0.00826108
0.00798068
0.0077093
0.00745821
0.00723171
0.00702843
0.00684139
0.00666367
0.00649205
0.00632496
0.00616129
0.0059998
0.00583937
0.00567937
0.00552032
0.00536516
0.00521127
0.008127
0.00819506
0.00814268
0.0079957
0.00781083
0.0076057
0.00739503
0.00718811
0.00698699
0.00679454
0.00661191
0.00643726
0.00626856
0.00610437
0.00594359
0.00578522
0.00562823
0.00547173
0.00531498
0.00515194
0.00782913
0.00788827
0.00787634
0.00778095
0.00764133
0.00747585
0.00729568
0.00711123
0.0069273
0.006747
0.00657197
0.00640207
0.00623669
0.00607521
0.00591707
0.00576158
0.0056079
0.00545584
0.00530578
0.00515111
0.00767801
0.0077409
0.00774466
0.00767101
0.00755088
0.00740448
0.00724156
0.00707011
0.00689594
0.00672237
0.00655124
0.00638345
0.0062193
0.00605869
0.00590136
0.00574686
0.00559443
0.00544389
0.00529632
0.00514438
0.00767799
0.00774089
0.00774465
0.00767099
0.00755085
0.00740443
0.00724148
0.00707
0.00689578
0.00672214
0.00655092
0.00638299
0.00621862
0.00605768
0.00589979
0.0057445
0.00559106
0.00543905
0.00528882
0.00513421
0.00782913
0.00788828
0.00787634
0.00778096
0.00764134
0.00747586
0.00729569
0.00711124
0.0069273
0.00674701
0.00657198
0.00640208
0.0062367
0.00607523
0.00591709
0.0057616
0.00560794
0.0054559
0.00530587
0.00515125
0.00812706
0.00819512
0.00814276
0.00799583
0.00781102
0.00760595
0.00739536
0.00718861
0.00698775
0.00679577
0.00661392
0.00644039
0.00627328
0.00611141
0.00595422
0.00580106
0.00565097
0.00550524
0.00536775
0.00523169
0.00864619
0.00868971
0.00852416
0.00826126
0.00798093
0.00770966
0.00745875
0.00723254
0.00702978
0.00684381
0.00666793
0.00649899
0.0063355
0.0061769
0.00602354
0.0058761
0.00573562
0.00560444
0.00548704
0.00538873
0.00994905
0.00918632
0.00856756
0.00811625
0.0077723
0.00750331
0.00728376
0.00709507
0.00692742
0.00677026
0.00661505
0.0064605
0.00630753
0.00615716
0.00601039
0.00586869
0.00573462
0.0056116
0.00550512
0.00543131
0.00981477
0.00907359
0.0084854
0.00807726
0.00775528
0.00748849
0.00726684
0.007076
0.0069049
0.00674765
0.00659688
0.00644555
0.00629265
0.0061397
0.00598776
0.00583734
0.00568884
0.00554271
0.00539843
0.00525925
0.00843013
0.00845195
0.00832475
0.00810721
0.00787476
0.00764556
0.00742269
0.00720944
0.00700852
0.00682095
0.00664413
0.00647461
0.00631067
0.00615112
0.00599461
0.00584054
0.00568925
0.00554154
0.00539929
0.00526063
0.00794393
0.00800836
0.00797889
0.00785403
0.00769499
0.00752127
0.00733494
0.00714686
0.00696064
0.00677711
0.00659784
0.00642383
0.00625546
0.00609204
0.00593282
0.00577737
0.00562471
0.00547434
0.00532731
0.00517819
0.00767799
0.00774089
0.00774464
0.00767098
0.00755084
0.00740442
0.00724148
0.00707
0.00689578
0.00672214
0.00655091
0.00638298
0.00621862
0.00605767
0.00589978
0.00574449
0.00559105
0.00543903
0.0052888
0.00513419
0.00753518
0.0076047
0.00762682
0.00757426
0.00747299
0.00734203
0.00719207
0.00703103
0.00686446
0.00669606
0.00652819
0.00636227
0.00619903
0.00603874
0.00588137
0.00572663
0.00557397
0.00542344
0.00527618
0.00512685
0.00753518
0.0076047
0.00762682
0.00757426
0.00747299
0.00734203
0.00719207
0.00703103
0.00686446
0.00669607
0.0065282
0.00636228
0.00619904
0.00603875
0.00588137
0.00572664
0.00557399
0.00542346
0.00527621
0.0051269
0.00767801
0.00774091
0.00774467
0.00767101
0.00755088
0.00740448
0.00724157
0.00707012
0.00689595
0.00672237
0.00655125
0.00638346
0.00621931
0.0060587
0.00590138
0.00574689
0.00559448
0.00544396
0.00529642
0.00514454
0.00794396
0.0080084
0.00797893
0.00785411
0.00769513
0.00752147
0.00733519
0.0071472
0.00696114
0.00677788
0.00659903
0.00642563
0.00625811
0.00609586
0.00593849
0.00578584
0.0056368
0.00549143
0.00535288
0.00521522
0.00843018
0.00845201
0.00832481
0.00810732
0.00787491
0.00764577
0.00742299
0.00720989
0.00700918
0.00682201
0.00664593
0.00647753
0.00631524
0.00615816
0.00600541
0.00585666
0.00571246
0.00557428
0.00544443
0.0053221
0.0098148
0.00907362
0.00848545
0.00807733
0.00775537
0.00748862
0.00726706
0.00707635
0.00690546
0.00674855
0.00659832
0.00644788
0.00629641
0.00614574
0.00599736
0.00585239
0.00571216
0.00557805
0.00544979
0.00533586
0.00981479
0.00907361
0.00848544
0.00807732
0.00775536
0.00748861
0.00726705
0.00707634
0.00690546
0.00674854
0.00659831
0.00644787
0.00629641
0.00614574
0.00599736
0.0058524
0.00571218
0.0055781
0.00544989
0.00533602
0.00843017
0.008452
0.0083248
0.00810731
0.0078749
0.00764576
0.00742298
0.00720988
0.00700917
0.00682201
0.00664592
0.00647752
0.00631524
0.00615815
0.0060054
0.00585665
0.00571243
0.00557423
0.00544435
0.00532191
0.00794395
0.00800839
0.00797892
0.0078541
0.00769512
0.00752146
0.00733518
0.00714719
0.00696113
0.00677787
0.00659902
0.00642562
0.00625809
0.00609583
0.00593846
0.00578578
0.00563671
0.00549129
0.00535267
0.00521488
0.007678
0.0077409
0.00774466
0.00767101
0.00755088
0.00740448
0.00724156
0.00707011
0.00689594
0.00672237
0.00655124
0.00638345
0.0062193
0.00605869
0.00590135
0.00574685
0.00559443
0.00544387
0.0052963
0.00514437
0.00753518
0.0076047
0.00762682
0.00757426
0.00747299
0.00734203
0.00719207
0.00703103
0.00686446
0.00669606
0.00652819
0.00636227
0.00619903
0.00603874
0.00588137
0.00572663
0.00557397
0.00542343
0.00527618
0.00512685
0.00753518
0.0076047
0.00762682
0.00757426
0.00747299
0.00734203
0.00719207
0.00703103
0.00686446
0.00669607
0.0065282
0.00636228
0.00619904
0.00603875
0.00588137
0.00572664
0.00557398
0.00542345
0.0052762
0.00512689
0.007678
0.00774089
0.00774465
0.00767099
0.00755085
0.00740443
0.00724149
0.00707
0.00689579
0.00672215
0.00655092
0.00638299
0.00621863
0.00605768
0.0058998
0.00574452
0.00559109
0.00543909
0.00528887
0.00513429
0.00794393
0.00800837
0.0079789
0.00785404
0.007695
0.00752128
0.00733495
0.00714687
0.00696065
0.00677712
0.00659785
0.00642385
0.00625548
0.00609207
0.00593285
0.00577741
0.00562477
0.00547443
0.00532744
0.00517836
0.00843014
0.00845196
0.00832476
0.00810722
0.00787477
0.00764558
0.0074227
0.00720945
0.00700853
0.00682096
0.00664415
0.00647463
0.00631068
0.00615114
0.00599462
0.00584057
0.0056893
0.0055416
0.00539938
0.00526076
0.00981478
0.0090736
0.00848541
0.00807727
0.00775529
0.0074885
0.00726685
0.00707601
0.00690491
0.00674766
0.00659689
0.00644556
0.00629266
0.00613971
0.00598778
0.00583736
0.00568885
0.00554271
0.00539842
0.0052592
0.00994904
0.00918631
0.00856756
0.00811625
0.00777229
0.0075033
0.00728375
0.00709506
0.00692741
0.00677026
0.00661505
0.0064605
0.00630753
0.00615717
0.0060104
0.00586872
0.00573468
0.0056117
0.00550528
0.00543154
0.00864619
0.0086897
0.00852415
0.00826125
0.00798092
0.00770965
0.00745874
0.00723253
0.00702977
0.0068438
0.00666793
0.00649899
0.0063355
0.0061769
0.00602355
0.00587611
0.00573563
0.00560445
0.00548702
0.00538862
0.00812705
0.00819512
0.00814275
0.00799582
0.00781101
0.00760594
0.00739535
0.0071886
0.00698774
0.00679576
0.00661391
0.00644038
0.00627327
0.00611139
0.00595419
0.00580101
0.00565089
0.00550511
0.00536752
0.00523127
0.00782913
0.00788827
0.00787634
0.00778095
0.00764133
0.00747585
0.00729568
0.00711123
0.0069273
0.006747
0.00657198
0.00640207
0.00623669
0.00607522
0.00591707
0.00576158
0.0056079
0.00545584
0.00530577
0.0051511
0.00767799
0.00774089
0.00774465
0.00767099
0.00755085
0.00740443
0.00724148
0.00707
0.00689578
0.00672214
0.00655091
0.00638298
0.00621862
0.00605767
0.00589979
0.00574449
0.00559105
0.00543903
0.00528879
0.00513418
0.00767801
0.0077409
0.00774467
0.00767101
0.00755088
0.00740448
0.00724157
0.00707012
0.00689594
0.00672237
0.00655124
0.00638345
0.0062193
0.00605869
0.00590136
0.00574686
0.00559444
0.0054439
0.00529634
0.00514443
0.00782913
0.00788828
0.00787635
0.00778096
0.00764134
0.00747586
0.00729569
0.00711124
0.00692731
0.00674701
0.00657198
0.00640208
0.0062367
0.00607523
0.00591708
0.0057616
0.00560793
0.00545588
0.00530584
0.00515121
0.00812701
0.00819507
0.00814269
0.00799571
0.00781084
0.00760571
0.00739504
0.00718812
0.006987
0.00679455
0.00661192
0.00643727
0.00626858
0.00610439
0.00594361
0.00578524
0.00562827
0.00547177
0.00531504
0.00515201
0.00864611
0.00868962
0.00852404
0.0082611
0.00798069
0.00770931
0.00745822
0.00723172
0.00702844
0.0068414
0.00666369
0.00649207
0.00632497
0.00616131
0.00599982
0.0058394
0.00567941
0.00552038
0.00536523
0.00521136
0.00994899
0.00918626
0.00856749
0.00811614
0.00777213
0.00750303
0.00728328
0.00709425
0.00692605
0.00676801
0.00661139
0.00645456
0.00629799
0.00614185
0.00598581
0.00582916
0.00567124
0.00551195
0.00535282
0.00519131
0.0103583
0.00950682
0.00874256
0.00818344
0.00780732
0.00753937
0.00732381
0.00713106
0.00695291
0.00678487
0.00662221
0.00646287
0.00630667
0.00615398
0.00600535
0.00586181
0.00572567
0.00560018
0.00549505
0.00543551
0.00906454
0.00919074
0.00888788
0.00847169
0.00810458
0.00778601
0.00750758
0.00726735
0.00705512
0.00686114
0.00667868
0.00650468
0.00633745
0.0061758
0.00601906
0.00586721
0.00572123
0.00558384
0.00546238
0.00537789
0.00849503
0.008596
0.00848445
0.008259
0.00800327
0.0077449
0.00748656
0.00724504
0.00702732
0.0068273
0.00664005
0.00646248
0.00629212
0.00612693
0.00596566
0.00580732
0.00565098
0.00549665
0.00534467
0.00519042
0.008127
0.00819506
0.00814268
0.0079957
0.00781083
0.0076057
0.00739503
0.00718811
0.00698699
0.00679454
0.00661191
0.00643726
0.00626856
0.00610437
0.00594359
0.00578522
0.00562823
0.00547171
0.00531496
0.00515191
0.00794393
0.00800836
0.00797889
0.00785403
0.00769499
0.00752127
0.00733494
0.00714686
0.00696064
0.00677711
0.00659784
0.00642383
0.00625546
0.00609204
0.00593282
0.00577737
0.00562471
0.00547433
0.00532729
0.00517816
0.00794396
0.00800839
0.00797893
0.00785411
0.00769513
0.00752146
0.00733518
0.0071472
0.00696114
0.00677787
0.00659902
0.00642562
0.00625809
0.00609583
0.00593846
0.00578578
0.00563672
0.00549131
0.00535271
0.00521497
0.00812706
0.00819513
0.00814276
0.00799583
0.00781102
0.00760595
0.00739536
0.00718861
0.00698774
0.00679577
0.00661391
0.00644038
0.00627327
0.0061114
0.0059542
0.00580102
0.00565091
0.00550514
0.0053676
0.00523143
0.00849504
0.00859602
0.00848447
0.00825901
0.00800328
0.00774491
0.00748657
0.00724505
0.00702733
0.00682731
0.00664006
0.00646249
0.00629212
0.00612694
0.00596566
0.00580733
0.00565099
0.00549668
0.00534472
0.00519054
0.00906451
0.0091907
0.00888782
0.0084716
0.00810445
0.00778579
0.0075072
0.00726668
0.00705395
0.00685918
0.00667557
0.00649973
0.00632956
0.00616301
0.00599831
0.00583384
0.00566822
0.00550123
0.0053366
0.00517618
0.0103583
0.00950677
0.0087425
0.00818335
0.00780716
0.00753907
0.0073233
0.00713021
0.0069515
0.00678251
0.00661827
0.0064564
0.0062961
0.00613667
0.00597676
0.00581407
0.00564521
0.00546498
0.00526873
0.00503937
0.0107066
0.00997273
0.00887985
0.00821388
0.00781132
0.00753764
0.00732655
0.00714046
0.00696627
0.00679932
0.00663715
0.00647821
0.00632131
0.00616623
0.00601363
0.00586471
0.0057199
0.00557738
0.00543852
0.00531422
0.00998999
0.00995829
0.00923007
0.00851958
0.00807325
0.00775733
0.00749849
0.0072709
0.00706644
0.00687825
0.00670083
0.00653053
0.00636448
0.00620096
0.00603941
0.00587908
0.00571861
0.0055568
0.0054024
0.00527368
0.0090645
0.00919069
0.00888781
0.00847159
0.00810444
0.00778578
0.00750719
0.00726667
0.00705394
0.00685917
0.00667555
0.00649972
0.00632955
0.006163
0.0059983
0.00583384
0.00566822
0.00550123
0.0053366
0.00517617
0.0086461
0.00868961
0.00852403
0.00826108
0.00798068
0.0077093
0.00745821
0.00723171
0.00702843
0.00684139
0.00666367
0.00649205
0.00632496
0.00616129
0.00599981
0.00583937
0.00567938
0.00552033
0.00536517
0.00521127
0.00843013
0.00845196
0.00832475
0.00810722
0.00787476
0.00764556
0.00742269
0.00720944
0.00700852
0.00682094
0.00664413
0.00647461
0.00631066
0.00615111
0.0059946
0.00584054
0.00568925
0.00554153
0.00539928
0.00526062
0.00843017
0.008452
0.00832481
0.00810731
0.00787491
0.00764576
0.00742299
0.00720988
0.00700917
0.006822
0.00664591
0.00647751
0.00631522
0.00615814
0.00600539
0.00585663
0.00571241
0.00557422
0.00544434
0.00532194
0.00864619
0.00868971
0.00852416
0.00826126
0.00798093
0.00770965
0.00745875
0.00723254
0.00702978
0.00684381
0.00666793
0.00649899
0.00633549
0.00617688
0.00602353
0.00587609
0.0057356
0.00560441
0.00548699
0.00538864
0.00906455
0.00919075
0.00888789
0.0084717
0.00810459
0.00778602
0.00750759
0.00726736
0.00705513
0.00686114
0.00667868
0.00650468
0.00633744
0.00617579
0.00601904
0.00586718
0.00572118
0.00558376
0.00546228
0.00537779
0.00999
0.0099583
0.00923008
0.00851959
0.00807326
0.00775735
0.0074985
0.00727091
0.00706645
0.00687826
0.00670083
0.00653053
0.00636448
0.00620095
0.00603939
0.00587906
0.00571857
0.00555673
0.00540227
0.00527349
0.0107066
0.00997272
0.00887982
0.00821384
0.00781124
0.00753749
0.00732629
0.00714
0.00696549
0.00679799
0.00663496
0.00647459
0.0063152
0.00615562
0.00599522
0.00583313
0.00566577
0.00548155
0.00524931
0.00489588
0.0178854
0.0107709
0.0084795
0.00794167
0.00766732
0.00744512
0.00725852
0.00709213
0.00693103
0.00677167
0.00661415
0.00645834
0.0063033
0.00614794
0.00599218
0.00583586
0.00567815
0.00551702
0.0053345
0.00500444
0.0107066
0.00997271
0.00887981
0.00821383
0.00781122
0.00753748
0.00732627
0.00713999
0.00696548
0.00679798
0.00663495
0.00647458
0.0063152
0.00615562
0.00599524
0.00583314
0.00566578
0.00548159
0.00524937
0.00489599
0.0103583
0.00950676
0.00874248
0.00818334
0.00780715
0.00753905
0.00732329
0.00713019
0.00695149
0.0067825
0.00661826
0.00645639
0.0062961
0.00613666
0.00597675
0.00581406
0.0056452
0.00546498
0.00526871
0.0050393
0.00994898
0.00918625
0.00856747
0.00811613
0.00777212
0.00750302
0.00728327
0.00709424
0.00692603
0.006768
0.00661137
0.00645454
0.00629797
0.00614183
0.00598578
0.00582914
0.00567122
0.00551193
0.0053528
0.00519132
0.00981478
0.00907359
0.0084854
0.00807726
0.00775528
0.00748849
0.00726684
0.007076
0.0069049
0.00674765
0.00659687
0.00644554
0.00629264
0.00613969
0.00598775
0.00583733
0.00568883
0.0055427
0.00539842
0.00525924
0.0098148
0.00907361
0.00848544
0.00807732
0.00775536
0.00748862
0.00726705
0.00707634
0.00690546
0.00674854
0.00659831
0.00644786
0.00629639
0.00614572
0.00599734
0.00585238
0.00571215
0.00557806
0.00544983
0.00533594
0.00994905
0.00918632
0.00856756
0.00811625
0.0077723
0.00750331
0.00728376
0.00709507
0.00692741
0.00677026
0.00661505
0.00646049
0.00630752
0.00615715
0.00601038
0.00586868
0.00573462
0.00561162
0.00550517
0.0054314
0.0103583
0.00950683
0.00874257
0.00818346
0.00780734
0.00753938
0.00732382
0.00713107
0.00695292
0.00678488
0.00662221
0.00646287
0.00630666
0.00615396
0.00600531
0.00586177
0.0057256
0.00560007
0.00549488
0.00543526
0.0107066
0.00997275
0.00887986
0.0082139
0.00781133
0.00753765
0.00732656
0.00714047
0.00696628
0.00679933
0.00663715
0.00647821
0.00632131
0.00616622
0.0060136
0.00586467
0.00571984
0.00557728
0.00543835
0.00531393
0.0178854
0.010771
0.00847951
0.00794169
0.00766733
0.00744514
0.00725853
0.00709214
0.00693104
0.00677168
0.00661416
0.00645834
0.0063033
0.00614793
0.00599216
0.00583584
0.00567811
0.00551695
0.0053344
0.00500422
0.00546011
0.0049262
0.00460593
0.00446249
0.00434021
0.00421262
0.00408324
0.00395275
0.00381949
0.00368428
0.00354873
0.0034138
0.00328067
0.0031487
0.00301749
0.00288713
0.00275734
0.00262935
0.00250251
0.00237764
0.0022534
0.00213019
0.00200843
0.001888
0.00176912
0.00165062
0.00153304
0.00141629
0.00130063
0.00118671
0.00107326
0.000959067
0.000845318
0.000733213
0.00062191
0.000509951
0.000396692
0.000282418
0.000170609
5.18403e-05
0.00553564
0.0050158
0.00461151
0.00443091
0.00430741
0.00418272
0.00405536
0.00392737
0.00379703
0.00366436
0.00353102
0.00339775
0.00326568
0.0031343
0.00300304
0.00287258
0.00274302
0.00261532
0.00248895
0.0023644
0.00224065
0.00211832
0.00199798
0.00187908
0.00176099
0.00164282
0.00152539
0.00140881
0.00129341
0.00117986
0.00106691
0.00095328
0.000839963
0.000728152
0.000617114
0.000505353
0.000392444
0.000278997
0.000167339
5.0881e-05
0.00541005
0.00506044
0.00472886
0.00451873
0.00436075
0.00421206
0.00406639
0.00392511
0.00378797
0.00365274
0.00351873
0.00338501
0.00325284
0.0031219
0.00299151
0.00286206
0.00273359
0.00260662
0.00248076
0.00235639
0.0022325
0.00211014
0.00198973
0.00187085
0.00175278
0.00163476
0.00151777
0.00140161
0.00128685
0.00117395
0.00106175
0.000948818
0.000836134
0.000724721
0.000614256
0.000503353
0.000390923
0.000277808
0.000166828
5.08444e-05
0.0052664
0.00502609
0.00477
0.00456627
0.0043976
0.00424274
0.00409436
0.00395092
0.00381128
0.00367368
0.00353746
0.00340249
0.00326905
0.00313695
0.00300587
0.00287589
0.00274706
0.00261949
0.00249287
0.00236751
0.00224287
0.00211888
0.00199566
0.00187383
0.00175383
0.00163519
0.00151776
0.00140141
0.00128668
0.00117317
0.00106031
0.000946916
0.00083417
0.000722925
0.00061295
0.000502662
0.000390581
0.000277644
0.000166927
5.06378e-05
0.00514847
0.00496232
0.00476096
0.0045801
0.00441574
0.00425992
0.00410988
0.00396482
0.0038233
0.00368395
0.00354625
0.00341023
0.00327594
0.00314323
0.00301181
0.00288163
0.00275268
0.00262494
0.00249836
0.00237301
0.00224893
0.0021259
0.00200349
0.00188173
0.00176118
0.00164202
0.00152444
0.00140844
0.00129342
0.00117889
0.00106456
0.00095033
0.000837219
0.000725392
0.000614703
0.000503716
0.000391148
0.000278126
0.000167415
5.06744e-05
0.00505297
0.00490487
0.00474353
0.0045794
0.00441995
0.00426663
0.00411848
0.00397436
0.00383292
0.00369322
0.00355506
0.00341846
0.00328354
0.00315017
0.00301817
0.0028875
0.00275814
0.00263007
0.00250327
0.00237773
0.00225349
0.0021305
0.00200883
0.00188798
0.00176742
0.0016475
0.00152912
0.00141257
0.00129748
0.0011835
0.00107
0.000956809
0.000844246
0.000732174
0.000620801
0.000509083
0.000395627
0.000282042
0.00017021
5.15895e-05
0.00498467
0.00487427
0.00473049
0.00457288
0.00441753
0.00426766
0.004122
0.00397927
0.00383854
0.00369891
0.00356065
0.00342392
0.0032886
0.00315451
0.00302164
0.00289027
0.00276051
0.00263222
0.00250532
0.00237978
0.00225559
0.00213265
0.00201112
0.00189033
0.00176979
0.00164987
0.00153177
0.00141544
0.00130058
0.00118716
0.00107381
0.000960114
0.000847145
0.000735543
0.000625242
0.000514596
0.000401468
0.000287138
0.000173559
5.3263e-05
0.00494364
0.00485984
0.00471862
0.00456174
0.00441129
0.00426551
0.00412231
0.00398065
0.00384
0.00370033
0.00356191
0.00342498
0.00328941
0.00315473
0.00302076
0.00288843
0.00275818
0.00262986
0.0025032
0.00237794
0.00225401
0.00213121
0.00200998
0.0018893
0.00176978
0.00165196
0.00153543
0.0014196
0.00130484
0.00119165
0.00107813
0.000963696
0.000850329
0.000738816
0.000627907
0.000517656
0.000405312
0.00029002
0.00017485
5.4129e-05
0.00509944
0.00493291
0.00472147
0.00454872
0.00439914
0.00425364
0.00411053
0.00396978
0.0038303
0.00369156
0.00355391
0.00341783
0.00328333
0.00315044
0.00301927
0.00288978
0.00276042
0.00263225
0.00250575
0.00238035
0.00225614
0.00213291
0.00201119
0.00189047
0.00177182
0.00165433
0.00153764
0.00142142
0.001306
0.00119224
0.00107845
0.000963662
0.000849746
0.000737629
0.000626412
0.00051616
0.000403485
0.000287765
0.000172506
5.31819e-05
0.00525975
0.00491264
0.00466758
0.00452814
0.00439554
0.00425576
0.00411664
0.00397789
0.00383942
0.00370123
0.00356377
0.00342788
0.00329405
0.00316187
0.00303133
0.00290207
0.00277257
0.00264394
0.00251683
0.00239111
0.00226656
0.00214276
0.00201989
0.00189816
0.00177837
0.00165967
0.00154168
0.0014246
0.00130853
0.00119426
0.00108031
0.00096543
0.000851136
0.000738499
0.000626892
0.000516309
0.000403772
0.00028804
0.00017287
5.33887e-05
0.00546049
0.00492697
0.00460736
0.00446494
0.00434123
0.00421125
0.00408186
0.00395155
0.00381808
0.00368295
0.00354763
0.00341336
0.00328064
0.00314883
0.00301756
0.0028874
0.00275777
0.00262947
0.0025028
0.00237754
0.00225349
0.00213046
0.00200884
0.00188844
0.00176939
0.00165105
0.00153329
0.0014165
0.00130078
0.00118684
0.0010734
0.000959151
0.000845367
0.000733099
0.000621734
0.000511215
0.000398949
0.000283868
0.000171135
5.15193e-05
0.00525929
0.00491182
0.00466582
0.00452483
0.00439364
0.00425697
0.00411856
0.00397968
0.00384098
0.00370258
0.00356496
0.00342843
0.00329412
0.00316177
0.0030313
0.00290169
0.002772
0.00264368
0.00251643
0.00239114
0.00226641
0.00214243
0.00201935
0.00189756
0.00177788
0.00165905
0.00154124
0.00142421
0.00130825
0.00119401
0.00108007
0.000965283
0.00085107
0.000738695
0.000627198
0.000514904
0.000400933
0.000285909
0.000172014
5.35586e-05
0.00518503
0.00490726
0.00467621
0.0045174
0.00437903
0.00423971
0.00410105
0.00396397
0.00382839
0.00369338
0.00355893
0.0034244
0.00329139
0.00315955
0.00302864
0.0028982
0.0027686
0.0026407
0.00251399
0.00238928
0.00226467
0.00214133
0.00201923
0.0018982
0.00177877
0.00165952
0.00154148
0.00142425
0.00130827
0.00119421
0.00108031
0.000965217
0.00085077
0.000738196
0.000627088
0.000515531
0.000401505
0.000286267
0.000173268
5.43788e-05
0.00518641
0.0049675
0.00475424
0.0045698
0.00440441
0.00424734
0.00409717
0.00395255
0.00381176
0.00367373
0.00353773
0.00340342
0.00327035
0.00313879
0.00300872
0.00287956
0.00275148
0.00262465
0.00249911
0.00237425
0.00225011
0.00212701
0.00200517
0.00188454
0.00176527
0.00164717
0.00153003
0.0014138
0.001299
0.00118517
0.00107136
0.000957095
0.000843611
0.000731106
0.000619869
0.000508844
0.000396253
0.000282671
0.000171276
5.39072e-05
0.00513682
0.00495968
0.00477735
0.00459969
0.00443214
0.00427283
0.00411953
0.00397178
0.00382828
0.00368804
0.00355026
0.00341503
0.00328117
0.00314857
0.00301746
0.00288754
0.00275884
0.00263118
0.00250484
0.00237938
0.00225532
0.00213184
0.00200931
0.00188829
0.0017684
0.0016499
0.00153212
0.00141555
0.00130005
0.00118468
0.00106946
0.000955103
0.000841839
0.000729042
0.000616947
0.000505034
0.000392811
0.00028071
0.0001699
5.39161e-05
0.00507056
0.00490712
0.00475061
0.00458966
0.00443093
0.00427685
0.00412668
0.00397998
0.00383652
0.00369612
0.00355821
0.00342245
0.00328821
0.00315518
0.00302352
0.0028932
0.00276412
0.00263623
0.00250962
0.00238406
0.00225949
0.00213574
0.00201322
0.00189209
0.00177199
0.00165321
0.00153576
0.0014193
0.00130351
0.0011879
0.00107237
0.000957947
0.000844464
0.000731047
0.000617375
0.000503396
0.000390086
0.000278216
0.000167732
5.38331e-05
0.00500968
0.00485436
0.0047155
0.00456734
0.00441735
0.00427046
0.00412598
0.00398288
0.00384145
0.00370222
0.00356489
0.00342907
0.00329454
0.0031612
0.00302916
0.00289838
0.00276883
0.0026405
0.00251335
0.00238734
0.0022624
0.00213847
0.0020157
0.00189424
0.00177403