/*--------------------------------*- C++ -*----------------------------------*\
| =========                 |                                                 |
| \\      /  F ield         | OpenFOAM: The Open Source CFD Toolbox           |
|  \\    /   O peration     | Version:  2212                                  |
|   \\  /    A nd           | Website:  www.openfoam.com                      |
|    \\/     M anipulation  |                                                 |
\*---------------------------------------------------------------------------*/
FoamFile
{
    version     2.0;
    format      ascii;
    arch        "LSB;label=32;scalar=64";
    class       volVectorField;
    location    "1.85";
    object      U;
}
// * * * * * * * * * * * * * * * * * * * * * * * * * * * * * * * * * * * * * //

dimensions      [0 1 -1 0 0 0 0];

internalField   nonuniform List<vector> 
6840
(
(0.0956456 -0.00836005 -0.00836005)
(0.0904939 0.001522 0.00152207)
(0.0790682 0.00242967 0.00242983)
(0.071301 0.00148759 0.00148791)
(0.0661792 0.000830181 0.000830735)
(0.0623222 0.000563204 0.000564092)
(0.0592201 0.000425302 0.00042715)
(0.0566838 0.00032218 0.000325287)
(0.0545481 0.000250177 0.000255265)
(0.0526946 0.000197892 0.000206283)
(0.0510546 0.000158342 0.000172555)
(0.0495898 0.000127038 0.000150647)
(0.0482681 9.8676e-05 0.000137152)
(0.0470617 6.98216e-05 0.000130563)
(0.0459589 3.41503e-05 0.000131906)
(0.0449575 -4.37185e-06 0.000145459)
(0.044074 -5.92729e-05 0.000179189)
(0.0433674 -0.000193583 0.000240293)
(0.0432482 -0.000489048 0.000297526)
(0.0416684 -0.00247278 -0.000994535)
(0.0999088 0.00129699 0.000712567)
(0.0969668 0.00365584 0.00274728)
(0.0935344 0.00264015 0.00211821)
(0.0895889 0.00182034 0.00162073)
(0.0858314 0.0015286 0.00139075)
(0.0825888 0.00135101 0.0011614)
(0.079863 0.00117878 0.000897529)
(0.0775632 0.0010396 0.000692788)
(0.0755512 0.000941273 0.000561533)
(0.0737399 0.000863052 0.000481578)
(0.0720818 0.0007887 0.000436228)
(0.070546 0.000712659 0.000411571)
(0.0691102 0.000638615 0.000399325)
(0.0677554 0.000568012 0.000393811)
(0.0664628 0.000492629 0.000396154)
(0.0652141 0.000390301 0.000407442)
(0.0640047 0.000235903 0.000426878)
(0.0628157 8.11291e-07 0.000446613)
(0.0616538 -0.000453757 0.000409735)
(0.0604642 -0.00130477 0.000814417)
(0.099413 0.000345231 0.000270236)
(0.0988664 0.00201905 0.00187493)
(0.0979213 0.00257317 0.00218906)
(0.0963656 0.00237993 0.00190847)
(0.0946328 0.00211425 0.00162673)
(0.0929712 0.00192701 0.00141859)
(0.0913623 0.00180201 0.00127104)
(0.0898509 0.00170645 0.00115973)
(0.0884494 0.00160663 0.00106935)
(0.0871495 0.00149742 0.000997327)
(0.0859425 0.00138886 0.000948522)
(0.084812 0.00128814 0.00092075)
(0.0837367 0.00119584 0.000909429)
(0.0826976 0.00110896 0.00091072)
(0.081677 0.00102429 0.000923125)
(0.0806544 0.000938558 0.000948498)
(0.0796003 0.000846166 0.000993035)
(0.0784393 0.000736775 0.00106587)
(0.077082 0.000625403 0.00117593)
(0.0757584 0.000863926 0.00199109)
(0.0995405 0.000245049 0.000321903)
(0.0992576 0.00105565 0.00154094)
(0.0988488 0.00150243 0.00211451)
(0.0981246 0.00157958 0.0020917)
(0.0973366 0.00151512 0.00188621)
(0.0965844 0.00144697 0.00166594)
(0.0958646 0.00141107 0.00149796)
(0.0951963 0.00138053 0.00137146)
(0.0945666 0.00133592 0.00128483)
(0.0939197 0.00126642 0.00122989)
(0.093288 0.00117909 0.00119399)
(0.0926682 0.00108719 0.00117348)
(0.0920493 0.00100204 0.00116516)
(0.0914207 0.000929473 0.00116749)
(0.0907714 0.00087198 0.00118069)
(0.0900862 0.000832553 0.00120632)
(0.0893438 0.000817842 0.00124971)
(0.0885044 0.000834926 0.00132208)
(0.0874961 0.000904653 0.00144041)
(0.0865171 0.00138272 0.00176329)
(0.0993802 3.37914e-05 5.90071e-05)
(0.0992677 0.000274466 0.00120007)
(0.0989805 0.000432526 0.00188849)
(0.0984747 0.000483708 0.00200641)
(0.0979958 0.000479229 0.00191454)
(0.0975714 0.000466129 0.00173452)
(0.0971819 0.000453829 0.00154689)
(0.0968327 0.00044391 0.00138791)
(0.0965335 0.000438751 0.00126901)
(0.0962805 0.000432604 0.00119787)
(0.0960086 0.000418339 0.00116974)
(0.0957186 0.000399355 0.00116661)
(0.0954094 0.000382602 0.00117435)
(0.09507 0.00037405 0.00118822)
(0.0946929 0.00037937 0.00120866)
(0.0942726 0.000407277 0.00123884)
(0.0938046 0.000468663 0.00128114)
(0.0932845 0.000577467 0.00133593)
(0.092665 0.000754461 0.00140058)
(0.0919943 0.00110433 0.00149251)
(0.0993801 -3.37582e-05 5.89571e-05)
(0.0992678 -0.000274298 0.00120003)
(0.0989805 -0.00043217 0.00188846)
(0.0984749 -0.000483095 0.00200635)
(0.0979962 -0.000478188 0.00191441)
(0.0975722 -0.000464327 0.00173424)
(0.0971835 -0.000450698 0.00154649)
(0.0968353 -0.000438618 0.00138722)
(0.0965378 -0.000429875 0.00126773)
(0.0962876 -0.000417828 0.00119561)
(0.0960205 -0.00039396 0.001166)
(0.0957383 -0.000359401 0.00116054)
(0.0954419 -0.000317393 0.00116436)
(0.0951236 -0.000267784 0.00117167)
(0.0947798 -0.00020745 0.00118174)
(0.0944101 -0.000131929 0.00119527)
(0.0940149 -2.83881e-05 0.0012116)
(0.0935946 0.000117117 0.00122823)
(0.0931301 0.000313782 0.00124577)
(0.092584 0.000572765 0.00126344)
(0.0995405 -0.000245035 0.000321901)
(0.0992576 -0.00105558 0.00154093)
(0.098849 -0.00150229 0.00211442)
(0.0981252 -0.00157934 0.00209155)
(0.0973377 -0.0015146 0.00188597)
(0.0965865 -0.00144598 0.00166557)
(0.0958682 -0.00140935 0.00149751)
(0.0952025 -0.00137767 0.00137068)
(0.0945773 -0.00133094 0.00128323)
(0.0939377 -0.0012584 0.0012264)
(0.0933183 -0.00116652 0.00118697)
(0.0927188 -0.00106686 0.00116127)
(0.0921329 -0.000968083 0.00114479)
(0.0915581 -0.000870745 0.00113558)
(0.0909955 -0.000770607 0.00112814)
(0.0904475 -0.000657782 0.00111652)
(0.0899163 -0.000509689 0.00109174)
(0.0894032 -0.000299782 0.00104397)
(0.0889186 7.12434e-06 0.000969716)
(0.0883439 0.000455494 0.000860643)
(0.099413 -0.000345247 0.00027023)
(0.0988664 -0.00201913 0.00187487)
(0.0979216 -0.00257331 0.00218889)
(0.0963661 -0.00238018 0.00190817)
(0.0946339 -0.00211464 0.00162631)
(0.0929732 -0.00192764 0.001418)
(0.091366 -0.00180293 0.00127005)
(0.0898572 -0.00170792 0.00115805)
(0.0884604 -0.00160905 0.00106664)
(0.0871679 -0.00150142 0.000992894)
(0.0859736 -0.00139542 0.000941515)
(0.0848647 -0.00129863 0.00090874)
(0.0838255 -0.00121174 0.000888673)
(0.082847 -0.00113148 0.000875079)
(0.0819297 -0.00105355 0.000861505)
(0.0810849 -0.000970535 0.000838271)
(0.0803444 -0.000863519 0.000786607)
(0.0797565 -0.000690079 0.000667397)
(0.0794109 -0.00038872 0.000468636)
(0.0785426 0.000515673 -0.00013459)
(0.0999088 -0.00129701 0.000712554)
(0.0969668 -0.00365597 0.00274721)
(0.0935345 -0.00264036 0.00211806)
(0.0895891 -0.00182071 0.00162044)
(0.0858318 -0.00152933 0.00139034)
(0.0825896 -0.00135214 0.00116065)
(0.0798645 -0.00118091 0.000896252)
(0.0775659 -0.00104327 0.000690751)
(0.075556 -0.000947537 0.000558152)
(0.0737482 -0.000873793 0.000475887)
(0.0720967 -0.000807181 0.000425275)
(0.0705727 -0.000743463 0.000392604)
(0.069158 -0.000688657 0.000369596)
(0.0678383 -0.00064898 0.000355467)
(0.0666055 -0.000626193 0.000345141)
(0.0654643 -0.000616541 0.000316899)
(0.0644671 -0.000613451 0.000241624)
(0.0637273 -0.000574452 4.96723e-05)
(0.0636297 -0.000592982 -0.000149883)
(0.0613916 -0.00020859 -0.000823179)
(0.0956456 0.00836005 -0.00836005)
(0.0904939 -0.00152207 0.001522)
(0.0790682 -0.00242982 0.00242968)
(0.071301 -0.0014879 0.0014876)
(0.0661792 -0.000830724 0.000830193)
(0.0623222 -0.000564079 0.000563217)
(0.0592201 -0.000427133 0.000425319)
(0.0566838 -0.000325268 0.000322201)
(0.054548 -0.000255243 0.0002502)
(0.0526946 -0.000206257 0.000197919)
(0.0510546 -0.000172524 0.000158374)
(0.0495898 -0.000150613 0.000127077)
(0.0482681 -0.000137104 9.87139e-05)
(0.0470618 -0.000130513 6.98805e-05)
(0.045959 -0.000131833 3.42448e-05)
(0.0449577 -0.000145307 -4.29154e-06)
(0.0440743 -0.000178936 -5.90991e-05)
(0.0433681 -0.000239901 -0.00019331)
(0.0432496 -0.00029675 -0.000488727)
(0.0416721 0.000996234 -0.00247291)
(0.0999088 0.000712554 0.00129701)
(0.0969668 0.00274721 0.00365598)
(0.0935345 0.00211805 0.00264037)
(0.0895891 0.00162044 0.00182073)
(0.0858318 0.00139034 0.00152935)
(0.0825896 0.00116064 0.00135216)
(0.0798645 0.000896241 0.00118093)
(0.0775659 0.000690739 0.0010433)
(0.075556 0.000558138 0.000947573)
(0.0737483 0.000475871 0.000873837)
(0.0720967 0.000425252 0.000807236)
(0.0705727 0.000392576 0.00074353)
(0.069158 0.000369562 0.000688745)
(0.0678384 0.00035544 0.000649112)
(0.0666054 0.000345082 0.000626379)
(0.0654642 0.000316786 0.000616846)
(0.064467 0.00024147 0.000613975)
(0.063727 4.94614e-05 0.000575346)
(0.063629 -0.000150018 0.000594837)
(0.0613896 -0.000822775 0.000210842)
(0.100226 0.000720804 0.000720833)
(0.09996 0.00198271 0.00198283)
(0.0997822 0.00245178 0.00245206)
(0.0987879 0.00241951 0.00242001)
(0.0972751 0.00220062 0.0022014)
(0.0957741 0.001811 0.00181238)
(0.0943916 0.00138156 0.00138381)
(0.0931618 0.00106873 0.00107249)
(0.0920734 0.000851521 0.000857969)
(0.0911088 0.000697322 0.000708478)
(0.0902525 0.000581417 0.000601498)
(0.089481 0.000490886 0.000524356)
(0.0887736 0.00041901 0.000472458)
(0.0881235 0.00035751 0.000439309)
(0.0875302 0.000291479 0.000421745)
(0.0869911 0.0002019 0.000422326)
(0.0864993 6.70066e-05 0.000444172)
(0.0860322 -0.000154766 0.000485323)
(0.0855535 -0.000591885 0.000460163)
(0.0851976 -0.00161717 9.75481e-05)
(0.10014 0.000775015 0.000869281)
(0.100454 0.00196241 0.00196369)
(0.100911 0.00242755 0.00233478)
(0.100978 0.00252658 0.00244167)
(0.100693 0.00242619 0.00233731)
(0.100223 0.00219733 0.00211316)
(0.0997069 0.0019165 0.00182427)
(0.0991802 0.00166565 0.00157729)
(0.098683 0.00146252 0.0013928)
(0.0982316 0.00129536 0.00125505)
(0.0978316 0.00115687 0.0011552)
(0.0974779 0.00104106 0.00108655)
(0.0971647 0.000942102 0.00104187)
(0.0968849 0.000851754 0.00101553)
(0.0966295 0.000763278 0.00100742)
(0.0963856 0.0006709 0.0010224)
(0.0961337 0.000564446 0.00106654)
(0.0958439 0.000431227 0.00114877)
(0.0954593 0.000250727 0.00125087)
(0.0953574 7.59816e-05 0.00135633)
(0.100093 0.000445946 0.000763218)
(0.100504 0.00119455 0.00174907)
(0.101105 0.00158693 0.00212967)
(0.101634 0.00174066 0.002235)
(0.101979 0.00178268 0.00228758)
(0.102171 0.0017297 0.00223658)
(0.102251 0.00160926 0.00211684)
(0.102274 0.00146229 0.00196599)
(0.102274 0.00130836 0.00180418)
(0.102265 0.0011623 0.00165592)
(0.102253 0.0010382 0.00154941)
(0.102245 0.000934567 0.00147647)
(0.102237 0.000845621 0.00142865)
(0.102229 0.000769391 0.00140223)
(0.102217 0.000704817 0.0013962)
(0.102191 0.000650052 0.00141268)
(0.10214 0.00060538 0.00145755)
(0.102049 0.0005761 0.00153913)
(0.101909 0.000573146 0.00164835)
(0.102069 0.000614355 0.00177662)
(0.100087 0.000144426 0.000707032)
(0.100477 0.000390614 0.00161782)
(0.101066 0.000541323 0.00203469)
(0.101694 0.000610511 0.00211768)
(0.102269 0.000636641 0.00215023)
(0.102742 0.000627869 0.0021798)
(0.103124 0.000596495 0.00213407)
(0.103428 0.000552024 0.00204421)
(0.10368 0.000508391 0.0019348)
(0.103898 0.000468819 0.00182885)
(0.104095 0.00043097 0.0017306)
(0.104283 0.000396604 0.00164441)
(0.104462 0.000369919 0.00158506)
(0.104628 0.000352462 0.00155526)
(0.104776 0.000346028 0.00154789)
(0.104904 0.000354795 0.0015562)
(0.105011 0.000384707 0.00157949)
(0.105096 0.000442401 0.00162091)
(0.105161 0.000533242 0.00167973)
(0.105409 0.00065215 0.00174648)
(0.100087 -0.000144372 0.000707025)
(0.100477 -0.000390452 0.00161781)
(0.101066 -0.000541043 0.00203468)
(0.101695 -0.000610024 0.00211762)
(0.102269 -0.00063576 0.00214998)
(0.102743 -0.000626347 0.00217935)
(0.103125 -0.000594019 0.00213338)
(0.10343 -0.000547992 0.00204315)
(0.103683 -0.000501612 0.00193323)
(0.103903 -0.000457039 0.00182634)
(0.104103 -0.000410756 0.00172649)
(0.104296 -0.000363244 0.00163737)
(0.104484 -0.00031671 0.00157286)
(0.104664 -0.000269599 0.00153497)
(0.104835 -0.00021653 0.00151516)
(0.104997 -0.000152104 0.00150521)
(0.10515 -7.01378e-05 0.00150102)
(0.105293 3.62123e-05 0.00150175)
(0.105429 0.000169233 0.00150411)
(0.105673 0.000326166 0.00149823)
(0.100093 -0.00044594 0.000763205)
(0.100504 -0.00119453 0.00174903)
(0.101105 -0.00158689 0.00212955)
(0.101635 -0.00174054 0.00223458)
(0.10198 -0.00178246 0.00228679)
(0.102172 -0.00172936 0.00223545)
(0.102254 -0.00160863 0.00211514)
(0.102279 -0.00146116 0.00196339)
(0.102282 -0.00130654 0.00180027)
(0.102277 -0.00115868 0.00164966)
(0.102274 -0.00103174 0.00153856)
(0.102279 -0.000924505 0.00145821)
(0.102295 -0.000830308 0.00139825)
(0.102324 -0.000746037 0.00135195)
(0.102365 -0.000664035 0.0013135)
(0.102422 -0.00057841 0.0012768)
(0.102492 -0.000481643 0.0012349)
(0.10257 -0.000363996 0.00117986)
(0.10266 -0.000215567 0.00110573)
(0.102814 -1.09193e-05 0.000981702)
(0.10014 -0.000775046 0.000869243)
(0.100454 -0.0019625 0.00196354)
(0.100911 -0.00242772 0.00233443)
(0.100978 -0.00252692 0.00244108)
(0.100694 -0.00242677 0.00233644)
(0.100224 -0.00219833 0.00211197)
(0.099709 -0.00191806 0.00182242)
(0.0991838 -0.00166798 0.00157401)
(0.0986894 -0.00146646 0.00138721)
(0.0982427 -0.00130229 0.00124571)
(0.0978509 -0.0011683 0.00113956)
(0.0975105 -0.00106002 0.00106053)
(0.0972185 -0.000973455 0.000998629)
(0.0969716 -0.000904297 0.000943934)
(0.0967691 -0.000848951 0.000889141)
(0.096611 -0.000801857 0.000824317)
(0.0964952 -0.000754625 0.000729772)
(0.0964116 -0.000698601 0.000581031)
(0.0963401 -0.000608552 0.000352998)
(0.0962896 -0.000387192 -3.27411e-05)
(0.100226 -0.000720833 0.000720805)
(0.09996 -0.00198282 0.00198271)
(0.0997822 -0.00245206 0.00245178)
(0.0987879 -0.00242 0.00241952)
(0.0972751 -0.0022014 0.00220063)
(0.0957741 -0.00181237 0.00181101)
(0.0943916 -0.0013838 0.00138158)
(0.0931618 -0.00107248 0.00106875)
(0.0920734 -0.000857955 0.000851544)
(0.0911088 -0.00070846 0.000697348)
(0.0902525 -0.000601471 0.000581447)
(0.0894811 -0.000524313 0.00049091)
(0.0887737 -0.000472374 0.000419008)
(0.0881236 -0.000439259 0.000357565)
(0.0875303 -0.000421677 0.000291603)
(0.0869913 -0.000422083 0.000201955)
(0.0864998 -0.000443724 6.70495e-05)
(0.086033 -0.000484501 -0.000154742)
(0.0855549 -0.000458803 -0.00059203)
(0.0852003 -9.55198e-05 -0.00161755)
(0.0999088 -0.000712566 0.001297)
(0.0969668 -0.00274728 0.00365585)
(0.0935344 -0.0021182 0.00264016)
(0.0895889 -0.00162073 0.00182036)
(0.0858314 -0.00139074 0.00152861)
(0.0825888 -0.0011614 0.00135102)
(0.079863 -0.000897523 0.0011788)
(0.0775632 -0.000692784 0.00103963)
(0.0755512 -0.000561529 0.000941304)
(0.0737399 -0.000481575 0.000863089)
(0.0720818 -0.000436225 0.000788744)
(0.070546 -0.000411561 0.000712706)
(0.0691103 -0.000399317 0.000638667)
(0.0677555 -0.000393791 0.000568061)
(0.0664631 -0.000396096 0.000492701)
(0.0652146 -0.000407357 0.000390421)
(0.0640056 -0.000426725 0.000236086)
(0.0628172 -0.000446303 1.03001e-06)
(0.0616567 -0.000409109 -0.000453525)
(0.0604702 -0.00081297 -0.00130488)
(0.099413 0.000270229 0.000345248)
(0.0988664 0.00187487 0.00201913)
(0.0979216 0.00218888 0.00257332)
(0.0963661 0.00190816 0.00238019)
(0.0946339 0.00162631 0.00211465)
(0.0929732 0.00141799 0.00192766)
(0.091366 0.00127004 0.00180294)
(0.0898573 0.00115803 0.00170794)
(0.0884604 0.00106662 0.00160908)
(0.087168 0.000992876 0.00150144)
(0.0859737 0.000941494 0.00139545)
(0.0848648 0.000908712 0.00129866)
(0.0838255 0.000888628 0.00121178)
(0.0828471 0.000875022 0.00113156)
(0.0819298 0.000861432 0.00105369)
(0.0810852 0.000838137 0.00097073)
(0.0803449 0.000786352 0.000863791)
(0.0797576 0.000666974 0.000690513)
(0.0794132 0.000467967 0.000389417)
(0.078545 -0.000135717 -0.000512338)
(0.10014 0.000869243 0.000775047)
(0.100454 0.00196353 0.0019625)
(0.100911 0.00233442 0.00242772)
(0.100978 0.00244107 0.00252692)
(0.100694 0.00233643 0.00242678)
(0.100224 0.00211196 0.00219834)
(0.099709 0.0018224 0.00191807)
(0.0991838 0.001574 0.00166799)
(0.0986894 0.00138719 0.00146647)
(0.0982427 0.00124569 0.0013023)
(0.0978509 0.00113954 0.00116832)
(0.0975106 0.00106051 0.00106005)
(0.0972185 0.00099859 0.000973478)
(0.0969716 0.000943883 0.000904335)
(0.0967692 0.000889107 0.000849034)
(0.096611 0.000824282 0.000802012)
(0.0964952 0.000729732 0.000754897)
(0.0964115 0.000580907 0.000698996)
(0.0963401 0.000353166 0.000609406)
(0.096289 -2.98584e-05 0.000390297)
(0.10006 0.000641398 0.000641449)
(0.100501 0.00164506 0.00164522)
(0.101149 0.00221245 0.00221274)
(0.101738 0.00244004 0.00244055)
(0.102204 0.00244197 0.00244278)
(0.102501 0.00231347 0.00231474)
(0.102644 0.0020924 0.00209451)
(0.102713 0.00186876 0.00187214)
(0.102738 0.0016705 0.00167605)
(0.10275 0.00150363 0.00151278)
(0.102768 0.00136425 0.00137924)
(0.102798 0.00124755 0.00127199)
(0.102847 0.00114865 0.00118835)
(0.102915 0.00106168 0.0011261)
(0.103001 0.000980148 0.0010841)
(0.103105 0.000896962 0.00106305)
(0.103222 0.000803107 0.00106577)
(0.10335 0.000689026 0.0010949)
(0.10349 0.000548123 0.00113626)
(0.103743 0.000391143 0.00115526)
(0.100046 0.000395738 0.000540291)
(0.10048 0.00104493 0.00138424)
(0.101154 0.00147549 0.00192322)
(0.101913 0.00170547 0.00219297)
(0.102631 0.00178043 0.00229469)
(0.103301 0.00174536 0.0022792)
(0.103893 0.00163499 0.00218702)
(0.104388 0.00149278 0.00205471)
(0.104815 0.00134697 0.00190829)
(0.10519 0.0012129 0.00177074)
(0.10553 0.00109535 0.00165137)
(0.105847 0.000994575 0.00155257)
(0.106149 0.000907567 0.0014754)
(0.106441 0.000831259 0.00141989)
(0.106727 0.000763463 0.0013861)
(0.107005 0.000703322 0.00137511)
(0.107276 0.000647557 0.00139001)
(0.107542 0.000593593 0.00143282)
(0.107815 0.000534687 0.00148989)
(0.108221 0.000481865 0.00154579)
(0.100039 0.000131367 0.000478795)
(0.100448 0.000350589 0.00123485)
(0.101114 0.000505244 0.00174659)
(0.101909 0.000597467 0.00202698)
(0.102729 0.000639041 0.00215233)
(0.103529 0.000638988 0.00218674)
(0.104298 0.000605737 0.00215363)
(0.105007 0.000561212 0.00207984)
(0.105643 0.000513303 0.00198138)
(0.106216 0.00046717 0.00187448)
(0.106737 0.000425928 0.00177101)
(0.107217 0.000390671 0.00167876)
(0.107665 0.000361497 0.00160363)
(0.10809 0.000338319 0.00154885)
(0.1085 0.000321541 0.00151424)
(0.108897 0.000312506 0.00149837)
(0.109278 0.000312998 0.00149923)
(0.109646 0.000325078 0.00151719)
(0.110016 0.000346402 0.00154634)
(0.110489 0.000369833 0.00157439)
(0.100039 -0.000131332 0.000478777)
(0.100448 -0.000350498 0.0012348)
(0.101114 -0.000505083 0.0017465)
(0.101909 -0.0005972 0.00202681)
(0.102729 -0.000638591 0.00215201)
(0.10353 -0.000638259 0.00218622)
(0.104299 -0.000604513 0.00215284)
(0.105009 -0.000559233 0.00207864)
(0.105645 -0.000510033 0.00197953)
(0.106219 -0.00046168 0.00187153)
(0.106743 -0.000416815 0.00176615)
(0.107226 -0.000376011 0.00167067)
(0.107679 -0.000338652 0.00159025)
(0.10811 -0.000303413 0.00152709)
(0.10853 -0.000268021 0.00147974)
(0.108941 -0.00023059 0.00144566)
(0.109345 -0.00018809 0.00142178)
(0.109745 -0.000136457 0.00140639)
(0.110153 -7.26491e-05 0.00139559)
(0.110621 -2.44729e-06 0.00138206)
(0.100046 -0.000395752 0.000540246)
(0.10048 -0.00104497 0.0013841)
(0.101154 -0.00147556 0.00192297)
(0.101913 -0.00170556 0.00219252)
(0.102632 -0.00178061 0.00229394)
(0.103302 -0.00174567 0.00227799)
(0.103894 -0.00163551 0.00218512)
(0.10439 -0.00149359 0.00205162)
(0.104818 -0.00134827 0.00190347)
(0.105196 -0.00121472 0.00176319)
(0.10554 -0.00109791 0.00163923)
(0.105862 -0.000998568 0.00153273)
(0.106173 -0.000914294 0.001443)
(0.106479 -0.00084289 0.00136689)
(0.106785 -0.000781981 0.00130121)
(0.107095 -0.000730476 0.0012414)
(0.107413 -0.000685872 0.00118289)
(0.107743 -0.000644582 0.00112133)
(0.108097 -0.000598092 0.00105358)
(0.108497 -0.000531973 0.000982036)
(0.10006 -0.000641448 0.000641398)
(0.100501 -0.00164522 0.00164506)
(0.101149 -0.00221274 0.00221245)
(0.101738 -0.00244055 0.00244005)
(0.102204 -0.00244278 0.00244197)
(0.102501 -0.00231474 0.00231348)
(0.102644 -0.00209451 0.00209241)
(0.102713 -0.00187214 0.00186877)
(0.102738 -0.00167606 0.00167051)
(0.10275 -0.00151278 0.00150364)
(0.102768 -0.00137924 0.00136425)
(0.102798 -0.00127197 0.00124754)
(0.102847 -0.00118833 0.00114862)
(0.102915 -0.00112609 0.00106165)
(0.103001 -0.00108407 0.000980082)
(0.103105 -0.00106295 0.000896803)
(0.103222 -0.00106556 0.000802824)
(0.10335 -0.0010946 0.000688524)
(0.10349 -0.00113596 0.00054729)
(0.103742 -0.00115552 0.000390008)
(0.10014 -0.00086928 0.000775015)
(0.100454 -0.00196369 0.00196241)
(0.100911 -0.00233478 0.00242755)
(0.100978 -0.00244167 0.00252659)
(0.100693 -0.00233731 0.0024262)
(0.100223 -0.00211315 0.00219734)
(0.0997069 -0.00182427 0.00191651)
(0.0991802 -0.00157728 0.00166566)
(0.098683 -0.0013928 0.00146253)
(0.0982316 -0.00125504 0.00129537)
(0.0978316 -0.00115519 0.00115688)
(0.097478 -0.00108653 0.00104105)
(0.0971647 -0.00104183 0.000942065)
(0.096885 -0.00101548 0.000851718)
(0.0966296 -0.00100734 0.000763218)
(0.0963858 -0.00102219 0.00067074)
(0.096134 -0.00106614 0.000564149)
(0.0958444 -0.00114806 0.000430684)
(0.09546 -0.00124977 0.000249865)
(0.0953583 -0.00135546 7.52008e-05)
(0.099413 -0.000270236 0.000345231)
(0.0988664 -0.00187493 0.00201905)
(0.0979213 -0.00218906 0.00257317)
(0.0963656 -0.00190846 0.00237994)
(0.0946328 -0.00162673 0.00211426)
(0.0929712 -0.00141859 0.00192702)
(0.0913623 -0.00127104 0.00180202)
(0.0898509 -0.00115972 0.00170646)
(0.0884495 -0.00106934 0.00160664)
(0.0871495 -0.000997323 0.00149743)
(0.0859426 -0.000948519 0.00138886)
(0.0848121 -0.000920747 0.00128814)
(0.0837368 -0.000909426 0.00119584)
(0.0826977 -0.000910675 0.00110891)
(0.0816773 -0.00092302 0.00102418)
(0.0806549 -0.000948339 0.000938404)
(0.0796012 -0.000992755 0.000845928)
(0.0784409 -0.00106531 0.000736333)
(0.0770847 -0.00117488 0.000624476)
(0.0757634 -0.00198953 0.000862303)
(0.0995405 0.0003219 0.000245035)
(0.0992576 0.00154093 0.00105559)
(0.098849 0.00211442 0.0015023)
(0.0981252 0.00209154 0.00157935)
(0.0973377 0.00188597 0.00151461)
(0.0965865 0.00166557 0.00144599)
(0.0958682 0.00149751 0.00140936)
(0.0952026 0.00137067 0.00137769)
(0.0945773 0.00128322 0.00133096)
(0.0939377 0.00122639 0.00125841)
(0.0933184 0.00118695 0.00116654)
(0.0927188 0.00116125 0.00106688)
(0.092133 0.00114476 0.000968111)
(0.0915582 0.00113551 0.000870783)
(0.0909958 0.00112802 0.000770646)
(0.0904479 0.00111631 0.000657793)
(0.089917 0.00109135 0.000509636)
(0.0894043 0.00104326 0.000299593)
(0.0889206 0.00096848 -7.65109e-06)
(0.0883465 0.000858885 -0.00045661)
(0.100093 0.000763204 0.00044594)
(0.100504 0.00174903 0.00119453)
(0.101105 0.00212954 0.00158689)
(0.101635 0.00223458 0.00174054)
(0.10198 0.00228678 0.00178246)
(0.102172 0.00223544 0.00172936)
(0.102254 0.00211513 0.00160863)
(0.102279 0.00196337 0.00146116)
(0.102282 0.00180026 0.00130654)
(0.102277 0.00164964 0.00115868)
(0.102274 0.00153855 0.00103174)
(0.102279 0.00145819 0.00092451)
(0.102295 0.0013982 0.000830306)
(0.102324 0.0013519 0.000746051)
(0.102365 0.00131344 0.000664067)
(0.102422 0.00127668 0.000578442)
(0.102492 0.00123468 0.00048168)
(0.10257 0.00117954 0.000364058)
(0.102659 0.00110559 0.000215904)
(0.102813 0.000984675 1.35522e-05)
(0.100046 0.000540245 0.000395753)
(0.10048 0.0013841 0.00104497)
(0.101154 0.00192296 0.00147556)
(0.101913 0.00219251 0.00170556)
(0.102632 0.00229393 0.00178061)
(0.103302 0.00227798 0.00174566)
(0.103894 0.00218511 0.00163551)
(0.10439 0.00205161 0.00149358)
(0.104818 0.00190346 0.00134826)
(0.105196 0.00176318 0.00121471)
(0.10554 0.00163923 0.00109789)
(0.105862 0.00153273 0.000998555)
(0.106173 0.001443 0.000914278)
(0.106479 0.0013669 0.000842868)
(0.106785 0.00130124 0.000781957)
(0.107095 0.00124147 0.000730447)
(0.107413 0.00118303 0.000685834)
(0.107743 0.00112163 0.000644523)
(0.108096 0.00105425 0.000598007)
(0.108497 0.000983745 0.00053196)
(0.100036 0.00032315 0.000323183)
(0.100429 0.000868694 0.000868787)
(0.10108 0.00126242 0.00126259)
(0.101891 0.00150441 0.0015047)
(0.102756 0.00162163 0.00162208)
(0.103616 0.00164278 0.00164349)
(0.104446 0.00160467 0.00160573)
(0.105223 0.00152628 0.00152795)
(0.105937 0.00142664 0.00142924)
(0.106592 0.00132156 0.00132562)
(0.107196 0.00122136 0.00122779)
(0.107757 0.00113086 0.00114109)
(0.108286 0.00105131 0.00106755)
(0.10879 0.000982095 0.00100774)
(0.109275 0.000921779 0.000961701)
(0.109747 0.000868563 0.000929205)
(0.110212 0.000820712 0.000909488)
(0.110676 0.000774645 0.000901356)
(0.111151 0.000724483 0.000900816)
(0.111683 0.000675403 0.000895294)
(0.100031 0.000107092 0.000281404)
(0.100395 0.000293087 0.000768695)
(0.101024 0.00043415 0.00113318)
(0.101844 0.000526343 0.00136939)
(0.102751 0.000576527 0.00150172)
(0.103689 0.000592003 0.00155462)
(0.104618 0.000582716 0.00154975)
(0.105516 0.000558289 0.00150901)
(0.106367 0.000524954 0.00144567)
(0.107164 0.000488248 0.00137002)
(0.107906 0.000452431 0.00129081)
(0.108598 0.00041984 0.0012148)
(0.109246 0.000391375 0.00114667)
(0.109859 0.000367019 0.00108921)
(0.110445 0.000346319 0.00104409)
(0.111009 0.00032858 0.00101261)
(0.111558 0.000313801 0.000993586)
(0.112097 0.000301618 0.000984512)
(0.112641 0.000290798 0.000980699)
(0.113233 0.0002807 0.000971091)
(0.100031 -0.000107091 0.000281388)
(0.100395 -0.000293086 0.000768649)
(0.101024 -0.000434153 0.0011331)
(0.101844 -0.000526348 0.00136923)
(0.102751 -0.000576537 0.00150146)
(0.103689 -0.000592025 0.00155422)
(0.104618 -0.00058275 0.00154918)
(0.105516 -0.000558279 0.00150818)
(0.106367 -0.000524827 0.00144438)
(0.107165 -0.000487917 0.001368)
(0.107907 -0.000451824 0.00128763)
(0.1086 -0.000418949 0.00120978)
(0.10925 -0.000390323 0.00113883)
(0.109864 -0.000366048 0.00107708)
(0.110452 -0.00034553 0.00102544)
(0.111019 -0.000327365 0.000984228)
(0.111573 -0.000310497 0.000951925)
(0.112119 -0.000293546 0.00092551)
(0.112671 -0.000273971 0.00090141)
(0.113261 -0.000252413 0.000876278)
(0.100036 -0.000323183 0.000323151)
(0.100429 -0.000868787 0.000868697)
(0.10108 -0.0012626 0.00126243)
(0.101891 -0.0015047 0.00150442)
(0.102756 -0.00162209 0.00162163)
(0.103616 -0.0016435 0.00164279)
(0.104446 -0.00160574 0.00160468)
(0.105223 -0.00152796 0.00152629)
(0.105937 -0.00142926 0.00142665)
(0.106592 -0.00132564 0.00132157)
(0.107196 -0.00122782 0.00122136)
(0.107757 -0.00114112 0.00113086)
(0.108286 -0.00106759 0.0010513)
(0.10879 -0.00100781 0.000982071)
(0.109274 -0.000961791 0.000921726)
(0.109747 -0.000929334 0.000868459)
(0.110212 -0.00090969 0.000820527)
(0.110676 -0.000901678 0.000774368)
(0.111151 -0.000901373 0.00072405)
(0.111682 -0.000896311 0.000674728)
(0.100046 -0.00054029 0.000395739)
(0.10048 -0.00138424 0.00104493)
(0.101154 -0.00192321 0.00147549)
(0.101913 -0.00219297 0.00170548)
(0.102631 -0.00229469 0.00178044)
(0.103301 -0.00227921 0.00174537)
(0.103893 -0.00218702 0.001635)
(0.104388 -0.00205472 0.00149279)
(0.104815 -0.0019083 0.00134698)
(0.10519 -0.00177075 0.0012129)
(0.10553 -0.00165138 0.00109534)
(0.105847 -0.00155257 0.000994557)
(0.106149 -0.0014754 0.000907531)
(0.106441 -0.00141989 0.000831202)
(0.106727 -0.00138609 0.000763366)
(0.107005 -0.00137506 0.000703139)
(0.107275 -0.0013899 0.000647255)
(0.107541 -0.0014327 0.000593147)
(0.107813 -0.00148989 0.000534147)
(0.108218 -0.0015462 0.000481408)
(0.100093 -0.000763217 0.000445946)
(0.100504 -0.00174907 0.00119455)
(0.101105 -0.00212967 0.00158694)
(0.101634 -0.002235 0.00174067)
(0.101979 -0.00228758 0.00178269)
(0.102171 -0.00223658 0.00172971)
(0.102251 -0.00211684 0.00160927)
(0.102274 -0.00196599 0.00146229)
(0.102274 -0.00180418 0.00130836)
(0.102265 -0.00165592 0.0011623)
(0.102253 -0.00154941 0.00103819)
(0.102245 -0.00147646 0.00093455)
(0.102237 -0.00142862 0.000845574)
(0.102229 -0.00140216 0.000769312)
(0.102217 -0.00139607 0.000704691)
(0.102191 -0.00141242 0.000649835)
(0.102139 -0.00145708 0.000605027)
(0.102049 -0.00153836 0.000575475)
(0.101909 -0.00164728 0.000572128)
(0.102068 -0.00177499 0.000612966)
(0.0995405 -0.000321902 0.000245049)
(0.0992576 -0.00154094 0.00105565)
(0.0988488 -0.00211451 0.00150243)
(0.0981246 -0.0020917 0.00157959)
(0.0973366 -0.00188621 0.00151512)
(0.0965844 -0.00166593 0.00144698)
(0.0958646 -0.00149796 0.00141108)
(0.0951963 -0.00137146 0.00138053)
(0.0945666 -0.00128483 0.00133592)
(0.0939197 -0.00122989 0.00126642)
(0.093288 -0.00119399 0.00117908)
(0.0926683 -0.00117348 0.00108717)
(0.0920493 -0.00116515 0.00100201)
(0.0914208 -0.00116744 0.000929381)
(0.0907716 -0.00118056 0.000871813)
(0.0900865 -0.0012061 0.000832292)
(0.0893443 -0.00124931 0.000817433)
(0.0885054 -0.00132136 0.000834293)
(0.0874977 -0.00143915 0.000903588)
(0.08652 -0.00176076 0.00138051)
(0.0993801 5.89559e-05 3.37588e-05)
(0.0992678 0.00120003 0.0002743)
(0.0989805 0.00188846 0.000432177)
(0.0984749 0.00200635 0.000483103)
(0.0979962 0.0019144 0.000478197)
(0.0975722 0.00173424 0.000464336)
(0.0971835 0.00154648 0.000450707)
(0.0968353 0.00138721 0.000438628)
(0.0965378 0.00126772 0.000429884)
(0.0962876 0.0011956 0.000417837)
(0.0960205 0.00116599 0.000393967)
(0.0957383 0.00116053 0.000359407)
(0.095442 0.00116434 0.0003174)
(0.0951238 0.00117163 0.000267784)
(0.09478 0.00118166 0.000207432)
(0.0944104 0.00119513 0.000131878)
(0.0940153 0.00121136 2.82698e-05)
(0.0935952 0.00122782 -0.000117369)
(0.0931309 0.00124508 -0.000314273)
(0.0925848 0.00126254 -0.000573751)
(0.100087 0.000707024 0.000144372)
(0.100477 0.00161781 0.000390454)
(0.101066 0.00203468 0.000541044)
(0.101695 0.00211761 0.000610025)
(0.102269 0.00214998 0.000635759)
(0.102743 0.00217934 0.000626345)
(0.103125 0.00213337 0.000594015)
(0.10343 0.00204314 0.000547986)
(0.103683 0.00193322 0.000501604)
(0.103903 0.00182633 0.000457029)
(0.104103 0.00172648 0.000410744)
(0.104296 0.00163736 0.00036323)
(0.104484 0.00157283 0.000316696)
(0.104664 0.00153493 0.000269587)
(0.104835 0.0015151 0.000216525)
(0.104997 0.00150512 0.000152103)
(0.10515 0.00150087 7.0149e-05)
(0.105293 0.00150155 -3.61463e-05)
(0.105429 0.00150394 -0.000168969)
(0.105672 0.00149868 -0.000325289)
(0.100039 0.000478776 0.000131332)
(0.100448 0.0012348 0.000350498)