/*--------------------------------*- C++ -*----------------------------------*\
| =========                 |                                                 |
| \\      /  F ield         | OpenFOAM: The Open Source CFD Toolbox           |
|  \\    /   O peration     | Version:  2212                                  |
|   \\  /    A nd           | Website:  www.openfoam.com                      |
|    \\/     M anipulation  |                                                 |
\*---------------------------------------------------------------------------*/
FoamFile
{
    version     2.0;
    format      ascii;
    arch        "LSB;label=32;scalar=64";
    class       volScalarField;
    location    "2.85";
    object      p;
}
// * * * * * * * * * * * * * * * * * * * * * * * * * * * * * * * * * * * * * //

dimensions      [0 2 -2 0 0 0 0];

internalField   nonuniform List<scalar> 
680
(
0.0178116
0.0106971
0.00840572
0.0078679
0.00759355
0.00737137
0.00718478
0.0106328
0.00989892
0.00880603
0.00814006
0.00773747
0.00746374
0.00725255
0.0102845
0.00943297
0.0086687
0.00810956
0.00773338
0.00746529
0.00724954
0.00987518
0.00911245
0.00849368
0.00804234
0.00769833
0.00742924
0.0072095
0.00974097
0.00899979
0.00841161
0.00800347
0.00768149
0.0074147
0.00719306
0.00974099
0.00899981
0.00841164
0.00800352
0.00768157
0.00741483
0.00719327
0.00987524
0.00911251
0.00849375
0.00804245
0.0076985
0.00742951
0.00720998
0.0102845
0.00943302
0.00866876
0.00810965
0.00773353
0.00746558
0.00725004
0.0106328
0.00989893
0.00880605
0.0081401
0.00773754
0.00746387
0.00725279
0.0178116
0.0106971
0.00840571
0.00786789
0.00759355
0.00737136
0.00718477
0.0106328
0.00989894
0.00880606
0.0081401
0.00773755
0.00746387
0.00725279
0.0099162
0.0098845
0.00915629
0.0084458
0.00799948
0.00768358
0.00742475
0.00899071
0.00911689
0.00881401
0.0083978
0.00803067
0.00771202
0.00743344
0.0085723
0.00861581
0.00845023
0.00818729
0.00790689
0.00763552
0.00738445
0.00835633
0.00837816
0.00825095
0.00803342
0.00780097
0.00757178
0.00734891
0.00835637
0.0083782
0.00825101
0.00803352
0.00780112
0.00757199
0.00734924
0.00857239
0.0086159
0.00845036
0.00818746
0.00790714
0.00763587
0.00738499
0.00899075
0.00911694
0.00881409
0.0083979
0.0080308
0.00771224
0.00743383
0.00991619
0.00988449
0.00915628
0.00844579
0.00799947
0.00768357
0.00742474
0.0106328
0.00989891
0.00880602
0.00814005
0.00773746
0.00746372
0.00725254
0.0102845
0.00943303
0.00866877
0.00810965
0.00773354
0.00746559
0.00725005
0.00899075
0.00911695
0.0088141
0.00839791
0.00803081
0.00771225
0.00743384
0.00842125
0.00852222
0.00841067
0.00818523
0.00792951
0.00767115
0.00741283
0.00805322
0.00812128
0.0080689
0.00792191
0.00773704
0.00753193
0.00732129
0.00787015
0.00793458
0.00790512
0.00778025
0.00762122
0.00744752
0.00726123
0.00787018
0.00793461
0.00790515
0.00778034
0.00762139
0.00744776
0.00726153
0.00805327
0.00812133
0.00806898
0.00792206
0.00773726
0.0075322
0.00732164
0.00842124
0.00852221
0.00841066
0.00818522
0.0079295
0.00767114
0.00741282
0.0089907
0.00911688
0.008814
0.00839779
0.00803065
0.00771201
0.00743343
0.0102845
0.00943296
0.00866869
0.00810955
0.00773336
0.00746528
0.00724953
0.00987525
0.00911252
0.00849376
0.00804245
0.0076985
0.00742952
0.00720998
0.0085724
0.00861591
0.00845036
0.00818747
0.00790715
0.00763588
0.007385
0.00805328
0.00812134
0.00806899
0.00792207
0.00773727
0.00753221
0.00732165
0.00775535
0.00781449
0.00780256
0.00770718
0.00756758
0.00740212
0.00722197
0.00760422
0.00766711
0.00767087
0.00759722
0.00747709
0.0073307
0.00716779
0.00760423
0.00766712
0.00767089
0.00759725
0.00747713
0.00733076
0.00716789
0.00775534
0.00781449
0.00780256
0.00770718
0.00756757
0.00740211
0.00722196
0.00805321
0.00812127
0.00806889
0.0079219
0.00773703
0.00753192
0.00732128
0.00857229
0.0086158
0.00845022
0.00818727
0.00790688
0.00763551
0.00738443
0.00987517
0.00911244
0.00849367
0.00804233
0.00769832
0.00742923
0.00720949
0.009741
0.00899982
0.00841165
0.00800353
0.00768158
0.00741484
0.00719327
0.00835638
0.00837821
0.00825102
0.00803353
0.00780113
0.007572
0.00734925
0.00787018
0.00793462
0.00790516
0.00778035
0.00762139
0.00744777
0.00726154
0.00760424
0.00766713
0.0076709
0.00759725
0.00747714
0.00733077
0.0071679
0.00746142
0.00753093
0.00755305
0.00750051
0.00739926
0.00726832
0.00711839
0.00746141
0.00753093
0.00755305
0.0075005
0.00739925
0.00726832
0.00711839
0.00760421
0.0076671
0.00767086
0.00759721
0.00747709
0.00733069
0.00716778
0.00787014
0.00793458
0.00790511
0.00778024
0.00762121
0.00744751
0.00726122
0.00835632
0.00837815
0.00825094
0.0080334
0.00780095
0.00757176
0.00734889
0.00974096
0.00899978
0.0084116
0.00800346
0.00768148
0.00741469
0.00719305
0.00974099
0.0089998
0.00841162
0.00800348
0.0076815
0.00741472
0.00719307
0.00835634
0.00837817
0.00825096
0.00803343
0.00780098
0.00757179
0.00734892
0.00787015
0.00793459
0.00790512
0.00778026
0.00762123
0.00744753
0.00726124
0.00760422
0.00766712
0.00767087
0.00759722
0.0074771
0.0073307
0.0071678
0.00746142
0.00753093
0.00755305
0.00750051
0.00739926
0.00726832
0.00711839
0.00746141
0.00753093
0.00755305
0.00750051
0.00739925
0.00726832
0.00711839
0.00760423
0.00766712
0.00767089
0.00759724
0.00747713
0.00733076
0.00716789
0.00787017
0.0079346
0.00790514
0.00778034
0.00762138
0.00744775
0.00726152
0.00835636
0.00837819
0.008251
0.00803351
0.00780111
0.00757198
0.00734923
0.00974098
0.0089998
0.00841163
0.00800351
0.00768156
0.00741482
0.00719325
0.00987519
0.00911246
0.00849369
0.00804235
0.00769835
0.00742926
0.00720952
0.00857231
0.00861582
0.00845024
0.0081873
0.0079069
0.00763553
0.00738446
0.00805322
0.00812129
0.00806891
0.00792192
0.00773705
0.00753194
0.0073213
0.00775535
0.0078145
0.00780257
0.00770719
0.00756758
0.00740212
0.00722197
0.00760423
0.00766713
0.00767089
0.00759725
0.00747714
0.00733077
0.0071679
0.00760421
0.00766711
0.00767087
0.00759722
0.00747709
0.0073307
0.00775534
0.00781449
0.00780256
0.00770718
0.00756757
0.00740211
0.00805326
0.00812133
0.00806897
0.00792205
0.00773725
0.0075322
0.00857238
0.00861589
0.00845035
0.00818745
0.00790713
0.00763586
0.00987523
0.0091125
0.00849375
0.00804244
0.00769849
0.0074295
0.0102845
0.00943298
0.00866871
0.00810957
0.00773339
0.00746531
0.00724956
0.00899072
0.0091169
0.00881402
0.00839782
0.00803068
0.00771203
0.00743346
0.00842125
0.00852223
0.00841068
0.00818523
0.00792952
0.00767116
0.00741284
0.00805328
0.00812134
0.00806899
0.00792207
0.00773727
0.00753221
0.00732165
0.00787018
0.00793461
0.00790516
0.00778035
0.00762139
0.00744777
0.00726153
0.00787015
0.00793458
0.00790512
0.00778025
0.00762122
0.00744752
0.00805321
0.00812128
0.00806889
0.00792191
0.00773704
0.00753192
0.00842124
0.00852221
0.00841066
0.00818522
0.0079295
0.00767114
0.00899074
0.00911694
0.00881408
0.0083979
0.00803079
0.00771223
0.0102845
0.00943301
0.00866875
0.00810964
0.00773352
0.00746558
0.0106328
0.00989893
0.00880604
0.00814007
0.00773748
0.00746375
0.00725257
0.0099162
0.00988451
0.00915629
0.00844581
0.00799949
0.00768359
0.00742476
0.00899076
0.00911696
0.0088141
0.00839792
0.00803082
0.00771226
0.00743385
0.0085724
0.00861591
0.00845036
0.00818747
0.00790715
0.00763589
0.007385
0.00835638
0.0083782
0.00825101
0.00803353
0.00780113
0.007572
0.00734925
0.00835633
0.00837816
0.00825095
0.00803342
0.00780097
0.00757178
0.0085723
0.00861581
0.00845023
0.00818728
0.00790688
0.00763552
0.0089907
0.00911689
0.00881401
0.0083978
0.00803066
0.00771201
0.00991619
0.00988449
0.00915627
0.00844579
0.00799947
0.00768357
0.0106328
0.00989893
0.00880605
0.00814009
0.00773753
0.00746386
0.0178116
0.0106972
0.00840573
0.00786791
0.00759357
0.00737139
0.0071848
0.0106328
0.00989895
0.00880607
0.00814011
0.00773756
0.00746388
0.00725281
0.0102845
0.00943303
0.00866877
0.00810966
0.00773354
0.0074656
0.00725006
0.00987525
0.00911252
0.00849376
0.00804246
0.00769851
0.00742952
0.00720999
0.00974099
0.00899981
0.00841165
0.00800353
0.00768158
0.00741484
0.00719327
0.00974097
0.00899979
0.00841161
0.00800347
0.00768149
0.00741471
0.00987518
0.00911245
0.00849368
0.00804234
0.00769833
0.00742924
0.0102845
0.00943296
0.00866869
0.00810955
0.00773337
0.00746528
0.0106328
0.00989891
0.00880602
0.00814005
0.00773746
0.00746372
0.0178116
0.0106971
0.00840571
0.00786789
0.00759354
0.00737136
)
;

boundaryField
{
    inlet
    {
        type            zeroGradient;
    }
    ami1
    {
        type            cyclicAMI;
        value           nonuniform List<scalar> 0();
    }
    walls
    {
        type            zeroGradient;
    }
    ami2
    {
        type            cyclicAMI;
        value           nonuniform List<scalar> 0();
    }
    outlet
    {
        type            fixedValue;
        value           nonuniform List<scalar> 0();
    }
    procBoundary4to3
    {
        type            processor;
        value           nonuniform List<scalar> 
109
(
0.00701841
0.0070663
0.00705646
0.00702048
0.00700223
0.00700257
0.00702131
0.00705731
0.00706671
0.0070184
0.00706672
0.00719719
0.00719294
0.00715797
0.00713567
0.00713616
0.00715883
0.00719363
0.00719718
0.00706629
0.00705732
0.00719364
0.00717135
0.00711441
0.0070732
0.00707359
0.00711493
0.00717133
0.00719293
0.00705645
0.00702132
0.00715883
0.00711494
0.00703755
0.00699635
0.0069965
0.00703754
0.0071144
0.00715795
0.00702046
0.00700258
0.00713617
0.0070736
0.00699651
0.0069574
0.00695739
0.00699634
0.00707319
0.00713566
0.00700221
0.00700224
0.00713568
0.00707321
0.00699635
0.0069574
0.0069574
0.00716779
0.0069965
0.00722196
0.00707358
0.00732163
0.00713615
0.00738498
0.00700256
0.00720997
0.00702049
0.00715798
0.00711442
0.00703755
0.00699651
0.00716779
0.00716779
0.00722196
0.00732163
0.00738498
0.00720997
0.00705648
0.00719295
0.00717136
0.00711495
0.0070736
0.00726123
0.00726123
0.00732128
0.00741282
0.00743383
0.00725004
0.00706632
0.0071972
0.00719365
0.00715884
0.00713617
0.00734891
0.00734891
0.00738444
0.00743344
0.00742474
0.00725278
0.00701843
0.00706673
0.00705733
0.00702133
0.00700258
0.00719307
0.00719307
0.0072095
0.00724953
0.00725254
0.00718477
)
;
    }
}


// ************************************************************************* //
