/*--------------------------------*- C++ -*----------------------------------*\
| =========                 |                                                 |
| \\      /  F ield         | OpenFOAM: The Open Source CFD Toolbox           |
|  \\    /   O peration     | Version:  2212                                  |
|   \\  /    A nd           | Website:  www.openfoam.com                      |
|    \\/     M anipulation  |                                                 |
\*---------------------------------------------------------------------------*/
FoamFile
{
    version     2.0;
    format      ascii;
    arch        "LSB;label=32;scalar=64";
    class       volVectorField;
    location    "2.85";
    object      U;
}
// * * * * * * * * * * * * * * * * * * * * * * * * * * * * * * * * * * * * * //

dimensions      [0 1 -1 0 0 0 0];

internalField   nonuniform List<vector> 
680
(
(0.0956456 -0.00836005 -0.00836005)
(0.0904939 0.00152206 0.00152198)
(0.0790682 0.00242983 0.00242967)
(0.0713011 0.00148791 0.00148756)
(0.0661793 0.000830798 0.000830118)
(0.0623224 0.000564188 0.000563073)
(0.0592204 0.000427448 0.000424948)
(0.0999088 0.001297 0.000712544)
(0.0969668 0.00365598 0.00274719)
(0.0935345 0.00264036 0.00211801)
(0.0895892 0.0018207 0.00162036)
(0.085832 0.00152933 0.00139023)
(0.0825899 0.00135216 0.00116051)
(0.0798649 0.00118094 0.000896031)
(0.099413 0.000345249 0.000270225)
(0.0988664 0.00201913 0.00187483)
(0.0979216 0.00257331 0.00218881)
(0.0963662 0.00238019 0.00190806)
(0.0946341 0.00211465 0.00162618)
(0.0929736 0.00192767 0.00141788)
(0.0913666 0.00180293 0.00126996)
(0.0995405 0.000245037 0.000321897)
(0.0992576 0.00105559 0.00154091)
(0.0988491 0.00150229 0.00211436)
(0.0981252 0.00157933 0.00209148)
(0.0973379 0.00151454 0.00188591)
(0.0965868 0.00144579 0.00166554)
(0.0958687 0.00140892 0.00149758)
(0.0993801 3.37585e-05 5.89522e-05)
(0.0992678 0.000274297 0.00120001)
(0.0989805 0.000432158 0.00188842)
(0.098475 0.000483065 0.00200631)
(0.0979963 0.000478114 0.00191438)
(0.0975723 0.000464157 0.00173424)
(0.0971835 0.000450329 0.00154653)
(0.0993802 -3.3791e-05 5.90029e-05)
(0.0992677 -0.000274462 0.00120004)
(0.0989805 -0.000432519 0.00188843)
(0.0984748 -0.000483703 0.00200638)
(0.0979958 -0.000479234 0.00191455)
(0.0975713 -0.000466173 0.00173462)
(0.0971816 -0.000453976 0.00154709)
(0.0995405 -0.000245048 0.000321897)
(0.0992576 -0.00105564 0.00154091)
(0.0988489 -0.0015024 0.00211447)
(0.0981247 -0.00157952 0.00209168)
(0.0973366 -0.00151504 0.00188623)
(0.0965843 -0.00144685 0.00166604)
(0.0958643 -0.00141087 0.00149817)
(0.099413 -0.000345229 0.000270232)
(0.0988664 -0.00201903 0.00187491)
(0.0979214 -0.00257311 0.00218905)
(0.0963656 -0.00237984 0.00190847)
(0.0946329 -0.00211411 0.00162677)
(0.0929712 -0.0019268 0.00141872)
(0.0913623 -0.00180166 0.00127134)
(0.0999088 -0.00129699 0.000712563)
(0.0969668 -0.00365583 0.00274729)
(0.0935345 -0.00264013 0.00211821)
(0.089589 -0.00182031 0.00162075)
(0.0858315 -0.00152849 0.00139079)
(0.082589 -0.00135084 0.00116154)
(0.0798634 -0.00117855 0.000897734)
(0.0956456 0.00836005 -0.00836004)
(0.0904939 -0.00152198 0.00152207)
(0.0790682 -0.00242967 0.00242983)
(0.0713011 -0.00148756 0.00148792)
(0.0661793 -0.000830109 0.000830808)
(0.0623224 -0.000563062 0.000564199)
(0.0592205 -0.000424935 0.000427462)
(0.0999088 0.000712563 0.00129699)
(0.0969668 0.00274729 0.00365584)
(0.0935345 0.00211821 0.00264014)
(0.089589 0.00162075 0.00182032)
(0.0858315 0.00139079 0.00152851)
(0.082589 0.00116153 0.00135086)
(0.0798633 0.00089773 0.00117858)
(0.100226 0.000720833 0.000720801)
(0.09996 0.0019828 0.00198266)
(0.0997822 0.00245206 0.00245172)
(0.098788 0.00242001 0.0024194)
(0.0972753 0.00220142 0.00220047)
(0.0957743 0.00181246 0.00181075)
(0.0943919 0.00138396 0.00138116)
(0.10014 0.000775042 0.000869227)
(0.100454 0.00196248 0.00196347)
(0.100911 0.00242768 0.00233429)
(0.100978 0.00252689 0.00244091)
(0.100694 0.00242677 0.00233622)
(0.100225 0.00219834 0.00211173)
(0.0997094 0.00191805 0.0018221)
(0.100093 0.000445937 0.000763191)
(0.100504 0.00119452 0.00174899)
(0.101105 0.00158686 0.00212947)
(0.101635 0.00174049 0.00223443)
(0.10198 0.00178236 0.00228659)
(0.102172 0.00172919 0.00223525)
(0.102254 0.00160833 0.00211493)
(0.100087 0.000144369 0.000707008)
(0.100477 0.00039044 0.00161776)
(0.101066 0.000541019 0.00203462)
(0.101694 0.000609976 0.00211753)
(0.102269 0.000635648 0.00214988)
(0.102743 0.000626122 0.00217928)
(0.103125 0.000593634 0.00213339)
(0.100087 -0.000144424 0.000707014)
(0.100477 -0.000390607 0.00161777)
(0.101066 -0.000541309 0.00203461)
(0.101694 -0.000610495 0.00211761)
(0.102269 -0.000636639 0.00215021)
(0.102742 -0.000627906 0.00217989)
(0.103124 -0.000596597 0.00213434)
(0.100093 -0.000445939 0.000763204)
(0.100504 -0.00119452 0.00174903)
(0.101105 -0.00158688 0.00212962)
(0.101634 -0.00174058 0.00223498)
(0.101979 -0.00178255 0.00228766)
(0.10217 -0.0017295 0.00223681)
(0.102251 -0.00160899 0.00211729)
(0.10014 -0.000775004 0.000869272)
(0.100454 -0.00196237 0.00196368)
(0.100911 -0.00242747 0.00233477)
(0.100978 -0.00252645 0.0024417)
(0.100693 -0.00242601 0.00233739)
(0.100223 -0.00219703 0.00211329)
(0.0997069 -0.00191601 0.00182454)
(0.100226 -0.000720801 0.000720833)
(0.09996 -0.00198266 0.00198281)
(0.0997822 -0.00245171 0.00245207)
(0.098788 -0.0024194 0.00242002)
(0.0972753 -0.00220046 0.00220143)
(0.0957743 -0.00181074 0.00181246)
(0.0943919 -0.00138114 0.00138396)
(0.0999088 -0.000712544 0.001297)
(0.0969668 -0.00274719 0.00365598)
(0.0935345 -0.00211801 0.00264036)
(0.0895892 -0.00162035 0.00182071)
(0.085832 -0.00139023 0.00152935)
(0.0825899 -0.00116051 0.00135217)
(0.0798649 -0.000896026 0.00118096)
(0.099413 0.000270232 0.000345231)
(0.0988664 0.00187491 0.00201904)
(0.0979214 0.00218905 0.00257313)
(0.0963656 0.00190847 0.00237986)
(0.0946329 0.00162677 0.00211414)
(0.0929712 0.00141872 0.00192683)
(0.0913623 0.00127134 0.0018017)
(0.10014 0.000869272 0.000775006)
(0.100454 0.00196368 0.00196238)
(0.100911 0.00233477 0.00242748)
(0.100978 0.0024417 0.00252646)
(0.100693 0.00233739 0.00242602)
(0.100223 0.00211329 0.00219705)
(0.0997069 0.00182454 0.00191603)
(0.10006 0.000641441 0.000641379)
(0.100501 0.0016452 0.001645)
(0.101149 0.00221272 0.00221233)
(0.101738 0.00244053 0.00243985)
(0.102205 0.0024428 0.0024417)
(0.102501 0.0023148 0.00231309)
(0.102645 0.00209465 0.00209182)
(0.100046 0.000395744 0.000540226)
(0.10048 0.00104494 0.00138404)
(0.101154 0.00147551 0.00192286)
(0.101913 0.00170549 0.00219236)
(0.102632 0.00178051 0.00229371)
(0.103302 0.00174553 0.00227768)
(0.103894 0.00163533 0.00218472)
(0.100039 0.000131326 0.000478759)
(0.100448 0.00035048 0.00123475)
(0.101114 0.00050505 0.00174642)
(0.101909 0.000597142 0.00202671)
(0.102729 0.000638493 0.00215189)
(0.10353 0.000638095 0.00218609)
(0.104298 0.000604228 0.00215275)
(0.100039 -0.000131362 0.00047878)
(0.100448 -0.000350573 0.00123481)
(0.101114 -0.000505217 0.00174654)
(0.101909 -0.000597425 0.00202693)
(0.102728 -0.000638987 0.00215233)
(0.103529 -0.000638916 0.00218681)
(0.104297 -0.00060565 0.00215385)
(0.100046 -0.000395722 0.00054028)
(0.10048 -0.00104488 0.00138421)
(0.101154 -0.0014754 0.00192319)
(0.101913 -0.00170533 0.00219296)
(0.102631 -0.00178021 0.00229473)
(0.103301 -0.00174502 0.00227934)
(0.103893 -0.00163449 0.00218732)
(0.10006 -0.000641378 0.000641441)
(0.100501 -0.00164499 0.0016452)
(0.101149 -0.00221232 0.00221272)
(0.101738 -0.00243985 0.00244053)
(0.102205 -0.00244169 0.00244279)
(0.102501 -0.00231308 0.00231479)
(0.102645 -0.0020918 0.00209464)
(0.10014 -0.000869226 0.000775043)
(0.100454 -0.00196347 0.00196248)
(0.100911 -0.00233429 0.00242769)
(0.100978 -0.0024409 0.00252689)
(0.100694 -0.00233621 0.00242677)
(0.100225 -0.00211172 0.00219834)
(0.0997094 -0.00182209 0.00191805)
(0.099413 -0.000270225 0.00034525)
(0.0988664 -0.00187483 0.00201913)
(0.0979216 -0.0021888 0.00257331)
(0.0963662 -0.00190806 0.00238019)
(0.0946341 -0.00162618 0.00211465)
(0.0929736 -0.00141787 0.00192767)
(0.0913666 -0.00126995 0.00180293)
(0.0995405 0.000321897 0.00024505)
(0.0992576 0.00154091 0.00105565)
(0.0988489 0.00211447 0.00150241)
(0.0981247 0.00209168 0.00157954)
(0.0973366 0.00188623 0.00151506)
(0.0965843 0.00166604 0.00144689)
(0.0958643 0.00149817 0.00141091)
(0.100093 0.000763204 0.000445941)
(0.100504 0.00174903 0.00119453)
(0.101105 0.00212962 0.00158689)
(0.101634 0.00223498 0.00174059)
(0.101979 0.00228766 0.00178257)
(0.10217 0.00223682 0.00172953)
(0.102251 0.00211729 0.00160901)
(0.100046 0.00054028 0.000395724)
(0.10048 0.00138421 0.00104488)
(0.101154 0.00192319 0.0014754)
(0.101913 0.00219296 0.00170534)
(0.102631 0.00229474 0.00178023)
(0.103301 0.00227935 0.00174504)
(0.103893 0.00218733 0.00163451)
(0.100036 0.000323178 0.000323135)
(0.100429 0.000868773 0.000868647)
(0.10108 0.00126258 0.00126234)
(0.101891 0.00150468 0.00150428)
(0.102756 0.00162208 0.00162141)
(0.103616 0.00164351 0.00164249)
(0.104446 0.00160581 0.00160427)
(0.100031 0.000107088 0.000281376)
(0.100395 0.000293078 0.000768613)
(0.101024 0.000434139 0.00113304)
(0.101844 0.000526329 0.00136914)
(0.102751 0.000576512 0.00150134)
(0.103689 0.000591998 0.00155409)
(0.104618 0.000582721 0.00154906)
(0.100031 -0.000107084 0.000281396)
(0.100395 -0.000293063 0.000768675)
(0.101024 -0.000434109 0.00113316)
(0.101843 -0.00052628 0.00136937)
(0.102751 -0.000576432 0.00150173)
(0.103688 -0.000591864 0.00155468)
(0.104617 -0.000582521 0.00154989)
(0.100036 -0.000323132 0.000323177)
(0.100429 -0.000868641 0.000868772)
(0.10108 -0.00126233 0.00126257)
(0.101891 -0.00150426 0.00150468)
(0.102756 -0.0016214 0.00162207)
(0.103616 -0.00164246 0.0016435)
(0.104446 -0.00160424 0.0016058)
(0.100046 -0.000540224 0.000395744)
(0.10048 -0.00138404 0.00104494)
(0.101154 -0.00192285 0.00147551)
(0.101913 -0.00219235 0.00170548)
(0.102632 -0.0022937 0.0017805)
(0.103302 -0.00227766 0.00174552)
(0.103894 -0.0021847 0.00163532)
(0.100093 -0.00076319 0.000445937)
(0.100504 -0.00174899 0.00119452)
(0.101105 -0.00212947 0.00158686)
(0.101635 -0.00223443 0.00174048)
(0.10198 -0.00228658 0.00178235)
(0.102172 -0.00223524 0.00172919)
(0.102254 -0.00211492 0.00160833)
(0.0995405 -0.000321897 0.000245038)
(0.0992576 -0.00154091 0.00105559)
(0.0988491 -0.00211436 0.00150229)
(0.0981252 -0.00209147 0.00157933)
(0.0973379 -0.0018859 0.00151454)
(0.0965868 -0.00166553 0.00144579)
(0.0958687 -0.00149757 0.00140892)
(0.0993802 5.90018e-05 3.37927e-05)
(0.0992677 0.00120005 0.000274469)
(0.0989805 0.00188844 0.000432536)
(0.0984748 0.00200638 0.000483725)
(0.0979958 0.00191456 0.000479262)
(0.0975713 0.00173462 0.000466208)
(0.0971816 0.0015471 0.000454019)
(0.100087 0.000707015 0.000144427)
(0.100477 0.00161777 0.000390614)
(0.101066 0.00203461 0.00054132)
(0.101694 0.00211761 0.000610511)
(0.102269 0.00215022 0.000636659)
(0.102742 0.0021799 0.000627933)
(0.103124 0.00213436 0.000596631)
(0.100039 0.00047878 0.000131365)
(0.100448 0.00123481 0.00035058)
(0.101114 0.00174655 0.000505227)
(0.101909 0.00202694 0.000597439)
(0.102728 0.00215234 0.000639006)
(0.103529 0.00218683 0.000638941)
(0.104297 0.00215387 0.000605681)
(0.100031 0.000281397 0.000107087)
(0.100395 0.000768678 0.000293071)
(0.101024 0.00113316 0.00043412)
(0.101843 0.00136938 0.000526295)
(0.102751 0.00150174 0.000576452)
(0.103688 0.00155469 0.000591891)
(0.104617 0.00154991 0.000582555)
(0.100048 7.31496e-05 7.31428e-05)
(0.100365 0.000251066 0.000251034)
(0.100961 0.000386395 0.000386335)
(0.101771 0.000477972 0.00047787)
(0.102702 0.000532209 0.000532048)
(0.10369 0.0005568 0.000556555)
(0.104692 0.000559177 0.000558817)
(0.100048 -7.31383e-05 7.31485e-05)
(0.100365 -0.000251027 0.000251061)
(0.100961 -0.000386322 0.000386388)
(0.101771 -0.000477853 0.00047796)
(0.102702 -0.000532025 0.000532193)
(0.10369 -0.000556525 0.000556781)
(0.104692 -0.000558779 0.000559155)
(0.100031 -0.000281373 0.000107087)
(0.100395 -0.000768606 0.000293075)
(0.101024 -0.00113303 0.000434134)
(0.101844 -0.00136913 0.00052632)
(0.102751 -0.00150132 0.0005765)
(0.103689 -0.00155406 0.000591984)
(0.104618 -0.00154902 0.000582704)
(0.100039 -0.000478757 0.000131326)
(0.100448 -0.00123474 0.000350478)
(0.101114 -0.00174641 0.000505045)
(0.101909 -0.0020267 0.000597134)
(0.102729 -0.00215187 0.000638484)
(0.10353 -0.00218607 0.000638083)
(0.104298 -0.00215272 0.000604215)
(0.100087 -0.000707008 0.000144368)
(0.100477 -0.00161776 0.000390439)
(0.101066 -0.00203461 0.000541016)
(0.101694 -0.00211753 0.00060997)
(0.102269 -0.00214988 0.00063564)
(0.102743 -0.00217927 0.000626113)
(0.103125 -0.00213337 0.000593624)
(0.0993801 -5.89515e-05 3.37587e-05)
(0.0992678 -0.00120001 0.000274296)
(0.0989806 -0.00188842 0.000432158)
(0.098475 -0.00200631 0.000483063)
(0.0979963 -0.00191437 0.000478111)
(0.0975723 -0.00173423 0.000464152)
(0.0971835 -0.00154653 0.000450323)
(0.0993802 5.89533e-05 -3.37568e-05)
(0.0992678 0.0012 -0.000274289)
(0.0989805 0.00188842 -0.000432141)
(0.098475 0.00200632 -0.000483042)
(0.0979963 0.00191438 -0.000478086)
(0.0975723 0.00173424 -0.000464122)
(0.0971835 0.00154654 -0.000450285)
(0.100087 0.000707009 -0.000144366)
(0.100477 0.00161776 -0.000390432)
(0.101066 0.00203462 -0.000541007)
(0.101694 0.00211754 -0.000609959)
(0.102269 0.0021499 -0.000635626)
(0.102743 0.0021793 -0.000626094)
(0.103125 0.00213341 -0.000593598)
(0.100039 0.00047876 -0.000131323)
(0.100448 0.00123475 -0.000350473)
(0.101114 0.00174643 -0.000505039)
(0.101909 0.00202672 -0.000597127)
(0.102729 0.0021519 -0.000638474)
(0.10353 0.00218611 -0.000638069)
(0.104298 0.00215277 -0.000604195)
(0.100031 0.000281377 -0.000107084)
(0.100395 0.000768617 -0.00029307)
(0.101024 0.00113304 -0.000434128)
(0.101844 0.00136916 -0.000526314)
(0.102751 0.00150136 -0.000576491)
(0.103689 0.00155411 -0.000591971)
(0.104618 0.00154908 -0.000582686)
(0.100048 7.31438e-05 -7.31473e-05)
(0.100365 0.000251037 -0.000251056)
(0.100961 0.000386344 -0.000386382)
(0.101771 0.000477884 -0.000477954)
(0.102702 0.000532067 -0.000532185)
(0.10369 0.000556578 -0.000556769)
(0.104692 0.000558844 -0.000559138)
(0.100048 -7.31457e-05 -7.31384e-05)
(0.100365 -0.00025105 -0.000251029)
(0.100961 -0.000386374 -0.00038633)
(0.101771 -0.000477941 -0.000477864)
(0.102702 -0.000532167 -0.00053204)
(0.10369 -0.000556748 -0.000556543)
(0.104692 -0.000559113 -0.0005588)
(0.100031 -0.000281393 -0.000107086)
(0.100395 -0.000768668 -0.000293066)
(0.101024 -0.00113315 -0.000434115)
(0.101843 -0.00136936 -0.000526289)
(0.102751 -0.0015017 -0.000576444)
(0.103688 -0.00155465 -0.00059188)
(0.104617 -0.00154985 -0.000582539)
(0.100039 -0.000478778 -0.000131363)
(0.100448 -0.00123481 -0.000350576)
(0.101114 -0.00174654 -0.000505222)
(0.101909 -0.00202692 -0.000597433)
(0.102728 -0.00215231 -0.000638998)
(0.103529 -0.00218679 -0.000638929)
(0.104297 -0.00215382 -0.000605665)
(0.100087 -0.000707014 -0.000144425)
(0.100477 -0.00161777 -0.000390609)
(0.101066 -0.00203461 -0.000541313)
(0.101694 -0.0021176 -0.000610502)
(0.102269 -0.0021502 -0.000636648)
(0.102742 -0.00217988 -0.000627917)
(0.103124 -0.00213433 -0.000596611)
(0.0993802 -5.90044e-05 -3.37916e-05)
(0.0992677 -0.00120004 -0.000274464)
(0.0989805 -0.00188843 -0.000432522)
(0.0984748 -0.00200637 -0.000483708)
(0.0979958 -0.00191455 -0.000479241)
(0.0975713 -0.00173461 -0.000466183)
(0.0971817 -0.00154709 -0.000453987)
(0.0995405 0.000321897 -0.000245035)
(0.0992576 0.00154091 -0.00105558)
(0.0988491 0.00211437 -0.00150227)
(0.0981252 0.00209148 -0.0015793)
(0.0973379 0.00188592 -0.00151451)
(0.0965868 0.00166555 -0.00144575)
(0.0958687 0.00149759 -0.00140887)
(0.100093 0.000763192 -0.000445935)
(0.100504 0.00174899 -0.00119451)
(0.101105 0.00212947 -0.00158685)
(0.101635 0.00223444 -0.00174047)
(0.10198 0.00228661 -0.00178234)
(0.102172 0.00223527 -0.00172917)
(0.102254 0.00211495 -0.0016083)
(0.100046 0.000540227 -0.000395742)
(0.10048 0.00138405 -0.00104494)
(0.101154 0.00192287 -0.0014755)
(0.101913 0.00219237 -0.00170548)
(0.102632 0.00229373 -0.00178049)
(0.103302 0.0022777 -0.00174551)
(0.103894 0.00218475 -0.0016353)
(0.100036 0.000323136 -0.000323175)
(0.100429 0.000868652 -0.000868767)
(0.10108 0.00126235 -0.00126257)
(0.101891 0.00150429 -0.00150467)
(0.102756 0.00162144 -0.00162206)
(0.103616 0.00164251 -0.00164349)
(0.104446 0.0016043 -0.00160578)
(0.100031 0.000107089 -0.000281394)
(0.100395 0.000293075 -0.00076867)
(0.101024 0.00043413 -0.00113315)
(0.101843 0.00052631 -0.00136937)
(0.102751 0.000576473 -0.00150172)
(0.103688 0.000591917 -0.00155466)
(0.104617 0.000582585 -0.00154988)
(0.100031 -0.000107083 -0.000281374)
(0.100395 -0.000293066 -0.000768609)
(0.101024 -0.00043412 -0.00113303)
(0.101844 -0.0005263 -0.00136914)
(0.102751 -0.000576472 -0.00150133)
(0.103689 -0.000591948 -0.00155408)
(0.100036 -0.000323174 -0.000323134)
(0.100429 -0.000868764 -0.000868644)
(0.10108 -0.00126256 -0.00126234)
(0.101891 -0.00150466 -0.00150427)
(0.102756 -0.00162204 -0.00162141)
(0.103616 -0.00164347 -0.00164248)
(0.100046 -0.000540278 -0.000395723)
(0.10048 -0.00138421 -0.00104488)
(0.101154 -0.00192318 -0.0014754)
(0.101913 -0.00219295 -0.00170534)
(0.102631 -0.00229472 -0.00178022)
(0.103301 -0.00227932 -0.00174504)
(0.100093 -0.000763203 -0.00044594)
(0.100504 -0.00174903 -0.00119452)
(0.101105 -0.00212962 -0.00158688)
(0.101634 -0.00223497 -0.00174058)
(0.101979 -0.00228765 -0.00178256)
(0.10217 -0.0022368 -0.00172951)
(0.0995405 -0.000321897 -0.000245049)
(0.0992576 -0.00154091 -0.00105565)
(0.0988489 -0.00211447 -0.0015024)
(0.0981247 -0.00209167 -0.00157953)
(0.0973366 -0.00188623 -0.00151505)
(0.0965844 -0.00166603 -0.00144687)
(0.099413 0.000270225 -0.000345247)
(0.0988664 0.00187484 -0.00201912)
(0.0979216 0.00218881 -0.00257329)
(0.0963662 0.00190807 -0.00238017)
(0.0946341 0.0016262 -0.00211462)
(0.0929736 0.0014179 -0.00192764)
(0.0913666 0.00126998 -0.00180289)
(0.10014 0.000869228 -0.00077504)
(0.100454 0.00196348 -0.00196248)
(0.100911 0.0023343 -0.00242768)
(0.100978 0.00244092 -0.00252688)
(0.100694 0.00233624 -0.00242675)
(0.100225 0.00211176 -0.00219832)
(0.0997094 0.00182213 -0.00191803)
(0.10006 0.000641381 -0.000641439)
(0.100501 0.001645 -0.00164519)
(0.101149 0.00221234 -0.00221271)
(0.101738 0.00243987 -0.00244052)
(0.102205 0.00244172 -0.00244278)
(0.102501 0.00231312 -0.00231478)
(0.102645 0.00209186 -0.00209463)
(0.100046 0.000395726 -0.000540278)
(0.10048 0.00104489 -0.00138421)
(0.101154 0.00147541 -0.00192318)
(0.101913 0.00170536 -0.00219295)
(0.102631 0.00178025 -0.00229473)
(0.103301 0.00174507 -0.00227933)
(0.103893 0.00163455 -0.00218731)
(0.100039 0.000131366 -0.000478778)
(0.100448 0.000350584 -0.00123481)
(0.101114 0.000505236 -0.00174654)
(0.101909 0.000597453 -0.00202693)
(0.102728 0.000639026 -0.00215232)
(0.103529 0.000638966 -0.0021868)
(0.104297 0.000605712 -0.00215384)
(0.100039 -0.000131323 -0.000478758)
(0.100448 -0.00035047 -0.00123475)
(0.101114 -0.000505032 -0.00174642)
(0.101909 -0.000597114 -0.00202671)
(0.102729 -0.000638456 -0.00215188)
(0.10353 -0.000638047 -0.00218608)
(0.100046 -0.000395742 -0.000540225)
(0.10048 -0.00104494 -0.00138404)
(0.101154 -0.0014755 -0.00192286)
(0.101913 -0.00170547 -0.00219235)
(0.102632 -0.00178048 -0.00229371)
(0.103302 -0.00174549 -0.00227767)
(0.10006 -0.000641439 -0.000641379)
(0.100501 -0.00164519 -0.001645)
(0.101149 -0.00221271 -0.00221232)
(0.101738 -0.00244052 -0.00243985)
(0.102205 -0.00244277 -0.0024417)
(0.102501 -0.00231477 -0.00231309)
(0.10014 -0.000869271 -0.000775005)
(0.100454 -0.00196367 -0.00196238)
(0.100911 -0.00233476 -0.00242748)
(0.100978 -0.00244169 -0.00252646)
(0.100693 -0.00233738 -0.00242602)
(0.100223 -0.00211327 -0.00219704)
(0.099413 -0.000270232 -0.000345231)
(0.0988664 -0.00187491 -0.00201904)
(0.0979214 -0.00218905 -0.00257312)
(0.0963656 -0.00190847 -0.00237985)
(0.0946329 -0.00162676 -0.00211413)
(0.0929713 -0.00141871 -0.00192682)
(0.0999088 0.000712543 -0.001297)
(0.0969668 0.00274719 -0.00365598)
(0.0935345 0.00211801 -0.00264035)
(0.0895892 0.00162037 -0.00182069)
(0.085832 0.00139025 -0.00152932)
(0.0825899 0.00116053 -0.00135213)
(0.0798649 0.000896056 -0.00118091)
(0.100226 0.000720804 -0.000720834)
(0.09996 0.00198266 -0.0019828)
(0.0997822 0.00245173 -0.00245206)
(0.098788 0.00241942 -0.00242001)
(0.0972753 0.00220049 -0.00220142)
(0.0957743 0.00181078 -0.00181244)
(0.0943919 0.00138119 -0.00138394)
(0.10014 0.000775007 -0.00086927)
(0.100454 0.00196238 -0.00196367)
(0.100911 0.00242749 -0.00233476)
(0.100978 0.00252648 -0.0024417)
(0.100693 0.00242604 -0.00233738)
(0.100223 0.00219707 -0.00211328)
(0.0997069 0.00191606 -0.00182453)
(0.100093 0.000445941 -0.000763203)
(0.100504 0.00119453 -0.00174903)
(0.101105 0.00158689 -0.00212962)
(0.101634 0.0017406 -0.00223497)
(0.101979 0.00178258 -0.00228766)
(0.10217 0.00172955 -0.00223681)
(0.102251 0.00160904 -0.00211728)
(0.100087 0.000144427 -0.000707014)
(0.100477 0.000390615 -0.00161777)
(0.101066 0.000541324 -0.00203461)
(0.101694 0.00061052 -0.00211761)
(0.102269 0.000636674 -0.00215021)
(0.102742 0.000627952 -0.00217989)
(0.103124 0.000596655 -0.00213434)
(0.100087 -0.000144366 -0.000707008)
(0.100477 -0.000390433 -0.00161776)
(0.101066 -0.000541005 -0.00203462)
(0.101694 -0.000609953 -0.00211753)
(0.102269 -0.000635615 -0.00214988)
(0.102743 -0.00062608 -0.00217928)
(0.100093 -0.000445935 -0.000763191)
(0.100504 -0.00119451 -0.00174899)
(0.101105 -0.00158685 -0.00212947)
(0.101635 -0.00174047 -0.00223443)
(0.10198 -0.00178233 -0.00228659)
(0.102172 -0.00172916 -0.00223524)
(0.10014 -0.000775041 -0.000869226)
(0.100454 -0.00196248 -0.00196347)
(0.100911 -0.00242768 -0.00233429)
(0.100978 -0.00252688 -0.00244091)
(0.100694 -0.00242675 -0.00233622)
(0.100225 -0.00219832 -0.00211173)
(0.100226 -0.000720832 -0.000720801)
(0.09996 -0.0019828 -0.00198266)
(0.0997822 -0.00245206 -0.00245171)
(0.098788 -0.00242001 -0.0024194)
(0.0972753 -0.00220142 -0.00220047)
(0.0957743 -0.00181244 -0.00181075)
(0.0999088 -0.000712563 -0.00129699)
(0.0969668 -0.00274729 -0.00365584)
(0.0935345 -0.00211821 -0.00264014)
(0.089589 -0.00162074 -0.00182031)
(0.0858315 -0.00139078 -0.0015285)
(0.082589 -0.00116153 -0.00135086)
(0.0956456 -0.00836005 0.00836004)
(0.0904939 0.00152198 -0.00152206)
(0.0790682 0.00242967 -0.00242983)
(0.0713011 0.00148757 -0.0014879)
(0.0661793 0.000830133 -0.00083079)
(0.0623224 0.000563091 -0.000564174)
(0.0592205 0.000424976 -0.000427427)
(0.0999088 0.00129699 -0.000712562)
(0.0969668 0.00365585 -0.00274729)
(0.0935345 0.00264015 -0.00211821)
(0.089589 0.00182033 -0.00162075)
(0.0858315 0.00152853 -0.00139079)
(0.082589 0.00135088 -0.00116153)
(0.0798633 0.0011786 -0.000897725)
(0.099413 0.000345232 -0.000270232)
(0.0988664 0.00201904 -0.00187491)
(0.0979214 0.00257313 -0.00218905)
(0.0963656 0.00237986 -0.00190847)
(0.0946329 0.00211414 -0.00162676)
(0.0929712 0.00192684 -0.00141872)
(0.0913623 0.00180171 -0.00127134)
(0.0995405 0.00024505 -0.000321896)
(0.0992576 0.00105565 -0.00154091)
(0.0988489 0.00150241 -0.00211447)
(0.0981247 0.00157954 -0.00209168)
(0.0973366 0.00151506 -0.00188623)
(0.0965844 0.00144689 -0.00166604)
(0.0958643 0.00141092 -0.00149817)
(0.0993802 3.37921e-05 -5.90069e-05)
(0.0992677 0.000274468 -0.00120004)
(0.0989805 0.000432527 -0.00188843)
(0.0984748 0.000483718 -0.00200638)
(0.0979958 0.000479258 -0.00191455)
(0.0975713 0.000466206 -0.00173462)
(0.0971816 0.000454019 -0.0015471)
(0.0993801 -3.37577e-05 -5.89467e-05)
(0.0992678 -0.000274292 -0.00120001)
(0.0989806 -0.000432152 -0.00188842)
(0.098475 -0.000483052 -0.00200631)
(0.0979963 -0.000478094 -0.00191437)
(0.0975723 -0.000464129 -0.00173423)
(0.0995405 -0.000245036 -0.000321897)
(0.0992576 -0.00105558 -0.00154091)
(0.0988491 -0.00150228 -0.00211436)
(0.0981252 -0.00157931 -0.00209147)
(0.0973379 -0.00151452 -0.0018859)
(0.0965868 -0.00144576 -0.00166554)
(0.099413 -0.000345248 -0.000270224)
(0.0988664 -0.00201913 -0.00187483)
(0.0979216 -0.0025733 -0.0021888)
(0.0963662 -0.00238018 -0.00190806)
(0.0946341 -0.00211464 -0.00162618)
(0.0929736 -0.00192765 -0.00141788)
(0.0999088 -0.001297 -0.000712544)
(0.0969668 -0.00365598 -0.00274719)
(0.0935345 -0.00264036 -0.00211801)
(0.0895892 -0.0018207 -0.00162036)
(0.085832 -0.00152933 -0.00139023)
(0.0825899 -0.00135215 -0.00116051)
(0.0956456 0.00836004 0.00836005)
(0.0904939 -0.00152207 -0.00152198)
(0.0790682 -0.00242984 -0.00242967)
(0.0713011 -0.00148791 -0.00148756)
(0.0661793 -0.000830801 -0.000830116)
(0.0623224 -0.000564189 -0.000563072)
)
;

boundaryField
{
    inlet
    {
        type            fixedValue;
        value           uniform (0.1 0 0);
    }
    ami1
    {
        type            cyclicAMI;
        value           nonuniform List<vector> 0();
    }
    walls
    {
        type            noSlip;
    }
    ami2
    {
        type            cyclicAMI;
        value           nonuniform List<vector> 0();
    }
    outlet
    {
        type            zeroGradient;
    }
    procBoundary4to3
    {
        type            processor;
        value           nonuniform List<vector> 
109
(
(0.0566843 0.000325891 0.000321546)
(0.0775665 0.00104329 0.00069046)
(0.0898582 0.00170786 0.00115797)
(0.0952032 0.00137687 0.00137089)
(0.0968352 0.00043791 0.00138737)
(0.096832 -0.00044424 0.00138833)
(0.0951957 -0.00138016 0.00137189)
(0.0898507 -0.00170583 0.0011603)
(0.0775636 -0.00103919 0.000693216)
(0.0566843 -0.00032153 0.000325905)
(0.0775635 0.000693212 0.00103922)
(0.0931623 0.00107279 0.00106806)
(0.0991846 0.00166791 0.00157353)
(0.102279 0.00146066 0.00196319)
(0.10343 0.000547339 0.00204333)
(0.103427 -0.000552254 0.00204483)
(0.102273 -0.00146187 0.00196679)
(0.0991802 -0.00166486 0.00157786)
(0.0931624 -0.00106804 0.00107279)
(0.0775665 -0.000690453 0.00104331)
(0.0898507 0.0011603 0.00170587)
(0.0991802 0.00157786 0.00166489)
(0.102713 0.00187242 0.0018679)
(0.104391 0.0014933 0.0020511)
(0.105008 0.000558743 0.00207863)
(0.105007 -0.000561086 0.00208029)
(0.104388 -0.001492 0.00205536)
(0.102713 -0.00186788 0.00187241)
(0.0991846 -0.00157352 0.00166791)
(0.0898583 -0.00115796 0.00170787)
(0.0951957 0.00137189 0.00138021)
(0.102273 0.0019668 0.0014619)
(0.104388 0.00205537 0.00149203)
(0.105223 0.00152814 0.00152573)
(0.105516 0.000558233 0.00150807)
(0.105515 -0.000558029 0.00150929)
(0.105223 -0.0015257 0.00152812)
(0.104391 -0.00205107 0.00149329)
(0.102279 -0.00196317 0.00146065)
(0.0952032 -0.00137088 0.00137688)
(0.096832 0.00138834 0.000444291)
(0.103427 0.00204484 0.000552297)
(0.105006 0.00208031 0.000561126)
(0.105515 0.00150931 0.000558071)
(0.105677 0.00054639 0.000545877)
(0.105677 -0.000545829 0.000546367)
(0.105516 -0.00150803 0.000558215)
(0.105008 -0.0020786 0.00055873)
(0.10343 -0.00204331 0.000547328)
(0.0968352 -0.00138736 0.000437904)
(0.0968351 0.00138737 -0.000437857)
(0.10343 0.00204335 -0.000547293)
(0.105008 0.00207865 -0.000558702)
(0.105516 0.0015081 -0.00055819)
(0.105677 0.000545907 -0.000546342)
(0.105677 -0.000546314 -0.000545853)
(0.104618 -0.000582659 -0.00154904)
(0.105515 -0.00150924 -0.000558048)
(0.104446 -0.00160576 -0.00160426)
(0.105007 -0.00208026 -0.000561103)
(0.103893 -0.00218729 -0.0016345)
(0.103427 -0.0020448 -0.00055227)
(0.102251 -0.00211727 -0.001609)
(0.096832 -0.00138832 -0.000444253)
(0.0958643 -0.00149816 -0.00141089)
(0.0952032 0.00137091 -0.00137682)
(0.102279 0.00196322 -0.00146061)
(0.104391 0.00205113 -0.00149327)
(0.105223 0.00152577 -0.0015281)
(0.105515 0.000558106 -0.00150927)
(0.104618 -0.000582659 -0.00154904)
(0.104618 -0.000582659 -0.00154904)
(0.104446 -0.00160576 -0.00160426)
(0.103893 -0.00218729 -0.0016345)
(0.102251 -0.00211727 -0.001609)
(0.0958643 -0.00149816 -0.00141089)
(0.0898582 0.001158 -0.00170782)
(0.0991846 0.00157357 -0.00166788)
(0.102713 0.00186794 -0.00187239)
(0.104388 0.00149207 -0.00205534)
(0.105007 0.000561162 -0.00208028)
(0.104298 -0.000604169 -0.00215274)
(0.104298 -0.000604169 -0.00215274)
(0.103894 -0.00163528 -0.00218471)
(0.102645 -0.00209461 -0.00209182)
(0.0997069 -0.00182452 -0.00191603)
(0.0913623 -0.00127133 -0.00180169)
(0.0775665 0.00069049 -0.00104325)
(0.0931623 0.0010681 -0.00107277)
(0.0991802 0.00166493 -0.00157784)
(0.102273 0.00146193 -0.00196678)
(0.103427 0.000552325 -0.00204482)
(0.103125 -0.00059358 -0.00213338)
(0.103125 -0.00059358 -0.00213338)
(0.102254 -0.00160829 -0.00211492)
(0.0997095 -0.00191802 -0.0018221)
(0.094392 -0.00138394 -0.00138116)
(0.0798634 -0.000897722 -0.00117857)
(0.0566843 0.00032158 -0.000325864)
(0.0775636 0.00103925 -0.000693204)
(0.0898507 0.00170589 -0.00116029)
(0.0951957 0.00138022 -0.00137189)
(0.096832 0.000444294 -0.00138833)
(0.0971835 -0.000450291 -0.00154653)
(0.0971835 -0.000450291 -0.00154653)
(0.0958687 -0.00140888 -0.00149757)
(0.0913666 -0.0018029 -0.00126996)
(0.0798649 -0.00118093 -0.000896031)
(0.0592205 -0.000427449 -0.000424948)
)
;
    }
}


// ************************************************************************* //
