/*--------------------------------*- C++ -*----------------------------------*\
| =========                 |                                                 |
| \\      /  F ield         | OpenFOAM: The Open Source CFD Toolbox           |
|  \\    /   O peration     | Version:  2212                                  |
|   \\  /    A nd           | Website:  www.openfoam.com                      |
|    \\/     M anipulation  |                                                 |
\*---------------------------------------------------------------------------*/
FoamFile
{
    version     2.0;
    format      ascii;
    arch        "LSB;label=32;scalar=64";
    class       surfaceVectorField;
    location    "2.95";
    object      Uf;
}
// * * * * * * * * * * * * * * * * * * * * * * * * * * * * * * * * * * * * * //

dimensions      [0 1 -1 0 0 0 0];

internalField   nonuniform List<vector> 
1769
(
(0.0454363 0.000148116 1.66931e-05)
(0.0542105 0.000286308 0.000127593)
(0.0541564 0.000207084 0.000154384)
(0.0444749 0.00017963 -2.77463e-05)
(0.0531373 0.000297542 0.000100576)
(0.0530431 0.000219002 9.13771e-05)
(0.0436298 0.000239735 -0.000124693)
(0.05218 0.000337191 3.83962e-05)
(0.052005 0.000259351 -5.1824e-06)
(0.0429815 0.000330777 -0.000309315)
(0.0513916 0.000413942 -8.72223e-05)
(0.0510428 0.000325735 -0.000165047)
(0.042636 1.33796e-05 -0.00111773)
(0.051018 0.000614375 -0.000239253)
(0.0502684 0.000383409 -0.00049168)
(0.0493766 0.000287836 -0.0011205)
(0.0488461 -2.45709e-05 -0.0017981)
(0.0659945 0.000621192 0.000326385)
(0.0734384 0.000880629 0.000600234)
(0.0758594 0.000502718 0.000239622)
(0.0648867 0.000615141 0.000268472)
(0.0724163 0.000845446 0.000570185)
(0.0749696 0.000500149 0.000179859)
(0.0639312 0.000599182 0.000137519)
(0.0715086 0.000810079 0.000508887)
(0.0741656 0.000513337 7.89967e-05)
(0.0633085 0.000613915 -4.65876e-05)
(0.0707839 0.000721254 0.000357596)
(0.0734867 0.000522464 -0.000117756)
(0.0633983 0.000503224 -0.00037658)
(0.0704255 0.000561319 0.000148374)
(0.0730777 0.000508656 -0.000506686)
(0.0690112 -1.26424e-05 -0.000296545)
(0.0719061 -3.93271e-05 -0.00182722)
(0.0814912 0.00102536 0.000851712)
(0.0861903 0.000892577 0.000979191)
(0.0887511 0.000955216 0.00082799)
(0.0806898 0.000941213 0.000816189)
(0.0854827 0.00079441 0.000959949)
(0.088219 0.000896146 0.000789903)
(0.0800159 0.000826059 0.000741954)
(0.0848362 0.000666023 0.000919917)
(0.0877621 0.000829487 0.000720983)
(0.0795052 0.000650037 0.000613616)
(0.0842752 0.000478485 0.000842546)
(0.0874037 0.000737734 0.000596348)
(0.0792088 0.000202386 0.000382678)
(0.0838333 0.000218883 0.000732782)
(0.0871607 0.000596613 0.000409872)
(0.083249 -0.000300294 0.000596128)
(0.0868129 0.000156778 0.000127859)
(0.0907243 0.000725008 0.00112321)
(0.0928396 0.00051742 0.00115744)
(0.0963188 0.000721436 0.00117838)
(0.0901862 0.000601966 0.00110579)
(0.0923792 0.000428135 0.00116063)
(0.0960556 0.000626013 0.00115978)
(0.0896679 0.000435927 0.00107431)
(0.0919141 0.000312083 0.00115963)
(0.0958087 0.00051032 0.0011322)
(0.0891681 0.000199727 0.00102981)
(0.0914448 0.000152917 0.00115205)
(0.09558 0.000356249 0.00109129)
(0.0886865 -0.000123335 0.00102809)
(0.0909709 -6.90881e-05 0.00114376)
(0.0953706 0.000142943 0.00104699)
(0.0905095 -0.000327571 0.00121823)
(0.0952209 -0.000139591 0.00107091)
(0.0945997 0.000177747 0.00119353)
(0.0947374 -8.609e-05 0.00120172)
(0.0995208 0.000212727 0.0013125)
(0.0942178 9.59321e-05 0.0012141)
(0.0943418 -0.000135965 0.00123158)
(0.0994036 0.00014591 0.00132063)
(0.0938087 -1.78196e-05 0.0012378)
(0.0939095 -0.00021294 0.00127127)
(0.0992692 5.81425e-05 0.00133279)
(0.0933697 -0.000169828 0.00126736)
(0.0934383 -0.000330474 0.00131861)
(0.0991161 -6.0548e-05 0.00134849)
(0.0928785 -0.000365722 0.0013322)
(0.0928994 -0.000478486 0.00137421)
(0.0989368 -0.00021275 0.00137119)
(0.0922958 -0.000725513 0.00143203)
(0.0987932 -0.000397256 0.00143741)
(0.0944815 -0.000393892 0.00123977)
(0.0926775 -0.00065397 0.00120826)
(0.0994428 -0.000362365 0.00134579)
(0.094035 -0.000438361 0.00128875)
(0.0921197 -0.000653125 0.001247)
(0.0992805 -0.000382381 0.00137422)
(0.0935354 -0.000520867 0.00135208)
(0.0915094 -0.000681661 0.0013065)
(0.0990854 -0.000427843 0.00141741)
(0.0929767 -0.000644537 0.00142547)
(0.0908349 -0.000754942 0.00139294)
(0.0988544 -0.000509329 0.00147538)
(0.0923611 -0.000869818 0.00147404)
(0.0900436 -0.00086407 0.00149916)
(0.0985649 -0.00062055 0.00153498)
(0.0890945 -0.00117863 0.00151705)
(0.0982738 -0.000820567 0.00153777)
(0.091097 -0.00090633 0.00118438)
(0.086798 -0.000998736 0.00103098)
(0.0964786 -0.000849859 0.00123847)
(0.0904298 -0.000862509 0.00121184)
(0.0859501 -0.000930727 0.00104882)
(0.0961274 -0.000791964 0.00125161)
(0.0897147 -0.000842297 0.00126051)
(0.0850824 -0.000874789 0.00108445)
(0.0957516 -0.000749197 0.00128374)
(0.0889274 -0.000855794 0.00134174)
(0.084167 -0.000837084 0.00114856)
(0.0953349 -0.000725558 0.00134276)
(0.0880398 -0.000908308 0.00145887)
(0.083156 -0.00083151 0.00125973)
(0.0948655 -0.00073264 0.00143415)
(0.0870593 -0.00111528 0.0015346)
(0.081983 -0.00089108 0.00141484)
(0.0943107 -0.000764385 0.00154482)
(0.0806098 -0.00119811 0.00159458)
(0.0937391 -0.00093222 0.00152995)
(0.0821825 -0.00107454 0.00092564)
(0.0744291 -0.000874659 0.000653176)
(0.0892214 -0.00097908 0.000911092)
(0.0811588 -0.000996916 0.000951846)
(0.0732518 -0.000801837 0.000664196)
(0.0885507 -0.000897704 0.000923712)
(0.0801112 -0.000923866 0.00100216)
(0.0720945 -0.000717214 0.000690987)
(0.0878822 -0.000818324 0.00095726)
(0.0789933 -0.000857978 0.00109233)
(0.070933 -0.000616357 0.000742795)
(0.08719 -0.00073782 0.00102232)
(0.0777322 -0.000819921 0.0012294)
(0.069711 -0.000490781 0.000834165)
(0.0864256 -0.000655081 0.00113382)
(0.0762352 -0.000873627 0.00145193)
(0.0683725 -0.000330298 0.000950902)
(0.0855382 -0.000574878 0.00126951)
(0.0668807 -0.000244965 0.00141596)
(0.084696 -0.000543531 0.0014132)
(0.0670984 -0.000542899 0.00040197)
(0.0553445 -0.000204486 0.000203169)
(0.0767745 -0.00044649 0.000339809)
(0.0658146 -0.000457426 0.000412676)
(0.0541568 -0.000154355 0.000207041)
(0.0757846 -0.000384437 0.000345475)
(0.0645665 -0.00034 0.000439636)
(0.0530436 -9.13573e-05 0.000218961)
(0.0748392 -0.000293731 0.000371276)
(0.0633296 -0.000186438 0.000495389)
(0.0520058 5.23139e-06 0.000259297)
(0.0739233 -0.000172695 0.00042643)
(0.0620559 4.82113e-05 0.000570104)
(0.0510439 0.000165143 0.00032564)
(0.0730031 1.86911e-06 0.000520027)
(0.0607152 0.00041785 0.000875591)
(0.0502701 0.000491866 0.000383155)
(0.0720378 0.000331977 0.000580803)
(0.0488488 0.00179852 -2.49926e-05)
(0.0711714 0.000957463 0.000773481)
(0.0464993 -4.72333e-05 0.00013816)
(0.0553763 -0.000148159 0.000284783)
(0.0454367 -1.6676e-05 0.000148078)
(0.0542108 -0.000127571 0.000286288)
(0.0444754 2.77605e-05 0.000179602)
(0.0531378 -0.000100547 0.000297523)
(0.0436305 0.000124723 0.000239713)
(0.0521807 -3.83412e-05 0.000337175)
(0.0429824 0.000309352 0.000330726)
(0.0513926 8.7301e-05 0.000413943)
(0.0426377 0.00111789 1.31683e-05)
(0.0510194 0.000239366 0.000614325)
(0.0493787 0.00112083 0.000287577)
(0.065814 0.000412741 0.000457495)
(0.0757842 0.000345503 0.000384515)
(0.0732513 0.000664251 0.000801932)
(0.0645657 0.000439741 0.000340111)
(0.0748386 0.000371294 0.000293802)
(0.0720939 0.000691097 0.000717383)
(0.0633284 0.000495571 0.000186622)
(0.0739225 0.000426473 0.0001728)
(0.070932 0.000742988 0.000616626)
(0.0620542 0.000570472 -4.78996e-05)
(0.073002 0.000520152 -1.6955e-06)
(0.0697096 0.000834509 0.000491204)
(0.0607123 0.00087608 -0.000417397)
(0.0720362 0.000581146 -0.00033167)
(0.0683704 0.000951565 0.000330974)
(0.0711689 0.000774051 -0.000956916)
(0.0668772 0.00141664 0.000245795)
(0.0872405 0.000430594 0.000250282)
(0.0918095 0.00069483 0.000590172)
(0.0917439 0.00071778 0.000573386)
(0.08671 0.000450675 0.000143016)
(0.0914415 0.000680894 0.000513273)
(0.0913356 0.000730096 0.000481431)
(0.0862145 0.000500213 -1.80516e-05)
(0.0911139 0.000686175 0.000405114)
(0.0909444 0.000772669 0.000365205)
(0.0857196 0.000533884 -0.000312413)
(0.0908141 0.000714042 0.000239161)
(0.0905488 0.000851784 0.000204684)
(0.0851441 0.000419138 -0.000933172)
(0.0905111 0.000723804 -5.25815e-05)
(0.0901164 0.000904502 -5.57152e-05)
(0.0904656 0.000611292 -0.000590749)
(0.090036 0.000801069 -0.000483201)
(0.0966851 0.000837287 0.00085704)
(0.0994454 0.000748669 0.00108905)
(0.0997145 0.000975675 0.000963415)
(0.0965485 0.000798599 0.000779729)
(0.0993909 0.000684269 0.00103792)
(0.0996801 0.000945895 0.000888612)
(0.0964566 0.000764546 0.000666749)
(0.0993678 0.000617859 0.000970128)
(0.0996763 0.000931158 0.000794743)
(0.0964025 0.000724464 0.000501456)
(0.0993761 0.000542799 0.000874055)
(0.0997019 0.000929853 0.00067113)
(0.0963616 0.000625932 0.000289294)
(0.0993976 0.000438242 0.000743286)
(0.0997442 0.00092098 0.000503745)
(0.0995254 0.00024974 0.000612137)
(0.0999275 0.000838006 0.000330163)
(0.102396 0.000628145 0.0012963)
(0.103576 0.000457727 0.00141663)
(0.104478 0.000730012 0.00134283)
(0.102465 0.000540913 0.00125761)
(0.103688 0.000382964 0.00139379)
(0.104658 0.000663406 0.0012945)
(0.10255 0.000439934 0.00121127)
(0.103804 0.000294736 0.00137158)
(0.104851 0.000596063 0.00124378)
(0.102651 0.000313698 0.00115759)
(0.103926 0.000185484 0.00134804)
(0.10506 0.000521241 0.00118673)
(0.102763 0.000148382 0.00112117)
(0.104046 4.43432e-05 0.00132772)
(0.105282 0.000427123 0.00112543)
(0.104255 -0.000129093 0.00133888)
(0.105579 0.000299078 0.00109885)
(0.104919 0.000184556 0.001517)
(0.104805 -6.82711e-05 0.00154091)
(0.10661 0.000243327 0.00153331)
(0.105081 0.000112122 0.00151157)
(0.104953 -0.000105903 0.00154248)
(0.106895 0.000192379 0.00151342)
(0.105235 2.06463e-05 0.00151355)
(0.105088 -0.000161345 0.00155545)
(0.107174 0.000131204 0.0015021)
(0.10538 -9.59814e-05 0.00152535)
(0.105209 -0.000240813 0.00158428)
(0.107447 5.55357e-05 0.00150098)
(0.105508 -0.000232986 0.00155498)
(0.105317 -0.000346008 0.00162515)
(0.107719 -3.94195e-05 0.00151209)
(0.105533 -0.000455928 0.00165162)
(0.108064 -0.000143925 0.00154474)
(0.10484 -0.000352209 0.00156639)
(0.10347 -0.000542918 0.00148386)
(0.106564 -0.000336075 0.00157543)
(0.104961 -0.000371727 0.00158636)
(0.103521 -0.000521043 0.00150219)
(0.106824 -0.000336549 0.00157646)
(0.105064 -0.000414043 0.00162618)
(0.103554 -0.000515179 0.00154486)
(0.107068 -0.000352318 0.00159494)
(0.105143 -0.000480609 0.00168409)
(0.103564 -0.000531866 0.00161298)
(0.107299 -0.000385617 0.00163647)
(0.105188 -0.000559513 0.0017218)
(0.103552 -0.000564817 0.001697)
(0.107521 -0.000433831 0.00169273)
(0.103698 -0.000583838 0.00168935)
(0.107839 -0.000483174 0.00171798)
(0.102223 -0.000739897 0.00140895)
(0.0994396 -0.000798931 0.00120408)
(0.104241 -0.00080461 0.00145559)
(0.102206 -0.000681231 0.00142058)
(0.0993002 -0.000722546 0.00120077)
(0.104372 -0.000739566 0.00144178)
(0.102173 -0.000632981 0.00146099)
(0.0991611 -0.000650957 0.0012237)
(0.104495 -0.000683886 0.00145429)
(0.102116 -0.000600246 0.0015311)
(0.0990084 -0.00058252 0.00127994)
(0.104606 -0.000637025 0.00149805)
(0.10203 -0.000583842 0.00162451)
(0.0988306 -0.000518053 0.00137162)
(0.104705 -0.000601293 0.00156767)
(0.1019 -0.000565685 0.00166372)
(0.0986132 -0.000437411 0.00147225)
(0.104795 -0.000572136 0.00165281)
(0.0986613 -0.000330821 0.00144566)
(0.105034 -0.000531877 0.00165982)
(0.0967525 -0.00081085 0.00101853)
(0.0921839 -0.000648638 0.000728541)
(0.0997343 -0.000960102 0.00111077)
(0.0965023 -0.000724023 0.00102689)
(0.0917442 -0.000573233 0.000717701)
(0.0996402 -0.00087678 0.00109175)
(0.0962544 -0.000633253 0.00106558)
(0.0913359 -0.00048126 0.000730018)
(0.0995601 -0.000793021 0.00109903)
(0.0959921 -0.000530394 0.00114208)
(0.0909448 -0.000364975 0.000772551)
(0.099484 -0.000701524 0.00113888)
(0.095694 -0.000394738 0.00123867)
(0.0905493 -0.000204358 0.000851566)
(0.0994009 -0.000594685 0.00121551)
(0.0953217 -0.000207042 0.00126922)
(0.0901169 5.62255e-05 0.000904084)
(0.0992961 -0.000450186 0.001297)
(0.0900365 0.000483956 0.000800388)
(0.0994395 -0.000277135 0.00130306)
(0.087814 -0.000326411 0.000435026)
(0.0768185 -0.000270088 0.000520583)
(0.0922247 -0.000648536 0.000724674)
(0.0872409 -0.000250153 0.000430513)
(0.0758597 -0.000239519 0.000502632)
(0.0918098 -0.00058998 0.000694725)
(0.0867105 -0.000142907 0.000450621)
(0.0749701 -0.00017974 0.000500078)
(0.0914419 -0.000513115 0.000680833)
(0.0862151 1.81854e-05 0.000500132)
(0.0741663 -7.88437e-05 0.000513253)
(0.0911144 -0.000404922 0.000686094)
(0.0857203 0.000312596 0.000533741)
(0.0734876 0.00011798 0.000522354)
(0.0908146 -0.000238903 0.000713911)
(0.0851449 0.000933541 0.000418782)
(0.073079 0.000507047 0.000508473)
(0.0905116 5.29381e-05 0.000723591)
(0.0719076 0.00182769 -3.96219e-05)
(0.0904662 0.000591347 0.000610828)
(0.067203 -0.00035012 0.000637388)
(0.0745392 -0.000610909 0.000926765)
(0.0659951 -0.000326302 0.000621122)
(0.0734387 -0.000600174 0.000880609)
(0.0648874 -0.00026834 0.000615055)
(0.0724168 -0.000570064 0.000845406)
(0.0639322 -0.000137336 0.000599094)
(0.0715094 -0.000508698 0.000810015)
(0.0633098 4.68361e-05 0.000613822)
(0.0707849 -0.000357303 0.000721166)
(0.0634002 0.00037691 0.000503133)
(0.0704269 -0.000147948 0.000561198)
(0.069013 0.000297108 -1.27688e-05)
(0.0811582 0.000951942 0.000997106)
(0.0885503 0.000923728 0.000897832)
(0.0859496 0.00104891 0.000930947)
(0.0801104 0.00100234 0.000924154)
(0.0878817 0.000957343 0.000818522)
(0.0850819 0.0010846 0.000875094)
(0.0789922 0.00109266 0.000858419)
(0.0871894 0.0010225 0.000738118)
(0.0841662 0.00114881 0.000837515)
(0.0777306 0.00123 0.000820581)
(0.0864248 0.00113418 0.000655543)
(0.0831548 0.00126015 0.000832101)
(0.0762328 0.00145271 0.000874472)
(0.085537 0.00127023 0.000575596)
(0.0819814 0.00141556 0.000891891)
(0.0846943 0.00141414 0.000544445)
(0.0806072 0.00159548 0.00119922)
(0.0965021 0.00102695 0.000724175)
(0.09964 0.0010918 0.000876938)
(0.0993 0.00120081 0.000722704)
(0.0962541 0.0010657 0.000633472)
(0.0995599 0.00109912 0.000793225)
(0.0991608 0.00122382 0.000651174)
(0.0959918 0.00114231 0.000530716)
(0.0994838 0.00113902 0.000701789)
(0.0990082 0.00128013 0.000582812)
(0.0956937 0.00123914 0.000395247)
(0.0994007 0.00121575 0.000595063)
(0.0988304 0.00137194 0.000518468)
(0.0953215 0.00126994 0.000207777)
(0.0992961 0.00129744 0.000450747)
(0.098613 0.00147283 0.000438007)
(0.0994397 0.00130358 0.000277905)
(0.0986615 0.00144637 0.000331558)
(0.103053 0.0010863 0.00094173)
(0.104831 0.000938638 0.00113601)
(0.104803 0.0012389 0.000869351)
(0.103166 0.00108358 0.000855767)
(0.105036 0.000905686 0.00106494)
(0.104993 0.0012274 0.000798686)
(0.103292 0.00110574 0.000757657)
(0.105252 0.000889706 0.000989608)
(0.105191 0.00124203 0.000726914)
(0.103431 0.00114046 0.000638296)
(0.105482 0.000888133 0.000905314)
(0.105397 0.00127904 0.000647987)
(0.103569 0.00115081 0.000502362)
(0.10573 0.000883609 0.000804949)
(0.105614 0.00131934 0.000554299)
(0.106089 0.000837769 0.000711317)
(0.105959 0.00131693 0.00045598)
(0.106944 0.000763549 0.00127248)
(0.107648 0.000534476 0.00139132)
(0.107997 0.000874095 0.00111202)
(0.107261 0.000719007 0.00121334)
(0.108011 0.000491276 0.00134439)
(0.108389 0.000833511 0.00105516)
(0.107589 0.000680922 0.00115358)
(0.108375 0.000449467 0.00130303)
(0.108782 0.000802881 0.00100169)
(0.107932 0.000642444 0.0010908)
(0.108745 0.000406024 0.00126493)
(0.109181 0.000779579 0.000946331)
(0.108291 0.000590517 0.00103687)
(0.109129 0.000354241 0.00122785)
(0.109596 0.000754389 0.0008868)
(0.109572 0.000286459 0.00120676)
(0.110074 0.000711974 0.000840018)
(0.108743 0.000251563 0.00146627)
(0.108522 -2.68738e-05 0.00150295)
(0.10947 0.000307887 0.00125553)
(0.109155 0.000213209 0.00143775)
(0.10893 -4.11014e-05 0.00147881)
(0.10996 0.000280525 0.0012176)
(0.109564 0.000169681 0.00141895)
(0.109328 -6.21559e-05 0.00146838)
(0.11044 0.000251645 0.00118964)
(0.109973 0.000118038 0.00140771)
(0.109722 -9.09945e-05 0.0014715)
(0.110915 0.000219173 0.00116848)
(0.110389 5.81566e-05 0.00140477)
(0.110121 -0.000128553 0.00148163)
(0.111395 0.000180752 0.00114899)
(0.110578 -0.000169658 0.00148991)
(0.111922 0.000138456 0.00113578)
(0.108707 -0.000316341 0.00151549)
(0.107605 -0.000549423 0.00145844)
(0.109452 -0.000332612 0.0012861)
(0.109102 -0.000311907 0.00150944)
(0.107945 -0.000515028 0.00144766)
(0.109934 -0.000318755 0.00126294)
(0.109486 -0.000316832 0.00152093)
(0.108279 -0.000488356 0.00145868)
(0.110402 -0.000311408 0.00125455)
(0.109865 -0.000329003 0.00154542)
(0.10861 -0.000467174 0.00148905)
(0.110861 -0.000309527 0.00125962)
(0.110239 -0.000344198 0.00156677)
(0.108947 -0.000449095 0.00152631)
(0.111325 -0.000310761 0.00126992)
(0.109368 -0.000425513 0.00153839)
(0.111843 -0.000312515 0.00127017)
(0.106587 -0.00079792 0.00141118)
(0.104619 -0.000944433 0.00127369)
(0.107584 -0.000904251 0.00122077)
(0.106872 -0.000735142 0.00139227)
(0.104803 -0.000869146 0.00123881)
(0.107968 -0.000840471 0.00118235)
(0.107155 -0.000679568 0.00139838)
(0.104993 -0.000798454 0.00122729)
(0.108344 -0.00078473 0.00116215)
(0.107437 -0.000627459 0.00142796)
(0.105191 -0.00072664 0.0012419)
(0.108716 -0.00073471 0.00116079)
(0.107719 -0.000575473 0.00147069)
(0.105397 -0.000647647 0.00127888)
(0.109089 -0.000684976 0.00117539)
(0.107996 -0.000519668 0.00149858)
(0.105614 -0.000553888 0.00131916)
(0.109472 -0.000633753 0.00119499)
(0.105959 -0.000455496 0.00131679)
(0.109936 -0.000581886 0.00118809)
(0.102958 -0.00102244 0.00111322)
(0.0997807 -0.00103197 0.00102142)
(0.104637 -0.00120919 0.000988509)
(0.103053 -0.000941515 0.0010862)
(0.0997147 -0.00096317 0.000975554)
(0.104831 -0.0011358 0.000938562)
(0.103166 -0.000855516 0.00108347)
(0.0996804 -0.000888362 0.000945796)
(0.105036 -0.0010647 0.000905616)
(0.103292 -0.00075734 0.00110561)
(0.0996765 -0.00079444 0.00093105)
(0.105252 -0.000989316 0.00088964)
(0.103431 -0.000637876 0.00114028)
(0.0997021 -0.000670737 0.000929716)
(0.105482 -0.000904945 0.00088806)
(0.103568 -0.000501776 0.0011506)
(0.0997442 -0.000503225 0.000920789)
(0.10573 -0.000804489 0.000883523)
(0.0999273 -0.000329422 0.000837763)
(0.106089 -0.000710731 0.000837746)
(0.0968661 -0.000915978 0.000883787)
(0.089342 -0.000853858 0.00101744)
(0.0995314 -0.00113604 0.000817155)
(0.0966853 -0.000856802 0.000837174)
(0.0887514 -0.000827823 0.000955148)
(0.0994456 -0.00108881 0.000748569)
(0.0965488 -0.000779477 0.000798508)
(0.0882193 -0.000789681 0.000896084)
(0.0993912 -0.00103768 0.000684207)
(0.0964568 -0.000666427 0.000764441)
(0.0877626 -0.000720671 0.000829412)
(0.0993681 -0.000969815 0.000617804)
(0.0964027 -0.000501024 0.000724318)
(0.0874043 -0.000595898 0.000737638)
(0.0993764 -0.000873619 0.000542729)
(0.0963618 -0.000288723 0.000625722)
(0.0871614 -0.000409241 0.00059649)
(0.0993978 -0.000742714 0.00043813)
(0.0868136 -0.000127251 0.000156703)
(0.0995256 -0.000611638 0.000249585)
(0.0823781 -0.000869545 0.00110061)
(0.0869424 -0.000990107 0.000980455)
(0.0814916 -0.000851599 0.00102534)
(0.0861906 -0.000979107 0.000892612)
(0.0806903 -0.000816 0.00094119)
(0.0854832 -0.000959794 0.000794441)
(0.0800166 -0.000741653 0.000826028)
(0.0848369 -0.000919653 0.000666049)
(0.0795062 -0.000613154 0.000650009)
(0.0842761 -0.000842118 0.000478529)
(0.0792101 -0.000382047 0.00020239)
(0.0838344 -0.000732144 0.000218983)
(0.0832504 -0.000595307 -0.000299976)
(0.0904293 0.00121198 0.000862818)
(0.0961271 0.00125168 0.000792175)
(0.0926772 0.00120836 0.000654243)
(0.0897141 0.00126072 0.000842716)
(0.0957513 0.00128388 0.000749495)
(0.0921193 0.00124714 0.000653483)
(0.0889266 0.00134207 0.000856339)
(0.0953345 0.00134299 0.000725957)
(0.0915089 0.0013067 0.00068213)
(0.0880387 0.0014594 0.000909006)
(0.094865 0.00143452 0.000733155)
(0.0908343 0.00139323 0.000755556)
(0.0870578 0.00153542 0.00111627)
(0.0943101 0.00154543 0.000765048)
(0.0900427 0.00149961 0.000864868)
(0.0937383 0.00153084 0.000933149)
(0.0890932 0.00151763 0.00117967)
(0.102206 0.00142067 0.000681426)
(0.104372 0.00144184 0.000739736)
(0.103469 0.00148392 0.000543099)
(0.102173 0.00146117 0.000633252)
(0.104495 0.00145443 0.000684113)
(0.103521 0.00150232 0.00052129)
(0.102115 0.00153138 0.000600604)
(0.104606 0.00149825 0.000637311)
(0.103553 0.00154506 0.000515492)
(0.10203 0.00162493 0.000584303)
(0.104705 0.00156793 0.00060165)
(0.103563 0.00161325 0.000532253)
(0.1019 0.00166427 0.000566235)
(0.104795 0.00165317 0.000572561)
(0.103552 0.00169741 0.000565272)
(0.105034 0.00166014 0.000532317)
(0.103698 0.00168975 0.000584258)
(0.106872 0.00139237 0.000735344)
(0.107968 0.00118242 0.000840664)
(0.107604 0.00145853 0.000549601)
(0.107154 0.00139851 0.000679807)
(0.108344 0.00116224 0.000784959)
(0.107945 0.00144778 0.000515239)
(0.107437 0.00142812 0.000627739)
(0.108716 0.00116089 0.000734978)
(0.108279 0.00145883 0.000488598)
(0.107719 0.00147086 0.000575785)
(0.10909 0.00117548 0.000685283)
(0.10861 0.00148923 0.000467439)
(0.107996 0.00149869 0.000519973)
(0.109472 0.00119506 0.000634081)
(0.108947 0.00152649 0.000449357)
(0.109936 0.00118801 0.000582177)
(0.109368 0.00153846 0.000425694)
(0.109516 0.000950316 0.000895697)
(0.109858 0.000661199 0.000973075)
(0.109855 0.00100584 0.000637997)
(0.109988 0.00092426 0.000845899)
(0.11038 0.000635922 0.000926134)
(0.110376 0.000974335 0.000602303)
(0.110457 0.000909181 0.000798616)
(0.110891 0.000616749 0.000886422)
(0.110886 0.000954662 0.00057093)
(0.110927 0.000900233 0.000749846)
(0.111398 0.000601602 0.000849127)
(0.111391 0.00094456 0.000540471)
(0.111401 0.00088603 0.000702978)
(0.111912 0.000585138 0.000811128)
(0.111904 0.000936808 0.000509185)
(0.112477 0.000560957 0.000778383)
(0.112468 0.000920412 0.00048116)
(0.110739 0.00033944 0.0010051)
(0.110452 1.02329e-06 0.00103603)
(0.110887 0.000362849 0.000702978)
(0.111302 0.000322136 0.000968466)
(0.11102 1.14508e-06 0.000999946)
(0.111496 0.000346829 0.000673621)
(0.111853 0.000305043 0.00093907)
(0.111574 3.519e-07 0.000974268)
(0.112087 0.000332538 0.000649723)
(0.112397 0.000286773 0.000913026)
(0.112118 -1.64918e-06 0.000955833)
(0.112665 0.000318288 0.00062882)
(0.112935 0.000267177 0.000889725)
(0.112666 -4.50274e-06 0.000939287)
(0.113243 0.000301241 0.000607068)
(0.113258 -7.5557e-06 0.000922646)
(0.113867 0.000287828 0.000591021)
(0.110732 -0.000335789 0.00103088)
(0.109855 -0.000637798 0.00100576)
(0.110883 -0.000357654 0.000716656)
(0.111292 -0.000318704 0.00100575)
(0.110376 -0.000602066 0.000974249)
(0.111492 -0.000339785 0.000693677)
(0.111841 -0.000304048 0.00099103)
(0.110886 -0.000570656 0.000954573)
(0.112081 -0.000324469 0.000677632)
(0.112381 -0.000290574 0.000982094)
(0.111391 -0.000540161 0.000944477)
(0.112658 -0.000310454 0.000665851)
(0.112917 -0.00027766 0.000972208)
(0.111904 -0.000508854 0.000936759)
(0.113234 -0.000295083 0.000652662)
(0.112467 -0.000480845 0.000920471)
(0.113857 -0.000284623 0.000639705)
(0.109035 -0.000951901 0.000988694)
(0.107603 -0.00117567 0.000926301)
(0.109321 -0.00102891 0.000693792)
(0.109516 -0.000895475 0.000950245)
(0.107997 -0.00111181 0.000874021)
(0.109858 -0.00097287 0.000661132)
(0.109988 -0.000845638 0.000924192)
(0.108389 -0.00105491 0.000833442)
(0.11038 -0.000925891 0.000635861)
(0.110457 -0.000798318 0.000909124)
(0.108782 -0.0010014 0.000802821)
(0.110891 -0.000886143 0.0006167)
(0.110927 -0.00074952 0.000900212)
(0.109181 -0.000945981 0.000779529)
(0.111398 -0.000848818 0.000601583)
(0.1114 -0.000702661 0.000886118)
(0.109596 -0.000886409 0.000754362)
(0.111912 -0.000810804 0.000585194)
(0.110074 -0.000839623 0.00071205)
(0.112477 -0.000778102 0.000561178)
(0.106634 -0.00133482 0.000817328)
(0.104309 -0.00139406 0.000800491)
(0.107284 -0.00144745 0.00058155)
(0.106944 -0.00127224 0.000763476)
(0.104478 -0.0013426 0.000729924)
(0.107648 -0.0013911 0.000534398)
(0.107261 -0.00121305 0.000718944)
(0.104658 -0.00129423 0.000663335)
(0.108011 -0.00134413 0.000491205)
(0.107589 -0.00115323 0.000680868)
(0.104852 -0.00124344 0.000596002)
(0.108375 -0.00130272 0.000449409)
(0.107932 -0.00109038 0.000642389)
(0.10506 -0.00118627 0.000521176)
(0.108745 -0.00126456 0.000405976)
(0.108291 -0.0010364 0.000590482)
(0.105282 -0.00112488 0.000427031)
(0.109129 -0.00122745 0.0003542)
(0.105579 -0.00109846 0.00029898)
(0.109572 -0.00120649 0.000286486)
(0.102345 -0.00133322 0.000709959)
(0.096598 -0.00119487 0.000809735)
(0.103471 -0.00144454 0.000525566)
(0.102396 -0.00129606 0.000628062)
(0.0963191 -0.00117822 0.000721407)
(0.103577 -0.00141642 0.000457636)
(0.102465 -0.0012573 0.000540846)
(0.096056 -0.00115954 0.000625999)
(0.103688 -0.00139352 0.000382884)
(0.10255 -0.00121083 0.000439864)
(0.0958092 -0.00113183 0.000510312)
(0.103804 -0.00137118 0.000294659)
(0.102651 -0.00115699 0.000313597)
(0.0955806 -0.00109072 0.000356263)
(0.103926 -0.00134746 0.000185394)
(0.102763 -0.00112065 0.000148227)
(0.0953714 -0.00104618 0.000143009)
(0.104047 -0.00132706 4.417e-05)
(0.0952218 -0.00107005 -0.000139312)
(0.104255 -0.00133944 -0.000129367)
(0.0912788 -0.00113246 0.00082719)
(0.0932952 -0.00115484 0.000594546)
(0.0907248 -0.00112307 0.000725045)
(0.09284 -0.00115734 0.000517432)
(0.0901868 -0.00110555 0.000602014)
(0.0923797 -0.00116045 0.000428157)
(0.0896687 -0.00107391 0.00043601)
(0.0919149 -0.00115929 0.000312108)
(0.0891692 -0.0010292 0.000199919)
(0.091446 -0.00115146 0.000152998)
(0.088688 -0.00102727 -0.000122823)
(0.0909727 -0.00114288 -6.89014e-05)
(0.0905115 -0.00121736 -0.000327089)
(0.0944813 0.00123987 0.000394201)
(0.0994426 0.00134587 0.000362604)
(0.0947373 0.00120177 8.63463e-05)
(0.0940347 0.00128887 0.000438757)
(0.0992803 0.00137433 0.000382686)
(0.0943416 0.00123164 0.000136295)
(0.093535 0.00135223 0.00052138)
(0.0990851 0.00141756 0.000428222)
(0.0939093 0.00127133 0.000213363)
(0.0929762 0.00142567 0.000645206)
(0.0988541 0.00147557 0.000509807)
(0.0934381 0.00131868 0.000331026)
(0.0923606 0.00147424 0.000870623)
(0.0985646 0.00153524 0.000621129)
(0.0928991 0.00137427 0.000479189)
(0.0982736 0.00153798 0.000821159)
(0.0922958 0.001432 0.00072637)
(0.104839 0.00156649 0.000352441)
(0.106564 0.00157552 0.000336269)
(0.104805 0.00154099 6.84793e-05)
(0.104961 0.00158651 0.000372009)
(0.106823 0.00157659 0.000336781)
(0.104952 0.00154259 0.000106157)
(0.105064 0.00162638 0.000414377)
(0.107068 0.00159511 0.00035259)
(0.105088 0.00155559 0.000161647)
(0.105143 0.00168435 0.000480981)
(0.107299 0.00163668 0.000385919)
(0.105209 0.00158446 0.00024116)
(0.105188 0.00172205 0.000559852)
(0.107521 0.00169298 0.000434129)
(0.105316 0.00162539 0.000346372)
(0.107839 0.00171813 0.000483372)
(0.105532 0.00165191 0.000456185)
(0.108707 0.0015156 0.000316534)
(0.109452 0.0012862 0.000332801)
(0.108522 0.00150306 2.70541e-05)
(0.109102 0.00150958 0.000312126)
(0.109934 0.00126306 0.000318975)
(0.10893 0.00147894 4.13094e-05)
(0.109486 0.0015211 0.000317066)
(0.110402 0.00125469 0.000311658)
(0.109328 0.00146854 6.23899e-05)
(0.109865 0.00154561 0.000329223)
(0.110861 0.00125978 0.000309794)
(0.109722 0.0014717 9.12416e-05)
(0.110239 0.00156691 0.000344348)
(0.111325 0.00127008 0.000311023)
(0.110121 0.00148185 0.000128784)
(0.111843 0.00127024 0.000312723)
(0.110578 0.00149015 0.000169809)
(0.110732 0.00103097 0.000336005)
(0.110883 0.000716743 0.000357862)
(0.110452 0.00103614 -8.33008e-07)
(0.111292 0.00100586 0.000318955)
(0.111492 0.000693767 0.000340031)
(0.11102 0.00100007 -9.14312e-07)
(0.111841 0.000991145 0.000304332)
(0.112081 0.000677721 0.000324755)
(0.111574 0.000974408 -8.51696e-08)
(0.112381 0.000982205 0.000290885)
(0.112658 0.000665929 0.000310778)
(0.112118 0.000955986 1.95775e-06)
(0.112917 0.000972288 0.000277985)
(0.113234 0.000652711 0.000295442)
(0.112667 0.000939439 4.83344e-06)
(0.113857 0.000639685 0.00028501)
(0.113258 0.000922755 7.91197e-06)
(0.111654 0.000370636 0.000362228)
(0.111329 3.35838e-06 0.000374239)
(0.111329 0.000374335 -3.14111e-06)
(0.112294 0.000357689 0.000346193)
(0.11198 4.74517e-06 0.000358546)
(0.11198 0.000358647 -4.48642e-06)
(0.112915 0.000346322 0.000331583)
(0.112608 6.31402e-06 0.000345263)
(0.112608 0.000345364 -6.00996e-06)
(0.11352 0.000333373 0.000315724)
(0.11322 7.92067e-06 0.000332585)
(0.11322 0.000332677 -7.56958e-06)
(0.114109 0.000322643 0.000302921)
(0.113826 9.27154e-06 0.000316485)
(0.113826 0.000316557 -8.87129e-06)
(0.114482 1.02872e-05 0.000309114)
(0.114482 0.000309115 -9.81538e-06)
(0.111654 -0.00036199 0.000370557)
(0.110887 -0.000702767 0.000362777)
(0.111329 -0.000374009 3.28007e-06)
(0.112294 -0.000345912 0.000357616)
(0.111496 -0.000673369 0.000346764)
(0.11198 -0.000358268 4.67039e-06)
(0.112915 -0.000331256 0.000346265)
(0.112087 -0.000649431 0.000332488)
(0.112608 -0.000344929 6.25212e-06)
(0.11352 -0.00031535 0.000333346)
(0.112665 -0.00062849 0.000318273)
(0.11322 -0.00033219 7.88489e-06)
(0.114109 -0.000302498 0.000322678)
(0.113243 -0.000606704 0.000301295)
(0.113826 -0.000316031 9.27003e-06)
(0.113867 -0.000590643 0.000288015)
(0.114482 -0.000308573 1.03815e-05)
(0.110161 -0.00105131 0.000358154)
(0.108967 -0.00130601 0.000335492)
(0.109864 -0.00108394 4.09554e-07)
(0.11074 -0.00100488 0.000339382)
(0.10947 -0.00125533 0.000307814)
(0.110452 -0.00103583 9.62042e-07)
(0.111302 -0.000968205 0.000322094)
(0.10996 -0.00121735 0.00028046)
(0.11102 -0.000999699 1.09352e-06)
(0.111853 -0.00093878 0.000305035)
(0.11044 -0.00118935 0.000251602)
(0.111574 -0.00097398 3.30782e-07)
(0.112397 -0.000912719 0.000286838)
(0.110915 -0.00116816 0.000219169)
(0.112119 -0.00095551 -1.60443e-06)
(0.112935 -0.000889438 0.000267381)
(0.111395 -0.0011487 0.000180827)
(0.112667 -0.000938946 -4.34093e-06)
(0.111922 -0.00113572 0.000138716)
(0.113258 -0.000922343 -7.21605e-06)
(0.108325 -0.00150638 0.000287242)
(0.106319 -0.00156339 0.000287861)
(0.108104 -0.00154248 -1.75421e-05)
(0.108744 -0.00146603 0.000251484)
(0.10661 -0.0015331 0.00024324)
(0.108522 -0.00150276 -2.69594e-05)