/*--------------------------------*- C++ -*----------------------------------*\
| =========                 |                                                 |
| \\      /  F ield         | OpenFOAM: The Open Source CFD Toolbox           |
|  \\    /   O peration     | Version:  2212                                  |
|   \\  /    A nd           | Website:  www.openfoam.com                      |
|    \\/     M anipulation  |                                                 |
\*---------------------------------------------------------------------------*/
FoamFile
{
    version     2.0;
    format      ascii;
    arch        "LSB;label=32;scalar=64";
    class       volVectorField;
    location    "0.75";
    object      U;
}
// * * * * * * * * * * * * * * * * * * * * * * * * * * * * * * * * * * * * * //

dimensions      [0 1 -1 0 0 0 0];

internalField   nonuniform List<vector> 
680
(
(0.0566876 0.000322658 0.000324134)
(0.0545543 0.000250911 0.000253354)
(0.0527047 0.000199164 0.000203169)
(0.0510711 0.000160641 0.00016753)
(0.0496172 0.000130799 0.000142325)
(0.0483137 0.000105114 0.000122808)
(0.0471353 8.07161e-05 0.000106733)
(0.0775691 0.00103897 0.00069285)
(0.0755611 0.000940178 0.000561688)
(0.0737565 0.000861366 0.000481882)
(0.0721097 0.00078573 0.000436538)
(0.0705928 0.000707535 0.000411494)
(0.0691892 0.000630291 0.00039771)
(0.0678873 0.000557178 0.000393144)
(0.0898554 0.00170231 0.00116078)
(0.088457 0.00159967 0.00107111)
(0.0871619 0.00148585 0.00100032)
(0.0859631 0.00136976 0.000953756)
(0.0848464 0.0012565 0.000928859)
(0.0837939 0.00114287 0.000921393)
(0.0827948 0.00101981 0.000927109)
(0.095196 0.00137406 0.00137334)
(0.0945657 0.00132522 0.001288)
(0.0939177 0.0012486 0.0012353)
(0.0932844 0.00115016 0.00120152)
(0.0926622 0.00103978 0.001185)
(0.0920391 0.000923928 0.00118388)
(0.0914029 0.000800603 0.00119909)
(0.096827 0.000439979 0.00138982)
(0.0965235 0.000432219 0.00127231)
(0.096263 0.000421621 0.00120355)
(0.0959785 0.00039996 0.00117942)
(0.0956677 0.000368692 0.00118285)
(0.0953229 0.000331633 0.00120217)
(0.0949209 0.000292235 0.00124016)
(0.0968278 -0.000438493 0.00138949)
(0.096525 -0.000429554 0.00127166)
(0.0962656 -0.000416987 0.00120231)
(0.0959832 -0.000392036 0.00117726)
(0.095676 -0.000355393 0.00117923)
(0.0953377 -0.000309407 0.0011957)
(0.094948 -0.000253789 0.001227)
(0.0951978 -0.00137335 0.00137305)
(0.094569 -0.00132383 0.00128729)
(0.0939236 -0.00124635 0.00123352)
(0.0932948 -0.0011467 0.00119809)
(0.0926802 -0.00103469 0.00117829)
(0.0920702 -0.000915806 0.00117256)
(0.0898571 -0.00170293 0.00116001)
(0.0884601 -0.00160072 0.00106988)
(0.0871671 -0.00148761 0.000998265)
(0.0859721 -0.00137274 0.000950561)
(0.0848619 -0.00126144 0.000923268)
(0.0838198 -0.00115072 0.000911685)
(0.0775695 -0.00103966 0.00069198)
(0.075562 -0.000941407 0.000560205)
(0.0737582 -0.000863621 0.000479336)
(0.072113 -0.000789798 0.000431497)
(0.0705994 -0.000714413 0.000402574)
(0.0692009 -0.000641291 0.000386397)
(0.0566876 -0.000324128 0.000322661)
(0.0545543 -0.000253346 0.000250916)
(0.0527047 -0.000203158 0.000199172)
(0.0510711 -0.000167517 0.000160654)
(0.0496172 -0.000142307 0.000130818)
(0.0483138 -0.000122782 0.000105137)
(0.0775695 0.000691981 0.00103966)
(0.075562 0.000560205 0.000941411)
(0.0737582 0.000479333 0.00086363)
(0.0721129 0.00043149 0.000789815)
(0.0705994 0.000402562 0.00071444)
(0.0692008 0.000386379 0.00064133)
(0.0679053 0.000381202 0.000575781)
(0.0931672 0.00106928 0.00107055)
(0.0920824 0.000852408 0.000854625)
(0.0911242 0.000698994 0.000702908)
(0.0902782 0.000584593 0.000591856)
(0.0895226 0.000496571 0.000508429)
(0.0888386 0.000429421 0.000446231)
(0.0882301 0.000374651 0.000398669)
(0.0991853 0.00166285 0.00157713)
(0.0986918 0.00145778 0.00139259)
(0.0982461 0.00128768 0.00125478)
(0.097856 0.00114494 0.00115495)
(0.0975182 0.00102241 0.00108613)
(0.0972302 0.000911583 0.00103984)
(0.0969917 0.000801562 0.00100734)
(0.102276 0.00145742 0.00196757)
(0.102277 0.00130029 0.00180688)
(0.102268 0.00114895 0.0016605)
(0.10226 0.0010155 0.00155705)
(0.102256 0.0008985 0.00148902)
(0.102256 0.000787957 0.00144903)
(0.10226 0.000675786 0.00143478)
(0.103425 0.000548657 0.00204735)
(0.103676 0.000502926 0.00194026)
(0.103891 0.000459637 0.0018383)
(0.104082 0.000414919 0.00174584)
(0.104261 0.000369885 0.00167003)
(0.104423 0.000326999 0.00162992)
(0.10456 0.000284449 0.00162894)
(0.103426 -0.000547433 0.00204682)
(0.103677 -0.000500732 0.00193947)
(0.103893 -0.000455599 0.00183698)
(0.104085 -0.000407755 0.00174364)
(0.104266 -0.000357572 0.00166605)
(0.104434 -0.000307315 0.00162267)
(0.104579 -0.000253093 0.00161703)
(0.102277 -0.00145723 0.00196642)
(0.10228 -0.0013 0.00180515)
(0.102273 -0.00114818 0.00165774)
(0.102266 -0.00101419 0.00155219)
(0.102268 -0.000896305 0.00148068)
(0.102278 -0.000786064 0.00143493)
(0.0991864 -0.00166369 0.00157584)
(0.0986936 -0.00145927 0.00139035)
(0.0982495 -0.00129039 0.00125103)
(0.0978619 -0.00114945 0.0011486)
(0.0975283 -0.00103034 0.00107576)
(0.0972462 -0.000925614 0.00102322)
(0.0931672 -0.00107054 0.00106928)
(0.0920825 -0.000854613 0.000852407)
(0.0911243 -0.000702891 0.000698994)
(0.0902782 -0.000591832 0.000584595)
(0.0895227 -0.000508393 0.000496573)
(0.0888387 -0.000446167 0.000429409)
(0.0775691 -0.000692846 0.00103897)
(0.0755611 -0.000561682 0.000940172)
(0.0737566 -0.000481876 0.000861361)
(0.0721097 -0.00043653 0.000785726)
(0.0705929 -0.000411483 0.000707531)
(0.0691894 -0.000397693 0.000630285)
(0.0898571 0.00116001 0.00170293)
(0.08846 0.00106987 0.00160073)
(0.0871671 0.00099826 0.00148763)
(0.0859721 0.000950553 0.00137277)
(0.0848618 0.000923255 0.00126149)
(0.0838198 0.000911666 0.00115079)
(0.0828372 0.000910732 0.00103185)
(0.0991864 0.00157584 0.00166371)
(0.0986936 0.00139035 0.00145929)
(0.0982495 0.00125102 0.00129042)
(0.0978618 0.0011486 0.00114949)
(0.0975283 0.00107575 0.00103039)
(0.0972461 0.00102322 0.000925696)
(0.0970153 0.000981422 0.000825306)
(0.102717 0.00186794 0.00186935)
(0.102744 0.0016693 0.00167162)
(0.102761 0.0015019 0.00150571)
(0.102785 0.0013618 0.00136803)
(0.102827 0.00124398 0.00125405)
(0.102892 0.00114297 0.00115908)
(0.102985 0.00105193 0.00107739)
(0.104391 0.00148944 0.00205419)
(0.104819 0.00134165 0.00190765)
(0.105197 0.00120444 0.00177)
(0.105541 0.00108179 0.00165087)
(0.105863 0.000973373 0.00155215)
(0.106175 0.000874698 0.00147454)
(0.106482 0.00078041 0.00141696)
(0.105006 0.000558624 0.00208121)
(0.105641 0.000509198 0.00198389)
(0.106213 0.000460664 0.00187907)
(0.106734 0.000415639 0.00177932)
(0.107213 0.000374642 0.00169363)
(0.10766 0.000336746 0.00162928)
(0.108087 0.000299569 0.0015895)
(0.105007 -0.000558037 0.00208064)
(0.105642 -0.000508173 0.00198301)
(0.106215 -0.000458851 0.00187764)
(0.106736 -0.000412529 0.00177688)
(0.107217 -0.00036957 0.00168941)
(0.107665 -0.000329047 0.00162223)
(0.108095 -0.000288416 0.00157854)
(0.104391 -0.00148997 0.00205279)
(0.10482 -0.00134251 0.0019055)
(0.105199 -0.00120571 0.00176666)
(0.105544 -0.00108371 0.00164539)
(0.105869 -0.000976312 0.00154328)
(0.106184 -0.000879688 0.00145994)
(0.102717 -0.00186933 0.00186794)
(0.102745 -0.0016716 0.0016693)
(0.102761 -0.00150568 0.0015019)
(0.102785 -0.00136799 0.00136179)
(0.102827 -0.001254 0.00124398)
(0.102892 -0.001159 0.00114296)
(0.0991854 -0.00157712 0.00166285)
(0.0986918 -0.00139258 0.00145778)
(0.0982461 -0.00125477 0.00128768)
(0.097856 -0.00115492 0.00114493)
(0.0975183 -0.0010861 0.0010224)
(0.0972303 -0.0010398 0.000911559)
(0.0898554 -0.00116078 0.00170231)
(0.088457 -0.00107111 0.00159967)
(0.0871619 -0.00100031 0.00148585)
(0.0859632 -0.000953747 0.00136975)
(0.0848464 -0.000928848 0.00125649)
(0.083794 -0.000921382 0.00114286)
(0.0951978 0.00137305 0.00137337)
(0.094569 0.00128729 0.00132384)
(0.0939236 0.00123352 0.00124637)
(0.0932948 0.00119808 0.00114675)
(0.0926802 0.00117829 0.00103475)
(0.0920702 0.00117255 0.000915898)
(0.0914566 0.00118049 0.000787418)
(0.102277 0.00196642 0.00145725)
(0.10228 0.00180515 0.00130003)
(0.102273 0.00165774 0.00114822)
(0.102266 0.00155219 0.00101425)
(0.102268 0.00148068 0.00089638)
(0.102278 0.00143493 0.000786167)
(0.102295 0.00141107 0.000674614)
(0.104391 0.00205279 0.00148999)
(0.10482 0.0019055 0.00134254)
(0.105199 0.00176666 0.00120575)
(0.105544 0.00164539 0.00108376)
(0.105869 0.00154328 0.000976382)
(0.106184 0.00145995 0.00087978)
(0.106497 0.00139321 0.000788804)
(0.105224 0.00152523 0.0015261)
(0.105939 0.00142512 0.00142648)
(0.106595 0.00131936 0.00132146)
(0.107201 0.00121819 0.0012215)
(0.107765 0.00112631 0.00113155)
(0.108299 0.00104473 0.00105304)
(0.10881 0.000972544 0.000985598)
(0.105515 0.000557217 0.00150889)
(0.106366 0.000523351 0.00144565)
(0.107163 0.000485878 0.0013702)
(0.107905 0.00044896 0.00129136)
(0.108598 0.000414765 0.00121605)
(0.109248 0.000383872 0.00114935)
(0.109864 0.000355624 0.0010953)
(0.105515 -0.000557401 0.00150845)
(0.106366 -0.000523561 0.00144499)
(0.107163 -0.000486121 0.00136917)
(0.107906 -0.000449299 0.00128976)
(0.108599 -0.000415374 0.00121354)
(0.109249 -0.000385113 0.00114548)
(0.109865 -0.000357962 0.00108932)
(0.105224 -0.00152608 0.00152523)
(0.105939 -0.00142645 0.00142513)
(0.106595 -0.00132142 0.00131936)
(0.107201 -0.00122146 0.0012182)
(0.107765 -0.00113149 0.00112631)
(0.108299 -0.00105296 0.00104473)
(0.104391 -0.00205417 0.00148944)
(0.104819 -0.00190763 0.00134165)
(0.105197 -0.00176998 0.00120443)
(0.105541 -0.00165083 0.00108178)
(0.105864 -0.00155211 0.000973357)
(0.106175 -0.00147449 0.000874673)
(0.102276 -0.00196757 0.00145742)
(0.102277 -0.00180687 0.00130029)
(0.102268 -0.00166049 0.00114894)
(0.10226 -0.00155703 0.00101548)
(0.102256 -0.00148899 0.000898473)
(0.102256 -0.00144899 0.000787916)
(0.095196 -0.00137334 0.00137405)
(0.0945657 -0.00128799 0.00132521)
(0.0939177 -0.00123529 0.00124859)
(0.0932845 -0.0012015 0.00115014)
(0.0926622 -0.00118498 0.00103975)
(0.0920392 -0.00118385 0.000923886)
(0.0968279 0.00138949 0.0004385)
(0.096525 0.00127166 0.000429567)
(0.0962656 0.00120231 0.000417011)
(0.0959833 0.00117726 0.000392073)
(0.095676 0.00117923 0.000355449)
(0.0953378 0.0011957 0.000309489)
(0.0949481 0.001227 0.000253907)
(0.103426 0.00204681 0.000547454)
(0.103677 0.00193946 0.000500762)
(0.103893 0.00183697 0.000455641)
(0.104085 0.00174363 0.000407814)
(0.104266 0.00166604 0.000357653)
(0.104434 0.00162266 0.000307427)
(0.104579 0.00161701 0.000253244)
(0.105007 0.00208063 0.000558061)
(0.105642 0.00198299 0.000508206)
(0.106215 0.00187762 0.000458896)
(0.106736 0.00177686 0.000412588)
(0.107217 0.00168939 0.00036965)
(0.107665 0.00162221 0.000329153)
(0.108095 0.00157852 0.000288553)
(0.105515 0.00150844 0.000557422)
(0.106366 0.00144497 0.000523589)
(0.107163 0.00136915 0.000486159)
(0.107906 0.00128974 0.000449348)
(0.108599 0.00121353 0.000415438)
(0.109249 0.00114546 0.000385196)
(0.109865 0.0010893 0.000358066)
(0.105676 0.000545776 0.000546001)
(0.106626 0.000523424 0.00052374)
(0.107529 0.00049617 0.000496618)
(0.108381 0.000467384 0.000468034)
(0.109183 0.000439429 0.000440396)
(0.109938 0.00041385 0.000415318)
(0.110653 0.000391604 0.000393829)
(0.105676 -0.000545987 0.000545789)
(0.106626 -0.000523721 0.00052344)
(0.107529 -0.000496592 0.000496187)
(0.108381 -0.000468001 0.000467404)
(0.109183 -0.000440354 0.00043945)
(0.109938 -0.000415264 0.000413873)
(0.110653 -0.000393762 0.000391629)
(0.105515 -0.00150888 0.000557222)
(0.106366 -0.00144563 0.000523356)
(0.107163 -0.00137018 0.000485882)
(0.107905 -0.00129133 0.000448962)
(0.108598 -0.00121601 0.000414763)
(0.109248 -0.0011493 0.000383867)
(0.105006 -0.0020812 0.000558623)
(0.105641 -0.00198387 0.000509195)
(0.106213 -0.00187905 0.000460658)
(0.106734 -0.0017793 0.000415628)
(0.107213 -0.00169359 0.000374623)
(0.10766 -0.00162924 0.000336717)
(0.103425 -0.00204734 0.000548652)
(0.103676 -0.00194025 0.000502917)
(0.103891 -0.00183829 0.000459623)
(0.104082 -0.00174582 0.000414898)
(0.104261 -0.00167 0.000369852)
(0.104424 -0.00162988 0.00032695)
(0.096827 -0.00138982 0.000439972)
(0.0965235 -0.00127231 0.000432209)
(0.096263 -0.00120354 0.000421606)
(0.0959785 -0.00117941 0.000399938)
(0.0956677 -0.00118284 0.00036866)
(0.0953229 -0.00120215 0.000331587)
(0.096827 0.00138981 -0.000439973)
(0.0965235 0.00127231 -0.000432208)
(0.096263 0.00120354 -0.000421601)
(0.0959786 0.00117941 -0.000399929)
(0.0956677 0.00118284 -0.000368644)
(0.095323 0.00120215 -0.000331562)
(0.094921 0.00124013 -0.000292129)
(0.103425 0.00204734 -0.000548637)
(0.103676 0.00194025 -0.000502897)
(0.103891 0.00183828 -0.000459597)
(0.104082 0.00174582 -0.000414864)
(0.104261 0.00167 -0.000369809)
(0.104424 0.00162989 -0.000326894)
(0.10456 0.0016289 -0.000284305)
(0.105006 0.00208119 -0.000558601)
(0.105641 0.00198387 -0.000509166)
(0.106213 0.00187905 -0.000460621)
(0.106734 0.00177929 -0.000415581)
(0.107213 0.00169359 -0.000374565)
(0.10766 0.00162924 -0.000336643)
(0.108087 0.00158944 -0.000299433)
(0.105515 0.00150887 -0.000557197)
(0.106366 0.00144563 -0.000523323)
(0.107163 0.00137017 -0.000485842)
(0.107905 0.00129133 -0.000448912)
(0.108598 0.001216 -0.000414702)
(0.109248 0.0011493 -0.000383791)
(0.109864 0.00109524 -0.000355519)
(0.105676 0.000545978 -0.000545763)
(0.106626 0.000523713 -0.000523406)
(0.107529 0.000496585 -0.000496146)
(0.108381 0.000467995 -0.000467352)
(0.109183 0.00044035 -0.000439388)
(0.109938 0.000415263 -0.000413797)
(0.110653 0.000393764 -0.000391537)
(0.105676 -0.000545784 -0.000545974)
(0.106626 -0.000523432 -0.000523706)
(0.107529 -0.000496176 -0.000496575)
(0.108381 -0.000467389 -0.000467982)
(0.109183 -0.000439431 -0.000440333)
(0.109938 -0.000413848 -0.000415241)
(0.110653 -0.000391599 -0.000393736)
(0.105515 -0.00150845 -0.000557395)
(0.106366 -0.00144498 -0.000523556)
(0.107163 -0.00136916 -0.000486117)
(0.107906 -0.00128974 -0.000449296)
(0.108599 -0.00121353 -0.000415373)
(0.109249 -0.00114546 -0.000385116)
(0.105007 -0.00208064 -0.000558038)
(0.105642 -0.001983 -0.000508176)
(0.106215 -0.00187763 -0.000458857)
(0.106736 -0.00177686 -0.00041254)
(0.107217 -0.00168939 -0.000369588)
(0.107665 -0.00162221 -0.000329075)
(0.103426 -0.00204681 -0.000547438)
(0.103677 -0.00193946 -0.00050074)
(0.103893 -0.00183697 -0.000455612)
(0.104085 -0.00174362 -0.000407775)
(0.104266 -0.00166603 -0.000357602)
(0.104434 -0.00162265 -0.00030736)
(0.0968278 -0.00138949 -0.000438499)
(0.096525 -0.00127166 -0.000429564)
(0.0962656 -0.0012023 -0.000417003)
(0.0959832 -0.00117725 -0.000392059)
(0.095676 -0.00117923 -0.000355427)
(0.0953377 -0.00119569 -0.000309457)
(0.095196 0.00137333 -0.00137405)
(0.0945657 0.00128799 -0.00132521)
(0.0939177 0.00123529 -0.00124859)
(0.0932845 0.0012015 -0.00115013)
(0.0926623 0.00118499 -0.00103974)
(0.0920392 0.00118386 -0.000923869)
(0.091403 0.00119907 -0.00080052)
(0.102276 0.00196756 -0.00145741)
(0.102277 0.00180686 -0.00130027)
(0.102269 0.00166048 -0.00114892)
(0.10226 0.00155702 -0.00101546)
(0.102256 0.00148899 -0.000898442)
(0.102256 0.00144899 -0.000787877)
(0.102261 0.00143473 -0.000675677)
(0.104391 0.00205416 -0.00148942)
(0.104819 0.00190762 -0.00134162)
(0.105197 0.00176997 -0.0012044)
(0.105541 0.00165083 -0.00108174)
(0.105864 0.0015521 -0.000973311)
(0.106175 0.00147448 -0.000874614)
(0.106482 0.00141688 -0.000780299)
(0.105224 0.00152607 -0.00152521)
(0.105939 0.00142644 -0.0014251)
(0.106595 0.00132142 -0.00131933)
(0.107201 0.00122145 -0.00121816)
(0.107765 0.00113149 -0.00112626)
(0.108299 0.00105296 -0.00104467)
(0.10881 0.000985497 -0.000972455)
(0.105515 0.000557392 -0.00150843)
(0.106366 0.000523553 -0.00144496)
(0.107163 0.000486114 -0.00136913)
(0.107906 0.000449293 -0.00128971)
(0.108599 0.00041537 -0.00121349)
(0.109249 0.000385112 -0.00114542)
(0.109865 0.000357962 -0.00108924)
(0.104617 -0.000582013 -0.00154955)
(0.105515 -0.000557225 -0.00150887)
(0.106366 -0.000523358 -0.00144562)
(0.107163 -0.000485884 -0.00137016)
(0.107905 -0.000448963 -0.00129132)
(0.108598 -0.000414765 -0.00121599)
(0.109248 -0.000383868 -0.00114928)
(0.109864 -0.000355616 -0.00109522)
(0.104446 -0.00160391 -0.00160445)
(0.105224 -0.00152523 -0.00152608)
(0.105939 -0.00142513 -0.00142645)
(0.106595 -0.00131936 -0.00132142)
(0.107201 -0.0012182 -0.00122146)
(0.107765 -0.00112631 -0.00113149)
(0.108299 -0.00104473 -0.00105297)
(0.103895 -0.0021857 -0.00163321)
(0.104391 -0.00205279 -0.00148997)
(0.10482 -0.0019055 -0.00134252)
(0.105199 -0.00176666 -0.00120571)
(0.105544 -0.00164539 -0.00108371)
(0.105869 -0.00154328 -0.000976327)
(0.106184 -0.00145994 -0.00087971)
(0.102253 -0.00211702 -0.00160626)
(0.102277 -0.00196642 -0.00145723)
(0.10228 -0.00180515 -0.00130001)
(0.102273 -0.00165774 -0.00114819)
(0.102266 -0.00155218 -0.00101421)
(0.102268 -0.00148067 -0.000896331)
(0.102278 -0.00143492 -0.0007861)
(0.0958655 -0.00149889 -0.00140682)
(0.0951978 -0.00137305 -0.00137336)
(0.094569 -0.00128729 -0.00132384)
(0.0939236 -0.00123351 -0.00124636)
(0.0932948 -0.00119808 -0.00114672)
(0.0926802 -0.00117828 -0.00103472)
(0.0920702 -0.00117255 -0.000915856)
(0.0898554 0.00116077 -0.00170231)
(0.088457 0.0010711 -0.00159967)
(0.0871619 0.00100031 -0.00148585)
(0.0859632 0.000953745 -0.00136975)
(0.0848465 0.000928848 -0.00125648)
(0.083794 0.000921382 -0.00114285)
(0.082795 0.000927094 -0.00101977)
(0.0991854 0.00157712 -0.00166284)
(0.0986918 0.00139258 -0.00145777)
(0.0982461 0.00125476 -0.00128766)
(0.0978561 0.00115492 -0.00114491)
(0.0975183 0.0010861 -0.00102238)
(0.0972304 0.0010398 -0.000911532)
(0.0969918 0.00100728 -0.000801493)
(0.102717 0.00186933 -0.00186793)
(0.102745 0.00167159 -0.00166929)
(0.102761 0.00150567 -0.00150188)
(0.102785 0.00136798 -0.00136177)
(0.102827 0.00125399 -0.00124394)
(0.102892 0.001159 -0.00114292)
(0.102985 0.0010773 -0.00105186)
(0.104391 0.00148996 -0.00205278)
(0.10482 0.00134251 -0.00190548)
(0.105199 0.0012057 -0.00176664)
(0.105544 0.0010837 -0.00164537)
(0.105869 0.000976309 -0.00154325)
(0.106184 0.000879686 -0.0014599)
(0.106497 0.00078868 -0.00139315)
(0.105007 0.00055803 -0.00208063)
(0.105642 0.000508167 -0.00198298)
(0.106215 0.000458846 -0.00187761)
(0.106736 0.000412525 -0.00177685)
(0.107217 0.000369569 -0.00168937)
(0.107665 0.00032905 -0.00162218)
(0.108095 0.000288421 -0.00157848)
(0.104297 -0.00060413 -0.00215435)
(0.105006 -0.00055863 -0.00208119)
(0.105641 -0.000509204 -0.00198386)
(0.106213 -0.000460668 -0.00187904)
(0.106734 -0.00041564 -0.00177929)
(0.107213 -0.000374639 -0.00169359)
(0.10766 -0.000336738 -0.00162923)
(0.108087 -0.000299557 -0.00158943)
(0.103894 -0.00163288 -0.00218654)
(0.104391 -0.00148944 -0.00205417)
(0.104819 -0.00134165 -0.00190763)
(0.105197 -0.00120444 -0.00176998)
(0.105541 -0.00108179 -0.00165083)
(0.105864 -0.00097337 -0.00155211)
(0.106175 -0.00087469 -0.00147449)
(0.102647 -0.00209186 -0.00209274)
(0.102717 -0.00186794 -0.00186933)
(0.102744 -0.00166931 -0.0016716)
(0.102761 -0.0015019 -0.00150568)
(0.102785 -0.0013618 -0.00136799)
(0.102827 -0.00124398 -0.00125401)
(0.102892 -0.00114297 -0.00115902)
(0.0997105 -0.00182347 -0.00191548)
(0.0991864 -0.00157584 -0.0016637)
(0.0986936 -0.00139035 -0.00145927)
(0.0982495 -0.00125103 -0.0012904)
(0.0978618 -0.0011486 -0.00114946)
(0.0975283 -0.00107575 -0.00103035)
(0.0972461 -0.00102321 -0.000925639)
(0.091366 -0.00127122 -0.00179997)
(0.0898571 -0.00116001 -0.00170293)
(0.08846 -0.00106987 -0.00160072)
(0.0871671 -0.000998262 -0.00148762)
(0.0859721 -0.000950556 -0.00137276)
(0.0848618 -0.000923259 -0.00126147)
(0.0838198 -0.000911673 -0.00115076)
(0.0775691 0.000692838 -0.00103897)
(0.0755611 0.000561674 -0.000940172)
(0.0737566 0.000481868 -0.00086136)
(0.0721097 0.000436521 -0.000785723)
(0.0705929 0.000411474 -0.000707526)
(0.0691894 0.000397685 -0.000630282)
(0.0678875 0.000393123 -0.000557175)
(0.0931672 0.00107053 -0.00106927)
(0.0920825 0.000854604 -0.000852397)
(0.0911243 0.000702883 -0.00069898)
(0.0902782 0.000591824 -0.000584575)
(0.0895227 0.000508388 -0.00049655)
(0.0888387 0.000446179 -0.000429399)
(0.0882302 0.000398607 -0.000374625)
(0.0991864 0.00166369 -0.00157583)
(0.0986936 0.00145926 -0.00139034)
(0.0982495 0.00129039 -0.00125101)
(0.0978619 0.00114945 -0.00114858)
(0.0975284 0.00103034 -0.00107573)
(0.0972462 0.000925627 -0.00102319)
(0.0970155 0.000825208 -0.000981391)
(0.102277 0.00145722 -0.00196641)
(0.10228 0.0013 -0.00180514)
(0.102273 0.00114818 -0.00165773)
(0.102266 0.0010142 -0.00155217)
(0.102268 0.000896312 -0.00148066)
(0.102278 0.000786077 -0.00143491)
(0.102295 0.000674491 -0.00141104)
(0.103426 0.00054743 -0.00204681)
(0.103677 0.00050073 -0.00193945)
(0.103893 0.000455599 -0.00183696)
(0.104085 0.000407758 -0.00174362)
(0.104266 0.00035758 -0.00166603)
(0.104434 0.00030733 -0.00162264)
(0.104579 0.000253113 -0.00161699)
(0.103122 -0.000594405 -0.00213595)
(0.103425 -0.00054866 -0.00204734)
(0.103676 -0.000502927 -0.00194025)
(0.103891 -0.000459635 -0.00183828)
(0.104082 -0.000414914 -0.00174582)
(0.104261 -0.000369875 -0.00167)
(0.104424 -0.000326982 -0.00162988)
(0.10456 -0.000284425 -0.0016289)
(0.102252 -0.00160635 -0.00211778)
(0.102276 -0.00145743 -0.00196757)
(0.102277 -0.0013003 -0.00180687)
(0.102268 -0.00114895 -0.00166049)
(0.10226 -0.0010155 -0.00155703)
(0.102256 -0.000898492 -0.00148899)
(0.102256 -0.000787943 -0.001449)
(0.0997099 -0.00191491 -0.00182418)
(0.0991854 -0.00166285 -0.00157713)
(0.0986918 -0.00145778 -0.00139258)
(0.0982461 -0.00128769 -0.00125477)
(0.097856 -0.00114494 -0.00115493)
(0.0975183 -0.00102241 -0.00108611)
(0.0972303 -0.000911576 -0.00103981)
(0.0943947 -0.00138203 -0.00138277)
(0.0931672 -0.00106928 -0.00107054)
(0.0920825 -0.000852409 -0.000854614)
(0.0911243 -0.000698996 -0.000702894)
(0.0902782 -0.000584596 -0.000591837)
(0.0895227 -0.000496573 -0.0005084)
(0.0888386 -0.000429407 -0.000446178)
(0.0798668 -0.000896931 -0.00117885)
(0.0775695 -0.000691982 -0.00103966)
(0.075562 -0.000560207 -0.000941408)
(0.0737582 -0.000479336 -0.000863624)
(0.072113 -0.000431495 -0.000789805)
(0.0705994 -0.000402569 -0.000714424)
(0.0692009 -0.000386388 -0.000641309)
(0.0566876 0.000324129 -0.000322656)
(0.0545543 0.000253348 -0.000250908)
(0.0527048 0.000203162 -0.000199162)
(0.0510712 0.000167522 -0.000160639)
(0.0496172 0.000142314 -0.000130799)
(0.0483138 0.000122793 -0.000105117)
(0.0471354 0.000106713 -8.07222e-05)
(0.0775695 0.00103966 -0.000691975)
(0.075562 0.000941408 -0.000560197)
(0.0737582 0.000863622 -0.000479324)
(0.072113 0.000789799 -0.000431481)
(0.0705994 0.000714414 -0.000402552)
(0.0692009 0.000641294 -0.000386372)
(0.0679055 0.000575734 -0.000381194)
(0.0898571 0.00170293 -0.00116001)
(0.0884601 0.00160073 -0.00106987)
(0.0871671 0.00148762 -0.000998254)
(0.0859721 0.00137276 -0.000950547)
(0.0848619 0.00126146 -0.000923248)
(0.0838198 0.00115074 -0.00091166)
(0.0828374 0.00103179 -0.000910726)
(0.0951978 0.00137336 -0.00137305)
(0.094569 0.00132384 -0.00128729)
(0.0939237 0.00124636 -0.00123351)
(0.0932948 0.00114672 -0.00119808)
(0.0926802 0.00103471 -0.00117828)
(0.0920703 0.000915835 -0.00117254)
(0.0914567 0.000787328 -0.00118047)
(0.0968279 0.000438499 -0.00138949)
(0.096525 0.000429562 -0.00127165)
(0.0962656 0.000416999 -0.0012023)
(0.0959833 0.000392051 -0.00117725)
(0.095676 0.000355414 -0.00117922)
(0.0953378 0.000309435 -0.00119569)
(0.0949481 0.000253827 -0.00122699)
(0.0971788 -0.000451451 -0.00154801)
(0.096827 -0.000439973 -0.00138982)
(0.0965235 -0.000432212 -0.00127231)
(0.096263 -0.000421611 -0.00120354)
(0.0959786 -0.000399948 -0.00117941)
(0.0956677 -0.000368676 -0.00118284)
(0.0953229 -0.000331612 -0.00120215)
(0.094921 -0.000292202 -0.00124014)
(0.0958645 -0.00140722 -0.00149906)
(0.095196 -0.00137406 -0.00137334)
(0.0945657 -0.00132522 -0.00128799)
(0.0939177 -0.00124859 -0.00123529)
(0.0932845 -0.00115015 -0.00120151)
(0.0926622 -0.00103976 -0.00118499)
(0.0920392 -0.00092391 -0.00118386)
(0.091365 -0.00179959 -0.00127167)
(0.0898554 -0.00170231 -0.00116078)
(0.088457 -0.00159967 -0.00107111)
(0.0871619 -0.00148585 -0.00100031)
(0.0859631 -0.00136976 -0.000953748)
(0.0848464 -0.0012565 -0.000928849)
(0.083794 -0.00114287 -0.000921384)
(0.0798666 -0.00117844 -0.000897448)
(0.0775691 -0.00103897 -0.000692845)
(0.0755611 -0.000940172 -0.000561681)
(0.0737565 -0.000861361 -0.000481874)
(0.0721097 -0.000785727 -0.000436528)
(0.0705929 -0.000707532 -0.000411481)
(0.0691893 -0.000630288 -0.000397692)
(0.0592225 -0.000425582 -0.000426384)
(0.0566876 -0.000322656 -0.000324132)
(0.0545543 -0.000250911 -0.00025335)
(0.0527047 -0.000199166 -0.000203164)
(0.0510711 -0.000160645 -0.000167524)
(0.0496172 -0.000130807 -0.000142317)
(0.0483138 -0.000105124 -0.000122794)
)
;

boundaryField
{
    inlet
    {
        type            fixedValue;
        value           nonuniform List<vector> 0();
    }
    ami1
    {
        type            cyclicAMI;
        value           nonuniform List<vector> 0();
    }
    walls
    {
        type            noSlip;
    }
    ami2
    {
        type            cyclicAMI;
        value           nonuniform List<vector> 0();
    }
    outlet
    {
        type            zeroGradient;
    }
    procBoundary3to2
    {
        type            processor;
        value           nonuniform List<vector> 
110
(
(0.0460788 5.26386e-05 9.3247e-05)
(0.0666863 0.000474909 0.000397622)
(0.0818451 0.000875423 0.000943736)
(0.0907384 0.000658844 0.00123281)
(0.0944409 0.000254131 0.00130852)
(0.0944887 -0.000189667 0.00128362)
(0.0914567 -0.000787287 0.00118049)
(0.0914567 -0.000787287 0.00118049)
(0.0828373 -0.00103176 0.000910751)
(0.0679054 -0.000575724 0.000381218)
(0.0471354 -0.000106708 8.07522e-05)
(0.066714 0.000380941 0.000506062)
(0.0877061 0.000314691 0.000352742)
(0.0968028 0.000681923 0.00098747)
(0.102266 0.000550571 0.00144693)
(0.104673 0.000239241 0.00165815)
(0.1047 -0.000189432 0.00164021)
(0.102295 -0.000674485 0.00141108)
(0.102295 -0.000674485 0.00141108)
(0.0970154 -0.000825211 0.000981445)
(0.0882302 -0.000398625 0.000374666)
(0.0678875 -0.000393127 0.00055717)
(0.0819136 0.000916069 0.00089332)
(0.0968384 0.00094688 0.000719271)
(0.103108 0.000963051 0.00100266)
(0.106789 0.000687332 0.00137804)
(0.108497 0.000262292 0.00157543)
(0.108508 -0.000245251 0.00155857)
(0.106497 -0.000788689 0.00139321)
(0.106497 -0.000788689 0.00139321)
(0.102985 -0.00107731 0.00105192)
(0.0969918 -0.0010073 0.00080154)
(0.0827949 -0.000927087 0.00101978)
(0.0908303 0.00120035 0.000639904)
(0.102322 0.00140745 0.000547579)
(0.106811 0.00134028 0.000699562)
(0.109305 0.000908011 0.000928105)
(0.110455 0.000328278 0.00105792)
(0.110457 -0.000331776 0.00104859)
(0.10881 -0.000985507 0.000972534)
(0.10881 -0.000985507 0.000972534)
(0.106482 -0.00141689 0.000780376)
(0.102261 -0.00143474 0.000675734)
(0.091403 -0.00119906 0.000800539)
(0.0944888 0.00128362 0.000189834)
(0.1047 0.00164018 0.000189634)
(0.108508 0.00155854 0.000245429)
(0.110457 0.00104856 0.000331908)
(0.111336 0.000373301 0.000376567)
(0.111336 -0.000376484 0.000373327)
(0.109864 -0.00109524 0.000355613)
(0.109864 -0.00109524 0.000355613)
(0.108087 -0.00158945 0.000299526)
(0.10456 -0.00162891 0.000284381)
(0.094921 -0.00124013 0.000292166)
(0.094441 0.00130848 -0.000253982)
(0.104673 0.00165809 -0.000239047)
(0.108497 0.00157536 -0.000262113)
(0.110455 0.00105785 -0.000328143)
(0.111336 0.000376488 -0.000373217)
(0.111336 -0.000373292 -0.000376454)
(0.109865 -0.00108929 -0.000357969)
(0.109865 -0.00108929 -0.000357969)
(0.108095 -0.00157852 -0.000288456)
(0.104579 -0.00161701 -0.000253162)
(0.0949481 -0.00122699 -0.000253861)
(0.0907387 0.00123278 -0.000658732)
(0.102267 0.00144685 -0.000550422)
(0.106789 0.00137793 -0.000687182)
(0.109305 0.000927976 -0.000907894)
(0.110457 0.000331777 -0.00104849)
(0.110455 -0.000328264 -0.00105782)
(0.10881 -0.000972537 -0.000985511)
(0.10881 -0.000972537 -0.000985511)
(0.106497 -0.00139321 -0.00078872)
(0.102295 -0.00141107 -0.00067454)
(0.0914566 -0.00118047 -0.000787358)
(0.0818454 0.000943716 -0.000875366)
(0.096803 0.000987386 -0.000681829)
(0.103108 0.00100253 -0.000962955)
(0.106812 0.000699398 -0.0013402)
(0.108508 0.000245258 -0.0015585)
(0.108497 -0.000262273 -0.00157535)
(0.106482 -0.000780402 -0.00141689)
(0.106482 -0.000780402 -0.00141689)
(0.102985 -0.00105193 -0.00107733)
(0.0970154 -0.000981437 -0.000825249)
(0.0828373 -0.000910733 -0.00103181)
(0.0666865 0.0003976 -0.000474909)
(0.0877063 0.000352658 -0.00031466)
(0.0968386 0.000719135 -0.000946839)
(0.102322 0.000547413 -0.00140742)
(0.1047 0.00018946 -0.00164016)
(0.104673 -0.000239209 -0.00165809)
(0.102261 -0.000675772 -0.00143474)
(0.102261 -0.000675772 -0.00143474)
(0.0969917 -0.000801563 -0.0010073)
(0.0882302 -0.000374665 -0.000398637)
(0.0679054 -0.000381206 -0.000575748)
(0.046079 9.32199e-05 -5.26488e-05)
(0.0667142 0.000505993 -0.000380934)
(0.0819138 0.000893218 -0.000916061)
(0.0908304 0.000639783 -0.00120033)
(0.0944888 0.00018972 -0.0012836)
(0.094441 -0.000254083 -0.00130848)
(0.091403 -0.000800574 -0.00119907)
(0.091403 -0.000800574 -0.00119907)
(0.0827949 -0.0010198 -0.000927089)
(0.0678874 -0.000557174 -0.000393122)
(0.0471354 -8.07361e-05 -0.000106722)
)
;
    }
    procBoundary3to4
    {
        type            processor;
        value           nonuniform List<vector> 
109
(
(0.0592225 0.000425585 0.000426385)
(0.0798666 0.00117844 0.000897452)
(0.091365 0.0017996 0.00127167)
(0.0958645 0.00140722 0.00149906)
(0.0971788 0.000451455 0.00154801)
(0.0971792 -0.000450656 0.00154782)
(0.0958655 -0.00140682 0.00149889)
(0.091366 -0.00179997 0.00127121)
(0.0798668 -0.00117885 0.000896929)
(0.0592225 -0.000426382 0.000425585)
(0.0798668 0.000896931 0.00117885)
(0.0943947 0.00138203 0.00138277)
(0.0997099 0.00191491 0.00182418)
(0.102252 0.00160635 0.00211778)
(0.103122 0.000594401 0.00213596)
(0.103123 -0.000593689 0.00213562)
(0.102253 -0.00160626 0.00211702)
(0.0997105 -0.00191548 0.00182347)
(0.0943947 -0.00138277 0.00138203)
(0.0798666 -0.000897448 0.00117844)