/*--------------------------------*- C++ -*----------------------------------*\
| =========                 |                                                 |
| \\      /  F ield         | OpenFOAM: The Open Source CFD Toolbox           |
|  \\    /   O peration     | Version:  2212                                  |
|   \\  /    A nd           | Website:  www.openfoam.com                      |
|    \\/     M anipulation  |                                                 |
\*---------------------------------------------------------------------------*/
FoamFile
{
    version     2.0;
    format      ascii;
    arch        "LSB;label=32;scalar=64";
    class       surfaceScalarField;
    location    "0.9";
    object      phi;
}
// * * * * * * * * * * * * * * * * * * * * * * * * * * * * * * * * * * * * * //

dimensions      [0 3 -1 0 0 0 0];

oriented        oriented;

internalField   nonuniform List<scalar> 
1812
(
8.33264e-08
-3.24596e-08
3.64363e-08
8.06278e-08
-3.32151e-08
3.59138e-08
7.8575e-08
-3.36567e-08
3.57096e-08
7.6897e-08
-3.38793e-08
3.55574e-08
7.54654e-08
-3.39875e-08
3.54192e-08
7.42091e-08
-3.40362e-08
3.52927e-08
7.30793e-08
-3.40602e-08
3.51901e-08
-3.40702e-08
3.50976e-08
2.52791e-07
-6.05467e-08
3.61303e-08
2.47259e-07
-6.2216e-08
3.45331e-08
2.43003e-07
-6.30874e-08
3.36865e-08
2.39391e-07
-6.3521e-08
3.32533e-08
2.36151e-07
-6.37671e-08
3.30204e-08
2.33184e-07
-6.39125e-08
3.28433e-08
2.30433e-07
-6.39958e-08
3.26866e-08
-6.40566e-08
3.25375e-08
4.824e-07
-8.04402e-08
3.51293e-08
4.73204e-07
-8.40916e-08
3.27404e-08
4.66047e-07
-8.62619e-08
3.12031e-08
4.60306e-07
-8.75997e-08
3.02526e-08
4.55472e-07
-8.83685e-08
2.96815e-08
4.51174e-07
-8.88137e-08
2.93443e-08
4.47208e-07
-8.90823e-08
2.9136e-08
4.43465e-07
-8.92445e-08
2.89922e-08
-8.93317e-08
2.88574e-08
6.29964e-07
-1.0363e-07
1.47156e-08
6.4117e-07
-1e-07
1.92035e-08
6.4661e-07
-1.00589e-07
2.02301e-08
6.48544e-07
-1.02739e-07
2.03651e-08
6.48414e-07
-1.04604e-07
2.06416e-08
6.47066e-07
-1.05828e-07
2.09141e-08
6.44864e-07
-1.06572e-07
2.11742e-08
6.42102e-07
-1.07038e-07
2.14314e-08
6.3895e-07
-1.0732e-07
2.1658e-08
6.35489e-07
-1.07472e-07
2.185e-08
6.31775e-07
-1.07532e-07
2.20015e-08
-1.07541e-07
2.21091e-08
7.02795e-07
-1.19358e-07
-1.8895e-09
7.19467e-07
-1.18685e-07
2.01214e-09
7.32992e-07
-1.18761e-07
4.64613e-09
7.42981e-07
-1.19286e-07
6.5578e-09
7.49841e-07
-1.19566e-07
8.10205e-09
7.54111e-07
-1.19556e-07
9.45737e-09
7.56177e-07
-1.19352e-07
1.07135e-08
7.56528e-07
-1.19031e-07
1.16426e-08
7.55527e-07
-1.18704e-07
1.23849e-08
7.53469e-07
-1.18417e-07
1.30032e-08
7.50578e-07
-1.18131e-07
1.34897e-08
-1.17882e-07
1.38509e-08
7.41974e-07
-1.26639e-07
-8.09773e-09
7.57384e-07
-1.28231e-07
-5.86313e-09
7.70579e-07
-1.28241e-07
-3.71529e-09
7.80377e-07
-1.27301e-07
-1.78243e-09
7.8688e-07
-1.25962e-07
-1.07079e-10
7.90371e-07
-1.24496e-07
1.44938e-09
7.91447e-07
-1.23098e-07
2.67033e-09
7.9069e-07
-1.21905e-07
3.63039e-09
7.88552e-07
-1.20916e-07
4.35001e-09
7.85362e-07
-1.20116e-07
4.8899e-09
7.81408e-07
-1.19476e-07
5.29904e-09
-1.18972e-07
5.5629e-09
7.44471e-07
-1.27324e-07
-9.13067e-09
7.52791e-07
-1.30086e-07
-6.46379e-09
7.57697e-07
-1.28379e-07
-4.76868e-09
7.58948e-07
-1.24806e-07
-3.74569e-09
7.57309e-07
-1.21268e-07
-3.05508e-09
7.53581e-07
-1.182e-07
-2.56868e-09
7.48488e-07
-1.15732e-07
-2.27274e-09
7.42574e-07
-1.13829e-07
-2.16124e-09
7.36228e-07
-1.12393e-07
-2.17774e-09
7.29718e-07
-1.11364e-07
-2.2426e-09
7.23258e-07
-1.10661e-07
-2.35501e-09
-1.10158e-07
-2.49073e-09
6.95643e-07
-1.18689e-07
-6.55564e-09
6.88518e-07
-1.20548e-07
-2.41443e-09
6.77185e-07
-1.1469e-07
-2.35507e-09
6.63545e-07
-1.07685e-07
-3.48061e-09
6.4937e-07
-1.02474e-07
-4.6188e-09
6.35964e-07
-9.89209e-08
-5.87245e-09
6.23789e-07
-9.63844e-08
-7.17326e-09
6.12959e-07
-9.4646e-08
-8.3522e-09
6.03397e-07
-9.35142e-08
-9.31662e-09
5.94902e-07
-9.28058e-08
-1.00627e-08
5.87274e-07
-9.2379e-08
-1.06539e-08
-1.11414e-08
5.65553e-07
-9.89959e-08
4.15957e-10
5.36129e-07
-9.39319e-08
2.80831e-09
5.06988e-07
-8.38327e-08
-1.71626e-09
4.82034e-07
-7.60856e-08
-6.64379e-09
4.62019e-07
-7.17663e-08
-1.06932e-08
4.46449e-07
-6.95998e-08
-1.37503e-08
4.34489e-07
-6.84193e-08
-1.60047e-08
4.2513e-07
-6.77056e-08
-1.7582e-08
4.17516e-07
-6.72567e-08
-1.86428e-08
4.11049e-07
-6.69723e-08
-1.93662e-08
-6.67975e-08
-1.98914e-08
3.54668e-07
-6.04748e-08
4.13802e-09
3.10432e-07
-4.88696e-08
-8.26113e-10
2.79024e-07
-4.14716e-08
-1.09533e-08
2.59724e-07
-3.79543e-08
-1.88313e-08
2.47606e-07
-3.64367e-08
-2.32104e-08
2.39332e-07
-3.59153e-08
-2.54104e-08
2.33216e-07
-3.57114e-08
-2.65924e-08
2.28367e-07
-3.55584e-08
-2.72977e-08
2.2431e-07
-3.54188e-08
-2.7781e-08
2.20791e-07
-3.52914e-08
-2.81617e-08
-3.51865e-08
-2.84708e-08
1.3516e-07
-1.00691e-08
1.0727e-07
-2.09793e-08
9.40529e-08
-2.82548e-08
8.73034e-08
-3.12047e-08
8.33277e-08
-3.2461e-08
8.06303e-08
-3.32178e-08
7.85774e-08
-3.36585e-08
7.68983e-08
-3.38793e-08
7.54651e-08
-3.39855e-08
7.42074e-08
-3.40336e-08
-3.40578e-08
2.47599e-07
-2.32101e-08
7.17693e-08
2.39325e-07
-2.54093e-08
6.9597e-08
2.33213e-07
-2.65915e-08
6.84139e-08
2.28367e-07
-2.72976e-08
6.77004e-08
2.24315e-07
-2.77787e-08
6.72506e-08
2.208e-07
-2.81636e-08
6.6971e-08
2.17663e-07
-2.84705e-08
6.67977e-08
-2.87451e-08
6.66772e-08
5.83438e-07
-4.32742e-08
6.91703e-08
5.72833e-07
-4.64632e-08
6.61923e-08
5.64395e-07
-4.874e-08
6.42735e-08
5.57558e-07
-5.0318e-08
6.31099e-08
5.51817e-07
-5.1426e-08
6.24096e-08
5.46866e-07
-5.22734e-08
6.19038e-08
5.42491e-07
-5.2928e-08
6.15189e-08
-5.34808e-08
6.12053e-08
8.57804e-07
-6.08398e-08
6.12149e-08
8.5268e-07
-6.4143e-08
5.8733e-08
8.47662e-07
-6.70165e-08
5.67746e-08
8.43222e-07
-6.93695e-08
5.53224e-08
8.39522e-07
-7.12254e-08
5.42883e-08
8.36521e-07
-7.26578e-08
5.35771e-08
8.34075e-07
-7.37663e-08
5.30755e-08
8.32041e-07
-7.46209e-08
5.27186e-08
-7.53258e-08
5.24011e-08
1.02511e-06
-8.36805e-08
4.02772e-08
1.02826e-06
-8.16815e-08
4.15655e-08
1.03141e-06
-8.21132e-08
4.16099e-08
1.03355e-06
-8.36584e-08
4.10461e-08
1.035e-06
-8.54185e-08
4.04621e-08
1.0361e-06
-8.71272e-08
3.99295e-08
1.03703e-06
-8.864e-08
3.95097e-08
1.03789e-06
-8.98863e-08
3.92292e-08
1.0387e-06
-9.08691e-08
3.90578e-08
1.03946e-06
-9.16193e-08
3.89524e-08
1.04015e-06
-9.21894e-08
3.88797e-08
-9.26312e-08
3.87962e-08
1.11791e-06
-1.02951e-07
1.8687e-08
1.12234e-06
-1.02735e-07
1.86381e-08
1.12842e-06
-1.02768e-07
1.92207e-08
1.13466e-06
-1.03116e-07
1.97729e-08
1.14058e-06
-1.03523e-07
2.02915e-08
1.1459e-06
-1.03855e-07
2.08601e-08
1.1506e-06
-1.04046e-07
2.14203e-08
1.15464e-06
-1.0413e-07
2.18502e-08
1.15809e-06
-1.04117e-07
2.21805e-08
1.16102e-06
-1.0402e-07
2.24712e-08
1.1635e-06
-1.03884e-07
2.27092e-08
-1.03731e-07
2.28708e-08
1.159e-06
-1.12416e-07
2.52106e-09
1.16242e-06
-1.14149e-07
2.12657e-09
1.16782e-06
-1.14554e-07
2.66753e-09
1.17375e-06
-1.14197e-07
3.37523e-09
1.17948e-06
-1.13447e-07
4.08806e-09
1.18471e-06
-1.12435e-07
4.79855e-09
1.18915e-06
-1.11289e-07
5.4744e-09
1.19275e-06
-1.10114e-07
6.00692e-09
1.19566e-06
-1.09011e-07
6.33259e-09
1.19803e-06
-1.08041e-07
6.54663e-09
1.19994e-06
-1.07195e-07
6.70002e-09
-1.06471e-07
6.77311e-09
1.13859e-06
-1.11988e-07
-9.31293e-09
1.1413e-06
-1.14531e-07
-8.798e-09
1.14476e-06
-1.14683e-07
-8.09843e-09
1.14774e-06
-1.13276e-07
-7.63893e-09
1.14991e-06
-1.11288e-07
-7.38425e-09
1.15121e-06
-1.09045e-07
-7.26333e-09
1.15173e-06
-1.06799e-07
-7.28683e-09
1.15171e-06
-1.04762e-07
-7.49316e-09
1.15139e-06
-1.03043e-07
-7.81765e-09
1.15089e-06
-1.01652e-07
-8.13548e-09
1.15032e-06
-1.00525e-07
-8.4562e-09
-9.96103e-08
-8.79311e-09
1.0431e-06
-1.02226e-07
-1.8266e-08
1.04672e-06
-1.04864e-07
-1.56949e-08
1.04786e-06
-1.03137e-07
-1.50421e-08
1.04622e-06
-9.95481e-08
-1.55696e-08
1.0428e-06
-9.59091e-08
-1.65824e-08
1.03839e-06
-9.26757e-08
-1.78329e-08
1.03374e-06
-9.0045e-08
-1.9271e-08
1.02928e-06
-8.80343e-08
-2.06209e-08
1.02525e-06
-8.65473e-08
-2.1779e-08
1.02172e-06
-8.54321e-08
-2.27531e-08
1.0187e-06
-8.45843e-08
-2.3582e-08
-2.43129e-08
8.63886e-07
-8.75087e-08
-2.5906e-08
8.7137e-07
-8.75866e-08
-2.19526e-08
8.69737e-07
-8.06543e-08
-2.25662e-08
8.62518e-07
-7.37202e-08
-2.52526e-08
8.5336e-07
-6.91761e-08
-2.82684e-08
8.44248e-07
-6.61969e-08
-3.11163e-08
8.35968e-07
-6.42776e-08
-3.34929e-08
8.28819e-07
-6.31143e-08
-3.53528e-08
8.22817e-07
-6.24111e-08
-3.67768e-08
8.17822e-07
-6.19128e-08
-3.78908e-08
-6.15166e-08
-3.87934e-08
6.30605e-07
-6.13377e-08
-2.6662e-08
6.24569e-07
-5.64695e-08
-2.59076e-08
6.10997e-07
-4.60216e-08
-3.2014e-08
5.96413e-07
-3.93198e-08
-3.86471e-08
5.8343e-07
-3.61313e-08
-4.32726e-08
5.72822e-07
-3.45333e-08
-4.64655e-08
5.64381e-07
-3.36875e-08
-4.87419e-08
5.57541e-07
-3.32552e-08
-5.03168e-08
5.51794e-07
-3.30204e-08
-5.14248e-08
5.46826e-07
-3.28443e-08
-5.22617e-08
-3.26833e-08
-5.29221e-08
3.3525e-07
-3.40466e-08
2.97894e-07
-4.00923e-08
2.74151e-07
-5.05334e-08
2.60838e-07
-5.72117e-08
2.528e-07
-6.05546e-08
2.47271e-07
-6.22215e-08
2.43013e-07
-6.30883e-08
2.39397e-07
-6.35188e-08
2.36152e-07
-6.3761e-08
2.33185e-07
-6.39101e-08
-6.3991e-08
4.82039e-07
-6.63976e-09
1.07682e-07
4.62027e-07
-1.06899e-08
1.02471e-07
4.46459e-07
-1.37501e-08
9.89154e-08
4.34502e-07
-1.60066e-08
9.63778e-08
4.25149e-07
-1.75851e-08
9.46384e-08
4.17545e-07
-1.86482e-08
9.35029e-08
4.11095e-07
-1.93726e-08
9.27939e-08
4.05421e-07
-1.98937e-08
9.23651e-08
-2.03217e-08
9.20982e-08
8.62517e-07
-2.52488e-08
9.95469e-08
8.53363e-07
-2.82688e-08
9.5904e-08
8.44254e-07
-3.11186e-08
9.26693e-08
8.35979e-07
-3.34966e-08
9.00393e-08
8.28832e-07
-3.53579e-08
8.80295e-08
8.22833e-07
-3.67828e-08
8.65433e-08
8.17839e-07
-3.7903e-08
8.54281e-08
8.13671e-07
-3.87928e-08
8.45854e-08
-3.95431e-08
8.39177e-08
1.12444e-06
-4.52794e-08
8.05822e-08
1.12343e-06
-4.71526e-08
7.86272e-08
1.12149e-06
-4.91614e-08
7.67557e-08
1.1193e-06
-5.10609e-08
7.50765e-08
1.11728e-06
-5.27394e-08
7.36828e-08
1.11568e-06
-5.41619e-08
7.25647e-08
1.11453e-06
-5.53498e-08
7.16731e-08
1.11382e-06
-5.63367e-08
7.09691e-08
-5.71834e-08
7.03796e-08
1.28476e-06
-6.59412e-08
5.51835e-08
1.29168e-06
-6.48359e-08
5.57468e-08
1.29793e-06
-6.44761e-08
5.59378e-08
1.30302e-06
-6.49028e-08
5.55753e-08
1.30717e-06
-6.57774e-08
5.49371e-08
1.31058e-06
-6.68775e-08
5.42316e-08
1.31351e-06
-6.80256e-08
5.35464e-08
1.31616e-06
-6.90777e-08
5.29216e-08
1.31866e-06
-7.00042e-08
5.2396e-08
1.32111e-06
-7.07948e-08
5.1954e-08
1.32353e-06
-7.14644e-08
5.15837e-08
-7.20394e-08
5.12525e-08
1.39256e-06
-8.09368e-08
3.00118e-08
1.39762e-06
-8.08316e-08
2.95671e-08
1.4037e-06
-8.08398e-08
2.95057e-08
1.41007e-06
-8.10039e-08
2.95048e-08
1.41635e-06
-8.12606e-08
2.94924e-08
1.42239e-06
-8.15443e-08
2.94874e-08
1.42812e-06
-8.182e-08
2.94813e-08
1.4335e-06
-8.20526e-08
2.94519e-08
1.4385e-06
-8.22192e-08
2.93971e-08
1.44317e-06
-8.23249e-08
2.93326e-08
1.44754e-06
-8.23898e-08
2.92604e-08
-8.24293e-08
2.91628e-08
1.42979e-06
-8.95876e-08
6.61855e-09
1.43511e-06
-9.01866e-08
6.16295e-09
1.44127e-06
-9.04461e-08
6.11002e-09
1.44782e-06
-9.04031e-08
6.22928e-09
1.45438e-06
-9.01169e-08
6.38141e-09
1.46075e-06
-8.9656e-08
6.53547e-09
1.46681e-06
-8.90775e-08
6.67289e-09
1.47246e-06
-8.8444e-08
6.75299e-09
1.47763e-06
-8.78177e-08
6.75403e-09
1.48239e-06
-8.72367e-08
6.69896e-09
1.4868e-06
-8.67032e-08
6.60864e-09
-8.62191e-08
6.47659e-09
1.39963e-06
-8.90991e-08
-1.38343e-08
1.40455e-06
-9.04119e-08
-1.34948e-08
1.41017e-06
-9.09263e-08
-1.32338e-08
1.41574e-06
-9.0493e-08
-1.312e-08
1.4209e-06
-8.9503e-08
-1.31601e-08
1.42559e-06
-8.83082e-08
-1.33009e-08
1.42977e-06
-8.6993e-08
-1.35491e-08
1.43346e-06
-8.57315e-08
-1.38979e-08
1.43675e-06
-8.46088e-08
-1.431e-08
1.43975e-06
-8.36368e-08
-1.47427e-08
1.44257e-06
-8.28025e-08
-1.5173e-08
-8.20837e-08
-1.56072e-08
1.29105e-06
-8.13044e-08
-3.15654e-08
1.29806e-06
-8.28062e-08
-3.03067e-08
1.30392e-06
-8.22116e-08
-2.9614e-08
1.30817e-06
-8.05884e-08
-2.97295e-08
1.3111e-06
-7.86315e-08
-3.03773e-08
1.31295e-06
-7.67577e-08
-3.12358e-08
1.31405e-06
-7.50778e-08
-3.22903e-08
1.31477e-06
-7.36843e-08
-3.33885e-08
1.31538e-06
-7.2566e-08
-3.44293e-08
1.31604e-06
-7.16776e-08
-3.53755e-08
1.31685e-06
-7.0963e-08
-3.62248e-08
-3.69949e-08
1.11702e-06
-6.22658e-08
-4.57904e-08
1.12085e-06
-6.48594e-08
-4.37343e-08
1.12377e-06
-6.3792e-08
-4.38993e-08
1.12443e-06
-6.12247e-08
-4.52768e-08
1.12341e-06
-5.87368e-08
-4.71498e-08
1.12147e-06
-5.67744e-08
-4.91588e-08
1.11928e-06
-5.5323e-08
-5.10576e-08
1.11727e-06
-5.42916e-08
-5.27343e-08
1.11567e-06
-5.35827e-08
-5.41552e-08
1.11452e-06
-5.30849e-08
-5.53363e-08
-5.27171e-08
-5.63356e-08
8.53459e-07
-4.00871e-08
-5.92498e-08
8.61297e-07
-4.24298e-08
-5.61757e-08
8.61685e-07
-3.86133e-08
-5.75806e-08
8.57777e-07
-3.51272e-08
-6.08366e-08
8.52647e-07
-3.27362e-08
-6.41434e-08
8.47628e-07
-3.12016e-08
-6.70195e-08
8.43189e-07
-3.0255e-08
-6.93709e-08
8.39492e-07
-2.9687e-08
-7.12239e-08
8.3649e-07
-2.93524e-08
-7.26535e-08
8.34045e-07
-2.91408e-08
-7.37608e-08
-2.8991e-08
-7.46205e-08
5.21459e-07
-7.11774e-08
5.08528e-07
-6.95918e-08
4.94306e-07
-7.49242e-08
4.82417e-07
-8.04503e-08
4.73225e-07
-8.4099e-08
4.66066e-07
-8.62645e-08
4.60321e-07
-8.75982e-08
4.5548e-07
-8.8365e-08
4.51175e-07
-8.88084e-08
4.47203e-07
-8.90781e-08
-8.92405e-08
6.63544e-07
-3.47717e-09
1.24798e-07
6.49371e-07
-4.61723e-09
1.21261e-07
6.35965e-07
-5.87275e-09
1.18194e-07
6.23792e-07
-7.1742e-09
1.15724e-07
6.12967e-07
-8.35468e-09
1.13818e-07
6.03416e-07
-9.32252e-09
1.12377e-07
5.94937e-07
-1.00732e-08
1.11345e-07
5.87332e-07
-1.06686e-08
1.10639e-07
-1.11581e-08
1.10136e-07
1.04621e-06
-1.55619e-08
1.13275e-07
1.04279e-06
-1.65819e-08
1.11284e-07
1.03839e-06
-1.78376e-08
1.09038e-07
1.03373e-06
-1.92757e-08
1.06793e-07
1.02928e-06
-2.06253e-08
1.04757e-07
1.02525e-06
-2.17846e-08
1.03038e-07
1.02171e-06
-2.27615e-08
1.01648e-07
1.0187e-06
-2.35908e-08
1.00522e-07
-2.43234e-08
9.96067e-08
1.30817e-06
-2.97282e-08
9.04924e-08
1.31109e-06
-3.03786e-08
8.95012e-08
1.31294e-06
-3.12399e-08
8.8306e-08
1.31405e-06
-3.22955e-08
8.69918e-08
1.31477e-06
-3.33943e-08
8.57314e-08
1.31537e-06
-3.4436e-08
8.46105e-08
1.31603e-06
-3.53845e-08
8.36402e-08
1.31683e-06
-3.6231e-08
8.28114e-08
-3.69967e-08
8.20972e-08
1.47304e-06
-4.44856e-08
6.26857e-08
1.47945e-06
-4.39272e-08
6.29558e-08
1.48628e-06
-4.3587e-08
6.30817e-08
1.4928e-06
-4.36036e-08
6.29323e-08
1.49875e-06
-4.39261e-08
6.25359e-08
1.50416e-06
-4.44391e-08
6.20231e-08
1.50904e-06
-4.507e-08
6.14397e-08
1.51349e-06
-4.57571e-08
6.08359e-08
1.51763e-06
-4.64403e-08
6.02615e-08
1.52154e-06
-4.7083e-08
5.97336e-08
1.52531e-06
-4.7672e-08
5.92614e-08
-4.82119e-08
5.88337e-08
1.58271e-06
-5.54455e-08
3.42438e-08
1.5896e-06
-5.53173e-08
3.40714e-08
1.59687e-06
-5.52859e-08
3.39353e-08
1.60427e-06
-5.53328e-08
3.38313e-08
1.61158e-06
-5.54488e-08
3.37017e-08
1.6187e-06
-5.56127e-08
3.35449e-08
1.62555e-06
-5.58042e-08
3.33649e-08
1.63209e-06
-5.60046e-08
3.31626e-08
1.63829e-06
-5.61974e-08
3.29466e-08
1.64419e-06
-5.63721e-08
3.27293e-08
1.64979e-06
-5.65271e-08
3.25167e-08
-5.66657e-08
3.23037e-08
1.61895e-06
-6.22618e-08
5.76557e-09
1.62658e-06
-6.24274e-08
5.63584e-09
1.63431e-06
-6.2543e-08
5.64618e-09
1.64208e-06
-6.254e-08
5.65994e-09
1.64979e-06
-6.24244e-08
5.64635e-09
1.65735e-06
-6.22311e-08
5.60095e-09
1.66467e-06
-6.1983e-08
5.52886e-09
1.67169e-06
-6.17028e-08
5.42654e-09
1.67837e-06
-6.14156e-08
5.29167e-09
1.6847e-06
-6.11341e-08
5.13072e-09
1.6907e-06
-6.08671e-08
4.95347e-09
-6.06181e-08
4.76045e-09
1.58361e-06
-6.26868e-08
-2.03077e-08
1.59085e-06
-6.29569e-08
-2.02066e-08
1.59829e-06
-6.30825e-08
-2.01335e-08
1.60568e-06
-6.29328e-08
-2.01253e-08
1.61285e-06
-6.2536e-08
-2.02106e-08
1.61971e-06
-6.20227e-08
-2.03742e-08
1.62623e-06
-6.14385e-08
-2.06087e-08
1.63236e-06
-6.08333e-08
-2.09052e-08
1.63814e-06
-6.02571e-08
-2.12408e-08
1.64358e-06
-5.97267e-08
-2.15945e-08
1.64874e-06
-5.92481e-08
-2.19489e-08
-5.88158e-08
-2.2301e-08
1.47304e-06
-5.51862e-08
-4.44859e-08
1.47945e-06
-5.57494e-08
-4.39277e-08
1.48628e-06
-5.59401e-08
-4.35873e-08
1.4928e-06
-5.55775e-08
-4.3603e-08
1.49875e-06
-5.49386e-08
-4.39241e-08
1.50416e-06
-5.42322e-08
-4.44356e-08
1.50904e-06
-5.35466e-08
-4.50652e-08
1.51349e-06
-5.29216e-08
-4.57515e-08
1.51764e-06
-5.23956e-08
-4.64339e-08
1.52156e-06
-5.19529e-08
-4.70758e-08
1.52533e-06
-5.15697e-08
-4.76677e-08
-4.82119e-08
1.28475e-06
-4.0281e-08
-6.59403e-08
1.29167e-06
-4.1568e-08
-6.48351e-08
1.29791e-06
-4.16109e-08
-6.44752e-08
1.30301e-06
-4.10472e-08
-6.49011e-08
1.30716e-06
-4.04628e-08
-6.57751e-08
1.31057e-06
-3.99298e-08
-6.68749e-08
1.3135e-06
-3.95118e-08
-6.80222e-08
1.31615e-06
-3.92331e-08
-6.90728e-08
1.31866e-06
-3.90631e-08
-6.99978e-08
1.32111e-06
-3.89547e-08
-7.07859e-08
-3.88654e-08
-7.14639e-08
1.0251e-06
-1.47158e-08
-8.3679e-08
1.02824e-06
-1.92029e-08
-8.16806e-08
1.03139e-06
-2.02275e-08
-8.21124e-08
1.03352e-06
-2.03617e-08
-8.36573e-08
1.03498e-06
-2.06406e-08
-8.5418e-08
1.03607e-06
-2.0916e-08
-8.71275e-08
1.037e-06
-2.11793e-08
-8.86391e-08
1.03787e-06
-2.14385e-08
-8.98838e-08
1.03869e-06
-2.16671e-08
-9.0865e-08
1.03944e-06
-2.18571e-08
-9.16163e-08
-2.19975e-08
-9.21916e-08
6.29972e-07
-1.03634e-07
6.41181e-07
-1.00004e-07
6.46621e-07
-1.00592e-07
6.48552e-07
-1.02743e-07
6.48419e-07
-1.04607e-07
6.47067e-07
-1.05829e-07
6.44861e-07
-1.06571e-07
6.42093e-07
-1.07036e-07
6.38935e-07
-1.07317e-07
6.35468e-07
-1.07468e-07
-1.07526e-07
7.58934e-07
-3.74548e-09
7.57287e-07
-3.05217e-09
7.53554e-07
-2.56496e-09
7.48456e-07
-2.27038e-09
7.4254e-07
-2.16047e-09
7.36195e-07
-2.18001e-09
7.29691e-07
-2.25026e-09
7.23243e-07
-2.36897e-09
-2.51169e-09
1.14772e-06
-7.6387e-09
1.14989e-06
-7.38498e-09
1.1512e-06
-7.26626e-09
1.15173e-06
-7.29034e-09
1.15171e-06
-7.49595e-09
1.15139e-06
-7.82235e-09
1.15089e-06
-8.14525e-09
1.15033e-06
-8.47169e-09
-8.81353e-09
1.41574e-06
-1.31202e-08
1.4209e-06
-1.31624e-08
1.42559e-06
-1.33054e-08
1.42977e-06
-1.35548e-08
1.43347e-06
-1.39043e-08
1.43675e-06
-1.43178e-08
1.43976e-06
-1.47531e-08
1.44257e-06
-1.51856e-08
-1.56205e-08
1.5836e-06
-2.03068e-08
6.2262e-08
1.59085e-06
-2.02058e-08
6.24276e-08
1.59828e-06
-2.01334e-08
6.25433e-08
1.60568e-06
-2.01263e-08
6.25402e-08
1.61284e-06
-2.02134e-08
6.24245e-08
1.61971e-06
-2.03786e-08
6.22313e-08
1.62623e-06
-2.06144e-08
6.19839e-08
1.63236e-06
-2.09117e-08
6.17051e-08
1.63814e-06
-2.12483e-08
6.14199e-08
1.64358e-06
-2.16033e-08
6.11408e-08
1.64873e-06
-2.19581e-08
6.08771e-08
-2.23092e-08
6.06307e-08
1.69463e-06
-2.75237e-08
3.25611e-08
1.70343e-06
-2.74814e-08
3.25424e-08
1.71207e-06
-2.74122e-08
3.25742e-08
1.72058e-06
-2.73766e-08
3.25772e-08
1.72891e-06
-2.73888e-08
3.25418e-08
1.73703e-06
-2.74366e-08
3.2481e-08
1.7449e-06
-2.75157e-08
3.23973e-08
1.75248e-06
-2.7621e-08
3.22945e-08
1.75974e-06
-2.77421e-08
3.21817e-08
1.76666e-06
-2.78683e-08
3.20675e-08
1.77326e-06
-2.79942e-08
3.1955e-08
-2.81185e-08
3.1844e-08
1.73404e-06
-3.25607e-08
2.42176e-09
1.74238e-06
-3.2542e-08
2.35854e-09
1.75088e-06
-3.25736e-08
2.30766e-09
1.75946e-06
-3.25765e-08
2.27558e-09
1.76801e-06
-3.25409e-08
2.24928e-09
1.77645e-06
-3.24795e-08
2.20977e-09
1.7847e-06
-3.2395e-08
2.15839e-09
1.7927e-06
-3.22907e-08
2.09602e-09
1.8004e-06
-3.2176e-08
2.0239e-09
1.80777e-06
-3.20597e-08
1.94505e-09
1.81482e-06
-3.19446e-08
1.86217e-09
-3.18323e-08
1.77544e-09
1.69463e-06
-3.42446e-08
-2.75236e-08
1.70343e-06
-3.40723e-08
-2.7481e-08
1.71207e-06
-3.39359e-08
-2.74114e-08
1.72058e-06
-3.38313e-08
-2.7375e-08
1.72891e-06
-3.3701e-08
-2.73863e-08
1.73704e-06
-3.35434e-08
-2.74332e-08
1.74491e-06
-3.33623e-08
-2.75116e-08
1.75248e-06
-3.31583e-08
-2.76166e-08
1.75975e-06
-3.294e-08
-2.77375e-08
1.76667e-06
-3.27195e-08
-2.78632e-08
1.77327e-06
-3.2501e-08
-2.79894e-08
-3.22856e-08
-2.81145e-08
1.58271e-06
-3.00136e-08
-5.54449e-08
1.5896e-06
-2.95693e-08
-5.53166e-08
1.59687e-06
-2.95076e-08
-5.5285e-08
1.60427e-06
-2.95061e-08
-5.53316e-08
1.61158e-06
-2.9493e-08
-5.54468e-08
1.6187e-06
-2.94873e-08
-5.56099e-08
1.62556e-06
-2.94807e-08
-5.58006e-08
1.6321e-06
-2.94506e-08
-5.60005e-08
1.63831e-06
-2.9394e-08
-5.6193e-08
1.64421e-06
-2.93256e-08
-5.63678e-08
1.64981e-06
-2.92403e-08
-5.65244e-08
-5.6665e-08
1.39255e-06
-1.86885e-08
-8.09354e-08
1.39762e-06
-1.86401e-08
-8.08299e-08
1.40369e-06
-1.92228e-08
-8.0838e-08
1.41006e-06
-1.97748e-08
-8.10018e-08
1.41635e-06
-2.02932e-08
-8.12582e-08
1.42239e-06
-2.0862e-08
-8.15416e-08
1.42813e-06
-2.14231e-08
-8.18168e-08
1.4335e-06
-2.1854e-08
-8.20488e-08
1.43851e-06
-2.21835e-08
-8.22146e-08
1.44319e-06
-2.24668e-08
-8.23198e-08
-2.26855e-08
-8.23876e-08
1.1179e-06
1.88965e-09
-1.02949e-07
1.12233e-06
-2.01231e-09
-1.02733e-07
1.12841e-06
-4.64679e-09
-1.02767e-07
1.13465e-06
-6.55892e-09
-1.03113e-07
1.14056e-06
-8.10394e-09
-1.03521e-07
1.14588e-06
-9.46085e-09
-1.03853e-07
1.15058e-06
-1.07188e-08
-1.04044e-07
1.15462e-06
-1.16498e-08
-1.04128e-07
1.15808e-06
-1.23936e-08
-1.04113e-07
1.16103e-06
-1.30089e-08
-1.04017e-07
-1.3484e-08
-1.03883e-07
7.02791e-07
-1.1936e-07
7.19461e-07
-1.18686e-07
7.32984e-07
-1.18762e-07
7.42969e-07
-1.19287e-07
7.49824e-07
-1.19566e-07
7.5409e-07
-1.19555e-07
7.5615e-07
-1.19351e-07
7.56495e-07
-1.1903e-07
7.55486e-07
-1.18702e-07
7.53424e-07
-1.18415e-07
-1.18128e-07
1.61895e-06
5.76664e-09
1.62658e-06
5.63672e-09
1.6343e-06
5.64631e-09
1.64208e-06
5.65875e-09
1.64979e-06
5.64352e-09
1.65735e-06
5.59635e-09
1.66467e-06
5.52242e-09
1.6717e-06
5.41818e-09
1.67838e-06
5.28113e-09
1.68472e-06
5.11778e-09
1.69072e-06
4.93844e-09
4.74592e-09
1.73404e-06
2.42164e-09
1.74238e-06
2.35822e-09
1.75088e-06
2.30686e-09
1.75946e-06
2.27401e-09
1.76801e-06
2.24681e-09
1.77645e-06
2.20633e-09
1.7847e-06
2.15392e-09
1.7927e-06
2.09052e-09
1.8004e-06
2.01743e-09
1.80778e-06
1.93778e-09
1.81482e-06
1.85458e-09
1.76893e-09
1.77066e-06
-2.42127e-09
1.78009e-06
-2.35798e-09
1.78931e-06
-2.30692e-09
1.79841e-06
-2.27441e-09
1.8074e-06
-2.24764e-09
1.81623e-06
-2.20764e-09
1.82485e-06
-2.15552e-09
1.83322e-06
-2.09208e-09
1.8413e-06
-2.01844e-09
1.84906e-06
-1.93755e-09
1.85648e-06
-1.85223e-09
-1.76429e-09
1.73404e-06
-5.76602e-09
1.74238e-06
-5.63633e-09
1.75088e-06
-5.64647e-09
1.75946e-06
-5.65964e-09
1.76801e-06
-5.64526e-09
1.77645e-06
-5.59892e-09
1.7847e-06
-5.5256e-09
1.7927e-06
-5.42156e-09
1.80041e-06
-5.28408e-09
1.80778e-06
-5.1194e-09
1.81483e-06
-4.93646e-09
-4.74198e-09
1.61895e-06
-6.6195e-09
1.62658e-06
-6.16435e-09
1.63431e-06
-6.11147e-09
1.64208e-06
-6.23037e-09
1.6498e-06
-6.38189e-09
1.65735e-06
-6.53519e-09
1.66468e-06
-6.67182e-09
1.67171e-06
-6.75055e-09
1.67839e-06
-6.74862e-09
1.68473e-06
-6.68815e-09
1.69072e-06
-6.58461e-09
1.42979e-06
-2.52129e-09
1.43511e-06
-2.12858e-09
1.44127e-06
-2.66998e-09
1.44782e-06
-3.37746e-09
1.45438e-06
-4.09006e-09
1.46076e-06
-4.80043e-09
1.46682e-06
-5.47693e-09
1.47247e-06
-6.00945e-09
1.47766e-06
-6.3328e-09
1.48243e-06
-6.53726e-09
-6.67048e-09
1.159e-06
8.09814e-09
1.16242e-06
5.8624e-09
1.16782e-06
3.71416e-09
1.17374e-06
1.78103e-09
1.17947e-06
1.04848e-10
1.1847e-06
-1.45272e-09
1.18914e-06
-2.67523e-09
1.19275e-06
-3.63707e-09
1.19567e-06
-4.35785e-09
1.19805e-06
-4.8946e-09
-5.29087e-09
7.41964e-07
7.5737e-07
7.70562e-07
7.80356e-07
7.86853e-07
7.90338e-07
7.91405e-07
7.90638e-07
7.88489e-07
7.85291e-07
)
;

boundaryField
{
    inlet
    {
        type            calculated;
        value           nonuniform List<scalar> 0();
    }
    ami1
    {
        type            cyclicAMI;
        value           nonuniform List<scalar> 0();
    }
    walls
    {
        type            calculated;
        value           nonuniform List<scalar> 
227
(
1.28555e-14
6.40674e-15
-2.82792e-22
-6.40674e-15
-1.28555e-14
-1.84387e-14
-2.43942e-14
-2.90979e-14
1.28555e-14
6.40674e-15
-3.46382e-22
-6.40674e-15
-1.28555e-14
-1.84387e-14
-2.43942e-14
-2.90979e-14
1.28555e-14
6.40674e-15
-2.83568e-22
-6.40674e-15
-1.28555e-14
-1.84387e-14
-2.43942e-14
-2.90979e-14
1.84387e-14
1.28555e-14
6.40674e-15
-2.83568e-22
-6.40674e-15
-1.28555e-14
-1.84387e-14
-2.43942e-14
-2.90979e-14
2.90979e-14
2.43942e-14
1.84387e-14
1.28555e-14
6.40674e-15
-2.83826e-22
-6.40674e-15
-1.28555e-14
-1.84387e-14
-2.43942e-14
-2.90979e-14
2.90979e-14
2.43942e-14
1.84387e-14
1.28555e-14
6.40674e-15
-3.47157e-22
-6.40674e-15
-1.28555e-14
-1.84387e-14
-2.43942e-14
-2.90979e-14
2.90979e-14
2.43942e-14
1.84387e-14
1.28555e-14
6.40674e-15
-2.83826e-22
-6.40674e-15
-1.28555e-14
-1.84387e-14
-2.43942e-14
-2.90979e-14
2.90979e-14
2.43942e-14
1.84387e-14
1.28555e-14
6.40674e-15
-2.83826e-22
-6.40674e-15
-1.28555e-14
-1.84387e-14
-2.43942e-14
-2.90979e-14
2.90979e-14
2.43942e-14
1.84387e-14
1.28555e-14
6.40674e-15
-2.82534e-22
-6.40674e-15
-1.28555e-14
-1.84387e-14
-2.43942e-14
-2.90979e-14
2.90979e-14
2.43942e-14
1.84387e-14
1.28555e-14
6.40674e-15
-3.4664e-22
-6.40674e-15
-1.28555e-14
-1.84387e-14
-2.43942e-14
-2.90979e-14
2.90979e-14
2.43942e-14
1.84387e-14
1.28555e-14
6.40674e-15
-2.83568e-22
-6.40674e-15
-1.28555e-14
-1.84387e-14
-2.43942e-14
-2.90979e-14
2.90979e-14
2.43942e-14
1.84387e-14
1.28555e-14
6.40674e-15
-2.83568e-22
-6.40674e-15
-1.28555e-14
2.90979e-14
2.43942e-14
1.84387e-14
1.28555e-14
6.40674e-15
-2.82792e-22
2.90979e-14
2.43942e-14
1.84387e-14
1.28555e-14
6.40674e-15
-3.46382e-22
2.90979e-14
2.43942e-14
1.84387e-14
1.28555e-14
6.40674e-15
-2.83568e-22
2.90979e-14
2.43942e-14
1.84387e-14
1.28555e-14
6.40674e-15
-2.83568e-22
2.90979e-14
2.43942e-14
1.84387e-14
1.28555e-14
6.40674e-15
-2.83826e-22
2.90979e-14
2.43942e-14
1.84387e-14
1.28555e-14
6.40674e-15
-3.47157e-22
2.90979e-14
2.43942e-14
1.84387e-14
1.28555e-14
6.40674e-15
-2.83826e-22
2.90979e-14
2.43942e-14
1.84387e-14
1.28555e-14
6.40674e-15
-2.83826e-22
2.90979e-14
2.43942e-14
1.84387e-14
1.28555e-14
6.40674e-15
-2.82534e-22
2.90979e-14
2.43942e-14
1.84387e-14
1.28555e-14
6.40674e-15
-3.4664e-22
2.90979e-14
2.43942e-14
1.84387e-14
1.28555e-14
6.40674e-15
-2.83568e-22
-1.84387e-14
-1.28555e-14
-6.40674e-15
-2.90979e-14
-2.43942e-14
-1.84387e-14
-1.28555e-14
-6.40674e-15
-2.90979e-14
-2.43942e-14
-1.84387e-14
-1.28555e-14
-6.40674e-15
-2.90979e-14
-2.43942e-14
-1.84387e-14
-1.28555e-14
-6.40674e-15
-2.90979e-14
-2.43942e-14
-1.84387e-14
-1.28555e-14
-6.40674e-15
-2.90979e-14
-2.43942e-14
-1.84387e-14
-1.28555e-14
-6.40674e-15
-2.90979e-14
-2.43942e-14
-1.84387e-14
-1.28555e-14
-6.40674e-15
-2.90979e-14
-2.43942e-14
-1.84387e-14
-1.28555e-14
-6.40674e-15
-2.90979e-14
-2.43942e-14
-1.84387e-14
-1.28555e-14
-6.40674e-15
)
;
    }
    ami2
    {
        type            cyclicAMI;
        value           nonuniform List<scalar> 
48
(
-6.12227e-07
-6.85178e-07
-7.26595e-07
-7.34656e-07
-6.97722e-07
-5.85661e-07
-3.97327e-07
-1.85566e-07
-1.02624e-06
-1.11922e-06
-1.16015e-06
-1.13883e-06
-1.04115e-06
-8.52282e-07
-6.25976e-07
-3.7261e-07
-1.27951e-06
-1.38888e-06
-1.42523e-06
-1.3956e-06
-1.28555e-06
-1.11617e-06
-8.4305e-07
-5.24415e-07
-1.46762e-06
-1.57598e-06
-1.61128e-06
-1.57671e-06
-1.46762e-06
-1.2795e-06
-1.02624e-06
-6.12231e-07
-1.57671e-06
-1.68573e-06
-1.72566e-06
-1.68573e-06
-1.57598e-06
-1.38888e-06
-1.11921e-06
-6.85175e-07
-1.61128e-06
-1.72566e-06
-1.76097e-06
-1.72566e-06
-1.61128e-06
-1.42523e-06
-1.16015e-06
-7.26588e-07
)
;
    }
    outlet
    {
        type            calculated;
        value           nonuniform List<scalar> 0();
    }
    procBoundary0to1
    {
        type            processor;
        value           nonuniform List<scalar> 
138
(
-7.57691e-07
1.273e-07
1.2596e-07
1.24493e-07
1.23092e-07
1.21895e-07
1.20902e-07
1.20099e-07
1.19456e-07
1.18955e-07
-1.14475e-06
1.14196e-07
1.13444e-07
1.12432e-07
1.11284e-07
1.1011e-07
1.09007e-07
1.08036e-07
1.0719e-07
1.06468e-07
1.38323e-08
1.3493e-08
-1.41016e-06
1.32326e-08
9.04025e-08
9.01156e-08
8.96542e-08
8.90762e-08
8.84442e-08
8.78198e-08
8.72406e-08
8.67097e-08
8.62285e-08
-6.6207e-09
-6.16489e-09
-6.11098e-09
-6.22872e-09
-6.37899e-09
-6.53103e-09
-6.66654e-09
-6.74462e-09
-6.74289e-09
-6.6839e-09
-6.58911e-09
-6.4558e-09
5.54467e-08
5.53183e-08
5.52866e-08
5.5333e-08
5.54482e-08
5.56115e-08
5.58029e-08
5.60038e-08
5.61976e-08
5.63736e-08
5.65304e-08
5.6671e-08
2.75253e-08
2.7483e-08
2.74136e-08
2.73774e-08
2.7389e-08
2.74364e-08
2.75155e-08
2.76213e-08
2.7743e-08
2.787e-08
2.7997e-08
2.81226e-08
-2.42015e-09
-2.35658e-09
-2.30527e-09
-2.27269e-09
-2.24582e-09
-2.20568e-09
-2.15361e-09
-2.09047e-09
-2.01746e-09
-1.93757e-09
-1.85366e-09
-1.76657e-09
-3.25596e-08
-3.25407e-08
-3.2572e-08
-3.25746e-08
-3.25387e-08
-3.24773e-08
-3.23929e-08
-3.22894e-08
-3.21757e-08
-3.20601e-08
-3.19461e-08
-3.18338e-08
-6.22608e-08
-6.24262e-08
-6.25416e-08
-6.25384e-08
-6.24226e-08
-6.22291e-08
-6.1981e-08
-6.17011e-08
-6.14145e-08
-6.11338e-08
-6.08677e-08
-6.06192e-08
-8.95861e-08
-9.01846e-08
-9.04439e-08
-9.04009e-08
-9.01146e-08
-8.96539e-08
-8.90757e-08
-8.84426e-08
-8.78168e-08
-8.72359e-08
-8.67002e-08
-1.12415e-07
-1.14147e-07
-1.14551e-07
-1.14194e-07
-1.13443e-07
-1.12432e-07
-1.11286e-07
-1.10111e-07
-1.09009e-07
-1.08037e-07
-1.07188e-07
-1.26638e-07
-1.2823e-07
-1.2824e-07
-1.27299e-07
-1.25959e-07
-1.24492e-07
-1.23093e-07
-1.21899e-07
-1.20911e-07
-1.20112e-07
-1.19472e-07
)
;
    }
    procBoundary0to2
    {
        type            processor;
        value           nonuniform List<scalar> 
28
(
-8.73027e-08
-2.60834e-07
5.72077e-08
7.11774e-08
6.95908e-08
-4.94297e-07
7.49186e-08
-2.59721e-07
-7.6089e-08
-5.96414e-07
3.86491e-08
-7.37195e-08
5.92503e-08
5.61739e-08
-8.61699e-07
5.75812e-08
-5.06991e-07
-8.69736e-07
4.5789e-08
4.37321e-08
-1.12377e-06
4.38991e-08
-6.77182e-07
-1.04785e-06
3.15638e-08
3.03046e-08
-1.30391e-06
2.96116e-08
)
;
    }
    procBoundary0to8
    {
        type            processor;
        value           nonuniform List<scalar> 
29
(
7.2052e-08
2.27882e-07
4.39883e-07
6.27876e-07
7.47068e-07
2.14829e-07
5.38559e-07
8.30343e-07
1.04076e-06
1.16558e-06
4.00322e-07
8.1018e-07
1.11348e-06
1.32593e-06
1.45164e-06