/*--------------------------------*- C++ -*----------------------------------*\
| =========                 |                                                 |
| \\      /  F ield         | OpenFOAM: The Open Source CFD Toolbox           |
|  \\    /   O peration     | Version:  2212                                  |
|   \\  /    A nd           | Website:  www.openfoam.com                      |
|    \\/     M anipulation  |                                                 |
\*---------------------------------------------------------------------------*/
FoamFile
{
    version     2.0;
    format      ascii;
    arch        "LSB;label=32;scalar=64";
    class       volScalarField;
    location    "0.65";
    object      epsilon;
}
// * * * * * * * * * * * * * * * * * * * * * * * * * * * * * * * * * * * * * //

dimensions      [0 2 -3 0 0 0 0];

internalField   nonuniform List<scalar> 
682
(
0.0309992
0.0302545
0.0296429
0.0291431
0.0287361
0.0284053
0.0281368
0.0279196
0.0277446
0.0276032
0.0274808
0.0314203
0.0306995
0.0301101
0.0296293
0.029238
0.0289197
0.0286616
0.0284527
0.0282859
0.028151
0.0280325
0.0337944
0.0331005
0.0325357
0.0320742
0.0317
0.0313939
0.0311478
0.0309493
0.0307925
0.0306667
0.0305548
0.0406583
0.0398366
0.0391552
0.0385946
0.0381361
0.0377623
0.0374588
0.0372143
0.0370193
0.0368652
0.0367437
0.0366366
0.058086
0.0571909
0.05644
0.0558186
0.0553087
0.0548936
0.0545587
0.054291
0.0540784
0.0539112
0.0537802
0.0536712
0.151699
0.150067
0.148708
0.147583
0.146664
0.145924
0.145331
0.14486
0.144486
0.144182
0.143946
0.143783
0.0157918
0.0151257
0.0145565
0.0140801
0.0136854
0.013361
0.0130939
0.0128831
0.0127187
0.0125998
0.0125927
0.0159095
0.0152624
0.0147124
0.0142545
0.0138716
0.0135662
0.0132988
0.0131193
0.012936
0.0128307
0.0128332
0.0165927
0.0159914
0.0154686
0.0150929
0.0146468
0.0144351
0.0141521
0.0140255
0.0138364
0.0137487
0.013755
0.0191287
0.0186069
0.0180008
0.0176493
0.0172382
0.0169497
0.0166984
0.0164994
0.0163415
0.0162167
0.0161035
0.0161
0.0269788
0.0264012
0.025898
0.0254588
0.0250985
0.0247986
0.024559
0.0243655
0.0242115
0.0240896
0.0239922
0.0239009
0.0607624
0.0598213
0.0590117
0.0583402
0.0577911
0.0573465
0.0569892
0.056705
0.0564894
0.0563042
0.0561557
0.0560302
0.0147693
0.0139924
0.0133166
0.0127391
0.0122518
0.0118383
0.0114742
0.0112428
0.0110938
0.0109868
0.0110152
0.0146543
0.0139021
0.0132475
0.0126814
0.0122077
0.0117954
0.0114787
0.0112857
0.0111136
0.010994
0.0110152
0.0145423
0.0138524
0.013258
0.0127048
0.0122919
0.0120131
0.011764
0.0115684
0.0113322
0.0111994
0.0112244
0.0155997
0.0149856
0.0145023
0.0139951
0.0135528
0.0131767
0.0128885
0.0126567
0.0124698
0.0123149
0.0121804
0.0121954
0.019689
0.0189107
0.0184924
0.0179469
0.0176429
0.0172777
0.0170561
0.0168331
0.016678
0.0165425
0.016427
0.0164201
0.0433304
0.0424264
0.0416771
0.0410652
0.0405659
0.040162
0.0398359
0.0395745
0.0393662
0.0392021
0.0390724
0.0389625
0.0156241
0.0146841
0.0138734
0.0131827
0.0125994
0.0121104
0.0117055
0.0113777
0.0111137
0.0109085
0.0108806
0.0153627
0.0144468
0.0136577
0.0129854
0.0124197
0.0119471
0.0115582
0.0112414
0.0109833
0.0107817
0.0107479
0.0148537
0.0140147
0.0132962
0.0126792
0.0121688
0.0117546
0.0114145
0.0111351
0.0109031
0.0107291
0.0107422
0.0153996
0.0145648
0.0138581
0.0132491
0.0126807
0.0122729
0.0119776
0.0117192
0.0115163
0.011334
0.0111878
0.011213
0.0175813
0.0168345
0.0162284
0.0156645
0.0153033
0.0148325
0.0146148
0.0143176
0.0141831
0.0139889
0.0138964
0.0138895
0.0364037
0.0354773
0.0347205
0.0341057
0.033605
0.0332013
0.0328736
0.0326103
0.0323981
0.0322293
0.0320935
0.0319761
0.0161649
0.0151462
0.0142663
0.0135154
0.0128798
0.0123452
0.0118985
0.0115294
0.0112281
0.0109949
0.0109575
0.0154071
0.0144676
0.0136628
0.0129791
0.0124039
0.0119217
0.0115233
0.0112018
0.0109418
0.0107438
0.0107108
0.0156352
0.0147121
0.0139163
0.013236
0.0126562
0.0121732
0.0117518
0.0114089
0.0112097
0.0110406
0.0109285
0.0109511
0.0168155
0.0160216
0.0153491
0.0147858
0.0143189
0.0139307
0.0136186
0.0133516
0.01316
0.0129762
0.0128652
0.0128559
0.0331398
0.0322261
0.0314754
0.0308617
0.0303617
0.029956
0.0296274
0.0293614
0.0291462
0.0289733
0.0288333
0.0287118
0.0164986
0.01543
0.0145085
0.0137226
0.0130572
0.0124972
0.012029
0.0116409
0.0113238
0.0110809
0.0110402
0.015658
0.0146746
0.0138344
0.013122
0.0125215
0.0120178
0.0115978
0.011257
0.0109854
0.0107847
0.0107655
0.0157504
0.0147927
0.0139689
0.0132694
0.0126777
0.0121801
0.0117589
0.0113845
0.0111339
0.0109786
0.0108716
0.0108997
0.0165555
0.0157428
0.0150559
0.014482
0.0140058
0.0136127
0.0132902
0.0130258
0.0128166
0.0126526
0.012533
0.0125235
0.0318721
0.0309784
0.030243
0.0296398
0.0291474
0.0287472
0.0284227
0.0281601
0.0279481
0.0277774
0.0276391
0.0275185
0.0162086
0.0151755
0.0142842
0.0135245
0.0128821
0.0123424
0.0118919
0.0115205
0.0112178
0.0109858
0.0109472
0.0154393
0.0144892
0.0136775
0.0129892
0.0124112
0.0119286
0.0115307
0.0112093
0.0109499
0.0107537
0.0107226
0.0156098
0.0146929
0.0139069
0.0132364
0.0126616
0.0121813
0.0117701
0.0114369
0.0112438
0.0110725
0.0109561
0.0109778
0.0166523
0.0158718
0.0152139
0.0146651
0.0142123
0.0138344
0.013533
0.0132719
0.0130919
0.0129105
0.0128045
0.0128054
0.0322722
0.0314025
0.0306896
0.0301068
0.0296316
0.0292452
0.0289312
0.0286769
0.0284714
0.028307
0.0281739
0.0280566
0.015396
0.0144855
0.0136955
0.0130199
0.0124497
0.0119714
0.0115793
0.0112623
0.0110052
0.010808
0.0107783
0.0148548
0.0140212
0.0133049
0.0126866
0.0121738
0.0117587
0.0114207
0.0111446
0.0109126
0.0107426
0.0107683
0.0153453
0.014526
0.013833
0.0132412
0.0126951
0.0122687
0.0119875
0.0117431
0.0115477
0.0113267
0.0111949
0.0112141
0.0172293
0.0165202
0.0159278
0.0154217
0.0150609
0.0146245
0.0144137
0.0141335
0.0140032
0.0138192
0.0137298
0.0137348
0.0346258
0.0337885
0.033103
0.0325429
0.0320841
0.031712
0.0314074
0.0311624
0.0309647
0.0308078
0.0306826
0.0305709
0.0147093
0.0139466
0.0132771
0.0127017
0.0122238
0.011799
0.0114863
0.0112956
0.0111313
0.0110203
0.0110433
0.0145685
0.0138686
0.0132626
0.0126941
0.0122915
0.0119962
0.011743
0.0115468
0.0113361
0.0112073
0.0112231
0.0155918
0.0149835
0.0144803
0.0139944
0.0135544
0.0131753
0.0128853
0.0126499
0.0124604
0.0123011
0.0121696
0.0121804
0.0191194
0.0185985
0.0179895
0.0176339
0.0172323
0.0169363
0.0166903
0.0164915
0.0163336
0.0162085
0.0160938
0.0160843
0.0406567
0.0398375
0.0391596
0.0386017
0.0381444
0.0377711
0.0374675
0.0372228
0.0370274
0.0368731
0.0367512
0.0366451
0.0160703
0.0154085
0.0148446
0.0143741
0.0139815
0.0136658
0.0133961
0.0132023
0.013022
0.0129091
0.0129013
0.0168749
0.0162567
0.0156967
0.0153263
0.0148465
0.0146235
0.0143226
0.014184
0.0139883
0.0138941
0.013885
0.0195758
0.0190286
0.0183876
0.0180235
0.0176075
0.0172811
0.0170441
0.0168245
0.0166665
0.0165305
0.016419
0.016395
0.0269681
0.0264011
0.0258878
0.0254643
0.0250987
0.0247989
0.0245586
0.0243633
0.0242091
0.0240855
0.0239924
0.0238561
0.0580941
0.0572015
0.0564518
0.0558291
0.0553172
0.0548998
0.0545624
0.0542927
0.0540787
0.0539103
0.0537781
0.0536676
0.0322501
0.0314915
0.0308704
0.0303639
0.0299522
0.0296181
0.0293474
0.0291283
0.0289523
0.02881
0.0286872
0.0354957
0.0347325
0.0341115
0.0336052
0.0331964
0.0328641
0.0325969
0.0323816
0.0322105
0.0320734
0.0319545
0.0433465
0.0424398
0.0416893
0.0410724
0.0405686
0.0401601
0.0398298
0.0395648
0.0393539
0.0391882
0.0390574
0.0389466
0.0607744
0.0598349
0.0590258
0.0583515
0.0577985
0.0573494
0.0569877
0.0566998
0.0564814
0.0562942
0.0561441
0.0560163
0.151717
0.150086
0.148726
0.147598
0.146676
0.145931
0.145333
0.144857
0.144479
0.144172
0.143934
0.143766
)
;

boundaryField
{
    inlet
    {
        type            fixedValue;
        value           nonuniform List<scalar> 0();
    }
    ami1
    {
        type            cyclicAMI;
        value           nonuniform List<scalar> 0();
    }
    walls
    {
        type            epsilonWallFunction;
        blending        stepwise;
        value           nonuniform List<scalar> 
259
(
0.0406583
0.058086
0.151699
0.0309992
0.0314203
0.0337944
0.0398366
0.0571909
0.150067
0.0302545
0.0306995
0.0331005
0.0391552
0.05644
0.148708
0.0296429
0.0301101
0.0325357
0.0385946
0.0558186
0.147583
0.0291431
0.0296293
0.0320742
0.0381361
0.0553087
0.146664
0.0287361
0.029238
0.0317
0.0377623
0.0548936
0.145924
0.0284053
0.0289197
0.0313939
0.0374588
0.0545587
0.145331
0.0281368
0.0286616
0.0311478
0.0372143
0.054291
0.14486
0.0279196
0.0284527
0.0309493
0.0370193
0.0540784
0.144486
0.0277446
0.0282859
0.0307925
0.0368652
0.0539112
0.144182
0.0276032
0.028151
0.0306667
0.0367437
0.0537802
0.143946
0.0274808
0.0280325
0.0305548
0.0366366
0.0536712
0.143783
0.151699
0.0607624
0.0433304
0.0364037
0.0331398
0.0318721
0.0322722
0.0346258
0.0406567
0.0580941
0.151717
0.150067
0.0598213
0.0424264
0.0354773
0.0322261
0.0309784
0.0314025
0.0337885
0.0398375
0.0572015
0.150086
0.148708
0.0590117
0.0416771
0.0347205
0.0314754
0.030243
0.0306896
0.033103
0.0391596
0.0564518
0.148726
0.147583
0.0583402
0.0410652
0.0341057
0.0308617
0.0296398
0.0301068
0.0325429
0.0386017
0.0558291
0.147598
0.146664
0.0577911
0.0405659
0.033605
0.0303617
0.0291474
0.0296316
0.0320841
0.0381444
0.0553172
0.146676
0.145924
0.0573465
0.040162
0.0332013
0.029956
0.0287472
0.0292452
0.031712
0.0377711
0.0548998
0.145931
0.145331
0.0569892
0.0398359
0.0328736
0.0296274
0.0284227
0.0289312
0.0314074
0.0374675
0.0545624
0.145333
0.14486
0.056705
0.0395745
0.0326103
0.0293614
0.0281601
0.0286769
0.0311624
0.0372228
0.0542927
0.144857
0.144486
0.0564894
0.0393662
0.0323981
0.0291462
0.0279481
0.0284714
0.0309647
0.0370274
0.0540787
0.144479
0.144182
0.0563042
0.0392021
0.0322293
0.0289733
0.0277774
0.028307
0.0308078
0.0368731
0.0539103
0.144172
0.143946
0.0561557
0.0390724
0.0320935
0.0288333
0.0276391
0.0281739
0.0306826
0.0367512
0.0537781
0.143934
0.143783
0.0560302
0.0389625
0.0319761
0.0287118
0.0275185
0.0280566
0.0305709
0.0366451
0.0536676
0.143766
0.0433465
0.0607744
0.151717
0.0322501
0.0354957
0.0424398
0.0598349
0.150086
0.0314915
0.0347325
0.0416893
0.0590258
0.148726
0.0308704
0.0341115
0.0410724
0.0583515
0.147598
0.0303639
0.0336052
0.0405686
0.0577985
0.146676
0.0299522
0.0331964
0.0401601
0.0573494
0.145931
0.0296181
0.0328641
0.0398298
0.0569877
0.145333
0.0293474
0.0325969
0.0395648
0.0566998
0.144857
0.0291283
0.0323816
0.0393539
0.0564814
0.144479
0.0289523
0.0322105
0.0391882
0.0562942
0.144172
0.02881
0.0320734
0.0390574
0.0561441
0.143934
0.0286872
0.0319545
0.0389466
0.0560163
0.143766
)
;
    }
    ami2
    {
        type            cyclicAMI;
        value           nonuniform List<scalar> 0();
    }
    outlet
    {
        type            zeroGradient;
    }
    procBoundary9to0
    {
        type            processor;
        value           nonuniform List<scalar> 
40
(
0.0318991
0.0322956
0.0346383
0.0346383
0.0416316
0.0591282
0.153699
0.0164777
0.0165807
0.0172166
0.0172166
0.0199361
0.0277105
0.0619053
0.0156291
0.0154978
0.0153062
0.0153062
0.0165352
0.0203483
0.0444215
0.0166403
0.0163862
0.0157806
0.0157806
0.0163778
0.0184013
0.0375318
0.0172862
0.0164362
0.0164362
0.016681
0.0176641
0.034244
0.0176563
0.0167179
0.0167179
0.0168071
0.0174061
0.032951
)
;
    }
    procBoundary9to1
    {
        type            processor;
        value           nonuniform List<scalar> 
30
(
0.017318
0.0164569
0.0164569
0.0166245
0.0174676
0.0333276
0.0163908
0.0157738
0.0157738
0.0162979
0.017999
0.035643
0.01554
0.0153539
0.0153539
0.0165352
0.0199365
0.0416325
0.0167475
0.0175476
0.0175476
0.0203925
0.0277164
0.059135
0.0331694
0.0364257
0.0364257
0.0444328
0.0619147
0.153716
)
;
    }
    procBoundary9to7
    {
        type            processor;
        value           nonuniform List<scalar> 
59
(
0.0273724
0.0279256
0.0304503
0.0365348
0.0535757
0.143665
0.0126313
0.0128715
0.0137977
0.0161237
0.0238605
0.0559188
0.0110778
0.0110823
0.0112972
0.0122488
0.0164123
0.0388629
0.0109422
0.0108283
0.010823
0.0112759
0.0139091
0.0318707
0.0110132
0.0107932
0.011019
0.0128846
0.0286033
0.0110961
0.0108415
0.0109686
0.0125551
0.0274102
0.0110113
0.0108104
0.0110476
0.0128426
0.0279494
0.0108592
0.0108476
0.0112861
0.0137724
0.0304664
0.0111118
0.0112934
0.0122311
0.0160908
0.0365438
0.0129495
0.0139108
0.0163672
0.0237992
0.0535697
0.028577
0.0318476
0.0388461
0.055901
0.143643
)
;
    }
    procBoundary9to8
    {
        type            processor;
        value           nonuniform List<scalar> 
132
(
0.0322408
0.031482
0.0308611
0.0303544
0.0299421
0.0296069
0.0293345
0.0291134
0.0289356
0.0287919
0.0286687
0.0160918
0.0154266
0.0148631
0.0143929
0.0140048
0.0136878
0.0134224
0.0132227
0.0130473
0.0129352
0.0129278
0.0147165
0.0139488
0.0132845
0.0127168
0.0122441
0.01182
0.0115115
0.0113182
0.0111538
0.0110404
0.011061
0.0153831
0.0144678
0.0136828
0.0130153
0.0124532
0.0119823
0.011597
0.0112837
0.0110287
0.010828
0.010793
0.0164799
0.0154239
0.0145147
0.0137396
0.0130833
0.012531
0.0120695
0.0116872
0.0113743
0.0111335
0.0110967
0.0164799
0.0154239
0.0145147
0.0137396
0.0130833
0.012531
0.0120695
0.0116872
0.0113743
0.0111335
0.0110967
0.0168221
0.015707
0.0147504
0.0139356
0.0132455
0.012664
0.0121769
0.0117718
0.0114396
0.0111867
0.0111385
0.0165007
0.0154194
0.0144925
0.013704
0.0130369
0.0124756
0.0120061
0.0116168
0.0112986
0.0110565
0.0110097
0.0156065
0.0146513
0.0138303
0.0131311
0.0125403
0.0120438
0.0116296
0.0112934
0.0110241
0.0108217
0.0107837
0.0147572
0.0139625
0.0132771
0.0126953
0.0122081
0.0117942
0.0114268
0.0111873
0.011033
0.0109274
0.0109536
0.0157664
0.0150877
0.0145156
0.0140387
0.0136444
0.0133206
0.0130553
0.012845
0.01268
0.0125619
0.0125509
0.0310092
0.030267
0.0296577
0.0291596
0.0287541
0.0284247
0.0281574
0.0279413
0.0277675
0.0276269
0.0275048
)
;
    }
}


// ************************************************************************* //
