/*--------------------------------*- C++ -*----------------------------------*\
| =========                 |                                                 |
| \\      /  F ield         | OpenFOAM: The Open Source CFD Toolbox           |
|  \\    /   O peration     | Version:  2212                                  |
|   \\  /    A nd           | Website:  www.openfoam.com                      |
|    \\/     M anipulation  |                                                 |
\*---------------------------------------------------------------------------*/
FoamFile
{
    version     2.0;
    format      ascii;
    arch        "LSB;label=32;scalar=64";
    class       surfaceVectorField;
    location    "0.1";
    object      Uf;
}
// * * * * * * * * * * * * * * * * * * * * * * * * * * * * * * * * * * * * * //

dimensions      [0 1 -1 0 0 0 0];

internalField   nonuniform List<vector> 
1763
(
(0.0512262 5.22842e-07 4.01659e-07)
(0.0602756 6.15436e-07 -2.06036e-07)
(0.0512289 -1.89522e-07 8.70332e-08)
(0.0602898 -4.0288e-07 -7.28593e-07)
(0.0599449 -5.0893e-07 -2.31248e-07)
(0.051232 -5.35245e-07 -1.37779e-07)
(0.060291 -9.24246e-07 -5.03283e-07)
(0.0599461 -4.84339e-07 -7.7941e-08)
(0.0512317 -2.84035e-07 2.9561e-08)
(0.0602914 -2.98146e-07 1.3169e-07)
(0.0599463 -1.51799e-07 3.91656e-07)
(0.0512316 -2.07382e-07 -6.76394e-08)
(0.060292 -5.96134e-08 -7.19363e-08)
(0.059947 -2.83366e-07 2.75712e-07)
(0.0602887 -3.45242e-07 -4.93448e-07)
(0.0599435 -5.26881e-07 -2.08311e-07)
(0.0738756 -1.56402e-06 -2.56511e-06)
(0.079739 -6.96334e-07 -1.66048e-06)
(0.0809118 5.42117e-07 -4.27596e-07)
(0.073884 -2.26735e-06 -2.34861e-06)
(0.079751 -5.14812e-06 -4.71911e-06)
(0.0809183 3.25809e-08 -7.95898e-07)
(0.0738867 -5.78424e-07 -1.46401e-07)
(0.0797505 -1.92645e-06 -1.32827e-06)
(0.0809178 -7.98286e-07 -5.64281e-07)
(0.0738852 6.34775e-07 5.28458e-07)
(0.0797496 7.35803e-07 7.26238e-07)
(0.0809176 -1.95104e-07 1.2553e-07)
(0.0738826 5.34365e-07 -5.14754e-08)
(0.0797498 2.44969e-06 1.28978e-06)
(0.0809187 -5.99496e-07 -6.56483e-07)
(0.0797475 1.11753e-06 -6.50381e-08)
(0.0809177 -1.28657e-06 -1.49129e-06)
(0.087052 -2.27925e-06 -2.6785e-06)
(0.0870508 -2.14794e-06 -2.22359e-06)
(0.089733 -1.0709e-06 -1.88597e-06)
(0.0914182 -2.27774e-06 -3.14204e-06)
(0.0870496 1.83928e-07 -5.14775e-08)
(0.0897318 5.06764e-07 -3.14777e-07)
(0.0914172 -9.83424e-07 -1.11839e-06)
(0.0870488 1.78212e-06 1.05092e-06)
(0.0897315 1.41143e-06 5.10206e-07)
(0.0914167 3.70231e-07 2.00731e-07)
(0.0870496 1.45725e-06 3.99596e-07)
(0.0897322 1.28385e-06 1.45577e-07)
(0.0914171 9.13986e-07 3.93829e-07)
(0.0897343 4.36854e-08 -1.27488e-06)
(0.0914184 -7.0338e-08 -7.41251e-07)
(0.0927838 -5.87358e-08 -5.73491e-07)
(0.0936153 -7.16009e-07 -8.07666e-07)
(0.096393 2.99554e-08 -3.91557e-07)
(0.0927844 6.83852e-07 -1.90214e-07)
(0.0936151 -1.64987e-07 -4.95582e-07)
(0.0963928 3.66203e-07 -1.6667e-07)
(0.0927855 8.65247e-07 -4.90209e-07)
(0.0936157 3.54403e-07 -5.40367e-07)
(0.0963933 4.36703e-07 -3.10937e-07)
(0.0927871 4.40821e-07 -1.3931e-06)
(0.0936169 4.37317e-07 -1.31875e-06)
(0.096394 1.72976e-07 -1.06202e-06)
(0.093619 -1.66641e-09 -2.18388e-06)
(0.0963949 -2.88191e-07 -1.84548e-06)
(0.0945064 -3.72188e-07 -6.07829e-07)
(0.0981425 -1.78764e-07 -4.33302e-07)
(0.0945068 -8.86872e-08 -7.49732e-07)
(0.0946663 -5.22655e-08 -5.48582e-07)
(0.0981424 -1.97706e-07 -6.49812e-07)
(0.0945075 1.76914e-07 -1.32479e-06)
(0.0946667 2.31059e-07 -9.34045e-07)
(0.0981427 -4.11527e-08 -1.00847e-06)
(0.0945088 1.42435e-07 -2.09177e-06)
(0.0946676 3.23779e-07 -1.87318e-06)
(0.0981431 6.13565e-09 -1.78855e-06)
(0.0946695 2.05345e-07 -2.48258e-06)
(0.0981438 -1.14544e-07 -2.24665e-06)
(0.0948298 1.10465e-07 -7.57509e-07)
(0.0944929 5.3588e-08 -5.33793e-07)
(0.0985099 1.45425e-08 -5.606e-07)
(0.0948305 2.84813e-07 -1.4989e-06)
(0.0944933 1.75118e-07 -1.07484e-06)
(0.0985102 1.10023e-07 -1.08401e-06)
(0.0948317 3.49092e-07 -2.27214e-06)
(0.0944942 2.92519e-07 -2.008e-06)
(0.0985105 1.96026e-07 -1.93076e-06)
(0.094496 4.5533e-07 -2.53503e-06)
(0.0985111 2.16657e-07 -2.32634e-06)
(0.0941638 1.56518e-07 -8.48278e-07)
(0.092951 2.8462e-07 -7.48663e-07)
(0.0978444 7.17981e-08 -6.00501e-07)
(0.0941644 1.87562e-07 -1.58283e-06)
(0.0929515 1.85148e-07 -1.1449e-06)
(0.0978447 5.97767e-08 -1.13644e-06)
(0.0941656 3.80414e-07 -2.27174e-06)
(0.0929525 2.00414e-07 -1.78618e-06)
(0.097845 2.07897e-07 -1.89081e-06)
(0.0929545 7.20337e-07 -2.34521e-06)
(0.0978455 4.44309e-07 -2.23874e-06)
(0.0918206 5.45873e-07 -1.05315e-06)
(0.0884823 8.43705e-07 -9.81846e-07)
(0.0956469 3.31715e-07 -8.58534e-07)
(0.0918215 4.04846e-07 -1.36883e-06)
(0.0884832 9.67323e-08 -5.83794e-07)
(0.0956471 2.97582e-07 -1.00977e-06)
(0.091823 6.14249e-07 -1.87843e-06)
(0.0884844 -4.3579e-07 -7.10118e-07)
(0.0956475 4.27653e-07 -1.38681e-06)
(0.0884868 5.8519e-07 -1.52896e-06)
(0.0956481 8.37202e-07 -1.81042e-06)
(0.0855496 -3.96819e-08 -4.66163e-07)
(0.0786036 5.78034e-08 7.77917e-08)
(0.0903787 -6.44256e-08 -1.70197e-07)
(0.0855508 -1.4722e-06 1.29725e-07)
(0.0786032 -1.47924e-06 7.56305e-07)
(0.090379 -7.65486e-07 1.74791e-07)
(0.0855527 -1.2482e-06 -3.01262e-07)
(0.0786037 -2.94076e-06 6.43754e-07)
(0.0903797 -1.03852e-06 5.93224e-08)
(0.0786013 -1.34679e-06 -3.36517e-07)
(0.0903811 5.54965e-08 -6.79229e-07)
(0.0730236 5.72404e-07 -1.36966e-07)
(0.0599459 3.23113e-07 -1.19433e-07)
(0.0730231 -1.01818e-06 1.05376e-06)
(0.0599462 -1.64537e-07 1.50047e-07)
(0.0804366 -4.20464e-07 4.65426e-07)
(0.073021 -1.50321e-06 7.49619e-07)
(0.0599453 -3.73791e-07 1.96381e-07)
(0.0804361 -4.29494e-07 3.33478e-07)
(0.0730182 -1.09707e-06 -3.62373e-08)
(0.0599456 -2.64522e-07 -1.90924e-07)
(0.0804369 2.7537e-07 -5.63926e-07)
(0.059942 1.83841e-07 -4.49132e-07)
(0.0804355 1.17476e-06 -1.19798e-06)
(0.0512313 1.54348e-07 -7.79828e-08)
(0.0602905 4.17116e-07 1.05568e-07)
(0.0512311 1.54054e-07 -3.76941e-07)
(0.0602908 -1.11322e-07 -2.5625e-07)
(0.0512301 -2.344e-08 -2.5697e-07)
(0.0602901 -3.05847e-07 -2.09198e-07)
(0.0512301 7.28957e-08 -2.24015e-07)
(0.0602905 5.64271e-08 -1.43381e-07)
(0.0602872 5.15715e-07 -3.91533e-07)
(0.0730214 -1.59297e-06 -1.83428e-06)
(0.0804375 -7.04782e-07 -1.76984e-07)
(0.0730239 -2.37767e-09 5.77844e-07)
(0.0804371 -7.28927e-07 -4.52247e-07)
(0.0786032 -1.14437e-06 -1.09388e-06)
(0.0730223 2.54322e-07 1.56145e-06)
(0.0804368 -2.51482e-07 2.33409e-07)
(0.0786035 1.27195e-07 1.67091e-06)
(0.0730197 -2.47247e-07 1.128e-06)
(0.0804379 -7.45878e-07 -3.0737e-07)
(0.0786045 3.24744e-07 3.06928e-06)
(0.0804366 -1.30771e-06 -1.21325e-06)
(0.0786024 -5.34954e-07 1.35677e-06)
(0.0897791 3.29019e-06 3.79873e-06)
(0.0897717 2.47395e-06 2.82656e-06)
(0.0929084 2.46738e-06 2.45368e-06)
(0.0926806 2.4893e-06 3.10488e-06)
(0.0897705 -4.99821e-07 -6.19132e-07)
(0.0929075 -5.76793e-07 -8.37381e-07)
(0.0926785 6.71926e-07 5.76028e-07)
(0.0897718 -2.09892e-06 -2.43303e-06)
(0.0929079 -8.9993e-07 -1.21156e-06)
(0.0926781 -2.83313e-07 -2.17627e-07)
(0.0897754 -3.34036e-06 -3.9212e-06)
(0.0929093 -2.07459e-06 -2.75776e-06)
(0.0926791 -2.10327e-06 -2.07544e-06)
(0.0929122 -2.3322e-06 -3.10155e-06)
(0.0926817 -2.5348e-06 -2.61921e-06)
(0.0965465 -9.23821e-07 -1.57523e-06)
(0.098425 4.79015e-07 -5.01784e-07)
(0.098489 -2.39114e-07 -2.38333e-07)
(0.0965462 -1.0059e-06 -1.4906e-06)
(0.0984251 -2.43679e-07 -8.76799e-07)
(0.0984891 -5.85604e-07 -1.03953e-06)
(0.096547 -9.04374e-07 -1.52025e-06)
(0.0984254 -5.72392e-07 -1.09803e-06)
(0.0984894 -6.4461e-07 -1.20226e-06)
(0.0965478 -1.01459e-06 -1.83671e-06)
(0.0984257 -1.07319e-06 -1.74085e-06)
(0.0984895 -9.41131e-07 -1.75239e-06)
(0.0984257 -1.22757e-06 -2.10689e-06)
(0.0984891 -1.107e-06 -1.92263e-06)
(0.100491 4.87273e-07 3.33736e-08)
(0.101325 2.22796e-07 3.0118e-08)
(0.101946 3.91127e-07 3.50309e-08)
(0.100491 5.8355e-08 -4.96109e-07)
(0.101325 -2.02247e-08 -5.19043e-07)
(0.101946 1.82056e-07 -3.48615e-07)
(0.100491 -3.62487e-07 -1.18852e-06)
(0.101325 -2.22846e-07 -1.05402e-06)
(0.101946 -1.59832e-07 -8.31908e-07)
(0.100491 -6.55577e-07 -1.81097e-06)
(0.101325 -3.97406e-07 -1.72637e-06)
(0.101946 -5.21956e-07 -1.43687e-06)
(0.101324 -4.93488e-07 -2.11984e-06)
(0.101945 -6.75882e-07 -1.76161e-06)
(0.102205 1.73091e-08 -4.63957e-07)
(0.102402 1.89455e-07 -2.07125e-07)
(0.103558 1.1927e-07 -1.1719e-07)
(0.102205 -1.5442e-07 -1.05714e-06)
(0.102402 7.06905e-09 -7.30922e-07)
(0.103558 -3.2871e-08 -6.10566e-07)
(0.102205 -2.35276e-07 -1.59843e-06)
(0.102402 -8.27284e-08 -1.2473e-06)
(0.103558 -1.44969e-07 -1.04994e-06)
(0.102204 -2.74451e-07 -2.05289e-06)
(0.102401 -9.50799e-08 -1.87524e-06)
(0.103557 -2.28835e-07 -1.5559e-06)
(0.102401 -9.12221e-08 -2.19772e-06)
(0.103556 -2.59479e-07 -1.81281e-06)
(0.102602 1.0751e-07 -4.84521e-07)
(0.102277 2.34667e-07 -3.48989e-07)
(0.10396 1.74109e-07 -2.73175e-07)
(0.102602 1.22475e-08 -9.29599e-07)
(0.102277 1.93962e-08 -6.19926e-07)
(0.10396 5.06901e-08 -5.49346e-07)
(0.102602 7.90023e-09 -1.53084e-06)
(0.102277 -2.35341e-08 -1.11656e-06)
(0.10396 -8.79528e-09 -9.91346e-07)
(0.102601 5.32687e-08 -2.02517e-06)
(0.102276 9.53082e-08 -1.77214e-06)
(0.103959 1.37967e-08 -1.51688e-06)
(0.102276 2.13778e-07 -2.11293e-06)
(0.103959 4.61953e-08 -1.77943e-06)
(0.101957 1.25097e-07 -4.85652e-07)
(0.103369 2.68277e-07 -3.44054e-07)
(0.101957 -5.23791e-08 -8.10096e-07)
(0.100948 -2.07712e-07 -4.15175e-07)
(0.103369 -2.17536e-09 -4.64574e-07)
(0.101957 5.79067e-08 -1.35966e-06)
(0.100948 -1.44632e-07 -7.44057e-07)
(0.103369 -1.42795e-08 -8.24091e-07)
(0.101956 2.70976e-07 -1.86029e-06)
(0.100948 2.59923e-07 -1.40411e-06)
(0.103369 1.68385e-07 -1.34465e-06)
(0.100947 5.62354e-07 -1.81633e-06)
(0.103368 3.11669e-07 -1.62691e-06)
(0.0999918 -8.68796e-08 -3.65992e-07)
(0.0979278 -8.77263e-07 6.63936e-07)
(0.101602 -1.2978e-07 -8.76593e-08)
(0.0999915 2.51534e-07 -8.07915e-07)
(0.0979275 -3.1701e-07 1.32747e-07)
(0.101602 2.26137e-08 -3.18454e-07)
(0.0999909 6.8373e-07 -1.37642e-06)
(0.0979272 8.09908e-07 -9.31134e-07)
(0.101602 5.00405e-07 -9.34804e-07)
(0.0979268 1.24342e-06 -1.47041e-06)
(0.1016 7.62626e-07 -1.31378e-06)
(0.09605 -1.09867e-06 1.09789e-06)
(0.0926775 -6.22544e-07 8.21734e-07)
(0.0982275 -7.04736e-07 8.26886e-07)
(0.0960499 -1.96891e-07 2.25637e-08)
(0.0926777 4.53007e-08 -8.5401e-09)
(0.0982272 -1.42751e-07 1.983e-07)
(0.0960501 6.85139e-07 -9.66577e-07)
(0.0926787 2.00627e-06 -1.90552e-06)
(0.098227 8.06275e-07 -9.41961e-07)
(0.0926813 2.56542e-06 -2.38949e-06)
(0.0982264 1.21056e-06 -1.33908e-06)
(0.0897698 1.50533e-07 -1.32999e-07)
(0.0809169 -5.79768e-07 1.63092e-07)
(0.0929074 -9.75438e-10 -1.40054e-08)
(0.0897713 2.06844e-06 -1.79909e-06)
(0.0809167 -4.89878e-07 1.31911e-08)
(0.092908 6.76604e-07 -5.24292e-07)
(0.0897748 3.74788e-06 -3.18348e-06)
(0.0809176 5.46335e-07 -5.83869e-07)
(0.0929092 2.55243e-06 -1.91289e-06)
(0.0809166 1.45539e-06 -1.27959e-06)
(0.092912 3.01591e-06 -2.2394e-06)
(0.0738851 4.6368e-07 -4.83452e-07)
(0.0797487 2.1516e-06 -1.83331e-06)
(0.0738851 -9.25224e-07 2.10769e-07)
(0.0797488 2.78408e-07 -6.73257e-07)
(0.0738834 -8.10606e-07 6.47807e-07)
(0.0797482 -7.84999e-07 6.05931e-07)
(0.0738811 1.5602e-08 4.44687e-07)
(0.0797486 -1.13081e-06 2.16167e-06)
(0.0797464 1.48647e-07 1.00333e-06)
(0.0855489 -1.30776e-06 -6.09328e-07)
(0.0903787 -9.50997e-07 -4.09392e-07)
(0.0884825 -1.66305e-06 -1.7682e-06)
(0.0855507 -4.48951e-07 1.34225e-06)
(0.090379 -2.84635e-07 7.51963e-07)
(0.0884833 -9.91071e-07 -3.14492e-07)
(0.0855531 -6.8615e-07 1.15277e-06)
(0.0903798 -2.91756e-07 1.02261e-06)
(0.0884848 -1.01395e-06 3.14982e-07)
(0.0903815 -9.10022e-07 -1.21795e-07)
(0.0884874 -1.74117e-06 -6.37149e-07)
(0.0960531 6.09556e-07 9.96009e-07)
(0.0982292 4.48925e-07 2.89479e-07)
(0.0960508 1.0819e-06 1.4843e-06)
(0.0982279 1.14335e-06 1.09894e-06)
(0.0979282 4.58594e-07 1.28728e-06)
(0.0960502 -1.45756e-07 3.32316e-07)
(0.0982273 1.74587e-07 2.55976e-07)
(0.0979276 -1.73623e-07 3.70065e-07)
(0.0960502 -1.16692e-06 -6.71239e-07)
(0.0982269 -1.08189e-06 -7.95839e-07)
(0.0979272 -1.19739e-06 -8.52646e-07)
(0.0982263 -1.50545e-06 -1.24741e-06)
(0.0979267 -1.69181e-06 -1.31245e-06)
(0.100662 1.12838e-07 5.06882e-08)
(0.102049 -2.29793e-08 1.31439e-08)
(0.101964 -1.59388e-09 5.2238e-08)
(0.100663 -1.28879e-07 -3.33012e-07)
(0.102049 1.11719e-07 -1.83187e-07)
(0.101964 -3.85541e-08 1.19913e-07)
(0.100662 -5.95327e-07 -8.74061e-07)
(0.102049 -2.11519e-07 -6.23387e-07)
(0.101964 -3.69914e-07 -3.26294e-07)
(0.100662 -9.57453e-07 -1.24962e-06)
(0.102048 -6.90881e-07 -1.14632e-06)
(0.101964 -8.49576e-07 -8.92696e-07)
(0.102047 -8.48951e-07 -1.32634e-06)
(0.101963 -1.04649e-06 -1.06577e-06)
(0.103542 7.47845e-08 -2.04e-07)
(0.104268 8.08664e-08 -1.24095e-07)
(0.104485 -1.35941e-08 -7.83804e-09)
(0.103542 -3.05885e-08 -4.96206e-07)
(0.104268 6.41195e-08 -3.47863e-07)
(0.104485 -2.24977e-08 -1.60653e-07)
(0.103542 -3.08233e-07 -8.99702e-07)
(0.104268 -1.09128e-07 -7.18501e-07)
(0.104485 -2.24995e-07 -5.01474e-07)
(0.103541 -5.28834e-07 -1.21181e-06)
(0.104268 -3.07632e-07 -1.11782e-06)
(0.104485 -4.79367e-07 -8.59393e-07)
(0.104267 -3.96936e-07 -1.31124e-06)
(0.104484 -5.88282e-07 -1.02023e-06)
(0.105026 7.16538e-08 -2.69061e-07)
(0.105226 1.42461e-07 -1.97322e-07)
(0.105821 4.79685e-08 -9.36172e-08)
(0.105026 -1.80991e-08 -5.72555e-07)
(0.105226 4.18363e-08 -4.12527e-07)
(0.105821 3.31866e-09 -3.02062e-07)
(0.105026 -1.35359e-07 -9.43437e-07)
(0.105226 -5.1796e-08 -7.52881e-07)
(0.105821 -1.00199e-07 -6.01365e-07)
(0.105025 -2.12734e-07 -1.22599e-06)
(0.105226 -1.00645e-07 -1.11213e-06)
(0.105821 -1.96438e-07 -8.87669e-07)
(0.105225 -1.12489e-07 -1.29839e-06)
(0.10582 -2.38443e-07 -1.03376e-06)
(0.105429 1.18553e-07 -3.40562e-07)
(0.105164 2.05151e-07 -2.78239e-07)
(0.106202 1.25813e-07 -1.92223e-07)
(0.105429 2.9583e-08 -5.90228e-07)
(0.105164 6.91926e-08 -4.02995e-07)
(0.106201 5.24939e-08 -3.34244e-07)
(0.105429 -6.79756e-09 -9.20194e-07)
(0.105164 2.30997e-08 -6.78216e-07)
(0.106201 4.71614e-09 -5.8267e-07)
(0.105429 -7.73524e-10 -1.18449e-06)
(0.105164 7.13865e-08 -1.01326e-06)
(0.106201 -1.52676e-09 -8.44167e-07)
(0.105163 1.22299e-07 -1.19751e-06)
(0.1062 7.95724e-09 -9.87245e-07)
(0.104903 1.46159e-07 -3.41333e-07)
(0.104119 2.67485e-07 -3.32442e-07)
(0.105742 1.90932e-07 -2.51467e-07)
(0.104903 4.47476e-08 -4.92926e-07)
(0.104119 1.72404e-08 -2.58355e-07)
(0.105742 7.90064e-08 -2.92797e-07)
(0.104902 9.55689e-08 -7.72667e-07)
(0.104119 6.19939e-08 -4.49632e-07)
(0.105742 9.07935e-08 -4.70134e-07)
(0.104902 1.97222e-07 -1.0271e-06)
(0.104118 2.83318e-07 -7.91758e-07)
(0.105741 1.86909e-07 -7.11216e-07)
(0.104117 4.22799e-07 -9.92248e-07)
(0.10574 2.55814e-07 -8.54949e-07)
(0.103368 1.14501e-07 -2.51632e-07)
(0.101965 1.98282e-07 -2.11578e-07)
(0.104396 2.34563e-07 -2.91752e-07)
(0.103368 3.33599e-08 -2.20908e-07)
(0.101965 -1.01567e-07 -2.33198e-08)
(0.104396 7.16465e-08 -1.10335e-07)
(0.103368 2.84484e-07 -4.7473e-07)
(0.101965 2.34311e-07 -2.41257e-07)
(0.104396 2.21554e-07 -2.1417e-07)
(0.103367 5.52263e-07 -7.62091e-07)
(0.101965 7.94212e-07 -6.86683e-07)
(0.104395 5.12747e-07 -4.85036e-07)
(0.101963 9.88981e-07 -8.85732e-07)
(0.104394 6.57405e-07 -6.52824e-07)
(0.100663 8.4638e-08 1.63803e-09)
(0.102049 1.5446e-07 -1.3709e-07)
(0.100663 3.03594e-07 -6.15687e-08)
(0.0984897 3.04395e-07 -1.90287e-08)
(0.102049 1.66024e-07 2.52881e-07)
(0.100663 8.01384e-07 -4.58106e-07)
(0.0984899 7.85426e-07 -3.02846e-07)
(0.102049 5.51049e-07 6.03799e-09)
(0.100662 1.18912e-06 -8.07619e-07)
(0.0984899 1.60392e-06 -7.66854e-07)
(0.102049 1.09235e-06 -4.92678e-07)
(0.0984895 1.86295e-06 -9.79613e-07)
(0.102047 1.29228e-06 -6.83193e-07)
(0.096547 4.59739e-07 -2.1031e-07)
(0.0914162 6.64092e-07 -3.6821e-07)
(0.0984258 3.67241e-07 1.08434e-07)
(0.0965476 1.08712e-06 -5.43242e-07)
(0.0914163 -9.36603e-08 3.08148e-07)
(0.098426 8.36263e-07 -2.85021e-07)
(0.0965481 1.69787e-06 -8.63411e-07)
(0.0914168 -1.74271e-07 7.37917e-07)
(0.0984262 1.66273e-06 -9.32121e-07)
(0.0914182 8.14489e-07 -1.05365e-07)
(0.098426 2.07859e-06 -1.12534e-06)
(0.0870471 1.58358e-06 -1.18557e-06)
(0.0897309 1.36142e-06 -9.24646e-07)
(0.0870475 3.55155e-07 7.48074e-08)
(0.0897309 7.5911e-07 -1.1364e-07)
(0.0870476 -5.89435e-07 1.30084e-06)
(0.0897311 6.76385e-08 6.38192e-07)
(0.0870489 -1.02688e-07 1.15367e-06)
(0.089732 2.4621e-07 8.57272e-07)
(0.0897341 1.41954e-06 -1.07657e-07)
(0.0918218 -1.19664e-06 -6.79039e-07)
(0.0956474 -1.26379e-06 -4.95631e-07)
(0.0929515 -8.53046e-07 -3.47203e-07)
(0.0918224 -1.41849e-06 -3.2767e-07)
(0.0956474 -1.21204e-06 -3.24651e-07)
(0.0929518 -1.11284e-06 6.29542e-08)
(0.0918237 -1.96044e-06 -5.13109e-07)
(0.0956478 -1.53435e-06 -4.08584e-07)
(0.0929527 -1.75698e-06 4.7942e-08)
(0.0956484 -1.97373e-06 -8.35507e-07)
(0.0929547 -2.40269e-06 -5.66952e-07)
(0.0999914 -9.00394e-07 1.85548e-08)
(0.101601 -3.35712e-07 1.66819e-07)
(0.100948 -5.91616e-07 3.59809e-07)
(0.0999911 -1.22274e-06 -3.79059e-07)
(0.101601 -6.04315e-07 -1.34608e-07)
(0.100948 -9.07073e-07 1.45901e-07)
(0.0999906 -1.66534e-06 -7.92489e-07)
(0.101601 -1.17238e-06 -6.19104e-07)
(0.100948 -1.54795e-06 -3.03739e-07)
(0.1016 -1.51413e-06 -8.60336e-07)
(0.100947 -1.95155e-06 -6.15492e-07)
(0.103367 -1.64552e-07 1.01419e-07)
(0.104395 -1.36203e-07 6.1008e-08)
(0.104118 -2.09747e-07 1.06453e-07)
(0.103367 -2.97018e-07 -6.32957e-08)
(0.104395 -2.03343e-07 -1.35873e-08)
(0.104118 -2.65412e-07 1.88583e-08)
(0.103367 -6.29616e-07 -4.02145e-07)
(0.104395 -4.11138e-07 -2.81393e-07)
(0.104118 -5.41475e-07 -1.78141e-07)
(0.103367 -9.36786e-07 -6.68186e-07)
(0.104395 -6.91876e-07 -5.93433e-07)
(0.104118 -9.20754e-07 -4.14525e-07)
(0.104394 -8.37052e-07 -7.23817e-07)
(0.104117 -1.12772e-06 -5.24219e-07)
(0.10549 -1.17073e-07 -4.71171e-08)
(0.106065 -5.31195e-08 -2.90951e-08)
(0.106049 -1.27466e-07 1.49228e-08)
(0.10549 -2.23069e-07 -2.17693e-07)
(0.106065 -9.07019e-08 -1.39756e-07)
(0.106049 -1.85465e-07 -6.62257e-08)
(0.10549 -3.99007e-07 -4.60782e-07)
(0.106065 -2.1257e-07 -3.6699e-07)
(0.106049 -3.4834e-07 -2.40472e-07)
(0.105489 -5.39119e-07 -6.3988e-07)
(0.106065 -3.42965e-07 -5.91775e-07)
(0.106049 -5.32675e-07 -4.12292e-07)
(0.106064 -4.10524e-07 -7.00395e-07)
(0.106048 -6.28535e-07 -4.96452e-07)
(0.106662 -2.3034e-08 -1.22802e-07)
(0.106839 3.54827e-08 -9.60712e-08)
(0.107117 -3.60639e-08 -3.36114e-08)
(0.106662 -8.21746e-08 -2.91129e-07)
(0.106838 -1.67029e-09 -1.99343e-07)
(0.107117 -7.21931e-08 -1.17327e-07)
(0.106662 -1.63695e-07 -5.00552e-07)
(0.106838 -5.67476e-08 -3.93432e-07)
(0.107117 -1.50369e-07 -2.73768e-07)
(0.106661 -2.23662e-07 -6.54982e-07)
(0.106838 -9.88032e-08 -5.85517e-07)
(0.107116 -2.27487e-07 -4.21749e-07)
(0.106837 -1.177e-07 -6.86881e-07)
(0.107116 -2.68074e-07 -4.99955e-07)
(0.107017 5.7233e-08 -1.72927e-07)
(0.106822 1.05734e-07 -1.52848e-07)
(0.107447 4.37499e-08 -7.85096e-08)
(0.107017 2.57933e-08 -3.01543e-07)
(0.106822 7.54792e-08 -2.05132e-07)
(0.107447 2.29124e-08 -1.3827e-07)
(0.107017 8.78446e-09 -4.78311e-07)
(0.106822 8.18342e-08 -3.51203e-07)
(0.107447 8.16844e-09 -2.65148e-07)
(0.107016 5.99358e-09 -6.17496e-07)
(0.106822 1.12877e-07 -5.18554e-07)
(0.107447 3.76342e-09 -3.88849e-07)
(0.106821 1.3776e-07 -6.13671e-07)
(0.107446 4.82306e-09 -4.60558e-07)
(0.10663 1.52456e-07 -1.81178e-07)
(0.1071 1.14993e-07 -1.24244e-07)
(0.106629 1.21049e-07 -1.85186e-07)
(0.106049 1.67986e-07 -1.82315e-07)
(0.1071 1.07463e-07 -1.10551e-07)
(0.106629 1.26175e-07 -2.55454e-07)
(0.106049 1.46446e-07 -1.3468e-07)
(0.1071 1.12191e-07 -1.25809e-07)
(0.106629 1.83748e-07 -3.92057e-07)
(0.106049 2.43036e-07 -2.28184e-07)
(0.1071 1.6916e-07 -2.07388e-07)
(0.106629 2.45445e-07 -5.15164e-07)
(0.106049 3.86024e-07 -3.89279e-07)
(0.1071 2.44483e-07 -3.1063e-07)
(0.106048 4.67953e-07 -4.86352e-07)
(0.107099 2.89969e-07 -3.75127e-07)
(0.10549 1.91273e-07 -1.32803e-07)
(0.104486 2.14323e-07 -1.35302e-07)
(0.106066 1.84833e-07 -1.19599e-07)
(0.10549 2.69225e-07 -1.09729e-07)
(0.104486 2.55098e-07 3.21506e-08)
(0.106065 2.41354e-07 -5.20727e-08)
(0.10549 4.57506e-07 -2.2771e-07)
(0.104486 5.18065e-07 -7.25671e-08)
(0.106065 4.12451e-07 -9.35658e-08)
(0.10549 6.19873e-07 -3.62515e-07)
(0.104485 8.51466e-07 -3.0659e-07)
(0.106065 6.09992e-07 -1.93477e-07)
(0.104484 1.00891e-06 -4.26143e-07)
(0.106064 7.1078e-07 -2.60263e-07)
(0.103542 2.66226e-07 2.47185e-08)
(0.101947 3.04739e-07 2.5446e-08)
(0.104269 2.43043e-07 -3.75823e-08)
(0.103542 4.88702e-07 6.3872e-08)
(0.101947 4.64e-07 7.95942e-08)
(0.104268 4.09278e-07 6.2046e-08)
(0.103542 8.80681e-07 -1.53738e-07)
(0.101947 8.63149e-07 -1.01473e-07)
(0.104269 7.47788e-07 -1.44041e-08)
(0.103542 1.20065e-06 -3.69943e-07)
(0.101946 1.44935e-06 -4.19342e-07)
(0.104268 1.1409e-06 -1.71978e-07)
(0.101945 1.76534e-06 -5.61121e-07)
(0.104267 1.33216e-06 -2.56193e-07)
(0.100491 5.21701e-07 7.63561e-08)
(0.0963938 5.99429e-07 -1.7884e-07)
(0.101325 5.38566e-07 3.23165e-08)
(0.100491 7.97957e-07 -7.78744e-08)
(0.0963937 6.09485e-07 -7.44117e-08)
(0.101325 7.28094e-07 3.05064e-08)
(0.100491 1.322e-06 -3.53297e-07)
(0.096394 7.25384e-07 9.66464e-08)
(0.101325 1.12728e-06 -8.98212e-08)
(0.100491 1.8608e-06 -5.93907e-07)
(0.0963946 1.2986e-06 5.64882e-09)
(0.101325 1.75474e-06 -2.66515e-07)
(0.0963953 1.92966e-06 -3.11228e-07)
(0.101325 2.13448e-06 -3.70024e-07)
(0.0927849 6.80215e-07 -3.05707e-07)
(0.0936158 5.41862e-07 -4.53898e-07)
(0.0927853 6.36001e-07 8.02199e-08)
(0.0936157 5.41704e-07 -1.34242e-07)
(0.0927861 8.99052e-07 3.89564e-07)
(0.0936162 7.06789e-07 3.52233e-07)
(0.0927876 1.61153e-06 2.11868e-07)
(0.0936172 1.44424e-06 4.41049e-07)
(0.0936192 2.23768e-06 5.95539e-08)
(0.094163 -3.6545e-07 -3.80766e-07)
(0.0978438 -3.15635e-07 -2.26313e-07)
(0.0944922 -1.51334e-07 -1.6454e-07)
(0.0941633 -7.87951e-07 -1.26544e-07)
(0.097844 -4.95924e-07 1.63579e-08)
(0.0944925 -4.35363e-07 -4.22579e-07)
(0.0941641 -1.47956e-06 2.34383e-08)
(0.0978443 -1.00508e-06 1.08174e-07)
(0.094493 -9.55469e-07 -3.30635e-07)
(0.0941655 -2.21912e-06 -1.7156e-07)
(0.0978447 -1.8206e-06 -6.51153e-08)
(0.094494 -1.90556e-06 -2.89988e-07)
(0.0978453 -2.25233e-06 -3.53368e-07)
(0.0944959 -2.51985e-06 -3.97231e-07)
(0.101957 -3.86223e-07 2.16565e-07)
(0.103369 -3.27359e-07 7.27197e-08)
(0.102276 -4.05875e-07 5.79411e-08)
(0.101957 -5.94863e-07 2.96836e-07)
(0.103369 -3.50825e-07 2.29655e-07)
(0.102276 -4.58447e-07 1.75066e-07)
(0.101957 -1.23723e-06 4.03705e-08)
(0.103369 -7.6199e-07 8.08489e-08)
(0.102276 -9.64815e-07 8.39604e-08)
(0.101956 -1.84221e-06 -2.53381e-07)
(0.103369 -1.35499e-06 -1.84886e-07)
(0.102276 -1.69851e-06 -1.00481e-07)
(0.103368 -1.68376e-06 -3.50083e-07)
(0.102275 -2.10394e-06 -2.38336e-07)
(0.104902 -2.45625e-07 4.56277e-08)
(0.105741 -2.16912e-07 1.05396e-08)
(0.105164 -1.98113e-07 -1.85923e-08)
(0.104902 -3.14335e-07 7.55477e-08)
(0.105741 -2.21908e-07 5.84847e-08)
(0.105164 -2.68593e-07 5.66901e-08)
(0.104902 -5.15503e-07 1.39968e-09)
(0.105741 -2.97506e-07 2.79988e-08)
(0.105164 -4.2059e-07 8.31801e-08)
(0.104902 -8.3744e-07 -1.47544e-07)
(0.105741 -5.26414e-07 -9.52363e-08)
(0.105164 -7.21868e-07 7.66706e-09)
(0.104902 -1.11541e-06 -2.73341e-07)
(0.105741 -8.01369e-07 -2.35501e-07)
(0.105164 -1.07517e-06 -1.02939e-07)
(0.10574 -9.58273e-07 -3.07916e-07)
(0.105163 -1.26943e-06 -1.70192e-07)
(0.106629 -1.57934e-07 2.78595e-08)
(0.1071 -1.04217e-07 1.47844e-08)
(0.106822 -1.34047e-07 1.68498e-08)
(0.106629 -1.97865e-07 9.66141e-09)
(0.1071 -1.16294e-07 1.95386e-08)
(0.106822 -1.70231e-07 2.51109e-08)
(0.106629 -3.12961e-07 -7.22838e-08)
(0.1071 -1.71411e-07 -3.30731e-08)
(0.106822 -2.62175e-07 2.95621e-09)
(0.106629 -4.83648e-07 -1.84753e-07)
(0.1071 -2.87721e-07 -1.3964e-07)
(0.106822 -4.33811e-07 -5.95236e-08)
(0.106629 -6.23353e-07 -2.68899e-07)
(0.1071 -4.11593e-07 -2.4115e-07)
(0.106822 -6.1324e-07 -1.24486e-07)
(0.107099 -4.82672e-07 -2.9422e-07)
(0.106821 -7.11451e-07 -1.6106e-07)
(0.107587 -6.43733e-08 5.65856e-09)
(0.107738 -2.40629e-08 -5.14816e-09)
(0.107738 -5.95505e-08 2.16675e-08)
(0.107587 -8.64873e-08 -2.35541e-08)
(0.107738 -2.93655e-08 -7.64425e-09)
(0.107738 -7.59568e-08 1.81954e-08)
(0.107586 -1.41097e-07 -1.00614e-07)
(0.107738 -5.06216e-08 -5.50422e-08)
(0.107738 -1.20953e-07 -1.06461e-08)
(0.107586 -2.14526e-07 -1.96669e-07)
(0.107738 -8.79877e-08 -1.46124e-07)
(0.107738 -1.99126e-07 -6.54188e-08)
(0.107586 -2.72202e-07 -2.67372e-07)
(0.107738 -1.24236e-07 -2.27081e-07)
(0.107738 -2.71425e-07 -1.15487e-07)
(0.107737 -1.44807e-07 -2.72865e-07)
(0.107737 -3.12517e-07 -1.44203e-07)
(0.107891 1.09084e-08 -1.86338e-08)
(0.107738 3.54655e-08 -3.68676e-08)
(0.108031 8.23221e-11 1.17309e-08)
(0.107891 8.37865e-09 -3.90683e-08)
(0.107738 4.44718e-08 -3.09532e-08)
(0.108031 -5.87172e-10 1.30426e-08)
(0.107891 5.12666e-09 -1.00349e-07)
(0.107738 6.32102e-08 -5.45777e-08)
(0.108031 -6.32049e-09 -7.19641e-09)
(0.107891 3.62506e-09 -1.76411e-07)
(0.107738 9.92544e-08 -1.18986e-07)
(0.108031 -3.89154e-09 -4.58351e-08)
(0.10789 3.23396e-09 -2.32541e-07)
(0.107738 1.36316e-07 -1.82951e-07)
(0.108031 -3.22014e-10 -7.89422e-08)
(0.107737 1.57619e-07 -2.22175e-07)
(0.10803 -2.53862e-09 -1.02974e-07)
(0.107587 6.82926e-08 -4.90582e-08)
(0.107117 8.14836e-08 -7.36792e-08)
(0.107738 4.2274e-08 -9.89071e-09)
(0.107587 9.79126e-08 -4.65034e-08)
(0.107117 1.25531e-07 -4.78761e-08)
(0.107738 6.35661e-08 -6.98698e-10)
(0.107587 1.55501e-07 -7.3454e-08)
(0.107117 2.03197e-07 -3.29743e-08)
(0.107738 1.11524e-07 2.03482e-09)
(0.107586 2.31233e-07 -1.25755e-07)
(0.107117 3.32717e-07 -6.57121e-08)
(0.107738 1.94256e-07 -1.25018e-08)
(0.107586 2.90782e-07 -1.72762e-07)
(0.107116 4.61195e-07 -1.18195e-07)
(0.107738 2.69364e-07 -3.5074e-08)
(0.107116 5.30878e-07 -1.51757e-07)
(0.107737 3.11531e-07 -5.10587e-08)
(0.106662 1.3638e-07 -7.21978e-08)
(0.105821 9.47051e-08 -7.78096e-08)
(0.106839 8.33778e-08 -3.25642e-08)
(0.106662 2.35242e-07 -3.4077e-08)
(0.105821 2.4503e-07 -3.4434e-08)
(0.106839 1.60536e-07 -1.48944e-08)
(0.106662 3.85273e-07 -2.54151e-08)
(0.105821 4.20504e-07 7.74264e-09)
(0.106839 2.84687e-07 1.18062e-08)
(0.106662 5.67319e-07 -5.85442e-08)
(0.105821 6.77623e-07 -1.79119e-08)
(0.106839 4.72301e-07 2.0009e-08)
(0.106662 7.04266e-07 -9.77392e-08)
(0.105821 9.42973e-07 -7.48239e-08)
(0.106838 6.546e-07 1.40799e-08)
(0.10582 1.07918e-06 -1.06548e-07)
(0.106838 7.49159e-07 5.99214e-09)
(0.105027 1.90514e-07 -4.14778e-08)
(0.103558 5.74064e-08 -4.51101e-09)
(0.105227 1.07919e-07 3.71918e-09)
(0.105026 3.87721e-07 4.39616e-09)
(0.103558 4.56764e-07 -1.94889e-08)
(0.105227 2.64903e-07 -2.16078e-08)
(0.105026 6.66479e-07 1.22708e-08)
(0.103558 6.90755e-07 6.9669e-09)
(0.105226 4.88849e-07 -1.19529e-09)
(0.105026 1.01201e-06 -3.62469e-08)
(0.103558 1.07187e-06 -1.92899e-08)
(0.105226 8.23148e-07 1.63507e-08)
(0.105026 1.28046e-06 -8.50394e-08)
(0.103558 1.57763e-06 -8.26773e-08)
(0.105226 1.17854e-06 2.33015e-08)
(0.103557 1.84073e-06 -1.16378e-07)
(0.105225 1.36119e-06 2.63561e-08)
(0.102205 3.23873e-07 1.52909e-08)
(0.102402 7.883e-08 6.62863e-08)
(0.102205 7.51048e-07 -1.59291e-08)
(0.0981426 4.03786e-07 -1.60486e-07)
(0.102402 5.00103e-07 -2.05912e-08)
(0.102205 1.07463e-06 -2.32555e-08)
(0.0981426 5.6122e-07 -2.88218e-08)
(0.102402 7.6866e-07 -2.0803e-08)
(0.102205 1.58288e-06 -6.5311e-08)
(0.0981429 9.88697e-07 1.48111e-07)
(0.102402 1.23208e-06 6.80002e-09)
(0.102205 2.05271e-06 -1.14164e-07)
(0.0981433 1.79206e-06 1.74868e-07)
(0.102402 1.87209e-06 3.91875e-08)
(0.0981439 2.26366e-06 4.66839e-08)
(0.102401 2.21428e-06 5.10188e-08)
(0.0945068 3.62354e-07 -1.65671e-07)
(0.0946663 2.79565e-07 -6.82978e-08)
(0.094507 6.13378e-07 1.3335e-07)
(0.0946664 4.20292e-07 6.01832e-08)
(0.0945077 1.27546e-06 3.64218e-07)
(0.0946669 8.67542e-07 2.56008e-07)
(0.0945089 2.08162e-06 3.11753e-07)
(0.0946678 1.82021e-06 3.61998e-07)
(0.0946696 2.47444e-06 2.96383e-07)
(0.0948292 -2.18077e-07 -2.37143e-07)
(0.0985095 -2.03503e-07 -1.4182e-09)
(0.0946661 -4.53466e-08 -1.34004e-07)
(0.0948296 -6.09722e-07 -4.43185e-07)
(0.0985096 -4.47539e-07 -1.7657e-07)
(0.0946662 -2.22478e-07 -5.06201e-07)
(0.0948303 -1.39002e-06 -4.47098e-07)
(0.09851 -9.94693e-07 -2.36654e-07)
(0.0946668 -7.41626e-07 -5.65049e-07)
(0.0948316 -2.2125e-06 -3.84812e-07)
(0.0985104 -1.86253e-06 -2.47538e-07)
(0.0946676 -1.74388e-06 -4.48081e-07)
(0.098511 -2.30427e-06 -2.30145e-07)
(0.0946694 -2.46419e-06 -2.05557e-07)
(0.102602 -4.82306e-07 7.19833e-08)
(0.10396 -3.34713e-07 5.38251e-08)
(0.102401 -4.542e-07 7.67666e-08)
(0.102602 -8.36259e-07 5.72998e-08)
(0.10396 -5.2367e-07 8.20067e-08)
(0.102401 -6.65658e-07 6.82401e-08)
(0.102602 -1.43057e-06 -1.0052e-08)
(0.10396 -9.40735e-07 4.56563e-08)
(0.102402 -1.12629e-06 5.18627e-08)
(0.102601 -1.96157e-06 -7.8721e-08)
(0.103959 -1.48333e-06 -2.50126e-08)
(0.102401 -1.78635e-06 4.20748e-08)
(0.103959 -1.77822e-06 -7.22335e-08)
(0.102401 -2.15903e-06 5.1294e-08)
(0.105429 -1.35117e-07 -1.59013e-08)
(0.106201 -1.04921e-07 8.98119e-09)
(0.105429 -2.22711e-07 1.76283e-08)
(0.106201 -1.50157e-07 4.42534e-09)
(0.105226 -1.33106e-07 -1.02174e-08)
(0.105429 -3.75199e-07 6.3164e-08)
(0.106201 -2.41709e-07 3.24427e-08)
(0.105226 -2.73296e-07 2.40011e-08)
(0.105429 -6.2634e-07 7.02228e-08)
(0.106201 -3.92491e-07 5.01386e-08)
(0.105226 -4.7636e-07 5.91739e-08)
(0.105429 -9.59076e-07 3.40213e-08)
(0.106201 -6.42291e-07 3.31991e-08)
(0.105226 -7.99565e-07 8.62039e-08)
(0.105428 -1.22903e-06 -1.16612e-08)
(0.106201 -9.06475e-07 -2.76628e-09)
(0.105226 -1.15485e-06 9.47502e-08)
(0.1062 -1.05202e-06 -2.99261e-08)
(0.105225 -1.34343e-06 8.87181e-08)
(0.107017 -1.05855e-07 3.19527e-08)
(0.107447 -7.66453e-08 4.8155e-08)
(0.107017 -1.46869e-07 2.137e-08)
(0.107447 -8.62754e-08 3.28963e-08)
(0.106838 -9.43928e-08 1.77e-08)
(0.107017 -2.34911e-07 2.02751e-08)
(0.107447 -1.28158e-07 2.82938e-08)
(0.106838 -1.60977e-07 -6.92033e-09)
(0.107017 -3.83221e-07 1.3423e-08)
(0.107447 -2.13665e-07 2.40404e-08)
(0.106838 -2.88121e-07 7.02973e-09)
(0.107017 -5.63487e-07 -3.0609e-09)
(0.107447 -3.46729e-07 1.23226e-08)
(0.106838 -4.80575e-07 4.16443e-08)
(0.107016 -7.01425e-07 -1.98922e-08)