/*--------------------------------*- C++ -*----------------------------------*\
| =========                 |                                                 |
| \\      /  F ield         | OpenFOAM: The Open Source CFD Toolbox           |
|  \\    /   O peration     | Version:  2212                                  |
|   \\  /    A nd           | Website:  www.openfoam.com                      |
|    \\/     M anipulation  |                                                 |
\*---------------------------------------------------------------------------*/
FoamFile
{
    version     2.0;
    format      ascii;
    arch        "LSB;label=32;scalar=64";
    class       surfaceVectorField;
    location    "0.75";
    object      Uf;
}
// * * * * * * * * * * * * * * * * * * * * * * * * * * * * * * * * * * * * * //

dimensions      [0 1 -1 0 0 0 0];

internalField   nonuniform List<vector> 
1786
(
(0.080778 -0.000360728 0.000310178)
(0.0789462 -0.000399635 0.000311191)
(0.0920268 -0.000403353 0.000345157)
(0.0805043 -0.000341046 0.000310135)
(0.0786256 -0.00037115 0.000315497)
(0.0919388 -0.000383868 0.000347295)
(0.0802344 -0.000316831 0.000300342)
(0.0783142 -0.000340736 0.00030827)
(0.0918375 -0.000358782 0.000339243)
(0.0799754 -0.000290357 0.000284663)
(0.0780178 -0.000309915 0.000294291)
(0.0917292 -0.000330929 0.00032468)
(0.079731 -0.000263198 0.000265465)
(0.0777415 -0.000279027 0.000276049)
(0.0916193 -0.000302119 0.000306165)
(0.0795035 -0.000236884 0.000244411)
(0.077487 -0.000249456 0.000255277)
(0.0915108 -0.000273873 0.000285499)
(0.0792938 -0.000212366 0.000222763)
(0.0772536 -0.000222488 0.000233339)
(0.0914057 -0.00024756 0.000264221)
(0.0791018 -0.000190034 0.000201407)
(0.0770425 -0.000198256 0.00021104)
(0.0913055 -0.000223391 0.000242965)
(0.0789266 -0.000171104 0.000181456)
(0.0768493 -0.000176456 0.000189917)
(0.0912113 -0.000201208 0.000222024)
(0.078768 -0.00015727 0.000164222)
(0.0766788 -0.000160134 0.000170819)
(0.0911228 -0.000181316 0.000201823)
(0.0765276 -0.000150412 0.000154004)
(0.0910452 -0.000159694 0.000178934)
(0.076842 -0.000407169 0.000318404)
(0.0731283 -0.000395846 0.000329823)
(0.0889526 -0.000532679 0.000296431)
(0.07648 -0.000368541 0.000315244)
(0.0727129 -0.000355199 0.000325589)
(0.0887685 -0.000481743 0.000307497)
(0.0761417 -0.000331803 0.000303731)
(0.0723307 -0.000319753 0.000312162)
(0.0885895 -0.000432722 0.000305891)
(0.0758297 -0.000296612 0.000287243)
(0.0719817 -0.000287187 0.000293509)
(0.0884185 -0.000386311 0.000297356)
(0.0755438 -0.00026342 0.0002674)
(0.0716649 -0.000254823 0.000272229)
(0.0882586 -0.000343074 0.000283732)
(0.075284 -0.000233633 0.00024542)
(0.0713853 -0.00022489 0.000248456)
(0.0881098 -0.000304301 0.000266323)
(0.0750491 -0.000207281 0.000222585)
(0.0711304 -0.000198721 0.000223572)
(0.0879724 -0.000270782 0.000246965)
(0.0748378 -0.000183839 0.000200323)
(0.070907 -0.000175768 0.000200155)
(0.087847 -0.000240042 0.000226648)
(0.0746473 -0.000164622 0.00018008)
(0.0707017 -0.000156644 0.000179197)
(0.0877301 -0.000213996 0.00020819)
(0.0744754 -0.000151592 0.000162088)
(0.0705249 -0.000141488 0.000160915)
(0.0876257 -0.000190556 0.000189967)
(0.0703671 -0.000131461 0.000144052)
(0.0875348 -0.000162927 0.00016697)
(0.0692697 -0.000339455 0.000340762)
(0.0637326 -0.000281133 0.000319959)
(0.082877 -0.000525136 0.000307612)
(0.0688307 -0.000304866 0.000324699)
(0.0632799 -0.000253247 0.000302123)
(0.0825801 -0.000466461 0.000306595)
(0.0684381 -0.000275139 0.000303279)
(0.0628782 -0.000231455 0.000278603)
(0.0823126 -0.000414712 0.000296381)
(0.0680885 -0.000246184 0.000279422)
(0.0625138 -0.000209791 0.000254522)
(0.0820744 -0.000365918 0.000280819)
(0.0677778 -0.000217359 0.000254115)
(0.0621949 -0.000187856 0.000230467)
(0.0818605 -0.000323135 0.000263183)
(0.0675032 -0.000190044 0.000228185)
(0.061913 -0.000164886 0.000206464)
(0.0816751 -0.000281893 0.000242111)
(0.0672603 -0.000166247 0.000203415)
(0.0616653 -0.000142076 0.000183467)
(0.0815044 -0.000243965 0.000219438)
(0.0670445 -0.000147093 0.000181535)
(0.0614498 -0.000123744 0.000162281)
(0.081355 -0.000213533 0.000198949)
(0.0668503 -0.000131747 0.00016259)
(0.0612562 -0.000109661 0.000144318)
(0.0812182 -0.000190338 0.000181653)
(0.0666761 -0.000119899 0.000145185)
(0.0610876 -9.73151e-05 0.000128376)
(0.0811015 -0.000168598 0.000164253)
(0.0609443 -8.64323e-05 0.000112986)
(0.080998 -0.000138422 0.000142146)
(0.0589242 -0.000251816 0.000289936)
(0.051262 -0.00017019 0.000221015)
(0.0738661 -0.000477887 0.000275563)
(0.0584467 -0.000225893 0.000273554)
(0.0507966 -0.000152179 0.000209246)
(0.0734572 -0.000419946 0.000267931)
(0.0580233 -0.000205004 0.000251187)
(0.0503901 -0.000136836 0.000192092)
(0.0731027 -0.000369329 0.00025217)
(0.0576489 -0.0001866 0.000227191)
(0.0500314 -0.000123351 0.000172951)
(0.072789 -0.000321497 0.000231697)
(0.0573176 -0.000168805 0.000204107)
(0.0497119 -0.000111845 0.000154816)
(0.0725115 -0.000282102 0.000211759)
(0.0570241 -0.000150339 0.000182027)
(0.0494351 -0.000101116 0.000137765)
(0.0722714 -0.000249424 0.000192922)
(0.0567676 -0.000130857 0.000160909)
(0.0491882 -8.90537e-05 0.000121851)
(0.0720617 -0.000217147 0.00017394)
(0.0565459 -0.000112626 0.000141425)
(0.0489766 -7.70077e-05 0.000106927)
(0.0718782 -0.000187299 0.000155394)
(0.0563531 -9.79309e-05 0.000124427)
(0.0487928 -6.61009e-05 9.39277e-05)
(0.0717188 -0.000161273 0.000138316)
(0.0561815 -8.52326e-05 0.00010992)
(0.0486321 -5.79755e-05 8.2854e-05)
(0.0715756 -0.000142962 0.000123754)
(0.0560289 -7.21804e-05 9.66238e-05)
(0.0484894 -4.9153e-05 7.38291e-05)
(0.0714497 -0.000124499 0.000110529)
(0.0483784 -3.78693e-05 6.46682e-05)
(0.0713429 -9.5092e-05 9.4755e-05)
(0.0446927 -7.048e-05 0.000161474)
(0.0355148 -4.08414e-05 0.000103338)
(0.0592438 -0.000255933 0.000181804)
(0.0442868 -6.14527e-05 0.000148476)
(0.0351558 -3.67147e-05 9.55307e-05)
(0.0588079 -0.000225133 0.00016712)
(0.0439315 -5.25098e-05 0.000133621)
(0.0348414 -3.16949e-05 8.69208e-05)
(0.0584335 -0.0001938 0.000150435)
(0.0436236 -4.53708e-05 0.000119068)
(0.0345629 -2.60994e-05 7.83467e-05)
(0.0581027 -0.000162116 0.000133608)
(0.0433539 -4.02372e-05 0.000105664)
(0.0343231 -2.22812e-05 7.03067e-05)
(0.057815 -0.000137743 0.000118508)
(0.0431157 -3.54164e-05 9.33557e-05)
(0.0341128 -1.93693e-05 6.27381e-05)
(0.0575626 -0.000119054 0.000105077)
(0.0429082 -3.02876e-05 8.21705e-05)
(0.0339287 -1.65285e-05 5.57492e-05)
(0.0573415 -0.000102268 9.30365e-05)
(0.0427293 -2.52149e-05 7.22932e-05)
(0.0337697 -1.35056e-05 4.94286e-05)
(0.0571485 -8.66151e-05 8.23998e-05)
(0.0425751 -2.08725e-05 6.38783e-05)
(0.0336336 -1.07989e-05 4.40228e-05)
(0.0569832 -7.35832e-05 7.3239e-05)
(0.042439 -1.68017e-05 5.70469e-05)
(0.0335154 -8.67877e-06 3.94186e-05)
(0.0568362 -6.39154e-05 6.54322e-05)
(0.0423194 -1.00355e-05 5.10147e-05)
(0.0334099 -5.85589e-06 3.60124e-05)
(0.0567055 -5.55637e-05 5.92924e-05)
(0.0333343 7.65442e-07 3.29453e-05)
(0.0566028 -3.40173e-05 5.22871e-05)
(0.0291044 -2.34672e-05 5.69096e-05)
(0.0367289 -0.000114879 4.53522e-05)
(0.0288101 -2.19022e-05 5.18848e-05)
(0.0363746 -0.000103142 3.99678e-05)
(0.0285496 -1.97686e-05 4.73134e-05)
(0.0360646 -9.23455e-05 3.60589e-05)
(0.0283254 -1.73675e-05 4.30299e-05)
(0.0357899 -8.09084e-05 3.30819e-05)
(0.0281308 -1.54416e-05 3.89043e-05)
(0.0355533 -7.05748e-05 3.04339e-05)
(0.02796 -1.37532e-05 3.49989e-05)
(0.0353452 -6.20039e-05 2.78669e-05)
(0.027812 -1.19606e-05 3.14292e-05)
(0.0351636 -5.39096e-05 2.55771e-05)
(0.0276854 -1.0294e-05 2.82964e-05)
(0.035006 -4.6624e-05 2.3602e-05)
(0.0275767 -8.96713e-06 2.56042e-05)
(0.0348713 -4.06743e-05 2.20239e-05)
(0.0274817 -7.81386e-06 2.34311e-05)
(0.0347541 -3.61482e-05 2.06636e-05)
(0.0274011 -5.74064e-06 2.17959e-05)
(0.0346497 -3.20923e-05 1.97368e-05)
(0.0345741 -2.59647e-05 1.9288e-05)
(0.104443 -0.000412929 0.000367799)
(0.103324 -0.000528783 0.000309023)
(0.108842 -0.000436308 0.000400806)
(0.104545 -0.000393826 0.000368124)
(0.103392 -0.000492029 0.00032544)
(0.109005 -0.000416146 0.000396563)
(0.104624 -0.000369026 0.000359615)
(0.103442 -0.000451901 0.000328367)
(0.109144 -0.000390809 0.000385172)
(0.104681 -0.000341473 0.000345173)
(0.103477 -0.000410382 0.000322784)
(0.109261 -0.00036252 0.000368564)
(0.104723 -0.000313608 0.000327493)
(0.103499 -0.000370915 0.00031153)
(0.109359 -0.000334001 0.000349183)
(0.10475 -0.000287053 0.000308541)
(0.10351 -0.000334539 0.000296783)
(0.109441 -0.000306721 0.000328982)
(0.104767 -0.000262644 0.000289453)
(0.103513 -0.000302245 0.000280541)
(0.109509 -0.000281755 0.000309319)
(0.104774 -0.000240375 0.000270623)
(0.10351 -0.000273132 0.000262998)
(0.109564 -0.000258818 0.000290117)
(0.104775 -0.000217993 0.000250435)
(0.103502 -0.000248516 0.000246786)
(0.109611 -0.000235719 0.000269509)
(0.104773 -0.000187842 0.000222274)
(0.103488 -0.000220037 0.000227022)
(0.109651 -0.000209285 0.000245184)
(0.103478 -0.000174997 0.000193214)
(0.109684 -0.000174144 0.000212343)
(0.102292 -0.000603353 0.000269989)
(0.10012 -0.000664973 0.000252069)
(0.107147 -0.000693833 0.000261185)
(0.102308 -0.000546353 0.000288461)
(0.100072 -0.000598561 0.000274325)
(0.107234 -0.000628933 0.000279216)
(0.102315 -0.000490148 0.000293877)
(0.100025 -0.000533766 0.000281919)
(0.107308 -0.000565439 0.000285545)
(0.102314 -0.000437209 0.000291145)
(0.0999812 -0.000471108 0.000279554)
(0.10737 -0.000505406 0.000284065)
(0.102307 -0.000389752 0.000282443)
(0.0999388 -0.000418364 0.000272395)
(0.107423 -0.000451802 0.000277238)
(0.102295 -0.000348444 0.000269768)
(0.0998972 -0.000370543 0.000259586)
(0.107467 -0.000404234 0.000266719)
(0.102278 -0.000311715 0.000254895)
(0.0998558 -0.000328074 0.000243531)
(0.107504 -0.000362995 0.000254507)
(0.102258 -0.000279758 0.000240431)
(0.0998144 -0.000289949 0.000227652)
(0.107534 -0.000324234 0.000239989)
(0.102235 -0.000249203 0.00022453)
(0.0997754 -0.000258907 0.0002143)
(0.107561 -0.000290292 0.00022548)
(0.102215 -0.000206737 0.000198418)
(0.099739 -0.000227259 0.000196316)
(0.107581 -0.000255085 0.000207508)
(0.0997098 -0.000173574 0.000164716)
(0.107603 -0.000204564 0.000178969)
(0.0980147 -0.000657368 0.000257727)
(0.0942767 -0.000651721 0.000248986)
(0.103588 -0.000809607 0.000229847)
(0.0979065 -0.00058495 0.000268317)
(0.0940943 -0.000578874 0.000253246)
(0.103555 -0.00072092 0.000241011)
(0.097811 -0.000514963 0.000267644)
(0.0939293 -0.000506541 0.000247605)
(0.10353 -0.000636796 0.000242893)
(0.0977279 -0.000452601 0.000261063)
(0.0937924 -0.000440691 0.000237116)
(0.103511 -0.00055895 0.0002376)
(0.0976527 -0.000398642 0.000250585)
(0.0936699 -0.000387194 0.000226049)
(0.103497 -0.000495298 0.000230013)
(0.0975831 -0.000348353 0.000235577)
(0.0935684 -0.000337067 0.000211703)
(0.103485 -0.000435266 0.000217966)
(0.0975188 -0.000304219 0.000218901)
(0.0934722 -0.000293367 0.000195633)
(0.103476 -0.000380126 0.000203364)
(0.0974595 -0.000268434 0.000203209)
(0.0933878 -0.000256119 0.000179321)
(0.103466 -0.000336342 0.000189396)
(0.0974061 -0.000237158 0.00018717)
(0.0933094 -0.000229811 0.000164715)
(0.10346 -0.000303707 0.000177137)
(0.0973608 -0.000193944 0.000163888)
(0.0932421 -0.000203848 0.00014953)
(0.103455 -0.000268015 0.000162465)
(0.093181 -0.000153515 0.000125613)
(0.103452 -0.000210795 0.000139068)
(0.0909737 -0.000666416 0.000242718)
(0.0836965 -0.000583832 0.000210591)
(0.0974656 -0.000875985 0.000221538)
(0.0907024 -0.000585397 0.000240123)
(0.0833237 -0.000515859 0.000201703)
(0.0972729 -0.000776483 0.00021465)
(0.0904682 -0.000509872 0.000230825)
(0.0830085 -0.000451896 0.000189773)
(0.0971171 -0.000681452 0.000204493)
(0.0902676 -0.000440067 0.000216945)
(0.0827289 -0.000387601 0.000174571)
(0.0969869 -0.000589294 0.000190746)
(0.0900966 -0.000383121 0.000202181)
(0.0824903 -0.000335713 0.000159487)
(0.0968837 -0.000515838 0.000176487)
(0.0899496 -0.000334102 0.000186947)
(0.0822801 -0.000294457 0.000145492)
(0.0967942 -0.000456012 0.000162641)
(0.0898227 -0.000290399 0.000171474)
(0.0821019 -0.000255916 0.000132018)
(0.0967245 -0.000400148 0.000148274)
(0.0897107 -0.000252289 0.000156299)
(0.0819412 -0.000221055 0.00011994)
(0.0966578 -0.000350333 0.000134745)
(0.08961 -0.000222098 0.000142275)
(0.0818045 -0.000191088 0.000108376)
(0.0966018 -0.000308085 0.000122285)
(0.0895165 -0.000198312 0.000129804)
(0.0816781 -0.000170018 9.85046e-05)
(0.0965494 -0.000278292 0.000112179)
(0.0894309 -0.000163035 0.000114681)
(0.0815668 -0.000151526 8.98804e-05)
(0.0965062 -0.000248698 0.000102726)
(0.0814701 -0.000112798 7.73184e-05)
(0.0964673 -0.000196782 8.93321e-05)
(0.0770792 -0.000433324 0.000182077)
(0.0609357 -0.000302985 9.43376e-05)
(0.085012 -0.000617897 0.000160768)
(0.0766692 -0.0003798 0.000165179)
(0.0605065 -0.000267992 8.499e-05)
(0.0846724 -0.000548162 0.000138121)
(0.0763143 -0.000325041 0.000148145)
(0.0601382 -0.000233046 7.66298e-05)
(0.084382 -0.000479098 0.00011704)
(0.0760074 -0.000275802 0.000132494)
(0.0598127 -0.000197787 7.00305e-05)
(0.0841292 -0.000413974 0.000100141)
(0.0757387 -0.000237192 0.000118605)
(0.0595294 -0.000169196 6.43276e-05)
(0.0839095 -0.00036123 8.68037e-05)
(0.0755019 -0.000205188 0.000106149)
(0.0592802 -0.00014676 5.88348e-05)
(0.0837204 -0.000317329 7.58205e-05)
(0.0752948 -0.000175983 9.50183e-05)
(0.0590625 -0.000126438 5.37646e-05)
(0.083556 -0.000277306 6.64336e-05)
(0.0751153 -0.000150315 8.52343e-05)
(0.0588715 -0.000107999 4.91874e-05)
(0.0834113 -0.000239359 5.86026e-05)
(0.074958 -0.000130245 7.67055e-05)
(0.0587082 -9.26122e-05 4.5378e-05)
(0.083286 -0.000208942 5.202e-05)
(0.0748164 -0.000115212 6.96339e-05)
(0.0585626 -8.0932e-05 4.20502e-05)
(0.0831719 -0.000185391 4.64011e-05)
(0.0746864 -9.18766e-05 6.31666e-05)
(0.0584333 -7.13042e-05 3.9764e-05)
(0.0830699 -0.000168125 4.19505e-05)
(0.0583307 -5.00632e-05 3.79844e-05)
(0.0829819 -0.000131505 3.94425e-05)
(0.0477348 -0.000191539 8.52856e-06)
(0.0557689 -0.000266319 -5.11427e-05)
(0.0473399 -0.000171403 6.03159e-06)
(0.0553417 -0.000240093 -5.4864e-05)
(0.0469952 -0.000152634 5.90274e-06)
(0.0549732 -0.00021657 -5.36207e-05)
(0.0466958 -0.00013526 7.03391e-06)
(0.0546396 -0.000196185 -4.85073e-05)
(0.0464328 -0.000119736 8.15695e-06)
(0.0543513 -0.000177726 -4.23746e-05)
(0.0462006 -0.000105378 9.04203e-06)
(0.0540919 -0.000159939 -3.65604e-05)
(0.0459978 -9.17943e-05 9.88846e-06)
(0.0538685 -0.000141955 -3.07536e-05)
(0.0458228 -7.99459e-05 1.07585e-05)
(0.053669 -0.000124477 -2.5138e-05)
(0.0456712 -7.03472e-05 1.15439e-05)
(0.0534998 -0.000109683 -1.99062e-05)
(0.0455381 -6.26305e-05 1.23022e-05)
(0.0533484 -9.74406e-05 -1.56298e-05)
(0.0454206 -5.45027e-05 1.34516e-05)
(0.0532158 -8.67705e-05 -1.17126e-05)
(0.0531109 -7.73007e-05 -8.00988e-06)
(0.113771 -0.000425338 0.000415707)
(0.113043 -0.000591414 0.000334828)
(0.115929 -0.000398909 0.000394415)
(0.113976 -0.000398525 0.000398952)
(0.113229 -0.000542138 0.000331757)
(0.116167 -0.000372207 0.000374792)
(0.114158 -0.000369845 0.000379346)
(0.113396 -0.000492912 0.000323931)
(0.116383 -0.000344376 0.00035371)
(0.11432 -0.000341068 0.000358094)
(0.113546 -0.000446026 0.0003122)
(0.116576 -0.000316326 0.000331569)
(0.114462 -0.000313681 0.000336609)
(0.113679 -0.000403511 0.000298184)
(0.11675 -0.000289608 0.000309514)
(0.114588 -0.000288394 0.000316012)
(0.113797 -0.000364582 0.000283247)
(0.116905 -0.000264733 0.000288339)
(0.114698 -0.000264864 0.000296127)
(0.113902 -0.000329878 0.000268524)
(0.117043 -0.000242045 0.000268648)
(0.114796 -0.000240072 0.000274025)
(0.113995 -0.000296933 0.000251803)
(0.117167 -0.000220628 0.000249466)
(0.114885 -0.000211648 0.000247937)
(0.11408 -0.000263815 0.000231048)
(0.117278 -0.000197581 0.000228066)
(0.114966 -0.000180412 0.000219155)
(0.114158 -0.000229722 0.000208468)
(0.117378 -0.00017106 0.000203246)
(0.114225 -0.000189296 0.000182718)
(0.117464 -0.000141616 0.000175463)
(0.112508 -0.000705331 0.000252829)
(0.111005 -0.000830218 0.000219065)
(0.114892 -0.000701465 0.000209956)
(0.112658 -0.000633825 0.000258643)
(0.111109 -0.000740452 0.000226134)
(0.115084 -0.000631922 0.00021281)
(0.112793 -0.000566744 0.000258484)
(0.111209 -0.000655324 0.000227469)
(0.115258 -0.000565675 0.000211605)
(0.112914 -0.000506621 0.000253626)
(0.111301 -0.000580245 0.00022395)
(0.115417 -0.000505098 0.000206869)
(0.113023 -0.00045329 0.000245585)
(0.111386 -0.000517201 0.000217247)
(0.115561 -0.000451519 0.000199851)
(0.113121 -0.000405766 0.000235863)
(0.111463 -0.000457877 0.000207403)
(0.11569 -0.000402968 0.000191423)
(0.113209 -0.000362069 0.000224001)
(0.111536 -0.00040319 0.000196131)
(0.115808 -0.000359631 0.000182535)
(0.113288 -0.000320456 0.00020898)
(0.111602 -0.000358191 0.000184016)
(0.115913 -0.000320157 0.000171762)
(0.113363 -0.000281239 0.000192112)
(0.111664 -0.000322058 0.000171655)
(0.116012 -0.000284548 0.000159273)
(0.113432 -0.000238291 0.000172279)
(0.11172 -0.00028205 0.000156943)
(0.1161 -0.000247378 0.000144572)
(0.111771 -0.000226521 0.000136723)
(0.116177 -0.000200654 0.000125186)
(0.109666 -0.00086183 0.000193756)
(0.106966 -0.000915141 0.000181716)
(0.112342 -0.000883962 0.000139011)
(0.109724 -0.000759982 0.000195737)
(0.106963 -0.000802309 0.000175392)
(0.112451 -0.000783911 0.000138094)
(0.109781 -0.000667711 0.000193512)
(0.106977 -0.000696288 0.000166977)
(0.112556 -0.000690225 0.00013467)
(0.109837 -0.000589509 0.000188607)
(0.106997 -0.000611775 0.000158312)
(0.112654 -0.000608551 0.000129907)
(0.109893 -0.000520284 0.000180512)
(0.10702 -0.000543487 0.000149754)
(0.112748 -0.000540476 0.000124777)
(0.109947 -0.000454523 0.000168899)
(0.107044 -0.00048041 0.00013859)
(0.112833 -0.000477189 0.000117509)
(0.109998 -0.00039909 0.000157136)
(0.107068 -0.0004213 0.000125983)
(0.112917 -0.000418762 0.000108652)
(0.110046 -0.000359323 0.000147722)
(0.10709 -0.000373884 0.000115931)
(0.112993 -0.00037317 0.000100992)
(0.110091 -0.000322361 0.00013737)
(0.107113 -0.000338793 0.000108263)
(0.113064 -0.000338985 9.48266e-05)
(0.110136 -0.00027065 0.000121647)
(0.107135 -0.000298836 9.79098e-05)
(0.113128 -0.000295897 8.55311e-05)
(0.107158 -0.000236841 8.31185e-05)
(0.113187 -0.00023611 7.16279e-05)
(0.104523 -0.000980799 0.00017433)
(0.0989658 -0.0009088 0.000142106)
(0.107511 -0.00102033 0.000129722)
(0.104457 -0.000864495 0.0001586)
(0.098811 -0.000807872 0.000118818)
(0.107515 -0.000909028 0.000107591)
(0.104416 -0.000748518 0.000142224)
(0.0986834 -0.000708925 9.70473e-05)
(0.107531 -0.000798117 8.77472e-05)
(0.104393 -0.000650623 0.000127719)
(0.0985838 -0.000616823 7.9024e-05)
(0.10756 -0.000694674 7.0182e-05)
(0.104382 -0.000575418 0.000115991)
(0.0985021 -0.000542759 6.64912e-05)
(0.107593 -0.00061243 5.69304e-05)
(0.104376 -0.000511372 0.000105606)
(0.0984367 -0.000480348 5.75985e-05)
(0.107627 -0.000545633 4.70608e-05)
(0.104372 -0.000451552 9.55339e-05)
(0.0983827 -0.000423098 5.06245e-05)
(0.10766 -0.000483752 4.0084e-05)
(0.10437 -0.000398213 8.60197e-05)
(0.0983343 -0.000369322 4.48148e-05)
(0.107693 -0.000426744 3.44281e-05)
(0.104368 -0.000355531 7.77072e-05)
(0.0982913 -0.000326542 3.91977e-05)
(0.107722 -0.000380246 2.87075e-05)
(0.104368 -0.000317613 6.98555e-05)
(0.098253 -0.000293651 3.41128e-05)
(0.10775 -0.000343386 2.37551e-05)
(0.104375 -0.000267261 6.02464e-05)
(0.0982203 -0.000264732 2.87518e-05)
(0.107778 -0.000305248 1.9142e-05)
(0.0981913 -0.00021457 2.27704e-05)
(0.107803 -0.000246358 1.36059e-05)
(0.0938505 -0.000734644 9.93722e-05)
(0.0785961 -0.000550379 -1.66648e-05)
(0.0975378 -0.000789066 6.66048e-05)
(0.0936415 -0.000647231 7.19704e-05)
(0.0782584 -0.000488228 -3.20942e-05)
(0.0974091 -0.000699022 2.94901e-05)
(0.0934639 -0.000566356 5.10044e-05)
(0.0779672 -0.000430496 -3.94962e-05)
(0.0972973 -0.000618612 3.14391e-06)
(0.0933127 -0.000495045 3.58763e-05)
(0.0777041 -0.000379046 -4.14145e-05)
(0.0972028 -0.000546006 -1.51901e-05)
(0.0931846 -0.000434541 2.52116e-05)
(0.0774779 -0.000336023 -4.0989e-05)
(0.0971195 -0.000481115 -2.73295e-05)
(0.0930752 -0.000381339 1.78331e-05)
(0.077276 -0.000298081 -3.91856e-05)
(0.0970508 -0.000425384 -3.54452e-05)
(0.092981 -0.000332625 1.30445e-05)
(0.0771044 -0.000262235 -3.57737e-05)
(0.0969884 -0.000374654 -3.92847e-05)
(0.0928982 -0.00029041 9.84916e-06)
(0.0769491 -0.000228072 -3.11837e-05)
(0.096932 -0.000328701 -3.97447e-05)
(0.0928231 -0.000256684 7.2733e-06)
(0.0768165 -0.000199725 -2.66262e-05)
(0.096878 -0.000291379 -3.91445e-05)
(0.0927533 -0.000230882 5.06816e-06)
(0.076695 -0.000176658 -2.27972e-05)
(0.096829 -0.000260606 -3.81023e-05)
(0.0926881 -0.000198494 4.35529e-06)
(0.0765888 -0.000157701 -1.90552e-05)
(0.0967836 -0.000237935 -3.68964e-05)
(0.076498 -0.000131835 -1.51182e-05)
(0.0967423 -0.000195692 -3.12709e-05)
(0.0652986 -0.000332842 -0.000128327)
(0.0706149 -0.000362498 -0.000171884)
(0.0648896 -0.000301197 -0.000128386)
(0.0702046 -0.00033073 -0.000180095)
(0.0645267 -0.000274211 -0.000121563)
(0.0698394 -0.000303008 -0.000177249)
(0.0642047 -0.000250126 -0.000111283)
(0.0695022 -0.000278643 -0.00016718)
(0.0639183 -0.000226747 -0.000100164)
(0.0692059 -0.000254083 -0.000154487)
(0.0636642 -0.000203176 -8.87948e-05)
(0.068934 -0.000229102 -0.000140385)
(0.0634406 -0.000179748 -7.72646e-05)
(0.0687004 -0.000203904 -0.000125436)
(0.0632458 -0.000158153 -6.62262e-05)
(0.0684854 -0.000180441 -0.000110232)
(0.0630748 -0.000139801 -5.65116e-05)
(0.0683022 -0.000160144 -9.61783e-05)
(0.0629233 -0.000123974 -4.81335e-05)
(0.0681336 -0.000143132 -8.40949e-05)
(0.062788 -0.000111417 -4.10427e-05)
(0.067987 -0.000128402 -7.35912e-05)
(0.0678633 -0.000118807 -6.53341e-05)
(0.118451 -0.000351133 0.000359902)
(0.117906 -0.00051779 0.000274675)
(0.118703 -0.000322365 0.000334652)
(0.118152 -0.0004695 0.000259376)
(0.118931 -0.000294408 0.000310066)
(0.118377 -0.000423679 0.000243937)
(0.119138 -0.00026781 0.000286338)
(0.118581 -0.000380999 0.000228217)
(0.119325 -0.000243053 0.000263897)
(0.118766 -0.000342154 0.000212736)
(0.119494 -0.000220271 0.000243004)
(0.118933 -0.000306666 0.000197923)
(0.119647 -0.000199312 0.00022354)
(0.119085 -0.000274502 0.000183936)
(0.119785 -0.000179528 0.000204886)
(0.119223 -0.000245831 0.000170509)
(0.119909 -0.000158387 0.000184705)
(0.119348 -0.000220081 0.000156836)
(0.120018 -0.000133821 0.000161002)
(0.11946 -0.000190331 0.000139804)
(0.119556 -0.000154765 0.000119562)
(0.11761 -0.000634101 0.000175575)
(0.116338 -0.000766594 0.000134144)
(0.118694 -0.000573175 0.000103636)
(0.117831 -0.000568908 0.000170031)
(0.116535 -0.000684871 0.000127903)
(0.118948 -0.000517028 0.000100272)
(0.118031 -0.000508592 0.00016332)
(0.116716 -0.0006088 0.000121477)
(0.11918 -0.00046436 9.64966e-05)
(0.118213 -0.000453974 0.000155625)
(0.116883 -0.000540705 0.000114592)
(0.119391 -0.000415929 9.20786e-05)
(0.118379 -0.000404645 0.000147596)
(0.117035 -0.000481122 0.000107686)
(0.119583 -0.000372172 8.73072e-05)
(0.11853 -0.000359907 0.000139611)
(0.117175 -0.000426736 0.000101283)
(0.119757 -0.000332177 8.24863e-05)
(0.118667 -0.00032037 0.000131391)
(0.117303 -0.000377735 9.50105e-05)
(0.119915 -0.000295916 7.7649e-05)
(0.118792 -0.000286257 0.000122493)
(0.11742 -0.000337314 8.81586e-05)
(0.120058 -0.000263868 7.2434e-05)
(0.118906 -0.000252194 0.000111716)
(0.117528 -0.000303827 8.102e-05)
(0.120189 -0.000235266 6.68346e-05)
(0.119008 -0.000211665 9.79728e-05)
(0.117625 -0.000263393 7.22079e-05)
(0.120305 -0.000203207 5.99933e-05)
(0.117711 -0.000213049 6.13847e-05)
(0.120405 -0.000165946 5.184e-05)
(0.115303 -0.000813892 8.82191e-05)
(0.11293 -0.000880474 7.4713e-05)
(0.116453 -0.000756365 5.42809e-06)
(0.115464 -0.000721767 8.11386e-05)
(0.113059 -0.000780853 5.8893e-05)
(0.116656 -0.000677443 1.23286e-06)
(0.115612 -0.000638363 7.45185e-05)
(0.11318 -0.000689043 4.59784e-05)
(0.116842 -0.000603893 -1.78755e-06)
(0.115748 -0.000565687 6.83508e-05)
(0.113293 -0.000609739 3.53161e-05)
(0.117012 -0.000538109 -3.86346e-06)
(0.115876 -0.000501911 6.25338e-05)
(0.113398 -0.000543119 2.68022e-05)
(0.117167 -0.00048052 -5.29461e-06)
(0.115995 -0.000444656 5.6837e-05)
(0.113494 -0.000481072 2.026e-05)
(0.117309 -0.000427936 -7.13897e-06)
(0.116102 -0.000395387 5.1519e-05)
(0.113586 -0.000425106 1.50422e-05)
(0.11744 -0.000380639 -9.12075e-06)
(0.116202 -0.000354992 4.6939e-05)
(0.113669 -0.000380501 1.09947e-05)
(0.117558 -0.000341527 -9.58406e-06)
(0.116296 -0.000314698 4.21108e-05)
(0.113747 -0.000344339 8.12287e-06)
(0.117667 -0.000308827 -8.49123e-06)
(0.116382 -0.000264764 3.59623e-05)
(0.113817 -0.000304079 4.99945e-06)
(0.117766 -0.000269671 -7.43171e-06)
(0.113879 -0.000248296 2.76821e-06)
(0.117853 -0.000220788 -6.42145e-06)
(0.11073 -0.000960103 6.87051e-05)
(0.105865 -0.000917333 4.88082e-05)
(0.111881 -0.00089163 -1.43314e-05)
(0.110826 -0.000853587 4.12594e-05)
(0.105897 -0.000817408 1.02218e-05)
(0.112033 -0.000803664 -3.9361e-05)
(0.110919 -0.000755211 1.95114e-05)
(0.105928 -0.000727695 -1.87748e-05)
(0.112176 -0.000720401 -5.85992e-05)
(0.111006 -0.000667553 2.92896e-06)
(0.105963 -0.000647177 -3.94424e-05)
(0.112308 -0.000642991 -7.21083e-05)
(0.111087 -0.00059312 -8.96058e-06)
(0.105992 -0.000573948 -5.21869e-05)
(0.112427 -0.000575386 -7.98308e-05)
(0.111164 -0.000526534 -1.67848e-05)
(0.106022 -0.000512101 -5.99607e-05)
(0.112535 -0.000517803 -8.30997e-05)
(0.111237 -0.000464248 -2.16003e-05)
(0.106045 -0.000454099 -6.34186e-05)
(0.112632 -0.000463258 -8.38504e-05)
(0.111303 -0.000412045 -2.48597e-05)
(0.106068 -0.000402135 -6.41429e-05)
(0.112722 -0.000414328 -8.38236e-05)
(0.111364 -0.000371377 -2.70437e-05)
(0.106085 -0.000360073 -6.36857e-05)
(0.1128 -0.00037327 -8.14831e-05)
(0.11142 -0.000334846 -2.81143e-05)
(0.1061 -0.000324831 -6.24548e-05)
(0.112873 -0.000337199 -7.68293e-05)
(0.111474 -0.000288965 -2.77918e-05)
(0.106114 -0.000293738 -6.10795e-05)
(0.112939 -0.000301355 -7.14772e-05)
(0.106125 -0.000246246 -5.57414e-05)
(0.112997 -0.000252653 -6.40565e-05)
(0.101457 -0.000770024 2.50184e-06)
(0.0881509 -0.000614339 -0.000103751)
(0.102831 -0.000723626 -5.41885e-05)
(0.101432 -0.0006843 -3.60033e-05)
(0.0879361 -0.000548858 -0.000131123)
(0.102878 -0.000654758 -9.53304e-05)
(0.101411 -0.000609186 -6.22211e-05)
(0.0877372 -0.000491025 -0.000144686)
(0.102915 -0.000591451 -0.000122097)
(0.101392 -0.000541644 -7.86971e-05)
(0.0875557 -0.000440697 -0.000148748)
(0.102944 -0.00053409 -0.000137797)
(0.101374 -0.00048153 -8.82448e-05)
(0.0873902 -0.000393605 -0.000146636)
(0.102963 -0.000480143 -0.000144526)
(0.101355 -0.000428583 -9.2463e-05)
(0.0872398 -0.00035111 -0.000140712)
(0.102978 -0.000432985 -0.00014548)
(0.101333 -0.000380197 -9.20278e-05)
(0.087105 -0.000310697 -0.000130888)
(0.102982 -0.000390078 -0.000141297)
(0.10131 -0.000337877 -8.92835e-05)
(0.0869793 -0.000274568 -0.000119237)
(0.102981 -0.000351644 -0.000134542)
(0.101285 -0.000301591 -8.60383e-05)
(0.0868664 -0.000244139 -0.000108299)
(0.102974 -0.000316866 -0.000127575)
(0.10126 -0.000271729 -8.2734e-05)
(0.0867627 -0.000218237 -9.88535e-05)
(0.102963 -0.000286524 -0.00012245)
(0.101238 -0.000237496 -7.59623e-05)
(0.0866704 -0.00019715 -9.05035e-05)
(0.102949 -0.000261316 -0.000116785)
(0.0865907 -0.000172485 -8.13002e-05)
(0.102936 -0.000221311 -0.000101385)
(0.0762322 -0.000394783 -0.000210568)
(0.0787061 -0.000388497 -0.000224256)
(0.0758627 -0.000361699 -0.000219567)
(0.0783828 -0.000368302 -0.000243369)
(0.0755234 -0.000331858 -0.000216473)
(0.0780711 -0.000345816 -0.000246144)
(0.0752141 -0.000303403 -0.000205994)
(0.0777752 -0.000321608 -0.000238284)
(0.074934 -0.000274566 -0.000191505)
(0.0775013 -0.000295902 -0.000224272)
(0.0746815 -0.000245841 -0.000174542)
(0.0772471 -0.00026853 -0.000207188)
(0.0744552 -0.000219072 -0.000156285)
(0.0770189 -0.000242179 -0.0001878)
(0.0742526 -0.000195411 -0.000138451)
(0.0768077 -0.000218243 -0.000167857)
(0.074071 -0.000174931 -0.000122461)
(0.0766204 -0.000195976 -0.00014925)
(0.0739078 -0.000157378 -0.000108837)
(0.076448 -0.000175765 -0.00013261)
(0.0737605 -0.000143888 -9.7926e-05)
(0.076296 -0.000157777 -0.000118981)
(0.0761647 -0.000145558 -0.000109059)
(0.120071 -0.000453951 2.6714e-05)
(0.118813 -0.000562192 -2.90961e-05)
(0.120278 -0.000353149 -9.33843e-05)
(0.120338 -0.000410552 2.50396e-05)
(0.119073 -0.00050908 -3.051e-05)
(0.120566 -0.000321707 -8.51593e-05)
(0.120582 -0.000369989 2.35344e-05)
(0.119309 -0.000459085 -3.0817e-05)
(0.120829 -0.000291881 -7.70466e-05)
(0.120803 -0.000332645 2.20825e-05)
(0.119525 -0.000413089 -3.03276e-05)
(0.121068 -0.000263997 -6.93526e-05)
(0.121004 -0.000298494 2.06481e-05)
(0.11972 -0.00037145 -2.93579e-05)
(0.121285 -0.000238343 -6.22414e-05)
(0.121186 -0.000267323 1.92068e-05)
(0.119897 -0.000333374 -2.83784e-05)
(0.121482 -0.000214796 -5.57403e-05)
(0.121351 -0.000239063 1.78178e-05)
(0.120057 -0.000298965 -2.74715e-05)
(0.12166 -0.000193306 -4.98499e-05)
(0.1215 -0.000213257 1.66281e-05)
(0.120202 -0.000268403 -2.58867e-05)
(0.121821 -0.000173713 -4.43833e-05)
(0.121634 -0.000187247 1.55865e-05)
(0.120333 -0.000240659 -2.32051e-05)
(0.121966 -0.000155259 -3.89439e-05)
(0.121752 -0.000158594 1.44845e-05)
(0.12045 -0.00020963 -1.96054e-05)
(0.122094 -0.000134593 -3.28338e-05)
(0.120552 -0.000173759 -1.54766e-05)
(0.122204 -0.000111707 -2.62565e-05)
(0.117851 -0.000615645 -8.53466e-05)
(0.115474 -0.000668381 -0.000109195)
(0.118024 -0.000510776 -0.000225468)
(0.118081 -0.000556005 -8.52443e-05)
(0.115691 -0.000606924 -0.000116258)
(0.118276 -0.000467774 -0.000211842)
(0.11829 -0.000500677 -8.34836e-05)
(0.115888 -0.000548704 -0.000119281)
(0.118505 -0.00042661 -0.000197278)
(0.11848 -0.000450497 -8.05558e-05)
(0.116064 -0.000495753 -0.00011896)
(0.118712 -0.000388145 -0.000182436)
(0.118652 -0.000405089 -7.72243e-05)
(0.116222 -0.00044847 -0.000116224)
(0.118899 -0.000352938 -0.000168026)
(0.118807 -0.000363989 -7.40168e-05)
(0.116364 -0.000405532 -0.000112396)
(0.119068 -0.000320667 -0.000154539)
(0.118948 -0.000327658 -7.04352e-05)
(0.116492 -0.000367664 -0.000108621)
(0.119221 -0.000291526 -0.000142154)