/*--------------------------------*- C++ -*----------------------------------*\
| =========                 |                                                 |
| \\      /  F ield         | OpenFOAM: The Open Source CFD Toolbox           |
|  \\    /   O peration     | Version:  2212                                  |
|   \\  /    A nd           | Website:  www.openfoam.com                      |
|    \\/     M anipulation  |                                                 |
\*---------------------------------------------------------------------------*/
FoamFile
{
    version     2.0;
    format      ascii;
    arch        "LSB;label=32;scalar=64";
    class       volScalarField;
    location    "1";
    object      epsilon;
}
// * * * * * * * * * * * * * * * * * * * * * * * * * * * * * * * * * * * * * //

dimensions      [0 2 -3 0 0 0 0];

internalField   nonuniform List<scalar> 
690
(
0.127618
0.12429
0.121168
0.118298
0.115655
0.113251
0.111068
0.109051
0.10721
0.105589
0.104165
0.0498157
0.0482662
0.0467618
0.0453954
0.0441565
0.0430448
0.0420433
0.0411367
0.040317
0.039615
0.0389934
0.0353235
0.0341063
0.032848
0.0317479
0.0307754
0.0299108
0.0291347
0.0284548
0.0277718
0.0271628
0.0266521
0.0292611
0.0279986
0.0268803
0.0258729
0.0249648
0.0241508
0.0234247
0.0227603
0.0221119
0.0215524
0.0210413
0.0265467
0.0253056
0.0241911
0.0231876
0.0222838
0.0214718
0.0207469
0.0200952
0.0195134
0.0189943
0.0185625
0.0471848
0.0454611
0.0439032
0.0425083
0.0412264
0.0400697
0.0390291
0.0380826
0.0372489
0.0365331
0.0358807
0.021643
0.0207262
0.0197875
0.0190083
0.0182645
0.0176429
0.0170677
0.016548
0.0160684
0.0156677
0.0152543
0.0156552
0.0150388
0.0140887
0.0135811
0.0128346
0.0124138
0.011844
0.0114739
0.0110996
0.0106611
0.0103853
0.014108
0.0132421
0.0124712
0.0117976
0.0112044
0.0106427
0.0102188
0.00968321
0.00938686
0.00892262
0.00867264
0.0134525
0.0125706
0.0117879
0.0110924
0.0104739
0.00992296
0.00943344
0.00899712
0.0086142
0.00827863
0.00797649
0.0323351
0.0310097
0.0298279
0.0287241
0.0277014
0.0268145
0.0260296
0.0253124
0.0246693
0.0240986
0.023565
0.0150832
0.0143569
0.0134156
0.012884
0.0120833
0.0116673
0.0111174
0.0106589
0.0103662
0.00990768
0.00963214
0.0125045
0.0116461
0.0108682
0.0101887
0.00945704
0.00899046
0.00856902
0.00819415
0.00779317
0.0074294
0.00709652
0.0124531
0.0114941
0.0106493
0.00990043
0.00922585
0.00863515
0.00811815
0.00765905
0.00722588
0.00679168
0.00655588
0.0126833
0.0116709
0.0107786
0.00998975
0.00928982
0.00866887
0.00811453
0.00762369
0.00718256
0.00679372
0.00640264
0.0273024
0.0260187
0.0248769
0.0238582
0.0229489
0.0221398
0.0214266
0.0207888
0.0202192
0.0197133
0.0192542
0.0135336
0.0126828
0.0119196
0.0112447
0.0106397
0.0101083
0.00964293
0.00920278
0.00887656
0.0084539
0.008174
0.0123022
0.0113567
0.0105226
0.00978158
0.00911172
0.00852858
0.00801779
0.00756353
0.00716078
0.00676685
0.0064258
0.0128989
0.0118279
0.0108858
0.0100536
0.00931532
0.00866234
0.00808277
0.00756699
0.00710378
0.00669111
0.00628537
0.0135562
0.0123981
0.0113802
0.0104826
0.0096885
0.00898471
0.00835968
0.00780405
0.00730858
0.00687087
0.00644373
0.0255753
0.0243109
0.0231838
0.0221782
0.0212806
0.0204796
0.0197658
0.0191299
0.0185694
0.0180732
0.0176324
0.01313
0.0122486
0.0114674
0.0107742
0.0101587
0.00961302
0.00912931
0.00869992
0.00832035
0.0079852
0.00770212
0.0125641
0.0115568
0.0106696
0.00988506
0.0091883
0.00857148
0.00802429
0.00753684
0.00710281
0.006718
0.00632273
0.0135408
0.0123801
0.0113594
0.010458
0.00965942
0.00895062
0.00832144
0.00776244
0.00726426
0.0068233
0.00639356
0.0144249
0.01316
0.0120481
0.0110674
0.0102
0.00943095
0.00874781
0.00814015
0.00759866
0.00711787
0.00666187
0.0147597
0.0134615
0.0123204
0.0113144
0.010425
0.00963699
0.00893743
0.00831558
0.00776216
0.00727098
0.00680919
0.0254411
0.0241819
0.0230556
0.0220498
0.0211522
0.0203503
0.0196342
0.0189952
0.0184303
0.0179337
0.0174879
0.013185
0.0122875
0.0114902
0.010783
0.0101553
0.00959773
0.00910282
0.0086638
0.00827534
0.0079347
0.0076526
0.0127555
0.011719
0.0108055
0.00999772
0.00928151
0.00864451
0.00807893
0.00757567
0.00712778
0.00673589
0.00633181
0.0138096
0.0126149
0.0115644
0.0106374
0.00981699
0.00908905
0.00844208
0.00786642
0.00735349
0.00689942
0.00646077
0.0147602
0.0134568
0.0123106
0.0112994
0.0104048
0.00961154
0.00890666
0.00827939
0.0077204
0.00722353
0.00675733
0.0151242
0.0137839
0.0126055
0.0115662
0.010647
0.00983224
0.00910856
0.00846484
0.00789156
0.00738183
0.0069074
0.0265407
0.0252987
0.0241837
0.0231801
0.0222768
0.0214656
0.0207419
0.0200913
0.0195113
0.0189949
0.0185611
0.0134471
0.0125611
0.011774
0.0110747
0.0104526
0.00989874
0.00940706
0.00896743
0.00858499
0.00824394
0.0079407
0.0126848
0.0116679
0.0107705
0.00997638
0.00927086
0.00864413
0.00808567
0.00759108
0.00714662
0.00675176
0.00635348
0.0135624
0.0123994
0.0113765
0.0104734
0.00967375
0.00896426
0.00833373
0.00777272
0.00727189
0.00682894
0.00639758
0.0144308
0.0131639
0.0120498
0.0110668
0.010197
0.00942549
0.00873987
0.00812974
0.00758558
0.00710211
0.00664437
0.0147628
0.0134612
0.0123168
0.0113076
0.0104149
0.00962349
0.00892046
0.00829504
0.00773791
0.00724292
0.00677825
0.0292569
0.0279929
0.026874
0.0258661
0.024958
0.0241443
0.0234198
0.0227582
0.0221152
0.0215527
0.0210678
0.0206325
0.0141069
0.0132435
0.0124662
0.0117946
0.0111916
0.0106386
0.0102032
0.00967653
0.00937788
0.00891715
0.00870811
0.00836692
0.0124539
0.0114939
0.0106466
0.00989665
0.00921721
0.00862416
0.0081054
0.00764435
0.00721578
0.00677093
0.00653508
0.0129011
0.0118292
0.0108859
0.0100519
0.00931155
0.00865639
0.00807499
0.00755739
0.00709293
0.00667738
0.00626964
0.0135399
0.0123799
0.0113597
0.0104588
0.00966039
0.00895157
0.00832209
0.00776281
0.0072642
0.00682243
0.00639196
0.0138026
0.0126127
0.0115666
0.0106438
0.00982713
0.0091026
0.00845887
0.00788623
0.00737613
0.00692488
0.00648807
0.0353223
0.0341023
0.0328424
0.0317418
0.0307692
0.0299053
0.0291307
0.0284538
0.0277744
0.0271684
0.0266647
0.0262416
0.0156564
0.0150403
0.0140874
0.013581
0.0128319
0.0124144
0.0118351
0.0114947
0.0110647
0.0106942
0.0104484
0.0100709
0.0125049
0.011649
0.0108665
0.0101933
0.00945476
0.00898549
0.00856574
0.00817707
0.00781397
0.00741359
0.0070941
0.0123015
0.0113558
0.0105219
0.00978024
0.00911021
0.00852563
0.00801414
0.00755961
0.00715862
0.00676169
0.00641759
0.0125583
0.0115524
0.0106665
0.00988303
0.00918717
0.00857079
0.00802375
0.00753654
0.00710259
0.00671757
0.00632369
0.0127453
0.0117138
0.0108047
0.0100011
0.00928714
0.00865204
0.00808823
0.00758687
0.00714161
0.00675151
0.00635354
0.0498189
0.0482654
0.0467603
0.0453939
0.0441554
0.0430444
0.0420442
0.0411415
0.0403243
0.0396241
0.0390222
0.0384771
0.0216562
0.0207088
0.0197888
0.0189992
0.0182663
0.0176371
0.0170679
0.0165491
0.0160658
0.015668
0.0153468
0.0149581
0.0150888
0.0143519
0.0134183
0.012883
0.0120825
0.0116656
0.011115
0.0106518
0.0103625
0.00990296
0.00962334
0.013533
0.0126812
0.0119174
0.011242
0.0106362
0.0101036
0.00963669
0.0091968
0.00886921
0.00844976
0.00816823
0.0131243
0.0122435
0.0114629
0.0107704
0.0101554
0.0096092
0.00912491
0.00869495
0.0083148
0.00797914
0.00769654
0.0131774
0.0122834
0.011489
0.0107844
0.0101585
0.00960245
0.00910853
0.00867021
0.00828223
0.00794155
0.0076595
0.127634
0.124296
0.121181
0.11831
0.11567
0.113267
0.111088
0.109078
0.107242
0.105635
0.104205
0.102948
0.0471941
0.0454664
0.0439092
0.0425149
0.0412339
0.0400782
0.0390395
0.0380958
0.0372646
0.0365475
0.0359134
0.0353313
0.0323424
0.031016
0.0298331
0.0287304
0.0277084
0.0268231
0.0260403
0.0253258
0.0246843
0.0241174
0.0235825
0.0273065
0.0260229
0.024882
0.0238645
0.0229564
0.0221486
0.0214363
0.0208002
0.0202318
0.0197273
0.0192715
0.0255786
0.024315
0.0231892
0.022185
0.0212886
0.0204887
0.0197757
0.0191406
0.0185802
0.0180845
0.017644
0.0254444
0.0241863
0.0230615
0.0220571
0.0211604
0.0203591
0.0196432
0.0190041
0.018438
0.0179407
0.017494
)
;

boundaryField
{
    inlet
    {
        type            fixedValue;
        value           nonuniform List<scalar> 0();
    }
    ami1
    {
        type            cyclicAMI;
        value           nonuniform List<scalar> 0();
    }
    walls
    {
        type            epsilonWallFunction;
        blending        stepwise;
        value           nonuniform List<scalar> 
248
(
0.127618
0.0498157
0.0353235
0.0292611
0.0265467
0.12429
0.0482662
0.0341063
0.0279986
0.0253056
0.121168
0.0467618
0.032848
0.0268803
0.0241911
0.118298
0.0453954
0.0317479
0.0258729
0.0231876
0.115655
0.0441565
0.0307754
0.0249648
0.0222838
0.113251
0.0430448
0.0299108
0.0241508
0.0214718
0.111068
0.0420433
0.0291347
0.0234247
0.0207469
0.109051
0.0411367
0.0284548
0.0227603
0.0200952
0.10721
0.040317
0.0277718
0.0221119
0.0195134
0.105589
0.039615
0.0271628
0.0215524
0.0189943
0.104165
0.0389934
0.0266521
0.0210413
0.0185625
0.127634
0.0471941
0.0323424
0.0273065
0.0255786
0.0254444
0.124296
0.0454664
0.031016
0.0260229
0.024315
0.0241863
0.121181
0.0439092
0.0298331
0.024882
0.0231892
0.0230615
0.11831
0.0425149
0.0287304
0.0238645
0.022185
0.0220571
0.11567
0.0412339
0.0277084
0.0229564
0.0212886
0.0211604
0.113267
0.0400782
0.0268231
0.0221486
0.0204887
0.0203591
0.111088
0.0390395
0.0260403
0.0214363
0.0197757
0.0196432
0.109078
0.0380958
0.0253258
0.0208002
0.0191406
0.0190041
0.107242
0.0372646
0.0246843
0.0202318
0.0185802
0.018438
0.105635
0.0365475
0.0241174
0.0197273
0.0180845
0.0179407
0.104205
0.0359134
0.0235825
0.0192715
0.017644
0.017494
0.102948
0.0353313
0.127618
0.0471848
0.0323351
0.0273024
0.0255753
0.0254411
0.0265407
0.0292569
0.0353223
0.0498189
0.127634
0.12429
0.0454611
0.0310097
0.0260187
0.0243109
0.0241819
0.0252987
0.0279929
0.0341023
0.0482654
0.124296
0.121168
0.0439032
0.0298279
0.0248769
0.0231838
0.0230556
0.0241837
0.026874
0.0328424
0.0467603
0.121181
0.118298
0.0425083
0.0287241
0.0238582
0.0221782
0.0220498
0.0231801
0.0258661
0.0317418
0.0453939
0.11831
0.115655
0.0412264
0.0277014
0.0229489
0.0212806
0.0211522
0.0222768
0.024958
0.0307692
0.0441554
0.11567
0.113251
0.0400697
0.0268145
0.0221398
0.0204796
0.0203503
0.0214656
0.0241443
0.0299053
0.0430444
0.113267
0.111068
0.0390291
0.0260296
0.0214266
0.0197658
0.0196342
0.0207419
0.0234198
0.0291307
0.0420442
0.111088
0.109051
0.0380826
0.0253124
0.0207888
0.0191299
0.0189952
0.0200913
0.0227582
0.0284538
0.0411415
0.109078
0.10721
0.0372489
0.0246693
0.0202192
0.0185694
0.0184303
0.0195113
0.0221152
0.0277744
0.0403243
0.107242
0.105589
0.0365331
0.0240986
0.0197133
0.0180732
0.0179337
0.0189949
0.0215527
0.0271684
0.0396241
0.105635
0.104165
0.0358807
0.023565
0.0192542
0.0176324
0.0174879
0.0185611
0.0210678
0.0266647
0.0390222
0.104205
0.0206325
0.0262416
0.0384771
0.102948
)
;
    }
    ami2
    {
        type            cyclicAMI;
        value           nonuniform List<scalar> 0();
    }
    outlet
    {
        type            zeroGradient;
    }
    procBoundary8to0
    {
        type            processor;
        value           nonuniform List<scalar> 
29
(
0.13122
0.0515396
0.0367362
0.0306643
0.0279278
0.0491054
0.0227085
0.0168585
0.0150603
0.0144156
0.033813
0.0160932
0.0134776
0.013523
0.0138168
0.0287474
0.014464
0.0133534
0.0141056
0.0148645
0.0269948
0.0140915
0.0136898
0.0148507
0.015857
0.0162292
0.0151565
0.0162342
0.0166404
)
;
    }
    procBoundary8to1
    {
        type            processor;
        value           nonuniform List<scalar> 
33
(
0.0268462
0.0141653
0.0139139
0.0279235
0.0144163
0.0138217
0.0148735
0.0158627
0.0162341
0.0306614
0.0150606
0.0135237
0.0141073
0.0148497
0.0151466
0.0367365
0.0168593
0.0134782
0.0133527
0.0136845
0.0139011
0.0515449
0.022711
0.0160912
0.0144628
0.014085
0.0141536
0.131237
0.0491151
0.03382
0.0287522
0.0269988
0.0268504
)
;
    }
    procBoundary8to7
    {
        type            processor;
        value           nonuniform List<scalar> 
68
(
0.102872
0.0384579
0.0262121
0.0205914
0.0181167
0.0353022
0.0151103
0.0101656
0.00840633
0.00775552
0.0230947
0.00940856
0.00689244
0.00636167
0.00621077
0.018845
0.00792709
0.00625799
0.00607619
0.00619774
0.017243
0.00749942
0.00607541
0.00614127
0.00637403
0.00650616
0.0170962
0.00743381
0.00608359
0.00619502
0.00645338
0.00659114
0.0181295
0.0181295
0.00774357
0.00774357
0.0061432
0.00614329
0.00635131
0.00647376
0.0202342
0.00821944
0.00634779
0.00634779
0.00605448
0.00613512
0.00622241
0.0258378
0.00995731
0.00690478
0.00690478
0.00625052
0.00607694
0.0061083
0.0379958
0.0148821
0.00943383
0.00943383
0.00792601
0.00749242
0.00743832
0.101781
0.0348021
0.0230973
0.0230973
0.0188457
0.0172478
0.0170977
)
;
    }
    procBoundary8to9
    {
        type            processor;
        value           nonuniform List<scalar> 
132
(
0.0254435
0.024186
0.0230602
0.0220543
0.0211557
0.0203523
0.019634
0.0189926
0.0184268
0.0179264
0.0174769
0.0131811
0.01229
0.0114983
0.0107959
0.0101723
0.00961759
0.0091251
0.00868839
0.0083018
0.00796306
0.00768228
0.012747
0.0117176
0.0108108
0.0100095
0.00929934
0.00866826
0.00810693
0.00760873
0.00716507
0.00677674
0.00637731
0.013803
0.0126156
0.0115723
0.0106526
0.00983929
0.00911853
0.0084787
0.0079101
0.00740414
0.00695707
0.00652282
0.013803
0.0126156
0.0115723
0.0106526
0.00983929
0.00911853
0.0084787
0.0079101
0.00740414
0.00695707
0.00652282
0.0144294
0.0131668
0.0120567
0.0110777
0.0102119
0.0094445
0.00876309
0.0081573
0.00761759
0.00713897
0.00668453
0.0147638
0.0134635
0.0123203
0.011312
0.0104204
0.00963005
0.00892825
0.00830421
0.00774863
0.00725548
0.00679176
0.0144347
0.0131713
0.0120607
0.0110812
0.0102148
0.00944686
0.00876496
0.00815871
0.00761875
0.00713971
0.00668449
0.0135597
0.0124026
0.0113852
0.0104876
0.00969296
0.00898842
0.00836287
0.00780671
0.00731075
0.00687242
0.00644416
0.012683
0.0116713
0.0107789
0.00998958
0.00928744
0.00866445
0.00811072
0.00761872
0.00717755
0.00678773
0.00639929
0.0134494
0.0125672
0.0117839
0.0110871
0.0104676
0.00991612
0.0094248
0.00899103
0.00860325
0.00827463
0.00796334
0.0265471
0.0253059
0.0241913
0.0231878
0.0222843
0.0214729
0.0207487
0.0200972
0.019516
0.0189959
0.0185572
)
;
    }
}


// ************************************************************************* //
