/*--------------------------------*- C++ -*----------------------------------*\
| =========                 |                                                 |
| \\      /  F ield         | OpenFOAM: The Open Source CFD Toolbox           |
|  \\    /   O peration     | Version:  2212                                  |
|   \\  /    A nd           | Website:  www.openfoam.com                      |
|    \\/     M anipulation  |                                                 |
\*---------------------------------------------------------------------------*/
FoamFile
{
    version     2.0;
    format      ascii;
    arch        "LSB;label=32;scalar=64";
    class       volScalarField;
    location    "1";
    object      nut;
}
// * * * * * * * * * * * * * * * * * * * * * * * * * * * * * * * * * * * * * //

dimensions      [0 2 -1 0 0 0 0];

internalField   nonuniform List<scalar> 
690
(
3.95825e-06
3.92133e-06
3.88607e-06
3.85216e-06
3.81986e-06
3.78938e-06
3.76097e-06
3.73373e-06
3.70802e-06
3.68462e-06
3.66326e-06
8.00616e-06
7.91698e-06
7.83079e-06
7.74671e-06
7.67016e-06
7.59727e-06
7.5304e-06
7.46734e-06
7.40654e-06
7.35277e-06
7.30434e-06
1.17957e-05
1.16514e-05
1.15028e-05
1.13618e-05
1.12381e-05
1.11203e-05
1.10143e-05
1.09125e-05
1.081e-05
1.07114e-05
1.06255e-05
1.47603e-05
1.45385e-05
1.43363e-05
1.41461e-05
1.39674e-05
1.38021e-05
1.36552e-05
1.34879e-05
1.33412e-05
1.32095e-05
1.30862e-05
1.66613e-05
1.63882e-05
1.61334e-05
1.58953e-05
1.56722e-05
1.54673e-05
1.52733e-05
1.50917e-05
1.49243e-05
1.47665e-05
1.46166e-05
7.87015e-06
7.76507e-06
7.67203e-06
7.5798e-06
7.4956e-06
7.41498e-06
7.34113e-06
7.27081e-06
7.20499e-06
7.14736e-06
7.09465e-06
1.50355e-05
1.40813e-05
1.33285e-05
1.25939e-05
1.19892e-05
1.13878e-05
1.08774e-05
1.03424e-05
9.81048e-06
9.45847e-06
9.23462e-06
3.3631e-05
3.14502e-05
3.04044e-05
2.8573e-05
2.7631e-05
2.61285e-05
2.52046e-05
2.39784e-05
2.28814e-05
2.2171e-05
2.11997e-05
4.81306e-05
4.58933e-05
4.38216e-05
4.18404e-05
3.99631e-05
3.83492e-05
3.6523e-05
3.54777e-05
3.37374e-05
3.30044e-05
3.14877e-05
5.78225e-05
5.52152e-05
5.27925e-05
5.05337e-05
4.84205e-05
4.64453e-05
4.45878e-05
4.28537e-05
4.121e-05
3.95491e-05
3.78623e-05
1.14641e-05
1.12952e-05
1.11524e-05
1.09838e-05
1.08478e-05
1.07171e-05
1.0599e-05
1.0488e-05
1.03796e-05
1.02823e-05
1.01894e-05
3.34444e-05
3.14025e-05
3.0239e-05
2.83229e-05
2.74327e-05
2.57852e-05
2.4696e-05
2.35857e-05
2.2196e-05
2.14782e-05
2.0484e-05
6.62431e-05
6.33523e-05
6.06858e-05
5.80484e-05
5.6401e-05
5.36361e-05
5.1013e-05
4.85199e-05
4.65911e-05
4.49118e-05
4.32957e-05
8.98461e-05
8.64554e-05
8.32015e-05
8.00979e-05
7.72244e-05
7.4416e-05
7.16563e-05
6.90026e-05
6.67002e-05
6.50765e-05
6.18765e-05
0.00010365
9.98903e-05
9.63065e-05
9.2891e-05
8.96418e-05
8.65385e-05
8.36037e-05
8.0778e-05
7.81311e-05
7.55575e-05
7.35511e-05
1.4436e-05
1.41964e-05
1.39755e-05
1.37687e-05
1.3578e-05
1.34042e-05
1.32424e-05
1.30924e-05
1.29504e-05
1.28225e-05
1.26949e-05
5.0043e-05
4.78807e-05
4.5859e-05
4.39132e-05
4.2098e-05
4.03416e-05
3.86387e-05
3.71481e-05
3.54037e-05
3.44353e-05
3.30119e-05
9.07292e-05
8.74707e-05
8.43378e-05
8.13486e-05
7.8601e-05
7.58711e-05
7.31765e-05
7.05855e-05
6.80678e-05
6.60679e-05
6.40049e-05
0.00011849
0.000114603
0.000110875
0.000107304
0.000103899
0.000100612
9.74526e-05
9.44214e-05
9.15626e-05
8.8827e-05
8.67427e-05
0.000134049
0.000129783
0.000125702
0.000121797
0.00011806
0.000114477
0.000111041
0.000107743
0.000104593
0.000101513
9.91435e-05
1.64634e-05
1.6176e-05
1.59099e-05
1.56623e-05
1.54322e-05
1.52186e-05
1.50204e-05
1.48373e-05
1.46702e-05
1.45171e-05
1.43753e-05
5.97223e-05
5.72758e-05
5.49726e-05
5.27975e-05
5.07413e-05
4.87885e-05
4.69307e-05
4.51742e-05
4.34876e-05
4.19348e-05
4.02839e-05
0.000104782
0.000101196
9.77671e-05
9.44937e-05
9.13812e-05
8.83893e-05
8.55156e-05
8.2774e-05
8.0151e-05
7.7632e-05
7.58378e-05
0.000134299
0.000130115
0.00012612
0.000122312
0.000118683
0.000115218
0.000111892
0.000108694
0.000105634
0.000102649
0.000100383
0.000150868
0.000146295
0.000141935
0.000137773
0.000133797
0.000129993
0.00012635
0.000122858
0.000119516
0.000116274
0.000113677
0.000156273
0.000151538
0.000147023
0.000142711
0.000138586
0.000134634
0.000130843
0.000127203
0.000123707
0.000120314
0.00011752
1.72526e-05
1.69519e-05
1.66715e-05
1.64101e-05
1.61674e-05
1.59417e-05
1.57317e-05
1.55371e-05
1.53612e-05
1.51985e-05
1.50477e-05
6.19342e-05
5.92996e-05
5.68518e-05
5.45601e-05
5.24089e-05
5.03849e-05
4.84762e-05
4.66805e-05
4.49722e-05
4.33854e-05
4.16679e-05
0.000108638
0.000104871
0.00010129
9.78847e-05
9.46468e-05
9.15753e-05
8.86406e-05
8.58448e-05
8.31791e-05
8.05572e-05
7.87201e-05
0.00013916
0.000134839
0.00013072
0.000126793
0.000123046
0.000119469
0.00011605
0.00011278
0.000109655
0.000106609
0.000104263
0.000156263
0.000151574
0.000147111
0.000142859
0.000138801
0.000134924
0.000131216
0.000127667
0.000124272
0.000120988
0.000118299
0.000161828
0.000156991
0.000152386
0.000147995
0.000143801
0.000139789
0.000135948
0.000132266
0.000128736
0.000125323
0.000122465
1.66616e-05
1.63883e-05
1.61334e-05
1.58953e-05
1.56721e-05
1.54671e-05
1.52732e-05
1.5092e-05
1.49243e-05
1.47669e-05
1.46282e-05
5.78207e-05
5.52305e-05
5.28295e-05
5.05932e-05
4.85061e-05
4.65571e-05
4.4726e-05
4.30292e-05
4.13986e-05
3.98255e-05
3.8166e-05
0.000103614
9.9884e-05
9.63396e-05
9.29703e-05
8.97772e-05
8.674e-05
8.38621e-05
8.10956e-05
7.85088e-05
7.60353e-05
7.4167e-05
0.000133984
0.000129751
0.000125712
0.000121858
0.000118181
0.000114667
0.000111306
0.000108089
0.000105028
0.000102041
9.97647e-05
0.000150815
0.000146253
0.000141908
0.000137766
0.000133813
0.000130037
0.000126425
0.000122968
0.000119668
0.000116472
0.00011391
0.000156242
0.000151535
0.000147051
0.000142773
0.000138688
0.000134781
0.00013104
0.000127456
0.000124023
0.000120697
0.000117965
1.47604e-05
1.45386e-05
1.4336e-05
1.41457e-05
1.3967e-05
1.38016e-05
1.36542e-05
1.34883e-05
1.33415e-05
1.32096e-05
1.30893e-05
1.29736e-05
4.81222e-05
4.58693e-05
4.38191e-05
4.18286e-05
3.99928e-05
3.8349e-05
3.65774e-05
3.55069e-05
3.37911e-05
3.30498e-05
3.14441e-05
3.06118e-05
8.98303e-05
8.64396e-05
8.31991e-05
8.00986e-05
7.72639e-05
7.44779e-05
7.17391e-05
6.9113e-05
6.67776e-05
6.52705e-05
6.20944e-05
0.00011847
0.000114584
0.000110861
0.000107302
0.000103913
0.000100647
9.75058e-05
9.44966e-05
9.16552e-05
8.896e-05
8.69116e-05
0.000134306
0.000130117
0.000126116
0.000122301
0.000118667
0.000115197
0.00011187
0.000108671
0.000105611
0.000102633
0.000100371
0.000139219
0.000134864
0.000130708
0.000126738
0.000122946
0.000119323
0.000115854
0.000112531
0.000109351
0.000106246
0.000103842
1.17959e-05
1.16513e-05
1.15026e-05
1.13615e-05
1.12377e-05
1.11198e-05
1.1014e-05
1.09121e-05
1.08103e-05
1.07118e-05
1.06259e-05
1.05545e-05
3.36278e-05
3.1441e-05
3.03986e-05
2.85612e-05
2.76246e-05
2.61144e-05
2.52208e-05
2.39225e-05
2.29731e-05
2.21009e-05
2.1081e-05
2.05336e-05
6.62492e-05
6.33379e-05
6.06933e-05
5.80116e-05
5.64005e-05
5.36518e-05
5.10204e-05
4.86226e-05
4.64531e-05
4.50121e-05
4.33187e-05
9.07431e-05
8.74864e-05
8.43486e-05
8.13617e-05
7.86113e-05
7.58906e-05
7.32005e-05
7.06122e-05
6.80766e-05
6.61064e-05
6.40779e-05
0.000104827
0.000101238
9.78032e-05
9.45226e-05
9.1402e-05
8.84045e-05
8.5527e-05
8.27797e-05
8.01515e-05
7.76296e-05
7.58104e-05
0.000108714
0.000104922
0.000101313
9.78745e-05
9.46167e-05
9.15249e-05
8.85672e-05
8.57428e-05
8.3035e-05
8.03779e-05
7.8432e-05
8.00628e-06
7.91717e-06
7.83076e-06
7.74674e-06
7.67008e-06
7.5972e-06
7.53036e-06
7.46723e-06
7.4068e-06
7.35295e-06
7.30505e-06
7.26201e-06
1.50286e-05
1.40981e-05
1.333e-05
1.26042e-05
1.19897e-05
1.13951e-05
1.08816e-05
1.03484e-05
9.82423e-06
9.46853e-06
9.16299e-06
8.95867e-06
3.34437e-05
3.14278e-05
3.02428e-05
2.83334e-05
2.74419e-05
2.57986e-05
2.47146e-05
2.36254e-05
2.22301e-05
2.15309e-05
2.05346e-05
5.00544e-05
4.78981e-05
4.58809e-05
4.394e-05
4.21303e-05
4.03825e-05
3.86913e-05
3.72069e-05
3.54742e-05
3.45002e-05
3.30921e-05
5.97509e-05
5.73087e-05
5.50098e-05
5.28379e-05
5.07842e-05
4.88386e-05
4.69883e-05
4.52397e-05
4.35607e-05
4.20147e-05
4.03675e-05
6.1973e-05
5.93314e-05
5.68769e-05
5.45775e-05
5.24195e-05
5.03887e-05
4.84739e-05
4.6671e-05
4.4956e-05
4.33616e-05
4.16372e-05
3.95832e-06
3.92141e-06
3.88611e-06
3.85223e-06
3.81994e-06
3.78946e-06
3.76105e-06
3.73384e-06
3.70813e-06
3.6849e-06
3.66334e-06
3.64367e-06
7.87028e-06
7.7656e-06
7.67225e-06
7.58013e-06
7.4958e-06
7.41522e-06
7.34138e-06
7.27106e-06
7.20545e-06
7.14756e-06
7.09535e-06
7.04679e-06
1.14643e-05
1.12958e-05
1.1153e-05
1.09843e-05
1.08483e-05
1.07175e-05
1.06e-05
1.04889e-05
1.03804e-05
1.02838e-05
1.01909e-05
1.4436e-05
1.41966e-05
1.39758e-05
1.37692e-05
1.35787e-05
1.34048e-05
1.32434e-05
1.30936e-05
1.2952e-05
1.28242e-05
1.26986e-05
1.64631e-05
1.6176e-05
1.59101e-05
1.56628e-05
1.54329e-05
1.52195e-05
1.50216e-05
1.48388e-05
1.4672e-05
1.4519e-05
1.4377e-05
1.72525e-05
1.69518e-05
1.66716e-05
1.64105e-05
1.61681e-05
1.59427e-05
1.57329e-05
1.55385e-05
1.53627e-05
1.52001e-05
1.50489e-05
)
;

boundaryField
{
    inlet
    {
        type            calculated;
        value           nonuniform List<scalar> 0();
    }
    ami1
    {
        type            cyclicAMI;
        value           nonuniform List<scalar> 0();
    }
    walls
    {
        type            nutkWallFunction;
        blending        stepwise;
        value           uniform 0;
    }
    ami2
    {
        type            cyclicAMI;
        value           nonuniform List<scalar> 0();
    }
    outlet
    {
        type            calculated;
        value           nonuniform List<scalar> 0();
    }
    procBoundary8to0
    {
        type            processor;
        value           nonuniform List<scalar> 
29
(
3.99682e-06
8.0991e-06
1.19478e-05
1.49983e-05
1.69549e-05
7.97719e-06
1.59764e-05
3.4769e-05
5.06277e-05
6.07626e-05
1.16384e-05
3.50847e-05
6.92358e-05
9.3533e-05
0.000107726
1.46952e-05
5.24253e-05
9.4288e-05
0.000122674
0.000138627
1.67745e-05
6.24862e-05
0.000108696
0.00013881
0.000155772
0.000161345
0.000143828
0.000161306
0.000167022
)
;
    }
    procBoundary8to1
    {
        type            processor;
        value           nonuniform List<scalar> 
33
(
1.75762e-05
6.49084e-05
0.000112746
1.6955e-05
6.07503e-05
0.000107684
0.000138555
0.000155725
0.000161305
1.49983e-05
5.06216e-05
9.35279e-05
0.000122661
0.000138814
0.000143901
1.19481e-05
3.47703e-05
6.92419e-05
9.42953e-05
0.000108725
0.000112831
8.09945e-06
1.59823e-05
3.51015e-05
5.24357e-05
6.25151e-05
6.4969e-05
3.99696e-06
7.97758e-06
1.16388e-05
1.46952e-05
1.67741e-05
1.75758e-05
)
;
    }
    procBoundary8to7
    {
        type            processor;
        value           nonuniform List<scalar> 
68
(
3.64303e-06
7.26124e-06
1.05524e-05
1.29698e-05
1.44752e-05
7.04567e-06
8.8073e-06
2.02018e-05
3.02744e-05
3.63475e-05
1.01023e-05
1.94824e-05
4.11492e-05
5.87309e-05
6.99439e-05
1.25589e-05
3.16031e-05
6.06284e-05
8.26555e-05
9.49134e-05
1.42392e-05
3.84458e-05
7.28804e-05
9.62233e-05
0.000109272
0.000113147
1.49121e-05
3.97867e-05
7.5599e-05
0.000100075
0.000113879
0.000117985
1.4467e-05
1.4467e-05
3.64369e-05
3.64369e-05
7.07154e-05
9.56286e-05
0.000109591
0.000113581
1.28686e-05
2.91439e-05
5.88856e-05
5.88856e-05
8.29116e-05
9.62932e-05
9.96893e-05
1.04851e-05
1.94452e-05
4.10666e-05
4.10666e-05
6.06946e-05
7.28519e-05
7.53083e-05
7.22177e-06
8.50991e-06
1.9442e-05
1.9442e-05
3.16303e-05
3.85101e-05
3.97544e-05
3.62486e-06
7.0008e-06
1.01027e-05
1.01027e-05
1.2561e-05
1.42419e-05
1.4914e-05
)
;
    }
    procBoundary8to9
    {
        type            processor;
        value           nonuniform List<scalar> 
132
(
1.72523e-05
1.69515e-05
1.66711e-05
1.64098e-05
1.61671e-05
1.59413e-05
1.5731e-05
1.55362e-05
1.53604e-05
1.51973e-05
1.50451e-05
6.1961e-05
5.93059e-05
5.68331e-05
5.45134e-05
5.23317e-05
5.02792e-05
4.83399e-05
4.65089e-05
4.47656e-05
4.31354e-05
4.13781e-05
0.000108704
0.000104897
0.000101266
9.78031e-05
9.45023e-05
9.1359e-05
8.83621e-05
8.54866e-05
8.27427e-05
8.00464e-05
7.80917e-05
0.000139222
0.000134847
0.000130664
0.000126662
0.000122831
0.000119158
0.000115634
0.000112248
0.000109
0.000105821
0.000103359
0.000139222
0.000134847
0.000130664
0.000126662
0.000122831
0.000119158
0.000115634
0.000112248
0.000109
0.000105821
0.000103359
0.000150824
0.000146227
0.000141841
0.000137653
0.000133648
0.000129814
0.000126137
0.000122606
0.000119225
0.000115936
0.000113293
0.000156233
0.000151512
0.000147014
0.000142722
0.00013862
0.000134693
0.000130931
0.00012732
0.000123855
0.000120492
0.000117734
0.000150783
0.000146186
0.000141801
0.000137613
0.00013361
0.000129776
0.000126101
0.000122571
0.000119188
0.000115899
0.000113261
0.000134007
0.000129727
0.000125635
0.00012172
0.000117978
0.000114393
0.000110952
0.000107649
0.000104494
0.00010141
9.90391e-05
0.000103635
9.9871e-05
9.62862e-05
9.28711e-05
8.96395e-05
8.65547e-05
8.36117e-05
8.07963e-05
7.81476e-05
7.5584e-05
7.35404e-05
5.78247e-05
5.52217e-05
5.2803e-05
5.05507e-05
4.84442e-05
4.64733e-05
4.46303e-05
4.28839e-05
4.12712e-05
3.95806e-05
3.795e-05
1.66614e-05
1.63882e-05
1.61334e-05
1.58955e-05
1.56726e-05
1.54678e-05
1.52741e-05
1.5093e-05
1.49255e-05
1.47695e-05
1.46241e-05
)
;
    }
}


// ************************************************************************* //
