/*--------------------------------*- C++ -*----------------------------------*\
| =========                 |                                                 |
| \\      /  F ield         | OpenFOAM: The Open Source CFD Toolbox           |
|  \\    /   O peration     | Version:  2212                                  |
|   \\  /    A nd           | Website:  www.openfoam.com                      |
|    \\/     M anipulation  |                                                 |
\*---------------------------------------------------------------------------*/
FoamFile
{
    version     2.0;
    format      ascii;
    arch        "LSB;label=32;scalar=64";
    class       volScalarField;
    location    "1";
    object      p;
}
// * * * * * * * * * * * * * * * * * * * * * * * * * * * * * * * * * * * * * //

dimensions      [0 2 -2 0 0 0 0];

internalField   nonuniform List<scalar> 
690
(
0.00312728
0.00299938
0.00287192
0.00274499
0.00261943
0.00249563
0.00237323
0.00225218
0.00213163
0.00201248
0.0018961
0.00312824
0.00299779
0.00286812
0.00273986
0.00261342
0.00248912
0.00236638
0.00224525
0.00212475
0.0020058
0.00188959
0.003127
0.00299526
0.002865
0.00273668
0.00261006
0.00248552
0.0023624
0.00224103
0.00212054
0.00200229
0.00188636
0.00314137
0.00300861
0.00287765
0.00274852
0.00262107
0.00249538
0.00237109
0.00224867
0.00212773
0.00200882
0.00189216
0.00314437
0.00301219
0.00288161
0.00275268
0.00262539
0.0024997
0.00237561
0.00225319
0.00213248
0.0020135
0.00189603
0.00312666
0.00300164
0.00287672
0.00275135
0.00262649
0.00250309
0.00238081
0.00225984
0.0021391
0.00201962
0.00190305
0.00313251
0.00300456
0.00287723
0.00275065
0.00262536
0.00250193
0.00237932
0.00225836
0.00213767
0.00201882
0.00190255
0.00312298
0.00299416
0.00286662
0.00274001
0.00261501
0.00249172
0.00236918
0.00224748
0.00212737
0.00200938
0.00189302
0.00312997
0.00300031
0.00287187
0.00274451
0.00261862
0.00249404
0.00237094
0.00224892
0.00212867
0.00201024
0.00189313
0.00313279
0.003003
0.00287433
0.00274686
0.00262081
0.00249611
0.00237287
0.00225087
0.00213032
0.0020111
0.00189348
0.00312227
0.00299557
0.00286985
0.00274424
0.0026196
0.00249655
0.00237418
0.00225354
0.00213325
0.00201451
0.0018984
0.00312299
0.00299324
0.00286475
0.00273802
0.00261342
0.00249068
0.00236887
0.00224777
0.00212807
0.00201043
0.00189436
0.00309903
0.00296981
0.00284236
0.00271665
0.00259208
0.00246823
0.00234625
0.00222549
0.00210714
0.00199033
0.00187408
0.00309679
0.00296738
0.0028396
0.00271347
0.00258837
0.00246416
0.002342
0.00222169
0.00210315
0.00198509
0.00186744
0.00309408
0.00296477
0.002837
0.00271067
0.0025857
0.00246204
0.00233985
0.00221912
0.0020997
0.00198102
0.00186338
0.00313221
0.00300187
0.00287282
0.00274569
0.00262037
0.00249655
0.00237397
0.00225288
0.00213267
0.00201416
0.00189804
0.00313039
0.00299982
0.00287071
0.00274341
0.00261775
0.00249348
0.00237081
0.00224916
0.0021294
0.00201119
0.00189444
0.00309836
0.00296827
0.00283998
0.00271354
0.00258818
0.00246379
0.00234133
0.0022208
0.00210236
0.00198473
0.00186726
0.00308886
0.00295909
0.00283108
0.00270474
0.00257974
0.002456
0.00233388
0.00221352
0.0020947
0.00197626
0.00185786
0.00308203
0.00295255
0.00282475
0.0026985
0.00257372
0.00245035
0.00232841
0.00220789
0.00208864
0.00197039
0.00185252
0.00314016
0.00300914
0.00287958
0.00275174
0.00262551
0.00250079
0.00237753
0.00225575
0.00213546
0.00201691
0.00190016
0.00313702
0.00300604
0.00287659
0.00274872
0.00262236
0.00249747
0.00237408
0.00225207
0.00213171
0.00201262
0.00189506
0.00309868
0.00296847
0.0028399
0.00271295
0.00258746
0.00246338
0.00234085
0.00221987
0.00210041
0.00198198
0.00186425
0.00308441
0.00295458
0.00282645
0.00269993
0.00257493
0.00245138
0.0023293
0.00220868
0.00208939
0.0019712
0.00185335
0.00307585
0.00294622
0.0028183
0.00269199
0.00256722
0.0024439
0.00232199
0.00220143
0.0020821
0.00196393
0.0018463
0.0030739
0.0029443
0.00281643
0.00269017
0.00256544
0.00244217
0.0023203
0.00219974
0.00208041
0.00196225
0.00184475
0.00314382
0.00301218
0.00288206
0.00275355
0.00262662
0.00250118
0.00237732
0.0022551
0.00213456
0.00201584
0.00189881
0.00313648
0.00300619
0.00287714
0.00274942
0.00262302
0.00249806
0.00237454
0.00225241
0.00213174
0.00201236
0.00189471
0.00309643
0.00296682
0.00283874
0.00271211
0.00258689
0.00246313
0.00234075
0.00221975
0.00210008
0.00198151
0.00186384
0.00308198
0.00295249
0.00282465
0.00269836
0.00257357
0.0024502
0.00232823
0.00220761
0.00208824
0.00197004
0.00185224
0.0030739
0.00294433
0.00281649
0.00269026
0.00256556
0.00244231
0.00232045
0.0021999
0.00208057
0.00196237
0.00184478
0.00307112
0.00294167
0.00281392
0.00268775
0.00256311
0.00243992
0.0023181
0.00219757
0.00207826
0.00196008
0.00184263
0.00314408
0.00301181
0.00288114
0.00275214
0.00262479
0.00249907
0.00237497
0.00225258
0.00213191
0.0020131
0.00189597
0.00313255
0.00300269
0.00287397
0.00274646
0.00262037
0.00249566
0.00237244
0.00225047
0.00212997
0.00201083
0.00189344
0.00309396
0.00296467
0.00283693
0.00271064
0.00258571
0.0024621
0.00233994
0.00221924
0.00209992
0.00198128
0.00186352
0.00308198
0.00295254
0.00282477
0.00269857
0.00257383
0.0024505
0.00232859
0.0022081
0.0020889
0.00197068
0.00185277
0.00307585
0.00294623
0.00281833
0.00269205
0.0025673
0.00244401
0.00232211
0.00220156
0.00208224
0.00196405
0.00184638
0.00307389
0.0029443
0.00281645
0.00269021
0.0025655
0.00244224
0.00232038
0.00219983
0.00208049
0.00196231
0.00184477
0.00314117
0.00300835
0.00287731
0.00274812
0.00262065
0.00249494
0.00237066
0.0022483
0.00212746
0.00200865
0.00189176
0.00177619
0.00312978
0.00300006
0.00287158
0.00274418
0.00261826
0.00249369
0.00237059
0.00224867
0.00212839
0.00201005
0.00189372
0.00177753
0.00309662
0.00296722
0.00283945
0.00271335
0.0025883
0.00246414
0.002342
0.00222164
0.00210319
0.00198525
0.00186786
0.00308878
0.00295901
0.00283102
0.00270471
0.00257975
0.00245603
0.00233393
0.00221355
0.0020948
0.00197641
0.00185797
0.0030844
0.00295456
0.00282644
0.00269993
0.00257495
0.00245141
0.00232934
0.00220871
0.00208943
0.00197123
0.00185335
0.00308198
0.00295246
0.0028246
0.0026983
0.0025735
0.00245013
0.00232814
0.0022075
0.00208811
0.00196988
0.00185212
0.00312685
0.00299507
0.00286478
0.00273642
0.00260979
0.00248524
0.00236219
0.00224082
0.00212054
0.00200246
0.00188594
0.00177131
0.00312289
0.00299402
0.00286645
0.00273981
0.00261478
0.00249148
0.00236896
0.00224744
0.00212731
0.00200931
0.00189352
0.00177816
0.00309894
0.00296971
0.00284224
0.00271655
0.00259203
0.00246824
0.0023463
0.00222561
0.00210721
0.00199038
0.00187464
0.00309833
0.00296824
0.00283996
0.00271355
0.00258824
0.0024639
0.00234147
0.00222088
0.00210248
0.00198487
0.00186732
0.00309872
0.00296852
0.00283996
0.00271301
0.00258755
0.0024635
0.00234099
0.00222
0.00210054
0.00198209
0.00186426
0.00309647
0.00296686
0.00283878
0.00271214
0.00258693
0.00246317
0.00234078
0.00221976
0.00210006
0.00198145
0.00186374
0.00312811
0.00299763
0.00286794
0.00273966
0.00261321
0.00248889
0.00236619
0.00224511
0.00212477
0.00200607
0.00188933
0.00177494
0.00313244
0.00300449
0.00287716
0.00275056
0.00262523
0.00250178
0.0023792
0.00225827
0.00213774
0.00201908
0.00190257
0.00178773
0.00312296
0.00299321
0.00286471
0.00273798
0.00261336
0.00249065
0.00236889
0.00224795
0.00212827
0.00201058
0.00189497
0.00313039
0.00299982
0.0028707
0.00274343
0.0026178
0.00249357
0.00237096
0.00224937
0.00212964
0.00201144
0.00189469
0.00313704
0.00300608
0.00287665
0.00274881
0.00262249
0.00249762
0.00237428
0.00225231
0.00213197
0.0020129
0.00189532
0.00313653
0.00300627
0.00287726
0.00274957
0.0026232
0.00249827
0.00237475
0.00225265
0.00213199
0.0020126
0.00189492
0.00312718
0.00299927
0.00287181
0.00274487
0.00261931
0.00249549
0.00237312
0.00225213
0.00213172
0.00201282
0.0018961
0.00178165
0.00312659
0.00300157
0.00287669
0.00275131
0.00262646
0.00250303
0.00238078
0.00225988
0.00213927
0.00202005
0.00190319
0.00178859
0.00312221
0.00299552
0.00286984
0.00274423
0.00261958
0.00249653
0.00237418
0.00225363
0.00213344
0.00201484
0.00189903
0.0031322
0.00300188
0.00287283
0.0027457
0.00262038
0.00249658
0.00237404
0.00225301
0.0021329
0.0020145
0.00189852
0.00314016
0.00300917
0.00287963
0.0027518
0.00262559
0.00250089
0.00237766
0.00225593
0.0021357
0.0020172
0.00190055
0.00314392
0.00301232
0.00288222
0.00275374
0.00262684
0.00250143
0.00237761
0.00225541
0.00213488
0.00201613
0.00189903
)
;

boundaryField
{
    inlet
    {
        type            zeroGradient;
    }
    ami1
    {
        type            cyclicAMI;
        value           nonuniform List<scalar> 0();
    }
    walls
    {
        type            zeroGradient;
    }
    ami2
    {
        type            cyclicAMI;
        value           nonuniform List<scalar> 0();
    }
    outlet
    {
        type            fixedValue;
        value           nonuniform List<scalar> 0();
    }
    procBoundary8to0
    {
        type            processor;
        value           nonuniform List<scalar> 
29
(
0.00325544
0.00325907
0.00326007
0.00327586
0.00327837
0.00325203
0.00326058
0.00325299
0.00326073
0.00326358
0.00324959
0.00325341
0.00323042
0.00322811
0.00322517
0.00326278
0.00326264
0.00323065
0.00322067
0.00321335
0.00327212
0.00326961
0.00323082
0.00321614
0.00320739
0.00320541
0.0032133
0.00320539
0.00320241
)
;
    }
    procBoundary8to1
    {
        type            processor;
        value           nonuniform List<scalar> 
33
(
0.00327698
0.00326795
0.00322782
0.00327816
0.00326342
0.00322506
0.00321329
0.00320737
0.00320539
0.00327571
0.00326059
0.00322797
0.00322058
0.00321613
0.00321334
0.00325996
0.00325291
0.00323033
0.00323061
0.00323087
0.00322789
0.00325899
0.00326055
0.00325336
0.00326261
0.0032696
0.00326796
0.00325538
0.00325201
0.00324956
0.00326275
0.00327209
0.00327702
)
;
    }
    procBoundary8to7
    {
        type            processor;
        value           nonuniform List<scalar> 
68
(
0.00178142
0.0017749
0.00177128
0.0017762
0.00177926
0.00178823
0.00178746
0.00177744
0.00177683
0.00177766
0.00178351
0.00177936
0.00175833
0.00175156
0.00174777
0.00178321
0.00177894
0.00175097
0.00174119
0.00173581
0.00178433
0.00177938
0.00174801
0.00173631
0.00172969
0.00172826
0.00178268
0.00177915
0.00174746
0.00173511
0.00172815
0.0017262
0.00177947
0.00177947
0.00177777
0.00177777
0.00174781
0.00173588
0.00172966
0.00172821
0.00166194
0.00166167
0.00175183
0.00175183
0.00174117
0.00173623
0.00173508
0.00165808
0.00166339
0.00175893
0.00175893
0.00175099
0.00174792
0.00174738
0.00166175
0.00167382
0.00178017
0.00178017
0.00177924
0.00177964
0.00177928
0.00166803
0.00167462
0.00178443
0.00178443
0.00178383
0.00178482
0.00178281
)
;
    }
    procBoundary8to9
    {
        type            processor;
        value           nonuniform List<scalar> 
132
(
0.00314414
0.0030126
0.00288257
0.00275414
0.00262726
0.00250186
0.00237802
0.00225578
0.00213519
0.00201634
0.00189905
0.00313676
0.00300652
0.00287752
0.00274983
0.00262347
0.00249852
0.00237498
0.00225283
0.00213208
0.00201262
0.00189485
0.00309654
0.00296691
0.00283879
0.00271212
0.00258687
0.00246308
0.00234065
0.0022196
0.00209989
0.00198128
0.00186367
0.00308202
0.00295249
0.0028246
0.00269827
0.00257343
0.00245003
0.00232803
0.00220738
0.002088
0.00196981
0.00185212
0.00308202
0.00295249
0.0028246
0.00269827
0.00257343
0.00245003
0.00232803
0.00220738
0.002088
0.00196981
0.00185212
0.00307589
0.00294625
0.00281833
0.00269201
0.00256723
0.00244391
0.002322
0.00220143
0.0020821
0.00196393
0.00184631
0.00307392
0.00294433
0.00281647
0.00269022
0.0025655
0.00244224
0.00232037
0.00219982
0.00208049
0.00196233
0.00184482
0.00307584
0.0029462
0.00281828
0.00269197
0.00256719
0.00244387
0.00232196
0.0022014
0.00208209
0.00196394
0.00184638
0.003082
0.00295252
0.00282472
0.00269848
0.00257371
0.00245035
0.00232841
0.0022079
0.00208864
0.00197039
0.00185254
0.00309403
0.00296473
0.00283698
0.00271067
0.0025857
0.00246208
0.00233987
0.00221918
0.00209972
0.00198103
0.00186339
0.00313265
0.00300284
0.00287419
0.00274671
0.00262062
0.00249599
0.00237263
0.00225077
0.0021302
0.00201099
0.00189348
0.00314427
0.00301204
0.0028814
0.00275244
0.00262514
0.00249947
0.00237545
0.00225305
0.0021324
0.00201347
0.00189602
)
;
    }
}


// ************************************************************************* //
