/*--------------------------------*- C++ -*----------------------------------*\
| =========                 |                                                 |
| \\      /  F ield         | OpenFOAM: The Open Source CFD Toolbox           |
|  \\    /   O peration     | Version:  2212                                  |
|   \\  /    A nd           | Website:  www.openfoam.com                      |
|    \\/     M anipulation  |                                                 |
\*---------------------------------------------------------------------------*/
FoamFile
{
    version     2.0;
    format      ascii;
    arch        "LSB;label=32;scalar=64";
    class       surfaceScalarField;
    location    "1";
    object      phi;
}
// * * * * * * * * * * * * * * * * * * * * * * * * * * * * * * * * * * * * * //

dimensions      [0 3 -1 0 0 0 0];

oriented        oriented;

internalField   nonuniform List<scalar> 
1815
(
7.07164e-08
-3.41394e-08
3.51289e-08
6.97732e-08
-3.40746e-08
3.50179e-08
6.88735e-08
-3.40298e-08
3.49295e-08
6.80145e-08
-3.40126e-08
3.48717e-08
6.72038e-08
-3.40127e-08
3.48234e-08
6.64493e-08
-3.40276e-08
3.47821e-08
6.57452e-08
-3.40439e-08
3.47479e-08
6.50888e-08
-3.4066e-08
3.47224e-08
6.44662e-08
-3.40903e-08
3.47128e-08
6.38782e-08
-3.41201e-08
3.4708e-08
-3.41558e-08
3.46877e-08
2.24094e-07
-6.4e-08
3.23336e-08
2.21702e-07
-6.39588e-08
3.22759e-08
2.1941e-07
-6.39652e-08
3.22282e-08
2.17224e-07
-6.40058e-08
3.21791e-08
2.15155e-07
-6.4058e-08
3.2114e-08
2.13212e-07
-6.41129e-08
3.20282e-08
2.11372e-07
-6.41493e-08
3.19456e-08
2.09631e-07
-6.41852e-08
3.18599e-08
2.07981e-07
-6.4247e-08
3.18069e-08
2.06435e-07
-6.43472e-08
3.17729e-08
-6.4425e-08
3.16987e-08
4.33493e-07
-8.93964e-08
2.89201e-08
4.29974e-07
-8.93523e-08
2.89118e-08
4.26491e-07
-8.93332e-08
2.88509e-08
4.23062e-07
-8.9332e-08
2.87559e-08
4.19708e-07
-8.93409e-08
2.86371e-08
4.16454e-07
-8.93499e-08
2.84906e-08
4.13299e-07
-8.93546e-08
2.83606e-08
4.10258e-07
-8.93735e-08
2.82295e-08
4.07332e-07
-8.94204e-08
2.80987e-08
4.04529e-07
-8.94833e-08
2.79395e-08
-8.95302e-08
2.77695e-08
6.19904e-07
-1.07597e-07
2.24303e-08
6.1546e-07
-1.07491e-07
2.25832e-08
6.1087e-07
-1.07408e-07
2.26644e-08
6.06204e-07
-1.07348e-07
2.26827e-08
6.01525e-07
-1.07311e-07
2.26486e-08
5.96899e-07
-1.07294e-07
2.257e-08
5.92378e-07
-1.07298e-07
2.24645e-08
5.88006e-07
-1.07322e-07
2.23205e-08
5.83794e-07
-1.07365e-07
2.21558e-08
5.79751e-07
-1.07406e-07
2.19663e-08
-1.0743e-07
2.17549e-08
7.40168e-07
1.47922e-08
7.35272e-07
1.50239e-08
7.30139e-07
1.51599e-08
7.24875e-07
1.52124e-08
7.19568e-07
1.51934e-08
7.14289e-07
1.51125e-08
7.09095e-07
1.4981e-08
7.04032e-07
1.48091e-08
6.99124e-07
1.46089e-08
6.944e-07
1.43934e-08
1.41541e-08
2.11511e-07
-2.90387e-08
6.69626e-08
2.08833e-07
-2.91576e-08
6.68541e-08
2.0628e-07
-2.92285e-08
6.67111e-08
2.03843e-07
-2.93034e-08
6.66116e-08
2.01537e-07
-2.94009e-08
6.65302e-08
1.99378e-07
-2.95166e-08
6.6458e-08
1.9735e-07
-2.96288e-08
6.64048e-08
1.95451e-07
-2.97341e-08
6.6355e-08
1.9366e-07
-2.97992e-08
6.63036e-08
1.91967e-07
-2.98367e-08
6.62371e-08
-2.99181e-08
6.61688e-08
5.3337e-07
-5.41108e-08
6.0859e-08
5.30139e-07
-5.44251e-08
6.0775e-08
5.27069e-07
-5.46609e-08
6.07299e-08
5.24112e-07
-5.48559e-08
6.0689e-08
5.2125e-07
-5.50325e-08
6.06073e-08
5.18485e-07
-5.52102e-08
6.04867e-08
5.15815e-07
-5.53732e-08
6.036e-08
5.13235e-07
-5.55178e-08
6.02235e-08
5.1071e-07
-5.56124e-08
6.0145e-08
5.08202e-07
-5.56742e-08
6.01191e-08
-5.5793e-08
6.00169e-08
8.2586e-07
-7.6299e-08
5.21126e-08
8.24916e-07
-7.66193e-08
5.20504e-08
8.24001e-07
-7.68746e-08
5.19788e-08
8.23094e-07
-7.70932e-08
5.19007e-08
8.2215e-07
-7.72582e-08
5.18071e-08
8.21148e-07
-7.73907e-08
5.16724e-08
8.20104e-07
-7.74985e-08
5.15298e-08
8.19039e-07
-7.76106e-08
5.13876e-08
8.17922e-07
-7.76785e-08
5.12821e-08
8.16765e-07
-7.77492e-08
5.11713e-08
-7.78574e-08
5.10015e-08
1.03799e-06
-9.36969e-08
3.88631e-08
1.03875e-06
-9.37728e-08
3.8976e-08
1.03932e-06
-9.38181e-08
3.90401e-08
1.0397e-06
-9.3849e-08
3.90561e-08
1.03992e-06
-9.38656e-08
3.90399e-08
1.03998e-06
-9.38729e-08
3.89873e-08
1.03991e-06
-9.38681e-08
3.89093e-08
1.0397e-06
-9.38753e-08
3.87951e-08
1.03936e-06
-9.38765e-08
3.86889e-08
1.03891e-06
-9.38751e-08
3.85429e-08
-9.39034e-08
3.83253e-08
1.16593e-06
2.36906e-08
1.16734e-06
2.38913e-08
1.16844e-06
2.40193e-08
1.16925e-06
2.40777e-08
1.16982e-06
2.40765e-08
1.1702e-06
2.40226e-08
1.17041e-06
2.39242e-08
1.17047e-06
2.37851e-08
1.1704e-06
2.36228e-08
1.17024e-06
2.34491e-08
2.32339e-08
3.94741e-07
-2.02518e-08
9.23065e-08
3.90075e-07
-2.06317e-08
9.21517e-08
3.85808e-07
-2.10222e-08
9.20009e-08
3.81839e-07
-2.13128e-08
9.18931e-08
3.78115e-07
-2.15647e-08
9.18187e-08
3.74614e-07
-2.18099e-08
9.17695e-08
3.71313e-07
-2.20208e-08
9.17263e-08
3.68201e-07
-2.22203e-08
9.16871e-08
3.65255e-07
-2.23788e-08
9.16283e-08
3.62457e-07
-2.25188e-08
9.15544e-08
-2.26881e-08
9.14831e-08
8.07001e-07
-3.97657e-08
8.33407e-08
8.04436e-07
-4.02926e-08
8.30012e-08
8.02167e-07
-4.07496e-08
8.27263e-08
8.0012e-07
-4.10971e-08
8.25198e-08
7.98223e-07
-4.14171e-08
8.23568e-08
7.96428e-07
-4.17477e-08
8.222e-08
7.9471e-07
-4.20446e-08
8.21009e-08
7.93086e-07
-4.23293e-08
8.19569e-08
7.91491e-07
-4.25208e-08
8.18817e-08
7.899e-07
-4.26596e-08
8.18511e-08
-4.28604e-08
8.1759e-08
1.11249e-06
-5.78251e-08
6.97297e-08
1.11316e-06
-5.83745e-08
6.94586e-08
1.11399e-06
-5.88357e-08
6.92377e-08
1.1149e-06
-5.9195e-08
6.90808e-08
1.1159e-06
-5.95261e-08
6.89208e-08
1.11697e-06
-5.98693e-08
6.87227e-08
1.11809e-06
-6.01713e-08
6.85427e-08
1.11915e-06
-6.04026e-08
6.83986e-08
1.12015e-06
-6.05514e-08
6.83091e-08
1.12108e-06
-6.0672e-08
6.82567e-08
-6.08431e-08
6.81376e-08
1.32711e-06
-7.28837e-08
5.09309e-08
1.33006e-06
-7.31892e-08
5.08423e-08
1.33294e-06
-7.34383e-08
5.07589e-08
1.33576e-06
-7.3638e-08
5.068e-08
1.3385e-06
-7.38113e-08
5.0586e-08
1.34113e-06
-7.39751e-08
5.04666e-08
1.34364e-06
-7.41181e-08
5.03403e-08
1.34603e-06
-7.42225e-08
5.02315e-08
1.3483e-06
-7.42833e-08
5.01491e-08
1.35048e-06
-7.43516e-08
5.00371e-08
-7.44621e-08
4.98628e-08
1.45568e-06
2.95035e-08
1.45975e-06
2.95164e-08
1.46362e-06
2.95039e-08
1.4673e-06
2.94645e-08
1.47079e-06
2.93973e-08
1.4741e-06
2.93045e-08
1.47722e-06
2.91911e-08
1.48018e-06
2.90658e-08
1.483e-06
2.89365e-08
1.48568e-06
2.88083e-08
2.86271e-08
5.73449e-07
-1.06222e-08
1.10104e-07
5.66847e-07
-1.10566e-08
1.09811e-07
5.6074e-07
-1.14769e-08
1.09584e-07
5.55081e-07
-1.18694e-08
1.09422e-07
5.49814e-07
-1.22265e-08
1.09312e-07
5.44895e-07
-1.255e-08
1.09238e-07
5.40282e-07
-1.28507e-08
1.0919e-07
5.35962e-07
-1.31413e-08
1.09148e-07
5.31901e-07
-1.3405e-08
1.09095e-07
5.28061e-07
-1.36407e-08
1.09035e-07
-1.38863e-08
1.09005e-07
1.01551e-06
-2.38127e-08
9.90648e-08
1.01339e-06
-2.43995e-08
9.84692e-08
1.01158e-06
-2.49314e-08
9.79848e-08
1.01004e-06
-2.54082e-08
9.75969e-08
1.00872e-06
-2.58357e-08
9.72904e-08
1.00756e-06
-2.62262e-08
9.70537e-08
1.00654e-06
-2.65972e-08
9.6869e-08
1.0056e-06
-2.69583e-08
9.67123e-08
1.00471e-06
-2.7238e-08
9.66075e-08
1.00382e-06
-2.74496e-08
9.65458e-08
-2.77319e-08
9.64711e-08
1.32037e-06
-3.6908e-08
8.15065e-08
1.32188e-06
-3.74981e-08
8.10441e-08
1.32354e-06
-3.80174e-08
8.06606e-08
1.32534e-06
-3.84702e-08
8.03478e-08
1.32723e-06
-3.88829e-08
8.0078e-08
1.32917e-06
-3.92745e-08
7.98311e-08
1.33113e-06
-3.96356e-08
7.96148e-08
1.33309e-06
-3.99522e-08
7.94396e-08
1.33503e-06
-4.01944e-08
7.93221e-08
1.33696e-06
-4.03748e-08
7.92484e-08
-4.06245e-08
7.91317e-08
1.53365e-06
-4.84578e-08
5.84323e-08
1.53765e-06
-4.88448e-08
5.81888e-08
1.5416e-06
-4.91838e-08
5.79771e-08
1.5455e-06
-4.94804e-08
5.77914e-08
1.54933e-06
-4.97471e-08
5.762e-08
1.55306e-06
-4.99945e-08
5.74546e-08
1.55669e-06
-5.02193e-08
5.72998e-08
1.56021e-06
-5.04113e-08
5.7167e-08
1.56367e-06
-5.0566e-08
5.70593e-08
1.56707e-06
-5.06951e-08
5.69626e-08
-5.08563e-08
5.6829e-08
1.66189e-06
3.23166e-08
1.6673e-06
3.22033e-08
1.67253e-06
3.20928e-08
1.67758e-06
3.1982e-08
1.68245e-06
3.18683e-08
1.68714e-06
3.17506e-08
1.69165e-06
3.16311e-08
1.69599e-06
3.1514e-08
1.70019e-06
3.14022e-08
1.70426e-06
3.12978e-08
3.11641e-08
7.10469e-07
-1.43049e-09
1.18879e-07
7.03415e-07
-1.69004e-09
1.18555e-07
6.96649e-07
-1.95603e-09
1.18306e-07
6.90183e-07
-2.23011e-09
1.18119e-07
6.84023e-07
-2.51235e-09
1.17983e-07
6.78173e-07
-2.79946e-09
1.17889e-07
6.72629e-07
-3.09082e-09
1.17825e-07
6.67382e-07
-3.386e-09
1.17781e-07
6.62408e-07
-3.67832e-09
1.17747e-07
6.57681e-07
-3.95718e-09
1.1772e-07
-4.23347e-09
1.1771e-07
1.15139e-06
-7.59213e-09
1.06419e-07
1.15031e-06
-7.94195e-09
1.05807e-07
1.14932e-06
-8.28751e-09
1.05301e-07
1.14844e-06
-8.63043e-09
1.04885e-07
1.14764e-06
-8.96917e-09
1.04547e-07
1.14691e-06
-9.30293e-09
1.04283e-07
1.14625e-06
-9.63318e-09
1.04069e-07
1.14564e-06
-9.95964e-09
1.039e-07
1.14506e-06
-1.0262e-08
1.03772e-07
1.1445e-06
-1.05268e-08
1.03678e-07
-1.08168e-08
1.03599e-07
1.45052e-06
-1.48684e-08
8.61561e-08
1.45313e-06
-1.52552e-08
8.57443e-08
1.45574e-06
-1.56219e-08
8.53882e-08
1.45834e-06
-1.59692e-08
8.50842e-08
1.46093e-06
-1.6301e-08
8.48244e-08
1.46348e-06
-1.66218e-08
8.46008e-08
1.46598e-06
-1.69299e-08
8.44101e-08
1.46842e-06
-1.72196e-08
8.42529e-08
1.47083e-06
-1.74781e-08
8.41322e-08
1.47319e-06
-1.76888e-08
8.40466e-08
-1.79357e-08
8.39625e-08
1.66088e-06
-2.20465e-08
6.05073e-08
1.66583e-06
-2.23379e-08
6.03169e-08
1.67065e-06
-2.26092e-08
6.01473e-08
1.67534e-06
-2.28621e-08
5.99973e-08
1.67989e-06
-2.30998e-08
5.98633e-08
1.68431e-06
-2.33252e-08
5.97421e-08
1.68858e-06
-2.35376e-08
5.96338e-08
1.69272e-06
-2.37331e-08
5.95406e-08
1.69675e-06
-2.39076e-08
5.94632e-08
1.70068e-06
-2.40574e-08
5.93994e-08
-2.42308e-08
5.93297e-08
1.78829e-06
-2.80727e-08
3.17956e-08
1.7946e-06
-2.81714e-08
3.17219e-08
1.8007e-06
-2.82628e-08
3.16529e-08
1.80658e-06
-2.83479e-08
3.15876e-08
1.81225e-06
-2.84276e-08
3.15246e-08
1.81771e-06
-2.85029e-08
3.14633e-08
1.82298e-06
-2.85737e-08
3.14041e-08
1.82805e-06
-2.86389e-08
3.13481e-08
1.83294e-06
-2.86975e-08
3.12962e-08
1.83768e-06
-2.87494e-08
3.12487e-08
-2.88091e-08
3.11943e-08
1.83096e-06
1.84733e-09
1.83767e-06
1.78038e-09
1.84414e-06
1.71453e-09
1.85038e-06
1.64953e-09
1.85639e-06
1.58525e-09
1.86217e-06
1.52176e-09
1.86774e-06
1.45956e-09
1.87309e-06
1.39959e-09
1.87825e-06
1.34282e-09
1.88324e-06
1.29058e-09
1.23267e-09
7.70857e-07
6.83704e-09
1.17851e-07
7.64901e-07
6.89751e-09
1.17613e-07
7.58895e-07
6.88058e-09
1.17432e-07
7.5292e-07
6.79757e-09
1.17296e-07
7.47044e-07
6.65996e-09
1.172e-07
7.41311e-07
6.48762e-09
1.17133e-07
7.35766e-07
6.27495e-09
1.17095e-07
7.3043e-07
6.03732e-09
1.17079e-07
7.25307e-07
5.78937e-09
1.1708e-07
7.204e-07
5.53693e-09
1.1709e-07
5.26443e-09
1.1711e-07
1.20381e-06
8.10288e-09
1.04371e-07
1.20435e-06
8.11768e-09
1.04051e-07
1.20468e-06
8.07634e-09
1.0377e-07
1.20486e-06
7.98086e-09
1.03526e-07
1.2049e-06
7.83883e-09
1.03327e-07
1.20483e-06
7.67002e-09
1.03163e-07
1.20469e-06
7.46559e-09
1.03026e-07
1.20447e-06
7.23712e-09
1.02917e-07
1.2042e-06
7.00271e-09
1.02834e-07
1.20387e-06
6.77264e-09
1.0277e-07
6.50573e-09
1.0272e-07
1.49678e-06
7.29658e-09
8.29845e-08
1.50056e-06
7.18901e-09
8.28905e-08
1.50417e-06
7.06106e-09
8.27979e-08
1.50761e-06
6.91327e-09
8.27098e-08
1.51089e-06
6.74782e-09
8.26305e-08
1.51403e-06
6.56751e-09
8.2566e-08
1.51702e-06
6.37549e-09
8.2512e-08
1.51987e-06
6.17769e-09
8.24632e-08
1.5226e-06
5.98377e-09
8.24178e-08
1.52523e-06
5.81399e-09
8.2382e-08
5.60276e-09
8.23655e-08
1.70436e-06
5.08691e-09
5.68806e-08
1.70997e-06
4.94162e-09
5.69477e-08
1.71538e-06
4.79537e-09
5.70042e-08
1.72059e-06
4.64794e-09
5.7052e-08
1.72561e-06
4.49928e-09
5.70944e-08
1.73044e-06
4.34971e-09
5.7134e-08
1.73507e-06
4.20085e-09
5.71707e-08
1.73953e-06
4.05567e-09
5.72017e-08
1.74384e-06
3.91778e-09
5.72259e-08
1.74801e-06
3.79344e-09
5.72459e-08
3.64255e-09
5.72781e-08
1.83095e-06
1.84085e-09
2.80758e-08
1.83767e-06
1.77554e-09
2.81755e-08
1.84413e-06
1.71245e-09
2.82678e-08
1.85037e-06
1.65134e-09
2.83534e-08
1.85636e-06
1.59189e-09
2.84329e-08
1.86214e-06
1.53402e-09
2.85073e-08
1.86769e-06
1.47804e-09
2.85765e-08
1.87303e-06
1.42466e-09
2.86396e-08
1.87817e-06
1.3745e-09
2.86957e-08
1.88314e-06
1.32817e-09
2.87449e-08
1.27288e-09
2.88015e-08
1.87355e-06
-1.83837e-09
1.88065e-06
-1.77161e-09
1.88749e-06
-1.70683e-09
1.89408e-06
-1.64397e-09
1.90042e-06
-1.58295e-09
1.90652e-06
-1.52374e-09
1.91239e-06
-1.46664e-09
1.91803e-06
-1.41235e-09
1.92345e-06
-1.36155e-09
1.92869e-06
-1.31492e-09
-1.26105e-09
7.40157e-07
1.47858e-08
1.07591e-07
7.35275e-07
1.50125e-08
1.07482e-07
7.30166e-07
1.51424e-08
1.07399e-07
7.24936e-07
1.51885e-08
1.07338e-07
7.19671e-07
1.51633e-08
1.07301e-07
7.14444e-07
1.50761e-08
1.07285e-07
7.0931e-07
1.49389e-08
1.07289e-07
7.04314e-07
1.47621e-08
1.07313e-07
6.99477e-07
1.45614e-08
1.07357e-07
6.94817e-07
1.43491e-08
1.074e-07
1.41052e-08
1.07446e-07
1.16594e-06
2.36787e-08
9.36951e-08
1.16736e-06
2.38765e-08
9.37697e-08
1.16845e-06
2.40016e-08
9.38134e-08
1.16927e-06
2.40571e-08
9.38427e-08
1.16985e-06
2.40533e-08
9.38584e-08
1.17023e-06
2.39973e-08
9.38641e-08
1.17043e-06
2.38972e-08
9.38577e-08
1.17049e-06
2.37573e-08
9.38629e-08
1.17043e-06
2.35995e-08
9.38627e-08
1.17025e-06
2.34352e-08
9.38591e-08
2.32235e-08
9.38553e-08
1.45568e-06
2.94893e-08
7.28866e-08
1.45975e-06
2.95014e-08
7.31929e-08
1.46362e-06
2.94891e-08
7.34431e-08
1.46729e-06
2.94508e-08
7.3643e-08
1.47077e-06
2.93859e-08
7.38152e-08
1.47406e-06
2.9296e-08
7.39776e-08
1.47717e-06
2.91857e-08
7.41197e-08
1.4801e-06
2.90647e-08
7.42247e-08
1.48289e-06
2.89428e-08
7.42822e-08
1.48554e-06
2.88264e-08
7.43416e-08
2.86567e-08
7.44362e-08
1.66189e-06
3.23042e-08
4.846e-08
1.6673e-06
3.21916e-08
4.88481e-08
1.67252e-06
3.20831e-08
4.91885e-08
1.67756e-06
3.19758e-08
4.9486e-08
1.68242e-06
3.18671e-08
4.97528e-08
1.68709e-06
3.17556e-08
4.99996e-08
1.69158e-06
3.1643e-08
5.02239e-08
1.6959e-06
3.15339e-08
5.04153e-08
1.70007e-06
3.14315e-08
5.05675e-08
1.70411e-06
3.13378e-08
5.0692e-08
3.12133e-08
5.08463e-08
1.78828e-06
3.17883e-08
2.20459e-08
1.7946e-06
3.17158e-08
2.23385e-08
1.80069e-06
3.16494e-08
2.26113e-08
1.80656e-06
3.15878e-08
2.28658e-08
1.81223e-06
3.153e-08
2.31047e-08
1.81769e-06
3.1475e-08
2.33308e-08
1.82294e-06
3.14231e-08
2.35435e-08
1.828e-06
3.13751e-08
2.37391e-08
1.83288e-06
3.13316e-08
2.3913e-08
1.83761e-06
3.12921e-08
2.40618e-08
3.12431e-08
2.42329e-08
1.83095e-06
-5.08922e-09
1.83767e-06
-4.94237e-09
1.84414e-06
-4.79401e-09
1.85037e-06
-4.64421e-09
1.85637e-06
-4.49311e-09
1.86215e-06
-4.3411e-09
1.8677e-06
-4.18978e-09
1.87305e-06
-4.04202e-09
1.8782e-06
-3.90135e-09
1.88318e-06
-3.77382e-09
-3.62174e-09
6.19898e-07
2.24285e-08
8.93892e-08
6.15459e-07
2.25779e-08
8.9343e-08
6.10881e-07
2.26548e-08
8.93219e-08
6.06232e-07
2.26687e-08
8.93185e-08
6.01578e-07
2.26292e-08
8.93258e-08
5.96984e-07
2.25453e-08
8.93337e-08
5.92501e-07
2.24341e-08
8.93383e-08
5.88172e-07
2.22849e-08
8.93573e-08
5.84009e-07
2.21182e-08
8.94009e-08
5.80025e-07
2.19241e-08
8.94607e-08
5.7622e-07
2.1715e-08
8.95363e-08
2.15376e-08
8.95621e-08
1.038e-06
3.88536e-08
7.62988e-08
1.03877e-06
3.89633e-08
7.66168e-08
1.03934e-06
3.90239e-08
7.68689e-08
1.03973e-06
3.90366e-08
7.70844e-08
1.03996e-06
3.90165e-08
7.7247e-08
1.04003e-06
3.89613e-08
7.7376e-08
1.03996e-06
3.88799e-08
7.74813e-08
1.03976e-06
3.87634e-08
7.7586e-08
1.03942e-06
3.86563e-08
7.76572e-08
1.03895e-06
3.85118e-08
7.77409e-08
1.0384e-06
3.83433e-08
7.77823e-08
7.78496e-08
1.32711e-06
5.09175e-08
5.78284e-08
1.33006e-06
5.08263e-08
5.8378e-08
1.33294e-06
5.07407e-08
5.88406e-08
1.33576e-06
5.06609e-08
5.91995e-08
1.3385e-06
5.05675e-08
5.95273e-08
1.34112e-06
5.04489e-08
5.98675e-08
1.34363e-06
5.03231e-08
6.01665e-08
1.34601e-06
5.02137e-08
6.04024e-08
1.34826e-06
5.01367e-08
6.0546e-08
1.35042e-06
5.00356e-08
6.06579e-08
4.98788e-08
6.08201e-08
1.53364e-06
5.84199e-08
3.69095e-08
1.53764e-06
5.81752e-08
3.75e-08
1.54159e-06
5.79632e-08
3.80202e-08
1.54548e-06
5.77784e-08
3.84735e-08
1.54931e-06
5.76093e-08
3.88855e-08
1.55304e-06
5.74472e-08
3.92752e-08
1.55665e-06
5.72961e-08
3.9635e-08
1.56016e-06
5.71675e-08
3.99515e-08
1.56361e-06
5.70669e-08
4.0191e-08
1.56699e-06
5.69801e-08
4.03659e-08
5.6858e-08
4.06071e-08
1.66087e-06
6.05e-08
1.48662e-08
1.66582e-06
6.03096e-08
1.52536e-08
1.67063e-06
6.01409e-08
1.56211e-08
1.67531e-06
5.99926e-08
1.59692e-08
1.67987e-06
5.98614e-08
1.63014e-08
1.68428e-06
5.97442e-08
1.66219e-08
1.68855e-06
5.96406e-08
1.69295e-08
1.69268e-06
5.95529e-08
1.72186e-08
1.6967e-06
5.94824e-08
1.74757e-08
1.70063e-06
5.94264e-08
1.76853e-08
5.93634e-08
1.7931e-08
1.70435e-06
-7.29983e-09
1.70996e-06
-7.19143e-09
1.71537e-06
-7.06242e-09
1.72058e-06
-6.91359e-09
1.7256e-06
-6.74734e-09
1.73043e-06
-6.56623e-09
1.73507e-06
-6.3734e-09
1.73955e-06
-6.17448e-09
1.74386e-06
-5.97898e-09
1.74805e-06
-5.80516e-09
-5.59042e-09
4.33491e-07
2.89197e-08
6.39953e-08
4.29973e-07
2.89089e-08
6.39525e-08
4.26492e-07
2.88448e-08
6.39578e-08
4.23067e-07
2.87471e-08
6.39962e-08
4.19721e-07
2.86258e-08
6.4046e-08
4.16479e-07
2.84763e-08
6.40997e-08
4.1334e-07
2.83401e-08
6.41371e-08
4.10319e-07
2.82067e-08
6.4172e-08
4.07414e-07
2.80711e-08
6.42339e-08
4.04645e-07
2.7902e-08
6.43282e-08
4.02023e-07
2.7742e-08
6.44161e-08
2.76009e-08
6.44629e-08
8.25863e-07
5.21052e-08
5.41142e-08
8.24922e-07
5.20405e-08
5.44261e-08
8.24012e-07
5.19652e-08
5.46584e-08
8.2311e-07
5.18829e-08
5.48509e-08
8.22172e-07
5.17858e-08
5.50249e-08
8.21178e-07
5.16478e-08
5.5199e-08
8.20138e-07
5.15012e-08
5.53599e-08
8.19074e-07
5.13562e-08
5.55007e-08
8.17965e-07
5.12443e-08
5.55931e-08
8.16807e-07
5.11228e-08
5.56774e-08
8.15583e-07
5.10141e-08
5.57339e-08
5.58476e-08
1.11248e-06
6.97193e-08
3.9768e-08
1.11315e-06
6.94452e-08
4.02963e-08
1.11398e-06
6.922e-08
4.07552e-08
1.1149e-06
6.906e-08
4.11015e-08
1.1159e-06
6.8899e-08
4.14196e-08
1.11697e-06
6.87004e-08
4.17468e-08
1.11808e-06
6.85198e-08
4.2039e-08
1.11914e-06
6.83692e-08
4.23256e-08
1.12014e-06
6.82824e-08
4.25085e-08
1.12104e-06
6.82368e-08
4.26412e-08
6.81328e-08
4.28557e-08
1.32035e-06
8.14972e-08
2.38151e-08
1.32186e-06
8.10326e-08
2.44019e-08
1.32352e-06
8.06468e-08
2.49339e-08
1.32531e-06
8.03324e-08
2.54109e-08
1.32719e-06
8.00622e-08
2.58379e-08
1.32913e-06
7.98159e-08
2.62263e-08
1.33109e-06
7.96001e-08
2.6594e-08
1.33303e-06
7.94246e-08
2.69515e-08
1.33497e-06
7.931e-08
2.72281e-08
1.33689e-06
7.92419e-08
2.74343e-08
7.91337e-08
2.77123e-08
1.4505e-06
8.61502e-08
7.59398e-09
1.45311e-06
8.57374e-08
7.94356e-09
1.45571e-06
8.53805e-08
8.28879e-09
1.4583e-06
8.50762e-08
8.63157e-09
1.46088e-06
8.48169e-08
8.96973e-09
1.46342e-06
8.45946e-08
9.30209e-09
1.46591e-06
8.44056e-08
9.63008e-09
1.46835e-06
8.42506e-08
9.95361e-09
1.47075e-06
8.41332e-08
1.02524e-08
1.47311e-06
8.4052e-08
1.05132e-08
8.39722e-08
1.08025e-08
1.49677e-06
-8.10058e-09
1.50054e-06
-8.11567e-09
1.50414e-06
-8.07475e-09
1.50758e-06
-7.97985e-09
1.51086e-06
-7.83869e-09
1.51399e-06
-7.67094e-09
1.51698e-06
-7.4678e-09
1.51984e-06
-7.24116e-09
1.52258e-06
-7.00866e-09
1.52521e-06
-6.77974e-09
-6.51291e-09
2.241e-07
3.23319e-08
3.41379e-08
2.21708e-07
3.22725e-08
3.40721e-08
2.19417e-07
3.22234e-08
3.40263e-08
2.17232e-07
3.21734e-08
3.40075e-08
2.15164e-07
3.21074e-08
3.40063e-08
2.13223e-07
3.20211e-08
3.40201e-08
2.11387e-07
3.19372e-08
3.40359e-08
2.09651e-07
3.185e-08
3.40576e-08
2.08007e-07
3.17965e-08
3.40817e-08
2.06474e-07
3.1749e-08
3.41121e-08
2.05053e-07
3.16961e-08
3.41409e-08
3.16153e-08
3.41706e-08
5.33383e-07
6.08563e-08
2.90422e-08
5.30151e-07
6.0769e-08
2.91614e-08
5.27081e-07
6.07211e-08
2.92309e-08
5.24124e-07
6.06769e-08
2.93039e-08
5.21266e-07
6.05913e-08
2.93992e-08
5.18506e-07
6.04677e-08
2.95122e-08
5.15843e-07
6.03381e-08
2.96226e-08
5.13271e-07
6.01962e-08
2.9726e-08
5.10752e-07
6.012e-08
2.97888e-08
5.08262e-07
6.00788e-08
2.98376e-08
5.05812e-07
5.99846e-08
2.98948e-08
2.99915e-08
8.06999e-07
8.334e-08
2.02526e-08
8.04435e-07
8.29964e-08
2.06325e-08
8.02169e-07
8.27169e-08
2.10256e-08
8.00125e-07
8.25067e-08
2.13159e-08
7.98231e-07
8.23386e-08
2.15666e-08
7.96437e-07
8.21981e-08
2.18101e-08
7.94717e-07
8.20768e-08
2.20202e-08
7.93087e-07
8.19312e-08
2.22203e-08
7.91488e-07
8.18542e-08
2.23732e-08
7.89883e-07
8.18221e-08
2.25034e-08
8.17284e-08
2.2691e-08
1.01551e-06
9.90629e-08
1.06269e-08
1.01339e-06
9.84644e-08
1.10602e-08
1.01158e-06
9.79762e-08
1.14803e-08
1.01004e-06
9.75844e-08
1.18736e-08
1.00871e-06
9.72736e-08
1.22316e-08
1.00755e-06
9.7033e-08
1.25559e-08
1.00652e-06
9.68455e-08
1.28563e-08
1.00557e-06
9.66869e-08
1.31444e-08
1.00467e-06
9.65804e-08
1.34034e-08
1.00377e-06
9.65183e-08
1.36302e-08
9.64416e-08
1.38692e-08
1.1514e-06
1.06415e-07
1.43883e-09
1.15031e-06
1.058e-07
1.69787e-09
1.14932e-06
1.05291e-07
1.96362e-09
1.14843e-06
1.04872e-07
2.23791e-09
1.14762e-06
1.04531e-07
2.52046e-09
1.14689e-06
1.04263e-07
2.80764e-09
1.14622e-06
1.04047e-07
3.09826e-09
1.14559e-06
1.03876e-07
3.39112e-09
1.14499e-06
1.03748e-07
3.67919e-09
1.14442e-06
1.03654e-07
3.95192e-09
1.03576e-07
4.22263e-09
1.20382e-06
-6.82682e-09
1.20435e-06
-6.88858e-09
1.20468e-06
-6.87297e-09
1.20485e-06
-6.79137e-09
1.20489e-06
-6.65508e-09
1.20482e-06
-6.48447e-09
1.20466e-06
-6.27378e-09
1.20444e-06
-6.03853e-09
1.20415e-06
-5.79349e-09
1.20382e-06
-5.54391e-09
-5.2748e-09
7.07204e-08
3.51278e-08
6.97771e-08
3.50154e-08
6.88781e-08
3.49253e-08
6.80198e-08
3.48658e-08
6.72096e-08
3.48165e-08
6.64552e-08
3.47745e-08
6.57518e-08
3.47393e-08
6.50963e-08
3.47131e-08
6.44755e-08
3.47026e-08
6.38925e-08
3.46951e-08
6.33581e-08
3.46753e-08
3.46471e-08
2.11524e-07
6.69649e-08
2.08847e-07
6.68538e-08
2.06297e-07
6.6706e-08
2.03864e-07
6.66034e-08
2.0156e-07
6.65197e-08
1.99402e-07
6.64445e-08
1.97376e-07
6.63878e-08
1.9548e-07
6.63346e-08
1.93689e-07
6.62827e-08
1.92001e-07
6.62205e-08
1.90447e-07
6.61247e-08
3.94772e-07
9.23081e-08
3.90106e-07
9.2152e-08
3.85841e-07
9.19972e-08
3.81876e-07
9.18842e-08
3.78158e-07
9.18043e-08
3.74664e-07
9.17487e-08
3.71372e-07
9.16997e-08
3.6827e-07
9.16569e-08
3.65329e-07
9.15969e-08
3.62524e-07
9.15287e-08
9.14616e-08
5.73503e-07
1.10104e-07
5.66908e-07
1.09807e-07
5.6081e-07
1.09576e-07
5.5516e-07
1.09408e-07
5.49905e-07
1.0929e-07
5.45e-07
1.0921e-07
5.40401e-07
1.09155e-07
5.36093e-07
1.09109e-07
5.32038e-07
1.09055e-07
5.28197e-07
1.09e-07
1.08978e-07
7.10556e-07
1.18872e-07
7.03517e-07
1.18544e-07
6.96765e-07
1.18291e-07
6.90314e-07
1.18098e-07
6.84169e-07
1.17955e-07
6.78333e-07
1.17853e-07
6.72803e-07
1.17783e-07
6.6757e-07
1.17734e-07
6.62605e-07
1.17699e-07
6.57881e-07
1.17676e-07
1.17679e-07
7.70969e-07
7.65026e-07
7.59029e-07
7.5306e-07
7.47186e-07
7.41453e-07
7.35905e-07
7.30564e-07
7.25436e-07
7.20521e-07
)
;

boundaryField
{
    inlet
    {
        type            calculated;
        value           nonuniform List<scalar> 0();
    }
    ami1
    {
        type            cyclicAMI;
        value           nonuniform List<scalar> 0();
    }
    walls
    {
        type            calculated;
        value           nonuniform List<scalar> 
248
(
2.90979e-14
2.43942e-14
1.84387e-14
1.28555e-14
6.40674e-15
2.90979e-14
2.43942e-14
1.84387e-14
1.28555e-14
6.40674e-15
2.90979e-14
2.43942e-14
1.84387e-14
1.28555e-14
6.40674e-15
2.90979e-14
2.43942e-14
1.84387e-14
1.28555e-14
6.40674e-15
2.90979e-14
2.43942e-14
1.84387e-14
1.28555e-14
6.40674e-15
2.90979e-14
2.43942e-14
1.84387e-14
1.28555e-14
6.40674e-15
2.90979e-14
2.43942e-14
1.84387e-14
1.28555e-14
6.40674e-15
2.90979e-14
2.43942e-14
1.84387e-14
1.28555e-14
6.40674e-15
2.90979e-14
2.43942e-14
1.84387e-14
1.28555e-14
6.40674e-15
2.90979e-14
2.43942e-14
1.84387e-14
1.28555e-14
6.40674e-15
2.90979e-14
2.43942e-14
1.84387e-14
1.28555e-14
6.40674e-15
-2.90979e-14
-2.43942e-14
-1.84387e-14
-1.28555e-14
-6.40674e-15
-6.75639e-23
-2.90979e-14
-2.43942e-14
-1.84387e-14
-1.28555e-14
-6.40674e-15
-6.75639e-23
-2.90979e-14
-2.43942e-14
-1.84387e-14
-1.28555e-14
-6.40674e-15
-6.75639e-23
-2.90979e-14
-2.43942e-14
-1.84387e-14
-1.28555e-14
-6.40674e-15
2.66572e-24
-2.90979e-14
-2.43942e-14
-1.84387e-14
-1.28555e-14
-6.40674e-15
-6.3331e-23
-2.90979e-14
-2.43942e-14
-1.84387e-14
-1.28555e-14
-6.40674e-15
-6.81616e-23
-2.90979e-14
-2.43942e-14
-1.84387e-14
-1.28555e-14
-6.40674e-15
-6.81616e-23
-2.90979e-14
-2.43942e-14
-1.84387e-14
-1.28555e-14
-6.40674e-15
-6.81616e-23
-2.90979e-14
-2.43942e-14
-1.84387e-14
-1.28555e-14
-6.40674e-15
-6.81616e-23
-2.90979e-14
-2.43942e-14
-1.84387e-14
-1.28555e-14
-6.40674e-15
-6.81616e-23
-2.90979e-14
-2.43942e-14
-1.84387e-14
-1.28555e-14
-6.40674e-15
2.66572e-24
-2.90979e-14
-2.43942e-14
-2.90979e-14
-2.43942e-14
-1.84387e-14
-1.28555e-14
-6.40674e-15
-6.75639e-23
6.40674e-15
1.28555e-14
1.84387e-14
2.43942e-14
2.90979e-14
-2.90979e-14
-2.43942e-14
-1.84387e-14
-1.28555e-14
-6.40674e-15
-6.75639e-23
6.40674e-15
1.28555e-14
1.84387e-14
2.43942e-14
2.90979e-14
-2.90979e-14
-2.43942e-14
-1.84387e-14
-1.28555e-14
-6.40674e-15
-6.75639e-23
6.40674e-15
1.28555e-14
1.84387e-14
2.43942e-14
2.90979e-14
-2.90979e-14
-2.43942e-14
-1.84387e-14
-1.28555e-14
-6.40674e-15
2.66572e-24
6.40674e-15
1.28555e-14
1.84387e-14
2.43942e-14
2.90979e-14
-2.90979e-14
-2.43942e-14
-1.84387e-14
-1.28555e-14
-6.40674e-15
-6.3331e-23
6.40674e-15
1.28555e-14
1.84387e-14
2.43942e-14
2.90979e-14
-2.90979e-14
-2.43942e-14
-1.84387e-14
-1.28555e-14
-6.40674e-15
-6.81616e-23
6.40674e-15
1.28555e-14
1.84387e-14
2.43942e-14
2.90979e-14
-2.90979e-14
-2.43942e-14
-1.84387e-14
-1.28555e-14
-6.40674e-15
-6.81616e-23
6.40674e-15
1.28555e-14
1.84387e-14
2.43942e-14
2.90979e-14
-2.90979e-14
-2.43942e-14
-1.84387e-14
-1.28555e-14
-6.40674e-15
-6.81616e-23
6.40674e-15
1.28555e-14
1.84387e-14
2.43942e-14
2.90979e-14
-2.90979e-14
-2.43942e-14
-1.84387e-14
-1.28555e-14
-6.40674e-15
-6.81616e-23
6.40674e-15
1.28555e-14
1.84387e-14
2.43942e-14
2.90979e-14
-2.90979e-14
-2.43942e-14
-1.84387e-14
-1.28555e-14
-6.40674e-15
-6.81616e-23
6.40674e-15
1.28555e-14
1.84387e-14
2.43942e-14
2.90979e-14
-2.90979e-14
-2.43942e-14
-1.84387e-14
-1.28555e-14
-6.40674e-15
2.66572e-24
6.40674e-15
1.28555e-14
1.84387e-14
2.43942e-14
2.90979e-14
1.28555e-14
1.84387e-14
2.43942e-14
2.90979e-14
)
;
    }
    ami2
    {
        type            cyclicAMI;
        value           nonuniform List<scalar> 0();
    }
    outlet
    {
        type            calculated;
        value           nonuniform List<scalar> 0();
    }
    procBoundary8to0
    {
        type            processor;
        value           nonuniform List<scalar> 
29
(
-7.17057e-08
-2.26567e-07
-4.37016e-07
-6.24134e-07
-7.44701e-07
-2.14306e-07
-5.36823e-07
-8.26864e-07
-1.03702e-06
-1.16415e-06
-3.99833e-07
-8.09969e-07
-1.11204e-06
-1.32412e-06
-1.45139e-06
-5.80625e-07
-1.01804e-06
-1.31905e-06
-1.5296e-06
-1.65628e-06
-7.17814e-07
-1.15259e-06
-1.44789e-06
-1.65578e-06
-1.78174e-06
-1.82399e-06
-1.69852e-06
-1.82399e-06
-1.86618e-06
)
;
    }
    procBoundary8to1
    {
        type            processor;
        value           nonuniform List<scalar> 
33
(
-7.76666e-07
-1.20303e-06
-1.4928e-06
-7.44682e-07
-1.16416e-06
-1.45139e-06
-1.65628e-06
-1.78174e-06
-1.82399e-06
-6.24125e-07
-1.03703e-06
-1.32411e-06
-1.5296e-06
-1.65577e-06
-1.69851e-06
-4.37016e-07
-8.26864e-07
-1.11203e-06
-1.31903e-06
-1.44788e-06
-1.4928e-06
-2.26575e-07
-5.36835e-07
-8.09967e-07
-1.01805e-06
-1.1526e-06
-1.20304e-06
-7.17102e-08
-2.14319e-07
-3.99862e-07
-5.80672e-07
-7.17886e-07
-7.76763e-07
)
;
    }
    procBoundary8to7
    {
        type            processor;
        value           nonuniform List<scalar> 
68
(
6.33462e-08
2.05005e-07
4.01864e-07
5.75896e-07
6.89913e-07
1.90404e-07
5.05759e-07
8.15597e-07
1.03839e-06
1.16998e-06
3.5983e-07
7.8833e-07
1.12192e-06
1.35257e-06
1.48821e-06
5.24426e-07
1.00296e-06
1.33886e-06
1.57033e-06
1.70817e-06
6.53209e-07
1.14395e-06
1.47548e-06
1.70448e-06
1.84223e-06
1.88802e-06
7.15736e-07
1.20351e-06
1.52773e-06
1.75202e-06
1.8879e-06
1.9337e-06
6.90376e-07
-1.07458e-07
1.17e-06
-9.38832e-08
1.48804e-06
1.70799e-06
1.84215e-06
1.88795e-06
5.72577e-07
1.03781e-06
3.81555e-08
1.3525e-06
1.57025e-06
1.70443e-06
1.75208e-06
3.99521e-07
8.14329e-07
5.08575e-08
1.12189e-06
1.33879e-06
1.4754e-06
1.52772e-06
2.0373e-07
5.0345e-07
5.98333e-08
7.88304e-07
1.0029e-06
1.14386e-06
1.20345e-06
6.28815e-08
1.8903e-07
6.60549e-08
3.59878e-07
5.24551e-07
6.53402e-07
7.15846e-07
)
;
    }
    procBoundary8to9
    {
        type            processor;
        value           nonuniform List<scalar> 
132
(
-1.17857e-07
-1.17618e-07
-1.17435e-07
-1.17297e-07
-1.17198e-07
-1.17127e-07
-1.17085e-07
-1.17067e-07
-1.17066e-07
-1.17075e-07
-1.17097e-07
-1.04373e-07
-1.04052e-07
-1.0377e-07
-1.03525e-07
-1.03323e-07
-1.03158e-07
-1.0302e-07
-1.02911e-07
-1.02828e-07
-1.02765e-07
-1.02721e-07
-8.29823e-08
-8.28872e-08
-8.27933e-08
-8.27044e-08
-8.26254e-08
-8.25619e-08
-8.25092e-08
-8.2462e-08
-8.24199e-08
-8.23894e-08
-8.23791e-08
-5.6877e-08
-5.69433e-08
-5.6999e-08
-5.70466e-08
-5.70897e-08
-5.71309e-08
-5.71697e-08
-5.72035e-08
-5.72317e-08
-5.72569e-08
-5.72942e-08
-5.09843e-09
-4.95154e-09
-4.80235e-09
-4.65071e-09
-4.49675e-09
-4.34099e-09
-4.1852e-09
-4.03245e-09
-3.88658e-09
-3.75447e-09
-3.59997e-09
-3.17886e-08
-3.17153e-08
-3.16474e-08
-3.15839e-08
-3.15239e-08
-3.14667e-08
-3.14125e-08
-3.1362e-08
-3.13153e-08
-3.12723e-08
-3.12212e-08
-1.84064e-09
-1.77364e-09
-1.70812e-09
-1.64404e-09
-1.58138e-09
-1.52009e-09
-1.46045e-09
-1.40317e-09
-1.34903e-09
-1.29929e-09
-1.24372e-09
2.80734e-08
2.81736e-08
2.82674e-08
2.83552e-08
2.84379e-08
2.85162e-08
2.85902e-08
2.86587e-08
2.87208e-08
2.87756e-08
2.88352e-08
5.68775e-08
5.69449e-08
5.70022e-08
5.70517e-08
5.70961e-08
5.71385e-08
5.71785e-08
5.72136e-08
5.72433e-08
5.72701e-08
5.73075e-08
8.29801e-08
8.28858e-08
8.27934e-08
8.27058e-08
8.26273e-08
8.25639e-08
8.25114e-08
8.24643e-08
8.24231e-08
8.23934e-08
8.23823e-08
1.04363e-07
1.04041e-07
1.03759e-07
1.03514e-07