/*--------------------------------*- C++ -*----------------------------------*\
| =========                 |                                                 |
| \\      /  F ield         | OpenFOAM: The Open Source CFD Toolbox           |
|  \\    /   O peration     | Version:  2212                                  |
|   \\  /    A nd           | Website:  www.openfoam.com                      |
|    \\/     M anipulation  |                                                 |
\*---------------------------------------------------------------------------*/
FoamFile
{
    version     2.0;
    format      ascii;
    arch        "LSB;label=32;scalar=64";
    class       volVectorField;
    location    "1";
    object      U;
}
// * * * * * * * * * * * * * * * * * * * * * * * * * * * * * * * * * * * * * //

dimensions      [0 1 -1 0 0 0 0];

internalField   nonuniform List<vector> 
690
(
(0.0281799 1.71958e-05 5.44249e-05)
(0.0278001 1.92558e-05 5.332e-05)
(0.0274334 2.29092e-05 5.05319e-05)
(0.027086 2.54436e-05 4.77087e-05)
(0.0267549 2.67551e-05 4.53433e-05)
(0.0264451 2.76002e-05 4.25491e-05)
(0.0261577 2.83166e-05 3.99268e-05)
(0.0258884 2.87173e-05 3.7379e-05)
(0.0256354 2.80701e-05 3.55664e-05)
(0.0253942 2.68973e-05 3.38167e-05)
(0.025175 2.68327e-05 3.07755e-05)
(0.0462537 -0.000125404 0.000178143)
(0.0457529 -0.000129759 0.000193495)
(0.0452716 -0.000128357 0.000202665)
(0.044811 -0.000124254 0.000204585)
(0.0443762 -0.000117393 0.000201809)
(0.0439632 -0.000108047 0.000196649)
(0.0435777 -9.76102e-05 0.000192208)
(0.0432091 -8.72724e-05 0.000187102)
(0.0428586 -7.79539e-05 0.000179358)
(0.0425292 -6.97423e-05 0.000167711)
(0.0422328 -6.11949e-05 0.000156955)
(0.0632744 -0.000428114 0.000399167)
(0.0627548 -0.000447793 0.000406489)
(0.0622522 -0.000454019 0.000403727)
(0.0617428 -0.000452276 0.000394804)
(0.0612546 -0.000443113 0.000382798)
(0.0607695 -0.000426738 0.000369261)
(0.060307 -0.000406911 0.000358573)
(0.0598533 -0.00038533 0.000347022)
(0.0594192 -0.000362765 0.000330496)
(0.0590045 -0.000340275 0.000308495)
(0.05861 -0.000318914 0.000290961)
(0.0739053 -0.000630777 0.000389864)
(0.0733874 -0.000660301 0.000412197)
(0.0728495 -0.000674476 0.000426382)
(0.0722976 -0.000676904 0.0004332)
(0.0717402 -0.000669861 0.000434217)
(0.0711863 -0.000654636 0.000430668)
(0.07064 -0.00063287 0.000422406)
(0.070113 -0.000606391 0.000408568)
(0.0695993 -0.000577815 0.000390004)
(0.0691137 -0.000548242 0.000370328)
(0.0686435 -0.000517799 0.000353486)
(0.0791362 -0.000791572 0.000413688)
(0.0786292 -0.00081166 0.00045415)
(0.0780917 -0.000818437 0.000480705)
(0.0775353 -0.000814565 0.000496091)
(0.0769699 -0.000802533 0.000501989)
(0.076404 -0.000783702 0.000499714)
(0.0758445 -0.000759287 0.000490126)
(0.0752971 -0.000730784 0.00047464)
(0.0747651 -0.000699959 0.000454853)
(0.0742522 -0.000668379 0.000434232)
(0.07376 -0.000633953 0.0004123)
(0.0437006 0.000127687 0.000207105)
(0.0431428 0.000121042 0.000184041)
(0.0426018 0.000115174 0.000163477)
(0.042088 0.000109423 0.000145217)
(0.0416032 0.000103367 0.000127895)
(0.0411439 9.70272e-05 0.000111592)
(0.0407172 9.05025e-05 9.7855e-05)
(0.0403125 8.47686e-05 8.66975e-05)
(0.0399324 7.89694e-05 7.85109e-05)
(0.0395738 7.37643e-05 7.05283e-05)
(0.0392484 6.99185e-05 6.06813e-05)
(0.076014 8.45186e-05 0.000452425)
(0.0755344 6.06463e-05 0.00041847)
(0.0750966 4.25365e-05 0.00040043)
(0.0746608 2.96515e-05 0.00038723)
(0.0742574 2.14311e-05 0.000370355)
(0.0738504 1.69798e-05 0.00034805)
(0.0734694 1.51901e-05 0.00032333)
(0.0730939 1.46157e-05 0.000299824)
(0.0727313 1.25053e-05 0.000287897)
(0.0723771 8.44288e-06 0.000288647)
(0.0720256 8.84163e-06 0.000273763)
(0.0928747 -0.000169497 0.000781505)
(0.0927702 -0.000216678 0.000734546)
(0.0926632 -0.000251534 0.000693581)
(0.0925628 -0.000274744 0.000654436)
(0.0924606 -0.000289871 0.000621919)
(0.0923528 -0.000297547 0.000591238)
(0.0922329 -0.000300011 0.000564875)
(0.0921164 -0.000297019 0.000538633)
(0.0919943 -0.000293034 0.000521371)
(0.0918679 -0.000285579 0.00050127)
(0.0917353 -0.00027261 0.000473294)
(0.10052 -0.000479681 0.000663871)
(0.100606 -0.00053141 0.000645088)
(0.100668 -0.000567487 0.000629173)
(0.100715 -0.000589989 0.000613579)
(0.100743 -0.000602024 0.000600265)
(0.100757 -0.000604845 0.000588599)
(0.100756 -0.000602564 0.000579776)
(0.10074 -0.000592773 0.000566524)
(0.100716 -0.000579673 0.000554866)
(0.100678 -0.000561417 0.000540989)
(0.100628 -0.000536221 0.000518329)
(0.103874 -0.000806427 0.000468529)
(0.104015 -0.000830694 0.000501776)
(0.104126 -0.000843417 0.000528869)
(0.10421 -0.000845936 0.000548731)
(0.104271 -0.000839822 0.00056193)
(0.104312 -0.000826417 0.000568919)
(0.104338 -0.000807383 0.000570561)
(0.104349 -0.000783505 0.000566485)
(0.104349 -0.000756268 0.000558401)
(0.104337 -0.000725468 0.000547751)
(0.10432 -0.000693219 0.000534233)
(0.0577372 0.000303552 0.000607384)
(0.0570267 0.000270552 0.000540729)
(0.0563832 0.00023514 0.000462849)
(0.0557805 0.000205605 0.000411351)
(0.0552314 0.00018212 0.000376642)
(0.0547003 0.000161867 0.000349216)
(0.0542111 0.000143701 0.000325397)
(0.0537436 0.000128718 0.000305311)
(0.0533009 0.000117115 0.000284931)
(0.0528866 0.000109022 0.000263523)
(0.0524965 0.000101925 0.00024265)
(0.0908552 0.000269958 0.00091651)
(0.0905489 0.000243737 0.000857631)
(0.0902787 0.000219801 0.000808151)
(0.0900396 0.000198828 0.000769811)
(0.0898203 0.000179856 0.000731407)
(0.0896151 0.000162711 0.000689821)
(0.089414 0.000147159 0.000652863)
(0.089227 0.000134041 0.000609446)
(0.0890497 0.000122244 0.0005835)
(0.0888703 0.000111895 0.000566182)
(0.0886933 0.00010319 0.000534837)
(0.104637 6.49081e-05 0.00121358)
(0.104693 1.99472e-05 0.00113445)
(0.104763 -1.87319e-05 0.00106684)
(0.10485 -5.19324e-05 0.00101716)
(0.104935 -7.75587e-05 0.000967198)
(0.105035 -9.57191e-05 0.000909059)
(0.105138 -0.000110178 0.000858331)
(0.105243 -0.000121867 0.00082075)
(0.105341 -0.00013065 0.000794816)
(0.105433 -0.00013658 0.000775359)
(0.105513 -0.000138282 0.000745931)
(0.110858 -0.000262039 0.00101922)
(0.111107 -0.000309954 0.000966523)
(0.111351 -0.000347958 0.000921807)
(0.11159 -0.000377203 0.000884457)
(0.111821 -0.000398263 0.000850501)
(0.112047 -0.000412101 0.000816341)
(0.112263 -0.000420149 0.000783279)
(0.112468 -0.000424448 0.000756716)
(0.112663 -0.000425746 0.000739385)
(0.112846 -0.000419231 0.0007164)
(0.113026 -0.000406843 0.000684334)
(0.113622 -0.000651276 0.0007062)
(0.113948 -0.000673313 0.000701461)
(0.114258 -0.000687223 0.000696815)
(0.114553 -0.000693689 0.000691474)
(0.114834 -0.000694057 0.000684268)
(0.115099 -0.000689652 0.000674499)
(0.11535 -0.00068072 0.000663124)
(0.115588 -0.000667835 0.000651627)
(0.115814 -0.000652377 0.000641262)
(0.116028 -0.000636618 0.00063169)
(0.116231 -0.000614526 0.000613342)
(0.0685339 0.000471333 0.000889213)
(0.0677174 0.000461015 0.000833856)
(0.0669662 0.000441096 0.000780422)
(0.0662696 0.000416797 0.000729443)
(0.0656222 0.000390316 0.000683386)
(0.0650177 0.000362082 0.000642712)
(0.0644526 0.000333373 0.000605629)
(0.0639226 0.000305892 0.000569456)
(0.0634231 0.00028195 0.000531926)
(0.0629568 0.000261484 0.000494105)
(0.0625183 0.00024191 0.000461458)
(0.0984969 0.000375373 0.00122762)
(0.0982739 0.000392037 0.00113176)
(0.0980843 0.0003992 0.00104685)
(0.0979254 0.000398482 0.000972331)
(0.0977862 0.000391386 0.000907917)
(0.0976684 0.000378959 0.000852803)
(0.0975624 0.000363508 0.000802756)
(0.0974686 0.000346685 0.000753617)
(0.0973823 0.000330261 0.000716763)
(0.0972955 0.000313816 0.000689877)
(0.0972117 0.000295414 0.000652201)
(0.110359 0.000234977 0.00139975)
(0.110478 0.000229651 0.00130104)
(0.110612 0.000221017 0.00121566)
(0.110758 0.000210084 0.00114287)
(0.11091 0.000198418 0.00107782)
(0.111072 0.000187304 0.00101611)
(0.111237 0.000176308 0.000958205)
(0.111401 0.000164989 0.000906393)
(0.111565 0.000153482 0.000868219)
(0.111725 0.000142086 0.000840822)
(0.111885 0.000130843 0.000799673)
(0.11591 -3.03419e-05 0.0011408)
(0.116214 -4.86791e-05 0.00106821)
(0.116515 -6.52213e-05 0.00100469)
(0.116812 -7.96571e-05 0.000949071)
(0.117105 -9.16016e-05 0.000898421)
(0.117391 -0.000101004 0.000850398)
(0.11767 -0.000108501 0.00080609)
(0.117941 -0.000114732 0.000767834)
(0.118205 -0.000119668 0.000737249)
(0.118463 -0.000122521 0.000713074)
(0.118715 -0.000122548 0.000681269)
(0.118474 -0.00037019 0.000763771)
(0.118867 -0.000376991 0.000732472)
(0.119246 -0.00038113 0.000704166)
(0.119613 -0.000382563 0.000678189)
(0.119967 -0.000381508 0.000653538)
(0.120309 -0.000378299 0.000629501)
(0.120637 -0.000373205 0.000606456)
(0.120953 -0.000366535 0.000585409)
(0.121258 -0.00035872 0.000566813)
(0.121554 -0.000350838 0.000550082)
(0.121837 -0.000340255 0.00052864)
(0.0760999 0.000450922 0.00103401)
(0.0753328 0.000478291 0.000981682)
(0.0745972 0.000493223 0.000933767)
(0.073892 0.000497202 0.000888763)
(0.073219 0.000491702 0.000845599)
(0.0725789 0.000478455 0.000803949)
(0.0719717 0.000459722 0.000763249)
(0.0713971 0.000437528 0.000722849)
(0.0708528 0.000414217 0.000681748)
(0.0703374 0.000390813 0.000641761)
(0.0698487 0.000365866 0.0006065)
(0.102699 0.000321687 0.00132863)
(0.102598 0.000383813 0.00124405)
(0.102506 0.000428844 0.0011677)
(0.102422 0.000459131 0.00109792)
(0.102347 0.000477072 0.00103417)
(0.10228 0.00048517 0.000976028)
(0.102218 0.000485265 0.000922195)
(0.102162 0.000479106 0.000871291)
(0.10211 0.000468441 0.000825447)
(0.102057 0.000453903 0.000784267)
(0.10201 0.000435896 0.000741979)
(0.11328 0.000296686 0.00137144)
(0.113484 0.000325993 0.00129114)
(0.113688 0.000347181 0.00121798)
(0.113892 0.000361119 0.00115155)
(0.114095 0.000369517 0.00109034)
(0.114296 0.000373825 0.00103276)
(0.114493 0.000374088 0.000978898)
(0.114687 0.000370277 0.000929645)
(0.114877 0.000363139 0.000887504)
(0.115063 0.000355258 0.000855615)
(0.115244 0.000345077 0.00081802)
(0.118419 0.000149925 0.0010588)
(0.118778 0.000152984 0.00099912)
(0.119126 0.000154125 0.000944395)
(0.119466 0.000153622 0.000894181)
(0.119796 0.000151999 0.000847534)
(0.120116 0.000149653 0.000803596)
(0.120426 0.000146517 0.000762545)
(0.120727 0.000142415 0.000725321)
(0.121018 0.00013771 0.000692835)
(0.121302 0.000133789 0.000665346)
(0.121577 0.000129653 0.000633657)
(0.120888 -8.74735e-05 0.000659852)
(0.121324 -8.71524e-05 0.000628594)
(0.121744 -8.67374e-05 0.000599608)
(0.122149 -8.60782e-05 0.000572525)
(0.12254 -8.50751e-05 0.000546961)
(0.122917 -8.37105e-05 0.000522644)
(0.12328 -8.20477e-05 0.000499665)
(0.12363 -8.01899e-05 0.000478406)
(0.123967 -7.81709e-05 0.000459121)
(0.124294 -7.59898e-05 0.000441814)
(0.124608 -7.32047e-05 0.000421981)
(0.121622 -0.000395027 0.000253712)
(0.122077 -0.000380369 0.000245656)
(0.122516 -0.000365954 0.000237641)
(0.122939 -0.000351779 0.000229639)
(0.123346 -0.000337844 0.00022164)
(0.123738 -0.000324167 0.00021366)
(0.124116 -0.000310852 0.000205773)
(0.124479 -0.000298084 0.000198122)
(0.124829 -0.000286046 0.000190862)
(0.125167 -0.00027496 0.000184177)
(0.125491 -0.000262647 0.00017661)
(0.0796721 0.00039951 0.000970634)
(0.0790632 0.000447203 0.000955448)
(0.0784454 0.000477491 0.000933531)
(0.0778268 0.000493773 0.000906826)
(0.0772152 0.000498395 0.000876607)
(0.0766163 0.000494633 0.000843362)
(0.0760349 0.000483375 0.000807675)
(0.0754745 0.000466853 0.000770621)
(0.0749357 0.000447191 0.000732887)
(0.0744206 0.000425964 0.00069594)
(0.0739278 0.000402872 0.000660411)
(0.10445 0.00031262 0.00114984)
(0.104506 0.000382159 0.00111716)
(0.104543 0.000436368 0.00108228)
(0.104565 0.000476293 0.00104448)
(0.104573 0.00050386 0.00100429)
(0.104572 0.000521026 0.000966122)
(0.104563 0.000529501 0.000925089)
(0.104546 0.000530589 0.000883303)
(0.104525 0.000526281 0.000843202)
(0.104497 0.00051689 0.000803099)
(0.104469 0.000502364 0.00076013)
(0.114301 0.000422952 0.00107775)
(0.114597 0.000453906 0.00104839)
(0.114879 0.000478316 0.00101737)
(0.115148 0.000496468 0.000984921)
(0.115405 0.000508862 0.00095138)
(0.115651 0.000515636 0.000917241)
(0.115885 0.000517873 0.0008827)
(0.116108 0.000516366 0.000848386)
(0.116321 0.000512085 0.000815835)
(0.116526 0.000507249 0.000788841)
(0.116721 0.000497108 0.000756694)
(0.119203 0.000397068 0.000758918)
(0.119604 0.000396634 0.0007335)
(0.11999 0.000394927 0.000708169)
(0.120362 0.000391853 0.000682912)
(0.12072 0.000387432 0.000657729)
(0.121065 0.000381766 0.000632726)
(0.121397 0.000375041 0.000608093)
(0.121715 0.000367605 0.000584273)
(0.122022 0.000359903 0.000561915)
(0.122319 0.000352646 0.000542154)
(0.122605 0.000342551 0.000519251)
(0.121622 0.000252528 0.000394402)
(0.122077 0.000244564 0.000379981)
(0.122515 0.000236786 0.000365934)
(0.122938 0.000229191 0.000352236)
(0.123345 0.000221776 0.000338845)
(0.123736 0.000214541 0.000325756)
(0.124113 0.000207527 0.000313052)
(0.124475 0.000200837 0.000300906)
(0.124824 0.000194568 0.000289478)
(0.125161 0.000188801 0.000278944)
(0.125484 0.000181779 0.000266803)
(0.122352 -4.64722e-07 3.5388e-07)
(0.122826 -3.94086e-07 4.55206e-07)
(0.123282 -2.47489e-07 5.64088e-07)
(0.123721 -2.18515e-08 6.64052e-07)
(0.124144 2.76549e-07 7.4193e-07)
(0.124551 6.39443e-07 7.97703e-07)
(0.124942 1.05607e-06 8.37041e-07)
(0.125318 1.51299e-06 8.64426e-07)
(0.12568 1.98756e-06 8.77066e-07)
(0.126029 2.42601e-06 8.57233e-07)
(0.126364 2.70262e-06 7.35003e-07)
(0.0791343 0.000414003 0.000790362)
(0.0786285 0.000453984 0.000809358)
(0.0780932 0.000479914 0.000814919)
(0.0775398 0.000494569 0.000809815)
(0.0769783 0.000499671 0.00079668)
(0.0764175 0.000496532 0.000776799)
(0.075864 0.000486145 0.000751397)
(0.0753235 0.00046996 0.000722056)
(0.0747986 0.00044965 0.000690707)
(0.0742935 0.000428674 0.000659143)
(0.0738082 0.000405761 0.000625468)
(0.103874 0.000468224 0.000805037)
(0.104016 0.00050132 0.000828875)
(0.104127 0.000528217 0.000841129)
(0.104211 0.000547804 0.000843165)
(0.104273 0.0005607 0.000836572)
(0.104315 0.000567429 0.000822671)
(0.10434 0.000568915 0.00080318)
(0.104351 0.000564747 0.00077887)
(0.104351 0.000557141 0.000752059)
(0.104338 0.000547373 0.000721883)
(0.104322 0.000534009 0.00068743)
(0.113622 0.000705003 0.000649648)
(0.113948 0.000700022 0.000671538)
(0.114258 0.000695153 0.000685369)
(0.114553 0.000689688 0.000691807)
(0.114833 0.000682539 0.00069217)
(0.115097 0.000672921 0.000687738)
(0.115347 0.000661656 0.000678784)
(0.115583 0.000650366 0.000666028)
(0.115806 0.000640708 0.000651007)
(0.116018 0.000632856 0.000636228)
(0.116219 0.000616954 0.000615074)
(0.118474 0.000762572 0.000368733)
(0.118867 0.000731158 0.000375635)
(0.119246 0.000702799 0.000380029)
(0.119612 0.000676906 0.00038185)
(0.119966 0.000652523 0.000381278)
(0.120306 0.000628906 0.000378621)
(0.120634 0.00060637 0.000374139)
(0.120948 0.000585948 0.000368162)
(0.12125 0.000568279 0.000361143)
(0.121544 0.000552821 0.000354151)
(0.121825 0.000532702 0.000344312)
(0.120888 0.00065904 8.64043e-05)
(0.121323 0.000627719 8.6299e-05)
(0.121743 0.000598735 8.62866e-05)
(0.122148 0.000571776 8.62036e-05)
(0.122539 0.000546499 8.59162e-05)
(0.122916 0.000522622 8.5371e-05)
(0.123278 0.0005002 8.46017e-05)
(0.123627 0.000479599 8.36992e-05)
(0.123963 0.000461073 8.26779e-05)
(0.124289 0.000444559 8.14638e-05)
(0.124602 0.000425447 7.93307e-05)
(0.121622 0.000394112 -0.000253025)
(0.122077 0.000379581 -0.000244826)
(0.122516 0.000365424 -0.000236661)
(0.122938 0.000351652 -0.000228535)
(0.123345 0.000338254 -0.000220465)
(0.123737 0.000325236 -0.000212463)
(0.124114 0.000312676 -0.00020459)
(0.124477 0.000300734 -0.000196965)
(0.124826 0.000289555 -0.000189728)
(0.125163 0.000279259 -0.000183056)
(0.125486 0.000267412 -0.000175581)
(0.0739043 0.000390855 0.00063008)
(0.0733867 0.000413208 0.000658624)
(0.0728499 0.000427308 0.000671634)
(0.0722997 0.000433967 0.000672826)
(0.071745 0.000434693 0.000664556)
(0.071194 0.000430731 0.000648121)
(0.0706524 0.0004221 0.000625232)
(0.0701298 0.000407928 0.00059773)
(0.0696219 0.00038928 0.000568321)
(0.069143 0.000369594 0.000538532)
(0.0686757 0.000348394 0.000507723)
(0.0682396 0.000335159 0.00047833)
(0.100521 0.000663628 0.000478573)
(0.100607 0.000644923 0.000529693)
(0.10067 0.000629156 0.000565055)
(0.100718 0.000613729 0.000586815)
(0.100746 0.000600294 0.000597929)
(0.100761 0.000588755 0.000599991)
(0.10076 0.00057993 0.000596762)
(0.100746 0.000566801 0.000586106)
(0.100721 0.000555262 0.000572409)
(0.100683 0.000540733 0.000553317)
(0.100635 0.000526865 0.000532054)
(0.10057 0.000508929 0.000508907)
(0.110858 0.00101811 0.000260618)
(0.111107 0.000965129 0.000308162)
(0.111351 0.000920085 0.000345811)
(0.111591 0.000882606 0.000374735)
(0.111821 0.000848765 0.000395505)
(0.112046 0.000814735 0.000409013)
(0.112262 0.000781724 0.000416689)
(0.112466 0.000754947 0.000420687)
(0.112661 0.000738187 0.000422201)
(0.112841 0.000716861 0.000416346)
(0.113021 0.000687791 0.000405087)
(0.115909 0.00113973 2.87563e-05)
(0.116214 0.00106694 4.69444e-05)
(0.116514 0.0010032 6.34537e-05)
(0.116811 0.000947501 7.79766e-05)
(0.117103 0.000896965 9.01142e-05)
(0.117389 0.000849204 9.97799e-05)
(0.117668 0.000805133 0.000107572)
(0.117937 0.000767075 0.000114182)
(0.118201 0.000737086 0.000119742)
(0.118458 0.000714068 0.000123497)
(0.118709 0.000684127 0.000124717)
(0.118418 0.00105838 -0.000151292)
(0.118777 0.000998573 -0.000154342)
(0.119125 0.000943731 -0.000155333)
(0.119464 0.000893461 -0.000154534)
(0.119794 0.000846877 -0.000152484)
(0.120114 0.000803126 -0.000149616)
(0.120424 0.000762339 -0.00014589)
(0.120724 0.000725444 -0.000141115)
(0.121015 0.00069348 -0.000135576)
(0.121299 0.000666689 -0.000130691)
(0.121574 0.000635864 -0.000125722)
(0.119203 0.000759069 -0.000397901)
(0.119604 0.000733536 -0.000397343)
(0.119989 0.00070809 -0.00039539)
(0.120361 0.000682744 -0.000391955)
(0.120719 0.000657526 -0.000387075)
(0.121064 0.000632551 -0.000380853)
(0.121396 0.000607997 -0.000373483)
(0.121715 0.000584295 -0.000365296)
(0.122023 0.000562082 -0.000356679)
(0.122321 0.000542421 -0.000348371)
(0.122608 0.000519652 -0.000337536)
(0.0632741 0.000400307 0.0004278)
(0.0627544 0.000407753 0.000446692)
(0.0622521 0.000404987 0.000451897)
(0.0617431 0.000396163 0.000449034)
(0.0612559 0.000384297 0.000438816)
(0.0607721 0.000370764 0.000421411)
(0.0603119 0.000359578 0.000400386)
(0.05986 0.000347902 0.000377795)
(0.0594307 0.000331542 0.000354572)
(0.0590189 0.000310284 0.000331615)
(0.0586233 0.000287574 0.000308036)
(0.0582618 0.000274551 0.000286208)
(0.0928749 0.000780965 0.000168712)
(0.0927706 0.000734188 0.000215211)
(0.0926642 0.000693496 0.000249235)
(0.092564 0.000654585 0.000271484)
(0.0924629 0.000622284 0.000285573)
(0.0923557 0.000591899 0.000292233)
(0.0922365 0.000565419 0.000293506)
(0.0921208 0.000540477 0.000289947)
(0.0919972 0.000521569 0.000284444)
(0.0918732 0.000497825 0.000275002)
(0.0917415 0.000485477 0.000267434)
(0.0915943 0.00046516 0.000254135)
(0.104635 0.00121248 -6.59227e-05)
(0.104692 0.00113321 -2.14427e-05)
(0.104762 0.00106515 1.66646e-05)
(0.10485 0.0010153 4.92522e-05)
(0.104935 0.000965702 7.4291e-05)
(0.105035 0.000907837 9.17776e-05)
(0.105138 0.000857452 0.000105589)
(0.105242 0.000818056 0.000116416)
(0.10534 0.000793502 0.000124846)
(0.105431 0.00077574 0.000130798)
(0.105511 0.000746728 0.000133381)
(0.110358 0.00139886 -0.000236125)
(0.110477 0.00129993 -0.000231142)
(0.11061 0.00121427 -0.000222851)
(0.110756 0.00114127 -0.000212219)
(0.110908 0.00107625 -0.000200791)
(0.111069 0.00101481 -0.000189874)
(0.111233 0.00095715 -0.000179064)
(0.111397 0.000905454 -0.000167907)
(0.111561 0.000867879 -0.00015651)
(0.11172 0.000841641 -0.000144937)
(0.111879 0.000802597 -0.000132676)
(0.113279 0.00137104 -0.000297696)
(0.113483 0.00129056 -0.000327168)
(0.113686 0.00121728 -0.000348499)
(0.113889 0.00115076 -0.000362516)
(0.114091 0.00108958 -0.000370915)
(0.114292 0.0010322 -0.000375171)
(0.114489 0.000978606 -0.000375393)
(0.114682 0.000929653 -0.00037155)
(0.114871 0.000887996 -0.000364254)
(0.115056 0.000856617 -0.000355996)
(0.115238 0.000819552 -0.000345248)
(0.1143 0.00107761 -0.000423611)
(0.114596 0.00104815 -0.000454601)
(0.114877 0.00101706 -0.000479004)
(0.115146 0.000984626 -0.000497108)
(0.115403 0.000951206 -0.000509434)
(0.115648 0.000917228 -0.000516075)
(0.115882 0.000882883 -0.000518109)
(0.116105 0.000848756 -0.000516345)
(0.116319 0.000816479 -0.000511594)
(0.116524 0.00078936 -0.000505951)
(0.11672 0.000757008 -0.000495138)
(0.0462551 0.000178661 0.000125081)
(0.0457542 0.000194282 0.000128869)
(0.0452729 0.000203654 0.000126716)
(0.0448127 0.000205931 0.00012185)
(0.0443778 0.00020355 0.000114299)
(0.0439653 0.000198609 0.000104283)
(0.0435802 0.000194235 9.32267e-05)
(0.0432127 0.000189181 8.21016e-05)
(0.0428631 0.000181419 7.25665e-05)
(0.0425383 0.000170184 6.40166e-05)
(0.0422343 0.000160074 5.44334e-05)
(0.0419616 0.000152704 4.47525e-05)
(0.0760157 0.000451591 -8.48011e-05)
(0.0755364 0.00041774 -6.15506e-05)
(0.0750983 0.000400156 -4.4223e-05)
(0.0746624 0.00038709 -3.23255e-05)
(0.0742594 0.000370368 -2.51724e-05)
(0.0738529 0.000348558 -2.17517e-05)
(0.073473 0.000324166 -2.09903e-05)
(0.0730981 0.000300795 -2.14441e-05)
(0.0727374 0.000289709 -2.02729e-05)
(0.0723841 0.000285301 -1.79911e-05)
(0.0720329 0.000280068 -1.70951e-05)
(0.0716918 0.000258288 -2.09828e-05)
(0.090855 0.00091637 -0.000269927)
(0.0905486 0.000856776 -0.000244213)
(0.090279 0.000806715 -0.000220885)
(0.0900398 0.000768526 -0.000200656)
(0.089821 0.000730097 -0.000182624)
(0.0896161 0.000688825 -0.00016653)
(0.0894151 0.000652294 -0.000151943)
(0.0892278 0.000608917 -0.000139808)
(0.0890489 0.000583857 -0.000128861)
(0.0888691 0.000567058 -0.000119068)
(0.0886925 0.000531262 -0.000110949)
(0.0984971 0.00122726 -0.000375297)
(0.0982739 0.00113131 -0.000392431)
(0.0980843 0.0010462 -0.000400159)
(0.0979251 0.000971401 -0.000400058)
(0.0977857 0.000906728 -0.00039372)
(0.0976674 0.000851555 -0.000382143)
(0.0975606 0.000801718 -0.000367461)
(0.0974658 0.000752946 -0.000351297)
(0.0973785 0.000716255 -0.000335461)
(0.0972909 0.000689974 -0.000319608)
(0.0972063 0.000652386 -0.000300965)
(0.1027 0.00132803 -0.000321705)
(0.102598 0.00124333 -0.000384236)
(0.102506 0.00116679 -0.000429762)
(0.102422 0.00109677 -0.00046058)
(0.102346 0.00103284 -0.000479094)
(0.102278 0.000974638 -0.00048779)
(0.102215 0.000920925 -0.000488442)
(0.102158 0.000870304 -0.00048283)
(0.102104 0.000824894 -0.00047268)
(0.102051 0.000784385 -0.000458671)
(0.102002 0.000742027 -0.000440636)
(0.104451 0.00114877 -0.000312928)
(0.104507 0.00111596 -0.00038276)
(0.104544 0.00108095 -0.000437339)
(0.104565 0.00104303 -0.000477673)
(0.104573 0.00100271 -0.000505691)
(0.104571 0.000964484 -0.000523305)
(0.104561 0.000923545 -0.000532133)
(0.104544 0.000881957 -0.000533627)
(0.104522 0.000842209 -0.000529576)
(0.104494 0.000802677 -0.000520442)
(0.104464 0.000760336 -0.00050567)
(0.0281817 5.44134e-05 -1.7319e-05)
(0.0278014 5.33131e-05 -1.97624e-05)
(0.0274352 5.05811e-05 -2.39165e-05)
(0.0270879 4.78751e-05 -2.69243e-05)
(0.0267571 4.56143e-05 -2.86816e-05)
(0.0264474 4.28955e-05 -2.99316e-05)
(0.0261601 4.0329e-05 -3.10386e-05)
(0.0258913 3.78493e-05 -3.17966e-05)
(0.0256382 3.61134e-05 -3.14641e-05)
(0.0254 3.41621e-05 -3.07059e-05)
(0.0251782 3.18037e-05 -3.10342e-05)
(0.0249805 2.8849e-05 -3.18559e-05)
(0.0437031 0.000206718 -0.00012745)
(0.0431457 0.000183456 -0.000121364)
(0.042605 0.000162646 -0.000116189)
(0.0420922 0.000144416 -0.000111089)
(0.0416074 0.000127221 -0.000105707)
(0.0411487 0.000111012 -0.000100033)
(0.0407222 9.73016e-05 -9.41695e-05)
(0.0403184 8.61684e-05 -8.90473e-05)
(0.0399381 7.81344e-05 -8.37906e-05)
(0.0395827 7.02326e-05 -7.91104e-05)
(0.0392498 5.86647e-05 -7.70143e-05)
(0.0389514 4.79509e-05 -7.44614e-05)
(0.0577415 0.00060765 -0.000302811)
(0.0570315 0.000541262 -0.000270435)
(0.0563876 0.000462666 -0.000235719)
(0.0557855 0.000410732 -0.000206901)
(0.055237 0.000375828 -0.000184232)
(0.054707 0.000348252 -0.000164892)
(0.054219 0.00032416 -0.000147589)
(0.053753 0.000303802 -0.000133307)
(0.0533112 0.00028372 -0.000122377)
(0.0528975 0.000263854 -0.000114493)
(0.052506 0.000240655 -0.000108847)
(0.0685399 0.00088838 -0.00047044)
(0.0677242 0.000833041 -0.000460655)
(0.0669739 0.000779476 -0.000441335)
(0.0662784 0.00072809 -0.000417784)
(0.0656322 0.000681412 -0.000392192)
(0.0650293 0.000639956 -0.000364968)
(0.064466 0.000602331 -0.000337231)
(0.0639376 0.000566151 -0.000310589)
(0.0634393 0.000529232 -0.000287367)
(0.0629731 0.000492929 -0.000267257)
(0.0625346 0.000461904 -0.000247498)
(0.0761084 0.00103216 -0.000450073)
(0.0753428 0.000979651 -0.000478094)
(0.0746088 0.000931435 -0.000493804)
(0.0739051 0.00088595 -0.000498667)
(0.0732337 0.000842167 -0.000494117)
(0.0725952 0.000799833 -0.000481867)
(0.0719896 0.000758616 -0.000464037)
(0.0714164 0.000718128 -0.000442587)
(0.0708734 0.000677523 -0.000419728)
(0.0703586 0.000638651 -0.000396333)
(0.0698702 0.000605301 -0.000370764)
(0.0796829 0.000967711 -0.000399367)
(0.0790754 0.000952576 -0.000447705)
(0.0784588 0.000930617 -0.000478785)
(0.0778411 0.000903738 -0.000495993)
(0.0772299 0.000873221 -0.000501611)
(0.076631 0.000839681 -0.000498947)
(0.0760494 0.000803691 -0.000488772)
(0.0754886 0.000766565 -0.000473159)
(0.0749493 0.000729079 -0.000454107)
(0.0744334 0.000692826 -0.000432736)
(0.0739399 0.000658991 -0.00040832)
)
;

boundaryField
{
    inlet
    {
        type            fixedValue;
        value           nonuniform List<vector> 0();
    }
    ami1
    {
        type            cyclicAMI;
        value           nonuniform List<vector> 0();
    }
    walls
    {
        type            noSlip;
    }
    ami2
    {
        type            cyclicAMI;
        value           nonuniform List<vector> 0();
    }
    outlet
    {
        type            zeroGradient;
    }
    procBoundary8to0
    {
        type            processor;
        value           nonuniform List<vector> 
29
(
(0.0285846 1.83416e-05 5.31397e-05)
(0.0467715 -0.000113929 0.000161749)
(0.0637813 -0.00039272 0.000383109)
(0.074394 -0.000580579 0.000357907)
(0.0795973 -0.000751872 0.00035259)
(0.0442889 0.000134844 0.000239081)
(0.0765179 0.000115631 0.000506692)
(0.0929954 -0.000109714 0.000843321)
(0.100418 -0.000412575 0.000692113)
(0.103698 -0.000771271 0.000432735)
(0.0585059 0.000328834 0.000644024)
(0.0912186 0.000297076 0.000997614)
(0.104609 0.000116002 0.00130757)
(0.110606 -0.00020438 0.00108291)
(0.113278 -0.000621095 0.000712677)
(0.0694266 0.000467725 0.000954023)
(0.0987654 0.00034766 0.00134264)
(0.110257 0.000236152 0.00151506)
(0.115601 -1.07993e-05 0.00122421)
(0.118066 -0.000361059 0.000798866)
(0.0769005 0.000401831 0.00109357)
(0.102811 0.000241066 0.00142679)
(0.113074 0.000258782 0.00145894)
(0.118049 0.00014475 0.00112412)
(0.120437 -8.79463e-05 0.000693961)
(0.12115 -0.000409944 0.000261831)
(0.118786 0.000396515 0.000784599)
(0.12115 0.00026069 0.000409214)
(0.121861 -4.72805e-07 2.63688e-07)
)
;
    }
    procBoundary8to1
    {
        type            processor;
        value           nonuniform List<vector> 
33
(
(0.0802608 0.000324286 0.000977624)
(0.104371 0.000228312 0.00118283)
(0.113989 0.000385854 0.0011058)
(0.0795949 0.000353253 0.000751589)
(0.103698 0.000432576 0.000770311)
(0.113278 0.000711758 0.000619726)
(0.118066 0.000797829 0.000359663)
(0.120437 0.00069324 8.68425e-05)
(0.12115 0.000409009 -0.00026128)
(0.0743929 0.000358857 0.00058065)
(0.100418 0.000692128 0.000412146)
(0.110605 0.0010821 0.000203391)
(0.115601 0.00122333 9.45526e-06)
(0.118048 0.00112376 -0.000146019)
(0.118786 0.000784827 -0.00039735)
(0.0637816 0.000384154 0.000392961)
(0.0929951 0.000842943 0.000109503)
(0.104607 0.00130661 -0.000116588)
(0.110256 0.00151417 -0.000237011)
(0.113073 0.00145854 -0.000259602)
(0.113988 0.00110575 -0.000386418)
(0.0467736 0.000162118 0.000113984)
(0.0765195 0.00050602 -0.000115436)
(0.0912184 0.000997288 -0.000296672)
(0.0987658 0.00134228 -0.000347266)
(0.102812 0.00142638 -0.000240829)
(0.104372 0.00118216 -0.000228538)
(0.0285865 5.31036e-05 -1.82311e-05)
(0.0442918 0.000238826 -0.0001343)
(0.05851 0.000643892 -0.000327683)
(0.0694318 0.000953352 -0.000466345)
(0.0769075 0.00109183 -0.000400392)
(0.0802701 0.00097461 -0.000323698)
)
;
    }
    procBoundary8to7
    {
        type            processor;
        value           nonuniform List<vector> 
68
(
(0.024975 2.81722e-05 2.7611e-05)
(0.0419446 -5.05021e-05 0.000150243)
(0.0582287 -0.000297141 0.000283164)
(0.0681949 -0.000487585 0.000342712)
(0.0732929 -0.000597876 0.000388549)
(0.0389362 6.6856e-05 4.97354e-05)
(0.0716843 1.45687e-05 0.000243861)
(0.0916033 -0.000256624 0.000445866)
(0.100574 -0.000512782 0.000497171)
(0.104292 -0.000667917 0.000521369)
(0.0521246 9.3428e-05 0.000222373)
(0.088517 9.46583e-05 0.000493916)
(0.105589 -0.000136897 0.000707783)
(0.113195 -0.000396309 0.000655751)
(0.116424 -0.000588085 0.000589137)
(0.0620943 0.000221659 0.000437113)
(0.0971269 0.000275847 0.000602679)
(0.112043 0.000120962 0.000750949)
(0.118959 -0.000122281 0.000644404)
(0.12211 -0.000328007 0.000504971)
(0.0693832 0.000338219 0.000576309)
(0.101962 0.000418501 0.000701677)
(0.115421 0.000331494 0.000767327)
(0.121843 0.000124054 0.00059847)
(0.124909 -7.05034e-05 0.000399839)
(0.125802 -0.000249184 0.000168076)
(0.0734583 0.000376599 0.000625339)
(0.104437 0.000487208 0.000721305)
(0.116908 0.00047977 0.0007136)
(0.122879 0.000329872 0.000493224)
(0.125794 0.000173207 0.000253022)
(0.126684 2.67658e-06 4.51946e-07)
(0.0733433 0.000383587 0.000590303)
(0.0733433 0.000383587 0.000590303)
(0.104294 0.000523232 0.000661698)
(0.104294 0.000523232 0.000661698)
(0.11641 0.000593571 0.000588714)
(0.122097 0.000509572 0.000332383)
(0.124903 0.000403621 7.65672e-05)
(0.125797 0.000253926 -0.000167443)
(0.0678118 0.000333053 0.000451606)
(0.100518 0.000481288 0.000482011)
(0.11319 0.000662227 0.000395512)
(0.11319 0.000662227 0.000395512)