/*--------------------------------*- C++ -*----------------------------------*\
| =========                 |                                                 |
| \\      /  F ield         | OpenFOAM: The Open Source CFD Toolbox           |
|  \\    /   O peration     | Version:  2212                                  |
|   \\  /    A nd           | Website:  www.openfoam.com                      |
|    \\/     M anipulation  |                                                 |
\*---------------------------------------------------------------------------*/
FoamFile
{
    version     2.0;
    format      ascii;
    arch        "LSB;label=32;scalar=64";
    class       surfaceVectorField;
    location    "1";
    object      Uf;
}
// * * * * * * * * * * * * * * * * * * * * * * * * * * * * * * * * * * * * * //

dimensions      [0 1 -1 0 0 0 0];

internalField   nonuniform List<vector> 
1815
(
(0.0279901 1.82258e-05 5.38724e-05)
(0.0354077 -3.9934e-05 9.90097e-05)
(0.0343867 6.41553e-05 0.000109746)
(0.0276168 2.10825e-05 5.1926e-05)
(0.0349795 -4.03202e-05 0.000110092)
(0.0339357 6.73796e-05 9.02547e-05)
(0.0272607 2.41764e-05 4.91203e-05)
(0.034567 -3.74483e-05 0.000117684)
(0.0334993 6.99492e-05 7.47264e-05)
(0.0269207 2.60994e-05 4.6526e-05)
(0.0341742 -3.42056e-05 0.000120557)
(0.0330853 7.00943e-05 6.38192e-05)
(0.0265998 2.71777e-05 4.39462e-05)
(0.0338017 -3.06235e-05 0.00012045)
(0.0326928 6.90872e-05 5.4174e-05)
(0.0263012 2.79584e-05 4.1238e-05)
(0.0334506 -2.63553e-05 0.000117815)
(0.0323232 6.73025e-05 4.54746e-05)
(0.0260225 2.8517e-05 3.86529e-05)
(0.033124 -2.17416e-05 0.000114937)
(0.0319801 6.53078e-05 3.80258e-05)
(0.0257627 2.83937e-05 3.64727e-05)
(0.032815 -1.73735e-05 0.000111066)
(0.0316566 6.3194e-05 3.21616e-05)
(0.0255163 2.74837e-05 3.46916e-05)
(0.032523 -1.4036e-05 0.000106855)
(0.0313528 6.00068e-05 2.87918e-05)
(0.0252835 2.6865e-05 3.22961e-05)
(0.0322465 -1.14442e-05 0.000101699)
(0.0310647 5.644e-05 2.61654e-05)
(0.0319964 -8.06568e-06 9.55336e-05)
(0.030803 5.44126e-05 2.13346e-05)
(0.0460041 -0.000127581 0.000185819)
(0.053836 -0.000255572 0.000304518)
(0.0594277 -1.99562e-05 0.000279953)
(0.0455131 -0.000129058 0.00019808)
(0.0533269 -0.00026724 0.000313391)
(0.0589363 -2.6978e-05 0.000264126)
(0.0450424 -0.000126305 0.000203625)
(0.0528361 -0.000269985 0.000312784)
(0.0584742 -2.91654e-05 0.000253345)
(0.0445937 -0.000120823 0.000203197)
(0.0523537 -0.000267653 0.000305583)
(0.0580246 -2.93794e-05 0.000243558)
(0.044169 -0.00011272 0.000199229)
(0.0518951 -0.000260289 0.00029558)
(0.0576037 -2.75338e-05 0.00023194)
(0.0437701 -0.000102829 0.000194428)
(0.05145 -0.000248205 0.000284343)
(0.0571933 -2.33672e-05 0.000217737)
(0.0433924 -9.24413e-05 0.000189655)
(0.0510302 -0.000233804 0.000275813)
(0.0568098 -1.85109e-05 0.000204582)
(0.043035 -8.26132e-05 0.00018323)
(0.0506237 -0.000218557 0.000267243)
(0.0564382 -1.29706e-05 0.00019128)
(0.0426962 -7.38481e-05 0.000173534)
(0.050236 -0.000203546 0.000254348)
(0.0560823 -9.56818e-06 0.000183026)
(0.0423788 -6.54686e-05 0.000162333)
(0.0498685 -0.000189463 0.000235164)
(0.0557419 -7.35339e-06 0.000177749)
(0.0495285 -0.000175482 0.000219756)
(0.0554211 -2.9402e-06 0.000165991)
(0.0630152 -0.000437953 0.000402828)
(0.0682465 -0.000532885 0.000361865)
(0.0768874 -0.000301422 0.000565429)
(0.0625038 -0.000450906 0.000405108)
(0.0677277 -0.000557053 0.00037659)
(0.0765587 -0.000328719 0.000541579)
(0.0619975 -0.000453147 0.000399266)
(0.0672086 -0.000566703 0.000382725)
(0.076238 -0.000344175 0.000516388)
(0.0614989 -0.000447695 0.000388801)
(0.0666794 -0.000566406 0.000382829)
(0.0759167 -0.000351547 0.000490651)
(0.0610113 -0.000434925 0.00037603)
(0.0661588 -0.000557696 0.00037869)
(0.0756061 -0.000351142 0.000466235)
(0.0605384 -0.000416824 0.000363917)
(0.0656415 -0.000541148 0.000372171)
(0.0752945 -0.000343504 0.000441945)
(0.0600797 -0.000396121 0.000352798)
(0.0651398 -0.000519726 0.000364889)
(0.0749895 -0.000333235 0.000423192)
(0.0596376 -0.000374048 0.000338759)
(0.0646518 -0.000495242 0.000354292)
(0.0746909 -0.000320978 0.00040584)
(0.0592123 -0.00035152 0.000319496)
(0.0641805 -0.000469334 0.000338567)
(0.0744003 -0.000307449 0.000389582)
(0.0588048 -0.000329594 0.000299728)
(0.0637327 -0.000442827 0.000319976)
(0.0741182 -0.000292161 0.000368811)
(0.0633028 -0.00041678 0.00030421)
(0.0738441 -0.000275213 0.000347157)
(0.0736466 -0.000645539 0.000401031)
(0.0764293 -0.0007037 0.00041209)
(0.0863686 -0.000560265 0.000518417)
(0.0731185 -0.000667388 0.00041929)
(0.0759166 -0.000729372 0.000441557)
(0.0861331 -0.000595767 0.000517111)
(0.0725733 -0.00067569 0.000429791)
(0.0753789 -0.000740479 0.000460555)
(0.0858762 -0.000616994 0.000514022)
(0.0720189 -0.000673382 0.000433708)
(0.0748248 -0.000740221 0.000470693)
(0.0856048 -0.000626765 0.000508305)
(0.0714631 -0.000662248 0.000432442)
(0.0742636 -0.000731179 0.000473124)
(0.0853214 -0.00062671 0.000500681)
(0.0709135 -0.000643753 0.000426537)
(0.0737038 -0.000714769 0.000468913)
(0.0850334 -0.000618156 0.000491566)
(0.0703764 -0.00061963 0.000415487)
(0.0731512 -0.000692367 0.000458533)
(0.0847426 -0.000604248 0.000481785)
(0.0698569 -0.000592103 0.000399286)
(0.0726143 -0.000665421 0.000442727)
(0.0844551 -0.000585536 0.000468174)
(0.0693566 -0.000563029 0.000380166)
(0.0720918 -0.000636163 0.000422646)
(0.0841706 -0.000564045 0.000452683)
(0.0688762 -0.00053302 0.000361907)
(0.0715931 -0.000605711 0.000402307)
(0.0838943 -0.000539106 0.000435063)
(0.0711123 -0.000572935 0.000383956)
(0.0836213 -0.000511163 0.000415539)
(0.0788824 -0.000801616 0.000433919)
(0.0908199 -0.000795229 0.000436899)
(0.0783606 -0.000815048 0.000467428)
(0.090619 -0.0008142 0.000471477)
(0.0778135 -0.000816501 0.000488398)
(0.0903877 -0.000821535 0.000496483)
(0.0772525 -0.000808549 0.00049904)
(0.0901337 -0.000819108 0.000512722)
(0.076687 -0.000793118 0.000500851)
(0.0898641 -0.000808598 0.000521049)
(0.0761243 -0.000771495 0.00049492)
(0.0895851 -0.000791297 0.000522322)
(0.0755708 -0.000745036 0.000482383)
(0.089302 -0.000768708 0.000517465)
(0.0750312 -0.000715372 0.000464746)
(0.0890183 -0.000742263 0.000507266)
(0.0745082 -0.000684169 0.000444543)
(0.0887377 -0.000713288 0.000493132)
(0.0740047 -0.000651166 0.000423266)
(0.0884613 -0.00068242 0.000477495)
(0.0881937 -0.000648772 0.000459336)
(0.0434209 0.000124364 0.000195573)
(0.0580047 0.000104645 0.000287619)
(0.0499536 0.000189898 0.000409236)
(0.0428711 0.000118108 0.000173759)
(0.0574815 9.17453e-05 0.000269527)
(0.0493277 0.000167645 0.000372463)
(0.042347 0.000112299 0.000154347)
(0.0569862 8.17181e-05 0.000259073)
(0.0487411 0.000146467 0.000329538)
(0.0418468 0.000106395 0.000136556)
(0.056507 7.34578e-05 0.000247685)
(0.0481877 0.00012915 0.000297905)
(0.0413734 0.000100197 0.000119743)
(0.0560582 6.66908e-05 0.000232328)
(0.0476742 0.000115587 0.000272457)
(0.0409302 9.37649e-05 0.000104724)
(0.055622 6.12363e-05 0.000213719)
(0.047183 0.000103828 0.00025005)
(0.0405138 8.76355e-05 9.22763e-05)
(0.0552156 5.68693e-05 0.000195561)
(0.0467284 9.22745e-05 0.000231589)
(0.0401241 8.1869e-05 8.26042e-05)
(0.0548238 5.33483e-05 0.00017843)
(0.0462957 8.31133e-05 0.000215432)
(0.0397563 7.63668e-05 7.45196e-05)
(0.0544514 4.91194e-05 0.00016814)
(0.0458877 7.58183e-05 0.000200204)
(0.0394088 7.18414e-05 6.56048e-05)
(0.0540948 4.42134e-05 0.000162548)
(0.0455043 7.10578e-05 0.000183685)
(0.0537579 4.20715e-05 0.000149221)
(0.0451501 6.69162e-05 0.000167225)
(0.0757749 7.25824e-05 0.000435448)
(0.0838203 -2.30192e-05 0.000643159)
(0.0828852 0.000146664 0.000696267)
(0.0753158 5.15914e-05 0.00040945)
(0.0835143 -5.81927e-05 0.000601242)
(0.0824859 0.000117784 0.000655564)
(0.0748797 3.6094e-05 0.00039383)
(0.0832297 -8.47779e-05 0.000569833)
(0.0821257 9.38414e-05 0.000626798)
(0.0744595 2.55413e-05 0.000378792)
(0.0829492 -0.000102905 0.000542862)
(0.081781 7.57892e-05 0.000603697)
(0.074053 1.92054e-05 0.000359203)
(0.0826852 -0.000114723 0.000517221)
(0.0814628 6.28637e-05 0.000576522)
(0.0736602 1.6085e-05 0.00033569)
(0.0824168 -0.000120958 0.000489929)
(0.0811492 5.34e-05 0.000544233)
(0.0732809 1.49029e-05 0.000311577)
(0.0821566 -0.000123182 0.000463984)
(0.0808516 4.62481e-05 0.000512613)
(0.0729143 1.35605e-05 0.000293861)
(0.081901 -0.00012187 0.000440107)
(0.0805633 3.99968e-05 0.000479729)
(0.0725556 1.04741e-05 0.000288272)
(0.0816498 -0.000121449 0.000424602)
(0.0802865 3.48407e-05 0.000459552)
(0.0721992 8.64226e-06 0.000281205)
(0.081401 -0.000120543 0.000414312)
(0.0800132 2.95182e-05 0.000449921)
(0.0811509 -0.000114331 0.000393343)
(0.0797426 2.63899e-05 0.000426575)
(0.0928226 -0.000193087 0.000758026)
(0.0965167 -0.000323028 0.000710006)
(0.0984265 -8.0551e-05 0.00100785)
(0.0927165 -0.000234106 0.000714063)
(0.0965026 -0.000372263 0.00067677)
(0.098398 -0.000128849 0.000947934)
(0.0926137 -0.000263139 0.000674008)
(0.0964762 -0.000407332 0.000648723)
(0.0983744 -0.000166973 0.000895904)
(0.0925117 -0.000282308 0.000638178)
(0.0964461 -0.000429802 0.000621877)
(0.0983626 -0.000195203 0.000852099)
(0.0924056 -0.000293709 0.000606579)
(0.0964058 -0.000442842 0.000600151)
(0.0983485 -0.000216068 0.000812156)
(0.092293 -0.000298779 0.000578057)
(0.0963561 -0.00044746 0.000580524)
(0.0983391 -0.0002302 0.00077007)
(0.0921757 -0.000298515 0.000551754)
(0.0962928 -0.000447432 0.000563138)
(0.0983245 -0.000238295 0.000732175)
(0.092056 -0.000295027 0.000530002)
(0.0962244 -0.000441311 0.000542788)
(0.0983122 -0.000241135 0.000699447)
(0.0919304 -0.000289307 0.00051132)
(0.0961489 -0.000432808 0.000528667)
(0.0982941 -0.000241747 0.000676617)
(0.0918004 -0.000279095 0.000487282)
(0.0960644 -0.000419872 0.000512431)
(0.0982709 -0.000239381 0.000655551)
(0.0959715 -0.000400754 0.000487857)
(0.0982386 -0.000232707 0.00062624)
(0.100563 -0.000505545 0.00065448)
(0.102152 -0.000636744 0.000572895)
(0.105451 -0.000396855 0.00085183)
(0.100637 -0.000549448 0.000637131)
(0.102265 -0.000675301 0.00057903)
(0.105614 -0.000448471 0.000818375)
(0.100692 -0.000578738 0.000621376)
(0.102351 -0.000700222 0.000583607)
(0.105763 -0.000486417 0.000789561)
(0.100729 -0.000596007 0.000606922)
(0.102416 -0.000713218 0.000584812)
(0.105902 -0.000512294 0.000763729)
(0.10075 -0.000603434 0.000594432)
(0.10246 -0.000716717 0.000583783)
(0.106027 -0.000529131 0.000741008)
(0.100756 -0.000603704 0.000584187)
(0.102487 -0.000712044 0.000580356)
(0.106142 -0.00053795 0.000719267)
(0.100749 -0.000597669 0.00057315)
(0.102499 -0.0007018 0.000576227)
(0.106244 -0.000540603 0.000698891)
(0.100728 -0.000586223 0.000560695)
(0.102497 -0.000685297 0.000567141)
(0.106334 -0.000536369 0.000678266)
(0.100696 -0.000570545 0.000547927)
(0.102484 -0.000665258 0.000557344)
(0.106414 -0.000529038 0.000662934)
(0.100652 -0.000548819 0.000529659)
(0.102459 -0.000640566 0.000545729)
(0.106481 -0.000516418 0.000644745)
(0.102425 -0.000611985 0.000527418)
(0.106542 -0.000497503 0.00061775)
(0.103945 -0.000818561 0.000485153)
(0.108548 -0.000754627 0.000599508)
(0.10407 -0.000837056 0.000515322)
(0.108778 -0.000779011 0.000615435)
(0.104168 -0.000844677 0.0005388)
(0.108984 -0.000792912 0.000627768)
(0.10424 -0.000842879 0.00055533)
(0.109169 -0.000797522 0.000635695)
(0.104291 -0.00083312 0.000565425)
(0.109335 -0.000794647 0.00063921)
(0.104325 -0.0008169 0.00056974)
(0.109484 -0.000785627 0.000638216)
(0.104343 -0.000795444 0.000568523)
(0.109618 -0.000771328 0.000633535)
(0.104349 -0.000769886 0.000562443)
(0.109738 -0.000752183 0.000625495)
(0.104343 -0.000740868 0.000553076)
(0.109846 -0.000730014 0.000615881)
(0.104329 -0.000709343 0.000540992)
(0.109942 -0.000706262 0.000605625)
(0.110031 -0.000679083 0.000589941)
(0.057382 0.000287052 0.000574057)
(0.072968 0.00028192 0.000725504)
(0.0627869 0.000398694 0.000720322)
(0.0567038 0.000252846 0.000501789)
(0.0724434 0.000253804 0.000669296)
(0.0620268 0.000372136 0.000663668)
(0.0560834 0.000220373 0.0004371)
(0.0719715 0.000225444 0.000611376)
(0.0613329 0.000339392 0.000602406)
(0.0555065 0.000193863 0.000393997)
(0.0715361 0.00020069 0.000569211)
(0.0606863 0.00031021 0.000553524)
(0.0549652 0.000171994 0.000362929)
(0.0711386 0.000179244 0.000532659)
(0.0600912 0.000284291 0.000514678)
(0.0544562 0.000152784 0.000337307)
(0.0707574 0.000159897 0.000496686)
(0.0595259 0.000259371 0.000482114)
(0.0539764 0.00013621 0.000315354)
(0.0704007 0.000142693 0.00046589)
(0.0590011 0.0002361 0.000452288)
(0.053524 0.000122917 0.000295121)
(0.0700622 0.000128841 0.000436138)
(0.0585044 0.000214866 0.000425137)
(0.0530958 0.000113069 0.000274227)
(0.0697416 0.000117024 0.000412713)
(0.0580351 0.000197264 0.000396994)
(0.052689 0.000105473 0.000253086)
(0.0694353 0.00010753 0.000391771)
(0.0575965 0.000182906 0.000368451)
(0.0691432 9.95565e-05 0.000365552)
(0.0571838 0.000170131 0.000341892)
(0.0907029 0.000256848 0.000887071)
(0.0973602 0.000184895 0.00108983)
(0.0944953 0.000330203 0.0010547)
(0.0904146 0.000231769 0.000832891)
(0.0972252 0.000148646 0.00101806)
(0.0942287 0.000325352 0.000977267)
(0.0901596 0.000209314 0.000788981)
(0.0971154 0.000116367 0.000956113)
(0.0939969 0.000317011 0.000910128)
(0.0899296 0.000189342 0.000750609)
(0.0970304 8.87942e-05 0.000910081)
(0.093796 0.000305654 0.000854589)
(0.0897164 0.000171283 0.000710614)
(0.0969544 6.6776e-05 0.000866487)
(0.0936149 0.000291043 0.000805089)
(0.0895145 0.000154935 0.000671342)
(0.0968936 4.9954e-05 0.000819355)
(0.0934513 0.000274216 0.000758983)
(0.0893215 0.0001406 0.000631154)
(0.0968362 3.52676e-05 0.000776883)
(0.0932955 0.000257619 0.00071688)
(0.089139 0.000128142 0.000596473)
(0.0967867 2.26214e-05 0.000735649)
(0.0931529 0.000242521 0.000670953)
(0.0889597 0.00011707 0.000574841)
(0.0967394 1.18875e-05 0.000708694)
(0.0930189 0.000228005 0.000640323)
(0.0887809 0.000107543 0.000550509)
(0.0966883 3.29975e-06 0.000689448)
(0.0928837 0.000213725 0.000619473)
(0.0966325 -2.06282e-06 0.000659113)
(0.092751 0.00019974 0.000585771)
(0.104665 4.24276e-05 0.00117402)
(0.107631 -9.85077e-05 0.00110632)
(0.107391 0.000158031 0.00129319)
(0.104728 6.07657e-07 0.00110065)
(0.10778 -0.000144734 0.00104027)
(0.107478 0.000131801 0.00120494)
(0.104806 -3.53321e-05 0.001042)
(0.107934 -0.00018274 0.000984473)
(0.107578 0.000107068 0.00112924)
(0.104892 -6.47456e-05 0.000992179)
(0.108095 -0.000213663 0.000941577)
(0.107694 8.38363e-05 0.0010691)
(0.104986 -8.66389e-05 0.000938129)
(0.10825 -0.000236903 0.000899745)
(0.107811 6.42981e-05 0.00101244)
(0.105087 -0.000102949 0.000883695)
(0.10841 -0.0002531 0.000852883)
(0.107941 4.9367e-05 0.000952725)
(0.105191 -0.000116023 0.00083954)
(0.108568 -0.00026457 0.000810438)
(0.108074 3.61822e-05 0.00089889)
(0.105291 -0.000126259 0.000807783)
(0.108721 -0.000272893 0.000777728)
(0.108207 2.4553e-05 0.000854564)
(0.105386 -0.000133615 0.000785087)
(0.108865 -0.000277829 0.000756488)
(0.108337 1.3923e-05 0.000823214)
(0.105473 -0.000137431 0.000760645)
(0.109001 -0.000276973 0.000737138)
(0.108462 4.22617e-06 0.000800944)
(0.109129 -0.000271321 0.000707737)
(0.10858 -3.15596e-06 0.000766841)
(0.110982 -0.000285997 0.00099287)
(0.11221 -0.000451505 0.000867942)
(0.113305 -0.0001408 0.0010709)
(0.111229 -0.000328956 0.000944165)
(0.112497 -0.000486898 0.000838445)
(0.11358 -0.000174564 0.00100871)
(0.11147 -0.000362581 0.000903132)
(0.112773 -0.000513245 0.000813081)
(0.113852 -0.000202435 0.000955094)
(0.111706 -0.000387733 0.000867479)
(0.11304 -0.000531434 0.000791221)
(0.114119 -0.000224931 0.000909236)
(0.111935 -0.000405182 0.000833421)
(0.113295 -0.000542634 0.000769847)
(0.11438 -0.000241657 0.000867259)
(0.112155 -0.000416125 0.00079981)
(0.11354 -0.000547923 0.000746898)
(0.114635 -0.000253109 0.000826196)
(0.112365 -0.000422298 0.000769998)
(0.113773 -0.000547721 0.000724336)
(0.114881 -0.000261155 0.000787899)
(0.112564 -0.000425097 0.000748051)
(0.113994 -0.000543338 0.00070567)
(0.115118 -0.000267041 0.000756192)
(0.112754 -0.000422489 0.000727892)
(0.114205 -0.000536118 0.00069236)
(0.115347 -0.000270834 0.000733026)
(0.112937 -0.000413037 0.000700367)
(0.114403 -0.000525105 0.000675889)
(0.115566 -0.000269357 0.000709865)
(0.114594 -0.000508346 0.000649813)
(0.115781 -0.000263479 0.000678321)
(0.113785 -0.000662295 0.000703831)
(0.115979 -0.000506341 0.000728175)
(0.114103 -0.000680268 0.000699138)
(0.116338 -0.000521079 0.000710607)
(0.114406 -0.000690456 0.000694145)
(0.116682 -0.000530441 0.000694608)
(0.114693 -0.000693873 0.000687871)
(0.117012 -0.0005347 0.000679413)
(0.114966 -0.000691855 0.000679383)
(0.117328 -0.000534559 0.000663861)
(0.115225 -0.000685186 0.000668811)
(0.11763 -0.000530869 0.000647256)
(0.115469 -0.000674277 0.000657375)
(0.117919 -0.000523963 0.000630328)
(0.1157 -0.000660106 0.000646444)
(0.118195 -0.000514363 0.000614381)
(0.115921 -0.000644497 0.000636476)
(0.118459 -0.000502841 0.000600176)
(0.11613 -0.000625572 0.000622516)
(0.118712 -0.00049075 0.000587013)
(0.118955 -0.000474456 0.000567309)
(0.0681275 0.000466174 0.000861535)
(0.0825649 0.000420179 0.00103117)
(0.0721845 0.000462144 0.000958485)
(0.0673431 0.000451055 0.000807139)
(0.0820263 0.000422399 0.00095659)
(0.0713919 0.000473175 0.000901748)
(0.0666177 0.000428946 0.000754932)
(0.0815381 0.000415012 0.00088802)
(0.0706482 0.000473109 0.000848249)
(0.0659453 0.000403557 0.000706415)
(0.0810933 0.000401873 0.000826331)
(0.0699474 0.00046337 0.000799331)
(0.0653196 0.000376199 0.000663049)
(0.0806839 0.000384665 0.000772196)
(0.0692877 0.000446813 0.000754849)
(0.0647352 0.000347727 0.000624171)
(0.0803073 0.000363952 0.000725078)
(0.068666 0.000425546 0.000713941)
(0.0641872 0.000319632 0.000587543)
(0.0799572 0.00034164 0.000682424)
(0.0680806 0.000401248 0.000675474)
(0.063674 0.000293921 0.000550691)
(0.0796314 0.000319609 0.000641399)
(0.0675291 0.000375969 0.000637575)
(0.0631915 0.000271717 0.000513016)
(0.0793254 0.000299233 0.000604304)
(0.067008 0.000352207 0.000598434)
(0.0627353 0.000251697 0.000477782)
(0.0790368 0.000280545 0.000571325)
(0.066518 0.000330108 0.000559762)
(0.0787644 0.000261677 0.000536741)
(0.0660553 0.000306826 0.000526855)
(0.0983853 0.000383705 0.00117969)
(0.104155 0.000321742 0.0013396)
(0.100542 0.000351375 0.001275)
(0.0981794 0.000395619 0.0010893)
(0.104095 0.000327873 0.00124228)
(0.100378 0.000389947 0.00118482)
(0.0980047 0.000398841 0.00100959)
(0.104059 0.000327346 0.0011568)
(0.100236 0.000415325 0.00110425)
(0.0978556 0.000394934 0.000940124)
(0.104046 0.000321507 0.00108255)
(0.100114 0.000429413 0.00103228)
(0.0977273 0.000385172 0.00088036)
(0.104046 0.000312217 0.0010178)
(0.100006 0.000434531 0.000968164)
(0.0976152 0.000371233 0.00082778)
(0.104061 0.000300633 0.000960028)
(0.0999127 0.000432378 0.000911338)
(0.0975162 0.000355097 0.000778187)
(0.104084 0.00028729 0.000906193)
(0.0998284 0.000424453 0.000859482)
(0.0974253 0.000338473 0.00073519)
(0.104114 0.00027255 0.000854564)
(0.0997528 0.000412755 0.000809538)
(0.0973388 0.000322039 0.00070332)
(0.104147 0.000257984 0.000815988)
(0.0996831 0.000398714 0.000768658)
(0.097253 0.000304615 0.000671039)
(0.104178 0.000243683 0.000788265)
(0.099613 0.000382664 0.000735261)
(0.10421 0.000228887 0.000749362)
(0.0995468 0.000363999 0.000695719)
(0.110418 0.000232314 0.0013504)
(0.113047 0.000101709 0.00126491)
(0.111788 0.000266752 0.00138467)
(0.110545 0.000225334 0.00125835)
(0.113256 9.00349e-05 0.00117876)
(0.111949 0.00027847 0.00129489)
(0.110684 0.000215551 0.00117926)
(0.113471 7.76083e-05 0.00110403)
(0.112117 0.000284385 0.00121552)
(0.110834 0.000204251 0.00111035)
(0.11369 6.50661e-05 0.00103974)
(0.112291 0.000285451 0.00114598)
(0.110992 0.000192861 0.00104697)
(0.11391 5.31293e-05 0.000981394)
(0.112468 0.000283792 0.00108266)
(0.111154 0.000181806 0.000987159)
(0.114132 4.25182e-05 0.000925669)
(0.112649 0.000280651 0.00102264)
(0.111319 0.000170649 0.000932299)
(0.114352 3.30963e-05 0.000874108)
(0.11283 0.000275247 0.000966643)
(0.111482 0.000159236 0.000887306)
(0.114568 2.43767e-05 0.000829129)
(0.113009 0.00026712 0.000916457)
(0.111645 0.000147784 0.00085452)
(0.114781 1.64216e-05 0.00079536)
(0.113185 0.00025706 0.000876879)
(0.111806 0.000136464 0.000820248)
(0.114988 9.71234e-06 0.000770608)
(0.113358 0.000247169 0.000847451)
(0.115193 4.1468e-06 0.00073447)
(0.113529 0.000236854 0.000807724)
(0.116062 -3.95105e-05 0.00110451)
(0.117168 -0.000196484 0.000956929)
(0.117141 5.87457e-05 0.00110011)
(0.116365 -5.69502e-05 0.00103645)
(0.117516 -0.000209208 0.00090452)
(0.117472 5.09046e-05 0.00103386)
(0.116663 -7.24392e-05 0.000976879)
(0.117856 -0.000219691 0.00085823)
(0.117797 4.29613e-05 0.000974715)
(0.116959 -8.56294e-05 0.000923746)
(0.118187 -0.000227766 0.000817124)
(0.118115 3.52547e-05 0.00092183)
(0.117248 -9.63027e-05 0.000874409)
(0.11851 -0.000233342 0.000779213)
(0.118426 2.8279e-05 0.000873216)
(0.117531 -0.000104752 0.000828244)
(0.118823 -0.000236565 0.000742945)
(0.118729 2.22544e-05 0.000827261)
(0.117805 -0.000111617 0.000786962)
(0.119126 -0.000237881 0.000709075)
(0.119023 1.68582e-05 0.000784581)
(0.118072 -0.0001172 0.000752541)
(0.119419 -0.000237692 0.000679422)
(0.119308 1.15006e-05 0.000746956)
(0.118334 -0.000121094 0.000725161)
(0.119703 -0.000236302 0.000654842)
(0.119585 6.50201e-06 0.000715566)
(0.118591 -0.000122534 0.000697171)
(0.11998 -0.000234187 0.000633785)
(0.119857 3.54048e-06 0.000689462)
(0.120247 -0.000229436 0.000606302)
(0.12012 2.20424e-06 0.000657198)
(0.11867 -0.000373591 0.000748121)
(0.119661 -0.000230416 0.00071215)
(0.119056 -0.000379061 0.000718319)
(0.120075 -0.000233768 0.000680908)
(0.11943 -0.000381847 0.000691177)
(0.120474 -0.000235739 0.000652316)
(0.11979 -0.000382036 0.000665864)
(0.12086 -0.000236219 0.000625847)
(0.120138 -0.000379904 0.00064152)
(0.121232 -0.000235265 0.000600799)
(0.120473 -0.000375752 0.000617978)
(0.121591 -0.000233043 0.000576679)
(0.120795 -0.00036987 0.000595933)
(0.121937 -0.000229721 0.000553725)
(0.121105 -0.000362627 0.000576111)
(0.122269 -0.000225517 0.000532642)
(0.121405 -0.000354779 0.000558448)
(0.12259 -0.00022064 0.000513768)
(0.121696 -0.000345547 0.000539361)
(0.122901 -0.000215634 0.000496803)
(0.123199 -0.000208617 0.000475969)
(0.0757173 0.000464606 0.00100784)
(0.0886629 0.000382141 0.00115777)
(0.0778661 0.000424049 0.00100372)
(0.0749655 0.000485757 0.000957725)
(0.0882102 0.000425872 0.0010901)
(0.0771772 0.000461609 0.000969654)
(0.0742445 0.000495212 0.000911265)
(0.0877785 0.000454974 0.00102867)
(0.0764999 0.000484092 0.000934623)
(0.0735553 0.000494452 0.000867181)
(0.087367 0.000471473 0.00097215)
(0.0758375 0.000494098 0.000898708)
(0.0728989 0.000485079 0.000824774)
(0.0869764 0.000477217 0.000919608)
(0.0751948 0.000493579 0.000861961)
(0.0722753 0.000469089 0.000783599)
(0.0866067 0.000474262 0.000870586)
(0.0745751 0.000484856 0.000824585)
(0.0716845 0.000448625 0.000743049)
(0.0862572 0.000464661 0.00082416)
(0.0739807 0.000469662 0.000786477)
(0.0711253 0.000425872 0.000702299)
(0.0859274 0.000450357 0.000779428)
(0.0734131 0.000450224 0.000747766)
(0.0705953 0.000402515 0.000661754)
(0.0856155 0.000433276 0.000736598)
(0.0728715 0.000428503 0.000708483)
(0.0700914 0.000378339 0.000624131)
(0.0853187 0.000414526 0.000696974)
(0.0723562 0.000406036 0.0006701)
(0.0850384 0.000393209 0.000659095)
(0.0718656 0.000382264 0.000634521)
(0.102649 0.00035275 0.00128634)
(0.107773 0.000325231 0.00137786)
(0.103567 0.000314749 0.00124172)
(0.102552 0.000406328 0.00120587)
(0.107818 0.000371562 0.00129523)
(0.103544 0.000381241 0.00118238)
(0.102464 0.000443987 0.00113281)
(0.107867 0.000405068 0.00122023)
(0.103516 0.000431282 0.00112626)
(0.102385 0.000468101 0.00106605)
(0.107922 0.000427346 0.00115175)
(0.103484 0.000466721 0.00107207)
(0.102314 0.000481121 0.0010051)
(0.10798 0.000440526 0.00108887)
(0.103451 0.000489644 0.00101985)
(0.102249 0.000485218 0.000949112)
(0.108041 0.000446618 0.00103065)
(0.103416 0.000502425 0.000971481)
(0.10219 0.000482185 0.000896743)
(0.108104 0.000446544 0.000976343)
(0.10338 0.000506767 0.000923928)
(0.102135 0.000473773 0.000848369)
(0.108167 0.000441139 0.000925544)
(0.103344 0.000504191 0.00087755)
(0.102084 0.000461172 0.000804857)
(0.108231 0.000431818 0.000880832)
(0.103307 0.00049662 0.000834593)
(0.102033 0.000444899 0.000763123)
(0.108293 0.000420168 0.000843547)
(0.103267 0.000484692 0.000793906)
(0.108355 0.000405925 0.000803531)
(0.103229 0.000468692 0.000751083)
(0.113382 0.00031134 0.00133129)
(0.115777 0.000220861 0.00121166)
(0.113787 0.000358639 0.00122613)
(0.113586 0.000336587 0.00125456)
(0.116056 0.000237405 0.00114135)
(0.114037 0.000389114 0.00117088)
(0.11379 0.00035415 0.00118477)
(0.11633 0.000248841 0.00107713)
(0.114279 0.000412254 0.0011184)
(0.113993 0.000365318 0.00112094)
(0.1166 0.000255754 0.00101856)
(0.114516 0.000428601 0.00106863)
(0.114195 0.000371671 0.00106155)
(0.116864 0.000259254 0.000964373)
(0.114745 0.000439132 0.00102105)
(0.114395 0.000373957 0.00100583)
(0.117123 0.000260286 0.000913346)
(0.114968 0.000444736 0.000975061)
(0.11459 0.000372182 0.000954272)
(0.117376 0.00025889 0.000865696)
(0.115184 0.000446039 0.000930751)
(0.114781 0.000366708 0.000908574)
(0.117621 0.000254989 0.000822377)
(0.115392 0.000443434 0.000888873)
(0.114969 0.000359199 0.000871559)
(0.11786 0.000249131 0.000785097)
(0.115594 0.000437826 0.000851417)
(0.115154 0.000350167 0.000836818)
(0.118094 0.000243187 0.000755368)
(0.115789 0.00043172 0.000821778)
(0.118321 0.000235968 0.000720686)
(0.115977 0.000421723 0.000786776)
(0.118598 0.000151455 0.00102896)
(0.119633 3.31855e-05 0.000862622)
(0.118809 0.000272697 0.000909802)
(0.118952 0.000153555 0.000971757)
(0.120029 3.49046e-05 0.000816925)
(0.119188 0.000274239 0.000867001)
(0.119296 0.000153873 0.000919288)
(0.120413 3.57042e-05 0.00077488)
(0.119556 0.000274167 0.000826748)
(0.119631 0.00015281 0.000870858)
(0.120785 3.57916e-05 0.000736072)
(0.119911 0.000272567 0.000788816)
(0.119956 0.000150826 0.000825565)
(0.121145 3.54837e-05 0.000699831)
(0.120255 0.000269672 0.000752757)
(0.120271 0.000148085 0.000783071)
(0.121493 3.4991e-05 0.000665587)
(0.120588 0.000265732 0.000718193)
(0.120576 0.000144466 0.000743933)
(0.12183 3.42508e-05 0.000633482)
(0.120909 0.00026086 0.000685269)
(0.120872 0.000140063 0.000709078)
(0.122154 3.31326e-05 0.000604197)
(0.121218 0.000255162 0.000654666)
(0.121159 0.00013575 0.00067909)
(0.122468 3.17775e-05 0.000578274)
(0.121517 0.000249024 0.000627176)
(0.12144 0.000131721 0.000649501)
(0.122773 3.08954e-05 0.000555856)
(0.121808 0.000243342 0.000603596)
(0.123067 3.00407e-05 0.000529794)
(0.122088 0.000236144 0.000576341)
(0.121106 -8.7313e-05 0.000644223)
(0.121253 -0.000240929 0.000457065)
(0.121253 8.17465e-05 0.000527755)
(0.121534 -8.69449e-05 0.000614101)
(0.121698 -0.000233473 0.000437353)
(0.121698 7.80549e-05 0.0005048)
(0.121946 -8.64078e-05 0.000586066)
(0.122128 -0.000226094 0.000418799)
(0.122127 7.44974e-05 0.000483176)
(0.122344 -8.55766e-05 0.000559743)
(0.122542 -0.000218711 0.000401209)
(0.122541 7.11375e-05 0.000462692)
(0.122729 -8.43928e-05 0.000534802)
(0.122941 -0.00021127 0.000384391)
(0.12294 6.80202e-05 0.000443138)
(0.123099 -8.28791e-05 0.000511155)
(0.123325 -0.000203773 0.000368214)
(0.123324 6.51582e-05 0.000424372)
(0.123455 -8.11188e-05 0.000489036)
(0.123696 -0.000196311 0.000352749)
(0.123694 6.25486e-05 0.000406475)
(0.123798 -7.91804e-05 0.000468764)
(0.124052 -0.000189028 0.000338255)
(0.12405 6.01908e-05 0.000389725)
(0.12413 -7.70804e-05 0.000450467)
(0.124396 -0.000182038 0.000324932)
(0.124393 5.81047e-05 0.000374336)
(0.124451 -7.45973e-05 0.000431898)
(0.124728 -0.000175441 0.000312887)
(0.124725 5.62984e-05 0.00036042)
(0.125047 -0.000167954 0.000299097)
(0.125043 5.41867e-05 0.000344425)
(0.12185 -0.000387698 0.000249684)
(0.121985 -0.000198786 0.000127701)
(0.122297 -0.000373161 0.000241648)
(0.12245 -0.000191238 0.000123608)
(0.122727 -0.000358866 0.00023364)
(0.122897 -0.000183822 0.000119571)
(0.123142 -0.000344811 0.00022564)
(0.123328 -0.000176519 0.000115557)
(0.123542 -0.000331006 0.00021765)
(0.123743 -0.000169323 0.000111548)
(0.123927 -0.00031751 0.000209717)
(0.124142 -0.000162241 0.000107547)
(0.124297 -0.000304468 0.000201948)
(0.124527 -0.000155327 0.000103593)
(0.124654 -0.000292065 0.000194492)
(0.124896 -0.000148675 9.9756e-05)
(0.124997 -0.000280503 0.00018752)
(0.125252 -0.000142386 9.61125e-05)
(0.125329 -0.000268804 0.000180393)
(0.125596 -0.000136606 9.27488e-05)
(0.125925 -0.000130284 8.88872e-05)
(0.0793677 0.000423357 0.000963041)
(0.0914048 0.000352276 0.00104601)
(0.0794002 0.000406686 0.00087958)
(0.0787545 0.000462347 0.000944489)
(0.0911109 0.000409157 0.00102074)
(0.0788434 0.000450425 0.000881707)
(0.0781361 0.000485632 0.000920178)
(0.0908031 0.000449947 0.000991394)
(0.0782673 0.000478392 0.000873749)
(0.0775209 0.000496084 0.000891717)
(0.0904875 0.00047691 0.000958635)
(0.0776817 0.000493727 0.000858036)
(0.0769159 0.000496514 0.000859984)
(0.0901697 0.00049212 0.000923263)
(0.0770955 0.000498619 0.000836439)
(0.0763257 0.000489004 0.000825519)
(0.0898537 0.000498068 0.000887377)
(0.0765158 0.000495381 0.000809831)
(0.0757548 0.000475114 0.000789148)
(0.0895431 0.000496097 0.000849069)
(0.0759485 0.000484825 0.000779195)
(0.0752054 0.000457022 0.000751754)
(0.0892405 0.000488064 0.00081001)
(0.0753981 0.000468607 0.000745963)
(0.0746779 0.000436577 0.000714413)
(0.0889468 0.00047598 0.000771633)
(0.0748664 0.000448739 0.000711388)
(0.0741727 0.000414418 0.000678175)
(0.0886623 0.000461039 0.000734253)
(0.0743564 0.000427542 0.000677218)
(0.0883896 0.000442262 0.000695605)
(0.0738673 0.000404374 0.000642721)
(0.104478 0.000347389 0.0011335)
(0.109181 0.000381985 0.00114073)
(0.10416 0.000388778 0.000977312)
(0.104525 0.000409263 0.00109972)
(0.109352 0.000433387 0.00111025)
(0.104259 0.000439962 0.00097312)
(0.104554 0.00045633 0.00106338)
(0.109507 0.000473438 0.00107746)
(0.104333 0.000480459 0.000961973)
(0.104569 0.000490077 0.00102439)