/*--------------------------------*- C++ -*----------------------------------*\
| =========                 |                                                 |
| \\      /  F ield         | OpenFOAM: The Open Source CFD Toolbox           |
|  \\    /   O peration     | Version:  2212                                  |
|   \\  /    A nd           | Website:  www.openfoam.com                      |
|    \\/     M anipulation  |                                                 |
\*---------------------------------------------------------------------------*/
FoamFile
{
    version     2.0;
    format      ascii;
    arch        "LSB;label=32;scalar=64";
    class       volScalarField;
    location    "0.15";
    object      p;
}
// * * * * * * * * * * * * * * * * * * * * * * * * * * * * * * * * * * * * * //

dimensions      [0 2 -2 0 0 0 0];

internalField   nonuniform List<scalar> 
682
(
0.00443682
0.00427591
0.00411501
0.00395407
0.00379306
0.00363196
0.0034708
0.00330958
0.00314831
0.00298699
0.00282562
0.00443688
0.00427598
0.0041151
0.00395415
0.0037931
0.00363199
0.00347081
0.00330959
0.00314833
0.00298701
0.00282561
0.0044366
0.00427579
0.004115
0.0039541
0.00379308
0.00363199
0.00347084
0.00330966
0.00314844
0.00298718
0.00282572
0.00459706
0.00443635
0.00427577
0.00411503
0.00395408
0.00379305
0.00363197
0.00347086
0.00330974
0.00314863
0.00298746
0.00282593
0.00459606
0.004435
0.00427491
0.00411461
0.00395385
0.00379289
0.00363187
0.0034708
0.00330976
0.00314887
0.00298825
0.00282666
0.00459552
0.00443471
0.00427488
0.00411466
0.0039539
0.00379294
0.0036319
0.00347082
0.00330974
0.00314879
0.00298819
0.00282663
0.00443796
0.00427671
0.00411551
0.00395434
0.00379316
0.00363197
0.00347073
0.00330946
0.00314814
0.00298677
0.00282537
0.00443746
0.0042764
0.00411532
0.00395423
0.0037931
0.00363193
0.00347071
0.00330945
0.00314813
0.00298677
0.0028254
0.00443664
0.00427577
0.0041149
0.00395397
0.00379295
0.00363184
0.00347067
0.00330944
0.00314812
0.0029867
0.00282534
0.00459694
0.00443652
0.00427557
0.00411463
0.00395376
0.00379281
0.00363176
0.00347066
0.00330947
0.0031481
0.00298641
0.00282505
0.00459535
0.00443494
0.00427452
0.00411406
0.00395342
0.00379261
0.00363167
0.00347065
0.00330963
0.00314861
0.00298748
0.002826
0.00459485
0.00443436
0.00427456
0.00411443
0.00395376
0.00379287
0.00363186
0.0034708
0.00330974
0.00314881
0.0029881
0.00282648
0.0044404
0.0042787
0.00411711
0.00395559
0.00379412
0.00363267
0.00347123
0.00330978
0.00314831
0.00298683
0.00282537
0.0044397
0.00427823
0.00411678
0.00395536
0.00379395
0.00363255
0.00347114
0.00330971
0.00314826
0.00298679
0.00282537
0.00443885
0.00427755
0.00411623
0.00395493
0.00379363
0.0036323
0.00347096
0.00330956
0.0031481
0.00298658
0.00282519
0.00459904
0.00443799
0.00427674
0.00411554
0.00395439
0.00379322
0.00363202
0.00347077
0.00330944
0.00314793
0.0029862
0.00282483
0.00459709
0.00443674
0.00427573
0.0041147
0.00395378
0.00379281
0.00363176
0.00347065
0.00330945
0.00314806
0.00298635
0.002825
0.0045959
0.00443541
0.0042751
0.00411465
0.0039539
0.00379296
0.00363192
0.00347083
0.00330971
0.00314857
0.00298738
0.00282586
0.00444208
0.00428017
0.00411837
0.00395665
0.00379498
0.00363335
0.00347175
0.00331016
0.00314859
0.00298703
0.00282553
0.00444157
0.00427977
0.00411804
0.00395639
0.00379477
0.00363319
0.00347162
0.00331007
0.00314852
0.00298699
0.00282551
0.00444069
0.00427899
0.00411738
0.00395582
0.00379431
0.00363282
0.00347133
0.00330984
0.00314833
0.00298682
0.00282538
0.00460111
0.00443943
0.00427786
0.0041164
0.00395501
0.00379367
0.00363232
0.00347096
0.00330956
0.00314809
0.00298658
0.0028252
0.00459833
0.00443726
0.00427616
0.00411509
0.00395405
0.00379297
0.00363184
0.00347066
0.00330942
0.00314808
0.00298667
0.00282531
0.00459664
0.00443599
0.00427539
0.00411472
0.00395393
0.00379298
0.00363192
0.00347079
0.00330961
0.00314839
0.00298714
0.00282569
0.00444278
0.0042808
0.00411892
0.00395711
0.00379537
0.00363366
0.00347199
0.00331034
0.00314873
0.00298714
0.00282562
0.00444179
0.00427989
0.00411811
0.00395642
0.00379479
0.00363319
0.00347162
0.00331007
0.00314852
0.002987
0.00282552
0.00460225
0.00444027
0.00427851
0.00411692
0.00395542
0.00379397
0.00363255
0.00347113
0.0033097
0.00314825
0.0029868
0.00282539
0.00459923
0.00443783
0.00427659
0.00411542
0.00395427
0.00379311
0.00363192
0.00347069
0.00330942
0.0031481
0.00298674
0.00282537
0.00459734
0.00443656
0.00427577
0.00411495
0.00395405
0.00379304
0.00363194
0.00347076
0.00330954
0.00314825
0.00298692
0.00282552
0.00444319
0.00428118
0.00411925
0.00395739
0.00379559
0.00363384
0.00347213
0.00331045
0.00314881
0.0029872
0.00282566
0.00444202
0.00428012
0.00411832
0.0039566
0.00379494
0.00363332
0.00347173
0.00331015
0.00314859
0.00298706
0.00282557
0.00460212
0.00444024
0.00427855
0.00411699
0.0039555
0.00379405
0.00363262
0.00347119
0.00330975
0.00314831
0.00298686
0.00282544
0.00459925
0.0044379
0.00427668
0.0041155
0.00395434
0.00379317
0.00363196
0.00347072
0.00330943
0.00314811
0.00298675
0.00282538
0.00459784
0.00443693
0.00427603
0.00411511
0.00395414
0.00379309
0.00363196
0.00347077
0.00330952
0.00314823
0.00298689
0.0028255
0.00444279
0.00428082
0.00411894
0.00395713
0.00379538
0.00363367
0.00347199
0.00331035
0.00314872
0.00298714
0.00282561
0.00444151
0.00427971
0.00411801
0.00395636
0.00379475
0.00363317
0.00347161
0.00331006
0.00314852
0.00298699
0.00282552
0.00460104
0.00443951
0.00427806
0.00411666
0.00395527
0.00379389
0.00363251
0.00347111
0.00330969
0.00314825
0.0029868
0.00282538
0.00459846
0.00443741
0.00427637
0.00411531
0.00395423
0.0037931
0.00363193
0.0034707
0.00330943
0.00314812
0.00298676
0.00282539
0.00459806
0.00443707
0.00427613
0.00411519
0.00395421
0.00379313
0.00363199
0.0034708
0.00330956
0.00314828
0.00298695
0.00282554
0.00444187
0.00427997
0.00411818
0.00395648
0.00379483
0.00363323
0.00347164
0.00331008
0.00314852
0.00298697
0.00282546
0.0044407
0.004279
0.00411739
0.00395584
0.00379432
0.00363283
0.00347134
0.00330984
0.00314833
0.00298682
0.00282538
0.00459996
0.00443874
0.00427745
0.00411616
0.00395488
0.00379359
0.00363228
0.00347094
0.00330956
0.0031481
0.00298658
0.00282521
0.00459751
0.00443683
0.00427593
0.00411498
0.003954
0.00379295
0.00363184
0.00347067
0.00330943
0.00314811
0.0029867
0.00282534
0.00459774
0.00443675
0.00427593
0.0041151
0.00395416
0.00379311
0.003632
0.00347083
0.00330964
0.00314841
0.00298715
0.00282569
0.00444052
0.00427874
0.00411708
0.00395553
0.00379405
0.00363261
0.00347117
0.00330972
0.00314825
0.00298674
0.00282524
0.00443957
0.00427799
0.00411649
0.00395508
0.00379371
0.00363235
0.00347099
0.00330958
0.00314811
0.00298658
0.00282518
0.00459903
0.00443802
0.00427678
0.00411556
0.0039544
0.00379323
0.00363202
0.00347077
0.00330945
0.00314794
0.00298621
0.00282484
0.00459696
0.00443666
0.00427567
0.00411467
0.00395376
0.00379279
0.00363175
0.00347065
0.00330947
0.00314811
0.00298642
0.00282506
0.00459723
0.00443625
0.00427566
0.004115
0.00395409
0.00379306
0.00363197
0.00347085
0.00330973
0.00314861
0.00298745
0.00282591
0.00443787
0.00427662
0.00411542
0.00395426
0.00379311
0.00363193
0.00347071
0.00330946
0.00314815
0.00298678
0.00282538
0.00443706
0.00427598
0.004115
0.003954
0.00379295
0.00363184
0.00347068
0.00330945
0.00314814
0.00298675
0.00282541
0.00459708
0.00443655
0.00427557
0.00411462
0.00395374
0.00379279
0.00363176
0.00347066
0.00330947
0.0031481
0.00298641
0.00282508
0.00459534
0.0044349
0.00427448
0.00411402
0.00395339
0.00379258
0.00363165
0.00347065
0.00330964
0.00314863
0.00298752
0.00282606
0.00459615
0.00443503
0.0042749
0.00411461
0.00395386
0.00379291
0.00363188
0.0034708
0.00330976
0.00314887
0.00298826
0.00282667
0.00443632
0.00427559
0.00411483
0.00395398
0.00379301
0.00363194
0.0034708
0.00330961
0.00314838
0.0029871
0.00282577
0.00443584
0.00427523
0.00411462
0.00395386
0.00379295
0.00363192
0.00347082
0.00330967
0.00314849
0.00298727
0.00282586
0.00459578
0.00443548
0.00427515
0.00411462
0.00395385
0.00379293
0.00363192
0.00347084
0.00330975
0.00314864
0.00298748
0.00282597
0.00459479
0.00443437
0.00427456
0.00411436
0.0039537
0.00379282
0.00363184
0.00347079
0.00330976
0.00314885
0.00298817
0.00282657
0.00459554
0.00443472
0.00427485
0.00411462
0.00395386
0.00379291
0.00363189
0.00347082
0.00330975
0.00314881
0.00298823
0.00282667
)
;

boundaryField
{
    inlet
    {
        type            zeroGradient;
    }
    ami1
    {
        type            cyclicAMI;
        value           nonuniform List<scalar> 0();
    }
    walls
    {
        type            zeroGradient;
    }
    ami2
    {
        type            cyclicAMI;
        value           nonuniform List<scalar> 0();
    }
    outlet
    {
        type            fixedValue;
        value           nonuniform List<scalar> 0();
    }
    procBoundary9to0
    {
        type            processor;
        value           nonuniform List<scalar> 
40
(
0.00459773
0.00459786
0.00459765
0.00459765
0.00475805
0.00475777
0.00475705
0.00459931
0.00459847
0.00459751
0.00459751
0.00475668
0.00475558
0.00475572
0.00460227
0.00460122
0.00459998
0.00459998
0.0047599
0.00475707
0.00475639
0.00460415
0.0046035
0.00460249
0.00460249
0.00476307
0.00475958
0.00475719
0.0046049
0.00460386
0.00460386
0.0047646
0.00476097
0.00475807
0.00460534
0.00460409
0.00460409
0.0047643
0.00476084
0.00475872
)
;
    }
    procBoundary9to1
    {
        type            processor;
        value           nonuniform List<scalar> 
30
(
0.0046049
0.00460344
0.00460344
0.00476277
0.00475958
0.004759
0.00460393
0.0046025
0.0046025
0.00476117
0.00475791
0.00475869
0.00460244
0.00460116
0.00460116
0.00475986
0.0047566
0.00475838
0.00459924
0.00459834
0.00459834
0.00475719
0.0047556
0.00475788
0.00459713
0.00459657
0.00459657
0.00475618
0.00475565
0.00475709
)
;
    }
    procBoundary9to7
    {
        type            processor;
        value           nonuniform List<scalar> 
59
(
0.00266417
0.00266412
0.00266407
0.00266388
0.00266358
0.00266349
0.00266399
0.00266403
0.00266412
0.00266438
0.00266409
0.00266353
0.00266395
0.00266401
0.00266403
0.00266415
0.00266437
0.00266388
0.00266408
0.00266408
0.00266404
0.00266404
0.0026641
0.00266406
0.00266416
0.0026641
0.00266403
0.00266401
0.00266405
0.00266419
0.00266412
0.00266404
0.002664
0.00266406
0.00266414
0.00266409
0.00266403
0.00266402
0.00266405
0.00266403
0.00266404
0.00266405
0.00266413
0.00266404
0.00266385
0.00266401
0.00266416
0.00266439
0.00266386
0.00266401
0.0026642
0.00266446
0.00266415
0.00266359
0.00266431
0.00266423
0.002664
0.00266364
0.00266354
)
;
    }
    procBoundary9to8
    {
        type            processor;
        value           nonuniform List<scalar> 
132
(
0.00443639
0.00427558
0.00411479
0.00395394
0.003793
0.00363194
0.0034708
0.0033096
0.00314836
0.00298709
0.00282574
0.00443784
0.00427659
0.00411541
0.00395425
0.0037931
0.00363193
0.00347071
0.00330945
0.00314814
0.00298677
0.00282537
0.00444045
0.0042787
0.00411707
0.00395553
0.00379406
0.00363261
0.00347118
0.00330973
0.00314825
0.00298673
0.00282523
0.00444184
0.00427995
0.00411817
0.00395647
0.00379483
0.00363323
0.00347165
0.00331008
0.00314852
0.00298696
0.00282546
0.0044432
0.00428118
0.00411925
0.00395739
0.0037956
0.00363385
0.00347214
0.00331046
0.0031488
0.00298719
0.00282565
0.0044432
0.00428118
0.00411925
0.00395739
0.0037956
0.00363385
0.00347214
0.00331046
0.0031488
0.00298719
0.00282565
0.00444358
0.00428154
0.00411956
0.00395767
0.00379583
0.00363404
0.00347228
0.00331057
0.00314889
0.00298726
0.0028257
0.00444321
0.00428119
0.00411926
0.0039574
0.00379561
0.00363386
0.00347214
0.00331046
0.00314881
0.0029872
0.00282565
0.00444208
0.00428018
0.00411838
0.00395665
0.00379499
0.00363336
0.00347176
0.00331017
0.0031486
0.00298704
0.00282553
0.0044404
0.0042787
0.00411711
0.00395559
0.00379412
0.00363268
0.00347124
0.00330979
0.00314832
0.00298684
0.00282537
0.00443795
0.0042767
0.0041155
0.00395433
0.00379316
0.00363197
0.00347074
0.00330947
0.00314815
0.00298679
0.00282538
0.0044368
0.0042759
0.004115
0.00395407
0.00379306
0.00363197
0.00347081
0.00330959
0.00314833
0.00298703
0.00282566
)
;
    }
}


// ************************************************************************* //
