/*--------------------------------*- C++ -*----------------------------------*\
| =========                 |                                                 |
| \\      /  F ield         | OpenFOAM: The Open Source CFD Toolbox           |
|  \\    /   O peration     | Version:  2212                                  |
|   \\  /    A nd           | Website:  www.openfoam.com                      |
|    \\/     M anipulation  |                                                 |
\*---------------------------------------------------------------------------*/
FoamFile
{
    version     2.0;
    format      ascii;
    arch        "LSB;label=32;scalar=64";
    class       volScalarField;
    location    "1";
    object      k;
}
// * * * * * * * * * * * * * * * * * * * * * * * * * * * * * * * * * * * * * //

dimensions      [0 2 -2 0 0 0 0];

internalField   nonuniform List<scalar> 
680
(
0.00851616
0.00749149
0.00669659
0.00606101
0.00555165
0.00512424
0.00474763
0.0143635
0.0120085
0.0102143
0.00881708
0.0077069
0.0068059
0.00606384
0.0167972
0.0140489
0.0119415
0.0102846
0.00895669
0.00788599
0.00701261
0.0190787
0.0159342
0.013515
0.0116268
0.0101128
0.00888194
0.00787115
0.0202209
0.0169047
0.0143245
0.0123077
0.0107013
0.00939457
0.00832006
0.0202207
0.0169045
0.0143242
0.0123073
0.0107006
0.00939357
0.00831856
0.0190784
0.0159337
0.0135144
0.0116259
0.0101115
0.00887992
0.016797
0.0140485
0.0119409
0.0102838
0.00895543
0.00788414
0.0143634
0.0120085
0.0102141
0.0088168
0.00770641
0.00680511
0.00851616
0.00749149
0.00669659
0.00606101
0.00555166
0.00512423
0.0143634
0.0120085
0.0102141
0.0088168
0.00770641
0.00680511
0.00606228
0.0319123
0.0260946
0.0216877
0.0182772
0.0155894
0.0134421
0.0116998
0.039142
0.0320589
0.0266719
0.0224905
0.0191879
0.0165397
0.0143878
0.0439845
0.0360999
0.0300748
0.0253823
0.0216654
0.0186779
0.0162455
0.046421
0.0381535
0.0318167
0.0268701
0.0229456
0.0197863
0.0172104
0.0464208
0.0381531
0.0318162
0.0268694
0.0229445
0.0197849
0.0172082
0.043984
0.0360992
0.0300738
0.0253808
0.0216633
0.018675
0.0391416
0.0320584
0.0266711
0.0224895
0.0191864
0.0165376
0.0319123
0.0260946
0.0216877
0.0182772
0.0155894
0.0134421
0.0143635
0.0120085
0.0102143
0.00881708
0.0077069
0.0068059
0.016797
0.0140485
0.0119409
0.0102838
0.00895542
0.00788414
0.00700985
0.0391416
0.0320584
0.0266711
0.0224895
0.0191864
0.0165376
0.0143848
0.0513822
0.0422218
0.0351796
0.029676
0.0253098
0.0217986
0.0189404
0.0585866
0.0483997
0.0404745
0.0342251
0.0292338
0.0251998
0.0219037
0.0619605
0.0513626
0.0430611
0.036479
0.0311991
0.0269172
0.0234087
0.0619603
0.0513624
0.0430608
0.0364786
0.0311986
0.0269164
0.0234077
0.0585863
0.0483994
0.040474
0.0342244
0.0292329
0.0251986
0.0513822
0.0422218
0.0351796
0.029676
0.0253098
0.0217986
0.039142
0.0320589
0.0266719
0.0224905
0.0191879
0.0165397
0.0167972
0.0140489
0.0119415
0.0102846
0.00895669
0.00788599
0.0190784
0.0159337
0.0135144
0.0116259
0.0101115
0.00887992
0.00786813
0.043984
0.0360992
0.0300738
0.0253808
0.0216633
0.018675
0.0162413
0.0585863
0.0483994
0.040474
0.0342244
0.0292329
0.0251986
0.021902
0.0669838
0.0557848
0.0469224
0.0398396
0.0341239
0.0294677
0.0256404
0.0707498
0.0592099
0.0499926
0.0425683
0.0365382
0.0316004
0.0275248
0.0707498
0.0592098
0.0499925
0.0425682
0.0365381
0.0316002
0.0275246
0.0669838
0.0557848
0.0469224
0.0398396
0.0341239
0.0294677
0.0585866
0.0483997
0.0404745
0.0342251
0.0292338
0.0251998
0.0439845
0.0360999
0.0300748
0.0253823
0.0216654
0.0186779
0.0190787
0.0159342
0.013515
0.0116268
0.0101128
0.00888193
0.0202207
0.0169045
0.0143242
0.0123073
0.0107006
0.00939357
0.00831856
0.0464208
0.0381531
0.0318162
0.0268694
0.0229445
0.0197848
0.0172082
0.0619603
0.0513624
0.0430608
0.0364786
0.0311986
0.0269164
0.0234077
0.0707498
0.0592098
0.0499925
0.0425682
0.0365381
0.0316002
0.0275246
0.0746125
0.062792
0.0532534
0.0455014
0.0391574
0.0339303
0.0295946
0.0746125
0.062792
0.0532534
0.0455014
0.0391574
0.0339303
0.0295946
0.0707498
0.0592099
0.0499926
0.0425683
0.0365382
0.0316004
0.0619605
0.0513626
0.0430611
0.036479
0.0311991
0.0269171
0.046421
0.0381535
0.0318167
0.0268701
0.0229456
0.0197863
0.0202209
0.0169047
0.0143245
0.0123077
0.0107013
0.00939456
0.0202209
0.0169047
0.0143245
0.0123077
0.0107013
0.00939457
0.00832006
0.046421
0.0381535
0.0318167
0.0268702
0.0229456
0.0197863
0.0172104
0.0619605
0.0513626
0.0430611
0.036479
0.0311991
0.0269172
0.0234087
0.0707498
0.0592099
0.0499926
0.0425683
0.0365382
0.0316004
0.0275248
0.0746125
0.062792
0.0532534
0.0455014
0.0391574
0.0339303
0.0295946
0.0746125
0.062792
0.0532534
0.0455014
0.0391574
0.0339303
0.0295946
0.0707498
0.0592098
0.0499925
0.0425682
0.0365381
0.0316002
0.0619603
0.0513624
0.0430608
0.0364785
0.0311985
0.0269164
0.0464208
0.0381531
0.0318162
0.0268694
0.0229445
0.0197848
0.0202207
0.0169045
0.0143242
0.0123073
0.0107006
0.00939357
0.0190787
0.0159342
0.013515
0.0116268
0.0101129
0.00888194
0.00787115
0.0439845
0.0360999
0.0300748
0.0253823
0.0216654
0.0186779
0.0162455
0.0585866
0.0483997
0.0404745
0.0342251
0.0292338
0.0251998
0.0219037
0.0669838
0.0557848
0.0469224
0.0398396
0.0341239
0.0294677
0.0256404
0.0707498
0.0592098
0.0499925
0.0425682
0.0365381
0.0316002
0.0275246
0.08532
0.0707498
0.0592099
0.0499926
0.0425683
0.0365382
0.0316004
0.0275248
0.0812741
0.0669838
0.0557848
0.0469224
0.0398396
0.0341239
0.0294677
0.0718632
0.0585863
0.0483994
0.040474
0.0342244
0.0292329
0.0251986
0.0545303
0.043984
0.0360992
0.0300738
0.0253808
0.0216633
0.018675
0.0232721
0.0190784
0.0159337
0.0135144
0.0116259
0.0101115
0.00887992
0.0167972
0.0140489
0.0119415
0.0102846
0.00895669
0.00788599
0.00701261
0.039142
0.0320589
0.0266719
0.0224905
0.0191879
0.0165397
0.0143878
0.0513822
0.0422218
0.0351796
0.029676
0.0253098
0.0217986
0.0189404
0.0585863
0.0483994
0.040474
0.0342244
0.0292329
0.0251986
0.021902
0.0619603
0.0513624
0.0430608
0.0364785
0.0311986
0.0269164
0.0234077
0.0756573
0.0619605
0.0513626
0.0430611
0.036479
0.0311991
0.0269171
0.0234087
0.0718634
0.0585866
0.0483997
0.0404745
0.0342251
0.0292338
0.0251998
0.0635106
0.0513822
0.0422218
0.0351796
0.029676
0.0253098
0.0217986
0.0486772
0.0391416
0.0320584
0.0266711
0.0224895
0.0191864
0.0165376
0.0204608
0.016797
0.0140485
0.0119409
0.0102838
0.00895542
0.00788414
0.0143635
0.0120085
0.0102143
0.00881708
0.0077069
0.0068059
0.00606384
0.0319123
0.0260946
0.0216877
0.0182772
0.0155894
0.0134421
0.0116998
0.0391416
0.0320584
0.0266711
0.0224895
0.0191864
0.0165376
0.0143848
0.043984
0.0360992
0.0300738
0.0253808
0.0216633
0.018675
0.0162413
0.0464208
0.0381531
0.0318162
0.0268694
0.0229445
0.0197848
0.0172082
0.0574405
0.046421
0.0381535
0.0318167
0.0268701
0.0229456
0.0197863
0.0172104
0.0545307
0.0439845
0.0360999
0.0300748
0.0253823
0.0216654
0.0186779
0.0486775
0.039142
0.0320589
0.0266719
0.0224905
0.0191879
0.0165397
0.0397946
0.0319123
0.0260946
0.0216877
0.0182772
0.0155894
0.0134421
0.0175362
0.0143634
0.0120085
0.0102141
0.0088168
0.00770641
0.00680511
0.00851616
0.00749149
0.00669659
0.00606101
0.00555165
0.00512424
0.00474763
0.0143634
0.0120085
0.0102141
0.0088168
0.00770641
0.00680511
0.00606228
0.016797
0.0140485
0.0119409
0.0102838
0.00895542
0.00788414
0.00700985
0.0190784
0.0159337
0.0135144
0.0116259
0.0101115
0.00887991
0.00786813
0.0202207
0.0169045
0.0143242
0.0123073
0.0107006
0.00939357
0.00831855
0.024645
0.0202209
0.0169047
0.0143245
0.0123077
0.0107013
0.00939457
0.00832005
0.0232723
0.0190787
0.0159342
0.013515
0.0116268
0.0101128
0.00888193
0.020461
0.0167972
0.0140489
0.0119415
0.0102846
0.00895669
0.00788598
0.0175362
0.0143635
0.0120086
0.0102143
0.00881708
0.0077069
0.0068059
0.00989075
0.00851616
0.00749149
0.00669659
0.00606101
0.00555166
0.00512423
)
;

boundaryField
{
    inlet
    {
        type            fixedValue;
        value           nonuniform List<scalar> 0();
    }
    ami1
    {
        type            cyclicAMI;
        value           nonuniform List<scalar> 0();
    }
    walls
    {
        type            kqRWallFunction;
        value           nonuniform List<scalar> 
271
(
0.0232721
0.0204608
0.0175362
0.00989075
0.00851616
0.0143635
0.0167972
0.0190787
0.0202209
0.0202207
0.0190784
0.016797
0.0143634
0.00851616
0.00749149
0.0120085
0.0140489
0.0159342
0.0169047
0.0169045
0.0159337
0.0140485
0.0120085
0.00749149
0.00669659
0.0102143
0.0119415
0.013515
0.0143245
0.0143242
0.0135144
0.0119409
0.0102141
0.00669659
0.00606101
0.00881708
0.0102846
0.0116268
0.0123077
0.0123073
0.0116259
0.0102838
0.0088168
0.00606101
0.00555166
0.0077069
0.00895669
0.0101128
0.0107013
0.0107006
0.0101115
0.00895542
0.00770641
0.00555166
0.00512423
0.0068059
0.00788599
0.00888193
0.00939456
0.00939357
0.00887992
0.00788414
0.00680511
0.00512423
0.00851616
0.0143635
0.0167972
0.0190787
0.0202209
0.0202207
0.0190784
0.016797
0.0143634
0.00851616
0.00749149
0.0120085
0.0140489
0.0159342
0.0169047
0.0169045
0.0159337
0.0140485
0.0120085
0.00749149
0.00669659
0.0102143
0.0119415
0.013515
0.0143245
0.0143242
0.0135144
0.0119409
0.0102141
0.00669659
0.00606101
0.00881708
0.0102846
0.0116268
0.0123077
0.0123073
0.0116259
0.0102838
0.0088168
0.00606101
0.00555165
0.0077069
0.00895669
0.0101128
0.0107013
0.0107006
0.0101115
0.00895543
0.00770641
0.00555166
0.00512424
0.0068059
0.00788599
0.00888194
0.00939457
0.00939357
0.00887992
0.00788414
0.00680511
0.00512423
0.00474763
0.00606384
0.00701261
0.00787115
0.00832006
0.00831856
0.00851616
0.0143634
0.016797
0.0190784
0.0202207
0.0202209
0.0190787
0.0167972
0.0143635
0.00851616
0.00749149
0.0120085
0.0140485
0.0159337
0.0169045
0.0169047
0.0159342
0.0140489
0.0120085
0.00749149
0.00669659
0.0102141
0.0119409
0.0135144
0.0143242
0.0143245
0.013515
0.0119415
0.0102143
0.00669659
0.00606101
0.0088168
0.0102838
0.0116259
0.0123073
0.0123077
0.0116268
0.0102846
0.00881708
0.00606101
0.00555165
0.00770641
0.00895542
0.0101115
0.0107006
0.0107013
0.0101129
0.00895669
0.0077069
0.00555165
0.00512424
0.00680511
0.00788414
0.00887992
0.00939357
0.00939457
0.00888194
0.00788599
0.0068059
0.00512424
0.00474763
0.00606228
0.00700985
0.00786813
0.00831856
0.00832006
0.00787115
0.00701261
0.00606384
0.00474763
0.024645
0.0232723
0.020461
0.0175362
0.00989075
0.00851616
0.0143634
0.016797
0.0190784
0.0202207
0.0202209
0.0190787
0.0167972
0.0143635
0.00851616
0.00749149
0.0120085
0.0140485
0.0159337
0.0169045
0.0169047
0.0159342
0.0140489
0.0120086
0.00749149
0.00669659
0.0102141
0.0119409
0.0135144
0.0143242
0.0143245
0.013515
0.0119415
0.0102143
0.00669659
0.00606101
0.0088168
0.0102838
0.0116259
0.0123073
0.0123077
0.0116268
0.0102846
0.00881708
0.00606101
0.00555165
0.00770641
0.00895542
0.0101115
0.0107006
0.0107013
0.0101128
0.00895669
0.0077069
0.00555166
0.00512424
0.00680511
0.00788414
0.00887991
0.00939357
0.00939457
0.00888193
0.00788598
0.0068059
0.00512423
0.00474763
0.00606228
0.00700985
0.00786813
0.00831855
0.00832005
)
;
    }
    ami2
    {
        type            cyclicAMI;
        value           nonuniform List<scalar> 0();
    }
    outlet
    {
        type            zeroGradient;
    }
    procBoundary3to2
    {
        type            processor;
        value           nonuniform List<scalar> 
110
(
0.00442978
0.00545383
0.00629065
0.00703315
0.00742743
0.00742513
0.00786813
0.00786813
0.00700985
0.00606228
0.00474763
0.00545149
0.0102696
0.0126189
0.0142424
0.015086
0.015083
0.0162413
0.0162413
0.0143848
0.0116998
0.00606383
0.00628638
0.0126146
0.0165879
0.0191833
0.0205067
0.0205053
0.021902
0.021902
0.0189404
0.0143878
0.00701261
0.00702855
0.0142363
0.0191809
0.0224675
0.0241351
0.0241348
0.0256404
0.0256404
0.0219037
0.0162455
0.00787115
0.00742512
0.0150829
0.0205052
0.0241348
0.0259743
0.0259743
0.0275248
0.0275248
0.0234087
0.0172104
0.00832005
0.00742743
0.015086
0.0205067
0.0241351
0.0259743
0.0259743
0.0275246
0.0275246
0.0234077
0.0172082
0.00831856
0.00703315
0.0142424
0.0191833
0.0224675
0.0241348
0.0241351
0.0256404
0.0256404
0.021902
0.0162413
0.00786813
0.00629065
0.0126189
0.0165879
0.0191809
0.0205052
0.0205067
0.0219037
0.0219037
0.0189404
0.0143848
0.00700984
0.00545383
0.0102696
0.0126146
0.0142363
0.0150829
0.015086
0.0162455
0.0162455
0.0143878
0.0116998
0.00606228
0.00442978
0.0054515
0.00628638
0.00702855
0.00742512
0.00742742
0.00787115
0.00787115
0.00701261
0.00606383
0.00474763
)
;
    }
    procBoundary3to4
    {
        type            processor;
        value           nonuniform List<scalar> 
109
(
0.00989075
0.0175362
0.020461
0.0232723
0.024645
0.0246449
0.0232721
0.0204608
0.0175362
0.00989075
0.0175362
0.0397946
0.0486775
0.0545307
0.0574405
0.0574404
0.0545303
0.0486772
0.0397946
0.0175362
0.0204608
0.0486772
0.0635106
0.0718634
0.0756573
0.0756571
0.0718632
0.0635106
0.0486775
0.020461
0.0232721
0.0545303
0.0718632
0.0812741
0.08532
0.08532
0.0812741
0.0718634
0.0545307
0.0232723
0.0246449
0.0574404
0.0756571
0.08532
0.08937
0.08937
0.08532
0.0756573
0.0574405
0.024645
0.024645
0.0574405
0.0756573
0.08532
0.08937
0.08937
0.08937
0.08532
0.08532
0.0756571
0.0756571
0.0574404
0.0574404
0.0246449
0.0246449
0.0232723
0.0545307
0.0718634
0.0812741
0.08532
0.08532
0.103871
0.09968
0.0894038
0.0689926
0.0292873
0.020461
0.0486775
0.0635106
0.0718632
0.0756571
0.0756571
0.0935707
0.089404
0.079867
0.0618725
0.0256616
0.0175362
0.0397946
0.0486772
0.0545303
0.0574404
0.0574404
0.0724824
0.0689928
0.0618727
0.0508112
0.0219935
0.00989075
0.0175362
0.0204608
0.0232721
0.0246449
0.0246449
0.0310722
0.0292875
0.0256617
0.0219935
0.0118511
)
;
    }
}


// ************************************************************************* //
