/*--------------------------------*- C++ -*----------------------------------*\
| =========                 |                                                 |
| \\      /  F ield         | OpenFOAM: The Open Source CFD Toolbox           |
|  \\    /   O peration     | Version:  2212                                  |
|   \\  /    A nd           | Website:  www.openfoam.com                      |
|    \\/     M anipulation  |                                                 |
\*---------------------------------------------------------------------------*/
FoamFile
{
    version     2.0;
    format      ascii;
    arch        "LSB;label=32;scalar=64";
    class       volScalarField;
    location    "1";
    object      nut;
}
// * * * * * * * * * * * * * * * * * * * * * * * * * * * * * * * * * * * * * //

dimensions      [0 2 -1 0 0 0 0];

internalField   nonuniform List<scalar> 
680
(
9.05715e-06
8.4948e-06
8.03147e-06
7.6408e-06
7.31267e-06
7.02544e-06
6.76218e-06
2.50818e-05
2.29337e-05
2.1151e-05
1.96512e-05
1.83724e-05
1.72651e-05
1.62968e-05
3.90793e-05
3.57396e-05
3.29503e-05
3.05791e-05
2.85369e-05
2.67771e-05
2.52512e-05
5.07594e-05
4.63882e-05
4.27221e-05
3.96257e-05
3.6956e-05
3.46344e-05
3.26047e-05
5.71433e-05
5.22481e-05
4.80958e-05
4.45818e-05
4.15709e-05
3.89506e-05
3.66562e-05
5.7143e-05
5.22476e-05
4.80951e-05
4.45806e-05
4.1569e-05
3.89477e-05
3.66515e-05
5.07589e-05
4.63874e-05
4.27207e-05
3.96234e-05
3.69525e-05
3.46288e-05
3.90789e-05
3.57389e-05
3.29491e-05
3.05773e-05
2.8534e-05
2.67726e-05
2.50817e-05
2.29335e-05
2.11508e-05
1.96508e-05
1.83716e-05
1.72636e-05
9.05715e-06
8.4948e-06
8.03147e-06
7.6408e-06
7.31267e-06
7.02543e-06
2.50817e-05
2.29335e-05
2.11508e-05
1.96508e-05
1.83716e-05
1.72636e-05
1.62936e-05
0.000163073
0.000147538
0.000133982
0.000122047
0.000111462
0.000102128
9.38514e-05
0.00022289
0.000203758
0.000187183
0.000172659
0.000159821
0.000148384
0.000138136
0.000261256
0.000239582
0.000220846
0.000204444
0.00018995
0.000177046
0.000165472
0.000279971
0.000257069
0.000237249
0.000219898
0.000204557
0.000190882
0.000178604
0.000279969
0.000257066
0.000237244
0.00021989
0.000204545
0.000190863
0.000178572
0.000261252
0.000239577
0.000220837
0.00020443
0.000189927
0.000177008
0.000222887
0.000203753
0.000187176
0.000172648
0.000159804
0.000148357
0.000163073
0.000147538
0.000133982
0.000122047
0.000111462
0.000102128
2.50818e-05
2.29337e-05
2.1151e-05
1.96512e-05
1.83724e-05
1.72651e-05
3.90789e-05
3.57389e-05
3.29491e-05
3.05773e-05
2.8534e-05
2.67726e-05
2.5244e-05
0.000222887
0.000203753
0.000187176
0.000172648
0.000159804
0.000148357
0.000138093
0.000327452
0.00030149
0.00027905
0.000259397
0.000242002
0.000226472
0.000212511
0.00038394
0.000354805
0.000329451
0.000307158
0.000287382
0.000269706
0.000253802
0.000409793
0.00037947
0.000352931
0.000329491
0.000308629
0.000289938
0.000273097
0.000409792
0.000379468
0.000352929
0.000329488
0.000308623
0.000289929
0.000273082
0.000383939
0.000354802
0.000329447
0.000307152
0.000287373
0.000269691
0.000327452
0.00030149
0.00027905
0.000259398
0.000242002
0.000226472
0.00022289
0.000203758
0.000187183
0.000172659
0.000159821
0.000148384
3.90793e-05
3.57396e-05
3.29503e-05
3.05791e-05
2.85369e-05
2.67771e-05
5.07589e-05
4.63874e-05
4.27207e-05
3.96234e-05
3.69525e-05
3.46288e-05
3.25958e-05
0.000261252
0.000239577
0.000220837
0.00020443
0.000189927
0.000177008
0.000165411
0.000383939
0.000354802
0.000329447
0.000307152
0.000287373
0.000269691
0.00025378
0.000450441
0.000418362
0.000389973
0.000364726
0.000342159
0.00032189
0.000303598
0.000479912
0.00044718
0.000417832
0.000391475
0.000367749
0.000346331
0.000326937
0.000479911
0.00044718
0.000417831
0.000391474
0.000367747
0.000346329
0.000326934
0.000450441
0.000418362
0.000389973
0.000364726
0.000342159
0.00032189
0.00038394
0.000354805
0.000329451
0.000307158
0.000287382
0.000269706
0.000261256
0.000239582
0.000220846
0.000204444
0.00018995
0.000177046
5.07594e-05
4.63882e-05
4.27221e-05
3.96257e-05
3.6956e-05
3.46344e-05
5.7143e-05
5.22476e-05
4.80951e-05
4.45806e-05
4.1569e-05
3.89477e-05
3.66515e-05
0.000279969
0.000257066
0.000237244
0.00021989
0.000204545
0.000190863
0.000178573
0.000409792
0.000379468
0.000352929
0.000329488
0.000308623
0.00028993
0.000273083
0.000479911
0.00044718
0.000417831
0.000391474
0.000367747
0.000346329
0.000326934
0.000510578
0.000477647
0.000447614
0.000420286
0.000395444
0.000372862
0.000352314
0.000510578
0.000477647
0.000447614
0.000420286
0.000395444
0.000372862
0.000352314
0.000479912
0.00044718
0.000417832
0.000391475
0.000367749
0.000346331
0.000409793
0.00037947
0.000352931
0.000329491
0.000308629
0.000289938
0.000279971
0.000257069
0.000237249
0.000219897
0.000204557
0.000190882
5.71433e-05
5.22481e-05
4.80958e-05
4.45818e-05
4.15709e-05
3.89506e-05
5.71433e-05
5.22481e-05
4.80958e-05
4.45818e-05
4.15709e-05
3.89506e-05
3.66562e-05
0.000279971
0.000257069
0.000237249
0.000219898
0.000204557
0.000190883
0.000178605
0.000409793
0.00037947
0.000352931
0.000329491
0.000308629
0.000289938
0.000273097
0.000479912
0.00044718
0.000417832
0.000391475
0.000367749
0.000346331
0.000326937
0.000510578
0.000477647
0.000447614
0.000420286
0.000395444
0.000372862
0.000352314
0.000510578
0.000477647
0.000447614
0.000420286
0.000395444
0.000372862
0.000352314
0.000479911
0.00044718
0.000417831
0.000391474
0.000367747
0.000346328
0.000409792
0.000379468
0.000352929
0.000329488
0.000308623
0.000289929
0.000279969
0.000257066
0.000237244
0.00021989
0.000204545
0.000190863
5.7143e-05
5.22476e-05
4.80951e-05
4.45806e-05
4.1569e-05
3.89477e-05
5.07594e-05
4.63882e-05
4.27221e-05
3.96257e-05
3.6956e-05
3.46344e-05
3.26047e-05
0.000261256
0.000239582
0.000220846
0.000204444
0.00018995
0.000177046
0.000165472
0.00038394
0.000354805
0.000329451
0.000307158
0.000287382
0.000269705
0.000253802
0.000450441
0.000418362
0.000389973
0.000364726
0.000342159
0.00032189
0.000303598
0.000479911
0.00044718
0.000417831
0.000391474
0.000367747
0.000346329
0.000326934
0.000516428
0.000479912
0.00044718
0.000417832
0.000391475
0.000367749
0.000346331
0.000326937
0.000486845
0.000450441
0.000418362
0.000389973
0.000364726
0.000342159
0.00032189
0.00041784
0.000383939
0.000354802
0.000329447
0.000307152
0.000287373
0.000269691
0.000286673
0.000261252
0.000239577
0.000220837
0.00020443
0.000189927
0.000177008
5.60608e-05
5.07589e-05
4.63874e-05
4.27207e-05
3.96234e-05
3.69525e-05
3.46288e-05
3.90793e-05
3.57396e-05
3.29503e-05
3.05791e-05
2.85369e-05
2.67771e-05
2.52512e-05
0.00022289
0.000203758
0.000187182
0.000172659
0.000159821
0.000148384
0.000138136
0.000327452
0.00030149
0.00027905
0.000259397
0.000242002
0.000226472
0.00021251
0.000383939
0.000354802
0.000329447
0.000307152
0.000287373
0.000269691
0.00025378
0.000409792
0.000379468
0.000352929
0.000329488
0.000308623
0.000289929
0.000273083
0.000444763
0.000409793
0.00037947
0.000352931
0.000329491
0.000308629
0.000289938
0.000273097
0.000417842
0.00038394
0.000354805
0.000329451
0.000307158
0.000287382
0.000269706
0.000357974
0.000327452
0.00030149
0.00027905
0.000259397
0.000242002
0.000226472
0.000245318
0.000222888
0.000203753
0.000187176
0.000172648
0.000159804
0.000148357
4.31309e-05
3.90789e-05
3.57389e-05
3.29491e-05
3.05773e-05
2.8534e-05
2.67726e-05
2.50818e-05
2.29337e-05
2.1151e-05
1.96512e-05
1.83724e-05
1.72651e-05
1.62967e-05
0.000163073
0.000147538
0.000133982
0.000122047
0.000111462
0.000102128
9.38513e-05
0.000222887
0.000203753
0.000187176
0.000172648
0.000159804
0.000148357
0.000138093
0.000261252
0.000239577
0.000220837
0.00020443
0.000189927
0.000177008
0.000165411
0.000279969
0.000257066
0.000237244
0.00021989
0.000204545
0.000190863
0.000178573
0.000306817
0.000279971
0.000257069
0.000237249
0.000219898
0.000204557
0.000190882
0.000178605
0.000286675
0.000261256
0.000239582
0.000220846
0.000204444
0.00018995
0.000177046
0.000245319
0.00022289
0.000203758
0.000187182
0.000172659
0.000159821
0.000148384
0.000181114
0.000163073
0.000147538
0.000133982
0.000122047
0.000111462
0.000102128
2.77138e-05
2.50817e-05
2.29335e-05
2.11508e-05
1.96508e-05
1.83716e-05
1.72636e-05
9.05715e-06
8.4948e-06
8.03147e-06
7.64079e-06
7.31267e-06
7.02543e-06
6.76218e-06
2.50817e-05
2.29335e-05
2.11508e-05
1.96508e-05
1.83716e-05
1.72636e-05
1.62936e-05
3.90789e-05
3.57389e-05
3.29491e-05
3.05773e-05
2.8534e-05
2.67726e-05
2.5244e-05
5.07589e-05
4.63874e-05
4.27207e-05
3.96234e-05
3.69525e-05
3.46288e-05
3.25958e-05
5.7143e-05
5.22476e-05
4.80951e-05
4.45806e-05
4.1569e-05
3.89477e-05
3.66515e-05
6.30855e-05
5.71433e-05
5.22481e-05
4.80958e-05
4.45818e-05
4.15709e-05
3.89506e-05
3.66561e-05
5.60612e-05
5.07594e-05
4.63882e-05
4.27221e-05
3.96257e-05
3.6956e-05
3.46344e-05
4.31311e-05
3.90793e-05
3.57396e-05
3.29503e-05
3.05791e-05
2.85369e-05
2.67771e-05
2.77138e-05
2.50818e-05
2.29337e-05
2.1151e-05
1.96512e-05
1.83724e-05
1.72651e-05
9.76078e-06
9.05715e-06
8.4948e-06
8.03147e-06
7.6408e-06
7.31267e-06
7.02543e-06
)
;

boundaryField
{
    inlet
    {
        type            calculated;
        value           nonuniform List<scalar> 0();
    }
    ami1
    {
        type            cyclicAMI;
        value           nonuniform List<scalar> 0();
    }
    walls
    {
        type            nutkWallFunction;
        blending        stepwise;
        value           nonuniform List<scalar> 
271
(
1.44605e-06
0
0
0
0
0
0
5.78186e-07
1.62166e-06
1.62163e-06
5.78118e-07
0
0
0
0
0
0
0
8.2321e-07
8.23157e-07
0
0
0
0
0
0
0
0
1.36936e-07
1.36851e-07
0
0
0
0
0
0
0
0
0
0
0
0
0
0
0
0
0
0
0
0
0
0
0
0
0
0
0
0
0
0
0
0
0
0
0
0
0
5.78186e-07
1.62166e-06
1.62163e-06
5.78118e-07
0
0
0
0
0
0
0
8.2321e-07
8.23157e-07
0
0
0
0
0
0
0
0
1.36936e-07
1.36851e-07
0
0
0
0
0
0
0
0
0
0
0
0
0
0
0
0
0
0
0
0
0
0
0
0
0
0
0
0
0
0
0
0
0
0
0
0
0
0
0
0
0
0
0
5.78118e-07
1.62163e-06
1.62166e-06
5.78186e-07
0
0
0
0
0
0
0
8.23157e-07
8.2321e-07
0
0
0
0
0
0
0
0
1.36851e-07
1.36936e-07
0
0
0
0
0
0
0
0
0
0
0
0
0
0
0
0
0
0
0
0
0
0
0
0
0
0
0
0
0
0
0
0
0
0
0
0
0
0
0
0
0
0
0
0
2.57712e-06
1.4461e-06
0
0
0
0
0
0
5.78118e-07
1.62163e-06
1.62166e-06
5.78186e-07
0
0
0
0
0
0
0
8.23156e-07
8.2321e-07
0
0
0
0
0
0
0
0
1.36851e-07
1.36936e-07
0
0
0
0
0
0
0
0
0
0
0
0
0
0
0
0
0
0
0
0
0
0
0
0
0
0
0
0
0
0
0
0
0
0
0
0
0
0
0
0
)
;
    }
    ami2
    {
        type            cyclicAMI;
        value           nonuniform List<scalar> 0();
    }
    outlet
    {
        type            calculated;
        value           nonuniform List<scalar> 0();
    }
    procBoundary3to2
    {
        type            processor;
        value           nonuniform List<scalar> 
110
(
6.53163e-06
1.54552e-05
2.39166e-05
3.08213e-05
3.46351e-05
3.46275e-05
3.25958e-05
3.25958e-05
2.5244e-05
1.62936e-05
6.76218e-06
1.54503e-05
8.64478e-05
0.000128912
0.000155028
0.000167511
0.000167457
0.00016541
0.00016541
0.000138092
9.38505e-05
1.62967e-05
2.39048e-05
0.00012884
0.000199887
0.000239415
0.000257842
0.00025782
0.000253779
0.000253779
0.00021251
0.000138137
2.52512e-05
3.08069e-05
0.000154925
0.000239378
0.000287018
0.00030932
0.000309314
0.000303598
0.000303598
0.000253803
0.000165473
3.26047e-05
3.46275e-05
0.000167457
0.00025782
0.000309314
0.000333587
0.000333586
0.000326938
0.000326938
0.000273097
0.000178605
3.66562e-05
3.46351e-05
0.000167511
0.000257842
0.00030932
0.000333586
0.000333586
0.000326934
0.000326934
0.000273082
0.000178572
3.66515e-05
3.08212e-05
0.000155028
0.000239415
0.000287018
0.000309314
0.00030932
0.000303598
0.000303598
0.000253779
0.00016541
3.25958e-05
2.39166e-05
0.000128912
0.000199887
0.000239378
0.00025782
0.000257842
0.000253803
0.000253803
0.00021251
0.000138092
2.5244e-05
1.54552e-05
8.64478e-05
0.00012884
0.000154925
0.000167457
0.00016751
0.000165473
0.000165473
0.000138137
9.38505e-05
1.62936e-05
6.53163e-06
1.54503e-05
2.39048e-05
3.08069e-05
3.46275e-05
3.46351e-05
3.26047e-05
3.26047e-05
2.52512e-05
1.62967e-05
6.76218e-06
)
;
    }
    procBoundary3to4
    {
        type            processor;
        value           nonuniform List<scalar> 
109
(
9.76078e-06
2.77138e-05
4.31311e-05
5.60612e-05
6.30855e-05
6.30853e-05
5.60608e-05
4.31309e-05
2.77138e-05
9.76078e-06
2.77138e-05
0.000181114
0.000245319
0.000286675
0.000306817
0.000306816
0.000286673
0.000245318
0.000181114
2.77138e-05
4.31309e-05
0.000245318
0.000357974
0.000417842
0.000444763
0.000444763
0.000417841
0.000357974
0.000245319
4.31311e-05
5.60608e-05
0.000286673
0.000417841
0.000486845
0.000516428
0.000516427
0.000486845
0.000417842
0.000286675
5.60612e-05
6.30853e-05
0.000306816
0.000444763
0.000516427
0.000546547
0.000546547
0.000516428
0.000444763
0.000306817
6.30855e-05
6.30855e-05
0.000306817
0.000444763
0.000516428
0.000546547
0.000546547
0.000546547
0.000516427
0.000516427
0.000444763
0.000444763
0.000306816
0.000306816
6.30853e-05
6.30853e-05
5.60612e-05
0.000286675
0.000417842
0.000486845
0.000516427
0.000516427
0.000557103
0.000528266
0.000457785
0.000317049
6.289e-05
4.31311e-05
0.000245319
0.000357974
0.00041784
0.000444763
0.000444763
0.000485438
0.000457786
0.000394562
0.000272127
4.83025e-05
2.77138e-05
0.000181114
0.000245318
0.000286673
0.000306816
0.000306816
0.000338934
0.000317051
0.000272128
0.000202476
3.10367e-05
9.76078e-06
2.77138e-05
4.31309e-05
5.60608e-05
6.30853e-05
6.30853e-05
7.08355e-05
6.28902e-05
4.83027e-05
3.10367e-05
1.06844e-05
)
;
    }
}


// ************************************************************************* //
