/*--------------------------------*- C++ -*----------------------------------*\
| =========                 |                                                 |
| \\      /  F ield         | OpenFOAM: The Open Source CFD Toolbox           |
|  \\    /   O peration     | Version:  2212                                  |
|   \\  /    A nd           | Website:  www.openfoam.com                      |
|    \\/     M anipulation  |                                                 |
\*---------------------------------------------------------------------------*/
FoamFile
{
    version     2.0;
    format      ascii;
    arch        "LSB;label=32;scalar=64";
    class       volScalarField;
    location    "1";
    object      p;
}
// * * * * * * * * * * * * * * * * * * * * * * * * * * * * * * * * * * * * * //

dimensions      [0 2 -2 0 0 0 0];

internalField   nonuniform List<scalar> 
680
(
0.00699272
0.00683143
0.00667178
0.00651383
0.00635731
0.00620085
0.00604301
0.00704059
0.00686589
0.0066981
0.00653464
0.00637353
0.00621276
0.00605098
0.00703102
0.00685228
0.00668322
0.00651882
0.00635674
0.00619618
0.00603623
0.00699539
0.00682737
0.00666964
0.00651348
0.0063574
0.00620199
0.00604754
0.00697741
0.00680667
0.00665004
0.00650029
0.00635064
0.00620039
0.00605156
0.00697777
0.00680727
0.00665103
0.00650194
0.00635338
0.00620491
0.00605905
0.00699623
0.00682878
0.00667195
0.00651727
0.0063636
0.0062121
0.00703186
0.00685365
0.00668548
0.00652255
0.00636282
0.00620601
0.00704104
0.00686666
0.00669937
0.0065367
0.00637692
0.00621851
0.00699272
0.00683143
0.00667178
0.00651383
0.00635731
0.00620086
0.00704104
0.00686666
0.00669938
0.0065367
0.00637692
0.0062185
0.00606069
0.00717131
0.00696654
0.00677788
0.00659975
0.00642825
0.00626003
0.00609311
0.00716721
0.00695429
0.00675919
0.00657504
0.0063984
0.00622693
0.00605839
0.00713264
0.00692943
0.00674252
0.00656485
0.00639333
0.00622658
0.00606305
0.00711075
0.00691011
0.00672306
0.00654709
0.00637903
0.00621741
0.00606055
0.00711122
0.00691085
0.00672427
0.00654912
0.00638244
0.00622272
0.00606842
0.00713349
0.00693085
0.00674495
0.00656899
0.00640006
0.00623676
0.00716785
0.00695537
0.00676094
0.00657779
0.00640266
0.00623361
0.0071713
0.00696654
0.00677788
0.00659975
0.00642825
0.00626003
0.00704058
0.00686589
0.0066981
0.00653463
0.00637353
0.00621277
0.00703185
0.00685365
0.00668547
0.00652255
0.00636281
0.006206
0.00605215
0.00716785
0.00695537
0.00676093
0.00657778
0.00640265
0.00623359
0.00606884
0.00714553
0.00692754
0.00672711
0.00653925
0.00636073
0.00618876
0.00602107
0.0070889
0.00688767
0.00669505
0.00651214
0.00633704
0.00616772
0.0060027
0.00704812
0.00686202
0.00667862
0.00649944
0.00632544
0.00615703
0.00599431
0.00704848
0.00686256
0.00667944
0.00650068
0.0063273
0.00615973
0.0059983
0.0070894
0.00688845
0.0066963
0.00651414
0.00634018
0.00617248
0.00714553
0.00692754
0.00672711
0.00653925
0.00636073
0.00618876
0.00716721
0.00695428
0.00675918
0.00657504
0.00639839
0.00622693
0.00703101
0.00685227
0.00668321
0.00651881
0.00635674
0.00619618
0.00699622
0.00682877
0.00667194
0.00651726
0.00636359
0.00621208
0.0060641
0.00713349
0.00693084
0.00674494
0.00656898
0.00640005
0.00623674
0.00607831
0.0070894
0.00688845
0.00669629
0.00651414
0.00634018
0.00617247
0.00600983
0.00701206
0.00682806
0.00664764
0.00647246
0.00630232
0.0061366
0.0059747
0.00697114
0.00679699
0.0066234
0.00645221
0.00628429
0.00611996
0.00595926
0.00697126
0.00679716
0.00662363
0.00645251
0.00628471
0.00612055
0.00596008
0.00701206
0.00682805
0.00664764
0.00647246
0.00630232
0.0061366
0.00708889
0.00688766
0.00669504
0.00651213
0.00633704
0.00616772
0.00713263
0.00692942
0.00674251
0.00656484
0.00639332
0.00622657
0.00699538
0.00682736
0.00666963
0.00651347
0.00635739
0.00620197
0.00697776
0.00680726
0.00665101
0.00650192
0.00635335
0.00620489
0.00605902
0.00711121
0.00691084
0.00672426
0.0065491
0.00638242
0.0062227
0.00606839
0.00704847
0.00686255
0.00667944
0.00650067
0.00632729
0.00615972
0.00599828
0.00697126
0.00679716
0.00662363
0.00645251
0.0062847
0.00612054
0.00596008
0.00693216
0.00676564
0.00659727
0.00642941
0.00626348
0.00610025
0.00594003
0.00693216
0.00676564
0.00659727
0.00642941
0.00626348
0.00610025
0.00594002
0.00697114
0.00679699
0.0066234
0.0064522
0.00628428
0.00611996
0.00704811
0.00686201
0.00667862
0.00649943
0.00632543
0.00615702
0.00711073
0.0069101
0.00672305
0.00654708
0.00637902
0.00621739
0.00697739
0.00680666
0.00665002
0.00650027
0.00635062
0.00620037
0.0069774
0.00680666
0.00665002
0.00650027
0.00635062
0.00620036
0.00605153
0.00711074
0.0069101
0.00672305
0.00654707
0.00637901
0.00621738
0.00606052
0.00704811
0.00686201
0.00667861
0.00649943
0.00632543
0.00615701
0.00599429
0.00697114
0.00679699
0.0066234
0.0064522
0.00628428
0.00611996
0.00595925
0.00693216
0.00676564
0.00659727
0.00642941
0.00626348
0.00610025
0.00594002
0.00693216
0.00676564
0.00659727
0.00642941
0.00626348
0.00610025
0.00594002
0.00697126
0.00679715
0.00662363
0.00645251
0.0062847
0.00612054
0.00704847
0.00686255
0.00667943
0.00650067
0.00632729
0.00615972
0.00711121
0.00691083
0.00672425
0.0065491
0.00638242
0.00622271
0.00697775
0.00680726
0.00665101
0.00650192
0.00635336
0.00620489
0.00699538
0.00682736
0.00666963
0.00651346
0.00635738
0.00620197
0.00604752
0.00713263
0.00692941
0.00674251
0.00656484
0.00639331
0.00622656
0.00606303
0.00708889
0.00688766
0.00669504
0.00651213
0.00633703
0.00616771
0.00600269
0.00701206
0.00682805
0.00664764
0.00647246
0.00630232
0.0061366
0.0059747
0.00697126
0.00679715
0.00662363
0.00645251
0.0062847
0.00612055
0.00596008
0.00714256
0.00697114
0.00679699
0.0066234
0.0064522
0.00628428
0.00611996
0.00595925
0.00719654
0.00701205
0.00682805
0.00664764
0.00647246
0.00630232
0.0061366
0.00729618
0.0070894
0.00688844
0.00669629
0.00651414
0.00634018
0.00617247
0.00735964
0.00713348
0.00693083
0.00674494
0.00656898
0.00640005
0.00623675
0.00718479
0.00699622
0.00682876
0.00667193
0.00651725
0.00636359
0.00621209
0.00703101
0.00685227
0.00668321
0.00651881
0.00635673
0.00619617
0.00603621
0.0071672
0.00695428
0.00675918
0.00657503
0.00639839
0.00622692
0.00605838
0.00714553
0.00692753
0.0067271
0.00653924
0.00636072
0.00618875
0.00602107
0.0070894
0.00688845
0.00669629
0.00651414
0.00634018
0.00617247
0.00600984
0.00704847
0.00686255
0.00667944
0.00650068
0.00632729
0.00615973
0.0059983
0.00723609
0.00704811
0.00686201
0.00667862
0.00649944
0.00632544
0.00615703
0.00599431
0.00729584
0.00708889
0.00688766
0.00669504
0.00651213
0.00633704
0.00616772
0.00738721
0.00714552
0.00692753
0.0067271
0.00653924
0.00636072
0.00618876
0.00740823
0.00716784
0.00695536
0.00676093
0.00657778
0.00640265
0.00623359
0.00722463
0.00703184
0.00685364
0.00668547
0.00652254
0.00636281
0.006206
0.00704058
0.00686589
0.0066981
0.00653463
0.00637352
0.00621276
0.00605098
0.0071713
0.00696653
0.00677787
0.00659975
0.00642824
0.00626002
0.00609311
0.00716784
0.00695536
0.00676093
0.00657778
0.00640265
0.0062336
0.00606884
0.00713348
0.00693084
0.00674495
0.00656899
0.00640005
0.00623676
0.00607833
0.00711121
0.00691084
0.00672426
0.00654911
0.00638243
0.00622272
0.00606842
0.00732383
0.00711074
0.00691011
0.00672306
0.00654708
0.00637903
0.0062174
0.00606055
0.00735911
0.00713263
0.00692942
0.00674251
0.00656484
0.00639333
0.00622658
0.00740786
0.0071672
0.00695428
0.00675918
0.00657503
0.00639839
0.00622693
0.00739906
0.00717129
0.00696653
0.00677787
0.00659975
0.00642824
0.00626003
0.00722724
0.00704103
0.00686664
0.00669937
0.0065367
0.00637691
0.0062185
0.00699272
0.00683143
0.00667177
0.00651382
0.00635731
0.00620084
0.006043
0.00704104
0.00686665
0.00669937
0.0065367
0.00637691
0.00621849
0.00606068
0.00703185
0.00685364
0.00668547
0.00652254
0.00636281
0.006206
0.00605215
0.00699622
0.00682877
0.00667194
0.00651726
0.00636359
0.00621209
0.00606412
0.00697776
0.00680726
0.00665102
0.00650193
0.00635337
0.0062049
0.00605904
0.00716803
0.0069774
0.00680666
0.00665003
0.00650028
0.00635064
0.00620038
0.00605156
0.0071843
0.00699538
0.00682736
0.00666963
0.00651347
0.0063574
0.00620198
0.00722412
0.00703101
0.00685227
0.00668321
0.00651881
0.00635674
0.00619618
0.00722697
0.00704058
0.00686588
0.00669809
0.00653463
0.00637353
0.00621276
0.00715923
0.00699271
0.00683142
0.00667177
0.00651382
0.00635731
0.00620085
)
;

boundaryField
{
    inlet
    {
        type            zeroGradient;
    }
    ami1
    {
        type            cyclicAMI;
        value           nonuniform List<scalar> 0();
    }
    walls
    {
        type            zeroGradient;
    }
    ami2
    {
        type            cyclicAMI;
        value           nonuniform List<scalar> 0();
    }
    outlet
    {
        type            fixedValue;
        value           nonuniform List<scalar> 0();
    }
    procBoundary3to2
    {
        type            processor;
        value           nonuniform List<scalar> 
110
(
0.00588369
0.00588759
0.00587515
0.00589391
0.00590635
0.00591921
0.00606413
0.00606413
0.00605217
0.0060607
0.00604302
0.00590349
0.0059263
0.00589058
0.00590127
0.00590763
0.00591987
0.00607834
0.00607834
0.00606886
0.00609312
0.00605099
0.00590123
0.00590668
0.00585612
0.00584083
0.00583731
0.00584323
0.00600985
0.00600985
0.00602108
0.00605839
0.00603623
0.00592159
0.00592514
0.00585153
0.00581603
0.00580197
0.00580311
0.0059747
0.0059747
0.0060027
0.00606304
0.00604753
0.00591917
0.00591983
0.00584321
0.0058031
0.00578275
0.00578275
0.00595925
0.00595925
0.0059943
0.00606054
0.00605154
0.00590632
0.0059076
0.00583729
0.00580196
0.00578275
0.00578275
0.00596008
0.00596008
0.00599829
0.0060684
0.00605903
0.00589389
0.00590125
0.00584082
0.00581603
0.00580311
0.00580197
0.0059747
0.0059747
0.00600984
0.00607832
0.00606411
0.00587514
0.00589057
0.00585612
0.00585154
0.00584323
0.00583731
0.00600271
0.00600271
0.00602108
0.00606884
0.00605215
0.00588759
0.0059263
0.00590668
0.00592516
0.00591986
0.00590763
0.00606305
0.00606305
0.0060584
0.00609312
0.00606069
0.00588369
0.00590348
0.00590124
0.00592161
0.00591921
0.00590635
0.00604755
0.00604755
0.00603623
0.00605099
0.00604301
)
;
    }
    procBoundary3to4
    {
        type            processor;
        value           nonuniform List<scalar> 
109
(
0.00715924
0.00722699
0.00722414
0.00718431
0.00716804
0.00716826
0.0071848
0.00722464
0.00722725
0.00715924
0.00722726
0.00739907
0.00740787
0.00735912
0.00732384
0.00732415
0.00735965
0.00740824
0.00739907
0.00722698
0.00722464
0.00740824
0.00738722
0.00729585
0.0072361
0.00723634
0.00729618
0.00738722
0.00740786
0.00722413
0.0071848
0.00735965
0.00729618
0.00719655
0.00714256
0.00714264
0.00719655
0.00729585
0.00735911
0.0071843
0.00716825
0.00732414
0.00723634
0.00714264
0.00709315
0.00709315
0.00714256
0.00723609
0.00732383
0.00716803
0.00716803
0.00732383
0.00723609
0.00714256
0.00709315
0.00709315
0.00709315
0.00714264
0.00714264
0.00723634
0.00723634
0.00732414
0.00732414
0.00716825
0.00716825
0.0071843
0.00735911
0.00729584
0.00719654
0.00714264
0.00714264
0.00730544
0.00737674
0.00750678
0.00761052
0.00740427
0.00722413
0.00740786
0.00738721
0.00729618
0.00723634
0.00723634
0.00742233
0.00750653
0.00764564
0.00768675
0.00744021
0.00722698
0.00739906
0.00740823
0.00735964
0.00732414
0.00732414
0.00754662
0.00761017
0.00768653
0.00765803
0.00743842
0.00715924
0.00722725
0.00722464
0.00718479
0.00716825
0.00716825
0.00738957
0.00740399
0.0074399
0.00743826
0.00734593
)
;
    }
}


// ************************************************************************* //
