/*--------------------------------*- C++ -*----------------------------------*\
| =========                 |                                                 |
| \\      /  F ield         | OpenFOAM: The Open Source CFD Toolbox           |
|  \\    /   O peration     | Version:  2212                                  |
|   \\  /    A nd           | Website:  www.openfoam.com                      |
|    \\/     M anipulation  |                                                 |
\*---------------------------------------------------------------------------*/
FoamFile
{
    version     2.0;
    format      ascii;
    arch        "LSB;label=32;scalar=64";
    class       surfaceScalarField;
    location    "1";
    object      phi;
}
// * * * * * * * * * * * * * * * * * * * * * * * * * * * * * * * * * * * * * //

dimensions      [0 3 -1 0 0 0 0];

oriented        oriented;

internalField   nonuniform List<scalar> 
1795
(
1.86005e-07
3.89006e-09
3.87727e-09
1.79357e-07
3.33508e-09
3.31312e-09
1.73529e-07
2.93271e-09
2.89545e-09
1.68358e-07
2.61579e-09
2.55492e-09
1.63741e-07
2.35894e-09
2.25873e-09
1.59585e-07
2.16522e-09
1.99088e-09
2.03362e-09
1.72636e-09
4.90961e-07
1.07943e-08
6.83889e-09
4.78757e-07
9.93781e-09
5.6015e-09
4.67704e-07
9.22236e-09
4.76321e-09
4.57579e-07
8.58845e-09
4.15256e-09
4.48253e-07
8.00758e-09
3.6778e-09
4.3963e-07
7.46569e-09
3.32294e-09
6.95238e-09
3.05352e-09
7.98811e-07
1.26527e-08
1.1119e-08
7.86766e-07
1.18487e-08
1.01342e-08
7.7567e-07
1.09778e-08
9.34018e-09
7.65395e-07
1.01277e-08
8.73554e-09
7.55809e-07
9.30743e-09
8.28678e-09
7.46821e-07
8.50831e-09
7.94525e-09
7.69161e-09
7.6578e-09
1.02285e-06
7.53161e-09
1.21145e-08
1.01602e-06
7.33013e-09
1.13453e-08
1.00929e-06
7.01836e-09
1.06935e-08
1.00268e-06
6.53431e-09
1.02003e-08
9.96186e-07
5.96329e-09
9.8388e-09
9.89764e-07
5.34784e-09
9.58273e-09
4.66503e-09
9.41595e-09
1.13397e-06
-1.97064e-11
1.13147e-08
1.13067e-06
-3.32259e-11
1.0662e-08
1.12753e-06
-5.56444e-11
1.02115e-08
1.12423e-06
-9.28867e-11
9.93226e-09
1.12059e-06
-1.54565e-10
9.75283e-09
1.11651e-06
-2.57288e-10
9.68573e-09
-4.34955e-10
9.76419e-09
1.13393e-06
-7.56058e-09
1.13218e-08
1.1306e-06
-7.37937e-09
1.06742e-08
1.12741e-06
-7.09953e-09
1.02319e-08
1.12402e-06
-6.66691e-09
9.96525e-09
1.12024e-06
-6.17925e-09
9.80819e-09
1.1159e-06
-5.70393e-09
9.78618e-09
9.95295e-09
1.02276e-06
-1.26572e-08
1.21267e-08
1.01587e-06
-1.18561e-08
1.13657e-08
1.00903e-06
-1.09895e-08
1.07286e-08
1.00225e-06
-1.01455e-08
1.02605e-08
9.95462e-07
-9.33529e-09
9.9445e-09
-8.55423e-09
9.76775e-09
7.98741e-07
-1.07814e-08
1.11304e-08
7.86649e-07
-9.91614e-09
1.01527e-08
7.75474e-07
-9.18574e-09
9.37086e-09
7.65068e-07
-8.52677e-09
8.78743e-09
7.55264e-07
-7.90805e-09
8.37636e-09
-7.30673e-09
8.09785e-09
4.9094e-07
-3.87728e-09
6.84831e-09
4.7872e-07
-3.31312e-09
5.61716e-09
4.6764e-07
-2.89546e-09
4.78982e-09
4.57466e-07
-2.55491e-09
4.20258e-09
4.48054e-07
-2.25871e-09
3.76245e-09
-1.99082e-09
3.44037e-09
1.86005e-07
3.89005e-09
1.79357e-07
3.33506e-09
1.73529e-07
2.9327e-09
1.68358e-07
2.61578e-09
1.63741e-07
2.35893e-09
2.1652e-09
4.9094e-07
6.84831e-09
1.07814e-08
4.7872e-07
5.61716e-09
9.91614e-09
4.6764e-07
4.78982e-09
9.18574e-09
4.57465e-07
4.20257e-09
8.52678e-09
4.48054e-07
3.76243e-09
7.90808e-09
4.39298e-07
3.44036e-09
7.30677e-09
3.21158e-09
6.69318e-09
8.5477e-07
1.2188e-08
1.21731e-08
8.45338e-07
1.03383e-08
1.03127e-08
8.37005e-07
8.96466e-09
8.92099e-09
8.29591e-07
7.9215e-09
7.8484e-09
8.22918e-07
7.11558e-09
6.9968e-09
8.1691e-07
6.47985e-09
6.29222e-09
5.94035e-09
5.64335e-09
1.14461e-06
1.38741e-08
1.53188e-08
1.13921e-06
1.22634e-08
1.36125e-08
1.13442e-06
1.08497e-08
1.22416e-08
1.13027e-06
9.66712e-09
1.11456e-08
1.12672e-06
8.67957e-09
1.02695e-08
1.12377e-06
7.82325e-09
9.54681e-09
7.02004e-09
8.90582e-09
1.35459e-06
9.02756e-09
1.68122e-08
1.35457e-06
8.16296e-09
1.54667e-08
1.35453e-06
7.34159e-09
1.42394e-08
1.35455e-06
6.58735e-09
1.32582e-08
1.35469e-06
5.89037e-09
1.24912e-08
1.35497e-06
5.23204e-09
1.18953e-08
4.55833e-09
1.14314e-08
1.46192e-06
-1.66899e-11
1.64464e-08
1.46521e-06
-2.78044e-11
1.55668e-08
1.46811e-06
-4.72202e-11
1.46989e-08
1.4708e-06
-7.92668e-11
1.39084e-08
1.47333e-06
-1.32194e-10
1.32487e-08
1.47564e-06
-2.12354e-10
1.28106e-08
-3.36779e-10
1.25987e-08
1.46188e-06
-9.04779e-09
1.64564e-08
1.46514e-06
-8.19666e-09
1.55825e-08
1.468e-06
-7.40027e-09
1.47249e-08
1.47062e-06
-6.68672e-09
1.39518e-08
1.47303e-06
-6.05446e-09
1.33242e-08
1.47515e-06
-5.48532e-09
1.29403e-08
1.28077e-08
1.35451e-06
-1.38723e-08
1.68334e-08
1.35444e-06
-1.22595e-08
1.54997e-08
1.35432e-06
-1.08422e-08
1.42931e-08
1.3542e-06
-9.65436e-09
1.33503e-08
1.3541e-06
-8.65581e-09
1.26453e-08
-7.77382e-09
1.2148e-08
1.14456e-06
-1.21732e-08
1.53387e-08
1.13912e-06
-1.03128e-08
1.36461e-08
1.13427e-06
-8.92103e-09
1.22971e-08
1.13002e-06
-7.84844e-09
1.12369e-08
1.12632e-06
-6.99683e-09
1.04172e-08
-6.2922e-09
9.78458e-09
8.5477e-07
-6.83889e-09
1.2188e-08
8.45338e-07
-5.6015e-09
1.03383e-08
8.37005e-07
-4.76321e-09
8.96463e-09
8.29591e-07
-4.15255e-09
7.92146e-09
8.22918e-07
-3.67779e-09
7.11554e-09
-3.32288e-09
6.47979e-09
4.90961e-07
1.07942e-08
4.78757e-07
9.93779e-09
4.67704e-07
9.22234e-09
4.57579e-07
8.58842e-09
4.48253e-07
8.00756e-09
7.46569e-09
7.98741e-07
1.11304e-08
1.26572e-08
7.86649e-07
1.01527e-08
1.1856e-08
7.75474e-07
9.37087e-09
1.09894e-08
7.65068e-07
8.78745e-09
1.01455e-08
7.55264e-07
8.37637e-09
9.33527e-09
7.45919e-07
8.09786e-09
8.55422e-09
7.91736e-09
7.77066e-09
1.14456e-06
1.53388e-08
1.38723e-08
1.13912e-06
1.36461e-08
1.22594e-08
1.13427e-06
1.22971e-08
1.08422e-08
1.13002e-06
1.12369e-08
9.65429e-09
1.12632e-06
1.04173e-08
8.65574e-09
1.12315e-06
9.78461e-09
7.77379e-09
9.2858e-09
6.93105e-09
1.41155e-06
1.50377e-08
1.50243e-08
1.41185e-06
1.34911e-08
1.34693e-08
1.41212e-06
1.21495e-08
1.21145e-08
1.41255e-06
1.1004e-08
1.09477e-08
1.41326e-06
1.00367e-08
9.9465e-09
1.4143e-06
9.21614e-09
9.07096e-09
8.50045e-09
8.26999e-09
1.6001e-06
9.32374e-09
1.54409e-08
1.60628e-06
8.44802e-09
1.43375e-08
1.6118e-06
7.6197e-09
1.32411e-08
1.61694e-06
6.88208e-09
1.22467e-08
1.62185e-06
6.23316e-09
1.13802e-08
1.62668e-06
5.64974e-09
1.06382e-08
5.09744e-09
1.0004e-08
1.69655e-06
-9.07193e-12
1.49598e-08
1.70629e-06
-1.47299e-11
1.42887e-08
1.71511e-06
-2.40767e-11
1.35196e-08
1.7232e-06
-3.88265e-11
1.27441e-08
1.73071e-06
-6.13747e-11
1.20327e-08
1.73783e-06
-9.38591e-11
1.14376e-08
-1.40932e-10
1.0989e-08
1.69652e-06
-9.32989e-09
1.49688e-08
1.70624e-06
-8.45807e-09
1.43027e-08
1.71504e-06
-7.63717e-09
1.35422e-08
1.72308e-06
-6.91192e-09
1.27806e-08
1.73054e-06
-6.28203e-09
1.2092e-08
1.73757e-06
-5.72401e-09
1.15327e-08
1.11381e-08
1.60006e-06
-1.50244e-08
1.54595e-08
1.6062e-06
-1.34694e-08
1.43664e-08
1.61169e-06
-1.21146e-08
1.32867e-08
1.61675e-06
-1.09477e-08
1.23202e-08
1.62157e-06
-9.94659e-09
1.14982e-08
-9.07106e-09
1.08289e-08
1.41155e-06
-1.53188e-08
1.50377e-08
1.41185e-06
-1.36125e-08
1.34911e-08
1.41212e-06
-1.22417e-08
1.21495e-08
1.41255e-06
-1.11457e-08
1.1004e-08
1.41326e-06
-1.02695e-08
1.00367e-08
-9.54691e-09
9.21615e-09
1.14461e-06
-1.1119e-08
1.3874e-08
1.13921e-06
-1.01342e-08
1.22634e-08
1.13442e-06
-9.3402e-09
1.08496e-08
1.13027e-06
-8.73556e-09
9.66707e-09
1.12672e-06
-8.28682e-09
8.67951e-09
-7.94531e-09
7.82321e-09
7.98811e-07
1.26527e-08
7.86765e-07
1.18487e-08
7.7567e-07
1.09777e-08
7.65395e-07
1.01276e-08
7.55809e-07
9.30736e-09
8.50824e-09
1.02276e-06
1.21268e-08
7.56054e-09
1.01587e-06
1.13657e-08
7.37932e-09
1.00903e-06
1.07286e-08
7.09948e-09
1.00225e-06
1.02605e-08
6.66685e-09
9.95462e-07
9.94448e-09
6.17918e-09
9.88545e-07
9.76771e-09
5.70385e-09
9.74148e-09
5.2626e-09
1.35451e-06
1.68334e-08
9.04773e-09
1.35444e-06
1.54997e-08
8.19659e-09
1.35432e-06
1.42931e-08
7.40019e-09
1.3542e-06
1.33503e-08
6.68663e-09
1.3541e-06
1.26453e-08
6.05437e-09
1.35401e-06
1.2148e-08
5.48522e-09
1.18452e-08
4.95413e-09
1.60006e-06
1.54595e-08
9.32983e-09
1.6062e-06
1.43665e-08
8.458e-09
1.61169e-06
1.32867e-08
7.63709e-09
1.61675e-06
1.23202e-08
6.91183e-09
1.62157e-06
1.14982e-08
6.28193e-09
1.62623e-06
1.08289e-08
5.72391e-09
1.03095e-08
5.20712e-09
1.77035e-06
9.19942e-09
9.19333e-09
1.78184e-06
8.61419e-09
8.60506e-09
1.7924e-06
7.9904e-09
7.97656e-09
1.8022e-06
7.39342e-09
7.37182e-09
1.8114e-06
6.85592e-09
6.8214e-09
1.82015e-06
6.38879e-09
6.33279e-09
5.98969e-09
5.90012e-09
1.85772e-06
-7.22856e-13
8.83476e-09
1.87217e-06
-1.40188e-12
8.46132e-09
1.88566e-06
-2.40493e-12
8.01677e-09
1.89825e-06
-3.61103e-12
7.55279e-09
1.91004e-06
-4.73392e-12
7.10736e-09
1.92116e-06
-5.2597e-12
6.70685e-09
-5.3328e-12
6.36968e-09
1.85771e-06
-9.1934e-09
8.8395e-09
1.87215e-06
-8.60513e-09
8.4685e-09
1.88564e-06
-7.97664e-09
8.02776e-09
1.89822e-06
-7.37192e-09
7.56971e-09
1.91e-06
-6.82152e-09
7.13349e-09
1.92111e-06
-6.33291e-09
6.74709e-09
6.43121e-09
1.77035e-06
-1.5441e-08
9.19943e-09
1.78184e-06
-1.43375e-08
8.6142e-09
1.7924e-06
-1.32412e-08
7.99042e-09
1.8022e-06
-1.22468e-08
7.39345e-09
1.8114e-06
-1.13804e-08
6.85596e-09
-1.06384e-08
6.38885e-09
1.6001e-06
-1.68122e-08
9.32373e-09
1.60628e-06
-1.54668e-08
8.44801e-09
1.6118e-06
-1.42394e-08
7.61969e-09
1.61694e-06
-1.32583e-08
6.88207e-09
1.62185e-06
-1.24913e-08
6.23316e-09
-1.18954e-08
5.64975e-09
1.35459e-06
-1.21145e-08
9.02754e-09
1.35457e-06
-1.13453e-08
8.16293e-09
1.35453e-06
-1.06935e-08
7.34156e-09
1.35455e-06
-1.02003e-08
6.58731e-09
1.35469e-06
-9.83885e-09
5.89033e-09
-9.58282e-09
5.232e-09
1.02285e-06
7.53157e-09
1.01602e-06
7.33009e-09
1.00929e-06
7.01831e-09
1.00268e-06
6.53425e-09
9.96186e-07
5.96322e-09
5.34777e-09
1.13393e-06
1.13218e-08
1.96647e-11
1.1306e-06
1.06742e-08
3.31726e-11
1.12741e-06
1.02319e-08
5.55778e-11
1.12402e-06
9.96524e-09
9.2803e-11
1.12024e-06
9.80817e-09
1.54458e-10
1.1159e-06
9.78612e-09
2.57155e-10
9.95284e-09
4.34788e-10
1.46188e-06
1.64564e-08
1.66289e-11
1.46514e-06
1.55825e-08
2.7733e-11
1.468e-06
1.47249e-08
4.71373e-11
1.47062e-06
1.39517e-08
7.91708e-11
1.47303e-06
1.33242e-08
1.32084e-10
1.47515e-06
1.29402e-08
2.12234e-10
1.28076e-08
3.36641e-10
1.69652e-06
1.49688e-08
9.0101e-12
1.70624e-06
1.43027e-08
1.4658e-11
1.71504e-06
1.35421e-08
2.39946e-11
1.72308e-06
1.27806e-08
3.87352e-11
1.73054e-06
1.20919e-08
6.12773e-11
1.73757e-06
1.15326e-08
9.37616e-11
1.11379e-08
1.40846e-10
1.85771e-06
8.83948e-09
6.57879e-13
1.87215e-06
8.46847e-09
1.32527e-12
1.88564e-06
8.02771e-09
2.31608e-12
1.89822e-06
7.56965e-09
3.51039e-12
1.91e-06
7.1334e-09
4.62435e-12
1.92111e-06
6.74696e-09
5.14792e-12
6.43104e-09
5.23221e-12
1.94051e-06
1.01637e-12
-1.08528e-12
1.95744e-06
1.48991e-12
-1.57532e-12
1.97348e-06
2.21362e-12
-2.3176e-12
1.98861e-06
3.35386e-12
-3.47782e-12
2.00285e-06
5.16054e-12
-5.30442e-12
2.0163e-06
7.95881e-12
-8.1205e-12
1.2051e-11
-1.22237e-11
1.94051e-06
-8.83483e-09
1.04467e-12
1.95744e-06
-8.46141e-09
1.53029e-12
1.97348e-06
-8.01687e-09
2.26836e-12
1.98861e-06
-7.55291e-09
3.42495e-12
2.00285e-06
-7.10751e-09
5.24882e-12
2.0163e-06
-6.707e-09
8.06623e-12
1.21778e-11
1.85772e-06
-1.49599e-08
-7.03718e-13
1.87217e-06
-1.42887e-08
-1.37616e-12
1.88566e-06
-1.35197e-08
-2.37239e-12
1.89825e-06
-1.27442e-08
-3.57305e-12
1.91004e-06
-1.20328e-08
-4.69274e-12
-1.14378e-08
-5.21976e-12
1.69655e-06
-1.64464e-08
-9.06366e-12
1.70629e-06
-1.55668e-08
-1.47184e-11
1.71511e-06
-1.4699e-08
-2.4062e-11
1.7232e-06
-1.39085e-08
-3.88109e-11
1.73071e-06
-1.32489e-08
-6.13619e-11
-1.28108e-08
-9.38558e-11
1.46192e-06
-1.13147e-08
-1.66962e-11
1.46521e-06
-1.06621e-08
-2.78112e-11
1.46811e-06
-1.02115e-08
-4.72268e-11
1.4708e-06
-9.93231e-09
-7.92743e-11
1.47332e-06
-9.75289e-09
-1.32202e-10
-9.68581e-09
-2.12365e-10
1.13397e-06
-1.97361e-11
1.13067e-06
-3.32568e-11
1.12753e-06
-5.56766e-11
1.12423e-06
-9.29191e-11
1.12059e-06
-1.54594e-10
-2.57314e-10
1.13397e-06
1.13147e-08
-7.53165e-09
1.13067e-06
1.0662e-08
-7.33018e-09
1.12753e-06
1.02115e-08
-7.01843e-09
1.12423e-06
9.93226e-09
-6.5344e-09
1.12059e-06
9.75281e-09
-5.96341e-09
1.11651e-06
9.68569e-09
-5.34801e-09
9.76413e-09
-4.66525e-09
1.46192e-06
1.64464e-08
-9.02761e-09
1.46521e-06
1.55668e-08
-8.16302e-09
1.46811e-06
1.46989e-08
-7.34166e-09
1.4708e-06
1.39084e-08
-6.58744e-09
1.47333e-06
1.32487e-08
-5.89048e-09
1.47564e-06
1.28105e-08
-5.23218e-09
1.25985e-08
-4.55852e-09
1.69655e-06
1.49598e-08
-9.3238e-09
1.70629e-06
1.42886e-08
-8.44809e-09
1.71511e-06
1.35196e-08
-7.61978e-09
1.7232e-06
1.2744e-08
-6.88218e-09
1.73071e-06
1.20326e-08
-6.23328e-09
1.73783e-06
1.14375e-08
-5.64988e-09
1.09887e-08
-5.09761e-09
1.85772e-06
8.83473e-09
-9.19948e-09
1.87217e-06
8.46128e-09
-8.61426e-09
1.88566e-06
8.0167e-09
-7.99049e-09
1.89825e-06
7.55269e-09
-7.39354e-09
1.91004e-06
7.10723e-09
-6.85605e-09
1.92116e-06
6.70666e-09
-6.38895e-09
6.36942e-09
-5.98987e-09
1.94051e-06
-1.11683e-12
-8.83954e-09
1.95744e-06
-1.62412e-12
-8.46855e-09
1.97348e-06
-2.38824e-12
-8.02782e-09
1.98861e-06
-3.57642e-12
-7.56978e-09
2.00285e-06
-5.43929e-12
-7.13357e-09
2.0163e-06
-8.30299e-12
-6.74717e-09
-1.24673e-11
-6.43129e-09
1.94051e-06
-8.83957e-09
-8.8348e-09
1.95744e-06
-8.4686e-09
-8.46136e-09
1.97348e-06
-8.02788e-09
-8.01682e-09
1.98861e-06
-7.56986e-09
-7.55284e-09
2.00285e-06
-7.13368e-09
-7.10743e-09
2.0163e-06
-6.74731e-09
-6.70691e-09
-6.36975e-09
1.85771e-06
-1.49689e-08
-9.19336e-09
1.87215e-06
-1.43028e-08
-8.60509e-09
1.88564e-06
-1.35423e-08
-7.9766e-09
1.89822e-06
-1.27808e-08
-7.37187e-09
1.91e-06
-1.20922e-08
-6.82146e-09
-1.15329e-08
-6.33287e-09
1.69652e-06
-1.64565e-08
-9.32986e-09
1.70624e-06
-1.55826e-08
-8.45804e-09
1.71504e-06
-1.4725e-08
-7.63713e-09
1.72308e-06
-1.39519e-08
-6.91188e-09
1.73054e-06
-1.33243e-08
-6.28199e-09
-1.29405e-08
-5.72398e-09
1.46188e-06
-1.13218e-08
-9.04778e-09
1.46514e-06
-1.06742e-08
-8.19664e-09
1.468e-06
-1.0232e-08
-7.40025e-09
1.47062e-06
-9.9653e-09
-6.6867e-09
1.47303e-06
-9.80825e-09
-6.05444e-09
-9.78625e-09
-5.48529e-09
1.13393e-06
-7.5606e-09
1.1306e-06
-7.37939e-09
1.12741e-06
-7.09955e-09
1.12402e-06
-6.66692e-09
1.12024e-06
-6.17926e-09
-5.70393e-09
1.02285e-06
1.21145e-08
-1.26528e-08
1.01602e-06
1.13453e-08
-1.18488e-08
1.00929e-06
1.06935e-08
-1.09778e-08
1.00268e-06
1.02003e-08
-1.01277e-08
9.96186e-07
9.83879e-09
-9.30754e-09
9.89763e-07
9.58271e-09
-8.50846e-09
9.41594e-09
-7.69181e-09
1.35459e-06
1.68122e-08
-1.38741e-08
1.35457e-06
1.54667e-08
-1.22634e-08
1.35453e-06
1.42393e-08
-1.08497e-08
1.35455e-06
1.32582e-08
-9.66719e-09
1.35469e-06
1.24911e-08
-8.67967e-09
1.35497e-06
1.18952e-08
-7.82339e-09
1.14313e-08
-7.02025e-09
1.6001e-06
1.54409e-08
-1.50377e-08
1.60628e-06
1.43374e-08
-1.34912e-08
1.6118e-06
1.32411e-08
-1.21496e-08
1.61694e-06
1.22466e-08
-1.10041e-08
1.62185e-06
1.13801e-08
-1.00369e-08
1.62668e-06
1.06381e-08
-9.21631e-09
1.00038e-08
-8.50068e-09
1.77035e-06
9.19331e-09
-1.54596e-08
1.78184e-06
8.60502e-09
-1.43665e-08
1.7924e-06
7.97649e-09
-1.32868e-08
1.8022e-06
7.37172e-09
-1.23203e-08
1.8114e-06
6.82126e-09
-1.14983e-08
1.82015e-06
6.33259e-09
-1.0829e-08
5.89984e-09
-1.03097e-08
1.85771e-06
6.33512e-13
-1.49688e-08
1.87215e-06
1.28225e-12
-1.43028e-08
1.88564e-06
2.24898e-12
-1.35422e-08
1.89822e-06
3.41074e-12
-1.27807e-08
1.91e-06
4.47892e-12
-1.20921e-08
1.92111e-06
4.9369e-12
-1.15329e-08
4.92722e-12
-1.11382e-08
1.8424e-06
-9.6523e-09
-1.54302e-08
1.85772e-06
-9.1995e-09
-1.49599e-08
1.87217e-06
-8.61429e-09
-1.42887e-08
1.88566e-06
-7.99054e-09
-1.35197e-08
1.89825e-06
-7.39361e-09
-1.27442e-08
1.91004e-06
-6.85616e-09
-1.20328e-08
1.92116e-06
-6.38911e-09
-1.14377e-08
-1.09891e-08
1.75785e-06
-1.63842e-08
-1.63726e-08
1.77035e-06
-1.54596e-08
-1.54409e-08
1.78184e-06
-1.43665e-08
-1.43375e-08
1.7924e-06
-1.32868e-08
-1.32411e-08
1.8022e-06
-1.23203e-08
-1.22467e-08
1.8114e-06
-1.14984e-08
-1.13803e-08
-1.08291e-08
-1.06383e-08
1.59299e-06
-1.8114e-08
-1.67043e-08
1.60006e-06
-1.68334e-08
-1.50243e-08
1.6062e-06
-1.54997e-08
-1.34693e-08
1.61169e-06
-1.42932e-08
-1.21146e-08
1.61675e-06
-1.33504e-08
-1.09477e-08
1.62157e-06
-1.26454e-08
-9.94653e-09
-1.21482e-08
-9.071e-09
1.35439e-06
-1.29841e-08
-1.56774e-08
1.35451e-06
-1.21268e-08
-1.38723e-08
1.35444e-06
-1.13657e-08
-1.22595e-08
1.35432e-06
-1.07286e-08
-1.08422e-08
1.3542e-06
-1.02605e-08
-9.65432e-09
1.3541e-06
-9.94455e-09
-8.65576e-09
-9.76781e-09
-7.77377e-09
1.02979e-06
-1.33694e-08
1.02276e-06
-1.26572e-08
1.01587e-06
-1.18561e-08
1.00903e-06
-1.09895e-08
1.00225e-06
-1.01455e-08
9.95462e-07
-9.33531e-09
-8.55424e-09
7.9881e-07
1.1119e-08
-1.07943e-08
7.86765e-07
1.01342e-08
-9.93783e-09
7.7567e-07
9.34016e-09
-9.22239e-09
7.65395e-07
8.73552e-09
-8.58849e-09
7.55808e-07
8.28676e-09
-8.00764e-09
7.46821e-07
7.94523e-09
-7.46576e-09
7.65779e-09
-6.95248e-09
1.14461e-06
1.53188e-08
-1.2188e-08
1.13921e-06
1.36124e-08
-1.03383e-08
1.13442e-06
1.22416e-08
-8.9647e-09
1.13027e-06
1.11456e-08
-7.92154e-09
1.12672e-06
1.02694e-08
-7.11564e-09
1.12377e-06
9.54676e-09
-6.47994e-09
8.90577e-09
-5.94049e-09
1.41155e-06
1.50243e-08
-1.53388e-08
1.41185e-06
1.34693e-08
-1.36462e-08
1.41212e-06
1.21145e-08
-1.22971e-08
1.41255e-06
1.09476e-08
-1.1237e-08
1.41326e-06
9.94642e-09
-1.04173e-08
1.4143e-06
9.07084e-09
-9.78473e-09
8.26984e-09
-9.28598e-09
1.60006e-06
9.32982e-09
-1.68334e-08
1.6062e-06
8.45797e-09
-1.54997e-08
1.61169e-06
7.63704e-09
-1.42932e-08
1.61675e-06
6.91176e-09
-1.33504e-08
1.62157e-06
6.28183e-09
-1.26454e-08
1.62623e-06
5.72375e-09
-1.21482e-08
5.2069e-09
-1.18454e-08
1.69652e-06
9.00641e-12
-1.64565e-08
1.70624e-06
1.46391e-11
-1.55826e-08
1.71504e-06
2.39559e-11
-1.4725e-08
1.72308e-06
3.86694e-11
-1.39518e-08
1.73054e-06
6.11724e-11
-1.33243e-08
1.73757e-06
9.36012e-11
-1.29404e-08
1.40609e-10
-1.28078e-08
1.68573e-06
-1.01387e-08
-1.71584e-08
1.69655e-06
-9.32379e-09
-1.64464e-08
1.70629e-06
-8.4481e-09
-1.55668e-08
1.71511e-06
-7.61981e-09
-1.4699e-08
1.7232e-06
-6.88222e-09
-1.39085e-08
1.73071e-06
-6.23335e-09
-1.32488e-08
1.73783e-06
-5.64999e-09
-1.28107e-08
-1.25988e-08
1.59302e-06
-1.67128e-08
-1.81006e-08
1.6001e-06
-1.50377e-08
-1.68122e-08
1.60628e-06
-1.34911e-08
-1.54667e-08
1.6118e-06
-1.21496e-08
-1.42394e-08
1.61694e-06
-1.10041e-08
-1.32583e-08
1.62185e-06
-1.00369e-08
-1.24913e-08
-9.21635e-09
-1.18954e-08
1.41095e-06
-1.74303e-08
-1.74187e-08
1.41155e-06
-1.53388e-08
-1.53188e-08
1.41185e-06
-1.36461e-08
-1.36125e-08
1.41212e-06
-1.22971e-08
-1.22416e-08
1.41255e-06
-1.1237e-08
-1.11457e-08
1.41326e-06
-1.04173e-08
-1.02695e-08
-9.78471e-09
-9.54685e-09
1.15047e-06
-1.23474e-08
-1.46906e-08
1.14456e-06
-1.11304e-08
-1.21731e-08
1.13912e-06
-1.01527e-08
-1.03127e-08
1.13427e-06
-9.37089e-09
-8.921e-09
1.13002e-06
-8.78747e-09
-7.84841e-09
1.12632e-06
-8.37641e-09
-6.99681e-09
-8.0979e-09
-6.29217e-09
8.11748e-07
-1.19411e-08
7.98741e-07
-1.07814e-08
7.86649e-07
-9.91615e-09
7.75474e-07
-9.18576e-09
7.65068e-07
-8.52679e-09
7.55264e-07
-7.90808e-09
-7.30677e-09
4.90961e-07
6.83888e-09
-3.89005e-09
4.78757e-07
5.60148e-09
-3.33506e-09
4.67704e-07
4.76319e-09
-2.9327e-09
4.57579e-07
4.15253e-09
-2.61577e-09
4.48253e-07
3.67775e-09
-2.35891e-09
4.39629e-07
3.32288e-09
-2.16519e-09
3.05347e-09
-2.03359e-09
8.5477e-07
1.21731e-08
-6.84833e-09
8.45338e-07
1.03127e-08
-5.61718e-09
8.37005e-07
8.92099e-09
-4.78984e-09
8.2959e-07
7.84838e-09
-4.2026e-09
8.22918e-07
6.99677e-09
-3.76246e-09
8.1691e-07
6.29217e-09
-3.44041e-09
5.64328e-09
-3.21163e-09
1.14456e-06
1.38723e-08
-1.11304e-08
1.13912e-06
1.22594e-08
-1.01527e-08
1.13427e-06
1.08422e-08
-9.3709e-09
1.13002e-06
9.65428e-09
-8.78748e-09
1.12632e-06
8.65571e-09
-8.37641e-09
1.12315e-06
7.77372e-09
-8.09791e-09
6.93095e-09
-7.91743e-09
1.35451e-06
9.04775e-09
-1.21268e-08
1.35444e-06
8.1966e-09
-1.13657e-08
1.35432e-06
7.4002e-09
-1.07286e-08
1.3542e-06
6.68662e-09
-1.02605e-08
1.3541e-06
6.05434e-09
-9.94454e-09
1.354e-06
5.48516e-09
-9.76779e-09
4.95401e-09
-9.7416e-09
1.46188e-06
1.665e-11
-1.13218e-08
1.46514e-06
2.77467e-11
-1.06742e-08
1.468e-06
4.71417e-11
-1.02319e-08
1.47062e-06
7.91628e-11
-9.96528e-09
1.47303e-06
1.32055e-10
-9.80822e-09
1.47515e-06
2.12172e-10
-9.78621e-09
3.36531e-10
-9.95299e-09
1.45801e-06
-9.88083e-09
-1.21045e-08
1.46192e-06
-9.02759e-09
-1.13147e-08
1.46521e-06
-8.16301e-09
-1.0662e-08
1.46811e-06
-7.34165e-09
-1.02115e-08
1.4708e-06
-6.58744e-09
-9.93229e-09
1.47333e-06
-5.89049e-09
-9.75286e-09
1.47564e-06
-5.23222e-09
-9.68578e-09
-9.76428e-09
1.35444e-06
-1.56791e-08
-1.29765e-08
1.35459e-06
-1.38741e-08
-1.21145e-08
1.35457e-06
-1.22634e-08
-1.13453e-08
1.35453e-06
-1.08497e-08
-1.06935e-08
1.35455e-06
-9.66718e-09
-1.02003e-08
1.35469e-06
-8.67966e-09
-9.83883e-09
-7.82339e-09
-9.58278e-09
1.1505e-06
-1.46998e-08
-1.23409e-08
1.14461e-06
-1.2188e-08
-1.1119e-08
1.13921e-06
-1.03383e-08
-1.01342e-08
1.13442e-06
-8.96468e-09
-9.34017e-09
1.13027e-06
-7.92154e-09
-8.73553e-09
1.12672e-06
-7.11564e-09
-8.28678e-09
-6.47991e-09
-7.94527e-09
8.65444e-07
-8.71446e-09
-8.70859e-09
8.5477e-07
-6.84831e-09
-6.83888e-09
8.45338e-07
-5.61716e-09
-5.60149e-09
8.37005e-07
-4.78983e-09
-4.7632e-09
8.2959e-07
-4.20259e-09
-4.15255e-09
8.22918e-07
-3.76246e-09
-3.67778e-09
-3.44038e-09
-3.32289e-09
5.04692e-07
-4.71011e-09
4.9094e-07
-3.87728e-09
4.7872e-07
-3.31312e-09
4.6764e-07
-2.89546e-09
4.57465e-07
-2.55492e-09
4.48054e-07
-2.25873e-09
-1.99084e-09
1.86005e-07
3.87729e-09
1.79357e-07
3.31314e-09
1.73529e-07
2.89547e-09
1.68358e-07
2.55493e-09
1.63741e-07
2.25874e-09
1.59585e-07
1.99088e-09
1.72634e-09
4.9094e-07
1.07814e-08
4.7872e-07
9.91614e-09
4.6764e-07
9.18575e-09
4.57465e-07
8.52678e-09
4.48054e-07
7.90806e-09
4.39297e-07
7.30674e-09
6.69312e-09
7.98741e-07
1.26572e-08
7.86649e-07
1.1856e-08
7.75474e-07
1.09894e-08
7.65068e-07
1.01455e-08
7.55264e-07
9.33526e-09
7.45919e-07
8.55418e-09
7.77058e-09
1.02276e-06
7.56056e-09
1.01587e-06
7.37935e-09
1.00903e-06
7.0995e-09
1.00225e-06
6.66686e-09
9.95462e-07
6.17919e-09
9.88545e-07
5.70383e-09
5.26256e-09
1.13393e-06
1.96953e-11
1.1306e-06
3.32056e-11
1.12741e-06
5.56142e-11
1.12402e-06
9.28418e-11
1.12024e-06
1.54491e-10
1.1159e-06
2.57184e-10
4.34799e-10
1.13773e-06
-7.77342e-09
1.13397e-06
-7.53162e-09
1.13067e-06
-7.33014e-09
1.12753e-06
-7.01838e-09
1.12423e-06
-6.53434e-09
1.12059e-06
-5.96334e-09
1.11651e-06
-5.34793e-09
1.02984e-06
-1.33663e-08
1.02285e-06
-1.26527e-08
1.01602e-06
-1.18487e-08
1.00929e-06
-1.09778e-08
1.00268e-06
-1.01277e-08
9.96186e-07
-9.30747e-09
-8.50837e-09
8.11788e-07
-1.19488e-08
7.98811e-07
-1.07943e-08
7.86765e-07
-9.9378e-09
7.7567e-07
-9.22236e-09
7.65395e-07
-8.58845e-09
7.55809e-07
-8.00759e-09
-7.46571e-09
5.04705e-07
-4.71732e-09
4.90961e-07
-3.89005e-09
4.78757e-07
-3.33506e-09
4.67704e-07
-2.93269e-09
4.57579e-07
-2.61577e-09
4.48253e-07
-2.35891e-09
-2.16517e-09
1.93773e-07
1.86005e-07
1.79357e-07
1.73529e-07
1.68358e-07
1.63741e-07
)
;

boundaryField
{
    inlet
    {
        type            calculated;
        value           nonuniform List<scalar> 0();
    }
    ami1
    {
        type            cyclicAMI;
        value           nonuniform List<scalar> 0();
    }
    walls
    {
        type            calculated;
        value           uniform 0;
    }
    ami2
    {
        type            cyclicAMI;
        value           nonuniform List<scalar> 0();
    }
    outlet
    {
        type            calculated;
        value           nonuniform List<scalar> 0();
    }
    procBoundary3to2
    {
        type            processor;
        value           nonuniform List<scalar> 
110
(
1.55825e-07
4.31657e-07
7.38424e-07
9.83374e-07
1.11185e-06
1.11077e-06
-5.2627e-09
9.88545e-07
7.45919e-07
4.39298e-07
1.59585e-07
4.31119e-07
8.11591e-07
1.12145e-06
1.35542e-06
1.47771e-06
1.47691e-06
-4.95426e-09
1.35401e-06
1.12315e-06
8.1691e-07
4.3963e-07
7.36924e-07
1.12049e-06
1.41572e-06
1.63151e-06
1.74467e-06
1.74431e-06
-5.20724e-09
1.62623e-06
1.4143e-06
1.12377e-06
7.46821e-07
9.81312e-07
1.35388e-06
1.63083e-06
1.82857e-06
1.93178e-06
1.93171e-06
-5.90023e-09
1.82015e-06
1.62668e-06
1.35497e-06
9.89763e-07
1.11077e-06
1.47691e-06
1.74431e-06
1.93171e-06
2.0291e-06
2.0291e-06
-6.36985e-09
1.92116e-06
1.73783e-06
1.47564e-06
1.11651e-06
1.11185e-06
1.47771e-06
1.74468e-06
1.93178e-06
2.0291e-06
2.0291e-06
-6.43148e-09
1.92111e-06
1.73757e-06
1.47515e-06
1.1159e-06
9.83374e-07
1.35542e-06
1.63151e-06
1.82857e-06
1.93171e-06
1.93178e-06
-5.99011e-09
1.82015e-06
1.62623e-06
1.354e-06
9.88544e-07
7.38424e-07
1.12145e-06
1.41572e-06
1.63083e-06
1.74431e-06
1.74467e-06
-5.09778e-09
1.62668e-06
1.4143e-06
1.12315e-06
7.45919e-07
4.31657e-07
8.11591e-07
1.12049e-06
1.35388e-06
1.47691e-06
1.47771e-06
-4.55858e-09
1.35497e-06
1.12377e-06
8.1691e-07
4.39297e-07
1.55825e-07
4.31119e-07
7.36924e-07
9.81311e-07
1.11077e-06
1.11185e-06
-4.66518e-09
9.89763e-07
7.46821e-07
4.39629e-07
1.59585e-07
)
;
    }
    procBoundary3to4
    {
        type            processor;
        value           nonuniform List<scalar> 
109
(
-1.93772e-07
-5.04705e-07
-8.11788e-07
-1.02984e-06
-1.13773e-06
-1.13771e-06
-1.02979e-06
-8.11748e-07
-5.04693e-07
-1.93773e-07
-5.04692e-07
-8.65444e-07
-1.1505e-06
-1.35444e-06
-1.45801e-06
-1.45798e-06
-1.35439e-06
-1.15047e-06
-8.65444e-07
-5.04705e-07
-8.11748e-07
-1.15047e-06
-1.41095e-06
-1.59302e-06
-1.68573e-06
-1.68571e-06
-1.59299e-06
-1.41095e-06
-1.1505e-06
-8.11788e-07
-1.02979e-06
-1.35439e-06
-1.59299e-06
-1.75785e-06
-1.8424e-06
-1.84239e-06
-1.75785e-06
-1.59302e-06
-1.35444e-06
-1.02984e-06
-1.13771e-06
-1.45798e-06
-1.68571e-06
-1.84239e-06
-1.92283e-06
-1.92283e-06
-1.8424e-06
-1.68573e-06
-1.45801e-06
-1.13773e-06
-1.13773e-06
-1.45801e-06
-1.68573e-06
-1.8424e-06
-1.92283e-06
-1.92283e-06
9.07086e-09
-1.84239e-06
9.64827e-09
-1.68571e-06
1.01423e-08
-1.45798e-06
9.89309e-09
-1.13771e-06
7.79055e-09
-1.02984e-06
-1.35444e-06
-1.59302e-06
-1.75785e-06
-1.84239e-06
-2.97335e-13
-1.82639e-06
-1.74439e-06
-1.5847e-06
-1.35374e-06
-1.0372e-06
-8.11788e-07
-1.1505e-06
-1.41095e-06
-1.59299e-06
-1.68571e-06
-5.68067e-12
-1.67386e-06
-1.58472e-06
-1.40952e-06
-1.15654e-06
-8.25523e-07
-5.04704e-07
-8.65444e-07
-1.15047e-06
-1.35439e-06
-1.45798e-06
-1.02065e-11
-1.45317e-06
-1.35377e-06
-1.15655e-06
-8.77411e-07
-5.20638e-07
-1.93772e-07
-5.04692e-07
-8.11748e-07
-1.02979e-06
-1.13771e-06
-1.16396e-11
-1.14205e-06
-1.03723e-06
-8.25546e-07
-5.20645e-07
-2.032e-07
)
;
    }
}


// ************************************************************************* //
