/*--------------------------------*- C++ -*----------------------------------*\
| =========                 |                                                 |
| \\      /  F ield         | OpenFOAM: The Open Source CFD Toolbox           |
|  \\    /   O peration     | Version:  2212                                  |
|   \\  /    A nd           | Website:  www.openfoam.com                      |
|    \\/     M anipulation  |                                                 |
\*---------------------------------------------------------------------------*/
FoamFile
{
    version     2.0;
    format      ascii;
    arch        "LSB;label=32;scalar=64";
    class       volVectorField;
    location    "1";
    object      U;
}
// * * * * * * * * * * * * * * * * * * * * * * * * * * * * * * * * * * * * * //

dimensions      [0 1 -1 0 0 0 0];

internalField   nonuniform List<vector> 
680
(
(0.0566871 0.000324893 0.00032206)
(0.0545535 0.000254591 0.000249979)
(0.0527034 0.000205204 0.000197664)
(0.051069 0.00017082 0.000158208)
(0.049614 0.000147506 0.000126872)
(0.0483079 0.000130956 9.88387e-05)
(0.0471253 0.000120433 6.99418e-05)
(0.0775697 0.00104148 0.000691332)
(0.0755623 0.000944443 0.000559198)
(0.0737586 0.000868628 0.000477718)
(0.0721139 0.000797926 0.000428628)
(0.0706013 0.000727582 0.00039812)
(0.0692036 0.00066363 0.000381016)
(0.0679097 0.000611355 0.000374194)
(0.0898589 0.00170437 0.00115931)
(0.0884631 0.00160309 0.0010688)
(0.087172 0.00149148 0.000996587)
(0.08598 0.00137906 0.000948053)
(0.0848746 0.00127163 0.00091936)
(0.0838405 0.00116696 0.000905472)
(0.0828709 0.00105788 0.000900817)
(0.0952007 0.00137351 0.0013724)
(0.0945739 0.00132411 0.00128628)
(0.0939315 0.00124691 0.00123188)
(0.0933073 0.00114764 0.00119572)
(0.0927005 0.00103628 0.00117444)
(0.0921031 0.000918369 0.00116654)
(0.0915103 0.000791758 0.00117027)
(0.0968304 0.00043706 0.00138892)
(0.0965292 0.000427211 0.00127076)
(0.0962724 0.000413145 0.00120092)
(0.0959943 0.00038572 0.0011751)
(0.095694 0.000344989 0.00117575)
(0.0953673 0.000292178 0.00118991)
(0.0949973 0.000225324 0.00121727)
(0.0968277 -0.000442307 0.00138957)
(0.0965246 -0.000436042 0.00127197)
(0.0962646 -0.000427897 0.00120306)
(0.0959809 -0.000410256 0.00117869)
(0.0956712 -0.000385605 0.00118176)
(0.095328 -0.000359499 0.00120072)
(0.0949284 -0.000338908 0.00123891)
(0.0951946 -0.00137607 0.00137315)
(0.0945633 -0.00132844 0.00128789)
(0.0939135 -0.00125376 0.00123534)
(0.0932771 -0.00115836 0.00120211)
(0.0926495 -0.00105301 0.00118646)
(0.0920171 -0.000945583 0.00118716)
(0.0898531 -0.00170284 0.00116089)
(0.0884531 -0.0016005 0.00107135)
(0.0871554 -0.00148716 0.00100082)
(0.0859522 -0.00137183 0.000954789)
(0.0848279 -0.00125977 0.000931046)
(0.0837629 -0.00114809 0.000925736)
(0.0775672 -0.00103798 0.000693192)
(0.0755579 -0.000938478 0.000562262)
(0.0737511 -0.00085849 0.00048282)
(0.0721006 -0.000780737 0.000438276)
(0.0705777 -0.000699197 0.000414463)
(0.0691634 -0.000617657 0.000401811)
(0.0566871 -0.000322073 0.000324881)
(0.0545535 -0.000249993 0.000254577)
(0.0527034 -0.000197679 0.000205188)
(0.051069 -0.000158225 0.000170802)
(0.049614 -0.000126891 0.000147486)
(0.0483079 -9.88562e-05 0.000130932)
(0.0775672 0.000693199 0.00103797)
(0.0755579 0.00056227 0.000938467)
(0.0737511 0.000482829 0.000858478)
(0.0721006 0.000438288 0.000780722)
(0.0705777 0.000414476 0.000699182)
(0.0691634 0.000401826 0.000617644)
(0.0678444 0.00039845 0.000535068)
(0.0931662 0.00107167 0.00106819)
(0.0920807 0.000856532 0.000850618)
(0.0911214 0.000706082 0.00069599)
(0.0902735 0.000597218 0.000579365)
(0.0895143 0.000517176 0.000488233)
(0.088826 0.000460458 0.000417268)
(0.0882111 0.000420472 0.000354827)
(0.0991868 0.00166502 0.00157468)
(0.0986943 0.00146146 0.0013885)
(0.0982506 0.00129399 0.00124807)
(0.0978636 0.00115508 0.00114388)
(0.0975312 0.0010393 0.00106816)
(0.0972507 0.000940144 0.00101062)
(0.0970223 0.000849225 0.000961793)
(0.102279 0.0014577 0.00196523)
(0.102282 0.00130083 0.00180343)
(0.102277 0.00114948 0.00165512)
(0.102273 0.00101635 0.00154799)
(0.102278 0.000899506 0.00147398)
(0.102294 0.000791444 0.00142411)
(0.10232 0.000682772 0.00139332)
(0.103427 0.000546411 0.00204579)
(0.103679 0.000499081 0.001938)
(0.103896 0.000452916 0.0018349)
(0.104091 0.000403499 0.00174084)
(0.104276 0.000350652 0.0016618)
(0.10445 0.00029623 0.00161556)
(0.104604 0.000235306 0.00160487)
(0.103425 -0.000550479 0.00204687)
(0.103676 -0.000505924 0.00193966)
(0.103891 -0.000464568 0.00183762)
(0.104082 -0.00042303 0.00174518)
(0.104261 -0.000382982 0.00166944)
(0.104423 -0.000347926 0.00162948)
(0.104559 -0.000317613 0.00162847)
(0.102274 -0.00145868 0.00196772)
(0.102275 -0.00130233 0.00180719)
(0.102264 -0.00115222 0.00166118)
(0.102253 -0.0010209 0.00155856)
(0.102244 -0.000906938 0.00149202)
(0.102237 -0.000801267 0.00145476)
(0.0991835 -0.00166275 0.00157774)
(0.0986886 -0.00145757 0.00139368)
(0.0982408 -0.00128728 0.0012567)
(0.0978473 -0.00114427 0.00115832)
(0.097504 -0.00102116 0.00109195)
(0.0972077 -0.000908991 0.0010495)
(0.0931662 -0.0010682 0.00107166)
(0.0920807 -0.000850629 0.000856521)
(0.0911214 -0.000696004 0.000706069)
(0.0902735 -0.000579382 0.000597202)
(0.0895143 -0.000488252 0.000517157)
(0.088826 -0.00041728 0.00046043)
(0.0775697 -0.000691338 0.00104147)
(0.0755623 -0.000559205 0.000944432)
(0.0737586 -0.000477726 0.000868614)
(0.0721139 -0.000428639 0.000797909)
(0.0706013 -0.000398135 0.000727563)
(0.0692036 -0.000381032 0.000663607)
(0.0898531 0.00116089 0.00170283)
(0.0884531 0.00107136 0.00160049)
(0.0871554 0.00100083 0.00148715)
(0.0859522 0.000954799 0.00137182)
(0.0848279 0.000931056 0.00125976)
(0.0837629 0.000925746 0.00114808)
(0.0827422 0.000935687 0.00102846)
(0.0991835 0.00157775 0.00166274)
(0.0986886 0.00139369 0.00145756)
(0.0982408 0.0012567 0.00128727)
(0.0978473 0.00115833 0.00114426)
(0.097504 0.00109197 0.00102115)
(0.0972077 0.00104951 0.000908983)
(0.0969565 0.00102473 0.000797269)
(0.102716 0.00187044 0.00186726)
(0.102743 0.00167342 0.00166824)
(0.102759 0.0015087 0.00150024)
(0.102782 0.00137295 0.00135922)
(0.102822 0.00126209 0.00123997)
(0.102884 0.00117218 0.00113675)
(0.102973 0.00109865 0.00104238)
(0.104392 0.00149065 0.00205185)
(0.10482 0.00134361 0.0019041)
(0.1052 0.00120744 0.00176458)
(0.105546 0.0010865 0.00164218)
(0.105871 0.000980751 0.0015384)
(0.106188 0.000886811 0.00145236)
(0.106502 0.000799947 0.00138147)
(0.105007 0.000557615 0.00207992)
(0.105643 0.000507512 0.00198197)
(0.106216 0.000457812 0.00187614)
(0.106739 0.000410913 0.00177471)
(0.10722 0.000367085 0.00168622)
(0.107671 0.000325309 0.00161739)
(0.108104 0.000282863 0.0015708)
(0.105006 -0.00055966 0.00208113)
(0.10564 -0.000510844 0.00198387)
(0.106212 -0.000463283 0.00187923)
(0.106733 -0.000419795 0.00177987)
(0.107212 -0.000381192 0.00169492)
(0.107658 -0.000346976 0.00163177)
(0.108086 -0.000315409 0.00159358)
(0.104389 -0.00148987 0.00205482)
(0.104817 -0.00134236 0.00190873)
(0.105194 -0.00120559 0.00177188)
(0.105536 -0.00108371 0.00165408)
(0.105857 -0.000976457 0.00155766)
(0.106165 -0.000879602 0.00148383)
(0.102716 -0.00186727 0.00187043)
(0.102743 -0.00166825 0.00167342)
(0.102759 -0.00150025 0.00150869)
(0.102782 -0.00135923 0.00137294)
(0.102822 -0.00123999 0.00126209)
(0.102884 -0.00113676 0.00117218)
(0.0991868 -0.00157469 0.00166502)
(0.0986943 -0.00138851 0.00146146)
(0.0982506 -0.00124808 0.00129398)
(0.0978636 -0.00114389 0.00115507)
(0.0975312 -0.00106818 0.00103929)
(0.0972507 -0.00101064 0.000940131)
(0.0898589 -0.00115932 0.00170437)
(0.0884631 -0.0010688 0.00160308)
(0.087172 -0.000996595 0.00149147)
(0.08598 -0.000948062 0.00137905)
(0.0848746 -0.000919372 0.00127161)
(0.0838404 -0.000905489 0.00116695)
(0.0951946 0.00137315 0.00137606)
(0.0945633 0.00128789 0.00132843)
(0.0939135 0.00123534 0.00125375)
(0.0932771 0.00120211 0.00115835)
(0.0926495 0.00118646 0.001053)
(0.0920171 0.00118716 0.000945571)
(0.0913645 0.00120551 0.000836531)
(0.102274 0.00196772 0.00145867)
(0.102275 0.00180719 0.00130232)
(0.102264 0.00166118 0.00115221)
(0.102253 0.00155856 0.00102089)
(0.102244 0.00149202 0.000906925)
(0.102237 0.00145476 0.000801254)
(0.102229 0.00144552 0.000696165)
(0.104389 0.00205482 0.00148987)
(0.104817 0.00190873 0.00134235)
(0.105194 0.00177189 0.00120558)
(0.105536 0.00165408 0.0010837)
(0.105857 0.00155766 0.000976444)
(0.106165 0.00148382 0.000879588)
(0.106466 0.00143252 0.000788109)
(0.105224 0.00152668 0.00152508)
(0.105939 0.00142745 0.00142493)
(0.106594 0.00132307 0.00131912)
(0.1072 0.00122416 0.00121789)
(0.107764 0.00113587 0.00112595)
(0.108297 0.00105996 0.0010443)
(0.108807 0.000996491 0.000972045)
(0.105515 0.000557441 0.00150825)
(0.106366 0.00052364 0.00144472)
(0.107163 0.00048628 0.00136882)
(0.107906 0.00044961 0.00128929)
(0.1086 0.000415957 0.00121288)
(0.109251 0.000386146 0.00114448)
(0.109869 0.000359676 0.0010877)
(0.105515 -0.000557515 0.00150908)
(0.106366 -0.000523828 0.00144601)
(0.107162 -0.000486642 0.00137084)
(0.107905 -0.000450169 0.00129246)
(0.108598 -0.000416657 0.00121785)
(0.109248 -0.000386788 0.00115219)
(0.109865 -0.000360059 0.00109958)
(0.105224 -0.00152509 0.00152668)
(0.105939 -0.00142494 0.00142745)
(0.106594 -0.00131913 0.00132307)
(0.1072 -0.00121791 0.00122416)
(0.107764 -0.00112596 0.00113588)
(0.108297 -0.00104432 0.00105997)
(0.104392 -0.00205186 0.00149064)
(0.10482 -0.00190411 0.00134361)
(0.1052 -0.00176459 0.00120744)
(0.105545 -0.00164219 0.0010865)
(0.105871 -0.00153842 0.000980747)
(0.106188 -0.00145238 0.000886809)
(0.102279 -0.00196524 0.00145769)
(0.102282 -0.00180344 0.00130083)
(0.102277 -0.00165513 0.00114947)
(0.102273 -0.001548 0.00101634)
(0.102278 -0.00147399 0.000899496)
(0.102294 -0.00142413 0.000791435)
(0.0952007 -0.0013724 0.0013735)
(0.0945738 -0.00128628 0.0013241)
(0.0939314 -0.00123189 0.0012469)
(0.0933073 -0.00119572 0.00114763)
(0.0927005 -0.00117444 0.00103626)
(0.0921031 -0.00116655 0.000918352)
(0.0968277 0.00138957 0.000442301)
(0.0965246 0.00127197 0.000436035)
(0.0962646 0.00120306 0.000427888)
(0.0959809 0.00117869 0.000410245)
(0.0956712 0.00118176 0.000385592)
(0.095328 0.00120071 0.000359484)
(0.0949284 0.0012389 0.000338889)
(0.103425 0.00204687 0.000550471)
(0.103676 0.00193966 0.000505914)
(0.103891 0.00183762 0.000464557)
(0.104082 0.00174518 0.000423017)
(0.104261 0.00166943 0.000382968)
(0.104423 0.00162947 0.00034791)
(0.104559 0.00162845 0.000317597)
(0.105006 0.00208113 0.000559652)
(0.10564 0.00198387 0.000510835)
(0.106212 0.00187923 0.000463273)
(0.106733 0.00177987 0.000419784)
(0.107212 0.00169492 0.00038118)
(0.107658 0.00163176 0.000346965)
(0.108086 0.00159356 0.000315399)
(0.105515 0.00150908 0.000557507)
(0.106366 0.00144601 0.000523819)
(0.107162 0.00137084 0.000486631)
(0.107905 0.00129245 0.000450157)
(0.108598 0.00121784 0.000416644)
(0.109248 0.00115217 0.000386775)
(0.109865 0.00109956 0.000360049)
(0.105676 0.000546092 0.000545816)
(0.106626 0.000523907 0.000523504)
(0.107529 0.000496909 0.000496315)
(0.108382 0.00046852 0.00046763)
(0.109184 0.000441175 0.000439822)
(0.10994 0.000416514 0.000414447)
(0.110656 0.000395586 0.000392472)
(0.105676 -0.000545824 0.000546095)
(0.106626 -0.000523514 0.000523911)
(0.107529 -0.000496327 0.000496915)
(0.108382 -0.000467644 0.000468528)
(0.109184 -0.000439838 0.000441185)
(0.10994 -0.000414465 0.000416527)
(0.110656 -0.00039249 0.000395603)
(0.105515 -0.00150826 0.000557442)
(0.106366 -0.00144473 0.000523642)
(0.107163 -0.00136884 0.000486283)
(0.107906 -0.0012893 0.000449613)
(0.1086 -0.0012129 0.000415962)
(0.109251 -0.0011445 0.000386151)
(0.105007 -0.00207993 0.000557615)
(0.105643 -0.00198198 0.000507512)
(0.106216 -0.00187615 0.000457812)
(0.106739 -0.00177472 0.000410912)
(0.10722 -0.00168624 0.000367085)
(0.107671 -0.00161741 0.000325309)
(0.103427 -0.00204579 0.000546408)
(0.103679 -0.001938 0.000499078)
(0.103896 -0.00183491 0.000452913)
(0.104091 -0.00174085 0.000403495)
(0.104276 -0.00166181 0.000350648)
(0.10445 -0.00161558 0.000296225)
(0.0968304 -0.00138892 0.000437056)
(0.0965291 -0.00127077 0.000427206)
(0.0962724 -0.00120093 0.00041314)
(0.0959943 -0.0011751 0.000385713)
(0.0956939 -0.00117576 0.000344981)
(0.0953672 -0.00118991 0.00029217)
(0.0968304 0.00138892 -0.000437066)
(0.0965291 0.00127077 -0.000427218)
(0.0962724 0.00120092 -0.000413155)
(0.0959943 0.0011751 -0.000385732)
(0.095694 0.00117575 -0.000345005)
(0.0953672 0.0011899 -0.000292199)
(0.0949973 0.00121727 -0.000225351)
(0.103427 0.00204579 -0.000546418)
(0.103679 0.001938 -0.000499089)
(0.103896 0.0018349 -0.000452926)
(0.104091 0.00174084 -0.000403511)
(0.104276 0.00166179 -0.000350667)
(0.10445 0.00161555 -0.000296247)
(0.104604 0.00160486 -0.000235327)
(0.105007 0.00207992 -0.000557623)
(0.105643 0.00198196 -0.000507521)
(0.106216 0.00187613 -0.000457822)
(0.106739 0.0017747 -0.000410924)
(0.10722 0.00168621 -0.000367098)
(0.107671 0.00161737 -0.000325323)
(0.108104 0.00157078 -0.000282878)
(0.105515 0.00150825 -0.000557448)
(0.106366 0.00144472 -0.000523649)
(0.107163 0.00136882 -0.000486291)
(0.107906 0.00128928 -0.000449622)
(0.1086 0.00121286 -0.000415971)
(0.109251 0.00114445 -0.000386161)
(0.109869 0.00108767 -0.00035969)
(0.105676 0.000545812 -0.0005461)
(0.106626 0.000523498 -0.000523917)
(0.107529 0.000496307 -0.000496921)
(0.108382 0.000467618 -0.000468535)
(0.109184 0.000439805 -0.000441193)
(0.10994 0.000414424 -0.000416535)
(0.110656 0.000392441 -0.00039561)
(0.105676 -0.000546104 -0.00054582)
(0.106626 -0.000523922 -0.000523509)
(0.107529 -0.000496929 -0.00049632)
(0.108382 -0.000468546 -0.000467636)
(0.109184 -0.000441208 -0.000439828)
(0.10994 -0.000416554 -0.000414453)
(0.110656 -0.000395636 -0.000392477)
(0.105515 -0.00150909 -0.000557511)
(0.106366 -0.00144602 -0.000523824)
(0.107162 -0.00137086 -0.000486637)
(0.107905 -0.00129248 -0.000450163)
(0.108598 -0.00121787 -0.000416651)
(0.109248 -0.00115221 -0.000386783)
(0.105006 -0.00208114 -0.000559657)
(0.10564 -0.00198388 -0.000510841)
(0.106212 -0.00187924 -0.000463279)
(0.106733 -0.00177989 -0.000419791)
(0.107212 -0.00169494 -0.000381188)
(0.107658 -0.0016318 -0.000346974)
(0.103425 -0.00204688 -0.000550478)
(0.103676 -0.00193967 -0.000505922)
(0.103891 -0.00183763 -0.000464567)
(0.104082 -0.00174519 -0.000423028)
(0.104261 -0.00166945 -0.00038298)
(0.104423 -0.0016295 -0.000347924)
(0.0968277 -0.00138958 -0.00044231)
(0.0965245 -0.00127197 -0.000436045)
(0.0962646 -0.00120306 -0.0004279)
(0.0959809 -0.0011787 -0.000410259)
(0.0956712 -0.00118177 -0.000385606)
(0.0953279 -0.00120073 -0.000359499)
(0.0952007 0.0013724 -0.00137351)
(0.0945738 0.00128628 -0.00132412)
(0.0939314 0.00123188 -0.00124692)
(0.0933073 0.00119572 -0.00114765)
(0.0927005 0.00117444 -0.00103629)
(0.0921031 0.00116653 -0.000918389)
(0.0915103 0.00117027 -0.000791786)
(0.102279 0.00196523 -0.0014577)
(0.102282 0.00180343 -0.00130084)
(0.102277 0.00165512 -0.00114949)
(0.102273 0.00154799 -0.00101636)
(0.102278 0.00147397 -0.00089952)
(0.102294 0.0014241 -0.000791462)
(0.10232 0.00139332 -0.000682798)
(0.104392 0.00205185 -0.00149065)
(0.10482 0.0019041 -0.00134362)
(0.1052 0.00176458 -0.00120745)
(0.105546 0.00164217 -0.00108652)
(0.105871 0.0015384 -0.000980767)
(0.106188 0.00145234 -0.000886832)
(0.106502 0.00138145 -0.000799975)
(0.105224 0.00152508 -0.00152669)
(0.105939 0.00142493 -0.00142745)
(0.106594 0.00131911 -0.00132308)
(0.1072 0.00121788 -0.00122417)
(0.107764 0.00112593 -0.00113589)
(0.108297 0.00104428 -0.00105998)
(0.108807 0.000972013 -0.00099652)
(0.105515 0.000557504 -0.00150909)
(0.106366 0.000523814 -0.00144602)
(0.107162 0.000486623 -0.00137085)
(0.107905 0.000450145 -0.00129247)
(0.108598 0.000416627 -0.00121786)
(0.109248 0.00038675 -0.0011522)
(0.109865 0.000360013 -0.00109959)
(0.104617 -0.000582176 -0.00154912)
(0.105515 -0.000557451 -0.00150825)
(0.106366 -0.000523654 -0.00144473)
(0.107163 -0.000486298 -0.00136883)
(0.107906 -0.000449633 -0.00128929)
(0.1086 -0.000415987 -0.00121289)
(0.109251 -0.000386184 -0.00114449)
(0.109869 -0.000359723 -0.00108771)
(0.104446 -0.00160482 -0.0016038)
(0.105224 -0.00152669 -0.00152508)
(0.105939 -0.00142746 -0.00142494)
(0.106594 -0.00132308 -0.00131912)
(0.1072 -0.00122418 -0.0012179)
(0.107764 -0.0011359 -0.00112595)
(0.108297 -0.00106 -0.00104431)
(0.103893 -0.00218692 -0.00163314)
(0.104389 -0.00205483 -0.00148987)
(0.104817 -0.00190874 -0.00134235)
(0.105194 -0.0017719 -0.00120558)
(0.105536 -0.0016541 -0.0010837)
(0.105857 -0.00155768 -0.000976447)
(0.106165 -0.00148385 -0.000879592)
(0.102251 -0.00211783 -0.0016071)
(0.102274 -0.00196773 -0.00145867)
(0.102275 -0.0018072 -0.00130232)
(0.102264 -0.00166119 -0.00115221)
(0.102253 -0.00155857 -0.0010209)
(0.102244 -0.00149204 -0.000906929)
(0.102237 -0.00145478 -0.000801256)
(0.0958637 -0.00149891 -0.00140847)
(0.0951946 -0.00137315 -0.00137607)
(0.0945633 -0.00128789 -0.00132844)
(0.0939135 -0.00123535 -0.00125376)
(0.0932771 -0.00120212 -0.00115836)
(0.0926494 -0.00118647 -0.001053)
(0.092017 -0.00118717 -0.000945576)
(0.0898589 0.00115931 -0.00170438)
(0.0884631 0.0010688 -0.00160309)
(0.087172 0.000996587 -0.00149148)
(0.08598 0.000948052 -0.00137907)
(0.0848746 0.00091936 -0.00127164)
(0.0838404 0.000905472 -0.00116698)
(0.0828708 0.000900818 -0.0010579)
(0.0991868 0.00157469 -0.00166503)
(0.0986943 0.0013885 -0.00146147)
(0.0982506 0.00124807 -0.00129399)
(0.0978636 0.00114388 -0.00115509)
(0.0975312 0.00106816 -0.00103931)
(0.0972507 0.00101062 -0.00094016)
(0.0970223 0.00096179 -0.000849249)
(0.102716 0.00186726 -0.00187044)
(0.102743 0.00166824 -0.00167343)
(0.102759 0.00150024 -0.00150871)
(0.102782 0.00135921 -0.00137296)
(0.102822 0.00123997 -0.00126211)
(0.102884 0.00113673 -0.0011722)
(0.102973 0.00104237 -0.00109868)
(0.104389 0.00148987 -0.00205483)
(0.104817 0.00134235 -0.00190874)
(0.105194 0.00120558 -0.00177189)
(0.105536 0.00108369 -0.00165409)
(0.105857 0.000976431 -0.00155768)
(0.106165 0.000879569 -0.00148385)
(0.106466 0.000788082 -0.00143255)
(0.105006 0.000559651 -0.00208113)
(0.10564 0.000510832 -0.00198388)
(0.106212 0.000463267 -0.00187924)
(0.106733 0.000419775 -0.00177988)
(0.107212 0.000381166 -0.00169494)
(0.107658 0.000346944 -0.00163179)
(0.108086 0.000315368 -0.0015936)
(0.104298 -0.000603504 -0.0021535)
(0.105007 -0.000557623 -0.00207992)
(0.105643 -0.000507522 -0.00198197)
(0.106216 -0.000457826 -0.00187614)
(0.106739 -0.000410931 -0.00177471)
(0.10722 -0.000367109 -0.00168623)
(0.107671 -0.000325341 -0.0016174)
(0.108104 -0.000282904 -0.00157082)
(0.103895 -0.00163364 -0.0021851)
(0.104392 -0.00149065 -0.00205186)
(0.10482 -0.00134362 -0.0019041)
(0.1052 -0.00120746 -0.00176458)
(0.105545 -0.00108652 -0.00164218)
(0.105871 -0.000980773 -0.00153841)
(0.106188 -0.000886841 -0.00145237)
(0.102646 -0.00209341 -0.00209142)
(0.102716 -0.00187044 -0.00186726)
(0.102743 -0.00167343 -0.00166824)
(0.102759 -0.00150871 -0.00150024)
(0.102782 -0.00137296 -0.00135922)
(0.102822 -0.00126211 -0.00123998)
(0.102884 -0.00117221 -0.00113675)
(0.0997088 -0.00182451 -0.00191481)
(0.0991834 -0.00157775 -0.00166274)
(0.0986886 -0.00139369 -0.00145756)
(0.0982408 -0.00125671 -0.00128727)
(0.0978473 -0.00115834 -0.00114426)
(0.097504 -0.00109197 -0.00102115)
(0.0972076 -0.00104952 -0.000908975)
(0.0913637 -0.00127171 -0.00179992)
(0.0898531 -0.00116089 -0.00170284)
(0.0884531 -0.00107136 -0.00160049)
(0.0871553 -0.00100083 -0.00148715)
(0.0859521 -0.000954801 -0.00137183)
(0.0848279 -0.00093106 -0.00125976)
(0.0837629 -0.000925752 -0.00114808)
(0.0775697 0.000691332 -0.00104148)
(0.0755623 0.000559198 -0.000944438)
(0.0737586 0.000477716 -0.000868623)
(0.0721139 0.000428626 -0.00079792)
(0.0706013 0.000398118 -0.000727575)
(0.0692035 0.000381013 -0.000663624)
(0.0679097 0.000374192 -0.000611349)
(0.0931661 0.00106819 -0.00107167)
(0.0920807 0.000850621 -0.000856532)
(0.0911214 0.000695993 -0.000706081)
(0.0902735 0.000579367 -0.000597216)
(0.0895143 0.000488233 -0.000517175)
(0.088826 0.000417266 -0.000460458)
(0.0882111 0.000354825 -0.000420476)
(0.0991835 0.00166274 -0.00157775)
(0.0986886 0.00145756 -0.00139369)
(0.0982408 0.00128727 -0.00125671)
(0.0978473 0.00114426 -0.00115834)
(0.097504 0.00102115 -0.00109197)
(0.0972077 0.000908975 -0.00104952)
(0.0969564 0.000797255 -0.00102475)
(0.102274 0.00145867 -0.00196773)
(0.102275 0.00130232 -0.0018072)
(0.102264 0.00115221 -0.00166118)
(0.102253 0.00102089 -0.00155857)
(0.102244 0.000906921 -0.00149204)
(0.102237 0.000801246 -0.00145478)
(0.102229 0.000696149 -0.00144555)
(0.103425 0.000550474 -0.00204687)
(0.103676 0.000505916 -0.00193967)
(0.103891 0.000464558 -0.00183762)
(0.104082 0.000423016 -0.00174519)
(0.104261 0.000382964 -0.00166945)
(0.104423 0.000347902 -0.00162949)
(0.104559 0.00031758 -0.00162848)
(0.103124 -0.000593045 -0.00213489)
(0.103427 -0.000546415 -0.00204579)
(0.103679 -0.000499088 -0.001938)
(0.103896 -0.000452926 -0.0018349)
(0.104091 -0.000403512 -0.00174085)
(0.104276 -0.00035067 -0.00166181)
(0.10445 -0.000296253 -0.00161557)
(0.104604 -0.000235338 -0.00160489)
(0.102254 -0.00160653 -0.0021162)
(0.102279 -0.0014577 -0.00196523)
(0.102282 -0.00130084 -0.00180343)
(0.102277 -0.00114949 -0.00165512)
(0.102273 -0.00101636 -0.00154799)
(0.102278 -0.000899521 -0.00147398)
(0.102294 -0.000791466 -0.00142412)
(0.0997107 -0.00191631 -0.00182276)
(0.0991868 -0.00166502 -0.00157468)
(0.0986942 -0.00146147 -0.0013885)
(0.0982506 -0.00129399 -0.00124807)
(0.0978636 -0.00115509 -0.00114388)
(0.0975312 -0.00103931 -0.00106816)
(0.0972507 -0.00094016 -0.00101062)
(0.0943941 -0.00138341 -0.00138133)
(0.0931661 -0.00107167 -0.00106819)
(0.0920807 -0.000856531 -0.000850618)
(0.0911214 -0.000706082 -0.000695991)
(0.0902735 -0.00059722 -0.000579366)
(0.0895143 -0.00051718 -0.000488232)
(0.088826 -0.000460458 -0.000417258)
(0.0798655 -0.000897675 -0.00117788)
(0.0775672 -0.000693195 -0.00103798)
(0.0755579 -0.000562267 -0.000938472)
(0.0737511 -0.000482828 -0.000858482)
(0.0721006 -0.000438289 -0.000780727)
(0.0705777 -0.000414478 -0.000699185)
(0.0691634 -0.000401829 -0.000617644)
(0.0566871 0.000322065 -0.000324888)
(0.0545535 0.000249985 -0.000254585)
(0.0527034 0.00019767 -0.000205198)
(0.051069 0.000158214 -0.000170812)
(0.049614 0.000126877 -0.000147497)
(0.0483079 9.88424e-05 -0.000130946)
(0.0471253 6.99439e-05 -0.000120421)
(0.0775672 0.00103798 -0.000693198)
(0.0755579 0.000938476 -0.000562269)
(0.0737511 0.000858487 -0.000482828)
(0.0721006 0.000780732 -0.000438286)
(0.0705777 0.000699191 -0.000414474)
(0.0691634 0.000617652 -0.000401823)
(0.0678444 0.000535072 -0.000398446)
(0.0898531 0.00170284 -0.00116089)
(0.0884531 0.00160049 -0.00107136)
(0.0871554 0.00148715 -0.00100083)
(0.0859521 0.00137183 -0.000954799)
(0.0848279 0.00125976 -0.000931056)
(0.0837629 0.00114808 -0.000925747)
(0.0827422 0.00102845 -0.00093569)
(0.0951946 0.00137606 -0.00137315)
(0.0945633 0.00132843 -0.00128789)
(0.0939135 0.00125376 -0.00123535)
(0.0932771 0.00115835 -0.00120212)
(0.0926495 0.001053 -0.00118647)
(0.092017 0.000945567 -0.00118717)
(0.0913644 0.000836522 -0.00120552)
(0.0968277 0.000442305 -0.00138957)
(0.0965246 0.000436039 -0.00127197)
(0.0962646 0.000427893 -0.00120306)
(0.0959809 0.00041025 -0.00117869)
(0.0956712 0.000385595 -0.00118177)
(0.095328 0.000359484 -0.00120072)
(0.0949283 0.000338887 -0.00123891)
(0.0971808 -0.000449779 -0.00154746)
(0.0968304 -0.000437062 -0.00138892)
(0.0965291 -0.000427214 -0.00127076)
(0.0962724 -0.000413149 -0.00120092)
(0.0959943 -0.000385725 -0.0011751)
(0.095694 -0.000344998 -0.00117575)
(0.0953672 -0.000292191 -0.00118991)
(0.0949973 -0.000225344 -0.00121728)
(0.0958673 -0.00140689 -0.00149847)
(0.0952007 -0.00137351 -0.00137239)
(0.0945738 -0.00132411 -0.00128627)
(0.0939314 -0.00124692 -0.00123188)
(0.0933073 -0.00114765 -0.00119571)
(0.0927005 -0.00103629 -0.00117444)
(0.0921031 -0.00091838 -0.00116654)
(0.0913671 -0.00180085 -0.00127077)
(0.0898589 -0.00170437 -0.00115931)
(0.0884631 -0.00160309 -0.00106879)
(0.087172 -0.00149148 -0.000996584)
(0.08598 -0.00137906 -0.000948049)
(0.0848746 -0.00127163 -0.000919357)
(0.0838404 -0.00116697 -0.000905471)
(0.0798669 -0.00117991 -0.000896495)
(0.0775697 -0.00104148 -0.000691329)
(0.0755623 -0.000944439 -0.000559195)
(0.0737586 -0.000868625 -0.000477714)
(0.0721139 -0.000797922 -0.000428624)
(0.0706013 -0.000727578 -0.000398115)
(0.0692036 -0.000663626 -0.000381009)
(0.0592222 -0.000426882 -0.000425191)
(0.0566871 -0.000324889 -0.000322062)
(0.0545535 -0.000254588 -0.000249981)
(0.0527034 -0.000205201 -0.000197664)
(0.051069 -0.000170818 -0.000158207)
(0.049614 -0.000147504 -0.000126868)
(0.0483079 -0.000130952 -9.88298e-05)
)
;

boundaryField
{
    inlet
    {
        type            fixedValue;
        value           nonuniform List<vector> 0();
    }
    ami1
    {
        type            cyclicAMI;
        value           nonuniform List<vector> 0();
    }
    walls
    {
        type            noSlip;
    }
    ami2
    {
        type            cyclicAMI;
        value           nonuniform List<vector> 0();
    }
    outlet
    {
        type            zeroGradient;
    }
    procBoundary3to2
    {
        type            processor;
        value           nonuniform List<vector> 
110
(
(0.0460627 0.000116351 3.34906e-05)
(0.0667219 0.000564002 0.000368242)
(0.0819684 0.000935145 0.000899385)
(0.0909179 0.000647953 0.00118256)
(0.094572 0.000143533 0.00126702)
(0.0944523 -0.000332726 0.0013079)
(0.0913645 -0.000836542 0.00120551)
(0.0913645 -0.000836542 0.00120551)
(0.0827422 -0.00102846 0.000935676)
(0.0678444 -0.00053508 0.000398435)
(0.0471253 -6.99632e-05 0.000120409)
(0.0666144 0.000407357 0.000436547)
(0.0876751 0.000389329 0.000281871)
(0.0968484 0.000757183 0.000915345)
(0.102361 0.000560942 0.00137777)
(0.104739 0.000161395 0.00161922)
(0.10467 -0.000292126 0.00165729)
(0.102229 -0.000696184 0.00144554)
(0.102229 -0.000696184 0.00144554)
(0.0969565 -0.000797289 0.00102473)
(0.0882111 -0.000354852 0.000420457)
(0.0679097 -0.00037421 0.000611326)
(0.0817547 0.000960898 0.000889686)
(0.0967482 0.00101835 0.000676071)
(0.103091 0.00103663 0.000948676)
(0.106819 0.000716818 0.00132197)
(0.108523 0.000237091 0.00154577)
(0.108496 -0.000286745 0.00158161)
(0.106466 -0.000788126 0.00143253)
(0.106466 -0.000788126 0.00143253)
(0.102973 -0.00104241 0.00109865)
(0.0970223 -0.000961822 0.000849214)
(0.0828709 -0.000900838 0.00105786)
(0.0906708 0.00124612 0.000718138)
(0.102217 0.00146678 0.000583508)
(0.106766 0.00140345 0.000699631)
(0.109302 0.000944884 0.000907502)
(0.110462 0.000334483 0.00104583)
(0.110458 -0.000335015 0.00106413)
(0.108807 -0.000972062 0.000996504)
(0.108807 -0.000972062 0.000996504)
(0.106502 -0.00138149 0.000799952)
(0.10232 -0.00139335 0.000682763)
(0.0915103 -0.00117029 0.000791741)
(0.0944524 0.00130788 0.000332703)
(0.10467 0.00165726 0.000292109)
(0.108496 0.00158158 0.000286741)
(0.110458 0.0010641 0.00033501)
(0.111341 0.000379022 0.000374517)
(0.111341 -0.000374533 0.000379044)
(0.109869 -0.00108772 0.000359682)
(0.109869 -0.00108772 0.000359682)
(0.108104 -0.00157083 0.000282861)
(0.104604 -0.00160489 0.0002353)
(0.0949973 -0.00121728 0.000225318)
(0.094572 0.00126701 -0.000143567)
(0.104739 0.0016192 -0.000161418)
(0.108523 0.00154573 -0.000237103)
(0.110462 0.00104579 -0.000334495)
(0.111341 0.000374475 -0.000379047)
(0.111341 -0.000379081 -0.000374519)
(0.109865 -0.00109961 -0.000360057)
(0.109865 -0.00109961 -0.000360057)
(0.108085 -0.00159361 -0.00031541)
(0.104559 -0.00162849 -0.000317612)
(0.0949283 -0.00123892 -0.000338905)
(0.0909179 0.00118257 -0.000647994)
(0.102361 0.00137777 -0.000560979)
(0.106819 0.00132195 -0.000716855)
(0.109302 0.000907457 -0.00094492)
(0.110458 0.00033496 -0.00106415)
(0.110462 -0.000334541 -0.00104584)
(0.108807 -0.000996542 -0.000972054)
(0.108807 -0.000996542 -0.000972054)
(0.106466 -0.00143256 -0.000788117)
(0.102229 -0.00144556 -0.00069617)
(0.0913644 -0.00120552 -0.000836532)
(0.0819684 0.000899389 -0.000935175)
(0.0968484 0.000915345 -0.00075722)
(0.103091 0.000948656 -0.00103667)
(0.106766 0.000699593 -0.0014035)
(0.108496 0.000286696 -0.00158163)
(0.108523 -0.000237141 -0.00154578)
(0.106502 -0.00079999 -0.00138148)
(0.106502 -0.00079999 -0.00138148)
(0.102973 -0.00109868 -0.00104239)
(0.0969564 -0.00102476 -0.000797269)
(0.0827422 -0.000935692 -0.00102845)
(0.0667218 0.000368241 -0.000563999)
(0.087675 0.000281869 -0.000389338)
(0.0967481 0.000676052 -0.00101837)
(0.102217 0.000583483 -0.00146681)
(0.10467 0.000292082 -0.00165731)
(0.104739 -0.000161438 -0.00161924)
(0.10232 -0.000682802 -0.00139333)
(0.10232 -0.000682802 -0.00139333)
(0.0970223 -0.000849249 -0.000961797)
(0.0882111 -0.000420486 -0.000354827)
(0.0678444 -0.000398451 -0.000535062)
(0.0460627 3.34916e-05 -0.000116341)
(0.0666143 0.000436549 -0.000407355)
(0.0817547 0.000889673 -0.000960906)
(0.0906708 0.000718122 -0.00124614)
(0.0944523 0.000332695 -0.0013079)
(0.094572 -0.000143566 -0.00126704)
(0.0915103 -0.000791775 -0.00117028)
(0.0915103 -0.000791775 -0.00117028)
(0.0828708 -0.00105788 -0.000900816)
(0.0679097 -0.000611346 -0.000374186)
(0.0471253 -0.00012043 -6.99325e-05)
)
;
    }
    procBoundary3to4
    {
        type            processor;
        value           nonuniform List<vector> 
109
(
(0.0592222 0.000426886 0.000425189)
(0.0798669 0.00117991 0.000896497)
(0.0913671 0.00180085 0.00127077)
(0.0958673 0.00140689 0.00149847)
(0.0971808 0.000449779 0.00154746)
(0.0971792 -0.000452872 0.00154784)
(0.0958637 -0.00140847 0.00149891)
(0.0913637 -0.00179992 0.0012717)
(0.0798655 -0.00117788 0.000897673)
(0.0592222 -0.000425199 0.000426876)
(0.0798655 0.000897679 0.00117787)
(0.0943941 0.00138341 0.00138133)
(0.0997107 0.00191631 0.00182276)
(0.102254 0.00160653 0.00211621)
(0.103124 0.000593041 0.00213489)
(0.103122 -0.000595528 0.00213558)
(0.102251 -0.00160711 0.00211783)
(0.0997088 -0.00191482 0.00182451)
(0.0943941 -0.00138134 0.0013834)