/*--------------------------------*- C++ -*----------------------------------*\
| =========                 |                                                 |
| \\      /  F ield         | OpenFOAM: The Open Source CFD Toolbox           |
|  \\    /   O peration     | Version:  2212                                  |
|   \\  /    A nd           | Website:  www.openfoam.com                      |
|    \\/     M anipulation  |                                                 |
\*---------------------------------------------------------------------------*/
FoamFile
{
    version     2.0;
    format      ascii;
    arch        "LSB;label=32;scalar=64";
    class       surfaceVectorField;
    location    "1";
    object      Uf;
}
// * * * * * * * * * * * * * * * * * * * * * * * * * * * * * * * * * * * * * //

dimensions      [0 1 -1 0 0 0 0];

internalField   nonuniform List<vector> 
1795
(
(0.0556164 0.000289742 0.00028602)
(0.0650535 0.000470148 0.000387231)
(0.0650525 0.00038941 0.000466587)
(0.0536285 0.000229898 0.000223822)
(0.0629704 0.000417335 0.000307547)
(0.0629687 0.000311063 0.000411354)
(0.0518859 0.000188012 0.000177936)
(0.0611389 0.000376248 0.00025457)
(0.0611359 0.000260304 0.000366234)
(0.0503399 0.000159163 0.00014254)
(0.0595004 0.000340367 0.000218873)
(0.0594951 0.000228947 0.000323594)
(0.0489592 0.000139231 0.000112855)
(0.0580223 0.000308867 0.000194087)
(0.0580128 0.000210732 0.000281222)
(0.0477165 0.000125694 8.43902e-05)
(0.0566796 0.000284277 0.000176823)
(0.0566635 0.00020022 0.000239424)
(0.0554524 0.000268516 0.000163475)
(0.0554262 0.000195842 0.000194644)
(0.0765604 0.000992962 0.000625265)
(0.0830642 0.0013709 0.000913507)
(0.0844831 0.000983461 0.000690542)
(0.0746572 0.000906536 0.000518458)
(0.0813302 0.00127737 0.000802101)
(0.0828844 0.000845929 0.000548407)
(0.0729337 0.000833277 0.000453173)
(0.0797557 0.00119208 0.000727323)
(0.0814549 0.000745785 0.000455082)
(0.0713548 0.000762754 0.000413374)
(0.0783134 0.00110877 0.000680846)
(0.0801635 0.000664393 0.00039069)
(0.0699004 0.000695606 0.000389568)
(0.0769829 0.00102664 0.000653029)
(0.0789848 0.000594128 0.0003436)
(0.0685557 0.000637493 0.000377605)
(0.0757477 0.000945786 0.000637874)
(0.0779015 0.000536726 0.000310479)
(0.0745989 0.000866169 0.00063126)
(0.0769087 0.000492677 0.000285534)
(0.0891558 0.00165373 0.00111405)
(0.0923715 0.00157466 0.00126582)
(0.0941511 0.0016436 0.00120357)
(0.0878114 0.00154728 0.00103269)
(0.0913373 0.00147772 0.00117251)
(0.0931709 0.00150295 0.00109554)
(0.086573 0.00143527 0.00097232)
(0.0903514 0.00136471 0.00110441)
(0.0922697 0.00137192 0.00101356)
(0.0854262 0.00132534 0.000933706)
(0.0894264 0.0012492 0.00105945)
(0.0914481 0.00125238 0.000956872)
(0.0843563 0.00121929 0.000912416)
(0.0885556 0.0011337 0.00103273)
(0.0906984 0.00114508 0.0009202)
(0.0833532 0.00111242 0.000903145)
(0.0877268 0.00101784 0.00102046)
(0.0900111 0.00104616 0.0008973)
(0.0869345 0.000896775 0.00101884)
(0.0893825 0.000948326 0.000882265)
(0.0948754 0.00134881 0.00132934)
(0.0959934 0.000912951 0.00137985)
(0.0985133 0.00139014 0.00151547)
(0.0942422 0.00128551 0.00125908)
(0.0955249 0.000895879 0.00127966)
(0.0981813 0.00129494 0.00142043)
(0.0936175 0.00119728 0.0012138)
(0.0950701 0.000858521 0.00121882)
(0.097837 0.00118684 0.00134453)
(0.0930047 0.00109196 0.00118508)
(0.0946143 0.000793174 0.00118756)
(0.0975032 0.00107462 0.00129226)
(0.0924023 0.000977324 0.00117049)
(0.0941565 0.000713078 0.00117659)
(0.0971829 0.000962838 0.00125895)
(0.0918066 0.000855063 0.0011684)
(0.0936908 0.000625072 0.00117921)
(0.0968724 0.000851138 0.00124086)
(0.0932064 0.000526023 0.00119427)
(0.0965694 0.000734298 0.00123655)
(0.0966737 0.000432136 0.00132984)
(0.0968291 -2.76931e-06 0.00138925)
(0.0999392 0.000481599 0.00157296)
(0.0963925 0.000420178 0.00123584)
(0.0965269 -4.66918e-06 0.00127137)
(0.0998986 0.000455338 0.00148213)
(0.096125 0.000399432 0.00118801)
(0.0962685 -7.81961e-06 0.00120199)
(0.0998652 0.000427448 0.00141999)
(0.0958432 0.000365354 0.00117542)
(0.0959876 -1.30532e-05 0.00117689)
(0.09981 0.000390803 0.00138255)
(0.0955334 0.000318583 0.00118283)
(0.0956826 -2.17207e-05 0.00117876)
(0.0997382 0.000345147 0.00135972)
(0.0951855 0.000258751 0.00120359)
(0.0953476 -3.61562e-05 0.00119531)
(0.0996473 0.00029201 0.00135319)
(0.0949629 -6.11235e-05 0.00122809)
(0.0995243 0.000228241 0.00136784)
(0.0966701 -0.000439175 0.00133077)
(0.095989 -0.000916995 0.00138057)
(0.0999367 -0.000486285 0.0015737)
(0.0963864 -0.00043197 0.00123751)
(0.0955173 -0.000902727 0.00128111)
(0.0998945 -0.000463225 0.00148341)
(0.0961146 -0.000419077 0.00119087)
(0.0950571 -0.000869754 0.00122169)
(0.0998583 -0.000440725 0.00142214)
(0.0958255 -0.000397931 0.00118023)
(0.0945923 -0.000811474 0.00119269)
(0.0997984 -0.000412952 0.00138598)
(0.095503 -0.000372552 0.00119124)
(0.0941193 -0.000742778 0.00118585)
(0.0997189 -0.000381803 0.00136551)
(0.095133 -0.000349204 0.00121981)
(0.0936275 -0.000673945 0.00119532)
(0.0996139 -0.000351889 0.00136406)
(0.0994665 -0.000327009 0.00138903)
(0.0948672 -0.00135225 0.00133052)
(0.0923655 -0.00157504 0.00126701)
(0.0985079 -0.00139195 0.00151694)
(0.0942282 -0.0012911 0.00126161)
(0.0913271 -0.00147831 0.0011746)
(0.0981722 -0.00129791 0.00142287)
(0.0935939 -0.00120606 0.00121872)
(0.0903341 -0.00136552 0.00110825)
(0.0978217 -0.0011917 0.00134878)
(0.0929648 -0.00110568 0.00119429)
(0.0893975 -0.00125027 0.00106599)
(0.0974776 -0.0010823 0.00129966)
(0.0923352 -0.000999296 0.00118681)
(0.0885068 -0.00113499 0.00104451)
(0.0971399 -0.000974943 0.00127218)
(0.0876453 -0.00101976 0.00104068)
(0.0968 -0.000869916 0.00126442)
(0.089148 -0.00165167 0.00111612)
(0.0830602 -0.00136817 0.000915198)
(0.0941464 -0.00164172 0.00120584)
(0.0877984 -0.00154383 0.00103609)
(0.0813233 -0.00127281 0.000804894)
(0.0931629 -0.00149975 0.00109926)
(0.0865512 -0.00142949 0.000977806)
(0.0797441 -0.0011844 0.000731979)
(0.0922563 -0.00136649 0.00101977)
(0.0853897 -0.0013158 0.000942917)
(0.0782936 -0.00109567 0.000689053)
(0.0914256 -0.00124354 0.000967286)
(0.0842955 -0.00120393 0.000928391)
(0.076949 -0.00100518 0.000667109)
(0.0906607 -0.00113048 0.000937983)
(0.0756909 -0.000912231 0.000658549)
(0.0899494 -0.00102201 0.000927391)
(0.076557 -0.000988229 0.000627727)
(0.0650525 -0.000466595 0.000389398)
(0.0844817 -0.000980129 0.000693487)
(0.0746514 -0.000898484 0.000522541)
(0.0629687 -0.000411363 0.000311049)
(0.0828819 -0.000840259 0.000553358)
(0.0729236 -0.000819613 0.000460548)
(0.0611359 -0.000366244 0.000260288)
(0.0814508 -0.000736145 0.000463498)
(0.071337 -0.000739967 0.000426369)
(0.0594951 -0.000323605 0.000228929)
(0.0801561 -0.000647734 0.000405888)
(0.0698694 -0.000658427 0.000408137)
(0.0580129 -0.000281232 0.00021071)
(0.0789716 -0.000566939 0.000368893)
(0.0566635 -0.000239429 0.000200194)
(0.0778792 -0.000494644 0.000347424)
(0.0556164 -0.000286033 0.000289729)
(0.0650535 -0.000387242 0.00047014)
(0.0536285 -0.000223836 0.000229883)
(0.0629704 -0.00030756 0.000417325)
(0.0518859 -0.000177952 0.000187995)
(0.0611389 -0.000254585 0.000376237)
(0.0503399 -0.000142558 0.000159144)
(0.0595004 -0.00021889 0.000340355)
(0.0489592 -0.000112873 0.000139209)
(0.0580223 -0.000194108 0.000308854)
(0.0566795 -0.000176844 0.000284261)
(0.076557 0.000627735 0.00098822)
(0.0844817 0.000693491 0.000980118)
(0.0830602 0.000915207 0.00136817)
(0.0746514 0.000522549 0.000898472)
(0.0828819 0.000553363 0.000840246)
(0.0813233 0.000804904 0.0012728)
(0.0729236 0.000460558 0.0008196)
(0.0814508 0.000463503 0.00073613)
(0.0797441 0.000731991 0.00118439)
(0.071337 0.000426382 0.000739952)
(0.0801561 0.000405895 0.000647716)
(0.0782936 0.000689067 0.00109567)
(0.0698694 0.000408151 0.000658413)
(0.0789716 0.000368899 0.000566919)
(0.0769489 0.000667125 0.00100518)
(0.0685039 0.000400138 0.000576356)
(0.0778792 0.000347431 0.000494626)
(0.0756908 0.000658565 0.000912231)
(0.0768723 0.000339545 0.00042596)
(0.0745053 0.000661097 0.000812972)
(0.09262 0.000964102 0.000959403)
(0.0959614 0.00140557 0.00132019)
(0.0959598 0.00132342 0.00140246)
(0.091598 0.000781307 0.000773304)
(0.0951512 0.00119323 0.00111645)
(0.0951486 0.00112193 0.0011879)
(0.0906951 0.00065165 0.000637678)
(0.0944313 0.00103462 0.000968338)
(0.0944267 0.000977595 0.00102555)
(0.0898917 0.000557197 0.000533799)
(0.0937974 0.000913557 0.00085799)
(0.0937898 0.000874046 0.000898213)
(0.0891687 0.000488817 0.00045275)
(0.0932363 0.000819448 0.000774741)
(0.0932237 0.000800996 0.000794468)
(0.0885176 0.000440465 0.000386047)
(0.0927374 0.000744795 0.000710519)
(0.0927174 0.000751242 0.000705551)
(0.0923019 0.000681853 0.000654597)
(0.0922713 0.000718237 0.000619968)
(0.0989361 0.00156324 0.00148159)
(0.100666 0.00158272 0.00176458)
(0.100856 0.0017707 0.00175607)
(0.0984691 0.00137773 0.00131828)
(0.100411 0.00139378 0.00158868)
(0.100609 0.00156972 0.00156121)
(0.0980554 0.00122453 0.00119598)
(0.100177 0.00122636 0.0014431)
(0.100383 0.00140313 0.00140567)
(0.0976962 0.00109719 0.00110602)
(0.0999733 0.00108362 0.00133632)
(0.10019 0.00126535 0.00128223)
(0.0973896 0.000989722 0.00103939)
(0.0998025 0.000962027 0.00126046)
(0.100033 0.00115158 0.00118427)
(0.0971351 0.000894685 0.000986207)
(0.0996637 0.000854583 0.00120587)
(0.0999149 0.00105651 0.00110372)
(0.0995573 0.00075193 0.00116509)
(0.0998366 0.000973546 0.001032)
(0.102278 0.00137927 0.00188433)
(0.102841 0.00101527 0.00200502)
(0.103288 0.00147824 0.002048)
(0.102276 0.00122516 0.00172928)
(0.102967 0.000913131 0.00186977)
(0.103494 0.0013255 0.00188809)
(0.102273 0.00108291 0.00160156)
(0.10307 0.00081588 0.00174383)
(0.103672 0.00118126 0.0017428)
(0.102275 0.000957927 0.00151098)
(0.103164 0.000725277 0.00164323)
(0.103835 0.00105392 0.00162805)
(0.102285 0.000845475 0.00144904)
(0.103257 0.000640127 0.00156679)
(0.103994 0.000942358 0.00153973)
(0.102306 0.000737108 0.00140871)
(0.10335 0.000557622 0.00151863)
(0.104153 0.000841064 0.00147281)
(0.103439 0.000470755 0.00149755)
(0.104317 0.000742815 0.00142297)
(0.103554 0.000522746 0.00199189)
(0.103426 -2.16895e-06 0.00204633)
(0.104185 0.00055349 0.00210683)
(0.103787 0.000475999 0.00188645)
(0.103677 -3.61334e-06 0.00193883)
(0.104621 0.000504492 0.0019949)
(0.103993 0.000428208 0.00178787)
(0.103894 -6.13653e-06 0.00183626)
(0.105009 0.000456402 0.00188444)
(0.104183 0.000377076 0.00170132)
(0.104087 -1.03012e-05 0.00174301)
(0.10536 0.000408083 0.00178401)
(0.104362 0.000323441 0.00163868)
(0.104268 -1.71793e-05 0.00166562)
(0.105688 0.000359563 0.00170051)
(0.104526 0.000265768 0.00161022)
(0.104436 -2.75966e-05 0.00162252)
(0.105994 0.000311288 0.00164567)
(0.104581 -4.37663e-05 0.00161667)
(0.106282 0.000259317 0.00162023)
(0.103551 -0.000528201 0.00199327)
(0.102838 -0.00101778 0.00200683)
(0.104183 -0.000556591 0.00210802)
(0.103782 -0.000485246 0.00188864)
(0.102961 -0.00091733 0.00187251)
(0.104618 -0.000509654 0.00199674)
(0.103985 -0.000443799 0.0017914)
(0.103061 -0.000823221 0.00174827)
(0.105004 -0.000465096 0.00188748)
(0.104171 -0.000403006 0.00170731)
(0.103149 -0.000737705 0.00165079)
(0.105353 -0.000422521 0.00178906)
(0.104341 -0.000365454 0.00164946)
(0.103232 -0.000660604 0.00157981)
(0.105675 -0.000383184 0.00170937)
(0.104491 -0.000332769 0.00162897)
(0.103308 -0.000589017 0.00154118)
(0.105974 -0.000348634 0.00166102)
(0.106249 -0.000317829 0.00164504)
(0.102272 -0.0013805 0.00188746)
(0.100662 -0.00158199 0.00176736)
(0.103284 -0.00147839 0.00205078)
(0.102266 -0.00122727 0.00173418)
(0.100404 -0.00139244 0.00159317)
(0.103488 -0.00132571 0.00189242)
(0.102257 -0.00108656 0.00160987)
(0.100166 -0.00122402 0.00145047)
(0.103663 -0.00118186 0.00174983)
(0.102248 -0.000963921 0.00152529)
(0.0999551 -0.00107963 0.00134881)
(0.10382 -0.00105506 0.00164008)
(0.10224 -0.000854103 0.00147339)
(0.0997721 -0.000955028 0.00128131)
(0.103969 -0.000944364 0.00155985)
(0.099614 -0.000841586 0.00124055)
(0.104112 -0.000843 0.00150596)
(0.0989317 -0.00156016 0.00148571)
(0.0959598 -0.00140247 0.00132342)
(0.100854 -0.00176803 0.00175934)
(0.0984614 -0.00137243 0.00132519)
(0.0951486 -0.00118791 0.00112192)
(0.100606 -0.00156528 0.00156671)
(0.0980424 -0.00121578 0.00120751)
(0.0944267 -0.00102556 0.000977583)
(0.100378 -0.00139571 0.00141477)
(0.0976746 -0.00108272 0.00112514)
(0.0937898 -0.000898223 0.000874031)
(0.100181 -0.00125333 0.00129717)
(0.0973548 -0.000965077 0.00107073)
(0.0932237 -0.000794477 0.000800979)
(0.100019 -0.00113181 0.00120851)
(0.0927174 -0.000705555 0.000751218)
(0.0998923 -0.00102373 0.00114292)
(0.09262 -0.000959414 0.000964092)
(0.0844831 -0.000690547 0.00098345)
(0.0959614 -0.0013202 0.00140556)
(0.091598 -0.000773317 0.000781295)
(0.0828844 -0.000548412 0.000845916)
(0.0951512 -0.00111646 0.00119322)
(0.0906951 -0.000637693 0.000651635)
(0.0814549 -0.000455088 0.00074577)
(0.0944313 -0.000968351 0.00103461)
(0.0898917 -0.000533817 0.000557179)
(0.0801635 -0.000390698 0.000664374)
(0.0937974 -0.000858007 0.000913547)
(0.0891687 -0.000452766 0.000488794)
(0.0789848 -0.000343608 0.000594105)
(0.0932363 -0.00077476 0.000819437)
(0.0779015 -0.000310483 0.000536697)
(0.0927373 -0.000710537 0.000744781)
(0.0765604 -0.000625272 0.000992952)
(0.0830642 -0.000913514 0.00137089)
(0.0746572 -0.000518466 0.000906523)
(0.0813302 -0.000802109 0.00127737)
(0.0729337 -0.000453183 0.000833262)
(0.0797557 -0.000727333 0.00119208)
(0.0713548 -0.000413387 0.000762736)
(0.0783134 -0.000680859 0.00110876)
(0.0699004 -0.000389583 0.000695585)
(0.0769829 -0.000653045 0.00102663)
(0.0757477 -0.000637894 0.000945779)
(0.089148 0.00111613 0.00165166)
(0.0941464 0.00120584 0.00164172)
(0.0923655 0.00126701 0.00157504)
(0.0877984 0.0010361 0.00154382)
(0.0931629 0.00109927 0.00149974)
(0.0913271 0.00117461 0.0014783)
(0.0865512 0.000977816 0.00142949)
(0.0922563 0.00101978 0.00136648)
(0.0903341 0.00110826 0.00136551)
(0.0853897 0.000942928 0.00131579)
(0.0914256 0.000967291 0.00124353)
(0.0893975 0.001066 0.00125026)
(0.0842955 0.000928401 0.00120392)
(0.0906607 0.000937987 0.00113047)
(0.0885068 0.00104451 0.00113498)
(0.0832525 0.000930716 0.00108827)
(0.0899494 0.000927394 0.001022)
(0.0876453 0.00104068 0.00101976)
(0.0892828 0.000932832 0.000909345)
(0.0867978 0.00105338 0.000900155)
(0.0989317 0.00148572 0.00156015)
(0.100854 0.00175934 0.00176802)
(0.100662 0.00176737 0.00158198)
(0.0984614 0.0013252 0.00137241)
(0.100606 0.00156672 0.00156527)
(0.100404 0.00159318 0.00139243)
(0.0980424 0.00120752 0.00121576)
(0.100378 0.00141477 0.0013957)
(0.100166 0.00145047 0.00122401)
(0.0976746 0.00112515 0.0010827)
(0.100181 0.00129717 0.00125332)
(0.0999551 0.00134882 0.00107962)
(0.0973548 0.00107074 0.000965067)
(0.100019 0.00120852 0.0011318)
(0.0997721 0.00128132 0.000955018)
(0.097081 0.00103712 0.000853126)
(0.0998923 0.00114293 0.00102372)
(0.099614 0.00124056 0.000841579)
(0.0998019 0.00109484 0.000920161)
(0.0994793 0.00122257 0.000729422)
(0.102728 0.00177193 0.00176775)
(0.103525 0.00169752 0.00195773)
(0.103524 0.0019608 0.00169542)
(0.102749 0.00159106 0.00158424)
(0.103746 0.00151965 0.00178286)
(0.103745 0.00178776 0.00151623)
(0.102769 0.00144082 0.00142973)
(0.103938 0.00136573 0.00162824)
(0.103935 0.00163612 0.00136024)
(0.102801 0.00131752 0.0012996)
(0.104117 0.00123434 0.00149587)
(0.104112 0.00150866 0.00122548)
(0.102852 0.00121714 0.00118836)
(0.104295 0.00112343 0.00138378)
(0.104288 0.00140443 0.00110923)
(0.102928 0.00113542 0.00108956)
(0.10448 0.00102936 0.00128858)
(0.104469 0.00132197 0.00100649)
(0.104678 0.00094734 0.0012053)
(0.104661 0.00125885 0.000910967)
(0.104607 0.00141713 0.00197798)
(0.104694 0.00103577 0.00206589)
(0.104796 0.00150895 0.00180716)
(0.105011 0.00127553 0.00183434)
(0.105225 0.000934264 0.00194251)
(0.105363 0.00138488 0.0016792)
(0.105372 0.00114697 0.00170338)
(0.1057 0.000838636 0.00181944)
(0.105877 0.00126385 0.00155189)
(0.105708 0.00103363 0.00159029)
(0.106132 0.000753629 0.00170732)
(0.106349 0.00115337 0.00143647)
(0.106029 0.000933781 0.00149538)
(0.106535 0.000678701 0.00161109)
(0.10679 0.00105592 0.001336)
(0.106344 0.000843379 0.00141691)
(0.106917 0.000610801 0.00153353)
(0.107212 0.000970584 0.00125009)
(0.10729 0.000545658 0.00147458)
(0.107621 0.000894957 0.00117685)
(0.105325 0.000532563 0.00203094)
(0.105006 -1.1142e-06 0.00208052)
(0.105255 0.000557705 0.00180899)
(0.10593 0.000482662 0.00192905)
(0.105642 -1.80911e-06 0.00198292)
(0.105995 0.000515547 0.00172824)
(0.106478 0.000434362 0.00182542)
(0.106214 -2.95706e-06 0.00187768)
(0.106677 0.00047182 0.00163561)
(0.10698 0.000388999 0.00173046)
(0.106736 -4.76862e-06 0.00177729)
(0.107307 0.000429835 0.00154215)
(0.107446 0.000346197 0.0016518)
(0.107216 -7.53796e-06 0.00169057)
(0.107892 0.000390884 0.00145641)
(0.107888 0.000304086 0.00159409)
(0.107665 -1.15276e-05 0.00162458)
(0.10844 0.00035486 0.00138479)
(0.108095 -1.73091e-05 0.00158219)
(0.108963 0.000320134 0.00133097)
(0.105323 -0.000535252 0.0020325)
(0.104693 -0.00103641 0.002068)
(0.105254 -0.000558792 0.00181006)
(0.105927 -0.000487063 0.00193155)
(0.105222 -0.000935317 0.0019458)
(0.105993 -0.000517351 0.00172991)
(0.106473 -0.000441539 0.00182955)
(0.105695 -0.000840494 0.00182467)
(0.106675 -0.000474807 0.00163828)
(0.106973 -0.000400493 0.0017374)
(0.106125 -0.000756825 0.00171592)
(0.107303 -0.00043467 0.00154648)
(0.107435 -0.000364084 0.00166335)
(0.106523 -0.000683935 0.00162518)
(0.107886 -0.00039847 0.00146346)
(0.107872 -0.000331193 0.00161268)
(0.106899 -0.000618653 0.00155665)
(0.108432 -0.000366298 0.0013961)
(0.108952 -0.000337034 0.00134873)
(0.104604 -0.00141612 0.00198178)
(0.103524 -0.00169542 0.00196079)
(0.104795 -0.00150779 0.00180956)
(0.105006 -0.00127398 0.00184031)
(0.103745 -0.00151624 0.00178775)
(0.105361 -0.00138303 0.00168293)
(0.105365 -0.00114465 0.00171298)
(0.103935 -0.00136025 0.00163611)
(0.105874 -0.001261 0.00155776)
(0.105696 -0.00103008 0.00160587)
(0.104112 -0.00122549 0.00150866)
(0.106344 -0.00114891 0.00144593)
(0.10601 -0.000928029 0.00152074)
(0.104288 -0.00110924 0.00140443)
(0.106783 -0.00104893 0.00135116)
(0.104469 -0.0010065 0.00132197)
(0.1072 -0.00095933 0.00127458)
(0.102728 -0.00176776 0.00177192)
(0.100856 -0.00175608 0.00177069)
(0.103525 -0.00195774 0.00169752)
(0.102749 -0.00158425 0.00159105)
(0.100609 -0.00156121 0.00156971)
(0.103746 -0.00178287 0.00151965)
(0.102769 -0.00142974 0.00144082)
(0.100383 -0.00140568 0.00140312)
(0.103938 -0.00162825 0.00136572)
(0.102801 -0.00129961 0.00131751)
(0.10019 -0.00128224 0.00126534)
(0.104117 -0.00149588 0.00123433)
(0.102852 -0.00118838 0.00121713)
(0.100033 -0.00118428 0.00115157)
(0.104295 -0.0013838 0.00112343)
(0.0999149 -0.00110373 0.0010565)
(0.10448 -0.0012886 0.00102936)
(0.0989361 -0.0014816 0.00156324)
(0.0941511 -0.00120358 0.00164359)
(0.100666 -0.00176459 0.00158272)
(0.0984691 -0.00131829 0.00137772)
(0.0931709 -0.00109554 0.00150294)
(0.100411 -0.00158868 0.00139377)
(0.0980554 -0.00119599 0.00122452)
(0.0922697 -0.00101356 0.00137191)
(0.100177 -0.00144311 0.00122635)
(0.0976961 -0.00110604 0.00109718)
(0.0914481 -0.00095688 0.00125237)
(0.0999733 -0.00133633 0.00108361)
(0.0973896 -0.00103941 0.000989709)
(0.0906984 -0.00092021 0.00114506)
(0.0998025 -0.00126048 0.000962016)
(0.0900111 -0.000897314 0.00104615)
(0.0996637 -0.00120589 0.000854573)
(0.0891557 -0.00111406 0.00165372)
(0.0923715 -0.00126583 0.00157465)
(0.0878114 -0.0010327 0.00154727)
(0.0913373 -0.00117251 0.00147771)
(0.086573 -0.000972329 0.00143526)
(0.0903513 -0.00110442 0.0013647)
(0.0854262 -0.000933717 0.00132533)
(0.0894264 -0.00105946 0.00124918)
(0.0843563 -0.000912431 0.00121928)
(0.0885555 -0.00103274 0.00113368)
(0.0877268 -0.00102047 0.00101782)
(0.0948672 0.00133052 0.00135224)
(0.0985079 0.00151694 0.00139194)
(0.095989 0.00138057 0.000916989)
(0.0942282 0.00126162 0.00129109)
(0.0981722 0.00142287 0.0012979)
(0.0955173 0.00128112 0.00090272)
(0.0935939 0.00121873 0.00120605)
(0.0978217 0.00134878 0.00119168)
(0.0950571 0.0012217 0.000869746)
(0.0929648 0.00119429 0.00110567)
(0.0974776 0.00129966 0.00108228)
(0.0945923 0.0011927 0.000811465)
(0.0923352 0.00118681 0.000999284)
(0.0971399 0.00127218 0.00097493)
(0.0941193 0.00118585 0.000742768)
(0.0916935 0.00119633 0.000891051)
(0.0968 0.00126442 0.000869903)
(0.0936275 0.00119531 0.000673933)
(0.0964491 0.00127854 0.000764183)
(0.093098 0.0012233 0.000607804)
(0.102272 0.00188746 0.00138049)
(0.103284 0.00205079 0.00147838)
(0.102838 0.00200683 0.00101777)
(0.102266 0.00173419 0.00122726)
(0.103488 0.00189243 0.0013257)
(0.102961 0.00187251 0.000917321)
(0.102257 0.00160987 0.00108655)
(0.103663 0.00174983 0.00118184)
(0.103061 0.00174827 0.000823211)
(0.102248 0.00152529 0.000963907)
(0.10382 0.00164008 0.00105505)
(0.103149 0.0016508 0.000737693)
(0.10224 0.00147339 0.000854089)
(0.103969 0.00155985 0.000944351)
(0.103232 0.00157981 0.000660591)
(0.102234 0.00145014 0.00074871)
(0.104112 0.00150596 0.000842986)
(0.103308 0.00154118 0.000589004)
(0.104252 0.00147742 0.000744486)
(0.10337 0.00153588 0.000519548)
(0.104604 0.00198178 0.00141611)
(0.104795 0.00180956 0.00150778)
(0.104693 0.002068 0.0010364)
(0.105006 0.00184031 0.00127397)
(0.105361 0.00168293 0.00138302)
(0.105222 0.0019458 0.000935308)
(0.105365 0.00171298 0.00114464)
(0.105874 0.00155776 0.00126099)
(0.105695 0.00182467 0.000840484)
(0.105696 0.00160587 0.00103007)
(0.106344 0.00144593 0.0011489)
(0.106125 0.00171592 0.000756814)
(0.10601 0.00152074 0.000928016)
(0.106783 0.00135115 0.00104891)
(0.106523 0.00162518 0.000683923)
(0.106315 0.00145817 0.000833849)
(0.1072 0.00127458 0.000959315)
(0.106899 0.00155664 0.000618641)
(0.107603 0.00121608 0.000877078)
(0.107263 0.0015118 0.000557071)
(0.105582 0.00147706 0.00147501)
(0.105368 0.00104875 0.00151678)
(0.105367 0.001518 0.00104798)
(0.106267 0.00137526 0.00137202)
(0.10615 0.000981528 0.00143467)
(0.106149 0.00143658 0.000980367)
(0.106897 0.00127361 0.0012685)
(0.106875 0.000910001 0.0013436)
(0.106874 0.0013466 0.000908238)
(0.107482 0.00118002 0.00117192)
(0.107548 0.000841668 0.00125306)
(0.107547 0.00125781 0.000838914)
(0.10803 0.00109792 0.00108512)
(0.108176 0.00078024 0.00116877)
(0.108175 0.00117626 0.000775842)
(0.108552 0.00102823 0.00100817)
(0.108767 0.00072692 0.00109365)
(0.108766 0.0011054 0.000719799)
(0.10933 0.000681381 0.00102901)
(0.109329 0.00104729 0.000670009)
(0.105942 0.00054054 0.00147649)
(0.105515 -8.55811e-08 0.00150867)
(0.105595 0.000551834 0.00103274)
(0.106766 0.00050496 0.00140677)
(0.106366 -1.65973e-07 0.00144537)
(0.106494 0.00052376 0.000989144)
(0.107535 0.000467945 0.00132906)
(0.107163 -2.84727e-07 0.00136983)
(0.107344 0.000491513 0.00093723)
(0.108253 0.000432784 0.00125108)
(0.107906 -4.27521e-07 0.00129087)
(0.108141 0.000458932 0.000883035)
(0.108925 0.000401052 0.00117868)
(0.108599 -5.60463e-07 0.00121536)
(0.108888 0.000428397 0.000830998)
(0.10956 0.000372911 0.00111609)
(0.109249 -6.22711e-07 0.00114833)
(0.109591 0.000401131 0.000784205)
(0.109867 -6.31366e-07 0.00109364)
(0.110257 0.000377398 0.000744823)
(0.105941 -0.000540672 0.00147755)
(0.105367 -0.00104799 0.001518)
(0.105594 -0.000551739 0.0010333)
(0.106765 -0.000505235 0.00140843)
(0.106149 -0.000980376 0.00143658)
(0.106494 -0.000523662 0.00098999)
(0.107534 -0.000468405 0.00133165)
(0.106874 -0.000908248 0.0013466)
(0.107343 -0.000491409 0.000938524)
(0.108251 -0.000433413 0.00125516)
(0.107547 -0.000838926 0.00125781)
(0.10814 -0.000458783 0.000885027)
(0.108923 -0.000401723 0.00118502)
(0.108175 -0.000775855 0.00117627)
(0.108887 -0.00042809 0.000834075)
(0.109557 -0.000373424 0.00112588)
(0.108766 -0.000719813 0.00110541)
(0.109589 -0.000400443 0.000788946)
(0.110256 -0.000376061 0.000752076)
(0.105582 -0.00147501 0.00147706)
(0.104796 -0.00180717 0.00150895)
(0.105368 -0.00151679 0.00104875)
(0.106267 -0.00137203 0.00137526)
(0.105363 -0.00167921 0.00138488)
(0.10615 -0.00143468 0.000981529)
(0.106897 -0.00126852 0.00127361)
(0.105877 -0.0015519 0.00126385)
(0.106875 -0.00134361 0.000910003)
(0.107482 -0.00117193 0.00118002)
(0.106349 -0.00143649 0.00115336)
(0.107548 -0.00125308 0.000841671)
(0.10803 -0.00108514 0.00109792)
(0.10679 -0.00133602 0.00105592)
(0.108176 -0.00116879 0.000780244)
(0.107212 -0.00125011 0.000970587)
(0.108767 -0.00109367 0.000726926)
(0.104607 -0.00197799 0.00141712)
(0.103288 -0.002048 0.00147823)
(0.104694 -0.0020659 0.00103576)
(0.105011 -0.00183435 0.00127552)
(0.103494 -0.0018881 0.0013255)
(0.105225 -0.00194252 0.000934262)
(0.105372 -0.00170339 0.00114697)
(0.103672 -0.00174281 0.00118126)
(0.1057 -0.00181945 0.000838634)
(0.105708 -0.00159031 0.00103362)
(0.103835 -0.00162806 0.00105391)
(0.106132 -0.00170733 0.000753627)
(0.106029 -0.0014954 0.000933778)
(0.103994 -0.00153975 0.000942351)
(0.106535 -0.0016111 0.000678699)
(0.104153 -0.00147283 0.000841058)
(0.106917 -0.00153355 0.0006108)
(0.102278 -0.00188434 0.00137926)
(0.0985133 -0.00151548 0.00139014)
(0.102841 -0.00200503 0.00101527)
(0.102276 -0.00172929 0.00122515)
(0.0981813 -0.00142043 0.00129493)
(0.102967 -0.00186978 0.000913126)
(0.102273 -0.00160157 0.0010829)
(0.097837 -0.00134454 0.00118683)
(0.10307 -0.00174384 0.000815875)
(0.102275 -0.001511 0.000957917)
(0.0975032 -0.00129227 0.00107461)
(0.103164 -0.00164324 0.000725271)
(0.102285 -0.00144906 0.000845465)
(0.0971829 -0.00125896 0.000962825)
(0.103257 -0.0015668 0.00064012)
(0.0968723 -0.00124088 0.000851125)
(0.10335 -0.00151865 0.000557616)
(0.0948754 -0.00132934 0.0013488)
(0.0959934 -0.00137985 0.000912946)
(0.0942421 -0.00125908 0.0012855)
(0.0955249 -0.00127967 0.000895873)
(0.0936175 -0.0012138 0.00119727)
(0.0950701 -0.00121882 0.000858513)
(0.0930047 -0.00118508 0.00109195)
(0.0946143 -0.00118757 0.000793165)
(0.0924023 -0.0011705 0.000977308)
(0.0941565 -0.0011766 0.000713067)
(0.0936908 -0.00117922 0.000625061)
(0.0966701 0.00133077 0.000439168)
(0.0999367 0.0015737 0.000486278)
(0.0968291 0.00138925 2.76344e-06)
(0.0963864 0.00123751 0.000431961)
(0.0998944 0.00148341 0.000463216)
(0.0965268 0.00127137 4.66169e-06)
(0.0961146 0.00119087 0.000419067)
(0.0998583 0.00142214 0.000440714)
(0.0962685 0.00120199 7.81025e-06)
(0.0958255 0.00118023 0.000397919)
(0.0997984 0.00138598 0.00041294)
(0.0959876 0.00117689 1.30415e-05)
(0.095503 0.00119124 0.000372538)
(0.0997189 0.0013655 0.00038179)
(0.0956826 0.00117876 2.17057e-05)
(0.095133 0.00121981 0.000349186)
(0.0996139 0.00136405 0.000351874)
(0.0953476 0.00119531 3.61375e-05)
(0.0994665 0.00138901 0.000326991)
(0.0949629 0.00122808 6.11e-05)
(0.103551 0.00199327 0.000528192)
(0.104183 0.00210802 0.000556582)
(0.103426 0.00204633 2.16102e-06)
(0.103782 0.00188864 0.000485235)
(0.104618 0.00199673 0.000509645)
(0.103677 0.00193883 3.60406e-06)
(0.103985 0.0017914 0.000443787)
(0.105004 0.00188747 0.000465085)
(0.103894 0.00183626 6.12576e-06)
(0.104171 0.00170731 0.000402992)
(0.105353 0.00178906 0.000422509)
(0.104087 0.00174301 1.02887e-05)
(0.104341 0.00164945 0.000365439)
(0.105675 0.00170936 0.00038317)
(0.104268 0.00166561 1.71651e-05)
(0.104491 0.00162896 0.000332753)
(0.105974 0.00166101 0.000348621)
(0.104436 0.00162251 2.7581e-05)
(0.106249 0.00164502 0.000317816)
(0.104581 0.00161665 4.37484e-05)
(0.105323 0.0020325 0.000535244)
(0.105254 0.00181006 0.000558784)
(0.105006 0.00208052 1.10661e-06)
(0.105927 0.00193155 0.000487054)
(0.105993 0.00172991 0.000517342)
(0.105642 0.00198292 1.80027e-06)
(0.106473 0.00182955 0.000441528)
(0.106675 0.00163828 0.000474797)
(0.106214 0.00187768 2.94699e-06)
(0.106973 0.00173739 0.000400482)
(0.107303 0.00154647 0.000434658)
(0.106736 0.00177728 4.7574e-06)
(0.107435 0.00166334 0.000364072)
(0.107886 0.00146345 0.000398458)
(0.107216 0.00169056 7.526e-06)
(0.107872 0.00161266 0.000331182)
(0.108432 0.00139609 0.000366286)
(0.107665 0.00162456 1.15157e-05)
(0.108952 0.00134871 0.000337023)
(0.108095 0.00158217 1.72985e-05)
(0.105941 0.00147754 0.000540663)
(0.105594 0.0010333 0.000551731)
(0.105515 0.00150866 7.78882e-08)
(0.106765 0.00140842 0.000505225)
(0.106494 0.000989986 0.000523652)
(0.106366 0.00144536 1.56902e-07)
(0.107534 0.00133165 0.000468394)
(0.107343 0.000938518 0.000491398)
(0.107163 0.00136983 2.74208e-07)
(0.108251 0.00125515 0.000433401)
(0.10814 0.000885019 0.00045877)
(0.107906 0.00129087 4.15605e-07)
(0.108923 0.00118501 0.00040171)
(0.108887 0.000834064 0.000428076)
(0.108599 0.00121535 5.4749e-07)
(0.109557 0.00112587 0.000373412)
(0.109589 0.000788932 0.000400428)
(0.109249 0.00114831 6.09478e-07)
(0.110256 0.000752056 0.000376047)
(0.109867 0.00109361 6.19457e-07)
(0.106152 0.000534999 0.00053466)
(0.105676 1.18175e-07 0.000545955)
(0.105676 0.000545952 -1.26187e-07)
(0.107078 0.000510408 0.000509909)
(0.106626 1.73235e-07 0.000523707)
(0.106626 0.000523702 -1.83166e-07)
(0.107956 0.000482714 0.000481973)
(0.107529 2.57382e-07 0.000496615)
(0.107529 0.000496608 -2.69472e-07)
(0.108783 0.000454847 0.000453726)
(0.108382 3.8996e-07 0.000468079)
(0.108382 0.000468069 -4.04373e-07)
(0.109562 0.000428844 0.000427134)
(0.109184 6.00026e-07 0.000440504)
(0.109184 0.00044049 -6.16756e-07)
(0.110298 0.00040605 0.000403459)
(0.10994 9.25387e-07 0.000415487)
(0.10994 0.000415469 -9.44186e-07)
(0.110656 1.40119e-06 0.000394037)
(0.110656 0.000394013 -1.42128e-06)
(0.106152 -0.000534669 0.000535003)
(0.105595 -0.00103275 0.000551836)
(0.105676 -0.000545964 1.21465e-07)
(0.107078 -0.00050992 0.000510413)
(0.106494 -0.000989154 0.000523763)
(0.106626 -0.000523718 1.7793e-07)
(0.107956 -0.000481986 0.000482722)
(0.107344 -0.000937242 0.000491517)
(0.107529 -0.000496628 2.63746e-07)
(0.108783 -0.000453741 0.000454857)
(0.108141 -0.000883049 0.000458938)
(0.108382 -0.000468095 3.98226e-07)
(0.109562 -0.000427151 0.000428856)
(0.108888 -0.000831014 0.000428404)
(0.109184 -0.000440523 6.10291e-07)
(0.110298 -0.000403477 0.000406065)
(0.109591 -0.000784224 0.00040114)
(0.10994 -0.00041551 9.37877e-07)
(0.110656 -0.000394063 1.41593e-06)