/*--------------------------------*- C++ -*----------------------------------*\
| =========                 |                                                 |
| \\      /  F ield         | OpenFOAM: The Open Source CFD Toolbox           |
|  \\    /   O peration     | Version:  2212                                  |
|   \\  /    A nd           | Website:  www.openfoam.com                      |
|    \\/     M anipulation  |                                                 |
\*---------------------------------------------------------------------------*/
FoamFile
{
    version     2.0;
    format      ascii;
    arch        "LSB;label=32;scalar=64";
    class       volScalarField;
    location    "3";
    object      epsilon;
}
// * * * * * * * * * * * * * * * * * * * * * * * * * * * * * * * * * * * * * //

dimensions      [0 2 -3 0 0 0 0];

internalField   nonuniform List<scalar> 
689
(
0.163934
0.157037
0.151406
0.14623
0.141437
0.137397
0.133679
0.130361
0.0689874
0.0656307
0.0627373
0.0599825
0.0573329
0.0550637
0.0530256
0.0513303
0.0578739
0.0535583
0.0499958
0.0469774
0.0443815
0.0421112
0.0400575
0.0382222
0.0365777
0.0721468
0.0638918
0.0574176
0.0522455
0.0479495
0.0443639
0.0413098
0.0386506
0.0363138
0.0342481
0.0324097
0.0307587
0.067218
0.0604957
0.0547421
0.0498367
0.0456435
0.0420423
0.0389527
0.0362654
0.0338923
0.0317866
0.02991
0.028225
0.068059
0.0609423
0.0549171
0.0498019
0.0454273
0.0416624
0.0384161
0.0356103
0.0331383
0.0309424
0.0289901
0.0272476
0.0717344
0.0636317
0.0568978
0.0512788
0.0465041
0.0424128
0.0389129
0.0358998
0.0332852
0.0310026
0.0290024
0.0272412
0.0775485
0.0678448
0.0598662
0.053658
0.0484201
0.0440115
0.0403511
0.0372825
0.034682
0.0324393
0.0304911
0.028775
0.0882227
0.0765185
0.0661501
0.0587939
0.0530799
0.0485757
0.0449786
0.0420787
0.0395654
0.0373601
0.0354302
0.114226
0.0986108
0.0852636
0.076026
0.0695706
0.0649325
0.0613113
0.0581861
0.0553023
0.0528221
0.0507875
0.246006
0.215046
0.189648
0.174006
0.164061
0.157402
0.151848
0.146671
0.141779
0.13749
0.133853
0.0695317
0.0647542
0.0610949
0.0579349
0.05509
0.052725
0.0506541
0.0489617
0.0354675
0.0319596
0.0295198
0.0275846
0.025939
0.0245019
0.0232227
0.0218951
0.0320906
0.028725
0.0261289
0.0239534
0.0220662
0.0204275
0.0190136
0.017723
0.0166888
0.0468966
0.0412425
0.0356572
0.0312133
0.0275257
0.0245482
0.0223442
0.0204976
0.0188655
0.0174263
0.0161568
0.0150388
0.0464329
0.0404381
0.0354221
0.0312311
0.0277295
0.0247657
0.0220135
0.0198867
0.0182789
0.0168414
0.0155565
0.0144132
0.0455402
0.0400163
0.0352504
0.0311735
0.0277075
0.0247591
0.0221322
0.0197511
0.0179745
0.0165726
0.0152972
0.0141503
0.0464706
0.0402502
0.0352289
0.0310292
0.0275144
0.0245241
0.0217971
0.0195623
0.0179075
0.0164807
0.0152001
0.0140595
0.0500637
0.0415663
0.0355506
0.0308141
0.0271304
0.0240917
0.0216914
0.0198294
0.0182035
0.0167801
0.0155287
0.0144332
0.053586
0.0430744
0.0363385
0.0317527
0.0281908
0.0254627
0.0232081
0.0213132
0.0196912
0.0182972
0.0170662
0.0611453
0.0528704
0.044548
0.038823
0.0347312
0.031693
0.0293776
0.0274984
0.0258787
0.0245093
0.0230533
0.102041
0.0879991
0.079261
0.0733989
0.0691336
0.065838
0.0629209
0.0601815
0.0575039
0.0551264
0.053173
0.0588804
0.0531314
0.0485666
0.0449392
0.0420113
0.039511
0.0373305
0.0354132
0.0337259
0.0319097
0.0281687
0.0253997
0.0231419
0.0212535
0.0196408
0.0182602
0.0170241
0.015945
0.0300978
0.0265277
0.02361
0.0211879
0.0191471
0.0174068
0.0159097
0.014608
0.0134695
0.0479524
0.0415691
0.0361826
0.0316585
0.0278771
0.0247114
0.022055
0.0198035
0.0178766
0.0162149
0.0147734
0.0135141
0.0494944
0.0430245
0.0375502
0.0329293
0.0290282
0.025718
0.0228882
0.0204784
0.0184292
0.0166651
0.0151343
0.0137986
0.0502349
0.0436075
0.0380628
0.0333905
0.0294362
0.0260743
0.0231959
0.0207194
0.0186071
0.0168011
0.0152398
0.0138794
0.0499832
0.0431396
0.0375347
0.0328676
0.0289444
0.0256189
0.0227794
0.0203562
0.0182925
0.0165224
0.0149942
0.0136657
0.0477992
0.0413035
0.0358929
0.0313829
0.027622
0.0244627
0.0218027
0.0195589
0.0176497
0.0160111
0.0145894
0.0133488
0.0455672
0.0396916
0.0344301
0.0300933
0.026552
0.023642
0.0212125
0.0191662
0.0174213
0.0159231
0.0146173
0.0494679
0.0432311
0.0367462
0.0319614
0.0287209
0.0261478
0.0239308
0.0220388
0.0203987
0.0190014
0.0176952
0.0826858
0.071897
0.0635797
0.0578988
0.0535577
0.0499813
0.0469674
0.0443825
0.0421258
0.0400845
0.038222
0.0536974
0.048473
0.0440456
0.0403579
0.0372742
0.0346665
0.0324262
0.0304855
0.0287846
0.0306886
0.0271422
0.0240659
0.021662
0.0198128
0.0181924
0.0167719
0.0155218
0.0144198
0.0314056
0.0276386
0.0244696
0.0218041
0.0195579
0.0176482
0.0160093
0.0145878
0.0133466
0.0519546
0.0449976
0.0391697
0.0342702
0.0301388
0.0266428
0.0236755
0.0211458
0.0189776
0.0171096
0.0154914
0.0140825
0.0558622
0.0482014
0.0418719
0.0365924
0.0321545
0.0284013
0.025208
0.0224768
0.0201302
0.0181069
0.0163542
0.0148285
0.0573374
0.0494034
0.0428715
0.0374398
0.0328837
0.0290338
0.025759
0.0229576
0.0205502
0.0184728
0.0166726
0.0151058
0.0557024
0.0481313
0.0418323
0.036565
0.0321333
0.0283822
0.0251893
0.0224588
0.020114
0.0180912
0.0163385
0.0148128
0.0519608
0.0449869
0.0391434
0.034245
0.0301197
0.0266304
0.0236678
0.021141
0.0189746
0.0171074
0.0154899
0.0140801
0.0479529
0.041629
0.0362053
0.0316761
0.0278922
0.0247213
0.0220637
0.0198117
0.0178831
0.0162197
0.014778
0.0467052
0.0412808
0.035649
0.0312277
0.0275554
0.02456
0.0223495
0.020501
0.018867
0.0174264
0.0161586
0.0720989
0.0638336
0.0573782
0.0522093
0.0479323
0.0443562
0.041305
0.0386488
0.0363139
0.0342473
0.0324034
0.0512723
0.0464917
0.0424017
0.038905
0.0358939
0.0332786
0.0309961
0.0289982
0.0272411
0.0311224
0.0275607
0.0245517
0.0217893
0.0195574
0.0179106
0.0164832
0.0152015
0.0140596
0.0328834
0.028959
0.0256272
0.0227815
0.0203558
0.0182919
0.0165219
0.014994
0.0136658
0.0556724
0.0481133
0.0418301
0.0365695
0.0321383
0.0283856
0.0251912
0.0224599
0.0201147
0.018092
0.0163393
0.0148139
0.060259
0.0519989
0.045143
0.0394184
0.0346072
0.0305387
0.027078
0.0241185
0.0215747
0.0193781
0.0174728
0.0158133
0.06216
0.0535198
0.0463987
0.0404782
0.0355158
0.0313262
0.027766
0.0247228
0.0221076
0.0198492
0.0178899
0.0161834
0.0602612
0.0519985
0.0451419
0.0394165
0.034605
0.0305366
0.0270761
0.0241169
0.0215734
0.019377
0.0174718
0.0158125
0.0558599
0.0482095
0.0418753
0.0365903
0.0321498
0.028396
0.0252028
0.0224725
0.0201269
0.0181043
0.016352
0.0148257
0.049498
0.0430276
0.0375542
0.0329335
0.0290319
0.0257221
0.0228885
0.0204799
0.0184323
0.0166678
0.0151365
0.0464243
0.0404319
0.0354202
0.031234
0.0277336
0.0247676
0.0220141
0.0198889
0.0182809
0.0168426
0.0155582
0.0672121
0.0604922
0.0547376
0.0498307
0.045636
0.042034
0.0389443
0.0362571
0.0338843
0.0317783
0.0298946
0.0573431
0.0494076
0.0428755
0.0374425
0.0328847
0.0290331
0.0257575
0.022956
0.020549
0.018472
0.0166722
0.0151058
0.0621556
0.0535181
0.0463986
0.0404787
0.0355165
0.0313268
0.0277665
0.0247233
0.0221081
0.0198497
0.0178906
0.0161841
0.0635803
0.0548704
0.0476211
0.0415622
0.0364698
0.0321648
0.0285043
0.0253747
0.0226848
0.0203615
0.0183458
0.0165898
0.0621555
0.0535156
0.0463972
0.0404777
0.0355153
0.0313255
0.0277651
0.0247219
0.0221068
0.0198485
0.0178895
0.0161832
0.0573539
0.0494204
0.0428863
0.0374492
0.0328881
0.0290344
0.0257575
0.0229551
0.0205477
0.0184707
0.0166707
0.0151036
0.0501977
0.043618
0.038083
0.0334071
0.0294469
0.0260793
0.0231971
0.0207188
0.018607
0.0168017
0.0152403
0.0455194
0.0400278
0.0352654
0.0311851
0.0277153
0.0247586
0.0221292
0.0197519
0.0179787
0.0165755
0.0152996
0.068055
0.060938
0.0549078
0.0497896
0.0454134
0.0416486
0.0384031
0.0355978
0.0331257
0.0309295
0.0289719
)
;

boundaryField
{
    inlet
    {
        type            fixedValue;
        value           nonuniform List<scalar> 0();
    }
    ami1
    {
        type            cyclicAMI;
        value           nonuniform List<scalar> 0();
    }
    walls
    {
        type            epsilonWallFunction;
        blending        stepwise;
        value           nonuniform List<scalar> 
227
(
0.0721468
0.067218
0.068059
0.0717344
0.0775485
0.0882227
0.114226
0.246006
0.0638918
0.0604957
0.0609423
0.0636317
0.0678448
0.0765185
0.0986108
0.215046
0.0574176
0.0547421
0.0549171
0.0568978
0.0598662
0.0661501
0.0852636
0.189648
0.0578739
0.0522455
0.0498367
0.0498019
0.0512788
0.053658
0.0587939
0.076026
0.174006
0.163934
0.0689874
0.0535583
0.0479495
0.0456435
0.0454273
0.0465041
0.0484201
0.0530799
0.0695706
0.164061
0.157037
0.0656307
0.0499958
0.0443639
0.0420423
0.0416624
0.0424128
0.0440115
0.0485757
0.0649325
0.157402
0.151406
0.0627373
0.0469774
0.0413098
0.0389527
0.0384161
0.0389129
0.0403511
0.0449786
0.0613113
0.151848
0.14623
0.0599825
0.0443815
0.0386506
0.0362654
0.0356103
0.0358998
0.0372825
0.0420787
0.0581861
0.146671
0.141437
0.0573329
0.0421112
0.0363138
0.0338923
0.0331383
0.0332852
0.034682
0.0395654
0.0553023
0.141779
0.137397
0.0550637
0.0400575
0.0342481
0.0317866
0.0309424
0.0310026
0.0324393
0.0373601
0.0528221
0.13749
0.133679
0.0530256
0.0382222
0.0324097
0.02991
0.0289901
0.0290024
0.0304911
0.0354302
0.0507875
0.133853
0.130361
0.0513303
0.0365777
0.0307587
0.028225
0.0272476
0.0272412
0.028775
0.246006
0.102041
0.0826858
0.0720989
0.0672121
0.068055
0.215046
0.0879991
0.071897
0.0638336
0.0604922
0.060938
0.189648
0.079261
0.0635797
0.0573782
0.0547376
0.0549078
0.174006
0.0733989
0.0578988
0.0522093
0.0498307
0.0497896
0.164061
0.0691336
0.0535577
0.0479323
0.045636
0.0454134
0.157402
0.065838
0.0499813
0.0443562
0.042034
0.0416486
0.151848
0.0629209
0.0469674
0.041305
0.0389443
0.0384031
0.146671
0.0601815
0.0443825
0.0386488
0.0362571
0.0355978
0.141779
0.0575039
0.0421258
0.0363139
0.0338843
0.0331257
0.13749
0.0551264
0.0400845
0.0342473
0.0317783
0.0309295
0.133853
0.053173
0.038222
0.0324034
0.0298946
0.0289719
0.0588804
0.0536974
0.0512723
0.163934
0.0695317
0.0531314
0.048473
0.0464917
0.157037
0.0647542
0.0485666
0.0440456
0.0424017
0.151406
0.0610949
0.0449392
0.0403579
0.038905
0.14623
0.0579349
0.0420113
0.0372742
0.0358939
0.141437
0.05509
0.039511
0.0346665
0.0332786
0.137397
0.052725
0.0373305
0.0324262
0.0309961
0.133679
0.0506541
0.0354132
0.0304855
0.0289982
0.130361
0.0489617
0.0337259
0.0287846
0.0272411
)
;
    }
    ami2
    {
        type            cyclicAMI;
        value           nonuniform List<scalar> 
48
(
0.0746497
0.0704074
0.0701315
0.0718922
0.0751137
0.081598
0.098774
0.184524
0.0486493
0.0490683
0.0499127
0.0509975
0.0530674
0.0558157
0.064969
0.118473
0.051064
0.0535502
0.0547771
0.0542554
0.0515369
0.0486436
0.0517063
0.085705
0.0563336
0.0604718
0.0620655
0.0605031
0.0563366
0.0510651
0.0485547
0.0746271
0.060489
0.0652965
0.0671648
0.0652971
0.0604703
0.0535525
0.049064
0.0704043
0.0620698
0.0671631
0.0688304
0.0671624
0.0620737
0.0547589
0.0499025
0.0701281
)
;
    }
    outlet
    {
        type            zeroGradient;
    }
    procBoundary0to1
    {
        type            processor;
        value           nonuniform List<scalar> 
138
(
0.0569274
0.0498096
0.0454272
0.041658
0.0384101
0.0356034
0.0331304
0.0309341
0.0289816
0.0272394
0.0351831
0.0311787
0.0277151
0.0247601
0.0221246
0.0197515
0.0179818
0.016578
0.0153008
0.0141528
0.0499924
0.0431595
0.0375581
0.0375581
0.0333998
0.0294403
0.0260739
0.0231932
0.020717
0.0186056
0.0168001
0.0152392
0.0138791
0.0502259
0.0436301
0.0380759
0.0333998
0.0294403
0.0260739
0.0231932
0.020717
0.0186056
0.0168001
0.0152392
0.0138791
0.0558527
0.0481984
0.0418701
0.036591
0.0321533
0.0284003
0.0252072
0.0224761
0.0201295
0.0181063
0.0163538
0.0148284
0.0602588
0.052
0.0451447
0.0394198
0.0346083
0.0305394
0.0270784
0.0241187
0.0215748
0.0193782
0.017473
0.0158136
0.0621581
0.0535151
0.0463964
0.0404775
0.0355157
0.0313263
0.0277661
0.0247228
0.0221076
0.0198493
0.0178902
0.0161838
0.0602588
0.0519997
0.0451442
0.0394189
0.0346071
0.030538
0.0270771
0.0241174
0.0215736
0.019377
0.0174718
0.0158125
0.055696
0.0481172
0.0418269
0.0365657
0.0321357
0.0283839
0.0251895
0.0224579
0.0201125
0.0180896
0.0163369
0.0148108
0.0500269
0.0431641
0.0375576
0.0328866
0.0289573
0.0256272
0.0227816
0.020356
0.0182919
0.0165218
0.0149935
0.0464945
0.0402924
0.0352625
0.0310516
0.0275268
0.0245333
0.0217926
0.0195623
0.0179114
0.0164838
0.0152025
0.0717043
0.0635992
0.0568679
0.0512578
0.0464896
0.0424031
0.0389072
0.0358965
0.0332825
0.0309996
0.0289966
)
;
    }
    procBoundary0to2
    {
        type            processor;
        value           nonuniform List<scalar> 
28
(
0.174103
0.0734309
0.0734309
0.0827623
0.0719482
0.0635914
0.0635914
0.0761176
0.0761176
0.038514
0.038514
0.038514
0.0496587
0.0431673
0.0367666
0.0367666
0.0661083
0.0363332
0.0455517
0.0395602
0.0344062
0.0344062
0.0598241
0.0356423
0.0477894
0.0412973
0.0359124
0.0359124
)
;
    }
    procBoundary0to8
    {
        type            processor;
        value           nonuniform List<scalar> 
29
(
0.126851
0.0496071
0.0351195
0.0292492
0.0266941
0.0472921
0.0212734
0.0156171
0.0140749
0.0134108
0.0322336
0.0150329
0.0124974
0.0124146
0.0126245
0.0272596
0.0134681
0.0122649
0.0128491
0.0134929
0.0256806
0.0130556
0.012505
0.0134794
0.0143619
0.014692
0.0137364
0.0146923
0.0150553
)
;
    }
    procBoundary0to9
    {
        type            processor;
        value           nonuniform List<scalar> 
40
(
0.0256773
0.0256771
0.027243
0.0337038
0.0337038
0.0489394
0.130244
0.0131308
0.0130531
0.013459
0.0160537
0.0160537
0.0224364
0.0513097
0.0126847
0.0125021
0.0122585
0.0135107
0.0135107
0.0169482
0.0365592
0.0137356
0.0134781
0.0128469
0.0135121
0.0135121
0.0150777
0.0307246
0.0143621
0.0134919
0.0137914
0.0137914
0.0144315
0.028188
0.0146925
0.0137349
0.0138737
0.0138737
0.014159
0.0272138
)
;
    }
}


// ************************************************************************* //
