/*--------------------------------*- C++ -*----------------------------------*\
| =========                 |                                                 |
| \\      /  F ield         | OpenFOAM: The Open Source CFD Toolbox           |
|  \\    /   O peration     | Version:  2212                                  |
|   \\  /    A nd           | Website:  www.openfoam.com                      |
|    \\/     M anipulation  |                                                 |
\*---------------------------------------------------------------------------*/
FoamFile
{
    version     2.0;
    format      ascii;
    arch        "LSB;label=32;scalar=64";
    class       volScalarField;
    location    "3";
    object      k;
}
// * * * * * * * * * * * * * * * * * * * * * * * * * * * * * * * * * * * * * //

dimensions      [0 2 -2 0 0 0 0];

internalField   nonuniform List<scalar> 
689
(
0.00280104
0.00272306
0.00265845
0.00259836
0.00254191
0.00249313
0.00244806
0.00240763
0.00262103
0.00253496
0.00246007
0.0023879
0.00231718
0.00225524
0.00219906
0.00215184
0.00299539
0.00284567
0.00271791
0.00260726
0.00251051
0.00242428
0.0023449
0.00227262
0.00220677
0.00396637
0.00367745
0.00343428
0.00322972
0.00305227
0.0028987
0.00276389
0.00264412
0.00253634
0.002439
0.00235068
0.00226991
0.00412742
0.00384929
0.00360192
0.00338354
0.00319082
0.00302037
0.00287011
0.00273613
0.00261504
0.00250522
0.00240532
0.00231385
0.00428056
0.00397117
0.00370177
0.00346605
0.00325859
0.00307503
0.00291247
0.00276829
0.00263822
0.00252005
0.00241268
0.00231486
0.00430413
0.00397301
0.00368759
0.00344061
0.00322387
0.00303223
0.00286329
0.00271376
0.00258053
0.00246133
0.00235446
0.0022583
0.00417006
0.00382371
0.00352618
0.00327977
0.00306456
0.00287688
0.00271574
0.00257669
0.00245591
0.00234933
0.00225473
0.00216954
0.0039135
0.00357427
0.003264
0.00301977
0.00282216
0.00266092
0.00252837
0.00241934
0.00232281
0.00223622
0.00215893
0.00362295
0.003297
0.00300114
0.00278611
0.00262894
0.00251213
0.00241867
0.00233724
0.00226016
0.00219197
0.00213576
0.0036273
0.00333596
0.00307972
0.00291324
0.00280275
0.00272748
0.00266347
0.0026036
0.00254611
0.00249444
0.00245038
0.00262729
0.00250719
0.00241313
0.00233058
0.00225424
0.00218914
0.00213177
0.00208439
0.00304564
0.0028687
0.00271017
0.00255134
0.00239575
0.0022677
0.0021486
0.00205389
0.00441546
0.0040773
0.00378208
0.00352049
0.00328774
0.00308061
0.00289272
0.00272429
0.00256937
0.00674973
0.00612105
0.00558046
0.00511517
0.00471239
0.00436043
0.00404767
0.00376794
0.00351694
0.00329147
0.00308873
0.00290605
0.00729769
0.0066169
0.00602868
0.00551788
0.00507176
0.0046797
0.00433758
0.00403562
0.00376392
0.00351883
0.00329801
0.00309871
0.00750767
0.00680363
0.00619301
0.00566205
0.00519867
0.00479215
0.00443557
0.00412451
0.00384791
0.00359798
0.00337233
0.00316865
0.0073057
0.00662013
0.00602445
0.00550727
0.00505724
0.00466407
0.00432234
0.00402359
0.00375657
0.00351625
0.00329987
0.00310484
0.00673382
0.00607428
0.00551866
0.0050486
0.00464555
0.00429785
0.00399504
0.00372637
0.00348573
0.00326938
0.00307449
0.00289709
0.00583183
0.0052049
0.00471113
0.00431143
0.00398103
0.00369944
0.00345425
0.0032332
0.00303097
0.00284721
0.00268217
0.00461312
0.00395616
0.00355124
0.00327894
0.00306931
0.0028904
0.00272855
0.00256938
0.00240943
0.00227286
0.00216444
0.00340828
0.0030835
0.00287713
0.00273302
0.00262486
0.002541
0.00246495
0.00239312
0.00232186
0.00225702
0.0022032
0.00302169
0.00282293
0.00266031
0.00252683
0.00241672
0.00232058
0.00223486
0.00215801
0.00208917
0.00429914
0.00397128
0.00369179
0.00344835
0.00322757
0.00302723
0.00284503
0.00267881
0.00252831
0.00572404
0.00526815
0.00487067
0.00452048
0.00420871
0.00392866
0.00367586
0.00344661
0.00323877
0.0088935
0.0080808
0.00737027
0.00674876
0.00620298
0.00572208
0.00529659
0.00491807
0.00457961
0.00427538
0.00400067
0.00375189
0.00972854
0.00883292
0.00804935
0.00736267
0.00675912
0.00622668
0.00575516
0.00533649
0.00496321
0.0046286
0.00432719
0.00405477
0.00999861
0.00907631
0.00826931
0.00756175
0.00693963
0.00639077
0.00590478
0.00547324
0.00508908
0.00474544
0.0044364
0.00415735
0.00970349
0.00880485
0.00802197
0.00733696
0.00673551
0.00620558
0.00573696
0.00532139
0.00495152
0.00462056
0.00432297
0.00405419
0.00887062
0.00805139
0.00733548
0.00671097
0.0061653
0.00568662
0.00526483
0.00489095
0.00455735
0.00425797
0.00398826
0.00374361
0.0075971
0.00688358
0.0062654
0.00573454
0.00527641
0.00487706
0.0045254
0.0042126
0.00393168
0.00367788
0.00344907
0.00588785
0.00529412
0.00481352
0.00441909
0.00408074
0.00378502
0.00352366
0.00329055
0.00308343
0.00289508
0.00272856
0.00373603
0.0034401
0.00318955
0.0029974
0.00284592
0.00271759
0.00260719
0.00251058
0.00242478
0.00234586
0.00227254
0.00328226
0.00306621
0.00287793
0.00271581
0.0025762
0.0024551
0.00234859
0.00225429
0.00216986
0.00504298
0.00464145
0.00429502
0.00399326
0.00372502
0.00348475
0.00326892
0.00307398
0.00289836
0.00669937
0.00615747
0.00568117
0.00526099
0.00488825
0.00455547
0.00425677
0.00398739
0.00374371
0.0104714
0.00950704
0.00866797
0.00793416
0.00728914
0.00671971
0.00621496
0.00576567
0.00536408
0.00500366
0.00467891
0.00438528
0.0114439
0.0104002
0.00948725
0.00868541
0.00797839
0.00735263
0.00679676
0.00630128
0.00585815
0.00546043
0.00510218
0.00477846
0.0117696
0.0106972
0.00975897
0.00893457
0.00820727
0.00756321
0.00699079
0.00648034
0.00602371
0.0056139
0.00524486
0.0049115
0.0114458
0.0103978
0.00948266
0.00868017
0.00797335
0.0073482
0.00679313
0.00629852
0.00585626
0.00545941
0.00510207
0.00477921
0.0104743
0.00951034
0.00867175
0.00793776
0.00729229
0.00672228
0.00621696
0.00576718
0.00536517
0.00500441
0.00467942
0.00438547
0.00889668
0.00808716
0.00737686
0.00675427
0.00620736
0.00572543
0.00529908
0.00491988
0.00458091
0.00427626
0.00400137
0.00675252
0.00612456
0.00558331
0.00511697
0.0047133
0.0043609
0.0040479
0.00376801
0.00351695
0.0032914
0.00308893
0.00396486
0.00367525
0.00343287
0.0032283
0.0030515
0.00289836
0.00276365
0.00264399
0.00253629
0.00243892
0.00235033
0.00344099
0.00322359
0.00303183
0.00286296
0.00271348
0.00258019
0.00246098
0.0023542
0.00225825
0.00550241
0.00505361
0.00466141
0.00432082
0.00402283
0.00375618
0.00351613
0.00329993
0.00310525
0.00732989
0.00673111
0.00620277
0.00573517
0.0053203
0.00495092
0.00462032
0.00432296
0.00405447
0.011444
0.0103971
0.00948217
0.00867975
0.00797294
0.00734782
0.00679281
0.00629829
0.00585612
0.00545937
0.00510212
0.00477936
0.0124916
0.0113632
0.0103742
0.00950372
0.00873463
0.00805252
0.00744543
0.00690326
0.00641752
0.00598096
0.00558739
0.0052316
0.0128423
0.0116858
0.0106723
0.00977978
0.00899047
0.00828979
0.00766561
0.00710776
0.00660762
0.00615788
0.00575227
0.00538553
0.0124916
0.0113632
0.0103741
0.00950358
0.00873444
0.00805232
0.00744522
0.00690307
0.00641734
0.00598079
0.00558723
0.00523146
0.0114443
0.0104007
0.00948779
0.00868587
0.00797877
0.00735291
0.00679696
0.00630142
0.00585824
0.00546047
0.00510219
0.00477852
0.00972941
0.00883381
0.00805012
0.00736329
0.00675957
0.00622695
0.00575532
0.00533657
0.0049632
0.00462852
0.00432707
0.00729821
0.00661702
0.00602844
0.00551738
0.00507108
0.00467892
0.0043368
0.00403483
0.00376311
0.00351804
0.00329717
0.00412719
0.00384895
0.00360154
0.00338311
0.00319034
0.00301987
0.00286963
0.00273566
0.00261459
0.00250475
0.00240448
0.0117714
0.0106991
0.00976051
0.00893564
0.00820797
0.00756366
0.00699112
0.00648061
0.00602397
0.00561418
0.00524517
0.00491183
0.0128433
0.0116869
0.0106733
0.00978061
0.00899114
0.00829032
0.00766604
0.00710811
0.00660793
0.00615815
0.00575252
0.00538575
0.0132043
0.0120215
0.0109831
0.0100677
0.00925747
0.00853771
0.00789609
0.00732227
0.00680748
0.00634429
0.00592635
0.00554833
0.0128433
0.011687
0.0106732
0.00978032
0.0089907
0.00828982
0.00766553
0.00710764
0.0066075
0.00615778
0.0057522
0.00538549
0.0117699
0.0106972
0.00975855
0.00893386
0.00820644
0.00756238
0.00699005
0.00647972
0.00602323
0.00561354
0.0052446
0.00491139
0.009997
0.00907392
0.00826671
0.0075593
0.00693751
0.00638901
0.00590337
0.00547215
0.00508824
0.00474478
0.00443586
0.00750626
0.00680087
0.00618994
0.00565916
0.0051961
0.00478998
0.00443381
0.00412304
0.0038466
0.0035968
0.0033712
0.00428029
0.00397095
0.00370136
0.00346551
0.00325797
0.0030744
0.00291186
0.00276768
0.00263761
0.0025194
0.00241174
)
;

boundaryField
{
    inlet
    {
        type            fixedValue;
        value           nonuniform List<scalar> 0();
    }
    ami1
    {
        type            cyclicAMI;
        value           nonuniform List<scalar> 0();
    }
    walls
    {
        type            kqRWallFunction;
        value           nonuniform List<scalar> 
227
(
0.00396637
0.00412742
0.00428056
0.00430413
0.00417006
0.0039135
0.00362295
0.0036273
0.00367745
0.00384929
0.00397117
0.00397301
0.00382371
0.00357427
0.003297
0.00333596
0.00343428
0.00360192
0.00370177
0.00368759
0.00352618
0.003264
0.00300114
0.00307972
0.00299539
0.00322972
0.00338354
0.00346605
0.00344061
0.00327977
0.00301977
0.00278611
0.00291324
0.00280104
0.00262103
0.00284567
0.00305227
0.00319082
0.00325859
0.00322387
0.00306456
0.00282216
0.00262894
0.00280275
0.00272306
0.00253496
0.00271791
0.0028987
0.00302037
0.00307503
0.00303223
0.00287688
0.00266092
0.00251213
0.00272748
0.00265845
0.00246007
0.00260726
0.00276389
0.00287011
0.00291247
0.00286329
0.00271574
0.00252837
0.00241867
0.00266347
0.00259836
0.0023879
0.00251051
0.00264412
0.00273613
0.00276829
0.00271376
0.00257669
0.00241934
0.00233724
0.0026036
0.00254191
0.00231718
0.00242428
0.00253634
0.00261504
0.00263822
0.00258053
0.00245591
0.00232281
0.00226016
0.00254611
0.00249313
0.00225524
0.0023449
0.002439
0.00250522
0.00252005
0.00246133
0.00234933
0.00223622
0.00219197
0.00249444
0.00244806
0.00219906
0.00227262
0.00235068
0.00240532
0.00241268
0.00235446
0.00225473
0.00215893
0.00213576
0.00245038
0.00240763
0.00215184
0.00220677
0.00226991
0.00231385
0.00231486
0.0022583
0.00216954
0.0036273
0.00340828
0.00373603
0.00396486
0.00412719
0.00428029
0.00333596
0.0030835
0.0034401
0.00367525
0.00384895
0.00397095
0.00307972
0.00287713
0.00318955
0.00343287
0.00360154
0.00370136
0.00291324
0.00273302
0.0029974
0.0032283
0.00338311
0.00346551
0.00280275
0.00262486
0.00284592
0.0030515
0.00319034
0.00325797
0.00272748
0.002541
0.00271759
0.00289836
0.00301987
0.0030744
0.00266347
0.00246495
0.00260719
0.00276365
0.00286963
0.00291186
0.0026036
0.00239312
0.00251058
0.00264399
0.00273566
0.00276768
0.00254611
0.00232186
0.00242478
0.00253629
0.00261459
0.00263761
0.00249444
0.00225702
0.00234586
0.00243892
0.00250475
0.0025194
0.00245038
0.0022032
0.00227254
0.00235033
0.00240448
0.00241174
0.00302169
0.00328226
0.00344099
0.00280104
0.00262729
0.00282293
0.00306621
0.00322359
0.00272306
0.00250719
0.00266031
0.00287793
0.00303183
0.00265845
0.00241313
0.00252683
0.00271581
0.00286296
0.00259836
0.00233058
0.00241672
0.0025762
0.00271348
0.00254191
0.00225424
0.00232058
0.0024551
0.00258019
0.00249313
0.00218914
0.00223486
0.00234859
0.00246098
0.00244806
0.00213177
0.00215801
0.00225429
0.0023542
0.00240763
0.00208439
0.00208917
0.00216986
0.00225825
)
;
    }
    ami2
    {
        type            cyclicAMI;
        value           nonuniform List<scalar> 
48
(
0.00413231
0.00427896
0.00445628
0.00449906
0.00437291
0.00410309
0.00376448
0.00358767
0.00709444
0.00768981
0.00789867
0.00767936
0.00709184
0.0061682
0.00492374
0.00359274
0.00935572
0.0102431
0.0105295
0.0102224
0.00933259
0.00799354
0.00622832
0.00391497
0.0110313
0.0120442
0.0123855
0.0120491
0.0110329
0.00935748
0.00709581
0.00413167
0.0120481
0.0131382
0.013504
0.0131382
0.0120445
0.0102437
0.00769006
0.00427884
0.0123865
0.0135046
0.0138797
0.0135046
0.0123857
0.0105287
0.00789791
0.00445608
)
;
    }
    outlet
    {
        type            zeroGradient;
    }
    procBoundary0to1
    {
        type            processor;
        value           nonuniform List<scalar> 
138
(
0.00368899
0.00346647
0.0032587
0.00307493
0.00291228
0.00276802
0.00263789
0.00251967
0.00241228
0.00231445
0.00602483
0.00566271
0.00519871
0.00479192
0.00443539
0.00412436
0.00384769
0.00359774
0.00337212
0.00316851
0.00969898
0.00880083
0.00801776
0.00801776
0.00756182
0.0069393
0.00639038
0.00590447
0.00547306
0.00508903
0.0047455
0.00443654
0.00415757
0.00999957
0.00907782
0.0082706
0.00756182
0.0069393
0.00639038
0.00590447
0.00547306
0.00508903
0.0047455
0.00443654
0.00415757
0.0114459
0.0104012
0.00948788
0.00868589
0.0079788
0.007353
0.00679709
0.0063016
0.00585846
0.00546072
0.00510247
0.00477872
0.0124926
0.0113643
0.0103751
0.00950453
0.00873528
0.00805305
0.00744586
0.00690362
0.00641784
0.00598124
0.00558764
0.00523183
0.012843
0.0116872
0.0106738
0.0097811
0.00899153
0.0082906
0.00766623
0.00710824
0.00660801
0.00615821
0.00575255
0.00538578
0.0124928
0.0113644
0.0103749
0.00950409
0.00873474
0.00805249
0.00744533
0.00690315
0.00641742
0.00598088
0.00558732
0.00523154
0.0114476
0.0103988
0.0094831
0.00868011
0.00797296
0.00734764
0.00679254
0.00629799
0.00585583
0.00545908
0.00510183
0.004779
0.00970425
0.00880485
0.00802164
0.00733641
0.00673483
0.00620483
0.00573624
0.00532077
0.00495103
0.00462018
0.00432268
0.00730417
0.00661855
0.0060231
0.0055062
0.00505644
0.00466339
0.00432192
0.0040233
0.0037563
0.00351595
0.00329983
0.00430284
0.00397172
0.00368662
0.00343995
0.00322347
0.00303201
0.00286323
0.00271378
0.00258053
0.00246129
0.00235425
)
;
    }
    procBoundary0to2
    {
        type            processor;
        value           nonuniform List<scalar> 
28
(
0.00291474
0.00273401
0.00273401
0.00373939
0.00344234
0.00319051
0.00319051
0.00278854
0.00278854
0.00328776
0.00328776
0.00328776
0.00589105
0.00529536
0.00481292
0.00481292
0.00326348
0.00471941
0.00759449
0.00688168
0.00626303
0.00626303
0.00352426
0.0055179
0.00886478
0.00804687
0.0073309
0.0073309
)
;
    }
    procBoundary0to8
    {
        type            processor;
        value           nonuniform List<scalar> 
29
(
0.00236464
0.00210365
0.00214756
0.00219487
0.00222923
0.00203745
0.00194347
0.0024302
0.00273973
0.00291855
0.00202739
0.0023843
0.00304682
0.00352577
0.0038083
0.00209277
0.00273552
0.00352115
0.00411877
0.00448536
0.00217133
0.00292813
0.00381076
0.00448688
0.0049093
0.00505343
0.00460994
0.00505346
0.00520586
)
;
    }
    procBoundary0to9
    {
        type            processor;
        value           nonuniform List<scalar> 
40
(
0.00222495
0.00217115
0.00209204
0.00208858
0.00208858
0.00208415
0.00240637
0.00298454
0.00292744
0.00273369
0.00252247
0.00252247
0.00204814
0.00215149
0.00390494
0.0038103
0.00352047
0.0032375
0.0032375
0.00256412
0.00220605
0.00460983
0.00448665
0.00411862
0.00375208
0.00375208
0.00290506
0.00226822
0.00490923
0.00448525
0.00405512
0.00405512
0.00309804
0.00231184
0.00505337
0.00460966
0.00415737
0.00415737
0.00316773
0.00231306
)
;
    }
}


// ************************************************************************* //
