/*--------------------------------*- C++ -*----------------------------------*\
| =========                 |                                                 |
| \\      /  F ield         | OpenFOAM: The Open Source CFD Toolbox           |
|  \\    /   O peration     | Version:  2212                                  |
|   \\  /    A nd           | Website:  www.openfoam.com                      |
|    \\/     M anipulation  |                                                 |
\*---------------------------------------------------------------------------*/
FoamFile
{
    version     2.0;
    format      ascii;
    arch        "LSB;label=32;scalar=64";
    class       volScalarField;
    location    "3";
    object      nut;
}
// * * * * * * * * * * * * * * * * * * * * * * * * * * * * * * * * * * * * * //

dimensions      [0 2 -1 0 0 0 0];

internalField   nonuniform List<scalar> 
689
(
4.30737e-06
4.24966e-06
4.20101e-06
4.15535e-06
4.11149e-06
4.07153e-06
4.0348e-06
4.00198e-06
8.96224e-06
8.81206e-06
8.68184e-06
8.55559e-06
8.42867e-06
8.31312e-06
8.20786e-06
8.11874e-06
1.3953e-05
1.36077e-05
1.32978e-05
1.30233e-05
1.2781e-05
1.25606e-05
1.2354e-05
1.21613e-05
1.19823e-05
1.96251e-05
1.90498e-05
1.84871e-05
1.7969e-05
1.74866e-05
1.70459e-05
1.66429e-05
1.62798e-05
1.59435e-05
1.56326e-05
1.53446e-05
1.50763e-05
2.28095e-05
2.20434e-05
2.133e-05
2.06746e-05
2.00755e-05
1.95288e-05
1.90328e-05
1.85791e-05
1.81593e-05
1.77701e-05
1.74088e-05
1.70718e-05
2.42303e-05
2.32896e-05
2.24571e-05
2.17103e-05
2.10371e-05
2.04266e-05
1.98725e-05
1.93682e-05
1.89032e-05
1.84717e-05
1.80714e-05
1.76995e-05
2.32427e-05
2.23258e-05
2.15096e-05
2.07767e-05
2.01144e-05
1.95106e-05
1.89618e-05
1.84626e-05
1.80057e-05
1.75867e-05
1.72025e-05
1.68491e-05
2.01815e-05
1.93952e-05
1.86926e-05
1.80425e-05
1.74563e-05
1.69247e-05
1.64499e-05
1.60274e-05
1.56517e-05
1.53129e-05
1.50057e-05
1.47218e-05
1.5624e-05
1.50263e-05
1.44948e-05
1.39591e-05
1.35044e-05
1.31186e-05
1.27914e-05
1.25191e-05
1.22731e-05
1.20465e-05
1.18398e-05
1.0342e-05
9.92101e-06
9.5072e-06
9.1892e-06
8.94082e-06
8.74713e-06
8.58726e-06
8.44946e-06
8.31339e-06
8.18642e-06
8.08335e-06
4.81352e-06
4.65749e-06
4.50109e-06
4.38965e-06
4.30929e-06
4.25357e-06
4.20463e-06
4.15957e-06
4.11517e-06
4.07303e-06
4.03719e-06
8.9346e-06
8.73674e-06
8.57823e-06
8.4378e-06
8.30173e-06
8.18034e-06
8.07435e-06
7.98627e-06
2.3538e-05
2.31746e-05
2.23935e-05
2.1238e-05
1.99147e-05
1.88892e-05
1.78912e-05
1.73401e-05
5.46785e-05
5.20866e-05
4.92702e-05
4.65673e-05
4.4087e-05
4.1812e-05
3.96088e-05
3.76888e-05
3.56017e-05
8.74326e-05
8.17616e-05
7.86023e-05
7.54438e-05
7.26084e-05
6.97078e-05
6.59915e-05
6.23372e-05
5.90072e-05
5.59522e-05
5.31432e-05
5.05399e-05
0.000103226
9.74454e-05
9.2345e-05
8.77404e-05
8.34868e-05
7.95846e-05
7.69216e-05
7.37053e-05
6.97547e-05
6.61702e-05
6.29268e-05
5.99576e-05
0.000111393
0.000104109
9.79224e-05
9.2556e-05
8.7787e-05
8.34772e-05
8.00049e-05
7.75171e-05
7.41373e-05
7.03022e-05
6.691e-05
6.38596e-05
0.000103368
9.79958e-05
9.2721e-05
8.79719e-05
8.36585e-05
7.98326e-05
7.71406e-05
7.44817e-05
7.09236e-05
6.75189e-05
6.44747e-05
6.17093e-05
8.15158e-05
7.98898e-05
7.71013e-05
7.44449e-05
7.15914e-05
6.90044e-05
6.62214e-05
6.30238e-05
6.00725e-05
5.73297e-05
5.47841e-05
5.23364e-05
5.71218e-05
5.66042e-05
5.49702e-05
5.26872e-05
5.0597e-05
4.83737e-05
4.62712e-05
4.41428e-05
4.19888e-05
3.98747e-05
3.79383e-05
3.13234e-05
2.66426e-05
2.54786e-05
2.49242e-05
2.44121e-05
2.37244e-05
2.28082e-05
2.16068e-05
2.01896e-05
1.89695e-05
1.82895e-05
1.02456e-05
9.72414e-06
9.39941e-06
9.15882e-06
8.96942e-06
8.82625e-06
8.69088e-06
8.56466e-06
8.43754e-06
8.31676e-06
8.216e-06
1.39563e-05
1.34987e-05
1.31151e-05
1.2787e-05
1.25121e-05
1.22665e-05
1.20415e-05
1.18354e-05
1.16473e-05
5.21294e-05
5.03891e-05
4.82935e-05
4.62453e-05
4.41126e-05
4.19928e-05
3.98944e-05
3.79368e-05
3.60809e-05
9.79747e-05
9.41586e-05
9.04321e-05
8.68006e-05
8.32604e-05
7.98017e-05
7.64363e-05
7.31876e-05
7.00889e-05
0.000148449
0.000141377
0.000135117
0.000129479
0.000124221
0.000119249
0.00011448
0.000109923
0.000105588
0.000101456
9.75051e-05
9.37469e-05
0.0001721
0.000163206
0.000155293
0.00014816
0.000141645
0.00013568
0.00013024
0.000125158
0.000120299
0.0001157
0.000111351
0.000107236
0.000179108
0.00017002
0.000161689
0.000154122
0.000147242
0.000140973
0.000135282
0.000130123
0.000125269
0.000120631
0.000116231
0.000112074
0.000169541
0.000161737
0.000154302
0.000147403
0.000141065
0.000135284
0.000130036
0.000125198
0.000120627
0.000116294
0.000112172
0.000108247
0.000148159
0.000141253
0.000134924
0.000129158
0.00012385
0.000118973
0.00011442
0.000110074
0.000105908
0.000101912
9.8123e-05
9.44895e-05
0.000113995
0.000107442
0.000102613
9.83489e-05
9.43673e-05
9.0547e-05
8.6889e-05
8.33309e-05
7.9858e-05
7.64561e-05
7.32451e-05
6.30714e-05
5.8349e-05
5.67486e-05
5.49897e-05
5.21821e-05
4.93111e-05
4.66952e-05
4.42172e-05
4.19476e-05
3.96987e-05
3.78665e-05
1.51926e-05
1.48141e-05
1.44007e-05
1.39657e-05
1.36103e-05
1.32985e-05
1.30254e-05
1.27814e-05
1.25614e-05
1.23558e-05
1.21605e-05
1.80565e-05
1.74561e-05
1.69239e-05
1.64479e-05
1.60248e-05
1.56485e-05
1.53095e-05
1.50027e-05
1.47212e-05
7.45831e-05
7.14339e-05
6.89875e-05
6.62521e-05
6.30309e-05
6.0075e-05
5.73412e-05
5.47905e-05
5.24307e-05
0.000128619
0.000123462
0.000118711
0.000114246
0.000109958
0.00010583
0.000101866
9.80912e-05
9.45094e-05
0.000189946
0.000180777
0.000172634
0.000165321
0.000158661
0.000152533
0.000146832
0.000141488
0.000136455
0.000131698
0.000127187
0.000122901
0.000210996
0.00020196
0.000193464
0.000185538
0.000178169
0.000171313
0.000164933
0.000158988
0.000153432
0.000148201
0.00014326
0.000138587
0.000217433
0.000208461
0.000199932
0.000191892
0.000184357
0.000177317
0.000170752
0.000164631
0.000158911
0.000153546
0.000148493
0.000143723
0.000211671
0.00020216
0.00019346
0.000185453
0.000178061
0.000171222
0.000164879
0.000158976
0.000153457
0.000148274
0.000143391
0.000138777
0.000190028
0.000180946
0.000172901
0.000165593
0.000158898
0.000152721
0.000146974
0.000141593
0.000136533
0.000131754
0.000127227
0.000122933
0.000148554
0.000141397
0.000135274
0.000129619
0.000124329
0.00011934
0.000114542
0.000109959
0.000105609
0.000101468
9.75093e-05
8.78637e-05
8.17794e-05
7.87008e-05
7.54621e-05
7.2558e-05
6.96895e-05
6.59833e-05
6.23292e-05
5.90027e-05
5.59492e-05
5.31442e-05
1.96232e-05
1.90444e-05
1.84846e-05
1.79656e-05
1.7484e-05
1.70448e-05
1.66421e-05
1.6279e-05
1.59429e-05
1.56319e-05
1.5343e-05
2.07838e-05
2.01162e-05
1.95105e-05
1.89613e-05
1.84619e-05
1.80045e-05
1.75854e-05
1.72012e-05
1.68485e-05
8.75538e-05
8.33982e-05
7.96517e-05
7.71137e-05
7.44725e-05
7.08965e-05
6.75042e-05
6.44714e-05
6.17252e-05
0.000147049
0.00014081
0.000135118
0.000129943
0.000125149
0.000120602
0.000116286
0.000112173
0.000108262
0.000211719
0.000202209
0.00019345
0.000185412
0.000178015
0.000171183
0.000164851
0.000158957
0.000153444
0.000148266
0.000143387
0.000138776
0.000233054
0.000223487
0.000214564
0.00020622
0.00019841
0.000191098
0.000184249
0.000177828
0.000171803
0.000166139
0.000160804
0.000155772
0.000238792
0.000229639
0.000220928
0.000212657
0.000204827
0.000197434
0.000190468
0.000183912
0.000177742
0.000171934
0.000166461
0.000161298
0.000233046
0.000223488
0.000214567
0.000206224
0.000198415
0.000191102
0.000184252
0.00017783
0.000171804
0.00016614
0.000160804
0.000155772
0.000211019
0.000201947
0.00019347
0.000185568
0.000178212
0.000171358
0.000164977
0.000159026
0.000153462
0.000148225
0.00014328
0.000138616
0.000172119
0.000163227
0.000155306
0.000148166
0.000141646
0.000135671
0.000130246
0.000125153
0.000120278
0.000115677
0.000111328
0.00010326
9.74638e-05
9.23427e-05
8.77163e-05
8.3452e-05
7.95519e-05
7.68918e-05
7.36684e-05
6.97172e-05
6.61354e-05
6.28876e-05
2.28089e-05
2.20408e-05
2.13271e-05
2.06717e-05
2.00728e-05
1.95262e-05
1.90305e-05
1.85769e-05
1.81572e-05
1.77682e-05
1.74057e-05
0.00021748
0.000208517
0.000199976
0.000191924
0.000184383
0.000177342
0.000170778
0.000164656
0.000158934
0.000153568
0.000148515
0.000143743
0.000238846
0.000229689
0.00022097
0.00021269
0.000204853
0.000197455
0.000190486
0.000183927
0.000177755
0.000171945
0.000166469
0.000161304
0.000246805
0.000237039
0.000227976
0.000219483
0.000211492
0.00020396
0.000196859
0.000190166
0.000183857
0.000177909
0.000172298
0.000167003
0.000238844
0.000229702
0.000220973
0.000212683
0.00020484
0.00019744
0.00019047
0.000183912
0.000177742
0.000171934
0.000166461
0.000161298
0.000217381
0.000208389
0.000199846
0.000191813
0.000184295
0.000177275
0.000170726
0.000164617
0.000158905
0.000153544
0.000148495
0.000143737
0.000179184
0.00016989
0.000161501
0.000153945
0.000147099
0.000140868
0.00013521
0.000130075
0.000125228
0.000120593
0.0001162
0.000111402
0.000103994
9.77838e-05
9.24272e-05
8.76754e-05
8.34036e-05
7.99523e-05
7.74587e-05
7.40692e-05
7.02439e-05
6.68545e-05
2.42287e-05
2.32886e-05
2.24559e-05
2.1709e-05
2.10355e-05
2.0425e-05
1.98708e-05
1.93665e-05
1.89015e-05
1.84699e-05
1.80687e-05
)
;

boundaryField
{
    inlet
    {
        type            calculated;
        value           nonuniform List<scalar> 0();
    }
    ami1
    {
        type            cyclicAMI;
        value           nonuniform List<scalar> 0();
    }
    walls
    {
        type            nutkWallFunction;
        blending        stepwise;
        value           uniform 0;
    }
    ami2
    {
        type            cyclicAMI;
        value           nonuniform List<scalar> 
48
(
2.18786e-05
2.35416e-05
2.54971e-05
2.53828e-05
2.30679e-05
1.8932e-05
1.35878e-05
7.563e-06
9.32784e-05
0.000108931
0.000114681
0.000107651
8.99256e-05
6.67452e-05
3.82962e-05
1.21593e-05
0.000154349
0.000176584
0.000182631
0.000173871
0.000152683
0.000118932
6.88242e-05
1.80932e-05
0.000194593
0.000216061
0.000222616
0.000216169
0.000194639
0.000154404
9.34911e-05
2.18781e-05
0.000216185
0.000238104
0.000244519
0.000238103
0.000216077
0.000176595
0.000108948
2.35413e-05
0.000222637
0.000244547
0.000252092
0.000244548
0.000222593
0.000182667
0.000114684
2.54962e-05
)
;
    }
    outlet
    {
        type            calculated;
        value           nonuniform List<scalar> 0();
    }
    procBoundary0to1
    {
        type            processor;
        value           nonuniform List<scalar> 
138
(
2.15148e-05
2.17122e-05
2.10385e-05
2.04275e-05
1.98729e-05
1.93682e-05
1.89029e-05
1.84711e-05
1.80707e-05
1.76987e-05
9.28535e-05
9.25621e-05
8.77641e-05
8.3466e-05
8.00257e-05
7.75094e-05
7.40984e-05
7.027e-05
6.68859e-05
6.38426e-05
0.000169352
0.000161515
0.000154044
0.000154044
0.000154082
0.000147208
0.000140958
0.000135283
0.000130129
0.000125277
0.000120641
0.000116244
0.000112088
0.000179175
0.000169989
0.000161684
0.000154082
0.000147208
0.000140958
0.000135283
0.000130129
0.000125277
0.000120641
0.000116244
0.000112088
0.000211106
0.000202012
0.000193498
0.000185565
0.000178194
0.000171336
0.000164955
0.00015901
0.000153453
0.000148222
0.000143279
0.000138603
0.000233093
0.000223525
0.000214597
0.000206248
0.000198434
0.000191119
0.000184267
0.000177846
0.00017182
0.000166154
0.000160818
0.000155782
0.000238825
0.000229713
0.000221001
0.000212718
0.000204875
0.000197472
0.000190499
0.000183937
0.000177763
0.000171952
0.000166475
0.000161309
0.000233101
0.00022353
0.000214591
0.000206233
0.000198416
0.0001911
0.00018425
0.000177831
0.000171807
0.000166144
0.000160809
0.000155776
0.000211761
0.00020226
0.000193503
0.000185447
0.00017803
0.000171185
0.000164849
0.000158956
0.000153445
0.00014827
0.000143392
0.000138784
0.000169419
0.000161646
0.000154195
0.000147296
0.000140973
0.000135208
0.000129991
0.00012517
0.000120607
0.00011628
0.000112162
0.000103272
9.78465e-05
9.25912e-05
8.78745e-05
8.35942e-05
7.97795e-05
7.71415e-05
7.44712e-05
7.08979e-05
6.7495e-05
6.4463e-05
2.32385e-05
2.23228e-05
2.15096e-05
2.07772e-05
2.01156e-05
1.95122e-05
1.89637e-05
1.84645e-05
1.80072e-05
1.75878e-05
1.72029e-05
)
;
    }
    procBoundary0to2
    {
        type            processor;
        value           nonuniform List<scalar> 
28
(
4.39173e-06
9.16146e-06
9.16146e-06
1.52059e-05
1.48228e-05
1.44066e-05
1.44066e-05
9.19412e-06
9.19412e-06
2.52594e-05
2.52594e-05
2.52594e-05
6.28974e-05
5.84627e-05
5.67032e-05
5.67032e-05
1.44993e-05
5.51714e-05
0.000113956
0.000107739
0.000102607
0.000102607
1.86854e-05
7.68818e-05
0.000147995
0.000141116
0.000134683
0.000134683
)
;
    }
    procBoundary0to8
    {
        type            processor;
        value           nonuniform List<scalar> 
29
(
3.96714e-06
8.0287e-06
1.18191e-05
1.48233e-05
1.67547e-05
7.89997e-06
1.59795e-05
3.40352e-05
4.7997e-05
5.7164e-05
1.14765e-05
3.40345e-05
6.68524e-05
9.01194e-05
0.000103393
1.446e-05
5.00053e-05
9.09806e-05
0.000118825
0.000134193
1.6523e-05
5.91051e-05
0.000104516
0.000134419
0.000151033
0.000156436
0.000139239
0.000156434
0.000162009
)
;
    }
    procBoundary0to9
    {
        type            processor;
        value           nonuniform List<scalar> 
40
(
1.73514e-05
1.65225e-05
1.44586e-05
1.16484e-05
1.16484e-05
7.98809e-06
4.00137e-06
6.10529e-05
5.90887e-05
4.9972e-05
3.56715e-05
3.56715e-05
1.68271e-05
8.11939e-06
0.000108191
0.000104514
9.09922e-05
6.98206e-05
6.98206e-05
3.49138e-05
1.19805e-05
0.00013924
0.000134419
0.000118836
9.37704e-05
9.37704e-05
5.03752e-05
1.50704e-05
0.000151026
0.000134197
0.000107311
0.000107311
5.98555e-05
1.70645e-05
0.000156426
0.000139238
0.000112121
0.000112121
6.37833e-05
1.76941e-05
)
;
    }
}


// ************************************************************************* //
