/*--------------------------------*- C++ -*----------------------------------*\
| =========                 |                                                 |
| \\      /  F ield         | OpenFOAM: The Open Source CFD Toolbox           |
|  \\    /   O peration     | Version:  2212                                  |
|   \\  /    A nd           | Website:  www.openfoam.com                      |
|    \\/     M anipulation  |                                                 |
\*---------------------------------------------------------------------------*/
FoamFile
{
    version     2.0;
    format      ascii;
    arch        "LSB;label=32;scalar=64";
    class       volScalarField;
    location    "3";
    object      p;
}
// * * * * * * * * * * * * * * * * * * * * * * * * * * * * * * * * * * * * * //

dimensions      [0 2 -2 0 0 0 0];

internalField   nonuniform List<scalar> 
689
(
0.00431688
0.0041773
0.00404018
0.00390591
0.00377054
0.00363455
0.00349903
0.00336616
0.00434379
0.00420051
0.00405938
0.00392078
0.00378125
0.00364139
0.00350255
0.00336689
0.00447952
0.00434156
0.00420005
0.00405635
0.00391345
0.00377185
0.00363161
0.00349319
0.00335642
0.00495931
0.00481553
0.00464854
0.00449334
0.00434906
0.00420608
0.00406293
0.00392086
0.00378011
0.00364063
0.00350246
0.00336612
0.00499043
0.00483029
0.00466135
0.00450061
0.0043476
0.00419898
0.00405403
0.00391293
0.00377427
0.00363663
0.00350029
0.0033651
0.00501838
0.00484719
0.00466999
0.00450372
0.00434744
0.00419747
0.00405181
0.0039104
0.00377252
0.00363601
0.00350015
0.00336523
0.00506065
0.00487523
0.00468137
0.00450707
0.0043481
0.00419644
0.00404945
0.00390737
0.00376903
0.00363222
0.00349638
0.00336183
0.00512718
0.00491453
0.00469057
0.00450071
0.00433568
0.00418259
0.00403672
0.00389633
0.00375883
0.0036231
0.00348886
0.00335595
0.00521936
0.00493576
0.00465784
0.00445979
0.00429861
0.00415057
0.00401008
0.00387505
0.00374234
0.00361045
0.00347965
0.0053216
0.00490513
0.00457099
0.00440573
0.00428021
0.00414793
0.00401647
0.00388746
0.00375755
0.00362535
0.00349489
0.00532327
0.00486194
0.0045694
0.00443663
0.0043151
0.00417845
0.00404165
0.00390694
0.00377179
0.00363508
0.00350089
0.00428244
0.00414695
0.00401492
0.00388621
0.0037561
0.00362456
0.00349271
0.00336302
0.00432753
0.00418713
0.00405019
0.00391497
0.00378014
0.00364542
0.00351138
0.00337817
0.00446895
0.00432236
0.004182
0.00404241
0.00390368
0.00376689
0.00363152
0.00349706
0.00336258
0.00490059
0.00475328
0.00461906
0.00447344
0.00432888
0.00418769
0.00404805
0.00391015
0.00377364
0.00363796
0.00350293
0.00336882
0.00495701
0.00479601
0.00464303
0.00449281
0.00434579
0.00420145
0.00405893
0.00391826
0.00377951
0.0036424
0.00350671
0.00337227
0.00498314
0.00482081
0.00466749
0.00451669
0.00436715
0.00422019
0.00407575
0.00393287
0.00379154
0.00365229
0.00351508
0.00337944
0.0049917
0.00484207
0.00469724
0.00454307
0.00438826
0.00423691
0.00408854
0.00394246
0.00379867
0.00365738
0.00351829
0.00338091
0.00501067
0.0048711
0.00472018
0.0045544
0.0043923
0.00423553
0.00408261
0.00393385
0.00378912
0.00364785
0.00350862
0.00337132
0.00503302
0.00486815
0.00469199
0.00452106
0.00436032
0.00420576
0.00405607
0.00391036
0.00376867
0.00363127
0.00349537
0.00510699
0.00485687
0.00463268
0.00447158
0.0043284
0.00418824
0.00405111
0.00391565
0.0037807
0.00364599
0.00351265
0.00518041
0.00485482
0.00461209
0.00447294
0.00434213
0.00420182
0.00406111
0.00392201
0.00378248
0.00364192
0.00350442
0.00446081
0.00429826
0.00414927
0.00400877
0.00387405
0.00374157
0.0036099
0.00347883
0.00334872
0.00451959
0.00435834
0.00420498
0.00405569
0.00391008
0.00376865
0.00363113
0.00349607
0.00336162
0.00448125
0.00432328
0.00417105
0.00402325
0.00387878
0.00373802
0.00360033
0.00346459
0.00333
0.00485338
0.00471137
0.00459098
0.00445047
0.00430309
0.00415764
0.00401433
0.00387325
0.00373445
0.00359763
0.00346237
0.00332836
0.00487954
0.00472561
0.00458934
0.00444654
0.00430093
0.00415719
0.00401518
0.00387404
0.00373444
0.00359706
0.00346164
0.00332775
0.00490387
0.00474465
0.00460248
0.0044577
0.00431146
0.00416723
0.00402515
0.00388374
0.00374292
0.00360403
0.00346739
0.00333248
0.00491651
0.00476262
0.00462463
0.00447781
0.004328
0.00418095
0.00403601
0.00389204
0.0037492
0.00360875
0.00347072
0.00333468
0.00490902
0.00476965
0.00464286
0.00449274
0.00433717
0.00418565
0.00403678
0.00388988
0.00374628
0.00360584
0.00346753
0.00333141
0.0048962
0.0047612
0.00463677
0.00448266
0.00432386
0.00417109
0.00402339
0.00387889
0.00373781
0.0035998
0.00346279
0.00494676
0.00477674
0.00462284
0.00447015
0.00432426
0.00418264
0.00404268
0.00390383
0.0037667
0.0036314
0.00349594
0.00499381
0.00481876
0.00463133
0.00447899
0.00434175
0.00420091
0.00405716
0.00391405
0.00377229
0.00363197
0.00349411
0.00450097
0.00433573
0.00418214
0.00403602
0.00389564
0.00375819
0.00362253
0.00348826
0.00335554
0.00455392
0.00439203
0.00423539
0.0040823
0.00393345
0.00378879
0.00364763
0.00350879
0.0033714
0.00449214
0.00433687
0.00418561
0.00403672
0.00388979
0.00374635
0.0036061
0.00346819
0.00333193
0.00486436
0.00471467
0.00458639
0.00444542
0.00429885
0.00415405
0.00401115
0.00386961
0.00372984
0.00359202
0.00345591
0.0033213
0.00484672
0.00469423
0.00456407
0.00442528
0.00428193
0.00413967
0.0039989
0.00385913
0.00372059
0.00358362
0.00344825
0.00331435
0.00484673
0.00469265
0.0045616
0.00442338
0.00428101
0.00413949
0.00399937
0.00386008
0.00372172
0.0035847
0.0034492
0.00331516
0.00485794
0.00470423
0.00457252
0.00443285
0.00428892
0.00414621
0.00400508
0.00386481
0.00372562
0.00358793
0.00345187
0.00331738
0.00486449
0.00471485
0.00458673
0.00444568
0.0042989
0.00415398
0.00401107
0.00386951
0.00372967
0.00359176
0.00345552
0.00332095
0.00485327
0.00471122
0.00459132
0.0044509
0.0043033
0.00415778
0.00401448
0.00387332
0.00373432
0.00359729
0.00346159
0.00490047
0.00475316
0.00461919
0.00447371
0.00432913
0.00418797
0.00404844
0.00391049
0.0037738
0.00363791
0.00350222
0.00495923
0.00481567
0.00464852
0.00449319
0.00434894
0.00420618
0.00406325
0.00392127
0.00378054
0.003641
0.00350292
0.00450749
0.00434812
0.00419608
0.00404894
0.00390692
0.00376863
0.00363185
0.00349599
0.00336153
0.00454291
0.00438812
0.00423679
0.00408837
0.00394221
0.00379844
0.00365721
0.00351822
0.00338087
0.00447724
0.00432784
0.00418106
0.00403615
0.00389212
0.00374928
0.00360889
0.00347095
0.00333492
0.00485781
0.00470399
0.00457225
0.00443267
0.0042889
0.0041463
0.0040052
0.00386493
0.00372575
0.00358809
0.00345207
0.0033176
0.00482571
0.00467362
0.00454676
0.0044105
0.00426902
0.00412826
0.00398873
0.00384994
0.00371203
0.00357528
0.00343988
0.00330594
0.00481651
0.00466419
0.00453912
0.00440396
0.0042633
0.00412345
0.00398464
0.00384639
0.00370892
0.00357251
0.00343732
0.0033035
0.00482578
0.00467372
0.00454687
0.00441059
0.00426907
0.00412825
0.0039887
0.00384989
0.00371195
0.00357518
0.00343976
0.0033058
0.00484684
0.00469435
0.00456422
0.0044254
0.00428199
0.00413968
0.00399889
0.00385908
0.00372048
0.00358347
0.00344806
0.00331413
0.0048796
0.00472564
0.00458944
0.00444666
0.00430105
0.00415729
0.00401524
0.00387404
0.00373436
0.00359689
0.00346135
0.00495707
0.00479594
0.00464303
0.00449285
0.00434591
0.00420165
0.00405914
0.00391841
0.00377956
0.00364233
0.00350645
0.00499046
0.00483039
0.00466144
0.00450066
0.00434768
0.00419915
0.00405426
0.00391316
0.00377444
0.00363676
0.0035004
0.00484673
0.0046926
0.00456153
0.00442332
0.004281
0.00413952
0.0039994
0.00386012
0.00372175
0.00358474
0.00344923
0.00331518
0.00481652
0.00466418
0.00453911
0.00440394
0.00426329
0.00412345
0.00398464
0.00384639
0.00370892
0.00357252
0.00343734
0.00330352
0.00480794
0.00465504
0.00453106
0.00439642
0.00425605
0.00411691
0.00397892
0.00384132
0.00370432
0.00356831
0.0034335
0.00329999
0.00481653
0.0046642
0.00453915
0.00440398
0.00426332
0.00412346
0.00398464
0.00384638
0.00370889
0.00357247
0.00343727
0.00330344
0.00484674
0.00469263
0.00456162
0.00442343
0.00428108
0.00413955
0.00399941
0.00386009
0.00372169
0.00358464
0.00344912
0.00331504
0.00490388
0.00474462
0.00460248
0.00445775
0.00431154
0.00416731
0.0040252
0.00388372
0.00374285
0.00360392
0.00346726
0.00498322
0.00482087
0.00466756
0.00451676
0.00436722
0.00422027
0.0040758
0.00393288
0.0037915
0.00365219
0.00351489
0.00501851
0.00484735
0.00467012
0.00450379
0.00434748
0.00419751
0.00405187
0.00391048
0.00377258
0.00363601
0.00350008
)
;

boundaryField
{
    inlet
    {
        type            zeroGradient;
    }
    ami1
    {
        type            cyclicAMI;
        value           nonuniform List<scalar> 0();
    }
    walls
    {
        type            zeroGradient;
    }
    ami2
    {
        type            cyclicAMI;
        value           nonuniform List<scalar> 
48
(
0.00501309
0.00505592
0.00508617
0.00512101
0.00516836
0.00522444
0.00527491
0.00525648
0.00502608
0.00504721
0.00506929
0.00509009
0.00511369
0.00513156
0.0051736
0.00517092
0.0049823
0.00498661
0.00500385
0.00502011
0.00503023
0.00503663
0.00508673
0.00504703
0.0049784
0.00496039
0.00496064
0.00496895
0.00497851
0.0049823
0.00502603
0.00501294
0.00496889
0.00494453
0.00493808
0.00494459
0.0049605
0.00498669
0.00504733
0.00505592
0.00496067
0.00493809
0.00493145
0.0049381
0.00496067
0.00500388
0.00506938
0.00508627
)
;
    }
    outlet
    {
        type            fixedValue;
        value           nonuniform List<scalar> 0();
    }
    procBoundary0to1
    {
        type            processor;
        value           nonuniform List<scalar> 
138
(
0.00468196
0.00450382
0.00434739
0.00419733
0.00405167
0.00391031
0.00377245
0.00363592
0.00350004
0.00336511
0.00469712
0.00451656
0.00436708
0.00422018
0.00407573
0.00393281
0.00379147
0.00365224
0.00351505
0.00337943
0.00491651
0.00476212
0.00462387
0.00462387
0.00445753
0.0043114
0.00416726
0.00402519
0.00388374
0.00374292
0.00360406
0.00346743
0.00333252
0.00490394
0.00474457
0.00460229
0.00445753
0.0043114
0.00416726
0.00402519
0.00388374
0.00374292
0.00360406
0.00346743
0.00333252
0.00484687
0.00469437
0.0045642
0.00442539
0.00428202
0.00413974
0.00399898
0.00385919
0.00372061
0.0035836
0.00344818
0.00331422
0.0048258
0.00467373
0.00454685
0.00441058
0.00426909
0.00412829
0.00398875
0.00384995
0.00371201
0.00357524
0.00343982
0.00330586
0.00481655
0.00466423
0.00453917
0.004404
0.00426334
0.00412348
0.00398465
0.00384639
0.0037089
0.00357248
0.00343728
0.00330345
0.00482579
0.00467373
0.00454687
0.0044106
0.00426908
0.00412828
0.00398872
0.00384991
0.00371196
0.00357518
0.00343974
0.00330577
0.00485797
0.00470426
0.00457253
0.00443284
0.00428892
0.00414624
0.00400511
0.00386483
0.00372561
0.0035879
0.00345182
0.00331731
0.0049166
0.00476274
0.00462467
0.00447782
0.00432801
0.00418097
0.00403601
0.00389199
0.00374912
0.00360865
0.0034706
0.00499182
0.00484218
0.00469732
0.00454314
0.00438832
0.00423694
0.00408854
0.0039424
0.00379858
0.00365725
0.0035181
0.00506078
0.00487534
0.00468143
0.00450708
0.0043481
0.00419642
0.00404944
0.00390739
0.00376904
0.0036322
0.0034963
)
;
    }
    procBoundary0to2
    {
        type            processor;
        value           nonuniform List<scalar> 
28
(
0.00443884
0.00447511
0.00447511
0.00499381
0.00481878
0.00463178
0.00463178
0.00440839
0.00440839
0.0044722
0.0044722
0.0044722
0.00494685
0.0047768
0.0046231
0.0046231
0.00465888
0.00469214
0.00489657
0.00476138
0.0046358
0.0046358
0.00469087
0.00472001
0.00490909
0.00476951
0.00464234
0.00464234
)
;
    }
    procBoundary0to8
    {
        type            processor;
        value           nonuniform List<scalar> 
29
(
0.00323467
0.00323277
0.00322089
0.00323123
0.0032311
0.00323418
0.00324552
0.0032288
0.00323585
0.0032392
0.00321868
0.00322787
0.00319689
0.00319596
0.00319534
0.00322373
0.00323584
0.00319765
0.00318833
0.00318184
0.00322838
0.00324519
0.00320068
0.00318459
0.00317346
0.00317111
0.00318253
0.00317113
0.00316784
)
;
    }
    procBoundary0to9
    {
        type            processor;
        value           nonuniform List<scalar> 
40
(
0.00323148
0.00322854
0.00322375
0.00334888
0.00334888
0.00336468
0.00336759
0.00324519
0.00324521
0.00323608
0.00336073
0.00336073
0.00337868
0.00336807
0.00319921
0.00320047
0.00319747
0.00332875
0.00332875
0.00336134
0.00335635
0.00318251
0.00318438
0.00318805
0.0033279
0.0033279
0.00336835
0.00336618
0.00317331
0.00318159
0.00332753
0.00332753
0.00337208
0.00336499
0.00317103
0.00318236
0.00333238
0.00333238
0.00337927
0.00336502
)
;
    }
}


// ************************************************************************* //
