/*--------------------------------*- C++ -*----------------------------------*\
| =========                 |                                                 |
| \\      /  F ield         | OpenFOAM: The Open Source CFD Toolbox           |
|  \\    /   O peration     | Version:  2212                                  |
|   \\  /    A nd           | Website:  www.openfoam.com                      |
|    \\/     M anipulation  |                                                 |
\*---------------------------------------------------------------------------*/
FoamFile
{
    version     2.0;
    format      ascii;
    arch        "LSB;label=32;scalar=64";
    class       surfaceScalarField;
    location    "3";
    object      phi;
}
// * * * * * * * * * * * * * * * * * * * * * * * * * * * * * * * * * * * * * //

dimensions      [0 3 -1 0 0 0 0];

oriented        oriented;

internalField   nonuniform List<scalar> 
1812
(
7.86705e-08
-3.51436e-08
3.67453e-08
7.74208e-08
-3.49482e-08
3.6198e-08
7.6315e-08
-3.48338e-08
3.59397e-08
7.52687e-08
-3.47107e-08
3.57571e-08
7.42608e-08
-3.45769e-08
3.55849e-08
7.32917e-08
-3.4461e-08
3.54301e-08
7.23538e-08
-3.43641e-08
3.53021e-08
-3.4272e-08
3.51801e-08
2.40766e-07
-6.47401e-08
3.11045e-08
2.39156e-07
-6.45973e-08
3.12594e-08
2.37352e-07
-6.43945e-08
3.13643e-08
2.35306e-07
-6.41174e-08
3.14528e-08
2.33103e-07
-6.39103e-08
3.15365e-08
2.30843e-07
-6.38077e-08
3.16066e-08
2.28557e-07
-6.37708e-08
3.16934e-08
-6.36714e-08
3.17368e-08
4.59127e-07
-9.00526e-08
2.68344e-08
4.57262e-07
-9.01762e-08
2.73019e-08
4.55042e-07
-9.0069e-08
2.76913e-08
4.52533e-07
-8.99195e-08
2.80344e-08
4.49782e-07
-8.97344e-08
2.83682e-08
4.46799e-07
-8.95631e-08
2.86352e-08
4.43607e-07
-8.9442e-08
2.88266e-08
4.40218e-07
-8.93437e-08
2.89619e-08
-8.92457e-08
2.91195e-08
6.60735e-07
-1.08429e-07
2.12918e-08
6.59759e-07
-1.08741e-07
2.1879e-08
6.58476e-07
-1.09388e-07
2.15432e-08
6.56972e-07
-1.09913e-07
2.13647e-08
6.55202e-07
-1.09965e-07
2.15585e-08
6.52939e-07
-1.09699e-07
2.18926e-08
6.50097e-07
-1.09326e-07
2.22488e-08
6.46721e-07
-1.08965e-07
2.26059e-08
6.42867e-07
-1.0865e-07
2.29419e-08
6.3857e-07
-1.08392e-07
2.32461e-08
6.33835e-07
-1.08123e-07
2.35146e-08
-1.07868e-07
2.37402e-08
8.09695e-07
-1.20274e-07
1.6241e-08
8.06194e-07
-1.21433e-07
1.61942e-08
8.02968e-07
-1.22125e-07
1.59632e-08
7.99495e-07
-1.22337e-07
1.58972e-08
7.95644e-07
-1.22143e-07
1.60284e-08
7.91369e-07
-1.21708e-07
1.62847e-08
7.86633e-07
-1.21175e-07
1.65843e-08
7.81411e-07
-1.20601e-07
1.68591e-08
7.75717e-07
-1.20059e-07
1.7103e-08
7.69564e-07
-1.19561e-07
1.73216e-08
7.63036e-07
-1.19103e-07
1.75093e-08
-1.18663e-07
1.76581e-08
8.79504e-07
-1.2397e-07
9.65201e-09
8.73716e-07
-1.2576e-07
1.01142e-08
8.67502e-07
-1.26282e-07
1.0372e-08
8.60596e-07
-1.26e-07
1.05689e-08
8.53061e-07
-1.25331e-07
1.07233e-08
8.45004e-07
-1.24487e-07
1.08361e-08
8.36527e-07
-1.23606e-07
1.09082e-08
8.2774e-07
-1.22747e-07
1.09331e-08
8.18733e-07
-1.21947e-07
1.08945e-08
8.09547e-07
-1.21192e-07
1.08179e-08
8.00277e-07
-1.20542e-07
1.07092e-08
-1.19981e-07
1.0563e-08
8.53286e-07
-1.19159e-07
2.48857e-09
8.44763e-07
-1.21333e-07
4.09497e-09
8.34738e-07
-1.21061e-07
4.80365e-09
8.23452e-07
-1.19694e-07
4.98017e-09
8.113e-07
-1.18075e-07
4.89582e-09
7.98679e-07
-1.16514e-07
4.64821e-09
7.85932e-07
-1.15165e-07
4.30536e-09
7.73342e-07
-1.14037e-07
3.88003e-09
7.61134e-07
-1.13112e-07
3.37402e-09
7.49414e-07
-1.12332e-07
2.86035e-09
7.38245e-07
-1.11725e-07
2.35213e-09
-1.11274e-07
1.84998e-09
7.31491e-07
-1.04825e-07
-4.03846e-09
7.18006e-07
-1.06822e-07
-1.02436e-09
7.02446e-07
-1.0469e-07
-8.10849e-10
6.85859e-07
-1.01616e-07
-1.49168e-09
6.69236e-07
-9.9048e-08
-2.40269e-09
6.53324e-07
-9.71155e-08
-3.48586e-09
6.38521e-07
-9.57347e-08
-4.62684e-09
6.2502e-07
-9.48194e-08
-5.71631e-09
6.12813e-07
-9.423e-08
-6.67507e-09
6.01826e-07
-9.38015e-08
-7.54406e-09
5.91914e-07
-9.35108e-08
-8.30155e-09
-8.95783e-09
5.31318e-07
-7.99195e-08
-9.03138e-09
5.10341e-07
-7.98945e-08
-5.95039e-09
4.89268e-07
-7.55554e-08
-8.06132e-09
4.70652e-07
-7.23132e-08
-1.06867e-08
4.54867e-07
-7.02216e-08
-1.30412e-08
4.41956e-07
-6.91432e-08
-1.50612e-08
4.31516e-07
-6.86307e-08
-1.6663e-08
4.22971e-07
-6.83983e-08
-1.78755e-08
4.15736e-07
-6.82062e-08
-1.87891e-08
4.09395e-07
-6.79761e-08
-1.94837e-08
-6.78245e-08
-1.99794e-08
2.93632e-07
-4.2813e-08
-1.50576e-08
2.70082e-07
-4.06745e-08
-1.56694e-08
2.5391e-07
-3.90526e-08
-2.03315e-08
2.43641e-07
-3.79326e-08
-2.41111e-08
2.36877e-07
-3.67511e-08
-2.67055e-08
2.31995e-07
-3.61933e-08
-2.80684e-08
2.2811e-07
-3.59424e-08
-2.88027e-08
2.24716e-07
-3.57641e-08
-2.92401e-08
2.21633e-07
-3.55899e-08
-2.95329e-08
2.18783e-07
-3.54421e-08
-2.96833e-08
-3.52957e-08
-2.98562e-08
9.7653e-08
-2.4148e-08
8.73324e-08
-3.03539e-08
8.27629e-08
-3.4483e-08
8.02975e-08
-3.54671e-08
7.87325e-08
-3.5186e-08
7.75251e-08
-3.49859e-08
7.64263e-08
-3.48436e-08
7.53641e-08
-3.47018e-08
7.43296e-08
-3.45553e-08
7.33205e-08
-3.44328e-08
-3.43388e-08
2.36613e-07
-2.67156e-08
7.03782e-08
2.31656e-07
-2.80561e-08
6.92111e-08
2.27783e-07
-2.8814e-08
6.86267e-08
2.24444e-07
-2.92607e-08
6.83566e-08
2.21436e-07
-2.95367e-08
6.81301e-08
2.18688e-07
-2.97256e-08
6.79041e-08
2.1612e-07
-2.9838e-08
6.77085e-08
-2.9959e-08
6.76255e-08
5.48511e-07
-5.26424e-08
6.06456e-08
5.4534e-07
-5.36539e-08
6.00281e-08
5.42644e-07
-5.44214e-08
5.9667e-08
5.40291e-07
-5.49616e-08
5.95072e-08
5.38062e-07
-5.52744e-08
5.95034e-08
5.35796e-07
-5.54482e-08
5.95953e-08
5.33421e-07
-5.55296e-08
5.97603e-08
-5.56582e-08
5.98095e-08
8.14543e-07
-7.59063e-08
5.07436e-08
8.1536e-07
-7.66839e-08
5.05266e-08
8.16146e-07
-7.72614e-08
5.05128e-08
8.16868e-07
-7.77146e-08
5.06059e-08
8.17535e-07
-7.80332e-08
5.07726e-08
8.18146e-07
-7.82325e-08
5.0982e-08
8.18647e-07
-7.83384e-08
5.12164e-08
8.1904e-07
-7.8396e-08
5.14351e-08
-7.84246e-08
5.16356e-08
1.01156e-06
-9.40799e-08
3.79109e-08
1.01504e-06
-9.4592e-08
3.8277e-08
1.01808e-06
-9.49569e-08
3.84371e-08
1.02061e-06
-9.54348e-08
3.83691e-08
1.02298e-06
-9.58663e-08
3.83722e-08
1.02531e-06
-9.61504e-08
3.84487e-08
1.02758e-06
-9.63131e-08
3.85746e-08
1.02975e-06
-9.63718e-08
3.87794e-08
1.03175e-06
-9.63364e-08
3.90403e-08
1.03356e-06
-9.62187e-08
3.93203e-08
1.03513e-06
-9.60458e-08
3.9595e-08
-9.58452e-08
3.98453e-08
1.15479e-06
-1.05002e-07
2.55308e-08
1.15657e-06
-1.05839e-07
2.56597e-08
1.15855e-06
-1.06585e-07
2.56077e-08
1.16062e-06
-1.07155e-07
2.55518e-08
1.16268e-06
-1.07479e-07
2.55787e-08
1.16467e-06
-1.07551e-07
2.56993e-08
1.16651e-06
-1.07441e-07
2.58708e-08
1.16821e-06
-1.07242e-07
2.60274e-08
1.16974e-06
-1.06946e-07
2.61822e-08
1.17104e-06
-1.06553e-07
2.63527e-08
1.1721e-06
-1.06118e-07
2.65237e-08
-1.05668e-07
2.66788e-08
1.20925e-06
-1.08284e-07
1.08764e-08
1.21125e-06
-1.09142e-07
1.14217e-08
1.21317e-06
-1.09925e-07
1.17912e-08
1.21482e-06
-1.10288e-07
1.20506e-08
1.21609e-06
-1.10266e-07
1.22392e-08
1.21695e-06
-1.09972e-07
1.2403e-08
1.21736e-06
-1.09494e-07
1.25424e-08
1.21739e-06
-1.0892e-07
1.25875e-08
1.21712e-06
-1.08298e-07
1.25128e-08
1.21664e-06
-1.07644e-07
1.23917e-08
1.21599e-06
-1.07016e-07
1.22608e-08
-1.06425e-07
1.21092e-08
1.16843e-06
-1.03119e-07
-5.11325e-09
1.17129e-06
-1.04303e-07
-3.60933e-09
1.17327e-06
-1.04574e-07
-2.52457e-09
1.17404e-06
-1.04096e-07
-1.98411e-09
1.17377e-06
-1.03323e-07
-1.77833e-09
1.17266e-06
-1.02421e-07
-1.78629e-09
1.17089e-06
-1.01464e-07
-1.95586e-09
1.16869e-06
-1.00542e-07
-2.29989e-09
1.16629e-06
-9.97361e-08
-2.78869e-09
1.16385e-06
-9.90389e-08
-3.30074e-09
1.16146e-06
-9.84744e-08
-3.80426e-09
-9.80036e-08
-4.30549e-09
1.03725e-06
-8.87276e-08
-2.09167e-08
1.04045e-06
-9.03281e-08
-1.81984e-08
1.04133e-06
-8.94108e-08
-1.6854e-08
1.04011e-06
-8.76865e-08
-1.66805e-08
1.03752e-06
-8.61586e-08
-1.69802e-08
1.03411e-06
-8.48657e-08
-1.76299e-08
1.0304e-06
-8.38579e-08
-1.85253e-08
1.02674e-06
-8.3103e-08
-1.94925e-08
1.02328e-06
-8.25707e-08
-2.0383e-08
1.02015e-06
-8.22366e-08
-2.12111e-08
1.01737e-06
-8.20296e-08
-2.19706e-08
-2.2662e-08
8.27931e-07
-6.53844e-08
-3.57789e-08
8.30655e-07
-6.6718e-08
-3.22845e-08
8.29403e-07
-6.43089e-08
-3.19109e-08
8.25994e-07
-6.20215e-08
-3.29425e-08
8.2181e-07
-6.07601e-08
-3.4255e-08
8.17598e-07
-6.00414e-08
-3.5674e-08
8.13745e-07
-5.96746e-08
-3.69925e-08
8.10402e-07
-5.95178e-08
-3.8118e-08
8.07556e-07
-5.94902e-08
-3.9023e-08
8.0517e-07
-5.96418e-08
-3.9693e-08
-5.97261e-08
-4.02507e-08
5.59945e-07
-3.48951e-08
-4.99118e-08
5.5984e-07
-3.52935e-08
-4.6989e-08
5.56231e-07
-3.24527e-08
-4.85787e-08
5.52077e-07
-3.10893e-08
-5.08893e-08
5.48252e-07
-3.10929e-08
-5.25473e-08
5.45018e-07
-3.12286e-08
-5.3647e-08
5.42323e-07
-3.13709e-08
-5.44117e-08
5.39989e-07
-3.1479e-08
-5.4945e-08
5.378e-07
-3.15548e-08
-5.52786e-08
5.35511e-07
-3.16558e-08
-5.53808e-08
-3.16904e-08
-5.55656e-08
2.52788e-07
-5.9145e-08
2.47186e-07
-6.00451e-08
2.43923e-07
-6.36734e-08
2.42403e-07
-6.50356e-08
2.41057e-07
-6.49337e-08
2.39514e-07
-6.46714e-08
2.37682e-07
-6.43821e-08
2.35567e-07
-6.40655e-08
2.33283e-07
-6.38264e-08
2.30929e-07
-6.37344e-08
-6.36496e-08
4.70602e-07
-1.06237e-08
1.01675e-07
4.54788e-07
-1.29213e-08
9.91139e-08
4.41852e-07
-1.50012e-08
9.71478e-08
4.31411e-07
-1.66574e-08
9.57251e-08
4.22895e-07
-1.79054e-08
9.47783e-08
4.15715e-07
-1.88491e-08
9.41591e-08
4.09453e-07
-1.95547e-08
9.37213e-08
4.03827e-07
-2.00691e-08
9.34035e-08
-2.04086e-08
9.32138e-08
8.26154e-07
-3.29919e-08
8.76342e-08
8.22042e-07
-3.42783e-08
8.61141e-08
8.17899e-07
-3.56744e-08
8.48441e-08
8.14071e-07
-3.69962e-08
8.38346e-08
8.10724e-07
-3.81284e-08
8.30767e-08
8.07862e-07
-3.90329e-08
8.25498e-08
8.05419e-07
-3.97254e-08
8.22085e-08
8.03308e-07
-4.02395e-08
8.20422e-08
-4.06932e-08
8.19212e-08
1.08343e-06
-5.55599e-08
7.00739e-08
1.0861e-06
-5.60536e-08
6.96289e-08
1.0884e-06
-5.66661e-08
6.92082e-08
1.09047e-06
-5.73185e-08
6.88585e-08
1.09243e-06
-5.79351e-08
6.8618e-08
1.09441e-06
-5.84772e-08
6.84479e-08
1.09646e-06
-5.8931e-08
6.83711e-08
1.0986e-06
-5.93034e-08
6.83573e-08
-5.96285e-08
6.83667e-08
1.26634e-06
-7.3016e-08
5.09978e-08
1.27102e-06
-7.31956e-08
5.09153e-08
1.27626e-06
-7.31801e-08
5.10001e-08
1.28139e-06
-7.32767e-08
5.09552e-08
1.28636e-06
-7.34921e-08
5.0843e-08
1.29117e-06
-7.37646e-08
5.07305e-08
1.29584e-06
-7.40531e-08
5.06437e-08
1.30039e-06
-7.43118e-08
5.06089e-08
1.30484e-06
-7.45197e-08
5.06283e-08
1.30922e-06
-7.46757e-08
5.06868e-08
1.31352e-06
-7.47857e-08
5.07732e-08
-7.48606e-08
5.08718e-08
1.39668e-06
-8.31731e-08
3.0927e-08
1.40168e-06
-8.36185e-08
3.10798e-08
1.40689e-06
-8.39167e-08
3.11328e-08
1.4122e-06
-8.41397e-08
3.11046e-08
1.41754e-06
-8.43119e-08
3.10668e-08
1.42285e-06
-8.44281e-08
3.10512e-08
1.4281e-06
-8.44928e-08
3.10555e-08
1.43325e-06
-8.4503e-08
3.10677e-08
1.43827e-06
-8.44471e-08
3.10904e-08
1.44316e-06
-8.43348e-08
3.11284e-08
1.4479e-06
-8.41825e-08
3.11773e-08
-8.40022e-08
3.12302e-08
1.44493e-06
-8.6663e-08
9.31231e-09
1.44994e-06
-8.69366e-08
9.73662e-09
1.45506e-06
-8.72435e-08
9.99173e-09
1.46026e-06
-8.74393e-08
1.01488e-08
1.46542e-06
-8.74853e-08
1.02561e-08
1.47046e-06
-8.73975e-08
1.03311e-08
1.47536e-06
-8.72158e-08
1.03706e-08
1.48005e-06
-8.69703e-08
1.03565e-08
1.48452e-06
-8.66801e-08
1.02835e-08
1.48877e-06
-8.63661e-08
1.01719e-08
1.49285e-06
-8.60423e-08
1.00416e-08
-8.57197e-08
9.89867e-09
1.40385e-06
-8.24239e-08
-1.32505e-08
1.40842e-06
-8.25886e-08
-1.25348e-08
1.41338e-06
-8.27988e-08
-1.19278e-08
1.41826e-06
-8.27647e-08
-1.15339e-08
1.42286e-06
-8.25328e-08
-1.13339e-08
1.42714e-06
-8.21706e-08
-1.12896e-08
1.43109e-06
-8.17483e-08
-1.13758e-08
1.43475e-06
-8.13414e-08
-1.15897e-08
1.43814e-06
-8.09543e-08
-1.19005e-08
1.44135e-06
-8.06171e-08
-1.22626e-08
1.44446e-06
-8.03178e-08
-1.26422e-08
-8.00577e-08
-1.30249e-08
1.27546e-06
-7.00576e-08
-3.57728e-08
1.27982e-06
-7.03786e-08
-3.47742e-08
1.28455e-06
-7.04427e-08
-3.39381e-08
1.28881e-06
-7.01146e-08
-3.35874e-08
1.29254e-06
-6.96591e-08
-3.35878e-08
1.2958e-06
-6.92338e-08
-3.38306e-08
1.29868e-06
-6.88863e-08
-3.42591e-08
1.30129e-06
-6.86443e-08
-3.48042e-08
1.3038e-06
-6.8468e-08
-3.53815e-08
1.3063e-06
-6.83867e-08
-3.59376e-08
1.30882e-06
-6.8334e-08
-3.64748e-08
-3.69759e-08
1.0719e-06
-4.98513e-08
-5.70017e-08
1.07606e-06
-5.09296e-08
-5.58926e-08
1.08014e-06
-5.10719e-08
-5.53546e-08
1.08336e-06
-5.07521e-08
-5.55239e-08
1.08599e-06
-5.05287e-08
-5.60236e-08
1.08824e-06
-5.05159e-08
-5.6643e-08
1.09029e-06
-5.06251e-08
-5.72961e-08
1.09224e-06
-5.08008e-08
-5.79149e-08
1.09423e-06
-5.10122e-08
-5.8464e-08
1.09634e-06
-5.12673e-08
-5.89218e-08
-5.14148e-08
-5.93328e-08
8.07613e-07
-2.46982e-08
-7.56678e-08
8.1128e-07
-2.68556e-08
-7.47306e-08
8.13397e-07
-2.67411e-08
-7.5026e-08
8.14413e-07
-2.67545e-08
-7.59028e-08
8.15186e-07
-2.71776e-08
-7.6672e-08
8.15908e-07
-2.7635e-08
-7.72496e-08
8.16598e-07
-2.80361e-08
-7.76914e-08
8.17257e-07
-2.8401e-08
-7.80038e-08
8.17867e-07
-2.86966e-08
-7.82034e-08
8.18413e-07
-2.88988e-08
-7.82953e-08
-2.90499e-08
-7.84199e-08
4.61201e-07
-8.84688e-08
4.62143e-07
-8.78429e-08
4.60877e-07
-8.91485e-08
4.59186e-07
-9.00995e-08
4.57304e-07
-9.02292e-08
4.55092e-07
-9.00942e-08
4.52586e-07
-8.99124e-08
4.49825e-07
-8.9706e-08
4.4682e-07
-8.95178e-08
4.4358e-07
-8.93932e-08
-8.92523e-08
6.85858e-07
-1.4454e-09
1.19698e-07
6.69244e-07
-2.3629e-09
1.18092e-07
6.53336e-07
-3.46145e-09
1.16517e-07
6.38534e-07
-4.62117e-09
1.15148e-07
6.25041e-07
-5.7307e-09
1.14002e-07
6.12853e-07
-6.70943e-09
1.13057e-07
6.01903e-07
-7.59472e-09
1.12266e-07
5.92029e-07
-8.37061e-09
1.11649e-07
-9.03009e-09
1.11194e-07
1.04014e-06
-1.66713e-08
1.04077e-07
1.03758e-06
-1.69767e-08
1.03296e-07
1.03419e-06
-1.76221e-08
1.02393e-07
1.0305e-06
-1.85251e-08
1.01431e-07
1.02684e-06
-1.95047e-08
1.00504e-07
1.02339e-06
-2.04026e-08
9.96993e-08
1.02023e-06
-2.12388e-08
9.90067e-08
1.01744e-06
-2.19901e-08
9.84571e-08
-2.26804e-08
9.79953e-08
1.28886e-06
-3.36038e-08
8.27399e-08
1.2926e-06
-3.36019e-08
8.25043e-08
1.29589e-06
-3.38403e-08
8.21424e-08
1.29877e-06
-3.42684e-08
8.17192e-08
1.30139e-06
-3.48146e-08
8.13138e-08
1.30389e-06
-3.53897e-08
8.09313e-08
1.30636e-06
-3.59424e-08
8.06025e-08
1.30887e-06
-3.6467e-08
8.03208e-08
-3.69616e-08
8.00726e-08
1.45919e-06
-4.79905e-08
5.88671e-08
1.46448e-06
-4.78643e-08
5.87218e-08
1.47051e-06
-4.76886e-08
5.87066e-08
1.47678e-06
-4.7591e-08
5.86776e-08
1.48303e-06
-4.76095e-08
5.85932e-08
1.48918e-06
-4.77245e-08
5.84691e-08
1.49515e-06
-4.79185e-08
5.83218e-08
1.50094e-06
-4.81651e-08
5.81743e-08
1.50657e-06
-4.84364e-08
5.80433e-08
1.51209e-06
-4.87061e-08
5.79322e-08
1.51751e-06
-4.8963e-08
5.78435e-08
-4.92034e-08
5.77741e-08
1.57695e-06
-5.67208e-08
3.31609e-08
1.58372e-06
-5.68003e-08
3.32463e-08
1.59074e-06
-5.68629e-08
3.3282e-08
1.59791e-06
-5.69156e-08
3.326e-08
1.60513e-06
-5.6973e-08
3.32113e-08
1.61234e-06
-5.70349e-08
3.31511e-08
1.61949e-06
-5.70998e-08
3.30874e-08
1.62653e-06
-5.71636e-08
3.30246e-08
1.63344e-06
-5.7219e-08
3.29665e-08
1.6402e-06
-5.72608e-08
3.29162e-08
1.64683e-06
-5.72882e-08
3.28726e-08
-5.73026e-08
3.28362e-08
1.61894e-06
-6.06362e-08
6.1846e-09
1.62611e-06
-6.06699e-08
6.43722e-09
1.63339e-06
-6.07132e-08
6.56931e-09
1.64075e-06
-6.07472e-08
6.61579e-09
1.64816e-06
-6.07508e-08
6.62903e-09
1.65554e-06
-6.07211e-08
6.62964e-09
1.66287e-06
-6.06617e-08
6.61017e-09
1.67007e-06
-6.05793e-08
6.56517e-09
1.67712e-06
-6.04823e-08
6.49488e-09
1.68401e-06
-6.03773e-08
6.4055e-09
1.69072e-06
-6.02695e-08
6.30547e-09
-6.01628e-08
6.19965e-09
1.57943e-06
-5.88744e-08
-2.12289e-08
1.58588e-06
-5.8731e-08
-2.09205e-08
1.59266e-06
-5.87202e-08
-2.07003e-08
1.59963e-06
-5.86945e-08
-2.05613e-08
1.60666e-06
-5.86112e-08
-2.04947e-08
1.61363e-06
-5.84874e-08
-2.04956e-08
1.62049e-06
-5.83406e-08
-2.05571e-08
1.62719e-06
-5.81925e-08
-2.06744e-08
1.6337e-06
-5.80589e-08
-2.08381e-08
1.64004e-06
-5.79424e-08
-2.1035e-08
1.64622e-06
-5.78448e-08
-2.12512e-08
-5.77675e-08
-2.14736e-08
1.45917e-06
-5.1e-08
-4.79879e-08
1.46444e-06
-5.09152e-08
-4.7859e-08
1.47047e-06
-5.10065e-08
-4.76779e-08
1.47673e-06
-5.09647e-08
-4.75767e-08
1.48298e-06
-5.08538e-08
-4.75956e-08
1.48912e-06
-5.0744e-08
-4.77128e-08
1.49509e-06
-5.06609e-08
-4.79086e-08
1.50088e-06
-5.06282e-08
-4.8157e-08
1.50651e-06
-5.06471e-08
-4.84315e-08
1.51204e-06
-5.07023e-08
-4.87063e-08
1.51747e-06
-5.07762e-08
-4.89716e-08
-4.92191e-08
1.26633e-06
-3.79156e-08
-7.30174e-08
1.27098e-06
-3.82633e-08
-7.31987e-08
1.27622e-06
-3.84244e-08
-7.31735e-08
1.28135e-06
-3.83539e-08
-7.32617e-08
1.28631e-06
-3.83621e-08
-7.34735e-08
1.29111e-06
-3.8448e-08
-7.37452e-08
1.29577e-06
-3.85834e-08
-7.40336e-08
1.30032e-06
-3.87966e-08
-7.42936e-08
1.30478e-06
-3.9064e-08
-7.4506e-08
1.30917e-06
-3.93497e-08
-7.46692e-08
-3.96087e-08
-7.47951e-08
1.01153e-06
-2.12894e-08
-9.40768e-08
1.01501e-06
-2.18693e-08
-9.46003e-08
1.01805e-06
-2.15282e-08
-9.4962e-08
1.02057e-06
-2.13405e-08
-9.54372e-08
1.02293e-06
-2.15371e-08
-9.58609e-08
1.02525e-06
-2.18814e-08
-9.61345e-08
1.02751e-06
-2.22464e-08
-9.62909e-08
1.02967e-06
-2.26133e-08
-9.63468e-08
1.03168e-06
-2.29615e-08
-9.63117e-08
1.03351e-06
-2.32783e-08
-9.61965e-08
-2.35664e-08
-9.6044e-08
6.60767e-07
-1.08437e-07
6.59796e-07
-1.08742e-07
6.58511e-07
-1.09392e-07
6.56994e-07
-1.09923e-07
6.55205e-07
-1.09977e-07
6.52932e-07
-1.09703e-07
6.5009e-07
-1.09317e-07
6.46717e-07
-1.08946e-07
6.42862e-07
-1.08625e-07
6.38553e-07
-1.08362e-07
-1.08077e-07
8.23472e-07
4.98744e-09
8.1132e-07
4.91149e-09
7.98698e-07
4.66139e-09
7.85951e-07
4.31175e-09
7.73364e-07
3.87678e-09
7.6116e-07
3.36004e-09
7.49451e-07
2.83653e-09
7.38292e-07
2.31962e-09
1.81266e-09
1.17405e-06
-1.99797e-09
1.1738e-06
-1.78078e-09
1.17269e-06
-1.78192e-09
1.17092e-06
-1.95225e-09
1.16872e-06
-2.3047e-09
1.16632e-06
-2.80077e-09
1.16387e-06
-3.31738e-09
1.16147e-06
-3.82166e-09
-4.32337e-09
1.41828e-06
-1.15484e-08
1.42289e-06
-1.13438e-08
1.42718e-06
-1.12944e-08
1.43113e-06
-1.13781e-08
1.43479e-06
-1.15929e-08
1.43817e-06
-1.19046e-08
1.44137e-06
-1.22662e-08
1.44448e-06
-1.2643e-08
-1.30227e-08
1.57945e-06
-2.12302e-08
6.06268e-08
1.5859e-06
-2.09256e-08
6.0656e-08
1.59268e-06
-2.07092e-08
6.06946e-08
1.59966e-06
-2.05718e-08
6.07258e-08
1.60668e-06
-2.05037e-08
6.0729e-08
1.61366e-06
-2.05016e-08
6.07002e-08
1.62052e-06
-2.05605e-08
6.0642e-08
1.62722e-06
-2.06759e-08
6.05612e-08
1.63373e-06
-2.08378e-08
6.04673e-08
1.64006e-06
-2.10323e-08
6.03675e-08
1.64623e-06
-2.12451e-08
6.02669e-08
-2.14641e-08
6.01685e-08
1.68978e-06
-2.78364e-08
3.20079e-08
1.69779e-06
-2.77401e-08
3.20514e-08
1.70599e-06
-2.76947e-08
3.20707e-08
1.71429e-06
-2.76765e-08
3.20673e-08
1.72262e-06
-2.76734e-08
3.2051e-08
1.73093e-06
-2.76866e-08
3.20226e-08
1.73918e-06
-2.77122e-08
3.19893e-08
1.74732e-06
-2.77494e-08
3.1954e-08
1.75533e-06
-2.77976e-08
3.19183e-08
1.76319e-06
-2.78546e-08
3.18834e-08
1.77089e-06
-2.79192e-08
3.18484e-08
-2.7986e-08
3.18159e-08
1.72789e-06
-3.20158e-08
2.15735e-09
1.73641e-06
-3.20622e-08
2.24178e-09
1.74508e-06
-3.20836e-08
2.2859e-09
1.75381e-06
-3.20816e-08
2.29003e-09
1.76255e-06
-3.20659e-08
2.28134e-09
1.77126e-06
-3.20374e-08
2.27498e-09
1.7799e-06
-3.20034e-08
2.26123e-09
1.78844e-06
-3.19666e-08
2.23794e-09
1.79686e-06
-3.19285e-08
2.20729e-09
1.80513e-06
-3.189e-08
2.17107e-09
1.81324e-06
-3.18503e-08
2.13117e-09
-3.18125e-08
2.08986e-09
1.68978e-06
-3.31672e-08
-2.78348e-08
1.69778e-06
-3.32534e-08
-2.77369e-08
1.70598e-06
-3.32901e-08
-2.76901e-08
1.71428e-06
-3.32692e-08
-2.76714e-08
1.72261e-06
-3.32216e-08
-2.76688e-08
1.73092e-06
-3.31623e-08
-2.76833e-08
1.73917e-06
-3.30993e-08
-2.77105e-08
1.74731e-06
-3.30361e-08
-2.77494e-08
1.75532e-06
-3.29765e-08
-2.77995e-08
1.76318e-06
-3.29234e-08
-2.78588e-08
1.77088e-06
-3.28761e-08
-2.79259e-08
-3.28353e-08
-2.79955e-08
1.57693e-06
-3.09303e-08
-5.67175e-08
1.5837e-06
-3.10811e-08
-5.67955e-08
1.59072e-06
-3.11341e-08
-5.68559e-08
1.59789e-06
-3.11069e-08
-5.69068e-08
1.6051e-06
-3.1071e-08
-5.69639e-08
1.61231e-06
-3.10582e-08
-5.70266e-08
1.61946e-06
-3.10652e-08
-5.70928e-08
1.62651e-06
-3.10788e-08
-5.71583e-08
1.63342e-06
-3.11018e-08
-5.72161e-08
1.64019e-06
-3.11388e-08
-5.72612e-08
1.64682e-06
-3.11858e-08
-5.72931e-08
-5.73124e-08
1.39666e-06
-2.55325e-08
-8.31708e-08
1.40166e-06
-2.56568e-08
-8.36166e-08
1.40687e-06
-2.56022e-08
-8.39127e-08
1.41217e-06
-2.55454e-08
-8.41323e-08
1.41751e-06
-2.55747e-08
-8.4302e-08
1.42282e-06
-2.57001e-08
-8.44168e-08
1.42808e-06
-2.58765e-08
-8.44807e-08
1.43323e-06
-2.60369e-08
-8.44911e-08
1.43826e-06
-2.6195e-08
-8.44373e-08
1.44315e-06
-2.63677e-08
-8.43291e-08
-2.65362e-08
-8.41833e-08
1.15477e-06
-1.62375e-08
-1.05e-07
1.15655e-06
-1.6193e-08
-1.0584e-07
1.15853e-06
-1.59604e-08
-1.06586e-07
1.16059e-06
-1.58924e-08
-1.07154e-07
1.16265e-06
-1.6023e-08
-1.07475e-07
1.16464e-06
-1.62811e-08
-1.07542e-07
1.16649e-06
-1.65847e-08
-1.07429e-07
1.1682e-06
-1.68641e-08
-1.07227e-07
1.16973e-06
-1.71133e-08
-1.06929e-07
1.17104e-06
-1.73371e-08
-1.06538e-07
-1.75284e-08
-1.0611e-07
8.09692e-07
-1.2028e-07
8.06195e-07
-1.21437e-07
8.02969e-07
-1.22126e-07
7.99489e-07
-1.22336e-07
7.9563e-07
-1.22141e-07
7.91349e-07
-1.21703e-07
7.86613e-07
-1.21166e-07
7.81392e-07
-1.20588e-07
7.75696e-07
-1.20043e-07
7.6954e-07
-1.19542e-07
-1.19083e-07
1.61894e-06
6.18568e-09
1.62611e-06
6.437e-09
1.63338e-06
6.56752e-09
1.64075e-06
6.61312e-09
1.64815e-06
6.62705e-09
1.65554e-06
6.62942e-09
1.66286e-06
6.61183e-09
1.67007e-06
6.5683e-09
1.67712e-06
6.49919e-09
1.684e-06
6.41092e-09
1.69072e-06
6.31193e-09
6.20693e-09
1.72789e-06
2.1585e-09
1.73641e-06
2.24304e-09
1.74508e-06
2.28707e-09
1.75381e-06
2.29125e-09
1.76255e-06
2.28323e-09
1.77126e-06
2.27813e-09
1.7799e-06
2.26565e-09
1.78844e-06
2.24361e-09
1.79686e-06
2.21412e-09
1.80513e-06
2.17898e-09
1.81323e-06
2.14005e-09
2.09951e-09
1.76513e-06
-2.16252e-09
1.77411e-06
-2.24783e-09
1.78327e-06
-2.29287e-09
1.79245e-06
-2.29782e-09
1.8016e-06
-2.28957e-09
1.81073e-06
-2.28321e-09
1.8198e-06
-2.26894e-09
1.82877e-06
-2.24451e-09
1.83763e-06
-2.21205e-09
1.84633e-06
-2.17344e-09
1.85488e-06
-2.13064e-09
-2.08598e-09
1.72789e-06
-6.18838e-09
1.73641e-06
-6.44073e-09
1.74508e-06
-6.57325e-09
1.75381e-06
-6.62071e-09
1.76255e-06
-6.635e-09
1.77126e-06
-6.63645e-09
1.7799e-06
-6.61735e-09
1.78845e-06
-6.57194e-09
1.79687e-06
-6.50046e-09
1.80514e-06
-6.40932e-09
1.81324e-06
-6.30725e-09
-6.19897e-09
1.61894e-06
-9.31358e-09
1.62611e-06
-9.73588e-09
1.63338e-06
-9.99165e-09
1.64075e-06
-1.01506e-08
1.64815e-06
-1.02602e-08
1.65554e-06
-1.03373e-08
1.66287e-06
-1.03781e-08
1.67007e-06
-1.03641e-08
1.67713e-06
-1.02906e-08
1.68401e-06
-1.01783e-08
1.69073e-06
-1.00476e-08
1.44492e-06
-1.08749e-08
1.44993e-06
-1.14168e-08
1.45505e-06
-1.17877e-08
1.46025e-06
-1.20496e-08
1.46541e-06
-1.22412e-08
1.47046e-06
-1.24082e-08
1.47535e-06
-1.25491e-08
1.48006e-06
-1.25946e-08
1.48452e-06
-1.25207e-08
1.48878e-06
-1.24004e-08
-1.22688e-08
1.20924e-06
-9.64981e-09
1.21124e-06
-1.01112e-08
1.21316e-06
-1.03693e-08
1.21481e-06
-1.05669e-08
1.21608e-06
-1.07223e-08
1.21693e-06
-1.08369e-08
1.21735e-06
-1.09109e-08
1.21738e-06
-1.09376e-08
1.21712e-06
-1.09013e-08
1.21665e-06
-1.08265e-08
-1.07178e-08
8.79489e-07
8.73697e-07
8.67478e-07
8.60568e-07
8.5303e-07
8.4497e-07
8.36493e-07
8.27706e-07
8.18701e-07
8.09516e-07
)
;

boundaryField
{
    inlet
    {
        type            calculated;
        value           nonuniform List<scalar> 0();
    }
    ami1
    {
        type            cyclicAMI;
        value           nonuniform List<scalar> 0();
    }
    walls
    {
        type            calculated;
        value           nonuniform List<scalar> 
227
(
1.28555e-14
6.40674e-15
1.34882e-21
-6.40674e-15
-1.28555e-14
-1.84387e-14
-2.43942e-14
-2.90979e-14
1.28555e-14
6.40674e-15
8.21235e-22
-6.40674e-15
-1.28555e-14
-1.84387e-14
-2.43942e-14
-2.90979e-14
1.28555e-14
6.40674e-15
1.3483e-21
-6.40674e-15
-1.28555e-14
-1.84387e-14
-2.43942e-14
-2.90979e-14
1.84387e-14
1.28555e-14
6.40674e-15
1.3483e-21
-6.40674e-15
-1.28555e-14
-1.84387e-14
-2.43942e-14
-2.90979e-14
2.90979e-14
2.43942e-14
1.84387e-14
1.28555e-14
6.40674e-15
1.3483e-21
-6.40674e-15
-1.28555e-14
-1.84387e-14
-2.43942e-14
-2.90979e-14
2.90979e-14
2.43942e-14
1.84387e-14
1.28555e-14
6.40674e-15
8.20977e-22
-6.40674e-15
-1.28555e-14
-1.84387e-14
-2.43942e-14
-2.90979e-14
2.90979e-14
2.43942e-14
1.84387e-14
1.28555e-14
6.40674e-15
1.34882e-21
-6.40674e-15
-1.28555e-14
-1.84387e-14
-2.43942e-14
-2.90979e-14
2.90979e-14
2.43942e-14
1.84387e-14
1.28555e-14
6.40674e-15
1.34882e-21
-6.40674e-15
-1.28555e-14
-1.84387e-14
-2.43942e-14
-2.90979e-14
2.90979e-14
2.43942e-14
1.84387e-14
1.28555e-14
6.40674e-15
1.34856e-21
-6.40674e-15
-1.28555e-14
-1.84387e-14
-2.43942e-14
-2.90979e-14
2.90979e-14
2.43942e-14
1.84387e-14
1.28555e-14
6.40674e-15
8.21235e-22
-6.40674e-15
-1.28555e-14
-1.84387e-14
-2.43942e-14
-2.90979e-14
2.90979e-14
2.43942e-14
1.84387e-14
1.28555e-14
6.40674e-15
1.34856e-21
-6.40674e-15
-1.28555e-14
-1.84387e-14
-2.43942e-14
-2.90979e-14
2.90979e-14
2.43942e-14
1.84387e-14
1.28555e-14
6.40674e-15
1.34856e-21
-6.40674e-15
-1.28555e-14
2.90979e-14
2.43942e-14
1.84387e-14
1.28555e-14
6.40674e-15
1.34882e-21
2.90979e-14
2.43942e-14
1.84387e-14
1.28555e-14
6.40674e-15
8.21235e-22
2.90979e-14
2.43942e-14
1.84387e-14
1.28555e-14
6.40674e-15
1.3483e-21
2.90979e-14
2.43942e-14
1.84387e-14
1.28555e-14
6.40674e-15
1.3483e-21
2.90979e-14
2.43942e-14
1.84387e-14
1.28555e-14
6.40674e-15
1.3483e-21
2.90979e-14
2.43942e-14
1.84387e-14
1.28555e-14
6.40674e-15
8.20977e-22
2.90979e-14
2.43942e-14
1.84387e-14
1.28555e-14
6.40674e-15
1.34882e-21
2.90979e-14
2.43942e-14
1.84387e-14
1.28555e-14
6.40674e-15
1.34882e-21
2.90979e-14
2.43942e-14
1.84387e-14
1.28555e-14
6.40674e-15
1.34856e-21
2.90979e-14
2.43942e-14
1.84387e-14
1.28555e-14
6.40674e-15
8.21235e-22
2.90979e-14
2.43942e-14
1.84387e-14
1.28555e-14
6.40674e-15
1.34856e-21
-1.84387e-14
-1.28555e-14
-6.40674e-15
-2.90979e-14
-2.43942e-14
-1.84387e-14
-1.28555e-14
-6.40674e-15
-2.90979e-14
-2.43942e-14
-1.84387e-14
-1.28555e-14
-6.40674e-15
-2.90979e-14
-2.43942e-14
-1.84387e-14
-1.28555e-14
-6.40674e-15
-2.90979e-14
-2.43942e-14
-1.84387e-14
-1.28555e-14
-6.40674e-15
-2.90979e-14
-2.43942e-14
-1.84387e-14
-1.28555e-14
-6.40674e-15
-2.90979e-14
-2.43942e-14
-1.84387e-14
-1.28555e-14
-6.40674e-15
-2.90979e-14
-2.43942e-14
-1.84387e-14
-1.28555e-14
-6.40674e-15
-2.90979e-14
-2.43942e-14
-1.84387e-14
-1.28555e-14
-6.40674e-15
)
;
    }
    ami2
    {
        type            cyclicAMI;
        value           nonuniform List<scalar> 
48
(
-6.62064e-07
-8.14091e-07
-8.85459e-07
-8.60586e-07
-7.41787e-07
-5.47193e-07
-3.15681e-07
-1.16318e-07
-1.00977e-06
-1.15316e-06
-1.2072e-06
-1.16599e-06
-1.03476e-06
-8.24527e-07
-5.5558e-07
-2.52686e-07
-1.26341e-06
-1.39192e-06
-1.43988e-06
-1.39995e-06
-1.27297e-06
-1.07089e-06
-8.0701e-07
-4.56575e-07
-1.45484e-06
-1.57045e-06
-1.6119e-06
-1.57322e-06
-1.45483e-06
-1.2634e-06
-1.00975e-06
-6.62087e-07
-1.57323e-06
-1.68202e-06
-1.71969e-06
-1.68202e-06
-1.57044e-06
-1.39191e-06
-1.15314e-06
-8.14087e-07
-1.6119e-06
-1.71968e-06
-1.75648e-06
-1.71968e-06
-1.6119e-06
-1.43987e-06
-1.20719e-06
-8.85449e-07
)
;
    }
    outlet
    {
        type            calculated;
        value           nonuniform List<scalar> 0();
    }
    procBoundary0to1
    {
        type            processor;
        value           nonuniform List<scalar> 
138
(
-8.34769e-07
1.26008e-07
1.25333e-07
1.24477e-07
1.23583e-07
1.22713e-07
1.21901e-07
1.21139e-07
1.20488e-07
1.19927e-07
-1.17325e-06
1.10268e-07
1.10242e-07
1.09946e-07
1.09464e-07
1.08885e-07
1.08261e-07
1.0761e-07
1.0699e-07
1.06409e-07
1.32478e-08
1.25396e-08
-1.4134e-06
1.19402e-08
8.74105e-08
8.74562e-08
8.73701e-08
8.71895e-08
8.69448e-08
8.66575e-08
8.63499e-08
8.60367e-08
8.57251e-08
-9.31382e-09
-9.73518e-09
-9.98702e-09
-1.0142e-08
-1.02504e-08
-1.03278e-08
-1.03692e-08
-1.03558e-08
-1.02832e-08
-1.01724e-08
-1.00428e-08
-9.9009e-09
5.67102e-08
5.67848e-08
5.68427e-08
5.6892e-08
5.69482e-08
5.70103e-08
5.7076e-08
5.71414e-08
5.72001e-08
5.72474e-08
5.72823e-08
5.73058e-08
2.78282e-08
2.77279e-08
2.76793e-08
2.76589e-08
2.7655e-08
2.76685e-08
2.76952e-08
2.77341e-08
2.7785e-08
2.7846e-08
2.79155e-08
2.79882e-08
-2.16361e-09
-2.25e-09
-2.2959e-09
-2.30149e-09
-2.29416e-09
-2.2889e-09
-2.27538e-09
-2.25177e-09
-2.22017e-09
-2.18237e-09
-2.14023e-09
-2.09599e-09
-3.20152e-08
-3.20612e-08
-3.20822e-08
-3.20801e-08
-3.20645e-08
-3.20366e-08
-3.20034e-08
-3.19676e-08
-3.19307e-08
-3.18938e-08
-3.18558e-08
-3.18195e-08
-6.06352e-08
-6.0669e-08
-6.07104e-08
-6.07423e-08
-6.07448e-08
-6.0715e-08
-6.06564e-08
-6.05752e-08
-6.04798e-08
-6.03768e-08
-6.02714e-08
-6.01675e-08
-8.6662e-08
-8.69377e-08
-8.7243e-08
-8.74356e-08
-8.7479e-08
-8.73899e-08
-8.72077e-08
-8.69623e-08
-8.66732e-08
-8.63612e-08
-8.60404e-08
-1.08281e-07
-1.0914e-07
-1.09924e-07
-1.10287e-07
-1.10264e-07
-1.09969e-07
-1.09489e-07
-1.08913e-07
-1.0829e-07
-1.07637e-07
-1.07011e-07
-1.23969e-07
-1.25757e-07
-1.26277e-07
-1.25994e-07
-1.25325e-07
-1.24481e-07
-1.23599e-07
-1.22739e-07
-1.21939e-07
-1.21184e-07
-1.20537e-07
)
;
    }
    procBoundary0to2
    {
        type            processor;
        value           nonuniform List<scalar> 
28
(
-8.0272e-08
-2.42274e-07
6.49074e-08
8.84673e-08
8.78385e-08
-4.60816e-07
8.91269e-08
-2.4353e-07
-7.24002e-08
-5.52125e-07
5.09193e-08
-6.19606e-08
7.5671e-08
7.47168e-08
-8.13465e-07
7.50174e-08
-4.89253e-07
-8.29459e-07
5.69916e-08
5.58844e-08
-1.08019e-06
5.5375e-08
-7.02437e-07
-1.04136e-06
3.57719e-08
3.47749e-08
-1.28459e-06
3.39484e-08
)
;
    }
    procBoundary0to8
    {
        type            processor;
        value           nonuniform List<scalar> 
29
(
7.14459e-08
2.26219e-07
4.36673e-07
6.28716e-07
7.56173e-07
2.13633e-07
5.31047e-07
8.1929e-07
1.03644e-06
1.1729e-06
3.98648e-07
8.01481e-07
1.1008e-06
1.31773e-06
1.45249e-06
5.83078e-07