/*--------------------------------*- C++ -*----------------------------------*\
| =========                 |                                                 |
| \\      /  F ield         | OpenFOAM: The Open Source CFD Toolbox           |
|  \\    /   O peration     | Version:  2212                                  |
|   \\  /    A nd           | Website:  www.openfoam.com                      |
|    \\/     M anipulation  |                                                 |
\*---------------------------------------------------------------------------*/
FoamFile
{
    version     2.0;
    format      ascii;
    arch        "LSB;label=32;scalar=64";
    class       volVectorField;
    location    "3";
    object      U;
}
// * * * * * * * * * * * * * * * * * * * * * * * * * * * * * * * * * * * * * //

dimensions      [0 1 -1 0 0 0 0];

internalField   nonuniform List<vector> 
689
(
(0.031373 -0.000116752 0.000143535)
(0.0308634 -7.89499e-05 6.58456e-05)
(0.0304228 -5.00959e-05 1.53942e-05)
(0.0299974 -3.39043e-05 -1.32981e-05)
(0.0295855 -2.80565e-05 -2.46075e-05)
(0.0291981 -2.73298e-05 -2.98717e-05)
(0.0288164 -2.94184e-05 -3.22402e-05)
(0.0284627 -3.17725e-05 -3.15829e-05)
(0.049545 -2.30536e-05 0.000276204)
(0.0492576 -7.64725e-06 0.000113618)
(0.048933 -4.99978e-06 2.09629e-08)
(0.0485301 -2.22143e-05 -8.07644e-05)
(0.048079 -4.43547e-05 -0.000136968)
(0.0476235 -6.32729e-05 -0.000173568)
(0.0471479 -7.7952e-05 -0.000197671)
(0.0466986 -9.65432e-05 -0.000218021)
(0.0669242 -0.000215836 2.64868e-05)
(0.0666247 -0.000191014 -0.000156909)
(0.0663122 -0.000184128 -0.000311633)
(0.0659726 -0.000187888 -0.000435629)
(0.0655914 -0.000204549 -0.00053594)
(0.0651745 -0.000218288 -0.000612095)
(0.0647231 -0.000220441 -0.000665091)
(0.0642485 -0.00021637 -0.000702719)
(0.0637387 -0.000219964 -0.00073439)
(0.0785949 -0.00022155 -0.00041551)
(0.078341 -0.000154387 -0.000489653)
(0.0782933 -2.02629e-05 -0.000481454)
(0.0781693 9.55423e-05 -0.000505239)
(0.0779646 0.00013738 -0.000583267)
(0.0777202 0.000127196 -0.000683754)
(0.0774178 9.53317e-05 -0.000783022)
(0.0770483 6.0151e-05 -0.000871007)
(0.0766169 2.94554e-05 -0.000944434)
(0.0761317 2.99165e-06 -0.00100352)
(0.075595 -2.18584e-05 -0.00104934)
(0.0750091 -4.71979e-05 -0.00108274)
(0.086501 0.000211361 -0.00113081)
(0.0860418 0.000344974 -0.00111422)
(0.0857424 0.000442068 -0.00110237)
(0.0854045 0.000494221 -0.00113346)
(0.0850153 0.00048417 -0.00118887)
(0.0845768 0.000428521 -0.00124649)
(0.0841002 0.000351093 -0.00129536)
(0.0835727 0.000269673 -0.00133643)
(0.0829875 0.00019479 -0.0013703)
(0.0823537 0.00012846 -0.0013959)
(0.0816769 6.98575e-05 -0.00141279)
(0.0809619 1.53262e-05 -0.00142162)
(0.090823 0.000508008 -0.00148807)
(0.0902195 0.00071821 -0.001607)
(0.089651 0.000826579 -0.0017127)
(0.0889852 0.0008242 -0.00178189)
(0.0882391 0.000753815 -0.00181433)
(0.08743 0.000657471 -0.00181949)
(0.0865738 0.000560932 -0.00180672)
(0.0856865 0.000462756 -0.00178791)
(0.0847691 0.000367373 -0.0017678)
(0.0838276 0.000276803 -0.00174522)
(0.082874 0.000195002 -0.0017171)
(0.0819188 0.000116389 -0.00168254)
(0.0912683 0.000977389 -0.00174684)
(0.0904451 0.00121691 -0.00209798)
(0.0895305 0.00120398 -0.002294)
(0.0884043 0.00108552 -0.00233406)
(0.0871366 0.000937006 -0.00229979)
(0.0857976 0.000780427 -0.0022325)
(0.0844378 0.000623781 -0.0021533)
(0.0830852 0.00047697 -0.00206795)
(0.0817576 0.000346382 -0.00197945)
(0.0804779 0.000226745 -0.0018904)
(0.0792565 0.000130957 -0.00180188)
(0.0780987 5.87766e-05 -0.0017143)
(0.0874048 0.0014453 -0.00202143)
(0.0860316 0.00152581 -0.00267428)
(0.0844242 0.00133595 -0.00276989)
(0.0825123 0.00106372 -0.00266962)
(0.0804946 0.000777027 -0.00250914)
(0.0785353 0.000520555 -0.00231781)
(0.0767041 0.000326546 -0.00212586)
(0.0750207 0.000190212 -0.00194612)
(0.0734922 0.00010174 -0.00178252)
(0.0721168 4.07815e-05 -0.00163697)
(0.0708815 4.51779e-06 -0.00150829)
(0.0697631 -1.28409e-05 -0.00139666)
(0.0781094 0.0015453 -0.0023816)
(0.0754727 0.00147577 -0.00309421)
(0.0726522 0.00104275 -0.00286835)
(0.0697391 0.000574521 -0.00252121)
(0.0671778 0.000290942 -0.00215213)
(0.0650861 0.000127907 -0.00181464)
(0.0634125 4.75834e-05 -0.00153162)
(0.0620545 3.11943e-05 -0.00130338)
(0.0609229 4.29607e-05 -0.00112342)
(0.0599443 5.34635e-05 -0.000985345)
(0.0590843 6.7783e-05 -0.00088984)
(0.0608169 0.000668654 -0.00187728)
(0.0569014 0.000831235 -0.00252474)
(0.0536817 0.000461101 -0.00213025)
(0.0510155 0.00016172 -0.00152061)
(0.0491863 -1.01347e-05 -0.000944073)
(0.0480454 -3.0416e-05 -0.000653848)
(0.0472007 2.15749e-07 -0.000510918)
(0.0464683 3.26255e-05 -0.00042242)
(0.0457999 5.00128e-05 -0.00035149)
(0.0451831 5.32552e-05 -0.000292623)
(0.0446502 5.17519e-05 -0.000244579)
(0.0396532 0.000271514 -0.00154313)
(0.0355541 -0.000242444 -0.000858005)
(0.0335948 -0.000351253 -0.000283252)
(0.0322241 -0.000248149 -0.000153589)
(0.0313963 -0.000143062 -0.000118694)
(0.0308994 -6.62087e-05 -8.00689e-05)
(0.0304656 -1.51771e-05 -5.03164e-05)
(0.03004 1.37444e-05 -3.43182e-05)
(0.0296215 2.47592e-05 -2.89002e-05)
(0.0292105 3.02906e-05 -2.96334e-05)
(0.0288346 3.19264e-05 -3.06874e-05)
(0.0491266 -0.000953856 4.62111e-06)
(0.0479783 -0.00065766 2.77832e-05)
(0.0471343 -0.000508716 1.0196e-06)
(0.0464049 -0.000417835 -3.00192e-05)
(0.045747 -0.000347094 -4.6701e-05)
(0.0451657 -0.000286853 -5.04675e-05)
(0.0446138 -0.00023934 -4.8752e-05)
(0.0441251 -0.000204975 -4.58491e-05)
(0.0781698 -0.000881605 0.000314084)
(0.0776835 -0.00067025 0.000253623)
(0.0772723 -0.000493558 0.000198304)
(0.0769166 -0.000361714 0.000145945)
(0.0766003 -0.000286987 9.14491e-05)
(0.0762807 -0.000246467 3.49754e-05)
(0.0759577 -0.000230537 -1.86472e-05)
(0.0756072 -0.000197323 -4.47247e-05)
(0.0914972 -0.000876241 -9.04537e-05)
(0.0916065 -0.000727389 -0.000129506)
(0.0916903 -0.000611902 -0.000184931)
(0.091771 -0.000527017 -0.00025182)
(0.0918503 -0.000467944 -0.00032331)
(0.0919247 -0.000423287 -0.000391934)
(0.0919876 -0.000389985 -0.000454451)
(0.0920383 -0.000361593 -0.000505958)
(0.092072 -0.00034324 -0.000553675)
(0.0979274 -0.00048709 -0.000453009)
(0.0982308 -0.000419541 -0.000597497)
(0.0984903 -0.000343297 -0.000652692)
(0.0987563 -0.000257702 -0.000668703)
(0.0989984 -0.00018385 -0.000700344)
(0.0992224 -0.000122108 -0.000738776)
(0.0994464 -7.1175e-05 -0.000779228)
(0.0996639 -3.7845e-05 -0.000827922)
(0.0998664 -2.14131e-05 -0.000880944)
(0.100052 -1.77224e-05 -0.000932809)
(0.100215 -2.31268e-05 -0.000980339)
(0.100356 -3.20261e-05 -0.00102097)
(0.102884 -3.54513e-05 -0.00123081)
(0.103033 9.12031e-05 -0.00128321)
(0.103195 0.000179276 -0.00129101)
(0.103378 0.000254427 -0.00129357)
(0.103564 0.000307854 -0.00130757)
(0.103747 0.000330586 -0.00133645)
(0.103917 0.000329464 -0.0013718)
(0.104075 0.00031651 -0.00139758)
(0.104221 0.000290834 -0.00141795)
(0.104348 0.000251413 -0.00143925)
(0.104453 0.000203295 -0.00145959)
(0.104536 0.000151311 -0.00147577)
(0.104861 0.000266703 -0.00167083)
(0.105045 0.000367678 -0.00176149)
(0.105215 0.000477277 -0.00182073)
(0.105368 0.000555883 -0.00186076)
(0.105497 0.000589299 -0.00188844)
(0.105591 0.000578945 -0.00191199)
(0.105647 0.000538637 -0.00193242)
(0.105662 0.000488267 -0.00193471)
(0.10565 0.000428179 -0.00191119)
(0.105617 0.000355051 -0.00187894)
(0.105567 0.00027805 -0.00184696)
(0.105504 0.000201408 -0.00181183)
(0.104066 0.000581257 -0.00186133)
(0.10434 0.000651935 -0.00211708)
(0.104531 0.0007086 -0.00226975)
(0.104651 0.000711307 -0.00233204)
(0.104677 0.000664573 -0.00234489)
(0.104612 0.00058807 -0.00232852)
(0.104478 0.000493133 -0.00228847)
(0.104295 0.000388928 -0.00222053)
(0.104086 0.000289747 -0.00212652)
(0.103868 0.000196234 -0.00203404)
(0.10365 0.000113115 -0.0019474)
(0.103442 4.07773e-05 -0.00186361)
(0.10039 0.000747687 -0.00192905)
(0.100731 0.000785951 -0.00241765)
(0.100878 0.000706336 -0.00260917)
(0.10086 0.000565002 -0.00259001)
(0.100673 0.000412681 -0.0025046)
(0.100365 0.000269846 -0.00237062)
(0.100009 0.000144699 -0.00220018)
(0.0996475 4.38978e-05 -0.00202406)
(0.0993 -3.07656e-05 -0.001872)
(0.0989794 -8.28555e-05 -0.00173147)
(0.0986897 -0.000111606 -0.0016073)
(0.098441 -0.000128512 -0.00149674)
(0.0928677 0.000742336 -0.00194042)
(0.0933297 0.000718033 -0.00259864)
(0.0933605 0.000411978 -0.00260453)
(0.0930713 0.000127642 -0.00234561)
(0.0926124 -4.78962e-05 -0.00205428)
(0.0921251 -0.000147454 -0.00176113)
(0.0916648 -0.000181904 -0.00150569)
(0.0912569 -0.000177069 -0.00129624)
(0.090913 -0.000157541 -0.00113429)
(0.0906242 -0.000126286 -0.0010153)
(0.0903706 -8.98399e-05 -0.000918549)
(0.0791566 0.000114375 -0.00173438)
(0.0795762 0.000108872 -0.00218447)
(0.0794048 -0.000155656 -0.0017572)
(0.0787649 -0.000292684 -0.00124908)
(0.0781402 -0.000291744 -0.000909102)
(0.0776375 -0.00024945 -0.000670714)
(0.0772257 -0.000196975 -0.000491291)
(0.0768714 -0.000145322 -0.000360069)
(0.0765599 -9.5462e-05 -0.00027879)
(0.0762448 -3.0614e-05 -0.000253932)
(0.0759193 8.56307e-06 -0.000216936)
(0.0514136 -0.000580304 -0.00129712)
(0.0509125 -0.00049916 -0.00121415)
(0.0505088 -0.000554962 -0.00040475)
(0.0499791 -0.000459376 -2.6617e-05)
(0.0496102 -0.000288938 -3.0578e-06)
(0.0493301 -0.000121663 2.53429e-06)
(0.0490018 -6.08577e-07 -4.87482e-06)
(0.0485922 8.42482e-05 -2.74783e-05)
(0.0481282 0.000142105 -5.31649e-05)
(0.0476382 0.000178806 -7.28573e-05)
(0.0471835 0.00020402 -8.95613e-05)
(0.0697313 -0.00253651 -0.00058352)
(0.067166 -0.002176 -0.00030733)
(0.065073 -0.0018285 -0.000136739)
(0.0633975 -0.00153563 -4.75189e-05)
(0.0620404 -0.00129918 -2.56006e-05)
(0.0609148 -0.00111104 -3.23312e-05)
(0.0599483 -0.000971088 -4.29805e-05)
(0.0590916 -0.000867671 -5.27063e-05)
(0.0583173 -0.000803575 -6.89201e-05)
(0.0930794 -0.00234039 -0.00012092)
(0.0926387 -0.00205913 5.1034e-05)
(0.0921567 -0.00176657 0.000150034)
(0.0916998 -0.00150759 0.000185796)
(0.0912943 -0.00129555 0.000180842)
(0.0909492 -0.00113299 0.000160674)
(0.0906535 -0.00101006 0.000129586)
(0.0904013 -0.000920147 8.97294e-05)
(0.0901741 -0.000843851 5.29412e-05)
(0.101778 -0.00166945 -0.000208157)
(0.102068 -0.00158659 -0.000168046)
(0.102299 -0.00147837 -0.000155772)
(0.102499 -0.00135923 -0.000165216)
(0.102686 -0.00124692 -0.000189518)
(0.10287 -0.0011467 -0.000224154)
(0.103059 -0.00106153 -0.00026736)
(0.103256 -0.000991154 -0.000313793)
(0.10346 -0.000928011 -0.000357413)
(0.105791 -0.000860426 -0.000634645)
(0.106137 -0.000871348 -0.00063076)
(0.106505 -0.000886206 -0.000634838)
(0.106936 -0.000870149 -0.000626736)
(0.107369 -0.000829523 -0.00062234)
(0.107779 -0.000775499 -0.000628243)
(0.108175 -0.000716021 -0.000644374)
(0.10856 -0.000658816 -0.000670558)
(0.108936 -0.000608842 -0.000704346)
(0.109305 -0.000567299 -0.000741996)
(0.109668 -0.000533446 -0.00078039)
(0.110024 -0.000505272 -0.000817389)
(0.109003 -0.00036342 -0.00112112)
(0.109393 -0.000295286 -0.00116249)
(0.109766 -0.00026012 -0.00117561)
(0.110173 -0.000234514 -0.00117649)
(0.110594 -0.000209617 -0.00118028)
(0.111013 -0.000186474 -0.00119015)
(0.111426 -0.000166264 -0.00120449)
(0.111832 -0.000151588 -0.00122063)
(0.112231 -0.000144991 -0.0012371)
(0.112618 -0.000146195 -0.00125326)
(0.112995 -0.000153281 -0.00126851)
(0.113359 -0.000164517 -0.00128216)
(0.110299 4.46609e-05 -0.00147743)
(0.110695 8.78657e-05 -0.00155735)
(0.111062 0.00012699 -0.00161134)
(0.111454 0.000157958 -0.0016497)
(0.111854 0.000176366 -0.00167759)
(0.112247 0.00018146 -0.00169778)
(0.112628 0.000174624 -0.00170986)
(0.112994 0.000158566 -0.00171167)
(0.113344 0.000134904 -0.00170269)
(0.113677 0.000105587 -0.00168556)
(0.113995 7.17988e-05 -0.00166347)
(0.114301 3.52017e-05 -0.00163813)
(0.109583 0.000357883 -0.00163553)
(0.109932 0.000352235 -0.00177223)
(0.110283 0.000365228 -0.00189218)
(0.110667 0.000366896 -0.00197086)
(0.111045 0.000349593 -0.00201129)
(0.111395 0.000315381 -0.00202007)
(0.111715 0.000273431 -0.00200514)
(0.112011 0.000228957 -0.00196784)
(0.112285 0.000184469 -0.00191478)
(0.112542 0.000141586 -0.00185308)
(0.112788 0.000101578 -0.00178846)
(0.113029 6.52491e-05 -0.00172322)
(0.106563 0.000466499 -0.00158631)
(0.106885 0.000422229 -0.00180255)
(0.107222 0.000391255 -0.00196134)
(0.107599 0.000346049 -0.00202849)
(0.107945 0.000291142 -0.00203164)
(0.108239 0.000234741 -0.00198793)
(0.108491 0.000183551 -0.00191105)
(0.108716 0.000148549 -0.00181546)
(0.10893 0.00012077 -0.00171517)
(0.109138 0.000104985 -0.00161984)
(0.109346 9.65021e-05 -0.00152766)
(0.10956 9.48632e-05 -0.00144177)
(0.100791 0.000370508 -0.00133435)
(0.101112 0.000329999 -0.00159909)
(0.101431 0.00027173 -0.00169911)
(0.101771 0.000212277 -0.00167505)
(0.102059 0.000172002 -0.00159264)
(0.102287 0.000158996 -0.00148282)
(0.102484 0.000168426 -0.00136286)
(0.102668 0.0001927 -0.00124979)
(0.102852 0.000226699 -0.00114858)
(0.103045 0.000270268 -0.00106405)
(0.103241 0.000312475 -0.000988229)
(0.0906718 -0.000264026 -0.00084638)
(0.0910639 -2.96906e-05 -0.00111065)
(0.0913391 6.55118e-05 -0.0010413)
(0.0914915 8.69113e-05 -0.000873006)
(0.0915854 0.000120118 -0.00072341)
(0.0916662 0.000180165 -0.000612488)
(0.0917429 0.000252534 -0.000532005)
(0.0918189 0.000326526 -0.000474367)
(0.0918923 0.000396633 -0.000430371)
(0.0919607 0.000462472 -0.000399568)
(0.0920078 0.000503821 -0.00035937)
(0.0667802 -0.000652786 -0.00072924)
(0.0670513 -0.000326956 -0.000704209)
(0.0671279 -0.000188858 -0.000368489)
(0.0669359 -3.6279e-05 -0.000202162)
(0.0666333 0.000142332 -0.000171365)
(0.0663176 0.000301932 -0.000174456)
(0.06598 0.000431706 -0.000188485)
(0.0655986 0.00053657 -0.00021127)
(0.0651799 0.000617398 -0.000230107)
(0.0647216 0.000671636 -0.000231167)
(0.0642503 0.000717648 -0.00023547)
(0.0825133 -0.00267782 -0.00106525)
(0.0804938 -0.00251865 -0.000778325)
(0.0785362 -0.00232399 -0.000518812)
(0.076706 -0.00212809 -0.000322239)
(0.0750226 -0.00194467 -0.000184125)
(0.0734954 -0.00177686 -9.35006e-05)
(0.0721235 -0.00162826 -3.18294e-05)
(0.0708917 -0.00149493 6.04756e-06)
(0.0697803 -0.00138168 2.32317e-05)
(0.100864 -0.00259461 -0.000561781)
(0.100678 -0.00250674 -0.000405779)
(0.100371 -0.00237323 -0.000263462)
(0.100017 -0.00220117 -0.000138754)
(0.0996573 -0.00202226 -3.84777e-05)
(0.0993102 -0.00186829 3.48891e-05)
(0.0989886 -0.00172572 8.57864e-05)
(0.0986986 -0.00160199 0.000111849)
(0.0984442 -0.0014912 0.000126783)
(0.107602 -0.00202662 -0.00034201)
(0.10795 -0.00203034 -0.000287094)
(0.108245 -0.0019872 -0.00023095)
(0.108498 -0.00191006 -0.00017957)
(0.108724 -0.00181395 -0.000144999)
(0.108938 -0.00171364 -0.000117944)
(0.109144 -0.00161828 -0.000103447)
(0.109351 -0.00152781 -9.81187e-05)
(0.109563 -0.00144277 -9.81186e-05)
(0.110273 -0.00113362 -0.000550309)
(0.110649 -0.00117421 -0.000506347)
(0.111047 -0.0012216 -0.000490097)
(0.111511 -0.00124637 -0.000477031)
(0.111995 -0.00124556 -0.000461393)
(0.112467 -0.00122389 -0.000445172)
(0.112926 -0.00118494 -0.000431015)
(0.11337 -0.00113487 -0.000422268)
(0.113802 -0.00107996 -0.000419643)
(0.114223 -0.00102531 -0.000421412)
(0.114637 -0.00097303 -0.00042733)
(0.115044 -0.000923585 -0.000436168)
(0.11239 -0.000584415 -0.00080949)
(0.112874 -0.000578567 -0.000822131)
(0.113336 -0.000575069 -0.000826169)
(0.113839 -0.000570604 -0.000822191)
(0.114358 -0.000561963 -0.000815487)
(0.114876 -0.000549187 -0.000808923)
(0.115389 -0.000532753 -0.000803347)
(0.115896 -0.000513938 -0.000798749)
(0.116394 -0.000494735 -0.000795402)
(0.116883 -0.000476805 -0.000793687)
(0.117361 -0.00046078 -0.000793564)
(0.117829 -0.000446788 -0.000794641)
(0.113191 -8.69623e-05 -0.00105479)
(0.113701 -7.87839e-05 -0.00110155)
(0.114176 -7.01115e-05 -0.00112725)
(0.114684 -6.19967e-05 -0.00113956)
(0.115206 -5.56518e-05 -0.00114602)
(0.115726 -5.16754e-05 -0.00114802)
(0.116242 -5.01922e-05 -0.00114586)
(0.116752 -5.09859e-05 -0.00113894)
(0.117252 -5.38212e-05 -0.0011269)
(0.11774 -5.85598e-05 -0.0011111)
(0.118216 -6.50386e-05 -0.00109321)
(0.118681 -7.28308e-05 -0.00107411)
(0.112575 0.000312463 -0.00118729)
(0.113038 0.000297573 -0.00124471)
(0.113481 0.00029147 -0.00128941)
(0.113968 0.00028689 -0.00131861)
(0.114474 0.000278922 -0.00133252)
(0.114977 0.000267172 -0.00133287)
(0.115472 0.000252709 -0.00132078)
(0.115956 0.000237203 -0.00129727)
(0.116428 0.000222253 -0.00126442)
(0.116886 0.000208634 -0.00122562)
(0.117333 0.000196547 -0.00118417)
(0.11777 0.000186275 -0.00114227)
(0.110272 0.000551071 -0.00113392)
(0.110647 0.000507085 -0.00117496)
(0.111044 0.00049127 -0.00122329)
(0.111508 0.000478557 -0.00124884)
(0.111991 0.000463112 -0.00124804)
(0.112463 0.000447131 -0.00122596)
(0.112921 0.000433251 -0.00118677)
(0.113365 0.000424567 -0.00113647)
(0.113797 0.000421733 -0.00108104)
(0.114219 0.000422915 -0.00102554)
(0.114634 0.00042766 -0.000971656)
(0.115041 0.000435817 -0.000921024)
(0.10579 0.000634902 -0.000859989)
(0.106135 0.000630477 -0.000870732)
(0.106502 0.000634667 -0.000887511)
(0.106932 0.000626332 -0.000873236)
(0.107365 0.000622097 -0.000833004)
(0.107775 0.000628684 -0.000778697)
(0.108169 0.000645734 -0.00071915)
(0.108554 0.000672714 -0.000661787)
(0.10893 0.000706994 -0.000611064)
(0.1093 0.0007449 -0.000568367)
(0.109663 0.000782344 -0.000531138)
(0.0979237 0.000453875 -0.000487926)
(0.0982285 0.000594596 -0.000417277)
(0.0984875 0.000649564 -0.000341192)
(0.0987523 0.00066394 -0.00025724)
(0.0989944 0.000695722 -0.000186365)
(0.0992178 0.000735957 -0.000125644)
(0.0994401 0.000778182 -7.49308e-05)
(0.0996568 0.000828632 -4.1722e-05)
(0.0998589 0.0008835 -2.5017e-05)
(0.100046 0.000937249 -2.14774e-05)
(0.100209 0.000984289 -2.33748e-05)
(0.0786007 0.000414123 -0.000220679)
(0.0783442 0.000489273 -0.000154086)
(0.0782974 0.000480763 -1.88452e-05)
(0.078173 0.000503765 9.81147e-05)
(0.0779661 0.000581439 0.000138712)
(0.0777199 0.000682104 0.000125875)
(0.0774168 0.000781659 9.22927e-05)
(0.0770475 0.000870326 5.63455e-05)
(0.0766165 0.000945123 2.49826e-05)
(0.0761304 0.00100576 -1.80104e-06)
(0.0755942 0.00105531 -3.02541e-05)
(0.088406 -0.00233817 -0.00108442)
(0.0871384 -0.00230422 -0.000935717)
(0.0857994 -0.00223549 -0.000778068)
(0.0844402 -0.00215446 -0.000619916)
(0.0830875 -0.00206747 -0.00047172)
(0.08176 -0.00197716 -0.000338987)
(0.0804811 -0.00188626 -0.000218341)
(0.0792607 -0.00179583 -0.00012233)
(0.0781044 -0.00170702 -5.09795e-05)
(0.104651 -0.00232853 -0.000708005)
(0.104678 -0.00234464 -0.000660704)
(0.104614 -0.0023299 -0.000583912)
(0.10448 -0.00228962 -0.000488485)
(0.104297 -0.00221983 -0.000383839)
(0.104088 -0.00212413 -0.000284768)
(0.10387 -0.00203057 -0.00019196)
(0.103652 -0.00194355 -0.000110538)
(0.103442 -0.00185948 -3.98114e-05)
(0.110669 -0.00196947 -0.000363614)
(0.111048 -0.00201019 -0.000345947)
(0.111398 -0.00201941 -0.000311742)
(0.111718 -0.00200462 -0.000269809)
(0.112014 -0.00196688 -0.000225497)
(0.112288 -0.00191351 -0.000181549)
(0.112544 -0.00185169 -0.000139724)
(0.11279 -0.00178745 -0.000101453)
(0.113029 -0.00172259 -6.6448e-05)
(0.112576 -0.00118716 -0.000311391)
(0.113039 -0.00124378 -0.000296155)
(0.113482 -0.00128755 -0.000289563)
(0.11397 -0.00131635 -0.000284614)
(0.114476 -0.00133056 -0.00027651)
(0.114979 -0.0013315 -0.000264738)
(0.115474 -0.00131989 -0.000250291)
(0.115958 -0.00129665 -0.000234931)
(0.11643 -0.00126404 -0.000220359)
(0.116888 -0.0012256 -0.000207397)
(0.117334 -0.00118476 -0.000196277)
(0.11777 -0.00114347 -0.000186969)
(0.114193 -0.000624945 -0.000403465)
(0.114738 -0.000649604 -0.000410146)
(0.115254 -0.000663275 -0.000413029)
(0.115807 -0.000668701 -0.000410854)
(0.116375 -0.000669654 -0.000406276)
(0.116941 -0.000666186 -0.00039994)
(0.117502 -0.00065895 -0.000392912)
(0.118058 -0.00064833 -0.000385819)
(0.118605 -0.000634842 -0.000379099)
(0.119143 -0.000619149 -0.000372921)
(0.119669 -0.00060146 -0.000366886)
(0.120186 -0.000583041 -0.000361397)
(0.114737 -8.41648e-05 -0.000545689)
(0.115308 -8.65924e-05 -0.000565389)
(0.115846 -8.66767e-05 -0.000575284)
(0.116419 -8.57056e-05 -0.00057569)
(0.117006 -8.47392e-05 -0.000573094)
(0.117588 -8.43641e-05 -0.00057175)
(0.118166 -8.4065e-05 -0.000568914)
(0.118738 -8.3544e-05 -0.000563476)
(0.119303 -8.27885e-05 -0.000555941)
(0.119858 -8.18695e-05 -0.000547001)
(0.120403 -8.08812e-05 -0.00053724)
(0.120937 -7.98859e-05 -0.000527064)
(0.114193 0.000404405 -0.00062529)
(0.114737 0.000411318 -0.000650338)
(0.115253 0.000414325 -0.000664275)
(0.115806 0.000412273 -0.000669812)
(0.116375 0.000407798 -0.000670655)
(0.116941 0.000401547 -0.000666964)
(0.117502 0.000394538 -0.000659486)
(0.118057 0.000387341 -0.000648611)
(0.118605 0.000380373 -0.000634811)
(0.119142 0.000373811 -0.000618723)
(0.119669 0.000367283 -0.000600559)
(0.120185 0.000361233 -0.000581653)
(0.11239 0.000810054 -0.000584883)
(0.112873 0.000822564 -0.000579324)
(0.113335 0.000826642 -0.000576342)
(0.113837 0.000822797 -0.000572228)
(0.114356 0.000816286 -0.000563595)
(0.114874 0.000809962 -0.000550651)
(0.115387 0.000804595 -0.000534028)
(0.115894 0.000800084 -0.000514971)
(0.116393 0.000796677 -0.000495362)
(0.116881 0.000794763 -0.000476827)
(0.11736 0.000794315 -0.000459941)
(0.117828 0.000795111 -0.000445145)
(0.109002 0.00112143 -0.000363589)
(0.109392 0.00116233 -0.000295335)
(0.109764 0.00117513 -0.000260826)
(0.110171 0.00117592 -0.000235933)
(0.110592 0.00117997 -0.000211398)
(0.111011 0.00119039 -0.000188497)
(0.111424 0.00120529 -0.000168484)
(0.111831 0.00122181 -0.00015376)
(0.11223 0.00123858 -0.000146757)
(0.112618 0.00125496 -0.000147204)
(0.112994 0.00127042 -0.000152938)
(0.102882 0.00123086 -3.57529e-05)
(0.103031 0.00128279 9.1401e-05)
(0.103193 0.00129001 0.000179484)
(0.103376 0.00129211 0.000254316)
(0.103562 0.00130618 0.00030722)
(0.103744 0.00133559 0.00032923)
(0.103915 0.00137159 0.000327268)
(0.104073 0.00139801 0.000313697)
(0.10422 0.00141912 0.000287814)
(0.104347 0.00144112 0.000248649)
(0.104453 0.0014615 0.000202281)
(0.0865008 0.00113 0.000212619)
(0.0860416 0.0011139 0.000345584)
(0.0857425 0.00110224 0.000442518)
(0.0854044 0.00113332 0.000494882)
(0.0850143 0.00118862 0.000484961)
(0.084575 0.00124614 0.000428815)
(0.084098 0.00129508 0.0003503)
(0.0835705 0.00133642 0.000267651)
(0.0829853 0.00137079 0.000191619)
(0.0823514 0.00139697 0.000124543)
(0.0816748 0.00141451 6.51406e-05)
(0.113191 -0.00105476 8.83222e-05)
(0.113701 -0.00110114 8.07391e-05)
(0.114176 -0.00112641 7.26327e-05)
(0.114684 -0.00113845 6.48895e-05)
(0.115206 -0.001145 5.8652e-05)
(0.115726 -0.0011473 5.46141e-05)
(0.116242 -0.00114545 5.29962e-05)
(0.116752 -0.00113875 5.35616e-05)
(0.117252 -0.00112693 5.59847e-05)
(0.11774 -0.00111137 6.00662e-05)
(0.118216 -0.00109376 6.56556e-05)
(0.118681 -0.00107492 7.23715e-05)
(0.114737 -0.000545698 8.5225e-05)
(0.115308 -0.000565267 8.80849e-05)
(0.115846 -0.000575018 8.8529e-05)
(0.116418 -0.000575345 8.77936e-05)
(0.117006 -0.00057283 8.69214e-05)
(0.117588 -0.000571678 8.65267e-05)
(0.118165 -0.000569044 8.61178e-05)
(0.118738 -0.000563811 8.53941e-05)
(0.119303 -0.000556487 8.43147e-05)
(0.119858 -0.000547767 8.29302e-05)
(0.120403 -0.000538236 8.13358e-05)
(0.120937 -0.00052828 7.96293e-05)
(0.11523 3.36492e-07 3.78363e-07)
(0.115823 4.02662e-07 5.09242e-07)
(0.116382 4.75887e-07 6.27651e-07)
(0.116977 5.23476e-07 7.21777e-07)
(0.117581 5.15253e-07 7.91298e-07)
(0.118181 4.37506e-07 8.56298e-07)
(0.118776 3.11639e-07 8.83985e-07)
(0.119367 1.4197e-07 8.78198e-07)
(0.119951 -6.94229e-08 8.3726e-07)
(0.120526 -3.17128e-07 7.58031e-07)
(0.121091 -5.93733e-07 6.3901e-07)
(0.121644 -8.92081e-07 4.80664e-07)
(0.114736 0.000546287 -8.43956e-05)
(0.115308 0.000566005 -8.69309e-05)
(0.115846 0.000575948 -8.71209e-05)
(0.116418 0.000576439 -8.62029e-05)
(0.117006 0.000573919 -8.51994e-05)
(0.117588 0.000572623 -8.47139e-05)
(0.118166 0.000569788 -8.42651e-05)
(0.118738 0.000564273 -8.35604e-05)
(0.119303 0.000556577 -8.2582e-05)
(0.119859 0.000547404 -8.13983e-05)
(0.120404 0.000537356 -8.01076e-05)
(0.120938 0.000526837 -7.87956e-05)
(0.113191 0.00105513 -8.73152e-05)
(0.1137 0.00110179 -7.92124e-05)
(0.114176 0.00112749 -7.07465e-05)
(0.114684 0.0011399 -6.28548e-05)
(0.115205 0.00114654 -5.66235e-05)
(0.115726 0.00114872 -5.2639e-05)
(0.116242 0.00114668 -5.10588e-05)
(0.116752 0.00113978 -5.1676e-05)
(0.117252 0.00112767 -5.42504e-05)
(0.11774 0.00111173 -5.86421e-05)
(0.118217 0.00109369 -6.46883e-05)
(0.118682 0.00107445 -7.19842e-05)
(0.110298 0.00147741 4.44044e-05)
(0.110695 0.00155693 8.77905e-05)
(0.111062 0.00161104 0.000126692)
(0.111453 0.00164969 0.000157268)
(0.111854 0.00167791 0.000175336)
(0.112246 0.00169845 0.000180191)
(0.112627 0.00171078 0.000173217)
(0.112994 0.00171268 0.000157152)
(0.113344 0.00170372 0.000133668)
(0.113678 0.00168658 0.000104719)
(0.113996 0.00166463 7.15002e-05)
(0.10486 0.0016703 0.000266456)
(0.105044 0.00176043 0.000367794)
(0.105214 0.00181992 0.000477416)
(0.105367 0.00186031 0.000555836)
(0.105496 0.00188844 0.000588863)
(0.10559 0.00191245 0.000577945)
(0.105646 0.00193305 0.00053724)
(0.105662 0.00193534 0.000486619)
(0.10565 0.00191204 0.000426348)
(0.105618 0.00188012 0.000353355)
(0.105568 0.00184809 0.000276935)
(0.0908219 0.00148785 0.000508369)
(0.0902177 0.00160691 0.000718377)
(0.0896487 0.00171256 0.000826455)
(0.0889826 0.00178166 0.000823766)
(0.0882361 0.00181403 0.00075311)
(0.0874267 0.00181919 0.000656356)
(0.0865704 0.00180656 0.000559353)
(0.085683 0.00178806 0.000460828)
(0.0847655 0.00176829 0.000365245)
(0.0838243 0.00174595 0.000274611)
(0.0828712 0.00171785 0.00019301)
)
;

boundaryField
{
    inlet
    {
        type            fixedValue;
        value           nonuniform List<vector> 0();
    }
    ami1
    {
        type            cyclicAMI;
        value           nonuniform List<vector> 0();
    }
    walls
    {
        type            noSlip;
    }
    ami2
    {
        type            cyclicAMI;
        value           nonuniform List<vector> 
48
(
(0.0787658 -0.000290625 -0.0003741)
(0.0868153 0.000115447 -0.00106787)
(0.0912101 0.000389142 -0.00140373)
(0.0918015 0.00081882 -0.00159376)
(0.0883314 0.00121254 -0.00173527)
(0.079993 0.00128001 -0.00187568)
(0.0653524 0.000586511 -0.00149854)
(0.0466399 -0.000132627 -0.00102441)
(0.0976714 -0.000553814 -0.000421655)
(0.102779 -0.000121349 -0.00118484)
(0.104754 0.000227998 -0.00159937)
(0.103879 0.000551838 -0.00174734)
(0.100147 0.000696694 -0.0017385)
(0.0925642 0.00064216 -0.00160219)
(0.0790049 -4.09091e-05 -0.00123753)
(0.0524317 -0.000727616 -0.000753001)
(0.105522 -0.000893516 -0.000665956)
(0.108739 -0.000417793 -0.00110654)
(0.110051 1.23667e-05 -0.00144206)
(0.10937 0.00036517 -0.00159445)
(0.106337 0.000499147 -0.00153063)
(0.10055 0.000399593 -0.00123769)
(0.0904694 -0.000341115 -0.000667707)
(0.0664771 -0.000647993 -0.000577141)
(0.110019 -0.00113818 -0.000581373)
(0.112068 -0.000598587 -0.000809511)
(0.112853 -9.81016e-05 -0.00103864)
(0.11227 0.000317391 -0.00117031)
(0.110018 0.000582134 -0.00113845)
(0.105521 0.000666417 -0.000893402)
(0.0976692 0.000423227 -0.000555143)
(0.0787686 0.000372882 -0.000289817)
(0.112271 -0.00117026 -0.000316454)
(0.113828 -0.000621985 -0.000402771)
(0.114358 -8.50315e-05 -0.000537258)
(0.113828 0.000403587 -0.000622214)
(0.112067 0.000810092 -0.000598968)
(0.108738 0.00110695 -0.000418032)
(0.102778 0.00118502 -0.000121684)
(0.086815 0.00106704 0.00011661)
(0.112853 -0.00103863 9.92087e-05)
(0.114358 -0.000537262 8.59282e-05)
(0.11484 3.17654e-07 3.11628e-07)
(0.114358 0.00053782 -8.52447e-05)
(0.112853 0.00103902 -9.84358e-05)
(0.11005 0.00144219 1.20523e-05)
(0.104753 0.00159913 0.000227679)
(0.0912091 0.00140344 0.000389492)
)
;
    }
    outlet
    {
        type            zeroGradient;
    }
    procBoundary0to1
    {
        type            processor;
        value           nonuniform List<vector> 
138
(
(0.089535 -0.00229603 -0.00120302)
(0.0889873 -0.00178327 -0.00082536)
(0.0882413 -0.00181578 -0.000754065)
(0.0874321 -0.00182038 -0.000656012)
(0.0865756 -0.00180678 -0.000557548)
(0.0856878 -0.00178728 -0.000457769)
(0.0847698 -0.00176662 -0.000361222)
(0.0838277 -0.00174337 -0.000269991)
(0.0828737 -0.0017146 -0.000188493)
(0.0819183 -0.00167951 -0.000109444)
(0.104528 -0.00226514 -0.000706471)
(0.105366 -0.00185884 -0.000553968)
(0.105496 -0.00188667 -0.000586474)
(0.105591 -0.00191081 -0.000575426)
(0.105647 -0.00193132 -0.000534376)
(0.105662 -0.00193302 -0.000483562)
(0.10565 -0.00190918 -0.000423166)
(0.105617 -0.001877 -0.00035034)
(0.105567 -0.00184503 -0.000274383)
(0.105503 -0.0018102 -0.000199087)
(0.109583 -0.00163608 -0.000357001)
(0.109933 -0.0017722 -0.000350916)
(0.110285 -0.00189127 -0.00036293)
(0.110285 -0.00189127 -0.00036293)
(0.111454 -0.00164817 -0.000154072)
(0.111854 -0.0016761 -0.000172251)
(0.112247 -0.00169658 -0.000177463)
(0.112627 -0.00170892 -0.000170795)
(0.112994 -0.00171079 -0.000154938)
(0.113344 -0.00170186 -0.000131741)
(0.113677 -0.00168485 -0.000103296)
(0.113995 -0.00166299 -7.07903e-05)
(0.1143 -0.00163804 -3.5669e-05)
(0.110299 -0.00147746 -4.36876e-05)
(0.110695 -0.00155683 -8.59962e-05)
(0.111062 -0.00161027 -0.00012394)
(0.111454 -0.00164817 -0.000154072)
(0.111854 -0.0016761 -0.000172251)
(0.112247 -0.00169658 -0.000177463)
(0.112627 -0.00170892 -0.000170795)
(0.112994 -0.00171079 -0.000154938)
(0.113344 -0.00170186 -0.000131741)
(0.113677 -0.00168485 -0.000103296)
(0.113995 -0.00166299 -7.07903e-05)
(0.1143 -0.00163804 -3.5669e-05)
(0.112389 -0.00080945 0.000585867)
(0.112873 -0.000821833 0.000580636)
(0.113334 -0.000825793 0.000577741)
(0.113837 -0.000821843 0.000573722)
(0.114356 -0.000815284 0.000565283)
(0.114873 -0.000808969 0.000552563)
(0.115386 -0.000803672 0.000536146)
(0.115893 -0.000799317 0.000517221)
(0.116392 -0.000796139 0.00049762)
(0.11688 -0.000794523 0.000478943)
(0.117358 -0.00079445 0.000461861)
(0.117827 -0.000795538 0.000446589)
(0.114192 -0.000403886 0.000626031)
(0.114737 -0.000410726 0.000651371)
(0.115253 -0.00041355 0.000665494)
(0.115806 -0.000411351 0.000671213)