/*--------------------------------*- C++ -*----------------------------------*\
| =========                 |                                                 |
| \\      /  F ield         | OpenFOAM: The Open Source CFD Toolbox           |
|  \\    /   O peration     | Version:  2212                                  |
|   \\  /    A nd           | Website:  www.openfoam.com                      |
|    \\/     M anipulation  |                                                 |
\*---------------------------------------------------------------------------*/
FoamFile
{
    version     2.0;
    format      ascii;
    arch        "LSB;label=32;scalar=64";
    class       surfaceVectorField;
    location    "3";
    object      Uf;
}
// * * * * * * * * * * * * * * * * * * * * * * * * * * * * * * * * * * * * * //

dimensions      [0 1 -1 0 0 0 0];

internalField   nonuniform List<vector> 
1812
(
(0.0311384 -9.7851e-05 0.00010469)
(0.03864 -1.67088e-05 0.000223633)
(0.0384727 -0.00053243 -9.8346e-06)
(0.0306438 -6.45229e-05 4.06199e-05)
(0.0382193 -2.1495e-06 0.000105819)
(0.0377077 -0.000370702 -2.22989e-05)
(0.0302061 -4.20001e-05 1.04804e-06)
(0.0378251 1.03752e-05 2.75872e-05)
(0.0371058 -0.000276815 -4.27162e-05)
(0.029792 -3.09804e-05 -1.89528e-05)
(0.0374087 9.55261e-06 -2.35168e-05)
(0.0365588 -0.000215034 -5.33432e-05)
(0.029393 -2.76931e-05 -2.72396e-05)
(0.0369811 -1.61422e-06 -5.52958e-05)
(0.0360485 -0.000170804 -5.17737e-05)
(0.0290095 -2.83741e-05 -3.1056e-05)
(0.0365665 -1.44249e-05 -7.55468e-05)
(0.0355836 -0.000137096 -4.534e-05)
(0.0286382 -3.05955e-05 -3.19115e-05)
(0.0361472 -2.6708e-05 -8.88365e-05)
(0.0351338 -0.000112263 -3.75091e-05)
(0.0357553 -3.97173e-05 -9.83788e-05)
(0.0347262 -9.24199e-05 -2.68718e-05)
(0.0494267 -1.53504e-05 0.000194911)
(0.0571536 -0.000158416 6.69616e-05)
(0.0622163 -0.000441348 0.000233734)
(0.0490961 -6.32352e-06 5.68193e-05)
(0.056855 -0.000140515 -9.04286e-05)
(0.0618408 -0.000329685 0.000131098)
(0.0487258 -1.36071e-05 -4.03717e-05)
(0.0565237 -0.000143249 -0.000209339)
(0.0614779 -0.000242861 5.43481e-05)
(0.0483058 -3.32845e-05 -0.000108866)
(0.0561305 -0.000166227 -0.000300441)
(0.0610959 -0.000185314 -2.55802e-07)
(0.0478536 -5.38138e-05 -0.000155268)
(0.0556946 -0.000184229 -0.000365425)
(0.0607045 -0.000152927 -3.76623e-05)
(0.0473896 -7.06124e-05 -0.00018562)
(0.055241 -0.000190383 -0.000407904)
(0.0603092 -0.000133328 -6.41527e-05)
(0.0469202 -8.72476e-05 -0.000207846)
(0.0547658 -0.000189138 -0.000435993)
(0.0599011 -0.000124989 -8.66556e-05)
(0.0542896 -0.000199452 -0.000460956)
(0.0594955 -0.000115398 -0.000101408)
(0.0667416 -0.000203425 -6.52109e-05)
(0.0721836 -5.71468e-05 -0.000220432)
(0.0782252 -0.000535702 -5.9833e-05)
(0.0664704 -0.000187571 -0.000234271)
(0.0719284 -1.8991e-05 -0.000353817)
(0.0781137 -0.000457038 -0.000183289)
(0.0661477 -0.000186008 -0.000373631)
(0.0716478 -1.88371e-05 -0.000483003)
(0.0779834 -0.00039601 -0.000283891)
(0.065783 -0.000196218 -0.000485785)
(0.0713256 -2.79508e-05 -0.000594376)
(0.0778371 -0.000352063 -0.000367641)
(0.0653831 -0.000211418 -0.000574018)
(0.0709499 -4.52893e-05 -0.000687838)
(0.0776677 -0.000326818 -0.00044044)
(0.0649495 -0.000219364 -0.000638593)
(0.0705262 -6.29823e-05 -0.000762176)
(0.0774767 -0.000306548 -0.00049872)
(0.0644855 -0.000218405 -0.000683905)
(0.070059 -7.50628e-05 -0.000817827)
(0.0772619 -0.000286109 -0.000543428)
(0.0639929 -0.000218167 -0.000718555)
(0.0695553 -8.53695e-05 -0.000859399)
(0.0770289 -0.00026607 -0.000577803)
(0.0690099 -9.69002e-05 -0.000891578)
(0.076769 -0.000256631 -0.00061093)
(0.0784974 -0.000187969 -0.000452582)
(0.0824096 4.79036e-05 -0.00075947)
(0.0876479 -0.000365272 -0.0004858)
(0.0783814 -8.7325e-05 -0.000485554)
(0.0820567 9.75356e-05 -0.000790799)
(0.087655 -0.000303447 -0.000607901)
(0.078229 3.76397e-05 -0.000493347)
(0.0818875 0.000199076 -0.000781121)
(0.0877511 -0.000183807 -0.000595044)
(0.0780503 0.000116461 -0.000544253)
(0.0816603 0.000282242 -0.00080847)
(0.0878097 -7.79344e-05 -0.000603721)
(0.07784 0.000132288 -0.000633511)
(0.0813666 0.000291667 -0.000875728)
(0.0878142 -2.02556e-05 -0.000657716)
(0.0775712 0.000111264 -0.000733388)
(0.0810285 0.000251382 -0.00095569)
(0.0877892 5.25898e-06 -0.000723654)
(0.0772335 7.77414e-05 -0.000827014)
(0.0806421 0.000194287 -0.0010307)
(0.0877333 1.50516e-05 -0.000787529)
(0.0768325 4.48032e-05 -0.00090772)
(0.0801963 0.000138666 -0.00109601)
(0.0876387 1.52818e-05 -0.000848055)
(0.0763745 1.62235e-05 -0.000973979)
(0.0796907 9.02686e-05 -0.00115029)
(0.0875041 9.94646e-06 -0.00090297)
(0.0758641 -9.43336e-06 -0.00102643)
(0.0791339 5.04294e-05 -0.0011931)
(0.0873329 4.39213e-07 -0.000950958)
(0.0753015 -3.45281e-05 -0.00106604)
(0.0785296 8.76186e-06 -0.00122497)
(0.0871241 -1.30567e-05 -0.000991458)
(0.0778814 -3.09377e-05 -0.00124652)
(0.0868785 -2.90505e-05 -0.00102376)
(0.0862922 0.000278167 -0.00112252)
(0.0886379 0.000344327 -0.00130623)
(0.0942386 9.42858e-05 -0.00118005)
(0.085919 0.000393521 -0.0011083)
(0.0881074 0.0005207 -0.00135708)
(0.0940667 0.000222443 -0.00120467)
(0.0855752 0.000468145 -0.00111792)
(0.0876749 0.000624454 -0.00140345)
(0.0939855 0.000318004 -0.00119125)
(0.085205 0.000489195 -0.00116117)
(0.0871749 0.000653038 -0.00145368)
(0.0938936 0.000383967 -0.00119714)
(0.0847947 0.000456346 -0.00121768)
(0.0866092 0.00061879 -0.00149824)
(0.0937761 0.000406163 -0.00122397)
(0.0843391 0.000389807 -0.00127093)
(0.0859875 0.000548086 -0.00153037)
(0.0936308 0.000389234 -0.00126125)
(0.0838344 0.000310383 -0.00131589)
(0.0853232 0.000463307 -0.00154894)
(0.0934597 0.000348871 -0.00129966)
(0.0832778 0.000232232 -0.00135336)
(0.0846178 0.000372739 -0.00156033)
(0.093256 0.000300181 -0.00133194)
(0.0826709 0.000161625 -0.0013831)
(0.0838683 0.000287446 -0.00156749)
(0.0930161 0.000248761 -0.00135855)
(0.0820153 9.91586e-05 -0.00140434)
(0.0830824 0.000209634 -0.00156931)
(0.0927417 0.000195526 -0.00138058)
(0.0813195 4.25918e-05 -0.00141721)
(0.0822688 0.000138657 -0.00156387)
(0.0924342 0.00014225 -0.00139761)
(0.081435 7.1056e-05 -0.00155114)
(0.092096 8.92969e-05 -0.00140842)
(0.090554 0.000613109 -0.00154754)
(0.0910481 0.000734728 -0.00161681)
(0.0974703 0.000392619 -0.00158252)
(0.0899581 0.000772394 -0.00165985)
(0.0903336 0.00097129 -0.00185541)
(0.0972397 0.000552475 -0.00167841)
(0.0893183 0.00082539 -0.00174729)
(0.0895901 0.00102396 -0.00200788)
(0.0970207 0.000665257 -0.00173525)
(0.0886073 0.000789008 -0.00179811)
(0.0886915 0.000968245 -0.0020634)
(0.0967427 0.000703894 -0.00177191)
(0.0878315 0.000705643 -0.00181691)
(0.0876817 0.000862428 -0.00206292)
(0.096411 0.00068389 -0.00179347)
(0.0870019 0.000609202 -0.00181311)
(0.0866047 0.000734913 -0.00203131)
(0.0960297 0.000628816 -0.00180346)
(0.0861291 0.000511844 -0.00179731)
(0.0854939 0.000604712 -0.0019843)
(0.0956053 0.000559113 -0.00180494)
(0.0852244 0.000415064 -0.00177785)
(0.0843714 0.000479031 -0.00193128)
(0.0951454 0.000483297 -0.00179807)
(0.0842971 0.000322088 -0.00175651)
(0.0832466 0.000363088 -0.00187605)
(0.0946565 0.000404011 -0.00178066)
(0.0833512 0.000235903 -0.00173116)
(0.0821341 0.000254747 -0.00181926)
(0.0941454 0.000321237 -0.00175675)
(0.0823968 0.000155695 -0.00169982)
(0.0810451 0.000163424 -0.00176012)
(0.0936196 0.000241511 -0.00172819)
(0.0799875 8.6612e-05 -0.00169847)
(0.0930865 0.000163743 -0.00169398)
(0.0909377 0.00109715 -0.00192241)
(0.089269 0.00121335 -0.00188701)
(0.0973128 0.000788395 -0.00185227)
(0.0900294 0.00121045 -0.00219599)
(0.0881611 0.00140925 -0.00240635)
(0.0970076 0.000949929 -0.00211087)
(0.088961 0.00114475 -0.00231403)
(0.086888 0.00131816 -0.0025546)
(0.0966151 0.000972206 -0.00222314)
(0.0877583 0.00101126 -0.00231692)
(0.0853552 0.00110473 -0.00251723)
(0.0960777 0.0009119 -0.00224866)
(0.0864632 0.000858717 -0.00226615)
(0.0836994 0.000870429 -0.00241319)
(0.0954208 0.000811642 -0.00223169)
(0.0851181 0.000702104 -0.0021929)
(0.0820394 0.000654996 -0.00227947)
(0.0946835 0.000692886 -0.00218836)
(0.0837596 0.000550376 -0.00211062)
(0.0804357 0.000476094 -0.00214101)
(0.0939029 0.000565309 -0.00212973)
(0.0824179 0.000411676 -0.0020237)
(0.0789119 0.000332348 -0.00200608)
(0.0931025 0.000438415 -0.00205815)
(0.0811168 0.000286563 -0.00193492)
(0.0774803 0.000220132 -0.00187765)
(0.0923034 0.000322393 -0.00197428)
(0.0798678 0.000178851 -0.00184614)
(0.0761511 0.000128784 -0.00175871)
(0.0915251 0.000214876 -0.00188953)
(0.0786775 9.48667e-05 -0.00175809)
(0.0749225 6.2989e-05 -0.00164916)
(0.0907779 0.000124909 -0.00180628)
(0.0737851 1.97532e-05 -0.00154931)
(0.0900683 5.25017e-05 -0.00172463)
(0.0869034 0.00148556 -0.00234786)
(0.0824569 0.0015169 -0.00222131)
(0.0934856 0.0011261 -0.00208641)
(0.0853013 0.00143088 -0.00272209)
(0.0804112 0.00155631 -0.0029232)
(0.0929152 0.00117994 -0.00256268)
(0.0834528 0.00119984 -0.00271975)
(0.078158 0.00121846 -0.00283945)
(0.0921293 0.00103504 -0.00260669)
(0.0814822 0.000920374 -0.00258938)
(0.0757133 0.000790751 -0.00258504)
(0.0911043 0.000821939 -0.00251299)
(0.0795073 0.000648791 -0.00241348)
(0.0734062 0.000467327 -0.00229646)
(0.0899437 0.000597874 -0.00238339)
(0.0776169 0.000423551 -0.00222183)
(0.0713764 0.00024924 -0.00202228)
(0.0887576 0.000395029 -0.0022249)
(0.0758582 0.000258379 -0.00203599)
(0.0696291 0.000113627 -0.00178092)
(0.0876171 0.000234047 -0.00205432)
(0.0742543 0.000145976 -0.00186432)
(0.0681189 4.34914e-05 -0.00157641)
(0.0865528 0.000115232 -0.00188904)
(0.0728041 7.12607e-05 -0.00170974)
(0.0668017 1.50801e-05 -0.00140708)
(0.0855774 3.39959e-05 -0.00174197)
(0.0714988 2.26496e-05 -0.00157263)
(0.0656375 8.94151e-07 -0.00126939)
(0.084696 -2.22092e-05 -0.00160746)
(0.0703212 -4.16156e-06 -0.00145247)
(0.0646019 -2.14882e-06 -0.00116117)
(0.0839034 -5.4391e-05 -0.00148906)
(0.0831923 -7.10009e-05 -0.00138569)
(0.0772358 0.00151053 -0.0027379)
(0.0685203 0.00138392 -0.00229935)
(0.0848966 0.00121759 -0.00241043)
(0.0741864 0.00125926 -0.00298128)
(0.0651745 0.00109609 -0.00276488)
(0.083685 0.00113886 -0.0029308)
(0.071123 0.000808634 -0.00269478)
(0.0621326 0.00051669 -0.00233534)
(0.0821758 0.000736359 -0.00265616)
(0.0684169 0.000432731 -0.00233667)
(0.0593564 0.000175745 -0.00186309)
(0.0804694 0.000342972 -0.00229535)
(0.0661223 0.000209424 -0.00198339)
(0.0572011 3.49918e-05 -0.00142813)
(0.078875 0.000107063 -0.00195079)
(0.0642455 8.77451e-05 -0.00167313)
(0.0556366 -1.98982e-06 -0.00114536)
(0.0775212 -2.518e-05 -0.0016426)
(0.0627278 3.93888e-05 -0.0014175)
(0.0544227 1.15884e-05 -0.000959702)
(0.0764056 -8.13192e-05 -0.00138947)
(0.0614856 3.70775e-05 -0.0012134)
(0.0534116 4.85124e-05 -0.000824914)
(0.0754845 -8.42015e-05 -0.00119076)
(0.060434 4.82121e-05 -0.00105438)
(0.0525368 7.83974e-05 -0.000714532)
(0.0747152 -6.55958e-05 -0.0010373)
(0.0595122 6.06233e-05 -0.000937592)
(0.0517589 8.93959e-05 -0.000623128)
(0.0740538 -4.3537e-05 -0.000919222)
(0.0510803 0.000100166 -0.000557117)
(0.0734727 -1.72628e-05 -0.000833057)
(0.0602795 0.000749944 -0.00220101)
(0.0481166 0.000417215 -0.00166591)
(0.0689353 0.00063981 -0.00253943)
(0.0554449 0.000646168 -0.00232749)
(0.0440909 0.000111642 -0.00146226)
(0.0669388 0.000538279 -0.00246394)
(0.0521251 0.000311411 -0.00182543)
(0.0416276 5.83922e-05 -0.00109201)
(0.0650685 0.000132461 -0.00177876)
(0.0500169 7.57927e-05 -0.00123234)
(0.0397388 4.54514e-05 -0.000807548)
(0.0632993 -0.000100824 -0.00119472)
(0.0486282 -2.02754e-05 -0.000798961)
(0.0385106 1.11706e-05 -0.000532377)
(0.0620033 -0.000182051 -0.000770265)
(0.0476262 -1.51001e-05 -0.000582383)
(0.0377561 2.15905e-05 -0.000370314)
(0.0611449 -0.00016659 -0.000529933)
(0.0468286 1.64206e-05 -0.000466669)
(0.037158 4.28296e-05 -0.000277405)
(0.0604918 -0.000120791 -0.000389266)
(0.0461319 4.13192e-05 -0.000386955)
(0.0366097 5.37752e-05 -0.000216389)
(0.0599268 -7.45025e-05 -0.000299815)
(0.045499 5.1634e-05 -0.000322057)
(0.0360913 5.18866e-05 -0.000171991)
(0.0594164 -3.85261e-05 -0.000238425)
(0.0449138 5.25036e-05 -0.000268601)
(0.035598 4.56548e-05 -0.000139916)
(0.0589331 -5.6271e-06 -0.000202605)
(0.0351593 3.56682e-05 -0.00011276)
(0.058492 1.3159e-05 -0.000167096)
(0.0386518 1.45346e-05 -0.00120057)
(0.0443562 0.000131586 -0.00190917)
(0.0345669 -0.000296849 -0.000570628)
(0.041696 -0.000359666 -0.000966739)
(0.0327582 -0.000299701 -0.00021842)
(0.0403588 -0.000469806 -0.000246021)
(0.0317824 -0.000195605 -0.000136141)
(0.0393244 -0.000368742 -1.92309e-05)
(0.0311629 -0.000104635 -9.93813e-05)
(0.0386801 -0.000228072 -1.07318e-05)
(0.0306851 -4.06929e-05 -6.51926e-05)
(0.0382699 -0.000110026 3.03777e-06)
(0.0302502 -7.16329e-07 -4.23173e-05)
(0.0378783 -2.83658e-05 1.1852e-05)
(0.0298297 1.92518e-05 -3.16092e-05)
(0.037459 2.46637e-05 8.38896e-06)
(0.0294203 2.75249e-05 -2.92668e-05)
(0.0370224 5.70953e-05 -4.84388e-06)
(0.0290208 3.11085e-05 -3.01604e-05)
(0.0365798 7.75319e-05 -1.88055e-05)
(0.0361724 9.05652e-05 -3.06726e-05)
(0.0485741 -0.000805758 1.62021e-05)
(0.0619831 -0.000769976 0.000186948)
(0.0571627 -0.00144873 -5.28084e-05)
(0.0475565 -0.000583188 1.44014e-05)
(0.0611279 -0.000532154 0.000166879)
(0.0555936 -0.00115485 -5.38218e-06)
(0.0467614 -0.000463275 -1.44998e-05)
(0.0604755 -0.000387804 0.000122437)
(0.0543792 -0.000960093 -1.05912e-05)
(0.046076 -0.000382464 -3.83601e-05)
(0.0599115 -0.00029686 7.65677e-05)
(0.0533702 -0.000819855 -4.35159e-05)
(0.0454585 -0.000316973 -4.85843e-05)
(0.0594048 -0.000237946 3.90901e-05)
(0.0525039 -0.0007051 -6.93948e-05)
(0.0448943 -0.000263097 -4.96097e-05)
(0.0589393 -0.000196301 9.04691e-06)
(0.051751 -0.000612723 -8.1775e-05)
(0.0443671 -0.000222158 -4.73005e-05)
(0.0584888 -0.000169464 -1.57325e-05)
(0.0510633 -0.000541528 -8.71656e-05)
(0.0580613 -0.000144769 -2.83924e-05)
(0.0504474 -0.000497139 -9.80771e-05)
(0.0779259 -0.000775927 0.000283854)
(0.0843908 -0.000877109 9.70424e-05)
(0.0848687 -0.00140785 0.000230915)
(0.0774754 -0.000581904 0.000225963)
(0.0841684 -0.000705494 3.97231e-05)
(0.0843844 -0.00116964 0.000222374)
(0.0770925 -0.000427636 0.000172124)
(0.083985 -0.000572249 -2.11171e-05)
(0.083952 -0.000966246 0.000185971)
(0.0767581 -0.000324351 0.000118697)
(0.0838307 -0.000475226 -8.25302e-05)
(0.0835733 -0.000806918 0.000135884)
(0.0764414 -0.000266727 6.32123e-05)
(0.0836953 -0.000414587 -0.000143596)
(0.0832436 -0.000698369 8.33232e-05)
(0.0761195 -0.000238502 8.16409e-06)
(0.0835528 -0.000376507 -0.000202711)
(0.0829351 -0.000623634 3.05695e-05)
(0.075782 -0.00021393 -3.1686e-05)
(0.0834028 -0.00035434 -0.000255272)
(0.0826449 -0.000575932 -2.17409e-05)
(0.0832302 -0.000327518 -0.000291283)
(0.0823515 -0.00052421 -5.57114e-05)
(0.0915506 -0.000801815 -0.00010998)
(0.0949551 -0.000586665 -0.000366267)
(0.0963498 -0.00124413 -0.000129291)
(0.0916424 -0.000669645 -0.000157218)
(0.0951276 -0.000466425 -0.000401277)
(0.0965443 -0.00112946 -0.00013877)
(0.0917308 -0.000569459 -0.000218375)
(0.0952782 -0.000375602 -0.00044854)
(0.0966978 -0.0010235 -0.000177858)
(0.0918119 -0.00049748 -0.000287565)
(0.0954272 -0.000303116 -0.000502564)
(0.096835 -0.00092745 -0.000230463)
(0.0918869 -0.000445615 -0.000357622)
(0.0955724 -0.000250561 -0.000562782)
(0.096965 -0.000846882 -0.000288992)
(0.0919556 -0.000406636 -0.000423193)
(0.0957077 -0.000216008 -0.000623735)
(0.0970912 -0.000779077 -0.000349466)
(0.0920119 -0.000375789 -0.000480205)
(0.095829 -0.00019585 -0.000681108)
(0.0972136 -0.00072374 -0.000409138)
(0.0920561 -0.000352416 -0.000529817)
(0.0959334 -0.000183561 -0.000730721)
(0.0973331 -0.000677302 -0.00046279)
(0.0960181 -0.000176056 -0.000774909)
(0.0974473 -0.000638555 -0.000510487)
(0.0980027 -0.000453315 -0.000525253)
(0.10034 -0.000200024 -0.000832764)
(0.101678 -0.000668619 -0.000551131)
(0.0983396 -0.000381419 -0.000625095)
(0.100568 -0.000126676 -0.00093202)
(0.102002 -0.000636184 -0.000617177)
(0.0986346 -0.000300499 -0.000660698)
(0.10078 -7.37047e-05 -0.000963633)
(0.102313 -0.000604411 -0.000651374)
(0.0988792 -0.000220776 -0.000684523)
(0.101006 -3.75316e-06 -0.000972908)
(0.102658 -0.000552216 -0.000656657)
(0.0991087 -0.000152979 -0.00071956)
(0.101221 5.91505e-05 -0.000995946)
(0.102991 -0.000495178 -0.000674318)
(0.0993347 -9.66413e-05 -0.000759002)
(0.101424 0.000100218 -0.0010297)
(0.103304 -0.000438873 -0.000703058)
(0.0995548 -5.451e-05 -0.000803575)
(0.101622 0.000123413 -0.00106763)
(0.103609 -0.000385819 -0.000738397)
(0.0997646 -2.9629e-05 -0.000854433)
(0.101811 0.000131354 -0.00110512)
(0.103907 -0.000343039 -0.000782779)
(0.0999589 -1.95678e-05 -0.000906877)
(0.101986 0.000125504 -0.00114221)
(0.104192 -0.000312276 -0.00083216)
(0.100134 -2.04246e-05 -0.000956574)
(0.102143 0.000107573 -0.00117919)
(0.104465 -0.00029178 -0.000881386)
(0.100286 -2.75764e-05 -0.00100065)
(0.102278 8.16022e-05 -0.00121349)
(0.104724 -0.000279306 -0.000927366)
(0.10239 5.16516e-05 -0.00124222)
(0.104967 -0.000271143 -0.000968319)
(0.102951 2.78759e-05 -0.00125701)
(0.103864 0.000104634 -0.00144794)
(0.105818 -0.000200802 -0.00121504)
(0.10311 0.000135239 -0.00128711)
(0.10403 0.000218993 -0.00151935)
(0.106083 -0.000100883 -0.00125612)
(0.103287 0.000216851 -0.00129229)
(0.104196 0.000323901 -0.00155328)
(0.106346 -3.72822e-05 -0.0012624)
(0.103471 0.000281141 -0.00130057)
(0.104365 0.000404476 -0.00157479)
(0.106636 1.38485e-05 -0.00126536)
(0.103655 0.00031922 -0.00132201)
(0.104522 0.000449518 -0.00159573)
(0.106935 5.28357e-05 -0.00127792)
(0.103832 0.000330025 -0.00135412)
(0.104661 0.000457277 -0.0016221)
(0.107231 7.51052e-05 -0.00130069)
(0.103996 0.000322987 -0.00138469)
(0.104775 0.000438513 -0.00165024)
(0.107517 8.37624e-05 -0.00132801)
(0.104148 0.000303672 -0.00140777)
(0.104862 0.000408048 -0.00166449)
(0.107795 8.36128e-05 -0.00135118)
(0.104284 0.000271123 -0.0014286)
(0.104929 0.000365167 -0.00166308)
(0.108062 7.29494e-05 -0.00137178)
(0.1044 0.000227354 -0.00144942)
(0.104977 0.000308642 -0.00165779)
(0.108313 5.14753e-05 -0.00139233)
(0.104495 0.000177303 -0.00146768)
(0.105005 0.000245987 -0.00165218)
(0.108549 2.27824e-05 -0.00141136)
(0.105016 0.000181634 -0.00164291)
(0.108767 -9.84973e-06 -0.00142717)
(0.104951 0.00031719 -0.00171616)
(0.10446 0.000411725 -0.00176439)
(0.107473 0.00015641 -0.00160359)
(0.105124 0.000422478 -0.00179111)
(0.104689 0.000505442 -0.00193978)
(0.107759 0.000229051 -0.00169323)
(0.105291 0.00051658 -0.00184075)
(0.10487 0.000600564 -0.0020484)
(0.108023 0.000303716 -0.00175759)
(0.105434 0.000572591 -0.0018746)
(0.105006 0.00064431 -0.00210028)
(0.108291 0.000358544 -0.00180313)
(0.105544 0.000584122 -0.00190022)
(0.105083 0.000637394 -0.0021205)
(0.10855 0.000384281 -0.00183421)
(0.105618 0.000558791 -0.0019222)
(0.105097 0.000593608 -0.0021239)
(0.108788 0.000381142 -0.00185758)
(0.105655 0.000513452 -0.00193357)
(0.105057 0.000525236 -0.00211374)
(0.108999 0.000356854 -0.00187439)
(0.105657 0.000458223 -0.00192295)
(0.104973 0.000446948 -0.00208047)
(0.109183 0.000323009 -0.00187612)
(0.105634 0.000391615 -0.00189506)
(0.104861 0.000366448 -0.00202127)
(0.109345 0.000280471 -0.00185919)
(0.105592 0.00031655 -0.00186295)
(0.104735 0.000281979 -0.00195845)
(0.109488 0.000228389 -0.00183416)
(0.105535 0.000239729 -0.00182939)
(0.104601 0.000200668 -0.00189868)
(0.109615 0.000172115 -0.00180711)
(0.104464 0.000124771 -0.00183874)
(0.109728 0.000114677 -0.00177688)
(0.104167 0.000616596 -0.0019892)
(0.102179 0.00066687 -0.00189614)
(0.106711 0.00047363 -0.00176092)
(0.104422 0.000680267 -0.00219342)
(0.102488 0.000743195 -0.00227747)
(0.107021 0.000506263 -0.00198126)
(0.104599 0.000709953 -0.0023009)
(0.102656 0.000736987 -0.00245201)
(0.107289 0.000540474 -0.0021409)
(0.104668 0.00068794 -0.00233847)
(0.102705 0.000659212 -0.00247071)
(0.107535 0.000542124 -0.00221941)
(0.104644 0.000626322 -0.0023367)
(0.102622 0.000552414 -0.00243153)
(0.10773 0.000509396 -0.00224708)
(0.104544 0.000540602 -0.00230849)
(0.102432 0.000436533 -0.00235334)
(0.107864 0.000453209 -0.00224217)
(0.104386 0.000441031 -0.0022545)
(0.102184 0.000320524 -0.00224485)
(0.107948 0.000383762 -0.00221293)
(0.104191 0.000339337 -0.00217353)
(0.101909 0.000214281 -0.00212035)
(0.107994 0.000308309 -0.00215798)
(0.103977 0.00024299 -0.00208028)
(0.101629 0.000125524 -0.00199596)
(0.108017 0.000235446 -0.00208221)
(0.103759 0.000154674 -0.00199072)
(0.101359 5.15043e-05 -0.00187833)
(0.108027 0.000166288 -0.00200331)
(0.103546 7.6946e-05 -0.0019055)
(0.101104 -5.40675e-06 -0.00177197)
(0.108032 0.000103915 -0.0019261)
(0.100875 -5.03783e-05 -0.00167413)
(0.108038 4.89418e-05 -0.00184972)
(0.100491 0.000766819 -0.00217335)
(0.096451 0.000701275 -0.00191884)
(0.103334 0.000613662 -0.00177492)
(0.100801 0.000746143 -0.00251341)
(0.0968555 0.000740354 -0.00250871)
(0.103666 0.000612958 -0.00217505)
(0.100887 0.000635669 -0.00259959)
(0.0969416 0.0005558 -0.00260808)
(0.103904 0.000556759 -0.00237348)
(0.100768 0.000488841 -0.0025473)
(0.0967816 0.000332721 -0.00246082)
(0.104074 0.000461316 -0.00239993)
(0.100518 0.000341264 -0.00243761)
(0.0964521 0.000159515 -0.00226435)
(0.104142 0.000355458 -0.00235683)
(0.100187 0.000207272 -0.0022854)
(0.0960502 3.27795e-05 -0.00204458)
(0.104121 0.000253813 -0.00226218)
(0.099828 9.42982e-05 -0.00211212)
(0.0956394 -4.92335e-05 -0.00182802)
(0.104054 0.000163891 -0.00213124)
(0.0994731 6.5661e-06 -0.00194803)
(0.0952537 -9.85197e-05 -0.00163304)
(0.103973 9.44348e-05 -0.00198954)
(0.0991382 -5.68105e-05 -0.00180173)
(0.0949081 -0.000125692 -0.00147512)
(0.103893 4.21025e-05 -0.00185897)
(0.0988344 -9.72306e-05 -0.00166938)
(0.0946042 -0.000131894 -0.0013467)
(0.103825 7.30395e-06 -0.00173741)
(0.0985655 -0.000120059 -0.00155202)
(0.0943334 -0.000124757 -0.00123754)
(0.103772 -1.18056e-05 -0.00162579)
(0.103744 -2.14575e-05 -0.00152411)
(0.0930554 0.000730184 -0.00226953)
(0.0855046 0.000395358 -0.00182499)
(0.0966075 0.00056633 -0.00164877)
(0.0933616 0.000565005 -0.00260159)
(0.0859439 0.000365105 -0.00236358)
(0.097003 0.000539801 -0.00218216)
(0.0932208 0.00026981 -0.00247507)
(0.0858661 5.92251e-05 -0.00212601)
(0.0971699 0.000352762 -0.00225558)
(0.0928377 3.98732e-05 -0.00219995)
(0.0853885 -0.0001486 -0.00173199)
(0.0971775 0.000175208 -0.00211463)
(0.0923674 -9.76749e-05 -0.00190771)
(0.0848406 -0.000217064 -0.00142057)
(0.0970711 6.37993e-05 -0.0019251)
(0.091894 -0.000164679 -0.00163341)
(0.084345 -0.000218936 -0.00116737)
(0.0969218 4.75924e-06 -0.00171471)
(0.0914609 -0.000179487 -0.00140096)
(0.0839108 -0.000183585 -0.000964085)
(0.0967715 -9.65454e-06 -0.00151563)
(0.0910852 -0.000167305 -0.00121526)
(0.0835317 -0.000133758 -0.000806377)
(0.0966431 3.61968e-06 -0.00134341)
(0.0907653 -0.000141914 -0.0010748)
(0.0832052 -8.38302e-05 -0.000694668)
(0.0965485 2.93956e-05 -0.00120358)
(0.0904972 -0.000108063 -0.000966926)
(0.0829022 -2.57912e-05 -0.000630516)
(0.096487 6.6252e-05 -0.00109849)
(0.08261 1.90255e-05 -0.000569237)
(0.0964459 0.000105296 -0.00101026)
(0.0795502 0.000111623 -0.00195943)
(0.0636945 -0.000195592 -0.00154052)
(0.084488 -6.35501e-05 -0.00130759)
(0.0795354 -2.33919e-05 -0.00197084)
(0.063601 -0.000197247 -0.00166483)
(0.0848948 5.62981e-05 -0.00175371)
(0.0790227 -0.00022417 -0.00150314)
(0.0633001 -0.000344637 -0.00102511)
(0.0849302 -3.75114e-05 -0.00151606)
(0.0784325 -0.000292214 -0.00107909)
(0.0627216 -0.000338126 -0.0005984)
(0.0846571 -0.000102428 -0.00115817)
(0.0778891 -0.000270597 -0.000789908)
(0.0622395 -0.000235002 -0.000439755)
(0.0843651 -8.92323e-05 -0.000890947)
(0.0774296 -0.000223212 -0.000581003)
(0.0618609 -0.000133668 -0.000324259)
(0.0841326 -3.95922e-05 -0.000706568)
(0.0770468 -0.000171148 -0.00042568)
(0.0614956 -5.28637e-05 -0.000242577)
(0.0839469 2.22074e-05 -0.000573603)
(0.0767152 -0.000120392 -0.00031943)
(0.0611105 3.54924e-06 -0.000188214)
(0.0837919 8.43954e-05 -0.000477554)
(0.0764042 -6.3038e-05 -0.000266361)
(0.060714 3.99576e-05 -0.000154989)
(0.0836586 0.000143694 -0.000413908)
(0.0760791 -1.10255e-05 -0.000235434)
(0.0603014 6.84895e-05 -0.000141644)
(0.083521 0.000208982 -0.000386187)
(0.0599039 8.57584e-05 -0.000125457)
(0.083368 0.000249493 -0.000349597)
(0.0518947 -0.000539732 -0.00125564)
(0.058259 -0.000557292 -0.00124953)
(0.0507446 -0.000527061 -0.000809452)
(0.058102 -0.000404385 -0.00105406)
(0.0500749 -0.000507169 -0.000215684)
(0.0579122 -0.00038179 -0.000426039)
(0.0497627 -0.000374157 -1.48374e-05)
(0.0575329 -0.000256371 -0.000158764)
(0.0494865 -0.0002053 -2.61759e-07)
(0.0571936 -8.29522e-05 -0.000129527)
(0.0491697 -6.11357e-05 -1.17026e-06)
(0.0568976 8.15468e-05 -0.000130193)
(0.0487936 4.18198e-05 -1.61765e-05)
(0.0565652 0.000207889 -0.000145763)
(0.0483594 0.000113177 -4.03216e-05)
(0.0561681 0.00030325 -0.000174357)
(0.0478905 0.000160455 -6.30111e-05)
(0.0557243 0.000371344 -0.00019701)
(0.0474072 0.000191413 -8.12093e-05)
(0.0552485 0.000413948 -0.000201311)
(0.0547863 0.00044694 -0.000206967)
(0.0684097 -0.00235626 -0.000445425)
(0.0804689 -0.00230525 -0.000345465)
(0.0757095 -0.00259683 -0.000795842)
(0.0661108 -0.00200225 -0.000222034)
(0.0788807 -0.00196906 -0.000115036)
(0.0733995 -0.00231163 -0.000472179)
(0.0642304 -0.00168206 -9.21288e-05)
(0.0775286 -0.00165184 2.17314e-05)
(0.0713698 -0.00203153 -0.000250814)
(0.0627126 -0.0014174 -3.65597e-05)
(0.0764135 -0.00139079 8.34527e-05)
(0.069622 -0.00178371 -0.0001107)
(0.0614747 -0.00120511 -2.89659e-05)
(0.0754941 -0.00118675 8.92131e-05)
(0.0681123 -0.00157346 -3.75807e-05)
(0.060431 -0.00104106 -3.76559e-05)
(0.0747275 -0.00102877 7.30014e-05)
(0.0667989 -0.00139827 -6.52269e-06)
(0.0595206 -0.00091938 -4.78434e-05)
(0.0740694 -0.000908852 5.0763e-05)
(0.0656427 -0.00125804 8.1681e-06)
(0.0587028 -0.000835623 -6.08132e-05)
(0.0734907 -0.000819826 2.57124e-05)
(0.0646106 -0.0011439 1.3356e-05)
(0.0729681 -0.000759151 -1.58376e-06)
(0.0636786 -0.00105857 8.80308e-06)
(0.0928556 -0.00219976 -3.49429e-05)
(0.0971852 -0.00210763 -0.000169571)
(0.0967874 -0.00245925 -0.000324888)
(0.0923935 -0.00191285 0.000100534)
(0.0970893 -0.00192189 -6.00159e-05)
(0.0964682 -0.00226675 -0.000151459)
(0.0919279 -0.00163708 0.000167915)
(0.096944 -0.00171492 -1.82488e-06)
(0.0960697 -0.00204848 -2.78542e-05)
(0.0914975 -0.00140157 0.000183319)
(0.0967974 -0.00151538 1.31837e-05)
(0.0956616 -0.00182967 5.35999e-05)
(0.0911214 -0.00121427 0.000170758)
(0.0966714 -0.00134215 -1.66867e-07)
(0.095278 -0.00163207 0.000102397)
(0.0907997 -0.00107152 0.00014513)
(0.0965761 -0.00120233 -2.65692e-05)
(0.094932 -0.00147304 0.000128298)
(0.0905252 -0.000965103 0.000109658)
(0.0965092 -0.00109385 -6.30767e-05)
(0.0946239 -0.00134142 0.000134467)
(0.0902879 -0.000881999 7.13353e-05)
(0.0964688 -0.0010119 -0.000105925)
(0.0943537 -0.00123672 0.00012244)
(0.0964453 -0.000939414 -0.000145725)
(0.0941136 -0.00114489 0.000107875)
(0.101931 -0.00162802 -0.000188101)
(0.104261 -0.00129307 -0.000409762)
(0.104582 -0.00183856 -0.000263385)
(0.102182 -0.00153248 -0.000161909)
(0.10462 -0.00122232 -0.000386727)
(0.104899 -0.00179537 -0.000209609)
(0.102398 -0.0014188 -0.000160494)
(0.104937 -0.0011342 -0.000383118)
(0.105161 -0.00171669 -0.000170386)
(0.102593 -0.00130307 -0.000177367)
(0.105231 -0.00104009 -0.000395728)
(0.105387 -0.00161707 -0.000148264)
(0.102778 -0.00119681 -0.000206836)
(0.105513 -0.000950984 -0.000420889)
(0.105593 -0.00151252 -0.000144103)
(0.102964 -0.00110411 -0.000245757)
(0.10579 -0.00087246 -0.000455081)
(0.105791 -0.0014123 -0.0001492)
(0.103157 -0.00102634 -0.000290576)
(0.106066 -0.000806549 -0.000495589)
(0.105988 -0.00132239 -0.000165185)
(0.103358 -0.000959582 -0.000335603)
(0.106342 -0.000752334 -0.000538132)
(0.10619 -0.00124261 -0.000187552)
(0.10662 -0.000704969 -0.00057855)
(0.106398 -0.00116931 -0.000211427)
(0.105901 -0.000865887 -0.000632702)
(0.107363 -0.00058816 -0.000874166)
(0.107962 -0.000985759 -0.000565732)
(0.106292 -0.000878777 -0.000632799)
(0.10773 -0.000564059 -0.000892236)
(0.108322 -0.00101226 -0.000547323)
(0.10673 -0.000878178 -0.000630787)
(0.1081 -0.000566623 -0.000900108)
(0.108705 -0.00104529 -0.000551276)
(0.107159 -0.000849836 -0.000624538)
(0.10852 -0.000552951 -0.000896035)
(0.109152 -0.00104974 -0.00054373)
(0.107574 -0.000802511 -0.000625291)
(0.108947 -0.000522899 -0.000895499)
(0.109609 -0.00102817 -0.000533)
(0.107977 -0.00074576 -0.000636308)
(0.109362 -0.000485329 -0.000903275)
(0.11005 -0.000989395 -0.000526495)
(0.108367 -0.000687419 -0.000657466)
(0.109765 -0.000445904 -0.000918485)
(0.110476 -0.000939485 -0.000526453)
(0.108748 -0.000633829 -0.000687452)
(0.110161 -0.000410937 -0.000939682)
(0.110889 -0.000885523 -0.000534856)
(0.10912 -0.00058807 -0.000723171)
(0.110548 -0.000383266 -0.000964939)
(0.111292 -0.000833074 -0.000550672)
(0.109486 -0.000550372 -0.000761193)
(0.110926 -0.000362921 -0.000992059)
(0.111687 -0.000785187 -0.000570966)
(0.109846 -0.000519359 -0.00079889)
(0.111296 -0.000348985 -0.00101913)
(0.112074 -0.00074249 -0.000593954)
(0.111656 -0.000339858 -0.00104472)
(0.112455 -0.000704095 -0.000617636)
(0.109173 -0.000329353 -0.00114181)
(0.109647 -0.000157812 -0.00129837)
(0.110649 -0.000468501 -0.00095797)
(0.109564 -0.000277703 -0.00116905)
(0.11004 -0.000103262 -0.00135874)
(0.111084 -0.00043085 -0.000986526)
(0.109972 -0.000247317 -0.00117605)
(0.11041 -6.59466e-05 -0.00139217)
(0.1115 -0.000411538 -0.000997642)
(0.110387 -0.000222066 -0.00117838)
(0.110809 -3.74224e-05 -0.00141169)
(0.111954 -0.000396303 -0.000996678)
(0.110804 -0.000198045 -0.00118522)
(0.11122 -1.54863e-05 -0.00142747)
(0.112423 -0.000379183 -0.000994752)
(0.111219 -0.000176369 -0.00119732)
(0.111626 -1.16624e-06 -0.00144248)
(0.11289 -0.000360977 -0.000996125)
(0.11163 -0.000158926 -0.00121256)
(0.112022 6.25087e-06 -0.00145577)
(0.113351 -0.000342509 -0.00100031)
(0.112032 -0.00014829 -0.00122887)
(0.112409 6.6227e-06 -0.0014649)
(0.113806 -0.000325611 -0.00100529)
(0.112425 -0.000145593 -0.00124518)
(0.112784 -1.50768e-06 -0.00146877)
(0.114254 -0.000312664 -0.00101097)
(0.112806 -0.000149738 -0.00126088)
(0.113144 -1.69292e-05 -0.00146837)