/*--------------------------------*- C++ -*----------------------------------*\
| =========                 |                                                 |
| \\      /  F ield         | OpenFOAM: The Open Source CFD Toolbox           |
|  \\    /   O peration     | Version:  2212                                  |
|   \\  /    A nd           | Website:  www.openfoam.com                      |
|    \\/     M anipulation  |                                                 |
\*---------------------------------------------------------------------------*/
FoamFile
{
    version     2.0;
    format      ascii;
    arch        "LSB;label=32;scalar=64";
    class       volScalarField;
    location    "2.9";
    object      nut;
}
// * * * * * * * * * * * * * * * * * * * * * * * * * * * * * * * * * * * * * //

dimensions      [0 2 -1 0 0 0 0];

internalField   nonuniform List<scalar> 
680
(
4.5356e-05
2.3208e-05
1.65396e-05
1.36493e-05
1.18966e-05
1.06843e-05
9.76071e-06
0.000107685
6.77183e-05
5.0631e-05
4.14158e-05
3.54048e-05
3.10366e-05
2.77136e-05
0.000160509
0.00010736
8.07408e-05
6.55975e-05
5.54896e-05
4.83025e-05
4.3131e-05
0.000198681
0.0001383
0.000105187
8.55269e-05
7.25013e-05
6.28902e-05
5.60612e-05
0.000218609
0.000155003
0.000118661
9.65069e-05
8.18824e-05
7.08356e-05
6.30857e-05
0.000218609
0.000155003
0.000118661
9.65069e-05
8.18823e-05
7.08355e-05
6.30855e-05
0.000198681
0.0001383
0.000105187
8.55269e-05
7.25012e-05
6.289e-05
5.60609e-05
0.000160509
0.00010736
8.07408e-05
6.55975e-05
5.54895e-05
4.83024e-05
4.31308e-05
0.000107685
6.77183e-05
5.0631e-05
4.14158e-05
3.54048e-05
3.10366e-05
2.77136e-05
4.5356e-05
2.3208e-05
1.65396e-05
1.36493e-05
1.18966e-05
1.06843e-05
9.76071e-06
0.000107685
6.77183e-05
5.0631e-05
4.14158e-05
3.54048e-05
3.10366e-05
2.77136e-05
0.000528907
0.000369984
0.000305097
0.00026137
0.000228527
0.000202474
0.000181111
0.000663952
0.000488458
0.000404619
0.000347248
0.000305035
0.000272127
0.000245318
0.00071288
0.000556432
0.000466397
0.000402355
0.000354426
0.000317051
0.000286676
0.000728543
0.000588231
0.000496002
0.000429132
0.00037851
0.000338936
0.00030682
0.000728543
0.000588231
0.000496002
0.000429132
0.00037851
0.000338935
0.000306818
0.00071288
0.000556432
0.000466396
0.000402354
0.000354425
0.000317049
0.000286673
0.000663952
0.000488458
0.000404618
0.000347247
0.000305034
0.000272126
0.000245316
0.000528907
0.000369984
0.000305097
0.00026137
0.000228527
0.000202474
0.000181112
0.000107685
6.77183e-05
5.0631e-05
4.14158e-05
3.54048e-05
3.10366e-05
2.77136e-05
0.000160509
0.00010736
8.07408e-05
6.55975e-05
5.54895e-05
4.83024e-05
4.31308e-05
0.000663952
0.000488458
0.000404618
0.000347247
0.000305034
0.000272126
0.000245316
0.000786827
0.000662293
0.000567974
0.000495805
0.000439463
0.000394561
0.000357973
0.000809324
0.000713906
0.000631505
0.000562574
0.000505377
0.000457786
0.000417842
0.000814958
0.000730426
0.000654634
0.000589044
0.000533068
0.000485439
0.000444765
0.000814958
0.000730426
0.000654634
0.000589044
0.000533067
0.000485438
0.000444763
0.000809324
0.000713905
0.000631504
0.000562573
0.000505377
0.000457785
0.000417839
0.000786827
0.000662293
0.000567974
0.000495805
0.000439463
0.000394561
0.000357973
0.000663952
0.000488458
0.000404619
0.000347248
0.000305035
0.000272127
0.000245318
0.000160509
0.00010736
8.07408e-05
6.55975e-05
5.54896e-05
4.83025e-05
4.3131e-05
0.000198681
0.0001383
0.000105187
8.55269e-05
7.25012e-05
6.289e-05
5.60609e-05
0.00071288
0.000556432
0.000466396
0.000402354
0.000354425
0.000317049
0.000286673
0.000809324
0.000713905
0.000631504
0.000562573
0.000505377
0.000457785
0.000417839
0.000823497
0.000753987
0.000688491
0.000628748
0.000575387
0.000528266
0.000486845
0.000826292
0.000764347
0.000706102
0.000651937
0.000602231
0.000557104
0.000516428
0.000826292
0.000764347
0.000706102
0.000651937
0.00060223
0.000557104
0.000516428
0.000823497
0.000753987
0.000688491
0.000628748
0.000575387
0.000528266
0.000486845
0.000809324
0.000713906
0.000631505
0.000562574
0.000505377
0.000457786
0.000417842
0.00071288
0.000556432
0.000466397
0.000402355
0.000354426
0.000317051
0.000286676
0.000198681
0.0001383
0.000105187
8.55269e-05
7.25013e-05
6.28902e-05
5.60612e-05
0.000218609
0.000155003
0.000118661
9.65069e-05
8.18823e-05
7.08355e-05
6.30855e-05
0.000728543
0.000588231
0.000496002
0.000429132
0.00037851
0.000338935
0.000306818
0.000814958
0.000730426
0.000654634
0.000589044
0.000533067
0.000485438
0.000444763
0.000826292
0.000764347
0.000706102
0.000651937
0.00060223
0.000557103
0.000516428
0.000828382
0.0007726
0.000721138
0.00067296
0.000627782
0.00058562
0.000546547
0.000828382
0.0007726
0.000721138
0.00067296
0.000627782
0.00058562
0.000546547
0.000826292
0.000764347
0.000706102
0.000651937
0.000602231
0.000557104
0.000516428
0.000814958
0.000730426
0.000654634
0.000589044
0.000533068
0.000485439
0.000444765
0.000728543
0.000588231
0.000496002
0.000429132
0.00037851
0.000338936
0.00030682
0.000218609
0.000155003
0.000118661
9.65069e-05
8.18824e-05
7.08356e-05
6.30857e-05
0.000218609
0.000155003
0.000118661
9.65069e-05
8.18824e-05
7.08356e-05
6.30857e-05
0.000728543
0.000588231
0.000496002
0.000429132
0.00037851
0.000338936
0.00030682
0.000814958
0.000730426
0.000654634
0.000589044
0.000533068
0.000485439
0.000444765
0.000826292
0.000764347
0.000706102
0.000651937
0.000602231
0.000557104
0.000516428
0.000828382
0.0007726
0.000721138
0.00067296
0.000627782
0.00058562
0.000546547
0.000828382
0.0007726
0.000721138
0.00067296
0.000627782
0.00058562
0.000546547
0.000826292
0.000764347
0.000706102
0.000651937
0.00060223
0.000557104
0.000516428
0.000814958
0.000730426
0.000654634
0.000589044
0.000533067
0.000485438
0.000444763
0.000728543
0.000588231
0.000496002
0.000429132
0.00037851
0.000338935
0.000306818
0.000218609
0.000155003
0.000118661
9.65069e-05
8.18823e-05
7.08355e-05
6.30855e-05
0.000198681
0.0001383
0.000105187
8.55269e-05
7.25013e-05
6.28902e-05
5.60612e-05
0.00071288
0.000556432
0.000466397
0.000402355
0.000354426
0.000317051
0.000286676
0.000809324
0.000713906
0.000631505
0.000562574
0.000505377
0.000457786
0.000417842
0.000823497
0.000753987
0.000688491
0.000628748
0.000575387
0.000528266
0.000486845
0.000826292
0.000764347
0.000706102
0.000651937
0.00060223
0.000557104
0.000516428
0.000826292
0.000764347
0.000706102
0.000651937
0.000602231
0.000557104
0.000823497
0.000753987
0.000688491
0.000628748
0.000575387
0.000528266
0.000809324
0.000713905
0.000631504
0.000562573
0.000505377
0.000457785
0.00071288
0.000556432
0.000466397
0.000402354
0.000354425
0.000317049
0.000198681
0.0001383
0.000105187
8.55269e-05
7.25012e-05
6.289e-05
0.000160509
0.00010736
8.07408e-05
6.55975e-05
5.54896e-05
4.83025e-05
4.3131e-05
0.000663952
0.000488458
0.000404619
0.000347248
0.000305035
0.000272127
0.000245318
0.000786827
0.000662293
0.000567974
0.000495805
0.000439463
0.000394561
0.000357973
0.000809324
0.000713905
0.000631504
0.000562573
0.000505377
0.000457785
0.000417839
0.000814958
0.000730426
0.000654634
0.000589044
0.000533067
0.000485438
0.000444763
0.000814958
0.000730426
0.000654634
0.000589044
0.000533068
0.000485439
0.000809324
0.000713906
0.000631505
0.000562574
0.000505377
0.000457786
0.000786827
0.000662293
0.000567974
0.000495805
0.000439463
0.000394561
0.000663952
0.000488458
0.000404618
0.000347247
0.000305034
0.000272126
0.000160509
0.00010736
8.07408e-05
6.55975e-05
5.54895e-05
4.83024e-05
0.000107685
6.77183e-05
5.0631e-05
4.14158e-05
3.54048e-05
3.10366e-05
2.77136e-05
0.000528907
0.000369984
0.000305097
0.00026137
0.000228527
0.000202474
0.000181111
0.000663952
0.000488458
0.000404618
0.000347247
0.000305034
0.000272126
0.000245315
0.00071288
0.000556432
0.000466396
0.000402354
0.000354425
0.000317049
0.000286673
0.000728543
0.000588231
0.000496002
0.000429132
0.00037851
0.000338935
0.000306818
0.000728543
0.000588231
0.000496002
0.000429132
0.00037851
0.000338936
0.00071288
0.000556432
0.000466397
0.000402355
0.000354426
0.000317051
0.000663952
0.000488458
0.000404619
0.000347248
0.000305035
0.000272128
0.000528907
0.000369984
0.000305097
0.00026137
0.000228527
0.000202474
0.000107685
6.77183e-05
5.0631e-05
4.14158e-05
3.54048e-05
3.10366e-05
4.5356e-05
2.3208e-05
1.65396e-05
1.36493e-05
1.18966e-05
1.06843e-05
9.76071e-06
0.000107685
6.77183e-05
5.0631e-05
4.14158e-05
3.54048e-05
3.10366e-05
2.77136e-05
0.000160509
0.00010736
8.07408e-05
6.55975e-05
5.54895e-05
4.83024e-05
4.31308e-05
0.000198681
0.0001383
0.000105187
8.55269e-05
7.25012e-05
6.289e-05
5.60609e-05
0.000218609
0.000155003
0.000118661
9.65069e-05
8.18823e-05
7.08355e-05
6.30855e-05
0.000218609
0.000155003
0.000118661
9.65069e-05
8.18824e-05
7.08356e-05
0.000198681
0.0001383
0.000105187
8.55269e-05
7.25013e-05
6.28902e-05
0.000160509
0.00010736
8.07408e-05
6.55975e-05
5.54896e-05
4.83026e-05
0.000107685
6.77183e-05
5.06311e-05
4.14159e-05
3.54048e-05
3.10366e-05
4.5356e-05
2.3208e-05
1.65396e-05
1.36493e-05
1.18966e-05
1.06843e-05
)
;

boundaryField
{
    inlet
    {
        type            calculated;
        value           uniform 0.000851986;
    }
    ami1
    {
        type            cyclicAMI;
        value           nonuniform List<scalar> 0();
    }
    walls
    {
        type            nutkWallFunction;
        blending        stepwise;
        value           nonuniform List<scalar> 
271
(
0
9.40055e-06
1.69775e-05
2.22372e-05
2.4929e-05
2.4929e-05
2.22372e-05
1.69775e-05
9.40055e-06
0
0
3.31268e-06
9.3526e-06
1.38415e-05
1.62058e-05
1.62058e-05
1.38415e-05
9.3526e-06
3.31268e-06
0
0
5.57021e-07
5.34227e-06
9.03108e-06
1.10106e-05
1.10106e-05
9.03107e-06
5.34227e-06
5.57021e-07
0
0
0
2.97694e-06
6.07581e-06
7.73695e-06
7.73694e-06
6.07579e-06
2.97693e-06
0
0
0
0
1.35316e-06
4.06426e-06
5.51778e-06
5.51778e-06
4.06425e-06
1.35315e-06
0
0
0
0
1.71362e-07
2.54596e-06
3.80338e-06
3.80337e-06
2.54593e-06
1.71336e-07
0
0
0
0
0
1.44611e-06
2.57717e-06
2.57714e-06
0
9.40055e-06
1.69775e-05
2.22372e-05
2.4929e-05
2.4929e-05
2.22372e-05
1.69775e-05
9.40055e-06
0
0
3.31268e-06
9.3526e-06
1.38415e-05
1.62058e-05
1.62058e-05
1.38415e-05
9.3526e-06
3.31268e-06
0
0
5.57021e-07
5.34227e-06
9.03108e-06
1.10106e-05
1.10106e-05
9.03107e-06
5.34227e-06
5.57021e-07
0
0
0
2.97694e-06
6.07581e-06
7.73695e-06
7.73694e-06
6.07579e-06
2.97693e-06
0
0
0
0
1.35316e-06
4.06426e-06
5.51778e-06
5.51778e-06
4.06425e-06
1.35315e-06
0
0
0
0
1.71362e-07
2.54596e-06
3.80338e-06
3.80337e-06
2.54593e-06
1.71335e-07
0
0
0
0
0
1.44611e-06
2.57716e-06
2.57714e-06
1.44605e-06
0
0
0
0
9.40055e-06
1.69775e-05
2.22372e-05
2.4929e-05
2.4929e-05
2.22372e-05
1.69775e-05
9.40055e-06
0
0
3.31268e-06
9.3526e-06
1.38415e-05
1.62058e-05
1.62058e-05
1.38415e-05
9.3526e-06
3.31268e-06
0
0
5.5702e-07
5.34227e-06
9.03107e-06
1.10106e-05
1.10106e-05
9.03108e-06
5.34227e-06
5.57021e-07
0
0
0
2.97693e-06
6.07579e-06
7.73694e-06
7.73694e-06
6.07581e-06
2.97694e-06
0
0
0
0
1.35315e-06
4.06425e-06
5.51778e-06
5.51778e-06
4.06426e-06
1.35316e-06
0
0
0
0
1.71335e-07
2.54593e-06
3.80337e-06
3.80338e-06
2.54596e-06
1.71362e-07
0
0
0
0
0
1.44605e-06
2.57713e-06
2.57716e-06
1.44611e-06
0
0
0
0
9.40055e-06
1.69775e-05
2.22372e-05
2.4929e-05
2.4929e-05
2.22372e-05
1.69775e-05
9.40055e-06
0
0
3.31268e-06
9.3526e-06
1.38415e-05
1.62058e-05
1.62058e-05
1.38415e-05
9.3526e-06
3.31268e-06
0
0
5.5702e-07
5.34227e-06
9.03107e-06
1.10106e-05
1.10106e-05
9.03108e-06
5.34227e-06
5.57021e-07
0
0
0
2.97693e-06
6.07579e-06
7.73694e-06
7.73695e-06
6.07581e-06
2.97694e-06
0
0
0
0
1.35315e-06
4.06425e-06
5.51778e-06
5.51778e-06
4.06426e-06
1.35316e-06
0
0
0
0
1.71335e-07
2.54593e-06
3.80337e-06
3.80338e-06
2.54596e-06
1.71363e-07
0
0
0
0
0
1.44605e-06
2.57714e-06
)
;
    }
    ami2
    {
        type            cyclicAMI;
        value           nonuniform List<scalar> 0();
    }
    outlet
    {
        type            calculated;
        value           nonuniform List<scalar> 0();
    }
    procBoundary4to3
    {
        type            processor;
        value           nonuniform List<scalar> 
109
(
9.05703e-06
2.50815e-05
3.90792e-05
5.07595e-05
5.71437e-05
5.71434e-05
5.07589e-05
3.90787e-05
2.50814e-05
9.05703e-06
2.50814e-05
0.00016307
0.00022289
0.000261259
0.000279976
0.000279972
0.000261251
0.000222884
0.00016307
2.50815e-05
3.90787e-05
0.000222884
0.000327449
0.000383941
0.000409795
0.000409793
0.000383937
0.000327449
0.00022289
3.90792e-05
5.07589e-05
0.000261251
0.000383937
0.000450441
0.000479913
0.000479912
0.000450441
0.000383941
0.000261259
5.07595e-05
5.71434e-05
0.000279972
0.000409793
0.000479912
0.000510579
0.000510579
0.000479913
0.000409795
0.000279976
5.71437e-05
5.71437e-05
0.000279976
0.000409795
0.000479913
0.000510579
0.000510579
0.000516428
0.000479912
0.000486845
0.000409793
0.000417839
0.000279972
0.000286672
5.71434e-05
5.60609e-05
5.07595e-05
0.000261259
0.000383941
0.000450441
0.000479912
0.000516428
0.000516428
0.000486845
0.000417839
0.000286672
5.60609e-05
3.90792e-05
0.00022289
0.000327449
0.000383937
0.000409793
0.000444765
0.000444765
0.000417842
0.000357973
0.000245315
4.31308e-05
2.50815e-05
0.00016307
0.000222884
0.000261251
0.000279972
0.00030682
0.00030682
0.000286677
0.000245319
0.000181112
2.77136e-05
9.05703e-06
2.50814e-05
3.90787e-05
5.07589e-05
5.71434e-05
6.30857e-05
6.30857e-05
5.60612e-05
4.3131e-05
2.77136e-05
9.76071e-06
)
;
    }
}


// ************************************************************************* //
