/*--------------------------------*- C++ -*----------------------------------*\
| =========                 |                                                 |
| \\      /  F ield         | OpenFOAM: The Open Source CFD Toolbox           |
|  \\    /   O peration     | Version:  2212                                  |
|   \\  /    A nd           | Website:  www.openfoam.com                      |
|    \\/     M anipulation  |                                                 |
\*---------------------------------------------------------------------------*/
FoamFile
{
    version     2.0;
    format      ascii;
    arch        "LSB;label=32;scalar=64";
    class       surfaceVectorField;
    location    "2.9";
    object      Uf;
}
// * * * * * * * * * * * * * * * * * * * * * * * * * * * * * * * * * * * * * //

dimensions      [0 1 -1 0 0 0 0];

internalField   nonuniform List<vector> 
1800
(
(0.0993441 -0.00341899 -0.00341903)
(0.0973536 0.00106248 -0.00148428)
(0.0973536 -0.00148427 0.00106247)
(0.0834791 0.00197595 0.00197584)
(0.0930872 0.00326905 0.00253344)
(0.0930872 0.00253352 0.00326894)
(0.074517 0.00195887 0.00195863)
(0.084864 0.00163595 0.0017923)
(0.0848639 0.00179245 0.00163576)
(0.0685475 0.00115934 0.00115886)
(0.078628 0.00107371 0.00122126)
(0.0786279 0.00122159 0.00107336)
(0.0642357 0.000697472 0.000696639)
(0.0740528 0.000785739 0.000864932)
(0.0740526 0.000865493 0.000785008)
(0.0607559 0.000495779 0.000494094)
(0.0704421 0.000651181 0.00066901)
(0.0704418 0.000669967 0.000650004)
(0.067491 0.000548005 0.000507963)
(0.0674905 0.000509914 0.000545595)
(0.0984572 0.00247649 0.00172987)
(0.0996871 0.00043925 0.00034548)
(0.100049 0.00105639 0.000750962)
(0.0958348 0.00314817 0.00243261)
(0.0978161 0.00273289 0.00228225)
(0.0982936 0.00280929 0.00216142)
(0.0914499 0.00223054 0.0018692)
(0.095496 0.00300187 0.00230302)
(0.0963039 0.00244278 0.00199772)
(0.087595 0.00167504 0.00150532)
(0.0926191 0.00229965 0.00183862)
(0.0936666 0.00198098 0.00172685)
(0.0841472 0.00144077 0.00127539)
(0.0897673 0.00189242 0.00153545)
(0.0909043 0.00172015 0.00149765)
(0.0811872 0.00126658 0.00102831)
(0.0872322 0.00165734 0.00129432)
(0.0884338 0.00145519 0.00121136)
(0.0850069 0.00149342 0.00107666)
(0.0863038 0.00118452 0.000908078)
(0.0993753 0.0011822 0.00107254)
(0.099473 0.000349775 0.000307058)
(0.0997475 0.000611006 0.00077987)
(0.0984948 0.00229624 0.00203184)
(0.0990504 0.00157689 0.00172044)
(0.0995971 0.00201841 0.00200282)
(0.0971414 0.00247678 0.00204846)
(0.0983578 0.00213129 0.00216877)
(0.0992973 0.00246173 0.00210227)
(0.0954397 0.00224748 0.00176715)
(0.0971935 0.00203611 0.00200224)
(0.0984883 0.00237484 0.00190238)
(0.0937512 0.00202125 0.00152204)
(0.0959057 0.00185612 0.00175409)
(0.0974224 0.00218145 0.00168832)
(0.092139 0.00186546 0.00134391)
(0.0946729 0.00173345 0.00154218)
(0.0963099 0.00198564 0.00150766)
(0.0934839 0.00165388 0.0013857)
(0.0952051 0.0018031 0.00134168)
(0.0996493 0.000650323 0.000931411)
(0.0994625 0.000129377 0.000192505)
(0.0997993 0.00037514 0.000741358)
(0.0990855 0.00127897 0.00182765)
(0.0992626 0.00063688 0.00137061)
(0.0998409 0.00115043 0.0018142)
(0.0984494 0.00154086 0.00210293)
(0.098913 0.000973414 0.0020035)
(0.0999049 0.00153659 0.00209006)
(0.0977082 0.00154703 0.00198869)
(0.0982953 0.00105002 0.0020505)
(0.0997676 0.00163184 0.00202279)
(0.0969405 0.00148034 0.00177571)
(0.0976581 0.00100741 0.00189938)
(0.0995101 0.0016098 0.00189524)
(0.0962098 0.00142766 0.00158151)
(0.0970661 0.000959848 0.00169791)
(0.0992008 0.00154793 0.00175101)
(0.0965082 0.000932727 0.00152012)
(0.0988568 0.0014752 0.00162483)
(0.0996725 0.000154037 0.00062949)
(0.0993802 -1.4518e-08 5.89827e-05)
(0.0997132 0.000103913 0.000687948)
(0.0991592 0.000353253 0.00154422)
(0.0992678 -7.02272e-08 0.00120004)
(0.0998377 0.000341602 0.00162229)
(0.0986639 0.000457658 0.00194737)
(0.0989805 -1.68976e-07 0.00188844)
(0.0999632 0.000485388 0.00199136)
(0.0982128 0.000480668 0.00196033)
(0.0984749 -3.10072e-07 0.00200634)
(0.0999922 0.000539461 0.0019965)
(0.0977775 0.000471269 0.00182428)
(0.0979961 -5.41261e-07 0.00191444)
(0.10001 0.00054606 0.00191066)
(0.0973649 0.000457471 0.00164033)
(0.0975719 -9.61138e-07 0.00173437)
(0.100009 0.000532828 0.00180357)
(0.0971828 -1.72218e-06 0.00154671)
(0.0999835 0.000510268 0.00168175)
(0.0996725 -0.000154124 0.000629528)
(0.0994625 -0.000129407 0.000192529)
(0.0997132 -0.00010395 0.000687951)
(0.0991591 -0.000353485 0.00154425)
(0.0992625 -0.000636994 0.00137062)
(0.0998377 -0.000341747 0.0016223)
(0.0986638 -0.000458101 0.00194741)
(0.0989129 -0.000973628 0.00200356)
(0.0999631 -0.000485677 0.00199135)
(0.0982125 -0.000481453 0.00196044)
(0.098295 -0.00105039 0.00205063)
(0.099992 -0.000539979 0.00199654)
(0.0977768 -0.000472676 0.00182453)
(0.0976573 -0.00100813 0.00189961)
(0.100009 -0.000547008 0.00191085)
(0.0973637 -0.000460026 0.00164076)
(0.0970645 -0.000961238 0.00169832)
(0.100008 -0.000534544 0.00180397)
(0.0965054 -0.000935309 0.00152066)
(0.099982 -0.00051327 0.00168235)
(0.0996493 -0.00065035 0.00093141)
(0.099473 -0.000349767 0.000307061)
(0.0997993 -0.000375143 0.000741357)
(0.0990854 -0.00127903 0.0018277)
(0.0990504 -0.00157686 0.00172048)
(0.0998409 -0.00115045 0.0018142)
(0.0984491 -0.00154099 0.00210307)
(0.0983576 -0.00213122 0.00216894)
(0.0999046 -0.00153664 0.00209015)
(0.0977074 -0.00154733 0.00198894)
(0.097193 -0.002036 0.00200253)
(0.0997671 -0.00163196 0.00202308)
(0.0969389 -0.00148104 0.00177609)
(0.0959046 -0.00185606 0.00175452)
(0.099509 -0.0016101 0.0018958)
(0.0962067 -0.00142903 0.001582)
(0.0946707 -0.00173353 0.00154283)
(0.0991987 -0.00154856 0.00175185)
(0.09348 -0.00165419 0.00138666)
(0.0988533 -0.00147641 0.00162603)
(0.0993753 -0.00118214 0.00107258)
(0.0996871 -0.000439226 0.00034549)
(0.0997475 -0.000610978 0.000779891)
(0.0984947 -0.0022961 0.00203199)
(0.0978161 -0.00273276 0.00228232)
(0.099597 -0.00201831 0.00200294)
(0.097141 -0.00247653 0.00204876)
(0.0954958 -0.00300166 0.00230322)
(0.0992971 -0.00246153 0.00210258)
(0.0954389 -0.00224706 0.00176761)
(0.0926188 -0.00229928 0.00183899)
(0.0984879 -0.00237447 0.00190289)
(0.0937495 -0.0020206 0.00152271)
(0.0897665 -0.00189173 0.00153597)
(0.0974215 -0.00218085 0.00168909)
(0.092136 -0.00186447 0.00134495)
(0.0872308 -0.0016562 0.00129515)
(0.0963081 -0.00198464 0.00150875)
(0.0850044 -0.0014915 0.00107804)
(0.0952019 -0.00180159 0.00134341)
(0.0984572 -0.00247642 0.00172992)
(0.0973536 -0.00106247 -0.00148427)
(0.100049 -0.00105637 0.000750985)
(0.0958347 -0.003148 0.00243275)
(0.0930872 -0.00326894 0.00253352)
(0.0982936 -0.00280916 0.00216155)
(0.0914498 -0.00223025 0.00186948)
(0.0848639 -0.00163575 0.00179245)
(0.0963038 -0.00244252 0.00199797)
(0.0875947 -0.00167446 0.00150576)
(0.0786279 -0.00107335 0.00122159)
(0.0936665 -0.00198052 0.00172731)
(0.0841467 -0.00143978 0.00127614)
(0.0740526 -0.000784997 0.0008655)
(0.090904 -0.00171934 0.00149837)
(0.0811861 -0.00126488 0.00102958)
(0.0704418 -0.000649991 0.000669974)
(0.0884334 -0.00145384 0.00121268)
(0.0674905 -0.000545579 0.000509923)
(0.0863031 -0.00118221 0.000910251)
(0.0993441 0.00341903 -0.00341899)
(0.0973536 0.00148428 0.00106248)
(0.0834791 -0.00197584 0.00197595)
(0.0930872 -0.00253344 0.00326905)
(0.0745171 -0.00195863 0.00195887)
(0.084864 -0.0017923 0.00163595)
(0.0685476 -0.00115886 0.00115935)
(0.078628 -0.00122126 0.00107372)
(0.0642357 -0.00069663 0.00069748)
(0.0740528 -0.000864927 0.000785747)
(0.060756 -0.000494081 0.00049579)
(0.0704421 -0.000669003 0.00065119)
(0.0674911 -0.000507953 0.000548018)
(0.0984572 0.00172992 0.00247642)
(0.100049 0.000750985 0.00105637)
(0.0996871 0.00034549 0.000439227)
(0.0958347 0.00243274 0.003148)
(0.0982936 0.00216155 0.00280917)
(0.0978161 0.00228232 0.00273276)
(0.0914498 0.00186948 0.00223026)
(0.0963038 0.00199796 0.00244253)
(0.0954958 0.00230322 0.00300167)
(0.0875947 0.00150576 0.00167448)
(0.0936665 0.00172731 0.00198053)
(0.0926188 0.00183899 0.00229929)
(0.0841467 0.00127613 0.0014398)
(0.090904 0.00149837 0.00171935)
(0.0897665 0.00153597 0.00189175)
(0.0811861 0.00102957 0.0012649)
(0.0884334 0.00121267 0.00145386)
(0.0872308 0.00129515 0.00165622)
(0.0863031 0.000910242 0.00118223)
(0.0850043 0.00107804 0.00149152)
(0.10008 0.00135183 0.00135175)
(0.100186 0.000798791 0.00080494)
(0.100186 0.000804974 0.000798756)
(0.100264 0.00221744 0.00221722)
(0.10019 0.00231197 0.00207142)
(0.100189 0.00207158 0.00231183)
(0.0993826 0.00243605 0.0024356)
(0.100306 0.00263393 0.00245294)
(0.100306 0.00245332 0.00263365)
(0.0979836 0.00231073 0.00231001)
(0.0998048 0.00256082 0.00245573)
(0.0998046 0.00245637 0.00256031)
(0.0964942 0.00200694 0.0020057)
(0.0988624 0.0023651 0.00228059)
(0.0988621 0.00228156 0.00236429)
(0.0950714 0.00159818 0.00159609)
(0.0978403 0.00205018 0.00196746)
(0.0978396 0.00196896 0.00204873)
(0.0968604 0.00169311 0.00160364)
(0.0968593 0.00160604 0.00169074)
(0.100171 0.00136877 0.00141637)
(0.100118 0.000577449 0.000811292)
(0.100102 0.00069981 0.000700673)
(0.100759 0.00219511 0.00214892)
(0.100478 0.00158299 0.0018587)
(0.100477 0.0018227 0.00186459)
(0.100996 0.00247733 0.00238765)
(0.101004 0.00205901 0.00224236)
(0.101024 0.00234709 0.00238281)
(0.100838 0.00247688 0.00238862)
(0.101292 0.00220391 0.00235172)
(0.101337 0.00250651 0.00254347)
(0.100457 0.00231263 0.00222404)
(0.101309 0.00216804 0.00232142)
(0.101408 0.00245138 0.00247189)
(0.0999672 0.00205832 0.00196699)
(0.101156 0.00201191 0.00217768)
(0.101301 0.00226592 0.00226979)
(0.100927 0.00179542 0.00196681)
(0.101097 0.00201115 0.00199759)
(0.100242 0.000820243 0.0012561)
(0.10009 0.000294351 0.000735345)
(0.100071 0.000415715 0.00060276)
(0.100828 0.00139072 0.00193925)
(0.100491 0.000792036 0.00168399)
(0.100493 0.00112454 0.00158694)
(0.101392 0.00166373 0.00218198)
(0.101086 0.00107782 0.00208331)
(0.101128 0.00154106 0.00209396)
(0.101816 0.00176151 0.00226055)
(0.101664 0.00120446 0.00217873)
(0.101768 0.00173307 0.00229385)
(0.102081 0.00175592 0.00226095)
(0.102121 0.0012399 0.0022213)
(0.102291 0.00179046 0.00236652)
(0.102216 0.00166901 0.0021751)
(0.102452 0.00120214 0.00220895)
(0.102711 0.00174472 0.00232074)
(0.102681 0.00111872 0.00212454)
(0.103037 0.00162751 0.00220022)
(0.100243 0.000267418 0.0011624)
(0.100087 -2.65878e-08 0.000707019)
(0.100064 0.000135819 0.000537326)
(0.100782 0.000465757 0.00182621)
(0.100477 -7.69851e-08 0.00161778)
(0.100463 0.000370918 0.00142411)
(0.101401 0.000575542 0.0020761)
(0.101066 -1.3391e-07 0.00203464)
(0.101089 0.000525225 0.00193353)
(0.101988 0.000622887 0.00213371)
(0.101694 -2.53517e-07 0.00211759)
(0.101798 0.000605958 0.00212848)
(0.102507 0.000631013 0.00216456)
(0.102269 -4.83619e-07 0.00215003)
(0.10249 0.000639386 0.00221069)
(0.102936 0.000610089 0.00215627)
(0.102742 -8.61073e-07 0.00217952)
(0.10312 0.000634242 0.00224106)
(0.103124 -1.43157e-06 0.00213373)
(0.103688 0.000600984 0.00219599)
(0.100243 -0.000267516 0.00116241)
(0.10009 -0.00029438 0.000735355)
(0.100064 -0.000135859 0.00053734)
(0.100782 -0.000465959 0.00182621)
(0.100491 -0.000792115 0.00168401)
(0.100463 -0.000371033 0.00142415)
(0.101401 -0.000575903 0.00207613)
(0.101086 -0.00107796 0.00208338)
(0.101089 -0.000525428 0.00193359)
(0.101987 -0.000623566 0.0021339)
(0.101664 -0.00120473 0.00217902)
(0.101797 -0.00060632 0.00212862)
(0.102507 -0.000632266 0.00216499)
(0.102121 -0.00124042 0.00222195)
(0.102489 -0.000640061 0.00221103)
(0.102934 -0.000612237 0.00215698)
(0.10245 -0.00120307 0.00220996)
(0.103119 -0.000635432 0.00224166)
(0.102678 -0.00112032 0.00212608)
(0.103686 -0.000602992 0.00219696)
(0.100242 -0.000820243 0.00125613)
(0.100118 -0.000577424 0.000811318)
(0.100071 -0.000415705 0.000602794)
(0.100828 -0.00139073 0.00193934)
(0.100478 -0.00158293 0.00185882)
(0.100492 -0.00112451 0.00158704)
(0.101392 -0.00166377 0.00218231)
(0.101004 -0.0020589 0.00224266)
(0.101128 -0.00154102 0.00209419)
(0.101815 -0.00176163 0.00226129)
(0.101292 -0.00220372 0.00235235)
(0.101767 -0.00173303 0.00229439)
(0.102079 -0.00175614 0.00226216)
(0.101308 -0.00216772 0.00232245)
(0.10229 -0.00179041 0.00236749)
(0.102213 -0.00166943 0.00217692)
(0.101155 -0.00201138 0.00217912)
(0.10271 -0.00174463 0.00232224)
(0.100924 -0.0017947 0.00196903)
(0.103035 -0.00162744 0.00220255)
(0.100171 -0.0013687 0.00141648)
(0.100186 -0.000798755 0.000804974)
(0.100102 -0.000699764 0.000700725)
(0.100758 -0.00219496 0.00214923)
(0.100189 -0.00231182 0.00207158)
(0.100477 -0.00182255 0.00186479)
(0.100996 -0.00247702 0.00238824)
(0.100306 -0.00263365 0.00245332)
(0.101024 -0.00234682 0.00238323)
(0.100837 -0.00247632 0.00238954)
(0.0998046 -0.0025603 0.00245638)
(0.101337 -0.00250599 0.00254418)
(0.100456 -0.00231167 0.00222531)
(0.0988621 -0.00236427 0.00228156)
(0.101408 -0.00245053 0.00247295)
(0.0999654 -0.00205676 0.00196885)
(0.0978397 -0.00204872 0.00196897)
(0.1013 -0.00226452 0.00227133)
(0.0968593 -0.00169072 0.00160605)
(0.101096 -0.00200891 0.0020001)
(0.10008 -0.00135174 0.00135183)
(0.100049 -0.000750962 0.00105639)
(0.100186 -0.000804939 0.000798791)
(0.100264 -0.00221721 0.00221744)
(0.0982936 -0.00216142 0.00280929)
(0.10019 -0.00207142 0.00231197)
(0.0993826 -0.0024356 0.00243605)
(0.0963039 -0.00199771 0.00244279)
(0.100306 -0.00245294 0.00263393)
(0.0979836 -0.00231 0.00231073)
(0.0936666 -0.00172684 0.00198098)
(0.0998048 -0.00245573 0.00256082)
(0.0964943 -0.00200569 0.00200694)
(0.0909043 -0.00149764 0.00172015)
(0.0988624 -0.00228058 0.0023651)
(0.0950714 -0.00159608 0.00159818)
(0.0884339 -0.00121136 0.0014552)
(0.0978403 -0.00196745 0.00205018)
(0.0863039 -0.000908066 0.00118453)
(0.0968604 -0.00160362 0.00169311)
(0.0984572 -0.00172987 0.00247649)
(0.0996871 -0.00034548 0.00043925)
(0.0958348 -0.00243261 0.00314818)
(0.0978161 -0.00228225 0.00273289)
(0.0914499 -0.0018692 0.00223055)
(0.095496 -0.00230302 0.00300187)
(0.087595 -0.00150531 0.00167504)
(0.0926191 -0.00183862 0.00229965)
(0.0841473 -0.00127539 0.00144078)
(0.0897673 -0.00153544 0.00189242)
(0.0811872 -0.0010283 0.00126659)
(0.0872322 -0.00129431 0.00165734)
(0.0850069 -0.00107666 0.00149343)
(0.0993753 0.00107258 0.00118215)
(0.0997475 0.00077989 0.000610979)
(0.099473 0.000307061 0.000349767)
(0.0984947 0.00203199 0.00229611)
(0.099597 0.00200294 0.00201831)
(0.0990504 0.00172047 0.00157687)
(0.097141 0.00204876 0.00247654)
(0.0992971 0.00210257 0.00246154)
(0.0983576 0.00216894 0.00213123)
(0.0954388 0.00176761 0.00224708)
(0.0984878 0.00190289 0.00237448)
(0.097193 0.00200253 0.00203602)
(0.0937495 0.00152271 0.00202062)
(0.0974215 0.00168909 0.00218087)
(0.0959046 0.00175452 0.00185608)
(0.092136 0.00134495 0.0018645)
(0.0963081 0.00150875 0.00198466)
(0.0946707 0.00154283 0.00173356)
(0.0952019 0.0013434 0.00180162)
(0.0934799 0.00138666 0.00165423)
(0.100171 0.00141648 0.00136871)
(0.100102 0.000700725 0.000699765)
(0.100118 0.000811318 0.000577425)
(0.100758 0.00214923 0.00219496)
(0.100477 0.00186479 0.00182256)
(0.100478 0.00185882 0.00158293)
(0.100996 0.00238824 0.00247703)
(0.101024 0.00238323 0.00234682)
(0.101004 0.00224266 0.00205891)
(0.100837 0.00238954 0.00247634)
(0.101337 0.00254418 0.002506)
(0.101292 0.00235235 0.00220373)
(0.100456 0.00222531 0.00231168)
(0.101408 0.00247295 0.00245054)
(0.101308 0.00232245 0.00216774)
(0.0999654 0.00196885 0.00205678)
(0.1013 0.00227133 0.00226454)
(0.101155 0.00217913 0.0020114)
(0.101096 0.0020001 0.00200893)
(0.100924 0.00196903 0.00179473)
(0.100222 0.00114333 0.00114321)
(0.100053 0.000517258 0.000591846)
(0.100053 0.0005919 0.000517212)
(0.100843 0.00192898 0.00192871)
(0.100491 0.00134951 0.00151826)
(0.100491 0.00151843 0.00134937)
(0.101463 0.00232666 0.00232616)
(0.101151 0.00186523 0.00207362)
(0.101151 0.00207395 0.00186498)
(0.101979 0.00244171 0.00244088)
(0.101822 0.00210716 0.00232306)
(0.101822 0.00232366 0.00210674)
(0.102353 0.00237884 0.00237754)
(0.102411 0.00214876 0.00237351)
(0.102411 0.0023745 0.00214806)
(0.102579 0.00220477 0.00220267)
(0.102888 0.00206679 0.00229945)
(0.102887 0.00230102 0.0020657)
(0.103248 0.00189277 0.00213935)
(0.103247 0.00214188 0.00189098)
(0.100228 0.000720361 0.000962152)
(0.100042 0.000263725 0.000509887)
(0.100041 0.000359937 0.000426861)
(0.10082 0.00126026 0.00165348)
(0.100464 0.000697445 0.00131029)
(0.100455 0.000958873 0.00112625)
(0.101546 0.00159056 0.00205766)
(0.101134 0.000993643 0.00183584)
(0.101118 0.00137199 0.00159995)
(0.102277 0.00174308 0.0022431)
(0.101911 0.00116052 0.00211094)
(0.101902 0.00160826 0.00186144)
(0.102971 0.00176314 0.00228578)
(0.10268 0.0012226 0.00222423)
(0.102692 0.00170425 0.00197548)
(0.103601 0.00169061 0.00223132)
(0.103414 0.00120426 0.00223289)
(0.103454 0.00169689 0.00198014)
(0.104093 0.00113238 0.0021693)
(0.104162 0.00162201 0.00191491)
(0.100215 0.000240916 0.000856768)
(0.100039 -1.72163e-08 0.000478777)
(0.100035 0.000119324 0.000373898)
(0.100779 0.00042779 0.00149061)
(0.100448 -4.15304e-08 0.0012348)
(0.100423 0.000322373 0.00100018)
(0.101525 0.000551137 0.00188659)
(0.101114 -7.50481e-08 0.0017465)
(0.10107 0.0004705 0.00144528)
(0.102324 0.000617882 0.00208933)
(0.101909 -1.38171e-07 0.00202684)
(0.101877 0.000562696 0.00170585)
(0.10313 0.000638395 0.00216902)
(0.102729 -2.542e-07 0.00215212)
(0.10274 0.000608426 0.00183695)
(0.103917 0.000621322 0.00216943)
(0.103529 -4.24844e-07 0.00218645)
(0.103607 0.000615865 0.00188329)
(0.104298 -7.11908e-07 0.00215326)
(0.104454 0.000594048 0.00186503)
(0.100215 -0.000240971 0.000856807)
(0.100042 -0.000263732 0.000509922)
(0.100035 -0.000119337 0.000373917)
(0.100779 -0.000427903 0.00149069)
(0.100464 -0.000697458 0.0013104)
(0.100422 -0.000322405 0.00100024)
(0.101525 -0.000551334 0.00188675)
(0.101134 -0.000993669 0.00183606)
(0.10107 -0.000470558 0.0014454)
(0.102323 -0.000618225 0.00208964)
(0.101911 -0.00116058 0.00211133)
(0.101877 -0.000562797 0.00170606)
(0.103129 -0.000638979 0.00216955)
(0.102679 -0.00122267 0.00222492)
(0.102739 -0.000608608 0.00183736)
(0.103916 -0.000622325 0.00217028)
(0.103413 -0.00120436 0.00223401)
(0.103607 -0.000616171 0.00188394)
(0.104092 -0.00113259 0.00217103)
(0.104453 -0.000594597 0.00186597)
(0.100228 -0.000720317 0.000962256)
(0.100053 -0.000517211 0.000591899)
(0.100041 -0.000359905 0.000426912)
(0.10082 -0.00126017 0.00165372)
(0.100491 -0.00134937 0.00151843)
(0.100455 -0.000958778 0.00112639)
(0.101546 -0.00159042 0.00205809)
(0.101151 -0.00186497 0.00207395)
(0.101118 -0.00137182 0.00160023)
(0.102276 -0.00174286 0.00224386)
(0.101822 -0.00210673 0.00232365)
(0.101902 -0.001608 0.00186194)
(0.10297 -0.00176276 0.00228703)
(0.102411 -0.00214804 0.00237449)
(0.102692 -0.00170379 0.00197631)
(0.1036 -0.00168997 0.0022333)
(0.102887 -0.00206568 0.00230101)
(0.103454 -0.00169616 0.00198146)
(0.103247 -0.00189096 0.00214187)
(0.104161 -0.00162089 0.00191691)
(0.100222 -0.00114321 0.00114333)
(0.100102 -0.000700672 0.00069981)
(0.100053 -0.000591844 0.000517258)
(0.100843 -0.0019287 0.00192898)
(0.100477 -0.00186459 0.0018227)
(0.100491 -0.00151826 0.0013495)
(0.101463 -0.00232615 0.00232666)
(0.101024 -0.0023828 0.00234709)
(0.101151 -0.00207361 0.00186523)
(0.101979 -0.00244087 0.0024417)
(0.101337 -0.00254346 0.00250651)
(0.101822 -0.00232305 0.00210716)
(0.102353 -0.00237752 0.00237883)
(0.101408 -0.00247188 0.00245138)
(0.102411 -0.0023735 0.00214875)
(0.102579 -0.00220265 0.00220477)
(0.101301 -0.00226978 0.00226591)
(0.102888 -0.00229943 0.00206678)
(0.101097 -0.00199757 0.00201114)
(0.103248 -0.00213933 0.00189276)
(0.100171 -0.00141636 0.00136877)
(0.0997475 -0.000779869 0.000611006)
(0.100118 -0.000811291 0.000577449)
(0.100759 -0.00214891 0.00219511)
(0.0995971 -0.00200282 0.00201841)
(0.100478 -0.0018587 0.00158299)
(0.100996 -0.00238764 0.00247733)
(0.0992973 -0.00210227 0.00246173)
(0.101004 -0.00224236 0.00205901)
(0.100838 -0.00238862 0.00247688)
(0.0984883 -0.00190237 0.00237484)
(0.101292 -0.00235172 0.00220391)
(0.100457 -0.00222403 0.00231262)
(0.0974224 -0.00168831 0.00218145)
(0.101309 -0.00232141 0.00216804)
(0.0999672 -0.00196698 0.00205831)
(0.0963099 -0.00150766 0.00198564)
(0.101156 -0.00217767 0.00201191)
(0.0952051 -0.00134166 0.00180309)
(0.100927 -0.00196679 0.00179541)
(0.0993753 -0.00107254 0.0011822)
(0.099473 -0.000307058 0.000349775)
(0.0984948 -0.00203183 0.00229624)
(0.0990504 -0.00172044 0.00157689)
(0.0971414 -0.00204845 0.00247679)
(0.0983578 -0.00216877 0.00213129)
(0.0954397 -0.00176714 0.00224748)
(0.0971935 -0.00200224 0.00203611)
(0.0937512 -0.00152204 0.00202125)
(0.0959057 -0.00175408 0.00185611)
(0.092139 -0.00134391 0.00186546)
(0.0946729 -0.00154218 0.00173345)
(0.0934839 -0.0013857 0.00165388)
(0.0996493 0.00093141 0.000650354)
(0.0997993 0.000741357 0.000375144)
(0.0994625 0.000192528 0.000129408)
(0.0990854 0.0018277 0.00127904)
(0.0998409 0.0018142 0.00115046)
(0.0992625 0.00137063 0.000637)
(0.0984491 0.00210308 0.00154101)
(0.0999046 0.00209015 0.00153665)
(0.0989129 0.00200356 0.000973641)
(0.0977073 0.00198894 0.00154735)
(0.0997671 0.00202308 0.00163197)
(0.098295 0.00205063 0.00105041)
(0.0969388 0.00177609 0.00148107)
(0.099509 0.0018958 0.00161012)
(0.0976573 0.00189962 0.00100815)
(0.0962067 0.00158201 0.00142906)
(0.0991987 0.00175185 0.00154858)
(0.0970645 0.00169833 0.000961271)
(0.0988532 0.00162603 0.00147644)
(0.0965053 0.00152066 0.000935351)
(0.100242 0.00125613 0.000820247)
(0.100071 0.000602795 0.000415707)
(0.10009 0.000735355 0.000294382)
(0.100828 0.00193934 0.00139073)
(0.100492 0.00158704 0.00112452)
(0.100491 0.00168401 0.000792122)
(0.101392 0.00218231 0.00166378)
(0.101128 0.00209419 0.00154103)
(0.101086 0.00208338 0.00107797)
(0.101815 0.0022613 0.00176165)
(0.101767 0.00229439 0.00173305)
(0.101664 0.00217902 0.00120475)
(0.102079 0.00226217 0.00175616)
(0.10229 0.0023675 0.00179043)
(0.102121 0.00222195 0.00124044)
(0.102213 0.00217692 0.00166946)
(0.10271 0.00232225 0.00174466)
(0.10245 0.00220997 0.0012031)
(0.103035 0.00220256 0.00162747)
(0.102678 0.00212609 0.00112035)
(0.100228 0.000962257 0.000720321)
(0.100041 0.000426913 0.000359907)
(0.100042 0.000509923 0.000263735)
(0.10082 0.00165372 0.00126018)
(0.100455 0.00112639 0.000958785)
(0.100464 0.0013104 0.000697465)
(0.101546 0.00205809 0.00159043)
(0.101118 0.00160023 0.00137183)
(0.101134 0.00183606 0.00099368)
(0.102276 0.00224386 0.00174288)
(0.101902 0.00186194 0.00160801)
(0.101911 0.00211133 0.00116059)
(0.10297 0.00228704 0.00176278)
(0.102692 0.00197632 0.00170381)
(0.102679 0.00222493 0.00122269)
(0.1036 0.00223331 0.00169)
(0.103454 0.00198147 0.00169619)
(0.103413 0.00223402 0.00120439)
(0.104161 0.00191692 0.00162092)
(0.104092 0.00217105 0.00113263)
(0.10021 0.000595987 0.000595907)
(0.100034 0.00021594 0.000302532)
(0.100034 0.000302563 0.000215918)
(0.100751 0.0010657 0.00106553)
(0.100412 0.000582178 0.000819257)
(0.100412 0.000819348 0.000582111)
(0.101493 0.00138366 0.00138336)
(0.101053 0.000852221 0.00119856)
(0.101053 0.00119874 0.000852095)
(0.102327 0.00156342 0.00156292)
(0.101868 0.00102143 0.00143768)
(0.101868 0.00143798 0.00102122)
(0.103188 0.00163285 0.00163206)
(0.102754 0.00110668 0.00156229)
(0.102753 0.00156279 0.00110634)
(0.104034 0.00162474 0.00162353)
(0.103652 0.00112572 0.00159902)
(0.103652 0.00159979 0.00112518)
(0.104531 0.0011018 0.00157718)
(0.10453 0.00157831 0.00110097)
(0.100192 0.000200091 0.000525006)
(0.100031 -1.48259e-10 0.000281391)
(0.100039 9.04613e-05 0.000188701)
(0.100705 0.000363624 0.000950846)
(0.100395 5.25357e-09 0.000768658)
(0.10038 0.000272347 0.000512506)
(0.10144 0.000480257 0.00125112)
(0.101024 1.12798e-08 0.00113312)
(0.100993 0.000410581 0.000763508)
(0.102302 0.000551454 0.00143528)
(0.101844 1.9083e-08 0.00136929)
(0.101808 0.000502487 0.00092937)
(0.103222 0.000584304 0.00152776)
(0.102751 3.16812e-08 0.00150157)
(0.102727 0.000554682 0.00102339)
(0.104155 0.00058743 0.00155163)
(0.103689 5.11268e-08 0.00155442)
(0.10369 0.000574668 0.00106194)
(0.104618 7.14911e-08 0.0015495)
(0.104654 0.000571153 0.00106036)
(0.100192 -0.000200079 0.000525044)
(0.100034 -0.000215915 0.000302561)
(0.100039 -9.04521e-05 0.000188717)
(0.100705 -0.000363597 0.000950931)
(0.100412 -0.000582104 0.000819344)
(0.10038 -0.000272318 0.000512549)
(0.10144 -0.000480212 0.00125128)
(0.101053 -0.000852084 0.00119873)
(0.100993 -0.000410528 0.000763593)
(0.102302 -0.000551382 0.00143557)
(0.101868 -0.00102121 0.00143797)
(0.101808 -0.000502402 0.000929519)
(0.103222 -0.000584187 0.00152822)
(0.102753 -0.00110632 0.00156278)
(0.102727 -0.000554549 0.00102363)
(0.104155 -0.000587248 0.00155229)
(0.103652 -0.00112515 0.00159977)
(0.103689 -0.000574463 0.00106232)
(0.10453 -0.00110094 0.00157829)
(0.104654 -0.000570853 0.00106091)
(0.10021 -0.000595902 0.000595985)
(0.100041 -0.000426859 0.000359936)
(0.100034 -0.000302529 0.000215938)
(0.100751 -0.00106552 0.00106569)
(0.100455 -0.00112624 0.00095887)
(0.100412 -0.00081925 0.000582174)
(0.101493 -0.00138335 0.00138365)
(0.101118 -0.00159994 0.00137199)
(0.101053 -0.00119855 0.000852214)
(0.102327 -0.0015629 0.00156341)
(0.101902 -0.00186143 0.00160826)
(0.101868 -0.00143766 0.00102142)
(0.103188 -0.00163204 0.00163284)
(0.102692 -0.00197546 0.00170424)
(0.102754 -0.00156227 0.00110667)
(0.104034 -0.0016235 0.00162472)
(0.103454 -0.00198012 0.00169687)
(0.103652 -0.00159899 0.0011257)
(0.104162 -0.00191488 0.001622)
(0.104531 -0.00157714 0.00110178)
(0.100228 -0.000962149 0.000720359)
(0.100071 -0.000602759 0.000415714)
(0.100042 -0.000509885 0.000263724)
(0.10082 -0.00165348 0.00126026)
(0.100493 -0.00158693 0.00112454)
(0.100464 -0.00131028 0.000697442)
(0.101546 -0.00205765 0.00159055)
(0.101128 -0.00209395 0.00154106)
(0.101134 -0.00183584 0.000993638)
(0.102277 -0.00224309 0.00174308)
(0.101768 -0.00229384 0.00173306)
(0.101911 -0.00211093 0.00116052)
(0.102971 -0.00228577 0.00176313)
(0.102291 -0.00236651 0.00179045)
(0.10268 -0.00222422 0.00122259)
(0.103601 -0.0022313 0.0016906)
(0.102712 -0.00232072 0.00174471)
(0.103414 -0.00223287 0.00120425)
(0.103037 -0.0022002 0.0016275)
(0.104093 -0.00216927 0.00113237)
(0.100242 -0.0012561 0.000820242)
(0.0997993 -0.000741358 0.000375139)
(0.10009 -0.000735345 0.00029435)
(0.100828 -0.00193925 0.00139072)
(0.0998409 -0.0018142 0.00115043)
(0.100491 -0.00168398 0.000792033)
(0.101392 -0.00218198 0.00166372)
(0.0999049 -0.00209005 0.00153659)
(0.101086 -0.00208331 0.00107781)
(0.101816 -0.00226054 0.00176151)
(0.0997676 -0.00202278 0.00163184)
(0.101664 -0.00217872 0.00120445)
(0.102081 -0.00226093 0.00175592)
(0.0995101 -0.00189523 0.0016098)
(0.102121 -0.00222128 0.00123989)
(0.102216 -0.00217509 0.001669)
(0.0992008 -0.001751 0.00154792)
(0.102452 -0.00220894 0.00120213)
(0.0988569 -0.00162482 0.0014752)
(0.102681 -0.00212452 0.0011187)
(0.0996493 -0.00093141 0.000650323)
(0.0994625 -0.000192505 0.000129376)
(0.0990855 -0.00182765 0.00127897)
(0.0992626 -0.00137061 0.000636878)
(0.0984494 -0.00210293 0.00154086)
(0.098913 -0.00200349 0.00097341)
(0.0977082 -0.00198869 0.00154703)
(0.0982953 -0.0020505 0.00105002)
(0.0969405 -0.0017757 0.00148033)
(0.0976581 -0.00189938 0.0010074)
(0.0962098 -0.0015815 0.00142765)
(0.0970662 -0.00169791 0.000959841)
(0.0965082 -0.00152011 0.000932717)
(0.0996725 0.00062953 0.000154128)
(0.0997132 0.000687951 0.000103951)
(0.0993802 5.89826e-05 1.48162e-08)
(0.0991591 0.00154425 0.000353495)
(0.0998377 0.0016223 0.000341754)
(0.0992678 0.00120004 7.61563e-08)
(0.0986638 0.00194741 0.000458119)
(0.0999631 0.00199135 0.00048569)
(0.0989805 0.00188844 1.84788e-07)
(0.0982125 0.00196045 0.000481477)
(0.099992 0.00199654 0.000539998)
(0.0984749 0.00200634 3.31578e-07)
(0.0977768 0.00182454 0.000472707)
(0.100009 0.00191086 0.000547033)
(0.0979961 0.00191444 5.69296e-07)
(0.0973636 0.00164077 0.000460065)
(0.100008 0.00180398 0.000534577)
(0.0975719 0.00173438 9.96887e-07)
(0.099982 0.00168236 0.000513311)
(0.0971828 0.00154672 1.76693e-06)
(0.100243 0.00116241 0.000267521)
(0.100064 0.000537341 0.000135862)
(0.100087 0.00070702 2.90061e-08)
(0.100782 0.00182621 0.000465969)
(0.100463 0.00142415 0.000371041)
(0.100477 0.00161779 8.55335e-08)
(0.101401 0.00207613 0.000575918)
(0.101089 0.00193359 0.000525441)
(0.101066 0.00203464 1.47032e-07)
(0.101987 0.0021339 0.000623586)
(0.101797 0.00212863 0.000606337)
(0.101694 0.00211759 2.71379e-07)
(0.102507 0.00216499 0.000632292)
(0.102489 0.00221104 0.000640083)
(0.102269 0.00215004 5.0744e-07)
(0.102934 0.002157 0.000612271)
(0.103119 0.00224168 0.000635461)
(0.102742 0.00217953 8.92292e-07)
(0.103686 0.00219697 0.00060303)
(0.103124 0.00213375 1.47123e-06)
(0.100215 0.000856809 0.000240977)
(0.100035 0.000373918 0.00011934)
(0.100039 0.000478778 2.01735e-08)
(0.100779 0.0014907 0.000427913)
(0.100422 0.00100024 0.000322413)
(0.100448 0.0012348 4.95958e-08)
(0.101525 0.00188676 0.000551348)
(0.10107 0.0014454 0.00047057)
(0.101114 0.00174651 8.70863e-08)
(0.102323 0.00208965 0.000618244)
(0.101877 0.00170607 0.000562814)
(0.101909 0.00202685 1.54652e-07)
(0.103129 0.00216957 0.000639004)
(0.102739 0.00183737 0.000608631)
(0.102729 0.00215214 2.76289e-07)
(0.103916 0.00217029 0.000622357)
(0.103607 0.00188396 0.0006162)
(0.103529 0.00218646 4.53717e-07)
(0.104453 0.00186599 0.000594634)
(0.104298 0.00215328 7.4855e-07)
(0.100192 0.000525047 0.000200085)
(0.100039 0.000188718 9.04563e-05)
(0.100031 0.000281394 3.5235e-09)
(0.100705 0.000950937 0.000363607)
(0.10038 0.000512554 0.000272327)
(0.100395 0.000768663 3.443e-09)
(0.10144 0.00125129 0.000480227)
(0.100993 0.000763601 0.000410541)
(0.101024 0.00113313 1.27857e-09)
(0.102302 0.00143558 0.000551402)
(0.101808 0.000929531 0.00050242)
(0.101844 0.0013693 -2.11814e-09)
(0.103222 0.00152823 0.000584213)
(0.102727 0.00102365 0.000554573)
(0.102751 0.00150158 -9.08825e-09)
(0.104155 0.00155231 0.000587282)
(0.103689 0.00106234 0.000574495)
(0.103689 0.00155444 -2.16966e-08)
(0.104654 0.00106093 0.000570894)
(0.104618 0.00154953 -3.39267e-08)
(0.100177 0.000162113 0.000162093)