/*--------------------------------*- C++ -*----------------------------------*\
| =========                 |                                                 |
| \\      /  F ield         | OpenFOAM: The Open Source CFD Toolbox           |
|  \\    /   O peration     | Version:  2212                                  |
|   \\  /    A nd           | Website:  www.openfoam.com                      |
|    \\/     M anipulation  |                                                 |
\*---------------------------------------------------------------------------*/
FoamFile
{
    version     2.0;
    format      ascii;
    arch        "LSB;label=32;scalar=64";
    class       volVectorField;
    location    "2.8";
    object      U;
}
// * * * * * * * * * * * * * * * * * * * * * * * * * * * * * * * * * * * * * //

dimensions      [0 1 -1 0 0 0 0];

internalField   nonuniform List<vector> 
690
(
(0.0279301 -4.37903e-05 -1.99932e-05)
(0.0275487 -4.96135e-05 -1.40294e-05)
(0.0271835 -5.1654e-05 -7.47172e-06)
(0.0268213 -5.01926e-05 -3.03306e-06)
(0.0264802 -4.89206e-05 -4.27423e-07)
(0.0261461 -4.74664e-05 1.83821e-06)
(0.0258284 -4.64293e-05 3.56462e-06)
(0.025522 -4.45124e-05 5.38008e-06)
(0.0252225 -4.39263e-05 6.19395e-06)
(0.024929 -4.34062e-05 5.58156e-06)
(0.0246495 -4.13582e-05 4.96885e-06)
(0.0458823 -0.00014171 -0.000192198)
(0.0453815 -0.000160341 -0.000199371)
(0.0449086 -0.000167272 -0.000199003)
(0.0444292 -0.000171819 -0.000197457)
(0.043977 -0.000175004 -0.000194847)
(0.043526 -0.000176939 -0.000190778)
(0.0430919 -0.000179751 -0.000186167)
(0.0426629 -0.000182175 -0.000179258)
(0.0422278 -0.000187054 -0.000173444)
(0.0418012 -0.000187405 -0.000164777)
(0.041389 -0.000182632 -0.000150525)
(0.0628524 -0.000338365 -0.000616143)
(0.0623201 -0.000342637 -0.000634311)
(0.0618028 -0.000332845 -0.000637126)
(0.0612464 -0.000325912 -0.000637418)
(0.0607065 -0.000322412 -0.000635491)
(0.0601398 -0.000321511 -0.000631005)
(0.0595855 -0.000322757 -0.00062302)
(0.0590189 -0.000329123 -0.000614349)
(0.0584422 -0.000334865 -0.000602332)
(0.0578847 -0.000312887 -0.000561274)
(0.0573308 -0.000277133 -0.000500376)
(0.0737086 -0.000251006 -0.00090676)
(0.0731271 -0.000284902 -0.000931138)
(0.0725078 -0.000308356 -0.000941845)
(0.0718557 -0.000327291 -0.00094473)
(0.0711827 -0.000342553 -0.000942867)
(0.0704951 -0.000355317 -0.000937109)
(0.0697949 -0.000364167 -0.000925919)
(0.0690999 -0.000373173 -0.000912963)
(0.0683931 -0.00037715 -0.000897202)
(0.0677117 -0.000375501 -0.000875845)
(0.0670316 -0.00037391 -0.00085133)
(0.0793937 -0.000263848 -0.00118523)
(0.0787409 -0.00032085 -0.00118886)
(0.0780548 -0.000359928 -0.00118374)
(0.0773463 -0.000389458 -0.00117268)
(0.0766233 -0.000412301 -0.00115757)
(0.0758921 -0.000429911 -0.00113972)
(0.075158 -0.000442194 -0.00111988)
(0.0744252 -0.00045046 -0.0011)
(0.0736971 -0.000453047 -0.00108102)
(0.0729729 -0.000448534 -0.0010618)
(0.0722521 -0.000438169 -0.00104173)
(0.043421 -0.000238856 1.89312e-05)
(0.0428477 -0.000205878 2.09089e-05)
(0.0423126 -0.000176888 2.61536e-05)
(0.0417776 -0.000155134 3.04219e-05)
(0.0412802 -0.0001384 3.27666e-05)
(0.0407892 -0.000123591 3.4723e-05)
(0.0403274 -0.000111915 3.5424e-05)
(0.0398806 -0.000100402 3.50096e-05)
(0.039447 -9.25707e-05 3.34052e-05)
(0.0390355 -8.61334e-05 3.20212e-05)
(0.0386508 -8.31568e-05 2.79362e-05)
(0.0754892 -0.000292108 1.08147e-06)
(0.0750846 -0.000304406 -3.93764e-05)
(0.0747058 -0.000314093 -6.82054e-05)
(0.0742881 -0.000310591 -8.43815e-05)
(0.0739059 -0.000302799 -9.36889e-05)
(0.0734904 -0.000289568 -9.74924e-05)
(0.0731017 -0.000278274 -9.99015e-05)
(0.0726953 -0.000258846 -9.72284e-05)
(0.0722926 -0.000249009 -9.7471e-05)
(0.0718959 -0.000263174 -0.000107097)
(0.0714748 -0.000267448 -0.000112162)
(0.0922843 -0.00055164 -0.000401576)
(0.0922878 -0.000527727 -0.000451625)
(0.092256 -0.000506254 -0.000488009)
(0.0922192 -0.00048468 -0.000512236)
(0.0921514 -0.000470982 -0.000532671)
(0.0920763 -0.000458914 -0.000546781)
(0.0919724 -0.000455358 -0.000560447)
(0.0918601 -0.000444699 -0.000563651)
(0.0917317 -0.000448682 -0.000571545)
(0.0915936 -0.000453862 -0.000574561)
(0.0914266 -0.000455072 -0.000569157)
(0.100245 -0.000308668 -0.000822929)
(0.100374 -0.000324501 -0.000870872)
(0.100466 -0.000343573 -0.000904668)
(0.100532 -0.000362563 -0.000928246)
(0.100564 -0.000379142 -0.000945069)
(0.100574 -0.000394061 -0.000955011)
(0.10056 -0.000411961 -0.000963889)
(0.100523 -0.000424185 -0.000963698)
(0.100477 -0.000439118 -0.000963937)
(0.100404 -0.000451819 -0.000957402)
(0.100324 -0.000456602 -0.000941643)
(0.104112 -0.00013176 -0.00124332)
(0.104213 -0.000197991 -0.00125716)
(0.104284 -0.000258127 -0.00126346)
(0.104328 -0.000311223 -0.00126358)
(0.104347 -0.000357179 -0.00125756)
(0.104346 -0.00039642 -0.00124713)
(0.104327 -0.000429827 -0.00123348)
(0.104292 -0.0004576 -0.00121823)
(0.104247 -0.000479537 -0.00119895)
(0.10419 -0.00049459 -0.00117432)
(0.104127 -0.000505979 -0.00115046)
(0.0575097 -0.000766504 9.86421e-05)
(0.0567614 -0.000649326 7.6812e-05)
(0.0561042 -0.000549431 6.05789e-05)
(0.0554598 -0.000490431 4.68845e-05)
(0.0548893 -0.000455669 3.6443e-05)
(0.0543121 -0.000429518 2.8444e-05)
(0.0537904 -0.000408041 2.16879e-05)
(0.0532689 -0.00038975 1.45689e-05)
(0.052776 -0.000371642 9.57422e-06)
(0.052308 -0.000348912 9.52351e-06)
(0.0518509 -0.000330438 8.54776e-06)
(0.0905744 -0.00090048 0.00017367)
(0.0903454 -0.000862054 0.000123864)
(0.0901272 -0.000821334 8.29501e-05)
(0.08994 -0.000790671 4.85252e-05)
(0.0897507 -0.000762002 2.11139e-05)
(0.0895843 -0.000731135 5.93921e-08)
(0.0894096 -0.0007075 -1.84444e-05)
(0.0892445 -0.000674098 -3.16642e-05)
(0.0890769 -0.000660764 -4.6628e-05)
(0.088907 -0.000646917 -5.88733e-05)
(0.0887258 -0.000630487 -6.91004e-05)
(0.104205 -0.00108318 -0.000141463)
(0.104371 -0.00102271 -0.000198624)
(0.104535 -0.000973945 -0.00025)
(0.104713 -0.000937022 -0.000295147)
(0.104878 -0.000907354 -0.000333316)
(0.10505 -0.000879827 -0.000363948)
(0.105212 -0.000852214 -0.000387533)
(0.105378 -0.000827828 -0.000406327)
(0.105537 -0.000816056 -0.000424672)
(0.105686 -0.000810136 -0.000440239)
(0.105831 -0.000808356 -0.000452913)
(0.110559 -0.000745901 -0.000575065)
(0.110885 -0.000720239 -0.000625244)
(0.111202 -0.00070268 -0.000668345)
(0.111508 -0.000690654 -0.000704493)
(0.111803 -0.0006834 -0.000734208)
(0.112087 -0.000678621 -0.000758229)
(0.112361 -0.000675581 -0.00077743)
(0.112623 -0.000672404 -0.000791622)
(0.112876 -0.000673106 -0.000802383)
(0.113116 -0.000677556 -0.000810616)
(0.11335 -0.000685459 -0.000817504)
(0.113646 -0.000419181 -0.00104059)
(0.113999 -0.000439176 -0.0010595)
(0.114336 -0.000460029 -0.00107343)
(0.11466 -0.000480968 -0.00108271)
(0.11497 -0.000500825 -0.00108804)
(0.115268 -0.000518912 -0.00109006)
(0.115554 -0.000535242 -0.00108943)
(0.11583 -0.000549704 -0.00108642)
(0.116096 -0.000563342 -0.00108064)
(0.116353 -0.000576403 -0.00107233)
(0.116603 -0.000588424 -0.00106172)
(0.0686345 -0.00123525 0.000274794)
(0.0676899 -0.00113647 0.000266248)
(0.0668329 -0.0010461 0.000252264)
(0.0660412 -0.000970908 0.000237186)
(0.0653107 -0.000909225 0.000223058)
(0.0646267 -0.000857718 0.000209509)
(0.0639853 -0.000813687 0.000197008)
(0.0633746 -0.00077765 0.000184716)
(0.0627912 -0.000741495 0.000175201)
(0.0622335 -0.000706196 0.000167363)
(0.0616899 -0.000676351 0.000158326)
(0.0986428 -0.0014289 0.000310747)
(0.0984122 -0.00132802 0.000315942)
(0.0982159 -0.0012375 0.000314464)
(0.0980578 -0.00115943 0.000308421)
(0.0979166 -0.00109255 0.000298907)
(0.0978037 -0.00103556 0.000287037)
(0.0977031 -0.000988155 0.000273741)
(0.0976194 -0.000947728 0.000260975)
(0.0975442 -0.000914019 0.000248326)
(0.0974756 -0.00088092 0.000235275)
(0.0974177 -0.000852621 0.000222153)
(0.110265 -0.00146935 0.00012162)
(0.110443 -0.00138114 0.000107015)
(0.110633 -0.00130596 8.8517e-05)
(0.110835 -0.00124159 6.79947e-05)
(0.111046 -0.00118703 4.72692e-05)
(0.111265 -0.00114041 2.81731e-05)
(0.111489 -0.00109942 1.11544e-05)
(0.111717 -0.00106282 -3.50883e-06)
(0.111949 -0.00103295 -1.8221e-05)
(0.112181 -0.00100892 -3.30299e-05)
(0.112417 -0.000986403 -4.6591e-05)
(0.115755 -0.00104465 -0.000221354)
(0.116123 -0.000990903 -0.000243416)
(0.116488 -0.000945809 -0.000265389)
(0.11685 -0.000907967 -0.000286322)
(0.117209 -0.000876136 -0.000305597)
(0.117565 -0.000848841 -0.0003227)
(0.117916 -0.000825191 -0.000337602)
(0.118263 -0.000804842 -0.000350328)
(0.118606 -0.000788787 -0.000361819)
(0.118946 -0.000777008 -0.000372425)
(0.119281 -0.000767834 -0.000381617)
(0.118436 -0.000606445 -0.000606691)
(0.118873 -0.000592694 -0.000615027)
(0.1193 -0.000582164 -0.000622346)
(0.119718 -0.000574145 -0.000628449)
(0.120127 -0.000568037 -0.000633245)
(0.120529 -0.000563301 -0.000636661)
(0.120922 -0.000559567 -0.000638758)
(0.121309 -0.000556687 -0.000639615)
(0.121688 -0.000554908 -0.000639239)
(0.122062 -0.000554659 -0.000637893)
(0.12243 -0.00055521 -0.000635457)
(0.0766009 -0.0014772 0.00027852)
(0.0756269 -0.00138867 0.000318495)
(0.0747086 -0.00131089 0.000347093)
(0.0738395 -0.00124396 0.000365875)
(0.0730172 -0.00118544 0.000376056)
(0.072238 -0.00113396 0.000379796)
(0.0714957 -0.00108944 0.000377602)
(0.0707863 -0.00105054 0.000371682)
(0.0701054 -0.00101451 0.000363631)
(0.0694501 -0.000981333 0.000353459)
(0.0688172 -0.000950287 0.000341708)
(0.103225 -0.00170844 0.000198112)
(0.103041 -0.00161355 0.00026403)
(0.102875 -0.00152599 0.000315758)
(0.102728 -0.00144652 0.000356726)
(0.102598 -0.0013747 0.000390334)
(0.102483 -0.00131204 0.000414586)
(0.102383 -0.00125921 0.000430101)
(0.102298 -0.00121097 0.00043847)
(0.102223 -0.00116759 0.000443099)
(0.102157 -0.00112811 0.000444028)
(0.102101 -0.00108978 0.00044164)
(0.113474 -0.00163237 0.000164219)
(0.113689 -0.00155648 0.000194179)
(0.113906 -0.00148694 0.000218402)
(0.114127 -0.00142399 0.000236494)
(0.114352 -0.00136775 0.000249909)
(0.114581 -0.00131779 0.00025988)
(0.114815 -0.0012732 0.000267598)
(0.115051 -0.00123318 0.000272843)
(0.11529 -0.0011978 0.000275081)
(0.115531 -0.0011668 0.0002748)
(0.115774 -0.00113781 0.000272414)
(0.118428 -0.00114076 4.9527e-06)
(0.118826 -0.00109211 9.18605e-06)
(0.119219 -0.00104802 1.12365e-05)
(0.119607 -0.00100824 1.16312e-05)
(0.11999 -0.00097254 1.08724e-05)
(0.12037 -0.000940536 9.31682e-06)
(0.120746 -0.000911843 7.24821e-06)
(0.121118 -0.000886224 4.76567e-06)
(0.121488 -0.000863746 1.65857e-06)
(0.121854 -0.000844539 -2.08121e-06)
(0.122218 -0.000827402 -6.16342e-06)
(0.120881 -0.000640105 -0.000225828)
(0.121359 -0.000616878 -0.000224119)
(0.121827 -0.000596825 -0.000223493)
(0.122285 -0.000579541 -0.000223573)
(0.122735 -0.000564548 -0.000223997)
(0.123178 -0.000551469 -0.000224529)
(0.123613 -0.000540009 -0.000225038)
(0.124041 -0.000529987 -0.00022548)
(0.124463 -0.000521368 -0.000225859)
(0.12488 -0.000514253 -0.000226254)
(0.125292 -0.000508098 -0.000226533)
(0.121637 -0.000173675 -0.000476467)
(0.122133 -0.000170719 -0.000465709)
(0.122617 -0.000167897 -0.00045543)
(0.123091 -0.000165238 -0.000445782)
(0.123556 -0.000162776 -0.000436843)
(0.124012 -0.000160499 -0.0004286)
(0.124461 -0.000158399 -0.000421022)
(0.124902 -0.000156471 -0.000414095)
(0.125337 -0.00015473 -0.000407818)
(0.125766 -0.000153225 -0.000402298)
(0.12619 -0.000151838 -0.000397164)
(0.0802354 -0.00142906 0.000216255)
(0.0794134 -0.00138484 0.000291346)
(0.0785982 -0.00134017 0.00033693)
(0.0777936 -0.00129695 0.00037077)
(0.0770025 -0.00125665 0.000396194)
(0.0762274 -0.0012196 0.000415008)
(0.075469 -0.00118566 0.000427718)
(0.0747281 -0.00115388 0.000434474)
(0.074005 -0.00112409 0.00043657)
(0.0732978 -0.00109628 0.000434876)
(0.0726073 -0.00107051 0.000429748)
(0.105029 -0.00160628 6.78581e-05)
(0.104993 -0.00155803 0.00015812)
(0.104947 -0.00151281 0.000234636)
(0.104892 -0.00147059 0.00029918)
(0.104831 -0.00142903 0.000353047)
(0.104765 -0.00138726 0.000397375)
(0.104698 -0.00134794 0.000433054)
(0.10463 -0.00131085 0.000461666)
(0.104562 -0.00127577 0.000484039)
(0.104495 -0.00124285 0.000502667)
(0.104429 -0.00120727 0.000515202)
(0.11455 -0.00145555 0.000200737)
(0.114842 -0.0014232 0.0002468)
(0.115124 -0.00138942 0.000287945)
(0.1154 -0.00135729 0.000323664)
(0.115669 -0.00132617 0.000354416)
(0.115933 -0.0012962 0.000380808)
(0.116192 -0.00126774 0.00040324)
(0.116446 -0.00124089 0.000422039)
(0.116698 -0.0012154 0.000437379)
(0.116946 -0.00119157 0.000449991)
(0.117191 -0.00116758 0.000460061)
(0.119265 -0.000963457 0.000242343)
(0.119698 -0.000942141 0.000252014)
(0.12012 -0.000920871 0.000261547)
(0.120533 -0.000900413 0.000269889)
(0.120939 -0.000880996 0.000277054)
(0.121337 -0.000862574 0.000283041)
(0.121729 -0.000845128 0.000287905)
(0.122115 -0.000828675 0.000291755)
(0.122496 -0.000813219 0.000294684)
(0.122872 -0.000798956 0.000296906)
(0.123243 -0.000784966 0.00029841)
(0.121637 -0.000477174 0.000171814)
(0.122133 -0.000466188 0.000169098)
(0.122617 -0.000455699 0.000166549)
(0.123091 -0.000445887 0.000164167)
(0.123556 -0.000436836 0.000161971)
(0.124012 -0.000428519 0.000159947)
(0.124461 -0.000420895 0.00015808)
(0.124902 -0.000413939 0.000156359)
(0.125337 -0.000407648 0.000154786)
(0.125766 -0.000402092 0.000153397)
(0.12619 -0.000396916 0.000152085)
(0.122366 -6.26952e-07 -5.84374e-07)
(0.122881 -5.43067e-07 -6.12617e-07)
(0.123384 -4.5497e-07 -6.15463e-07)
(0.123876 -3.78948e-07 -5.96814e-07)
(0.124358 -3.17938e-07 -5.64242e-07)
(0.124831 -2.6876e-07 -5.22689e-07)
(0.125296 -2.30026e-07 -4.78917e-07)
(0.125753 -1.99674e-07 -4.41956e-07)
(0.126203 -1.78438e-07 -4.19048e-07)
(0.126647 -1.64183e-07 -4.20241e-07)
(0.127084 -1.61882e-07 -4.52859e-07)
(0.0793863 -0.00118799 0.000258894)
(0.0787333 -0.00119162 0.000316991)
(0.0780472 -0.00118633 0.00035714)
(0.0773387 -0.00117495 0.000387545)
(0.0766155 -0.00115955 0.000411011)
(0.0758839 -0.00114151 0.000428912)
(0.0751494 -0.00112171 0.00044144)
(0.0744159 -0.00110209 0.000449975)
(0.073687 -0.00108356 0.000452936)
(0.0729622 -0.00106519 0.00044923)
(0.0722413 -0.0010457 0.000438861)
(0.104111 -0.00124641 0.000127703)
(0.104213 -0.00125975 0.000194155)
(0.104284 -0.00126562 0.000254713)
(0.104328 -0.00126543 0.000308389)
(0.104347 -0.00125914 0.000354909)
(0.104346 -0.00124848 0.00039472)
(0.104327 -0.00123472 0.00042863)
(0.104293 -0.00121934 0.000456895)
(0.104248 -0.00120027 0.000479116)
(0.104192 -0.00117606 0.00049388)
(0.104131 -0.00115151 0.000504788)
(0.113648 -0.0010427 0.000415582)
(0.114001 -0.00106122 0.000436192)
(0.114339 -0.00107475 0.00045764)
(0.114662 -0.00108372 0.000479131)
(0.114972 -0.00108877 0.000499508)
(0.11527 -0.00109056 0.000518117)
(0.115557 -0.00108972 0.000534887)
(0.115833 -0.00108652 0.000549683)
(0.116099 -0.00108069 0.000563474)
(0.116356 -0.00107217 0.00057617)
(0.116606 -0.00106149 0.000588109)
(0.118438 -0.00060774 0.000603382)
(0.118875 -0.000615888 0.000590225)
(0.119302 -0.000622993 0.000580249)
(0.11972 -0.000628913 0.000572744)
(0.12013 -0.00063356 0.000567105)
(0.120531 -0.000636855 0.000562802)
(0.120925 -0.000638846 0.000559436)
(0.121311 -0.000639598 0.000556835)
(0.121691 -0.000639123 0.000555207)
(0.122064 -0.000637607 0.000554911)
(0.122432 -0.000635065 0.000555472)
(0.120882 -0.000225976 0.00063776)
(0.121361 -0.000224259 0.000614873)
(0.121829 -0.000223623 0.000595182)
(0.122287 -0.000223711 0.000578243)
(0.122737 -0.000224168 0.000563575)
(0.123179 -0.000224753 0.000550801)
(0.123614 -0.000225328 0.000539617)
(0.124043 -0.000225837 0.000529826)
(0.124465 -0.000226277 0.000521378)
(0.124882 -0.000226702 0.000514347)
(0.125293 -0.000227022 0.000508265)
(0.121638 0.000172345 0.000475442)
(0.122133 0.000169639 0.000464566)
(0.122618 0.000167036 0.00045422)
(0.123092 0.000164542 0.000444561)
(0.123557 0.000162197 0.000435655)
(0.124013 0.000160009 0.00042747)
(0.124462 0.000157977 0.000419952)
(0.124903 0.000156107 0.000413063)
(0.125338 0.000154408 0.000406789)
(0.125767 0.000152938 0.000401207)
(0.126191 0.000151561 0.000395943)
(0.0737033 -0.000908981 0.000246188)
(0.0731221 -0.000933168 0.000281296)
(0.0725035 -0.000943776 0.000306219)
(0.0718515 -0.0009464 0.000326104)
(0.0711797 -0.000944323 0.000341921)
(0.0704914 -0.000938255 0.000354692)
(0.0697928 -0.000927027 0.000363574)
(0.0690964 -0.000914043 0.000371889)
(0.0683892 -0.000899032 0.00037684)
(0.0677071 -0.000879691 0.000378498)
(0.0670226 -0.000855134 0.000375584)
(0.0663721 -0.000830456 0.000374129)
(0.100247 -0.000825694 0.000304897)
(0.100378 -0.000872768 0.000320861)
(0.100469 -0.000906078 0.000340376)
(0.100536 -0.000929538 0.000360169)
(0.100569 -0.00094591 0.000377001)
(0.10058 -0.000956027 0.000392637)
(0.100565 -0.000964596 0.000410725)
(0.10053 -0.000963739 0.00042289)
(0.100483 -0.000964879 0.00043899)
(0.100411 -0.000956972 0.000449938)
(0.100335 -0.00094147 0.000455701)
(0.100238 -0.000921973 0.000457074)
(0.110562 -0.000577167 0.00074274)
(0.11089 -0.000626815 0.000717708)
(0.111207 -0.000669404 0.000700536)
(0.111514 -0.000705214 0.000688885)
(0.111809 -0.000734621 0.000681988)
(0.112094 -0.000758495 0.00067775)
(0.112367 -0.000777551 0.000675216)
(0.112629 -0.00079167 0.000672634)
(0.112883 -0.000802305 0.000673457)
(0.113122 -0.00080994 0.000676899)
(0.113357 -0.00081668 0.000684895)
(0.115758 -0.000221975 0.00104149)
(0.116127 -0.000244049 0.000988441)
(0.116492 -0.000265903 0.000943911)
(0.116855 -0.00028672 0.000906557)
(0.117214 -0.000305902 0.000875176)
(0.11757 -0.000322962 0.000848332)
(0.117921 -0.000337805 0.000825076)
(0.118268 -0.000350432 0.000805053)
(0.118611 -0.00036172 0.000789092)
(0.11895 -0.00037188 0.000777044)
(0.119284 -0.000380941 0.000767895)
(0.11843 5.44663e-06 0.00113802)
(0.118829 9.49564e-06 0.00108974)
(0.119222 1.13893e-05 0.00104606)
(0.11961 1.16242e-05 0.00100667)
(0.119994 1.07037e-05 0.000971349)
(0.120374 8.98985e-06 0.000939692)
(0.12075 6.78934e-06 0.000911297)
(0.121122 4.22278e-06 0.000885907)
(0.121491 1.10311e-06 0.000863548)
(0.121857 -2.55506e-06 0.000844324)
(0.12222 -6.60569e-06 0.000827134)
(0.119266 0.000243447 0.000961314)
(0.119699 0.000253089 0.000940119)
(0.120121 0.000262461 0.000919027)
(0.120535 0.000270535 0.000898768)
(0.120941 0.000277397 0.000879552)
(0.121339 0.000283089 0.000861309)
(0.121731 0.000287682 0.000843993)
(0.122117 0.000291321 0.000827612)
(0.122498 0.000294088 0.000812142)
(0.122874 0.000296265 0.000797799)
(0.123245 0.000297718 0.000783597)
(0.062846 -0.000616871 0.000333954)
(0.0623143 -0.00063532 0.000338659)
(0.0617977 -0.000638557 0.000330667)
(0.0612408 -0.000638756 0.000324888)
(0.0607014 -0.000636598 0.000321956)
(0.0601337 -0.000631771 0.000320995)
(0.0595813 -0.000623663 0.000322003)
(0.0590111 -0.000614301 0.00032696)
(0.0584419 -0.000603211 0.000333443)
(0.0578776 -0.000564042 0.000313417)
(0.057316 -0.00050185 0.000274459)
(0.0567942 -0.000456877 0.000255918)
(0.0922832 -0.000404945 0.000551345)
(0.0922876 -0.000453527 0.000525473)
(0.0922576 -0.000489164 0.000503347)
(0.0922213 -0.000512979 0.0004818)
(0.0921548 -0.000533089 0.000468253)
(0.09208 -0.000547473 0.000457088)
(0.0919765 -0.000560506 0.000452858)
(0.0918646 -0.000566321 0.000446573)
(0.0917319 -0.000573301 0.000449366)
(0.0915964 -0.000570365 0.000445162)
(0.0914342 -0.000569867 0.000454109)
(0.091254 -0.000560834 0.000455532)
(0.104204 -0.000143393 0.0010824)
(0.104373 -0.000200307 0.00102219)
(0.104538 -0.000251071 0.000972974)
(0.104717 -0.000295763 0.000935864)
(0.104882 -0.000333681 0.00090631)
(0.105055 -0.000364248 0.000879172)
(0.105217 -0.000387731 0.000851786)
(0.105383 -0.000406922 0.000828416)
(0.105541 -0.000425178 0.000816854)
(0.105691 -0.000439369 0.000808887)
(0.105838 -0.000453055 0.000809403)
(0.110267 0.000121801 0.00146691)
(0.110446 0.000106682 0.00137929)
(0.110637 8.80224e-05 0.00130452)
(0.11084 6.74801e-05 0.00124049)
(0.111051 4.67539e-05 0.00118622)
(0.11127 2.76238e-05 0.00113989)
(0.111493 1.05723e-05 0.00109914)
(0.111722 -4.18602e-06 0.00106281)
(0.111952 -1.86536e-05 0.00103295)
(0.112185 -3.26514e-05 0.0010085)
(0.112419 -4.62414e-05 0.000986395)
(0.113477 0.000165526 0.00162981)
(0.113692 0.000195049 0.00155412)
(0.11391 0.000218831 0.00148486)
(0.114132 0.000236578 0.00142223)
(0.114358 0.000249705 0.0013663)
(0.114587 0.000259418 0.0013166)
(0.11482 0.000266909 0.00127222)
(0.115056 0.000271985 0.00123237)
(0.115294 0.00027419 0.00119707)
(0.115536 0.000274066 0.00116604)
(0.115778 0.000271757 0.00113699)
(0.114553 0.000202396 0.00145346)
(0.114844 0.000248404 0.00142102)
(0.115127 0.000289299 0.00138731)
(0.115404 0.000324641 0.00135534)
(0.115673 0.000354991 0.00132441)
(0.115937 0.000381028 0.00129461)
(0.116196 0.000403092 0.00126628)
(0.116451 0.000421641 0.00123948)
(0.116702 0.000436705 0.00121394)
(0.11695 0.000449219 0.00118997)
(0.117195 0.000459151 0.00116565)
(0.0458834 -0.000193228 0.000140225)
(0.0453841 -0.000200757 0.000158211)
(0.0449101 -0.000200496 0.000165387)
(0.0444325 -0.000198694 0.000170144)
(0.0439797 -0.000195903 0.000173715)
(0.0435287 -0.000191773 0.000175987)
(0.0430951 -0.00018708 0.000178759)
(0.0426648 -0.000180514 0.000181706)
(0.0422308 -0.00017478 0.000186102)
(0.0418086 -0.000165162 0.00018437)
(0.0413871 -0.000150825 0.000178801)
(0.0409913 -0.000136259 0.000174579)
(0.0754867 -2.24966e-06 0.000296298)
(0.0750807 -4.18166e-05 0.000305451)
(0.074703 -6.99239e-05 0.000313132)
(0.0742852 -8.59405e-05 0.000309285)
(0.0739046 -9.49605e-05 0.000300923)
(0.0734893 -9.88935e-05 0.000288254)
(0.0731028 -0.000101128 0.000276872)
(0.0726952 -9.90067e-05 0.000258741)
(0.0722964 -9.97226e-05 0.000250074)
(0.0718976 -0.000106272 0.000257001)
(0.0714741 -0.000117478 0.000275432)
(0.0710573 -0.000119923 0.000275637)
(0.090566 0.000173083 0.000900457)
(0.0903387 0.000123061 0.000862115)
(0.0901222 8.18857e-05 0.000822125)
(0.0899346 4.75013e-05 0.000791409)
(0.0897461 2.02211e-05 0.000762515)
(0.0895794 -5.83571e-07 0.00073114)
(0.0894056 -1.9077e-05 0.000707828)
(0.0892397 -3.17187e-05 0.000673198)
(0.0890738 -4.66351e-05 0.000660068)
(0.0889021 -5.95669e-05 0.000647866)
(0.088724 -6.94313e-05 0.000630064)
(0.0986394 0.000312094 0.00142647)
(0.0984108 0.000316482 0.0013263)
(0.0982156 0.000314481 0.00123654)
(0.098058 0.000308094 0.00115889)
(0.0979171 0.000298363 0.0010921)
(0.0978042 0.000286409 0.00103506)
(0.0977034 0.000273155 0.000987652)
(0.0976192 0.000260567 0.000947071)
(0.0975439 0.0002481 0.000913397)
(0.0974747 0.000235149 0.000881629)
(0.0974163 0.00022192 0.000851926)
(0.103228 0.000200468 0.00170647)
(0.103044 0.00026572 0.00161137)
(0.102879 0.000316871 0.00152384)
(0.102733 0.000357544 0.00144449)
(0.102602 0.000390793 0.00137279)
(0.102488 0.000414474 0.00131017)
(0.102389 0.000429645 0.00125735)
(0.102303 0.000438035 0.00120913)
(0.102228 0.000442683 0.00116587)
(0.102162 0.000443651 0.00112672)
(0.102105 0.000441363 0.00108818)
(0.105033 6.96958e-05 0.00160475)
(0.104997 0.00015997 0.00155613)
(0.104951 0.000236347 0.00151083)
(0.104897 0.000300691 0.0014686)
(0.104836 0.000354283 0.00142711)
(0.104771 0.00039833 0.00138533)
(0.104703 0.000433603 0.00134597)
(0.104636 0.000462066 0.00130877)
(0.104568 0.000484121 0.00127365)
(0.104501 0.000502525 0.00124065)
(0.104435 0.000514628 0.0012049)
(0.0279336 -2.06086e-05 4.3617e-05)
(0.0275534 -1.48722e-05 4.90016e-05)
(0.0271889 -8.33207e-06 5.09695e-05)
(0.0268284 -3.80812e-06 4.97485e-05)
(0.0264878 -1.12073e-06 4.85174e-05)
(0.0261541 1.2252e-06 4.71603e-05)
(0.025837 3.05779e-06 4.61083e-05)
(0.0255303 4.8975e-06 4.43496e-05)
(0.0252305 5.64513e-06 4.37085e-05)
(0.0249406 5.09541e-06 4.24462e-05)
(0.0246576 4.22038e-06 4.11859e-05)
(0.024393 4.92158e-06 3.96453e-05)
(0.0434279 1.90477e-05 0.00023958)
(0.0428567 2.10571e-05 0.000206407)
(0.0423208 2.58074e-05 0.000177397)
(0.0417885 2.9677e-05 0.000155477)
(0.0412914 3.19358e-05 0.000138646)
(0.0408016 3.41439e-05 0.000123764)
(0.0403408 3.50186e-05 0.000112041)
(0.0398945 3.50327e-05 0.00010039)
(0.0394621 3.32799e-05 9.24549e-05)
(0.0390553 3.06676e-05 8.58067e-05)
(0.0386622 2.803e-05 8.13523e-05)
(0.0382912 2.50133e-05 7.90486e-05)
(0.0575209 0.000100818 0.000765611)
(0.0567726 7.90766e-05 0.000649529)
(0.0561162 6.20613e-05 0.000549884)
(0.0554732 4.76284e-05 0.000490759)
(0.0549039 3.67996e-05 0.000455861)
(0.0543282 2.87875e-05 0.000429479)
(0.0538072 2.20344e-05 0.000407927)
(0.053288 1.5187e-05 0.000389306)
(0.0527944 1.02015e-05 0.000371083)
(0.0523288 8.76666e-06 0.000349733)
(0.0518716 9.60833e-06 0.000328022)
(0.0686358 0.000276849 0.00123353)
(0.0676928 0.000268492 0.0011338)
(0.0668378 0.000254356 0.00104306)
(0.0660484 0.00023897 0.000967795)
(0.0653203 0.000224496 0.000906231)
(0.0646384 0.000210705 0.000854945)
(0.0639989 0.000198161 0.000811112)
(0.0633902 0.000185781 0.000775413)
(0.0628085 0.000176163 0.00073973)
(0.0622522 0.000168129 0.000704899)
(0.0617119 0.00015927 0.000675238)
(0.076599 0.000280822 0.00147646)
(0.0756254 0.000320542 0.00138687)
(0.0747079 0.000348945 0.00130823)
(0.07384 0.000367602 0.0012407)
(0.0730191 0.000377625 0.00118183)
(0.0722416 0.000381166 0.00113022)
(0.0715011 0.000378838 0.00108569)
(0.0707935 0.000372897 0.00104699)
(0.0701145 0.000364941 0.0010111)
(0.069461 0.000354994 0.000977941)
(0.0688302 0.000343405 0.000947554)
(0.0802353 0.000219119 0.00142947)
(0.0794125 0.00029297 0.00138447)
(0.0785967 0.000338371 0.00133902)
(0.077792 0.00037226 0.00129513)
(0.0770011 0.000397675 0.00125433)
(0.0762267 0.000416379 0.0012169)
(0.0754692 0.000429039 0.0011827)
(0.0747293 0.000435686 0.00115075)
(0.0740073 0.000437916 0.00112086)
(0.0733013 0.000436345 0.00109297)
(0.0726123 0.000431433 0.00106739)
)
;

boundaryField
{
    inlet
    {
        type            fixedValue;
        value           nonuniform List<vector> 0();
    }
    ami1
    {
        type            cyclicAMI;
        value           nonuniform List<vector> 0();
    }
    walls
    {
        type            noSlip;
    }
    ami2
    {
        type            cyclicAMI;
        value           nonuniform List<vector> 0();
    }
    outlet
    {
        type            zeroGradient;
    }
    procBoundary8to0
    {
        type            processor;
        value           nonuniform List<vector> 
29
(
(0.0283245 -3.96965e-05 -2.29202e-05)
(0.0464071 -0.000108514 -0.000173209)
(0.063342 -0.000308632 -0.000573335)
(0.0742393 -0.000200185 -0.000862018)
(0.0800015 -0.00017866 -0.00116848)
(0.0440261 -0.000277776 2.01287e-05)
(0.0758733 -0.000349706 2.66197e-05)
(0.0922738 -0.000591103 -0.000344557)
(0.100084 -0.000302462 -0.000764644)
(0.103975 -6.21697e-05 -0.00122222)
(0.0583265 -0.000832894 0.000134165)
(0.0908416 -0.000983052 0.000218865)
(0.104052 -0.001164 -8.23214e-05)
(0.110222 -0.000783564 -0.000518282)
(0.113277 -0.000401903 -0.00101605)
(0.0696866 -0.00133512 0.000276859)
(0.0989193 -0.00154823 0.000294089)
(0.1101 -0.0015723 0.000129546)
(0.115382 -0.00110813 -0.000200389)
(0.117988 -0.00062364 -0.0005978)
(0.0776421 -0.00157683 0.000219024)
(0.103426 -0.00181201 0.00011545)
(0.113258 -0.00171392 0.000124569)
(0.118022 -0.00119413 -1.87436e-06)
(0.120392 -0.000664387 -0.00022791)
(0.121129 -0.000176649 -0.000487571)
(0.118822 -0.000985106 0.000232435)
(0.121129 -0.000488454 0.000174646)
(0.12184 -6.77494e-07 -5.29598e-07)
)
;
    }
    procBoundary8to1
    {
        type            processor;
        value           nonuniform List<vector> 
33
(
(0.0810608 -0.00147127 0.000125567)
(0.10505 -0.00165101 -3.44108e-05)
(0.114246 -0.00148606 0.000151428)
(0.0799943 -0.00117122 0.000174394)
(0.103975 -0.00122557 5.79714e-05)
(0.113278 -0.0010185 0.000397684)
(0.117989 -0.000598949 0.000620065)
(0.120393 -0.000228035 0.0006618)
(0.12113 0.000175138 0.000486697)
(0.0742326 -0.000864765 0.000196157)
(0.100085 -0.000768303 0.00029842)
(0.110224 -0.000520636 0.000779242)
(0.115384 -0.00020072 0.00110414)
(0.118024 -1.12615e-06 0.00119115)
(0.118823 0.000233457 0.00098296)
(0.0633312 -0.000575288 0.000307524)
(0.0922712 -0.000348186 0.000591167)
(0.104049 -8.35106e-05 0.00116143)
(0.1101 0.000130851 0.00156887)
(0.113261 0.000126609 0.00171122)
(0.114249 0.000153016 0.00148422)
(0.046408 -0.000174241 0.000109231)
(0.075869 2.50286e-05 0.000350958)
(0.09083 0.00021889 0.000982137)
(0.0989134 0.00029664 0.00154614)
(0.103428 0.000118473 0.00181078)
(0.105054 -3.26485e-05 0.00165027)
(0.0283286 -2.3067e-05 3.96428e-05)
(0.0440328 1.97315e-05 0.000278984)
(0.0583364 0.000134304 0.00083373)
(0.0696866 0.000278085 0.00133579)
(0.0776399 0.000221478 0.00157744)
(0.0810615 0.000128099 0.00147221)
)
;
    }
    procBoundary8to7
    {
        type            processor;
        value           nonuniform List<vector> 
68
(
(0.0243765 -3.95587e-05 5.49721e-06)
(0.0409682 -0.000175943 -0.000134945)
(0.0568009 -0.000259693 -0.000455679)
(0.0663802 -0.00037422 -0.000826956)
(0.071542 -0.000425371 -0.00102062)
(0.0382555 -7.9297e-05 2.51011e-05)
(0.0710636 -0.000269238 -0.000115367)
(0.0912548 -0.000452926 -0.000558013)
(0.100228 -0.000458746 -0.000923045)
(0.104053 -0.000518787 -0.00113241)
(0.0514082 -0.000314902 7.26711e-06)
(0.0885565 -0.000613559 -7.88868e-05)
(0.105963 -0.000805768 -0.000461501)
(0.113566 -0.000687367 -0.000816849)
(0.116844 -0.000599536 -0.00105002)
(0.0611721 -0.000646287 0.000147992)
(0.0973619 -0.000820985 0.000208198)
(0.112648 -0.00096869 -6.00895e-05)
(0.119611 -0.000760486 -0.000389088)
(0.122793 -0.000556343 -0.000632594)
(0.0682052 -0.000918351 0.000328055)
(0.10205 -0.00105381 0.000437164)
(0.116018 -0.00111161 0.000268262)
(0.122579 -0.000812595 -1.01513e-05)
(0.125699 -0.00050302 -0.000226799)
(0.126609 -0.000150649 -0.000392638)
(0.0719283 -0.00104355 0.000420822)
(0.104366 -0.00116908 0.000521443)
(0.117435 -0.00114392 0.000467767)
(0.123611 -0.000771709 0.000299432)
(0.126609 -0.000392284 0.000150911)
(0.127517 -1.72469e-07 -5.2634e-07)
(0.0715298 -0.00102474 0.000425456)
(0.0715298 -0.00102474 0.000425456)
(0.104058 -0.00113388 0.000517929)
(0.104058 -0.00113388 0.000517929)
(0.116848 -0.00104968 0.000599155)