/*--------------------------------*- C++ -*----------------------------------*\
| =========                 |                                                 |
| \\      /  F ield         | OpenFOAM: The Open Source CFD Toolbox           |
|  \\    /   O peration     | Version:  2212                                  |
|   \\  /    A nd           | Website:  www.openfoam.com                      |
|    \\/     M anipulation  |                                                 |
\*---------------------------------------------------------------------------*/
FoamFile
{
    version     2.0;
    format      ascii;
    arch        "LSB;label=32;scalar=64";
    class       surfaceVectorField;
    location    "2.8";
    object      Uf;
}
// * * * * * * * * * * * * * * * * * * * * * * * * * * * * * * * * * * * * * //

dimensions      [0 1 -1 0 0 0 0];

internalField   nonuniform List<vector> 
1815
(
(0.0277438 -4.67019e-05 -1.70113e-05)
(0.0351092 -6.5712e-05 -8.52214e-05)
(0.034125 -0.000109689 5.35774e-06)
(0.0273664 -5.06338e-05 -1.07505e-05)
(0.0346801 -8.67193e-05 -8.66341e-05)
(0.0336668 -9.1024e-05 1.69776e-05)
(0.0270018 -5.09233e-05 -5.25239e-06)
(0.0342718 -9.89273e-05 -8.42845e-05)
(0.0332337 -7.66677e-05 2.62326e-05)
(0.0266512 -4.95566e-05 -1.73024e-06)
(0.0338628 -0.000105411 -8.21721e-05)
(0.0328024 -6.5741e-05 3.16941e-05)
(0.0263127 -4.81935e-05 7.05392e-07)
(0.0334772 -0.000109542 -8.03283e-05)
(0.0323987 -5.70879e-05 3.51635e-05)
(0.0259879 -4.69479e-05 2.70141e-06)
(0.0330964 -0.000111752 -7.78289e-05)
(0.0320019 -4.96046e-05 3.78619e-05)
(0.0256736 -4.54709e-05 4.47235e-06)
(0.0327321 -0.000113417 -7.51942e-05)
(0.0316266 -4.37497e-05 3.96333e-05)
(0.0253731 -4.42194e-05 5.78702e-06)
(0.0323767 -0.000113747 -7.14494e-05)
(0.031264 -3.76835e-05 4.08091e-05)
(0.0250773 -4.36662e-05 5.88776e-06)
(0.032023 -0.000114642 -6.84878e-05)
(0.0309109 -3.4406e-05 4.04894e-05)
(0.0247871 -4.23822e-05 5.27521e-06)
(0.0316762 -0.000112259 -6.49224e-05)
(0.0305702 -3.33752e-05 3.80689e-05)
(0.0313437 -0.00010483 -5.86854e-05)
(0.0302486 -3.30262e-05 3.43946e-05)
(0.04564 -0.000151026 -0.000195785)
(0.0534421 -0.000274534 -0.000383909)
(0.0589883 -0.000182148 -7.98577e-05)
(0.0451453 -0.000163807 -0.000199187)
(0.0529272 -0.000277589 -0.000395401)
(0.0585301 -0.000187978 -9.15207e-05)
(0.0446674 -0.000169546 -0.00019823)
(0.0524346 -0.000269529 -0.000395975)
(0.0580989 -0.000189731 -9.75222e-05)
(0.0442034 -0.000173412 -0.000196152)
(0.0519209 -0.000263698 -0.000394915)
(0.0576468 -0.000187354 -0.000100377)
(0.0437507 -0.000175971 -0.000192812)
(0.0514296 -0.000260434 -0.00039239)
(0.0572256 -0.000183681 -0.000100995)
(0.0433096 -0.000178345 -0.000188473)
(0.0509271 -0.000258832 -0.000387992)
(0.0567903 -0.000177383 -9.88538e-05)
(0.0428749 -0.000180963 -0.000182712)
(0.0504394 -0.000259583 -0.000381792)
(0.0563763 -0.000173315 -9.66998e-05)
(0.0424476 -0.000184615 -0.000176351)
(0.0499491 -0.000263066 -0.000374054)
(0.0559573 -0.000165528 -9.11142e-05)
(0.0420168 -0.00018723 -0.000169111)
(0.0494509 -0.000268763 -0.000365505)
(0.0555365 -0.000164772 -8.88822e-05)
(0.0415897 -0.000185019 -0.000157651)
(0.048966 -0.000257983 -0.000342333)
(0.0551232 -0.000172758 -8.98705e-05)
(0.0484907 -0.000240121 -0.000307346)
(0.054707 -0.000175517 -8.77838e-05)
(0.062589 -0.000340501 -0.000625227)
(0.0679299 -0.000256227 -0.000754754)
(0.0763879 -0.000418904 -0.000494892)
(0.0620615 -0.000337741 -0.000635718)
(0.0673746 -0.000274465 -0.00077582)
(0.0761021 -0.000403253 -0.000518765)
(0.0615232 -0.000329378 -0.000637272)
(0.0668096 -0.000281373 -0.00078225)
(0.075808 -0.000383479 -0.000531087)
(0.0609767 -0.000324162 -0.000636454)
(0.0662084 -0.000287987 -0.000783661)
(0.0754906 -0.000367643 -0.000539595)
(0.0604225 -0.000321962 -0.000633248)
(0.0656063 -0.000294221 -0.000781702)
(0.0751678 -0.000357703 -0.000545701)
(0.0598634 -0.000322134 -0.000627013)
(0.064983 -0.00030063 -0.000776561)
(0.0748272 -0.000350069 -0.000547711)
(0.0592998 -0.00032594 -0.000618685)
(0.0643605 -0.000306619 -0.000767)
(0.0744801 -0.000347655 -0.000547817)
(0.0587335 -0.000331994 -0.000608341)
(0.0637339 -0.000315812 -0.000756221)
(0.0741224 -0.000345897 -0.000544228)
(0.0581641 -0.000323876 -0.000581803)
(0.0630963 -0.000322815 -0.000742317)
(0.0737519 -0.000350685 -0.000541181)
(0.0576047 -0.00029501 -0.000530825)
(0.0624808 -0.000317726 -0.000709993)
(0.0733872 -0.000342555 -0.00052214)
(0.0618679 -0.00030697 -0.000665524)
(0.0730113 -0.00032748 -0.000491498)
(0.0734185 -0.000267954 -0.000918949)
(0.0764517 -0.000271659 -0.00103848)
(0.0861348 -0.000267834 -0.00085099)
(0.0728175 -0.000296629 -0.000936492)
(0.0758358 -0.000315628 -0.00105305)
(0.0858864 -0.000289844 -0.000880839)
(0.0721812 -0.000317823 -0.000943287)
(0.0751842 -0.000344865 -0.00105644)
(0.0855998 -0.000308952 -0.000898635)
(0.071519 -0.000334922 -0.000943798)
(0.074505 -0.000367227 -0.0010529)
(0.085284 -0.000326607 -0.000909089)
(0.0708383 -0.000348935 -0.000939988)
(0.0738078 -0.000384897 -0.00104488)
(0.0849413 -0.000341368 -0.000914162)
(0.0701454 -0.000359742 -0.000931514)
(0.0730992 -0.000399034 -0.00103346)
(0.0845804 -0.000354244 -0.000914301)
(0.0694458 -0.00036867 -0.000919441)
(0.0723827 -0.000408367 -0.00101831)
(0.0842014 -0.000366306 -0.000910842)
(0.0687466 -0.000375162 -0.000905083)
(0.0716694 -0.000415834 -0.00100223)
(0.0838148 -0.000376462 -0.000903285)
(0.068054 -0.000376326 -0.000886524)
(0.0709523 -0.0004163 -0.000985432)
(0.0834171 -0.000384424 -0.000893157)
(0.0673727 -0.000374705 -0.000863587)
(0.0702502 -0.00040673 -0.000966303)
(0.0830205 -0.000388193 -0.000876628)
(0.0695505 -0.000394371 -0.000945126)
(0.0826217 -0.000389046 -0.000855336)
(0.0790677 -0.000292349 -0.00118705)
(0.0910681 -0.000189222 -0.00118708)
(0.0783975 -0.000340389 -0.0011863)
(0.0907717 -0.000249182 -0.0011926)
(0.0777003 -0.000374693 -0.00117821)
(0.0904429 -0.000297348 -0.00119109)
(0.0769847 -0.00040088 -0.00116513)
(0.0900898 -0.000337461 -0.00118416)
(0.0762576 -0.000421106 -0.00114865)
(0.0897176 -0.00037082 -0.00117251)
(0.0755251 -0.000436052 -0.0011298)
(0.089331 -0.000398304 -0.00115745)
(0.0747916 -0.000446327 -0.00110994)
(0.0889347 -0.000420182 -0.00113973)
(0.0740611 -0.000451754 -0.00109051)
(0.0885315 -0.000437454 -0.00112161)
(0.0733347 -0.000450791 -0.00107141)
(0.0881259 -0.000449027 -0.00110216)
(0.0726123 -0.000443351 -0.00105177)
(0.0877167 -0.000453916 -0.00108073)
(0.0873069 -0.000454067 -0.00105937)
(0.0431403 -0.000222367 1.99201e-05)
(0.0576166 -0.000217146 1.51188e-05)
(0.0496972 -0.000506376 1.93251e-05)
(0.0425803 -0.000191383 2.35313e-05)
(0.057118 -0.000217527 -2.89091e-06)
(0.0490459 -0.000439347 6.95757e-06)
(0.0420451 -0.000166011 2.82877e-05)
(0.056652 -0.000216662 -1.37232e-05)
(0.0484564 -0.000379735 1.59065e-06)
(0.0415306 -0.000146767 3.15943e-05)
(0.056169 -0.000209745 -1.91152e-05)
(0.0478727 -0.000342338 -3.17012e-06)
(0.0410343 -0.000130996 3.37448e-05)
(0.0557225 -0.000200302 -2.22295e-05)
(0.0473427 -0.000317664 -6.61969e-06)
(0.0405592 -0.000117753 3.50735e-05)
(0.055265 -0.00018776 -2.29644e-05)
(0.0468133 -0.000297625 -8.90596e-06)
(0.0401011 -0.000106158 3.52168e-05)
(0.0548355 -0.00017756 -2.37582e-05)
(0.0463248 -0.000281459 -1.13937e-05)
(0.039665 -9.64865e-05 3.42074e-05)
(0.0544066 -0.000162205 -2.27753e-05)
(0.0458448 -0.000266703 -1.45521e-05)
(0.0392443 -8.93521e-05 3.27132e-05)
(0.0539867 -0.000153927 -2.38167e-05)
(0.0453847 -0.000254043 -1.73961e-05)
(0.0388401 -8.46451e-05 2.99787e-05)
(0.0535818 -0.000153832 -2.85982e-05)
(0.0449481 -0.00023746 -1.50627e-05)
(0.0531809 -0.000151782 -3.29113e-05)
(0.0445311 -0.000224947 -1.49152e-05)
(0.0752904 -0.000298257 -1.91475e-05)
(0.0832651 -0.000469122 -0.000183787)
(0.0824734 -0.000610447 3.33261e-05)
(0.0748956 -0.00030925 -5.37909e-05)
(0.0830495 -0.000458022 -0.000228867)
(0.0821501 -0.000601877 -1.48607e-05)
(0.0744969 -0.000312342 -7.62934e-05)
(0.0828313 -0.000447641 -0.000261348)
(0.0818457 -0.000589439 -5.08601e-05)
(0.0740976 -0.000306695 -8.90352e-05)
(0.0825899 -0.000432864 -0.000281331)
(0.0815347 -0.000573715 -7.59443e-05)
(0.0736973 -0.000296183 -9.55907e-05)
(0.0823533 -0.000420671 -0.000295836)
(0.0812418 -0.000555993 -9.32904e-05)
(0.073297 -0.000283921 -9.8697e-05)
(0.0820954 -0.000407427 -0.000304426)
(0.0809416 -0.000534476 -0.000104923)
(0.0728957 -0.00026856 -9.8565e-05)
(0.0818386 -0.000398904 -0.00031207)
(0.080652 -0.000516629 -0.000113693)
(0.0724962 -0.000253928 -9.73497e-05)
(0.0815683 -0.000384817 -0.000312083)
(0.0803574 -0.000491061 -0.000118807)
(0.0720948 -0.000256092 -0.000102284)
(0.0812926 -0.000381021 -0.000315877)
(0.0800635 -0.00047819 -0.000124026)
(0.071684 -0.000265311 -0.00010963)
(0.0810156 -0.000392146 -0.000322412)
(0.0797718 -0.000477247 -0.000132085)
(0.0807122 -0.000397479 -0.000322563)
(0.0794617 -0.000470186 -0.000137267)
(0.0922839 -0.000539684 -0.0004266)
(0.0960762 -0.000414064 -0.000605103)
(0.0979108 -0.000827242 -0.000317176)
(0.0922717 -0.00051699 -0.000469817)
(0.0961399 -0.00041155 -0.00065383)
(0.0979914 -0.000787766 -0.000373213)
(0.0922384 -0.000495467 -0.000500123)
(0.0961667 -0.000411646 -0.000688691)
(0.098052 -0.000754357 -0.000418141)
(0.0921855 -0.000477831 -0.000522454)
(0.0961789 -0.000410496 -0.000712467)
(0.0981164 -0.000725599 -0.000452337)
(0.0921138 -0.000464948 -0.000539726)
(0.0961587 -0.000412024 -0.000731077)
(0.0981585 -0.000704391 -0.000481186)
(0.0920238 -0.000457136 -0.000553614)
(0.0961242 -0.00041357 -0.000743104)
(0.0982002 -0.000685423 -0.000503712)
(0.0919163 -0.000450028 -0.000562049)
(0.096063 -0.000421095 -0.000754379)
(0.0982218 -0.000670838 -0.000522568)
(0.0917961 -0.000446691 -0.000567598)
(0.0959869 -0.000421419 -0.000755955)
(0.0982406 -0.000653837 -0.000533343)
(0.0916621 -0.000451272 -0.000573053)
(0.0958974 -0.000430352 -0.000760237)
(0.098248 -0.000649294 -0.000544476)
(0.0915119 -0.000454467 -0.000571859)
(0.0957902 -0.000438987 -0.000758719)
(0.0982454 -0.000647755 -0.000551119)
(0.0956649 -0.00044083 -0.000748521)
(0.0982259 -0.000645531 -0.000551107)
(0.100309 -0.000316584 -0.000846901)
(0.102127 -0.000228021 -0.00102633)
(0.105164 -0.000536692 -0.000740993)
(0.10042 -0.000334037 -0.00088777)
(0.102243 -0.000267868 -0.00105778)
(0.105388 -0.000533587 -0.000791591)
(0.100499 -0.000353068 -0.000916457)
(0.102324 -0.000306093 -0.00107838)
(0.105586 -0.000535537 -0.000830474)
(0.100548 -0.000370852 -0.000936657)
(0.102379 -0.000340797 -0.00109074)
(0.105767 -0.000539705 -0.000859994)
(0.100569 -0.000386602 -0.00095004)
(0.102405 -0.000371146 -0.00109656)
(0.105925 -0.000544961 -0.00088305)
(0.100566 -0.000403011 -0.00095945)
(0.10241 -0.000397313 -0.00109672)
(0.106065 -0.000550619 -0.000899956)
(0.100542 -0.000418073 -0.000963793)
(0.102393 -0.000422271 -0.00109474)
(0.106188 -0.000558766 -0.000914193)
(0.100499 -0.000431651 -0.000963818)
(0.102358 -0.000441373 -0.00108737)
(0.106294 -0.000563511 -0.000920615)
(0.10044 -0.000445468 -0.00096067)
(0.102312 -0.000459954 -0.00107806)
(0.106391 -0.000571503 -0.000925588)
(0.100365 -0.00045421 -0.000949523)
(0.102246 -0.000473708 -0.00106274)
(0.106467 -0.000580002 -0.0009256)
(0.102175 -0.000480875 -0.00104322)
(0.106537 -0.000585688 -0.000919552)
(0.104162 -0.000164876 -0.00125024)
(0.108683 -0.000285951 -0.00118314)
(0.104249 -0.000228059 -0.00126031)
(0.108905 -0.000330496 -0.0012005)
(0.104306 -0.000284675 -0.00126352)
(0.109104 -0.000372027 -0.00121099)
(0.104338 -0.000334201 -0.00126057)
(0.109282 -0.000409783 -0.00121567)
(0.104347 -0.000376799 -0.00125234)
(0.109441 -0.000443229 -0.0012151)
(0.104336 -0.000413123 -0.00124031)
(0.109583 -0.000472328 -0.00121065)
(0.10431 -0.000443713 -0.00122586)
(0.10971 -0.000497605 -0.00120337)
(0.104269 -0.000468568 -0.00120859)
(0.109824 -0.000518956 -0.0011939)
(0.104218 -0.000487063 -0.00118664)
(0.109928 -0.000536889 -0.00118104)
(0.104159 -0.000500284 -0.00116239)
(0.110022 -0.000550847 -0.00116392)
(0.110109 -0.000562231 -0.00114572)
(0.0571386 -0.000707915 8.7727e-05)
(0.0727159 -0.000787952 0.000132244)
(0.0627128 -0.000968381 0.000205442)
(0.0564314 -0.000599379 6.86954e-05)
(0.0722065 -0.000715786 9.77455e-05)
(0.0618727 -0.000865365 0.000182006)
(0.0557827 -0.000519931 5.37317e-05)
(0.0717512 -0.000650796 7.03348e-05)
(0.0611221 -0.000774587 0.000160271)
(0.0551756 -0.00047305 4.16637e-05)
(0.071317 -0.000608576 4.71908e-05)
(0.0604088 -0.000709224 0.000144228)
(0.0546002 -0.000442594 3.24435e-05)
(0.0709218 -0.000577793 2.89715e-05)
(0.0597635 -0.000661731 0.000132258)
(0.0540521 -0.00041878 2.5066e-05)
(0.0705336 -0.000549693 1.49733e-05)
(0.0591363 -0.000623613 0.000121816)
(0.0535273 -0.000398895 1.81284e-05)
(0.0701715 -0.000526307 2.7939e-06)
(0.0585586 -0.000591351 0.000112705)
(0.0530251 -0.000380696 1.20716e-05)
(0.0698139 -0.000501409 -7.12313e-06)
(0.0579954 -0.00056495 0.000102899)
(0.0525424 -0.000360277 9.54887e-06)
(0.0694706 -0.000484557 -1.67237e-05)
(0.0574602 -0.000537556 9.69788e-05)
(0.0520781 -0.000339675 9.03564e-06)
(0.0691397 -0.000464682 -2.24103e-05)
(0.0569502 -0.000509272 9.28301e-05)
(0.0688095 -0.000448419 -2.76121e-05)
(0.0564527 -0.000486383 8.68139e-05)
(0.0904592 -0.000881267 0.000148767)
(0.0970081 -0.00103051 2.98121e-05)
(0.0944178 -0.00114068 0.000257546)
(0.0902365 -0.000841694 0.000103407)
(0.0969658 -0.000976137 -2.40846e-05)
(0.094188 -0.00107316 0.000232865)
(0.0900335 -0.000806003 6.57376e-05)
(0.096928 -0.00092717 -7.04339e-05)
(0.0939803 -0.0010094 0.000209653)
(0.0898451 -0.000776336 3.48195e-05)
(0.096913 -0.000891524 -0.000110146)
(0.0938069 -0.0009564 0.000188343)
(0.0896675 -0.000746568 1.05866e-05)
(0.0968909 -0.00086191 -0.000142688)
(0.0936405 -0.000909883 0.000168883)
(0.0894962 -0.000719318 -9.19251e-06)
(0.0968845 -0.000833279 -0.00016819)
(0.0934996 -0.000867175 0.000151236)
(0.0893276 -0.000690799 -2.50543e-05)
(0.0968686 -0.000808979 -0.000188957)
(0.0933602 -0.000833152 0.000133704)
(0.0891612 -0.000667431 -3.91461e-05)
(0.0968596 -0.000780732 -0.000204707)
(0.0932339 -0.000796705 0.000120213)
(0.0889907 -0.000653841 -5.27507e-05)
(0.0968463 -0.000767877 -0.000221295)
(0.0931103 -0.000774192 0.000105504)
(0.0888175 -0.000638702 -6.39869e-05)
(0.0968269 -0.000758754 -0.000234999)
(0.0929886 -0.000752425 9.08557e-05)
(0.0967999 -0.000749551 -0.000246346)
(0.0928662 -0.000730807 7.84994e-05)
(0.104285 -0.00105294 -0.000170044)
(0.107263 -0.000902162 -0.000353691)
(0.107122 -0.00125915 3.44665e-06)
(0.104453 -0.000998326 -0.000224312)
(0.107507 -0.000860013 -0.000407196)
(0.107294 -0.0011864 -3.5207e-05)
(0.104624 -0.000955483 -0.000272574)
(0.107744 -0.00082737 -0.000454383)
(0.10747 -0.00112572 -7.22465e-05)
(0.104795 -0.000922188 -0.000314232)
(0.107984 -0.000803003 -0.00049509)
(0.10766 -0.00107619 -0.000106647)
(0.104965 -0.000893591 -0.000348632)
(0.108212 -0.000784432 -0.000529132)
(0.107847 -0.00103503 -0.000137325)
(0.105131 -0.000866021 -0.000375741)
(0.108438 -0.000767699 -0.000556611)
(0.108042 -0.000998561 -0.000162856)
(0.105297 -0.000840021 -0.00039693)
(0.108653 -0.000751739 -0.000578119)
(0.108233 -0.000964824 -0.00018386)
(0.105456 -0.000821942 -0.000415499)
(0.108865 -0.000736862 -0.000594829)
(0.108429 -0.000934432 -0.00020043)
(0.105611 -0.000813096 -0.000432455)
(0.10907 -0.00073143 -0.00060946)
(0.108623 -0.000914597 -0.000218223)
(0.10576 -0.000809246 -0.000446576)
(0.109262 -0.000730088 -0.000621575)
(0.108813 -0.000900458 -0.000234347)
(0.10945 -0.000732159 -0.000631616)
(0.109001 -0.000888696 -0.000247443)
(0.110721 -0.00073307 -0.000600155)
(0.11207 -0.000587927 -0.00080235)
(0.113075 -0.000884146 -0.000390221)
(0.111043 -0.000711459 -0.000646795)
(0.112409 -0.000584377 -0.000837291)
(0.113422 -0.000845271 -0.000427604)
(0.111355 -0.000696667 -0.000686419)
(0.112735 -0.000585372 -0.000866182)
(0.113762 -0.000814759 -0.000461277)
(0.111656 -0.000687027 -0.00071935)
(0.11305 -0.000589262 -0.000889239)
(0.114095 -0.000790588 -0.000490807)
(0.111946 -0.000681011 -0.000746218)
(0.113353 -0.000595074 -0.000907072)
(0.114421 -0.000771677 -0.000515983)
(0.112224 -0.000677101 -0.00076783)
(0.113643 -0.000601164 -0.000920412)
(0.11474 -0.000756073 -0.00053682)
(0.112493 -0.000673993 -0.000784526)
(0.113923 -0.000607272 -0.000929994)
(0.115051 -0.00074309 -0.000554019)
(0.112748 -0.000672755 -0.000797003)
(0.114192 -0.000612621 -0.000935796)
(0.115354 -0.000731646 -0.000567604)
(0.112996 -0.000675331 -0.000806499)
(0.114451 -0.000620187 -0.000938328)
(0.115651 -0.000724567 -0.000579423)
(0.113233 -0.000681508 -0.00081406)
(0.1147 -0.000629608 -0.000938268)
(0.115939 -0.000721467 -0.000589457)
(0.114941 -0.000639796 -0.000936529)
(0.116222 -0.000721318 -0.000597918)
(0.113822 -0.000429178 -0.00105004)
(0.115973 -0.000505615 -0.000818793)
(0.114168 -0.000449603 -0.00106647)
(0.116367 -0.000509298 -0.00083277)
(0.114498 -0.000470499 -0.00107807)
(0.116748 -0.000515023 -0.000843775)
(0.114815 -0.000490897 -0.00108538)
(0.117117 -0.000522019 -0.000851815)
(0.115119 -0.000509869 -0.00108905)
(0.117476 -0.000529373 -0.000857155)
(0.115411 -0.000527077 -0.00108975)
(0.117824 -0.000536446 -0.000860035)
(0.115692 -0.000542473 -0.00108793)
(0.118162 -0.000543063 -0.000860812)
(0.115963 -0.000556523 -0.00108353)
(0.118492 -0.000549131 -0.000859755)
(0.116225 -0.000569872 -0.00107649)
(0.118813 -0.000555268 -0.000856578)
(0.116478 -0.000582414 -0.00106702)
(0.119127 -0.000561814 -0.000851528)
(0.119434 -0.000568339 -0.000845077)
(0.0681656 -0.00118586 0.000270521)
(0.0826867 -0.00128603 0.000286371)
(0.0724783 -0.00134919 0.000281695)
(0.0672617 -0.00109128 0.000259256)
(0.0820765 -0.00118797 0.000284485)
(0.0715195 -0.0012527 0.000301383)
(0.066436 -0.0010085 0.000244725)
(0.0815288 -0.00109961 0.00027663)
(0.0706329 -0.00116676 0.000310934)
(0.0656753 -0.000940067 0.000230122)
(0.0810338 -0.0010248 0.000266011)
(0.0698039 -0.00109546 0.000312361)
(0.0649685 -0.000883471 0.000216283)
(0.0805793 -0.000962036 0.000254222)
(0.0690292 -0.00103592 0.000308847)
(0.0643061 -0.000835702 0.000203258)
(0.0801628 -0.000909609 0.000241676)
(0.0682992 -0.000985016 0.000302573)
(0.0636798 -0.000795668 0.000190862)
(0.0797745 -0.000865293 0.000228974)
(0.0676091 -0.000941313 0.00029402)
(0.0630835 -0.000759572 0.000179958)
(0.0794107 -0.000828648 0.000216651)
(0.0669508 -0.000904139 0.000284352)
(0.062512 -0.000723845 0.000171282)
(0.0790652 -0.000794245 0.000205748)
(0.0663203 -0.000868643 0.00027446)
(0.0619617 -0.000691273 0.000162845)
(0.0787366 -0.000761469 0.000195666)
(0.0657156 -0.000835015 0.000264317)
(0.0784204 -0.000734529 0.000185004)
(0.0651289 -0.000804886 0.000253432)
(0.0985266 -0.00137846 0.000313345)
(0.104186 -0.00149115 0.000228821)
(0.100873 -0.00156217 0.000261469)
(0.0983146 -0.00128276 0.000315203)
(0.10415 -0.00139479 0.000224279)
(0.100665 -0.00146433 0.000295972)
(0.0981363 -0.00119847 0.000311442)
(0.104138 -0.00131008 0.000214394)
(0.100484 -0.0013754 0.000320096)
(0.0979864 -0.00112599 0.000303664)
(0.104152 -0.00123793 0.000201325)
(0.100331 -0.00129713 0.000335978)
(0.0978604 -0.00106405 0.000292972)
(0.104179 -0.00117687 0.000186454)
(0.100195 -0.00122834 0.000346462)
(0.0977533 -0.00101186 0.000280389)
(0.104224 -0.00112472 0.000171115)
(0.100081 -0.00116882 0.000351717)
(0.0976619 -0.000967942 0.000267358)
(0.104278 -0.00108043 0.000156056)
(0.099981 -0.00111895 0.000352093)
(0.0975809 -0.000930874 0.00025465)
(0.104344 -0.00104146 0.000142312)
(0.0998966 -0.00107472 0.0003496)
(0.0975098 -0.00089747 0.000241801)
(0.104415 -0.00100925 0.000128616)
(0.0998214 -0.00103657 0.00034484)
(0.0974465 -0.00086677 0.000228714)
(0.10449 -0.000979736 0.000114585)
(0.099754 -0.00100031 0.000338693)
(0.104572 -0.000952895 0.000101002)
(0.099697 -0.000967011 0.000331039)
(0.110353 -0.00142524 0.000114317)
(0.112924 -0.00125134 -4.74911e-05)
(0.111835 -0.00154777 0.000145375)
(0.110538 -0.00134355 9.77658e-05)
(0.113193 -0.00117995 -6.56749e-05)
(0.112031 -0.00146544 0.000152887)
(0.110734 -0.00127377 7.82559e-05)
(0.113468 -0.00111947 -8.5824e-05)
(0.112234 -0.00139299 0.000155363)
(0.110941 -0.00121431 5.7632e-05)
(0.113748 -0.00106788 -0.000106561)
(0.112446 -0.00132941 0.000153522)
(0.111156 -0.00116372 3.77212e-05)
(0.114031 -0.00102406 -0.000126651)
(0.112664 -0.00127412 0.000149314)
(0.111377 -0.00111991 1.96638e-05)
(0.114316 -0.00098633 -0.000144896)
(0.112888 -0.00122586 0.000144452)
(0.111603 -0.00108112 3.82281e-06)
(0.114602 -0.000953179 -0.000161026)
(0.113116 -0.001183 0.000139755)
(0.111832 -0.00104789 -1.08649e-05)
(0.114887 -0.000924168 -0.000174821)
(0.113348 -0.00114483 0.00013462)
(0.112065 -0.00102093 -2.56255e-05)
(0.115173 -0.000901013 -0.000187966)
(0.113583 -0.00111242 0.000127866)
(0.112299 -0.000997659 -3.98105e-05)
(0.115457 -0.000882739 -0.000200783)
(0.11382 -0.00108511 0.000119872)
(0.115741 -0.000866661 -0.000212234)
(0.11406 -0.00105969 0.000111213)
(0.115938 -0.00101778 -0.000232385)
(0.117071 -0.000831355 -0.000409972)
(0.117067 -0.0010915 -0.000109513)
(0.116305 -0.000968356 -0.000254402)
(0.117473 -0.00079722 -0.000425301)
(0.11745 -0.00104021 -0.000118568)
(0.116669 -0.000926888 -0.000275856)
(0.117868 -0.000769081 -0.000440085)
(0.117829 -0.000995584 -0.000128683)
(0.11703 -0.000892051 -0.000295959)
(0.118258 -0.00074579 -0.000453764)
(0.118203 -0.000956776 -0.000139115)
(0.117387 -0.000862488 -0.000314148)
(0.118642 -0.000726513 -0.000465953)
(0.118574 -0.000923051 -0.000149308)
(0.117741 -0.000837016 -0.000330151)
(0.11902 -0.000710309 -0.000476333)
(0.118942 -0.000893476 -0.000158853)
(0.11809 -0.000815017 -0.000343965)
(0.119392 -0.000696481 -0.000484936)
(0.119305 -0.000867378 -0.000167521)
(0.118435 -0.000796815 -0.000356074)
(0.119758 -0.000684758 -0.000491821)
(0.119665 -0.000844509 -0.000175377)
(0.118776 -0.000782898 -0.000367122)
(0.120119 -0.000675826 -0.000497454)
(0.120021 -0.000825349 -0.000182865)
(0.119113 -0.000772421 -0.000377021)
(0.120475 -0.000670025 -0.000502101)
(0.120373 -0.000810035 -0.000190365)
(0.120827 -0.000665927 -0.000505498)
(0.120722 -0.00079713 -0.000197467)
(0.118654 -0.00059957 -0.000610859)
(0.119638 -0.000622803 -0.000418934)
(0.119087 -0.000587429 -0.000618686)
(0.120095 -0.000604426 -0.000422417)
(0.119509 -0.000578155 -0.000625397)
(0.120543 -0.000589206 -0.00042581)
(0.119923 -0.000571091 -0.000630847)
(0.12098 -0.000576624 -0.000428932)
(0.120328 -0.000565669 -0.000634953)
(0.12141 -0.000566153 -0.000431592)
(0.120725 -0.000561434 -0.000637709)
(0.121831 -0.000557334 -0.00043364)
(0.121115 -0.000558127 -0.000639186)
(0.122245 -0.00054983 -0.00043503)
(0.121499 -0.000555797 -0.000639427)
(0.122652 -0.00054348 -0.000435791)
(0.121875 -0.000554783 -0.000638566)
(0.123053 -0.000538394 -0.000435929)
(0.122246 -0.000554935 -0.000636675)
(0.123448 -0.000534855 -0.00043566)
(0.123837 -0.00053218 -0.000434742)
(0.0761143 -0.00143294 0.000298508)
(0.0891757 -0.00154294 0.000230044)
(0.0783979 -0.00145363 0.000247172)
(0.0751679 -0.00134978 0.000332794)
(0.0885747 -0.0014541 0.000282922)
(0.077499 -0.00138705 0.000304417)
(0.0742736 -0.00127742 0.000356484)
(0.0880118 -0.00137409 0.000323023)
(0.0766317 -0.00132569 0.000341294)
(0.0734281 -0.0012147 0.000370966)
(0.0874838 -0.00130323 0.000352762)
(0.0757945 -0.00127062 0.000367186)
(0.0726275 -0.0011597 0.000377926)
(0.0869882 -0.00123997 0.00037438)
(0.0749876 -0.00122124 0.000384588)
(0.0718669 -0.0011117 0.000378699)
(0.0865228 -0.00118472 0.000388173)
(0.0742104 -0.00117694 0.000395688)
(0.0711409 -0.00106999 0.000374642)
(0.0860841 -0.00113769 0.000394684)
(0.0734602 -0.00113758 0.000401013)
(0.0704458 -0.00103252 0.000367657)
(0.0856694 -0.0010954 0.00039576)
(0.0727352 -0.00110215 0.000401496)
(0.0697777 -0.000997923 0.000358545)
(0.0852747 -0.00105662 0.000393871)
(0.0720334 -0.00106916 0.000398561)
(0.069133 -0.00096581 0.000347583)
(0.0848977 -0.00102156 0.000389209)
(0.0713525 -0.00103851 0.000392881)
(0.0845372 -0.00098846 0.000382214)
(0.0706911 -0.00100979 0.000385099)
(0.103133 -0.001661 0.000231071)
(0.108139 -0.00171631 0.000193975)
(0.104119 -0.00165924 0.000129967)
(0.102958 -0.00156977 0.000289894)
(0.108146 -0.00162909 0.000242262)
(0.104009 -0.001587 0.000209125)
(0.102802 -0.00148625 0.000336242)
(0.108164 -0.00154896 0.00028047)
(0.103902 -0.00152009 0.000273972)
(0.102663 -0.00141061 0.00037353)
(0.108194 -0.00147655 0.000310233)
(0.103801 -0.00145882 0.00032729)
(0.10254 -0.00134337 0.00040246)
(0.108234 -0.0014116 0.000333995)
(0.103705 -0.00140181 0.000371414)
(0.102433 -0.00128563 0.000422344)
(0.108284 -0.00135439 0.000351224)
(0.103614 -0.00134931 0.000406107)
(0.102341 -0.00123509 0.000434286)
(0.108344 -0.00130483 0.000362816)
(0.103531 -0.00130293 0.000432225)
(0.10226 -0.00118928 0.000440785)
(0.108413 -0.00126013 0.000369578)
(0.103454 -0.0012601 0.000450916)
(0.10219 -0.00114785 0.000443564)
(0.108488 -0.00122034 0.000372992)
(0.103383 -0.0012208 0.000464431)
(0.102129 -0.00110894 0.000442834)
(0.10857 -0.00118439 0.000373195)
(0.103316 -0.00118451 0.000474281)
(0.108657 -0.00114981 0.000370608)
(0.103255 -0.00114756 0.000479254)
(0.113581 -0.00159442 0.000179199)
(0.115881 -0.00138349 8.38319e-05)
(0.114008 -0.00154475 0.000181926)
(0.113797 -0.00152171 0.000206291)
(0.116185 -0.00132077 0.000101275)
(0.114261 -0.00149036 0.000220151)
(0.114017 -0.00145547 0.000227448)
(0.116487 -0.00126348 0.000114692)
(0.114511 -0.00143855 0.000252871)
(0.11424 -0.00139587 0.000243201)
(0.116789 -0.00121159 0.000124126)
(0.114759 -0.00139079 0.000279996)
(0.114467 -0.00134277 0.000254895)
(0.117092 -0.0011651 0.000130588)
(0.115006 -0.00134688 0.000302395)
(0.114698 -0.00129549 0.000263739)
(0.117394 -0.00112366 0.000134898)
(0.115252 -0.00130676 0.000320725)
(0.114933 -0.00125319 0.000270221)
(0.117696 -0.00108664 0.000137815)
(0.115498 -0.00127015 0.00033582)
(0.11517 -0.00121549 0.000273962)
(0.117999 -0.0010534 0.000139242)
(0.115744 -0.00123663 0.00034788)
(0.11541 -0.0011823 0.000274941)
(0.118301 -0.00102407 0.000138817)
(0.115989 -0.00120608 0.000356843)
(0.115653 -0.0011523 0.000273607)
(0.118603 -0.000998607 0.000136797)
(0.116234 -0.00117857 0.000363137)
(0.118905 -0.000975256 0.000133552)
(0.116478 -0.00115212 0.000366796)
(0.118627 -0.00111643 7.06938e-06)
(0.119634 -0.000895186 -0.000108327)
(0.118844 -0.00105253 0.000123233)
(0.119023 -0.00107006 1.02113e-05)
(0.120072 -0.000859185 -0.000105286)
(0.11926 -0.00101741 0.000130298)
(0.119413 -0.00102813 1.14338e-05)
(0.120501 -0.000827005 -0.000103907)
(0.119667 -0.000984646 0.000136117)
(0.119799 -0.000990387 1.12518e-05)
(0.120924 -0.000798345 -0.000103726)
(0.120067 -0.000954437 0.000140544)
(0.12018 -0.000956538 1.00946e-05)
(0.12134 -0.000772886 -0.000104302)
(0.120462 -0.000926796 0.000143818)
(0.120558 -0.00092619 8.28252e-06)
(0.12175 -0.000750273 -0.000105326)
(0.120851 -0.000901521 0.000146068)
(0.120932 -0.000899034 6.00694e-06)
(0.122155 -0.000730146 -0.000106598)
(0.121235 -0.000878404 0.00014748)
(0.121303 -0.000874985 3.21212e-06)
(0.122555 -0.000712292 -0.000108047)
(0.121614 -0.000857322 0.000148195)
(0.121671 -0.000854142 -2.1132e-07)
(0.122951 -0.000696737 -0.000109777)
(0.121989 -0.000838291 0.000148199)
(0.122036 -0.00083597 -4.12232e-06)
(0.123342 -0.000683637 -0.00011182)
(0.12236 -0.000821494 0.000147547)
(0.123729 -0.000672059 -0.000113981)
(0.122727 -0.000805887 0.000146333)
(0.12112 -0.000628492 -0.000224973)
(0.121257 -0.000406548 -0.000351019)
(0.121257 -0.000558826 -2.73855e-05)
(0.121593 -0.000606852 -0.000223806)
(0.121744 -0.000393473 -0.000344785)
(0.121744 -0.000541663 -2.78157e-05)
(0.122056 -0.000588183 -0.000223533)
(0.12222 -0.000382121 -0.000339314)
(0.12222 -0.000526377 -2.88001e-05)
(0.12251 -0.000572045 -0.000223785)
(0.122686 -0.000372212 -0.000334521)
(0.122686 -0.000512814 -3.00372e-05)
(0.122956 -0.000558008 -0.000224263)
(0.123143 -0.000363512 -0.000330268)
(0.123144 -0.000500769 -3.13261e-05)
(0.123395 -0.000545739 -0.000224784)
(0.123593 -0.000355841 -0.000326424)
(0.123593 -0.000490047 -3.25713e-05)
(0.123827 -0.000534998 -0.000225259)
(0.124034 -0.000349055 -0.000322905)
(0.124034 -0.000480482 -3.37196e-05)
(0.124252 -0.000525677 -0.00022567)
(0.124469 -0.000343067 -0.000319679)
(0.124469 -0.000471968 -3.47532e-05)
(0.124672 -0.00051781 -0.000226056)
(0.124898 -0.000337861 -0.000316751)
(0.124898 -0.000464489 -3.56777e-05)
(0.125086 -0.000511176 -0.000226394)
(0.125321 -0.000333521 -0.00031421)
(0.125321 -0.000458135 -3.65266e-05)
(0.125738 -0.000329726 -0.000311801)
(0.125739 -0.000452448 -3.72693e-05)
(0.121885 -0.000172197 -0.000471088)
(0.122 -8.75575e-05 -0.000239641)
(0.122375 -0.000169308 -0.00046057)
(0.122505 -8.5937e-05 -0.000233985)
(0.122854 -0.000166568 -0.000450606)
(0.122998 -8.44312e-05 -0.000228697)
(0.123323 -0.000164007 -0.000441312)
(0.123481 -8.30385e-05 -0.000223786)
(0.123784 -0.000161637 -0.000432722)
(0.123955 -8.17611e-05 -0.000219251)
(0.124236 -0.000159449 -0.000424811)
(0.124419 -8.05884e-05 -0.000215077)
(0.124681 -0.000157435 -0.000417559)
(0.124876 -7.95122e-05 -0.000211242)
(0.12512 -0.0001556 -0.000410956)
(0.125325 -7.85259e-05 -0.000207736)
(0.125552 -0.000153977 -0.000405058)
(0.125768 -7.76363e-05 -0.000204558)
(0.125978 -0.000152532 -0.000399731)
(0.126204 -7.68674e-05 -0.00020177)
(0.126635 -7.61622e-05 -0.000199184)
(0.0798243 -0.00140695 0.0002538)
(0.0919753 -0.00147745 0.000133358)
(0.0798061 -0.00130807 0.000234822)
(0.0790057 -0.00136251 0.000314138)
(0.0915257 -0.00143101 0.000215519)
(0.0790696 -0.00128798 0.00030155)
(0.0781959 -0.00131856 0.00035385)
(0.0910746 -0.00138609 0.000275754)
(0.0783196 -0.00126295 0.000345279)
(0.077398 -0.0012768 0.000383482)
(0.0906252 -0.00134351 0.000324195)
(0.0775636 -0.00123558 0.000378192)
(0.0766149 -0.00123812 0.000405601)
(0.0901796 -0.00130292 0.000363194)
(0.0768068 -0.00120761 0.000403514)
(0.0758481 -0.00120263 0.000421363)
(0.0897405 -0.00126391 0.000394188)
(0.0760537 -0.00118004 0.000422318)
(0.0750985 -0.00116977 0.000431096)
(0.0893092 -0.00122764 0.00041785)