/*--------------------------------*- C++ -*----------------------------------*\
| =========                 |                                                 |
| \\      /  F ield         | OpenFOAM: The Open Source CFD Toolbox           |
|  \\    /   O peration     | Version:  2212                                  |
|   \\  /    A nd           | Website:  www.openfoam.com                      |
|    \\/     M anipulation  |                                                 |
\*---------------------------------------------------------------------------*/
FoamFile
{
    version     2.0;
    format      ascii;
    arch        "LSB;label=32;scalar=64";
    class       surfaceVectorField;
    location    "2.4";
    object      Uf;
}
// * * * * * * * * * * * * * * * * * * * * * * * * * * * * * * * * * * * * * //

dimensions      [0 1 -1 0 0 0 0];

internalField   nonuniform List<vector> 
1805
(
(0.0772763 -0.000186336 -0.00252821)
(0.0879949 -0.000722146 -0.00177396)
(0.0759425 0.0012469 -0.00265932)
(0.0784356 -0.00070493 -0.00226709)
(0.0886663 -0.00126243 -0.00173299)
(0.0772282 0.00054472 -0.00239702)
(0.0893709 -0.00150906 -0.00152406)
(0.0784956 2.7819e-05 -0.00191215)
(0.10056 -0.00170006 -0.00103044)
(0.104615 -0.00155184 -0.000627877)
(0.100528 -0.000900471 -0.000618631)
(0.10091 -0.00194017 -0.00106765)
(0.104922 -0.00175272 -0.000751063)
(0.100703 -0.00110854 -0.000721521)
(0.10526 -0.00188358 -0.000708328)
(0.10098 -0.00123581 -0.000675395)
(0.10919 -0.00173458 -0.000213727)
(0.10905 -0.00121964 6.37553e-05)
(0.109559 -0.001809 -0.000265778)
(0.109432 -0.00123655 -1.01058e-05)
(0.10982 -0.00127121 -5.92761e-06)
(0.0756768 0.00201186 -0.00251878)
(0.0871344 0.000999619 -0.00147492)
(0.0750845 0.00260334 -0.00219184)
(0.077406 0.00132278 -0.00201697)
(0.087986 0.000543704 -0.00119818)
(0.0766006 0.00204958 -0.00153439)
(0.0788303 0.000723957 -0.00151267)
(0.0888812 0.000165503 -0.00092351)
(0.0780685 0.0014175 -0.00105072)
(0.0798894 0.000291329 -0.00109378)
(0.0898032 -0.000112432 -0.00068096)
(0.0793213 0.000896026 -0.000729005)
(0.0806028 -1.82383e-05 -0.000745587)
(0.090553 -0.000313927 -0.000471268)
(0.0801831 0.000477908 -0.000480721)
(0.080994 -0.000237318 -0.000449007)
(0.0910794 -0.000480421 -0.000259305)
(0.0806904 0.000159494 -0.000267744)
(0.0811272 -0.000392958 -0.000196896)
(0.0914157 -0.000594431 -7.17279e-05)
(0.0809232 -7.80933e-05 -7.94017e-05)
(0.0810618 -0.000507498 1.41855e-05)
(0.0916002 -0.000669789 8.96395e-05)
(0.0809465 -0.000258561 8.54406e-05)
(0.0808435 -0.000596643 0.000191804)
(0.0916599 -0.000718259 0.000225079)
(0.0808015 -0.000398951 0.000225626)
(0.0805026 -0.000662428 0.000345993)
(0.0916207 -0.000754088 0.000344803)
(0.0805272 -0.000512329 0.000348374)
(0.0800642 -0.000707016 0.00046603)
(0.0915018 -0.000776175 0.00045366)
(0.0801486 -0.00059525 0.000457843)
(0.0913206 -0.000793213 0.00053637)
(0.0796881 -0.00065805 0.000538937)
(0.100428 -0.000298404 -0.000304994)
(0.10462 -0.000408277 -4.3641e-05)
(0.100269 0.000199578 0.00024102)
(0.100658 -0.000379474 -0.000311413)
(0.104861 -0.000395898 -0.000111429)
(0.100461 0.000233261 0.000357334)
(0.101122 -0.000491136 -0.000248444)
(0.105183 -0.000483791 -6.68268e-05)
(0.100781 0.000149505 0.000430577)
(0.101654 -0.000600534 -0.000159555)
(0.105684 -0.000581407 3.04602e-06)
(0.101307 1.5936e-05 0.000455898)
(0.102172 -0.000696134 -5.45319e-05)
(0.10623 -0.000668432 8.21065e-05)
(0.10186 -0.000129612 0.000475736)
(0.102646 -0.00077401 6.07456e-05)
(0.106742 -0.000745423 0.000172782)
(0.102351 -0.000272251 0.000501199)
(0.103049 -0.000828472 0.000174133)
(0.107204 -0.000807718 0.000267311)
(0.102774 -0.000398017 0.000529797)
(0.103378 -0.00085472 0.000273775)
(0.107613 -0.000847901 0.000354352)
(0.103129 -0.00049339 0.000556375)
(0.103644 -0.000862848 0.000362422)
(0.107971 -0.000866781 0.00042985)
(0.103423 -0.000561227 0.000582632)
(0.103856 -0.000867065 0.000447195)
(0.108284 -0.000876824 0.000500612)
(0.103663 -0.000615533 0.000615872)
(0.104026 -0.000871762 0.000527883)
(0.108559 -0.000884397 0.000567475)
(0.103857 -0.000662169 0.000654582)
(0.108802 -0.000889855 0.000628949)
(0.104012 -0.000702217 0.000696743)
(0.109206 -0.000672711 0.000313736)
(0.109001 -0.000287433 0.000845658)
(0.109635 -0.000655861 0.000289462)
(0.109382 -0.0002051 0.000828628)
(0.110124 -0.000686752 0.000302573)
(0.109779 -0.000216819 0.000836834)
(0.110639 -0.000728729 0.000332246)
(0.11027 -0.000262717 0.000839922)
(0.111154 -0.000770263 0.0003717)
(0.110786 -0.000322098 0.000835775)
(0.111653 -0.000807232 0.000417993)
(0.111282 -0.000387992 0.000830119)
(0.112127 -0.000835757 0.000466706)
(0.111752 -0.000453017 0.000824529)
(0.11257 -0.000853696 0.00051422)
(0.112192 -0.000510151 0.000820551)
(0.11298 -0.000862554 0.000559144)
(0.112605 -0.000555889 0.000820466)
(0.11336 -0.000866108 0.00060132)
(0.112988 -0.000592837 0.000824034)
(0.113718 -0.000867112 0.00064076)
(0.113348 -0.000624159 0.000830422)
(0.113689 -0.000650982 0.000839307)
(0.0757283 0.0026305 -0.00122631)
(0.0868573 0.00173507 -0.000325829)
(0.0757612 0.00286686 -0.000346282)
(0.0773688 0.00210788 -0.000617343)
(0.0877849 0.001474 0.000249513)
(0.077091 0.00247325 0.000469472)
(0.0786852 0.00156413 -0.000300101)
(0.0887386 0.00118726 0.000468424)
(0.0781409 0.00192883 0.000644215)
(0.079643 0.00106525 -0.000137214)
(0.0896356 0.000873975 0.000512376)
(0.078797 0.00137747 0.000560603)
(0.0802731 0.000642513 -1.79873e-05)
(0.0903177 0.000558264 0.000526757)
(0.0790761 0.000887362 0.000477369)
(0.0806203 0.000307033 8.9039e-05)
(0.090791 0.000271416 0.000549937)
(0.0791169 0.000498978 0.000435494)
(0.0807428 4.46628e-05 0.000190402)
(0.0911 4.40438e-05 0.000562415)
(0.0789958 0.000195454 0.000422675)
(0.0806853 -0.000160788 0.000285464)
(0.0912764 -0.000136429 0.000577095)
(0.0787539 -4.11391e-05 0.000432012)
(0.0804874 -0.000322599 0.000374201)
(0.0913422 -0.000280153 0.000597154)
(0.0784167 -0.000222608 0.000458089)
(0.0801781 -0.000450254 0.000455674)
(0.0913191 -0.000395877 0.000624186)
(0.0780076 -0.000361587 0.000496159)
(0.079773 -0.000549273 0.000528557)
(0.0912219 -0.000488393 0.000653672)
(0.0775378 -0.000473428 0.000538808)
(0.0910634 -0.00056296 0.000686508)
(0.0770169 -0.000552493 0.00058115)
(0.100013 0.00076472 0.000943108)
(0.104301 0.000506891 0.000957087)
(0.100151 0.00102604 0.00170362)
(0.100464 0.000767439 0.00110499)
(0.104625 0.000606724 0.00108732)
(0.100382 0.00107315 0.00204828)
(0.101011 0.000651418 0.0011286)
(0.105016 0.000544942 0.00117395)
(0.100702 0.000973691 0.0020406)
(0.101544 0.0004783 0.00108137)
(0.105534 0.000424807 0.00117266)
(0.101083 0.000801008 0.00187769)
(0.102037 0.000284143 0.00102021)
(0.106058 0.000278258 0.00113634)
(0.101405 0.000598571 0.0016834)
(0.102478 9.47887e-05 0.000960757)
(0.106534 0.000119953 0.00109325)
(0.101656 0.000392096 0.00149339)
(0.102857 -6.9695e-05 0.000905473)
(0.106962 -2.86762e-05 0.00104692)
(0.101861 0.000202115 0.00132879)
(0.103177 -0.000205117 0.000860621)
(0.107346 -0.000156392 0.00100292)
(0.102031 3.87973e-05 0.00119619)
(0.103444 -0.000317976 0.000832776)
(0.10769 -0.000263869 0.000969202)
(0.102171 -9.97105e-05 0.00109215)
(0.103665 -0.000413369 0.000821427)
(0.107995 -0.000355857 0.000948479)
(0.102286 -0.000217278 0.00101724)
(0.103844 -0.00049439 0.000822661)
(0.108267 -0.000434722 0.000938213)
(0.10238 -0.000316836 0.00096707)
(0.108511 -0.000502425 0.00093597)
(0.102453 -0.000402347 0.000934954)
(0.109086 0.000139028 0.00131247)
(0.11085 -5.66878e-05 0.00132203)
(0.108228 0.000236172 0.00184403)
(0.109468 0.000200356 0.0013367)
(0.111272 2.17357e-05 0.0013443)
(0.108707 0.000327775 0.00198886)
(0.109939 0.000185158 0.00134838)
(0.111705 4.04122e-05 0.00136326)
(0.109153 0.000355516 0.0020385)
(0.110432 0.000128135 0.00132517)
(0.112209 2.29153e-05 0.00134986)
(0.109631 0.000328919 0.00197673)
(0.110916 4.78491e-05 0.00128019)
(0.112728 -1.55074e-05 0.00131089)
(0.110075 0.000267078 0.00186022)
(0.111381 -4.30859e-05 0.00122641)
(0.113227 -6.6572e-05 0.00125902)
(0.110463 0.000183945 0.00172523)
(0.11182 -0.000133624 0.00117193)
(0.113703 -0.000122145 0.0012016)
(0.110808 9.39185e-05 0.00159194)
(0.112231 -0.00021635 0.00112306)
(0.114156 -0.000175374 0.00114425)
(0.111126 6.81128e-06 0.00147263)
(0.112616 -0.000289089 0.00108296)
(0.114586 -0.00022313 0.00109247)
(0.111423 -7.26524e-05 0.00137393)
(0.112978 -0.000353051 0.00105164)
(0.114995 -0.000265897 0.0010482)
(0.111704 -0.000144888 0.00129102)
(0.113322 -0.000409494 0.00102827)
(0.115385 -0.000304438 0.00101157)
(0.111976 -0.000210299 0.0012239)
(0.11576 -0.000339043 0.000982155)
(0.112241 -0.000268914 0.00117066)
(0.113084 -0.000150777 0.00132231)
(0.113668 -0.000116519 0.00115244)
(0.112061 -5.93467e-05 0.00169914)
(0.113579 -0.000122156 0.00134559)
(0.114228 -8.72185e-05 0.00116078)
(0.112561 -2.71746e-05 0.00176769)
(0.114102 -0.000111588 0.00134577)
(0.114743 -6.91451e-05 0.00115939)
(0.113041 -7.36939e-06 0.00180258)
(0.114634 -0.00011421 0.00132193)
(0.115292 -6.3041e-05 0.00114671)
(0.113558 2.53854e-06 0.00178207)
(0.115159 -0.000126283 0.00128104)
(0.115849 -6.44194e-05 0.00112076)
(0.114067 4.1077e-06 0.00171979)
(0.11567 -0.000144257 0.00123001)
(0.116391 -7.0264e-05 0.0010861)
(0.114544 -1.50048e-06 0.0016346)
(0.116163 -0.000164823 0.00117401)
(0.116916 -7.89905e-05 0.00104482)
(0.114989 -1.2209e-05 0.00153787)
(0.116637 -0.000185397 0.00111767)
(0.117424 -8.89013e-05 0.00100021)
(0.115409 -2.63425e-05 0.00143944)
(0.117092 -0.000204852 0.00106458)
(0.117915 -9.88083e-05 0.000955658)
(0.115807 -4.12425e-05 0.00134674)
(0.11753 -0.000223069 0.00101673)
(0.118388 -0.00010833 0.00091357)
(0.116189 -5.65834e-05 0.0012628)
(0.117954 -0.000240069 0.00097497)
(0.118846 -0.000117422 0.000875297)
(0.116559 -7.19671e-05 0.00118891)
(0.119291 -0.000126019 0.000841482)
(0.116921 -8.69506e-05 0.00112548)
(0.114778 -2.43642e-05 0.000959145)
(0.114826 0.000188839 0.000685442)
(0.113669 6.02495e-05 0.0012327)
(0.11538 -1.79942e-05 0.000954005)
(0.115421 0.000187383 0.000683133)
(0.114233 5.17959e-05 0.00124265)
(0.115968 -1.34772e-05 0.000948381)
(0.115966 0.000184816 0.000688218)
(0.114747 4.80697e-05 0.00124714)
(0.116547 -9.81232e-06 0.000937486)
(0.116536 0.000183786 0.000687147)
(0.115294 5.28767e-05 0.00123855)
(0.117115 -6.82663e-06 0.000920206)
(0.117115 0.000183543 0.000679326)
(0.115846 6.30845e-05 0.00121448)
(0.117671 -4.45741e-06 0.000897097)
(0.117683 0.000182569 0.000667233)
(0.116382 7.56676e-05 0.00117932)
(0.118212 -2.70825e-06 0.00086819)
(0.118239 0.000180789 0.000650299)
(0.116898 8.89156e-05 0.00113509)
(0.118737 -1.61058e-06 0.000835791)
(0.118782 0.000178282 0.000629973)
(0.117395 0.000101105 0.00108523)
(0.119247 -1.08527e-06 0.00080241)
(0.11931 0.000175194 0.000607942)
(0.117874 0.000111388 0.00103358)
(0.119741 -9.97607e-07 0.000769978)
(0.119823 0.000171819 0.000585787)
(0.118335 0.000119927 0.000983464)
(0.120221 -1.24089e-06 0.000739684)
(0.120321 0.000168426 0.000564575)
(0.118781 0.000126993 0.000936383)
(0.120806 0.000165125 0.000544948)
(0.119214 0.000132973 0.000893821)
(0.115416 0.000379892 0.000427907)
(0.114826 0.000659747 0.000240409)
(0.114136 0.000475181 0.000570183)
(0.115972 0.000379469 0.000426501)
(0.115421 0.000659046 0.000230253)
(0.114702 0.00046221 0.000557646)
(0.11654 0.000380513 0.000427608)
(0.115966 0.000664179 0.000223595)
(0.115221 0.000462839 0.000562772)
(0.117115 0.00037939 0.000426075)
(0.116536 0.000663311 0.000218745)
(0.115776 0.000464647 0.000567955)
(0.117687 0.000376528 0.000422233)
(0.117115 0.00065593 0.000214827)
(0.116342 0.00046526 0.000569756)
(0.118255 0.000371836 0.000415969)
(0.117683 0.000644503 0.000210477)
(0.116901 0.000464604 0.000568103)
(0.118813 0.000365735 0.00040775)
(0.118239 0.000628528 0.000205584)
(0.117447 0.00046315 0.000563558)
(0.119358 0.000358728 0.000398169)
(0.118781 0.000609432 0.000200356)
(0.117979 0.000460838 0.000556203)
(0.11989 0.000351314 0.000387846)
(0.11931 0.000588849 0.000194993)
(0.118496 0.000457728 0.000546398)
(0.120407 0.000343995 0.000377427)
(0.119822 0.00056825 0.00018975)
(0.118995 0.000454367 0.000535263)
(0.12091 0.000337089 0.000367385)
(0.120321 0.000548631 0.000184841)
(0.119478 0.000451371 0.000523936)
(0.120805 0.000530497 0.000180368)
(0.119947 0.000448985 0.000513128)
(0.114777 0.000959028 2.40266e-05)
(0.113669 0.00123258 -6.02946e-05)
(0.113668 0.00115243 0.000116029)
(0.11538 0.000954038 1.75175e-05)
(0.114233 0.0012428 -5.18378e-05)
(0.114227 0.00116112 8.65483e-05)
(0.115968 0.000948568 1.27779e-05)
(0.114747 0.0012474 -4.82651e-05)
(0.114743 0.00115988 6.82726e-05)
(0.116547 0.000937872 8.81106e-06)
(0.115293 0.0012389 -5.33597e-05)
(0.115292 0.0011473 6.19012e-05)
(0.117115 0.00092076 5.50076e-06)
(0.115846 0.00121498 -6.3937e-05)
(0.115849 0.00112142 6.29425e-05)
(0.11767 0.000897762 2.85137e-06)
(0.116381 0.00117998 -7.68772e-05)
(0.116391 0.00108681 6.84658e-05)
(0.118211 0.000868943 8.91228e-07)
(0.116896 0.00113589 -9.041e-05)
(0.116916 0.00104554 7.69332e-05)
(0.118736 0.000836606 -3.40727e-07)
(0.117393 0.00108613 -0.000102798)
(0.117424 0.00100094 8.66767e-05)
(0.119246 0.000803258 -9.28067e-07)
(0.117871 0.00103454 -0.000113203)
(0.117914 0.000956386 9.651e-05)
(0.119739 0.000770831 -1.01688e-06)
(0.118332 0.000984443 -0.000121799)
(0.118387 0.00091428 0.00010605)
(0.120219 0.000740439 -7.0704e-07)
(0.118777 0.000937397 -0.000128866)
(0.118845 0.00087601 0.000115229)
(0.11921 0.000894569 -0.000134733)
(0.119289 0.000842033 0.00012403)
(0.113084 0.00148759 -0.000116567)
(0.110903 0.00159642 1.49422e-05)
(0.112062 0.00178714 -9.26699e-05)
(0.113586 0.00151723 -0.000107287)
(0.111328 0.00165921 6.99799e-05)
(0.112565 0.00185541 -9.17875e-05)
(0.114108 0.00152537 -0.000109977)
(0.111752 0.00170005 7.8495e-05)
(0.113044 0.00189165 -9.70399e-05)
(0.114632 0.00150671 -0.000124043)
(0.112232 0.00169982 5.04342e-05)
(0.113558 0.00187352 -0.000109526)
(0.115145 0.0014668 -0.000145264)
(0.112715 0.00166442 1.46983e-06)
(0.114062 0.00181236 -0.000125807)
(0.115639 0.00141205 -0.000169435)
(0.113169 0.00160583 -5.86748e-05)
(0.114532 0.00172603 -0.00014071)
(0.116113 0.00134765 -0.000193067)
(0.113592 0.00153108 -0.000121165)
(0.114967 0.00162557 -0.000152679)
(0.116564 0.00127875 -0.000213875)
(0.113985 0.0014473 -0.000178825)
(0.115376 0.00152124 -0.000160392)
(0.116995 0.00121039 -0.000231481)
(0.114352 0.00136272 -0.000229146)
(0.115762 0.00142113 -0.00016492)
(0.117408 0.00114583 -0.00024648)
(0.114698 0.00128356 -0.000273751)
(0.116131 0.00132911 -0.000166865)
(0.117808 0.00108665 -0.000259354)
(0.115028 0.00121292 -0.000311111)
(0.116489 0.00124691 -0.000167011)
(0.116839 0.00117489 -0.000165793)
(0.109192 0.00173422 0.000214322)
(0.104617 0.00155135 0.000628319)
(0.108324 0.00220762 0.000192483)
(0.109562 0.00180889 0.000265764)
(0.104924 0.00175372 0.000750601)
(0.10879 0.00238829 0.000233068)
(0.110001 0.00184611 0.000244807)
(0.105263 0.00188481 0.000706986)
(0.109208 0.00245474 0.000227292)
(0.110443 0.00183416 0.000179009)
(0.105667 0.00190661 0.000587137)
(0.109632 0.00240073 0.000171325)
(0.110861 0.00178471 8.94577e-05)
(0.10605 0.00186458 0.000432726)
(0.110006 0.00227893 8.95654e-05)
(0.111245 0.00171034 -9.90381e-06)
(0.106365 0.00178813 0.000261909)
(0.110309 0.00212802 -8.43156e-07)
(0.111592 0.00162111 -0.000107798)
(0.106616 0.00168838 9.39853e-05)
(0.110557 0.00196212 -8.85769e-05)
(0.111906 0.00152734 -0.000197144)
(0.106816 0.00157352 -5.39374e-05)
(0.110769 0.00180183 -0.000165929)
(0.112191 0.00143701 -0.000276375)
(0.10698 0.00145939 -0.000178917)
(0.110957 0.00165803 -0.000230733)
(0.112456 0.00135498 -0.000344105)
(0.107116 0.00135836 -0.000287716)
(0.111134 0.00153262 -0.000285617)
(0.107236 0.00127812 -0.000380688)
(0.111308 0.00142597 -0.000330342)
(0.100562 0.00170102 0.00102977)
(0.0879955 0.000720966 0.00177358)
(0.100512 0.00236268 0.00106839)
(0.100912 0.0019427 0.0010657)
(0.0886686 0.00126169 0.00173174)
(0.100731 0.00275202 0.00113287)
(0.101307 0.00201103 0.000962802)
(0.0893739 0.00150871 0.00152236)
(0.100962 0.00280244 0.00101485)
(0.101651 0.00197252 0.000783648)
(0.0898897 0.00156177 0.00122265)
(0.101131 0.00265511 0.000812484)
(0.10192 0.00188356 0.00057002)
(0.0901497 0.00152429 0.000888853)
(0.101181 0.00243872 0.000585794)
(0.10211 0.00176632 0.000349142)
(0.0901961 0.0014428 0.000562848)
(0.101125 0.00219462 0.00035891)
(0.102226 0.00162929 0.0001462)
(0.0900915 0.00134365 0.000279966)
(0.101005 0.0019409 0.000154948)
(0.102286 0.00148497 -2.51889e-05)
(0.0898826 0.0012414 4.86025e-05)
(0.100857 0.00170523 -1.47586e-05)
(0.10231 0.00135267 -0.000169815)
(0.0896011 0.00114498 -0.000136623)
(0.1007 0.00150716 -0.000152888)
(0.102309 0.00124751 -0.000296056)
(0.0892779 0.00106174 -0.000285245)
(0.100548 0.00134876 -0.000268236)
(0.0889307 0.00100036 -0.000410558)
(0.100408 0.00123092 -0.000367283)
(0.0772778 0.000183794 0.00252717)
(0.0782854 0.00115148 0.0025968)
(0.0784385 0.000701649 0.00226603)
(0.0787458 0.0019131 0.00241608)
(0.0792366 0.000967452 0.00184421)
(0.0790188 0.00202489 0.00197968)
(0.0796199 0.00105443 0.00137637)
(0.0787657 0.001833 0.00142759)
(0.0796558 0.00105376 0.000918408)
(0.0781385 0.00161001 0.000896484)
(0.0794334 0.00101541 0.000518548)
(0.0773566 0.00139209 0.000465389)
(0.0790308 0.00096724 0.00019813)
(0.0765215 0.00119785 0.000138853)
(0.0785116 0.000920988 -5.26759e-05)
(0.075673 0.00104528 -0.00010188)
(0.0779184 0.000878603 -0.000246534)
(0.0748358 0.000931003 -0.000284551)
(0.0772834 0.00084367 -0.000399006)
(0.0740274 0.000849217 -0.000412671)
(0.0732486 0.000796889 -0.000506491)
(0.0771055 0.00271514 0.00127492)
(0.0875799 0.00208157 0.00159448)
(0.0778619 0.00271979 0.00267303)
(0.0780331 0.00223798 0.00157553)
(0.0882852 0.0018414 0.00225254)
(0.0774226 0.00227255 0.00313282)
(0.0783379 0.0016775 0.00135448)
(0.0887601 0.00151291 0.00216871)
(0.0765347 0.00163509 0.00247384)
(0.0782651 0.00114829 0.00105956)
(0.0889391 0.00114665 0.00187708)
(0.0752904 0.00105183 0.00174055)
(0.0779882 0.000701584 0.000839603)
(0.0888787 0.00079262 0.00159519)
(0.0741083 0.000611122 0.00123811)
(0.0775932 0.000353119 0.000698028)
(0.0887047 0.000494866 0.00135668)
(0.0731273 0.000299068 0.000907799)
(0.0771293 8.46883e-05 0.000613562)
(0.0884767 0.000250888 0.00117015)
(0.0722992 7.24431e-05 0.000702509)
(0.0766232 -0.000120243 0.000570481)
(0.0882172 5.34425e-05 0.00103372)
(0.0715657 -9.71984e-05 0.000588167)
(0.0760888 -0.000274882 0.000555977)
(0.0879369 -0.000103999 0.000934428)
(0.070888 -0.00022503 0.00053225)
(0.0755306 -0.000397152 0.0005596)
(0.0876429 -0.000228539 0.00086513)
(0.0702449 -0.00032222 0.000512129)
(0.0749484 -0.00048906 0.0005741)
(0.0873373 -0.000333439 0.00081879)
(0.0696156 -0.000400873 0.000511984)
(0.0870178 -0.000411327 0.000790938)
(0.0690005 -0.000458012 0.000526279)
(0.100296 0.00117707 0.00255974)
(0.103739 0.000810148 0.00238861)
(0.0979691 0.00101105 0.00309359)
(0.100567 0.00115211 0.00277476)
(0.104113 0.000862661 0.00273034)
(0.098812 0.00102756 0.00365758)
(0.100824 0.00103561 0.00264048)
(0.104483 0.000837043 0.00271887)
(0.099158 0.000992353 0.00345183)
(0.10097 0.000860004 0.00237341)
(0.104824 0.000748056 0.00252526)
(0.0991343 0.000867233 0.00296228)
(0.101042 0.000662248 0.00208023)
(0.105068 0.000618905 0.00228093)
(0.0988809 0.000708151 0.00249108)
(0.101073 0.000466107 0.00180596)
(0.105232 0.000472054 0.0020306)
(0.0985582 0.000543619 0.00208566)
(0.101081 0.000284529 0.00157817)
(0.105356 0.000325573 0.00180566)
(0.0982445 0.000385424 0.00175839)
(0.101079 0.000123342 0.0013964)
(0.105459 0.000189284 0.00162007)
(0.097963 0.000240767 0.00151055)
(0.101075 -1.61861e-05 0.00125258)
(0.105552 6.73209e-05 0.00146982)
(0.0977205 0.000112964 0.00132285)
(0.101068 -0.000135661 0.00114372)
(0.105641 -4.04376e-05 0.001349)
(0.097517 4.89651e-06 0.00118085)
(0.101063 -0.000237904 0.00106409)
(0.105731 -0.00013552 0.0012559)
(0.097348 -8.96292e-05 0.00107934)
(0.105821 -0.000218076 0.00118408)
(0.097197 -0.000169845 0.000998273)
(0.107749 0.000465389 0.00255601)
(0.109355 0.000265462 0.00225712)
(0.106238 0.00038048 0.00303548)
(0.10836 0.00050002 0.00269241)
(0.109908 0.00030006 0.00243232)
(0.106709 0.000430507 0.0033326)
(0.10889 0.00049428 0.00264127)
(0.110398 0.000303644 0.00248088)
(0.107139 0.000446828 0.00325816)
(0.109311 0.000454851 0.00247916)
(0.110889 0.000296029 0.00240306)
(0.107468 0.000441051 0.00300354)
(0.109648 0.000388594 0.0022744)
(0.111323 0.000274688 0.00225828)
(0.10765 0.000411013 0.00269654)
(0.10992 0.000306677 0.00206392)
(0.111688 0.000239291 0.00208658)
(0.107723 0.000361862 0.00239169)
(0.11015 0.000220525 0.0018695)
(0.112003 0.000195904 0.00191131)
(0.107742 0.000302706 0.00211637)
(0.110358 0.000137202 0.00170354)
(0.112288 0.000149435 0.00174851)
(0.107747 0.000240423 0.00188461)
(0.110555 5.90708e-05 0.00156507)
(0.112553 0.000104346 0.00160745)
(0.107757 0.000179255 0.00169901)
(0.110748 -1.36706e-05 0.00144917)
(0.112808 6.06758e-05 0.00148447)
(0.107785 0.000121441 0.00154773)
(0.110944 -8.04313e-05 0.0013545)
(0.113059 1.91655e-05 0.0013803)
(0.107836 6.75018e-05 0.00142612)
(0.11331 -1.96346e-05 0.00129358)
(0.10791 1.77399e-05 0.0013273)
(0.111501 6.94527e-05 0.00214088)
(0.112062 9.26788e-05 0.00178686)
(0.109402 -0.000107224 0.00242584)
(0.112007 8.57361e-05 0.0022112)
(0.112566 9.18011e-05 0.00185453)
(0.109943 -9.40903e-05 0.00260337)
(0.112533 0.000100977 0.00222053)
(0.113045 9.68182e-05 0.00189076)
(0.110414 -5.35331e-05 0.0026569)
(0.11303 0.000114434 0.0021618)
(0.113559 0.000108922 0.00187274)
(0.110872 -5.56822e-06 0.00257965)
(0.113483 0.000122757 0.0020572)
(0.114064 0.00012476 0.00181168)
(0.111267 4.33366e-05 0.0024289)
(0.113895 0.000124287 0.00192802)
(0.114535 0.000139291 0.00172535)
(0.111584 8.69903e-05 0.00224871)
(0.114269 0.000119566 0.00179017)
(0.114971 0.00015096 0.0016249)
(0.111844 0.000121125 0.00205605)
(0.114616 0.000110724 0.00165659)
(0.11538 0.000158445 0.00152055)
(0.11207 0.000145114 0.00187257)
(0.114943 9.97577e-05 0.00153427)
(0.115768 0.000162835 0.0014205)
(0.112277 0.000162043 0.00170959)
(0.115259 8.72149e-05 0.00142549)
(0.116138 0.000164771 0.00132852)
(0.112476 0.000173606 0.00156876)
(0.11557 7.38396e-05 0.00133097)
(0.116496 0.000164936 0.00124608)
(0.112676 0.000181037 0.00144848)
(0.116847 0.000163904 0.00117423)
(0.112883 0.000185597 0.00134742)
(0.113085 0.000116884 0.00148753)
(0.113007 0.000336095 0.00110799)
(0.110903 -1.42992e-05 0.00159674)
(0.113586 0.000107585 0.00151694)
(0.113541 0.000321125 0.00111144)
(0.111329 -6.90565e-05 0.00165907)
(0.114108 0.000110011 0.00152499)
(0.114032 0.000320266 0.00112093)
(0.111753 -7.76018e-05 0.0016999)
(0.114633 0.000123673 0.00150622)
(0.114562 0.000327256 0.0011207)
(0.112233 -4.99008e-05 0.0016996)
(0.115146 0.000144472 0.00146614)
(0.115104 0.000338405 0.00110713)
(0.112717 -1.43403e-06 0.00166406)
(0.115642 0.000168282 0.0014112)
(0.11563 0.000351891 0.00108305)
(0.113172 5.82247e-05 0.0016053)
(0.116116 0.000191646 0.00134665)
(0.116137 0.000365968 0.00105109)
(0.113596 0.000120366 0.00153041)
(0.116568 0.000212273 0.00127767)
(0.116624 0.000378484 0.00101337)
(0.11399 0.000177787 0.00144657)
(0.116999 0.00022977 0.00120927)
(0.117092 0.000388624 0.000972785)
(0.114359 0.000227938 0.001362)
(0.117414 0.000244713 0.00114466)
(0.117541 0.000397061 0.0009327)
(0.114706 0.000272383 0.00128289)
(0.117815 0.000257628 0.00108561)
(0.117973 0.00040467 0.000894828)
(0.115037 0.000309663 0.00121182)
(0.118391 0.000411719 0.000860522)
(0.115359 0.000343403 0.00114945)
(0.113399 0.000564713 0.000706559)
(0.113005 0.00095716 0.000429917)
(0.111047 0.000468971 0.000723806)
(0.113944 0.000550113 0.0006975)
(0.113536 0.000957511 0.000403235)
(0.111533 0.000428386 0.000682188)
(0.114493 0.000548718 0.000703536)
(0.114028 0.000957377 0.000399814)
(0.111986 0.000422955 0.000689794)
(0.115044 0.000551046 0.000710647)
(0.114561 0.000949784 0.000404208)
(0.112506 0.00043454 0.000712714)
(0.115591 0.000553666 0.000714395)
(0.115106 0.000932893 0.000411705)
(0.113048 0.000452443 0.000735404)
(0.116127 0.000556313 0.000714557)
(0.115639 0.000909722 0.000421076)
(0.113577 0.000474908 0.000755112)
(0.116649 0.000558434 0.000710717)
(0.116155 0.000882905 0.000430731)
(0.114086 0.000499925 0.000770055)
(0.117153 0.00055944 0.000702622)
(0.116653 0.000854392 0.000438651)
(0.114571 0.00052404 0.000777278)
(0.117637 0.000559689 0.000691396)
(0.117132 0.000826375 0.000443964)
(0.115031 0.000545945 0.000776674)
(0.118103 0.000560109 0.000678931)
(0.117592 0.00080064 0.000447529)
(0.115465 0.000566697 0.000771829)
(0.118553 0.000561246 0.000666595)
(0.118036 0.000778222 0.000450363)
(0.115877 0.000587032 0.000765971)
(0.118466 0.000759344 0.000452899)
(0.11627 0.000606897 0.000760031)
(0.113083 0.00132271 0.000149932)
(0.11206 0.00169954 5.87408e-05)
(0.110849 0.00132198 5.57519e-05)
(0.113579 0.00134633 0.000121052)
(0.11256 0.00176876 2.63492e-05)
(0.111272 0.00134481 -2.29835e-05)
(0.114102 0.00134662 0.000110245)
(0.11304 0.0018037 6.385e-06)
(0.111705 0.00136408 -4.18412e-05)
(0.114634 0.00132277 0.000112582)
(0.113556 0.00178303 -3.76385e-06)
(0.112209 0.00135079 -2.45224e-05)
(0.115159 0.00128185 0.00012433)
(0.114065 0.00172056 -5.69937e-06)
(0.112728 0.00131184 1.36372e-05)
(0.115669 0.00123077 0.000142007)
(0.114542 0.00163525 -4.39261e-07)
(0.113227 0.00125993 6.44287e-05)
(0.116163 0.00117471 0.000162357)
(0.114986 0.0015384 9.98574e-06)
(0.113703 0.00120241 0.000119795)
(0.116636 0.00111831 0.00018282)
(0.115405 0.00143991 2.39157e-05)
(0.114156 0.00114496 0.000172908)
(0.117091 0.00106515 0.000202274)
(0.115803 0.00134709 3.87215e-05)
(0.114586 0.00109312 0.00022062)
(0.117528 0.00101728 0.00022059)
(0.116184 0.00126307 5.41223e-05)
(0.114994 0.00104877 0.000263444)
(0.117952 0.000975457 0.000237813)
(0.116554 0.00118937 6.95947e-05)
(0.115384 0.00101215 0.000302117)
(0.116915 0.00112589 8.49014e-05)
(0.11576 0.000982723 0.000337029)
(0.1115 0.00214177 -6.99142e-05)
(0.109401 0.00242646 0.000107191)
(0.109354 0.00225779 -0.000266102)
(0.112006 0.00221252 -8.63576e-05)
(0.109941 0.00260483 9.42255e-05)
(0.109907 0.00243401 -0.000300945)
(0.112531 0.00222176 -0.000101858)
(0.110411 0.00265813 5.37651e-05)
(0.110396 0.00248228 -0.000304987)
(0.113027 0.00216276 -0.000115694)
(0.110868 0.00258064 5.51805e-06)
(0.110886 0.00240398 -0.000297773)
(0.113479 0.00205789 -0.00012441)
(0.111261 0.00242941 -4.38885e-05)
(0.111319 0.00225876 -0.000276716)
(0.11389 0.00192852 -0.000126263)
(0.111577 0.0022489 -8.80729e-05)
(0.111683 0.00208672 -0.000241439)
(0.114264 0.00179053 -0.000121803)
(0.111836 0.00205586 -0.000122661)
(0.111997 0.00191122 -0.000198102)
(0.114609 0.00165683 -0.000113138)
(0.11206 0.00187207 -0.000146934)
(0.112281 0.0017484 -0.000151636)
(0.114936 0.00153439 -0.000102204)
(0.112265 0.00170885 -0.00016401)
(0.112545 0.00160723 -0.000106636)
(0.115251 0.00142573 -8.96101e-05)
(0.112462 0.00156787 -0.000175531)
(0.112799 0.0014841 -6.28989e-05)
(0.11556 0.00133142 -7.60622e-05)
(0.112661 0.00144869 -0.000183164)
(0.113049 0.00138043 -2.134e-05)
(0.113301 0.00129435 1.76549e-05)
(0.107839 0.00288091 0.000250384)
(0.103895 0.00291801 0.000632189)
(0.10628 0.00316879 7.36838e-05)
(0.108405 0.00303303 0.00021853)
(0.104262 0.00326911 0.000628329)
(0.106738 0.00349042 3.69743e-05)
(0.108881 0.00298689 0.000157506)
(0.104564 0.00328099 0.000541631)
(0.107148 0.0034257 -3.5675e-05)
(0.109232 0.0028177 7.79331e-05)
(0.104747 0.00308351 0.000400737)
(0.107443 0.00317114 -0.00010901)
(0.109482 0.00259663 -6.16389e-06)
(0.104783 0.00280894 0.000241404)
(0.107585 0.00285571 -0.000169709)
(0.109654 0.00235969 -8.3577e-05)
(0.104708 0.00250926 8.97603e-05)
(0.107612 0.00253989 -0.00021211)
(0.109773 0.00212894 -0.000148571)
(0.104579 0.00220665 -3.80472e-05)
(0.107578 0.00224838 -0.000236679)
(0.109863 0.00192295 -0.000200439)
(0.104434 0.00193958 -0.000142578)
(0.107526 0.00199947 -0.00024823)
(0.109947 0.00174659 -0.000241103)
(0.104294 0.00172255 -0.000227653)
(0.10748 0.00179475 -0.000251341)
(0.110035 0.00159862 -0.000273155)
(0.104174 0.00154792 -0.000295353)
(0.107455 0.00162715 -0.000249765)
(0.104081 0.00141073 -0.000350738)
(0.107457 0.00149239 -0.000245029)
(0.100556 0.00320765 0.00103016)
(0.0894338 0.00262791 0.00190622)
(0.0982375 0.00366433 0.000734804)
(0.100758 0.0034297 0.000963397)
(0.0894743 0.00328405 0.00172712)
(0.0989637 0.00418454 0.000655146)
(0.100826 0.00331558 0.000787252)
(0.0893028 0.00317556 0.00138891)
(0.0991571 0.00396411 0.000511474)
(0.100692 0.00302907 0.000565805)
(0.0887116 0.00279901 0.000958011)
(0.0988562 0.00342651 0.000316647)
(0.100421 0.00268455 0.000343312)
(0.0878688 0.00241806 0.000552573)
(0.098265 0.00286691 0.000139223)
(0.100073 0.002326 0.000146)
(0.0869701 0.00205228 0.000232257)
(0.0975904 0.00237504 -7.94696e-06)
(0.0997027 0.0019905 -1.5942e-05)
(0.0861016 0.0017175 -7.03263e-06)
(0.0969335 0.00197033 -0.000121424)
(0.0993466 0.0017118 -0.000147367)
(0.0852906 0.00144533 -0.0001804)
(0.096334 0.00165907 -0.000207429)
(0.0990237 0.00149417 -0.000253616)
(0.0845516 0.00123903 -0.000311385)
(0.095806 0.00142889 -0.000273458)
(0.098739 0.001328 -0.000340027)
(0.0838856 0.00108851 -0.000402063)
(0.0953537 0.00125416 -0.000324183)
(0.083284 0.000984202 -0.000465032)
(0.0949715 0.0011251 -0.000363336)
(0.0798086 0.00278217 0.00248124)
(0.0806359 0.00376491 0.00235421)
(0.0795181 0.00307107 0.00207152)
(0.0788414 0.00428123 0.00192095)
(0.0786101 0.0027283 0.00149589)
(0.0766845 0.00359424 0.00123739)
(0.0773439 0.00226948 0.000903784)
(0.0741963 0.00269237 0.000611772)
(0.0759566 0.00186719 0.00041934)
(0.07187 0.00201467 0.000179602)
(0.0746106 0.00151793 7.05731e-05)
(0.0699257 0.0015319 -7.9765e-05)
(0.0733553 0.00123697 -0.000171505)
(0.0683442 0.00115763 -0.000252624)
(0.0722122 0.00103011 -0.000340555)
(0.0670248 0.00090519 -0.000361157)
(0.0711773 0.000886157 -0.000455376)
(0.0659056 0.000746379 -0.000434745)