/*--------------------------------*- C++ -*----------------------------------*\
| =========                 |                                                 |
| \\      /  F ield         | OpenFOAM: The Open Source CFD Toolbox           |
|  \\    /   O peration     | Version:  2212                                  |
|   \\  /    A nd           | Website:  www.openfoam.com                      |
|    \\/     M anipulation  |                                                 |
\*---------------------------------------------------------------------------*/
FoamFile
{
    version     2.0;
    format      ascii;
    arch        "LSB;label=32;scalar=64";
    class       volVectorField;
    location    "0.1";
    object      U;
}
// * * * * * * * * * * * * * * * * * * * * * * * * * * * * * * * * * * * * * //

dimensions      [0 1 -1 0 0 0 0];

internalField   nonuniform List<vector> 
693
(
(0.0512259 -2.60293e-07 3.01417e-07)
(0.0512289 -3.73512e-07 8.47963e-08)
(0.0512307 -3.94044e-07 -2.80913e-08)
(0.0512313 -6.61314e-08 1.56172e-07)
(0.051231 1.13378e-07 2.06382e-07)
(0.0512274 3.43497e-08 1.16784e-07)
(0.0738741 -1.21912e-06 -3.3695e-07)
(0.0738812 -1.79264e-06 -8.61164e-07)
(0.0738836 -1.06871e-06 -5.43969e-07)
(0.0738839 2.02488e-07 3.21449e-07)
(0.0738833 1.18594e-06 1.11675e-06)
(0.073876 7.83015e-07 9.96185e-07)
(0.0870471 -1.88574e-06 -1.10399e-06)
(0.0870472 -2.37118e-06 -1.76793e-06)
(0.0870465 -8.58566e-07 -6.89101e-07)
(0.0870459 6.41409e-07 6.4394e-07)
(0.0870457 1.69102e-06 1.72676e-06)
(0.0870464 9.58532e-07 1.30912e-06)
(0.0927857 -1.10897e-06 -4.34992e-07)
(0.0927854 -8.49596e-07 -4.04194e-07)
(0.0927851 -2.20591e-07 -2.49105e-08)
(0.092785 2.1634e-07 3.61199e-07)
(0.0927851 2.9626e-07 5.80233e-07)
(0.0927852 -3.521e-09 3.96521e-07)
(0.0945086 -5.22878e-08 4.90635e-07)
(0.0945078 1.65778e-07 5.01936e-07)
(0.0945072 4.31795e-07 4.83485e-07)
(0.0945069 5.08245e-07 4.91741e-07)
(0.0945067 4.10057e-07 4.78341e-07)
(0.0945065 1.30432e-07 3.75266e-07)
(0.0948293 9.71244e-07 2.20243e-07)
(0.0948292 9.35423e-07 2.86212e-07)
(0.0948293 7.67264e-07 3.01293e-07)
(0.0948294 5.35213e-07 3.11426e-07)
(0.0948295 3.60876e-07 3.1505e-07)
(0.0948295 2.71942e-07 2.79643e-07)
(0.0941626 1.02823e-06 -2.17523e-07)
(0.0941627 8.60758e-07 -1.4024e-07)
(0.0941629 4.43832e-07 1.44548e-09)
(0.0941632 1.20133e-07 1.50625e-07)
(0.0941635 5.43771e-08 2.49109e-07)
(0.0941635 2.40953e-07 2.19036e-07)
(0.0918205 1.38756e-06 -7.65397e-07)
(0.0918207 1.07429e-06 -6.07126e-07)
(0.0918207 2.49126e-07 -1.04465e-07)
(0.0918208 -3.38474e-07 3.21436e-07)
(0.091821 -3.99791e-07 4.71845e-07)
(0.0918214 1.41451e-07 2.08486e-07)
(0.0855521 1.90088e-06 -1.01845e-06)
(0.0855526 2.56135e-06 -1.40966e-06)
(0.0855521 9.11149e-07 -5.37042e-07)
(0.0855516 -8.13617e-07 4.97166e-07)
(0.0855515 -2.04372e-06 1.25655e-06)
(0.0855522 -1.17019e-06 9.02128e-07)
(0.0730106 6.94995e-07 -2.87689e-07)
(0.0730182 1.40924e-06 -6.09442e-07)
(0.0730209 1.00121e-06 -4.41844e-07)
(0.0730214 -1.45883e-07 1.48668e-07)
(0.0730207 -1.28612e-06 7.46788e-07)
(0.0730133 -8.69244e-07 6.00432e-07)
(0.051225 -9.54648e-08 -2.3839e-08)
(0.051228 9.03367e-08 -1.51447e-07)
(0.05123 2.41112e-07 -1.48142e-07)
(0.0512306 4.71671e-08 1.44587e-07)
(0.0512305 -8.2482e-08 2.44258e-07)
(0.051227 -2.65358e-08 1.3283e-07)
(0.0730113 -3.58383e-07 -3.03471e-07)
(0.0730188 -7.20322e-07 -9.47644e-07)
(0.0730214 -5.61015e-07 -6.01919e-07)
(0.0730218 2.39692e-08 4.97549e-07)
(0.0730211 6.25312e-07 1.57163e-06)
(0.0730135 5.02892e-07 1.06953e-06)
(0.0897787 1.17921e-06 1.86972e-06)
(0.0897749 2.21692e-06 3.10536e-06)
(0.0897723 4.95642e-07 9.57033e-07)
(0.0897715 -2.94862e-07 -9.87231e-08)
(0.0897725 -2.10368e-06 -2.35754e-06)
(0.0897776 -2.39283e-06 -2.67558e-06)
(0.0965491 -4.97614e-07 -3.31203e-07)
(0.0965482 -1.36574e-07 -3.28741e-09)
(0.0965476 -5.56371e-09 5.8452e-08)
(0.0965475 8.64244e-08 1.41007e-07)
(0.0965477 -1.33053e-07 -6.81024e-08)
(0.0965492 -3.56954e-07 -2.67002e-07)
(0.100491 -4.45627e-07 -8.72473e-07)
(0.100491 5.42079e-08 -5.35701e-07)
(0.100491 1.84339e-07 -2.25684e-07)
(0.100491 5.58752e-08 -3.88957e-08)
(0.100491 -2.68654e-07 -5.93257e-08)
(0.100491 -3.97443e-07 -1.24916e-07)
(0.102204 -2.94323e-07 -1.40293e-06)
(0.102204 -5.80463e-08 -9.16186e-07)
(0.102204 7.60661e-08 -4.47502e-07)
(0.102205 7.97513e-08 -1.65212e-07)
(0.102205 -7.81114e-09 -4.99732e-08)
(0.102205 -5.98667e-08 -1.88852e-08)
(0.102601 1.23899e-07 -7.30344e-07)
(0.102601 8.89468e-08 -4.88469e-07)
(0.102601 7.70058e-08 -2.64086e-07)
(0.102601 7.33913e-08 -1.14774e-07)
(0.102602 8.11293e-08 -4.03121e-08)
(0.102602 8.71125e-08 -1.03118e-08)
(0.101956 3.59606e-07 -5.97749e-07)
(0.101956 9.75541e-08 -3.60332e-07)
(0.101956 -3.03249e-08 -1.64438e-07)
(0.101956 -1.20388e-08 -4.97013e-08)
(0.101956 1.22496e-07 -2.92179e-08)
(0.101956 2.0464e-07 -3.55807e-08)
(0.0999901 4.84694e-07 -6.0877e-07)
(0.0999902 -8.51127e-08 -3.00887e-07)
(0.0999903 -2.33579e-07 -6.32951e-08)
(0.0999904 -7.98573e-08 5.37814e-08)
(0.0999905 3.03352e-07 4.07822e-09)
(0.0999906 4.65638e-07 -7.39987e-08)
(0.0960509 2.95666e-07 -2.55164e-07)
(0.0960499 -9.72052e-08 5.6911e-08)
(0.0960493 -8.97973e-08 4.11754e-08)
(0.0960492 -7.97251e-08 5.34854e-08)
(0.0960494 2.02725e-07 -1.30805e-07)
(0.0960509 4.10481e-07 -2.56956e-07)
(0.0897784 -1.70011e-06 1.35248e-06)
(0.0897745 -2.92804e-06 2.41648e-06)
(0.0897719 -7.86972e-07 6.82699e-07)
(0.0897712 2.51243e-07 -1.40906e-07)
(0.0897722 2.47848e-06 -1.97657e-06)
(0.0897773 2.79079e-06 -2.29478e-06)
(0.073873 4.18361e-07 -8.11648e-07)
(0.0738802 9.82912e-07 -1.3401e-06)
(0.0738827 6.62253e-07 -6.97196e-07)
(0.0738831 -2.0952e-07 4.97287e-07)
(0.0738826 -1.00284e-06 1.41193e-06)
(0.0738755 -8.97136e-07 9.22587e-07)
(0.0855523 -1.03352e-06 -1.60889e-06)
(0.0855527 -1.4547e-06 -2.21458e-06)
(0.0855522 -5.95739e-07 -5.65196e-07)
(0.0855517 4.1844e-07 1.10171e-06)
(0.0855516 1.17585e-06 2.27899e-06)
(0.0855522 8.20217e-07 1.33386e-06)
(0.0960509 -2.41925e-07 -1.54618e-07)
(0.0960499 6.09298e-08 2.49004e-07)
(0.0960494 3.21427e-08 2.27592e-07)
(0.0960492 3.0494e-08 1.91648e-07)
(0.0960495 -1.60484e-07 -1.13684e-07)
(0.096051 -2.90959e-07 -3.43933e-07)
(0.100662 -2.16598e-07 -2.77047e-07)
(0.100662 1.89632e-07 1.74204e-07)
(0.100662 1.8735e-07 1.46977e-07)
(0.100663 1.1561e-08 -7.31434e-08)
(0.100663 -2.71667e-07 -4.01644e-07)
(0.100663 -3.30696e-07 -4.45135e-07)
(0.103542 -1.36583e-07 -6.75789e-07)
(0.103542 1.53902e-07 -3.90201e-07)
(0.103542 1.84022e-07 -2.53233e-07)
(0.103542 5.56353e-08 -2.32423e-07)
(0.103542 -1.27531e-07 -2.79878e-07)
(0.103542 -1.59698e-07 -2.49314e-07)
(0.105026 -1.65881e-07 -1.02594e-06)
(0.105026 -4.44743e-08 -7.5794e-07)
(0.105026 8.2609e-09 -5.24313e-07)
(0.105026 5.7063e-10 -3.66345e-07)
(0.105026 -3.25638e-08 -2.72444e-07)
(0.105026 -3.03017e-08 -1.90524e-07)
(0.105429 -1.12447e-07 -9.19044e-07)
(0.105429 -1.27229e-07 -6.87311e-07)
(0.105429 -1.08628e-07 -4.85707e-07)
(0.105429 -7.21956e-08 -3.43537e-07)
(0.105429 -3.29825e-08 -2.50177e-07)
(0.105429 -5.09535e-09 -1.72183e-07)
(0.104903 1.71826e-07 -7.70678e-07)
(0.104903 -1.30011e-08 -5.34093e-07)
(0.104903 -7.943e-08 -3.52884e-07)
(0.104903 -4.63895e-08 -2.48005e-07)
(0.104903 2.83444e-08 -1.98615e-07)
(0.104903 5.31965e-08 -1.49477e-07)
(0.103367 3.74411e-07 -6.36042e-07)
(0.103367 1.87128e-09 -3.47957e-07)
(0.103368 -8.57046e-08 -1.90509e-07)
(0.103368 2.23743e-08 -1.5395e-07)
(0.103368 2.05087e-07 -1.9543e-07)
(0.103368 2.2018e-07 -1.86838e-07)
(0.100662 3.51334e-07 -3.70806e-07)
(0.100662 -1.30019e-07 4.1248e-08)
(0.100663 -1.28806e-07 6.09723e-08)
(0.100663 7.34011e-08 -8.61531e-08)
(0.100663 3.91654e-07 -3.3706e-07)
(0.100663 4.28904e-07 -3.63385e-07)
(0.0965491 4.06784e-07 -3.94993e-07)
(0.0965481 6.25754e-08 -2.66058e-08)
(0.0965475 3.63852e-09 7.88075e-08)
(0.0965474 -6.8591e-08 1.39389e-07)
(0.0965476 1.42113e-07 -8.84126e-08)
(0.096549 3.46053e-07 -3.14655e-07)
(0.0870457 1.24634e-06 -1.51662e-06)
(0.0870459 1.95072e-06 -2.01053e-06)
(0.0870453 8.79077e-07 -6.01317e-07)
(0.0870449 -4.56926e-07 8.01891e-07)
(0.0870449 -1.5225e-06 1.77793e-06)
(0.0870458 -1.15289e-06 1.01321e-06)
(0.0918206 -8.62264e-07 -1.09161e-06)
(0.0918207 -7.74339e-07 -7.30287e-07)
(0.0918207 -2.81293e-07 9.43437e-08)
(0.0918207 1.41899e-07 6.40507e-07)
(0.091821 3.06056e-07 6.38284e-07)
(0.0918213 7.22849e-08 2.12954e-08)
(0.0999903 -6.35347e-07 -4.71155e-07)
(0.0999903 -3.43371e-07 1.03569e-07)
(0.0999904 -1.18633e-07 2.52242e-07)
(0.0999905 -8.1946e-09 9.31116e-08)
(0.0999906 -5.9936e-08 -3.02092e-07)
(0.0999907 -1.41623e-07 -4.84306e-07)
(0.103367 -5.11646e-07 -4.89136e-07)
(0.103367 -2.24385e-07 -1.53494e-07)
(0.103368 -7.94818e-08 -7.91117e-08)
(0.103368 -6.36298e-08 -1.82948e-07)
(0.103368 -1.30422e-07 -3.50499e-07)
(0.103367 -1.52815e-07 -3.44072e-07)
(0.10549 -3.16029e-07 -7.09724e-07)
(0.10549 -1.02627e-07 -5.02738e-07)
(0.10549 -8.40205e-09 -3.85607e-07)
(0.10549 -9.69715e-09 -3.45715e-07)
(0.10549 -5.15254e-08 -3.32512e-07)
(0.10549 -5.40605e-08 -2.6521e-07)
(0.106663 -1.74367e-07 -9.42427e-07)
(0.106662 -7.45205e-08 -7.49467e-07)
(0.106662 -2.21093e-08 -5.83068e-07)
(0.106662 -8.46274e-09 -4.61356e-07)
(0.106662 -1.14171e-08 -3.68699e-07)
(0.106662 -3.22292e-09 -2.70684e-07)
(0.107018 -2.5938e-08 -8.3231e-07)
(0.107018 -4.20741e-08 -6.51562e-07)
(0.107018 -4.02534e-08 -5.05173e-07)
(0.107018 -2.69626e-08 -4.00273e-07)
(0.107017 -1.07399e-08 -3.20984e-07)
(0.107017 1.19008e-09 -2.39122e-07)
(0.10663 2.41199e-07 -6.67258e-07)
(0.10663 1.02179e-07 -4.86154e-07)
(0.10663 3.23546e-08 -3.57969e-07)
(0.10663 2.13839e-08 -2.8434e-07)
(0.10663 3.5693e-08 -2.38862e-07)
(0.10663 3.24192e-08 -1.83564e-07)
(0.105491 4.95113e-07 -5.18957e-07)
(0.105491 2.44766e-07 -3.14841e-07)
(0.105491 1.22098e-07 -2.0783e-07)
(0.105491 1.05671e-07 -1.84053e-07)
(0.105491 1.32614e-07 -1.93995e-07)
(0.10549 1.10332e-07 -1.61255e-07)
(0.103543 6.35149e-07 -3.80217e-07)
(0.103543 3.08047e-07 -7.50245e-08)
(0.103543 1.57643e-07 -7.8006e-09)
(0.103543 1.501e-07 -9.80993e-08)
(0.103543 2.22599e-07 -2.4515e-07)
(0.103543 2.17079e-07 -2.40327e-07)
(0.100491 7.08436e-07 -3.83324e-07)
(0.100491 3.78008e-07 1.05904e-07)
(0.100491 1.50441e-07 2.08057e-07)
(0.100491 5.31111e-08 4.84386e-08)
(0.100491 1.29767e-07 -2.90602e-07)
(0.100491 2.26108e-07 -4.1378e-07)
(0.0927838 7.47155e-07 -6.81132e-07)
(0.0927837 7.38792e-07 -4.69256e-07)
(0.0927837 3.64813e-07 6.88372e-09)
(0.0927839 -2.70083e-08 3.06001e-07)
(0.0927842 -2.70139e-07 3.07201e-07)
(0.0927846 -1.22872e-07 -2.02238e-08)
(0.0941626 -5.22908e-07 -5.49581e-07)
(0.0941626 -5.05937e-07 -3.11549e-07)
(0.0941627 -3.79958e-07 8.69536e-08)
(0.094163 -2.04386e-07 3.30511e-07)
(0.0941632 -6.32682e-08 3.03244e-07)
(0.0941633 -2.65603e-08 7.26386e-09)
(0.101956 -6.92708e-07 -4.02046e-07)
(0.101956 -4.6967e-07 -1.09454e-07)
(0.101956 -2.84835e-07 4.51967e-08)
(0.101956 -1.6955e-07 2.78435e-08)
(0.101956 -1.39146e-07 -1.22131e-07)
(0.101956 -1.3913e-07 -2.15646e-07)
(0.104903 -6.67901e-07 -3.87067e-07)
(0.104903 -4.36588e-07 -2.26298e-07)
(0.104903 -2.70754e-07 -1.56705e-07)
(0.104903 -1.81457e-07 -1.70133e-07)
(0.104903 -1.49958e-07 -2.14128e-07)
(0.104903 -1.26176e-07 -1.92958e-07)
(0.10663 -4.81091e-07 -4.67465e-07)
(0.10663 -2.82915e-07 -3.66199e-07)
(0.10663 -1.56267e-07 -3.02433e-07)
(0.10663 -9.70522e-08 -2.68656e-07)
(0.10663 -7.79856e-08 -2.40219e-07)
(0.10663 -5.77555e-08 -1.81516e-07)
(0.107588 -2.60117e-07 -5.80415e-07)
(0.107587 -1.53383e-07 -4.91921e-07)
(0.107587 -8.38576e-08 -4.15349e-07)
(0.107587 -4.16075e-08 -3.42806e-07)
(0.107587 -1.83903e-08 -2.72037e-07)
(0.107587 -2.85374e-09 -1.9687e-07)
(0.107892 1.2514e-08 -4.84343e-07)
(0.107892 8.89739e-09 -3.94168e-07)
(0.107892 1.18481e-08 -3.23503e-07)
(0.107892 1.82803e-08 -2.6944e-07)
(0.107892 2.35366e-08 -2.21209e-07)
(0.107891 2.37474e-08 -1.65769e-07)
(0.107588 3.05103e-07 -3.51218e-07)
(0.107588 1.84791e-07 -2.62171e-07)
(0.107587 1.1302e-07 -2.00972e-07)
(0.107587 8.31372e-08 -1.6431e-07)
(0.107587 7.31239e-08 -1.38395e-07)
(0.107587 5.58684e-08 -1.05195e-07)
(0.106663 5.70032e-07 -2.53693e-07)
(0.106663 3.61065e-07 -1.65255e-07)
(0.106663 2.28969e-07 -1.15537e-07)
(0.106663 1.67678e-07 -9.83061e-08)
(0.106663 1.42339e-07 -9.27185e-08)
(0.106663 1.05385e-07 -7.1503e-08)
(0.105027 7.17642e-07 -1.98849e-07)
(0.105027 4.69113e-07 -8.28969e-08)
(0.105027 3.02138e-07 -3.78365e-08)
(0.105027 2.21832e-07 -5.10354e-08)
(0.105027 1.96057e-07 -8.37627e-08)
(0.105027 1.63361e-07 -7.37162e-08)
(0.102205 6.77842e-07 -2.29721e-07)
(0.102205 4.58785e-07 -4.96235e-08)
(0.102205 2.85257e-07 3.18461e-08)
(0.102205 1.88714e-07 8.18702e-09)
(0.102205 1.69397e-07 -8.60533e-08)
(0.102205 1.75142e-07 -1.26629e-07)
(0.0945051 4.46795e-07 -4.03198e-07)
(0.0945051 4.11931e-07 -2.38647e-07)
(0.0945053 2.94774e-07 2.58892e-08)
(0.0945055 1.50941e-07 1.71071e-07)
(0.0945058 4.16438e-08 1.19152e-07)
(0.0945059 3.42878e-08 -8.17467e-08)
(0.0948283 -4.92058e-07 -9.773e-08)
(0.0948283 -4.58582e-07 2.53993e-08)
(0.0948284 -3.98962e-07 1.52509e-07)
(0.0948286 -3.15371e-07 2.28714e-07)
(0.0948289 -2.32697e-07 2.78089e-07)
(0.094829 -1.39913e-07 1.83049e-07)
(0.102602 -7.95556e-07 -1.34643e-07)
(0.102602 -5.38264e-07 4.79338e-08)
(0.102602 -3.29609e-07 1.30658e-07)
(0.102602 -1.78274e-07 1.10945e-07)
(0.102602 -7.53772e-08 3.26648e-08)
(0.102601 -6.95517e-08 -3.30775e-08)
(0.10543 -7.48766e-07 -1.35151e-07)
(0.10543 -5.36689e-07 -7.54132e-08)
(0.10543 -3.6654e-07 -4.85779e-08)
(0.105429 -2.44566e-07 -5.70231e-08)
(0.105429 -1.61419e-07 -8.0885e-08)
(0.105429 -1.10594e-07 -6.64944e-08)
(0.107018 -5.61396e-07 -1.30144e-07)
(0.107018 -3.64028e-07 -1.18254e-07)
(0.107018 -2.2439e-07 -1.10331e-07)
(0.107018 -1.40412e-07 -1.01753e-07)
(0.107018 -9.4276e-08 -8.57751e-08)
(0.107017 -6.11585e-08 -4.96759e-08)
(0.107892 -2.71234e-07 -1.20835e-07)
(0.107892 -1.46923e-07 -1.25233e-07)
(0.107892 -6.29215e-08 -1.2255e-07)
(0.107892 -1.9147e-08 -1.10003e-07)
(0.107892 -9.41215e-10 -8.62044e-08)
(0.107891 9.72839e-09 -4.93126e-08)
(0.108174 3.57731e-08 -3.4778e-08)
(0.108174 4.86071e-08 -4.33437e-08)
(0.108174 5.96e-08 -4.81888e-08)
(0.108173 6.45187e-08 -4.51456e-08)
(0.108173 6.18419e-08 -3.39059e-08)
(0.108173 4.99983e-08 -1.50437e-08)
(0.107892 3.33622e-07 5.869e-08)
(0.107892 2.28962e-07 4.71711e-08)
(0.107892 1.64712e-07 3.64277e-08)
(0.107892 1.32747e-07 2.92891e-08)
(0.107892 1.13562e-07 2.68131e-08)
(0.107892 8.66435e-08 2.79501e-08)
(0.107018 5.80819e-07 7.72214e-08)
(0.107018 3.85783e-07 5.92111e-08)
(0.107018 2.58007e-07 4.61834e-08)
(0.107018 1.917e-07 3.9626e-08)
(0.107018 1.57971e-07 3.80046e-08)
(0.107018 1.18535e-07 3.74191e-08)
(0.10543 7.19807e-07 7.59128e-08)
(0.10543 4.9275e-07 4.6045e-08)
(0.10543 3.31437e-07 2.69447e-08)
(0.10543 2.41594e-07 2.25023e-08)
(0.10543 1.99583e-07 2.98878e-08)
(0.10543 1.61749e-07 3.97255e-08)
(0.102602 6.63867e-07 7.76925e-08)
(0.102602 4.63549e-07 3.52885e-08)
(0.102602 3.04623e-07 -8.8815e-10)
(0.102602 2.10998e-07 -1.45898e-08)
(0.102602 1.79918e-07 -3.14263e-10)
(0.102602 1.69991e-07 2.63764e-08)
(0.0948285 3.99838e-07 1.06361e-07)
(0.0948285 3.58862e-07 7.43292e-08)
(0.0948287 2.9019e-07 -3.99909e-09)
(0.0948289 1.8739e-07 -6.81958e-08)
(0.0948291 9.55507e-08 -7.71215e-08)
(0.0948292 5.66495e-08 -2.90063e-08)
(0.0945044 -7.8675e-07 8.80687e-07)
(0.0945045 -4.36271e-07 3.79044e-07)
(0.0945049 -1.9521e-07 -1.28681e-07)
(0.0945054 -8.90242e-08 -3.55942e-07)
(0.0945059 -9.74469e-08 -2.60391e-07)
(0.102205 -9.25e-07 3.10468e-07)
(0.102204 -4.24224e-07 3.87047e-07)
(0.102204 -2.31053e-07 3.32305e-07)
(0.102204 -2.18389e-08 2.47359e-07)
(0.102204 3.35367e-07 9.74204e-08)
(0.105027 -7.6137e-07 2.13267e-07)
(0.105027 -6.36254e-07 2.48555e-07)
(0.105026 -4.89344e-07 2.34139e-07)
(0.105026 -3.41111e-07 2.10295e-07)
(0.105026 -1.76507e-07 1.47983e-07)
(0.106663 -5.68466e-07 2.66826e-07)
(0.106663 -3.96204e-07 1.91684e-07)
(0.106663 -2.66284e-07 1.36601e-07)
(0.106662 -1.73982e-07 1.12976e-07)
(0.106662 -9.08447e-08 9.72388e-08)
(0.107588 -2.59413e-07 3.31308e-07)
(0.107588 -1.32402e-07 2.29926e-07)
(0.107587 -4.92809e-08 1.5667e-07)
(0.107587 -5.23815e-09 1.14603e-07)
(0.107587 2.09387e-08 8.98751e-08)
(0.107892 4.90787e-08 4.35026e-07)
(0.107892 7.71929e-08 3.28996e-07)
(0.107892 9.52381e-08 2.45815e-07)
(0.107892 9.95193e-08 1.92147e-07)
(0.107892 8.95744e-08 1.5995e-07)
(0.107891 6.50642e-08 1.35881e-07)
(0.107588 2.95789e-07 4.99042e-07)
(0.107588 2.08142e-07 3.90119e-07)
(0.107587 1.60154e-07 3.05212e-07)
(0.107587 1.39657e-07 2.48652e-07)
(0.107587 1.26048e-07 2.10849e-07)
(0.107587 9.59222e-08 1.72956e-07)
(0.10663 5.07645e-07 4.04178e-07)
(0.10663 3.19386e-07 2.86039e-07)
(0.10663 2.07367e-07 2.1353e-07)
(0.10663 1.61828e-07 1.83565e-07)
(0.10663 1.47325e-07 1.73103e-07)
(0.10663 1.17635e-07 1.48269e-07)
(0.104903 6.68214e-07 3.24153e-07)
(0.104903 4.31871e-07 1.51578e-07)
(0.104903 2.72561e-07 7.3061e-08)
(0.104903 1.98712e-07 8.26601e-08)
(0.104903 1.82577e-07 1.35155e-07)
(0.104903 1.64835e-07 1.47813e-07)
(0.101956 6.50044e-07 3.44935e-07)
(0.101956 4.26713e-07 7.27575e-08)
(0.101957 2.55636e-07 -7.21669e-08)
(0.101957 1.6454e-07 -6.01606e-08)
(0.101957 1.6234e-07 8.11298e-08)
(0.101957 1.8297e-07 1.86744e-07)
(0.0941627 4.94415e-07 5.40771e-07)
(0.0941627 4.58768e-07 3.36746e-07)
(0.0941629 3.13551e-07 -4.36198e-08)
(0.0941631 1.42202e-07 -2.87548e-07)
(0.0941634 1.70834e-08 -2.59109e-07)
(0.0941635 1.99607e-08 2.01309e-08)
(0.0927858 -4.98199e-07 5.05579e-07)
(0.0927858 1.46071e-07 -2.95099e-07)
(0.0927858 6.01347e-07 -8.41755e-07)
(0.0927859 6.0801e-07 -7.85528e-07)
(0.10049 -1.47763e-06 1.09021e-06)
(0.10049 -9.81868e-07 6.96547e-07)
(0.100491 -4.88021e-07 5.57284e-07)
(0.100491 -1.66134e-07 4.02688e-07)
(0.103542 -7.2455e-07 6.55621e-07)
(0.103542 -7.75334e-07 4.39879e-07)
(0.103542 -6.52212e-07 2.83423e-07)
(0.103542 -5.40301e-07 3.30648e-07)
(0.103542 -3.6024e-07 3.00044e-07)
(0.105491 -5.64066e-07 7.17384e-07)
(0.105491 -4.46333e-07 4.39395e-07)
(0.10549 -3.29481e-07 2.49604e-07)
(0.10549 -2.57619e-07 1.89922e-07)
(0.10549 -1.62702e-07 1.56139e-07)
(0.10663 -2.60263e-07 7.59491e-07)
(0.10663 -1.24015e-07 5.42759e-07)
(0.10663 -3.24728e-08 3.67143e-07)
(0.10663 4.25643e-09 2.51998e-07)
(0.10663 2.17887e-08 1.72449e-07)
(0.107018 5.74167e-08 8.59223e-07)
(0.107018 1.02372e-07 6.64097e-07)
(0.107018 1.29997e-07 4.93717e-07)
(0.107017 1.35117e-07 3.65943e-07)
(0.107017 1.17605e-07 2.77618e-07)
(0.107017 7.38939e-08 2.14615e-07)
(0.106663 2.19257e-07 9.20312e-07)
(0.106663 1.45856e-07 7.13412e-07)
(0.106663 1.19461e-07 5.35145e-07)
(0.106662 1.21222e-07 4.0921e-07)
(0.106662 1.21999e-07 3.23649e-07)
(0.106662 8.84466e-08 2.46132e-07)
(0.105491 3.53024e-07 6.66939e-07)
(0.10549 1.55822e-07 4.44329e-07)
(0.10549 7.95055e-08 3.18939e-07)
(0.10549 9.32581e-08 2.79543e-07)
(0.10549 1.3581e-07 2.78046e-07)
(0.10549 1.25418e-07 2.35004e-07)
(0.103367 5.37815e-07 4.37987e-07)
(0.103368 2.53182e-07 8.671e-08)
(0.103368 1.16439e-07 3.01926e-09)
(0.103368 1.09093e-07 1.03727e-07)
(0.103368 1.79715e-07 2.80718e-07)
(0.103368 2.0141e-07 3.00648e-07)
(0.0999904 6.40999e-07 4.15994e-07)
(0.0999904 3.43261e-07 -1.62397e-07)
(0.0999905 1.23258e-07 -3.11307e-07)
(0.0999906 2.4335e-08 -1.51755e-07)
(0.0999908 9.05651e-08 2.47807e-07)
(0.0999908 1.92458e-07 4.49728e-07)
(0.0918207 8.73507e-07 1.05968e-06)
(0.0918208 7.66527e-07 7.07114e-07)
(0.0918208 2.67737e-07 -1.07691e-07)
(0.0918208 -1.52897e-07 -6.51245e-07)
(0.0918211 -3.03128e-07 -6.45321e-07)
(0.0918215 -3.47909e-08 -3.16476e-08)
(0.0870488 -3.81402e-07 7.58612e-07)
(0.0870489 -8.38624e-08 4.30501e-07)
(0.0870485 1.38937e-06 -1.03487e-06)
(0.0870485 1.52403e-06 -1.24905e-06)
(0.0965473 -9.11428e-07 9.10896e-07)
(0.0965474 -5.82341e-07 6.36981e-07)
(0.0965479 -5.42363e-07 5.97273e-07)
(0.0965494 -5.07013e-07 5.46779e-07)
(0.100662 -8.55225e-07 8.91079e-07)
(0.100662 -4.8206e-07 3.8834e-07)
(0.100662 -1.9098e-07 5.36584e-08)
(0.100663 -3.99631e-07 2.61572e-07)
(0.100662 -4.16774e-07 3.39817e-07)
(0.103368 -7.90386e-07 1.02211e-06)
(0.103368 -3.0606e-07 4.84833e-07)
(0.103368 -3.60876e-08 1.67511e-07)
(0.103368 -1.0546e-07 1.18722e-07)
(0.103367 -1.18865e-07 1.05466e-07)
(0.104903 -3.59287e-07 9.37112e-07)
(0.104903 -7.56546e-08 6.60559e-07)
(0.104903 1.01401e-07 4.2717e-07)
(0.104903 1.25073e-07 2.57504e-07)
(0.104902 1.1651e-07 1.21074e-07)
(0.105429 7.85158e-08 9.86223e-07)
(0.105429 1.5935e-07 7.55086e-07)
(0.105429 2.05039e-07 5.37691e-07)
(0.105429 2.17721e-07 3.60691e-07)
(0.105429 2.02073e-07 2.30233e-07)
(0.105429 1.27269e-07 1.51004e-07)
(0.105026 1.95392e-07 1.03959e-06)
(0.105026 1.12261e-07 7.66387e-07)
(0.105026 1.00367e-07 5.24758e-07)
(0.105026 1.3808e-07 3.61114e-07)
(0.105026 1.77511e-07 2.64655e-07)
(0.105026 1.416e-07 1.86609e-07)
(0.103542 1.77667e-07 6.59665e-07)
(0.103542 -8.82515e-08 3.65631e-07)
(0.103542 -9.40585e-08 2.23453e-07)
(0.103543 5.11277e-08 2.02879e-07)
(0.103543 2.35626e-07 2.5596e-07)
(0.103542 2.49969e-07 2.37287e-07)
(0.100662 2.57043e-07 2.44799e-07)
(0.100662 -1.38259e-07 -2.18741e-07)
(0.100663 -1.22677e-07 -1.9917e-07)
(0.100663 6.09838e-08 1.81185e-08)
(0.100663 3.41513e-07 3.48236e-07)
(0.100663 3.9281e-07 4.05529e-07)
(0.096051 2.71396e-07 1.0846e-07)
(0.09605 -2.92759e-08 -3.02821e-07)
(0.0960495 6.1452e-09 -2.85325e-07)
(0.0960493 1.40545e-08 -2.5032e-07)
(0.0960496 2.11147e-07 5.89783e-08)
(0.0960511 3.52986e-07 3.0521e-07)
(0.0855524 1.06127e-06 1.5792e-06)
(0.0855528 1.47644e-06 2.18391e-06)
(0.0855523 6.14911e-07 5.33701e-07)
(0.0855517 -3.96289e-07 -1.13517e-06)
(0.0855516 -1.15557e-06 -2.31443e-06)
(0.0855524 -7.53677e-07 -1.36833e-06)
(0.0738791 1.12151e-06 -3.31231e-07)
(0.0738824 1.11602e-06 2.8234e-07)
(0.0738826 1.27766e-06 -3.53079e-07)
(0.0738757 7.88971e-07 -4.18152e-07)
(0.0897735 -7.63288e-07 7.57604e-07)
(0.0897728 2.03631e-06 -1.43753e-06)
(0.0897731 -1.61709e-06 1.68522e-06)
(0.0897777 -2.7205e-06 2.55284e-06)
(0.0960501 -1.48865e-06 1.36144e-06)
(0.096051 1.25846e-06 -1.41245e-06)
(0.0960501 1.30915e-06 -1.32246e-06)
(0.0960501 4.54816e-07 -3.97152e-07)
(0.0960513 -6.21874e-08 1.13671e-07)
(0.0999916 -1.12827e-06 1.03173e-06)
(0.0999914 -4.63193e-07 3.77826e-07)
(0.0999912 1.86683e-08 4.87506e-08)
(0.099991 -8.0895e-08 -5.44512e-08)
(0.0999909 -1.47376e-07 -7.65012e-08)
(0.101956 -6.51813e-07 7.23497e-07)
(0.101956 -2.60255e-07 5.54404e-07)
(0.101956 7.94778e-09 3.65707e-07)
(0.101956 7.33189e-08 1.02894e-07)
(0.101956 1.77596e-07 -2.99954e-07)
(0.102601 -1.85948e-07 7.90691e-07)
(0.102601 -1.03888e-07 6.14546e-07)
(0.102601 -3.62461e-08 4.11728e-07)
(0.102601 1.4497e-08 1.9984e-07)
(0.102602 6.15319e-08 8.18209e-09)
(0.102602 6.53227e-08 -4.11583e-08)
(0.102204 3.15611e-07 1.42552e-06)
(0.102204 1.07302e-07 9.69352e-07)
(0.102204 8.02584e-09 5.12897e-07)
(0.102205 3.64492e-08 2.1631e-07)
(0.102205 1.42844e-07 7.10047e-08)
(0.102205 1.80195e-07 1.74535e-08)
(0.100491 4.89413e-07 8.71068e-07)
(0.100491 8.40733e-09 5.38881e-07)
(0.100491 -1.01061e-07 2.24867e-07)
(0.100491 4.51495e-08 3.90293e-08)
(0.100491 3.74543e-07 5.33664e-08)
(0.100492 4.90834e-07 1.14515e-07)
(0.0965493 5.43892e-07 3.09654e-07)
(0.0965483 1.9511e-07 -2.38937e-08)
(0.0965477 7.77786e-08 -9.04866e-08)
(0.0965476 -7.02734e-09 -1.75153e-07)
(0.0965478 2.07377e-07 2.86899e-08)
(0.0965493 4.14148e-07 2.25221e-07)
(0.0897788 -1.13927e-06 -1.91111e-06)
(0.0897749 -2.17036e-06 -3.15353e-06)
(0.0897724 -4.41037e-07 -1.00559e-06)
(0.0897716 3.53285e-07 4.87107e-08)
(0.0897726 2.16508e-06 2.30892e-06)
(0.0897777 2.4464e-06 2.62979e-06)
(0.0730114 3.89876e-07 2.70213e-07)
(0.0730188 7.53648e-07 9.10284e-07)
(0.0730214 5.95717e-07 5.66904e-07)
(0.0730218 1.55757e-08 -5.32634e-07)
(0.0730211 -5.79916e-07 -1.60743e-06)
(0.0730136 -4.41441e-07 -1.1107e-06)
(0.0512287 -2.13091e-07 3.6165e-07)
(0.0512293 2.94486e-07 2.84128e-07)
(0.0512292 2.36475e-07 3.20965e-07)
(0.0512262 3.20123e-08 2.29185e-07)
(0.0730168 1.17439e-06 -1.17112e-06)
(0.0730199 1.49301e-06 -1.2565e-06)
(0.0730197 1.7112e-06 -1.05981e-06)
(0.0730124 1.16447e-06 -3.8835e-07)
(0.0855447 -6.27911e-07 1.01508e-07)
(0.0855482 -9.17718e-07 4.10347e-07)
(0.0855504 -5.25325e-07 3.40713e-07)
(0.0855513 1.36281e-06 -7.73678e-07)
(0.0855522 1.42076e-06 -8.57075e-07)
(0.091819 -1.70218e-07 2.13644e-07)
(0.0918196 -1.46773e-06 9.70008e-07)
(0.0918201 -1.51265e-06 1.10154e-06)
(0.0918207 -6.44531e-07 4.92442e-07)
(0.0918213 -2.40139e-07 1.0719e-07)
(0.0941627 -6.90501e-07 2.18722e-08)
(0.0941629 -1.03864e-06 3.15626e-07)
(0.0941631 -9.76736e-07 4.70092e-07)
(0.0941634 -6.10754e-07 3.96669e-07)
(0.0941637 -3.63882e-07 2.55043e-07)
(0.0948296 -8.25545e-07 -2.24022e-07)
(0.0948296 -9.76361e-07 -1.99494e-07)
(0.0948295 -9.50359e-07 -1.06963e-07)
(0.0948296 -8.10985e-07 -5.19128e-08)
(0.0948296 -6.50867e-07 -5.77594e-08)
(0.0948296 -3.84593e-07 -1.08366e-07)
(0.0945087 1.36751e-07 -4.8106e-07)
(0.094508 -1.37808e-07 -4.52177e-07)
(0.0945074 -4.56889e-07 -3.99159e-07)
(0.094507 -5.86286e-07 -3.86908e-07)
(0.0945068 -4.65864e-07 -3.76975e-07)
(0.0945065 -1.26825e-07 -3.03848e-07)
(0.0927858 1.16945e-06 4.42786e-07)
(0.0927855 8.9809e-07 4.26054e-07)
(0.0927852 2.57514e-07 5.34348e-08)
(0.0927851 -1.86072e-07 -3.29034e-07)
(0.0927852 -2.61905e-07 -5.49663e-07)
(0.0927853 5.44022e-08 -3.79379e-07)
(0.0870471 1.93187e-06 1.10186e-06)
(0.0870472 2.41876e-06 1.76596e-06)
(0.0870466 9.08678e-07 6.81457e-07)
(0.087046 -5.93767e-07 -6.5466e-07)
(0.0870458 -1.64983e-06 -1.74154e-06)
(0.0870465 -9.21532e-07 -1.33037e-06)
(0.0738741 1.26231e-06 3.21699e-07)
(0.0738812 1.83958e-06 8.35312e-07)
(0.0738837 1.11152e-06 5.17249e-07)
(0.073884 -1.62726e-07 -3.55242e-07)
(0.0738833 -1.14155e-06 -1.15017e-06)
(0.0738761 -7.46063e-07 -1.02219e-06)
(0.0512259 2.90469e-07 -3.20441e-07)
(0.0512289 3.98929e-07 -1.01144e-07)
(0.0512308 4.23799e-07 4.64876e-09)
(0.0512313 9.96187e-08 -1.81586e-07)
(0.051231 -8.6771e-08 -2.28109e-07)
(0.0512274 -6.81347e-09 -1.40675e-07)
)
;

boundaryField
{
    inlet
    {
        type            fixedValue;
        value           nonuniform List<vector> 0();
    }
    ami1
    {
        type            cyclicAMI;
        value           nonuniform List<vector> 0();
    }
    walls
    {
        type            noSlip;
    }
    ami2
    {
        type            cyclicAMI;
        value           nonuniform List<vector> 0();
    }
    outlet
    {
        type            zeroGradient;
    }
    procBoundary7to5
    {
        type            processor;
        value           nonuniform List<vector> 
131
(
(0.0512257 -4.29797e-08 1.62435e-07)
(0.073874 -7.28719e-07 -2.51495e-07)
(0.0870471 -1.20924e-06 -7.8165e-07)
(0.092785 -3.76258e-07 -9.36005e-08)
(0.0945062 -6.7412e-08 2.04731e-07)
(0.0948293 2.22887e-07 1.95016e-07)
(0.0941634 3.98497e-07 9.88909e-08)
(0.0918215 7.72848e-07 -2.56184e-07)
(0.085553 1.42309e-06 -6.37461e-07)
(0.0730112 6.13574e-07 -1.70402e-07)
(0.0512254 -8.43424e-08 2.55175e-08)
(0.0730114 -2.27939e-07 -4.5496e-07)
(0.0897792 1.38726e-06 1.79984e-06)
(0.0965497 -8.5641e-08 3.78365e-09)
(0.100491 -3.58764e-08 -7.46023e-08)
(0.102205 2.69615e-08 1.3858e-08)
(0.102602 7.47975e-08 2.28627e-08)
(0.101956 9.14283e-08 7.66892e-09)
(0.0999906 6.89188e-08 -5.51649e-08)
(0.0960514 -2.30068e-09 7.89556e-08)
(0.0897789 -1.66159e-06 1.43376e-06)
(0.0738736 3.63234e-07 -6.44991e-07)
(0.085553 -6.65339e-07 -1.30387e-06)
(0.0960516 5.27781e-08 5.68987e-08)
(0.100662 5.72854e-08 5.59127e-08)
(0.103542 4.67763e-08 -6.11782e-08)
(0.105026 3.2119e-08 -9.18873e-08)
(0.105429 6.76069e-09 -9.08616e-08)
(0.104903 -9.61204e-09 -7.1219e-08)
(0.103367 -3.88481e-08 -4.41855e-08)
(0.100662 -7.78011e-08 6.52079e-08)
(0.0965496 7.93422e-08 -3.49753e-08)
(0.0870466 9.07251e-07 -1.14181e-06)
(0.0918214 -3.49032e-07 -6.83995e-07)
(0.0999907 -1.19519e-07 -1.07299e-07)
(0.103367 -4.73478e-08 -6.33797e-08)
(0.10549 1.3735e-08 -1.18006e-07)
(0.106662 2.54488e-08 -1.57613e-07)
(0.107017 6.904e-09 -1.48078e-07)
(0.10663 -8.42885e-10 -1.0685e-07)
(0.10549 5.24753e-09 -5.88135e-08)
(0.103543 4.35683e-08 5.01706e-09)
(0.100491 1.7803e-07 -2.18884e-08)
(0.0927846 3.2837e-07 -3.79559e-07)
(0.0941631 -7.26395e-08 -2.83504e-07)
(0.101956 -9.10209e-08 -1.06819e-07)
(0.104903 -7.3928e-08 -7.19062e-08)
(0.10663 -1.97853e-08 -8.76942e-08)
(0.107587 1.57116e-08 -1.12083e-07)
(0.107891 1.88725e-08 -1.0263e-07)
(0.107587 2.34297e-08 -6.15622e-08)
(0.106663 3.90892e-08 -2.8529e-08)
(0.105027 8.67417e-08 3.93263e-09)
(0.102205 1.44407e-07 -1.6963e-08)
(0.0945058 1.27521e-07 -2.12633e-07)
(0.094829 -5.26613e-08 -8.17853e-08)
(0.0945067 -1.25563e-07 -8.2189e-08)
(0.102601 -1.01498e-07 -4.62452e-08)
(0.102204 1.17522e-07 -4.44074e-08)
(0.105429 -7.3845e-08 -6.08825e-09)
(0.105026 -6.61115e-08 4.7921e-08)
(0.107017 -3.13708e-08 5.51446e-09)
(0.106662 -2.61262e-08 7.63345e-08)
(0.107891 1.78391e-08 -3.69472e-09)
(0.107587 3.88648e-08 7.75726e-08)
(0.108173 2.87194e-08 9.03884e-09)
(0.107891 4.70317e-08 3.09637e-08)
(0.107018 5.86879e-08 3.53827e-08)
(0.10543 1.00567e-07 4.50026e-08)
(0.102602 1.37703e-07 4.41155e-08)
(0.0948292 8.59702e-08 2.87723e-08)
(0.0945067 -1.25563e-07 -8.2189e-08)
(0.102204 1.17522e-07 -4.44074e-08)
(0.105026 -6.61115e-08 4.7921e-08)
(0.106662 -2.61262e-08 7.63345e-08)
(0.107587 3.88648e-08 7.75726e-08)
(0.107587 3.88648e-08 7.75726e-08)
(0.107891 2.95232e-08 1.17545e-07)
(0.107587 4.49951e-08 1.29583e-07)
(0.10663 5.50587e-08 9.83166e-08)
(0.104903 1.03769e-07 7.96426e-08)
(0.101957 1.45145e-07 1.07818e-07)
(0.0941634 1.23384e-07 2.64439e-07)
(0.0927858 1.2331e-07 -2.99098e-07)
(0.100491 7.12633e-09 -9.31625e-08)
(0.103542 -4.16353e-08 2.61107e-08)
(0.10549 -5.33827e-09 9.01738e-08)
(0.106629 3.96018e-08 1.35525e-07)
(0.106629 3.96018e-08 1.35525e-07)
(0.107017 8.34705e-09 1.69229e-07)
(0.106662 1.63254e-08 1.6283e-07)
(0.10549 3.15667e-08 1.20514e-07)
(0.103368 8.40438e-08 5.76308e-08)
(0.0999909 1.89117e-07 9.95652e-08)
(0.0918217 4.33631e-07 6.6866e-07)
(0.0870484 -4.9293e-07 6.59274e-07)
(0.0965498 -6.67584e-08 6.99048e-08)