/*--------------------------------*- C++ -*----------------------------------*\
| =========                 |                                                 |
| \\      /  F ield         | OpenFOAM: The Open Source CFD Toolbox           |
|  \\    /   O peration     | Version:  2212                                  |
|   \\  /    A nd           | Website:  www.openfoam.com                      |
|    \\/     M anipulation  |                                                 |
\*---------------------------------------------------------------------------*/
FoamFile
{
    version     2.0;
    format      ascii;
    arch        "LSB;label=32;scalar=64";
    class       volScalarField;
    location    "2.55";
    object      k;
}
// * * * * * * * * * * * * * * * * * * * * * * * * * * * * * * * * * * * * * //

dimensions      [0 2 -2 0 0 0 0];

internalField   nonuniform List<scalar> 
689
(
0.00293624
0.00279933
0.00269701
0.00261378
0.00254409
0.00248493
0.0024328
0.00238568
0.00268408
0.00255947
0.00245927
0.0023764
0.0023051
0.00224101
0.00218182
0.00212921
0.00303259
0.00286944
0.00272661
0.00260516
0.00250113
0.00241055
0.00233071
0.00225935
0.0021947
0.00402521
0.00365163
0.00339226
0.00318362
0.00300811
0.00285713
0.00272482
0.00260787
0.00250347
0.00240958
0.00232461
0.00224755
0.00430967
0.00385041
0.00354698
0.00331052
0.00311457
0.00294847
0.0028047
0.00267776
0.00256383
0.0024609
0.00236747
0.00228253
0.00437992
0.00392497
0.00361036
0.00336346
0.00315824
0.00298285
0.00283061
0.00269701
0.00257717
0.00246853
0.00236988
0.00227998
0.00411582
0.00381474
0.0035521
0.0033235
0.00312285
0.00294668
0.00279192
0.0026552
0.00253258
0.00242231
0.00232305
0.00223352
0.00411403
0.0037818
0.00349707
0.00325038
0.00303507
0.00285173
0.0026936
0.00255623
0.00243637
0.00233137
0.00223822
0.00215536
0.0042247
0.0037564
0.00339049
0.00309042
0.00284948
0.00267131
0.0025306
0.00241218
0.00231038
0.00222177
0.00214357
0.00423253
0.00373495
0.00328235
0.00294117
0.00269664
0.00253292
0.00241332
0.00231874
0.00224009
0.00217214
0.00210821
0.00481121
0.00411677
0.00350696
0.00315139
0.00293027
0.00279292
0.0026918
0.00260992
0.00254205
0.00248503
0.0024335
0.0026991
0.00253897
0.00241818
0.00232227
0.00224223
0.00217234
0.00210828
0.00205151
0.00290662
0.00273077
0.00256048
0.00240971
0.00227161
0.00214406
0.00202368
0.00191953
0.00428717
0.00396604
0.00368378
0.00343435
0.00321084
0.00300908
0.00282677
0.00266001
0.00251307
0.00674536
0.00610069
0.00555177
0.00508355
0.0046794
0.00432658
0.00401416
0.0037365
0.0034882
0.00326577
0.00306575
0.00288559
0.00738921
0.00667977
0.00607162
0.00554724
0.0050916
0.00469538
0.00434902
0.00404313
0.00376918
0.00352307
0.00330176
0.00310241
0.00746691
0.00680101
0.00620671
0.00568256
0.00522087
0.00481439
0.0044574
0.00414513
0.00386684
0.00361565
0.0033891
0.00318434
0.00729048
0.00661581
0.00602559
0.0055119
0.00506419
0.00467331
0.00433316
0.00403604
0.00376969
0.00352956
0.00331319
0.0031172
0.00675817
0.00607685
0.00551026
0.00503365
0.00462675
0.0042811
0.00398077
0.00371315
0.00347323
0.00325746
0.00306254
0.00288555
0.00544618
0.00498971
0.00455737
0.00419493
0.00388371
0.00361207
0.00337229
0.00315549
0.00295853
0.00277876
0.00261254
0.00416355
0.003764
0.00339837
0.00312118
0.00289105
0.0027075
0.00254616
0.00240106
0.00226801
0.00214696
0.00202556
0.00386295
0.00344197
0.00309838
0.00284713
0.00267371
0.00255042
0.00245296
0.00237205
0.00230196
0.00224
0.0021806
0.00308631
0.00284574
0.00266958
0.00252993
0.00241185
0.00231009
0.00222122
0.00214287
0.00207289
0.00419142
0.00388191
0.00361126
0.00337179
0.00315486
0.00295738
0.00277667
0.00261093
0.00245765
0.00565756
0.00520442
0.00481106
0.00446443
0.00415595
0.00387926
0.00362954
0.00340288
0.0031966
0.00887618
0.00805384
0.00733968
0.00671729
0.00617302
0.00569459
0.0052717
0.00489564
0.00455947
0.00425729
0.00398443
0.00373729
0.00964058
0.00878149
0.00801919
0.00734537
0.00674986
0.00622258
0.0057547
0.0053384
0.00496655
0.0046329
0.00433226
0.00406031
0.00993606
0.00903588
0.00824594
0.00755098
0.00693779
0.00639503
0.00591314
0.00548425
0.00510164
0.00475878
0.0044501
0.00417109
0.00972905
0.0088091
0.00801983
0.00733464
0.00673515
0.00620756
0.00574109
0.0053272
0.00495854
0.00462835
0.00433118
0.00406254
0.00867168
0.00793741
0.00726541
0.00666401
0.00613091
0.00565943
0.00524231
0.00487175
0.00454061
0.0042432
0.0039748
0.00373169
0.00754723
0.00681205
0.00619074
0.00566061
0.00520581
0.00481117
0.00446385
0.00415517
0.00387856
0.00362923
0.00340252
0.00573705
0.00514146
0.0046707
0.0042855
0.00396035
0.00367805
0.00342938
0.00320724
0.00300669
0.00282574
0.00265939
0.00370699
0.00345268
0.00321963
0.00302056
0.0028629
0.00272273
0.00260211
0.00249871
0.00240869
0.00232915
0.0022587
0.00324075
0.0030291
0.00284765
0.00269112
0.00255476
0.00243554
0.00233059
0.00223743
0.00215426
0.00503129
0.00462363
0.00427841
0.00397864
0.00371144
0.00347178
0.00325602
0.00306133
0.00288344
0.00666494
0.00613134
0.00565967
0.00524252
0.00487197
0.00454083
0.00424335
0.00397495
0.00373159
0.0104415
0.00948492
0.00865115
0.00792062
0.00727788
0.00671015
0.00620677
0.00575863
0.005358
0.00499838
0.00467429
0.00438115
0.0114691
0.010408
0.00948894
0.00868573
0.00797918
0.00735443
0.00679961
0.006305
0.00586247
0.00546512
0.00510705
0.00478329
0.0117663
0.0106945
0.00975824
0.00893625
0.00821127
0.00756913
0.00699817
0.00648872
0.00603269
0.00562314
0.00525409
0.00492048
0.0113961
0.0103703
0.00946856
0.00867401
0.00797196
0.00734973
0.00679647
0.00630299
0.00586141
0.00546493
0.00510772
0.00478483
0.010441
0.00948298
0.00864936
0.00791932
0.00727699
0.00670952
0.00620628
0.00575822
0.00535764
0.00499806
0.00467401
0.00438081
0.00887554
0.00805402
0.00734055
0.00671835
0.00617376
0.00569496
0.00527182
0.00489562
0.00455941
0.00425726
0.00398447
0.00674733
0.00610266
0.00555329
0.0050843
0.00467949
0.00432632
0.00401381
0.00373624
0.00348812
0.00326589
0.0030663
0.00402293
0.00364816
0.00338904
0.00318141
0.00300644
0.00285586
0.00272389
0.0026072
0.00250301
0.00240934
0.00232477
0.00331814
0.00311934
0.00294435
0.0027904
0.00265412
0.00253177
0.00242166
0.00232246
0.00223291
0.00551182
0.0050631
0.00467204
0.00433224
0.00403513
0.00376875
0.00352864
0.00331235
0.00311629
0.00733574
0.00673548
0.00620756
0.00574098
0.0053271
0.00495845
0.00462826
0.00433108
0.00406238
0.0113959
0.0103697
0.00946805
0.00867372
0.00797176
0.00734958
0.00679638
0.00630295
0.0058614
0.00546495
0.00510775
0.00478486
0.0124848
0.0113708
0.0103861
0.0095163
0.00874663
0.00806369
0.0074558
0.00691293
0.00642656
0.00598941
0.00559525
0.00523875
0.012949
0.0117518
0.0107162
0.00981085
0.00901386
0.00830838
0.00768111
0.00712115
0.00661951
0.00616859
0.00576197
0.00539418
0.012485
0.011371
0.0103862
0.00951638
0.00874668
0.00806372
0.00745581
0.00691293
0.00642654
0.00598938
0.00559523
0.00523873
0.011469
0.0104083
0.00948922
0.0086859
0.00797927
0.00735446
0.00679961
0.00630498
0.00586245
0.00546511
0.00510706
0.00478329
0.0096405
0.00878074
0.00801858
0.00734509
0.00674983
0.0062227
0.0057549
0.00533864
0.00496683
0.00463322
0.00433262
0.00738978
0.00667944
0.00607104
0.00554675
0.00509129
0.00469531
0.00434915
0.00404337
0.00376951
0.00352353
0.0033023
0.00430988
0.00385097
0.00354714
0.00331043
0.00311436
0.00294825
0.0028045
0.0026776
0.00256374
0.00246088
0.00236762
0.0117663
0.010694
0.00975755
0.00893564
0.00821077
0.00756875
0.00699788
0.0064885
0.00603253
0.00562302
0.00525402
0.00492042
0.0129487
0.0117516
0.010716
0.00981069
0.0090137
0.00830824
0.00768098
0.00712105
0.00661941
0.0061685
0.0057619
0.0053941
0.013263
0.0120792
0.0110316
0.0101063
0.00928792
0.00856191
0.00791573
0.0073386
0.00682139
0.00635635
0.00593691
0.00555744
0.0129488
0.0117514
0.0107158
0.00981061
0.0090137
0.0083083
0.00768107
0.00712114
0.00661951
0.0061686
0.00576199
0.00539422
0.0117674
0.0106953
0.0097587
0.00893656
0.00821151
0.00756935
0.00699838
0.00648894
0.00603292
0.00562339
0.00525438
0.00492088
0.00993583
0.00903642
0.00824655
0.00755157
0.00693834
0.00639556
0.00591367
0.00548483
0.00510225
0.00475943
0.00445078
0.00746622
0.00680057
0.0062064
0.00568236
0.00522073
0.00481441
0.00445764
0.00414536
0.00386709
0.00361606
0.00338936
0.00438088
0.0039245
0.00360896
0.00336208
0.00315698
0.00298175
0.00282968
0.00269619
0.00257648
0.002468
0.00236944
)
;

boundaryField
{
    inlet
    {
        type            fixedValue;
        value           nonuniform List<scalar> 0();
    }
    ami1
    {
        type            cyclicAMI;
        value           nonuniform List<scalar> 0();
    }
    walls
    {
        type            kqRWallFunction;
        value           nonuniform List<scalar> 
227
(
0.00402521
0.00430967
0.00437992
0.00411582
0.00411403
0.0042247
0.00423253
0.00481121
0.00365163
0.00385041
0.00392497
0.00381474
0.0037818
0.0037564
0.00373495
0.00411677
0.00339226
0.00354698
0.00361036
0.0035521
0.00349707
0.00339049
0.00328235
0.00350696
0.00303259
0.00318362
0.00331052
0.00336346
0.0033235
0.00325038
0.00309042
0.00294117
0.00315139
0.00293624
0.00268408
0.00286944
0.00300811
0.00311457
0.00315824
0.00312285
0.00303507
0.00284948
0.00269664
0.00293027
0.00279933
0.00255947
0.00272661
0.00285713
0.00294847
0.00298285
0.00294668
0.00285173
0.00267131
0.00253292
0.00279292
0.00269701
0.00245927
0.00260516
0.00272482
0.0028047
0.00283061
0.00279192
0.0026936
0.0025306
0.00241332
0.0026918
0.00261378
0.0023764
0.00250113
0.00260787
0.00267776
0.00269701
0.0026552
0.00255623
0.00241218
0.00231874
0.00260992
0.00254409
0.0023051
0.00241055
0.00250347
0.00256383
0.00257717
0.00253258
0.00243637
0.00231038
0.00224009
0.00254205
0.00248493
0.00224101
0.00233071
0.00240958
0.0024609
0.00246853
0.00242231
0.00233137
0.00222177
0.00217214
0.00248503
0.0024328
0.00218182
0.00225935
0.00232461
0.00236747
0.00236988
0.00232305
0.00223822
0.00214357
0.00210821
0.0024335
0.00238568
0.00212921
0.0021947
0.00224755
0.00228253
0.00227998
0.00223352
0.00215536
0.00481121
0.00386295
0.00370699
0.00402293
0.00430988
0.00438088
0.00411677
0.00344197
0.00345268
0.00364816
0.00385097
0.0039245
0.00350696
0.00309838
0.00321963
0.00338904
0.00354714
0.00360896
0.00315139
0.00284713
0.00302056
0.00318141
0.00331043
0.00336208
0.00293027
0.00267371
0.0028629
0.00300644
0.00311436
0.00315698
0.00279292
0.00255042
0.00272273
0.00285586
0.00294825
0.00298175
0.0026918
0.00245296
0.00260211
0.00272389
0.0028045
0.00282968
0.00260992
0.00237205
0.00249871
0.0026072
0.0026776
0.00269619
0.00254205
0.00230196
0.00240869
0.00250301
0.00256374
0.00257648
0.00248503
0.00224
0.00232915
0.00240934
0.00246088
0.002468
0.0024335
0.0021806
0.0022587
0.00232477
0.00236762
0.00236944
0.00308631
0.00324075
0.00331814
0.00293624
0.0026991
0.00284574
0.0030291
0.00311934
0.00279933
0.00253897
0.00266958
0.00284765
0.00294435
0.00269701
0.00241818
0.00252993
0.00269112
0.0027904
0.00261378
0.00232227
0.00241185
0.00255476
0.00265412
0.00254409
0.00224223
0.00231009
0.00243554
0.00253177
0.00248493
0.00217234
0.00222122
0.00233059
0.00242166
0.0024328
0.00210828
0.00214287
0.00223743
0.00232246
0.00238568
0.00205151
0.00207289
0.00215426
0.00223291
)
;
    }
    ami2
    {
        type            cyclicAMI;
        value           nonuniform List<scalar> 
48
(
0.00426315
0.00462937
0.00465726
0.00427977
0.00429039
0.00444001
0.00444587
0.00466211
0.00710175
0.00780413
0.00782719
0.0076699
0.00713708
0.0056524
0.00435735
0.00406793
0.0093487
0.0101167
0.01045
0.0102812
0.0090557
0.00797667
0.00605196
0.00384593
0.0109947
0.0120901
0.0123821
0.0119808
0.0109943
0.00934839
0.00710298
0.0042621
0.0119808
0.0131106
0.0136527
0.0131107
0.0120901
0.0101168
0.00780461
0.0046296
0.012382
0.0136526
0.0139253
0.0136527
0.0123827
0.01045
0.00782698
0.00465781
)
;
    }
    outlet
    {
        type            zeroGradient;
    }
    procBoundary0to1
    {
        type            processor;
        value           nonuniform List<scalar> 
138
(
0.00354932
0.00336184
0.00315671
0.00298159
0.00282967
0.00269628
0.00257663
0.00246817
0.00236966
0.00227985
0.00602691
0.00568237
0.00522074
0.00481443
0.00445772
0.00414542
0.00386711
0.00361599
0.00338952
0.00318481
0.0097305
0.00881051
0.00802127
0.00802127
0.00755138
0.00693813
0.00639526
0.00591331
0.00548441
0.00510179
0.00475892
0.00445023
0.00417123
0.00993466
0.00903564
0.00824613
0.00755138
0.00693813
0.00639526
0.00591331
0.00548441
0.00510179
0.00475892
0.00445023
0.00417123
0.0114675
0.0104066
0.00948782
0.00868484
0.00797848
0.00735386
0.00679914
0.0063046
0.00586214
0.00546483
0.0051068
0.00478308
0.012485
0.0113713
0.0103865
0.00951652
0.00874673
0.00806372
0.00745578
0.00691288
0.00642649
0.00598933
0.00559516
0.00523865
0.0129491
0.0117516
0.0107159
0.00981062
0.00901367
0.00830823
0.00768098
0.00712105
0.00661941
0.00616849
0.00576188
0.00539408
0.012485
0.0113713
0.0103865
0.00951656
0.00874679
0.00806378
0.00745584
0.00691294
0.00642654
0.00598938
0.00559523
0.00523876
0.0113953
0.0103694
0.00946779
0.00867344
0.0079716
0.00734953
0.00679641
0.00630304
0.00586154
0.00546514
0.00510801
0.00478539
0.00972936
0.00880869
0.00801925
0.00733409
0.0067347
0.00620723
0.00574093
0.00532723
0.00495872
0.00462869
0.0043316
0.00729169
0.00661712
0.00602642
0.00551214
0.00506393
0.00467276
0.00433257
0.00403537
0.00376902
0.00352913
0.00331233
0.00411584
0.00381484
0.003552
0.00332315
0.0031223
0.002946
0.00279119
0.00265443
0.00253184
0.00242166
0.00232243
)
;
    }
    procBoundary0to2
    {
        type            processor;
        value           nonuniform List<scalar> 
28
(
0.00315206
0.00285059
0.00285059
0.00370558
0.00345264
0.0032202
0.0032202
0.00293937
0.00293937
0.00312407
0.00312407
0.00312407
0.00574067
0.00514275
0.00467221
0.00467221
0.00339027
0.00454676
0.00754388
0.0068102
0.00618804
0.00618804
0.00349622
0.00550828
0.00867166
0.00793705
0.00726524
0.00726524
)
;
    }
    procBoundary0to8
    {
        type            processor;
        value           nonuniform List<scalar> 
29
(
0.00234057
0.00208067
0.00213738
0.00217793
0.00220524
0.00199853
0.00181248
0.00237299
0.00272267
0.00292327
0.00201036
0.002319
0.0030084
0.00351213
0.00381354
0.00207983
0.00272521
0.00351138
0.00411501
0.00448945
0.002152
0.00294161
0.00381967
0.00449214
0.00491524
0.00506039
0.00461785
0.00506032
0.00521299
)
;
    }
    procBoundary0to9
    {
        type            processor;
        value           nonuniform List<scalar> 
40
(
0.00219777
0.00215263
0.002081
0.0020742
0.0020742
0.0020542
0.00238849
0.00300083
0.00294258
0.00272758
0.00246337
0.00246337
0.00192848
0.00213098
0.00391858
0.00381995
0.00351182
0.00319721
0.00319721
0.00251494
0.00219495
0.0046179
0.00449216
0.00411488
0.00373677
0.00373677
0.00288626
0.00224868
0.00491523
0.00448949
0.00406053
0.00406053
0.0031035
0.00228296
0.00506043
0.00461828
0.00417224
0.00417224
0.00318606
0.00227939
)
;
    }
}


// ************************************************************************* //
