/*--------------------------------*- C++ -*----------------------------------*\
| =========                 |                                                 |
| \\      /  F ield         | OpenFOAM: The Open Source CFD Toolbox           |
|  \\    /   O peration     | Version:  2212                                  |
|   \\  /    A nd           | Website:  www.openfoam.com                      |
|    \\/     M anipulation  |                                                 |
\*---------------------------------------------------------------------------*/
FoamFile
{
    version     2.0;
    format      ascii;
    arch        "LSB;label=32;scalar=64";
    class       volScalarField;
    location    "0.9";
    object      epsilon;
}
// * * * * * * * * * * * * * * * * * * * * * * * * * * * * * * * * * * * * * //

dimensions      [0 2 -3 0 0 0 0];

internalField   nonuniform List<scalar> 
6840
(
90.5034
12.1248
4.3887
2.46659
1.63316
1.18308
0.902024
0.720677
0.594606
0.502531
0.432718
0.37934
0.336402
0.300033
0.270449
0.246553
0.227156
0.211911
0.203018
0.195254
58.5856
14.5696
6.08947
3.33296
2.08218
1.40268
0.99866
0.740295
0.565916
0.443942
0.356044
0.290962
0.241462
0.203062
0.173204
0.149988
0.131635
0.117124
0.106376
0.099356
45.0226
13.4729
5.73075
3.07323
1.86023
1.227
0.87358
0.649784
0.49702
0.389489
0.311301
0.252993
0.209003
0.17525
0.148877
0.127978
0.111276
0.0978336
0.0870435
0.0788107
38.7028
13.0541
5.74336
3.08733
1.88066
1.2275
0.869478
0.645385
0.492592
0.384781
0.307024
0.249044
0.204976
0.170985
0.144396
0.123327
0.106426
0.0927193
0.0815457
0.0731342
36.0571
12.8529
5.76645
3.10212
1.89476
1.22669
0.866499
0.643982
0.492249
0.383962
0.305792
0.247914
0.203912
0.169936
0.143316
0.122175
0.105163
0.091297
0.0799462
0.0714652
36.0571
12.8529
5.76645
3.10211
1.89475
1.22669
0.866498
0.64398
0.492246
0.383959
0.305788
0.247908
0.203905
0.169925
0.143301
0.122151
0.105124
0.0912353
0.07983
0.0710863
38.7028
13.0541
5.74336
3.08733
1.88066
1.2275
0.869474
0.64538
0.492587
0.384774
0.307014
0.249031
0.204959
0.170962
0.144363
0.123277
0.106349
0.0925985
0.0813772
0.0731469
45.0226
13.4729
5.73075
3.07323
1.86023
1.22699
0.873577
0.64978
0.497014
0.389481
0.311292
0.252981
0.208986
0.175226
0.148842
0.127925
0.111195
0.0977026
0.086831
0.0786673
58.5856
14.5696
6.08947
3.33296
2.08218
1.40267
0.998659
0.740294
0.565915
0.44394
0.356041
0.290956
0.241453
0.203047
0.173181
0.149947
0.131557
0.116971
0.106059
0.0990251
90.5034
12.1248
4.3887
2.46659
1.63316
1.18308
0.902024
0.720677
0.594606
0.502531
0.432719
0.37934
0.336402
0.300033
0.270449
0.246554
0.227156
0.211912
0.203018
0.195257
58.5856
14.5696
6.08947
3.33296
2.08218
1.40267
0.998659
0.740294
0.565915
0.44394
0.356041
0.290956
0.241453
0.203047
0.173181
0.149946
0.131556
0.116971
0.106059
0.0990238
16.5373
9.49239
5.01271
2.8606
1.75746
1.1476
0.786936
0.562055
0.415374
0.315956
0.246343
0.196236
0.159238
0.131273
0.109804
0.0932378
0.0801995
0.0696905
0.0607215
0.0566433
13.6679
8.73671
5.07741
3.05388
1.92224
1.2661
0.869295
0.618637
0.453968
0.342045
0.263664
0.207328
0.165923
0.134871
0.111169
0.0927144
0.0781937
0.0666491
0.0571604
0.0501459
12.9054
8.33993
5.07879
3.15547
2.02775
1.35121
0.933541
0.666462
0.489551
0.368601
0.283612
0.222396
0.177338
0.143538
0.117753
0.0977768
0.0820883
0.0696176
0.0595862
0.051354
12.6882
8.1544
5.07113
3.20038
2.07939
1.39506
0.96783
0.692721
0.509636
0.384014
0.2955
0.231643
0.184585
0.149251
0.122274
0.101367
0.0849444
0.0718873
0.0613944
0.0529306
12.6882
8.1544
5.07113
3.20038
2.07939
1.39506
0.967829
0.692719
0.509634
0.384012
0.295498
0.23164
0.184582
0.149247
0.122271
0.101363
0.0849422
0.0718894
0.0614049
0.0529464
12.9054
8.33993
5.07879
3.15547
2.02775
1.3512
0.933538
0.666459
0.489547
0.368597
0.283607
0.22239
0.177331
0.143531
0.117746
0.0977689
0.0820823
0.0696174
0.0595954
0.0513353
13.6679
8.73671
5.07741
3.05388
1.92224
1.2661
0.869293
0.618636
0.453966
0.342042
0.263661
0.207324
0.165919
0.134867
0.111166
0.0927123
0.0781964
0.0666638
0.0572045
0.0498519
16.5373
9.49239
5.01271
2.8606
1.75746
1.1476
0.786936
0.562055
0.415374
0.315956
0.246343
0.196236
0.159238
0.131273
0.109803
0.0932376
0.0801994
0.0696903
0.0607214
0.0566439
58.5856
14.5696
6.08947
3.33296
2.08218
1.40268
0.99866
0.740295
0.565916
0.443942
0.356045
0.290962
0.241462
0.203062
0.173204
0.149988
0.131635
0.117124
0.106377
0.0993585
45.0226
13.4729
5.73075
3.07323
1.86023
1.22699
0.873577
0.64978
0.497014
0.389481
0.311292
0.25298
0.208986
0.175226
0.148842
0.127926
0.111195
0.0977026
0.0868309
0.0786666
13.6679
8.73671
5.07741
3.05388
1.92224
1.2661
0.869293
0.618636
0.453966
0.342042
0.26366
0.207324
0.165918
0.134867
0.111166
0.0927127
0.0781967
0.066664
0.0572049
0.0498506
11.8601
7.76395
4.99734
3.24076
2.1442
1.45499
1.01411
0.72564
0.532162
0.399157
0.305555
0.238233
0.188839
0.151932
0.123895
0.102265
0.0853523
0.0719654
0.0612303
0.0526359
11.6229
7.60535
5.01031
3.34209
2.26848
1.57142
1.11236
0.80459
0.594208
0.447521
0.343216
0.26764
0.211907
0.170128
0.138333
0.113796
0.0946136
0.0794415
0.0673109
0.0575418
11.5726
7.56718
5.02065
3.38344
2.32103
1.62326
1.15828
0.843154
0.625689
0.472847
0.363481
0.283849
0.224901
0.180582
0.146781
0.120655
0.10021
0.0840288
0.0710874
0.0606276
11.5726
7.56718
5.02065
3.38344
2.32103
1.62326
1.15828
0.843153
0.625687
0.472845
0.363479
0.283847
0.224898
0.18058
0.146779
0.120652
0.100207
0.0840259
0.0710858
0.0606283
11.6229
7.60535
5.0103
3.34209
2.26848
1.57142
1.11236
0.804589
0.594206
0.447519
0.343213
0.267636
0.211903
0.170124
0.138328
0.113789
0.0946061
0.0794345
0.0673058
0.057534
11.8601
7.76395
4.99734
3.24076
2.1442
1.45499
1.01411
0.72564
0.532162
0.399157
0.305555
0.238233
0.188839
0.151932
0.123894
0.102264
0.085352
0.0719651
0.0612299
0.0526357
13.6679
8.73671
5.07741
3.05388
1.92224
1.2661
0.869295
0.618637
0.453968
0.342045
0.263664
0.207328
0.165923
0.134871
0.111169
0.0927145
0.0781937
0.066649
0.0571602
0.0501473
45.0226
13.4729
5.73075
3.07323
1.86023
1.227
0.87358
0.649784
0.49702
0.389489
0.311301
0.252993
0.209003
0.17525
0.148877
0.127978
0.111276
0.0978339
0.087044
0.0788109
38.7028
13.0541
5.74336
3.08733
1.88066
1.2275
0.869474
0.64538
0.492587
0.384774
0.307014
0.249031
0.204959
0.170962
0.144364
0.123277
0.106349
0.0925985
0.0813771
0.0731463
12.9054
8.33993
5.07879
3.15547
2.02775
1.3512
0.933538
0.666459
0.489547
0.368597
0.283606
0.22239
0.17733
0.14353
0.117747
0.0977693
0.0820825
0.0696174
0.0595953
0.0513357
11.6229
7.60535
5.0103
3.34209
2.26848
1.57142
1.11236
0.804589
0.594206
0.447519
0.343213
0.267636
0.211902
0.170124
0.138329
0.113789
0.0946063
0.0794346
0.0673058
0.0575338
11.4933
7.5119
5.02843
3.434
2.3892
1.6928
1.22111
0.896488
0.669457
0.508124
0.391659
0.306289
0.242788
0.194893
0.158288
0.129963
0.10779
0.0902431
0.0762101
0.0648297
11.4757
7.50136
5.04297
3.47002
2.43665
1.74299
1.26863
0.938711
0.705583
0.538335
0.416593
0.326728
0.259499
0.208557
0.169485
0.13917
0.115392
0.0965479
0.0814515
0.0691097
11.4757
7.50136
5.04297
3.47002
2.43665
1.74299
1.26863
0.938711
0.705582
0.538334
0.416592
0.326727
0.259498
0.208557
0.169485
0.13917
0.115392
0.096548
0.0814538
0.0691386
11.4933
7.5119
5.02843
3.434
2.3892
1.6928
1.22111
0.896488
0.669457
0.508124
0.391659
0.306289
0.242789
0.194893
0.158287
0.129963
0.10779
0.0902429
0.0762099
0.0648297
11.6229
7.60535
5.01031
3.34209
2.26848
1.57142
1.11236
0.80459
0.594208
0.447521
0.343216
0.26764
0.211906
0.170128
0.138334
0.113795
0.0946134
0.0794413
0.0673106
0.0575414
12.9054
8.33993
5.07879
3.15547
2.02775
1.35121
0.933541
0.666462
0.489551
0.368601
0.283612
0.222396
0.177338
0.143537
0.117754
0.0977772
0.0820885
0.0696177
0.0595862
0.0513539
38.7028
13.0541
5.74336
3.08733
1.88066
1.2275
0.869478
0.645385
0.492592
0.384781
0.307024
0.249044
0.204976
0.170985
0.144397
0.123328
0.106426
0.0927197
0.081546
0.0731336
36.0571
12.8529
5.76645
3.10211
1.89475
1.22669
0.866498
0.64398
0.492246
0.383959
0.305788
0.247908
0.203905
0.169925
0.143301
0.122151
0.105124
0.0912354
0.07983
0.0710862
12.6882
8.1544
5.07113
3.20038
2.07939
1.39506
0.967829
0.692719
0.509634
0.384012
0.295498
0.23164
0.184581
0.149247
0.12227
0.101363
0.0849419
0.071889
0.0614045
0.052946
11.5726
7.56718
5.02065
3.38344
2.32103
1.62326
1.15828
0.843153
0.625687
0.472845
0.363479
0.283847
0.224898
0.18058
0.146778
0.120652
0.100207
0.0840256
0.0710854
0.0606277
11.4757
7.50136
5.04297
3.47002
2.43665
1.74299
1.26863
0.938711
0.705582
0.538334
0.416592
0.326727
0.259498
0.208557
0.169485
0.13917
0.115392
0.0965479
0.0814537
0.0691384
11.4647
7.49683
5.0577
3.50272
2.48038
1.79068
1.31522
0.981304
0.742923
0.570209
0.44335
0.348967
0.277889
0.223736
0.182022
0.149548
0.124012
0.103737
0.0874652
0.0741393
11.4647
7.49683
5.0577
3.50272
2.48038
1.79068
1.31522
0.981304
0.742923
0.570209
0.44335
0.348967
0.277889
0.223736
0.182022
0.149548
0.124012
0.103737
0.0874652
0.0741393
11.4757
7.50136
5.04297
3.47002
2.43665
1.74299
1.26863
0.938711
0.705583
0.538335
0.416592
0.326728
0.259499
0.208557
0.169485
0.13917
0.115392
0.0965478
0.0814514
0.0691098
11.5726
7.56718
5.02065
3.38344
2.32103
1.62326
1.15828
0.843154
0.625689
0.472847
0.363481
0.283849
0.2249
0.180582
0.146781
0.120655
0.10021
0.0840286
0.0710873
0.0606275
12.6882
8.1544
5.07113
3.20038
2.07939
1.39506
0.96783
0.692721
0.509636
0.384014
0.2955
0.231643
0.184585
0.149251
0.122274
0.101367
0.0849445
0.0718874
0.0613945
0.0529308
36.0571
12.8529
5.76645
3.10212
1.89476
1.22669
0.866499
0.643982
0.492249
0.383962
0.305792
0.247914
0.203912
0.169936
0.143317
0.122176
0.105163
0.0912973
0.0799465
0.0714655
36.0571
12.8529
5.76645
3.10212
1.89476
1.22669
0.866499
0.643982
0.492249
0.383962
0.305792
0.247914
0.203913
0.169936
0.143316
0.122176
0.105163
0.0912972
0.0799464
0.0714653
12.6882
8.1544
5.07113
3.20038
2.07939
1.39506
0.96783
0.692721
0.509636
0.384014
0.2955
0.231643
0.184585
0.149251
0.122274
0.101367
0.0849442
0.071887
0.061394
0.0529302
11.5726
7.56718
5.02065
3.38344
2.32103
1.62326
1.15828
0.843154
0.625689
0.472847
0.363481
0.283849
0.224901
0.180582
0.146781
0.120655
0.10021
0.0840286
0.0710871
0.0606273
11.4757
7.50136
5.04297
3.47002
2.43665
1.74299
1.26863
0.938711
0.705583
0.538335
0.416593
0.326728
0.259499
0.208557
0.169485
0.13917
0.115392
0.0965479
0.0814515
0.06911
11.4647
7.49683
5.0577
3.50272
2.48038
1.79068
1.31522
0.981304
0.742923
0.570209
0.44335
0.348967
0.277889
0.223736
0.182022
0.149548
0.124012
0.103737
0.0874653
0.0741395
11.4647
7.49683
5.0577
3.50272
2.48038
1.79068
1.31522
0.981304
0.742923
0.570209
0.44335
0.348967
0.277889
0.223737
0.182022
0.149548
0.124012
0.103737
0.0874653
0.0741395
11.4757
7.50136
5.04297
3.47002
2.43665
1.74299
1.26863
0.938711
0.705582
0.538334
0.416592
0.326727
0.259498
0.208557
0.169485
0.13917
0.115392
0.096548
0.0814539
0.0691389
11.5726
7.56718
5.02065
3.38344
2.32103
1.62326
1.15828
0.843153
0.625687
0.472845
0.363479
0.283847
0.224898
0.18058
0.146778
0.120651
0.100207
0.0840259
0.0710858
0.0606284
12.6882
8.1544
5.07113
3.20038
2.07939
1.39506
0.967829
0.692719
0.509634
0.384012
0.295498
0.23164
0.184582
0.149247
0.12227
0.101363
0.084942
0.0718893
0.0614049
0.0529465
36.0571
12.8529
5.76645
3.10211
1.89475
1.22669
0.866498
0.64398
0.492246
0.383959
0.305788
0.247908
0.203905
0.169925
0.143301
0.122151
0.105124
0.0912352
0.0798299
0.0710862
38.7028
13.0541
5.74336
3.08733
1.88066
1.2275
0.869478
0.645385
0.492592
0.384781
0.307024
0.249044
0.204976
0.170985
0.144397
0.123327
0.106426
0.0927196
0.0815461
0.0731339
12.9054
8.33993
5.07879
3.15547
2.02775
1.35121
0.933541
0.666462
0.489551
0.368601
0.283612
0.222396
0.177338
0.143538
0.117753
0.0977769
0.0820884
0.0696177
0.0595862
0.0513539
11.6229
7.60535
5.01031
3.34209
2.26848
1.57142
1.11236
0.80459
0.594208
0.447522
0.343216
0.26764
0.211907
0.170128
0.138333
0.113796
0.0946137
0.0794417
0.0673112
0.0575421
11.4933
7.5119
5.02843
3.434
2.3892
1.6928
1.22111
0.896488
0.669457
0.508124
0.391659
0.306289
0.242789
0.194893
0.158288
0.129963
0.10779
0.0902434
0.0762105
0.0648304
11.4757
7.50136
5.04297
3.47002
2.43665
1.74299
1.26863
0.938711
0.705582
0.538334
0.416592
0.326727
0.259498
0.208557
0.169485
0.13917
0.115392
0.0965482
0.081454
0.069139
11.4757
7.50136
5.04297
3.47002
2.43665
1.74299
1.26863
0.938711
0.705583
0.538335
0.416593
0.326728
0.259499
0.208557
0.169485
0.13917
0.115392
0.0965479
0.0814516
0.0691101
11.4933
7.5119
5.02843
3.434
2.3892
1.6928
1.22111
0.896488
0.669457
0.508124
0.391659
0.306289
0.242789
0.194893
0.158287
0.129963
0.10779
0.0902432
0.0762103
0.0648304
11.6229
7.60535
5.0103
3.34209
2.26848
1.57142
1.11236
0.804589
0.594205
0.447519
0.343213
0.267636
0.211903
0.170124
0.138328
0.113789
0.0946063
0.0794348
0.0673062
0.0575343
12.9054
8.33993
5.07879
3.15547
2.02775
1.3512
0.933538
0.666459
0.489547
0.368597
0.283607
0.22239
0.177331
0.143531
0.117746
0.0977688
0.0820822
0.0696172
0.0595953
0.0513356
38.7028
13.0541
5.74336
3.08733
1.88066
1.2275
0.869474
0.64538
0.492587
0.384774
0.307014
0.249031
0.204959
0.170962
0.144363
0.123277
0.106349
0.0925983
0.081377
0.0731464
45.0226
13.4729
5.73075
3.07323
1.86023
1.227
0.87358
0.649784
0.49702
0.389489
0.311301
0.252993
0.209003
0.17525
0.148877
0.127978
0.111276
0.097834
0.087044
0.0788106
13.6679
8.73671
5.07741
3.05388
1.92224
1.2661
0.869295
0.618637
0.453968
0.342045
0.263664
0.207328
0.165923
0.134871
0.111169
0.0927146
0.078194
0.0666495
0.0571608
0.0501481
11.8601
7.76395
4.99734
3.24076
2.1442
1.45499
1.01411
0.72564
0.532162
0.399157
0.305555
0.238234
0.188839
0.151932
0.123895
0.102265
0.0853527
0.071966
0.061231
0.0526367
11.6229
7.60535
5.0103
3.34209
2.26848
1.57142
1.11236
0.804589
0.594206
0.447519
0.343213
0.267636
0.211902
0.170124
0.138329
0.113789
0.0946067
0.0794351
0.0673065
0.0575346
11.5726
7.56718
5.02065
3.38344
2.32103
1.62326
1.15828
0.843153
0.625687
0.472845
0.363479
0.283847
0.224898
0.18058
0.146779
0.120652
0.100207
0.0840259
0.0710858
0.0606282
11.5726
7.56718
5.02065
3.38344
2.32103
1.62326
1.15828
0.843154
0.625689
0.472847
0.363481
0.283849
0.224901
0.180582
0.146781
0.120655
0.10021
0.0840286
0.0710872
0.0606274
11.6229
7.60535
5.01031
3.34209
2.26848
1.57142
1.11236
0.804591
0.594208
0.447521
0.343216
0.26764
0.211906
0.170128
0.138334
0.113796
0.0946136
0.0794415
0.0673109
0.0575419
11.8601
7.76395
4.99734
3.24076
2.1442
1.45499
1.01411
0.72564
0.532162
0.399157
0.305555
0.238233
0.188839
0.151932
0.123894
0.102265
0.0853523
0.0719655
0.0612304
0.0526365
13.6679
8.73671
5.07741
3.05388
1.92224
1.2661
0.869293
0.618636
0.453966
0.342042
0.26366
0.207324
0.165918
0.134867
0.111165
0.0927122
0.0781964
0.0666637
0.0572045
0.0498505
45.0226
13.4729
5.73075
3.07323
1.86023
1.22699
0.873577
0.64978
0.497014
0.389481
0.311292
0.252981
0.208986
0.175226
0.148842
0.127925
0.111195
0.0977024
0.0868307
0.0786658
58.5856
14.5696
6.08947
3.33296
2.08218
1.40268
0.99866
0.740295
0.565916
0.443942
0.356045
0.290962
0.241462
0.203062
0.173204
0.149989
0.131635
0.117125
0.106377
0.0993593
16.5373
9.49239
5.01271
2.8606
1.75746
1.1476
0.786936
0.562055
0.415374
0.315956
0.246343
0.196236
0.159238
0.131273
0.109804
0.0932381
0.0801999
0.0696908
0.0607221
0.0566443
13.6679
8.73671
5.07741
3.05388
1.92224
1.2661
0.869293
0.618636
0.453966
0.342042
0.263661
0.207325
0.165918
0.134867
0.111166
0.0927129
0.078197
0.0666643
0.0572052
0.0498511
12.9054
8.33993
5.07879
3.15547
2.02775
1.3512
0.933538
0.666459
0.489547
0.368597
0.283607
0.22239
0.177331
0.14353
0.117747
0.0977694
0.0820825
0.0696174
0.0595954
0.0513358
12.6882
8.1544
5.07113
3.20038
2.07939
1.39506
0.967829
0.692719
0.509634
0.384012
0.295498
0.23164
0.184581
0.149247
0.12227
0.101363
0.0849419
0.0718889
0.0614044
0.0529459
12.6882
8.1544
5.07113
3.20038
2.07939
1.39506
0.96783
0.692721
0.509636
0.384014
0.2955
0.231643
0.184585
0.149251
0.122273
0.101367
0.0849442
0.0718869
0.061394
0.0529302
12.9054
8.33993
5.07879
3.15547
2.02775
1.35121
0.933541
0.666462
0.489551
0.368601
0.283612
0.222396
0.177338
0.143537
0.117754
0.0977771
0.0820885
0.0696177
0.0595862
0.051354
13.6679
8.73671
5.07741
3.05388
1.92224
1.2661
0.869295
0.618638
0.453968
0.342045
0.263664
0.207328
0.165923
0.134871
0.111169
0.0927147
0.078194
0.0666494
0.0571605
0.0501492
16.5373
9.49239
5.01271
2.8606
1.75746
1.1476
0.786936
0.562055
0.415374
0.315956
0.246343
0.196236
0.159238
0.131273
0.109803
0.0932377
0.0801994
0.0696903
0.0607214
0.056644
58.5856
14.5696
6.08947
3.33296
2.08218
1.40267
0.998659
0.740294
0.565915
0.44394
0.356041
0.290956
0.241452
0.203047
0.173181
0.149946
0.131556
0.11697
0.106059
0.0990236
90.5034
12.1248
4.3887
2.46659
1.63316
1.18308
0.902024
0.720677
0.594606
0.502531
0.432719
0.37934
0.336402
0.300033
0.270449
0.246554
0.227157
0.211913
0.20302
0.195258
58.5856
14.5696
6.08947
3.33296
2.08218
1.40267
0.998659
0.740294
0.565915
0.44394
0.356041
0.290956
0.241453
0.203047
0.173181
0.149947
0.131557
0.116971
0.10606
0.0990243
45.0226
13.4729
5.73075
3.07323
1.86023
1.22699
0.873577
0.64978
0.497014
0.389482
0.311292
0.252981
0.208986
0.175226
0.148842
0.127926
0.111195
0.0977027
0.0868311
0.0786664
38.7028
13.0541
5.74336
3.08733
1.88066
1.2275
0.869474
0.64538
0.492587
0.384774
0.307014
0.249031
0.204959
0.170962
0.144364
0.123277
0.106349
0.0925984
0.081377
0.0731463
36.0571
12.8529
5.76645
3.10211
1.89475
1.22669
0.866498
0.64398
0.492246
0.383959
0.305788
0.247908
0.203905
0.169925
0.143301
0.122151
0.105124
0.0912351
0.0798297
0.0710858
36.0571
12.8529
5.76645
3.10212
1.89476
1.22669
0.866499
0.643982
0.492249
0.383962
0.305792
0.247914
0.203912
0.169936
0.143316
0.122175
0.105163
0.0912971
0.0799463
0.071465
38.7028
13.0541
5.74336
3.08733
1.88066
1.2275
0.869478
0.645385
0.492592
0.384781
0.307024
0.249044
0.204976
0.170985
0.144397
0.123327
0.106426
0.0927195
0.0815459
0.0731336
45.0226
13.4729
5.73075
3.07323
1.86023
1.227
0.87358
0.649784
0.49702
0.389489
0.311301
0.252993
0.209003
0.17525
0.148877
0.127978
0.111276
0.0978338
0.0870437
0.0788103
58.5856
14.5696
6.08947
3.33296
2.08218
1.40268
0.99866
0.740295
0.565916
0.443942
0.356044
0.290962
0.241462
0.203062
0.173204
0.149988
0.131635
0.117124
0.106377
0.0993613
90.5034
12.1248
4.3887
2.46659
1.63316
1.18308
0.902024
0.720677
0.594606
0.502531
0.432719
0.37934
0.336402
0.300033
0.270449
0.246554
0.227156
0.211911
0.203017
0.195261
0.383116
0.300408
0.234388
0.199341
0.179158
0.166993
0.158147
0.150912
0.145087
0.140286
0.13625
0.132618
0.129272
0.126224
0.123461
0.12097
0.118755
0.116778
0.115004
0.113421
0.112
0.110758
0.109738
0.108818
0.108043
0.107267
0.106518
0.10585
0.105312
0.104887
0.104539
0.104128
0.103723
0.103393
0.103294
0.103105
0.103038
0.102909
0.102768
0.102562
0.132215
0.110101
0.0925228
0.0808313
0.073645
0.0686542
0.064699
0.061323
0.0584836
0.0560754
0.0539535
0.0520844
0.0504654
0.0489814
0.0476349
0.0464092
0.0453219
0.0443638
0.0435214
0.0427836
0.042138
0.04159
0.0411021
0.0407108
0.0403476
0.0400134
0.0397177
0.0394524
0.0391897
0.0390062
0.0388367
0.0386727
0.0385312
0.0383869
0.038314
0.0382492
0.0381903
0.0381454
0.0381119
0.0380791
0.085133
0.0751542
0.0667876
0.0603024
0.0554702
0.0513681
0.0479438
0.0450969
0.0426744
0.0405785
0.0387625
0.0371684
0.0357792
0.0345805
0.0334785
0.0324441
0.0315591
0.03079
0.0301196
0.0295435
0.0290112
0.0285528
0.0281638
0.0278357
0.0275277
0.0272326
0.0269696
0.026747
0.0265609
0.0264037
0.0262519
0.0261039
0.0259817
0.0259109
0.0258508
0.0257574
0.0257163
0.0256694
0.0256372
0.0256178
0.0709049
0.0632173
0.0570297
0.0519745
0.0477764
0.0442406
0.0412016
0.0385796
0.0363003
0.0343085
0.0325599
0.0310228
0.0296633
0.0284508
0.0273749
0.0264302
0.0255985
0.0248687
0.0242278
0.023667
0.0231745
0.0227437
0.0223011
0.0219578
0.0216831
0.0214111
0.0211624
0.0209573
0.0207281
0.0205599
0.0204662
0.0203635
0.0202581
0.0201749
0.0200646
0.0199972
0.0200086
0.0199903
0.0199613
0.0199378
0.0719074
0.0606442
0.0537141
0.0485264
0.0443498
0.0408881
0.0379833
0.0354953
0.0333157
0.0313959
0.029701
0.0282039
0.0268783
0.0256892
0.0246324
0.0236963
0.0228702
0.0221423
0.0215022
0.0209409
0.020451
0.0200281
0.0196737
0.0193746
0.0190877
0.0187895
0.0185343
0.0183279
0.0181007
0.0179275
0.0178395
0.0177456
0.017645
0.0175611
0.0174428
0.0174027
0.0174093
0.0173991
0.01737
0.0173413
0.0706331
0.0599507
0.053017
0.0476719
0.0433819
0.0398494
0.0368893
0.0343845
0.0322025
0.0302744
0.0285664
0.0270558
0.0257162
0.0245226
0.0234677
0.02254
0.0217252
0.0210101
0.0203819
0.0198314
0.0193501
0.0189328
0.0185809
0.018279
0.0179892
0.0177162
0.0174699
0.0172541
0.0170269
0.0168654
0.016773
0.0166747
0.0165744
0.0164931
0.0164143
0.0164288
0.0164243
0.0163741
0.0163286
0.0162816
0.06886
0.0601135
0.0535225
0.0482819
0.0439733
0.0403702
0.0373328
0.0347391
0.0324738
0.0304875
0.0287425
0.0272108
0.0258612
0.0246642
0.0236089
0.022682
0.0218693
0.0211579
0.0205361
0.0199935
0.0195205
0.0191117
0.0187619
0.018456
0.0181641
0.0178905
0.017648
0.0174358
0.0172228
0.0170679
0.0169635
0.0168462
0.0167362
0.016654
0.016573
0.0165812
0.0165751
0.01652
0.0164838
0.0164453
0.0716151
0.0638831
0.057215
0.0515056
0.0467393
0.0428194
0.0395454
0.0367669
0.0343867
0.0323296
0.030542
0.0289869
0.0276176
0.0264025
0.0253359
0.0244031
0.0235878
0.0228745
0.0222532
0.021713
0.0212446
0.020837
0.0204841
0.0201713
0.0198793
0.0196021
0.019357
0.0191512
0.0189364
0.0187812
0.0186802
0.0185453
0.0184333
0.0183508
0.0182897
0.0182127
0.0181937
0.0181995
0.0181707
0.0181322
0.0934595
0.0786583
0.0677462
0.0589042
0.0528143
0.0484008
0.0448933
0.0420007
0.0395654
0.0374607
0.0356344
0.0340717
0.032674
0.0314213
0.0303106
0.0293441
0.0284996
0.0277118
0.027034
0.0264489
0.0259339
0.025491
0.0250578
0.0246921
0.0243797
0.0240783
0.0238139
0.0236027
0.023372
0.0232003
0.0230718
0.0229307
0.0228138
0.0227312
0.0226666
0.0226177
0.0225856
0.0225574
0.0225132
0.0224853
0.142399
0.11756
0.0959423
0.0812309
0.072235
0.0664067
0.0620918
0.0585459
0.0557227
0.0532329
0.0511867
0.0494792
0.0476826
0.0460634
0.0446616
0.0434391
0.042363
0.0413992
0.0405424
0.0397917
0.039139
0.0385886
0.0380716
0.0376306
0.0372459
0.0369015
0.0365987
0.0363276
0.0360473
0.03583
0.0356557
0.0354987
0.0353676
0.0352558
0.0351682
0.0351543
0.0350741
0.0350067
0.0349513
0.034888
0.383118
0.300412
0.234394
0.199344
0.179171
0.167006
0.158165
0.150926
0.145103
0.14027
0.136261
0.132634
0.129244
0.126168
0.123419
0.120948
0.118743
0.116771
0.114999
0.113418
0.111993
0.110762
0.109744
0.108845
0.108042
0.107268
0.106518
0.105849
0.105309
0.104901
0.104519
0.104119
0.103736
0.103433
0.103247
0.103243
0.103127
0.102928
0.102709
0.102391
0.142399
0.117558
0.0959451
0.0812188
0.0722256
0.0663975
0.0620819
0.0585382
0.0557136
0.0532392
0.0511834
0.0494643
0.0476913
0.0460938
0.0446894
0.0434571
0.0423761
0.0414098
0.0405537
0.0398037
0.0391527
0.0386013
0.0380854
0.0376541
0.0372649
0.0369202
0.0366177
0.0363466
0.0360653
0.0358585
0.0356816
0.0355249
0.0353881
0.0352522
0.0352859
0.0351957
0.0350617
0.0350096
0.0349745
0.0349395
0.0634728
0.0550052
0.0467921
0.0399976
0.0357061
0.0327583
0.0304277
0.0284104
0.0267162
0.025263
0.0239775
0.0228327
0.0218295
0.0209654
0.020075
0.0193417
0.0186633
0.0181031
0.0175899
0.0171419
0.0167433
0.0163852
0.0160536
0.0159139
0.0157062
0.0154578
0.0152283
0.0150554
0.0149237
0.0150008
0.0148123
0.0146112
0.0144744
0.0144669
0.0146456
0.0144588
0.014324
0.0142589
0.0142232
0.0142103
0.0531146
0.0436582
0.0372182
0.0320655
0.0287509
0.0261686
0.0239802
0.0221292
0.0205484
0.0191787
0.0179166
0.0169451
0.0157767
0.01517
0.0142495
0.013761
0.0130494
0.0126542
0.0121278
0.0117715
0.0114543
0.0110709
0.010849
0.0107569
0.010544
0.0103383
0.0100827
0.00993184
0.00980103
0.00990256
0.00975121
0.00962086
0.00943667
0.00937254
0.00941255
0.00955286
0.00942059
0.00931562
0.00919422
0.00917188
0.0468018
0.0406051
0.0354534
0.0311834
0.0274843
0.0244622
0.022317
0.0204701
0.0188601
0.017452
0.0162185
0.0151505
0.0142224
0.0133653
0.012608
0.0119525
0.0113821
0.0108262
0.010442
0.00991478
0.00964684
0.00923556
0.00898259
0.00880508
0.00866051
0.00845748
0.00832314
0.00809353
0.00802302
0.00808222
0.00794957
0.00784582
0.00765558
0.00759444
0.00759091
0.00774501
0.00764031
0.00756441
0.00742673
0.00740392
0.0465526
0.0403777
0.0353128
0.0311285
0.0276323
0.0247047
0.0220003
0.0198042
0.0182289
0.0168246
0.0155822
0.0144984
0.0135654
0.0126939
0.0119235
0.0112432
0.0106427
0.0101123
0.00964627
0.00923633
0.00888264
0.00857867
0.00827688
0.00807716
0.00787848
0.00769222
0.00751576
0.00736264
0.00725773
0.00730601
0.00716869
0.00705763
0.00689796
0.00681922
0.00681084
0.00696009
0.00686033
0.00679118
0.00665799
0.00662338
0.0463647
0.0403632
0.0353472
0.0311508
0.0276229
0.0246654
0.0220917
0.019709
0.0179148
0.0165507
0.0153197
0.0142338
0.0132892
0.01241
0.0116324
0.0109461
0.01034
0.00980662
0.00933773
0.00892667
0.00856766
0.00825583
0.0079918
0.00780288
0.00758954
0.00739393
0.00721694
0.0070658
0.00696211
0.0070199
0.00687414
0.00674855
0.00663776
0.00655027
0.00654215
0.00669896
0.00659386
0.00649863
0.00643843
0.00633624
0.0454222
0.0398753
0.0350224
0.0308758
0.0273665
0.0243941
0.0217178
0.0194805
0.0178672
0.0164865
0.0152547
0.0141808
0.0132509
0.0123827
0.011617
0.0109415
0.0103477
0.00982606
0.00936832
0.00896867
0.00861798
0.00832835
0.00801371
0.00788422
0.00770252
0.00751768
0.00733528
0.00718934
0.0070916
0.00715335
0.0070154
0.00690798
0.0067334
0.00665834
0.00665653
0.00683915
0.00674447
0.00662077
0.00658087
0.00645901
0.0484494
0.0411346
0.0354198
0.030817
0.0270684
0.0238593
0.0215113
0.0197343
0.0181706
0.0168002
0.0156031
0.0145708
0.0136721
0.012828
0.0120848
0.0114235
0.0108503
0.0103456
0.00989294
0.00953611
0.0091227
0.00888368
0.00849485
0.00845175
0.00827972
0.00812786
0.00784961
0.0077483
0.00759596
0.00770826
0.00757311
0.00746828
0.00726672
0.00721602
0.00711789
0.00721443
0.00739944
0.00728554
0.00719668
0.00705098
0.054335
0.043936
0.03701
0.0314685
0.0276706
0.0251809
0.0230687
0.02126
0.0197047
0.0183564
0.0171998
0.0161943
0.0152552
0.0143996
0.0137363
0.0129322
0.0124775
0.0118343
0.0115133
0.0110184
0.0107601
0.0103823
0.0101645
0.0100923
0.00986513
0.00966743
0.00938067
0.00926971
0.00912057
0.00923354
0.00907883
0.00894521
0.00875669
0.00869388
0.00867567
0.00875187
0.00891498
0.00877093
0.00866276
0.00853184
0.0634731
0.0550095
0.046792
0.0400003
0.0357012
0.0327604
0.030432
0.0284146
0.0267219
0.0252649
0.0239588
0.0228987
0.0218336
0.0209265
0.0200566
0.019328
0.0186595
0.0181004
0.0175853
0.0171471
0.0167255
0.0164163
0.0160162
0.015936
0.0157212
0.0154403
0.0152201
0.0150489
0.0149201
0.0149962
0.0148047
0.0145976
0.0144788
0.0143947
0.0143871
0.0144113
0.0145636
0.0144094
0.0142659
0.0142019
0.132213
0.110099
0.0925242
0.0808134
0.0736468
0.0686611
0.0647079
0.0613305
0.0584944
0.0560711
0.0539498
0.0520989
0.0504617
0.0489588
0.0476151
0.0463992
0.04532
0.0443666
0.0435277
0.0427918
0.0421451
0.0415992
0.0411098
0.0407212
0.0403527
0.040022
0.0397305
0.0394687
0.0392049
0.0390236
0.0388419
0.0386766
0.0385364
0.0384204
0.0383367
0.0383209
0.0382606
0.0381776
0.0381098
0.0380444
0.093459
0.078654
0.0677671
0.0589264
0.0528235
0.0484025
0.0448917
0.0419989
0.0395643
0.0374628
0.0356355
0.0340728
0.0326847
0.0314366
0.030331
0.0293642
0.0285189
0.0277287
0.027052
0.0264681
0.0259556
0.0255151
0.025084
0.0247199
0.0244105
0.0241133
0.0238522
0.0236416
0.0234125
0.0232388
0.0231088
0.0229661
0.022849
0.022765
0.0226965
0.0227494
0.0227129
0.0226195
0.0225572
0.0225267
0.0543371
0.0439251
0.0369964
0.0314516
0.027664
0.0251745
0.0230625
0.0212543
0.0196991
0.0183507
0.0171865
0.0161948
0.0151957
0.0145118
0.0135699
0.0130677
0.01233
0.0119064
0.0114994
0.0110046
0.0107568
0.0103688
0.0101602
0.0100867
0.00985659
0.00965442
0.00937452
0.00925578
0.0091171
0.00923848
0.00907765
0.00893319
0.00875486
0.00868183
0.00874661
0.00891821
0.00878388
0.00863303
0.00853866
0.00853885
0.0465052
0.0402173
0.0348126
0.0302563
0.0265521
0.0235834
0.0211438
0.0191091
0.0173887
0.0159167
0.0146447
0.0135284
0.0125847
0.0117387
0.0109835
0.0102525
0.00962105
0.00922093
0.00878981
0.00842874
0.00804184
0.00771176
0.00743334
0.00739343
0.00721966
0.00703346
0.00677492
0.00663063
0.00652338
0.00665982
0.00653414
0.00640477
0.0062034
0.00611682
0.00613771
0.00631873
0.00622529
0.00613258
0.00598269
0.00594109
0.0477612
0.0414313
0.036115
0.0316384
0.0278639
0.0246894
0.0220404
0.0197964
0.0178807
0.0162339
0.014812
0.0135663
0.0125213
0.0115744
0.0107444
0.0100014
0.0093476
0.00877992
0.00828494
0.00783505
0.00736768
0.00708668
0.00684447
0.00668598
0.00652807
0.00635637
0.0061979
0.00602534
0.00589803
0.00600329
0.00587646
0.00576592
0.00558983
0.00549079
0.00550069
0.00566391
0.00557404
0.00549062
0.0053416
0.00529419
0.0495465
0.0430233
0.0375346
0.0329151
0.0290151
0.0257134
0.0228915
0.020482
0.0184411
0.0166922
0.0151802
0.0138599
0.0127553
0.0117561
0.0108773
0.010102
0.00941746
0.00881323
0.00827827
0.00780257
0.00738409
0.00700155
0.00669373
0.00660752
0.00641124
0.00620718
0.00601477
0.00586532
0.00576405
0.00582509
0.00569382
0.00556828
0.0054564
0.00533956
0.00534378
0.00550087
0.00540131
0.00531124
0.00523303
0.00514473
0.0503251
0.0436491
0.0380695
0.0333807
0.0294212
0.026064
0.0231979
0.02073
0.0186259
0.0168335
0.0152905
0.0139469
0.0128201
0.0118047
0.0109117
0.0101244
0.00942897
0.00881489
0.00827196
0.00779258
0.00737153
0.00698878
0.00667646
0.00660812
0.00645633
0.0061876
0.00590951
0.00574819
0.00570333
0.00577721
0.00565016
0.00552781
0.00541666
0.00530444
0.00531471
0.00547576
0.0053746
0.00528217
0.00520092
0.00510492
0.0498598
0.0431286
0.037543
0.0328684
0.0289346
0.0256071
0.0227737
0.0203583
0.0183087
0.0165556
0.0150467
0.0137368
0.0126385
0.0116462
0.0107739
0.0100041
0.00932435
0.00872803
0.00820159
0.00773579
0.00731953
0.00693956
0.006593
0.00653841
0.00639326
0.006168
0.00597857
0.00585187
0.00574212
0.00582076
0.00569204
0.00557394
0.00544598
0.00533191
0.00537386
0.0055304