/*--------------------------------*- C++ -*----------------------------------*\
| =========                 |                                                 |
| \\      /  F ield         | OpenFOAM: The Open Source CFD Toolbox           |
|  \\    /   O peration     | Version:  2212                                  |
|   \\  /    A nd           | Website:  www.openfoam.com                      |
|    \\/     M anipulation  |                                                 |
\*---------------------------------------------------------------------------*/
FoamFile
{
    version     2.0;
    format      ascii;
    arch        "LSB;label=32;scalar=64";
    class       volScalarField;
    location    "0.9";
    object      k;
}
// * * * * * * * * * * * * * * * * * * * * * * * * * * * * * * * * * * * * * //

dimensions      [0 2 -2 0 0 0 0];

internalField   nonuniform List<scalar> 
6840
(
0.213564
0.055916
0.0283994
0.0193412
0.0146928
0.0118511
0.00989077
0.00851619
0.00749154
0.00669667
0.00606114
0.00555182
0.00512453
0.00474816
0.00443063
0.00416561
0.0039441
0.00376542
0.00366028
0.00356209
0.264759
0.104702
0.0585298
0.0391631
0.02862
0.0219936
0.0175362
0.0143635
0.0120086
0.0102143
0.00881712
0.00770694
0.00680598
0.00606382
0.00545383
0.00495495
0.00454216
0.00420221
0.00394156
0.00376509
0.283364
0.126774
0.071702
0.0473282
0.0338663
0.0256617
0.0204609
0.0167972
0.0140488
0.0119414
0.0102844
0.00895639
0.00788556
0.00701197
0.00628966
0.0056865
0.0051806
0.00475492
0.00439887
0.0041156
0.292299
0.141633
0.0819302
0.0541654
0.0389231
0.0292874
0.0232723
0.0190786
0.015934
0.0135148
0.0116265
0.0101124
0.00888129
0.00787018
0.00703168
0.00633008
0.00573803
0.00523467
0.00480562
0.0044649
0.295943
0.148782
0.0871941
0.0576749
0.0415193
0.0310722
0.0246449
0.0202208
0.0169046
0.0143243
0.0123074
0.0107009
0.00939397
0.00831917
0.00742609
0.00667671
0.0060418
0.00549873
0.00503368
0.00467304
0.295943
0.148782
0.0871941
0.0576749
0.0415193
0.0310721
0.0246449
0.0202207
0.0169045
0.0143242
0.0123072
0.0107006
0.00939357
0.00831858
0.00742518
0.00667525
0.00603941
0.00549478
0.00502628
0.00464939
0.292299
0.141633
0.0819301
0.0541654
0.038923
0.0292874
0.0232722
0.0190784
0.0159338
0.0135146
0.0116261
0.0101119
0.00888049
0.00786899
0.00702987
0.00632721
0.00573344
0.00522726
0.00479498
0.00446558
0.283364
0.126774
0.071702
0.0473282
0.0338663
0.0256617
0.0204609
0.0167971
0.0140487
0.0119411
0.0102841
0.0089559
0.00788484
0.0070109
0.00628801
0.00568391
0.00517644
0.00474811
0.0043884
0.00410886
0.264759
0.104702
0.0585298
0.0391631
0.02862
0.0219935
0.0175362
0.0143635
0.0120086
0.0102142
0.00881702
0.00770676
0.00680568
0.00606328
0.00545297
0.00495344
0.0045393
0.00419653
0.00392982
0.00375125
0.213564
0.055916
0.0283994
0.0193412
0.0146928
0.0118511
0.00989077
0.00851619
0.00749154
0.00669667
0.00606114
0.00555182
0.00512453
0.00474816
0.00443063
0.00416561
0.00394411
0.00376542
0.00366028
0.00356211
0.264759
0.104702
0.0585298
0.0391631
0.02862
0.0219935
0.0175362
0.0143635
0.0120086
0.0102142
0.00881702
0.00770675
0.00680568
0.00606328
0.00545297
0.00495344
0.0045393
0.00419653
0.00392983
0.00375121
0.311746
0.197541
0.130357
0.0911458
0.0668024
0.0508112
0.0397946
0.0319124
0.0260946
0.0216879
0.0182774
0.0155896
0.0134425
0.0117003
0.0102703
0.00908408
0.00809065
0.00725387
0.0065581
0.00588167
0.31754
0.217754
0.151086
0.108549
0.0807157
0.0618727
0.0486774
0.0391419
0.0320588
0.0266717
0.0224903
0.0191876
0.0165393
0.0143872
0.012618
0.0111499
0.00992112
0.00888432
0.00800729
0.00725436
0.319723
0.227073
0.162232
0.118772
0.0893611
0.0689928
0.0545305
0.0439844
0.0360996
0.0300745
0.0253818
0.0216647
0.0186769
0.0162441
0.0142403
0.0125731
0.011173
0.00998711
0.0089745
0.00810581
0.320484
0.23086
0.167176
0.123531
0.0935158
0.0724823
0.0574404
0.0464209
0.0381533
0.0318164
0.0268697
0.022945
0.0197855
0.0172091
0.0150842
0.0133134
0.0118233
0.0105577
0.00947341
0.00853225
0.320484
0.23086
0.167176
0.123531
0.0935158
0.0724823
0.0574404
0.0464208
0.0381531
0.0318162
0.0268694
0.0229446
0.0197849
0.0172083
0.0150831
0.0133117
0.0118207
0.0105538
0.00946735
0.00852151
0.319723
0.227073
0.162232
0.118772
0.089361
0.0689926
0.0545304
0.0439842
0.0360994
0.0300741
0.0253813
0.0216639
0.0186759
0.0162426
0.0142381
0.0125697
0.0111679
0.00997952
0.00896251
0.00807727
0.31754
0.217754
0.151085
0.108549
0.0807156
0.0618726
0.0486773
0.0391418
0.0320586
0.0266715
0.0224899
0.019187
0.0165385
0.0143861
0.0126165
0.0111476
0.00991761
0.00887888
0.00799821
0.0072474
0.311746
0.197541
0.130357
0.0911458
0.0668024
0.0508112
0.0397946
0.0319124
0.0260946
0.0216879
0.0182774
0.0155896
0.0134425
0.0117003
0.0102703
0.00908408
0.00809065
0.00725387
0.0065581
0.00588165
0.264759
0.104702
0.0585298
0.0391631
0.02862
0.0219936
0.0175362
0.0143635
0.0120086
0.0102143
0.00881713
0.00770694
0.00680598
0.00606382
0.00545383
0.00495495
0.00454217
0.00420222
0.00394157
0.00376514
0.283364
0.126774
0.071702
0.0473282
0.0338663
0.0256617
0.0204609
0.0167971
0.0140487
0.0119411
0.0102841
0.0089559
0.00788483
0.00701089
0.00628802
0.00568392
0.00517644
0.00474811
0.00438839
0.0041088
0.31754
0.217754
0.151085
0.108549
0.0807156
0.0618726
0.0486773
0.0391418
0.0320586
0.0266714
0.0224899
0.019187
0.0165385
0.0143861
0.0126165
0.0111476
0.00991761
0.00887889
0.00799822
0.00724743
0.322005
0.239026
0.177588
0.133616
0.102323
0.079867
0.0635107
0.0513823
0.0422219
0.0351797
0.0296762
0.02531
0.0217989
0.0189408
0.0165885
0.0146331
0.0129932
0.0116064
0.0104211
0.00936201
0.323293
0.245617
0.187499
0.144537
0.112864
0.0894039
0.0718633
0.0585865
0.0483997
0.0404744
0.0342249
0.0292336
0.0251996
0.0219033
0.0191827
0.0169164
0.0150121
0.0133987
0.0120183
0.0108134
0.323714
0.247819
0.191099
0.14881
0.117249
0.0935707
0.0756572
0.0619604
0.0513625
0.0430609
0.0364788
0.0311988
0.0269168
0.0234082
0.020506
0.0180839
0.0160455
0.0143154
0.0128311
0.0115238
0.323714
0.247819
0.191099
0.14881
0.117249
0.0935706
0.0756572
0.0619603
0.0513624
0.0430608
0.0364786
0.0311987
0.0269165
0.0234079
0.0205055
0.0180833
0.0160447
0.0143146
0.012831
0.0115299
0.323293
0.245617
0.187499
0.144537
0.112864
0.0894039
0.0718632
0.0585864
0.0483995
0.0404742
0.0342247
0.0292333
0.0251991
0.0219028
0.0191819
0.0169152
0.0150106
0.0133966
0.0120148
0.0108031
0.322005
0.239026
0.177588
0.133616
0.102323
0.079867
0.0635107
0.0513823
0.0422219
0.0351797
0.0296762
0.02531
0.0217989
0.0189408
0.0165885
0.0146331
0.0129932
0.0116063
0.0104211
0.00936198
0.31754
0.217754
0.151086
0.108549
0.0807157
0.0618727
0.0486774
0.0391419
0.0320588
0.0266717
0.0224903
0.0191876
0.0165392
0.0143872
0.012618
0.0111499
0.00992112
0.00888432
0.00800729
0.00725433
0.283364
0.126774
0.071702
0.0473282
0.0338663
0.0256617
0.0204609
0.0167972
0.0140488
0.0119414
0.0102844
0.00895639
0.00788555
0.00701197
0.00628967
0.00568651
0.00518061
0.00475493
0.00439888
0.00411552
0.292299
0.141633
0.0819301
0.0541654
0.038923
0.0292874
0.0232722
0.0190784
0.0159338
0.0135146
0.0116261
0.0101118
0.00888048
0.00786899
0.00702988
0.00632722
0.00573345
0.00522726
0.00479497
0.00446553
0.319723
0.227073
0.162232
0.118772
0.089361
0.0689926
0.0545304
0.0439842
0.0360994
0.0300741
0.0253813
0.0216639
0.0186758
0.0162426
0.0142382
0.0125697
0.0111679
0.00997952
0.00896251
0.00807726
0.323293
0.245617
0.187499
0.144537
0.112864
0.0894039
0.0718632
0.0585864
0.0483995
0.0404742
0.0342247
0.0292333
0.0251991
0.0219027
0.0191819
0.0169152
0.0150106
0.0133966
0.0120148
0.0108031
0.324288
0.250862
0.19613
0.154888
0.123591
0.09968
0.0812742
0.0669838
0.0557849
0.0469225
0.0398397
0.0341239
0.0294678
0.0256406
0.0224677
0.019816
0.0175826
0.0156861
0.0140578
0.0126239
0.32459
0.252403
0.19891
0.158543
0.12769
0.103871
0.08532
0.0707498
0.0592098
0.0499926
0.0425683
0.0365382
0.0316003
0.0275247
0.024135
0.0212948
0.0188977
0.0168581
0.0151005
0.0135305
0.32459
0.252403
0.19891
0.158543
0.12769
0.103871
0.08532
0.0707498
0.0592098
0.0499925
0.0425682
0.0365381
0.0316003
0.0275247
0.0241349
0.0212947
0.0188976
0.0168584
0.0151028
0.0135454
0.324288
0.250862
0.19613
0.154888
0.123591
0.09968
0.0812742
0.0669838
0.0557849
0.0469225
0.0398397
0.0341239
0.0294678
0.0256406
0.0224677
0.019816
0.0175826
0.0156861
0.0140578
0.0126239
0.323293
0.245617
0.187499
0.144537
0.112864
0.0894039
0.0718633
0.0585865
0.0483997
0.0404744
0.0342249
0.0292336
0.0251996
0.0219033
0.0191827
0.0169164
0.0150121
0.0133987
0.0120182
0.0108133
0.319723
0.227073
0.162232
0.118772
0.0893611
0.0689928
0.0545305
0.0439844
0.0360996
0.0300745
0.0253818
0.0216647
0.0186769
0.0162441
0.0142404
0.0125731
0.011173
0.00998711
0.00897449
0.00810578
0.292299
0.141633
0.0819302
0.0541654
0.0389231
0.0292874
0.0232723
0.0190786
0.015934
0.0135148
0.0116265
0.0101124
0.00888128
0.00787018
0.0070317
0.0063301
0.00573804
0.00523469
0.00480564
0.00446496
0.295943
0.148782
0.0871941
0.0576749
0.0415193
0.0310721
0.0246449
0.0202207
0.0169045
0.0143242
0.0123072
0.0107006
0.00939357
0.00831858
0.00742518
0.00667525
0.00603941
0.00549478
0.00502628
0.00464937
0.320484
0.23086
0.167176
0.123531
0.0935158
0.0724823
0.0574404
0.0464208
0.0381531
0.0318162
0.0268694
0.0229446
0.0197849
0.0172083
0.0150831
0.0133117
0.0118207
0.0105538
0.00946734
0.00852152
0.323714
0.247819
0.191099
0.14881
0.117249
0.0935706
0.0756572
0.0619603
0.0513624
0.0430608
0.0364786
0.0311986
0.0269165
0.0234079
0.0205055
0.0180833
0.0160447
0.0143145
0.0128309
0.0115298
0.32459
0.252403
0.19891
0.158543
0.12769
0.103871
0.08532
0.0707498
0.0592098
0.0499925
0.0425682
0.0365381
0.0316003
0.0275246
0.0241349
0.0212947
0.0188976
0.0168584
0.0151028
0.0135453
0.324844
0.253685
0.20131
0.161836
0.131535
0.107943
0.08937
0.0746125
0.062792
0.0532534
0.0455013
0.0391574
0.0339303
0.0295946
0.0259743
0.0229319
0.020358
0.018164
0.0162711
0.014589
0.324844
0.253685
0.20131
0.161836
0.131535
0.107943
0.08937
0.0746125
0.062792
0.0532534
0.0455013
0.0391574
0.0339303
0.0295946
0.0259743
0.0229319
0.020358
0.018164
0.0162711
0.014589
0.32459
0.252403
0.19891
0.158543
0.12769
0.103871
0.08532
0.0707498
0.0592098
0.0499926
0.0425683
0.0365382
0.0316003
0.0275247
0.024135
0.0212948
0.0188977
0.0168581
0.0151005
0.0135304
0.323714
0.247819
0.191099
0.14881
0.117249
0.0935707
0.0756572
0.0619604
0.0513625
0.0430609
0.0364788
0.0311988
0.0269168
0.0234082
0.020506
0.0180839
0.0160455
0.0143154
0.0128311
0.0115237
0.320484
0.23086
0.167176
0.123531
0.0935158
0.0724823
0.0574404
0.0464209
0.0381533
0.0318164
0.0268697
0.022945
0.0197854
0.0172091
0.0150843
0.0133134
0.0118233
0.0105577
0.00947341
0.00853226
0.295943
0.148782
0.0871941
0.0576749
0.0415193
0.0310722
0.0246449
0.0202208
0.0169046
0.0143243
0.0123074
0.0107009
0.00939397
0.00831917
0.0074261
0.00667673
0.00604181
0.00549874
0.00503369
0.00467306
0.295943
0.148782
0.0871941
0.0576749
0.0415193
0.0310722
0.0246449
0.0202208
0.0169046
0.0143243
0.0123074
0.0107009
0.00939397
0.00831917
0.00742609
0.00667672
0.00604181
0.00549874
0.00503368
0.00467305
0.320484
0.23086
0.167176
0.123531
0.0935158
0.0724824
0.0574404
0.0464209
0.0381533
0.0318164
0.0268697
0.022945
0.0197855
0.0172091
0.0150842
0.0133134
0.0118233
0.0105577
0.0094734
0.00853225
0.323714
0.247819
0.191099
0.14881
0.117249
0.0935707
0.0756572
0.0619604
0.0513625
0.0430609
0.0364788
0.0311989
0.0269168
0.0234082
0.020506
0.0180839
0.0160455
0.0143154
0.0128311
0.0115237
0.32459
0.252403
0.19891
0.158543
0.12769
0.103871
0.08532
0.0707498
0.0592098
0.0499926
0.0425683
0.0365382
0.0316003
0.0275247
0.024135
0.0212948
0.0188977
0.0168581
0.0151005
0.0135305
0.324844
0.253685
0.20131
0.161836
0.131535
0.107943
0.08937
0.0746125
0.062792
0.0532534
0.0455013
0.0391574
0.0339303
0.0295946
0.0259743
0.0229319
0.020358
0.018164
0.0162711
0.0145891
0.324844
0.253685
0.20131
0.161836
0.131535
0.107943
0.08937
0.0746125
0.062792
0.0532534
0.0455013
0.0391574
0.0339303
0.0295946
0.0259743
0.0229319
0.020358
0.018164
0.0162711
0.0145891
0.32459
0.252403
0.19891
0.158543
0.12769
0.103871
0.08532
0.0707498
0.0592098
0.0499925
0.0425682
0.0365381
0.0316003
0.0275246
0.0241349
0.0212947
0.0188976
0.0168584
0.0151028
0.0135454
0.323714
0.247819
0.191099
0.14881
0.117249
0.0935706
0.0756572
0.0619603
0.0513624
0.0430608
0.0364786
0.0311987
0.0269165
0.0234079
0.0205055
0.0180833
0.0160447
0.0143146
0.0128309
0.0115298
0.320484
0.23086
0.167176
0.123531
0.0935158
0.0724823
0.0574404
0.0464208
0.0381531
0.0318162
0.0268694
0.0229446
0.0197849
0.0172083
0.0150831
0.0133117
0.0118206
0.0105538
0.00946734
0.00852154
0.295943
0.148782
0.0871941
0.0576749
0.0415193
0.0310721
0.0246449
0.0202207
0.0169045
0.0143242
0.0123072
0.0107006
0.00939357
0.00831858
0.00742517
0.00667524
0.00603941
0.00549478
0.00502627
0.00464938
0.292299
0.141633
0.0819302
0.0541654
0.0389231
0.0292874
0.0232723
0.0190786
0.015934
0.0135148
0.0116265
0.0101124
0.0088813
0.00787018
0.00703169
0.00633009
0.00573804
0.00523468
0.00480564
0.00446495
0.319723
0.227073
0.162232
0.118772
0.0893611
0.0689928
0.0545305
0.0439844
0.0360996
0.0300745
0.0253818
0.0216647
0.0186769
0.0162441
0.0142404
0.0125731
0.011173
0.00998713
0.00897452
0.00810581
0.323293
0.245617
0.187499
0.144537
0.112864
0.0894039
0.0718633
0.0585865
0.0483997
0.0404744
0.0342249
0.0292336
0.0251996
0.0219033
0.0191827
0.0169164
0.0150121
0.0133987
0.0120183
0.0108133
0.324288
0.250862
0.19613
0.154888
0.123591
0.09968
0.0812742
0.0669838
0.0557849
0.0469225
0.0398397
0.0341239
0.0294678
0.0256406
0.0224677
0.019816
0.0175826
0.0156861
0.0140578
0.012624
0.32459
0.252403
0.19891
0.158543
0.12769
0.103871
0.08532
0.0707498
0.0592098
0.0499925
0.0425683
0.0365381
0.0316003
0.0275247
0.0241349
0.0212947
0.0188977
0.0168584
0.0151028
0.0135454
0.32459
0.252403
0.19891
0.158543
0.12769
0.103871
0.08532
0.0707498
0.0592098
0.0499926
0.0425683
0.0365382
0.0316003
0.0275247
0.024135
0.0212948
0.0188977
0.0168581
0.0151005
0.0135305
0.324288
0.250862
0.19613
0.154888
0.123591
0.09968
0.0812742
0.0669838
0.0557849
0.0469225
0.0398397
0.0341239
0.0294678
0.0256406
0.0224677
0.019816
0.0175826
0.0156861
0.0140578
0.012624
0.323293
0.245617
0.187499
0.144537
0.112864
0.0894039
0.0718632
0.0585864
0.0483995
0.0404742
0.0342247
0.0292333
0.0251991
0.0219027
0.0191819
0.0169152
0.0150106
0.0133966
0.0120148
0.0108031
0.319723
0.227073
0.162232
0.118772
0.089361
0.0689926
0.0545304
0.0439842
0.0360994
0.0300741
0.0253813
0.0216639
0.0186759
0.0162426
0.0142381
0.0125697
0.0111679
0.00997951
0.00896251
0.00807727
0.292299
0.141633
0.0819301
0.0541654
0.038923
0.0292874
0.0232722
0.0190784
0.0159338
0.0135145
0.0116261
0.0101119
0.00888049
0.00786899
0.00702986
0.00632721
0.00573344
0.00522725
0.00479497
0.00446553
0.283364
0.126774
0.071702
0.0473282
0.0338663
0.0256617
0.0204609
0.0167972
0.0140488
0.0119414
0.0102844
0.0089564
0.00788556
0.00701197
0.00628966
0.00568651
0.00518061
0.00475493
0.00439888
0.00411552
0.31754
0.217754
0.151086
0.108549
0.0807157
0.0618727
0.0486774
0.0391419
0.0320588
0.0266717
0.0224903
0.0191876
0.0165393
0.0143872
0.012618
0.01115
0.00992114
0.00888434
0.00800732
0.00725439
0.322005
0.239026
0.177588
0.133616
0.102323
0.079867
0.0635107
0.0513823
0.0422219
0.0351797
0.0296762
0.02531
0.0217989
0.0189408
0.0165885
0.0146331
0.0129932
0.0116064
0.0104211
0.00936205
0.323293
0.245617
0.187499
0.144537
0.112864
0.0894039
0.0718633
0.0585864
0.0483995
0.0404742
0.0342247
0.0292333
0.0251991
0.0219028
0.0191819
0.0169152
0.0150106
0.0133966
0.0120149
0.0108031
0.323714
0.247819
0.191099
0.14881
0.117249
0.0935706
0.0756572
0.0619603
0.0513624
0.0430608
0.0364786
0.0311987
0.0269165
0.0234079
0.0205055
0.0180833
0.0160447
0.0143146
0.0128309
0.0115298
0.323714
0.247819
0.191099
0.14881
0.117249
0.0935707
0.0756572
0.0619604
0.0513625
0.0430609
0.0364788
0.0311988
0.0269168
0.0234082
0.020506
0.0180839
0.0160455
0.0143154
0.0128311
0.0115236
0.323293
0.245617
0.187499
0.144537
0.112864
0.0894039
0.0718633
0.0585865
0.0483997
0.0404744
0.0342249
0.0292336
0.0251996
0.0219033
0.0191827
0.0169164
0.0150121
0.0133987
0.0120182
0.0108133
0.322005
0.239026
0.177588
0.133616
0.102323
0.079867
0.0635107
0.0513823
0.0422219
0.0351797
0.0296762
0.02531
0.0217989
0.0189408
0.0165885
0.0146331
0.0129932
0.0116064
0.0104211
0.00936198
0.31754
0.217754
0.151085
0.108549
0.0807156
0.0618726
0.0486773
0.0391417
0.0320586
0.0266714
0.0224899
0.019187
0.0165385
0.0143861
0.0126165
0.0111476
0.0099176
0.00887888
0.00799822
0.00724741
0.283364
0.126774
0.071702
0.0473282
0.0338663
0.0256617
0.0204609
0.0167971
0.0140487
0.0119411
0.0102841
0.0089559
0.00788484
0.00701089
0.006288
0.00568391
0.00517643
0.0047481
0.00438838
0.00410877
0.264759
0.104702
0.0585298
0.0391631
0.02862
0.0219936
0.0175362
0.0143635
0.0120086
0.0102143
0.00881713
0.00770694
0.00680598
0.00606383
0.00545383
0.00495496
0.00454217
0.00420223
0.00394158
0.00376516
0.311746
0.197541
0.130357
0.0911458
0.0668024
0.0508112
0.0397946
0.0319124
0.0260946
0.0216879
0.0182774
0.0155896
0.0134425
0.0117003
0.0102703
0.0090841
0.00809067
0.0072539
0.00655813
0.00588171
0.31754
0.217754
0.151085
0.108549
0.0807156
0.0618726
0.0486773
0.0391418
0.0320586
0.0266715
0.0224899
0.019187
0.0165385
0.0143861
0.0126165
0.0111477
0.00991763
0.00887891
0.00799825
0.00724745
0.319723
0.227073
0.162232
0.118772
0.089361
0.0689926
0.0545304
0.0439842
0.0360994
0.0300741
0.0253813
0.0216639
0.0186758
0.0162426
0.0142382
0.0125697
0.0111679
0.00997953
0.00896252
0.00807727
0.320484
0.23086
0.167176
0.123531
0.0935158
0.0724823
0.0574404
0.0464208
0.0381531
0.0318162
0.0268694
0.0229446
0.0197849
0.0172083
0.0150831
0.0133117
0.0118207
0.0105538
0.00946733
0.00852151
0.320484
0.23086
0.167176
0.123531
0.0935158
0.0724823
0.0574404
0.0464209
0.0381533
0.0318164
0.0268697
0.022945
0.0197854
0.0172091
0.0150842
0.0133134
0.0118232
0.0105577
0.00947339
0.00853223
0.319723
0.227073
0.162232
0.118772
0.0893611
0.0689927
0.0545305
0.0439844
0.0360996
0.0300745
0.0253818
0.0216647
0.0186769
0.0162441
0.0142404
0.0125731
0.011173
0.00998711
0.00897449
0.00810581
0.31754
0.217754
0.151086
0.108549
0.0807157
0.0618727
0.0486774
0.0391419
0.0320588
0.0266717
0.0224903
0.0191876
0.0165392
0.0143872
0.012618
0.0111499
0.00992113
0.00888432
0.0080073
0.00725436
0.311746
0.197541
0.130357
0.0911458
0.0668024
0.0508112
0.0397946
0.0319124
0.0260946
0.0216879
0.0182774
0.0155896
0.0134425
0.0117003
0.0102703
0.00908408
0.00809065
0.00725387
0.0065581
0.00588167
0.264759
0.104702
0.0585298
0.0391631
0.02862
0.0219935
0.0175362
0.0143635
0.0120086
0.0102142
0.00881702
0.00770676
0.00680568
0.00606328
0.00545297
0.00495343
0.0045393
0.00419653
0.00392981
0.0037512
0.213564
0.055916
0.0283994
0.0193412
0.0146928
0.0118511
0.00989077
0.00851619
0.00749154
0.00669667
0.00606114
0.00555182
0.00512453
0.00474816
0.00443064
0.00416561
0.00394411
0.00376543
0.0036603
0.00356212
0.264759
0.104702
0.0585298
0.0391631
0.02862
0.0219935
0.0175362
0.0143635
0.0120086
0.0102142
0.00881702
0.00770676
0.00680569
0.00606328
0.00545298
0.00495344
0.00453931
0.00419654
0.00392984
0.00375122
0.283364
0.126774
0.071702
0.0473282
0.0338663
0.0256617
0.0204609
0.0167971
0.0140487
0.0119411
0.0102841
0.0089559
0.00788484
0.00701089
0.00628802
0.00568393
0.00517645
0.00474811
0.00438839
0.00410879
0.292299
0.141633
0.0819301
0.0541654
0.038923
0.0292874
0.0232722
0.0190784
0.0159338
0.0135146
0.0116261
0.0101118
0.00888048
0.00786899
0.00702988
0.00632722
0.00573345
0.00522725
0.00479497
0.00446553
0.295943
0.148782
0.0871941
0.0576749
0.0415193
0.0310721
0.0246449
0.0202207
0.0169045
0.0143242
0.0123072
0.0107006
0.00939357
0.00831857
0.00742517
0.00667524
0.00603941
0.00549478
0.00502626
0.00464936
0.295943
0.148782
0.0871941
0.0576749
0.0415193
0.0310722
0.0246449
0.0202208
0.0169046
0.0143243
0.0123074
0.0107009
0.00939397
0.00831916
0.00742608
0.00667671
0.0060418
0.00549873
0.00503368
0.00467303
0.292299
0.141633
0.0819302
0.0541654
0.0389231
0.0292874
0.0232723
0.0190786
0.015934
0.0135148
0.0116265
0.0101124
0.00888128
0.00787017
0.0070317
0.0063301
0.00573804
0.00523468
0.00480564
0.00446496
0.283364
0.126774
0.071702
0.0473282
0.0338663
0.0256617
0.0204609
0.0167972
0.0140488
0.0119414
0.0102844
0.00895639
0.00788555
0.00701197
0.00628967
0.00568652
0.0051806
0.00475492
0.00439888
0.00411551
0.264759
0.104702
0.0585298
0.0391631
0.02862
0.0219936
0.0175362
0.0143635
0.0120086
0.0102143
0.00881713
0.00770694
0.00680598
0.00606382
0.00545383
0.00495495
0.00454216
0.00420222
0.00394158
0.00376523
0.213564
0.055916
0.0283994
0.0193412
0.0146928
0.0118511
0.00989077
0.00851619
0.00749154
0.00669667
0.00606114
0.00555182
0.00512453
0.00474816
0.00443063
0.00416561
0.0039441
0.00376541
0.00366027
0.00356215
0.00491432
0.00418386
0.00354824
0.00318477
0.00296666
0.002832
0.00273204
0.00264837
0.00257983
0.00252217
0.00247287
0.00242775
0.00238565
0.00234668
0.00231067
0.00227772
0.00224798
0.00222113
0.00219681
0.00217478
0.0021548
0.00213732
0.00212262
0.00210944
0.00209795
0.00208646
0.00207551
0.00206565
0.00205748
0.00205098
0.00204541
0.00203906
0.00203301
0.00202803
0.00202642
0.0020231
0.00202165
0.00201942
0.00201717
0.00201396
0.00400168
0.00354663
0.00316492
0.00289502
0.00272364
0.00260132
0.00250188
0.00241489
0.00234043
0.00227584
0.00221783
0.00216566
0.00211961
0.00207691
0.00203703
0.00200035
0.00196732
0.00193785
0.0019116
0.00188823
0.00186756
0.00185004
0.00183425
0.00182134
0.00180934
0.00179809
0.00178796
0.00177882
0.00176983
0.0017633
0.00175736
0.00175158
0.00174652
0.00174146
0.00173856
0.0017361
0.00173381
0.00173202
0.00173062
0.00172921
0.00383081
0.00353756
0.00327897
0.00306648
0.0029024
0.00275758
0.00263404
0.00252923
0.00243792
0.00235734
0.00228603
0.00222249
0.00216612
0.00211702
0.00206933
0.00202532
0.00198686
0.0019529
0.00192283
0.00189667
0.00187178
0.00184964
0.00183159
0.00181557
0.00180071
0.00178653
0.00177371
0.00176255
0.00175299
0.00174473
0.00173711
0.00172969
0.00172345
0.00171942
0.00171586
0.00171083
0.0017086
0.00170619
0.00170443
0.00170322
0.00397483
0.00366678
0.00341762
0.00321065
0.00303478
0.00288323
0.00274985
0.002632
0.00252718
0.00243353
0.00234956
0.00227419
0.00220626
0.00214461
0.00208907
0.00203941
0.00199478
0.00195492
0.00191939
0.00188791
0.00185969
0.00183299
0.00180792
0.00178741
0.00177089
0.00175483
0.00173989
0.00172712
0.00171325
0.00170207
0.00169572
0.00168911
0.00168299
0.00167696
0.00167045
0.00166528
0.00166522
0.00166385
0.00166229
0.00166047
0.00430746
0.00384436
0.00354636
0.00331435
0.00312139
0.00295667
0.00281461
0.00268996
0.00257816
0.00247742
0.00238657
0.00230464
0.00223065
0.00216316
0.00210204
0.00204681
0.00199714
0.00195254
0.00191265
0.00187713
0.0018457
0.00181873
0.00179495
0.00177573
0.00175444
0.00173572
0.00171858
0.00170405
0.00168852
0.00167556
0.00166879
0.00166199
0.00165531
0.00164908
0.00164087
0.00163716
0.001637
0.00163602
0.00163417
0.0016313
0.00437104
0.00391478
0.00360558
0.00335926
0.0031546
0.00298078
0.00283067
0.00270016
0.00258383
0.00247871
0.00238348
0.00229739
0.00221954
0.0021489
0.00208516
0.002028
0.00197684
0.00193116
0.00189036
0.00185403
0.00182177
0.00179376
0.00176918
0.00174799
0.00172813
0.00170937
0.00169114
0.00167585
0.00165942
0.00164658
0.0016393
0.00163213
0.00162486
0.00161878
0.00161226
0.00161284
0.00161237
0.00160911
0.00160463
0.00160091
0.00415837
0.00382028
0.00354263
0.00330963
0.00310982
0.00293678
0.0027864
0.00265456
0.0025367
0.00243094
0.002336
0.00225088
0.00217439
0.00210529
0.00204312
0.00198742
0.00193764
0.00189327
0.00185382
0.00181886
0.00178797
0.00176099
0.00173732
0.00171661
0.00169716
0.00167888
0.00166188
0.00164634
0.00163016
0.00161798
0.00161079
0.00160321
0.00159547
0.00158925
0.00158267
0.00158253
0.00158147
0.0015783
0.00157451
0.00157168
0.00400829
0.00370731
0.00344167
0.00320669
0.00300313
0.00283057
0.00268268
0.00255401
0.00244124
0.00234162
0.00225319
0.00217461
0.00210414
0.00204052
0.00198354
0.00193271
0.00188743
0.00184717
0.00181149
0.00178002
0.00175224
0.00172791
0.00170669
0.00168802
0.00167035
0.00165245
0.00163642
0.00162342
0.00160926
0.00159828
0.00159118
0.00158387
0.00157643
0.00157076
0.00156588
0.00156083
0.00155872
0.00155855
0.00155665
0.00155453
0.00414515
0.00369079
0.00333809
0.00304109
0.00282043
0.00265885
0.00252795
0.00241709
0.0023217
0.00223779
0.00216332
0.00209843
0.00203938
0.00198559
0.00193707
0.00189418
0.00185423
0.00181821
0.00178669
0.00175883
0.0017339
0.0017123
0.00169105
0.00167279
0.00165739
0.00164233
0.00162875
0.00161746
0.00160548
0.00159589
0.001589
0.00158198
0.00157563
0.00157088
0.00156712
0.00156387
0.00156176
0.00155998
0.00155813
0.00155622
0.00424716
0.00373953
0.00326859
0.00292374
0.00270086
0.00255269
0.00244051
0.00234604
0.00226938
0.00220108
0.00214279
0.00209376
0.0020416
0.0019938
0.00195138
0.00191377
0.00188
0.0018493
0.00182179
0.00179726
0.0017758
0.00175746
0.00174029
0.00172541
0.00171227
0.00170028
0.00168961
0.00168003
0.00167029
0.00166249
0.00165623
0.00165047
0.00164552
0.00164133
0.0016372
0.00163633
0.00163409
0.00163174
0.00162963
0.00162716
0.00491433
0.00418388
0.00354829
0.00318479
0.00296678
0.00283212
0.00273222
0.00264851
0.00257999
0.00252204
0.00247288
0.00242791
0.00238538
0.00234599
0.00231014
0.0022774
0.00224778
0.002221
0.00219671
0.00217469
0.00215466
0.00213728
0.00212258
0.00210964
0.00209774
0.00208633
0.00207542
0.00206558
0.00205742
0.00205116
0.00204509
0.00203891
0.00203311
0.00202842
0.00202519
0.0020247
0.0020228
0.00201973
0.00201645
0.00201166
0.00424716
0.00373949
0.00326865
0.0029235
0.00270066
0.0025525
0.0024403
0.00234587
0.00226918
0.00220117
0.00214286
0.0020935
0.00204164
0.0019945
0.00195214
0.0019144
0.00188046
0.00184971
0.00182217
0.00179766
0.00177623
0.00175796
0.00174078
0.00172624
0.00171301
0.00170102
0.00169032
0.00168071
0.0016709
0.00166343
0.00165708
0.00165133
0.00164628
0.00164129
0.00164195
0.0016392
0.00163444
0.00163199
0.00163036
0.00162866
0.00420871
0.00374747
0.00336263
0.00310614
0.00294716
0.00279505
0.0026389
0.00248396
0.00235115
0.00222958
0.00211397
0.00201006
0.00191572
0.00182133
0.00173741
0.00166438
0.00159954
0.00154144
0.00149042
0.00144233
0.00140011
0.00136818
0.00134182
0.00131117
0.00128205
0.0012577
0.00123786
0.00122184
0.00120679
0.00118815
0.00117325
0.0011627
0.0011555
0.00115014
0.00114164
0.00113306
0.00113019
0.00112841
0.0011285
0.00113003
0.005617
0.00508592
0.00464638
0.00428777
0.0039751
0.00370051
0.00345691
0.00323954
0.00304281
0.00286459
0.00270372
0.00255759
0.00242624
0.00230661
0.00219998
0.0021029
0.00201651
0.00193735
0.00186721
0.00180411
0.00174722
0.00169826
0.00164934
0.00160066
0.0015602
0.00152352
0.0014918
0.00146602
0.00143842
0.00140819
0.00138843
0.00137187
0.00135927
0.00134994
0.00133679
0.00132118
0.00131403
0.00131014
0.00131085
0.0013131
0.00681882
0.00614585
0.00557894
0.00509873
0.00469103
0.00434055
0.00403078
0.00375601
0.00351063
0.00329103
0.00309433
0.00291692
0.00275707
0.00261322
0.00248368
0.00236666
0.00226152
0.00216733
0.0020825
0.00200852
0.00194149
0.00188368
0.00182651
0.00177303
0.00172726
0.00168536
0.00164789
0.00161697
0.00158302
0.0015495
0.00152794
0.00150819
0.00149193
0.00147847
0.00146007
0.00144195
0.00143561
0.00143065
0.00143071
0.00143144
0.00731404
0.00664501
0.00605836
0.00554541
0.00509685
0.00470299
0.00435955
0.00405876
0.00378907
0.00354654
0.00332856
0.00313212
0.00295603
0.00279685
0.00265332
0.00252406
0.00240782
0.00230351
0.00220997
0.0021266
0.00205146
0.00198691
0.00192232
0.00186474
0.00181687
0.00177361
0.00173356
0.00169695
0.00166154
0.00162939
0.0016045
0.00158166
0.00156233
0.00154636
0.00152658
0.00150939
0.00150274
0.00149721
0.00149472
0.00149471
0.00752433
0.00683062
0.00622505
0.0056966
0.00523487
0.00482916
0.00447256
0.00416236
0.00388774
0.00363999
0.00341668
0.00321494
0.00303358
0.00286999
0.00272223
0.00258901
0.00246914
0.00236145
0.00226483
0.00217843
0.00210084
0.00203341
0.00196712
0.00191034
0.00185896
0.00180963
0.00176606
0.0017283
0.00169584
0.00166552
0.00163842
0.00161446
0.00159415
0.0015776
0.00156448
0.00155429
0.00154307
0.0015327
0.00152657
0.00152183
0.00727571
0.00661552
0.00603118
0.00552036
0.00507524
0.00468669
0.004349
0.00405485
0.00379194
0.00355512
0.00334196
0.00314922
0.00297514
0.002818
0.00267581
0.00254746
0.00243181
0.00232776
0.00223426
0.00215058
0.00207552
0.00201024
0.0019466
0.00188763
0.00183689
0.00179017
0.00174616
0.00170975
0.00167258
0.00163734
0.00161068
0.00158713
0.00156779
0.00155248
0.00153271
0.00151654
0.00150735
0.00150296
0.00150253
0.00150173
0.00676688
0.00607067
0.00550081
0.00502551
0.00462484
0.00428651
0.00399259
0.00373116
0.0034968
0.00328582
0.00309527
0.00292226
0.00276461
0.00262162
0.00249184
0.00237493
0.00226948
0.00217455
0.0020888
0.00201222
0.0019446
0.00188503
0.00182756
0.00177032
0.00172186
0.00167665
0.00163699
0.00160361
0.00156934
0.00153268
0.00150884
0.00148793
0.00147146
0.00145988
0.00144983
0.0014388
0.00142658
0.00141711
0.00141238
0.00141453
0.00540542
0.00493235
0.00449987
0.00415127
0.00386476
0.00361539
0.0033893
0.00318469
0.00299708
0.00282445
0.00266446
0.00251715
0.00238301
0.00226005
0.00214774
0.00204892
0.00195918
0.00187829
0.00180394
0.00173894
0.00167986
0.0016304
0.00158063
0.00153023
0.00148836
0.00145125
0.00141999
0.00139494
0.00136839
0.00133815
0.00131756
0.00130117
0.00128928
0.00128188
0.00127446
0.00126563
0.00125503
0.00124535
0.00124499
0.00124759
0.00420871
0.00374757
0.00336256
0.00310639
0.00294765
0.00279574
0.00263953
0.00248446
0.00235167
0.00222918
0.00211387
0.00201046
0.00191493
0.00181957
0.00173617
0.00166347
0.00159915
0.00154121
0.00149036
0.00144224
0.00139978
0.00136766
0.0013408
0.00130914
0.00127979
0.00125601
0.00123657
0.00122092
0.00120619
0.00118745
0.00117217
0.00116158
0.00115426
0.0011496
0.00114478
0.00114259
0.00113596
0.00112876
0.00112658
0.00112731
0.00400164
0.00354659
0.00316493
0.00289464
0.00272368
0.0026015
0.0025021
0.00241508
0.00234069
0.00227583