/*--------------------------------*- C++ -*----------------------------------*\
| =========                 |                                                 |
| \\      /  F ield         | OpenFOAM: The Open Source CFD Toolbox           |
|  \\    /   O peration     | Version:  2212                                  |
|   \\  /    A nd           | Website:  www.openfoam.com                      |
|    \\/     M anipulation  |                                                 |
\*---------------------------------------------------------------------------*/
FoamFile
{
    version     2.0;
    format      ascii;
    arch        "LSB;label=32;scalar=64";
    class       volScalarField;
    location    "0.9";
    object      p;
}
// * * * * * * * * * * * * * * * * * * * * * * * * * * * * * * * * * * * * * //

dimensions      [0 2 -2 0 0 0 0];

internalField   nonuniform List<scalar> 
6840
(
0.0177998
0.0106854
0.00839394
0.0078561
0.00758171
0.00735946
0.00717273
0.00700617
0.00684483
0.00668508
0.006527
0.00637031
0.00621362
0.00605507
0.00589481
0.00573175
0.00556235
0.00538122
0.00513203
0.0046511
0.010621
0.00988716
0.00879425
0.00812825
0.00772562
0.0074518
0.00724051
0.00705411
0.00687942
0.00671163
0.00654816
0.00638709
0.00622648
0.00606486
0.00590169
0.00573492
0.00555933
0.0053619
0.00509959
0.00465974
0.0102727
0.00942123
0.00865695
0.00809778
0.00772159
0.00745351
0.00723776
0.0070447
0.00686605
0.00669713
0.00653297
0.00637127
0.00621129
0.00605232
0.00589284
0.00573071
0.00556218
0.00538208
0.00518852
0.00497493
0.00986349
0.00910075
0.00848198
0.00803064
0.00768666
0.00741762
0.00719799
0.00700917
0.00684132
0.00668384
0.00652808
0.00637265
0.00621826
0.00606545
0.00591454
0.0057661
0.00562079
0.00548007
0.00534875
0.00523939
0.00972931
0.00898812
0.00839994
0.00799183
0.0076699
0.0074032
0.00718172
0.00699118
0.00682059
0.0066642
0.00651486
0.00636588
0.00621669
0.00606959
0.00592754
0.00579356
0.00567174
0.00556619
0.0054856
0.00544546
0.00972932
0.00898813
0.00839996
0.00799186
0.00766995
0.00740329
0.00718186
0.0069914
0.00682096
0.0066648
0.00651585
0.00636752
0.00621943
0.0060742
0.0059355
0.00580764
0.00569612
0.00560888
0.00556303
0.00558489
0.00986353
0.00910079
0.00848203
0.00803072
0.00768677
0.00741781
0.0071983
0.00700969
0.00684217
0.00668523
0.00653037
0.00637639
0.00622438
0.00607556
0.00593156
0.00579513
0.00567046
0.00556431
0.00549308
0.00548045
0.0102728
0.00942127
0.00865699
0.00809785
0.0077217
0.0074537
0.00723807
0.00704521
0.00686688
0.00669849
0.0065352
0.00637488
0.0062171
0.00606175
0.00590823
0.0057558
0.00560369
0.00545161
0.00530996
0.00519902
0.010621
0.00988717
0.00879427
0.00812829
0.00772568
0.00745191
0.00724069
0.00705441
0.00687991
0.00671243
0.00654946
0.00638922
0.00623004
0.0060707
0.00591112
0.00575013
0.00558478
0.00540649
0.00518277
0.00483002
0.0177998
0.0106854
0.00839394
0.00785609
0.00758171
0.00735945
0.00717272
0.00700617
0.00684483
0.00668508
0.006527
0.00637031
0.00621362
0.00605508
0.00589482
0.00573177
0.00556237
0.00538125
0.00513208
0.00465116
0.010621
0.00988718
0.00879427
0.00812829
0.00772569
0.00745191
0.00724069
0.00705441
0.00687991
0.00671243
0.00654946
0.00638922
0.00623004
0.00607069
0.00591111
0.00575011
0.00558476
0.00540646
0.00518272
0.00482994
0.00990442
0.00987271
0.00914447
0.00843394
0.00798755
0.00767152
0.00741252
0.0071847
0.00697984
0.00679103
0.00661267
0.00644088
0.00627217
0.00610437
0.00593625
0.00576574
0.00558816
0.00539872
0.00521148
0.00510747
0.00897894
0.00910512
0.00880221
0.00838596
0.00801878
0.00770008
0.00742142
0.00718077
0.00696787
0.0067728
0.00658869
0.00641211
0.00624076
0.00607247
0.00590497
0.00573625
0.00556458
0.00538862
0.00521523
0.00506794
0.00856058
0.00860408
0.0084385
0.00817555
0.00789516
0.0076238
0.00737277
0.00714636
0.00694328
0.00675659
0.00657924
0.00640821
0.00624211
0.00607955
0.00591944
0.00576111
0.00560436
0.00545017
0.00530112
0.0051614
0.00834465
0.00836647
0.00823928
0.00802178
0.00778938
0.00756026
0.00733753
0.00712452
0.00692401
0.00673719
0.00656158
0.00639416
0.00623339
0.00607761
0.00592661
0.0057825
0.00564621
0.00551754
0.00539911
0.00529589
0.00834467
0.0083665
0.00823931
0.00802183
0.00778946
0.00756038
0.00733771
0.00712479
0.00692443
0.00673788
0.00656272
0.00639603
0.00623627
0.00608193
0.00593338
0.00579299
0.00566175
0.00553909
0.00542723
0.00532834
0.00856063
0.00860414
0.00843857
0.00817565
0.0078953
0.00762401
0.0073731
0.00714688
0.00694412
0.00675801
0.00658162
0.00641204
0.00624786
0.0060883
0.00593333
0.00578316
0.00563854
0.00550194
0.00538146
0.00528238
0.00897897
0.00910515
0.00880225
0.00838602
0.00801886
0.00770022
0.00742164
0.00718114
0.0069685
0.0067738
0.00659026
0.00641452
0.0062445
0.00607824
0.00591365
0.00574894
0.00558192
0.00540971
0.00523155
0.0050475
0.00990442
0.00987271
0.00914447
0.00843394
0.00798754
0.00767152
0.00741251
0.00718469
0.00697984
0.00679103
0.00661267
0.00644088
0.00627217
0.00610438
0.00593625
0.00576576
0.00558817
0.00539875
0.00521153
0.00510754
0.010621
0.00988715
0.00879424
0.00812825
0.00772562
0.0074518
0.00724051
0.00705411
0.00687941
0.00671162
0.00654815
0.00638709
0.00622648
0.00606486
0.0059017
0.00573493
0.00555935
0.00536192
0.00509964
0.00465981
0.0102728
0.00942127
0.00865699
0.00809785
0.0077217
0.0074537
0.00723807
0.00704521
0.00686688
0.00669849
0.0065352
0.00637487
0.0062171
0.00606175
0.00590822
0.00575578
0.00560366
0.00545157
0.00530991
0.00519895
0.00897897
0.00910515
0.00880225
0.00838602
0.00801886
0.00770022
0.00742164
0.00718114
0.0069685
0.0067738
0.00659025
0.00641452
0.0062445
0.00607823
0.00591364
0.00574893
0.0055819
0.00540968
0.00523152
0.00504746
0.00840946
0.00851043
0.00839886
0.00817336
0.00791758
0.00765915
0.00740069
0.00715895
0.00694088
0.00674034
0.00655232
0.00637358
0.00620126
0.00603292
0.00586701
0.00570226
0.00553802
0.00537648
0.00522496
0.005084
0.00804148
0.00810955
0.00805716
0.00791017
0.00772527
0.00752013
0.00730944
0.00710251
0.0069013
0.00670873
0.00652589
0.00635092
0.00618177
0.00601702
0.00585556
0.00569626
0.00553819
0.00538132
0.00522703
0.00507099
0.00785847
0.0079229
0.00789344
0.00776859
0.0076096
0.00743597
0.00724975
0.00706183
0.00687579
0.0066925
0.00651344
0.00633964
0.00617153
0.00600939
0.00585342
0.00570269
0.00555492
0.00540923
0.0052672
0.00512163
0.00785849
0.00792292
0.00789346
0.00776864
0.00760967
0.00743607
0.00724988
0.00706202
0.00687608
0.00669293
0.00651409
0.00634061
0.00617291
0.00601139
0.0058563
0.00570657
0.00555958
0.0054137
0.00526817
0.00511207
0.00804151
0.00810958
0.0080572
0.00791023
0.00772537
0.00752026
0.00730963
0.0071028
0.00690175
0.00670944
0.00652703
0.00635269
0.00618443
0.00602102
0.00586155
0.00570508
0.00555077
0.00539839
0.00524869
0.00509253
0.00840946
0.00851043
0.00839886
0.00817336
0.00791758
0.00765915
0.00740069
0.00715895
0.00694088
0.00674034
0.00655232
0.00637357
0.00620126
0.00603292
0.00586701
0.00570227
0.00553802
0.00537647
0.00522494
0.00508396
0.00897893
0.00910511
0.00880221
0.00838596
0.00801877
0.00770008
0.00742141
0.00718077
0.00696787
0.00677279
0.00658868
0.0064121
0.00624076
0.00607246
0.00590497
0.00573625
0.00556459
0.00538863
0.00521524
0.00506795
0.0102727
0.00942122
0.00865694
0.00809778
0.00772158
0.0074535
0.00723775
0.00704469
0.00686604
0.00669713
0.00653297
0.00637126
0.00621128
0.00605232
0.00589283
0.00573071
0.00556218
0.00538209
0.00518855
0.00497499
0.00986352
0.00910079
0.00848203
0.00803072
0.00768677
0.0074178
0.0071983
0.00700968
0.00684217
0.00668522
0.00653036
0.00637638
0.00622437
0.00607555
0.00593154
0.0057951
0.00567042
0.00556426
0.00549303
0.00548039
0.00856063
0.00860414
0.00843857
0.00817565
0.0078953
0.007624
0.0073731
0.00714687
0.00694412
0.006758
0.00658162
0.00641203
0.00624785
0.00608829
0.00593332
0.00578314
0.00563852
0.00550191
0.00538143
0.00528236
0.00804151
0.00810958
0.0080572
0.00791023
0.00772537
0.00752026
0.00730963
0.0071028
0.00690175
0.00670944
0.00652703
0.00635269
0.00618443
0.00602101
0.00586154
0.00570507
0.00555076
0.00539839
0.00524869
0.00509255
0.00774361
0.00780275
0.00779081
0.00769541
0.00755579
0.00739029
0.00721008
0.00702558
0.00684156
0.00666112
0.00648589
0.00631568
0.00614984
0.00598776
0.00582883
0.00567217
0.00551682
0.0053624
0.00520949
0.00504923
0.00759252
0.00765541
0.00765916
0.00758552
0.0074654
0.00731903
0.00715617
0.00698477
0.00681065
0.00663709
0.00646594
0.00629807
0.00613384
0.0059733
0.00581627
0.00566206
0.00550958
0.0053589
0.00521178
0.00505849
0.00759252
0.00765541
0.00765917
0.00758553
0.00746542
0.00731906
0.00715621
0.00698483
0.00681073
0.0066372
0.00646608
0.00629825
0.00613407
0.00597358
0.00581658
0.00566224
0.00550931
0.00535753
0.0052079
0.00505026
0.00774361
0.00780275
0.00779081
0.00769541
0.00755579
0.00739029
0.00721008
0.00702558
0.00684156
0.00666111
0.00648589
0.00631568
0.00614984
0.00598775
0.00582882
0.00567217
0.00551681
0.00536239
0.00520948
0.0050492
0.00804148
0.00810954
0.00805716
0.00791016
0.00772527
0.00752012
0.00730944
0.0071025
0.0069013
0.00670872
0.00652589
0.00635091
0.00618176
0.00601701
0.00585555
0.00569625
0.00553817
0.0053813
0.00522699
0.00507092
0.00856057
0.00860408
0.0084385
0.00817555
0.00789515
0.00762379
0.00737277
0.00714636
0.00694328
0.00675658
0.00657923
0.0064082
0.0062421
0.00607954
0.00591943
0.0057611
0.00560435
0.00545015
0.00530109
0.00516136
0.00986348
0.00910074
0.00848197
0.00803064
0.00768665
0.00741762
0.00719798
0.00700917
0.00684131
0.00668383
0.00652807
0.00637264
0.00621825
0.00606544
0.00591453
0.00576609
0.00562078
0.00548007
0.00534875
0.0052394
0.00972932
0.00898813
0.00839996
0.00799186
0.00766995
0.00740328
0.00718185
0.00699139
0.00682095
0.00666479
0.00651584
0.00636751
0.00621941
0.00607418
0.00593547
0.00580761
0.00569609
0.00560883
0.00556298
0.00558483
0.00834467
0.0083665
0.00823931
0.00802183
0.00778945
0.00756037
0.0073377
0.00712478
0.00692443
0.00673787
0.00656271
0.00639602
0.00623626
0.00608191
0.00593336
0.00579296
0.00566172
0.00553906
0.00542719
0.0053283
0.00785848
0.00792292
0.00789346
0.00776863
0.00760967
0.00743607
0.00724988
0.00706201
0.00687607
0.00669292
0.00651409
0.0063406
0.0061729
0.00601138
0.00585629
0.00570656
0.00555957
0.00541368
0.00526815
0.00511206
0.00759252
0.00765541
0.00765917
0.00758553
0.00746542
0.00731906
0.00715621
0.00698483
0.00681073
0.0066372
0.00646607
0.00629825
0.00613407
0.00597358
0.00581658
0.00566223
0.00550931
0.00535753
0.0052079
0.00505026
0.00744973
0.00751925
0.00754137
0.00748882
0.00738758
0.00725666
0.00710676
0.00694578
0.00677929
0.00661094
0.00644312
0.00627725
0.00611408
0.00595396
0.00579681
0.00564186
0.00548794
0.00533448
0.00518186
0.00502019
0.00744973
0.00751925
0.00754137
0.00748882
0.00738758
0.00725666
0.00710676
0.00694578
0.00677929
0.00661094
0.00644312
0.00627725
0.00611408
0.00595396
0.0057968
0.00564186
0.00548794
0.00533448
0.00518186
0.00502019
0.00759251
0.00765541
0.00765916
0.00758551
0.0074654
0.00731903
0.00715617
0.00698477
0.00681065
0.00663709
0.00646594
0.00629807
0.00613384
0.00597329
0.00581627
0.00566205
0.00550958
0.00535889
0.00521177
0.00505847
0.00785846
0.0079229
0.00789343
0.00776859
0.0076096
0.00743596
0.00724975
0.00706182
0.00687579
0.00669249
0.00651344
0.00633964
0.00617152
0.00600938
0.0058534
0.00570267
0.00555491
0.00540921
0.00526717
0.00512159
0.00834464
0.00836647
0.00823927
0.00802177
0.00778937
0.00756026
0.00733752
0.00712451
0.006924
0.00673718
0.00656157
0.00639415
0.00623338
0.0060776
0.0059266
0.00578248
0.00564619
0.00551752
0.00539909
0.00529586
0.0097293
0.00898811
0.00839993
0.00799182
0.00766989
0.0074032
0.00718172
0.00699117
0.00682059
0.00666419
0.00651485
0.00636586
0.00621668
0.00606958
0.00592752
0.00579354
0.00567172
0.00556617
0.00548558
0.00544545
0.0097293
0.00898811
0.00839994
0.00799182
0.00766989
0.0074032
0.00718172
0.00699117
0.00682059
0.00666419
0.00651485
0.00636586
0.00621667
0.00606957
0.00592751
0.00579353
0.0056717
0.00556615
0.00548555
0.0054454
0.00834465
0.00836647
0.00823928
0.00802177
0.00778937
0.00756026
0.00733752
0.00712451
0.00692401
0.00673718
0.00656157
0.00639414
0.00623337
0.00607759
0.00592659
0.00578247
0.00564618
0.0055175
0.00539906
0.00529582
0.00785846
0.0079229
0.00789343
0.00776859
0.0076096
0.00743597
0.00724975
0.00706182
0.00687579
0.00669249
0.00651343
0.00633963
0.00617151
0.00600937
0.0058534
0.00570267
0.0055549
0.0054092
0.00526716
0.00512157
0.00759251
0.00765541
0.00765916
0.00758551
0.0074654
0.00731903
0.00715616
0.00698477
0.00681065
0.00663709
0.00646593
0.00629807
0.00613384
0.00597329
0.00581626
0.00566205
0.00550957
0.00535889
0.00521176
0.00505846
0.00744973
0.00751924
0.00754137
0.00748882
0.00738758
0.00725666
0.00710676
0.00694578
0.00677928
0.00661094
0.00644312
0.00627724
0.00611408
0.00595396
0.0057968
0.00564186
0.00548794
0.00533448
0.00518185
0.00502019
0.00744973
0.00751924
0.00754137
0.00748882
0.00738758
0.00725666
0.00710676
0.00694578
0.00677928
0.00661094
0.00644312
0.00627725
0.00611408
0.00595396
0.0057968
0.00564186
0.00548794
0.00533448
0.00518186
0.00502019
0.00759252
0.00765541
0.00765917
0.00758552
0.00746542
0.00731906
0.0071562
0.00698483
0.00681073
0.0066372
0.00646607
0.00629825
0.00613407
0.00597358
0.00581658
0.00566223
0.00550931
0.00535753
0.0052079
0.00505026
0.00785848
0.00792292
0.00789345
0.00776863
0.00760967
0.00743606
0.00724988
0.00706201
0.00687607
0.00669292
0.00651409
0.0063406
0.0061729
0.00601138
0.00585629
0.00570656
0.00555957
0.00541369
0.00526816
0.00511207
0.00834467
0.0083665
0.00823931
0.00802182
0.00778945
0.00756037
0.0073377
0.00712478
0.00692443
0.00673787
0.00656271
0.00639602
0.00623626
0.00608191
0.00593337
0.00579297
0.00566173
0.00553908
0.00542722
0.00532833
0.00972931
0.00898813
0.00839996
0.00799186
0.00766994
0.00740328
0.00718185
0.00699139
0.00682095
0.00666479
0.00651584
0.00636751
0.00621942
0.00607418
0.00593548
0.00580762
0.0056961
0.00560885
0.00556301
0.00558487
0.00986348
0.00910075
0.00848197
0.00803064
0.00768666
0.00741762
0.00719799
0.00700917
0.00684131
0.00668383
0.00652807
0.00637264
0.00621824
0.00606543
0.00591452
0.00576608
0.00562077
0.00548004
0.00534872
0.00523935
0.00856058
0.00860408
0.0084385
0.00817555
0.00789515
0.00762379
0.00737277
0.00714636
0.00694328
0.00675658
0.00657923
0.0064082
0.00624209
0.00607954
0.00591942
0.00576109
0.00560434
0.00545013
0.00530106
0.00516133
0.00804148
0.00810954
0.00805716
0.00791016
0.00772527
0.00752012
0.00730944
0.0071025
0.0069013
0.00670872
0.00652589
0.00635091
0.00618176
0.00601701
0.00585554
0.00569625
0.00553817
0.00538129
0.00522698
0.00507091
0.0077436
0.00780275
0.00779081
0.00769541
0.00755578
0.00739029
0.00721008
0.00702558
0.00684156
0.00666111
0.00648588
0.00631567
0.00614984
0.00598775
0.00582882
0.00567217
0.00551681
0.00536239
0.00520948
0.00504921
0.00759252
0.00765541
0.00765917
0.00758552
0.00746542
0.00731906
0.0071562
0.00698483
0.00681073
0.0066372
0.00646607
0.00629825
0.00613407
0.00597358
0.00581658
0.00566224
0.00550931
0.00535753
0.0052079
0.00505026
0.00759251
0.0076554
0.00765916
0.00758551
0.0074654
0.00731903
0.00715616
0.00698477
0.00681065
0.00663709
0.00646594
0.00629807
0.00613384
0.00597329
0.00581627
0.00566206
0.00550958
0.0053589
0.00521177
0.00505848
0.0077436
0.00780274
0.00779081
0.00769541
0.00755578
0.00739029
0.00721008
0.00702558
0.00684156
0.00666111
0.00648589
0.00631567
0.00614984
0.00598775
0.00582882
0.00567217
0.00551681
0.0053624
0.00520948
0.00504921
0.00804151
0.00810957
0.0080572
0.00791023
0.00772537
0.00752026
0.00730963
0.00710279
0.00690175
0.00670944
0.00652703
0.00635269
0.00618443
0.00602101
0.00586154
0.00570507
0.00555077
0.00539839
0.00524869
0.00509255
0.00856063
0.00860413
0.00843857
0.00817565
0.00789529
0.007624
0.00737309
0.00714687
0.00694411
0.006758
0.00658162
0.00641203
0.00624785
0.00608829
0.00593332
0.00578315
0.00563853
0.00550193
0.00538145
0.00528238
0.00986352
0.00910079
0.00848202
0.00803071
0.00768677
0.0074178
0.00719829
0.00700968
0.00684216
0.00668522
0.00653036
0.00637638
0.00622437
0.00607554
0.00593154
0.00579511
0.00567043
0.00556428
0.00549305
0.00548042
0.0102727
0.00942123
0.00865694
0.00809778
0.00772158
0.0074535
0.00723776
0.0070447
0.00686604
0.00669713
0.00653297
0.00637126
0.00621128
0.00605231
0.00589282
0.0057307
0.00556216
0.00538207
0.00518852
0.00497495
0.00897893
0.00910511
0.00880221
0.00838596
0.00801877
0.00770008
0.00742141
0.00718077
0.00696787
0.00677279
0.00658868
0.0064121
0.00624075
0.00607246
0.00590496
0.00573624
0.00556457
0.00538861
0.00521522
0.00506793
0.00840946
0.00851043
0.00839886
0.00817336
0.00791758
0.00765914
0.00740068
0.00715895
0.00694088
0.00674033
0.00655232
0.00637357
0.00620125
0.00603292
0.005867
0.00570226
0.00553801
0.00537646
0.00522494
0.00508396
0.00804151
0.00810957
0.0080572
0.00791023
0.00772537
0.00752025
0.00730963
0.00710279
0.00690175
0.00670944
0.00652703
0.00635269
0.00618443
0.00602101
0.00586155
0.00570508
0.00555077
0.0053984
0.0052487
0.00509255
0.00785848
0.00792291
0.00789345
0.00776863
0.00760967
0.00743606
0.00724988
0.00706201
0.00687607
0.00669292
0.00651409
0.0063406
0.00617291
0.00601139
0.0058563
0.00570657
0.00555958
0.0054137
0.00526817
0.00511208
0.00785846
0.0079229
0.00789343
0.00776859
0.0076096
0.00743596
0.00724975
0.00706182
0.00687579
0.00669249
0.00651344
0.00633964
0.00617152
0.00600938
0.00585341
0.00570268
0.00555492
0.00540923
0.00526718
0.0051216
0.00804148
0.00810954
0.00805716
0.00791016
0.00772527
0.00752012
0.00730944
0.0071025
0.0069013
0.00670872
0.00652589
0.00635092
0.00618176
0.00601701
0.00585555
0.00569626
0.00553818
0.00538131
0.005227
0.00507093
0.00840946
0.00851043
0.00839886
0.00817336
0.00791758
0.00765914
0.00740068
0.00715894
0.00694088
0.00674033
0.00655232
0.00637357
0.00620125
0.00603292
0.00586701
0.00570226
0.00553802
0.00537648
0.00522495
0.00508397
0.00897896
0.00910514
0.00880225
0.00838602
0.00801886
0.00770021
0.00742163
0.00718114
0.00696849
0.00677379
0.00659025
0.00641452
0.00624449
0.00607823
0.00591364
0.00574893
0.00558191
0.00540969
0.00523153
0.00504749
0.0102728
0.00942126
0.00865699
0.00809785
0.0077217
0.00745369
0.00723807
0.0070452
0.00686687
0.00669849
0.00653519
0.00637487
0.00621709
0.00606174
0.00590822
0.00575579
0.00560367
0.00545159
0.00530993
0.00519897
0.010621
0.00988715
0.00879424
0.00812825
0.00772561
0.0074518
0.00724051
0.00705411
0.00687941
0.00671162
0.00654815
0.00638709
0.00622647
0.00606485
0.00590169
0.00573491
0.00555933
0.0053619
0.0050996
0.00465976
0.00990442
0.0098727
0.00914446
0.00843394
0.00798754
0.00767152
0.00741251
0.00718469
0.00697983
0.00679102
0.00661266
0.00644087
0.00627217
0.00610437
0.00593624
0.00576574
0.00558815
0.00539872
0.00521149
0.00510748
0.00897896
0.00910514
0.00880225
0.00838602
0.00801886
0.00770021
0.00742164
0.00718114
0.00696849
0.00677379
0.00659025
0.00641452
0.00624449
0.00607823
0.00591364
0.00574893
0.0055819
0.00540968
0.00523152
0.00504746
0.00856062
0.00860413
0.00843856
0.00817564
0.00789529
0.007624
0.00737309
0.00714687
0.00694411
0.006758
0.00658162
0.00641204
0.00624785
0.00608829
0.00593333
0.00578315
0.00563853
0.00550193
0.00538145
0.00528237
0.00834466
0.00836649
0.00823931
0.00802182
0.00778945
0.00756037
0.0073377
0.00712478
0.00692443
0.00673787
0.00656271
0.00639603
0.00623627
0.00608192
0.00593338
0.00579298
0.00566174
0.00553909
0.00542722
0.00532833
0.00834464
0.00836647
0.00823927
0.00802177
0.00778937
0.00756025
0.00733752
0.00712451
0.00692401
0.00673718
0.00656157
0.00639415
0.00623339
0.00607761
0.00592661
0.0057825
0.00564621
0.00551754
0.0053991
0.00529587
0.00856057
0.00860407
0.00843849
0.00817554
0.00789515
0.00762379
0.00737277
0.00714635
0.00694328
0.00675658
0.00657923
0.00640821
0.0062421
0.00607955
0.00591944
0.00576111
0.00560436
0.00545017
0.0053011
0.00516137
0.00897893
0.00910511
0.0088022
0.00838596
0.00801877
0.00770007
0.00742141
0.00718076
0.00696787
0.00677279
0.00658868
0.0064121
0.00624076
0.00607247
0.00590497
0.00573625
0.00556459
0.00538863
0.00521525
0.00506798
0.00990441
0.0098727
0.00914446
0.00843393
0.00798754
0.00767151
0.00741251
0.00718469
0.00697983
0.00679102
0.00661266
0.00644087
0.00627217
0.00610437
0.00593625
0.00576575
0.00558817
0.00539874
0.00521152
0.00510754
0.010621
0.00988717
0.00879426
0.00812828
0.00772568
0.0074519
0.00724068
0.0070544
0.0068799
0.00671243
0.00654946
0.00638921
0.00623003
0.00607069
0.00591111
0.00575012
0.00558477
0.00540647
0.00518275
0.00482998
0.0177998
0.0106854
0.00839393
0.00785609
0.0075817
0.00735945
0.00717272
0.00700616
0.00684482
0.00668508
0.00652699
0.0063703
0.00621361
0.00605507
0.0058948
0.00573175
0.00556234
0.00538122
0.00513204
0.00465112
0.010621
0.00988717
0.00879426
0.00812828
0.00772568
0.0074519
0.00724068
0.0070544
0.0068799
0.00671243
0.00654946
0.00638921
0.00623003
0.00607069
0.0059111
0.00575011
0.00558476
0.00540646
0.00518273
0.00482995
0.0102728
0.00942126
0.00865699
0.00809785
0.00772169
0.00745369
0.00723807
0.0070452
0.00686687
0.00669848
0.00653519
0.00637487
0.00621709
0.00606175
0.00590822
0.00575579
0.00560367
0.00545158
0.00530992
0.00519897
0.00986352
0.00910078
0.00848202
0.00803071
0.00768677
0.0074178
0.00719829
0.00700968
0.00684216
0.00668522
0.00653036
0.00637638
0.00622437
0.00607555
0.00593155
0.00579512
0.00567044
0.00556429
0.00549306
0.00548042
0.00972931
0.00898813
0.00839996
0.00799185
0.00766994
0.00740328
0.00718185
0.00699139
0.00682095
0.00666479
0.00651585
0.00636752
0.00621943
0.00607419
0.00593549
0.00580763
0.00569612
0.00560887
0.00556302
0.00558487
0.0097293
0.00898811
0.00839993
0.00799182
0.00766989
0.0074032
0.00718171
0.00699117
0.00682059
0.00666419
0.00651486
0.00636587
0.00621668
0.00606959
0.00592753
0.00579356
0.00567173
0.00556618
0.00548559
0.00544545
0.00986348
0.00910074
0.00848197
0.00803063
0.00768665
0.00741761
0.00719798
0.00700916
0.00684131
0.00668383
0.00652807
0.00637264
0.00621825
0.00606544
0.00591454
0.0057661
0.00562079
0.00548007
0.00534876
0.0052394
0.0102727
0.00942122
0.00865693
0.00809777
0.00772158
0.00745349
0.00723775
0.00704469
0.00686604
0.00669712
0.00653296
0.00637126
0.00621128
0.00605232
0.00589283
0.00573071
0.00556218
0.0053821
0.00518856
0.004975
0.010621
0.00988715
0.00879424
0.00812824
0.00772561
0.00745179
0.0072405
0.0070541
0.00687941
0.00671162
0.00654815
0.00638708
0.00622647
0.00606485
0.00590169
0.00573492
0.00555934
0.00536191
0.00509963
0.00465982
0.0177998
0.0106854
0.00839393
0.00785609
0.0075817
0.00735945
0.00717271
0.00700616
0.00684482
0.00668507
0.00652699
0.0063703
0.00621361
0.00605507
0.0058948
0.00573176
0.00556235
0.00538124
0.00513206
0.00465116
0.00557892
0.00486075
0.00436558
0.00424968
0.00415635
0.00402933
0.00389959
0.00377189
0.00364318
0.0035142
0.00338513
0.00325653
0.00312833
0.00300084
0.00287412
0.00274832
0.00262425
0.0025013
0.0023796
0.00225912
0.00214054
0.00202387
0.00190971
0.00179589
0.00168003
0.00156477
0.00145148
0.00134037
0.0012314
0.001121
0.00100838
0.000897417
0.000789082
0.000683069
0.000578215
0.000471983
0.000364273
0.000257479
0.000153037
5.0006e-05
0.00560808
0.00493597
0.00445702
0.00428166
0.0041658
0.00403802
0.00390837
0.00377957
0.00364936
0.00351853
0.00338761
0.00325726
0.00312736
0.00299835
0.0028703
0.00274358
0.00261895
0.00249573
0.00237404
0.0022537
0.00213535
0.00201881
0.0019047
0.00179105
0.00167546
0.00156051
0.00144759
0.00133678
0.00122798
0.00111783
0.00100563
0.000895152
0.000787372
0.000682011
0.000577357
0.000470746
0.000363034
0.000256698
0.000152588
4.99649e-05
0.00529046
0.00494313
0.00460232
0.00438367
0.00422516
0.0040794
0.0039373
0.00379872
0.00366222
0.00352691
0.00339256
0.00325995
0.00312784
0.00299713
0.00286841
0.00274141
0.00261652
0.00249304
0.00237119
0.00225064
0.00213262
0.00201661
0.00190247
0.00178824
0.00167244
0.00155779
0.00144526
0.00133486
0.0012262
0.00111584
0.00100357
0.000893568
0.000786271
0.000681102
0.00057686
0.000470221
0.000361989
0.000255811
0.000152168
4.98935e-05
0.00498227
0.00485568
0.0046525
0.00445743
0.00428693
0.00413029
0.00397967
0.00383306
0.00368996
0.00354963
0.00341169
0.00327609
0.00314231
0.00301023
0.00288012
0.00275193
0.00262561
0.0025008
0.00237791
0.00225676
0.0021378
0.00202088
0.00190583
0.00179125
0.00167551
0.0015604
0.0014475
0.00133683
0.00122759
0.00111712
0.00100493
0.000894843
0.000787308
0.000682011
0.000577679
0.000470662
0.000362076
0.000255816
0.000152147
4.98469e-05
0.00484278
0.00477539
0.00464249
0.00447253
0.00430422
0.00414505
0.00399104
0.00384273
0.00369878
0.0035574
0.0034183
0.00328188
0.00314791
0.00301576
0.00288542
0.00275694
0.0026303
0.00250543
0.00238239
0.00226118
0.00214163
0.00202396
0.00190819
0.00179297
0.00167743
0.00156264
0.00144963
0.00133845
0.00122889
0.00111837
0.00100644
0.000896284
0.000788298
0.000682558
0.000578014
0.000471189
0.000362838
0.000256433
0.000152405
4.98635e-05
0.00480182
0.00474385
0.00462316
0.00446469
0.00430101
0.00414155
0.00398734
0.00383883
0.0036957
0.00355588
0.00341834
0.00328303
0.00314975
0.00301791
0.00288773
0.00275935
0.00263276
0.00250797
0.00238495
0.00226372
0.00214424
0.00202658
0.00191066
0.00179538
0.00167983
0.00156496
0.00145188
0.00134056
0.00123081
0.00112014
0.00100797
0.000897363
0.000789155
0.000683065
0.000578186
0.000471758
0.000363891
0.000257441
0.000153183
5.02094e-05
0.00488705
0.00478842
0.00462495
0.00444991
0.00428369
0.00412509
0.00397253
0.00382665
0.00368618
0.00354862
0.00341326
0.00327971
0.00314731
0.00301595
0.0028862
0.00275835
0.00263234
0.00250805
0.0023854
0.00226449
0.00214534
0.00202839
0.00191334
0.0017979
0.00168163
0.00156655
0.00145351
0.00134228
0.00123291
0.00112216
0.00100924
0.000898139
0.000789658
0.000684035
0.000579927
0.00047333
0.000364846
0.000257316
0.000152542
4.99692e-05
0.0050896
0.00488289
0.00463894
0.00443339
0.00425848
0.00409962
0.00395048
0.00380829
0.00367087
0.00353625
0.00340331
0.00327157
0.00314038
0.0030097
0.00288048
0.00275328
0.00262805
0.00250455
0.00238232
0.00226182
0.00214307
0.00202698
0.00191311
0.00179797
0.00168139
0.00156624
0.00145306
0.00134216
0.00123355
0.00112251
0.00100893
0.000897777
0.000789372
0.000683352
0.000578969
0.000473851
0.000366705
0.000258481
0.000152743
4.98769e-05
0.00535155
0.00495928
0.00459757
0.00436702
0.00419854
0.00404906
0.00390903
0.00377589
0.00364572
0.00351622
0.0033869
0.00325776
0.00312914
0.0030017
0.00287579
0.00275039
0.00262652
0.00250397
0.00238218
0.00226189
0.00214338
0.00202726
0.00191313
0.0017983
0.00168159
0.00156635
0.00145314
0.00134217
0.00123345
0.00112234
0.00100883
0.000897807
0.000789491
0.000683455
0.000579067
0.000474031
0.000366746
0.000258309
0.000152518
4.97636e-05
0.005594
0.00493113
0.0044538
0.00427652
0.00415575
0.00402186
0.00389072
0.00376441
0.00363824
0.00351139
0.00338395
0.00325662
0.0031298
0.00300403
0.00287906
0.00275418
0.00263045
0.00250782
0.00238598
0.00226553
0.00214675
0.00203003
0.0019158
0.00180123
0.0016846
0.00156885
0.00145514
0.0013437
0.00123463
0.00112392
0.00101077
0.000899333
0.000790504
0.000683955
0.000579081
0.000474423
0.000367851
0.000259578
0.000153412
4.99615e-05
0.0055789
0.00486074
0.00436556
0.00424958
0.00415629
0.00402941
0.00389972
0.00377201
0.00364336
0.00351432
0.00338515
0.00325649
0.00312837
0.00300097
0.00287437
0.00274853
0.00262435
0.00250154
0.0023798
0.00225957
0.00214111
0.00202458
0.00191046
0.00179613
0.00167997
0.00156465
0.00145134
0.00134017
0.00123123
0.001121
0.00100852
0.000897546
0.000789047
0.00068276
0.000577919
0.000473211
0.000366688
0.0002587
0.000152945
4.9652e-05
0.00559402
0.00493113
0.00445379
0.00427658
0.00415581
0.00402181
0.00389061
0.00376428
0.00363804
0.00351122
0.00338382
0.00325652
0.0031295
0.00300365
0.00287849
0.00275369
0.00263017
0.00250732
0.00238558
0.00226488
0.00214603
0.00202922
0.00191503
0.00180101
0.00168468
0.00156897
0.00145537
0.00134414
0.00123509
0.00112424
0.00101098
0.000899511
0.000790853
0.000684736
0.000579547
0.000472784
0.000365015
0.00025804
0.000153223
5.01135e-05
0.00535439
0.00492198
0.00456917
0.00435345
0.00419292
0.00404697
0.00390936
0.00377747
0.00364755
0.00351811
0.00338898
0.00326082
0.00313223
0.00300444
0.00287759
0.00275192
0.00262824
0.00250527
0.00238376
0.00226296
0.00214449
0.00202829
0.00191437
0.0018002
0.00168359
0.00156796
0.0014543
0.00134304
0.00123447
0.00112386
0.00101035
0.000898861
0.000790143
0.000684302
0.000580412
0.000473948
0.00036488
0.000257313
0.000152649
4.9925e-05
0.00509877
0.00484969
0.00461339
0.00440453
0.00422831
0.00407086
0.00392377
0.00378393
0.00364852
0.00351525
0.00338354
0.00325316
0.00312379
0.00299535
0.00286813
0.00274275
0.00261928
0.00249678
0.00237503
0.0022548
0.00213664
0.00202047
0.00190575
0.00179107
0.00167596
0.00156171
0.00144895
0.00133801
0.00122839
0.00111779
0.00100631
0.000896481
0.000788405
0.000682265
0.000577917
0.000471864
0.00036402
0.000257633
0.000153307
5.02406e-05
0.0049069
0.00474207
0.00457661
0.00439882
0.00423381
0.00408208
0.00393728
0.00379698
0.00365992
0.00352502
0.00339189
0.00326003
0.0031298
0.00300066
0.00287265
0.00274626
0.00262131
0.00249796
0.00237583
0.0022556
0.0021371
0.00202007
0.00190404
0.00178881
0.00167445
0.00156075
0.00144812
0.00133655
0.00122591
0.00111567
0.00100583
0.000896787
0.000788704
0.000682017
0.000576325
0.000470396
0.000364362
0.00025907
0.000154643
5.08869e-05
0.00471515
0.00458918
0.00449597
0.00436283
0.00421755
0.0040761
0.00393796
0.00379991
0.00366305
0.00352814
0.00339486
0.003263
0.00313249
0.00300315
0.00287499
0.00274829
0.00262312
0.00249955
0.00237738
0.00225681
0.00213771
0.00202038
0.00190459
0.00178931
0.00167444
0.00156054
0.00144801
0.00133648
0.00122561
0.00111537
0.0010059
0.000897106
0.000789307
0.000682394
0.00057598
0.000470055
0.00036452
0.00025958
0.000155413
5.13817e-05
0.00474054
0.00459892
0.0045005
0.00437042
0.00422673
0.00408596
0.00394689
0.00380792
0.00366981
0.00353374
0.00339969
0.00326724
0.0031362
0.00300649
0.00287807
0.0027511
0.00262566
0.00250176
0.00237941
0.00225866