/*--------------------------------*- C++ -*----------------------------------*\
| =========                 |                                                 |
| \\      /  F ield         | OpenFOAM: The Open Source CFD Toolbox           |
|  \\    /   O peration     | Version:  2212                                  |
|   \\  /    A nd           | Website:  www.openfoam.com                      |
|    \\/     M anipulation  |                                                 |
\*---------------------------------------------------------------------------*/
FoamFile
{
    version     2.0;
    format      ascii;
    arch        "LSB;label=32;scalar=64";
    class       surfaceScalarField;
    location    "0.9";
    object      phi;
}
// * * * * * * * * * * * * * * * * * * * * * * * * * * * * * * * * * * * * * //

dimensions      [0 3 -1 0 0 0 0];

oriented        oriented;

internalField   nonuniform List<scalar> 
19019
(
3.3225e-07
1.09686e-09
1.09678e-09
2.79191e-07
2.65296e-08
2.65293e-08
2.49218e-07
1.49865e-08
1.4986e-08
2.29255e-07
9.98211e-09
9.98131e-09
2.14836e-07
7.21022e-09
7.20874e-09
2.03201e-07
5.81862e-09
5.81634e-09
1.93774e-07
4.71563e-09
4.71138e-09
1.86007e-07
3.88695e-09
3.87951e-09
1.79361e-07
3.32967e-09
3.31703e-09
1.73535e-07
2.92364e-09
2.9024e-09
1.68367e-07
2.60136e-09
2.56675e-09
1.63753e-07
2.33527e-09
2.27844e-09
1.59609e-07
2.12118e-09
2.02235e-09
1.55866e-07
1.95511e-09
1.78844e-09
1.5254e-07
1.79992e-09
1.52592e-09
1.49701e-07
1.64403e-09
1.19499e-09
1.47483e-07
1.47501e-09
7.4322e-10
1.47181e-07
7.60943e-10
-4.59346e-10
1.51094e-07
-8.21924e-10
-3.09063e-09
-1.59112e-08
-2.68899e-08
6.3138e-07
3.58755e-09
7.40287e-09
6.14564e-07
2.26455e-08
2.07002e-08
5.86446e-07
2.43754e-08
1.8729e-08
5.61728e-07
1.88536e-08
1.58465e-08
5.39623e-07
1.55671e-08
1.37486e-08
5.20646e-07
1.35061e-08
1.12897e-08
5.04706e-07
1.19448e-08
8.71042e-09
4.90964e-07
1.07877e-08
6.84148e-09
4.78761e-07
9.92698e-09
5.60568e-09
4.67709e-07
9.20459e-09
4.77059e-09
4.57584e-07
8.55948e-09
4.16719e-09
4.48256e-07
7.96166e-09
3.70139e-09
4.39637e-07
7.38962e-09
3.35129e-09
4.31668e-07
6.83225e-09
3.09153e-09
4.24409e-07
6.23082e-09
2.82795e-09
4.1804e-07
5.5039e-09
2.50939e-09
4.13173e-07
4.4111e-09
1.93133e-09
4.11902e-07
1.80317e-09
2.28065e-10
4.18983e-07
-3.39196e-09
-4.51092e-09
-1.76883e-08
-2.09624e-08
8.90375e-07
2.8525e-09
6.33235e-09
8.82487e-07
1.34079e-08
1.71258e-08
8.7036e-07
1.78658e-08
1.86357e-08
8.55115e-07
1.69524e-08
1.71467e-08
8.39987e-07
1.5335e-08
1.53599e-08
8.25542e-07
1.41609e-08
1.379e-08
8.11781e-07
1.33635e-08
1.2343e-08
7.98798e-07
1.2648e-08
1.11225e-08
7.86744e-07
1.1841e-08
1.01398e-08
7.75634e-07
1.09653e-08
9.34953e-09
7.65335e-07
1.01075e-08
8.75134e-09
7.55707e-07
9.27495e-09
8.31389e-09
7.46649e-07
8.45666e-09
7.99156e-09
7.38141e-07
7.61272e-09
7.72763e-09
7.30236e-07
6.65319e-09
7.4827e-09
7.232e-07
5.38556e-09
7.15453e-09
7.17481e-07
3.56516e-09
6.5648e-09
7.13354e-07
6.33752e-10
5.29635e-09
7.11353e-07
-4.4114e-09
3.01992e-09
-1.31512e-08
-1.83956e-09
1.07432e-06
1.06464e-09
5.56891e-09
1.06824e-06
5.58591e-09
1.39003e-08
1.06138e-06
8.46275e-09
1.62618e-08
1.05338e-06
9.03766e-09
1.59089e-08
1.0451e-06
8.61401e-09
1.50025e-08
1.03722e-06
8.11369e-09
1.39345e-08
1.02983e-06
7.77459e-09
1.29795e-08
1.02282e-06
7.53384e-09
1.21192e-08
1.01597e-06
7.33443e-09
1.13529e-08
1.00921e-06
7.02531e-09
1.07067e-08
1.00255e-06
6.54565e-09
1.02218e-08
9.95964e-07
5.98084e-09
9.87682e-09
9.89398e-07
5.37683e-09
9.6467e-09
9.82766e-07
4.7177e-09
9.52696e-09
9.75956e-07
3.96068e-09
9.50175e-09
9.68873e-07
2.91487e-09
9.55392e-09
9.61374e-07
1.38864e-09
9.67612e-09
9.52972e-07
-8.7533e-10
9.91033e-09
9.4281e-07
-4.58413e-09
1.03347e-08
-9.68022e-09
1.14348e-08
1.16914e-06
-8.49492e-14
4.90657e-09
1.16312e-06
-3.81583e-13
1.16085e-08
1.15731e-06
-8.05248e-13
1.42757e-08
1.15201e-06
-1.36942e-12
1.43344e-08
1.1469e-06
-2.26022e-12
1.37325e-08
1.14204e-06
-3.77304e-12
1.29734e-08
1.13772e-06
-6.32532e-12
1.21074e-08
1.13394e-06
-1.04868e-11
1.13194e-08
1.13062e-06
-1.74009e-11
1.06699e-08
1.12745e-06
-2.88647e-11
1.02246e-08
1.12409e-06
-4.79366e-11
9.9533e-09
1.12036e-06
-7.96736e-11
9.78757e-09
1.11613e-06
-1.32997e-10
9.74776e-09
1.11119e-06
-2.25267e-10
9.87898e-09
1.10532e-06
-3.78301e-10
1.02096e-08
1.09807e-06
-6.50254e-10
1.08204e-08
1.0887e-06
-1.11676e-09
1.1873e-08
1.07625e-06
-1.95965e-09
1.35335e-08
1.05963e-06
-3.49221e-09
1.55281e-08
-6.55382e-09
1.97155e-08
1.16914e-06
-1.06481e-09
4.90659e-09
1.16312e-06
-5.5865e-09
1.16086e-08
1.15731e-06
-8.46387e-09
1.42759e-08
1.15201e-06
-9.03953e-09
1.43347e-08
1.14689e-06
-8.61723e-09
1.37332e-08
1.14203e-06
-8.11921e-09
1.29747e-08
1.1377e-06
-7.78387e-09
1.21094e-08
1.13392e-06
-7.5492e-09
1.13227e-08
1.13059e-06
-7.35997e-09
1.06754e-08
1.12739e-06
-7.06697e-09
1.02338e-08
1.12399e-06
-6.61331e-09
9.96807e-09
1.12019e-06
-6.09102e-09
9.81284e-09
1.11582e-06
-5.55883e-09
9.79495e-09
1.11065e-06
-5.02225e-09
9.96873e-09
1.10435e-06
-4.45918e-09
1.03734e-08
1.09636e-06
-3.78738e-09
1.11269e-08
1.08564e-06
-2.85662e-09
1.24628e-08
1.07061e-06
-1.59792e-09
1.46686e-08
1.04897e-06
3.83268e-10
1.77628e-08
2.15658e-09
2.63534e-08
1.07432e-06
-2.8525e-09
5.56892e-09
1.06824e-06
-1.3408e-08
1.39004e-08
1.06138e-06
-1.78659e-08
1.62622e-08
1.05338e-06
-1.69527e-08
1.59098e-08
1.04509e-06
-1.53356e-08
1.50041e-08
1.0372e-06
-1.41619e-08
1.39368e-08
1.0298e-06
-1.33652e-08
1.2983e-08
1.02277e-06
-1.26504e-08
1.2125e-08
1.0159e-06
-1.18447e-08
1.13622e-08
1.00908e-06
-1.09708e-08
1.07226e-08
1.00233e-06
-1.01154e-08
1.02489e-08
9.95603e-07
-9.2869e-09
9.92463e-09
9.88788e-07
-8.47567e-09
9.73202e-09
9.81731e-07
-7.6433e-09
9.67855e-09
9.74191e-07
-6.6985e-09
9.77928e-09
9.65824e-07
-5.49963e-09
1.00793e-08
9.56038e-07
-3.73994e-09
1.06688e-08
9.43729e-07
-9.95114e-10
1.1707e-08
9.2712e-07
3.6607e-09
1.33309e-08
1.07645e-08
1.7614e-08
8.90375e-07
-3.58747e-09
6.33239e-09
8.82486e-07
-2.26452e-08
1.7126e-08
8.70359e-07
-2.43749e-08
1.86362e-08
8.55111e-07
-1.88528e-08
1.71476e-08
8.3998e-07
-1.55656e-08
1.53612e-08
8.2553e-07
-1.35037e-08
1.37918e-08
8.1176e-07
-1.19407e-08
1.2346e-08
7.98762e-07
-1.07808e-08
1.11277e-08
7.86685e-07
-9.91543e-09
1.01482e-08
7.75536e-07
-9.18521e-09
9.36353e-09
7.65172e-07
-8.52715e-09
8.77518e-09
7.55439e-07
-7.90961e-09
8.35553e-09
7.46206e-07
-7.30553e-09
8.06341e-09
7.37405e-07
-6.69575e-09
7.85383e-09
7.29004e-07
-6.01026e-09
7.71296e-09
7.21076e-07
-5.17036e-09
7.59852e-09
7.13806e-07
-3.89516e-09
7.42514e-09
7.06945e-07
-1.14821e-09
7.01448e-09
6.99703e-07
4.47484e-09
6.428e-09
2.3839e-08
3.51543e-09
6.3138e-07
-1.09678e-09
7.40291e-09
6.14564e-07
-2.65293e-08
2.07004e-08
5.86446e-07
-1.4986e-08
1.87293e-08
5.61727e-07
-9.98132e-09
1.58471e-08
5.39621e-07
-7.20875e-09
1.37495e-08
5.20642e-07
-5.81634e-09
1.12915e-08
5.04699e-07
-4.71139e-09
8.71327e-09
4.90952e-07
-3.87953e-09
6.84599e-09
4.7874e-07
-3.31705e-09
5.61307e-09
4.67675e-07
-2.90243e-09
4.783e-09
4.57524e-07
-2.56677e-09
4.18989e-09
4.48154e-07
-2.27845e-09
3.73897e-09
4.39471e-07
-2.02233e-09
3.40055e-09
4.31395e-07
-1.7884e-09
3.16815e-09
4.23951e-07
-1.52588e-09
2.96027e-09
4.17228e-07
-1.19494e-09
2.74757e-09
4.1169e-07
-7.43165e-10
2.38652e-09
4.09045e-07
4.59416e-10
1.03756e-09
4.13643e-07
3.09068e-09
-3.21396e-09
2.68905e-08
-2.29157e-08
3.3225e-07
1.09687e-09
2.79191e-07
2.65296e-08
2.49218e-07
1.49865e-08
2.29255e-07
9.9821e-09
2.14836e-07
7.21021e-09
2.03201e-07
5.81861e-09
1.93774e-07
4.71561e-09
1.86007e-07
3.88692e-09
1.79361e-07
3.32964e-09
1.73535e-07
2.9236e-09
1.68367e-07
2.60132e-09
1.63753e-07
2.33523e-09
1.59609e-07
2.12115e-09
1.55866e-07
1.95508e-09
1.5254e-07
1.79991e-09
1.49701e-07
1.64406e-09
1.47483e-07
1.47509e-09
1.47182e-07
7.61091e-10
1.51094e-07
-8.21891e-10
-1.59107e-08
6.3138e-07
7.40291e-09
3.58747e-09
6.14564e-07
2.07004e-08
2.26452e-08
5.86446e-07
1.87293e-08
2.43749e-08
5.61727e-07
1.58471e-08
1.88528e-08
5.39621e-07
1.37495e-08
1.55656e-08
5.20642e-07
1.12915e-08
1.35037e-08
5.04699e-07
8.71329e-09
1.19407e-08
4.90952e-07
6.846e-09
1.07808e-08
4.7874e-07
5.61308e-09
9.91541e-09
4.67675e-07
4.78301e-09
9.1852e-09
4.57524e-07
4.1899e-09
8.52715e-09
4.48154e-07
3.73897e-09
7.90964e-09
4.3947e-07
3.40055e-09
7.30559e-09
4.31395e-07
3.16813e-09
6.69585e-09
4.2395e-07
2.9602e-09
6.01039e-09
4.17227e-07
2.74743e-09
5.17054e-09
4.11689e-07
2.38621e-09
3.89541e-09
4.09044e-07
1.03701e-09
1.14843e-09
4.13643e-07
-3.21485e-09
-4.47483e-09
-2.29167e-08
-2.38391e-08
9.23617e-07
7.03383e-09
7.03374e-09
9.25318e-07
1.98496e-08
1.98493e-08
9.17185e-07
2.27961e-08
2.27956e-08
9.04277e-07
2.23012e-08
2.23003e-08
8.90537e-07
2.06197e-08
2.06182e-08
8.77415e-07
1.78529e-08
1.78501e-08
8.65451e-07
1.46963e-08
1.46918e-08
8.54782e-07
1.21819e-08
1.21746e-08
8.45358e-07
1.03276e-08
1.03153e-08
8.37039e-07
8.94672e-09
8.92598e-09
8.29646e-07
7.89204e-09
7.85782e-09
8.23004e-07
7.0686e-09
7.01391e-09
8.17034e-07
6.4037e-09
6.31834e-09
8.11786e-07
5.82104e-09
5.68616e-09
8.07344e-07
5.21996e-09
5.01076e-09
8.03871e-07
4.52179e-09
4.20838e-09
8.01562e-07
3.53641e-09
3.08922e-09
7.99792e-07
1.80892e-09
1.22714e-09
7.95386e-07
-1.39224e-09
-1.92844e-09
-7.05579e-09
-7.04425e-09
1.1589e-06
5.28121e-09
6.10243e-09
1.1657e-06
1.39981e-08
1.61823e-08
1.16845e-06
1.79768e-08
2.07052e-08
1.16662e-06
1.91769e-08
2.21026e-08
1.16222e-06
1.88731e-08
2.15033e-08
1.15655e-06
1.75402e-08
1.97673e-08
1.1505e-06
1.56757e-08
1.74212e-08
1.14461e-06
1.38686e-08
1.53229e-08
1.1392e-06
1.22539e-08
1.36195e-08
1.13441e-06
1.08341e-08
1.22532e-08
1.13025e-06
9.6424e-09
1.11653e-08
1.12669e-06
8.64174e-09
1.03019e-08
1.12372e-06
7.76155e-09
9.60079e-09
1.12136e-06
6.91792e-09
8.98694e-09
1.11965e-06
6.01401e-09
8.40425e-09
1.11861e-06
4.957e-09
7.7602e-09
1.11822e-06
3.57397e-09
6.91293e-09
1.11796e-06
1.66321e-09
5.70107e-09
1.11666e-06
-1.02346e-09
3.95506e-09
-4.5863e-09
2.18733e-09
1.32763e-06
2.71801e-09
4.93103e-09
1.33539e-06
7.12019e-09
1.30088e-08
1.34287e-06
9.55216e-09
1.72155e-08
1.34848e-06
1.05758e-08
1.88992e-08
1.35198e-06
1.08714e-08
1.95019e-08
1.35376e-06
1.05741e-08
1.91172e-08
1.35443e-06
9.88111e-09
1.81048e-08
1.35457e-06
9.02812e-09
1.68188e-08
1.35454e-06
8.1641e-09
1.5477e-08
1.35448e-06
7.34449e-09
1.42561e-08
1.35446e-06
6.59161e-09
1.32867e-08
1.35454e-06
5.89947e-09
1.25384e-08
1.35474e-06
5.24394e-09
1.19722e-08
1.35505e-06
4.58044e-09
1.15551e-08
1.35548e-06
3.82813e-09
1.1258e-08
1.35599e-06
2.92814e-09
1.10639e-08
1.35651e-06
1.7694e-09
1.09702e-08
1.35682e-06
2.60255e-10
1.09989e-08
1.35664e-06
-1.7202e-09
1.12109e-08
-3.89588e-09
1.1942e-08
1.41518e-06
-1.3939e-13
4.19287e-09
1.42279e-06
-3.94069e-13
1.1116e-08
1.43152e-06
-6.76872e-13
1.50988e-08
1.4398e-06
-1.16729e-12
1.66302e-08
1.44713e-06
-2.02325e-12
1.7278e-08
1.45316e-06
-3.3574e-12
1.7515e-08
1.458e-06
-5.37955e-12
1.71619e-08
1.4619e-06
-8.63748e-12
1.6452e-08
1.46517e-06
-1.41037e-11
1.55758e-08
1.46805e-06
-2.35477e-11
1.47139e-08
1.4707e-06
-3.89276e-11
1.39328e-08
1.47316e-06
-6.38568e-11
1.32905e-08
1.47537e-06
-1.01391e-10
1.28819e-08
1.47728e-06
-1.60563e-10
1.27105e-08
1.47885e-06
-2.55797e-10
1.27228e-08
1.48001e-06
-4.03926e-10
1.29974e-08
1.48064e-06
-6.23964e-10
1.36348e-08
1.48065e-06
-9.34166e-10
1.4717e-08
1.47964e-06
-1.34074e-09
1.61621e-08
-1.64752e-09
1.78949e-08
1.41518e-06
-2.71818e-09
4.19294e-09
1.42279e-06
-7.12064e-09
1.11162e-08
1.43152e-06
-9.55299e-09
1.50991e-08
1.4398e-06
-1.05773e-08
1.66307e-08
1.44712e-06
-1.0874e-08
1.72791e-08
1.45316e-06
-1.05783e-08
1.75169e-08
1.45798e-06
-9.88773e-09
1.71649e-08
1.46188e-06
-9.03876e-09
1.64566e-08
1.46514e-06
-8.18142e-09
1.55831e-08
1.468e-06
-7.37421e-09
1.4726e-08
1.47062e-06
-6.6412e-09
1.39528e-08
1.47302e-06
-5.97997e-09
1.3325e-08
1.47514e-06
-5.36724e-09
1.29408e-08
1.47691e-06
-4.77387e-09
1.28073e-08
1.4783e-06
-4.14986e-09
1.28834e-08
1.4792e-06
-3.45249e-09
1.32715e-08
1.47955e-06
-2.60925e-09
1.40977e-08
1.47938e-06
-1.57108e-09
1.54767e-08
1.47876e-06
-3.11968e-10
1.73572e-08
1.06657e-09
1.9299e-08
1.32762e-06
-5.28116e-09
4.93116e-09
1.33539e-06
-1.39981e-08
1.30091e-08
1.34286e-06
-1.79767e-08
1.72162e-08
1.34847e-06
-1.91768e-08
1.89007e-08
1.35197e-06
-1.88729e-08
1.95045e-08
1.35375e-06
-1.75398e-08
1.91211e-08
1.35441e-06
-1.5675e-08
1.81109e-08
1.35453e-06
-1.38678e-08
1.68285e-08
1.35447e-06
-1.22522e-08
1.54921e-08
1.35437e-06
-1.08309e-08
1.42808e-08
1.35429e-06
-9.63654e-09
1.3329e-08
1.35425e-06
-8.63067e-09
1.26092e-08
1.35427e-06
-7.73846e-09
1.20882e-08
1.35431e-06
-6.87984e-09
1.17471e-08
1.35432e-06
-5.96241e-09
1.15795e-08
1.35422e-06
-4.88129e-09
1.16012e-08
1.35389e-06
-3.46528e-09
1.18603e-08
1.35309e-06
-1.48321e-09
1.24143e-08
1.35137e-06
1.47396e-09
1.32671e-08
5.96294e-09
1.41738e-08
1.1589e-06
-7.03373e-09
6.10257e-09
1.1657e-06
-1.98493e-08
1.61827e-08
1.16845e-06
-2.27956e-08
2.07061e-08
1.16661e-06
-2.23003e-08
2.21041e-08
1.16221e-06
-2.06182e-08
2.15055e-08
1.15654e-06
-1.78501e-08
1.97706e-08
1.15048e-06
-1.46918e-08
1.74266e-08
1.14458e-06
-1.21746e-08
1.53321e-08
1.13916e-06
-1.03153e-08
1.36348e-08
1.13434e-06
-8.92595e-09
1.22784e-08
1.13013e-06
-7.85777e-09
1.12066e-08
1.1265e-06
-7.01383e-09
1.03686e-08
1.12344e-06
-6.31821e-09
9.70809e-09
1.12094e-06
-5.68602e-09
9.1597e-09
1.11902e-06
-5.01065e-09
8.68011e-09
1.11774e-06
-4.20827e-09
8.19882e-09
1.11719e-06
-3.08919e-09
7.60554e-09
1.11722e-06
-1.22728e-09
6.72593e-09
1.11795e-06
1.92815e-09
5.24068e-09
7.04434e-09
2.82435e-09
9.23617e-07
-7.40287e-09
7.03383e-09
9.25318e-07
-2.07002e-08
1.98496e-08
9.17185e-07
-1.8729e-08
2.27961e-08
9.04277e-07
-1.58464e-08
2.23012e-08
8.90537e-07
-1.37486e-08
2.06197e-08
8.77415e-07
-1.12897e-08
1.78529e-08
8.65451e-07
-8.7104e-09
1.46963e-08
8.54782e-07
-6.84146e-09
1.21818e-08
8.45358e-07
-5.60565e-09
1.03276e-08
8.37039e-07
-4.77055e-09
8.94666e-09
8.29646e-07
-4.16714e-09
7.89198e-09
8.23004e-07
-3.70133e-09
7.06855e-09
8.17034e-07
-3.35121e-09
6.40364e-09
8.11787e-07
-3.09143e-09
5.82101e-09
8.07344e-07
-2.82787e-09
5.21998e-09
8.03871e-07
-2.50933e-09
4.52193e-09
8.01563e-07
-1.93135e-09
3.53677e-09
7.99792e-07
-2.28197e-10
1.80961e-09
7.95387e-07
4.51081e-09
-1.39124e-09
2.09617e-08
-7.05517e-09
6.3138e-07
3.58756e-09
6.14564e-07
2.26455e-08
5.86446e-07
2.43754e-08
5.61728e-07
1.88536e-08
5.39623e-07
1.55671e-08
5.20646e-07
1.35061e-08
5.04706e-07
1.19448e-08
4.90964e-07
1.07877e-08
4.78761e-07
9.92695e-09
4.67709e-07
9.20456e-09
4.57584e-07
8.55944e-09
4.48256e-07
7.96161e-09
4.39637e-07
7.38957e-09
4.31668e-07
6.8322e-09
4.2441e-07
6.23076e-09
4.1804e-07
5.50388e-09
4.13173e-07
4.41114e-09
4.11903e-07
1.80331e-09
4.18983e-07
-3.3917e-09
-1.76876e-08
8.90375e-07
6.33239e-09
2.8525e-09
8.82486e-07
1.7126e-08
1.34079e-08
8.70359e-07
1.86363e-08
1.78659e-08
8.55111e-07
1.71476e-08
1.69526e-08
8.3998e-07
1.53612e-08
1.53355e-08
8.2553e-07
1.37918e-08
1.41619e-08
8.1176e-07
1.2346e-08
1.33652e-08
7.98762e-07
1.11278e-08
1.26504e-08
7.86685e-07
1.01483e-08
1.18447e-08
7.75536e-07
9.36355e-09
1.09708e-08
7.65172e-07
8.77521e-09
1.01154e-08
7.55439e-07
8.35554e-09
9.28693e-09
7.46206e-07
8.06343e-09
8.47575e-09
7.37404e-07
7.85381e-09
7.64345e-09
7.29003e-07
7.71288e-09
6.69874e-09
7.21076e-07
7.59834e-09
5.49996e-09
7.13806e-07
7.42478e-09
3.74037e-09
7.06945e-07
7.01373e-09
9.95459e-10
6.99704e-07
6.42668e-09
-3.6606e-09
3.51411e-09
-1.07646e-08
1.1589e-06
6.10258e-09
5.28116e-09
1.1657e-06
1.61827e-08
1.3998e-08
1.16845e-06
2.07061e-08
1.79767e-08
1.16661e-06
2.21041e-08
1.91768e-08
1.16221e-06
2.15056e-08
1.88729e-08
1.15654e-06
1.97706e-08
1.75398e-08
1.15048e-06
1.74266e-08
1.5675e-08
1.14458e-06
1.53321e-08
1.38678e-08
1.13916e-06
1.36348e-08
1.22522e-08
1.13434e-06
1.22785e-08
1.08309e-08
1.13013e-06
1.12066e-08
9.6366e-09
1.1265e-06
1.03686e-08
8.63077e-09
1.12343e-06
9.70812e-09
7.73863e-09
1.12094e-06
9.15966e-09
6.88005e-09
1.11902e-06
8.67996e-09
5.96265e-09
1.11774e-06
8.19853e-09
4.8816e-09
1.11719e-06
7.60502e-09
3.46565e-09
1.11722e-06
6.72503e-09
1.48355e-09
1.11795e-06
5.23949e-09
-1.47342e-09
2.82385e-09
-5.96113e-09
1.37712e-06
4.57715e-09
4.57703e-09
1.38565e-06
1.19165e-08
1.19162e-08
1.39417e-06
1.64457e-08
1.64452e-08
1.40126e-06
1.85583e-08
1.85574e-08
1.40642e-06
1.89269e-08
1.89255e-08
1.40953e-06
1.82173e-08
1.82151e-08
1.41096e-06
1.67081e-08
1.67045e-08
1.41156e-06
1.50302e-08
1.50245e-08
1.41187e-06
1.3479e-08
1.34696e-08
1.41215e-06
1.21303e-08
1.21153e-08
1.4126e-06
1.09735e-08
1.09495e-08
1.41333e-06
9.98894e-09
9.95054e-09
1.41442e-06
9.14045e-09
9.07895e-09
1.41591e-06
8.37967e-09
8.28304e-09
1.41781e-06
7.66493e-09
7.51893e-09
1.42011e-06
6.93616e-09
6.72052e-09
1.42269e-06
6.1237e-09
5.81561e-09
1.42519e-06
5.16746e-09
4.75792e-09
1.42676e-06
4.05693e-09
3.56912e-09
3.09972e-09
2.6528e-09
1.53312e-06
2.3658e-09
3.64917e-09
1.54218e-06
6.23818e-09
9.63343e-09
1.55328e-06
8.87221e-09
1.3691e-08
1.56445e-06
1.03453e-08
1.59355e-08
1.57507e-06
1.08968e-08
1.69103e-08
1.58471e-06
1.07504e-08
1.69437e-08
1.59302e-06
1.01369e-08
1.6375e-08
1.6001e-06
9.32113e-09
1.54449e-08
1.60627e-06
8.44399e-09
1.43436e-08
1.61179e-06
7.61388e-09
1.32508e-08
1.61691e-06
6.87357e-09
1.2263e-08
1.62181e-06
6.22091e-09
1.14068e-08
1.62661e-06
5.63021e-09
1.06821e-08
1.63141e-06
5.06497e-09
1.00739e-08
1.63627e-06
4.49661e-09
9.56329e-09
1.64125e-06
3.89284e-09
9.13032e-09
1.64636e-06
3.21588e-09
8.76309e-09
1.65164e-06
2.43204e-09
8.46114e-09
1.65713e-06
1.53148e-09
8.23944e-09
6.43165e-10
8.27254e-09
1.61424e-06
-9.9632e-14
3.09283e-09
1.62332e-06
-2.47896e-13
8.27396e-09
1.63533e-06
-4.28526e-13
1.1957e-08
1.64819e-06
-7.21491e-13
1.41145e-08
1.66117e-06
-1.20328e-12
1.52005e-08
1.67385e-06
-1.89924e-12
1.55839e-08
1.68572e-06
-3.01037e-12
1.54322e-08
1.69654e-06
-4.69831e-12
1.49631e-08
1.70627e-06
-7.47208e-12
1.42938e-08
1.71508e-06
-1.1956e-11
1.35281e-08
1.72315e-06
-1.89126e-11
1.27581e-08
1.73063e-06
-2.94155e-11
1.20561e-08
1.73772e-06
-4.46158e-11
1.14761e-08
1.74451e-06
-6.67269e-11
1.10509e-08
1.75103e-06
-1.01976e-10
1.08001e-08
1.75734e-06
-1.50734e-10
1.07334e-08
1.76353e-06
-2.12423e-10
1.08665e-08
1.76975e-06
-2.77184e-10
1.12062e-08
1.77607e-06
-3.13583e-10
1.16919e-08
-2.54459e-10
1.22357e-08
1.61424e-06
-2.36588e-09
3.09291e-09
1.62332e-06
-6.23839e-09
8.27416e-09
1.63533e-06
-8.87259e-09
1.19574e-08
1.64819e-06
-1.03459e-08
1.41151e-08
1.66117e-06
-1.08978e-08
1.52016e-08
1.67385e-06
-1.07519e-08
1.55857e-08
1.68571e-06
-1.01393e-08
1.54347e-08
1.69652e-06
-9.32493e-09
1.4967e-08
1.70625e-06
-8.45003e-09
1.43e-08
1.71505e-06
-7.62403e-09
1.3538e-08
1.7231e-06
-6.89041e-09
1.27741e-08
1.73056e-06
-6.24795e-09
1.20818e-08
1.73761e-06
-5.67141e-09
1.15172e-08
1.74436e-06
-5.12737e-09
1.11154e-08
1.75084e-06
-4.59779e-09
1.09007e-08
1.75713e-06
-4.05436e-09
1.08868e-08
1.76339e-06
-3.46831e-09
1.10923e-08
1.76989e-06
-2.81434e-09
1.15181e-08
1.77695e-06
-2.09154e-09
1.20752e-08
-1.34307e-09
1.25719e-08
1.53312e-06
-4.57703e-09
3.64933e-09
1.54218e-06
-1.19162e-08
9.63384e-09
1.55327e-06
-1.64452e-08
1.36917e-08
1.56445e-06
-1.85574e-08
1.59368e-08
1.57507e-06
-1.89255e-08
1.69124e-08
1.58471e-06
-1.82151e-08
1.6947e-08
1.593e-06
-1.67045e-08
1.638e-08
1.60008e-06
-1.50244e-08
1.5453e-08
1.60623e-06
-1.34696e-08
1.43564e-08
1.61173e-06
-1.21153e-08
1.32709e-08
1.61683e-06
-1.09494e-08
1.22953e-08
1.62168e-06
-9.95043e-09
1.14586e-08
1.62641e-06
-9.0788e-09
1.07657e-08
1.6311e-06
-8.28285e-09
1.0208e-08
1.63583e-06
-7.51868e-09
9.77239e-09
1.64065e-06
-6.72021e-09
9.45191e-09
1.64561e-06
-5.81521e-09
9.24437e-09
1.65083e-06
-4.75738e-09
9.13963e-09
1.65649e-06
-3.56825e-09
9.08483e-09
-2.6511e-09
8.95288e-09
1.37712e-06
-6.10243e-09
4.57715e-09
1.38565e-06
-1.61823e-08
1.19165e-08
1.39417e-06
-2.07052e-08
1.64457e-08
1.40126e-06
-2.21026e-08
1.85583e-08
1.40642e-06
-2.15033e-08
1.89269e-08
1.40953e-06
-1.97673e-08
1.82173e-08
1.41096e-06
-1.74212e-08
1.67081e-08
1.41156e-06
-1.53229e-08
1.50302e-08
1.41187e-06
-1.36194e-08
1.3479e-08
1.41215e-06
-1.22532e-08
1.21303e-08
1.4126e-06
-1.11652e-08
1.09735e-08
1.41333e-06
-1.03018e-08
9.98892e-09
1.41442e-06
-9.60071e-09
9.14043e-09
1.41591e-06
-8.98684e-09
8.37969e-09
1.41781e-06
-8.40414e-09
7.66501e-09
1.42011e-06
-7.76012e-09
6.93633e-09
1.42269e-06
-6.91292e-09
6.12396e-09
1.42519e-06
-5.70118e-09
5.1678e-09
1.42676e-06
-3.95516e-09
4.05719e-09
-2.18636e-09
3.09943e-09
1.1589e-06
-6.33235e-09
5.28121e-09
1.1657e-06
-1.71258e-08
1.39981e-08
1.16845e-06
-1.86358e-08
1.79768e-08
1.16662e-06
-1.71467e-08
1.91769e-08
1.16222e-06
-1.53599e-08
1.8873e-08
1.15655e-06
-1.379e-08
1.75402e-08
1.1505e-06
-1.2343e-08
1.56756e-08
1.14461e-06
-1.11225e-08
1.38685e-08
1.1392e-06
-1.01398e-08
1.22538e-08
1.13441e-06
-9.34951e-09
1.08341e-08
1.13025e-06
-8.75132e-09
9.64233e-09
1.12669e-06
-8.31386e-09
8.64165e-09
1.12372e-06
-7.99153e-09
7.76148e-09
1.12136e-06
-7.72759e-09
6.91783e-09
1.11965e-06
-7.48265e-09
6.01393e-09
1.11861e-06
-7.15452e-09
4.95698e-09
1.11822e-06
-6.56486e-09
3.57405e-09
1.11796e-06
-5.2966e-09
1.66341e-09
1.11666e-06
-3.02037e-09
-1.02331e-09
1.83962e-09
-4.5877e-09
8.90375e-07
2.8525e-09
8.82487e-07
1.34079e-08
8.7036e-07
1.78658e-08
8.55115e-07
1.69524e-08
8.39987e-07
1.5335e-08
8.25542e-07
1.41609e-08
8.11781e-07
1.33635e-08
7.98798e-07
1.26479e-08
7.86744e-07
1.1841e-08
7.75634e-07
1.09653e-08
7.65335e-07
1.01074e-08
7.55707e-07
9.27485e-09
7.46649e-07
8.45652e-09
7.38141e-07
7.61256e-09
7.30236e-07
6.65303e-09
7.232e-07
5.38536e-09
7.17481e-07
3.56498e-09
7.13354e-07
6.33722e-10
7.11353e-07
-4.41116e-09
-1.31506e-08
1.07432e-06
5.56892e-09
1.06481e-09
1.06824e-06
1.39004e-08
5.58649e-09
1.06138e-06
1.62622e-08
8.46384e-09
1.05338e-06
1.59098e-08
9.03949e-09
1.04509e-06
1.50041e-08
8.61718e-09
1.0372e-06
1.39368e-08
8.11915e-09
1.0298e-06
1.2983e-08
7.78381e-09
1.02277e-06
1.2125e-08
7.54913e-09
1.0159e-06
1.13622e-08
7.35991e-09
1.00908e-06
1.07226e-08
7.06691e-09
1.00233e-06
1.02489e-08
6.61328e-09
9.95603e-07
9.92462e-09
6.09103e-09
9.88788e-07
9.732e-09
5.55889e-09
9.81731e-07
9.67849e-09
5.02239e-09
9.74191e-07
9.77915e-09
4.45943e-09
9.65824e-07
1.0079e-08
3.78777e-09
9.56039e-07
1.06683e-08
2.85711e-09
9.4373e-07
1.17061e-08
1.59851e-09
9.27123e-07
1.33294e-08
-3.82644e-10
1.76125e-08
-2.15586e-09
1.32762e-06
4.93116e-09
2.71817e-09
1.33539e-06
1.30091e-08
7.12063e-09
1.34286e-06
1.72162e-08
9.55298e-09
1.34847e-06
1.89007e-08
1.05773e-08
1.35197e-06
1.95046e-08
1.0874e-08
1.35375e-06
1.91211e-08
1.05782e-08
1.35441e-06
1.81109e-08
9.88772e-09
1.35453e-06
1.68285e-08
9.03876e-09
1.35447e-06
1.54921e-08
8.18142e-09
1.35437e-06
1.42808e-08
7.37424e-09
1.35429e-06
1.3329e-08
6.64125e-09
1.35425e-06
1.26091e-08
5.98007e-09
1.35427e-06
1.20881e-08
5.36741e-09
1.35431e-06
1.1747e-08
4.77412e-09
1.35432e-06
1.15792e-08
4.15022e-09
1.35422e-06
1.16008e-08
3.453e-09
1.35389e-06
1.18597e-08
2.60995e-09
1.35309e-06
1.24134e-08
1.57204e-09
1.35137e-06
1.3266e-08
3.13298e-10
1.41733e-08
-1.06407e-09
1.53312e-06
3.64933e-09
2.36588e-09
1.54218e-06
9.63384e-09
6.23839e-09
1.55327e-06
1.36917e-08
8.87258e-09
1.56445e-06
1.59368e-08
1.03459e-08
1.57507e-06
1.69124e-08
1.08978e-08
1.58471e-06
1.6947e-08
1.07519e-08
1.593e-06
1.638e-08
1.01393e-08
1.60008e-06
1.5453e-08
9.32495e-09
1.60623e-06
1.43563e-08
8.45007e-09
1.61173e-06
1.32708e-08
7.62409e-09
1.61683e-06
1.22953e-08
6.89049e-09
1.62168e-06
1.14585e-08
6.24808e-09
1.62641e-06
1.07656e-08
5.6716e-09
1.6311e-06
1.02078e-08
5.12764e-09
1.63583e-06
9.77216e-09
4.59817e-09
1.64065e-06
9.4516e-09
4.0549e-09
1.64561e-06
9.24397e-09
3.46909e-09
1.65083e-06
9.13918e-09
2.81547e-09
1.65648e-06
9.08444e-09
2.0932e-09
8.95288e-09
1.34553e-09
1.68027e-06
1.89094e-09
1.8909e-09
1.68934e-06
5.09904e-09
5.09893e-09
1.7018e-06
7.46369e-09
7.46349e-09
1.71578e-06
8.94513e-09
8.94482e-09
1.73022e-06
9.6915e-09
9.691e-09
1.74439e-06
9.85888e-09
9.85808e-09
1.75785e-06
9.64949e-09
9.64824e-09
1.77036e-06
9.19525e-09
9.19331e-09
1.78185e-06
8.60791e-09
8.60494e-09
1.79241e-06
7.9809e-09
7.97634e-09
1.80222e-06
7.37892e-09
7.37173e-09
1.81143e-06
6.83336e-09
6.82185e-09
1.82019e-06
6.35326e-09
6.33468e-09
1.82863e-06
5.93358e-09
5.90422e-09
1.83689e-06
5.55996e-09
5.51647e-09
1.84509e-06
5.22337e-09
5.16283e-09
1.85334e-06
4.91568e-09
4.8374e-09
1.86178e-06
4.6228e-09
4.53409e-09
1.87054e-06
4.31732e-09
4.25373e-09
4.01369e-09
4.07462e-09
1.7569e-06
-2.48626e-14
1.61313e-09
1.76589e-06
-5.49578e-14
4.38386e-09
1.77878e-06
-9.09421e-14
6.53134e-09
1.79389e-06
-1.42481e-13
7.95043e-09
1.81003e-06
-2.15356e-13
8.75489e-09
1.82638e-06
-3.14798e-13
9.08481e-09
1.84239e-06
-4.63598e-13
9.07137e-09
1.85772e-06
-7.39903e-13
8.83562e-09
1.87216e-06
-1.18237e-12
8.46267e-09
1.88565e-06
-1.81895e-12
8.01893e-09
1.89823e-06
-2.64328e-12
7.55633e-09
1.91001e-06
-3.60751e-12
7.11327e-09
1.92113e-06
-4.60633e-12
6.71687e-09
1.93173e-06
-5.7047e-12
6.38693e-09
1.94196e-06
-7.67334e-12
6.1416e-09
1.95194e-06
-1.02128e-11
5.98802e-09
1.96181e-06
-1.22916e-11
5.92774e-09
1.97169e-06
-1.0711e-11
5.95804e-09
1.98163e-06
-2.11323e-12
6.06605e-09
9.18401e-12
6.20515e-09
1.7569e-06
-1.8909e-09
1.61318e-09
1.76589e-06
-5.09893e-09
4.38397e-09
1.77878e-06
-7.4635e-09
6.53154e-09
1.79389e-06
-8.94482e-09
7.95076e-09
1.81002e-06
-9.691e-09
8.75541e-09
1.82638e-06
-9.85807e-09
9.08561e-09
1.84239e-06
-9.64823e-09
9.07255e-09
1.85771e-06
-9.19329e-09
8.83739e-09
1.87215e-06
-8.60491e-09
8.46538e-09
1.88564e-06
-7.97629e-09
8.02307e-09
1.89822e-06
-7.37166e-09
7.56265e-09
1.91e-06
-6.82175e-09
7.12288e-09
1.92112e-06
-6.33454e-09
6.73134e-09
1.93172e-06
-5.90401e-09
6.40842e-09
1.94196e-06
-5.51617e-09
6.17255e-09
1.95197e-06
-5.16239e-09
6.02948e-09
1.96191e-06
-4.83676e-09
5.977e-09
1.97194e-06
-4.53316e-09
6.00469e-09
1.98218e-06
-4.25239e-09
6.08452e-09
-4.07274e-09
6.1498e-09
1.68027e-06
-3.64917e-09
1.89094e-09
1.68934e-06
-9.63343e-09
5.09904e-09
1.7018e-06
-1.3691e-08
7.46369e-09
1.71578e-06
-1.59356e-08
8.94513e-09
1.73022e-06
-1.69103e-08
9.6915e-09
1.74439e-06
-1.69437e-08
9.85889e-09
1.75785e-06
-1.6375e-08
9.64951e-09
1.77036e-06
-1.54448e-08
9.19528e-09
1.78185e-06
-1.43436e-08
8.60795e-09
1.79241e-06
-1.32507e-08
7.98095e-09
1.80222e-06
-1.22629e-08
7.37898e-09
1.81143e-06
-1.14068e-08
6.83343e-09
1.82019e-06
-1.0682e-08
6.35334e-09
1.82863e-06
-1.00738e-08
5.93369e-09
1.83689e-06
-9.56306e-09
5.5601e-09
1.84509e-06
-9.13001e-09
5.22352e-09
1.85334e-06
-8.76265e-09
4.91581e-09
1.86179e-06
-8.46047e-09
4.62285e-09
1.87054e-06
-8.23832e-09
4.31719e-09
-8.27063e-09
4.01324e-09
1.53312e-06
-4.93103e-09
2.3658e-09
1.54218e-06
-1.30088e-08
6.23818e-09
1.55328e-06
-1.72155e-08
8.8722e-09
1.56445e-06
-1.88992e-08
1.03452e-08
1.57507e-06
-1.95019e-08
1.08968e-08
1.58471e-06
-1.91172e-08
1.07504e-08
1.59302e-06
-1.81048e-08
1.01369e-08
1.6001e-06
-1.68188e-08
9.32113e-09
1.60627e-06
-1.5477e-08
8.44398e-09
1.61179e-06
-1.4256e-08
7.61388e-09
1.61691e-06
-1.32866e-08
6.87356e-09
1.62181e-06
-1.25384e-08
6.2209e-09
1.62661e-06
-1.19721e-08
5.63018e-09
1.63141e-06
-1.1555e-08
5.06493e-09
1.63627e-06
-1.12579e-08
4.49655e-09
1.64125e-06
-1.10637e-08
3.89275e-09
1.64636e-06
-1.097e-08
3.2157e-09
1.65164e-06
-1.09988e-08
2.43166e-09
1.65714e-06
-1.12104e-08
1.53067e-09
-1.19399e-08
6.41647e-10
1.32763e-06
-5.56891e-09
2.71802e-09
1.33539e-06
-1.39003e-08
7.12018e-09
1.34287e-06
-1.62618e-08
9.55216e-09
1.34848e-06
-1.59089e-08
1.05758e-08
1.35198e-06
-1.50026e-08
1.08714e-08
1.35376e-06
-1.39345e-08
1.05741e-08
1.35443e-06
-1.29795e-08
9.88109e-09
1.35457e-06
-1.21192e-08
9.02809e-09
1.35454e-06
-1.13529e-08
8.16407e-09
1.35448e-06
-1.07067e-08
7.34445e-09
1.35446e-06
-1.02218e-08
6.59155e-09
1.35454e-06
-9.87678e-09
5.89939e-09
1.35474e-06
-9.64665e-09
5.24384e-09
1.35505e-06
-9.5269e-09
4.58029e-09
1.35548e-06
-9.50169e-09
3.82793e-09
1.356e-06
-9.55387e-09
2.92788e-09
1.35651e-06
-9.67611e-09
1.76905e-09
1.35682e-06
-9.91044e-09
2.59753e-10
1.35664e-06
-1.03349e-08
-1.72119e-09
-1.14342e-08
-3.89841e-09
1.07432e-06
1.06465e-09
1.06824e-06
5.58592e-09
1.06138e-06
8.46275e-09
1.05338e-06
9.03766e-09
1.0451e-06
8.614e-09
1.03722e-06
8.11368e-09
1.02982e-06
7.77457e-09
1.02282e-06
7.53382e-09
1.01597e-06
7.33439e-09
1.00921e-06
7.02526e-09
1.00255e-06
6.54557e-09
9.95964e-07
5.98073e-09
9.89397e-07
5.37668e-09
9.82766e-07
4.71752e-09
9.75956e-07
3.96045e-09
9.68873e-07
2.91456e-09
9.61374e-07
1.38827e-09
9.52973e-07
-8.75761e-10
9.42811e-07
-4.58456e-09
-9.68082e-09
1.16914e-06
4.9066e-09
8.48145e-14
1.16312e-06
1.16086e-08
3.69078e-13
1.15731e-06
1.42759e-08
7.66125e-13
1.15201e-06
1.43347e-08
1.32107e-12
1.14689e-06
1.37332e-08
2.20418e-12
1.14203e-06
1.29747e-08
3.70881e-12
1.1377e-06
1.21094e-08
6.25422e-12
1.13392e-06
1.13227e-08
1.04113e-11
1.13059e-06
1.06754e-08
1.73245e-11
1.12739e-06
1.02338e-08
2.87932e-11
1.12399e-06
9.96803e-09
4.78771e-11
1.12019e-06
9.81278e-09
7.96367e-11
1.11582e-06
9.79486e-09
1.33004e-10
1.11065e-06
9.96859e-09
2.25339e-10
1.10435e-06
1.03731e-08
3.78473e-10
1.09636e-06
1.11266e-08
6.50535e-10
1.08564e-06
1.24622e-08
1.11717e-09
1.07061e-06
1.46678e-08
1.96026e-09
1.04898e-06
1.77614e-08
3.49308e-09
2.63519e-08
6.55502e-09
1.41518e-06
4.19295e-09
1.37404e-13
1.42279e-06
1.11162e-08
3.81893e-13
1.43152e-06
1.50991e-08
6.60883e-13
1.4398e-06
1.66307e-08
1.15208e-12
1.44712e-06
1.72791e-08
2.00921e-12
1.45316e-06
1.75169e-08
3.3447e-12
1.45798e-06
1.71648e-08
5.37031e-12
1.46188e-06
1.64566e-08
8.63418e-12
1.46514e-06
1.5583e-08
1.41098e-11
1.468e-06
1.47259e-08
2.3569e-11
1.47062e-06
1.39527e-08
3.89732e-11
1.47302e-06
1.33249e-08
6.39433e-11
1.47514e-06
1.29406e-08
1.01543e-10
1.47691e-06
1.2807e-08
1.60805e-10
1.4783e-06
1.28831e-08
2.56166e-10
1.4792e-06
1.3271e-08
4.04473e-10
1.47955e-06
1.4097e-08
6.24776e-10
1.47938e-06
1.54757e-08
9.35379e-10
1.47876e-06
1.7356e-08
1.34258e-09
1.92976e-08
1.65032e-09
1.61424e-06
3.0929e-09
9.91207e-14
1.62332e-06
8.27416e-09
2.42793e-13
1.63533e-06
1.19574e-08
4.22934e-13
1.64819e-06
1.41151e-08