/*--------------------------------*- C++ -*----------------------------------*\
| =========                 |                                                 |
| \\      /  F ield         | OpenFOAM: The Open Source CFD Toolbox           |
|  \\    /   O peration     | Version:  2212                                  |
|   \\  /    A nd           | Website:  www.openfoam.com                      |
|    \\/     M anipulation  |                                                 |
\*---------------------------------------------------------------------------*/
FoamFile
{
    version     2.0;
    format      ascii;
    arch        "LSB;label=32;scalar=64";
    class       surfaceVectorField;
    location    "0.9";
    object      Uf;
}
// * * * * * * * * * * * * * * * * * * * * * * * * * * * * * * * * * * * * * //

dimensions      [0 1 -1 0 0 0 0];

internalField   nonuniform List<vector> 
19019
(
(0.0993441 -0.00341901 -0.00341903)
(0.0973536 0.00106248 -0.00148428)
(0.0973536 -0.00148428 0.00106247)
(0.0834792 0.00197589 0.00197582)
(0.0930873 0.003269 0.00253347)
(0.0930873 0.0025335 0.00326894)
(0.0745173 0.00195876 0.00195864)
(0.0848642 0.00163587 0.00179234)
(0.0848642 0.0017924 0.00163574)
(0.0685482 0.00115916 0.00115896)
(0.0786284 0.00107355 0.00122134)
(0.0786284 0.00122147 0.00107333)
(0.0642368 0.000697091 0.000696763)
(0.0740537 0.000785399 0.000865129)
(0.0740536 0.000865312 0.000785028)
(0.0607579 0.000495011 0.000494436)
(0.0704437 0.000650602 0.000669391)
(0.0704435 0.000669694 0.000650016)
(0.0579392 0.00037519 0.000374223)
(0.0674936 0.000546953 0.000508775)
(0.0674932 0.000509332 0.000545867)
(0.055617 0.000288568 0.00028702)
(0.0650539 0.000469172 0.000387948)
(0.0650534 0.000388798 0.000467345)
(0.0536296 0.000227977 0.000225464)
(0.0629711 0.000415688 0.000308712)
(0.0629701 0.000310057 0.00041264)
(0.0518876 0.00018483 0.000180715)
(0.06114 0.000373502 0.000256495)
(0.0611384 0.000258669 0.000368432)
(0.0503424 0.00015391 0.000147247)
(0.0595019 0.000335772 0.000222322)
(0.0594991 0.000226073 0.00032739)
(0.0489628 0.000130904 0.000120362)
(0.0580243 0.000301282 0.000199828)
(0.0580194 0.000205838 0.000287606)
(0.0477239 0.000112815 9.58103e-05)
(0.0566831 0.000271601 0.000185041)
(0.056675 0.000192924 0.000249314)
(0.0466046 9.82193e-05 7.00217e-05)
(0.0554582 0.000248186 0.000174238)
(0.0554449 0.00018636 0.000211285)
(0.0456102 8.62816e-05 3.85693e-05)
(0.0543495 0.000226551 0.000163721)
(0.0543275 0.000184442 0.000165426)
(0.0447613 7.65739e-05 7.43067e-06)
(0.0533671 0.000206528 0.000150232)
(0.053329 0.000187073 0.000104672)
(0.0440981 5.47863e-05 -6.42404e-05)
(0.0525498 0.000183973 0.000137052)
(0.0524806 0.000186737 2.40237e-05)
(0.0440079 -1.19322e-05 -0.000214402)
(0.0520844 0.000118458 3.03533e-05)
(0.0519553 0.000135512 -0.000161283)
(0.0451778 -0.00108667 -0.00145214)
(0.0525383 -5.07501e-05 -0.000165073)
(0.0522752 -3.06076e-05 -0.000535208)
(0.0509176 -0.00176813 -0.00184926)
(0.0510253 -0.00238015 -0.00342295)
(0.0984572 0.00247644 0.00172989)
(0.0996871 0.000439226 0.000345484)
(0.100049 0.00105639 0.000750967)
(0.0958349 0.00314805 0.00243267)
(0.0978162 0.00273275 0.00228228)
(0.0982937 0.0028092 0.00216145)
(0.0914502 0.0022303 0.00186929)
(0.0954961 0.00300162 0.00230313)
(0.0963041 0.00244261 0.00199777)
(0.0875957 0.00167454 0.00150545)
(0.0926195 0.00229919 0.00183877)
(0.0936672 0.00198063 0.00172691)
(0.0841486 0.00143988 0.00127574)
(0.089768 0.00189156 0.0015357)
(0.0909053 0.00171955 0.00149781)
(0.0811893 0.00126516 0.00102897)
(0.0872332 0.00165581 0.00129487)
(0.0884355 0.00145434 0.00121192)
(0.0787037 0.0011098 0.00079443)
(0.0850085 0.0014909 0.00107758)
(0.0863067 0.00118322 0.000909028)
(0.0765607 0.000991428 0.000626108)
(0.0830639 0.00136961 0.000914118)
(0.0844837 0.000982449 0.000691392)
(0.0746578 0.00090395 0.000519871)
(0.0813297 0.00127525 0.0008031)
(0.0828853 0.000844189 0.000549824)
(0.0729344 0.000828946 0.000455762)
(0.0797547 0.00118858 0.000729)
(0.0814565 0.00074285 0.000457526)
(0.0713555 0.00075559 0.000417905)
(0.0783115 0.00110297 0.000683801)
(0.0801658 0.000659358 0.000395205)
(0.0699009 0.00068339 0.000396117)
(0.0769793 0.00101734 0.000657997)
(0.0789885 0.000585822 0.000350959)
(0.0685568 0.000617725 0.000385466)
(0.0757417 0.00093072 0.000645236)
(0.0779069 0.000522861 0.000320975)
(0.0673142 0.000556167 0.000381582)
(0.0745886 0.000843029 0.000641223)
(0.0769164 0.000472323 0.000300355)
(0.0661822 0.000489706 0.000379808)
(0.073522 0.000746284 0.000642304)
(0.0760227 0.000421602 0.000279194)
(0.065189 0.000401445 0.000364137)
(0.0725561 0.000630118 0.000641663)
(0.0752374 0.000365188 0.000251539)
(0.06443 0.000223886 0.00026325)
(0.0717385 0.000464654 0.00061728)
(0.0745984 0.000283281 0.000192652)
(0.0642319 -0.000126804 1.88861e-05)
(0.0711985 0.0001031 0.000474031)
(0.0742114 8.23659e-05 1.94005e-06)
(0.0653361 -0.000756581 -0.000407006)
(0.0712456 -0.000612115 0.000175857)
(0.074277 -0.000418744 -0.000553305)
(0.0698073 -0.00259599 -0.000604617)
(0.0732698 -0.00189175 -0.00259427)
(0.0993753 0.0011821 0.00107256)
(0.099473 0.000349741 0.00030706)
(0.0997475 0.000610968 0.000779882)
(0.0984949 0.00229597 0.00203193)
(0.0990504 0.00157672 0.00172047)
(0.0995971 0.00201824 0.00200288)
(0.0971415 0.00247629 0.00204864)
(0.0983578 0.00213092 0.0021689)
(0.0992974 0.00246139 0.00210243)
(0.0954399 0.00224662 0.00176743)
(0.0971935 0.00203545 0.00200245)
(0.0984886 0.00237423 0.00190262)
(0.0937515 0.00201984 0.00152257)
(0.0959056 0.00185506 0.00175447)
(0.0974229 0.00218047 0.00168877)
(0.0921393 0.00186306 0.00134488)
(0.0946725 0.00173175 0.00154291)
(0.0963105 0.001984 0.00150849)
(0.0906033 0.00175161 0.00121558)
(0.0934829 0.00165099 0.00138694)
(0.095206 0.00180031 0.00134309)
(0.0891543 0.00165208 0.00111492)
(0.09237 0.00157381 0.0012664)
(0.0941504 0.00164239 0.00120445)
(0.087809 0.00154459 0.00103409)
(0.0913348 0.00147634 0.00117346)
(0.0931698 0.00150094 0.00109697)
(0.086569 0.00143088 0.000974555)
(0.0903471 0.00136245 0.00110613)
(0.0922678 0.0013686 0.00101594)
(0.0854195 0.0013183 0.000937347)
(0.0894193 0.00124554 0.00106212)
(0.0914449 0.00124711 0.000960793)
(0.084345 0.00120816 0.000918502)
(0.0885436 0.00112773 0.00103741)
(0.0906928 0.00113667 0.000926741)
(0.0833339 0.00109487 0.000913086)
(0.0877069 0.0010083 0.00102812)
(0.0900015 0.00103279 0.000908186)
(0.0823844 0.000968978 0.000916271)
(0.0869012 0.000881924 0.0010317)
(0.0893667 0.000926448 0.000899179)
(0.0815021 0.000816337 0.00092024)
(0.086123 0.000736153 0.0010444)
(0.0887898 0.000807957 0.000896572)
(0.0807168 0.000613564 0.000912823)
(0.085375 0.000544012 0.00105937)
(0.0882805 0.000661118 0.000889618)
(0.0800785 0.000277312 0.000863256)
(0.0846743 0.000270772 0.00106979)
(0.0878615 0.000457727 0.000859547)
(0.0796179 -0.000322879 0.000738504)
(0.084034 -0.000163313 0.00106218)
(0.0875488 0.000108556 0.000769214)
(0.0793946 -0.00158935 0.000440106)
(0.083449 -0.000905841 0.00103025)
(0.0873381 -0.00047635 0.000594971)
(0.0824997 -0.00218724 0.000954793)
(0.0869287 -0.00169909 0.000215508)
(0.0996493 0.000650227 0.000931421)
(0.0994625 0.00012935 0.000192487)
(0.0997993 0.000375097 0.000741367)
(0.0990855 0.00127871 0.00182771)
(0.0992625 0.000636761 0.00137061)
(0.0998409 0.00115026 0.00181423)
(0.0984493 0.00154039 0.0021031)
(0.0989129 0.000973174 0.00200359)
(0.0999048 0.00153624 0.00209017)
(0.0977078 0.00154626 0.00198903)
(0.098295 0.00104962 0.00205073)
(0.0997675 0.00163126 0.00202306)
(0.0969396 0.00147909 0.00177632)
(0.0976573 0.00100678 0.00189984)
(0.0995097 0.00160888 0.00189585)
(0.096208 0.00142558 0.00158253)
(0.0970645 0.000958854 0.0016987)
(0.0992 0.00154641 0.00175206)
(0.0955225 0.00138993 0.00143583)
(0.0965051 0.00093113 0.00152139)
(0.0988553 0.00147268 0.00162652)
(0.0948728 0.00134841 0.00133002)
(0.0959915 0.000913213 0.00138033)
(0.0985117 0.0013897 0.00151624)
(0.0942377 0.00128486 0.00126038)
(0.0955217 0.000896392 0.00128052)
(0.0981787 0.00129424 0.00142164)
(0.0936101 0.0011962 0.00121602)
(0.0950647 0.000859327 0.0012204)
(0.0978325 0.00118573 0.00134663)
(0.0929923 0.00109011 0.00118891)
(0.0946052 0.000794494 0.00119011)
(0.0974958 0.00107276 0.00129568)
(0.0923817 0.000974299 0.00117697)
(0.0941413 0.00071506 0.00118107)
(0.0971705 0.000959944 0.00126494)
(0.0917726 0.000850358 0.00117937)
(0.0936654 0.00062833 0.00118672)
(0.096852 0.000846313 0.00125093)
(0.0911575 0.000712077 0.00119534)
(0.0931633 0.000531927 0.00120805)
(0.0965361 0.000726881 0.00125385)
(0.0905259 0.000538893 0.00122371)
(0.0926234 0.000419284 0.00124907)
(0.0962187 0.000589885 0.00127342)
(0.0898689 0.000297536 0.00126512)
(0.0920258 0.000262695 0.00131415)
(0.095894 0.000414896 0.00131061)
(0.0891732 -5.74342e-05 0.00132836)
(0.091345 3.3361e-05 0.00141611)
(0.0955541 0.000174299 0.00136904)
(0.088394 -0.000608941 0.00143248)
(0.0905213 -0.000307586 0.00157389)
(0.0951831 -0.000171274 0.00146144)
(0.0874514 -0.00145191 0.00162583)
(0.0894884 -0.000857995 0.00176241)
(0.0947323 -0.000685775 0.00160995)
(0.0883865 -0.00164253 0.00226457)
(0.094241 -0.00138378 0.00188722)
(0.0996725 0.000154005 0.000629467)
(0.0993801 -1.19378e-08 5.89379e-05)
(0.0997132 0.000103898 0.00068795)
(0.0991591 0.000353179 0.00154426)
(0.0992677 -5.36232e-08 0.00120002)
(0.0998376 0.000341543 0.00162229)
(0.0986636 0.000457541 0.00194753)
(0.0989804 -1.1316e-07 0.00188851)
(0.099963 0.000485282 0.00199141)
(0.0982121 0.000480496 0.00196069)
(0.0984745 -1.92442e-07 0.00200656)
(0.0999918 0.000539306 0.0019967)
(0.0977759 0.000471031 0.00182492)
(0.0979952 -3.17625e-07 0.00191486)
(0.100009 0.000545842 0.00191122)
(0.097362 0.000457164 0.00164138)
(0.09757 -5.30219e-07 0.00173506)
(0.100007 0.000532538 0.00180464)
(0.0969931 0.000444107 0.00146857)
(0.0971793 -8.88886e-07 0.00154783)
(0.0999805 0.000509863 0.00168345)
(0.0966713 0.000433334 0.0013305)
(0.0968279 -1.4737e-06 0.00138954)
(0.0999377 0.000482362 0.00157358)
(0.0963884 0.00042221 0.00123697)
(0.0965249 -2.44532e-06 0.00127185)
(0.0998961 0.000456666 0.00148317)
(0.0961181 0.000402822 0.00118993)
(0.0962652 -4.05631e-06 0.00120279)
(0.099861 0.000429716 0.00142171)
(0.0958317 0.000370936 0.00117863)
(0.0959821 -6.73645e-06 0.00117823)
(0.0998029 0.000394557 0.00138531)
(0.095514 0.000327731 0.00118836)
(0.0956735 -1.11964e-05 0.00118101)
(0.0997265 0.000351372 0.00136429)
(0.0951527 0.000274376 0.00121403)
(0.0953325 -1.86898e-05 0.00119932)
(0.0996273 0.000302151 0.0013614)
(0.0947319 0.000211557 0.00126197)
(0.0949371 -3.16564e-05 0.00123586)
(0.0994901 0.00024549 0.00138311)
(0.0942314 0.000128736 0.00134237)
(0.0944693 -5.3162e-05 0.00130172)
(0.0993079 0.000179626 0.00143353)
(0.0936129 4.02356e-06 0.00147234)
(0.0938965 -9.1379e-05 0.00140801)
(0.0990646 9.05732e-05 0.00152485)
(0.0928142 -0.000190668 0.00167451)
(0.0931653 -0.000156937 0.00158455)
(0.0987312 -3.79708e-05 0.00168084)
(0.0917529 -0.000516112 0.00192152)
(0.0921613 -0.000275386 0.00185792)
(0.0982518 -0.000228841 0.00192624)
(0.090336 -0.00102788 0.00242391)
(0.0907959 -0.000490754 0.00217447)
(0.097596 -0.000532098 0.00222515)
(0.0893509 -0.000920996 0.00321756)
(0.0970971 -0.000945209 0.00284021)
(0.0996725 -0.000154066 0.000629495)
(0.0994625 -0.000129372 0.000192503)
(0.0997132 -0.000103924 0.000687952)
(0.099159 -0.000353334 0.00154428)
(0.0992625 -0.000636842 0.00137063)
(0.0998376 -0.000341642 0.00162231)
(0.0986635 -0.000457823 0.00194755)
(0.0989128 -0.00097333 0.00200362)
(0.0999629 -0.000485471 0.00199141)
(0.0982119 -0.000480969 0.00196073)
(0.0982948 -0.00104988 0.00205078)
(0.0999916 -0.000539626 0.00199672)
(0.0977756 -0.000471824 0.001825)
(0.0976569 -0.00100723 0.00189992)
(0.100009 -0.000546385 0.00191129)
(0.0973613 -0.000458498 0.00164151)
(0.0970637 -0.000959625 0.00169883)
(0.100007 -0.000533448 0.00180477)
(0.096992 -0.00044633 0.0014688)
(0.0965037 -0.000932431 0.00152159)
(0.0999797 -0.000511362 0.00168365)
(0.0966694 -0.00043702 0.0013309)
(0.0959892 -0.000915362 0.00138067)
(0.0999364 -0.000484817 0.0015739)
(0.0963853 -0.000428312 0.00123767)
(0.0955178 -0.000899959 0.00128115)
(0.099894 -0.000460722 0.00148373)
(0.0961129 -0.000412916 0.0011911)
(0.095058 -0.000865121 0.00122162)
(0.0998575 -0.00043646 0.00142264)
(0.0958228 -0.000387617 0.00118061)
(0.094594 -0.000803886 0.00119227)
(0.0997971 -0.000405703 0.00138678)
(0.0954987 -0.000355373 0.00119197)
(0.0941226 -0.000730307 0.00118497)
(0.0997168 -0.000369684 0.00136684)
(0.0951262 -0.000320709 0.00122115)
(0.0936335 -0.000653462 0.00119364)
(0.0996106 -0.000331988 0.00136641)
(0.0946853 -0.000288925 0.00127562)
(0.0931087 -0.00057387 0.00122057)
(0.0994618 -0.00029469 0.00139306)
(0.0941489 -0.000258844 0.00136737)
(0.0925294 -0.000487578 0.00127268)
(0.0992605 -0.000260129 0.00145219)
(0.0934677 -0.000225434 0.00152021)
(0.0918643 -0.000381809 0.00135908)
(0.0989855 -0.00022384 0.00156076)
(0.0925536 -0.000191138 0.00176796)
(0.0910614 -0.00023225 0.00150476)
(0.0985973 -0.000182652 0.00175193)
(0.0912722 -0.000149072 0.00211086)
(0.0900134 -2.54904e-05 0.00174055)
(0.0980249 -0.000139055 0.00206625)
(0.0894275 -0.000146618 0.00296812)
(0.0886137 0.000294848 0.00206779)
(0.0972142 -8.23737e-05 0.00250688)
(0.0871599 0.00067909 0.00320005)
(0.0964253 -8.16466e-05 0.00372155)
(0.0996493 -0.000650254 0.000931428)
(0.099473 -0.00034974 0.000307062)
(0.0997993 -0.000375103 0.000741368)
(0.0990854 -0.00127878 0.00182774)
(0.0990504 -0.00157672 0.00172049)
(0.0998409 -0.00115029 0.00181424)
(0.0984491 -0.00154052 0.00210315)
(0.0983577 -0.00213092 0.00216895)
(0.0999047 -0.0015363 0.00209021)
(0.0977074 -0.00154649 0.00198911)
(0.0971932 -0.00203546 0.00200254)
(0.0997672 -0.00163138 0.00202317)
(0.0969388 -0.0014795 0.00177644)
(0.095905 -0.00185511 0.0017546)
(0.0995092 -0.0016091 0.00189603)
(0.0962066 -0.00142626 0.00158271)
(0.0946714 -0.00173185 0.00154312)
(0.099199 -0.00154677 0.00175233)
(0.09552 -0.00139104 0.00143612)
(0.0934811 -0.00165117 0.00138726)
(0.0988537 -0.00147329 0.00162692)
(0.0948685 -0.0013502 0.00133055)
(0.0923669 -0.00157405 0.00126693)
(0.0985089 -0.00139067 0.0015169)
(0.0942306 -0.0012877 0.00126147)
(0.0913295 -0.00147668 0.00117437)
(0.0981741 -0.00129579 0.00142272)
(0.0935982 -0.0012006 0.0012181)
(0.0903383 -0.00136287 0.00110777)
(0.0978247 -0.00118821 0.0013485)
(0.0929724 -0.00109698 0.00119277)
(0.0894047 -0.00124605 0.00106493)
(0.0974829 -0.00107664 0.00129894)
(0.0923482 -0.000985319 0.00118384)
(0.0885193 -0.00112829 0.00104246)
(0.0971491 -0.00096604 0.00127081)
(0.0917161 -0.000868338 0.00119116)
(0.0876663 -0.00100902 0.00103679)
(0.0968159 -0.000855803 0.00126165)
(0.0910615 -0.000740567 0.00121695)
(0.0868332 -0.000882866 0.00104657)
(0.0964765 -0.000741974 0.00127321)
(0.0903621 -0.000589299 0.00126573)
(0.0860087 -0.000736236 0.00107184)
(0.0961201 -0.000614731 0.00130933)
(0.089586 -0.000382745 0.00134811)
(0.0851803 -0.00054797 0.001113)
(0.0957305 -0.000461053 0.00137873)
(0.0886784 -7.77393e-05 0.00148595)
(0.0843368 -0.00027169 0.0011732)
(0.095282 -0.000247687 0.00150008)
(0.0875366 0.00038619 0.00171042)
(0.0834353 0.000158839 0.00126534)
(0.0947213 5.55574e-05 0.00170152)
(0.085996 0.00104729 0.00232202)
(0.0824236 0.000886605 0.00141131)
(0.0939995 0.000501629 0.00201181)
(0.0812843 0.00202087 0.00173239)
(0.0934764 0.00107018 0.00272722)
(0.0993753 -0.00118207 0.00107258)
(0.0996871 -0.000439211 0.000345485)
(0.0997475 -0.000610956 0.000779892)
(0.0984948 -0.00229592 0.00203198)
(0.0978161 -0.00273268 0.00228231)
(0.0995971 -0.0020182 0.00200293)
(0.0971413 -0.00247619 0.00204873)
(0.095496 -0.00300152 0.00230319)
(0.0992973 -0.00246131 0.00210253)
(0.0954395 -0.00224648 0.00176757)
(0.0926193 -0.00229902 0.00183888)
(0.0984884 -0.0023741 0.0019028)
(0.0937507 -0.0020196 0.00152278)
(0.0897676 -0.00189126 0.00153586)
(0.0974224 -0.00218025 0.00168903)
(0.0921379 -0.0018627 0.00134521)
(0.0872325 -0.00165533 0.00129514)
(0.0963097 -0.00198364 0.00150887)
(0.090601 -0.00175103 0.00121612)
(0.0850072 -0.00149006 0.00107804)
(0.0952046 -0.00179975 0.00134371)
(0.0891504 -0.00165111 0.00111582)
(0.0830618 -0.00136821 0.000914878)
(0.094148 -0.00164151 0.00120549)
(0.0878024 -0.00154295 0.00103558)
(0.081326 -0.00127291 0.000804346)
(0.0931657 -0.00149944 0.00109868)
(0.086558 -0.00142813 0.000976979)
(0.0797487 -0.00118467 0.000731061)
(0.0922611 -0.00136607 0.00101879)
(0.0854013 -0.00131373 0.000941454)
(0.0783014 -0.00109638 0.000687397)
(0.0914338 -0.00124298 0.000965598)
(0.0843151 -0.00120076 0.000925634)
(0.0769622 -0.00100663 0.000664056)
(0.0906744 -0.00112989 0.000935005)
(0.0832845 -0.00108296 0.000925451)
(0.0757134 -0.000913955 0.000653655)
(0.0899718 -0.00102155 0.000922316)
(0.0823022 -0.000949761 0.000938267)
(0.0745421 -0.000815914 0.000654633)
(0.0893189 -0.000908628 0.000923436)
(0.0813646 -0.000786454 0.000962146)
(0.0734448 -0.000701643 0.000666093)
(0.0887126 -0.000780185 0.000939454)
(0.0804797 -0.000565595 0.000992979)
(0.0724237 -0.000558887 0.000687143)
(0.0881545 -0.000619913 0.000968714)
(0.0796684 -0.000204053 0.00102283)
(0.0715045 -0.000348002 0.000704141)
(0.087656 -0.000396391 0.00100744)
(0.0789026 0.000425151 0.00106094)
(0.0707754 6.95226e-05 0.000646937)
(0.0872145 -2.6572e-05 0.00105279)
(0.0780943 0.00167138 0.000940404)
(0.070451 0.000900924 0.000470423)
(0.0868146 0.000569666 0.00113735)
(0.0694184 0.00343798 -0.00096983)
(0.0863028 0.0017083 0.0010278)
(0.0984572 -0.0024764 0.00172991)
(0.0973536 -0.00106247 -0.00148428)
(0.100049 -0.00105637 0.000750979)
(0.0958349 -0.00314795 0.00243271)
(0.0930873 -0.00326894 0.00253349)
(0.0982937 -0.00280914 0.00216151)
(0.0914501 -0.00223014 0.00186937)
(0.0848642 -0.00163574 0.00179239)
(0.0963041 -0.00244249 0.00199787)
(0.0875955 -0.00167424 0.00150559)
(0.0786284 -0.00107334 0.00122146)
(0.0936671 -0.00198042 0.0017271)
(0.0841482 -0.00143939 0.00127597)
(0.0740536 -0.000785033 0.000865305)
(0.0909051 -0.0017192 0.00149811)
(0.0811887 -0.0012643 0.00102939)
(0.0704435 -0.000650022 0.000669685)
(0.0884353 -0.00145376 0.00121246)
(0.0787026 -0.00110826 0.000795105)
(0.0674932 -0.000545875 0.000509321)
(0.0863062 -0.00118221 0.000909922)
(0.0765589 -0.000988803 0.000627183)
(0.0650534 -0.000467355 0.000388787)
(0.0844829 -0.000980728 0.000692855)
(0.0746546 -0.000899528 0.000521625)
(0.0629701 -0.000412651 0.000310045)
(0.082884 -0.000841286 0.000552259)
(0.072929 -0.000821527 0.00045886)
(0.0611384 -0.000368443 0.000258657)
(0.0814542 -0.000737971 0.000461615)
(0.0713462 -0.000743324 0.000423193)
(0.0594991 -0.0003274 0.000226059)
(0.0801619 -0.000651066 0.000402413)
(0.069885 -0.000663456 0.000403022)
(0.0580194 -0.000287614 0.000205824)
(0.0789817 -0.00057242 0.000362754)
(0.0685309 -0.000585079 0.000394192)
(0.056675 -0.00024932 0.000192909)
(0.0778957 -0.000502232 0.000337739)
(0.0672716 -0.000502016 0.000395556)
(0.055445 -0.000211287 0.000186347)
(0.076898 -0.000438847 0.000327021)
(0.0661107 -0.000400188 0.000405077)
(0.0543275 -0.000165425 0.000184433)
(0.0759922 -0.000366544 0.000324073)
(0.0650624 -0.000252067 0.000411845)
(0.0533291 -0.000104664 0.000187071)
(0.0751845 -0.00027577 0.000328201)
(0.0641987 1.8037e-05 0.000353628)
(0.0524807 -2.401e-05 0.000186743)
(0.0745024 -0.000136052 0.000329096)
(0.0637863 0.000559476 0.000142468)
(0.0519553 0.000161313 0.000135544)
(0.0740321 0.000147895 0.000231161)
(0.0645033 0.00227618 -0.00109612)
(0.0522752 0.000535251 -3.05487e-05)
(0.0739112 0.0008026 -0.000179697)
(0.0510253 0.0034231 -0.00238006)
(0.0734194 0.0031029 -0.00239575)
(0.0993441 0.00341903 -0.00341901)
(0.0973536 0.00148428 0.00106248)
(0.0834792 -0.00197583 0.00197588)
(0.0930873 -0.00253347 0.003269)
(0.0745173 -0.00195864 0.00195876)
(0.0848642 -0.00179234 0.00163587)
(0.0685482 -0.00115896 0.00115916)
(0.0786284 -0.00122135 0.00107355)
(0.0642368 -0.000696769 0.000697083)
(0.0740537 -0.000865134 0.000785394)
(0.0607579 -0.000494444 0.000495)
(0.0704437 -0.000669397 0.000650596)
(0.0579392 -0.000374233 0.000375177)
(0.0674936 -0.000508783 0.000546944)
(0.055617 -0.000287031 0.000288554)
(0.0650539 -0.000387957 0.000469161)
(0.0536296 -0.000225475 0.000227964)
(0.0629711 -0.000308721 0.000415676)
(0.0518876 -0.000180727 0.000184816)
(0.06114 -0.000256504 0.000373489)
(0.0503424 -0.000147259 0.000153896)
(0.0595019 -0.000222332 0.000335758)
(0.0489629 -0.000120373 0.000130891)
(0.0580243 -0.00019984 0.000301268)
(0.047724 -9.58218e-05 0.000112803)
(0.0566831 -0.000185053 0.000271587)
(0.0466046 -7.00342e-05 9.82116e-05)
(0.0554582 -0.00017425 0.000248173)
(0.0456102 -3.85801e-05 8.62808e-05)
(0.0543495 -0.000163735 0.000226541)
(0.0447614 -7.4397e-06 7.65766e-05)
(0.0533672 -0.000150245 0.000206525)
(0.0440981 6.42367e-05 5.47992e-05)
(0.0525499 -0.00013707 0.000183977)
(0.044008 0.000214408 -1.19012e-05)
(0.0520845 -3.03638e-05 0.000118478)
(0.0451778 0.00145218 -0.0010866)
(0.0525384 0.000165089 -5.07353e-05)
(0.0509177 0.00184925 -0.00176804)
(0.0984572 0.00172991 0.0024764)
(0.100049 0.000750979 0.00105637)
(0.0996871 0.000345486 0.000439212)
(0.0958349 0.00243272 0.00314795)
(0.0982937 0.00216151 0.00280914)
(0.0978161 0.00228231 0.00273268)
(0.0914501 0.00186938 0.00223013)
(0.0963041 0.00199788 0.00244249)
(0.095496 0.0023032 0.00300151)
(0.0875955 0.00150559 0.00167423)
(0.0936671 0.0017271 0.00198041)
(0.0926193 0.00183889 0.00229901)
(0.0841482 0.00127598 0.00143938)
(0.0909051 0.00149811 0.00171919)
(0.0897676 0.00153586 0.00189126)
(0.0811887 0.00102939 0.00126429)
(0.0884353 0.00121246 0.00145375)
(0.0872325 0.00129514 0.00165533)
(0.0787026 0.000795113 0.00110825)
(0.0863062 0.000909928 0.0011822)
(0.0850072 0.00107805 0.00149005)
(0.0765589 0.000627191 0.00098879)
(0.0844829 0.000692861 0.000980718)
(0.0830618 0.000914887 0.0013682)
(0.0746546 0.000521633 0.000899514)
(0.082884 0.000552266 0.000841274)
(0.081326 0.000804355 0.0012729)
(0.072929 0.000458869 0.000821512)
(0.0814542 0.000461622 0.000737959)
(0.0797487 0.00073107 0.00118466)
(0.0713462 0.000423201 0.00074331)
(0.0801619 0.00040242 0.000651053)
(0.0783014 0.000687408 0.00109638)
(0.069885 0.00040303 0.000663443)
(0.0789817 0.00036276 0.000572408)
(0.0769622 0.000664066 0.00100663)
(0.0685309 0.000394198 0.000585069)
(0.0778957 0.000337743 0.000502221)
(0.0757134 0.000653664 0.000913961)
(0.0672716 0.000395558 0.00050201)
(0.076898 0.000327021 0.000438839)
(0.074542 0.00065464 0.000815928)
(0.0661107 0.000405073 0.000400186)
(0.0759921 0.000324065 0.000366535)
(0.0734447 0.000666095 0.000701664)
(0.0650623 0.000411824 0.000252074)
(0.0751845 0.000328182 0.000275764)
(0.0724236 0.000687135 0.000558918)
(0.0641987 0.000353575 -1.80182e-05)
(0.0745023 0.000329048 0.000136049)
(0.0715045 0.00070411 0.000348054)
(0.0637862 0.000142367 -0.000559452)
(0.074032 0.000231072 -0.000147897)
(0.0707753 0.000646863 -6.94569e-05)
(0.0645034 -0.00109628 -0.00227611)
(0.0739112 -0.000179839 -0.000802606)
(0.0704511 0.00047027 -0.000900862)
(0.0734194 -0.00239594 -0.00310283)
(0.0694185 -0.00097006 -0.0034379)
(0.10008 0.00135177 0.00135173)
(0.100186 0.000798757 0.00080494)
(0.100186 0.000804957 0.000798739)
(0.100264 0.00221728 0.00221718)
(0.10019 0.00231182 0.00207142)
(0.10019 0.00207148 0.00231176)
(0.0993831 0.00243572 0.00243554)
(0.100307 0.00263364 0.00245296)
(0.100307 0.0024531 0.00263352)
(0.0979844 0.00231022 0.00230992)
(0.0998053 0.0025603 0.00245577)
(0.0998052 0.00245601 0.00256009)
(0.0964956 0.0020063 0.0020058)
(0.0988632 0.00236433 0.00228073)
(0.0988631 0.0022811 0.002364)
(0.0950738 0.00159732 0.00159649)
(0.0978416 0.00204904 0.0019679)
(0.0978413 0.00196848 0.00204846)
(0.0937774 0.00122679 0.00122543)
(0.0968628 0.00169123 0.00160442)
(0.0968623 0.00160534 0.0016903)
(0.0926213 0.00096275 0.000960487)
(0.0959618 0.00140442 0.00132105)
(0.095961 0.00132259 0.00140292)
(0.0916002 0.000778977 0.000775168)
(0.095152 0.00119125 0.00111789)
(0.0951507 0.00112046 0.00118871)
(0.0906987 0.000647574 0.000641038)
(0.0944325 0.00103128 0.000970794)
(0.0944303 0.000975103 0.001027)
(0.0898977 0.000550303 0.00053952)
(0.0937993 0.000907993 0.000862314)
(0.0937957 0.000869693 0.000900849)
(0.089178 0.000477736 0.000461337)
(0.0932395 0.000810508 0.000781865)
(0.0932336 0.000793859 0.000799033)
(0.088531 0.000424147 0.000398741)
(0.0927416 0.000730479 0.000721457)
(0.0927324 0.000739966 0.000712631)
(0.0879624 0.000379509 0.000338309)
(0.0923077 0.000659622 0.000671046)
(0.092294 0.000701084 0.00063119)
(0.0874811 0.000334553 0.000267653)
(0.0919441 0.000586274 0.000619905)
(0.0919234 0.000669484 0.000541314)
(0.0871047 0.000282096 0.000172591)
(0.091657 0.000501509 0.000559015)
(0.0916274 0.000641016 0.000431926)
(0.0868546 0.000181313 6.53791e-06)
(0.0914576 0.000383749 0.000466571)
(0.091419 0.000605634 0.000278102)
(0.0866627 -9.86277e-05 -0.00035997)
(0.0913318 0.000180145 0.000294645)
(0.091293 0.000521463 2.94633e-05)
(0.0861854 -0.00090874 -0.00128286)
(0.0911413 -0.000187681 -5.67616e-05)
(0.0911386 0.000293979 -0.000367423)
(0.0912619 -0.000801841 -0.000805409)
(0.091285 -0.000325063 -0.000938681)
(0.100171 0.00136866 0.00141639)
(0.100118 0.000577393 0.000811299)
(0.100102 0.000699758 0.000700666)
(0.100759 0.00219485 0.00214898)
(0.100478 0.0015828 0.00185873)
(0.100477 0.00182251 0.00186457)
(0.100996 0.00247684 0.00238779)
(0.101004 0.00205864 0.00224245)
(0.101024 0.00234672 0.00238278)
(0.100838 0.00247611 0.00238892)
(0.101292 0.0022033 0.00235196)
(0.101338 0.00250586 0.00254344)
(0.100458 0.00231137 0.00222458)
(0.101309 0.00216708 0.00232196)
(0.101409 0.00245047 0.00247198)
(0.0999684 0.00205621 0.0019679)
(0.101157 0.00201034 0.00217861)
(0.101302 0.00226452 0.00227006)
(0.0994448 0.00178969 0.00169948)
(0.100927 0.00179281 0.00196832)
(0.101099 0.00200879 0.00199805)
(0.0989359 0.00156162 0.00148288)
(0.100666 0.00158179 0.00176557)
(0.100856 0.00176951 0.00175687)
(0.0984687 0.001375 0.00132042)
(0.10041 0.0013922 0.00159025)
(0.10061 0.00156774 0.00156256)
(0.0980546 0.00122016 0.00119955)
(0.100175 0.00122377 0.00144565)
(0.100383 0.00139987 0.00140791)
(0.0976946 0.00109026 0.00111196)
(0.0999703 0.00107946 0.00134063)
(0.10019 0.00126019 0.00128595)
(0.0973868 0.000978566 0.00104925)
(0.0997974 0.000955558 0.00126763)
(0.100034 0.00114331 0.00119037)
(0.0971303 0.000876061 0.0010016)
(0.0996552 0.000843988 0.00121782)
(0.0999164 0.00104323 0.00111377)
(0.0969267 0.000772724 0.000962102)
(0.0995438 0.000734572 0.00118389)
(0.0998387 0.000951548 0.00104751)
(0.0967784 0.000656702 0.000923668)
(0.0994648 0.0006146 0.00116276)
(0.0998037 0.000860266 0.000985461)
(0.0966884 0.000507819 0.000870736)
(0.0994199 0.000472394 0.00114872)
(0.0998129 0.000758015 0.000917142)
(0.0966551 0.000297605 0.00078328)
(0.0994074 0.000285975 0.0011323)
(0.0998654 0.00062631 0.000826709)
(0.0966327 -1.47588e-05 0.000636829)
(0.0994138 2.90089e-05 0.00110635)
(0.099945 0.000441436 0.000696668)
(0.09652 -0.000483845 0.000417172)
(0.0993904 -0.000331017 0.0010627)
(0.100003 0.000168787 0.000510554)
(0.0995213 -0.000811754 0.00102319)
(0.10022 -0.000195609 0.000339642)
(0.100242 0.00082012 0.00125612)
(0.10009 0.000294307 0.00073535)
(0.100071 0.000415651 0.00060276)
(0.100828 0.00139045 0.0019393)
(0.100491 0.0007919 0.001684)
(0.100492 0.00112434 0.00158694)
(0.101392 0.00166327 0.00218216)
(0.101086 0.00107756 0.00208336)
(0.101128 0.00154069 0.00209399)
(0.101816 0.00176077 0.00226104)
(0.101664 0.00120406 0.00217894)
(0.101768 0.00173247 0.00229402)
(0.10208 0.0017547 0.00226191)
(0.102121 0.00123927 0.00222197)
(0.102291 0.00178949 0.00236698)
(0.102215 0.00166702 0.00217668)
(0.102451 0.00120114 0.00221021)
(0.102711 0.00174318 0.00232156)
(0.102266 0.00153166 0.00204157)
(0.102679 0.00111714 0.00212656)
(0.103037 0.00162506 0.00220161)
(0.102276 0.0013785 0.00188562)
(0.10284 0.00101526 0.00200594)
(0.103287 0.00147754 0.00204896)
(0.102274 0.00122395 0.00173129)
(0.102965 0.000913158 0.00187119)
(0.103493 0.00132436 0.00188959)
(0.102269 0.00108095 0.0016049)
(0.103067 0.000816064 0.00174612)
(0.10367 0.00117952 0.00174521)
(0.102268 0.000954932 0.00151661)
(0.103158 0.000725517 0.00164696)
(0.103832 0.00105107 0.00163213)
(0.102274 0.000840599 0.00145842)
(0.103248 0.000640787 0.00157303)
(0.103988 0.000938139 0.00154646)
(0.102289 0.000729167 0.00142424)
(0.103336 0.000558271 0.00152926)
(0.104144 0.000834014 0.00148379)
(0.102312 0.000609162 0.00141103)
(0.103416 0.000472151 0.00151508)
(0.104303 0.000731821 0.00144059)
(0.102345 0.000468999 0.00141749)
(0.10349 0.000372329 0.00152421)
(0.104468 0.000622183 0.00141409)
(0.102384 0.000294616 0.00144457)
(0.103558 0.000250471 0.00156338)
(0.10464 0.00049732 0.00140295)
(0.102422 6.55631e-05 0.00149654)
(0.10361 9.11382e-05 0.00164209)
(0.104818 0.000343731 0.0014084)
(0.102446 -0.000235113 0.00158409)
(0.103638 -0.000118789 0.00177253)
(0.104998 0.000147589 0.00143497)
(0.102432 -0.000585763 0.00173961)
(0.103632 -0.000395512 0.001958)
(0.105174 -9.77526e-05 0.00149143)
(0.103822 -0.000704084 0.00221469)
(0.10547 -0.000356969 0.00161804)
(0.100243 0.000267375 0.0011624)
(0.100087 -1.81146e-08 0.00070702)
(0.100064 0.000135794 0.000537324)
(0.100782 0.000465665 0.00182622)
(0.100477 -5.12115e-08 0.0016178)
(0.100463 0.000370844 0.00142412)
(0.101401 0.000575397 0.00207618)
(0.101066 -8.79633e-08 0.00203466)
(0.101089 0.000525092 0.00193356)
(0.101987 0.000622686 0.00213412)
(0.101694 -1.51697e-07 0.00211772)
(0.101797 0.000605753 0.00212862)
(0.102506 0.000630741 0.00216554)
(0.102268 -2.62933e-07 0.00215058)
(0.102489 0.000639097 0.00221116)
(0.102934 0.000609694 0.00215798)
(0.102741 -4.36313e-07 0.00218067)
(0.103119 0.000633821 0.00224204)
(0.103276 0.000570232 0.002091)
(0.103123 -6.99102e-07 0.00213556)
(0.103686 0.000600344 0.00219762)
(0.103553 0.00052362 0.00199294)
(0.103426 -1.12249e-06 0.00204684)
(0.104184 0.000553907 0.00210754)
(0.103785 0.000477535 0.00188814)
(0.103677 -1.83286e-06 0.00193966)
(0.104619 0.000505227 0.00199603)