/*--------------------------------*- C++ -*----------------------------------*\
| =========                 |                                                 |
| \\      /  F ield         | OpenFOAM: The Open Source CFD Toolbox           |
|  \\    /   O peration     | Version:  2212                                  |
|   \\  /    A nd           | Website:  www.openfoam.com                      |
|    \\/     M anipulation  |                                                 |
\*---------------------------------------------------------------------------*/
FoamFile
{
    version     2.0;
    format      ascii;
    arch        "LSB;label=32;scalar=64";
    class       volScalarField;
    location    "0.1";
    object      p;
}
// * * * * * * * * * * * * * * * * * * * * * * * * * * * * * * * * * * * * * //

dimensions      [0 2 -2 0 0 0 0];

internalField   nonuniform List<scalar> 
682
(
0.00472858
0.00455704
0.00438544
0.00421375
0.004042
0.00387019
0.00369834
0.00352646
0.00335455
0.00318262
0.00301066
0.00472858
0.00455706
0.00438546
0.00421377
0.004042
0.00387019
0.00369833
0.00352645
0.00335454
0.00318261
0.00301063
0.00472834
0.00455687
0.00438534
0.00421369
0.00404196
0.00387017
0.00369832
0.00352646
0.00335457
0.00318265
0.00301065
0.00489951
0.00472841
0.00455696
0.00438533
0.00421366
0.00404193
0.00387015
0.00369833
0.0035265
0.00335468
0.00318287
0.00301083
0.00489882
0.00472716
0.0045562
0.004385
0.00421352
0.00404187
0.00387012
0.00369834
0.00352659
0.00335502
0.00318385
0.00301177
0.0048988
0.0047271
0.00455614
0.00438496
0.00421351
0.00404187
0.00387013
0.00369835
0.0035266
0.00335502
0.00318385
0.00301181
0.00472931
0.0045575
0.00438569
0.00421389
0.00404206
0.00387019
0.0036983
0.00352637
0.00335442
0.00318243
0.00301043
0.004729
0.00455734
0.00438562
0.00421386
0.00404204
0.00387019
0.00369829
0.00352636
0.00335439
0.00318241
0.00301042
0.00472836
0.00455695
0.00438543
0.00421376
0.00404199
0.00387015
0.00369825
0.00352631
0.00335431
0.00318224
0.00301025
0.00489944
0.00472847
0.004557
0.00438538
0.0042137
0.00404194
0.00387011
0.00369823
0.00352629
0.00335421
0.00318183
0.00300987
0.00489857
0.00472779
0.00455653
0.00438507
0.00421352
0.00404185
0.00387009
0.00369828
0.00352645
0.00335462
0.0031827
0.00301062
0.00489852
0.00472693
0.00455607
0.00438493
0.0042135
0.00404187
0.00387013
0.00369834
0.00352657
0.00335498
0.00318377
0.00301169
0.00473104
0.00455884
0.00438671
0.00421463
0.00404258
0.00387055
0.00369852
0.00352649
0.00335445
0.0031824
0.00301036
0.00473056
0.00455852
0.00438649
0.00421448
0.00404248
0.00387048
0.00369847
0.00352646
0.00335443
0.0031824
0.0030104
0.00472987
0.00455801
0.00438612
0.00421421
0.00404228
0.00387033
0.00369836
0.00352635
0.00335432
0.00318226
0.00301029
0.00490085
0.00472912
0.00455741
0.00438569
0.00421392
0.00404208
0.00387018
0.00369824
0.00352624
0.00335413
0.00318192
0.00301
0.00489968
0.00472877
0.00455715
0.00438543
0.00421371
0.00404194
0.00387011
0.00369823
0.00352628
0.00335419
0.00318182
0.00300987
0.00489923
0.00472799
0.00455671
0.00438526
0.00421365
0.00404194
0.00387015
0.00369832
0.00352647
0.00335463
0.00318278
0.00301074
0.00473223
0.00455981
0.00438749
0.00421524
0.00404306
0.00387091
0.0036988
0.0035267
0.00335461
0.00318254
0.0030105
0.00473185
0.00455951
0.00438726
0.00421507
0.00404293
0.00387081
0.00369872
0.00352665
0.00335459
0.00318253
0.0030105
0.00473112
0.00455891
0.00438677
0.00421469
0.00404263
0.00387059
0.00369855
0.00352652
0.00335448
0.00318244
0.00301044
0.00490229
0.00473014
0.00455811
0.00438616
0.00421422
0.00404228
0.00387033
0.00369836
0.00352635
0.00335432
0.00318227
0.00301031
0.0049004
0.00472889
0.00455725
0.00438555
0.0042138
0.004042
0.00387015
0.00369825
0.00352631
0.00335431
0.00318225
0.00301028
0.00489962
0.00472829
0.0045569
0.00438538
0.00421373
0.00404198
0.00387017
0.00369832
0.00352643
0.00335453
0.0031826
0.00301059
0.00473273
0.00456023
0.00438783
0.00421552
0.00404327
0.00387108
0.00369893
0.0035268
0.0033547
0.00318262
0.00301057
0.00473195
0.00455955
0.00438726
0.00421506
0.00404291
0.0038708
0.00369872
0.00352665
0.00335459
0.00318254
0.00301052
0.0049032
0.0047308
0.00455859
0.0043865
0.00421446
0.00404245
0.00387046
0.00369846
0.00352645
0.00335444
0.00318243
0.00301044
0.00490108
0.00472924
0.00455745
0.00438567
0.00421388
0.00404205
0.00387019
0.00369829
0.00352635
0.00335439
0.00318241
0.00301043
0.00490011
0.00472864
0.00455711
0.0043855
0.00421379
0.00404202
0.00387019
0.00369832
0.00352642
0.0033545
0.00318255
0.00301056
0.00473302
0.00456048
0.00438804
0.00421569
0.00404341
0.00387119
0.00369901
0.00352686
0.00335474
0.00318265
0.00301059
0.00473214
0.00455972
0.00438741
0.00421518
0.00404301
0.00387088
0.00369878
0.00352669
0.00335462
0.00318257
0.00301054
0.00490317
0.00473083
0.00455864
0.00438655
0.00421452
0.0040425
0.0038705
0.00369849
0.00352648
0.00335447
0.00318246
0.00301046
0.00490111
0.00472927
0.00455749
0.00438571
0.00421391
0.00404208
0.00387021
0.0036983
0.00352637
0.00335441
0.00318243
0.00301045
0.00490034
0.00472881
0.00455723
0.00438557
0.00421384
0.00404205
0.00387021
0.00369833
0.00352643
0.00335449
0.00318254
0.00301055
0.00473274
0.00456024
0.00438784
0.00421553
0.00404328
0.00387108
0.00369893
0.0035268
0.00335469
0.00318261
0.00301055
0.00473177
0.00455944
0.0043872
0.00421503
0.0040429
0.00387079
0.00369871
0.00352664
0.00335458
0.00318254
0.00301051
0.00490241
0.00473032
0.00455832
0.00438635
0.00421439
0.00404242
0.00387044
0.00369845
0.00352645
0.00335443
0.00318242
0.00301043
0.0049006
0.004729
0.00455736
0.00438565
0.00421389
0.00404207
0.00387021
0.0036983
0.00352636
0.00335439
0.0031824
0.00301042
0.00490042
0.00472888
0.00455727
0.00438559
0.00421385
0.00404206
0.00387022
0.00369834
0.00352644
0.00335451
0.00318256
0.00301057
0.00473206
0.00455966
0.00438735
0.00421513
0.00404296
0.00387083
0.00369873
0.00352664
0.00335456
0.00318249
0.00301043
0.00473114
0.00455893
0.00438679
0.0042147
0.00404265
0.0038706
0.00369856
0.00352652
0.00335448
0.00318243
0.00301043
0.00490161
0.00472975
0.00455791
0.00438606
0.00421418
0.00404226
0.00387032
0.00369835
0.00352636
0.00335432
0.00318227
0.0030103
0.00489986
0.00472865
0.00455717
0.00438554
0.00421382
0.00404202
0.00387017
0.00369827
0.00352633
0.00335432
0.00318224
0.00301026
0.0049
0.00472859
0.0045571
0.0043855
0.0042138
0.00404203
0.0038702
0.00369834
0.00352646
0.00335456
0.00318263
0.00301062
0.00473113
0.00455888
0.0043867
0.00421459
0.00404254
0.00387051
0.00369848
0.00352645
0.00335439
0.0031823
0.0030102
0.00473029
0.00455826
0.00438627
0.0042143
0.00404233
0.00387036
0.00369838
0.00352637
0.00335432
0.00318225
0.00301026
0.00490085
0.00472917
0.00455746
0.00438573
0.00421394
0.00404209
0.00387019
0.00369825
0.00352625
0.00335414
0.00318193
0.00301001
0.00489951
0.0047287
0.00455714
0.00438545
0.00421372
0.00404195
0.00387013
0.00369825
0.0035263
0.00335422
0.00318185
0.00300989
0.00489972
0.00472831
0.00455689
0.00438533
0.00421369
0.00404196
0.00387017
0.00369834
0.0035265
0.00335468
0.00318286
0.00301082
0.00472928
0.00455747
0.00438566
0.00421385
0.00404203
0.00387017
0.00369828
0.00352636
0.00335441
0.00318242
0.0030104
0.00472861
0.00455703
0.00438543
0.00421373
0.00404196
0.00387013
0.00369825
0.00352633
0.00335436
0.00318232
0.00301037
0.00489965
0.00472853
0.00455699
0.00438535
0.00421366
0.00404191
0.0038701
0.00369823
0.0035263
0.00335423
0.00318188
0.00300995
0.00489858
0.00472778
0.0045565
0.00438505
0.0042135
0.00404184
0.00387008
0.00369828
0.00352646
0.00335465
0.00318274
0.00301068
0.00489893
0.0047272
0.00455621
0.00438503
0.00421355
0.00404189
0.00387015
0.00369836
0.0035266
0.00335503
0.00318386
0.00301178
0.00472833
0.00455688
0.00438535
0.0042137
0.00404197
0.00387017
0.00369833
0.00352647
0.00335459
0.00318271
0.0030108
0.00472806
0.0045567
0.00438524
0.00421363
0.00404193
0.00387015
0.00369832
0.00352647
0.00335461
0.00318272
0.00301075
0.00489906
0.00472807
0.00455677
0.00438523
0.0042136
0.0040419
0.00387013
0.00369832
0.0035265
0.00335468
0.00318287
0.00301086
0.00489844
0.00472694
0.00455603
0.00438486
0.00421343
0.00404181
0.0038701
0.00369833
0.00352659
0.00335503
0.00318383
0.00301178
0.00489883
0.00472712
0.0045561
0.00438493
0.00421349
0.00404185
0.00387013
0.00369835
0.00352661
0.00335505
0.00318388
0.00301185
)
;

boundaryField
{
    inlet
    {
        type            zeroGradient;
    }
    ami1
    {
        type            cyclicAMI;
        value           nonuniform List<scalar> 0();
    }
    walls
    {
        type            zeroGradient;
    }
    ami2
    {
        type            cyclicAMI;
        value           nonuniform List<scalar> 0();
    }
    outlet
    {
        type            fixedValue;
        value           nonuniform List<scalar> 0();
    }
    procBoundary9to0
    {
        type            processor;
        value           nonuniform List<scalar> 
40
(
0.00490011
0.00490008
0.00489983
0.00489983
0.0050707
0.0050711
0.00507099
0.00490114
0.00490057
0.0048998
0.0048998
0.00506984
0.00506923
0.00507058
0.00490336
0.00490263
0.00490162
0.00490162
0.00507236
0.00507012
0.00507045
0.00490478
0.0049043
0.00490343
0.00490343
0.00507463
0.00507197
0.00507086
0.00490536
0.00490449
0.00490449
0.00507588
0.00507312
0.00507151
0.00490569
0.0049047
0.0049047
0.00507578
0.00507311
0.0050718
)
;
    }
    procBoundary9to1
    {
        type            processor;
        value           nonuniform List<scalar> 
30
(
0.00490536
0.00490422
0.00490422
0.00507472
0.00507226
0.00507181
0.00490459
0.00490344
0.00490344
0.00507349
0.00507091
0.00507124
0.00490344
0.00490233
0.00490233
0.00507233
0.00506976
0.00507109
0.00490107
0.00490036
0.00490036
0.00507026
0.00506926
0.00507125
0.00489982
0.00489947
0.00489947
0.00507014
0.00507046
0.00507103
)
;
    }
    procBoundary9to7
    {
        type            processor;
        value           nonuniform List<scalar> 
59
(
0.00283865
0.00283861
0.00283857
0.00283849
0.00283818
0.00283823
0.00283844
0.00283847
0.00283847
0.00283868
0.00283848
0.00283818
0.00283837
0.00283844
0.00283845
0.00283854
0.00283868
0.00283846
0.00283848
0.0028385
0.00283849
0.00283847
0.00283848
0.00283852
0.00283855
0.00283852
0.00283848
0.00283847
0.00283854
0.00283856
0.00283853
0.00283849
0.00283848
0.00283854
0.00283852
0.00283851
0.00283847
0.00283847
0.00283854
0.00283842
0.00283847
0.00283847
0.00283848
0.00283854
0.0028382
0.0028384
0.00283854
0.0028387
0.00283848
0.00283843
0.00283857
0.00283877
0.00283854
0.00283819
0.00283879
0.00283868
0.00283858
0.00283828
0.00283829
)
;
    }
    procBoundary9to8
    {
        type            processor;
        value           nonuniform List<scalar> 
132
(
0.00472833
0.00455686
0.00438532
0.00421368
0.00404196
0.00387017
0.00369833
0.00352647
0.0033546
0.00318271
0.0030108
0.00472921
0.00455742
0.00438563
0.00421384
0.00404202
0.00387017
0.00369829
0.00352637
0.00335442
0.00318243
0.00301041
0.00473108
0.00455884
0.00438668
0.00421459
0.00404254
0.00387051
0.00369849
0.00352646
0.0033544
0.00318231
0.00301021
0.00473204
0.00455965
0.00438735
0.00421513
0.00404296
0.00387084
0.00369873
0.00352665
0.00335457
0.00318249
0.00301044
0.00473304
0.0045605
0.00438806
0.00421571
0.00404342
0.0038712
0.00369901
0.00352686
0.00335474
0.00318264
0.00301058
0.00473304
0.0045605
0.00438806
0.00421571
0.00404342
0.0038712
0.00369901
0.00352686
0.00335474
0.00318264
0.00301058
0.00473331
0.00456074
0.00438826
0.00421587
0.00404356
0.0038713
0.00369909
0.00352693
0.00335479
0.00318268
0.00301061
0.00473304
0.0045605
0.00438806
0.00421571
0.00404342
0.0038712
0.00369901
0.00352686
0.00335474
0.00318264
0.00301058
0.00473223
0.00455981
0.00438749
0.00421525
0.00404306
0.00387091
0.00369879
0.00352669
0.00335461
0.00318253
0.00301048
0.00473105
0.00455884
0.00438671
0.00421463
0.00404258
0.00387055
0.00369852
0.00352649
0.00335444
0.00318239
0.00301034
0.00472932
0.0045575
0.0043857
0.00421389
0.00404206
0.0038702
0.0036983
0.00352637
0.00335441
0.00318242
0.0030104
0.00472862
0.00455706
0.00438545
0.00421376
0.004042
0.00387019
0.00369834
0.00352646
0.00335455
0.00318262
0.00301067
)
;
    }
}


// ************************************************************************* //
