/*--------------------------------*- C++ -*----------------------------------*\
| =========                 |                                                 |
| \\      /  F ield         | OpenFOAM: The Open Source CFD Toolbox           |
|  \\    /   O peration     | Version:  2212                                  |
|   \\  /    A nd           | Website:  www.openfoam.com                      |
|    \\/     M anipulation  |                                                 |
\*---------------------------------------------------------------------------*/
FoamFile
{
    version     2.0;
    format      ascii;
    arch        "LSB;label=32;scalar=64";
    class       volScalarField;
    location    "2.2";
    object      k;
}
// * * * * * * * * * * * * * * * * * * * * * * * * * * * * * * * * * * * * * //

dimensions      [0 2 -2 0 0 0 0];

internalField   nonuniform List<scalar> 
693
(
0.00199395
0.00196722
0.00194143
0.00191659
0.00189244
0.00186889
0.00171703
0.0016918
0.00166788
0.00164479
0.00162241
0.00160068
0.00170115
0.00167287
0.00164616
0.00162022
0.00159512
0.00157094
0.00167321
0.00164032
0.00160927
0.00158023
0.00155237
0.00152626
0.00165778
0.00162278
0.00158993
0.00155917
0.00152999
0.00150292
0.00164204
0.00160543
0.00156995
0.00153763
0.00150799
0.00148124
0.00161726
0.00158147
0.00154756
0.00151678
0.00148859
0.00146269
0.00159026
0.00155881
0.00152956
0.00150144
0.0014752
0.00144954
0.00158217
0.00155286
0.00152551
0.00149947
0.00147513
0.00145196
0.00163085
0.0016056
0.00158172
0.00155866
0.00153678
0.00151578
0.00199425
0.0019676
0.00194191
0.00191701
0.00189278
0.00186911
0.00163065
0.00160539
0.00158137
0.00155839
0.0015366
0.00151574
0.00118021
0.00114217
0.00110559
0.00107047
0.00103858
0.00100744
0.00147302
0.00141961
0.0013673
0.0013185
0.00127457
0.00123164
0.00163575
0.00157673
0.00151875
0.00146782
0.00141664
0.00137105
0.00172229
0.00165971
0.00160176
0.00154621
0.00149216
0.00144217
0.00176892
0.00169249
0.00162496
0.00156958
0.00151832
0.00146978
0.00176003
0.00168664
0.00162349
0.00156228
0.00150576
0.00145256
0.00164377
0.00157464
0.00151416
0.00145308
0.00139864
0.00134527
0.00140136
0.00134202
0.00129079
0.00123818
0.0011931
0.00114694
0.00118167
0.00114301
0.00110709
0.00107131
0.00103906
0.00100763
0.00171756
0.0016923
0.00166853
0.00164538
0.00162296
0.00160114
0.00158173
0.00155269
0.0015253
0.00149932
0.00147505
0.00145197
0.00139795
0.00134204
0.00128965
0.00123699
0.0011922
0.00114624
0.00173143
0.00165671
0.00158786
0.00152162
0.00146068
0.00140343
0.00198269
0.00189642
0.00181506
0.0017399
0.00166845
0.00160317
0.00213535
0.00204223
0.00195524
0.00187496
0.00179895
0.00172829
0.00220178
0.00210514
0.00201491
0.00193099
0.00185239
0.00178056
0.0021669
0.0020729
0.00198512
0.00190262
0.00182544
0.00175348
0.0020075
0.00192104
0.00183998
0.00176279
0.0016896
0.00162142
0.00173384
0.00165864
0.00159006
0.00152313
0.00146195
0.00140439
0.00147759
0.0014214
0.00137169
0.00132131
0.00127663
0.00123327
0.00170211
0.00167384
0.00164727
0.00162126
0.00159607
0.00157178
0.00158988
0.00155889
0.00152937
0.00150165
0.00147539
0.00144995
0.00164023
0.00157523
0.00151175
0.00145436
0.00139818
0.00134647
0.00200714
0.00192068
0.00183954
0.00176277
0.00168985
0.00162169
0.00230271
0.00220081
0.00210552
0.00201637
0.00193203
0.00185436
0.00249022
0.00237915
0.00227537
0.00217835
0.00208699
0.00200255
0.00255958
0.0024454
0.00233867
0.00223888
0.00214489
0.00205789
0.00250057
0.0023894
0.00228548
0.00218825
0.0020965
0.00201163
0.00230309
0.00220124
0.00210598
0.00201685
0.00193239
0.00185466
0.00198404
0.00189795
0.00181713
0.00174174
0.00167018
0.00160472
0.00164099
0.00157885
0.00152365
0.00147074
0.00141942
0.00137342
0.0016744
0.00164147
0.00161061
0.00158154
0.00155362
0.00152745
0.00161722
0.00158182
0.00154801
0.00151737
0.00148918
0.00146341
0.00176
0.00168718
0.00162502
0.00156362
0.00150684
0.0014544
0.00216712
0.00207331
0.00198572
0.00190343
0.00182662
0.00175497
0.00250083
0.00238978
0.00228596
0.0021888
0.0020972
0.00201242
0.00271426
0.0025925
0.00247876
0.00237239
0.00227237
0.0021793
0.00278894
0.00266359
0.00254651
0.00243703
0.00233412
0.00223828
0.00271408
0.00259232
0.00247857
0.0023722
0.00227214
0.00217906
0.00249102
0.00237995
0.00227616
0.00217916
0.00208778
0.00200328
0.00213713
0.00204408
0.00195734
0.00187702
0.00180094
0.00173016
0.00172441
0.0016629
0.00160456
0.0015493
0.00149554
0.0014448
0.00165892
0.00162406
0.00159121
0.00156045
0.00153127
0.00150416
0.00164246
0.00160614
0.00157079
0.00153857
0.00150901
0.00148229
0.00177048
0.00169452
0.001627
0.0015718
0.00152072
0.00147237
0.002203
0.00210664
0.00201669
0.00193282
0.00185502
0.00178279
0.00256063
0.00244657
0.00233998
0.00224021
0.00214648
0.0020594
0.00278962
0.00266428
0.00254723
0.00243772
0.00233493
0.00223899
0.00286893
0.00273974
0.0026191
0.00250629
0.00240035
0.00230158
0.00278925
0.00266387
0.00254677
0.00243726
0.00233433
0.00223847
0.00256062
0.00244639
0.00233961
0.00223977
0.00214574
0.00205869
0.00220348
0.00210689
0.00201667
0.00193272
0.00185412
0.00178224
0.00177168
0.00169537
0.00162741
0.00157192
0.00152064
0.00147212
0.001643
0.00160657
0.00157104
0.00153868
0.00150898
0.00148226
0.00165853
0.00162365
0.00159101
0.00156026
0.00153161
0.00172395
0.00166177
0.00160435
0.00154958
0.00149643
0.00213698
0.0020441
0.00195762
0.00187734
0.0018025
0.00249125
0.00238034
0.00227679
0.00217963
0.00208945
0.00271466
0.00259297
0.00247934
0.00237283
0.00227349
0.00278944
0.00266408
0.00254701
0.00243749
0.0023347
0.00223874
0.00271423
0.00259247
0.00247874
0.00237236
0.00227233
0.00217926
0.00250107
0.00238987
0.00228592
0.00218866
0.00209693
0.00201206
0.0021678
0.00207379
0.001986
0.00190346
0.00182631
0.00175441
0.00176135
0.0016882
0.00162505
0.00156346
0.00150704
0.00145391
0.00161775
0.00158222
0.0015483
0.00151752
0.00148933
0.00146347
0.00164123
0.00161044
0.00158124
0.00155401
0.00157956
0.0015226
0.00146979
0.00142137
0.00198402
0.00189803
0.00181753
0.00174174
0.00167232
0.0023033
0.00220157
0.00210664
0.00201719
0.00193454
0.00250094
0.00238991
0.00228622
0.00218882
0.00209831
0.00256028
0.00244614
0.00233949
0.00223968
0.00214597
0.00205877
0.00249065
0.00237963
0.00227591
0.00217894
0.00208767
0.00200324
0.00230332
0.00220136
0.00210606
0.00201688
0.00193245
0.00185475
0.0020082
0.00192145
0.00184042
0.00176326
0.00169012
0.00162203
0.00164449
0.00157527
0.00151496
0.00145396
0.00139966
0.00134667
0.00159067
0.00155931
0.00153011
0.00150207
0.00147587
0.0014503
0.00167377
0.0016472
0.00162122
0.00159626
0.00142209
0.00137094
0.0013213
0.00127777
0.00173213
0.00165773
0.00158973
0.00152329
0.00146374
0.00200714
0.00192088
0.00184026
0.00176337
0.00169167
0.00216689
0.00207314
0.00198571
0.00190325
0.00182762
0.00220253
0.0021061
0.00201612
0.00193221
0.00185438
0.00178208
0.00213628
0.00204333
0.00195665
0.00187627
0.00180064
0.00173013
0.00198415
0.0018978
0.00181693
0.00174142
0.00167013
0.00160475
0.00173365
0.00165817
0.00158987
0.00152328
0.00146255
0.00140524
0.00140082
0.00134376
0.00129205
0.00123909
0.00119435
0.00114849
0.00158246
0.00155344
0.00152616
0.00150013
0.00147586
0.00145276
0.00169248
0.00166862
0.00164562
0.00162336
0.00114332
0.00110703
0.00107251
0.00103951
0.0013977
0.00134202
0.00129067
0.00123838
0.00119378
0.00164029
0.00157474
0.00151337
0.00145404
0.00140004
0.00175943
0.00168697
0.00162491
0.00156378
0.00150849
0.00176995
0.00169412
0.00162677
0.00157168
0.00152102
0.00147218
0.0017231
0.0016618
0.00160377
0.00154872
0.0014954
0.00144503
0.00164063
0.00157836
0.00152317
0.00147067
0.0014194
0.00137378
0.00147742
0.00142017
0.00137113
0.00132152
0.00127741
0.00123443
0.00118208
0.00114348
0.00110751
0.00107228
0.00104019
0.00100924
0.00163136
0.00160618
0.00158233
0.00155938
0.00153759
0.0015167
0.00196793
0.00194229
0.00191753
0.00189347
0.0016059
0.001582
0.00155918
0.00153751
0.00158175
0.00155291
0.00152576
0.00149994
0.00147586
0.00158987
0.00155901
0.00152991
0.00150207
0.00147632
0.00161716
0.00158207
0.00154845
0.00151777
0.0014902
0.00164258
0.00160637
0.00157115
0.00153893
0.00150965
0.00148267
0.00165859
0.00162385
0.00159119
0.00156057
0.00153164
0.00150462
0.00167439
0.00164147
0.00161067
0.00158168
0.00155389
0.00152786
0.00170233
0.0016739
0.00164742
0.00162153
0.00159648
0.00157233
0.00171796
0.00169269
0.00166898
0.00164593
0.0016236
0.00160192
0.00199494
0.00196838
0.00194269
0.00191789
0.00189377
0.00187021
)
;

boundaryField
{
    inlet
    {
        type            fixedValue;
        value           nonuniform List<scalar> 0();
    }
    ami1
    {
        type            cyclicAMI;
        value           nonuniform List<scalar> 0();
    }
    walls
    {
        type            kqRWallFunction;
        value           nonuniform List<scalar> 
248
(
0.00199395
0.00171703
0.00170115
0.00167321
0.00165778
0.00164204
0.00161726
0.00159026
0.00158217
0.00163085
0.00199425
0.00196722
0.0016918
0.00167287
0.00164032
0.00162278
0.00160543
0.00158147
0.00155881
0.00155286
0.0016056
0.0019676
0.00194143
0.00166788
0.00164616
0.00160927
0.00158993
0.00156995
0.00154756
0.00152956
0.00152551
0.00158172
0.00194191
0.00191659
0.00164479
0.00162022
0.00158023
0.00155917
0.00153763
0.00151678
0.00150144
0.00149947
0.00155866
0.00191701
0.00189244
0.00162241
0.00159512
0.00155237
0.00152999
0.00150799
0.00148859
0.0014752
0.00147513
0.00153678
0.00189278
0.00186889
0.00160068
0.00157094
0.00152626
0.00150292
0.00148124
0.00146269
0.00144954
0.00145196
0.00151578
0.00186911
0.00199425
0.00171756
0.00170211
0.0016744
0.00165892
0.001643
0.00161775
0.00159067
0.00158246
0.00163136
0.00199494
0.0019676
0.0016923
0.00167384
0.00164147
0.00162406
0.00160657
0.00158222
0.00155931
0.00155344
0.00160618
0.00196838
0.00194191
0.00166853
0.00164727
0.00161061
0.00159121
0.00157104
0.0015483
0.00153011
0.00152616
0.00158233
0.00194269
0.00191701
0.00164538
0.00162126
0.00158154
0.00156045
0.00153868
0.00151752
0.00150207
0.00150013
0.00155938
0.00191789
0.00189278
0.00162296
0.00159607
0.00155362
0.00153127
0.00150898
0.00148933
0.00147587
0.00147586
0.00153759
0.00189377
0.00186911
0.00160114
0.00157178
0.00152745
0.00150416
0.00148226
0.00146347
0.0014503
0.00145276
0.0015167
0.00187021
0.00158175
0.00158987
0.00161716
0.00164258
0.00165859
0.00167439
0.00170233
0.00171796
0.00199494
0.00196793
0.0016059
0.00155291
0.00155901
0.00158207
0.00160637
0.00162385
0.00164147
0.0016739
0.00169269
0.00196838
0.00194229
0.001582
0.00152576
0.00152991
0.00154845
0.00157115
0.00159119
0.00161067
0.00164742
0.00166898
0.00194269
0.00191753
0.00155918
0.00149994
0.00150207
0.00151777
0.00153893
0.00156057
0.00158168
0.00162153
0.00164593
0.00191789
0.00189347
0.00153751
0.00147586
0.00147632
0.0014902
0.00150965
0.00153164
0.00155389
0.00159648
0.0016236
0.00189377
0.00148267
0.00150462
0.00152786
0.00157233
0.00160192
0.00187021
0.00199395
0.00163065
0.00158173
0.00158988
0.00161722
0.00164246
0.00165853
0.00196722
0.00160539
0.00155269
0.00155889
0.00158182
0.00160614
0.00162365
0.00164123
0.00167377
0.00169248
0.00196793
0.00194143
0.00158137
0.0015253
0.00152937
0.00154801
0.00157079
0.00159101
0.00161044
0.0016472
0.00166862
0.00194229
0.00191659
0.00155839
0.00149932
0.00150165
0.00151737
0.00153857
0.00156026
0.00158124
0.00162122
0.00164562
0.00191753
0.00189244
0.0015366
0.00147505
0.00147539
0.00148918
0.00150901
0.00153161
0.00155401
0.00159626
0.00162336
0.00189347
0.00186889
0.00151574
0.00145197
0.00144995
0.00146341
0.00148229
)
;
    }
    ami2
    {
        type            cyclicAMI;
        value           nonuniform List<scalar> 0();
    }
    outlet
    {
        type            zeroGradient;
    }
    procBoundary7to5
    {
        type            processor;
        value           nonuniform List<scalar> 
131
(
0.00184644
0.00157967
0.00154744
0.00150081
0.00147663
0.00145518
0.00143694
0.00142351
0.00143015
0.00149586
0.00184645
0.00149603
0.000982213
0.0011926
0.00132456
0.00139233
0.00142171
0.00140089
0.00129572
0.00110829
0.000981863
0.00157999
0.00143036
0.00110824
0.00134861
0.00153868
0.00165841
0.00170916
0.00168232
0.00155541
0.00134902
0.00119323
0.00154811
0.00142403
0.00129557
0.0015556
0.00177859
0.001921
0.00197424
0.00192974
0.0017787
0.00153981
0.0013265
0.00150182
0.00143772
0.00140207
0.00168381
0.00193069
0.0020905
0.00214703
0.00209023
0.00192165
0.00166017
0.00139525
0.00147771
0.00145628
0.00150363
0.00142412
0.00144243
0.00171129
0.00172898
0.00197577
0.00200328
0.00214769
0.00217927
0.00220769
0.00214718
0.00197499
0.00171077
0.00142381
0.00145608
0.00150363
0.00144243
0.00172898
0.00200328
0.00217927
0.00217927
0.00214738
0.0020904
0.00193013
0.00168324
0.00140258
0.00143771
0.00152698
0.00137101
0.00160333
0.00185459
0.00201183
0.00201183
0.00197506
0.00192168
0.00177881
0.00155608
0.00129712
0.00142434
0.00157175
0.00123305
0.00140396
0.00162146
0.00175323
0.00175323
0.0017107
0.0016603
0.00154014
0.00135017
0.00111018
0.00143105
0.00160161
0.0010109
0.00114928
0.00134559
0.001453
0.001453
0.00142456
0.00139568
0.00132717
0.00119439
0.000983546
0.00149688
0.00187039
0.00151687
0.0014529
0.00145051
0.00146358
0.00146358
0.00145683
0.00147834
0.0015024
0.0015488
0.00158087
0.00184768
)
;
    }
    procBoundary7to8
    {
        type            processor;
        value           nonuniform List<scalar> 
68
(
0.0020218
0.00174407
0.00173247
0.00170859
0.00169576
0.00165744
0.00121929
0.00153431
0.00170438
0.0017911
0.00161262
0.00146153
0.00181141
0.00207512
0.00223646
0.00162335
0.00171301
0.00210026
0.00241219
0.00260991
0.00164987
0.00183264
0.0022674
0.00262026
0.00284546
0.00292406
0.00167605
0.00184847
0.00230629
0.00268347
0.00292473
0.00300824
0.00169627
0.00167397
0.00179268
0.00163851
0.00223764
0.00261077
0.00284581
0.00292459
0.00167397
0.00163851
0.00163851
0.00207606
0.00241263
0.00262037
0.00268325
0.00170187
0.00147443
0.00147443
0.00181177
0.00209999
0.00226714
0.00230601
0.00171745
0.00117915
0.00117915
0.00145976
0.00171096
0.00183162
0.00184808
0.00199431
0.00163068
0.00163068
0.00161186
0.00162261
0.00164949
0.001676
)
;
    }
    procBoundary7to9
    {
        type            processor;
        value           nonuniform List<scalar> 
59
(
0.00167606
0.00164988
0.00162313
0.00161233
0.00165716
0.00202185
0.00184782
0.00183299
0.0017117
0.00146061
0.00121809
0.00174404
0.00230558
0.00226757
0.00210037
0.00181077
0.00153188
0.00173272
0.00268259
0.0026202
0.00241257
0.00207577
0.00170395
0.00170922
0.00284529
0.00261075
0.0022381
0.00179365
0.00169688
0.00292441
0.00268374
0.00230721
0.00184994
0.00167666
0.00284547
0.0026208
0.00226858
0.00183421
0.00165036
0.00261038
0.00241305
0.00210155
0.0017133
0.00162362
0.00223726
0.00207631
0.00181343
0.00146344
0.00161295
0.00179216
0.00170405
0.00153531
0.00121992
0.00165775
0.00169639
0.00170919
0.00173326
0.00174464
0.00202253
)
;
    }
}


// ************************************************************************* //
