/*--------------------------------*- C++ -*----------------------------------*\
| =========                 |                                                 |
| \\      /  F ield         | OpenFOAM: The Open Source CFD Toolbox           |
|  \\    /   O peration     | Version:  2212                                  |
|   \\  /    A nd           | Website:  www.openfoam.com                      |
|    \\/     M anipulation  |                                                 |
\*---------------------------------------------------------------------------*/
FoamFile
{
    version     2.0;
    format      ascii;
    arch        "LSB;label=32;scalar=64";
    class       volScalarField;
    location    "1.6";
    object      nut;
}
// * * * * * * * * * * * * * * * * * * * * * * * * * * * * * * * * * * * * * //

dimensions      [0 2 -1 0 0 0 0];

internalField   nonuniform List<scalar> 
680
(
9.05708e-06
8.49466e-06
8.03125e-06
7.6404e-06
7.312e-06
7.02423e-06
6.75984e-06
2.50816e-05
2.29334e-05
2.11506e-05
1.96505e-05
1.8371e-05
1.72627e-05
1.62929e-05
3.9079e-05
3.57391e-05
3.29496e-05
3.0578e-05
2.8535e-05
2.67742e-05
2.52463e-05
5.07593e-05
4.6388e-05
4.27217e-05
3.96252e-05
3.69553e-05
3.46331e-05
3.26028e-05
5.71436e-05
5.22486e-05
4.80966e-05
4.45833e-05
4.15731e-05
3.89541e-05
3.66617e-05
5.71437e-05
5.22487e-05
4.80968e-05
4.45835e-05
4.15735e-05
3.89546e-05
3.66623e-05
5.07594e-05
4.63883e-05
4.27221e-05
3.96257e-05
3.6956e-05
3.46342e-05
3.90792e-05
3.57393e-05
3.29499e-05
3.05784e-05
2.85357e-05
2.67751e-05
2.50816e-05
2.29334e-05
2.11506e-05
1.96505e-05
1.83712e-05
1.72629e-05
9.05707e-06
8.49466e-06
8.03124e-06
7.64041e-06
7.31196e-06
7.02425e-06
2.50816e-05
2.29334e-05
2.11506e-05
1.96506e-05
1.83712e-05
1.72629e-05
1.62932e-05
0.000163073
0.000147538
0.000133982
0.000122047
0.000111463
0.00010213
9.38539e-05
0.000222889
0.000203756
0.00018718
0.000172655
0.000159815
0.000148374
0.000138116
0.000261256
0.000239583
0.000220848
0.000204447
0.000189956
0.000177054
0.000165486
0.000279975
0.000257075
0.000237259
0.000219914
0.000204584
0.000190928
0.00017868
0.000279976
0.000257076
0.00023726
0.000219916
0.000204586
0.00019093
0.000178684
0.000261258
0.000239585
0.00022085
0.00020445
0.00018996
0.000177061
0.00022289
0.000203757
0.000187181
0.000172657
0.000159818
0.000148378
0.000163073
0.000147538
0.000133982
0.000122046
0.000111462
0.000102129
2.50816e-05
2.29334e-05
2.11505e-05
1.96504e-05
1.8371e-05
1.72626e-05
3.90792e-05
3.57393e-05
3.29499e-05
3.05784e-05
2.85357e-05
2.67752e-05
2.52476e-05
0.00022289
0.000203757
0.000187182
0.000172658
0.000159819
0.00014838
0.000138124
0.000327451
0.000301489
0.000279048
0.000259395
0.000241998
0.000226465
0.000212496
0.000383939
0.000354803
0.000329449
0.000307155
0.000287378
0.000269698
0.00025379
0.000409794
0.000379472
0.000352934
0.000329496
0.000308636
0.00028995
0.000273116
0.000409795
0.000379473
0.000352935
0.000329497
0.000308638
0.000289953
0.000273122
0.00038394
0.000354805
0.000329451
0.000307158
0.000287381
0.000269704
0.00032745
0.000301488
0.000279048
0.000259394
0.000241997
0.000226462
0.000222889
0.000203756
0.00018718
0.000172655
0.000159815
0.000148373
3.9079e-05
3.57391e-05
3.29496e-05
3.05779e-05
2.8535e-05
2.67742e-05
5.07594e-05
4.63883e-05
4.27221e-05
3.96258e-05
3.69561e-05
3.46343e-05
3.26043e-05
0.000261258
0.000239585
0.00022085
0.00020445
0.000189961
0.000177062
0.000165496
0.00038394
0.000354805
0.000329451
0.000307158
0.000287382
0.000269705
0.000253801
0.000450441
0.000418361
0.000389972
0.000364725
0.000342158
0.000321888
0.000303593
0.000479912
0.00044718
0.000417832
0.000391475
0.000367748
0.00034633
0.000326935
0.000479912
0.000447181
0.000417832
0.000391475
0.000367749
0.000346331
0.000326936
0.000450441
0.000418361
0.000389972
0.000364724
0.000342157
0.000321886
0.000383939
0.000354803
0.000329449
0.000307155
0.000287377
0.000269697
0.000261256
0.000239583
0.000220848
0.000204447
0.000189956
0.000177054
5.07592e-05
4.6388e-05
4.27217e-05
3.96252e-05
3.69553e-05
3.46332e-05
5.71437e-05
5.22487e-05
4.80968e-05
4.45835e-05
4.15735e-05
3.89546e-05
3.66624e-05
0.000279976
0.000257076
0.00023726
0.000219916
0.000204586
0.00019093
0.000178684
0.000409795
0.000379473
0.000352935
0.000329497
0.000308638
0.000289954
0.000273122
0.000479912
0.000447181
0.000417832
0.000391475
0.000367749
0.000346331
0.000326937
0.000510578
0.000477647
0.000447613
0.000420284
0.000395441
0.000372857
0.000352305
0.000510578
0.000477647
0.000447613
0.000420284
0.000395441
0.000372856
0.000352304
0.000479912
0.00044718
0.000417832
0.000391475
0.000367748
0.00034633
0.000409794
0.000379472
0.000352934
0.000329496
0.000308636
0.000289951
0.000279975
0.000257075
0.000237259
0.000219914
0.000204584
0.000190929
5.71436e-05
5.22486e-05
4.80966e-05
4.45833e-05
4.15731e-05
3.89541e-05
5.71436e-05
5.22486e-05
4.80966e-05
4.45833e-05
4.15731e-05
3.89541e-05
3.66617e-05
0.000279975
0.000257075
0.000237259
0.000219914
0.000204584
0.000190927
0.000178679
0.000409794
0.000379472
0.000352934
0.000329495
0.000308635
0.000289949
0.000273115
0.000479912
0.00044718
0.000417832
0.000391475
0.000367748
0.00034633
0.000326935
0.000510578
0.000477647
0.000447613
0.000420284
0.000395441
0.000372856
0.000352304
0.000510578
0.000477647
0.000447613
0.000420284
0.000395441
0.000372856
0.000352304
0.000479912
0.000447181
0.000417832
0.000391475
0.000367749
0.000346331
0.000409795
0.000379473
0.000352935
0.000329498
0.000308639
0.000289955
0.000279975
0.000257075
0.00023726
0.000219915
0.000204586
0.000190932
5.71437e-05
5.22487e-05
4.80968e-05
4.45835e-05
4.15734e-05
3.89546e-05
5.07593e-05
4.6388e-05
4.27217e-05
3.96252e-05
3.69553e-05
3.46331e-05
3.26027e-05
0.000261256
0.000239583
0.000220848
0.000204447
0.000189955
0.000177054
0.000165485
0.000383939
0.000354803
0.000329449
0.000307155
0.000287377
0.000269698
0.000253789
0.000450441
0.000418361
0.000389972
0.000364725
0.000342158
0.000321887
0.000303593
0.000479912
0.000447181
0.000417832
0.000391475
0.000367749
0.000346331
0.000326937
0.000516428
0.000479912
0.00044718
0.000417832
0.000391475
0.000367748
0.00034633
0.000326935
0.000486845
0.000450441
0.000418361
0.000389972
0.000364725
0.000342158
0.000321886
0.000417841
0.00038394
0.000354805
0.000329451
0.000307158
0.000287382
0.000269704
0.000286676
0.000261257
0.000239584
0.00022085
0.00020445
0.00018996
0.000177061
5.60612e-05
5.07594e-05
4.63882e-05
4.27221e-05
3.96257e-05
3.6956e-05
3.46342e-05
3.9079e-05
3.57391e-05
3.29496e-05
3.05779e-05
2.8535e-05
2.67742e-05
2.52463e-05
0.000222889
0.000203756
0.00018718
0.000172655
0.000159815
0.000148373
0.000138115
0.00032745
0.000301488
0.000279048
0.000259395
0.000241998
0.000226465
0.000212496
0.00038394
0.000354805
0.000329451
0.000307158
0.000287382
0.000269705
0.000253801
0.000409795
0.000379473
0.000352935
0.000329498
0.000308638
0.000289954
0.000273123
0.000444764
0.000409794
0.000379472
0.000352934
0.000329495
0.000308635
0.000289949
0.000273115
0.000417841
0.000383939
0.000354803
0.000329449
0.000307155
0.000287377
0.000269696
0.000357974
0.000327451
0.000301489
0.000279048
0.000259395
0.000241997
0.000226462
0.000245319
0.00022289
0.000203757
0.000187181
0.000172657
0.000159818
0.000148378
4.3131e-05
3.90791e-05
3.57393e-05
3.29499e-05
3.05784e-05
2.85357e-05
2.6775e-05
2.50816e-05
2.29334e-05
2.11505e-05
1.96504e-05
1.8371e-05
1.72626e-05
1.62928e-05
0.000163073
0.000147538
0.000133982
0.000122047
0.000111462
0.000102129
9.38536e-05
0.00022289
0.000203757
0.000187181
0.000172658
0.000159819
0.00014838
0.000138124
0.000261258
0.000239585
0.00022085
0.00020445
0.000189961
0.000177061
0.000165495
0.000279976
0.000257075
0.00023726
0.000219915
0.000204586
0.00019093
0.000178683
0.000306819
0.000279975
0.000257075
0.000237259
0.000219914
0.000204584
0.000190927
0.000178678
0.000286675
0.000261256
0.000239583
0.000220848
0.000204447
0.000189955
0.000177053
0.000245318
0.000222889
0.000203756
0.00018718
0.000172655
0.000159815
0.000148373
0.000181113
0.000163073
0.000147538
0.000133982
0.000122047
0.000111462
0.000102129
2.77137e-05
2.50816e-05
2.29334e-05
2.11506e-05
1.96505e-05
1.83712e-05
1.72629e-05
9.05707e-06
8.49466e-06
8.03125e-06
7.6404e-06
7.31199e-06
7.02422e-06
6.75981e-06
2.50816e-05
2.29334e-05
2.11506e-05
1.96505e-05
1.83712e-05
1.72629e-05
1.62932e-05
3.90792e-05
3.57393e-05
3.29499e-05
3.05784e-05
2.85357e-05
2.67751e-05
2.52476e-05
5.07594e-05
4.63883e-05
4.27221e-05
3.96257e-05
3.6956e-05
3.46342e-05
3.26042e-05
5.71437e-05
5.22487e-05
4.80968e-05
4.45835e-05
4.15735e-05
3.89546e-05
3.66623e-05
6.30857e-05
5.71436e-05
5.22486e-05
4.80966e-05
4.45833e-05
4.15731e-05
3.89541e-05
3.66617e-05
5.60611e-05
5.07593e-05
4.6388e-05
4.27217e-05
3.96252e-05
3.69553e-05
3.46331e-05
4.31309e-05
3.9079e-05
3.57391e-05
3.29496e-05
3.05779e-05
2.8535e-05
2.67742e-05
2.77137e-05
2.50816e-05
2.29334e-05
2.11505e-05
1.96504e-05
1.8371e-05
1.72626e-05
9.76074e-06
9.05707e-06
8.49466e-06
8.03125e-06
7.64042e-06
7.31196e-06
7.02426e-06
)
;

boundaryField
{
    inlet
    {
        type            calculated;
        value           nonuniform List<scalar> 0();
    }
    ami1
    {
        type            cyclicAMI;
        value           nonuniform List<scalar> 0();
    }
    walls
    {
        type            nutkWallFunction;
        blending        stepwise;
        value           nonuniform List<scalar> 
271
(
1.4461e-06
0
0
0
0
0
0
5.78178e-07
1.62173e-06
1.62173e-06
5.78188e-07
0
0
0
0
0
0
0
8.23324e-07
8.2333e-07
0
0
0
0
0
0
0
0
1.3712e-07
1.37129e-07
0
0
0
0
0
0
0
0
0
0
0
0
0
0
0
0
0
0
0
0
0
0
0
0
0
0
0
0
0
0
0
0
0
0
0
0
0
5.78179e-07
1.62173e-06
1.62174e-06
5.78188e-07
0
0
0
0
0
0
0
8.23325e-07
8.23332e-07
0
0
0
0
0
0
0
0
1.37122e-07
1.37131e-07
0
0
0
0
0
0
0
0
0
0
0
0
0
0
0
0
0
0
0
0
0
0
0
0
0
0
0
0
0
0
0
0
0
0
0
0
0
0
0
0
0
0
0
5.78189e-07
1.62174e-06
1.62173e-06
5.78178e-07
0
0
0
0
0
0
0
8.23332e-07
8.23325e-07
0
0
0
0
0
0
0
0
1.37132e-07
1.37122e-07
0
0
0
0
0
0
0
0
0
0
0
0
0
0
0
0
0
0
0
0
0
0
0
0
0
0
0
0
0
0
0
0
0
0
0
0
0
0
0
0
0
0
0
0
2.57717e-06
1.44609e-06
0
0
0
0
0
0
5.78188e-07
1.62174e-06
1.62173e-06
5.78177e-07
0
0
0
0
0
0
0
8.23331e-07
8.23323e-07
0
0
0
0
0
0
0
0
1.3713e-07
1.3712e-07
0
0
0
0
0
0
0
0
0
0
0
0
0
0
0
0
0
0
0
0
0
0
0
0
0
0
0
0
0
0
0
0
0
0
0
0
0
0
0
0
)
;
    }
    ami2
    {
        type            cyclicAMI;
        value           nonuniform List<scalar> 0();
    }
    outlet
    {
        type            calculated;
        value           nonuniform List<scalar> 0();
    }
    procBoundary3to2
    {
        type            processor;
        value           nonuniform List<scalar> 
110
(
6.52754e-06
1.54487e-05
2.39085e-05
3.08181e-05
3.46437e-05
3.46446e-05
3.26042e-05
3.26042e-05
2.52475e-05
1.62931e-05
6.75981e-06
1.54492e-05
8.64407e-05
0.000128866
0.000155042
0.000167633
0.000167642
0.0001655
0.0001655
0.000138123
9.38483e-05
1.62927e-05
2.39103e-05
0.000128884
0.000199859
0.000239392
0.000257873
0.000257883
0.000253801
0.000253801
0.000212492
0.00013811
2.52463e-05
3.08201e-05
0.000155066
0.000239412
0.00028701
0.000309316
0.000309318
0.000303592
0.000303592
0.000253787
0.000165482
3.26028e-05
3.46447e-05
0.000167645
0.000257885
0.000309319
0.00033357
0.000333571
0.000326935
0.000326935
0.000273116
0.000178682
3.66617e-05
3.46438e-05
0.000167633
0.000257873
0.000309315
0.00033357
0.00033357
0.000326937
0.000326937
0.000273124
0.00017869
3.66624e-05
3.08181e-05
0.000155041
0.000239391
0.000287008
0.000309318
0.000309315
0.000303592
0.000303592
0.0002538
0.000165499
3.26042e-05
2.39084e-05
0.000128865
0.000199856
0.00023941
0.000257884
0.000257873
0.000253787
0.000253787
0.000212492
0.000138123
2.52475e-05
1.54486e-05
8.64395e-05
0.000128883
0.000155066
0.000167645
0.000167634
0.000165482
0.000165482
0.00013811
9.3848e-05
1.62931e-05
6.5275e-06
1.54491e-05
2.39102e-05
3.08201e-05
3.46447e-05
3.46438e-05
3.26028e-05
3.26028e-05
2.52463e-05
1.62927e-05
6.75982e-06
)
;
    }
    procBoundary3to4
    {
        type            processor;
        value           nonuniform List<scalar> 
109
(
9.76074e-06
2.77137e-05
4.3131e-05
5.60611e-05
6.30857e-05
6.30857e-05
5.60612e-05
4.3131e-05
2.77137e-05
9.76074e-06
2.77137e-05
0.000181114
0.000245318
0.000286675
0.000306819
0.00030682
0.000286676
0.000245319
0.000181113
2.77137e-05
4.3131e-05
0.000245319
0.000357974
0.000417841
0.000444764
0.000444764
0.000417841
0.000357974
0.000245318
4.3131e-05
5.60612e-05
0.000286676
0.000417841
0.000486845
0.000516428
0.000516428
0.000486845
0.000417841
0.000286675
5.60611e-05
6.30857e-05
0.00030682
0.000444764
0.000516428
0.000546546
0.000546546
0.000516428
0.000444764
0.000306819
6.30857e-05
6.30857e-05
0.000306819
0.000444764
0.000516428
0.000546546
0.000546546
0.000546546
0.000516428
0.000516428
0.000444764
0.000444764
0.00030682
0.00030682
6.30857e-05
6.30857e-05
5.60611e-05
0.000286675
0.000417841
0.000486845
0.000516428
0.000516428
0.000557103
0.000528266
0.000457786
0.000317051
6.28902e-05
4.3131e-05
0.000245318
0.000357974
0.000417841
0.000444764
0.000444764
0.000485439
0.000457785
0.000394562
0.000272128
4.83026e-05
2.77137e-05
0.000181114
0.000245319
0.000286676
0.00030682
0.00030682
0.000338935
0.00031705
0.000272128
0.000202475
3.10367e-05
9.76074e-06
2.77137e-05
4.3131e-05
5.60612e-05
6.30857e-05
6.30857e-05
7.08356e-05
6.28901e-05
4.83025e-05
3.10367e-05
1.06844e-05
)
;
    }
}


// ************************************************************************* //
