/*--------------------------------*- C++ -*----------------------------------*\
| =========                 |                                                 |
| \\      /  F ield         | OpenFOAM: The Open Source CFD Toolbox           |
|  \\    /   O peration     | Version:  2212                                  |
|   \\  /    A nd           | Website:  www.openfoam.com                      |
|    \\/     M anipulation  |                                                 |
\*---------------------------------------------------------------------------*/
FoamFile
{
    version     2.0;
    format      ascii;
    arch        "LSB;label=32;scalar=64";
    class       surfaceScalarField;
    location    "1.6";
    object      phi;
}
// * * * * * * * * * * * * * * * * * * * * * * * * * * * * * * * * * * * * * //

dimensions      [0 3 -1 0 0 0 0];

oriented        oriented;

internalField   nonuniform List<scalar> 
1795
(
1.8599e-07
3.88654e-09
3.88668e-09
1.79332e-07
3.32913e-09
3.32938e-09
1.73487e-07
2.92227e-09
2.92258e-09
1.68287e-07
2.59984e-09
2.60016e-09
1.63615e-07
2.33561e-09
2.33581e-09
1.59373e-07
2.1211e-09
2.12095e-09
1.94738e-09
1.94381e-09
4.90921e-07
1.08032e-08
6.84304e-09
4.78688e-07
9.95335e-09
5.60857e-09
4.67587e-07
9.24786e-09
4.77534e-09
4.57378e-07
8.63107e-09
4.17778e-09
4.47908e-07
8.08418e-09
3.72219e-09
4.39055e-07
7.59894e-09
3.37463e-09
7.17552e-09
3.11761e-09
7.98762e-07
1.26816e-08
1.11191e-08
7.86683e-07
1.18972e-08
1.01343e-08
7.75532e-07
1.10592e-08
9.34002e-09
7.65167e-07
1.02628e-08
8.73386e-09
7.55433e-07
9.53118e-09
8.28655e-09
7.46194e-07
8.87858e-09
7.95913e-09
8.30672e-09
7.71414e-09
1.02285e-06
7.56746e-09
1.21068e-08
1.01602e-06
7.39004e-09
1.13325e-08
1.00929e-06
7.11937e-09
1.06721e-08
1.00268e-06
6.70277e-09
1.01667e-08
9.96182e-07
6.24287e-09
9.78904e-09
9.8974e-07
5.81171e-09
9.50853e-09
5.42336e-09
9.3074e-09
1.13405e-06
-2.11446e-13
1.12966e-08
1.13081e-06
-6.89792e-13
1.06312e-08
1.12777e-06
-1.56805e-12
1.01595e-08
1.12463e-06
-3.10218e-12
9.84811e-09
1.12126e-06
-5.88389e-12
9.61641e-09
1.11762e-06
-1.08228e-11
9.45789e-09
-1.93373e-11
9.37459e-09
1.13405e-06
-7.56784e-09
1.12971e-08
1.13081e-06
-7.39146e-09
1.06322e-08
1.12777e-06
-7.12256e-09
1.01614e-08
1.12462e-06
-6.7088e-09
9.85192e-09
1.12124e-06
-6.25362e-09
9.6236e-09
1.11759e-06
-5.83025e-09
9.47078e-09
9.39723e-09
1.02284e-06
-1.26816e-08
1.21076e-08
1.01602e-06
-1.18978e-08
1.13342e-08
1.00928e-06
-1.10606e-08
1.06756e-08
1.00266e-06
-1.02656e-08
1.01737e-08
9.96143e-07
-9.53617e-09
9.80175e-09
-8.8868e-09
9.53088e-09
7.98759e-07
-1.08031e-08
1.11202e-08
7.86679e-07
-9.95323e-09
1.01362e-08
7.75522e-07
-9.24749e-09
9.34328e-09
7.65147e-07
-8.62999e-09
8.73947e-09
7.55397e-07
-8.082e-09
8.29621e-09
-7.59572e-09
7.97526e-09
4.90921e-07
-3.88677e-09
6.84357e-09
4.78688e-07
-3.32949e-09
5.60959e-09
4.67586e-07
-2.92271e-09
4.77731e-09
4.57374e-07
-2.60034e-09
4.18225e-09
4.47897e-07
-2.33604e-09
3.73084e-09
-2.12116e-09
3.3898e-09
1.8599e-07
3.8865e-09
1.79331e-07
3.32907e-09
1.73487e-07
2.92221e-09
1.68286e-07
2.59979e-09
1.63615e-07
2.33557e-09
2.12097e-09
4.90921e-07
6.84353e-09
1.08029e-08
4.78688e-07
5.60953e-09
9.95302e-09
4.67586e-07
4.77723e-09
9.24722e-09
4.57375e-07
4.18212e-09
8.62963e-09
4.47898e-07
3.73069e-09
8.0815e-09
4.39034e-07
3.38989e-09
7.59495e-09
3.13515e-09
7.16946e-09
8.5472e-07
1.21912e-08
1.21905e-08
8.45252e-07
1.03442e-08
1.03428e-08
8.36859e-07
8.97375e-09
8.97115e-09
8.29354e-07
7.93524e-09
7.93016e-09
8.2254e-07
7.13803e-09
7.12858e-09
8.16276e-07
6.52244e-09
6.50579e-09
6.02899e-09
6.00175e-09
1.14454e-06
1.38945e-08
1.53299e-08
1.13909e-06
1.22985e-08
1.36305e-08
1.13423e-06
1.09082e-08
1.22708e-08
1.12994e-06
9.76249e-09
1.11923e-08
1.12619e-06
8.83053e-09
1.03452e-08
1.12293e-06
8.06664e-09
9.67994e-09
7.43316e-09
9.14715e-09
1.35456e-06
9.05522e-09
1.68083e-08
1.35452e-06
8.20895e-09
1.54594e-08
1.35445e-06
7.41979e-09
1.42266e-08
1.35442e-06
6.72446e-09
1.32378e-08
1.35446e-06
6.11986e-09
1.2459e-08
1.3546e-06
5.59593e-09
1.18464e-08
5.1429e-09
1.13681e-08
1.46196e-06
-4.63597e-13
1.64252e-08
1.46527e-06
-9.43314e-13
1.553e-08
1.46821e-06
-2.04212e-12
1.46348e-08
1.47099e-06
-4.31865e-12
1.38014e-08
1.47367e-06
-8.09509e-12
1.30664e-08
1.47624e-06
-1.3913e-11
1.24963e-08
-2.21059e-11
1.21011e-08
1.46195e-06
-9.05586e-09
1.6426e-08
1.46526e-06
-8.21024e-09
1.55311e-08
1.46821e-06
-7.42288e-09
1.46367e-08
1.47098e-06
-6.73114e-09
1.38054e-08
1.47366e-06
-6.13175e-09
1.3074e-08
1.47622e-06
-5.61526e-09
1.25101e-08
1.21248e-08
1.35455e-06
-1.38948e-08
1.68102e-08
1.35452e-06
-1.2299e-08
1.54625e-08
1.35445e-06
-1.09088e-08
1.42317e-08
1.3544e-06
-9.76344e-09
1.3247e-08
1.35443e-06
-8.83088e-09
1.24749e-08
-8.06503e-09
1.1873e-08
1.14454e-06
-1.21907e-08
1.53317e-08
1.13909e-06
-1.03431e-08
1.36337e-08
1.13422e-06
-8.97156e-09
1.22763e-08
1.12992e-06
-7.93069e-09
1.12017e-08
1.12616e-06
-7.12917e-09
1.03606e-08
-6.5062e-09
9.7045e-09
8.5472e-07
-6.84313e-09
1.21913e-08
8.45251e-07
-5.60869e-09
1.03442e-08
8.36858e-07
-4.77551e-09
8.97388e-09
8.29353e-07
-4.17803e-09
7.93542e-09
8.22539e-07
-3.72248e-09
7.13823e-09
-3.37474e-09
6.52234e-09
4.90921e-07
1.08032e-08
4.78688e-07
9.95333e-09
4.67587e-07
9.24785e-09
4.57377e-07
8.63111e-09
4.47906e-07
8.08431e-09
7.59925e-09
7.9876e-07
1.11201e-08
1.26814e-08
7.86679e-07
1.01361e-08
1.18974e-08
7.75523e-07
9.3432e-09
1.10602e-08
7.65148e-07
8.73936e-09
1.0265e-08
7.55399e-07
8.2961e-09
9.53534e-09
7.46133e-07
7.9751e-09
8.88571e-09
7.73973e-09
8.31899e-09
1.14454e-06
1.53316e-08
1.38944e-08
1.13909e-06
1.36336e-08
1.22985e-08
1.13422e-06
1.22762e-08
1.09082e-08
1.12992e-06
1.12015e-08
9.76264e-09
1.12616e-06
1.03604e-08
8.82992e-09
1.12287e-06
9.70439e-09
8.06388e-09
9.18541e-09
7.42453e-09
1.41149e-06
1.50458e-08
1.50444e-08
1.41175e-06
1.3504e-08
1.35017e-08
1.41196e-06
1.21701e-08
1.21663e-08
1.41229e-06
1.10365e-08
1.10305e-08
1.41282e-06
1.00891e-08
1.00793e-08
1.41362e-06
9.30377e-09
9.28784e-09
8.6511e-09
8.62537e-09
1.60005e-06
9.34354e-09
1.54459e-08
1.60619e-06
8.47982e-09
1.43448e-08
1.61167e-06
7.67054e-09
1.32517e-08
1.61672e-06
6.9629e-09
1.22616e-08
1.6215e-06
6.35922e-09
1.14024e-08
1.62614e-06
5.84208e-09
1.0676e-08
5.39623e-09
1.00707e-08
1.69656e-06
-3.13413e-13
1.4947e-08
1.7063e-06
-5.7405e-13
1.42674e-08
1.71513e-06
-1.11727e-12
1.34841e-08
1.72321e-06
-2.10048e-12
1.26851e-08
1.7307e-06
-3.52195e-12
1.19349e-08
1.73777e-06
-5.22579e-12
1.12773e-08
-6.9018e-12
1.07309e-08
1.69656e-06
-9.34352e-09
1.49478e-08
1.7063e-06
-8.47979e-09
1.42687e-08
1.71512e-06
-7.67072e-09
1.34862e-08
1.7232e-06
-6.96363e-09
1.26885e-08
1.73069e-06
-6.36063e-09
1.19407e-08
1.73775e-06
-5.844e-09
1.12867e-08
1.07458e-08
1.60005e-06
-1.50448e-08
1.54479e-08
1.60619e-06
-1.35023e-08
1.43478e-08
1.61166e-06
-1.21671e-08
1.32564e-08
1.61671e-06
-1.10314e-08
1.22691e-08
1.62149e-06
-1.00805e-08
1.14144e-08
-9.28947e-09
1.06952e-08
1.41149e-06
-1.53302e-08
1.50459e-08
1.41175e-06
-1.36309e-08
1.35042e-08
1.41196e-06
-1.22713e-08
1.21703e-08
1.41229e-06
-1.1193e-08
1.10368e-08
1.41282e-06
-1.03461e-08
1.00894e-08
-9.68103e-09
9.30415e-09
1.14454e-06
-1.11192e-08
1.38946e-08
1.13909e-06
-1.01344e-08
1.22987e-08
1.13423e-06
-9.34026e-09
1.09083e-08
1.12994e-06
-8.73418e-09
9.76273e-09
1.12619e-06
-8.28701e-09
8.83085e-09
-7.95978e-09
8.06702e-09
7.98761e-07
1.26816e-08
7.86683e-07
1.18972e-08
7.75531e-07
1.10592e-08
7.65165e-07
1.02629e-08
7.55431e-07
9.53135e-09
8.87886e-09
1.02284e-06
1.21076e-08
7.56754e-09
1.01602e-06
1.13342e-08
7.39104e-09
1.00928e-06
1.06755e-08
7.12199e-09
1.00266e-06
1.01736e-08
6.70803e-09
9.96144e-07
9.80157e-09
6.2526e-09
9.8967e-07
9.53065e-09
5.82893e-09
9.34546e-09
5.45363e-09
1.35456e-06
1.68102e-08
9.0554e-09
1.35452e-06
1.54624e-08
8.20964e-09
1.35445e-06
1.42316e-08
7.4221e-09
1.35441e-06
1.32468e-08
6.73013e-09
1.35443e-06
1.24748e-08
6.13047e-09
1.35454e-06
1.18727e-08
5.61359e-09
1.14106e-08
5.16907e-09
1.60005e-06
1.54478e-08
9.34298e-09
1.60619e-06
1.43477e-08
8.47909e-09
1.61166e-06
1.32563e-08
7.66982e-09
1.61671e-06
1.22689e-08
6.96248e-09
1.62149e-06
1.14142e-08
6.35917e-09
1.62611e-06
1.06949e-08
5.8421e-09
1.01007e-08
5.39514e-09
1.77032e-06
9.20127e-09
9.20001e-09
1.78178e-06
8.61658e-09
8.61475e-09
1.79231e-06
7.99308e-09
7.99043e-09
1.80205e-06
7.39543e-09
7.39151e-09
1.81116e-06
6.85592e-09
6.84989e-09
1.81977e-06
6.38538e-09
6.37577e-09
5.9828e-09
5.96726e-09
1.85771e-06
9.92245e-14
8.83015e-09
1.87214e-06
1.27822e-13
8.45352e-09
1.88561e-06
1.58327e-13
8.00411e-09
1.89816e-06
2.42799e-13
7.53267e-09
1.90987e-06
5.26179e-13
7.07562e-09
1.92088e-06
1.27841e-12
6.65628e-09
2.8531e-12
6.28704e-09
1.85771e-06
-9.20059e-09
8.83087e-09
1.87214e-06
-8.61548e-09
8.45458e-09
1.88561e-06
-7.99136e-09
8.00568e-09
1.89816e-06
-7.39268e-09
7.53502e-09
1.90987e-06
-6.85135e-09
7.07916e-09
1.92087e-06
-6.37761e-09
6.66169e-09
6.29534e-09
1.77032e-06
-1.54464e-08
9.20137e-09
1.78178e-06
-1.43454e-08
8.6167e-09
1.79231e-06
-1.32525e-08
7.99322e-09
1.80205e-06
-1.22627e-08
7.39561e-09
1.81116e-06
-1.14037e-08
6.85612e-09
-1.06777e-08
6.38561e-09
1.60005e-06
-1.68086e-08
9.34367e-09
1.60619e-06
-1.54599e-08
8.48e-09
1.61167e-06
-1.42271e-08
7.67077e-09
1.61672e-06
-1.32385e-08
6.9632e-09
1.6215e-06
-1.246e-08
6.35961e-09
-1.18476e-08
5.84258e-09
1.35456e-06
-1.21069e-08
9.05535e-09
1.35452e-06
-1.13327e-08
8.20912e-09
1.35445e-06
-1.06724e-08
7.42002e-09
1.35442e-06
-1.01671e-08
6.72478e-09
1.35446e-06
-9.78956e-09
6.1203e-09
-9.50922e-09
5.59654e-09
1.02285e-06
7.56749e-09
1.01602e-06
7.3901e-09
1.00929e-06
7.11946e-09
1.00268e-06
6.70291e-09
9.96179e-07
6.24307e-09
5.81203e-09
1.13405e-06
1.1297e-08
-8.79153e-14
1.13081e-06
1.06321e-08
2.71883e-13
1.12777e-06
1.01613e-08
9.93363e-13
1.12462e-06
9.85183e-09
2.32133e-12
1.12124e-06
9.62346e-09
4.83307e-12
1.11759e-06
9.4706e-09
9.43339e-12
9.39696e-09
1.75258e-11
1.46195e-06
1.6426e-08
-2.11453e-14
1.46526e-06
1.55311e-08
3.07457e-13
1.46821e-06
1.46367e-08
1.21506e-12
1.47098e-06
1.38053e-08
3.24736e-12
1.47366e-06
1.30739e-08
6.71534e-12
1.47622e-06
1.25099e-08
1.21302e-11
1.21245e-08
1.97603e-11
1.69656e-06
1.49478e-08
-2.55284e-13
1.7063e-06
1.42687e-08
-1.51491e-13
1.71512e-06
1.34862e-08
1.97583e-13
1.7232e-06
1.26885e-08
9.41795e-13
1.73069e-06
1.19407e-08
2.06929e-12
1.73775e-06
1.12867e-08
3.40562e-12
1.07458e-08
4.61205e-12
1.85771e-06
8.83085e-09
-6.80295e-13
1.87214e-06
8.45456e-09
-8.58967e-13
1.88561e-06
8.00567e-09
-1.06929e-12
1.89816e-06
7.53502e-09
-1.36947e-12
1.90987e-06
7.0792e-09
-1.91109e-12
1.92087e-06
6.66178e-09
-2.96704e-12
6.29551e-09
-4.88938e-12
1.94048e-06
-1.30672e-14
-5.32003e-13
1.95739e-06
3.55233e-14
-7.11013e-13
1.9734e-06
1.23318e-13
-9.53422e-13
1.98847e-06
2.82457e-13
-1.29728e-12
2.00263e-06
5.72194e-13
-1.80759e-12
2.01594e-06
1.09434e-12
-2.58714e-12
1.99361e-12
-3.7768e-12
1.94048e-06
-8.8307e-09
3.22891e-14
1.95739e-06
-8.45421e-09
8.54454e-14
1.9734e-06
-8.00497e-09
1.7543e-13
1.98847e-06
-7.53374e-09
3.32438e-13
2.00262e-06
-7.07694e-09
6.1238e-13
2.01594e-06
-6.65792e-09
1.10422e-12
1.93243e-12
1.85771e-06
-1.49475e-08
2.15015e-13
1.87214e-06
-1.4268e-08
2.76001e-13
1.88561e-06
-1.34848e-08
3.45633e-13
1.89816e-06
-1.2686e-08
4.76163e-13
1.90987e-06
-1.19361e-08
8.10084e-13
-1.12788e-08
1.60538e-12
1.69656e-06
-1.64256e-08
-1.58663e-13
1.7063e-06
-1.55304e-08
-3.67424e-13
1.71513e-06
-1.46353e-08
-8.42377e-13
1.72321e-06
-1.38021e-08
-1.73598e-12
1.7307e-06
-1.30673e-08
-3.04217e-12
-1.24975e-08
-4.61247e-12
1.46196e-06
-1.12968e-08
-3.27258e-13
1.46527e-06
-1.06314e-08
-7.55161e-13
1.46821e-06
-1.01598e-08
-1.7838e-12
1.47099e-06
-9.84845e-09
-3.96225e-12
1.47366e-06
-9.61685e-09
-7.60195e-12
-9.45848e-09
-1.32455e-11
1.13405e-06
-1.63537e-13
1.13081e-06
-6.12482e-13
1.12777e-06
-1.44981e-12
1.12462e-06
-2.92708e-12
1.12126e-06
-5.62059e-12
-1.04291e-11
1.13405e-06
1.12967e-08
-7.56775e-09
1.13081e-06
1.06313e-08
-7.39044e-09
1.12777e-06
1.01596e-08
-7.11992e-09
1.12463e-06
9.8482e-09
-6.70351e-09
1.12126e-06
9.61652e-09
-6.24386e-09
1.11762e-06
9.45802e-09
-5.81303e-09
9.37473e-09
-5.42509e-09
1.46196e-06
1.64253e-08
-9.05565e-09
1.46527e-06
1.55301e-08
-8.2095e-09
1.46821e-06
1.46349e-08
-7.42051e-09
1.47099e-06
1.38015e-08
-6.7254e-09
1.47367e-06
1.30665e-08
-6.12107e-09
1.47624e-06
1.24965e-08
-5.59749e-09
1.21013e-08
-5.14491e-09
1.69656e-06
1.49471e-08
-9.34403e-09
1.7063e-06
1.42675e-08
-8.48046e-09
1.71513e-06
1.34842e-08
-7.67134e-09
1.72321e-06
1.26853e-08
-6.96391e-09
1.7307e-06
1.19351e-08
-6.36047e-09
1.73777e-06
1.12776e-08
-5.84363e-09
1.07313e-08
-5.39813e-09
1.85771e-06
8.83022e-09
-9.20178e-09
1.87214e-06
8.45362e-09
-8.61722e-09
1.88561e-06
8.00425e-09
-7.99387e-09
1.89816e-06
7.53287e-09
-7.3964e-09
1.90987e-06
7.07589e-09
-6.8571e-09
1.92088e-06
6.65667e-09
-6.38679e-09
6.28757e-09
-5.98447e-09
1.94048e-06
-4.95454e-13
-8.83133e-09
1.95739e-06
-6.50843e-13
-8.45515e-09
1.9734e-06
-8.60008e-13
-8.00638e-09
1.98847e-06
-1.15961e-12
-7.53589e-09
2.00262e-06
-1.61213e-12
-7.08024e-09
2.01594e-06
-2.31142e-12
-6.66301e-09
-3.38489e-12
-6.29696e-09
1.94048e-06
-8.83134e-09
-8.83062e-09
1.95739e-06
-8.45515e-09
-8.45411e-09
1.9734e-06
-8.00638e-09
-8.00484e-09
1.98847e-06
-7.53588e-09
-7.53357e-09
2.00262e-06
-7.08023e-09
-7.07672e-09
2.01594e-06
-6.663e-09
-6.65765e-09
-6.28873e-09
1.85771e-06
-1.49482e-08
-9.20046e-09
1.87214e-06
-1.42692e-08
-8.6153e-09
1.88561e-06
-1.34868e-08
-7.99112e-09
1.89815e-06
-1.26893e-08
-7.39235e-09
1.90987e-06
-1.19416e-08
-6.85092e-09
-1.12879e-08
-6.37705e-09
1.69656e-06
-1.64263e-08
-9.34337e-09
1.7063e-06
-1.55315e-08
-8.47957e-09
1.71512e-06
-1.46372e-08
-7.67042e-09
1.7232e-06
-1.3806e-08
-6.96322e-09
1.73069e-06
-1.30747e-08
-6.36008e-09
-1.2511e-08
-5.84324e-09
1.46195e-06
-1.12972e-08
-9.05574e-09
1.46526e-06
-1.06323e-08
-8.21007e-09
1.46821e-06
-1.01616e-08
-7.42264e-09
1.47098e-06
-9.85218e-09
-6.7308e-09
1.47366e-06
-9.62392e-09
-6.13128e-09
-9.47121e-09
-5.6146e-09
1.13405e-06
-7.56776e-09
1.1308e-06
-7.39135e-09
1.12776e-06
-7.12241e-09
1.12462e-06
-6.70857e-09
1.12124e-06
-6.2533e-09
-5.82981e-09
1.02285e-06
1.21068e-08
-1.26818e-08
1.01602e-06
1.13325e-08
-1.18975e-08
1.00929e-06
1.06722e-08
-1.10596e-08
1.00268e-06
1.01669e-08
-1.02634e-08
9.9618e-07
9.78926e-09
-9.53197e-09
9.89738e-07
9.50882e-09
-8.87964e-09
9.30777e-09
-8.30811e-09
1.35456e-06
1.68084e-08
-1.38949e-08
1.35452e-06
1.54596e-08
-1.2299e-08
1.35445e-06
1.42268e-08
-1.09087e-08
1.35442e-06
1.3238e-08
-9.7632e-09
1.35446e-06
1.24593e-08
-8.83142e-09
1.35459e-06
1.18468e-08
-8.06779e-09
1.13686e-08
-7.43467e-09
1.60005e-06
1.54461e-08
-1.50462e-08
1.60619e-06
1.4345e-08
-1.35045e-08
1.61167e-06
1.32519e-08
-1.21707e-08
1.61672e-06
1.22619e-08
-1.10373e-08
1.6215e-06
1.14028e-08
-1.00901e-08
1.62613e-06
1.06766e-08
-9.30496e-09
1.00714e-08
-8.6526e-09
1.77032e-06
9.20014e-09
-1.54482e-08
1.78178e-06
8.61493e-09
-1.43482e-08
1.79231e-06
7.99068e-09
-1.32569e-08
1.80205e-06
7.39186e-09
-1.22697e-08
1.81116e-06
6.85035e-09
-1.14151e-08
1.81977e-06
6.37638e-09
-1.0696e-08
5.96806e-09
-1.0102e-08
1.85771e-06
-5.75183e-13
-1.49482e-08
1.87214e-06
-7.05189e-13
-1.42691e-08
1.88561e-06
-8.50608e-13
-1.34867e-08
1.89815e-06
-1.06872e-12
-1.26892e-08
1.90987e-06
-1.50905e-12
-1.19414e-08
1.92087e-06
-2.43996e-12
-1.12876e-08
-4.20867e-12
-1.07469e-08
1.84239e-06
-9.65408e-09
-1.54228e-08
1.85771e-06
-9.20173e-09
-1.49474e-08
1.87214e-06
-8.61713e-09
-1.42678e-08
1.88561e-06
-7.99375e-09
-1.34847e-08
1.89816e-06
-7.39623e-09
-1.26858e-08
1.90987e-06
-6.85687e-09
-1.19357e-08
1.92088e-06
-6.3865e-09
-1.12783e-08
-1.0732e-08
1.75783e-06
-1.6378e-08
-1.63768e-08
1.77032e-06
-1.54482e-08
-1.54463e-08
1.78178e-06
-1.43482e-08
-1.43452e-08
1.79231e-06
-1.32569e-08
-1.32523e-08
1.80205e-06
-1.22696e-08
-1.22623e-08
1.81116e-06
-1.14151e-08
-1.14032e-08
-1.0696e-08
-1.0677e-08
1.59299e-06
-1.81001e-08
-1.67172e-08
1.60005e-06
-1.68105e-08
-1.50447e-08
1.60619e-06
-1.54628e-08
-1.35021e-08
1.61166e-06
-1.42321e-08
-1.21668e-08
1.61671e-06
-1.32474e-08
-1.10311e-08
1.62149e-06
-1.24754e-08
-1.008e-08
-1.18736e-08
-9.28866e-09
1.35442e-06
-1.29724e-08
-1.56905e-08
1.35455e-06
-1.21077e-08
-1.38947e-08
1.35451e-06
-1.13344e-08
-1.22988e-08
1.35444e-06
-1.06758e-08
-1.09086e-08
1.3544e-06
-1.01739e-08
-9.76314e-09
1.35443e-06
-9.80203e-09
-8.83045e-09
-9.53124e-09
-8.06441e-09
1.02984e-06
-1.3383e-08
1.02284e-06
-1.26815e-08
1.01602e-06
-1.18976e-08
1.00928e-06
-1.10605e-08
1.00266e-06
-1.02654e-08
9.96142e-07
-9.53586e-09
-8.88637e-09
7.98761e-07
1.11191e-08
-1.08033e-08
7.86683e-07
1.01343e-08
-9.95352e-09
7.75531e-07
9.34012e-09
-9.24809e-09
7.65165e-07
8.73399e-09
-8.63139e-09
7.55431e-07
8.28673e-09
-8.08462e-09
7.46192e-07
7.95937e-09
-7.59955e-09
7.71452e-09
-7.17637e-09
1.14454e-06
1.533e-08
-1.21914e-08
1.13909e-06
1.36306e-08
-1.03444e-08
1.13423e-06
1.2271e-08
-8.97409e-09
1.12994e-06
1.11926e-08
-7.93568e-09
1.12619e-06
1.03456e-08
-7.13858e-09
1.12292e-06
9.68039e-09
-6.52316e-09
9.14782e-09
-6.02996e-09
1.41149e-06
1.50445e-08
-1.53318e-08
1.41175e-06
1.35019e-08
-1.36339e-08
1.41196e-06
1.21666e-08
-1.22766e-08
1.41228e-06
1.10309e-08
-1.1202e-08
1.41282e-06
1.00798e-08
-1.03611e-08
1.41361e-06
9.28852e-09
-9.70523e-09
8.6263e-09
-9.18651e-09
1.60005e-06
9.34314e-09
-1.68104e-08
1.60619e-06
8.47932e-09
-1.54627e-08
1.61166e-06
7.67014e-09
-1.4232e-08
1.61671e-06
6.96294e-09
-1.32473e-08
1.62149e-06
6.35979e-09
-1.24754e-08
1.62611e-06
5.84293e-09
-1.18735e-08
5.39622e-09
-1.14116e-08
1.69656e-06
-1.00721e-13
-1.64262e-08
1.7063e-06
7.07853e-14
-1.55314e-08
1.71512e-06
5.1163e-13
-1.46371e-08
1.7232e-06
1.37663e-12
-1.38058e-08
1.73069e-06
2.65755e-12
-1.30744e-08
1.73775e-06
4.18582e-12
-1.25106e-08
5.62845e-12
-1.21252e-08
1.68574e-06
-1.01514e-08
-1.71459e-08
1.69656e-06
-9.34394e-09
-1.64255e-08
1.7063e-06
-8.48031e-09
-1.55303e-08
1.71513e-06
-7.67112e-09
-1.46351e-08
1.72321e-06
-6.9636e-09
-1.38018e-08
1.7307e-06
-6.36005e-09
-1.30668e-08
1.73777e-06
-5.84307e-09
-1.24968e-08
-1.21016e-08
1.59299e-06
-1.67181e-08
-1.80989e-08
1.60005e-06
-1.50461e-08
-1.68086e-08
1.60619e-06
-1.35045e-08
-1.54598e-08
1.61167e-06
-1.21706e-08
-1.4227e-08
1.61672e-06
-1.10371e-08
-1.32382e-08
1.6215e-06
-1.00898e-08
-1.24596e-08
-9.30463e-09
-1.1847e-08
1.41092e-06
-1.74267e-08
-1.74258e-08
1.41149e-06
-1.53319e-08
-1.53301e-08
1.41175e-06
-1.36339e-08
-1.36308e-08
1.41196e-06
-1.22766e-08
-1.22711e-08
1.41229e-06
-1.1202e-08
-1.11927e-08
1.41282e-06
-1.03609e-08
-1.03457e-08
-9.70495e-09
-9.6804e-09
1.15046e-06
-1.23414e-08
-1.47009e-08
1.14454e-06
-1.11202e-08
-1.21907e-08
1.13909e-06
-1.01363e-08
-1.0343e-08
1.13422e-06
-9.3434e-09
-8.97142e-09
1.12992e-06
-8.73963e-09
-7.93047e-09
1.12616e-06
-8.29643e-09
-7.12886e-09
-7.97555e-09
-6.50571e-09
8.11758e-07
-1.19536e-08
7.98759e-07
-1.0803e-08
7.86678e-07
-9.95312e-09
7.75522e-07
-9.24736e-09
7.65147e-07
-8.62982e-09
7.55396e-07
-8.08176e-09
-7.59537e-09
4.90921e-07
6.84305e-09
-3.88654e-09
4.78688e-07
5.60859e-09
-3.32913e-09
4.67587e-07
4.77538e-09
-2.92229e-09
4.57377e-07
4.17783e-09
-2.59987e-09
4.47906e-07
3.72227e-09
-2.33567e-09
4.39053e-07
3.37473e-09
-2.12119e-09
3.11778e-09
-1.94753e-09
8.5472e-07
1.21906e-08
-6.84361e-09
8.45251e-07
1.03429e-08
-5.60965e-09
8.36858e-07
8.97131e-09
-4.77738e-09
8.29352e-07
7.93039e-09
-4.18232e-09
8.22538e-07
7.12889e-09
-3.73094e-09
8.16274e-07
6.50623e-09
-3.39021e-09
6.00236e-09
-3.13551e-09
1.14454e-06
1.38945e-08
-1.11202e-08
1.13909e-06
1.22987e-08
-1.01362e-08
1.13422e-06
1.09085e-08
-9.34338e-09
1.12992e-06
9.76305e-09
-8.7396e-09
1.12616e-06
8.83048e-09
-8.29642e-09
1.12287e-06
8.06465e-09
-7.97554e-09
7.42559e-09
-7.74034e-09
1.35455e-06
9.05559e-09
-1.21077e-08
1.35451e-06
8.20991e-09
-1.13343e-08
1.35444e-06
7.42248e-09
-1.06757e-08
1.3544e-06
6.73068e-09
-1.01738e-08
1.35443e-06
6.13123e-09
-9.80192e-09
1.35454e-06
5.61463e-09
-9.53111e-09
5.17046e-09
-9.34608e-09
1.46195e-06
1.70481e-13
-1.12971e-08
1.46526e-06
5.80319e-13
-1.06322e-08
1.46821e-06
1.6023e-12
-1.01615e-08
1.47098e-06
3.79458e-12
-9.85201e-09
1.47366e-06
7.47246e-12
-9.6237e-09
1.47622e-06
1.3169e-11
-9.47088e-09
2.11772e-11
-9.39731e-09
1.45803e-06
-9.89784e-09
-1.20937e-08
1.46196e-06
-9.05551e-09
-1.12967e-08
1.46527e-06
-8.2093e-09
-1.06314e-08
1.46821e-06
-7.42022e-09
-1.01596e-08
1.47099e-06
-6.72498e-09
-9.84828e-09
1.47367e-06
-6.1205e-09
-9.61658e-09
1.47624e-06
-5.59672e-09
-9.45805e-09
-9.37468e-09
1.35442e-06
-1.56908e-08
-1.2972e-08
1.35456e-06
-1.38948e-08
-1.21069e-08
1.35452e-06
-1.22989e-08
-1.13326e-08
1.35445e-06
-1.09085e-08
-1.06723e-08
1.35442e-06
-9.76297e-09
-1.01669e-08
1.35446e-06
-8.83113e-09
-9.78932e-09
-8.06733e-09
-9.50885e-09
1.15046e-06
-1.47014e-08
-1.23409e-08
1.14454e-06
-1.21914e-08
-1.11192e-08
1.13909e-06
-1.03444e-08
-1.01344e-08
1.13423e-06
-8.97405e-09
-9.3402e-09
1.12994e-06
-7.93564e-09
-8.73409e-09
1.12619e-06
-7.1385e-09
-8.28685e-09
-6.52268e-09
-7.95954e-09
8.65415e-07
-8.71148e-09
-8.71121e-09
8.5472e-07
-6.84364e-09
-6.84313e-09
8.45251e-07
-5.60966e-09
-5.60866e-09
8.36858e-07
-4.7774e-09
-4.77546e-09
8.29352e-07
-4.18236e-09
-4.17793e-09
8.22538e-07
-3.73096e-09
-3.72232e-09
-3.38993e-09
-3.37448e-09
5.04681e-07
-4.71555e-09
4.90921e-07
-3.88673e-09
4.78687e-07
-3.32943e-09
4.67585e-07
-2.92263e-09
4.57373e-07
-2.60022e-09
4.47897e-07
-2.33586e-09
-2.1209e-09
1.8599e-07
3.88673e-09
1.79331e-07
3.32944e-09
1.73486e-07
2.92265e-09
1.68286e-07
2.60026e-09
1.63615e-07
2.33593e-09
1.59373e-07
2.12111e-09
1.94399e-09
4.90921e-07
1.0803e-08
4.78687e-07
9.95315e-09
4.67585e-07
9.2474e-09
4.57373e-07
8.62987e-09
4.47897e-07
8.08185e-09
4.39032e-07
7.59546e-09
7.17018e-09
7.98759e-07
1.26815e-08
7.86679e-07
1.18976e-08
7.75522e-07
1.10605e-08
7.65147e-07
1.02654e-08
7.55396e-07
9.53595e-09
7.4613e-07
8.88657e-09
8.32021e-09
1.02284e-06
7.56776e-09
1.01602e-06
7.39134e-09
1.00928e-06
7.1224e-09
1.00266e-06
6.70858e-09
9.96142e-07
6.25336e-09
9.89668e-07
5.82999e-09
5.45511e-09
1.13405e-06
1.52409e-13
1.1308e-06
5.90203e-13
1.12776e-06
1.42096e-12
1.12462e-06
2.8974e-12
1.12124e-06
5.61465e-12
1.11759e-06
1.05017e-11
1.89908e-11
1.13778e-06
-7.79473e-09
1.13405e-06
-7.56752e-09
1.13081e-06
-7.39014e-09
1.12777e-06
-7.11953e-09
1.12463e-06
-6.703e-09
1.12126e-06
-6.24318e-09
1.11762e-06
-5.81214e-09
1.02984e-06
-1.33831e-08
1.02285e-06
-1.26817e-08
1.01602e-06
-1.18973e-08
1.00929e-06
-1.10593e-08
1.00268e-06
-1.0263e-08
9.9618e-07
-9.53157e-09
-8.87914e-09
8.11759e-07
-1.19538e-08
7.98761e-07
-1.08032e-08
7.86683e-07
-9.9534e-09
7.75531e-07
-9.24796e-09
7.65165e-07
-8.63128e-09
7.55432e-07
-8.08454e-09
-7.59955e-09
5.0468e-07
-4.71542e-09
4.90921e-07
-3.88653e-09
4.78688e-07
-3.32911e-09
4.67587e-07
-2.92228e-09
4.57377e-07
-2.59989e-09
4.47906e-07
-2.33569e-09
-2.12115e-09
1.93763e-07
1.8599e-07
1.79331e-07
1.73487e-07
1.68286e-07
1.63615e-07
)
;

boundaryField
{
    inlet
    {
        type            calculated;
        value           nonuniform List<scalar> 0();
    }
    ami1
    {
        type            cyclicAMI;
        value           nonuniform List<scalar> 0();
    }
    walls
    {
        type            calculated;
        value           uniform 0;
    }
    ami2
    {
        type            cyclicAMI;
        value           nonuniform List<scalar> 0();
    }
    outlet
    {
        type            calculated;
        value           nonuniform List<scalar> 0();
    }
    procBoundary3to2
    {
        type            processor;
        value           nonuniform List<scalar> 
110
(
1.55482e-07
4.3071e-07
7.37349e-07
9.83316e-07
1.11369e-06
1.11363e-06
-5.45525e-09
9.89669e-07
7.46131e-07
4.39033e-07
1.59373e-07
4.30674e-07
8.10499e-07
1.12009e-06
1.35483e-06
1.47868e-06
1.47864e-06
-5.17147e-09
1.35454e-06
1.12287e-06
8.16275e-07
4.39053e-07
7.37244e-07
1.12e-06
1.41467e-06
1.63069e-06
1.74454e-06
1.74452e-06
-5.39772e-09
1.62611e-06
1.41361e-06
1.12292e-06
7.46192e-07
9.8319e-07
1.35473e-06
1.63065e-06
1.82799e-06
1.9313e-06
1.9313e-06
-5.96958e-09
1.81977e-06
1.62613e-06
1.35459e-06
9.89737e-07
1.11363e-06
1.47864e-06
1.74452e-06
1.93129e-06
2.02853e-06
2.02853e-06
-6.28904e-09
1.92088e-06
1.73777e-06
1.47624e-06
1.11762e-06
1.11369e-06
1.47868e-06
1.74454e-06
1.9313e-06
2.02853e-06
2.02853e-06
-6.29692e-09
1.92087e-06
1.73775e-06
1.47622e-06
1.11759e-06
9.83313e-07
1.35482e-06
1.63069e-06
1.82799e-06
1.93129e-06
1.9313e-06
-5.98412e-09
1.81977e-06
1.62611e-06
1.35454e-06
9.89667e-07
7.37345e-07
1.12009e-06
1.41467e-06
1.63065e-06
1.74452e-06
1.74454e-06
-5.39741e-09
1.62613e-06
1.41361e-06
1.12287e-06
7.4613e-07
4.30707e-07
8.10495e-07
1.12e-06
1.35473e-06
1.47864e-06
1.47867e-06
-5.14381e-09
1.35459e-06
1.12292e-06
8.16275e-07
4.39032e-07
1.55481e-07
4.30671e-07
7.3724e-07
9.83187e-07
1.11363e-06
1.11369e-06
-5.42389e-09
9.89738e-07
7.46193e-07
4.39054e-07
1.59373e-07
)
;
    }
    procBoundary3to4
    {
        type            processor;
        value           nonuniform List<scalar> 
109
(
-1.93763e-07
-5.04681e-07
-8.11759e-07
-1.02984e-06
-1.13778e-06
-1.13778e-06
-1.02984e-06
-8.11758e-07
-5.04681e-07
-1.93763e-07
-5.04681e-07
-8.65416e-07
-1.15046e-06
-1.35442e-06
-1.45803e-06
-1.45803e-06
-1.35442e-06
-1.15046e-06
-8.65415e-07
-5.04681e-07
-8.11758e-07
-1.15046e-06
-1.41092e-06
-1.59299e-06
-1.68574e-06
-1.68574e-06
-1.59299e-06
-1.41092e-06
-1.15046e-06
-8.11759e-07
-1.02984e-06
-1.35442e-06
-1.59299e-06
-1.75783e-06
-1.84239e-06
-1.84239e-06
-1.75783e-06
-1.59299e-06
-1.35442e-06
-1.02984e-06
-1.13778e-06
-1.45803e-06
-1.68574e-06
-1.84239e-06
-1.92282e-06
-1.92282e-06
-1.84239e-06
-1.68574e-06
-1.45803e-06
-1.13778e-06
-1.13778e-06
-1.45803e-06
-1.68574e-06
-1.84239e-06
-1.92282e-06
-1.92282e-06
9.0687e-09
-1.84239e-06
9.65322e-09
-1.68574e-06
1.01509e-08
-1.45803e-06
9.89784e-09
-1.13778e-06
7.79464e-09
-1.02984e-06
-1.35442e-06
-1.59299e-06
-1.75783e-06
-1.84239e-06
4.49417e-13
-1.82638e-06
-1.74438e-06
-1.5847e-06
-1.35375e-06
-1.03722e-06
-8.11759e-07
-1.15046e-06
-1.41092e-06
-1.59299e-06
-1.68574e-06
1.46378e-13
-1.67386e-06
-1.5847e-06
-1.4095e-06
-1.15653e-06
-8.25529e-07
-5.0468e-07
-8.65415e-07
-1.15046e-06
-1.35442e-06
-1.45803e-06
3.08751e-15
-1.45318e-06
-1.35375e-06
-1.15653e-06
-8.77395e-07
-5.2063e-07
-1.93763e-07
-5.04681e-07
-8.11758e-07
-1.02984e-06
-1.13778e-06
4.18268e-14
-1.14208e-06
-1.03722e-06
-8.25529e-07
-5.2063e-07
-2.03194e-07
)
;
    }
}


// ************************************************************************* //
