/*--------------------------------*- C++ -*----------------------------------*\
| =========                 |                                                 |
| \\      /  F ield         | OpenFOAM: The Open Source CFD Toolbox           |
|  \\    /   O peration     | Version:  2212                                  |
|   \\  /    A nd           | Website:  www.openfoam.com                      |
|    \\/     M anipulation  |                                                 |
\*---------------------------------------------------------------------------*/
FoamFile
{
    version     2.0;
    format      ascii;
    arch        "LSB;label=32;scalar=64";
    class       volScalarField;
    location    "0.45";
    object      epsilon;
}
// * * * * * * * * * * * * * * * * * * * * * * * * * * * * * * * * * * * * * //

dimensions      [0 2 -3 0 0 0 0];

internalField   nonuniform List<scalar> 
680
(
0.27657
0.254672
0.237862
0.224054
0.215989
0.21165
0.179936
0.158101
0.141534
0.128487
0.118014
0.110217
0.1531
0.13343
0.118019
0.105865
0.0962772
0.0894408
0.148368
0.128323
0.11255
0.100022
0.0900105
0.082542
0.147139
0.127017
0.111164
0.0985873
0.0886474
0.0819204
0.147232
0.12715
0.111356
0.098861
0.0890189
0.0822019
0.174216
0.148589
0.128644
0.113024
0.100744
0.0910907
0.0838562
0.178579
0.15335
0.133808
0.118594
0.10677
0.0977517
0.0914493
0.208666
0.180144
0.15842
0.142073
0.129569
0.120345
0.114619
0.304332
0.27657
0.254674
0.237865
0.224058
0.215996
0.211658
0.180143
0.158417
0.14207
0.129565
0.120341
0.114614
0.11265
0.0968448
0.0843498
0.07448
0.0683491
0.0644816
0.113067
0.0951696
0.0812286
0.0703099
0.0620009
0.0554692
0.11944
0.099959
0.0848432
0.0730188
0.0636955
0.056267
0.123886
0.103452
0.0875799
0.0751466
0.0653474
0.0576427
0.123919
0.103489
0.087622
0.075193
0.0653915
0.0576907
0.144855
0.119499
0.100032
0.0849284
0.0731104
0.0637438
0.0563752
0.136405
0.113113
0.0952241
0.0812894
0.0703692
0.062057
0.0565974
0.133346
0.11265
0.0968443
0.0843487
0.0744799
0.0683495
0.0644818
0.208563
0.179936
0.158101
0.141536
0.128489
0.118017
0.11022
0.153348
0.133805
0.118591
0.106767
0.0977481
0.0914446
0.113114
0.0952254
0.0812908
0.0703703
0.0620576
0.0566014
0.125346
0.104156
0.0877405
0.074933
0.0648986
0.0571116
0.139521
0.115362
0.096629
0.08198
0.0704501
0.0613487
0.147887
0.122118
0.102102
0.0864222
0.0740543
0.0642374
0.147912
0.122144
0.102131
0.0864538
0.0740878
0.0642924
0.171031
0.139552
0.1154
0.096674
0.0820314
0.0705049
0.0614318
0.153019
0.125343
0.104151
0.0877363
0.0749293
0.0648951
0.0571037
0.136368
0.113066
0.095167
0.0812258
0.0703076
0.0619992
0.055466
0.178405
0.153098
0.133429
0.11802
0.105866
0.0962789
0.0894428
0.148585
0.128641
0.113022
0.100741
0.0910885
0.0838539
0.119502
0.100034
0.0849295
0.0731112
0.0637444
0.0563769
0.139555
0.115403
0.0966773
0.0820345
0.0705086
0.0614422
0.159225
0.131225
0.109445
0.0923647
0.0788718
0.0681277
0.170312
0.140294
0.116883
0.0984762
0.0838902
0.0721635
0.170322
0.140302
0.11689
0.0984838
0.0838987
0.0721852
0.195566
0.15922
0.131219
0.10944
0.0923599
0.0788658
0.0681131
0.171001
0.139515
0.115355
0.0966227
0.0819744
0.0704444
0.0613367
0.14481
0.119437
0.0999552
0.0848393
0.0730154
0.0636928
0.0562634
0.17406
0.148367
0.128323
0.112551
0.100023
0.0900121
0.0825435
0.147233
0.127151
0.111357
0.0988617
0.0890193
0.082202
0.123915
0.103487
0.0876211
0.0751928
0.0653918
0.0576916
0.147905
0.122141
0.10213
0.086454
0.0740895
0.0642987
0.170316
0.1403
0.11689
0.0984849
0.0839024
0.0721979
0.182729
0.150526
0.125329
0.105461
0.0896612
0.0768678
0.182733
0.150527
0.125329
0.105459
0.089659
0.0768619
0.209141
0.170304
0.140287
0.116876
0.098471
0.0838853
0.0721565
0.18139
0.147878
0.122109
0.102094
0.0864157
0.0740486
0.0642293
0.150465
0.123883
0.103447
0.0875751
0.0751426
0.0653442
0.0576392
0.172891
0.147138
0.127017
0.111165
0.0985887
0.0886492
0.0819219
0.147139
0.127017
0.111165
0.098588
0.0886481
0.0819204
0.123885
0.103451
0.0875793
0.0751464
0.0653474
0.0576428
0.147885
0.122117
0.102101
0.0864218
0.0740543
0.0642374
0.170311
0.140294
0.116882
0.0984764
0.0838911
0.0721671
0.182729
0.150527
0.125329
0.105461
0.0896615
0.0768684
0.182733
0.150528
0.125329
0.10546
0.0896603
0.076867
0.209146
0.17031
0.140294
0.116884
0.0984799
0.0838971
0.0721885
0.181407
0.147899
0.122134
0.102123
0.0864479
0.0740837
0.0642901
0.150489
0.123912
0.103483
0.0876169
0.075189
0.0653885
0.0576879
0.172957
0.147232
0.127151
0.111357
0.0988626
0.0890208
0.0822039
0.148368
0.128324
0.112551
0.100023
0.0900111
0.0825421
0.11944
0.0999588
0.084843
0.0730187
0.0636954
0.0562661
0.139522
0.115362
0.0966288
0.0819797
0.0704489
0.0613419
0.159226
0.131225
0.109446
0.0923644
0.07887
0.0681182
0.170319
0.140302
0.116891
0.0984849
0.0839004
0.0721886
0.170317
0.140296
0.116883
0.0984758
0.0838896
0.0721635
0.195567
0.159221
0.13122
0.10944
0.0923601
0.0788672
0.0681195
0.17103
0.13955
0.115397
0.096671
0.0820287
0.0705032
0.0614335
0.144861
0.1195
0.10003
0.0849256
0.0731076
0.0637414
0.0563734
0.174212
0.148585
0.128641
0.113022
0.100743
0.0910907
0.0838569
0.1531
0.13343
0.11802
0.105866
0.0962779
0.0894415
0.113068
0.0951695
0.0812284
0.0703096
0.0620006
0.0554677
0.125347
0.104156
0.08774
0.0749322
0.0648974
0.0571059
0.139557
0.115404
0.096677
0.0820336
0.0705065
0.061433
0.147908
0.122143
0.10213
0.0864534
0.0740875
0.0642914
0.147892
0.12212
0.102102
0.0864207
0.0740523
0.0642324
0.171004
0.139518
0.115358
0.0966245
0.0819757
0.0704456
0.0613387
0.15302
0.125342
0.10415
0.0877351
0.074928
0.0648941
0.0571037
0.136405
0.113112
0.0952224
0.0812875
0.0703674
0.0620555
0.0565984
0.178577
0.153348
0.133806
0.118592
0.106769
0.0977517
0.09145
0.179937
0.158102
0.141535
0.128488
0.118016
0.110219
0.11265
0.0968449
0.0843497
0.0744799
0.0683489
0.0644817
0.113114
0.0952251
0.08129
0.0703694
0.062057
0.0565972
0.119502
0.100033
0.0849285
0.07311
0.0637432
0.0563742
0.123916
0.103487
0.0876202
0.0751914
0.0653902
0.0576889
0.12389
0.103452
0.0875785
0.0751448
0.0653457
0.0576401
0.144804
0.119436
0.0999558
0.0848403
0.0730163
0.0636934
0.0562639
0.136367
0.113066
0.0951669
0.0812258
0.0703075
0.0619992
0.0554662
0.133346
0.11265
0.0968438
0.0843483
0.0744796
0.0683495
0.0644822
0.208666
0.180144
0.158419
0.142073
0.129569
0.120347
0.114621
0.276571
0.254674
0.237865
0.224057
0.215994
0.211656
0.180144
0.158418
0.142071
0.129567
0.120343
0.114617
0.153349
0.133806
0.118592
0.106768
0.0977498
0.0914477
0.148586
0.128641
0.113022
0.100742
0.0910892
0.0838554
0.147233
0.127151
0.111357
0.0988616
0.0890195
0.0822026
0.147138
0.127016
0.111164
0.0985877
0.0886483
0.081921
0.174064
0.148371
0.128326
0.112553
0.100026
0.0900136
0.0825445
0.178407
0.153101
0.133432
0.118022
0.105869
0.0962812
0.0894447
0.208565
0.179938
0.158104
0.141538
0.128492
0.118019
0.110223
0.304333
0.276571
0.254675
0.237867
0.22406
0.215998
0.211661
0.35853
0.292151
0.246364
0.225876
0.15144
0.127233
0.112739
0.105631
0.112416
0.095377
0.0871641
0.128403
0.112209
0.103202
0.0991913
0.0707876
0.0612291
0.0547962
0.0511842
0.061898
0.0522052
0.0457247
0.0940669
0.0870735
0.0814992
0.0553624
0.0491316
0.044861
0.0516482
0.0459533
0.0413671
0.0940116
0.0805021
0.0738431
0.0524405
0.047453
0.0430828
0.0526419
0.0469407
0.0423349
)
;

boundaryField
{
    inlet
    {
        type            fixedValue;
        value           nonuniform List<scalar> 0();
    }
    ami1
    {
        type            cyclicAMI;
        value           nonuniform List<scalar> 
100
(
0.152721
0.106407
0.112249
0.102098
0.0893975
0.0844718
0.0826305
0.0863325
0.101114
0.152726
0.101107
0.0724538
0.0547785
0.0547758
0.0565654
0.0563657
0.054972
0.0585903
0.0724553
0.10641
0.0863271
0.0585982
0.0550464
0.057806
0.0602306
0.0603985
0.0579721
0.055029
0.054777
0.112251
0.0826282
0.0549769
0.0579933
0.0637165
0.0671035
0.0671703
0.0636921
0.0577845
0.0547717
0.102103
0.0844711
0.0563673
0.0604107
0.0671927
0.0712464
0.0712367
0.0670947
0.0602206
0.0565651
0.0894071
0.089406
0.0565691
0.0602309
0.0671107
0.0712477
0.0712463
0.0671796
0.0603994
0.0563633
0.0844728
0.102102
0.0547746
0.0577904
0.0636987
0.0671763
0.067106
0.0637056
0.0579805
0.0549747
0.0826316
0.11225
0.0547793
0.055032
0.0579739
0.0603981
0.0602239
0.0577888
0.0550323
0.0585929
0.0863335
0.106409
0.0724552
0.0585908
0.0549713
0.0563628
0.0565659
0.0547725
0.0547777
0.0724567
0.101116
0.152724
0.101112
0.0863312
0.0826301
0.0844715
0.0894066
0.102104
0.112253
0.106413
0.152728
)
;
    }
    walls
    {
        type            epsilonWallFunction;
        blending        stepwise;
        value           nonuniform List<scalar> 
283
(
0.304332
0.208563
0.178405
0.17406
0.172891
0.172957
0.174212
0.178577
0.208666
0.304333
0.27657
0.179936
0.153098
0.148367
0.147138
0.147232
0.148585
0.153348
0.180144
0.276571
0.254674
0.158101
0.133429
0.128323
0.127017
0.127151
0.128641
0.133806
0.158419
0.254675
0.237865
0.141536
0.11802
0.112551
0.111165
0.111357
0.113022
0.118592
0.142073
0.237867
0.224058
0.128489
0.105866
0.100023
0.0985887
0.0988626
0.100743
0.106769
0.129569
0.22406
0.215996
0.118017
0.0962789
0.0900121
0.0886492
0.0890208
0.0910907
0.0977517
0.120347
0.215998
0.211658
0.11022
0.0894428
0.0825435
0.0819219
0.0822039
0.0838569
0.09145
0.114621
0.211661
0.174216
0.178579
0.208666
0.304332
0.27657
0.179936
0.1531
0.148368
0.147139
0.147232
0.148589
0.15335
0.180144
0.27657
0.254672
0.158101
0.13343
0.128323
0.127017
0.12715
0.128644
0.133808
0.15842
0.254674
0.237862
0.141534
0.118019
0.11255
0.111164
0.111356
0.113024
0.118594
0.142073
0.237865
0.224054
0.128487
0.105865
0.100022
0.0985873
0.098861
0.100744
0.10677
0.129569
0.224058
0.215989
0.118014
0.0962772
0.0900105
0.0886474
0.0890189
0.0910907
0.0977517
0.120345
0.215996
0.21165
0.110217
0.0894408
0.082542
0.0819204
0.0822019
0.0838562
0.0914493
0.114619
0.211658
0.27657
0.180143
0.153348
0.148585
0.147233
0.147139
0.148368
0.1531
0.179937
0.276571
0.254672
0.158417
0.133805
0.128641
0.127151
0.127017
0.128324
0.13343
0.158102
0.254674
0.237862
0.14207
0.118591
0.113022
0.111357
0.111165
0.112551
0.11802
0.141535
0.237865
0.224054
0.129565
0.106767
0.100741
0.0988617
0.098588
0.100023
0.105866
0.128488
0.224057
0.215989
0.120341
0.0977481
0.0910885
0.0890193
0.0886481
0.0900111
0.0962779
0.118016
0.215994
0.21165
0.114614
0.0914446
0.0838539
0.082202
0.0819204
0.0825421
0.0894415
0.110219
0.211656
0.174064
0.178407
0.208565
0.304333
0.276571
0.180144
0.153349
0.148586
0.147233
0.147138
0.148371
0.153101
0.179938
0.276571
0.254674
0.158418
0.133806
0.128641
0.127151
0.127016
0.128326
0.133432
0.158104
0.254675
0.237865
0.142071
0.118592
0.113022
0.111357
0.111164
0.112553
0.118022
0.141538
0.237867
0.224057
0.129567
0.106768
0.100742
0.0988616
0.0985877
0.100026
0.105869
0.128492
0.22406
0.215994
0.120343
0.0977498
0.0910892
0.0890195
0.0886483
0.0900136
0.0962812
0.118019
0.215998
0.211656
0.114617
0.0914477
0.0838554
0.0822026
0.081921
0.0825445
0.0894447
0.110223
0.211661
0.35853
0.15144
0.112416
0.292151
0.127233
0.095377
0.246364
0.112739
0.0871641
0.225876
0.105631
0.35853
0.128403
0.0940669
0.0940116
0.292151
0.112209
0.0870735
0.0805021
0.246364
0.103202
0.0814992
0.0738431
0.225876
0.0991913
)
;
    }
    ami2
    {
        type            cyclicAMI;
        value           nonuniform List<scalar> 
12
(
0.222436
0.116872
0.0972086
0.112308
0.0773285
0.0672993
0.105834
0.0586649
0.0541049
0.103938
0.0551576
0.05615
)
;
    }
    outlet
    {
        type            zeroGradient;
    }
    procBoundary2to0
    {
        type            processor;
        value           nonuniform List<scalar> 
28
(
0.216679
0.101698
0.0815182
0.0913151
0.0824899
0.0815182
0.0762474
0.0970237
0.0775679
0.0492881
0.0420817
0.0418206
0.0575937
0.0498127
0.0420817
0.0437257
0.0775679
0.0418206
0.0534068
0.0475227
0.0378825
0.0426505
0.0697214
0.0399706
0.0562337
0.0499952
0.038685
0.0448905
)
;
    }
    procBoundary2to1
    {
        type            processor;
        value           nonuniform List<scalar> 9(0.0866639 0.0774006 0.0710994 0.0523154 0.0472855 0.0428542 0.0540668 0.04832 0.0436112);
    }
    procBoundary2to3
    {
        type            processor;
        value           nonuniform List<scalar> 
110
(
0.304332
0.208564
0.178406
0.174061
0.172891
0.172957
0.172957
0.207413
0.211466
0.24536
0.338415
0.208666
0.133344
0.136365
0.144806
0.150462
0.150491
0.150491
0.178306
0.167039
0.160696
0.245291
0.178577
0.136402
0.153013
0.170995
0.181385
0.181407
0.181407
0.212546
0.189618
0.167009
0.211346
0.174213
0.144857
0.171023
0.195557
0.209133
0.209144
0.209144
0.243248
0.212523
0.178265
0.207304
0.172957
0.150485
0.1814
0.209137
0.224216
0.224222
0.224222
0.259889
0.225469
0.185474
0.20616
0.172891
0.150461
0.181383
0.209132
0.224216
0.224222
0.224222
0.259893
0.225483
0.185493
0.206208
0.174061
0.144806
0.170995
0.195558
0.209139
0.20914
0.20914
0.243248
0.212546
0.178307
0.207412
0.178406
0.136365
0.153014
0.171024
0.181402
0.181391
0.181391
0.212523
0.189618
0.167039
0.211466
0.208565
0.133345
0.136402
0.144857
0.150486
0.150467
0.150467
0.178264
0.167009
0.160696
0.245361
0.304333
0.208666
0.178578
0.174213
0.172958
0.172891
0.172891
0.207305
0.211347
0.245292
0.338416
)
;
    }
}


// ************************************************************************* //
