/*--------------------------------*- C++ -*----------------------------------*\
| =========                 |                                                 |
| \\      /  F ield         | OpenFOAM: The Open Source CFD Toolbox           |
|  \\    /   O peration     | Version:  2212                                  |
|   \\  /    A nd           | Website:  www.openfoam.com                      |
|    \\/     M anipulation  |                                                 |
\*---------------------------------------------------------------------------*/
FoamFile
{
    version     2.0;
    format      ascii;
    arch        "LSB;label=32;scalar=64";
    class       volScalarField;
    location    "1.7";
    object      epsilon;
}
// * * * * * * * * * * * * * * * * * * * * * * * * * * * * * * * * * * * * * //

dimensions      [0 2 -3 0 0 0 0];

internalField   nonuniform List<scalar> 
6840
(
90.5034
12.1248
4.38869
2.46658
1.63315
1.18306
0.902004
0.72065
0.594565
0.502469
0.432622
0.379196
0.336165
0.299616
0.269776
0.245463
0.225392
0.208606
0.195122
0.180165
58.5856
14.5696
6.08946
3.33295
2.08217
1.40266
0.998645
0.740277
0.565891
0.443908
0.355996
0.29089
0.241353
0.202921
0.172988
0.149642
0.131058
0.116021
0.103997
0.0949328
45.0226
13.4729
5.73075
3.07322
1.86023
1.22699
0.873573
0.649776
0.497009
0.389478
0.311286
0.252971
0.208971
0.1752
0.148799
0.127848
0.111056
0.0974578
0.08641
0.0778926
38.7028
13.0541
5.74336
3.08733
1.88066
1.2275
0.869481
0.645389
0.492598
0.384789
0.307037
0.249061
0.205
0.171019
0.144444
0.12339
0.106511
0.0928307
0.081699
0.0733674
36.0571
12.8529
5.76645
3.10212
1.89476
1.2267
0.866514
0.644001
0.492274
0.383996
0.305843
0.247981
0.204005
0.170065
0.1435
0.122433
0.10553
0.0918253
0.0806857
0.0723191
36.0571
12.8529
5.76645
3.10212
1.89476
1.2267
0.866515
0.644002
0.492276
0.383999
0.305845
0.247985
0.204009
0.170069
0.143505
0.122441
0.10554
0.0918365
0.0806711
0.072003
38.7028
13.0541
5.74336
3.08733
1.88067
1.22751
0.869483
0.645392
0.492603
0.384794
0.307044
0.249069
0.20501
0.171031
0.14446
0.123413
0.106542
0.0928708
0.0817246
0.0729591
45.0226
13.4729
5.73075
3.07323
1.86023
1.22699
0.873575
0.649779
0.497013
0.389483
0.311293
0.25298
0.208982
0.175214
0.14882
0.127878
0.1111
0.0975231
0.0864751
0.0775454
58.5856
14.5696
6.08946
3.33295
2.08217
1.40266
0.998645
0.740277
0.565891
0.443909
0.355998
0.290893
0.241358
0.202926
0.172998
0.149664
0.131097
0.116096
0.104144
0.0951285
90.5034
12.1248
4.38869
2.46658
1.63315
1.18306
0.902004
0.72065
0.594564
0.502468
0.432623
0.379193
0.336166
0.299612
0.269775
0.245463
0.225392
0.208604
0.195117
0.180153
58.5856
14.5696
6.08946
3.33295
2.08217
1.40266
0.998646
0.740277
0.565892
0.44391
0.355999
0.290894
0.241358
0.20293
0.172999
0.149664
0.131097
0.116097
0.104146
0.0951319
16.5373
9.49238
5.0127
2.8606
1.75746
1.14759
0.786927
0.562044
0.41536
0.315937
0.246319
0.196203
0.159193
0.131212
0.109725
0.0931167
0.0800351
0.0695543
0.0603109
0.0549371
13.6679
8.73671
5.07741
3.05388
1.92223
1.26609
0.869289
0.618631
0.453959
0.342034
0.26365
0.207311
0.165901
0.134846
0.111145
0.092683
0.0781567
0.0666216
0.0571491
0.0497571
12.9054
8.33993
5.07879
3.15547
2.02775
1.35121
0.933541
0.666464
0.489552
0.368603
0.283614
0.222399
0.177342
0.143544
0.117765
0.0977869
0.0820983
0.069628
0.0595916
0.051388
12.6882
8.1544
5.07113
3.20039
2.0794
1.39506
0.967837
0.692729
0.509646
0.384027
0.295517
0.231664
0.184612
0.149284
0.122313
0.101415
0.0849998
0.0719481
0.0614568
0.0529569
12.6882
8.1544
5.07113
3.20039
2.0794
1.39506
0.967835
0.692726
0.509644
0.384024
0.295513
0.231659
0.184606
0.149274
0.122297
0.101399
0.0849819
0.0719269
0.0614319
0.0529215
12.9054
8.33993
5.07879
3.15547
2.02775
1.3512
0.933538
0.666459
0.489548
0.368598
0.283607
0.22239
0.177328
0.14352
0.117735
0.0977553
0.0820614
0.0695838
0.0595351
0.0512274
13.6679
8.73671
5.0774
3.05388
1.92223
1.26609
0.869287
0.618628
0.453956
0.34203
0.263645
0.207305
0.165892
0.134831
0.11112
0.0926576
0.078128
0.0665896
0.0570959
0.049761
16.5373
9.49238
5.0127
2.8606
1.75746
1.14759
0.786927
0.562044
0.41536
0.315937
0.246319
0.196203
0.159193
0.131216
0.109721
0.093116
0.0800359
0.0695556
0.0603134
0.0549435
58.5856
14.5696
6.08946
3.33295
2.08217
1.40266
0.998645
0.740276
0.56589
0.443908
0.355995
0.29089
0.241351
0.202918
0.172986
0.149643
0.131059
0.116023
0.103998
0.0949298
45.0226
13.4729
5.73075
3.07323
1.86023
1.22699
0.873575
0.649779
0.497013
0.389484
0.311293
0.25298
0.208983
0.175215
0.14882
0.127879
0.111101
0.0975248
0.0864759
0.0775436
13.6679
8.73671
5.0774
3.05388
1.92223
1.26609
0.869287
0.618628
0.453956
0.34203
0.263645
0.207304
0.165892
0.134832
0.111118
0.0926563
0.0781259
0.0665859
0.0570972
0.0497584
11.8601
7.76395
4.99734
3.24076
2.14419
1.45499
1.0141
0.725633
0.532153
0.399146
0.305541
0.238216
0.188818
0.151907
0.123866
0.102227
0.0853069
0.0719136
0.0611639
0.0525595
11.6229
7.60535
5.0103
3.34209
2.26848
1.57142
1.11236
0.804589
0.594205
0.447519
0.343212
0.267636
0.211902
0.170124
0.13833
0.113789
0.0946039
0.079429
0.0672916
0.0574975
11.5726
7.56718
5.02065
3.38345
2.32103
1.62326
1.15829
0.843158
0.625693
0.472852
0.363488
0.283858
0.224911
0.180595
0.146797
0.120673
0.100232
0.0840527
0.0711094
0.0606322
11.5726
7.56718
5.02065
3.38344
2.32103
1.62326
1.15828
0.843155
0.625691
0.47285
0.363485
0.283854
0.224906
0.180587
0.146785
0.120662
0.100219
0.084038
0.0710954
0.0606409
11.6229
7.60535
5.0103
3.34209
2.26848
1.57142
1.11236
0.804586
0.594202
0.447514
0.343207
0.267629
0.211893
0.17011
0.138312
0.11377
0.0945824
0.0794047
0.0672673
0.0575065
11.8601
7.76395
4.99734
3.24076
2.14419
1.45499
1.0141
0.725633
0.532153
0.399146
0.305542
0.238217
0.18882
0.151908
0.123864
0.102227
0.085308
0.0719154
0.0611668
0.052566
13.6679
8.73671
5.07741
3.05388
1.92223
1.26609
0.869289
0.618631
0.453959
0.342034
0.26365
0.207311
0.165902
0.134851
0.11114
0.0926809
0.0781559
0.0666214
0.0571491
0.0497606
45.0226
13.4729
5.73075
3.07322
1.86023
1.22699
0.873573
0.649775
0.497009
0.389477
0.311285
0.252971
0.208971
0.175199
0.148798
0.127847
0.111056
0.0974574
0.086408
0.0778842
38.7028
13.0541
5.74336
3.08733
1.88067
1.22751
0.869483
0.645392
0.492603
0.384794
0.307044
0.24907
0.205011
0.171031
0.144459
0.123413
0.106543
0.0928723
0.081726
0.0729521
12.9054
8.33993
5.07879
3.15547
2.02775
1.3512
0.933539
0.666459
0.489548
0.368598
0.283607
0.22239
0.177329
0.143525
0.117731
0.0977531
0.0820598
0.069582
0.0595336
0.0512251
11.6229
7.60535
5.0103
3.34209
2.26848
1.57142
1.11236
0.804586
0.594202
0.447514
0.343207
0.267629
0.211893
0.170111
0.138311
0.113769
0.0945812
0.0794031
0.0672652
0.0575039
11.4933
7.5119
5.02843
3.434
2.3892
1.6928
1.22111
0.896486
0.669455
0.50812
0.391654
0.306283
0.242781
0.194884
0.158277
0.129949
0.107772
0.0902203
0.0761807
0.0647747
11.4757
7.50136
5.04297
3.47002
2.43665
1.74299
1.26863
0.938712
0.705583
0.538335
0.416593
0.326727
0.259498
0.208556
0.169484
0.139166
0.115386
0.0965394
0.0814431
0.0691292
11.4757
7.50136
5.04297
3.47002
2.43665
1.74299
1.26863
0.938711
0.705582
0.538334
0.416592
0.326726
0.259496
0.208554
0.169481
0.139163
0.115382
0.0965354
0.0814382
0.0691235
11.4933
7.5119
5.02843
3.434
2.3892
1.6928
1.22111
0.896486
0.669455
0.508121
0.391654
0.306283
0.242782
0.194885
0.158276
0.129948
0.107772
0.090221
0.0761817
0.0647762
11.6229
7.60535
5.0103
3.34209
2.26848
1.57142
1.11236
0.804589
0.594205
0.447519
0.343213
0.267636
0.211903
0.170125
0.138328
0.113788
0.0946041
0.0794296
0.0672927
0.0574993
12.9054
8.33993
5.07879
3.15547
2.02775
1.35121
0.933541
0.666464
0.489552
0.368603
0.283614
0.222399
0.177342
0.143547
0.117762
0.0977853
0.0820974
0.0696273
0.0595909
0.0513865
38.7028
13.0541
5.74336
3.08733
1.88066
1.2275
0.86948
0.645389
0.492598
0.384789
0.307037
0.249061
0.205
0.171019
0.144442
0.123389
0.10651
0.0928298
0.0816976
0.073363
36.0571
12.8529
5.76645
3.10212
1.89476
1.2267
0.866515
0.644002
0.492276
0.383999
0.305845
0.247985
0.204009
0.17007
0.143505
0.122442
0.105541
0.0918377
0.080673
0.0720041
12.6882
8.1544
5.07113
3.20039
2.0794
1.39506
0.967836
0.692726
0.509644
0.384024
0.295514
0.231659
0.184606
0.149276
0.122297
0.101399
0.084982
0.0719271
0.0614322
0.0529214
11.5726
7.56718
5.02065
3.38344
2.32103
1.62326
1.15828
0.843155
0.625691
0.47285
0.363485
0.283854
0.224906
0.180588
0.146785
0.120661
0.100219
0.0840378
0.0710951
0.0606414
11.4757
7.50136
5.04297
3.47002
2.43665
1.74299
1.26863
0.938711
0.705582
0.538334
0.416591
0.326726
0.259496
0.208554
0.16948
0.139163
0.115382
0.0965352
0.0814382
0.0691249
11.4647
7.49683
5.0577
3.50272
2.48038
1.79068
1.31522
0.981304
0.742923
0.570208
0.443348
0.348965
0.277885
0.223733
0.182016
0.149538
0.123999
0.103719
0.0874401
0.0740666
11.4647
7.49683
5.0577
3.50272
2.48038
1.79068
1.31522
0.981304
0.742923
0.570208
0.443348
0.348965
0.277885
0.223733
0.182016
0.149538
0.123999
0.10372
0.0874402
0.0740658
11.4757
7.50136
5.04297
3.47002
2.43665
1.74299
1.26863
0.938712
0.705583
0.538335
0.416593
0.326727
0.259498
0.208557
0.169483
0.139166
0.115386
0.0965392
0.0814431
0.0691298
11.5726
7.56718
5.02065
3.38345
2.32103
1.62326
1.15829
0.843158
0.625693
0.472852
0.363488
0.283858
0.224911
0.180595
0.146797
0.120673
0.100232
0.0840522
0.0711088
0.0606318
12.6882
8.1544
5.07113
3.20039
2.0794
1.39506
0.967837
0.692729
0.509646
0.384027
0.295516
0.231663
0.184611
0.149283
0.122315
0.101416
0.085
0.0719479
0.0614565
0.0529564
36.0571
12.8529
5.76645
3.10212
1.89476
1.2267
0.866513
0.644001
0.492274
0.383996
0.305842
0.247981
0.204005
0.170065
0.143499
0.122432
0.105529
0.0918242
0.0806843
0.0723172
36.0571
12.8529
5.76645
3.10212
1.89476
1.2267
0.866514
0.644001
0.492274
0.383996
0.305842
0.247981
0.204004
0.170065
0.143499
0.122433
0.10553
0.0918253
0.080686
0.0723191
12.6882
8.1544
5.07113
3.20039
2.0794
1.39506
0.967837
0.692729
0.509646
0.384027
0.295517
0.231664
0.184612
0.149285
0.122313
0.101416
0.0850011
0.07195
0.0614593
0.0529598
11.5726
7.56718
5.02065
3.38345
2.32103
1.62326
1.15829
0.843158
0.625693
0.472853
0.363488
0.283858
0.224912
0.180596
0.146796
0.120674
0.100233
0.084054
0.0711111
0.0606349
11.4757
7.50136
5.04297
3.47002
2.43665
1.74299
1.26863
0.938712
0.705583
0.538335
0.416593
0.326727
0.259498
0.208556
0.169484
0.139166
0.115386
0.0965398
0.0814437
0.0691314
11.4647
7.49683
5.0577
3.50272
2.48038
1.79068
1.31522
0.981304
0.742923
0.570208
0.443348
0.348965
0.277885
0.223732
0.182016
0.149538
0.123999
0.103719
0.0874403
0.0740666
11.4647
7.49683
5.0577
3.50272
2.48038
1.79068
1.31522
0.981304
0.742923
0.570208
0.443348
0.348965
0.277885
0.223733
0.182016
0.149538
0.123999
0.103719
0.0874401
0.0740656
11.4757
7.50136
5.04297
3.47002
2.43665
1.74299
1.26863
0.938711
0.705582
0.538334
0.416591
0.326726
0.259496
0.208554
0.16948
0.139162
0.115382
0.0965346
0.0814375
0.0691236
11.5726
7.56718
5.02065
3.38344
2.32103
1.62326
1.15828
0.843155
0.625691
0.472849
0.363484
0.283853
0.224904
0.180586
0.146787
0.120662
0.100218
0.0840366
0.0710936
0.0606397
12.6882
8.1544
5.07113
3.20039
2.07939
1.39506
0.967835
0.692726
0.509644
0.384024
0.295513
0.231659
0.184604
0.149271
0.122303
0.101402
0.084983
0.0719274
0.0614321
0.0529214
36.0571
12.8529
5.76645
3.10212
1.89476
1.2267
0.866515
0.644002
0.492276
0.383998
0.305845
0.247984
0.204009
0.17007
0.143505
0.122441
0.10554
0.091836
0.0806705
0.0720013
38.7028
13.0541
5.74336
3.08733
1.88066
1.2275
0.86948
0.645389
0.492598
0.384789
0.307037
0.249061
0.205
0.171018
0.144443
0.12339
0.10651
0.0928296
0.0816978
0.0733661
12.9054
8.33993
5.07879
3.15547
2.02775
1.35121
0.933541
0.666464
0.489552
0.368603
0.283614
0.2224
0.177342
0.143545
0.117765
0.0977877
0.0820997
0.0696299
0.0595938
0.0513904
11.6229
7.60535
5.0103
3.34209
2.26848
1.57142
1.11236
0.804589
0.594205
0.447519
0.343213
0.267636
0.211902
0.170124
0.13833
0.113789
0.0946051
0.0794306
0.0672936
0.0575011
11.4933
7.5119
5.02843
3.434
2.3892
1.6928
1.22111
0.896486
0.669455
0.508121
0.391654
0.306283
0.242781
0.194884
0.158278
0.129949
0.107772
0.0902206
0.0761812
0.0647755
11.4757
7.50136
5.04297
3.47002
2.43665
1.74299
1.26863
0.938711
0.705582
0.538334
0.416591
0.326726
0.259496
0.208554
0.169481
0.139163
0.115382
0.0965346
0.0814374
0.0691227
11.4757
7.50136
5.04297
3.47002
2.43665
1.74299
1.26863
0.938712
0.705583
0.538335
0.416592
0.326727
0.259498
0.208556
0.169484
0.139166
0.115386
0.096539
0.0814427
0.0691294
11.4933
7.5119
5.02843
3.434
2.3892
1.6928
1.22111
0.896485
0.669454
0.50812
0.391654
0.306283
0.242782
0.194885
0.158276
0.129948
0.107771
0.0902203
0.076181
0.0647755
11.6229
7.60535
5.0103
3.34209
2.26848
1.57142
1.11236
0.804586
0.594202
0.447514
0.343207
0.267628
0.211892
0.17011
0.138312
0.113769
0.0945813
0.0794033
0.0672656
0.0575047
12.9054
8.33993
5.07879
3.15547
2.02775
1.3512
0.933537
0.66646
0.489548
0.368598
0.283607
0.22239
0.177328
0.14352
0.117736
0.0977558
0.0820617
0.069584
0.0595352
0.0512275
38.7028
13.0541
5.74336
3.08733
1.88067
1.22751
0.869483
0.645392
0.492602
0.384794
0.307043
0.249069
0.20501
0.17103
0.14446
0.123413
0.106542
0.0928707
0.0817239
0.0729494
45.0226
13.4729
5.73075
3.07322
1.86023
1.22699
0.873573
0.649775
0.497009
0.389477
0.311285
0.252971
0.208971
0.175199
0.148798
0.127847
0.111054
0.0974556
0.0864077
0.0778874
13.6679
8.73671
5.07741
3.05388
1.92223
1.26609
0.869289
0.618631
0.453959
0.342034
0.26365
0.207311
0.165901
0.134846
0.111145
0.0926836
0.0781576
0.0666235
0.0571453
0.0497607
11.8601
7.76395
4.99734
3.24076
2.14419
1.45499
1.0141
0.725633
0.532153
0.399146
0.305541
0.238216
0.188818
0.151907
0.123866
0.102228
0.0853074
0.071914
0.0611645
0.0525635
11.6229
7.60535
5.0103
3.34209
2.26848
1.57142
1.11236
0.804586
0.594202
0.447514
0.343207
0.267628
0.211892
0.17011
0.138311
0.113769
0.0945808
0.0794023
0.0672644
0.0575017
11.5726
7.56718
5.02065
3.38344
2.32103
1.62326
1.15828
0.843155
0.625691
0.472849
0.363484
0.283853
0.224905
0.180587
0.146785
0.120661
0.100217
0.0840361
0.071093
0.060638
11.5726
7.56718
5.02065
3.38345
2.32103
1.62326
1.15829
0.843158
0.625693
0.472852
0.363488
0.283858
0.224911
0.180596
0.146796
0.120673
0.100232
0.0840525
0.0711094
0.060633
11.6229
7.60535
5.0103
3.34209
2.26848
1.57142
1.11236
0.804589
0.594205
0.447519
0.343213
0.267636
0.211903
0.170125
0.138328
0.113788
0.0946043
0.07943
0.0672931
0.0574993
11.8601
7.76395
4.99734
3.24076
2.14419
1.45499
1.0141
0.725632
0.532153
0.399146
0.305541
0.238217
0.188819
0.151908
0.123864
0.102227
0.0853073
0.0719146
0.0611646
0.0525605
13.6679
8.73671
5.0774
3.05388
1.92223
1.26609
0.869287
0.618628
0.453956
0.34203
0.263645
0.207305
0.165892
0.134831
0.11112
0.0926575
0.0781277
0.066589
0.057095
0.0497612
45.0226
13.4729
5.73075
3.07322
1.86023
1.22699
0.873575
0.649779
0.497013
0.389483
0.311292
0.252979
0.208982
0.175214
0.14882
0.127878
0.1111
0.0975232
0.086475
0.0775409
58.5856
14.5696
6.08946
3.33295
2.08217
1.40266
0.998645
0.740276
0.56589
0.443908
0.355996
0.290889
0.241352
0.20292
0.172987
0.149641
0.131055
0.116017
0.10399
0.0949226
16.5373
9.49238
5.0127
2.8606
1.75746
1.14759
0.786927
0.562044
0.41536
0.315937
0.246318
0.196203
0.159192
0.131211
0.109724
0.0931158
0.0800339
0.0695525
0.0603089
0.0549388
13.6679
8.73671
5.0774
3.05388
1.92223
1.26609
0.869287
0.618628
0.453956
0.34203
0.263645
0.207304
0.165891
0.134831
0.111118
0.0926555
0.0781248
0.0665846
0.0570958
0.049756
12.9054
8.33993
5.07879
3.15547
2.02775
1.3512
0.933538
0.666458
0.489547
0.368598
0.283607
0.222389
0.177329
0.143525
0.117731
0.0977525
0.0820591
0.0695813
0.0595328
0.0512241
12.6882
8.1544
5.07113
3.20039
2.07939
1.39506
0.967835
0.692726
0.509644
0.384024
0.295513
0.231659
0.184606
0.149276
0.122296
0.101399
0.0849817
0.071927
0.061432
0.0529211
12.6882
8.1544
5.07113
3.20039
2.0794
1.39506
0.967837
0.692729
0.509646
0.384027
0.295517
0.231664
0.184612
0.149286
0.122313
0.101415
0.085001
0.0719499
0.0614593
0.0529595
12.9054
8.33993
5.07879
3.15547
2.02775
1.35121
0.933542
0.666463
0.489552
0.368603
0.283614
0.222399
0.177343
0.143547
0.117762
0.0977863
0.082099
0.0696294
0.0595933
0.0513893
13.6679
8.73671
5.07741
3.05388
1.92223
1.26609
0.869289
0.61863
0.453959
0.342034
0.26365
0.207311
0.165902
0.134851
0.11114
0.0926812
0.0781564
0.0666227
0.0571446
0.04976
16.5373
9.49238
5.0127
2.8606
1.75746
1.14759
0.786927
0.562044
0.415359
0.315937
0.246318
0.196203
0.159193
0.131215
0.10972
0.0931152
0.0800348
0.0695541
0.0603116
0.0549441
58.5856
14.5696
6.08946
3.33295
2.08217
1.40266
0.998645
0.740277
0.565891
0.443909
0.355998
0.290893
0.241358
0.202925
0.172998
0.149664
0.131097
0.116096
0.104143
0.0951237
90.5034
12.1248
4.38869
2.46658
1.63315
1.18306
0.902004
0.72065
0.594564
0.502469
0.432621
0.379195
0.336163
0.299614
0.269774
0.245459
0.225387
0.208598
0.195109
0.180144
58.5856
14.5696
6.08946
3.33295
2.08217
1.40266
0.998645
0.740277
0.565891
0.443909
0.355998
0.290893
0.241358
0.202929
0.172997
0.149662
0.131095
0.116094
0.104142
0.0951246
45.0226
13.4729
5.73075
3.07322
1.86023
1.22699
0.873575
0.649779
0.497013
0.389483
0.311293
0.25298
0.208983
0.175215
0.148819
0.127878
0.1111
0.0975237
0.0864747
0.0775434
38.7028
13.0541
5.74336
3.08733
1.88067
1.22751
0.869483
0.645392
0.492602
0.384794
0.307044
0.249069
0.20501
0.171031
0.144459
0.123413
0.106542
0.092872
0.0817261
0.072955
36.0571
12.8529
5.76645
3.10212
1.89476
1.2267
0.866515
0.644002
0.492276
0.383998
0.305845
0.247985
0.204009
0.17007
0.143505
0.122442
0.105541
0.0918379
0.0806741
0.072014
36.0571
12.8529
5.76645
3.10212
1.89476
1.2267
0.866514
0.644001
0.492274
0.383996
0.305842
0.247981
0.204004
0.170065
0.1435
0.122434
0.10553
0.0918255
0.0806862
0.0723197
38.7028
13.0541
5.74336
3.08733
1.88066
1.2275
0.86948
0.645388
0.492598
0.384789
0.307037
0.249061
0.205
0.171019
0.144442
0.123389
0.10651
0.0928297
0.0816979
0.0733657
45.0226
13.4729
5.73075
3.07322
1.86023
1.22699
0.873573
0.649775
0.497009
0.389477
0.311285
0.252971
0.208971
0.175199
0.148797
0.127847
0.111055
0.0974562
0.0864084
0.0778886
58.5856
14.5696
6.08946
3.33295
2.08217
1.40266
0.998645
0.740276
0.56589
0.443908
0.355995
0.290889
0.241351
0.202918
0.172986
0.149642
0.131057
0.11602
0.103993
0.0949253
90.5034
12.1248
4.38869
2.46658
1.63315
1.18306
0.902004
0.720649
0.594564
0.502468
0.432623
0.379193
0.336166
0.299611
0.269774
0.245462
0.225391
0.208602
0.195113
0.180147
0.234493
0.21373
0.196529
0.183126
0.172467
0.164402
0.15718
0.150848
0.145107
0.140035
0.135648
0.131764
0.128047
0.124417
0.121032
0.117819
0.114813
0.111961
0.109283
0.106762
0.104312
0.101981
0.0997872
0.0977147
0.0957379
0.0938195
0.0919534
0.0901048
0.0882922
0.0864955
0.0848006
0.0831356
0.0814759
0.0798181
0.0781271
0.0766895
0.0752849
0.073861
0.0726444
0.0706874
0.110001
0.0972313
0.0880115
0.0805798
0.0745311
0.0698591
0.065834
0.0624193
0.0593136
0.0565639
0.0542129
0.0521562
0.0502857
0.0485588
0.046913
0.0453545
0.0439521
0.0426429
0.0414474
0.0403279
0.0392579
0.0382568
0.0373194
0.0364565
0.0356503
0.0348846
0.0341456
0.0334264
0.0327254
0.0320306
0.0313576
0.0307064
0.0300814
0.0294675
0.0288597
0.02828
0.0277294
0.027195
0.0266929
0.0261181
0.0852178
0.0753699
0.0677576
0.0614765
0.0565586
0.0523709
0.0488597
0.045866
0.0433096
0.0410719
0.0390822
0.0373042
0.0357386
0.034384
0.0330139
0.0317758
0.0306658
0.0296674
0.0287223
0.0278337
0.0270053
0.0261779
0.0254048
0.0247105
0.0240817
0.0234974
0.0229319
0.0223846
0.0218617
0.0213539
0.0208631
0.0203874
0.019934
0.0194985
0.0190775
0.0186828
0.0182932
0.0179132
0.0175541
0.0171838
0.0762216
0.0675264
0.0605688
0.0548807
0.0500973
0.0461073
0.0427014
0.0397792
0.0372481
0.0350283
0.0330678
0.0313262
0.0297654
0.0283793
0.0271251
0.0259901
0.0249434
0.0240335
0.0230899
0.0222184
0.0214491
0.0207326
0.020056
0.019423
0.018839
0.0182985
0.017794
0.017316
0.016868
0.016437
0.0160135
0.0156065
0.0152222
0.0148621
0.0145181
0.0141859
0.013869
0.0135647
0.0132752
0.0129897
0.0719601
0.0638021
0.0571354
0.0516198
0.0470086
0.0431261
0.0398165
0.0369636
0.0344699
0.032276
0.0303329
0.0286008
0.0270493
0.0256623
0.0244208
0.0233
0.0222779
0.021342
0.0204894
0.0196974
0.0190168
0.0183029
0.0176406
0.0170392
0.0164939
0.0159865
0.0155186
0.0150783
0.0146696
0.0142807
0.0139018
0.0135391
0.0131929
0.0128648
0.0125463
0.0122413
0.0119583
0.0116901
0.0114325
0.0111891
0.0691542
0.0615373
0.0552476
0.0499919
0.0455521
0.0417757
0.0385371
0.0357322
0.0332665
0.0310816
0.0291378
0.027404
0.0258571
0.0244616
0.0232071
0.0220773
0.0210642
0.0201525
0.0193249
0.0185705
0.0178854
0.0172543
0.016693
0.0161469
0.0155915
0.0150759
0.0146122
0.0141896
0.013808
0.0134392
0.0130984
0.0127683
0.0124205
0.0120939
0.0117756
0.011491
0.0112248
0.0109722
0.0107249
0.0104896
0.0674122
0.0603834
0.054478
0.0494811
0.0452165
0.0415626
0.0384053
0.0356432
0.0331953
0.0310227
0.0290921
0.027373
0.0258367
0.0244611
0.0232283
0.0221203
0.0211232
0.020225
0.0194194
0.0186884
0.0180264
0.0174144
0.0168428
0.016313
0.0157616
0.015265
0.0148181
0.0144032
0.0140218
0.0136418
0.0132857
0.0129424
0.0125815
0.0122651
0.0119567
0.0116745
0.0113921
0.0111201
0.0108519
0.0105929
0.0688403
0.0621155
0.0563541
0.0514121
0.0471603
0.0435013
0.0402937
0.0374665
0.0349713
0.0327656
0.0308101
0.0290647
0.0275074
0.0261311
0.0248977
0.0237872
0.0227954
0.0218973
0.0210827
0.0203394
0.0196758
0.019027
0.018406
0.0178305
0.017316
0.0168231
0.0163651
0.0159271
0.0154936
0.0150591
0.0146567
0.0142842
0.0139393
0.0135968
0.0132605
0.0129268
0.012588
0.0122695
0.0119576
0.0116537
0.0780587
0.0697666
0.0632841
0.057955
0.053368
0.0493809
0.0459229
0.0429243
0.0402959
0.0379907
0.0359739
0.0341559
0.0325965
0.0311726
0.0299251
0.0286961
0.0275375
0.0265439
0.0256359
0.0248055
0.024029
0.0233084
0.0226252
0.0219765
0.0213847
0.020809
0.0202734
0.0197624
0.0192837
0.0188151
0.0183671
0.0179294
0.0175086
0.0170976
0.0166885
0.01627
0.0158578
0.015471
0.0151002
0.0147348
0.104429
0.0923735
0.0840818
0.0773483
0.0717103
0.067145
0.0630876
0.0596427
0.0565579
0.0538371
0.0514105
0.0494192
0.047662
0.0457331
0.0440431
0.042484
0.0410458
0.0397228
0.0385001
0.0373685
0.0363086
0.0353322
0.0344456
0.0336214
0.032846
0.0320971
0.0313852
0.0306946
0.0300282
0.0293597
0.0287189
0.0281009
0.0275042
0.026917
0.026337
0.025717
0.0251599
0.0246082
0.0241095
0.0235333
0.234479
0.213775
0.196513
0.183125
0.172756
0.164727
0.157523
0.151159
0.145411
0.140262
0.135802
0.131886
0.128151
0.124502
0.121094
0.117895
0.114878
0.112032
0.109338
0.106805
0.104346
0.102002
0.0998122
0.0977414
0.0957751
0.0938577
0.0919925
0.0901408
0.0883228
0.0865229
0.0848309
0.0831671
0.0815185
0.0798926
0.0783064
0.0767514
0.0752755
0.0738058
0.0725384
0.0704783
0.104372
0.0924059
0.0841521
0.0774094
0.0717332
0.0670172
0.0629123
0.0594943
0.0563987
0.0537008
0.0513193
0.0493338
0.0476032
0.0456992
0.0440259
0.0424471
0.0410247
0.0396893
0.0384768
0.0373504
0.0362924
0.0353247
0.0344373
0.033617
0.0328377
0.0320916
0.031379
0.0306896
0.0300247
0.0293571
0.0287178
0.0281007
0.027502
0.0268994
0.0262727
0.025686
0.0251524
0.0246319
0.0241529
0.0236022
0.055855
0.0498469
0.0437505
0.0394298
0.0354843
0.0330086
0.0307319
0.0287976
0.0270403
0.0254284
0.0240245
0.0229004
0.0216076
0.020745
0.0197103
0.0189289
0.0180711
0.017385
0.0166981
0.0161065
0.0155286
0.0149493
0.014501
0.0139959
0.0136168
0.0132536
0.0128717
0.0125186
0.012139
0.01177
0.0115187
0.0111972
0.0108669
0.0105333
0.0103224
0.0100389
0.00969661
0.00940645
0.00915311
0.0088807
0.0483356
0.041635
0.0363526
0.0317692
0.0287807
0.0262375
0.0240612
0.0221926
0.0205896
0.0192035
0.01793
0.0169327
0.0156455
0.0150116
0.014029
0.0134968
0.0126948
0.0122495
0.0116127
0.0112053
0.010766
0.0102666
0.00994785
0.00951125
0.00926905
0.00893767
0.00863376
0.00840998
0.0080789
0.00790579
0.00773269
0.00754498
0.00723997
0.00707429
0.00685952
0.00682729
0.00662444
0.00641386
0.00612833
0.00590086
0.0465311
0.0404272
0.0353781
0.03117
0.0275185
0.0246088
0.0224598
0.0205678
0.0189169
0.0174735
0.0162031
0.0150798
0.0140533
0.0131872
0.0124008
0.0116983
0.0110733
0.0105049
0.0100226
0.00948341
0.00913903
0.00861038
0.00832031
0.00791552
0.00770903
0.00735521
0.00717471
0.00686389
0.00666232
0.00645799
0.00632611
0.00619556
0.00593336
0.00581795
0.00561726
0.00563204
0.00547659
0.00533384
0.00506431
0.00492272
0.0467448
0.0405367
0.0355137
0.0313635
0.0278476
0.0247374
0.0221831
0.0200605
0.0183852
0.0169053
0.0156007
0.0144442
0.013398
0.0125054
0.011705
0.0109875
0.0103442
0.00976594
0.00924529
0.00877324
0.00834924
0.00796306
0.00761878
0.00731678
0.00700358
0.00674446
0.00645683
0.00623431
0.00602098
0.00582898
0.00566431
0.00555045
0.00533834
0.00522953
0.00504375
0.00506158
0.00491981
0.00479533
0.00455683
0.00441734
0.0468213
0.0406945
0.0356615
0.0314647
0.0279378
0.0248401
0.0221649
0.0198986
0.0181428
0.0166678
0.0153551
0.0141856
0.013129
0.0122192
0.0114052
0.0106781
0.010028
0.00944565
0.00892276
0.00845227
0.00802841
0.00764682
0.00731197
0.00702139
0.00671786
0.0064446
0.00617924
0.0059546
0.00574246
0.00556056
0.00541497
0.00527224
0.00511493
0.00499139
0.0048046
0.00481674
0.00468679
0.00450188
0.00439504
0.00414307
0.0465099
0.0407017
0.0356164
0.0313201
0.0277161
0.0245457
0.0218286
0.019651
0.0180013
0.0165321
0.0152277
0.0140727
0.0130394
0.0121424
0.0113416
0.0106261
0.00998698
0.0094136
0.00889868
0.00843466
0.00801623
0.00763838
0.00730504
0.00702523
0.00672316
0.0064778
0.00616381
0.00597594
0.00570343
0.0055649
0.00542146
0.00528211
0.00506874
0.00494592
0.00475125
0.00478478
0.00464411
0.00445657
0.00434441
0.00407074
0.0457556
0.0409824
0.0355441
0.0310483
0.0272839
0.0240496
0.0217197
0.01986
0.0182263
0.0167945
0.0155386
0.0144285
0.0134395
0.012579
0.011804
0.0111038
0.0104773
0.00990053
0.00938902
0.00891908
0.00850036
0.00812021
0.00774611
0.00751847
0.0070925
0.00689172
0.00654773
0.00638832
0.00606564
0.00595188
0.00579856
0.00565048
0.00536076
0.00523206
0.00501376
0.00486355
0.00492014
0.00473352
0.00457443
0.00423302
0.046472
0.0419901
0.0362861
0.0314167
0.0280827
0.0255443
0.0233659
0.0214883
0.0198545
0.0184266
0.0171797
0.0160573
0.0150893
0.0142279
0.013445
0.012669
0.01212
0.0113437
0.0109285
0.0103053
0.00996606
0.00943201
0.00913019
0.00869849
0.00839211
0.00817817
0.00780275
0.00761772
0.00727942
0.0071018
0.00691603
0.00673175
0.00640659
0.00625386
0.00600636
0.00583232
0.00582722
0.00557305
0.00537161
0.00502895
0.0558803
0.0497814
0.0437312
0.039346
0.0360042
0.0331804
0.0309056
0.0289137
0.0271412
0.0254885
0.0241185
0.022809
0.0216844
0.0207627
0.0197645
0.0189276
0.0181071
0.0173959
0.0167128
0.0161227
0.0155229
0.0149728
0.014496
0.0140174
0.0135958
0.0132763
0.0128772
0.0125306
0.0121491
0.0117738
0.0115226
0.0112
0.0108673
0.0105678
0.0102978
0.00999936
0.00983413
0.0095184
0.00915919
0.00884291
0.110023
0.0972683
0.0880245
0.0807494
0.0748738
0.070091
0.066007
0.0625625
0.0594597
0.0566796
0.0542961
0.0522211
0.0503375
0.0485936
0.0469362
0.0453872
0.0439766
0.0426722
0.0414755
0.0403458
0.0392835
0.0382703
0.0373371
0.0364685
0.0356685
0.034903
0.034167
0.0334488
0.0327483
0.0320535
0.0313817
0.0307318
0.0301075
0.0294998
0.0289121
0.0283103
0.0277571
0.0272068
0.026686
0.0260858
0.0780737
0.0698316
0.0633594
0.0580428
0.0533777
0.0493394
0.0458532
0.0428445
0.0402126
0.0379157
0.035907
0.034125
0.0325617
0.0311414
0.029916
0.0286678
0.0275399
0.0265275
0.0256384
0.0248035
0.0240281
0.0233103
0.0226229
0.021987
0.0213878
0.0208149
0.0202806
0.0197709
0.0192926
0.0188246
0.0183788
0.0179439
0.0175255
0.0171159
0.0167096
0.0162735
0.0158615
0.0154825
0.0151267
0.0147748
0.0464551
0.0419604
0.0363015
0.0312943
0.0280373
0.0255191
0.0233455
0.0214746
0.0198459
0.0184246
0.0171827
0.0161165
0.0150493
0.0142717
0.0133748
0.0127982
0.0119334
0.0114802
0.0107876
0.0103735
0.0099566
0.00945376
0.00914664
0.0086751
0.00842956
0.00814839
0.00781132
0.00761982
0.00727922
0.00709895
0.00690999
0.00672746
0.00640365
0.0062519
0.0060351
0.00597082
0.00573511
0.00548198
0.00523379
0.00504527
0.0452535
0.0394686
0.0344189
0.0300792
0.02655
0.0236421
0.0212142
0.0191692
0.0174283
0.015933
0.0146322
0.0135087
0.0124683
0.0116033
0.0108077
0.0101179
0.00942291
0.00881429
0.00833098
0.00793955
0.00754278
0.00714563
0.0068193
0.00648114
0.00616522
0.00594
0.00565343
0.00549024
0.00520387
0.00510757
0.00499039
0.00485478
0.0046087
0.00449568
0.00431381
0.00434415
0.00421434
0.00410065
0.00385196
0.00371814
0.0476439
0.0413071
0.0360076
0.0315685
0.0278257
0.0246744
0.0220338
0.0197877
0.0178642
0.016206
0.0147681
0.0135133
0.0124072
0.0114393
0.0105805
0.00981732
0.00913422
0.00851546
0.00796928
0.0074795
0.00704329
0.00664674
0.00620955
0.00592452
0.00567433
0.00542357
0.00522578
0.00493258
0.00474476
0.00457372
0.00446096
0.00434374
0.00418465
0.00407684
0.00390096
0.00392919
0.00381327
0.00370531
0.00355235
0.00342161
0.0498793
0.0431252
0.037551
0.0329048
0.0289979
0.0256839
0.0228654
0.0204595
0.0184112
0.0166492
0.0151211
0.0137878
0.0126228
0.0115971
0.0106908
0.00988689
0.00917127
0.00853125
0.00795809
0.00744332
0.00698025
0.00656743
0.00616589
0.00585511
0.0055412
0.00522043
0.00497014
0.0047835
0.00461312
0.00448656
0.00433687
0.00419679
0.0040632
0.0039529
0.00381135
0.00382998
0.00370974
0.00359054
0.00347437
0.00336105
0.0507644
0.0438968
0.0382024
0.0334496
0.0294544
0.0260683
0.0231789
0.020705
0.0185954
0.0167887
0.0152274
0.0138673
0.0126811
0.0116372
0.0107155
0.00989883
0.00917234
0.00852317
0.00794219
0.0074219
0.00695374
0.00653671
0.00613808
0.00582907
0.00551285
0.00521518
0.00496316
0.00470984
0.00450897
0.00443873
0.00429627
0.00415904
0.00402544
0.00391094
0.00378945
0.00380502
0.00368462
0.00356463
0.00344762
0.00332997
0.0499336
0.0432651
0.0376641
0.0329572
0.0289913
0.02563
0.022773
0.0203442
0.0182801
0.0165084
0.0149789
0.0136502
0.0124915
0.0114752
0.0105772
0.00978141
0.00907301
0.00843995
0.00787335
0.00736609
0.0069078
0.00649969
0.00610719
0.00579808
0.00548411
0.00520553
0.00492282
0.00471426
0.00454016
0.00444955
0.0043033
0.00416429