/*--------------------------------*- C++ -*----------------------------------*\
| =========                 |                                                 |
| \\      /  F ield         | OpenFOAM: The Open Source CFD Toolbox           |
|  \\    /   O peration     | Version:  2212                                  |
|   \\  /    A nd           | Website:  www.openfoam.com                      |
|    \\/     M anipulation  |                                                 |
\*---------------------------------------------------------------------------*/
FoamFile
{
    version     2.0;
    format      ascii;
    arch        "LSB;label=32;scalar=64";
    class       volScalarField;
    location    "1.7";
    object      k;
}
// * * * * * * * * * * * * * * * * * * * * * * * * * * * * * * * * * * * * * //

dimensions      [0 2 -2 0 0 0 0];

internalField   nonuniform List<scalar> 
6840
(
0.213564
0.055916
0.0283994
0.0193411
0.0146927
0.011851
0.00989063
0.00851598
0.00749119
0.00669614
0.00606025
0.00555043
0.00512215
0.00474385
0.00442347
0.00415365
0.00392425
0.00372746
0.00356729
0.00339207
0.264759
0.104702
0.0585298
0.039163
0.0286199
0.0219934
0.017536
0.0143633
0.0120082
0.0102138
0.0088163
0.00770563
0.00680387
0.00606087
0.00544911
0.00494703
0.00452832
0.00417489
0.00388166
0.00365646
0.283364
0.126774
0.071702
0.0473282
0.0338662
0.0256616
0.0204608
0.016797
0.0140486
0.0119411
0.010284
0.00895571
0.00788451
0.00701029
0.00628696
0.00568188
0.00517256
0.00474097
0.00437564
0.00408638
0.292299
0.141633
0.0819301
0.0541654
0.038923
0.0292874
0.0232723
0.0190786
0.0159341
0.0135149
0.0116267
0.0101127
0.0088817
0.00787082
0.00703264
0.00633134
0.00573968
0.00523675
0.00480909
0.00447892
0.295943
0.148782
0.0871941
0.0576749
0.0415194
0.0310723
0.0246452
0.0202211
0.0169051
0.0143251
0.0123087
0.0107027
0.00939663
0.00832314
0.00743205
0.00668555
0.00605498
0.00551855
0.00506242
0.00470407
0.295943
0.148782
0.0871941
0.057675
0.0415194
0.0310723
0.0246452
0.0202212
0.0169052
0.0143252
0.0123088
0.0107028
0.00939686
0.00832344
0.00743245
0.00668618
0.00605589
0.00551975
0.00506295
0.00469398
0.292299
0.141633
0.0819302
0.0541654
0.0389231
0.0292875
0.0232724
0.0190787
0.0159342
0.0135151
0.011627
0.0101131
0.00888221
0.00787151
0.00703365
0.00633289
0.00574196
0.00523997
0.00481198
0.00445838
0.283364
0.126774
0.071702
0.0473282
0.0338663
0.0256617
0.0204609
0.0167971
0.0140487
0.0119413
0.0102842
0.00895607
0.007885
0.00701099
0.00628805
0.00568359
0.00517521
0.00474495
0.00437994
0.00407596
0.264759
0.104702
0.0585298
0.039163
0.0286199
0.0219934
0.017536
0.0143633
0.0120082
0.0102138
0.00881636
0.00770574
0.00680406
0.00606118
0.00544964
0.00494804
0.00453019
0.00417841
0.00388811
0.00366057
0.213564
0.055916
0.0283994
0.0193411
0.0146927
0.011851
0.00989063
0.00851598
0.00749119
0.00669613
0.00606026
0.00555041
0.00512216
0.00474382
0.00442346
0.00415365
0.00392425
0.00372746
0.00356726
0.00339201
0.264759
0.104702
0.0585298
0.039163
0.0286199
0.0219934
0.017536
0.0143633
0.0120082
0.0102138
0.00881638
0.00770575
0.00680407
0.00606126
0.00544965
0.00494803
0.00453019
0.00417844
0.00388816
0.00366063
0.311746
0.197541
0.130357
0.0911456
0.0668022
0.0508111
0.0397944
0.0319121
0.0260942
0.0216873
0.0182765
0.0155884
0.0134409
0.011698
0.0102666
0.00907824
0.00808195
0.00723643
0.00653038
0.0059106
0.31754
0.217754
0.151085
0.108549
0.0807155
0.0618725
0.0486772
0.0391416
0.0320584
0.0266711
0.0224895
0.0191865
0.0165377
0.014385
0.0126147
0.0111447
0.00991289
0.00887077
0.00798419
0.0072304
0.319723
0.227073
0.162232
0.118772
0.0893611
0.0689928
0.0545306
0.0439845
0.0360998
0.0300748
0.0253822
0.0216653
0.0186778
0.0162455
0.0142424
0.0125757
0.0111763
0.0099914
0.00897989
0.0081165
0.320484
0.23086
0.167176
0.123531
0.093516
0.0724826
0.0574409
0.0464215
0.0381542
0.0318178
0.0268717
0.0229478
0.0197896
0.0172154
0.0150933
0.0133262
0.0118414
0.0105833
0.0095091
0.00859087
0.320484
0.23086
0.167176
0.123531
0.093516
0.0724827
0.0574409
0.0464216
0.0381543
0.0318179
0.0268718
0.022948
0.0197899
0.0172157
0.0150938
0.013327
0.0118426
0.0105851
0.00951136
0.00859298
0.319723
0.227073
0.162232
0.118772
0.0893611
0.0689928
0.0545307
0.0439846
0.0361
0.030075
0.0253826
0.0216658
0.0186785
0.0162464
0.0142437
0.0125776
0.0111791
0.00999537
0.00898529
0.00812428
0.31754
0.217754
0.151085
0.108549
0.0807155
0.0618725
0.0486773
0.0391417
0.0320585
0.0266713
0.0224898
0.0191869
0.0165383
0.0143857
0.0126158
0.0111464
0.00991532
0.00887425
0.00798947
0.0072357
0.311746
0.197541
0.130357
0.0911456
0.0668022
0.050811
0.0397944
0.0319121
0.0260942
0.0216872
0.0182765
0.0155884
0.0134408
0.0116979
0.0102666
0.00907826
0.00808197
0.00723643
0.00653042
0.0059106
0.264759
0.104702
0.0585298
0.039163
0.0286199
0.0219934
0.017536
0.0143633
0.0120082
0.0102137
0.00881629
0.00770562
0.00680383
0.00606084
0.00544908
0.00494703
0.00452834
0.00417492
0.0038817
0.00365642
0.283364
0.126774
0.071702
0.0473282
0.0338663
0.0256617
0.0204609
0.0167971
0.0140487
0.0119413
0.0102842
0.00895608
0.00788504
0.00701102
0.00628803
0.0056836
0.00517524
0.004745
0.00437996
0.00407586
0.31754
0.217754
0.151085
0.108549
0.0807155
0.0618725
0.0486773
0.0391417
0.0320585
0.0266713
0.0224898
0.0191869
0.0165383
0.0143858
0.0126158
0.0111464
0.00991536
0.00887434
0.00798954
0.00723576
0.322005
0.239026
0.177588
0.133616
0.102323
0.0798668
0.0635104
0.0513819
0.0422214
0.0351791
0.0296753
0.0253088
0.0217973
0.0189385
0.0165852
0.0146285
0.0129868
0.0115976
0.010412
0.00938685
0.323293
0.245617
0.187499
0.144537
0.112864
0.0894039
0.0718632
0.0585864
0.0483994
0.0404741
0.0342245
0.0292331
0.0251989
0.0219025
0.0191815
0.0169147
0.0150098
0.0133956
0.0120149
0.0108143
0.323714
0.247819
0.191099
0.14881
0.117249
0.0935708
0.0756574
0.0619606
0.0513628
0.0430614
0.0364794
0.0311998
0.0269181
0.0234101
0.0205086
0.0180874
0.0160503
0.0143221
0.0128415
0.0115489
0.323714
0.247819
0.191099
0.14881
0.117249
0.0935708
0.0756574
0.0619607
0.0513629
0.0430615
0.0364795
0.0311999
0.0269182
0.0234102
0.0205088
0.0180877
0.0160508
0.0143227
0.012842
0.0115479
0.323293
0.245617
0.187499
0.144537
0.112864
0.0894039
0.0718632
0.0585864
0.0483995
0.0404742
0.0342247
0.0292333
0.0251991
0.0219027
0.0191819
0.0169153
0.0150107
0.0133968
0.0120164
0.0108152
0.322005
0.239026
0.177588
0.133616
0.102323
0.0798668
0.0635104
0.0513819
0.0422214
0.0351791
0.0296753
0.0253087
0.0217972
0.0189384
0.0165851
0.0146284
0.0129868
0.0115976
0.0104119
0.00938675
0.31754
0.217754
0.151085
0.108549
0.0807155
0.0618725
0.0486772
0.0391416
0.0320584
0.0266711
0.0224895
0.0191865
0.0165377
0.014385
0.0126146
0.0111447
0.00991292
0.00887081
0.00798428
0.00723039
0.283364
0.126774
0.071702
0.0473282
0.0338662
0.0256616
0.0204608
0.016797
0.0140486
0.0119411
0.010284
0.0089557
0.00788451
0.00701028
0.00628691
0.00568184
0.00517255
0.00474096
0.00437559
0.00408618
0.292299
0.141633
0.0819302
0.0541654
0.0389231
0.0292875
0.0232724
0.0190787
0.0159342
0.0135151
0.011627
0.0101131
0.00888224
0.00787153
0.00703361
0.00633289
0.00574199
0.00524002
0.00481205
0.00445824
0.319723
0.227073
0.162232
0.118772
0.0893611
0.0689928
0.0545307
0.0439846
0.0361
0.0300751
0.0253826
0.0216658
0.0186786
0.0162464
0.0142436
0.0125777
0.0111792
0.00999548
0.00898545
0.00812399
0.323293
0.245617
0.187499
0.144537
0.112864
0.0894039
0.0718632
0.0585864
0.0483995
0.0404742
0.0342247
0.0292333
0.0251992
0.0219027
0.0191819
0.0169153
0.0150107
0.0133969
0.0120165
0.0108152
0.324288
0.250862
0.19613
0.154888
0.123591
0.09968
0.0812741
0.0669837
0.0557847
0.0469223
0.0398394
0.0341235
0.0294672
0.0256397
0.0224665
0.0198143
0.0175802
0.0156826
0.0140524
0.0126134
0.32459
0.252403
0.19891
0.158543
0.12769
0.103871
0.08532
0.0707499
0.0592099
0.0499926
0.0425683
0.0365381
0.0316002
0.0275245
0.0241346
0.0212942
0.0188967
0.0168564
0.015098
0.0135319
0.32459
0.252403
0.19891
0.158543
0.12769
0.103871
0.08532
0.0707499
0.0592099
0.0499926
0.0425683
0.0365382
0.0316002
0.0275245
0.0241347
0.0212943
0.0188968
0.0168565
0.015098
0.0135314
0.324288
0.250862
0.19613
0.154888
0.123591
0.09968
0.0812741
0.0669837
0.0557847
0.0469222
0.0398394
0.0341235
0.0294671
0.0256396
0.0224665
0.0198143
0.0175802
0.0156826
0.0140524
0.0126135
0.323293
0.245617
0.187499
0.144537
0.112864
0.0894039
0.0718632
0.0585864
0.0483994
0.0404741
0.0342245
0.0292331
0.0251989
0.0219024
0.0191815
0.0169146
0.0150098
0.0133956
0.0120149
0.0108145
0.319723
0.227073
0.162232
0.118772
0.0893611
0.0689927
0.0545306
0.0439844
0.0360998
0.0300748
0.0253822
0.0216653
0.0186779
0.0162455
0.0142423
0.0125756
0.0111763
0.00999139
0.0089799
0.00811652
0.292299
0.141633
0.0819301
0.0541654
0.038923
0.0292874
0.0232723
0.0190786
0.0159341
0.0135149
0.0116267
0.0101127
0.00888171
0.00787082
0.00703257
0.00633129
0.00573964
0.00523671
0.00480904
0.00447872
0.295943
0.148782
0.0871941
0.057675
0.0415194
0.0310723
0.0246452
0.0202212
0.0169052
0.0143252
0.0123088
0.0107028
0.00939687
0.00832345
0.00743246
0.0066862
0.00605592
0.00551979
0.00506302
0.00469408
0.320484
0.23086
0.167176
0.123531
0.093516
0.0724827
0.0574409
0.0464216
0.0381543
0.0318179
0.0268718
0.022948
0.01979
0.0172158
0.0150938
0.0133271
0.0118427
0.0105852
0.00951151
0.00859306
0.323714
0.247819
0.191099
0.14881
0.117249
0.0935708
0.0756574
0.0619607
0.0513629
0.0430615
0.0364795
0.0311999
0.0269182
0.0234102
0.0205088
0.0180878
0.0160508
0.0143228
0.0128421
0.011548
0.32459
0.252403
0.19891
0.158543
0.12769
0.103871
0.08532
0.0707499
0.0592099
0.0499926
0.0425683
0.0365382
0.0316002
0.0275245
0.0241347
0.0212943
0.0188968
0.0168565
0.015098
0.0135315
0.324844
0.253685
0.20131
0.161836
0.131535
0.107943
0.08937
0.0746125
0.0627919
0.0532533
0.0455011
0.0391571
0.0339298
0.0295938
0.0259731
0.0229299
0.0203548
0.0181577
0.0162556
0.0145394
0.324844
0.253685
0.20131
0.161836
0.131535
0.107943
0.08937
0.0746125
0.0627919
0.0532533
0.0455011
0.0391571
0.0339298
0.0295938
0.0259731
0.0229299
0.0203548
0.0181577
0.0162556
0.0145393
0.32459
0.252403
0.19891
0.158543
0.12769
0.103871
0.08532
0.0707498
0.0592099
0.0499926
0.0425683
0.0365381
0.0316002
0.0275245
0.0241346
0.0212942
0.0188967
0.0168564
0.015098
0.0135319
0.323714
0.247819
0.191099
0.14881
0.117249
0.0935708
0.0756574
0.0619606
0.0513628
0.0430614
0.0364794
0.0311998
0.0269181
0.0234101
0.0205086
0.0180874
0.0160503
0.0143221
0.0128415
0.0115489
0.320484
0.23086
0.167176
0.123531
0.093516
0.0724826
0.0574409
0.0464215
0.0381542
0.0318178
0.0268716
0.0229478
0.0197897
0.0172154
0.0150932
0.0133261
0.0118413
0.0105833
0.00950902
0.0085908
0.295943
0.148782
0.0871941
0.0576749
0.0415194
0.0310723
0.0246452
0.0202211
0.0169051
0.0143251
0.0123087
0.0107027
0.00939664
0.00832316
0.00743201
0.0066855
0.00605493
0.0055185
0.00506236
0.00470401
0.295943
0.148782
0.0871941
0.0576749
0.0415194
0.0310723
0.0246452
0.0202211
0.0169051
0.0143251
0.0123087
0.0107027
0.00939662
0.00832313
0.00743204
0.00668554
0.00605497
0.00551855
0.00506243
0.00470406
0.320484
0.23086
0.167176
0.123531
0.093516
0.0724826
0.0574409
0.0464215
0.0381542
0.0318178
0.0268717
0.0229478
0.0197896
0.0172154
0.0150933
0.0133262
0.0118414
0.0105834
0.00950913
0.00859088
0.323714
0.247819
0.191099
0.14881
0.117249
0.0935708
0.0756574
0.0619606
0.0513628
0.0430614
0.0364794
0.0311998
0.0269181
0.0234101
0.0205086
0.0180874
0.0160503
0.0143222
0.0128415
0.0115489
0.32459
0.252403
0.19891
0.158543
0.12769
0.103871
0.08532
0.0707498
0.0592099
0.0499926
0.0425683
0.0365381
0.0316002
0.0275245
0.0241346
0.0212942
0.0188967
0.0168564
0.015098
0.0135319
0.324844
0.253685
0.20131
0.161836
0.131535
0.107943
0.08937
0.0746125
0.0627919
0.0532533
0.0455011
0.039157
0.0339298
0.0295938
0.0259731
0.0229299
0.0203547
0.0181577
0.0162556
0.0145393
0.324844
0.253685
0.20131
0.161836
0.131535
0.107943
0.08937
0.0746125
0.0627919
0.0532533
0.0455011
0.039157
0.0339298
0.0295938
0.0259731
0.0229299
0.0203547
0.0181577
0.0162556
0.0145393
0.32459
0.252403
0.19891
0.158543
0.12769
0.103871
0.08532
0.0707499
0.0592099
0.0499926
0.0425683
0.0365381
0.0316002
0.0275245
0.0241347
0.0212943
0.0188967
0.0168564
0.0150979
0.0135314
0.323714
0.247819
0.191099
0.14881
0.117249
0.0935708
0.0756574
0.0619607
0.0513629
0.0430614
0.0364795
0.0311999
0.0269182
0.0234102
0.0205088
0.0180877
0.0160507
0.0143227
0.012842
0.0115479
0.320484
0.23086
0.167176
0.123531
0.093516
0.0724827
0.0574409
0.0464216
0.0381543
0.0318179
0.0268718
0.022948
0.0197899
0.0172158
0.0150938
0.013327
0.0118426
0.010585
0.00951128
0.00859281
0.295943
0.148782
0.0871941
0.057675
0.0415194
0.0310723
0.0246452
0.0202212
0.0169052
0.0143252
0.0123088
0.0107028
0.00939685
0.00832345
0.00743246
0.00668617
0.00605587
0.00551972
0.00506292
0.00469395
0.292299
0.141633
0.0819301
0.0541654
0.038923
0.0292874
0.0232723
0.0190786
0.0159341
0.0135149
0.0116267
0.0101127
0.00888169
0.0078708
0.00703262
0.00633131
0.00573965
0.00523671
0.00480905
0.00447885
0.319723
0.227073
0.162232
0.118772
0.0893611
0.0689928
0.0545306
0.0439845
0.0360998
0.0300748
0.0253822
0.0216653
0.0186778
0.0162455
0.0142424
0.0125757
0.0111763
0.00999133
0.00897978
0.00811632
0.323293
0.245617
0.187499
0.144537
0.112864
0.0894039
0.0718632
0.0585864
0.0483994
0.0404741
0.0342245
0.0292331
0.0251989
0.0219024
0.0191815
0.0169146
0.0150097
0.0133956
0.0120148
0.0108141
0.324288
0.250862
0.19613
0.154888
0.123591
0.09968
0.0812741
0.0669837
0.0557847
0.0469222
0.0398394
0.0341235
0.0294671
0.0256397
0.0224665
0.0198143
0.0175801
0.0156826
0.0140523
0.0126133
0.32459
0.252403
0.19891
0.158543
0.12769
0.103871
0.08532
0.0707499
0.0592099
0.0499926
0.0425683
0.0365381
0.0316002
0.0275245
0.0241346
0.0212943
0.0188967
0.0168564
0.0150979
0.0135314
0.32459
0.252403
0.19891
0.158543
0.12769
0.103871
0.08532
0.0707498
0.0592099
0.0499926
0.0425683
0.0365381
0.0316002
0.0275245
0.0241346
0.0212942
0.0188967
0.0168564
0.0150979
0.0135319
0.324288
0.250862
0.19613
0.154888
0.123591
0.09968
0.0812741
0.0669837
0.0557847
0.0469222
0.0398394
0.0341235
0.0294671
0.0256396
0.0224665
0.0198143
0.0175801
0.0156826
0.0140523
0.0126134
0.323293
0.245617
0.187499
0.144537
0.112864
0.0894039
0.0718632
0.0585864
0.0483995
0.0404742
0.0342247
0.0292333
0.0251991
0.0219027
0.0191819
0.0169153
0.0150106
0.0133968
0.0120163
0.010815
0.319723
0.227073
0.162232
0.118772
0.0893611
0.0689928
0.0545307
0.0439846
0.0361
0.030075
0.0253826
0.0216658
0.0186785
0.0162464
0.0142437
0.0125776
0.0111791
0.00999533
0.0089852
0.00812367
0.292299
0.141633
0.0819302
0.0541654
0.0389231
0.0292875
0.0232724
0.0190787
0.0159342
0.0135151
0.011627
0.0101131
0.00888221
0.0078715
0.00703364
0.00633288
0.00574195
0.00523996
0.00481197
0.00445813
0.283364
0.126774
0.071702
0.0473281
0.0338662
0.0256616
0.0204608
0.016797
0.0140486
0.0119411
0.010284
0.0089557
0.00788449
0.00701027
0.00628694
0.00568184
0.00517251
0.0047409
0.00437556
0.00408618
0.31754
0.217754
0.151085
0.108549
0.0807155
0.0618725
0.0486772
0.0391416
0.0320584
0.0266711
0.0224895
0.0191865
0.0165377
0.014385
0.0126147
0.0111447
0.00991279
0.00887059
0.007984
0.00723005
0.322005
0.239026
0.177588
0.133616
0.102323
0.0798668
0.0635104
0.0513819
0.0422214
0.0351791
0.0296753
0.0253087
0.0217972
0.0189384
0.0165851
0.0146284
0.0129867
0.0115974
0.0104117
0.00938648
0.323293
0.245617
0.187499
0.144537
0.112864
0.0894039
0.0718632
0.0585864
0.0483995
0.0404742
0.0342247
0.0292333
0.0251991
0.0219027
0.0191819
0.0169152
0.0150106
0.0133968
0.0120163
0.0108148
0.323714
0.247819
0.191099
0.14881
0.117249
0.0935708
0.0756574
0.0619607
0.0513629
0.0430614
0.0364795
0.0311999
0.0269182
0.0234102
0.0205088
0.0180877
0.0160507
0.0143227
0.012842
0.0115479
0.323714
0.247819
0.191099
0.14881
0.117249
0.0935708
0.0756574
0.0619606
0.0513628
0.0430614
0.0364794
0.0311998
0.0269181
0.0234101
0.0205086
0.0180874
0.0160503
0.0143221
0.0128415
0.0115489
0.323293
0.245617
0.187499
0.144537
0.112864
0.0894039
0.0718632
0.0585864
0.0483994
0.0404741
0.0342245
0.0292331
0.0251989
0.0219024
0.0191815
0.0169146
0.0150098
0.0133956
0.0120148
0.0108142
0.322005
0.239026
0.177588
0.133616
0.102323
0.0798668
0.0635104
0.0513819
0.0422214
0.0351791
0.0296753
0.0253087
0.0217972
0.0189384
0.0165851
0.0146284
0.0129867
0.0115975
0.0104118
0.00938667
0.31754
0.217754
0.151085
0.108549
0.0807155
0.0618725
0.0486773
0.0391417
0.0320585
0.0266713
0.0224898
0.0191869
0.0165383
0.0143857
0.0126158
0.0111464
0.00991529
0.0088742
0.00798944
0.00723558
0.283364
0.126774
0.071702
0.0473282
0.0338663
0.0256617
0.0204609
0.0167971
0.0140487
0.0119413
0.0102842
0.00895606
0.007885
0.00701099
0.00628805
0.00568359
0.00517521
0.00474495
0.00437993
0.00407578
0.264759
0.104702
0.0585298
0.039163
0.0286199
0.0219934
0.017536
0.0143633
0.0120082
0.0102137
0.0088163
0.00770562
0.00680385
0.00606085
0.00544908
0.00494699
0.00452826
0.00417479
0.0038815
0.00365617
0.311746
0.197541
0.130357
0.0911456
0.0668022
0.050811
0.0397944
0.0319121
0.0260942
0.0216872
0.0182765
0.0155884
0.0134408
0.0116979
0.0102665
0.00907816
0.00808183
0.00723625
0.00653016
0.00591023
0.31754
0.217754
0.151085
0.108549
0.0807155
0.0618725
0.0486773
0.0391417
0.0320585
0.0266713
0.0224898
0.0191869
0.0165383
0.0143857
0.0126157
0.0111463
0.00991526
0.0088742
0.00798936
0.00723561
0.319723
0.227073
0.162232
0.118772
0.0893611
0.0689928
0.0545307
0.0439846
0.0361
0.030075
0.0253826
0.0216658
0.0186785
0.0162464
0.0142436
0.0125776
0.0111791
0.00999538
0.00898529
0.00812369
0.320484
0.23086
0.167176
0.123531
0.093516
0.0724827
0.0574409
0.0464216
0.0381543
0.0318179
0.0268718
0.022948
0.01979
0.0172157
0.0150938
0.0133271
0.0118427
0.0105851
0.00951144
0.00859309
0.320484
0.23086
0.167176
0.123531
0.093516
0.0724826
0.0574409
0.0464215
0.0381542
0.0318178
0.0268716
0.0229478
0.0197896
0.0172154
0.0150933
0.0133262
0.0118414
0.0105834
0.00950912
0.00859095
0.319723
0.227073
0.162232
0.118772
0.0893611
0.0689928
0.0545306
0.0439844
0.0360998
0.0300748
0.0253822
0.0216653
0.0186779
0.0162455
0.0142423
0.0125756
0.0111763
0.00999137
0.00897987
0.00811646
0.31754
0.217754
0.151085
0.108549
0.0807155
0.0618725
0.0486772
0.0391415
0.0320584
0.0266711
0.0224895
0.0191865
0.0165377
0.014385
0.0126146
0.0111447
0.00991285
0.00887068
0.00798416
0.00723024
0.311746
0.197541
0.130357
0.0911456
0.0668022
0.050811
0.0397944
0.0319121
0.0260942
0.0216872
0.0182765
0.0155884
0.0134408
0.0116979
0.0102665
0.00907822
0.00808191
0.00723634
0.00653034
0.00591035
0.264759
0.104702
0.0585298
0.039163
0.0286199
0.0219934
0.017536
0.0143633
0.0120082
0.0102138
0.00881636
0.00770574
0.00680406
0.00606117
0.00544963
0.00494803
0.00453018
0.0041784
0.00388808
0.00366046
0.213564
0.055916
0.0283994
0.0193411
0.0146927
0.011851
0.00989063
0.00851598
0.00749119
0.00669614
0.00606025
0.00555043
0.00512214
0.00474383
0.00442345
0.00415361
0.0039242
0.00372738
0.00356713
0.00339181
0.264759
0.104702
0.0585298
0.039163
0.0286199
0.0219934
0.017536
0.0143633
0.0120082
0.0102138
0.00881637
0.00770574
0.00680406
0.00606124
0.00544961
0.00494799
0.00453013
0.00417836
0.00388805
0.0036605
0.283364
0.126774
0.071702
0.0473282
0.0338663
0.0256617
0.0204609
0.0167971
0.0140487
0.0119413
0.0102842
0.00895608
0.00788503
0.00701101
0.00628801
0.00568358
0.00517521
0.00474497
0.00437993
0.00407585
0.292299
0.141633
0.0819302
0.0541654
0.0389231
0.0292875
0.0232724
0.0190787
0.0159342
0.0135151
0.011627
0.0101131
0.00888224
0.00787152
0.00703359
0.00633288
0.00574198
0.00524002
0.00481206
0.00445841
0.295943
0.148782
0.0871941
0.057675
0.0415194
0.0310723
0.0246452
0.0202212
0.0169052
0.0143252
0.0123088
0.0107028
0.00939686
0.00832345
0.00743246
0.0066862
0.00605593
0.00551981
0.00506307
0.00469448
0.295943
0.148782
0.0871941
0.0576749
0.0415194
0.0310723
0.0246452
0.0202211
0.0169051
0.0143251
0.0123087
0.0107027
0.00939662
0.00832314
0.00743205
0.00668555
0.00605498
0.00551856
0.00506244
0.0047041
0.292299
0.141633
0.0819301
0.0541654
0.038923
0.0292874
0.0232723
0.0190786
0.0159341
0.0135149
0.0116267
0.0101127
0.0088817
0.00787082
0.00703257
0.00633129
0.00573964
0.00523671
0.00480905
0.00447883
0.283364
0.126774
0.071702
0.0473281
0.0338662
0.0256616
0.0204608
0.016797
0.0140486
0.0119411
0.010284
0.0089557
0.0078845
0.00701027
0.00628689
0.00568182
0.00517252
0.00474092
0.00437558
0.00408623
0.264759
0.104702
0.0585298
0.039163
0.0286199
0.0219934
0.017536
0.0143633
0.0120082
0.0102137
0.00881629
0.00770562
0.00680383
0.00606083
0.00544906
0.004947
0.00452829
0.00417483
0.00388156
0.00365628
0.213564
0.055916
0.0283994
0.0193411
0.0146927
0.011851
0.00989063
0.00851597
0.00749119
0.00669613
0.00606026
0.0055504
0.00512216
0.00474381
0.00442345
0.00415363
0.00392423
0.00372742
0.00356719
0.00339188
0.00363177
0.00338658
0.00318178
0.00302865
0.00290882
0.00281652
0.00273242
0.00265719
0.00258825
0.00252633
0.00247294
0.00242475
0.00237877
0.00233342
0.00229091
0.00224987
0.00221151
0.00217444
0.00213959
0.00210651
0.00207404
0.00204311
0.00201361
0.00198579
0.00195899
0.00193281
0.00190724
0.00188172
0.00185658
0.00183153
0.00180775
0.00178417
0.00176061
0.00173685
0.00171245
0.00169176
0.00167121
0.00165024
0.0016322
0.00160264
0.00363427
0.0033269
0.00309999
0.00292001
0.00277101
0.00265079
0.00254644
0.0024557
0.00237238
0.00229707
0.00223258
0.00217482
0.00212203
0.00207305
0.00202597
0.00198066
0.00193949
0.00190067
0.00186482
0.00183106
0.00179842
0.00176769
0.00173868
0.00171178
0.00168653
0.00166236
0.00163885
0.00161583
0.00159329
0.00157079
0.00154889
0.0015275
0.00150681
0.0014864
0.00146594
0.00144642
0.00142778
0.0014095
0.00139218
0.00137223
0.00391641
0.00360058
0.00334727
0.00313345
0.00296175
0.00281153
0.00268216
0.00256966
0.00247182
0.00238486
0.00230635
0.00223571
0.0021723
0.00211662
0.00205998
0.00200812
0.00196104
0.00191813
0.00187704
0.00183811
0.00180141
0.00176438
0.00172943
0.00169775
0.00166888
0.0016418
0.00161539
0.00158964
0.00156484
0.00154055
0.00151698
0.00149388
0.00147175
0.00145024
0.00142921
0.00140948
0.00138989
0.00137063
0.00135228
0.00133321
0.00417857
0.00384635
0.00357673
0.00334787
0.00314927
0.00297801
0.00282791
0.00269606
0.00257928
0.00247495
0.00238119
0.00229663
0.0022195
0.00214991
0.00208601
0.00202737
0.00197255
0.00192409
0.0018733
0.00182588
0.00178346
0.0017435
0.00170534
0.00166925
0.00163561
0.00160419
0.00157458
0.00154629
0.00151959
0.00149363
0.00146813
0.00144299
0.00141954
0.00139686
0.00137539
0.00135419
0.001334
0.00131443
0.0012957
0.00127701
0.0043151
0.0039852
0.00370343
0.00346077
0.00325069
0.00306831
0.00290859
0.00276747
0.00264127
0.00252787
0.00242533
0.00233216
0.00224727
0.00216982
0.00209935
0.00203462
0.00197467
0.00191895
0.00186749
0.00181903
0.00177681
0.00173203
0.00169003
0.00165137
0.00161596
0.00158264
0.00155163
0.00152217
0.00149465
0.0014681
0.00144238
0.00141678
0.00139323
0.00136961
0.00134727
0.00132507
0.00130453
0.00128505
0.00126618
0.0012482
0.00428728
0.00397177
0.00369836
0.00346069
0.00325298
0.00307093
0.00291053
0.00276808
0.00263979
0.00252336
0.00241751
0.00232109
0.00223345
0.00215259
0.00207855
0.00201068
0.00194877
0.00189219
0.00184004
0.00179184
0.00174748
0.00170611
0.00166884
0.00163234
0.00159477
0.00155938
0.00152726
0.00149771
0.00147084
0.00144459
0.00142015
0.00139599
0.0013723
0.00134597
0.00132391
0.00130183
0.00128155
0.00126238
0.00124346
0.00122529
0.00411122
0.00382212
0.00357019
0.00334977
0.00315587
0.0029849
0.00283311
0.00269681
0.00257293
0.00246027
0.00235781
0.00226452
0.00217947
0.00210162
0.00203053
0.00196552
0.00190602
0.00185159
0.00180206
0.00175652
0.00171475
0.00167572
0.00163886
0.00160439
0.00156807
0.00153492
0.00150487
0.00147672
0.00145066
0.00142447
0.00139983
0.00137514
0.00135147
0.0013268
0.00130563
0.00128464
0.00126385
0.00124383
0.00122391
0.00120451
0.00389669
0.0036184
0.00338617
0.00318553
0.00300912
0.00285319
0.00271266
0.00258539
0.00247012
0.0023657
0.00227096
0.00218458
0.002106
0.00203518
0.00197058
0.00191147
0.00185784
0.00180863
0.0017634
0.00172166
0.0016839
0.00164679
0.00161078
0.00157699
0.00154654
0.00151709
0.00148954
0.00146295
0.00143649
0.00140975
0.00138465
0.00136125
0.00133952
0.00131766
0.00129604
0.0012743
0.00125191
0.00123092
0.0012102
0.0011898
0.00367736
0.00338816
0.00317151
0.00299221
0.00283454
0.00269348
0.00256738
0.00245492
0.00235388
0.00226317
0.00218234
0.00210814
0.00204335
0.00198338
0.0019298
0.00187661
0.00182542
0.00178117
0.00174013
0.00170235
0.00166656
0.00163309
0.0016011
0.00157029
0.00154205
0.00151437
0.00148845
0.00146344
0.00143988
0.00141663
0.00139433
0.00137235
0.00135109
0.00133007
0.00130914
0.0012872
0.00126529
0.0012449
0.00122527
0.00120556
0.00346667
0.00318257
0.00298268
0.00282462
0.00268898
0.00257519
0.00247074
0.00237938
0.00229631
0.00222176
0.00215433
0.00209766
0.00204759
0.001992
0.00194235
0.00189607
0.00185281
0.00181269
0.00177519
0.00174026
0.00170714
0.0016764
0.00164823
0.00162189
0.001597
0.00157276
0.00154952
0.00152685
0.00150491
0.00148279
0.00146144
0.00144062
0.00142037
0.00140028
0.00138034
0.00135879
0.00133946
0.0013202
0.00130259
0.00128204
0.00363151
0.00338678
0.00318112
0.0030283
0.00291122
0.00281859
0.00273506
0.00265986
0.00259117
0.00252892
0.00247454
0.00242626
0.00238022
0.00233446
0.00229146
0.0022507
0.00221209
0.00217523
0.00214024
0.00210698
0.00207451
0.0020433
0.00201397
0.00198608
0.0019595
0.00193326
0.00190772
0.00188218
0.00185697
0.0018319
0.00180817
0.00178462
0.0017612
0.00173787
0.00171494
0.00169236
0.00167103
0.00164946
0.00163071
0.00159958
0.00346542
0.00318321
0.00298475
0.00282668
0.00269106
0.00257457
0.00246766
0.00237654
0.00229281
0.00221827
0.00215207
0.00209539
0.00204546
0.00199072
0.00194199
0.00189503
0.00185241
0.00181181
0.00177457
0.00173975
0.00170664
0.00167616
0.00164795
0.00162177
0.00159676
0.0015726
0.00154935
0.00152671
0.00150482
0.00148271
0.00146139
0.00144059
0.00142028
0.00139972
0.00137818
0.00135785
0.00133935
0.00132107
0.0013041
0.00128443
0.00478747
0.00429029
0.0039022
0.00359062
0.00331931
0.00307398
0.00285393
0.00265934
0.0024774
0.00231545
0.00218094
0.00205707
0.00194697
0.00183748
0.00174394
0.00165065
0.00157332
0.00149848
0.00143344
0.0013738
0.00131133
0.00125703
0.00121018
0.00117276
0.00113474
0.0010973
0.00106237
0.00102855
0.000998087
0.000968056
0.000937302
0.00090725
0.000880007
0.000853775
0.000822757
0.000797415
0.000773719
0.000750883
0.000729541
0.000713123
0.00593324
0.00537489
0.00490249
0.00451097
0.00415818
0.00384839
0.00357324
0.00332866
0.00311185
0.00291687
0.00274279
0.00258037
0.00244366
0.00231121
0.00219666
0.00208467
0.00198829
0.00189532
0.00181336
0.00173558
0.00166024
0.00159444
0.00152829
0.00147147
0.00141459
0.00136198
0.00131393
0.00126552
0.00122501
0.00118334
0.00114207
0.00109965
0.00106362
0.00102692
0.000993569
0.000954208
0.00091828
0.000882345
0.000851229
0.000810797
0.00678178
0.00614658
0.00559732
0.00512207
0.00471317
0.00435808
0.00404284
0.00376254
0.00351254
0.00328868
0.0030875
0.00290502
0.00274222
0.00259285
0.00245657
0.00233188
0.00221742
0.00211315
0.00201574
0.00192825
0.00184457
0.00177017
0.00169702
0.00163239
0.0015691
0.00151338
0.00145874
0.00140919
0.00136255
0.00131599
0.001271
0.00122519
0.00118495
0.00114387
0.00110682
0.00106444
0.00102441
0.000984027
0.00094807
0.000901369
0.00731115
0.00661543
0.00601607
0.00549834
0.00504904
0.00465959
0.00431908
0.00401885
0.00374985
0.00350817
0.00329045
0.00309331
0.0029165
0.00275447
0.00260677
0.00247192
0.00234855
0.00223553
0.00213173
0.00203595
0.00194876
0.00186052
0.00177884
0.0017097
0.00164859
0.00159007
0.00153616
0.00148226
0.00143094
0.00138033
0.00133389
0.00128756
0.00124456
0.00120074
0.0011602
0.00111487
0.00107134
0.00102833
0.00098823
0.00093696
0.00749424
0.00677825
0.00616631
0.00563842
0.00517928
0.00477907
0.00442915
0.00412169
0.00384681
0.00359881
0.00337484
0.00317238
0.00298928
0.00282267
0.0026708
0.00253213
0.00240529
0.00228905
0.00218231
0.00208393
0.0019934
0.00190891
0.001831
0.00174979
0.00167423
0.00160911
0.0015545
0.00150311
0.00145437
0.00140607
0.00136039
0.00131616
0.00126891
0.00122045
0.00117643
0.0011278
0.0010806
0.00103708
0.000992931
0.000938669
0.00728813
0.00661552
0.00603307
0.00552704
0.00508475
0.00469852
0.00436079
0.00406238
0.0037935
0.00355077
0.00333151
0.00313394
0.00295209
0.00278895
0.00264018
0.00250424
0.00237963
0.00226525
0.00215998
0.00206285
0.00197315
0.00188933
0.00181265
0.00173525
0.00166407
0.00160231
0.0015428
0.00148408
0.00143204
0.00137903
0.0013282
0.00127712
0.00122985
0.00118176
0.00113773
0.00108703
0.00103895
0.000993113
0.000945462
0.000886675
0.00676994
0.00615984
0.00562699
0.00516441
0.00476166
0.00441183
0.00410078
0.00382103
0.00356879
0.00334117
0.00313571
0.0029499
0.00277734
0.00262361
0.00248286
0.00235415
0.00223539
0.00212682
0.00202636
0.00193386
0.00184789
0.00176702
0.00169341
0.00161846
0.00155423
0.0014897
0.00143279
0.00137451
0.00132424
0.0012718
0.00122028
0.00116747
0.00112103
0.00107356
0.00102925
0.000984064
0.000929691
0.0008815
0.000834046
0.00077832
0.00599205
0.00543362
0.00496114
0.0045645
0.00421513
0.00390283
0.00362247
0.00337081
0.0031424
0.00293598
0.0027521
0.00258001
0.0024283
0.00228825
0.00215938
0.0020438
0.00193238
0.00183815
0.00174481
0.00166464
0.00158462
0.0015137
0.0014456
0.00138365
0.00132882
0.00127265
0.00122457
0.00117448
0.00113272
0.00108928
0.00104634
0.00100173
0.000964381
0.000926012
0.000889785
0.000847171
0.000799335
0.000759707
0.000723011
0.000692336
0.00478671
0.00428798
0.00389815
0.00358727
0.0033145
0.0030738
0.00285624
0.00266322
0.00248392
0.00232191
0.00218397
0.00206487
0.00195124
0.00183937
0.00174293
0.00165279
0.00157325
0.00150011
0.00143475
0.00137466
0.00131344
0.00125747
0.00121139
0.00117281
0.00113586
0.00109774
0.00106293
0.00102903
0.000998503
0.000968644
0.000937964
0.000908002
0.000880933
0.000855111
0.000830411
0.000805081
0.000772714
0.000747081
0.000725404
0.000709127
0.00363438
0.00332717
0.00309942
0.00292251
0.00277744
0.00265436