/*--------------------------------*- C++ -*----------------------------------*\
| =========                 |                                                 |
| \\      /  F ield         | OpenFOAM: The Open Source CFD Toolbox           |
|  \\    /   O peration     | Version:  2212                                  |
|   \\  /    A nd           | Website:  www.openfoam.com                      |
|    \\/     M anipulation  |                                                 |
\*---------------------------------------------------------------------------*/
FoamFile
{
    version     2.0;
    format      ascii;
    arch        "LSB;label=32;scalar=64";
    class       volScalarField;
    location    "1.7";
    object      nut;
}
// * * * * * * * * * * * * * * * * * * * * * * * * * * * * * * * * * * * * * //

dimensions      [0 2 -1 0 0 0 0];

internalField   nonuniform List<scalar> 
6840
(
4.5356e-05
2.3208e-05
1.65396e-05
1.36493e-05
1.18966e-05
1.06844e-05
9.76072e-06
9.05706e-06
8.49465e-06
8.03123e-06
7.64039e-06
7.31193e-06
7.02418e-06
6.75988e-06
6.52778e-06
6.3258e-06
6.14918e-06
5.99437e-06
5.86965e-06
5.74779e-06
0.000107685
6.77183e-05
5.06311e-05
4.14159e-05
3.54048e-05
3.10366e-05
2.77137e-05
2.50816e-05
2.29334e-05
2.11505e-05
1.96503e-05
1.83709e-05
1.72624e-05
1.62924e-05
1.54482e-05
1.47189e-05
1.40817e-05
1.35205e-05
1.30394e-05
1.2675e-05
0.000160509
0.00010736
8.07408e-05
6.55975e-05
5.54895e-05
4.83025e-05
4.31309e-05
3.9079e-05
3.5739e-05
3.29494e-05
3.05777e-05
2.85346e-05
2.67735e-05
2.52453e-05
2.39069e-05
2.27265e-05
2.16826e-05
2.07568e-05
1.99417e-05
1.9294e-05
0.000198681
0.0001383
0.000105187
8.55269e-05
7.25012e-05
6.28901e-05
5.6061e-05
5.07592e-05
4.63879e-05
4.27215e-05
3.96248e-05
3.69547e-05
3.46323e-05
3.26015e-05
3.08163e-05
2.92383e-05
2.78371e-05
2.65873e-05
2.54772e-05
2.46086e-05
0.000218609
0.000155003
0.000118661
9.65069e-05
8.18823e-05
7.08355e-05
6.30856e-05
5.71435e-05
5.22485e-05
4.80965e-05
4.4583e-05
4.15727e-05
3.89535e-05
3.66608e-05
3.46425e-05
3.28561e-05
3.12674e-05
2.9849e-05
2.85866e-05
2.75383e-05
0.000218609
0.000155003
0.000118661
9.65069e-05
8.18824e-05
7.08356e-05
6.30857e-05
5.71437e-05
5.22487e-05
4.80968e-05
4.45835e-05
4.15735e-05
3.89547e-05
3.66624e-05
3.4645e-05
3.28602e-05
3.12738e-05
2.98583e-05
2.85978e-05
2.75407e-05
0.000198681
0.0001383
0.000105187
8.55269e-05
7.25013e-05
6.28902e-05
5.60612e-05
5.07594e-05
4.63883e-05
4.27222e-05
3.96259e-05
3.69563e-05
3.46346e-05
3.2605e-05
3.08217e-05
2.92472e-05
2.78511e-05
2.66085e-05
2.54999e-05
2.45198e-05
0.000160509
0.00010736
8.07408e-05
6.55975e-05
5.54896e-05
4.83026e-05
4.3131e-05
3.90791e-05
3.57393e-05
3.29499e-05
3.05785e-05
2.85359e-05
2.67755e-05
2.52483e-05
2.39119e-05
2.27348e-05
2.16962e-05
2.07777e-05
1.99658e-05
1.92818e-05
0.000107685
6.77183e-05
5.06311e-05
4.14159e-05
3.54048e-05
3.10367e-05
2.77137e-05
2.50816e-05
2.29334e-05
2.11506e-05
1.96505e-05
1.83712e-05
1.7263e-05
1.62937e-05
1.54503e-05
1.47228e-05
1.4089e-05
1.35347e-05
1.30643e-05
1.26774e-05
4.5356e-05
2.3208e-05
1.65396e-05
1.36493e-05
1.18966e-05
1.06844e-05
9.76073e-06
9.05706e-06
8.49465e-06
8.03122e-06
7.64039e-06
7.31193e-06
7.02417e-06
6.75989e-06
6.52777e-06
6.32579e-06
6.14919e-06
5.99438e-06
5.86972e-06
5.74797e-06
0.000107685
6.77183e-05
5.06311e-05
4.14159e-05
3.54048e-05
3.10367e-05
2.77137e-05
2.50816e-05
2.29334e-05
2.11506e-05
1.96505e-05
1.83712e-05
1.72631e-05
1.62938e-05
1.54503e-05
1.47228e-05
1.40891e-05
1.35348e-05
1.30644e-05
1.26773e-05
0.000528907
0.000369984
0.000305097
0.000261371
0.000228528
0.000202475
0.000181114
0.000163073
0.000147539
0.000133983
0.000122048
0.000111465
0.000102135
9.3862e-05
8.6455e-05
7.9656e-05
7.34504e-05
6.77591e-05
6.36391e-05
5.72323e-05
0.000663952
0.000488458
0.000404619
0.000347248
0.000305035
0.000272127
0.000245318
0.000222888
0.000203755
0.000187178
0.000172653
0.000159812
0.00014837
0.00013811
0.000128857
0.00012061
0.000113156
0.000106304
0.000100391
9.4561e-05
0.00071288
0.000556432
0.000466397
0.000402355
0.000354426
0.00031705
0.000286675
0.000261255
0.000239581
0.000220845
0.000204443
0.00018995
0.000177045
0.000165473
0.000155022
0.000145555
0.000136933
0.000129036
0.000121787
0.000115377
0.000728543
0.000588231
0.000496002
0.000429132
0.00037851
0.000338935
0.000306819
0.000279974
0.000257074
0.000237258
0.000219912
0.000204581
0.000190923
0.000178674
0.000167624
0.000157598
0.000148467
0.00014011
0.000132419
0.000125428
0.000728543
0.000588231
0.000496002
0.000429132
0.00037851
0.000338935
0.00030682
0.000279976
0.000257076
0.000237261
0.000219918
0.000204589
0.000190935
0.000178693
0.000167657
0.000157643
0.000148529
0.000140197
0.000132536
0.000125573
0.00071288
0.000556432
0.000466397
0.000402355
0.000354426
0.000317051
0.000286676
0.000261258
0.000239586
0.000220853
0.000204454
0.000189967
0.000177071
0.000165518
0.000155089
0.000145647
0.000137063
0.000129221
0.000122049
0.00011596
0.000663952
0.000488458
0.000404619
0.000347248
0.000305036
0.000272128
0.000245319
0.000222891
0.000203758
0.000187183
0.000172661
0.000159824
0.000148387
0.000138139
0.000128909
0.000120679
0.000113253
0.000106439
0.000100617
9.46922e-05
0.000528907
0.000369984
0.000305097
0.000261371
0.000228528
0.000202475
0.000181114
0.000163073
0.000147539
0.000133983
0.000122048
0.000111465
0.000102134
9.38578e-05
8.64577e-05
7.96569e-05
7.34501e-05
6.77578e-05
6.36373e-05
5.72255e-05
0.000107685
6.77183e-05
5.06311e-05
4.14159e-05
3.54048e-05
3.10366e-05
2.77137e-05
2.50816e-05
2.29333e-05
2.11505e-05
1.96503e-05
1.83709e-05
1.72624e-05
1.62925e-05
1.54481e-05
1.47189e-05
1.40817e-05
1.35206e-05
1.30395e-05
1.26751e-05
0.000160509
0.00010736
8.07408e-05
6.55975e-05
5.54896e-05
4.83026e-05
4.3131e-05
3.90791e-05
3.57393e-05
3.295e-05
3.05785e-05
2.85359e-05
2.67756e-05
2.52484e-05
2.39118e-05
2.27348e-05
2.16962e-05
2.07778e-05
1.99659e-05
1.92813e-05
0.000663952
0.000488458
0.000404619
0.000347248
0.000305036
0.000272128
0.000245319
0.000222891
0.000203758
0.000187184
0.000172661
0.000159825
0.000148389
0.000138139
0.00012891
0.000120681
0.000113257
0.000106447
0.000100617
9.46988e-05
0.000786827
0.000662293
0.000567974
0.000495805
0.000439463
0.000394562
0.000357974
0.000327451
0.000301489
0.000279049
0.000259395
0.000241999
0.000226466
0.000212499
0.000199863
0.000188396
0.000177934
0.000168331
0.000159519
0.00015088
0.000809324
0.000713906
0.000631504
0.000562574
0.000505377
0.000457785
0.000417841
0.000383939
0.000354803
0.000329448
0.000307153
0.000287374
0.000269694
0.000253784
0.000239383
0.000226293
0.00021433
0.000203325
0.000193073
0.000183057
0.000814958
0.000730426
0.000654634
0.000589044
0.000533067
0.000485439
0.000444764
0.000409794
0.000379471
0.000352934
0.000329495
0.000308634
0.000289948
0.000273113
0.000257869
0.000243997
0.000231315
0.000219638
0.000208711
0.00019798
0.000814958
0.000730426
0.000654634
0.000589044
0.000533067
0.000485439
0.000444765
0.000409795
0.000379474
0.000352937
0.000329499
0.000308641
0.000289957
0.000273128
0.000257892
0.000244029
0.000231358
0.000219694
0.000208771
0.000197919
0.000809324
0.000713906
0.000631505
0.000562574
0.000505377
0.000457786
0.000417842
0.000383941
0.000354806
0.000329452
0.00030716
0.000287385
0.000269709
0.00025381
0.000239423
0.000226347
0.000214404
0.000203424
0.000193192
0.00018306
0.000786827
0.000662293
0.000567974
0.000495805
0.000439463
0.000394562
0.000357974
0.000327451
0.000301489
0.000279048
0.000259395
0.000241998
0.000226463
0.000212495
0.000199865
0.000188396
0.000177932
0.000168327
0.000159511
0.000150858
0.000663952
0.000488458
0.000404619
0.000347248
0.000305035
0.000272127
0.000245318
0.000222888
0.000203755
0.000187178
0.000172653
0.000159812
0.000148369
0.000138104
0.000128861
0.000120612
0.000113158
0.000106305
0.000100393
9.45542e-05
0.000160509
0.00010736
8.07408e-05
6.55975e-05
5.54895e-05
4.83025e-05
4.31309e-05
3.9079e-05
3.5739e-05
3.29494e-05
3.05777e-05
2.85346e-05
2.67735e-05
2.52453e-05
2.39067e-05
2.27263e-05
2.16825e-05
2.07568e-05
1.99417e-05
1.92943e-05
0.000198681
0.0001383
0.000105187
8.55269e-05
7.25013e-05
6.28902e-05
5.60612e-05
5.07594e-05
4.63883e-05
4.27222e-05
3.96259e-05
3.69563e-05
3.46347e-05
3.26051e-05
3.08215e-05
2.92472e-05
2.78512e-05
2.66086e-05
2.55001e-05
2.45206e-05
0.00071288
0.000556432
0.000466397
0.000402355
0.000354426
0.000317051
0.000286676
0.000261258
0.000239586
0.000220853
0.000204455
0.000189967
0.000177072
0.000165512
0.000155093
0.00014565
0.000137067
0.000129227
0.000122056
0.000115958
0.000809324
0.000713906
0.000631505
0.000562574
0.000505377
0.000457786
0.000417842
0.000383941
0.000354806
0.000329453
0.000307161
0.000287386
0.000269711
0.000253809
0.000239425
0.000226349
0.000214407
0.000203429
0.0001932
0.000183069
0.000823497
0.000753987
0.000688491
0.000628748
0.000575387
0.000528266
0.000486845
0.000450441
0.000418361
0.000389972
0.000364725
0.000342158
0.000321887
0.000303593
0.000287008
0.000271913
0.000258098
0.000245344
0.000233292
0.000221057
0.000826292
0.000764347
0.000706102
0.000651936
0.00060223
0.000557103
0.000516428
0.000479912
0.00044718
0.000417831
0.000391474
0.000367747
0.000346329
0.000326933
0.000309312
0.000293246
0.000278523
0.000264891
0.000251898
0.000238395
0.000826292
0.000764347
0.000706102
0.000651937
0.00060223
0.000557104
0.000516428
0.000479912
0.000447181
0.000417832
0.000391475
0.000367749
0.000346331
0.000326936
0.000309318
0.000293254
0.000278534
0.000264904
0.000251913
0.000238397
0.000823497
0.000753987
0.000688491
0.000628748
0.000575387
0.000528266
0.000486845
0.000450441
0.000418361
0.000389972
0.000364724
0.000342157
0.000321886
0.000303591
0.000287009
0.000271912
0.000258097
0.000245342
0.000233289
0.000221054
0.000809324
0.000713906
0.000631504
0.000562574
0.000505377
0.000457785
0.00041784
0.000383938
0.000354802
0.000329447
0.000307153
0.000287374
0.000269692
0.000253781
0.000239384
0.000226293
0.000214329
0.000203324
0.000193071
0.000183059
0.00071288
0.000556432
0.000466397
0.000402355
0.000354426
0.00031705
0.000286675
0.000261255
0.000239581
0.000220845
0.000204443
0.00018995
0.000177046
0.000165469
0.000155024
0.000145556
0.000136934
0.000129037
0.000121788
0.000115381
0.000198681
0.0001383
0.000105187
8.55269e-05
7.25012e-05
6.28901e-05
5.6061e-05
5.07592e-05
4.63878e-05
4.27215e-05
3.96248e-05
3.69547e-05
3.46323e-05
3.26016e-05
3.0816e-05
2.92381e-05
2.78369e-05
2.65872e-05
2.5477e-05
2.46079e-05
0.000218609
0.000155003
0.000118661
9.65069e-05
8.18824e-05
7.08356e-05
6.30857e-05
5.71437e-05
5.22487e-05
4.80968e-05
4.45835e-05
4.15735e-05
3.89547e-05
3.66625e-05
3.46449e-05
3.28602e-05
3.12738e-05
2.98584e-05
2.85979e-05
2.75415e-05
0.000728543
0.000588231
0.000496002
0.000429132
0.00037851
0.000338935
0.00030682
0.000279976
0.000257076
0.000237261
0.000219917
0.000204589
0.000190935
0.000178692
0.000167658
0.000157644
0.000148531
0.000140199
0.000132539
0.000125576
0.000814958
0.000730426
0.000654634
0.000589044
0.000533067
0.000485439
0.000444765
0.000409796
0.000379474
0.000352937
0.000329499
0.000308641
0.000289958
0.000273128
0.000257894
0.00024403
0.000231359
0.000219696
0.000208775
0.00019792
0.000826292
0.000764347
0.000706102
0.000651937
0.00060223
0.000557104
0.000516428
0.000479912
0.000447181
0.000417832
0.000391476
0.00036775
0.000346332
0.000326937
0.000309318
0.000293255
0.000278534
0.000264905
0.000251914
0.000238397
0.000828382
0.0007726
0.000721138
0.00067296
0.000627782
0.00058562
0.000546546
0.000510578
0.000477647
0.000447612
0.000420283
0.00039544
0.000372855
0.000352301
0.000333565
0.000316443
0.000300716
0.00028609
0.000271982
0.000256869
0.000828382
0.0007726
0.000721138
0.00067296
0.000627782
0.00058562
0.000546546
0.000510578
0.000477647
0.000447612
0.000420283
0.00039544
0.000372855
0.000352301
0.000333565
0.000316443
0.000300715
0.00028609
0.000271982
0.00025687
0.000826292
0.000764347
0.000706102
0.000651936
0.00060223
0.000557103
0.000516428
0.000479911
0.00044718
0.000417831
0.000391474
0.000367747
0.000346328
0.000326932
0.000309313
0.000293247
0.000278524
0.000264892
0.000251899
0.000238394
0.000814958
0.000730426
0.000654634
0.000589044
0.000533067
0.000485439
0.000444764
0.000409794
0.000379471
0.000352934
0.000329495
0.000308634
0.000289949
0.000273113
0.000257868
0.000243997
0.000231315
0.000219639
0.000208713
0.000197982
0.000728543
0.000588231
0.000496002
0.000429132
0.00037851
0.000338935
0.000306819
0.000279974
0.000257074
0.000237258
0.000219912
0.000204581
0.000190925
0.000178676
0.00016762
0.000157596
0.000148465
0.000140109
0.000132418
0.000125427
0.000218609
0.000155003
0.000118661
9.65069e-05
8.18823e-05
7.08355e-05
6.30856e-05
5.71435e-05
5.22485e-05
4.80965e-05
4.4583e-05
4.15727e-05
3.89535e-05
3.66609e-05
3.46423e-05
3.28559e-05
3.12673e-05
2.98489e-05
2.85864e-05
2.75383e-05
0.000218609
0.000155003
0.000118661
9.65069e-05
8.18823e-05
7.08355e-05
6.30856e-05
5.71435e-05
5.22485e-05
4.80965e-05
4.4583e-05
4.15727e-05
3.89535e-05
3.66608e-05
3.46425e-05
3.28561e-05
3.12674e-05
2.9849e-05
2.85866e-05
2.75382e-05
0.000728543
0.000588231
0.000496002
0.000429132
0.00037851
0.000338935
0.000306819
0.000279974
0.000257074
0.000237257
0.000219912
0.000204581
0.000190922
0.000178672
0.000167624
0.000157598
0.000148465
0.000140107
0.000132415
0.000125421
0.000814958
0.000730426
0.000654634
0.000589044
0.000533067
0.000485439
0.000444764
0.000409794
0.000379471
0.000352933
0.000329495
0.000308634
0.000289947
0.000273112
0.000257868
0.000243996
0.000231313
0.000219635
0.000208706
0.000197971
0.000826292
0.000764347
0.000706102
0.000651936
0.00060223
0.000557103
0.000516428
0.000479912
0.00044718
0.000417831
0.000391474
0.000367747
0.000346328
0.000326932
0.000309311
0.000293246
0.000278522
0.00026489
0.000251896
0.000238388
0.000828382
0.0007726
0.000721138
0.00067296
0.000627782
0.00058562
0.000546546
0.000510578
0.000477647
0.000447612
0.000420283
0.00039544
0.000372855
0.000352301
0.000333565
0.000316443
0.000300715
0.00028609
0.000271981
0.000256868
0.000828382
0.0007726
0.000721138
0.00067296
0.000627782
0.00058562
0.000546546
0.000510578
0.000477647
0.000447612
0.000420283
0.00039544
0.000372855
0.000352301
0.000333565
0.000316443
0.000300716
0.00028609
0.000271982
0.000256871
0.000826292
0.000764347
0.000706102
0.000651937
0.00060223
0.000557104
0.000516428
0.000479912
0.000447181
0.000417832
0.000391476
0.000367749
0.000346331
0.000326936
0.000309319
0.000293255
0.000278535
0.000264906
0.000251915
0.000238398
0.000814958
0.000730426
0.000654634
0.000589044
0.000533067
0.000485439
0.000444765
0.000409795
0.000379474
0.000352937
0.000329499
0.000308641
0.000289959
0.000273131
0.000257891
0.000244029
0.000231359
0.000219697
0.000208775
0.000197922
0.000728543
0.000588231
0.000496002
0.000429132
0.00037851
0.000338935
0.00030682
0.000279976
0.000257076
0.000237261
0.000219917
0.000204589
0.000190937
0.000178699
0.000167651
0.000157639
0.000148526
0.000140195
0.000132533
0.000125569
0.000218609
0.000155003
0.000118661
9.65069e-05
8.18824e-05
7.08356e-05
6.30857e-05
5.71437e-05
5.22487e-05
4.80968e-05
4.45835e-05
4.15734e-05
3.89546e-05
3.66625e-05
3.4645e-05
3.28602e-05
3.12737e-05
2.98582e-05
2.85976e-05
2.75409e-05
0.000198681
0.0001383
0.000105187
8.55269e-05
7.25012e-05
6.28901e-05
5.6061e-05
5.07592e-05
4.63878e-05
4.27215e-05
3.96248e-05
3.69547e-05
3.46323e-05
3.26015e-05
3.08162e-05
2.92383e-05
2.7837e-05
2.65872e-05
2.54771e-05
2.46083e-05
0.00071288
0.000556432
0.000466397
0.000402355
0.000354426
0.00031705
0.000286674
0.000261255
0.000239581
0.000220845
0.000204443
0.000189949
0.000177044
0.000165471
0.000155021
0.000145553
0.000136929
0.000129031
0.000121779
0.000115366
0.000809324
0.000713906
0.000631504
0.000562574
0.000505377
0.000457785
0.00041784
0.000383939
0.000354802
0.000329447
0.000307153
0.000287374
0.000269693
0.000253782
0.000239381
0.00022629
0.000214325
0.000203319
0.000193063
0.00018304
0.000823497
0.000753987
0.000688491
0.000628748
0.000575387
0.000528266
0.000486845
0.000450441
0.000418361
0.000389972
0.000364725
0.000342158
0.000321887
0.000303592
0.000287007
0.000271911
0.000258096
0.000245341
0.000233287
0.00022105
0.000826292
0.000764347
0.000706102
0.000651937
0.00060223
0.000557104
0.000516428
0.000479912
0.000447181
0.000417832
0.000391476
0.000367749
0.000346332
0.000326937
0.000309317
0.000293254
0.000278534
0.000264905
0.000251915
0.000238401
0.000826292
0.000764347
0.000706102
0.000651936
0.00060223
0.000557103
0.000516428
0.000479912
0.00044718
0.000417831
0.000391474
0.000367747
0.000346329
0.000326932
0.000309311
0.000293246
0.000278523
0.000264892
0.000251899
0.000238393
0.000823497
0.000753987
0.000688491
0.000628748
0.000575387
0.000528266
0.000486845
0.000450441
0.000418361
0.000389972
0.000364725
0.000342158
0.000321886
0.000303591
0.000287009
0.000271913
0.000258098
0.000245343
0.000233288
0.000221051
0.000809324
0.000713906
0.000631505
0.000562574
0.000505377
0.000457786
0.000417842
0.000383941
0.000354806
0.000329453
0.00030716
0.000287386
0.00026971
0.000253809
0.000239423
0.000226348
0.000214405
0.000203426
0.000193193
0.00018306
0.00071288
0.000556432
0.000466397
0.000402355
0.000354426
0.000317051
0.000286677
0.000261258
0.000239586
0.000220852
0.000204454
0.000189967
0.000177071
0.000165517
0.000155088
0.000145646
0.000137062
0.000129219
0.000122046
0.000115943
0.000198681
0.0001383
0.000105187
8.55269e-05
7.25012e-05
6.28902e-05
5.60612e-05
5.07594e-05
4.63883e-05
4.27221e-05
3.96258e-05
3.69563e-05
3.46346e-05
3.2605e-05
3.08217e-05
2.92472e-05
2.78511e-05
2.66085e-05
2.54999e-05
2.45203e-05
0.000160509
0.00010736
8.07408e-05
6.55975e-05
5.54895e-05
4.83025e-05
4.31309e-05
3.9079e-05
3.5739e-05
3.29494e-05
3.05777e-05
2.85346e-05
2.67735e-05
2.52452e-05
2.39069e-05
2.27264e-05
2.16825e-05
2.07567e-05
1.99415e-05
1.92934e-05
0.000663952
0.000488458
0.000404619
0.000347248
0.000305035
0.000272127
0.000245318
0.000222888
0.000203755
0.000187178
0.000172653
0.000159812
0.000148369
0.000138109
0.000128856
0.000120607
0.000113152
0.000106297
0.000100393
9.4545e-05
0.000786827
0.000662293
0.000567974
0.000495805
0.000439463
0.000394562
0.000357974
0.000327451
0.000301489
0.000279048
0.000259395
0.000241998
0.000226466
0.000212498
0.000199861
0.000188394
0.000177931
0.000168326
0.00015951
0.000150856
0.000809324
0.000713906
0.000631505
0.000562574
0.000505377
0.000457786
0.000417842
0.000383941
0.000354806
0.000329453
0.000307161
0.000287386
0.000269711
0.000253809
0.000239423
0.000226348
0.000214406
0.000203427
0.000193196
0.000183063
0.000814958
0.000730426
0.000654634
0.000589044
0.000533067
0.000485439
0.000444765
0.000409795
0.000379474
0.000352937
0.0003295
0.000308641
0.000289958
0.000273129
0.000257893
0.00024403
0.000231361
0.000219698
0.000208777
0.000197926
0.000814958
0.000730426
0.000654634
0.000589044
0.000533067
0.000485439
0.000444764
0.000409794
0.000379471
0.000352934
0.000329495
0.000308634
0.000289948
0.000273113
0.000257869
0.000243997
0.000231315
0.000219638
0.000208711
0.000197979
0.000809324
0.000713906
0.000631504
0.000562574
0.000505377
0.000457785
0.00041784
0.000383939
0.000354803
0.000329448
0.000307153
0.000287374
0.000269692
0.000253781
0.000239384
0.000226293
0.000214328
0.000203321
0.000193066
0.00018305
0.000786827
0.000662293
0.000567974
0.000495805
0.000439463
0.000394562
0.000357974
0.000327451
0.000301489
0.000279048
0.000259395
0.000241998
0.000226464
0.000212495
0.000199865
0.000188396
0.000177933
0.000168327
0.000159513
0.000150871
0.000663952
0.000488458
0.000404619
0.000347248
0.000305036
0.000272128
0.000245319
0.00022289
0.000203758
0.000187183
0.000172661
0.000159824
0.000148387
0.000138139
0.000128908
0.000120678
0.000113252
0.000106438
0.000100618
9.46886e-05
0.000160509
0.00010736
8.07408e-05
6.55975e-05
5.54896e-05
4.83026e-05
4.3131e-05
3.90792e-05
3.57393e-05
3.29499e-05
3.05785e-05
2.85359e-05
2.67755e-05
2.52483e-05
2.39119e-05
2.27348e-05
2.16962e-05
2.07777e-05
1.99658e-05
1.92812e-05
0.000107685
6.77183e-05
5.06311e-05
4.14159e-05
3.54048e-05
3.10366e-05
2.77137e-05
2.50816e-05
2.29334e-05
2.11505e-05
1.96503e-05
1.83709e-05
1.72624e-05
1.62924e-05
1.54482e-05
1.47189e-05
1.40816e-05
1.35204e-05
1.30391e-05
1.26744e-05
0.000528907
0.000369984
0.000305097
0.000261371
0.000228528
0.000202475
0.000181114
0.000163073
0.000147539
0.000133983
0.000122048
0.000111465
0.000102135
9.3862e-05
8.64543e-05
7.96552e-05
7.34494e-05
6.77575e-05
6.36369e-05
5.72232e-05
0.000663952
0.000488458
0.000404619
0.000347248
0.000305036
0.000272128
0.000245319
0.000222891
0.000203758
0.000187184
0.000172661
0.000159825
0.000148389
0.000138139
0.000128909
0.00012068
0.000113256
0.000106445
0.000100615
9.46994e-05
0.00071288
0.000556432
0.000466397
0.000402355
0.000354426
0.000317051
0.000286676
0.000261258
0.000239586
0.000220853
0.000204455
0.000189967
0.000177072
0.000165512
0.000155093
0.00014565
0.000137067
0.000129226
0.000122054
0.000115951
0.000728543
0.000588231
0.000496002
0.000429132
0.00037851
0.000338935
0.00030682
0.000279976
0.000257076
0.000237261
0.000219917
0.000204589
0.000190935
0.000178692
0.000167659
0.000157644
0.00014853
0.000140198
0.000132538
0.000125578
0.000728543
0.000588231
0.000496002
0.000429132
0.00037851
0.000338935
0.000306819
0.000279974
0.000257074
0.000237257
0.000219912
0.000204581
0.000190923
0.000178672
0.000167624
0.000157598
0.000148465
0.000140107
0.000132414
0.000125424
0.00071288
0.000556432
0.000466397
0.000402355
0.000354426
0.00031705
0.000286674
0.000261255
0.000239581
0.000220845
0.000204443
0.000189949
0.000177045
0.000165469
0.000155023
0.000145554
0.000136931
0.000129033
0.000121783
0.000115373
0.000663952
0.000488458
0.000404619
0.000347248
0.000305035
0.000272127
0.000245318
0.000222888
0.000203755
0.000187178
0.000172653
0.000159812
0.000148369
0.000138104
0.000128861
0.000120611
0.000113155
0.0001063
0.000100398
9.45513e-05
0.000528907
0.000369984
0.000305097
0.000261371
0.000228528
0.000202475
0.000181114
0.000163073
0.000147539
0.000133983
0.000122048
0.000111465
0.000102134
9.38577e-05
8.64577e-05
7.96569e-05
7.345e-05
6.77575e-05
6.36376e-05
5.722e-05
0.000107685
6.77183e-05
5.06311e-05
4.14159e-05
3.54048e-05
3.10367e-05
2.77137e-05
2.50816e-05
2.29334e-05
2.11506e-05
1.96505e-05
1.83712e-05
1.7263e-05
1.62937e-05
1.54503e-05
1.47228e-05
1.4089e-05
1.35347e-05
1.30641e-05
1.26773e-05
4.5356e-05
2.3208e-05
1.65396e-05
1.36493e-05
1.18966e-05
1.06844e-05
9.76072e-06
9.05706e-06
8.49465e-06
8.03123e-06
7.64038e-06
7.31193e-06
7.02417e-06
6.75987e-06
6.52777e-06
6.32577e-06
6.14915e-06
5.99432e-06
5.86955e-06
5.74758e-06
0.000107685
6.77183e-05
5.06311e-05
4.14159e-05
3.54048e-05
3.10367e-05
2.77137e-05
2.50816e-05
2.29334e-05
2.11506e-05
1.96505e-05
1.83712e-05
1.72631e-05
1.62938e-05
1.54502e-05
1.47228e-05
1.4089e-05
1.35346e-05
1.30641e-05
1.26774e-05
0.000160509
0.00010736
8.07408e-05
6.55975e-05
5.54896e-05
4.83026e-05
4.3131e-05
3.90791e-05
3.57393e-05
3.29499e-05
3.05785e-05
2.85359e-05
2.67755e-05
2.52484e-05
2.39118e-05
2.27347e-05
2.16962e-05
2.07778e-05
1.99659e-05
1.92812e-05
0.000198681
0.0001383
0.000105187
8.55269e-05
7.25013e-05
6.28902e-05
5.60612e-05
5.07594e-05
4.63883e-05
4.27222e-05
3.96259e-05
3.69563e-05
3.46347e-05
3.26051e-05
3.08215e-05
2.92472e-05
2.78512e-05
2.66087e-05
2.55002e-05
2.45216e-05
0.000218609
0.000155003
0.000118661
9.65069e-05
8.18824e-05
7.08356e-05
6.30857e-05
5.71437e-05
5.22487e-05
4.80968e-05
4.45835e-05
4.15735e-05
3.89547e-05
3.66625e-05
3.46449e-05
3.28602e-05
3.12739e-05
2.98585e-05
2.85981e-05
2.75423e-05
0.000218609
0.000155003
0.000118661
9.65069e-05
8.18823e-05
7.08355e-05
6.30856e-05
5.71435e-05
5.22485e-05
4.80964e-05
4.4583e-05
4.15727e-05
3.89535e-05
3.66608e-05
3.46425e-05
3.28561e-05
3.12674e-05
2.9849e-05
2.85866e-05
2.75384e-05
0.000198681
0.0001383
0.000105187
8.55269e-05
7.25012e-05
6.28901e-05
5.6061e-05
5.07591e-05
4.63878e-05
4.27215e-05
3.96248e-05
3.69547e-05
3.46323e-05
3.26016e-05
3.0816e-05
2.92381e-05
2.78369e-05
2.65872e-05
2.54771e-05
2.46082e-05
0.000160509
0.00010736
8.07408e-05
6.55975e-05
5.54895e-05
4.83025e-05
4.31309e-05
3.9079e-05
3.5739e-05
3.29494e-05
3.05777e-05
2.85346e-05
2.67735e-05
2.52453e-05
2.39067e-05
2.27263e-05
2.16825e-05
2.07567e-05
1.99415e-05
1.92936e-05
0.000107685
6.77183e-05
5.06311e-05
4.14159e-05
3.54048e-05
3.10366e-05
2.77137e-05
2.50816e-05
2.29333e-05
2.11505e-05
1.96503e-05
1.83709e-05
1.72624e-05
1.62924e-05
1.54481e-05
1.47188e-05
1.40816e-05
1.35204e-05
1.30392e-05
1.26747e-05
4.5356e-05
2.3208e-05
1.65396e-05
1.36493e-05
1.18966e-05
1.06844e-05
9.76073e-06
9.05706e-06
8.49465e-06
8.03122e-06
7.64039e-06
7.31192e-06
7.02417e-06
6.75988e-06
6.52775e-06
6.32577e-06
6.14916e-06
5.99433e-06
5.86962e-06
5.74773e-06
5.06231e-06
4.82947e-06
4.63614e-06
4.50807e-06
4.41541e-06
4.34272e-06
4.27501e-06
4.2126e-06
4.15496e-06
4.10191e-06
4.05749e-06
4.01588e-06
3.97721e-06
3.93867e-06
3.90263e-06
3.8667e-06
3.83379e-06
3.80077e-06
3.77006e-06
3.7407e-06
3.71141e-06
3.68389e-06
3.65696e-06
3.63201e-06
3.60764e-06
3.58367e-06
3.56027e-06
3.53676e-06
3.51356e-06
3.49041e-06
3.46835e-06
3.44612e-06
3.42404e-06
3.40148e-06
3.37813e-06
3.35879e-06
3.33884e-06
3.31836e-06
3.30056e-06
3.27019e-06
1.08064e-05
1.02451e-05
9.82709e-06
9.52325e-06
9.27217e-06
9.05254e-06
8.86457e-06
8.69511e-06
8.53997e-06
8.3956e-06
8.27473e-06
8.16176e-06
8.05933e-06
7.96519e-06
7.87438e-06
7.78467e-06
7.70264e-06
7.62448e-06
7.55123e-06
7.48241e-06
7.4148e-06
7.35098e-06
7.29032e-06
7.23374e-06
7.18072e-06
7.12947e-06
7.07926e-06
7.02985e-06
6.98152e-06
6.93285e-06
6.88563e-06
6.83874e-06
6.79297e-06
6.74794e-06
6.70169e-06
6.65812e-06
6.61646e-06
6.57481e-06
6.53491e-06
6.48865e-06
1.6199e-05
1.54807e-05
1.48821e-05
1.43741e-05
1.39586e-05
1.35844e-05
1.32513e-05
1.29569e-05
1.26967e-05
1.2463e-05
1.22494e-05
1.20591e-05
1.18835e-05
1.17265e-05
1.15684e-05
1.14216e-05
1.12865e-05
1.11614e-05
1.104e-05
1.09249e-05
1.08147e-05
1.07027e-05
1.05957e-05
1.0498e-05
1.04089e-05
1.03244e-05
1.02414e-05
1.016e-05
1.00809e-05
1.00027e-05
9.92712e-06
9.85172e-06
9.77942e-06
9.70775e-06
9.6363e-06
9.57015e-06
9.50417e-06
9.43863e-06
9.37558e-06
9.30938e-06
2.06168e-05
1.97181e-05
1.90093e-05
1.83806e-05
1.78176e-05
1.73112e-05
1.68551e-05
1.64454e-05
1.60745e-05
1.57383e-05
1.54321e-05
1.51536e-05
1.4895e-05
1.46582e-05
1.44379e-05
1.42331e-05
1.40393e-05
1.38636e-05
1.36784e-05
1.35044e-05
1.33463e-05
1.31958e-05
1.30503e-05
1.29112e-05
1.27804e-05
1.26572e-05
1.25401e-05
1.24273e-05
1.23206e-05
1.22154e-05
1.2114e-05
1.20078e-05
1.19141e-05
1.18159e-05
1.17268e-05
1.16344e-05
1.15481e-05
1.14633e-05
1.13819e-05
1.12987e-05
2.3288e-05
2.24031e-05
2.16046e-05
2.0882e-05
2.0231e-05
1.96473e-05
1.91225e-05
1.86481e-05
1.8215e-05
1.78185e-05
1.7453e-05
1.71151e-05
1.68033e-05
1.65118e-05
1.62424e-05
1.59901e-05
1.57527e-05
1.55286e-05
1.53191e-05
1.51186e-05
1.49412e-05
1.47514e-05
1.45719e-05
1.4404e-05
1.42489e-05
1.41011e-05
1.39626e-05
1.38299e-05
1.37057e-05
1.35833e-05
1.34689e-05
1.33431e-05
1.32419e-05
1.3123e-05
1.30206e-05
1.29091e-05
1.28079e-05
1.27134e-05
1.2621e-05
1.25318e-05
2.39214e-05
2.30714e-05
2.22817e-05
2.1561e-05
2.09072e-05
2.03169e-05
1.97837e-05
1.92992e-05
1.88527e-05
1.84374e-05
1.80518e-05
1.76935e-05
1.73626e-05
1.70484e-05
1.67549e-05
1.6481e-05
1.62263e-05
1.59898e-05
1.57682e-05
1.55603e-05
1.53663e-05
1.51831e-05
1.50155e-05
1.48516e-05
1.46808e-05
1.45166e-05
1.43666e-05
1.42274e-05
1.41008e-05
1.39752e-05
1.38578e-05
1.37363e-05
1.36458e-05
1.34818e-05
1.33959e-05
1.32737e-05
1.31684e-05
1.30717e-05
1.29752e-05
1.28814e-05
2.25655e-05
2.17737e-05
2.10573e-05
2.04095e-05
1.98237e-05
1.9293e-05
1.88095e-05
1.8364e-05
1.79483e-05
1.75602e-05
1.71983e-05
1.68606e-05
1.65465e-05
1.62508e-05
1.59752e-05
1.57183e-05
1.54788e-05
1.52561e-05
1.50502e-05
1.48586e-05
1.46803e-05
1.45123e-05
1.4352e-05
1.42013e-05
1.40402e-05
1.38904e-05
1.37545e-05
1.36264e-05
1.35074e-05
1.33868e-05
1.32742e-05
1.31498e-05
1.30654e-05
1.29177e-05
1.28313e-05
1.27223e-05
1.26191e-05
1.25215e-05
1.24231e-05
1.23267e-05
1.98514e-05
1.89703e-05
1.83119e-05
1.7764e-05
1.72801e-05
1.68423e-05
1.6436e-05
1.60565e-05
1.57025e-05
1.53725e-05
1.5065e-05
1.47779e-05
1.45114e-05
1.42656e-05
1.40369e-05
1.38239e-05
1.36274e-05
1.34447e-05
1.32746e-05
1.31159e-05
1.29701e-05
1.28277e-05
1.26869e-05
1.25527e-05
1.24313e-05
1.23129e-05
1.2202e-05
1.20939e-05
1.19866e-05
1.18776e-05
1.17729e-05
1.16751e-05
1.15851e-05
1.14925e-05
1.14004e-05
1.13057e-05
1.12055e-05
1.11141e-05
1.10234e-05
1.09326e-05
1.55917e-05
1.48089e-05
1.43047e-05
1.39039e-05
1.35496e-05
1.32224e-05
1.29179e-05
1.26361e-05
1.23751e-05
1.21338e-05
1.19151e-05
1.17105e-05
1.15281e-05
1.13574e-05
1.12004e-05
1.10451e-05
1.08905e-05
1.07569e-05
1.06305e-05
1.05146e-05
1.04027e-05
1.0298e-05
1.01973e-05
1.00981e-05
1.00077e-05
9.91867e-06
9.83517e-06
9.75332e-06
9.67622e-06
9.59956e-06
9.52654e-06
9.45385e-06
9.38347e-06
9.31234e-06
9.24265e-06
9.16525e-06
9.08619e-06
9.0156e-06
8.94792e-06
8.87719e-06
1.03573e-05
9.86847e-06
9.52255e-06
9.28349e-06
9.0748e-06
8.88888e-06
8.70868e-06
8.54302e-06
8.39095e-06
8.2519e-06
8.12489e-06
8.01337e-06
7.9169e-06
7.80893e-06
7.70938e-06
7.61594e-06
7.52728e-06
7.4447e-06
7.36669e-06
7.29397e-06
7.22394e-06
7.15859e-06
7.0981e-06
7.0416e-06
6.9883e-06
6.93587e-06
6.8851e-06
6.83552e-06
6.78788e-06
6.73989e-06
6.69321e-06
6.64695e-06
6.60156e-06
6.5561e-06
6.51097e-06
6.46141e-06
6.41792e-06
6.37447e-06
6.33392e-06
6.28584e-06
5.06189e-06
4.82902e-06
4.6346e-06
4.50705e-06
4.41529e-06
4.34052e-06
4.27396e-06
4.21238e-06
4.15564e-06
4.10365e-06
4.05813e-06
4.01716e-06
3.97882e-06
3.93949e-06
3.90252e-06
3.86706e-06
3.83363e-06
3.80111e-06
3.77047e-06
3.74085e-06
3.71192e-06
3.68384e-06
3.65735e-06
3.6321e-06
3.60812e-06
3.58388e-06
3.56059e-06
3.53706e-06
3.51382e-06
3.49071e-06
3.46871e-06
3.44654e-06
3.42455e-06
3.40228e-06
3.38021e-06
3.35849e-06
3.33853e-06
3.31769e-06
3.29934e-06
3.26738e-06
1.03554e-05
9.869e-06
9.52781e-06
9.28969e-06