/*--------------------------------*- C++ -*----------------------------------*\
| =========                 |                                                 |
| \\      /  F ield         | OpenFOAM: The Open Source CFD Toolbox           |
|  \\    /   O peration     | Version:  2212                                  |
|   \\  /    A nd           | Website:  www.openfoam.com                      |
|    \\/     M anipulation  |                                                 |
\*---------------------------------------------------------------------------*/
FoamFile
{
    version     2.0;
    format      ascii;
    arch        "LSB;label=32;scalar=64";
    class       volScalarField;
    location    "1.7";
    object      p;
}
// * * * * * * * * * * * * * * * * * * * * * * * * * * * * * * * * * * * * * //

dimensions      [0 2 -2 0 0 0 0];

internalField   nonuniform List<scalar> 
6840
(
0.0178587
0.0107443
0.00845282
0.00791499
0.00764064
0.00741844
0.00723184
0.00706546
0.00690439
0.00674509
0.00658767
0.00643208
0.00627754
0.00612301
0.00596855
0.00581523
0.00566316
0.00550757
0.00533777
0.00513156
0.0106799
0.00994604
0.00885315
0.00818719
0.00778461
0.00751091
0.00729979
0.00711366
0.0069394
0.00677233
0.00661
0.00645082
0.00629359
0.00613782
0.00598381
0.00583229
0.00568362
0.00553628
0.00538989
0.0052337
0.0103316
0.00948011
0.00871584
0.00815672
0.00778058
0.00751257
0.00729694
0.00710408
0.00692575
0.00675741
0.00659425
0.00643413
0.00627667
0.00612193
0.00597003
0.00582115
0.00567595
0.00553593
0.00540431
0.00529246
0.00992232
0.00915959
0.00854083
0.00808951
0.00774553
0.00747649
0.00725685
0.007068
0.00690011
0.00674259
0.0065868
0.00643132
0.00627691
0.00612426
0.00597385
0.00582626
0.00568243
0.00554366
0.00541127
0.00529336
0.00978808
0.00904689
0.00845872
0.00805058
0.0077286
0.00746182
0.00724018
0.00704936
0.0068783
0.00672111
0.00657043
0.0064193
0.00626675
0.00611442
0.00596354
0.00581479
0.00566879
0.00552638
0.00538833
0.00525898
0.00978807
0.00904688
0.0084587
0.00805056
0.00772856
0.00746176
0.00724009
0.00704921
0.00687805
0.00672071
0.00656979
0.00641827
0.0062651
0.00611179
0.00595935
0.00580815
0.00565834
0.00551009
0.00536357
0.00522036
0.0099223
0.00915956
0.00854079
0.00808945
0.00774545
0.00747635
0.00725663
0.00706764
0.00689951
0.00674161
0.00658521
0.00642876
0.00627279
0.00611765
0.00596326
0.00580927
0.00565516
0.0055002
0.00534305
0.00518165
0.0103316
0.00948008
0.00871581
0.00815667
0.00778049
0.00751243
0.00729671
0.0071037
0.00692513
0.00675639
0.00659257
0.00643139
0.0062722
0.00611465
0.00595815
0.00580165
0.00564353
0.0054812
0.0053099
0.00511495
0.0106799
0.00994603
0.00885314
0.00818716
0.00778457
0.00751084
0.00729966
0.00711344
0.00693903
0.00677171
0.00660899
0.00644916
0.00629083
0.00613315
0.00597602
0.00581929
0.00566162
0.00549798
0.00531989
0.00509351
0.0178587
0.0107443
0.00845282
0.007915
0.00764065
0.00741845
0.00723185
0.00706548
0.0069044
0.0067451
0.00658769
0.00643209
0.00627755
0.00612301
0.00596854
0.00581521
0.00566314
0.00550753
0.00533768
0.00513138
0.0106799
0.00994602
0.00885313
0.00818715
0.00778456
0.00751082
0.00729965
0.00711342
0.00693901
0.0067717
0.00660897
0.00644914
0.00629081
0.00613314
0.00597602
0.00581929
0.00566162
0.00549799
0.00531993
0.00509366
0.0099633
0.0099316
0.00920339
0.00849289
0.00804656
0.00773064
0.0074718
0.00724423
0.0070398
0.00685167
0.00667434
0.00650428
0.00633876
0.00617616
0.00601605
0.00585868
0.0057037
0.00555088
0.00540904
0.0052896
0.00903783
0.00916403
0.00886116
0.00844496
0.00807784
0.00775925
0.00748077
0.00724045
0.00702808
0.00683389
0.00665116
0.00647678
0.00630894
0.00614628
0.00598788
0.00583356
0.00568377
0.00554052
0.0054083
0.00529707
0.00861946
0.00866297
0.00849741
0.00823449
0.00795413
0.00768281
0.00743183
0.0072055
0.00700254
0.00681617
0.00663962
0.00646977
0.00630509
0.00614474
0.00598853
0.00583657
0.00568917
0.00554761
0.00541565
0.00529601
0.00840344
0.00842527
0.00829807
0.00808055
0.00784811
0.00761892
0.00739607
0.00718287
0.00698201
0.00679457
0.00661802
0.0064489
0.00628549
0.00612672
0.00597172
0.00582009
0.00567176
0.00552724
0.00538878
0.00525617
0.00840343
0.00842525
0.00829804
0.00808051
0.00784806
0.00761884
0.00739596
0.00718269
0.00698173
0.00679412
0.0066173
0.00644774
0.00628366
0.00612386
0.00596727
0.0058132
0.00566113
0.00551093
0.0053627
0.00521407
0.00861943
0.00866293
0.00849736
0.00823442
0.00795403
0.00768266
0.0074316
0.00720514
0.00700196
0.00681519
0.00663798
0.00646712
0.00630092
0.00613828
0.00597858
0.00582115
0.00566527
0.00551065
0.00535753
0.00520356
0.00903782
0.00916401
0.00886113
0.00844492
0.00807778
0.00775915
0.00748061
0.00724018
0.00702762
0.00683312
0.00664993
0.0064748
0.00630577
0.00614116
0.00597968
0.00582049
0.00566307
0.00550786
0.00535737
0.00521535
0.00996331
0.00993161
0.00920339
0.0084929
0.00804657
0.00773065
0.00747181
0.00724424
0.00703981
0.00685168
0.00667435
0.00650429
0.00633878
0.00617617
0.00601605
0.00585867
0.00570369
0.00555085
0.00540898
0.00528948
0.0106799
0.00994605
0.00885316
0.00818719
0.00778462
0.00751092
0.0072998
0.00711367
0.00693941
0.00677234
0.00661001
0.00645083
0.0062936
0.00613782
0.0059838
0.00583227
0.00568359
0.00553623
0.00538978
0.00523347
0.0103316
0.00948007
0.0087158
0.00815666
0.00778048
0.00751242
0.0072967
0.00710368
0.00692511
0.00675637
0.00659255
0.00643137
0.00627218
0.00611464
0.00595813
0.00580162
0.0056435
0.00548116
0.00530982
0.0051148
0.00903781
0.009164
0.00886113
0.00844492
0.00807777
0.00775914
0.0074806
0.00724016
0.0070276
0.00683311
0.00664992
0.00647478
0.00630576
0.00614114
0.00597966
0.00582048
0.00566306
0.00550783
0.00535729
0.00521515
0.00846832
0.0085693
0.00845775
0.0082323
0.00797657
0.0077182
0.00745987
0.00721837
0.00700068
0.00680074
0.00661362
0.0064363
0.00626638
0.0061019
0.00594166
0.00578493
0.00563124
0.00548056
0.00533466
0.00519051
0.00810033
0.00816839
0.00811602
0.00796906
0.00778423
0.00757915
0.00736853
0.00716173
0.00696081
0.00676872
0.00658667
0.00641288
0.00624542
0.00608298
0.00592479
0.00577025
0.00561876
0.00546982
0.00532421
0.00517842
0.00791723
0.00798167
0.00795219
0.00782735
0.00766833
0.00749463
0.00730831
0.00712028
0.00693415
0.00675077
0.00657174
0.0063981
0.00623021
0.00606744
0.00590916
0.00575507
0.00560407
0.00545523
0.00530871
0.0051605
0.00791722
0.00798165
0.00795218
0.00782732
0.00766829
0.00749457
0.00730823
0.00712016
0.00693396
0.00675048
0.0065713
0.00639742
0.00622921
0.00606598
0.00590705
0.00575206
0.0055999
0.00544981
0.00530245
0.00515368
0.00810031
0.00816838
0.00811599
0.00796902
0.00778417
0.00757907
0.00736841
0.00716154
0.00696051
0.00676824
0.0065859
0.00641168
0.00624359
0.00608024
0.0059207
0.00576421
0.00560999
0.00545765
0.00530762
0.00515422
0.00846833
0.00856931
0.00845775
0.0082323
0.00797658
0.00771821
0.00745989
0.00721839
0.0070007
0.00680075
0.00661364
0.00643632
0.0062664
0.00610193
0.00594169
0.00578496
0.00563128
0.00548062
0.00533477
0.0051907
0.00903784
0.00916403
0.00886117
0.00844497
0.00807785
0.00775926
0.00748078
0.00724046
0.00702809
0.00683391
0.00665118
0.00647679
0.00630896
0.0061463
0.0059879
0.00583357
0.00568378
0.00554052
0.0054083
0.00529707
0.0103316
0.00948011
0.00871585
0.00815673
0.00778058
0.00751258
0.00729695
0.00710408
0.00692576
0.00675742
0.00659427
0.00643415
0.00627668
0.00612194
0.00597002
0.00582115
0.00567594
0.0055359
0.00540425
0.00529231
0.00992229
0.00915955
0.00854078
0.00808944
0.00774543
0.00747634
0.00725661
0.00706763
0.0068995
0.0067416
0.0065852
0.00642875
0.00627278
0.00611764
0.00596324
0.00580924
0.0056551
0.00550008
0.00534283
0.0051812
0.00861942
0.00866293
0.00849735
0.00823441
0.00795402
0.00768265
0.00743159
0.00720513
0.00700195
0.00681518
0.00663797
0.00646711
0.00630091
0.00613827
0.00597857
0.00582114
0.00566525
0.00551062
0.0053575
0.00520358
0.00810031
0.00816837
0.00811598
0.00796901
0.00778416
0.00757906
0.0073684
0.00716153
0.0069605
0.00676823
0.00658589
0.00641167
0.00624358
0.00608023
0.0059207
0.00576421
0.00560998
0.00545764
0.00530766
0.00515434
0.00780243
0.00786157
0.00784964
0.00775425
0.00761463
0.00744916
0.007269
0.00708457
0.00690068
0.00672046
0.00654554
0.0063758
0.00621067
0.00604959
0.00589201
0.00573738
0.00558505
0.00543484
0.00528758
0.00513754
0.00765131
0.0077142
0.00771796
0.0076443
0.00752417
0.00737776
0.00721484
0.0070434
0.00686925
0.00669572
0.00652468
0.00635701
0.00619304
0.00603269
0.00587572
0.0057218
0.00557034
0.00542148
0.00527672
0.0051292
0.0076513
0.0077142
0.00771795
0.00764429
0.00752416
0.00737775
0.00721482
0.00704336
0.0068692
0.00669565
0.00652456
0.00635685
0.00619281
0.00603237
0.00587527
0.0057212
0.0055696
0.0054207
0.00527631
0.0051294
0.00780244
0.00786158
0.00784964
0.00775426
0.00761464
0.00744916
0.00726901
0.00708458
0.00690069
0.00672047
0.00654555
0.00637581
0.00621069
0.00604961
0.00589204
0.00573741
0.00558509
0.00543489
0.00528766
0.00513764
0.00810034
0.0081684
0.00811602
0.00796907
0.00778424
0.00757916
0.00736854
0.00716175
0.00696082
0.00676874
0.00658669
0.0064129
0.00624545
0.00608302
0.00592484
0.00577031
0.00561884
0.00546994
0.0053244
0.00517872
0.00861946
0.00866297
0.00849741
0.00823449
0.00795413
0.00768282
0.00743184
0.00720551
0.00700256
0.00681619
0.00663964
0.00646979
0.00630512
0.00614477
0.00598857
0.00583661
0.00568922
0.00554768
0.00541575
0.00529618
0.00992233
0.0091596
0.00854083
0.00808951
0.00774553
0.0074765
0.00725686
0.00706801
0.00690012
0.0067426
0.00658681
0.00643134
0.00627693
0.00612428
0.00597387
0.00582628
0.00568244
0.00554367
0.00541127
0.00529332
0.00978806
0.00904687
0.00845869
0.00805055
0.00772855
0.00746175
0.00724008
0.0070492
0.00687805
0.0067207
0.00656979
0.00641827
0.0062651
0.00611179
0.00595934
0.00580813
0.00565831
0.00551004
0.00536348
0.00522023
0.00840342
0.00842525
0.00829803
0.0080805
0.00784805
0.00761883
0.00739595
0.00718268
0.00698173
0.00679412
0.0066173
0.00644774
0.00628366
0.00612386
0.00596728
0.0058132
0.00566112
0.00551093
0.00536273
0.00521419
0.00791722
0.00798165
0.00795217
0.00782731
0.00766828
0.00749456
0.00730822
0.00712015
0.00693396
0.00675047
0.0065713
0.00639742
0.00622921
0.00606598
0.00590706
0.00575206
0.0055999
0.00544983
0.00530249
0.00515379
0.0076513
0.00771419
0.00771795
0.00764429
0.00752415
0.00737774
0.00721482
0.00704336
0.0068692
0.00669564
0.00652456
0.00635684
0.00619281
0.00603237
0.00587527
0.0057212
0.0055696
0.0054207
0.00527631
0.00512942
0.00750849
0.00757801
0.00760012
0.00754757
0.00744631
0.00731536
0.00716542
0.00700442
0.00683793
0.00666963
0.00650192
0.00633623
0.00617332
0.00601351
0.00585683
0.00570308
0.00555181
0.00540317
0.00525844
0.00511644
0.0075085
0.00757801
0.00760012
0.00754757
0.00744631
0.00731536
0.00716542
0.00700442
0.00683793
0.00666963
0.00650192
0.00633623
0.00617332
0.00601352
0.00585683
0.00570309
0.00555182
0.00540318
0.00525845
0.00511645
0.00765131
0.0077142
0.00771796
0.0076443
0.00752417
0.00737777
0.00721485
0.00704341
0.00686926
0.00669573
0.00652469
0.00635702
0.00619306
0.00603271
0.00587574
0.00572182
0.00557037
0.00542152
0.00527676
0.00512927
0.00791724
0.00798167
0.0079522
0.00782735
0.00766833
0.00749463
0.00730832
0.00712029
0.00693416
0.00675078
0.00657176
0.00639812
0.00623024
0.00606747
0.0059092
0.00575512
0.00560413
0.00545531
0.00530883
0.00516066
0.00840345
0.00842528
0.00829807
0.00808055
0.00784811
0.00761892
0.00739608
0.00718288
0.00698202
0.00679459
0.00661804
0.00644892
0.00628552
0.00612675
0.00597175
0.00582014
0.00567181
0.00552732
0.00538888
0.00525633
0.00978808
0.0090469
0.00845872
0.00805059
0.0077286
0.00746182
0.00724019
0.00704937
0.00687831
0.00672112
0.00657045
0.00641931
0.00626677
0.00611445
0.00596357
0.00581481
0.00566881
0.00552639
0.00538833
0.00525897
0.00978807
0.00904688
0.00845871
0.00805057
0.00772859
0.00746181
0.00724018
0.00704936
0.0068783
0.00672111
0.00657044
0.0064193
0.00626676
0.00611444
0.00596356
0.0058148
0.0056688
0.00552638
0.00538832
0.00525895
0.00840344
0.00842526
0.00829806
0.00808054
0.0078481
0.00761891
0.00739607
0.00718287
0.00698201
0.00679457
0.00661803
0.00644891
0.00628551
0.00612674
0.00597173
0.00582011
0.00567177
0.00552726
0.00538879
0.00525618
0.00791723
0.00798166
0.00795219
0.00782734
0.00766832
0.00749462
0.00730831
0.00712028
0.00693415
0.00675077
0.00657175
0.0063981
0.00623022
0.00606745
0.00590917
0.00575508
0.00560408
0.00545524
0.00530872
0.00516052
0.0076513
0.00771419
0.00771795
0.0076443
0.00752416
0.00737776
0.00721484
0.0070434
0.00686925
0.00669572
0.00652468
0.00635701
0.00619305
0.0060327
0.00587572
0.0057218
0.00557035
0.00542148
0.00527673
0.00512923
0.00750849
0.007578
0.00760012
0.00754757
0.00744631
0.00731536
0.00716542
0.00700442
0.00683792
0.00666963
0.00650192
0.00633623
0.00617332
0.00601351
0.00585683
0.00570308
0.00555181
0.00540317
0.00525844
0.00511645
0.0075085
0.00757801
0.00760012
0.00754757
0.00744631
0.00731536
0.00716542
0.00700442
0.00683793
0.00666963
0.00650192
0.00633623
0.00617332
0.00601351
0.00585683
0.00570308
0.00555182
0.00540318
0.00525845
0.00511646
0.00765131
0.0077142
0.00771795
0.0076443
0.00752416
0.00737775
0.00721482
0.00704337
0.0068692
0.00669565
0.00652457
0.00635685
0.00619282
0.00603237
0.00587528
0.00572121
0.00556962
0.00542072
0.00527633
0.00512944
0.00791723
0.00798166
0.00795218
0.00782733
0.00766829
0.00749457
0.00730824
0.00712016
0.00693397
0.00675049
0.00657131
0.00639744
0.00622922
0.006066
0.00590708
0.00575209
0.00559994
0.00544987
0.00530254
0.00515383
0.00840343
0.00842526
0.00829805
0.00808052
0.00784806
0.00761885
0.00739596
0.0071827
0.00698174
0.00679413
0.00661731
0.00644775
0.00628368
0.00612388
0.0059673
0.00581324
0.00566117
0.00551099
0.00536281
0.00521427
0.00978807
0.00904688
0.0084587
0.00805056
0.00772857
0.00746176
0.00724009
0.00704921
0.00687806
0.00672071
0.0065698
0.00641828
0.00626512
0.00611181
0.00595937
0.00580816
0.00565835
0.00551009
0.00536356
0.00522034
0.00992231
0.00915958
0.00854082
0.0080895
0.00774552
0.00747648
0.00725684
0.007068
0.00690011
0.00674259
0.0065868
0.00643133
0.00627692
0.00612428
0.00597388
0.0058263
0.00568246
0.00554369
0.00541131
0.00529339
0.00861945
0.00866296
0.0084974
0.00823448
0.00795412
0.0076828
0.00743182
0.0072055
0.00700254
0.00681618
0.00663963
0.00646978
0.00630511
0.00614476
0.00598856
0.00583661
0.0056892
0.00554765
0.00541567
0.00529599
0.00810032
0.00816838
0.00811601
0.00796905
0.00778423
0.00757915
0.00736853
0.00716173
0.00696081
0.00676872
0.00658668
0.00641289
0.00624543
0.006083
0.00592481
0.00577027
0.00561878
0.00546983
0.00532421
0.00517841
0.00780243
0.00786157
0.00784963
0.00775425
0.00761463
0.00744915
0.007269
0.00708457
0.00690068
0.00672046
0.00654554
0.0063758
0.00621068
0.00604959
0.00589202
0.00573739
0.00558506
0.00543485
0.00528759
0.00513756
0.0076513
0.00771419
0.00771795
0.00764429
0.00752415
0.00737774
0.00721481
0.00704336
0.00686919
0.00669564
0.00652456
0.00635684
0.00619281
0.00603236
0.00587527
0.00572119
0.0055696
0.0054207
0.00527631
0.00512941
0.00765131
0.0077142
0.00771796
0.0076443
0.00752417
0.00737776
0.00721484
0.0070434
0.00686925
0.00669572
0.00652467
0.00635701
0.00619304
0.00603269
0.00587572
0.0057218
0.00557034
0.00542148
0.00527673
0.00512924
0.00780243
0.00786158
0.00784964
0.00775425
0.00761464
0.00744916
0.007269
0.00708457
0.00690069
0.00672046
0.00654554
0.0063758
0.00621068
0.00604959
0.00589202
0.00573739
0.00558506
0.00543486
0.00528762
0.00513761
0.00810032
0.00816838
0.00811599
0.00796902
0.00778418
0.00757907
0.00736841
0.00716154
0.00696051
0.00676824
0.0065859
0.00641168
0.00624359
0.00608024
0.00592071
0.00576422
0.00561
0.00545767
0.00530769
0.00515437
0.00861943
0.00866294
0.00849737
0.00823442
0.00795403
0.00768267
0.0074316
0.00720514
0.00700196
0.00681519
0.00663799
0.00646712
0.00630092
0.00613829
0.00597859
0.00582117
0.00566529
0.00551067
0.00535756
0.00520364
0.0099223
0.00915957
0.00854079
0.00808946
0.00774545
0.00747636
0.00725663
0.00706764
0.00689951
0.00674161
0.00658521
0.00642876
0.00627279
0.00611766
0.00596327
0.00580928
0.00565515
0.00550016
0.00534294
0.00518139
0.0103316
0.0094801
0.00871583
0.00815671
0.00778057
0.00751256
0.00729694
0.00710407
0.00692575
0.00675742
0.00659426
0.00643415
0.00627669
0.00612196
0.00597006
0.00582119
0.005676
0.00553599
0.00540438
0.00529254
0.00903782
0.00916402
0.00886115
0.00844495
0.00807784
0.00775924
0.00748077
0.00724045
0.00702808
0.00683389
0.00665117
0.00647679
0.00630896
0.0061463
0.00598791
0.0058336
0.00568382
0.00554057
0.00540834
0.00529708
0.00846832
0.00856929
0.00845774
0.00823229
0.00797656
0.0077182
0.00745987
0.00721837
0.00700068
0.00680074
0.00661363
0.00643631
0.0062664
0.00610192
0.00594168
0.00578496
0.00563127
0.00548058
0.00533466
0.00519045
0.0081003
0.00816836
0.00811598
0.00796901
0.00778416
0.00757906
0.0073684
0.00716153
0.0069605
0.00676823
0.00658589
0.00641167
0.00624358
0.00608023
0.0059207
0.00576422
0.00560999
0.00545765
0.00530766
0.00515434
0.00791722
0.00798165
0.00795217
0.00782731
0.00766828
0.00749456
0.00730822
0.00712015
0.00693395
0.00675047
0.00657129
0.00639742
0.0062292
0.00606598
0.00590705
0.00575205
0.0055999
0.00544982
0.00530247
0.00515374
0.00791723
0.00798166
0.00795219
0.00782734
0.00766832
0.00749462
0.00730831
0.00712027
0.00693414
0.00675076
0.00657174
0.00639809
0.00623021
0.00606744
0.00590916
0.00575507
0.00560406
0.00545523
0.00530872
0.00516054
0.00810033
0.00816839
0.00811602
0.00796906
0.00778423
0.00757915
0.00736854
0.00716173
0.00696081
0.00676872
0.00658667
0.00641288
0.00624542
0.00608299
0.0059248
0.00577025
0.00561876
0.00546984
0.00532426
0.00517852
0.00846833
0.00856931
0.00845775
0.0082323
0.00797658
0.00771821
0.00745988
0.00721838
0.00700069
0.00680074
0.00661363
0.00643631
0.00626639
0.00610191
0.00594167
0.00578493
0.00563124
0.00548057
0.00533467
0.00519054
0.00903782
0.00916401
0.00886114
0.00844493
0.00807778
0.00775915
0.00748061
0.00724017
0.00702761
0.00683312
0.00664993
0.00647479
0.00630576
0.00614115
0.00597968
0.00582049
0.00566307
0.00550785
0.00535731
0.00521519
0.0103316
0.00948008
0.00871581
0.00815667
0.00778049
0.00751243
0.00729671
0.00710369
0.00692512
0.00675638
0.00659256
0.00643138
0.00627219
0.00611465
0.00595815
0.00580165
0.00564353
0.0054812
0.00530989
0.00511492
0.0106799
0.00994603
0.00885314
0.00818718
0.0077846
0.0075109
0.00729978
0.00711365
0.0069394
0.00677233
0.00661
0.00645083
0.0062936
0.00613785
0.00598385
0.00583234
0.00568368
0.00553636
0.00538999
0.00523385
0.00996329
0.00993159
0.00920338
0.00849289
0.00804655
0.00773064
0.0074718
0.00724423
0.0070398
0.00685167
0.00667434
0.00650429
0.00633878
0.00617619
0.00601609
0.00585873
0.00570377
0.00555096
0.00540915
0.00528973
0.0090378
0.00916399
0.00886112
0.00844491
0.00807777
0.00775914
0.00748059
0.00724016
0.0070276
0.00683311
0.00664992
0.00647479
0.00630577
0.00614116
0.00597969
0.00582051
0.00566311
0.00550789
0.00535737
0.00521522
0.00861941
0.00866292
0.00849735
0.00823441
0.00795402
0.00768265
0.00743159
0.00720512
0.00700194
0.00681517
0.00663797
0.00646711
0.00630091
0.00613828
0.00597858
0.00582116
0.00566528
0.00551066
0.00535755
0.00520363
0.00840342
0.00842525
0.00829803
0.0080805
0.00784804
0.00761883
0.00739594
0.00718268
0.00698172
0.00679411
0.00661729
0.00644772
0.00628364
0.00612385
0.00596726
0.00581319
0.00566112
0.00551093
0.00536274
0.00521419
0.00840344
0.00842527
0.00829806
0.00808054
0.0078481
0.00761891
0.00739607
0.00718286
0.006982
0.00679456
0.00661802
0.00644889
0.00628548
0.00612671
0.0059717
0.00582007
0.00567174
0.00552722
0.00538876
0.00525617
0.00861946
0.00866297
0.00849741
0.00823448
0.00795412
0.00768281
0.00743183
0.0072055
0.00700254
0.00681617
0.00663962
0.00646976
0.00630508
0.00614473
0.00598852
0.00583655
0.00568915
0.00554759
0.00541562
0.00529599
0.00903784
0.00916403
0.00886116
0.00844497
0.00807785
0.00775925
0.00748078
0.00724045
0.00702808
0.00683389
0.00665116
0.00647677
0.00630894
0.00614627
0.00598787
0.00583354
0.00568374
0.00554048
0.00540823
0.005297
0.00996331
0.00993161
0.00920339
0.0084929
0.00804657
0.00773065
0.00747181
0.00724424
0.0070398
0.00685167
0.00667434
0.00650428
0.00633876
0.00617616
0.00601604
0.00585867
0.00570369
0.00555084
0.00540898
0.00528951
0.0106799
0.00994603
0.00885314
0.00818716
0.00778457
0.00751083
0.00729966
0.00711343
0.00693902
0.0067717
0.00660897
0.00644914
0.00629082
0.00613314
0.00597601
0.00581929
0.00566162
0.00549798
0.00531992
0.0050936
0.0178587
0.0107442
0.00845281
0.00791498
0.00764063
0.00741843
0.00723183
0.00706546
0.00690439
0.00674509
0.00658768
0.00643209
0.00627756
0.00612304
0.00596858
0.00581528
0.00566322
0.00550765
0.00533788
0.00513172
0.0106799
0.00994602
0.00885312
0.00818715
0.00778455
0.00751082
0.00729964
0.00711342
0.00693901
0.0067717
0.00660898
0.00644915
0.00629083
0.00613317
0.00597605
0.00581934
0.00566168
0.00549807
0.00532004
0.00509381
0.0103316
0.00948007
0.00871579
0.00815665
0.00778048
0.00751241
0.00729669
0.00710368
0.00692511
0.00675637
0.00659256
0.00643138
0.00627219
0.00611466
0.00595816
0.00580166
0.00564355
0.00548124
0.00530994
0.00511498
0.00992228
0.00915955
0.00854078
0.00808944
0.00774543
0.00747634
0.00725661
0.00706762
0.00689949
0.00674159
0.00658519
0.00642874
0.00627278
0.00611764
0.00596325
0.00580926
0.00565513
0.00550013
0.0053429
0.0051813
0.00978806
0.00904687
0.00845869
0.00805055
0.00772855
0.00746174
0.00724007
0.00704919
0.00687804
0.00672069
0.00656978
0.00641825
0.00626509
0.00611177
0.00595932
0.00580812
0.00565831
0.00551004
0.0053635
0.00522028
0.00978807
0.00904689
0.00845871
0.00805057
0.00772859
0.00746181
0.00724017
0.00704935
0.00687829
0.00672109
0.00657042
0.00641928
0.00626673
0.0061144
0.00596351
0.00581476
0.00566875
0.00552633
0.00538826
0.00525889
0.00992232
0.00915959
0.00854083
0.0080895
0.00774552
0.00747648
0.00725684
0.007068
0.0069001
0.00674258
0.00658679
0.00643131
0.00627689
0.00612424
0.00597383
0.00582624
0.00568239
0.00554361
0.0054112
0.00529326
0.0103316
0.00948011
0.00871585
0.00815672
0.00778058
0.00751257
0.00729694
0.00710407
0.00692575
0.00675741
0.00659425
0.00643413
0.00627666
0.00612191
0.00597
0.00582112
0.00567591
0.00553587
0.00540422
0.00529232
0.0106799
0.00994605
0.00885316
0.00818719
0.00778462
0.00751091
0.00729979
0.00711366
0.0069394
0.00677233
0.00661
0.00645082
0.00629358
0.00613781
0.00598379
0.00583227
0.00568358
0.00553622
0.00538981
0.00523356
0.0178587
0.0107443
0.00845282
0.007915
0.00764065
0.00741845
0.00723184
0.00706547
0.00690439
0.00674509
0.00658767
0.00643208
0.00627754
0.006123
0.00596853
0.00581521
0.00566314
0.00550754
0.00533771
0.00513145
0.005325
0.00491803
0.0046546
0.00451461
0.00438331
0.00424677
0.00410924
0.00397059
0.00383154
0.00369273
0.00355546
0.00341925
0.00328563
0.00315396
0.00302291
0.00289227
0.00276221
0.00263398
0.00250709
0.00238234
0.00225821
0.00213517
0.00201352
0.00189329
0.00177474
0.00165649
0.00153908
0.00142246
0.0013069
0.00119313
0.00107973
0.000965419
0.000851473
0.000739025
0.00062724
0.000514751
0.000400907
0.000285884
0.000173161
5.29224e-05
0.00537461
0.00498272
0.0046637
0.00449855
0.00436506
0.00422938
0.00409284
0.00395591
0.00381823
0.00368032
0.0035436
0.00340769
0.00327402
0.00314193
0.00301011
0.00287896
0.0027489
0.00262086
0.0024943
0.00236973
0.00224598
0.00212372
0.0020035
0.0018847
0.00176676
0.0016487
0.00153137
0.0014149
0.00129961
0.00118619
0.00107323
0.000959339
0.000845699
0.00073352
0.000621995
0.000509673
0.000396166
0.000281997
0.000169413
5.1605e-05
0.00529355
0.00500706
0.00471979
0.00453005
0.00437823
0.00422898
0.00408178
0.00393953
0.00380077
0.00366362
0.00352791
0.00339282
0.00325963
0.00312803
0.00299714
0.00286733
0.00273865
0.00261152
0.00248558
0.00236121
0.00223732
0.00211509
0.00199496
0.00187626
0.00175824
0.00164025
0.00152333
0.00140724
0.00129254
0.00117976
0.00106744
0.000954097
0.000841054
0.000729302
0.0006184
0.000506894
0.000393729
0.000279859
0.0001681
5.11658e-05
0.00520797
0.00498732
0.00475253
0.00456278
0.0044016
0.00424947
0.00410176
0.0039584
0.00381835
0.00368026
0.00354368
0.00340837
0.00327473
0.00314257
0.00301135
0.00288117
0.00275216
0.00262449
0.00249783
0.00237252
0.00224796
0.00212408
0.002001
0.00187932
0.00175943
0.0016409
0.00152361
0.00140734
0.00129268
0.00117925
0.00106623
0.000952493
0.000839427
0.00072792
0.000617727
0.000506964
0.000394074
0.000280295
0.000168752
5.1207e-05
0.00513317
0.00494682
0.00474933
0.00457198
0.00441074
0.00425733
0.00410885
0.00396482
0.00382412
0.00368542
0.00354833
0.00341275
0.00327884
0.00314657
0.00301544
0.0028854
0.00275655
0.00262892
0.00250248
0.00237731
0.00225346
0.00213066
0.00200848
0.00188696
0.00176662
0.00164762
0.00153021
0.00141433
0.0012994
0.00118479
0.00107023
0.000955835
0.000842536
0.000730399
0.000619492
0.000508166
0.000394788
0.000280815
0.000169152
5.10921e-05
0.00508076
0.00491482
0.0047408
0.00457422
0.00441598
0.00426313
0.00411478
0.00397079
0.00383019
0.00369154
0.00355428
0.00341845
0.0032842
0.0031514
0.00301985
0.00288954
0.0027605
0.00263273
0.00250624
0.00238104
0.00225715
0.00213453
0.0020132
0.00189262
0.00177225
0.00165251
0.00153433
0.00141795
0.00130299
0.00118903
0.00107543
0.000962049
0.000849222
0.000736697
0.000625117
0.000513173
0.000399074
0.000284656
0.000171874
5.20461e-05
0.00504475
0.00489296
0.00473251
0.00457201
0.00441602
0.00426494
0.0041182
0.00397531
0.00383498
0.00369594
0.00355813
0.00342179
0.00328694
0.00315334
0.00302105
0.00289034
0.00276119
0.00263345
0.00250706
0.00238204
0.00225838
0.00213597
0.00201492
0.0018945
0.00177422
0.00165461
0.00153689
0.00142085
0.00130622
0.00119297
0.00107962
0.00096587
0.00085298
0.000741265
0.000630684
0.000519552
0.000405549
0.000290318
0.000175781
5.39765e-05
0.00500301
0.00486861
0.00471554
0.00455906
0.00440709
0.0042604
0.00411717
0.0039755
0.00383491
0.00369554
0.00355762
0.00342141
0.00328659
0.00315252
0.00301931
0.00288794
0.00275855
0.00263093
0.00250485
0.00238015
0.00225678
0.0021345
0.00201376
0.00189353
0.0017745
0.0016571
0.00154087
0.00142533
0.00131081
0.00119781
0.00108439
0.000970103
0.000856945
0.000745343
0.000633929
0.000522927
0.000409612
0.00029333
0.000177184
5.48914e-05
0.00501889
0.00486577
0.00469806
0.00454131
0.00439404
0.00424985
0.00410691
0.00396545
0.00382547
0.00368686
0.00354994
0.00341483
0.00328131
0.00314943
0.00301914
0.00289029
0.00276144
0.00263371
0.00250768
0.00238281
0.00225912
0.00213641
0.00201518
0.00189493
0.00177687
0.00165986
0.0015434
0.00142744
0.00131225
0.00119867
0.00108502
0.000970314
0.000856401
0.000744196
0.000632615
0.000521494
0.000407837
0.000291305
0.000175125
5.41048e-05
0.0051592
0.00489332
0.00468632
0.00454572
0.00440839
0.00426547
0.00412254
0.00398091
0.0038407
0.00370156
0.00356378
0.00342812
0.0032953
0.00316405
0.00303399
0.00290481
0.00277536
0.00264683
0.00252001
0.00239466
0.00227047
0.00214701
0.00202447
0.00190312
0.00178386
0.00166562
0.00154796
0.00143117
0.00131535
0.0012014
0.00108772
0.000972862
0.000858375
0.000745434
0.000633358
0.000522045
0.000408756
0.00029235
0.00017619
5.47117e-05
0.00532513
0.00491833
0.00465481
0.00451487
0.00438305
0.00424563
0.00410837
0.00397009
0.00383125
0.00369278
0.00355533
0.00341965
0.00328662
0.00315447
0.00302282
0.00289228
0.00276236
0.00263389
0.00250724
0.00238213
0.00225823
0.00213541
0.00201395
0.00189373
0.00177495
0.00165684
0.00153925
0.00142261
0.00130701
0.00119325
0.0010799
0.000965564
0.00085157
0.000738982
0.000627178
0.00051602
0.000403015
0.000287262
0.000173768
5.27007e-05
0.00515905
0.00489305
0.00468615
0.0045452
0.00440857
0.00426678
0.00412349
0.00398149
0.00384103
0.00370154
0.00356393
0.00342769
0.00329428
0.00316346
0.00303404
0.00290463
0.00277503
0.00264678
0.00251972
0.00239478
0.00227031
0.00214661
0.00202382
0.00190248
0.00178341
0.00166505
0.00154756
0.0014308
0.00131505
0.00120109
0.00108736
0.000972584
0.000858226
0.000745574
0.000633679
0.000520817
0.000406204
0.000290383
0.000175239
5.47725e-05
0.00513572
0.00491408
0.00470535
0.00454671
0.00440542
0.00426252
0.00411981
0.00397935
0.00384052
0.00370278
0.00356646
0.00343075
0.00329706
0.00316494
0.00303379
0.0029031
0.00277338
0.00264543
0.00251875
0.00239414
0.00226966
0.00214651
0.00202451
0.00190366
0.00178455
0.00166556
0.00154772
0.00143063
0.00131473
0.00120078
0.00108698
0.000971842
0.000857153
0.000744159
0.000632572
0.00052041
0.000405813
0.000290002
0.000176054
5.54545e-05
0.00510225
0.00491584
0.00472477
0.00455465
0.00439934
0.00424829
0.00410131
0.00395834
0.00381852
0.00368106
0.00354515
0.00341085
0.00327751
0.00314544
0.00301491
0.00288543
0.00275712
0.00263016
0.00250453
0.00237963
0.0022555
0.00213244
0.00201059
0.00188993
0.00177063
0.00165252
0.0015354
0.00141913
0.00130422
0.00119015
0.00107599
0.000961405
0.000847604
0.000734677
0.000622877
0.000511123
0.000397765
0.000283556
0.000171653
5.39588e-05
0.00508497
0.00491819
0.00474833
0.0045816
0.00442231
0.00426807
0.00411808
0.00397269
0.00383104
0.00369206
0.00355502
0.00342021
0.00328654
0.00315386
0.00302255
0.00289249
0.00276371
0.00263601
0.00250966
0.00238418
0.00226013
0.00213669
0.00201426
0.00189329
0.00177341
0.00165491
0.00153712
0.0014205
0.00130487
0.00118917
0.00107361
0.000959005
0.000845397
0.000732113
0.000619424
0.000506874
0.000394021
0.000281361
0.000170133
5.39884e-05
0.00505764
0.00489677
0.00474011
0.00458285
0.0044287
0.00427705
0.00412812
0.00398247
0.00383994
0.00370013
0.00356253
0.00342687
0.00329263
0.00315953
0.00302782
0.00289751
0.00276848
0.00264062
0.00251403
0.0023885
0.00226403
0.0021404
0.00201798
0.00189692
0.00177686
0.00165811
0.00154067
0.00142418
0.00130824
0.00119236
0.0010765
0.000961644
0.000847517
0.000733257
0.000618742
0.000504289
0.000390766
0.000278591
0.000167777
5.37463e-05
0.00504322
0.00488474
0.00473347
0.00458184
0.00443092
0.00428245
0.00413616
0.00399149
0.0038488
0.00370856
0.00357052
0.00343421
0.00329928
0.00316566
0.00303343
0.00290247
0.00277278
0.00264433
0.00251715
0.00239118
0.00226634
0.0021426