/*--------------------------------*- C++ -*----------------------------------*\
| =========                 |                                                 |
| \\      /  F ield         | OpenFOAM: The Open Source CFD Toolbox           |
|  \\    /   O peration     | Version:  2212                                  |
|   \\  /    A nd           | Website:  www.openfoam.com                      |
|    \\/     M anipulation  |                                                 |
\*---------------------------------------------------------------------------*/
FoamFile
{
    version     2.0;
    format      ascii;
    arch        "LSB;label=32;scalar=64";
    class       surfaceScalarField;
    location    "1.7";
    object      phi;
}
// * * * * * * * * * * * * * * * * * * * * * * * * * * * * * * * * * * * * * //

dimensions      [0 3 -1 0 0 0 0];

oriented        oriented;

internalField   nonuniform List<scalar> 
19019
(
3.32249e-07
1.09681e-09
1.0969e-09
2.7919e-07
2.65295e-08
2.65298e-08
2.49217e-07
1.49864e-08
1.49868e-08
2.29252e-07
9.98202e-09
9.98263e-09
2.14832e-07
7.2098e-09
7.21086e-09
2.03194e-07
5.81812e-09
5.81979e-09
1.93763e-07
4.714e-09
4.71701e-09
1.8599e-07
3.88405e-09
3.88926e-09
1.79331e-07
3.32489e-09
3.33372e-09
1.73486e-07
2.91507e-09
2.92994e-09
1.68286e-07
2.58781e-09
2.61232e-09
1.63615e-07
2.31525e-09
2.35577e-09
1.59376e-07
2.08598e-09
2.15341e-09
1.55491e-07
1.88368e-09
2.00112e-09
1.51914e-07
1.68865e-09
1.88765e-09
1.48631e-07
1.47447e-09
1.80874e-09
1.45678e-07
1.19258e-09
1.76041e-09
1.43308e-07
7.08555e-10
1.66147e-09
1.4172e-07
1.51891e-11
1.57323e-09
-4.74141e-09
-3.2957e-09
6.3138e-07
3.58763e-09
7.40293e-09
6.14563e-07
2.2646e-08
2.07006e-08
5.86443e-07
2.43763e-08
1.87295e-08
5.61722e-07
1.88554e-08
1.58478e-08
5.39612e-07
1.557e-08
1.37503e-08
5.20628e-07
1.35109e-08
1.1291e-08
5.04677e-07
1.19527e-08
8.71226e-09
4.90915e-07
1.08013e-08
6.84485e-09
4.78678e-07
9.95009e-09
5.61154e-09
4.67571e-07
9.24223e-09
4.78026e-09
4.57351e-07
8.62122e-09
4.18662e-09
4.47862e-07
8.06742e-09
3.73658e-09
4.3898e-07
7.57073e-09
3.39705e-09
4.30592e-07
7.12754e-09
3.14391e-09
4.22598e-07
6.73013e-09
2.95344e-09
4.14947e-07
6.34594e-09
2.77942e-09
4.07662e-07
5.9046e-09
2.57253e-09
4.00825e-07
5.2726e-09
2.27305e-09
3.94839e-07
4.50575e-09
1.49591e-09
4.63937e-09
3.8986e-10
8.90375e-07
2.85271e-09
6.33241e-09
8.82485e-07
1.3409e-08
1.71261e-08
8.70357e-07
1.78682e-08
1.86364e-08
8.55108e-07
1.69567e-08
1.71477e-08
8.39975e-07
1.53421e-08
1.53608e-08
8.25524e-07
1.41726e-08
1.37899e-08
8.1175e-07
1.33841e-08
1.23423e-08
7.98747e-07
1.26833e-08
1.11215e-08
7.86659e-07
1.19001e-08
1.01381e-08
7.75491e-07
1.1064e-08
9.34602e-09
7.65098e-07
1.02707e-08
8.74347e-09
7.55319e-07
9.54418e-09
8.30212e-09
7.46006e-07
8.90013e-09
7.98389e-09
7.3704e-07
8.34261e-09
7.75055e-09
7.28329e-07
7.86012e-09
7.58055e-09
7.19778e-07
7.43373e-09
7.46324e-09
7.11251e-07
7.04486e-09
7.38686e-09
7.02515e-07
6.69536e-09
7.31396e-09
6.93064e-07
6.59544e-09
7.36187e-09
8.10107e-09
8.32574e-09
1.07432e-06
1.06505e-09
5.56891e-09
1.06824e-06
5.58744e-09
1.39003e-08
1.06138e-06
8.46563e-09
1.62618e-08
1.05338e-06
9.0424e-09
1.59087e-08
1.0451e-06
8.62193e-09
1.5001e-08
1.03722e-06
8.12732e-09
1.39312e-08
1.02983e-06
7.79795e-09
1.29737e-08
1.02283e-06
7.57296e-09
1.21096e-08
1.01599e-06
7.39946e-09
1.13369e-08
1.00924e-06
7.13511e-09
1.06793e-08
1.00261e-06
6.72871e-09
1.01788e-08
9.96056e-07
6.2857e-09
9.80879e-09
9.89532e-07
5.88242e-09
9.54114e-09
9.82973e-07
5.54032e-09
9.36128e-09
9.76316e-07
5.26398e-09
9.25357e-09
9.69481e-07
5.0591e-09
9.20925e-09
9.62353e-07
4.94093e-09
9.23206e-09
9.54758e-07
4.94727e-09
9.34352e-09
9.46576e-07
5.17938e-09
9.59794e-09
6.26188e-09
1.05329e-08
1.16914e-06
5.82582e-14
4.90659e-09
1.16312e-06
2.58945e-13
1.16086e-08
1.15731e-06
5.35095e-13
1.42753e-08
1.15202e-06
8.74234e-13
1.4333e-08
1.14691e-06
1.41073e-12
1.37285e-08
1.14207e-06
2.31682e-12
1.29658e-08
1.13777e-06
3.83067e-12
1.2095e-08
1.13404e-06
6.28582e-12
1.12987e-08
1.13079e-06
1.03098e-11
1.06343e-08
1.12775e-06
1.6878e-11
1.01642e-08
1.12459e-06
2.75769e-11
9.85524e-09
1.12121e-06
4.49653e-11
9.62784e-09
1.11754e-06
7.32503e-11
9.47687e-09
1.11355e-06
1.19259e-10
9.40647e-09
1.10922e-06
1.93715e-10
9.40096e-09
1.10453e-06
3.13392e-10
9.44375e-09
1.09943e-06
5.04898e-10
9.53236e-09
1.09388e-06
8.12907e-10
9.6806e-09
1.08786e-06
1.29102e-09
9.91181e-09
2.05515e-09
1.03997e-08
1.16914e-06
-1.06493e-09
4.90658e-09
1.16312e-06
-5.58703e-09
1.16085e-08
1.15731e-06
-8.46488e-09
1.42753e-08
1.15202e-06
-9.04117e-09
1.43328e-08
1.14692e-06
-8.61988e-09
1.37281e-08
1.14208e-06
-8.12389e-09
1.29651e-08
1.13778e-06
-7.79222e-09
1.20939e-08
1.13405e-06
-7.56352e-09
1.12969e-08
1.13081e-06
-7.38381e-09
1.06314e-08
1.12778e-06
-7.10956e-09
1.01594e-08
1.12465e-06
-6.68721e-09
9.84774e-09
1.1213e-06
-6.2179e-09
9.61564e-09
1.11768e-06
-5.77127e-09
9.45636e-09
1.11379e-06
-5.35731e-09
9.37202e-09
1.1096e-06
-4.96195e-09
9.34299e-09
1.10513e-06
-4.56035e-09
9.346e-09
1.10038e-06
-4.11534e-09
9.36538e-09
1.09538e-06
-3.56964e-09
9.38773e-09
1.0901e-06
-2.85134e-09
9.41631e-09
-1.9564e-09
9.42513e-09
1.07432e-06
-2.85271e-09
5.56889e-09
1.06824e-06
-1.3409e-08
1.39002e-08
1.06138e-06
-1.78681e-08
1.62616e-08
1.05339e-06
-1.69565e-08
1.59082e-08
1.04511e-06
-1.53417e-08
1.50002e-08
1.03723e-06
-1.41719e-08
1.39299e-08
1.02984e-06
-1.3383e-08
1.29717e-08
1.02286e-06
-1.26815e-08
1.21063e-08
1.01604e-06
-1.18972e-08
1.13316e-08
1.00932e-06
-1.10593e-08
1.06704e-08
1.00273e-06
-1.0263e-08
1.01637e-08
9.96259e-07
-9.53111e-09
9.78379e-09
9.89866e-07
-8.87679e-09
9.499e-09
9.83519e-07
-8.29958e-09
9.28947e-09
9.77206e-07
-7.77913e-09
9.13005e-09
9.70929e-07
-7.27872e-09
8.99471e-09
9.647e-07
-6.73665e-09
8.85039e-09
9.58518e-07
-6.03055e-09
8.64244e-09
9.52393e-07
-5.00234e-09
8.27561e-09
-3.14356e-09
7.43627e-09
8.90375e-07
-3.58769e-09
6.33239e-09
8.82486e-07
-2.26463e-08
1.7126e-08
8.70358e-07
-2.43766e-08
1.86361e-08
8.55111e-07
-1.88559e-08
1.71472e-08
8.3998e-07
-1.5571e-08
1.53601e-08
8.25532e-07
-1.35125e-08
1.37889e-08
8.11763e-07
-1.19554e-08
1.23406e-08
7.98769e-07
-1.08058e-08
1.11186e-08
7.86696e-07
-9.95773e-09
1.01333e-08
7.75554e-07
-9.25506e-09
9.33824e-09
7.65203e-07
-8.64266e-09
8.73044e-09
7.55495e-07
-8.10233e-09
8.27993e-09
7.46298e-07
-7.62643e-09
7.94588e-09
7.37529e-07
-7.21659e-09
7.68631e-09
7.29154e-07
-6.87138e-09
7.46735e-09
7.21185e-07
-6.56754e-09
7.25716e-09
7.13697e-07
-6.24407e-09
6.99488e-09
7.06874e-07
-5.72751e-09
6.51948e-09
7.01134e-07
-4.86939e-09
5.60735e-09
-8.3734e-10
3.14882e-09
6.3138e-07
-1.09688e-09
7.4029e-09
6.14563e-07
-2.65297e-08
2.07004e-08
5.86444e-07
-1.49867e-08
1.87293e-08
5.61723e-07
-9.98259e-09
1.58474e-08
5.39613e-07
-7.21083e-09
1.37498e-08
5.20631e-07
-5.81976e-09
1.129e-08
5.04682e-07
-4.71698e-09
8.71058e-09
4.90923e-07
-3.88923e-09
6.84217e-09
4.78692e-07
-3.3337e-09
5.6071e-09
4.67594e-07
-2.92993e-09
4.77278e-09
4.57391e-07
-2.61233e-09
4.17304e-09
4.4793e-07
-2.35582e-09
3.71359e-09
4.39099e-07
-2.15344e-09
3.35878e-09
4.30792e-07
-2.0012e-09
3.09132e-09
4.22941e-07
-1.88777e-09
2.86729e-09
4.15556e-07
-1.80864e-09
2.62571e-09
4.08779e-07
-1.76014e-09
2.29306e-09
4.02982e-07
-1.66079e-09
1.73005e-09
3.99234e-07
-1.57166e-09
4.49003e-10
3.29919e-09
-6.17501e-09
3.32249e-07
1.09682e-09
2.7919e-07
2.65295e-08
2.49217e-07
1.49864e-08
2.29252e-07
9.98206e-09
2.14832e-07
7.20984e-09
2.03194e-07
5.81815e-09
1.93763e-07
4.71404e-09
1.8599e-07
3.8841e-09
1.79331e-07
3.32493e-09
1.73486e-07
2.91511e-09
1.68286e-07
2.58786e-09
1.63615e-07
2.31528e-09
1.59375e-07
2.08596e-09
1.5549e-07
1.88367e-09
1.51914e-07
1.68874e-09
1.48631e-07
1.47452e-09
1.45678e-07
1.19268e-09
1.43308e-07
7.08672e-10
1.41721e-07
1.52108e-11
-4.7414e-09
6.3138e-07
7.4029e-09
3.58771e-09
6.14563e-07
2.07004e-08
2.26463e-08
5.86444e-07
1.87293e-08
2.43767e-08
5.61723e-07
1.58475e-08
1.88559e-08
5.39613e-07
1.37498e-08
1.5571e-08
5.20631e-07
1.129e-08
1.35125e-08
5.04682e-07
8.71058e-09
1.19554e-08
4.90923e-07
6.84218e-09
1.08058e-08
4.78692e-07
5.60711e-09
9.95766e-09
4.67594e-07
4.7728e-09
9.25494e-09
4.57391e-07
4.17306e-09
8.64247e-09
4.47931e-07
3.71367e-09
8.10204e-09
4.39099e-07
3.35902e-09
7.62598e-09
4.30793e-07
3.09141e-09
7.21641e-09
4.22942e-07
2.86705e-09
6.87149e-09
4.15557e-07
2.62565e-09
6.5676e-09
4.0878e-07
2.29312e-09
6.24426e-09
4.02983e-07
1.73049e-09
5.72857e-09
3.99233e-07
4.50468e-10
4.87257e-09
-6.17422e-09
8.50497e-10
9.23616e-07
7.03396e-09
7.03403e-09
9.25317e-07
1.98502e-08
1.98504e-08
9.17181e-07
2.27972e-08
2.27975e-08
9.04269e-07
2.23031e-08
2.23036e-08
8.90525e-07
2.0622e-08
2.06229e-08
8.77393e-07
1.78553e-08
1.78569e-08
8.65413e-07
1.47003e-08
1.4703e-08
8.54717e-07
1.21895e-08
1.2194e-08
8.45246e-07
1.03409e-08
1.03485e-08
8.36851e-07
8.96766e-09
8.98061e-09
8.29341e-07
7.92399e-09
7.94582e-09
8.22519e-07
7.11801e-09
7.15397e-09
8.16242e-07
6.48705e-09
6.54594e-09
8.10446e-07
5.96756e-09
6.06322e-09
8.05107e-07
5.50166e-09
5.65827e-09
8.00154e-07
5.05253e-09
5.3053e-09
7.95463e-07
4.57652e-09
4.98039e-09
7.90706e-07
4.07098e-09
4.68916e-09
7.85269e-07
3.23168e-09
4.15231e-09
1.37808e-09
2.59187e-09
1.1589e-06
5.28153e-09
6.10278e-09
1.16569e-06
1.39993e-08
1.61835e-08
1.16844e-06
1.79791e-08
2.07075e-08
1.16661e-06
1.91807e-08
2.2106e-08
1.1622e-06
1.88786e-08
2.15072e-08
1.15653e-06
1.75492e-08
1.9772e-08
1.15045e-06
1.56913e-08
1.74286e-08
1.14453e-06
1.38957e-08
1.53348e-08
1.13907e-06
1.23003e-08
1.36384e-08
1.13419e-06
1.09107e-08
1.22836e-08
1.12988e-06
9.76634e-09
1.12127e-08
1.12609e-06
8.83551e-09
1.03776e-08
1.12275e-06
8.07268e-09
9.73101e-09
1.11981e-06
7.43714e-09
9.22589e-09
1.11716e-06
6.89539e-09
8.83424e-09
1.1147e-06
6.42524e-09
8.54802e-09
1.11228e-06
6.01176e-09
8.36939e-09
1.10971e-06
5.65574e-09
8.3079e-09
1.10659e-06
5.34147e-09
8.36737e-09
5.00515e-09
8.38207e-09
1.32762e-06
2.71853e-09
4.93125e-09
1.33539e-06
7.12172e-09
1.30093e-08
1.34286e-06
9.55496e-09
1.72164e-08
1.34847e-06
1.05803e-08
1.89002e-08
1.35197e-06
1.08788e-08
1.95021e-08
1.35375e-06
1.0586e-08
1.91162e-08
1.35441e-06
9.90035e-09
1.81022e-08
1.35454e-06
9.05963e-09
1.68136e-08
1.3545e-06
8.21619e-09
1.54674e-08
1.35442e-06
7.4325e-09
1.4239e-08
1.35436e-06
6.74651e-09
1.3258e-08
1.35435e-06
6.15624e-09
1.24916e-08
1.35441e-06
5.65474e-09
1.18986e-08
1.35452e-06
5.23529e-09
1.14515e-08
1.35465e-06
4.88945e-09
1.11327e-08
1.35473e-06
4.61921e-09
1.0932e-08
1.3547e-06
4.42994e-09
1.08518e-08
1.35444e-06
4.33907e-09
1.09136e-08
1.35386e-06
4.3769e-09
1.11455e-08
4.52283e-09
1.14836e-08
1.41518e-06
8.69611e-14
4.19296e-09
1.42279e-06
2.41017e-13
1.1116e-08
1.43152e-06
3.99754e-13
1.50986e-08
1.43981e-06
6.67201e-13
1.6629e-08
1.44714e-06
1.13293e-12
1.72741e-08
1.45318e-06
1.86556e-12
1.75069e-08
1.45802e-06
2.99591e-12
1.71482e-08
1.46195e-06
4.83228e-12
1.64287e-08
1.46526e-06
7.9111e-12
1.55349e-08
1.4682e-06
1.32072e-11
1.4642e-08
1.47097e-06
2.19298e-11
1.38123e-08
1.47363e-06
3.58241e-11
1.30833e-08
1.47618e-06
5.79247e-11
1.25232e-08
1.47859e-06
9.24008e-11
1.21437e-08
1.48083e-06
1.46821e-10
1.19041e-08
1.48289e-06
2.33255e-10
1.17652e-08
1.48478e-06
3.69625e-10
1.17053e-08
1.48649e-06
5.81562e-10
1.1725e-08
1.48804e-06
9.06522e-10
1.18314e-08
1.33325e-09
1.19563e-08
1.41518e-06
-2.71843e-09
4.19291e-09
1.42279e-06
-7.12144e-09
1.11159e-08
1.43152e-06
-9.55447e-09
1.50984e-08
1.43981e-06
-1.05795e-08
1.66287e-08
1.44714e-06
-1.08773e-08
1.72735e-08
1.45318e-06
-1.05837e-08
1.75059e-08
1.45803e-06
-9.89663e-09
1.71466e-08
1.46196e-06
-9.05356e-09
1.64263e-08
1.46527e-06
-8.20617e-09
1.55311e-08
1.46823e-06
-7.41509e-09
1.46357e-08
1.47101e-06
-6.71691e-09
1.38021e-08
1.4737e-06
-6.10786e-09
1.30663e-08
1.4763e-06
-5.57652e-09
1.24944e-08
1.47878e-06
-5.11115e-09
1.20957e-08
1.48114e-06
-4.69046e-09
1.18246e-08
1.48338e-06
-4.29694e-09
1.16334e-08
1.48553e-06
-3.90467e-09
1.14861e-08
1.48763e-06
-3.48441e-09
1.1359e-08
1.48974e-06
-2.99902e-09
1.12116e-08
-2.29689e-09
1.09416e-08
1.32762e-06
-5.28156e-09
4.93117e-09
1.33539e-06
-1.39994e-08
1.30091e-08
1.34286e-06
-1.79792e-08
1.7216e-08
1.34847e-06
-1.91808e-08
1.88994e-08
1.35198e-06
-1.88788e-08
1.95007e-08
1.35376e-06
-1.75495e-08
1.91141e-08
1.35443e-06
-1.56917e-08
1.80989e-08
1.35457e-06
-1.38962e-08
1.68082e-08
1.35453e-06
-1.23011e-08
1.54589e-08
1.35448e-06
-1.09122e-08
1.4225e-08
1.35446e-06
-9.7685e-09
1.32343e-08
1.35452e-06
-8.83925e-09
1.24521e-08
1.35469e-06
-8.07858e-09
1.18331e-08
1.35497e-06
-7.44874e-09
1.13435e-08
1.35537e-06
-6.90851e-09
1.09534e-08
1.35586e-06
-6.43063e-09
1.06336e-08
1.35644e-06
-5.99018e-09
1.03534e-08
1.35708e-06
-5.55242e-09
1.00719e-08
1.35767e-06
-5.0236e-09
9.71613e-09
-4.05878e-09
9.06537e-09
1.1589e-06
-7.03403e-09
6.10269e-09
1.1657e-06
-1.98504e-08
1.61832e-08
1.16844e-06
-2.27976e-08
2.0707e-08
1.16661e-06
-2.23036e-08
2.21052e-08
1.16221e-06
-2.0623e-08
2.1506e-08
1.15653e-06
-1.7857e-08
1.97701e-08
1.15046e-06
-1.47031e-08
1.74255e-08
1.14455e-06
-1.21941e-08
1.53294e-08
1.1391e-06
-1.03487e-08
1.36294e-08
1.13424e-06
-8.98092e-09
1.22684e-08
1.12996e-06
-7.9462e-09
1.11878e-08
1.12622e-06
-7.15438e-09
1.03364e-08
1.12297e-06
-6.54636e-09
9.66286e-09
1.12015e-06
-6.06407e-09
9.11378e-09
1.11772e-06
-5.6595e-09
8.64797e-09
1.11562e-06
-5.30631e-09
8.2373e-09
1.11376e-06
-4.98134e-09
7.85008e-09
1.11198e-06
-4.68993e-09
7.42895e-09
1.10986e-06
-4.15182e-09
6.8598e-09
-2.59337e-09
5.90005e-09
9.23616e-07
-7.40293e-09
7.03396e-09
9.25317e-07
-2.07006e-08
1.98502e-08
9.17181e-07
-1.87295e-08
2.27972e-08
9.04269e-07
-1.58478e-08
2.23031e-08
8.90524e-07
-1.37504e-08
2.0622e-08
8.77393e-07
-1.12911e-08
1.78553e-08
8.65413e-07
-8.71235e-09
1.47003e-08
8.54716e-07
-6.84497e-09
1.21895e-08
8.45246e-07
-5.6117e-09
1.03409e-08
8.3685e-07
-4.78047e-09
8.96765e-09
8.2934e-07
-4.18689e-09
7.92394e-09
8.22518e-07
-3.73688e-09
7.11785e-09
8.16242e-07
-3.3973e-09
6.48661e-09
8.10446e-07
-3.14432e-09
5.96757e-09
8.05105e-07
-2.95418e-09
5.50206e-09
8.00152e-07
-2.78004e-09
5.05231e-09
7.95461e-07
-2.57313e-09
4.57595e-09
7.90705e-07
-2.27345e-09
4.06984e-09
7.85268e-07
-1.49568e-09
3.22943e-09
-3.91552e-10
1.37842e-09
6.3138e-07
3.58763e-09
6.14563e-07
2.2646e-08
5.86443e-07
2.43763e-08
5.61722e-07
1.88554e-08
5.39612e-07
1.557e-08
5.20628e-07
1.35109e-08
5.04677e-07
1.19527e-08
4.90915e-07
1.08012e-08
4.78678e-07
9.95005e-09
4.67571e-07
9.24218e-09
4.5735e-07
8.62117e-09
4.47862e-07
8.06735e-09
4.3898e-07
7.57066e-09
4.30592e-07
7.12712e-09
4.22597e-07
6.7295e-09
4.14946e-07
6.34537e-09
4.07661e-07
5.90403e-09
4.00825e-07
5.27169e-09
3.9484e-07
4.5044e-09
4.63468e-09
8.90375e-07
6.33239e-09
2.85271e-09
8.82486e-07
1.7126e-08
1.3409e-08
8.70358e-07
1.86361e-08
1.78681e-08
8.55111e-07
1.71472e-08
1.69565e-08
8.3998e-07
1.53601e-08
1.53417e-08
8.25532e-07
1.37889e-08
1.41719e-08
8.11763e-07
1.23406e-08
1.3383e-08
7.98769e-07
1.11186e-08
1.26814e-08
7.86697e-07
1.01333e-08
1.1897e-08
7.75554e-07
9.33822e-09
1.10591e-08
7.65204e-07
8.73043e-09
1.02627e-08
7.55495e-07
8.2799e-09
9.53067e-09
7.46299e-07
7.94574e-09
8.8762e-09
7.37531e-07
7.68621e-09
8.29898e-09
7.29156e-07
7.46738e-09
7.77849e-09
7.21189e-07
7.25692e-09
7.2779e-09
7.13703e-07
6.99425e-09
6.73563e-09
7.06883e-07
6.51837e-09
6.02994e-09
7.01147e-07
5.60629e-09
5.00284e-09
3.1511e-09
3.15076e-09
1.1589e-06
6.10269e-09
5.28156e-09
1.1657e-06
1.61832e-08
1.39994e-08
1.16844e-06
2.0707e-08
1.79792e-08
1.16661e-06
2.21052e-08
1.91807e-08
1.16221e-06
2.1506e-08
1.88787e-08
1.15653e-06
1.97701e-08
1.75494e-08
1.15046e-06
1.74255e-08
1.56915e-08
1.14455e-06
1.53294e-08
1.3896e-08
1.1391e-06
1.36294e-08
1.23008e-08
1.13424e-06
1.22685e-08
1.09117e-08
1.12996e-06
1.11878e-08
9.76799e-09
1.12622e-06
1.03365e-08
8.83861e-09
1.12297e-06
9.66293e-09
8.07769e-09
1.12016e-06
9.11371e-09
7.44756e-09
1.11773e-06
8.64792e-09
6.90705e-09
1.11562e-06
8.23731e-09
6.42875e-09
1.11376e-06
7.85007e-09
5.98772e-09
1.11199e-06
7.42846e-09
5.5488e-09
1.10987e-06
6.85891e-09
5.01909e-09
5.89689e-09
4.05859e-09
1.37712e-06
4.57747e-09
4.57755e-09
1.38565e-06
1.19176e-08
1.19177e-08
1.39417e-06
1.64478e-08
1.64481e-08
1.40126e-06
1.85617e-08
1.85622e-08
1.40641e-06
1.89315e-08
1.89322e-08
1.4095e-06
1.82235e-08
1.82246e-08
1.41092e-06
1.67178e-08
1.67198e-08
1.41149e-06
1.50455e-08
1.50487e-08
1.41174e-06
1.35032e-08
1.35084e-08
1.41195e-06
1.21683e-08
1.21766e-08
1.41227e-06
1.1033e-08
1.10465e-08
1.4128e-06
1.00826e-08
1.01043e-08
1.41357e-06
9.29187e-09
9.32698e-09
1.4146e-06
8.63021e-09
8.68676e-09
1.41585e-06
8.0713e-09
8.16128e-09
1.41729e-06
7.59866e-09
7.73943e-09
1.41891e-06
7.19208e-09
7.40865e-09
1.42067e-06
6.82776e-09
7.1501e-09
1.42253e-06
6.45651e-09
6.91432e-09
5.97034e-09
6.57216e-09
1.53312e-06
2.36631e-09
3.64944e-09
1.54218e-06
6.23957e-09
9.6342e-09
1.55327e-06
8.87464e-09
1.36923e-08
1.56445e-06
1.03493e-08
1.59377e-08
1.57507e-06
1.09033e-08
1.69134e-08
1.5847e-06
1.07605e-08
1.6948e-08
1.59298e-06
1.01527e-08
1.63801e-08
1.60005e-06
9.34604e-09
1.54513e-08
1.60618e-06
8.48374e-09
1.43529e-08
1.61165e-06
7.67694e-09
1.32639e-08
1.61668e-06
6.97341e-09
1.22802e-08
1.62145e-06
6.37596e-09
1.14311e-08
1.62605e-06
5.86821e-09
1.07205e-08
1.63056e-06
5.43644e-09
1.01403e-08
1.63501e-06
5.07082e-09
9.67891e-09
1.63945e-06
4.76978e-09
9.32417e-09
1.64391e-06
4.52359e-09
9.0649e-09
1.64845e-06
4.31663e-09
8.88239e-09
1.65317e-06
4.13397e-09
8.74352e-09
3.92158e-09
8.60884e-09
1.61424e-06
5.65482e-14
3.09278e-09
1.62332e-06
1.33839e-13
8.27383e-09
1.63534e-06
2.1884e-13
1.19567e-08
1.6482e-06
3.58862e-13
1.41137e-08
1.66118e-06
5.96792e-13
1.51989e-08
1.67386e-06
9.55163e-13
1.55803e-08
1.68574e-06
1.53989e-12
1.54251e-08
1.69656e-06
2.45376e-12
1.49507e-08
1.7063e-06
3.97503e-12
1.42726e-08
1.71512e-06
6.4679e-12
1.34917e-08
1.7232e-06
1.04164e-11
1.26962e-08
1.73069e-06
1.6511e-11
1.19511e-08
1.73776e-06
2.57048e-11
1.1301e-08
1.74453e-06
3.92762e-11
1.07654e-08
1.75111e-06
5.94834e-11
1.03449e-08
1.75752e-06
8.90725e-11
1.0034e-08
1.76381e-06
1.31327e-10
9.80489e-09
1.77004e-06
1.86844e-10
9.62683e-09
1.77629e-06
2.54633e-10
9.46221e-09
3.11497e-10
9.32384e-09
1.61424e-06
-2.36627e-09
3.09273e-09
1.62332e-06
-6.23946e-09
8.27372e-09
1.63534e-06
-8.87446e-09
1.19565e-08
1.6482e-06
-1.0349e-08
1.41134e-08
1.66118e-06
-1.09029e-08
1.51983e-08
1.67387e-06
-1.07598e-08
1.55794e-08
1.68574e-06
-1.01515e-08
1.54238e-08
1.69657e-06
-9.34415e-09
1.49486e-08
1.70631e-06
-8.48059e-09
1.42694e-08
1.71514e-06
-7.67149e-09
1.34865e-08
1.72323e-06
-6.96411e-09
1.26878e-08
1.73074e-06
-6.36082e-09
1.19376e-08
1.73782e-06
-5.84426e-09
1.12794e-08
1.74462e-06
-5.39936e-09
1.07312e-08
1.75123e-06
-5.01353e-09
1.0291e-08
1.75769e-06
-4.68085e-09
9.94926e-09
1.76401e-06
-4.38511e-09
9.67358e-09
1.77024e-06
-4.10462e-09
9.42579e-09
1.77635e-06
-3.80587e-09
9.15963e-09
-3.43347e-09
8.90017e-09
1.53312e-06
-4.57755e-09
3.64934e-09
1.54218e-06
-1.19178e-08
9.63396e-09
1.55328e-06
-1.64481e-08
1.36919e-08
1.56445e-06
-1.85623e-08
1.5937e-08
1.57507e-06
-1.89324e-08
1.69123e-08
1.5847e-06
-1.82248e-08
1.69462e-08
1.59299e-06
-1.672e-08
1.63774e-08
1.60006e-06
-1.5049e-08
1.54469e-08
1.6062e-06
-1.35088e-08
1.43459e-08
1.61168e-06
-1.21772e-08
1.32529e-08
1.61673e-06
-1.10472e-08
1.22625e-08
1.62153e-06
-1.01051e-08
1.14026e-08
1.62617e-06
-9.32804e-09
1.06746e-08
1.63073e-06
-8.68833e-09
1.00664e-08
1.63528e-06
-8.16339e-09
9.56028e-09
1.63984e-06
-7.74202e-09
9.13529e-09
1.64445e-06
-7.412e-09
8.76781e-09
1.64915e-06
-7.15478e-09
8.42265e-09
1.65394e-06
-6.92135e-09
8.04467e-09
-6.58531e-09
7.57087e-09
1.37712e-06
-6.10277e-09
4.57747e-09
1.38565e-06
-1.61835e-08
1.19176e-08
1.39417e-06
-2.07075e-08
1.64478e-08
1.40126e-06
-2.2106e-08
1.85617e-08
1.40641e-06
-2.15073e-08
1.89315e-08
1.4095e-06
-1.97721e-08
1.82234e-08
1.41092e-06
-1.74288e-08
1.67178e-08
1.41149e-06
-1.5335e-08
1.50455e-08
1.41174e-06
-1.36387e-08
1.35032e-08
1.41195e-06
-1.22839e-08
1.21682e-08
1.41227e-06
-1.12132e-08
1.10329e-08
1.4128e-06
-1.03782e-08
1.00824e-08
1.41357e-06
-9.7316e-09
9.29166e-09
1.4146e-06
-9.22703e-09
8.63011e-09
1.41584e-06
-8.83582e-09
8.07118e-09
1.41729e-06
-8.54956e-09
7.59823e-09
1.41891e-06
-8.37105e-09
7.19131e-09
1.42067e-06
-8.30977e-09
6.82671e-09
1.42252e-06
-8.36936e-09
6.45521e-09
-8.38609e-09
5.97103e-09
1.1589e-06
-6.33241e-09
5.28153e-09
1.16569e-06
-1.71261e-08
1.39993e-08
1.16844e-06
-1.86364e-08
1.79791e-08
1.16661e-06
-1.71477e-08
1.91807e-08
1.1622e-06
-1.53608e-08
1.88786e-08
1.15653e-06
-1.37899e-08
1.75492e-08
1.15045e-06
-1.23424e-08
1.56912e-08
1.14453e-06
-1.11216e-08
1.38957e-08
1.13907e-06
-1.01382e-08
1.23003e-08
1.13419e-06
-9.34623e-09
1.09107e-08
1.12988e-06
-8.74374e-09
9.76627e-09
1.12608e-06
-8.30247e-09
8.83534e-09
1.12275e-06
-7.98427e-09
8.07233e-09
1.11981e-06
-7.75098e-09
7.43697e-09
1.11716e-06
-7.581e-09
6.8953e-09
1.1147e-06
-7.46376e-09
6.42465e-09
1.11228e-06
-7.38747e-09
6.01063e-09
1.1097e-06
-7.31464e-09
5.65389e-09
1.10659e-06
-7.36219e-09
5.33835e-09
-8.32179e-09
5.0011e-09
8.90375e-07
2.85271e-09
8.82485e-07
1.3409e-08
8.70357e-07
1.78682e-08
8.55108e-07
1.69567e-08
8.39975e-07
1.5342e-08
8.25524e-07
1.41725e-08
8.1175e-07
1.33841e-08
7.98746e-07
1.26832e-08
7.86658e-07
1.19e-08
7.7549e-07
1.10639e-08
7.65097e-07
1.02705e-08
7.55318e-07
9.54402e-09
7.46005e-07
8.8999e-09
7.37039e-07
8.34201e-09
7.28329e-07
7.85915e-09
7.19778e-07
7.43263e-09
7.11251e-07
7.0436e-09
7.02514e-07
6.69379e-09
6.93064e-07
6.59305e-09
8.09628e-09
1.07432e-06
5.56889e-09
1.06494e-09
1.06824e-06
1.39002e-08
5.58706e-09
1.06138e-06
1.62616e-08
8.46492e-09
1.05339e-06
1.59082e-08
9.04121e-09
1.04511e-06
1.50002e-08
8.61989e-09
1.03723e-06
1.39299e-08
8.12387e-09
1.02984e-06
1.29717e-08
7.79217e-09
1.02286e-06
1.21063e-08
7.56341e-09
1.01604e-06
1.13315e-08
7.38364e-09
1.00932e-06
1.06704e-08
7.1093e-09
1.00273e-06
1.01636e-08
6.68683e-09
9.9626e-07
9.78369e-09
6.21738e-09
9.89867e-07
9.49877e-09
5.77058e-09
9.83521e-07
9.28911e-09
5.35635e-09
9.77209e-07
9.12942e-09
4.9606e-09
9.70935e-07
8.99332e-09
4.55841e-09
9.64711e-07
8.84762e-09
4.11234e-09
9.58539e-07
8.63724e-09
3.5647e-09
9.52432e-07
8.26714e-09
2.84247e-09
7.43267e-09
1.94192e-09
1.32762e-06
4.93117e-09
2.71843e-09
1.33539e-06
1.30091e-08
7.12144e-09
1.34286e-06
1.7216e-08
9.55444e-09
1.34847e-06
1.88994e-08
1.05794e-08
1.35198e-06
1.95007e-08
1.08772e-08
1.35376e-06
1.91141e-08
1.05835e-08
1.35443e-06
1.80989e-08
9.89641e-09
1.35457e-06
1.68082e-08
9.05327e-09
1.35453e-06
1.54589e-08
8.20578e-09
1.35448e-06
1.4225e-08
7.41459e-09
1.35446e-06
1.32343e-08
6.71626e-09
1.35452e-06
1.2452e-08
6.10702e-09
1.35469e-06
1.1833e-08
5.57541e-09
1.35497e-06
1.13433e-08
5.10979e-09
1.35537e-06
1.09532e-08
4.68875e-09
1.35586e-06
1.06329e-08
4.29456e-09
1.35644e-06
1.03519e-08
3.90146e-09
1.35708e-06
1.00695e-08
3.48009e-09
1.35766e-06
9.71405e-09
2.99423e-09
9.07617e-09
2.29994e-09
1.53312e-06
3.64934e-09
2.36627e-09
1.54218e-06
9.63397e-09
6.23944e-09
1.55328e-06
1.36919e-08
8.8744e-09
1.56445e-06
1.5937e-08
1.03489e-08
1.57507e-06
1.69123e-08
1.09027e-08
1.5847e-06
1.69462e-08
1.07596e-08
1.59299e-06
1.63774e-08
1.01512e-08
1.60006e-06
1.5447e-08
9.34375e-09
1.6062e-06
1.43459e-08
8.48008e-09
1.61168e-06
1.32529e-08
7.67084e-09
1.61673e-06
1.22626e-08
6.96331e-09
1.62153e-06
1.14027e-08
6.35982e-09
1.62617e-06
1.06747e-08
5.84297e-09
1.63073e-06
1.00665e-08
5.39771e-09
1.63528e-06
9.56047e-09
5.01146e-09
1.63984e-06
9.13558e-09
4.67825e-09
1.64445e-06
8.76825e-09
4.38187e-09
1.64914e-06
8.42344e-09
4.10064e-09
1.65392e-06
8.0465e-09
3.80117e-09
7.57488e-09
3.42819e-09
1.68027e-06
1.89115e-09
1.89117e-09
1.68934e-06
5.09958e-09
5.09963e-09
1.70179e-06
7.46462e-09
7.4647e-09
1.71578e-06
8.94668e-09
8.94681e-09
1.73021e-06
9.694e-09
9.69421e-09
1.74438e-06
9.86233e-09
9.86269e-09
1.75783e-06
9.65424e-09
9.65481e-09
1.77032e-06
9.20195e-09
9.20285e-09
1.78179e-06
8.61745e-09
8.61887e-09
1.79231e-06
7.99421e-09
7.99643e-09
1.80206e-06
7.39679e-09
7.40034e-09
1.81117e-06
6.85734e-09
6.8631e-09
1.81979e-06
6.38647e-09
6.39589e-09
1.82801e-06
5.98297e-09
5.9983e-09
1.83595e-06
5.63936e-09
5.66403e-09
1.84368e-06
5.34369e-09
5.38268e-09
1.85129e-06
5.08245e-09
5.1429e-09
1.85883e-06
4.83355e-09
4.92712e-09
1.86635e-06
4.56565e-09
4.71237e-09
4.27208e-09
4.52519e-09
1.7569e-06
8.12917e-15
1.61323e-09
1.76589e-06
1.5064e-14
4.38405e-09
1.77878e-06
1.63275e-14
6.53162e-09
1.79389e-06
2.19523e-14
7.95075e-09
1.81003e-06
3.83162e-14
8.7551e-09
1.82639e-06
7.03497e-14
9.08454e-09
1.84239e-06
1.32386e-13
9.07005e-09
1.85771e-06
2.63659e-13
8.83257e-09
1.87215e-06
4.94166e-13
8.45692e-09
1.88562e-06
8.5951e-13
8.00891e-09
1.89818e-06
1.39749e-12
7.53944e-09
1.9099e-06
2.14655e-12
7.08515e-09
1.92091e-06
3.12944e-12
6.66965e-09
1.93135e-06
4.35046e-12
6.30563e-09
1.94133e-06
5.84827e-12
5.99771e-09
1.95095e-06
7.60741e-12
5.74567e-09
1.9603e-06
9.02699e-12
5.53787e-09
1.9694e-06
7.30362e-12
5.35049e-09
1.97829e-06
-5.13139e-12
5.13978e-09
-4.22594e-11
5.04435e-09
1.7569e-06
-1.89118e-09
1.6132e-09
1.76589e-06
-5.09966e-09
4.38399e-09
1.77878e-06
-7.46478e-09
6.53152e-09
1.79389e-06
-8.94694e-09
7.95059e-09
1.81003e-06
-9.69441e-09
8.75484e-09
1.82639e-06
-9.86296e-09
9.08415e-09
1.8424e-06
-9.65516e-09
9.06946e-09
1.85772e-06
-9.20331e-09
8.83166e-09
1.87215e-06
-8.61944e-09
8.45552e-09
1.88563e-06
-7.99715e-09
8.00672e-09
1.89818e-06
-7.40123e-09
7.53603e-09
1.90991e-06
-6.8642e-09
7.07985e-09
1.92092e-06
-6.39726e-09
6.66146e-09
1.93137e-06
-6.00004e-09
6.29308e-09
1.94135e-06
-5.66623e-09
5.97861e-09
1.95098e-06
-5.38539e-09
5.71675e-09
1.96031e-06
-5.14626e-09
5.49478e-09
1.96939e-06
-4.93133e-09
5.28685e-09
1.97822e-06
-4.7177e-09
5.04523e-09
-4.53194e-09
4.89301e-09
1.68027e-06
-3.64944e-09
1.89115e-09
1.68934e-06
-9.63422e-09
5.09957e-09
1.70179e-06
-1.36924e-08
7.4646e-09
1.71578e-06
-1.59378e-08
8.94666e-09
1.73021e-06
-1.69136e-08
9.69398e-09
1.74438e-06
-1.69482e-08
9.86231e-09
1.75783e-06
-1.63804e-08
9.65421e-09
1.77032e-06
-1.54517e-08
9.2019e-09
1.78179e-06
-1.43533e-08
8.6174e-09
1.79231e-06
-1.32645e-08
7.99414e-09
1.80206e-06
-1.2281e-08
7.3967e-09
1.81117e-06
-1.1432e-08
6.85723e-09
1.81978e-06
-1.07217e-08
6.38634e-09
1.82801e-06
-1.01419e-08
5.98281e-09
1.83595e-06
-9.68106e-09
5.63911e-09
1.84368e-06
-9.32685e-09
5.34328e-09
1.85129e-06
-9.06832e-09
5.08176e-09
1.85883e-06
-8.88692e-09
4.83245e-09
1.86635e-06
-8.74974e-09
4.56392e-09
-8.61753e-09
4.2696e-09
1.53312e-06
-4.93125e-09
2.36631e-09
1.54218e-06
-1.30093e-08
6.23956e-09
1.55327e-06
-1.72164e-08
8.87463e-09
1.56445e-06
-1.89003e-08
1.03493e-08
1.57507e-06
-1.95022e-08
1.09033e-08
1.5847e-06
-1.91164e-08
1.07605e-08
1.59298e-06
-1.81024e-08
1.01526e-08
1.60005e-06
-1.68139e-08
9.34601e-09
1.60618e-06
-1.54677e-08
8.48369e-09
1.61165e-06
-1.42394e-08
7.67688e-09
1.61668e-06
-1.32585e-08
6.97333e-09
1.62145e-06
-1.24922e-08
6.37585e-09
1.62605e-06
-1.18993e-08
5.86808e-09
1.63056e-06
-1.14525e-08
5.43637e-09
1.63501e-06
-1.1134e-08
5.07075e-09
1.63945e-06
-1.09334e-08
4.76953e-09
1.6439e-06
-1.08534e-08
4.5231e-09
1.64844e-06
-1.09153e-08
4.31595e-09
1.65316e-06
-1.11475e-08
4.13329e-09
-1.14867e-08
3.92161e-09
1.32762e-06
-5.5689e-09
2.71853e-09
1.33539e-06
-1.39003e-08
7.12172e-09
1.34286e-06
-1.62618e-08
9.55494e-09
1.34847e-06
-1.59087e-08
1.05803e-08
1.35197e-06
-1.5001e-08
1.08787e-08
1.35375e-06
-1.39312e-08
1.0586e-08
1.35441e-06
-1.29738e-08
9.90032e-09
1.35454e-06
-1.21097e-08
9.0596e-09
1.3545e-06
-1.13371e-08
8.21615e-09
1.35441e-06
-1.06795e-08
7.43245e-09
1.35436e-06
-1.01791e-08
6.74644e-09
1.35435e-06
-9.80912e-09
6.15614e-09
1.35441e-06
-9.5415e-09
5.65457e-09
1.35452e-06
-9.36159e-09
5.23514e-09
1.35465e-06
-9.25383e-09
4.88933e-09
1.35473e-06
-9.20949e-09
4.61889e-09
1.35469e-06
-9.23212e-09
4.42927e-09
1.35443e-06
-9.34309e-09
4.33792e-09
1.35385e-06
-9.59662e-09
4.37515e-09
-1.05306e-08
4.52118e-09
1.07432e-06
1.06505e-09
1.06824e-06
5.58744e-09
1.06138e-06
8.46562e-09
1.05338e-06
9.04238e-09
1.0451e-06
8.62189e-09
1.03722e-06
8.12727e-09
1.02983e-06
7.79788e-09
1.02283e-06
7.57288e-09
1.01599e-06
7.39937e-09
1.00924e-06
7.135e-09
1.00261e-06
6.72857e-09
9.96055e-07
6.28552e-09
9.89531e-07
5.88218e-09
9.82972e-07
5.53986e-09
9.76314e-07
5.26328e-09
9.69479e-07
5.05827e-09
9.62351e-07
4.93998e-09
9.54756e-07
4.94602e-09
9.46575e-07
5.17742e-09
6.25941e-09
1.16914e-06
4.90657e-09
-5.63544e-14
1.16312e-06
1.16085e-08
-2.39289e-13
1.15731e-06
1.42753e-08
-4.84235e-13
1.15202e-06
1.43328e-08
-8.34736e-13
1.14692e-06
1.37281e-08
-1.39123e-12
1.14208e-06
1.29651e-08
-2.323e-12
1.13778e-06
1.20939e-08
-3.87221e-12
1.13405e-06
1.12969e-08
-6.37579e-12
1.13081e-06
1.06314e-08
-1.04662e-11
1.12778e-06
1.01594e-08
-1.71248e-11
1.12465e-06
9.84772e-09
-2.79447e-11
1.1213e-06
9.61558e-09
-4.54936e-11
1.11768e-06
9.45621e-09
-7.39913e-11
1.11379e-06
9.37167e-09
-1.20298e-10
1.1096e-06
9.3423e-09
-1.95195e-10
1.10513e-06
9.34472e-09
-3.15517e-10
1.10039e-06
9.36307e-09
-5.07939e-10
1.09539e-06
9.38361e-09
-8.17354e-10
1.09012e-06
9.40959e-09
-1.29763e-09
9.41728e-09
-2.06539e-09
1.41518e-06
4.19291e-09
-8.65831e-14
1.42279e-06
1.11159e-08
-2.41575e-13
1.43152e-06
1.50984e-08
-4.24485e-13
1.43981e-06
1.66287e-08
-7.2916e-13
1.44714e-06
1.72735e-08
-1.24034e-12
1.45318e-06
1.75059e-08
-2.02786e-12
1.45803e-06
1.71467e-08
-3.22337e-12
1.46196e-06
1.64263e-08
-5.14021e-12
1.46527e-06
1.55311e-08
-8.31878e-12
1.46823e-06
1.46357e-08
-1.374e-11
1.47101e-06
1.38021e-08
-2.26198e-11
1.4737e-06
1.30664e-08
-3.67153e-11
1.4763e-06
1.24944e-08
-5.90692e-11
1.47878e-06
1.20956e-08
-9.38357e-11
1.48114e-06
1.18243e-08
-1.48605e-10
1.48338e-06
1.16328e-08
-2.35503e-10
1.48553e-06
1.14851e-08
-3.72366e-10
1.48762e-06
1.13576e-08
-5.84662e-10
1.48972e-06
1.12106e-08
-9.0923e-10
1.0945e-08
-1.33323e-09
1.61424e-06
3.09273e-09
-6.16342e-14
1.62332e-06
8.27372e-09
-1.59715e-13
1.63534e-06
1.19565e-08
-2.83573e-13
1.6482e-06
1.41134e-08
-4.73989e-13
1.66118e-06
1.51984e-08
-7.70955e-13