/*--------------------------------*- C++ -*----------------------------------*\
| =========                 |                                                 |
| \\      /  F ield         | OpenFOAM: The Open Source CFD Toolbox           |
|  \\    /   O peration     | Version:  2212                                  |
|   \\  /    A nd           | Website:  www.openfoam.com                      |
|    \\/     M anipulation  |                                                 |
\*---------------------------------------------------------------------------*/
FoamFile
{
    version     2.0;
    format      ascii;
    arch        "LSB;label=32;scalar=64";
    class       surfaceVectorField;
    location    "1.7";
    object      Uf;
}
// * * * * * * * * * * * * * * * * * * * * * * * * * * * * * * * * * * * * * //

dimensions      [0 1 -1 0 0 0 0];

internalField   nonuniform List<vector> 
19019
(
(0.0993441 -0.00341901 -0.003419)
(0.0973536 0.00106247 -0.00148428)
(0.0973536 -0.00148427 0.00106248)
(0.0834791 0.00197588 0.00197592)
(0.0930872 0.00326897 0.00253349)
(0.0930872 0.00253347 0.00326902)
(0.074517 0.00195872 0.00195879)
(0.0848639 0.00163581 0.00179239)
(0.084864 0.00179236 0.0016359)
(0.0685475 0.00115904 0.00115916)
(0.0786279 0.00107347 0.00122145)
(0.0786279 0.00122139 0.00107362)
(0.0642357 0.000696958 0.000697145)
(0.0740527 0.000785262 0.000865236)
(0.0740528 0.000865149 0.000785503)
(0.0607559 0.000494788 0.000495113)
(0.0704419 0.000650426 0.000669539)
(0.070442 0.000669391 0.00065081)
(0.057936 0.000374726 0.000375273)
(0.0674907 0.000546495 0.00050906)
(0.0674909 0.000508785 0.000547194)
(0.0556117 0.000287815 0.000288704)
(0.0650492 0.000468456 0.000388287)
(0.0650496 0.000387869 0.000469632)
(0.0536208 0.000226737 0.000228203)
(0.0629632 0.000414531 0.000309227)
(0.0629638 0.000308553 0.000416505)
(0.0518731 0.000182695 0.000185117)
(0.0611268 0.000371514 0.000257272)
(0.0611279 0.000256167 0.00037482)
(0.0503183 0.000150471 0.000154436)
(0.0594798 0.000332585 0.000223627)
(0.0594817 0.000221705 0.000338093)
(0.0489216 0.000125823 0.00013227)
(0.0579866 0.000296326 0.000202181)
(0.0579899 0.000199039 0.000305411)
(0.047654 0.000105135 0.000115605)
(0.0566197 0.000263434 0.00018824)
(0.0566254 0.000183248 0.000278414)
(0.0464924 8.56352e-05 0.000102992)
(0.0553548 0.000232981 0.00017839)
(0.0553644 0.000171753 0.00025787)
(0.0454231 6.4676e-05 9.41799e-05)
(0.0541771 0.000201827 0.00017197)
(0.0541934 0.00016147 0.000243564)
(0.0444414 3.92039e-05 8.9905e-05)
(0.0530759 0.000165834 0.00016797)
(0.0531045 0.000149645 0.000236344)
(0.0435584 1.20285e-06 8.81066e-05)
(0.0520542 0.000117504 0.000164346)
(0.0521058 0.000132202 0.000237875)
(0.0428498 -4.60151e-05 0.000107083)
(0.0511147 3.88698e-05 0.000150667)
(0.0512116 9.18744e-05 0.000243704)
(0.0423748 -0.000504226 -0.000146786)
(0.0503821 -8.37132e-05 0.000148105)
(0.0505835 2.92194e-05 0.000264479)
(0.0489392 -0.000750861 -0.000167269)
(0.0492287 -0.000746192 -0.000154304)
(0.0984572 0.00247645 0.0017299)
(0.0996871 0.000439237 0.000345488)
(0.100049 0.00105638 0.000750978)
(0.0958347 0.00314806 0.00243269)
(0.0978161 0.00273282 0.0022823)
(0.0982936 0.00280921 0.0021615)
(0.0914498 0.00223036 0.00186935)
(0.0954959 0.00300176 0.00230314)
(0.0963038 0.00244261 0.00199785)
(0.0875948 0.00167469 0.00150555)
(0.0926189 0.00229945 0.00183883)
(0.0936665 0.00198068 0.0017271)
(0.0841469 0.00144016 0.00127577)
(0.0897668 0.00189202 0.00153571)
(0.0909041 0.00171963 0.00149805)
(0.0811866 0.00126551 0.00102897)
(0.0872313 0.00165666 0.0012947)
(0.0884336 0.00145437 0.00121213)
(0.0786992 0.00111029 0.000794377)
(0.0850054 0.00149227 0.00107729)
(0.0863034 0.0011831 0.000909378)
(0.0765531 0.000992339 0.000625892)
(0.0830588 0.00137201 0.00091353)
(0.0844781 0.000982395 0.000691961)
(0.0746449 0.000905456 0.000519472)
(0.081321 0.00127934 0.000802102)
(0.0828759 0.000844164 0.000550786)
(0.0729129 0.000831578 0.000455217)
(0.0797403 0.00119528 0.000727286)
(0.0814406 0.000742714 0.000459153)
(0.0713191 0.000760419 0.000417463)
(0.0782872 0.001114 0.000680884)
(0.0801389 0.000659298 0.00039838)
(0.0698395 0.000691422 0.000395039)
(0.0769382 0.00103592 0.000653803)
(0.0789439 0.000586114 0.000356541)
(0.0684544 0.00062827 0.000381498)
(0.0756734 0.000962322 0.000638608)
(0.0778344 0.000523141 0.000328277)
(0.0671464 0.000571779 0.000374939)
(0.0744759 0.000894396 0.000630815)
(0.0767966 0.000470097 0.000309796)
(0.0658997 0.000516876 0.000373684)
(0.0733313 0.000831153 0.000629787)
(0.07582 0.000421482 0.000299593)
(0.0647066 0.000452394 0.00037211)
(0.072228 0.000768349 0.000633043)
(0.0748967 0.000369433 0.000293518)
(0.0635707 0.000361639 0.000359536)
(0.071161 0.000696464 0.000636113)
(0.0740194 0.000303036 0.000288219)
(0.0625045 0.000222333 0.000334908)
(0.0701163 0.000598185 0.000628618)
(0.0731712 0.000211004 0.000278811)
(0.061571 8.33839e-05 0.000411957)
(0.0691211 0.000473419 0.000633603)
(0.0723945 2.92596e-05 0.000230117)
(0.0676332 0.000408741 0.000853353)
(0.0713217 -0.000259531 0.000173629)
(0.0993753 0.00118217 0.00107257)
(0.099473 0.000349771 0.000307062)
(0.0997475 0.000610991 0.000779885)
(0.0984948 0.00229618 0.00203194)
(0.0990504 0.00157689 0.00172047)
(0.0995971 0.00201836 0.0020029)
(0.0971411 0.00247667 0.00204864)
(0.0983577 0.00213128 0.00216887)
(0.0992972 0.00246163 0.00210245)
(0.0954392 0.00224728 0.0017674)
(0.0971932 0.0020361 0.00200239)
(0.098488 0.00237464 0.00190266)
(0.0937502 0.00202091 0.00152235)
(0.095905 0.00185615 0.00175428)
(0.0974218 0.00218112 0.00168872)
(0.0921372 0.00186494 0.00134431)
(0.0946716 0.00173361 0.00154241)
(0.0963088 0.00198507 0.00150817)
(0.0905999 0.00175493 0.00121456)
(0.0934816 0.00165429 0.00138597)
(0.0952032 0.00180225 0.00134243)
(0.0891486 0.00165775 0.00111323)
(0.092368 0.00157946 0.00126477)
(0.0941457 0.00164579 0.00120331)
(0.0877995 0.0015541 0.00103128)
(0.0913314 0.00148579 0.00117074)
(0.0931618 0.00150672 0.00109503)
(0.086553 0.00144664 0.000969731)
(0.0903418 0.00137823 0.00110153)
(0.0922546 0.00137818 0.00101262)
(0.0853931 0.00134435 0.000929515)
(0.0894106 0.00127152 0.00105509)
(0.0914228 0.0012626 0.000955101)
(0.0843016 0.00125165 0.000906676)
(0.0885289 0.00117035 0.00102676)
(0.0906562 0.00116175 0.000917674)
(0.0832622 0.00116796 0.000896336)
(0.0876823 0.00107822 0.00101172)
(0.0899418 0.0010744 0.000894939)
(0.0822615 0.0010909 0.000894492)
(0.0868589 0.000996569 0.00100654)
(0.0892685 0.000996807 0.000882202)
(0.0812893 0.00101832 0.000898723)
(0.0860497 0.000924347 0.00100848)
(0.0886266 0.000925995 0.000877074)
(0.0803349 0.000947385 0.000907726)
(0.085247 0.000859123 0.00101597)
(0.0880071 0.000859304 0.000878713)
(0.0793832 0.000871594 0.000919218)
(0.0844405 0.000798273 0.00102842)
(0.0873981 0.000792558 0.000886556)
(0.0784081 0.000794919 0.000947058)
(0.0836139 0.000741898 0.00104657)
(0.0867824 0.000718242 0.000897125)
(0.0773533 0.000795344 0.00111895)
(0.082722 0.000714867 0.00109677)
(0.0861225 0.000643315 0.000926137)
(0.0816599 0.000873417 0.00136628)
(0.0854231 0.000633491 0.00107472)
(0.0996493 0.000650353 0.000931418)
(0.0994625 0.000129403 0.000192526)
(0.0997993 0.000375146 0.000741359)
(0.0990854 0.00127904 0.00182768)
(0.0992625 0.000636976 0.00137063)
(0.0998409 0.00115046 0.0018142)
(0.0984492 0.00154099 0.002103)
(0.0989129 0.000973592 0.00200353)
(0.0999047 0.00153665 0.0020901)
(0.0977077 0.00154729 0.00198878)
(0.0982951 0.00105032 0.00205054)
(0.0997673 0.00163196 0.00202291)
(0.0969396 0.00148089 0.00177581)
(0.0976577 0.00100796 0.00189942)
(0.0995095 0.00161005 0.00189543)
(0.0962081 0.00142875 0.00158156)
(0.0970654 0.000960882 0.00169797)
(0.0991996 0.00154844 0.00175123)
(0.0955229 0.00139536 0.00143413)
(0.0965069 0.000934608 0.00152012)
(0.0988548 0.00147617 0.00162509)
(0.0948736 0.00135743 0.00132713)
(0.0959949 0.000919038 0.00137817)
(0.0985112 0.00139557 0.00151385)
(0.0942395 0.00129984 0.00125549)
(0.0955277 0.000906087 0.00127683)
(0.0981781 0.00130399 0.00141768)
(0.0936134 0.00122077 0.00120858)
(0.0950752 0.000875701 0.00121415)
(0.097832 0.00120195 0.00133992)
(0.0929978 0.00113012 0.00117805)
(0.0946231 0.000821703 0.00118046)
(0.0974954 0.00109955 0.00128493)
(0.0923902 0.00103961 0.00116024)
(0.0941712 0.000760263 0.0011659)
(0.0971692 0.00100324 0.00124777)
(0.0917851 0.000956797 0.00115225)
(0.0937149 0.000703247 0.00116202)
(0.0968484 0.000916289 0.00122381)
(0.0911767 0.00088445 0.00115196)
(0.0932462 0.000654155 0.00116498)
(0.0965295 0.000840265 0.0012107)
(0.0905592 0.000822716 0.00115786)
(0.09276 0.000613826 0.00117315)
(0.0962087 0.000774708 0.00120624)
(0.0899253 0.000771146 0.00116954)
(0.0922523 0.000583145 0.00118594)
(0.0958808 0.000718847 0.00120929)
(0.0892641 0.000731125 0.00118895)
(0.0917184 0.00056423 0.0012038)
(0.0955388 0.000672344 0.00122047)
(0.0885596 0.000713407 0.00122652)
(0.0911505 0.000562053 0.00123033)
(0.0951727 0.000637347 0.00124251)
(0.0878007 0.000782174 0.00135572)
(0.0905184 0.000589504 0.00127873)
(0.0947606 0.000624132 0.00128152)
(0.0898393 0.000725123 0.00143916)
(0.0944042 0.000693809 0.00140486)
(0.0996725 0.000154105 0.000629523)
(0.0993802 8.18692e-09 5.89885e-05)
(0.0997132 0.000103941 0.00068795)
(0.0991592 0.00035343 0.00154424)
(0.0992678 3.63891e-08 0.00120004)
(0.0998377 0.000341713 0.00162229)
(0.0986638 0.000457986 0.00194736)
(0.0989806 7.51959e-08 0.00188842)
(0.0999631 0.000485603 0.00199133)
(0.0982127 0.000481234 0.00196032)
(0.0984749 1.22855e-07 0.00200629)
(0.0999921 0.000539835 0.00199646)
(0.0977773 0.00047226 0.00182426)
(0.0979962 1.98248e-07 0.00191432)
(0.10001 0.000546727 0.00191061)
(0.0973646 0.000459229 0.00164031)
(0.0975722 3.25579e-07 0.00173416)
(0.100009 0.000534005 0.00180348)
(0.0969979 0.000447567 0.00146679)
(0.0971835 5.38317e-07 0.00154638)
(0.0999831 0.000512292 0.00168157)
(0.0966797 0.000439122 0.00132746)
(0.0968353 8.83335e-07 0.00138709)
(0.0999422 0.000486354 0.00157042)
(0.0964031 0.000431995 0.00123178)
(0.0965377 1.44882e-06 0.00126762)
(0.099904 0.000463276 0.00147778)
(0.0961434 0.000419407 0.00118116)
(0.0962873 2.37183e-06 0.00119558)
(0.0998746 0.00044092 0.00141255)
(0.0958745 0.000398951 0.00116409)
(0.0960197 3.87534e-06 0.00116615)
(0.0998265 0.000413833 0.00137038)
(0.0955858 0.000374898 0.0011642)
(0.0957366 6.3189e-06 0.00116108)
(0.0997665 0.000383901 0.00133989)
(0.0952731 0.000352163 0.00117156)
(0.0954384 1.02937e-05 0.0011658)
(0.0996952 0.000355955 0.0013201)
(0.0949333 0.00033404 0.001183)
(0.095117 1.67592e-05 0.00117482)
(0.0996065 0.000332497 0.00131146)
(0.0945641 0.000323055 0.00119795)
(0.0947682 2.72225e-05 0.00118701)
(0.099497 0.000314808 0.00131166)
(0.0941636 0.00032229 0.00121663)
(0.0943912 4.40404e-05 0.00120184)
(0.0993655 0.000305045 0.00131825)
(0.0937291 0.000336821 0.00124106)
(0.0939862 7.09525e-05 0.00121927)
(0.0992107 0.000306006 0.00133073)
(0.0932563 0.000374335 0.00127758)
(0.0935528 0.000114236 0.00124086)
(0.0990313 0.000322391 0.00135078)
(0.0927428 0.000460832 0.00135484)
(0.0930791 0.000181425 0.00127396)
(0.0988204 0.000360771 0.00138133)
(0.0925562 0.000288807 0.00134546)
(0.0986411 0.00044196 0.0014458)
(0.0996725 -0.000154064 0.000629505)
(0.0994625 -0.000129387 0.000192516)
(0.0997132 -0.000103925 0.00068795)
(0.0991592 -0.000353326 0.00154422)
(0.0992625 -0.00063692 0.00137062)
(0.0998377 -0.000341649 0.00162229)
(0.0986639 -0.000457803 0.00194735)
(0.098913 -0.000973486 0.00200351)
(0.0999632 -0.000485484 0.00199133)
(0.0982128 -0.000480936 0.00196029)
(0.0982953 -0.00105015 0.00205051)
(0.0999922 -0.000539639 0.00199645)
(0.0977775 -0.000471769 0.00182422)
(0.0976579 -0.00100767 0.00189937)
(0.10001 -0.000546403 0.00191057)
(0.0973649 -0.000458417 0.00164023)
(0.0970658 -0.000960401 0.00169789)
(0.100009 -0.000533469 0.00180341)
(0.0969985 -0.000446227 0.00146667)
(0.0965077 -0.000933805 0.00152)
(0.0999835 -0.000511414 0.00168147)
(0.0966808 -0.000436921 0.00132725)
(0.0959962 -0.000917716 0.00137797)
(0.0999429 -0.000484922 0.00157026)
(0.0964048 -0.00042838 0.00123142)
(0.09553 -0.0009039 0.00127647)
(0.0999052 -0.000460918 0.00147749)
(0.0961462 -0.000413486 0.00118058)
(0.095079 -0.000872136 0.00121348)
(0.0998765 -0.000437015 0.00141209)
(0.0958792 -0.000389276 0.00116315)
(0.0946294 -0.000815924 0.00117929)
(0.0998296 -0.000407398 0.00136967)
(0.0955933 -0.000359115 0.00116268)
(0.0941816 -0.000750825 0.00116398)
(0.0997715 -0.000373394 0.00133875)
(0.0952854 -0.000326435 0.00116906)
(0.0937319 -0.000687778 0.00115884)
(0.0997034 -0.000338887 0.00131815)
(0.0949533 -0.000292143 0.00117883)
(0.093274 -0.000628682 0.00115976)
(0.0996197 -0.000304936 0.00130812)
(0.0945963 -0.000254961 0.0011909)
(0.0928053 -0.000571792 0.0011645)
(0.0995185 -0.000270384 0.00130594)
(0.0942151 -0.000211888 0.00120449)
(0.0923258 -0.000513783 0.00117122)
(0.0993997 -0.00023351 0.00130842)
(0.0938105 -0.000158033 0.00121907)
(0.0918366 -0.000449632 0.00117755)
(0.0992648 -0.00019103 0.00131353)
(0.0933838 -8.70821e-05 0.00123724)
(0.0913398 -0.000371572 0.00118011)
(0.0991159 -0.000138029 0.00131964)
(0.0929342 -3.93298e-07 0.00126458)
(0.0908327 -0.000269608 0.00117672)
(0.0989532 -6.91342e-05 0.00132752)
(0.0902587 -0.00014497 0.00115184)
(0.0987859 1.10512e-05 0.00133323)
(0.0996493 -0.000650333 0.000931413)
(0.099473 -0.000349772 0.00030706)
(0.0997993 -0.000375141 0.000741358)
(0.0990855 -0.00127899 0.00182767)
(0.0990504 -0.00157688 0.00172046)
(0.0998409 -0.00115044 0.0018142)
(0.0984493 -0.00154091 0.00210297)
(0.0983578 -0.00213127 0.00216884)
(0.0999048 -0.00153661 0.00209008)
(0.0977079 -0.00154714 0.00198873)
(0.0971934 -0.00203608 0.00200234)
(0.0997675 -0.00163188 0.00202285)
(0.0969401 -0.00148064 0.00177573)
(0.0959054 -0.00185611 0.00175421)
(0.0995098 -0.00160992 0.00189533)
(0.096209 -0.00142832 0.00158145)
(0.0946723 -0.00173354 0.0015423)
(0.0992002 -0.00154822 0.00175109)
(0.0955244 -0.00139467 0.00143395)
(0.0934828 -0.00165417 0.00138579)
(0.0988558 -0.00147581 0.00162486)
(0.0948762 -0.0013563 0.00132681)
(0.0923699 -0.00157927 0.00126446)
(0.0985128 -0.00139497 0.00151347)
(0.0942437 -0.00129801 0.00125488)
(0.0913347 -0.00148548 0.00117021)
(0.0981808 -0.00130301 0.00141707)
(0.0936204 -0.00121786 0.00120742)
(0.0903472 -0.00137776 0.00110061)
(0.0978365 -0.00120034 0.00133891)
(0.0930093 -0.00112543 0.00117605)
(0.0894196 -0.00127076 0.00105351)
(0.0975028 -0.00109693 0.00128319)
(0.0924091 -0.00103186 0.00115688)
(0.0885438 -0.00116905 0.0010241)
(0.0971815 -0.000999 0.00124487)
(0.0918161 -0.000943777 0.00114672)
(0.0877069 -0.00107584 0.00100723)
(0.0968686 -0.000909295 0.00121891)
(0.0912273 -0.000862303 0.00114286)
(0.0868996 -0.000991988 0.000999039)
(0.0965627 -0.000828565 0.0012023)
(0.0906418 -0.000784891 0.0011425)
(0.0861173 -0.000915391 0.000995741)
(0.0962627 -0.000754776 0.00119176)
(0.0900596 -0.000706137 0.00114227)
(0.0853596 -0.000841502 0.000993571)
(0.0959679 -0.000684585 0.00118409)
(0.0894818 -0.000616954 0.0011369)
(0.084629 -0.000762537 0.000986775)
(0.0956781 -0.000612898 0.00117538)
(0.0889084 -0.00050349 0.00111826)
(0.0839342 -0.000663404 0.000962562)
(0.0953947 -0.000532246 0.00115899)
(0.0883403 -0.00034681 0.00106273)
(0.0833018 -0.00052364 0.000908366)
(0.0951174 -0.000431571 0.00112302)
(0.0825196 -0.000293401 0.00071791)
(0.0948277 -0.000286579 0.00102627)
(0.0993753 -0.00118219 0.00107256)
(0.0996871 -0.000439247 0.000345488)
(0.0997475 -0.000610999 0.000779879)
(0.0984948 -0.00229621 0.00203191)
(0.0978161 -0.00273286 0.00228229)
(0.0995971 -0.00201838 0.00200287)
(0.0971412 -0.00247672 0.00204859)
(0.0954959 -0.00300182 0.00230311)
(0.0992972 -0.00246167 0.0021024)
(0.0954394 -0.00224736 0.00176732)
(0.092619 -0.00229955 0.00183877)
(0.0984882 -0.00237472 0.00190256)
(0.0937507 -0.00202105 0.00152224)
(0.0897671 -0.00189221 0.00153563)
(0.0974221 -0.00218124 0.00168858)
(0.0921381 -0.00186515 0.00134413)
(0.0872318 -0.00165696 0.00129456)
(0.0963093 -0.00198528 0.00150796)
(0.0906014 -0.00175527 0.00121426)
(0.0850062 -0.0014928 0.00107705)
(0.0952041 -0.00180258 0.00134207)
(0.0891511 -0.00165831 0.00111274)
(0.0830602 -0.0013729 0.000913127)
(0.0941472 -0.00164631 0.00120272)
(0.0878037 -0.00155502 0.00103048)
(0.0813233 -0.00128082 0.000801439)
(0.0931644 -0.0015076 0.00109405)
(0.0865601 -0.00144817 0.000968427)
(0.0797442 -0.00119776 0.00072619)
(0.0922589 -0.00137965 0.00101102)
(0.0854048 -0.00134683 0.000927359)
(0.0782938 -0.00111818 0.000678973)
(0.09143 -0.001265 0.000952434)
(0.0843212 -0.00125555 0.00090303)
(0.0769495 -0.00104277 0.000650581)
(0.0906683 -0.00116564 0.000913189)
(0.0832948 -0.0011739 0.000890162)
(0.0756925 -0.00097333 0.000633277)
(0.089962 -0.00108064 0.000887379)
(0.0823161 -0.00109968 0.000883923)
(0.0745078 -0.000911552 0.000623425)
(0.0893018 -0.00100708 0.000869506)
(0.0813813 -0.00103083 0.000880161)
(0.0733854 -0.000858476 0.000617786)
(0.088682 -0.000941889 0.000855341)
(0.0804919 -0.000963574 0.00087363)
(0.0723209 -0.000812225 0.000611631)
(0.0880999 -0.000882912 0.000840697)
(0.0796562 -0.000885547 0.000851764)
(0.0713241 -0.000766369 0.000596447)
(0.087555 -0.000825581 0.0008177)
(0.0788947 -0.000775626 0.000797897)
(0.0704118 -0.000703037 0.00054693)
(0.0870506 -0.000756118 0.000766004)
(0.078254 -0.000580463 0.000619886)
(0.0697073 -0.000604088 0.00044869)
(0.0866083 -0.000654227 0.000657703)
(0.0685127 -0.000181193 -0.000120221)
(0.0861071 -0.000445733 0.000346571)
(0.0984572 -0.00247647 0.0017299)
(0.0973536 -0.00106248 -0.00148428)
(0.100049 -0.00105639 0.000750971)
(0.0958348 -0.00314813 0.00243267)
(0.0930872 -0.00326902 0.00253347)
(0.0982936 -0.00280924 0.00216147)
(0.0914499 -0.00223047 0.00186931)
(0.084864 -0.0016359 0.00179236)
(0.0963039 -0.00244269 0.00199779)
(0.0875949 -0.00167488 0.00150547)
(0.0786279 -0.00107361 0.00122139)
(0.0936666 -0.00198081 0.00172699)
(0.0841471 -0.00144048 0.00127565)
(0.0740528 -0.000785498 0.000865148)
(0.0909042 -0.00171985 0.00149787)
(0.081187 -0.00126607 0.00102875)
(0.070442 -0.000650806 0.00066939)
(0.0884337 -0.00145472 0.00121181)
(0.0786999 -0.00111128 0.000794023)
(0.0674909 -0.00054719 0.000508782)
(0.0863037 -0.00118373 0.000908838)
(0.0765543 -0.000994032 0.000625327)
(0.0650496 -0.00046963 0.000387865)
(0.0844786 -0.000983463 0.000691073)
(0.074647 -0.000908318 0.000518542)
(0.0629638 -0.000416505 0.000308547)
(0.0828768 -0.00084597 0.000549298)
(0.0729164 -0.000836409 0.000453567)
(0.0611279 -0.000374823 0.000256159)
(0.0814421 -0.000745769 0.000456641)
(0.0713253 -0.00076848 0.000414598)
(0.0594817 -0.000338101 0.000221695)
(0.0801416 -0.000664523 0.000393957)
(0.0698501 -0.000704697 0.000390362)
(0.0579899 -0.000305427 0.000199026)
(0.0789484 -0.000594745 0.000349141)
(0.0684729 -0.000649936 0.000375379)
(0.0566253 -0.000278431 0.000183227)
(0.0778423 -0.000537198 0.00031609)
(0.0671775 -0.000607385 0.000366921)
(0.0553643 -0.000257891 0.000171742)
(0.0768099 -0.000492209 0.000291862)
(0.0659532 -0.000576004 0.000360381)
(0.0541933 -0.000243586 0.00016147)
(0.0758427 -0.000457935 0.000270115)
(0.0648017 -0.000551379 0.000348044)
(0.0531044 -0.000236333 0.000149635)
(0.0749363 -0.000430043 0.000242809)
(0.0637448 -0.000526657 0.000311493)
(0.0521056 -0.000237832 0.000132193)
(0.0740909 -0.000404631 0.000199681)
(0.0628408 -0.00049131 0.000230254)
(0.0512114 -0.000243587 9.18667e-05)
(0.0733056 -0.000378539 0.000119488)
(0.0622565 -0.00026166 -0.000196039)
(0.0505837 -0.000264214 2.91912e-05)
(0.0726744 -0.000312654 -6.02065e-05)
(0.0492295 0.000154795 -0.000746423)
(0.0717247 0.000142231 -0.000940778)
(0.0993441 0.003419 -0.00341901)
(0.0973536 0.00148428 0.00106247)
(0.0834791 -0.00197591 0.00197588)
(0.0930872 -0.00253349 0.00326898)
(0.074517 -0.00195879 0.00195872)
(0.084864 -0.00179239 0.00163582)
(0.0685475 -0.00115916 0.00115904)
(0.0786279 -0.00122145 0.00107348)
(0.0642357 -0.000697144 0.00069696)
(0.0740527 -0.000865239 0.000785267)
(0.0607559 -0.000495113 0.000494787)
(0.0704419 -0.000669543 0.000650429)
(0.057936 -0.000375276 0.000374724)
(0.0674907 -0.000509067 0.000546498)
(0.0556117 -0.000288709 0.000287812)
(0.0650492 -0.000388298 0.000468457)
(0.0536208 -0.000228211 0.000226733)
(0.0629632 -0.000309241 0.000414531)
(0.0518731 -0.000185129 0.000182688)
(0.0611268 -0.00025729 0.000371511)
(0.0503182 -0.000154452 0.000150459)
(0.0594798 -0.00022365 0.00033258)
(0.0489215 -0.000132288 0.000125802)
(0.0579866 -0.00020221 0.000296314)
(0.0476539 -0.00011563 0.000105116)
(0.0566196 -0.000188273 0.00026341)
(0.0464923 -0.00010303 8.56319e-05)
(0.0553547 -0.000178424 0.000232958)
(0.0454229 -9.42078e-05 6.46669e-05)
(0.054177 -0.000172007 0.000201821)
(0.0444412 -8.99102e-05 3.91769e-05)
(0.0530758 -0.000168006 0.000165821)
(0.0435583 -8.80896e-05 1.17974e-06)
(0.0520541 -0.000164386 0.000117498)
(0.0428498 -0.000107011 -4.6033e-05)
(0.0511146 -0.000150695 3.88743e-05)
(0.0423752 0.000146948 -0.000504243)
(0.0503823 -0.000148076 -8.36921e-05)
(0.0489397 0.000167377 -0.000750797)
(0.0984572 0.0017299 0.00247648)
(0.100049 0.00075097 0.00105639)
(0.0996871 0.000345488 0.000439249)
(0.0958348 0.00243267 0.00314813)
(0.0982936 0.00216146 0.00280925)
(0.0978161 0.00228229 0.00273286)
(0.0914499 0.00186931 0.00223048)
(0.0963039 0.00199779 0.00244269)
(0.0954959 0.00230311 0.00300183)
(0.0875949 0.00150548 0.00167489)
(0.0936666 0.00172699 0.00198081)
(0.092619 0.00183877 0.00229956)
(0.0841471 0.00127565 0.00144048)
(0.0909042 0.00149787 0.00171985)
(0.0897671 0.00153563 0.00189221)
(0.081187 0.00102876 0.00126608)
(0.0884337 0.00121181 0.00145472)
(0.0872318 0.00129456 0.00165696)
(0.0786999 0.000794026 0.00111129)
(0.0863037 0.000908839 0.00118373)
(0.0850062 0.00107705 0.0014928)
(0.0765544 0.000625331 0.000994036)
(0.0844786 0.000691076 0.000983457)
(0.0830602 0.000913127 0.00137289)
(0.0746471 0.000518548 0.000908319)
(0.0828768 0.000549303 0.000845961)
(0.0813233 0.00080144 0.00128081)
(0.0729165 0.000453574 0.000836405)
(0.0814421 0.000456649 0.000745754)
(0.0797442 0.000726191 0.00119775)
(0.0713254 0.000414608 0.000768471)
(0.0801416 0.000393969 0.000664501)
(0.0782939 0.000678973 0.00111815)
(0.0698502 0.000390374 0.000704682)
(0.0789484 0.000349164 0.000594721)
(0.0769496 0.00065058 0.00104272)
(0.068473 0.000375399 0.000649941)
(0.0778424 0.000316136 0.000537184)
(0.0756926 0.000633269 0.000973261)
(0.0671777 0.000366949 0.000607422)
(0.07681 0.000291887 0.000492184)
(0.074508 0.000623433 0.000911521)
(0.0659534 0.000360397 0.000576064)
(0.0758428 0.000270099 0.000457883)
(0.0733856 0.000617808 0.000858485)
(0.0648019 0.000348044 0.000551483)
(0.0749364 0.000242804 0.000430031)
(0.0723211 0.000611624 0.000812238)
(0.0637451 0.000311504 0.000526873)
(0.0740911 0.000199677 0.000404661)
(0.0713244 0.000596402 0.000766416)
(0.062841 0.000230312 0.000491748)
(0.0733058 0.0001195 0.000378679)
(0.0704123 0.000546872 0.000703229)
(0.0622562 -0.000195599 0.000262604)
(0.0726744 -6.01248e-05 0.000313021)
(0.0697078 0.000448627 0.000604623)
(0.0717241 -0.00094082 -0.00014183)
(0.0685128 -0.000119563 0.000183043)
(0.10008 0.00135177 0.00135179)
(0.100186 0.00079877 0.000804965)
(0.100186 0.000804954 0.000798782)
(0.100264 0.00221729 0.00221734)
(0.100189 0.00231188 0.00207152)
(0.10019 0.00207149 0.00231192)
(0.0993826 0.00243574 0.00243584)
(0.100306 0.00263375 0.00245315)
(0.100306 0.00245308 0.00263381)
(0.0979836 0.00231024 0.00231041)
(0.0998047 0.00256048 0.00245608)
(0.0998047 0.00245594 0.0025606)
(0.0964942 0.00200614 0.00200643)
(0.0988622 0.00236456 0.00228111)
(0.0988623 0.00228091 0.00236475)
(0.0950714 0.00159689 0.00159738)
(0.0978399 0.00204927 0.0019683)
(0.0978401 0.00196797 0.00204961)
(0.0937733 0.00122614 0.00122695)
(0.0968597 0.00169164 0.00160498)
(0.09686 0.00160445 0.00169219)
(0.0926142 0.000961801 0.000963155)
(0.0959566 0.00140525 0.00132206)
(0.0959571 0.00132117 0.00140616)
(0.091588 0.000777359 0.00077966)
(0.0951431 0.00119271 0.00111959)
(0.0951439 0.00111809 0.00119425)
(0.0906783 0.000644704 0.000648686)
(0.0944175 0.00103355 0.000973579)
(0.0944189 0.00097104 0.00103618)
(0.0898646 0.000545448 0.000552179)
(0.0937741 0.000911306 0.000867059)
(0.0937765 0.000862701 0.000915763)
(0.0891254 0.000469872 0.000480933)
(0.0931986 0.000815542 0.000789523)
(0.0932026 0.000782287 0.000822898)
(0.0884452 0.000411242 0.000428568)
(0.0926769 0.000739131 0.000733815)
(0.0926835 0.000721911 0.000751196)
(0.0878173 0.000360796 0.000388636)
(0.0922012 0.000674884 0.000692589)
(0.092212 0.00067383 0.000694314)
(0.0872387 0.000309526 0.000356154)
(0.0917666 0.000615604 0.000661366)
(0.0917842 0.000630092 0.000647577)
(0.086702 0.000249896 0.000328819)
(0.0913689 0.000556455 0.000638213)
(0.0913975 0.000585379 0.000608739)
(0.0861937 0.000177849 0.0003108)
(0.0909932 0.000491043 0.000623119)
(0.0910397 0.000532777 0.00057629)
(0.0856783 4.3842e-05 0.000275827)
(0.0906189 0.000417659 0.000620656)
(0.0906924 0.000465413 0.000553034)
(0.0850891 -0.00028862 0.000116309)
(0.090226 0.000299398 0.000604189)
(0.0903411 0.000322898 0.000515452)
(0.0900353 6.36891e-05 0.000479496)
(0.0901418 -1.37699e-05 0.000383844)
(0.100171 0.00136873 0.00141644)
(0.100118 0.000577434 0.000811311)
(0.100102 0.000699783 0.000700709)
(0.100759 0.00219502 0.0021491)
(0.100478 0.00158295 0.00185878)
(0.100477 0.00182261 0.00186471)
(0.100996 0.00247714 0.00238797)
(0.101004 0.00205895 0.00224253)
(0.101024 0.00234692 0.00238305)
(0.100837 0.00247654 0.0023891)
(0.101292 0.0022038 0.00235203)
(0.101337 0.00250618 0.00254384)
(0.100457 0.00231204 0.00222468)
(0.101309 0.00216786 0.00232188)
(0.101408 0.00245085 0.00247245)
(0.0999661 0.00205739 0.0019679)
(0.101156 0.00201162 0.00217828)
(0.101301 0.00226506 0.00227061)
(0.0994408 0.0017918 0.00169943)
(0.100925 0.00179506 0.00196769)
(0.101097 0.00200975 0.00199888)
(0.0989291 0.0015653 0.00148275)
(0.100662 0.00158569 0.00176453)
(0.100852 0.00177116 0.00175818)
(0.0984572 0.00138115 0.00132015)
(0.100404 0.00139886 0.00158852)
(0.100602 0.00157051 0.00156462)
(0.0980353 0.00122994 0.00119896)
(0.100166 0.00123478 0.00144275)
(0.10037 0.00140433 0.0014112)
(0.0976627 0.00110545 0.00111088)
(0.0999549 0.00109732 0.00133568)
(0.100169 0.00126706 0.00129112)
(0.0973348 0.00100274 0.0010483)
(0.0997714 0.000983548 0.00125952)
(0.0999988 0.00115394 0.00119868)
(0.0970467 0.000916384 0.0010036)
(0.0996122 0.000888753 0.00120577)
(0.0998593 0.00106065 0.00112823)
(0.0967922 0.000841233 0.000971562)
(0.0994746 0.00080849 0.00116815)
(0.0997479 0.000981927 0.00107436)
(0.0965634 0.000773449 0.000950655)
(0.0993541 0.000738761 0.00114338)
(0.0996607 0.000913658 0.00103402)
(0.0963509 0.000709024 0.00094127)
(0.0992445 0.000676681 0.00113062)
(0.0995922 0.00085233 0.00100681)
(0.096142 0.000643375 0.000943354)
(0.0991367 0.000620087 0.0011305)
(0.0995349 0.000794216 0.00099376)
(0.0959191 0.000572343 0.000957766)
(0.0990198 0.000568839 0.00114442)
(0.0994801 0.000735579 0.000996925)
(0.0956498 0.000483982 0.000963632)
(0.0988813 0.000520363 0.00117474)
(0.0994188 0.00067082 0.00101794)
(0.0989516 0.000470937 0.00119353)
(0.0995356 0.00058577 0.00103682)
(0.100242 0.000820251 0.00125612)
(0.10009 0.000294375 0.000735353)
(0.100071 0.000415712 0.000602783)
(0.100828 0.00139074 0.0019393)
(0.100491 0.000792102 0.001684)
(0.100492 0.00112453 0.00158699)
(0.101392 0.00166378 0.00218213)
(0.101086 0.00107793 0.00208333)
(0.101128 0.00154105 0.00209407)
(0.101816 0.00176162 0.00226084)
(0.101664 0.00120467 0.00217882)
(0.101767 0.00173307 0.00229409)
(0.10208 0.00175611 0.00226136)
(0.102121 0.00124027 0.00222145)
(0.102291 0.00179046 0.00236688)
(0.102214 0.00166935 0.00217566)
(0.102451 0.0012028 0.00220911)
(0.102711 0.00174473 0.00232125)
(0.102264 0.00153556 0.00203985)
(0.102679 0.00111983 0.00212474)
(0.103036 0.00162756 0.00220098)
(0.102274 0.00138504 0.00188279)
(0.102841 0.00101967 0.00200294)
(0.103285 0.00148163 0.00204779)
(0.102271 0.00123487 0.0017266)
(0.102965 0.000920456 0.00186609)
(0.103489 0.00133111 0.00188753)
(0.102264 0.00109939 0.00159713)
(0.103069 0.000828396 0.00173747)
(0.103665 0.00119061 0.00174167)
(0.10226 0.000985142 0.00150392)
(0.103162 0.000747113 0.001633)
(0.103824 0.0010696 0.0016262)
(0.10226 0.000888729 0.0014381)
(0.103255 0.000676567 0.00155011)
(0.103974 0.000967651 0.00153685)
(0.102264 0.000806185 0.00139247)
(0.103346 0.000615671 0.00149078)
(0.10412 0.000880602 0.00146866)
(0.102273 0.00073528 0.0013629)
(0.103436 0.000563673 0.0014535)
(0.104266 0.000805954 0.0014183)
(0.102282 0.000674433 0.00134701)
(0.103521 0.000519931 0.00143284)
(0.10441 0.000741732 0.00138366)
(0.102289 0.000622883 0.00134418)
(0.103601 0.000485082 0.00142445)
(0.104554 0.000687223 0.00136349)
(0.102286 0.000581071 0.00135621)
(0.10367 0.000459917 0.00142732)
(0.104693 0.000641372 0.00135823)
(0.102267 0.000550958 0.00138614)
(0.103726 0.000446578 0.00144326)
(0.104826 0.000603896 0.00137074)
(0.102223 0.000535941 0.00142944)
(0.103771 0.000448903 0.00147401)
(0.10496 0.000575259 0.00140468)
(0.103964 0.000465243 0.00150726)
(0.105227 0.000554376 0.00145174)
(0.100243 0.00026749 0.0011624)
(0.100087 1.13011e-08 0.000707019)
(0.100064 0.000135849 0.000537333)
(0.100782 0.000465905 0.0018262)
(0.100477 3.13215e-08 0.00161778)
(0.100463 0.000371003 0.00142412)
(0.101401 0.0005758 0.00207607)
(0.101066 5.19502e-08 0.00203461)
(0.101089 0.000525372 0.00193352)
(0.101988 0.000623358 0.00213367)
(0.101694 8.67066e-08 0.00211751)
(0.101798 0.000606214 0.00212845)
(0.102507 0.00063186 0.00216445)
(0.102269 1.47231e-07 0.00214979)
(0.102489 0.00063985 0.00221064)
(0.102935 0.000611515 0.00215606)
(0.102743 2.42441e-07 0.00217903)
(0.10312 0.000635047 0.00224094)
(0.103278 0.000573173 0.00208785)
(0.103125 3.89336e-07 0.00213295)
(0.103687 0.000602329 0.00219577)
(0.103556 0.000528391 0.00198758)
(0.103429 6.27982e-07 0.00204254)
(0.104186 0.000557111 0.00210441)
(0.103791 0.000485481 0.00187893)
(0.103682 1.02809e-06 0.00193231)
(0.104622 0.000510391 0.00199055)