/*--------------------------------*- C++ -*----------------------------------*\
| =========                 |                                                 |
| \\      /  F ield         | OpenFOAM: The Open Source CFD Toolbox           |
|  \\    /   O peration     | Version:  2212                                  |
|   \\  /    A nd           | Website:  www.openfoam.com                      |
|    \\/     M anipulation  |                                                 |
\*---------------------------------------------------------------------------*/
FoamFile
{
    version     2.0;
    format      ascii;
    arch        "LSB;label=32;scalar=64";
    class       volScalarField;
    location    "1.8";
    object      k;
}
// * * * * * * * * * * * * * * * * * * * * * * * * * * * * * * * * * * * * * //

dimensions      [0 2 -2 0 0 0 0];

internalField   nonuniform List<scalar> 
678
(
0.00183728
0.0018146
0.0017919
0.00176936
0.00174652
0.00157426
0.00155309
0.00153241
0.00151233
0.0014926
0.00154295
0.00151981
0.00149706
0.0014753
0.00145412
0.00149559
0.00147075
0.00144594
0.00142295
0.0014004
0.00137941
0.00147007
0.00144488
0.00141963
0.00139657
0.00137311
0.00135159
0.00144715
0.00142303
0.00139932
0.00137642
0.00135031
0.00133056
0.00130665
0.0014278
0.0014037
0.00137974
0.00135698
0.00133268
0.00131258
0.00129154
0.0014139
0.00138957
0.00136688
0.00134601
0.00132508
0.0013044
0.00128347
0.00142129
0.00139984
0.00137884
0.00135867
0.00133878
0.00131909
0.00129821
0.00148788
0.00146768
0.00144803
0.00142888
0.00140983
0.00139095
0.00183744
0.00181484
0.00179222
0.00176983
0.00174735
0.0017252
0.00148797
0.00146778
0.00144809
0.00142886
0.0014094
0.00138906
0.00097627
0.000948265
0.000921123
0.00089659
0.000872918
0.00118775
0.00114806
0.00110744
0.00107343
0.00103904
0.00100727
0.00131919
0.00127524
0.00123051
0.0011916
0.001152
0.00111627
0.00138332
0.00133764
0.00129209
0.00125031
0.00120781
0.00116866
0.00140983
0.00136442
0.00132135
0.00127541
0.00122836
0.00118593
0.00138401
0.00133425
0.00128438
0.00123894
0.00119297
0.00115106
0.00127842
0.00122854
0.00117763
0.00113387
0.00108939
0.00104888
0.00100733
0.00109628
0.00105569
0.0010139
0.00097983
0.000944755
0.000912932
0.000874556
0.00097614
0.000948275
0.000921315
0.000897042
0.000873663
0.000851061
0.000828045
0.00157468
0.0015536
0.00153303
0.00151305
0.00149347
0.00147436
0.00142179
0.00140042
0.00137952
0.00135942
0.00133957
0.00131965
0.00129808
0.00109721
0.00105693
0.00101545
0.000981537
0.000947186
0.000913579
0.00134095
0.00128769
0.00123438
0.00118727
0.00114012
0.00109732
0.00153302
0.00147203
0.00141255
0.0013568
0.0013024
0.00125248
0.00165094
0.00158491
0.00152169
0.00146155
0.00140339
0.00134887
0.00170059
0.00163258
0.00156766
0.00150552
0.00144554
0.00138854
0.00167238
0.00160456
0.00153937
0.00147715
0.0014171
0.00136004
0.00154538
0.00148163
0.00141892
0.00136078
0.00130398
0.00125152
0.00134017
0.00128679
0.00123318
0.00118618
0.00113895
0.00109643
0.00118764
0.00114826
0.00110794
0.00107422
0.00103991
0.00100882
0.000976616
0.00154359
0.00152056
0.00149793
0.00147627
0.00145529
0.00143494
0.00141508
0.00139076
0.00136811
0.00134735
0.00132658
0.00130589
0.00128487
0.00128085
0.00123155
0.00118141
0.00113786
0.00109412
0.0010532
0.00101053
0.00154716
0.00148375
0.00142205
0.00136341
0.00130672
0.00125367
0.00177454
0.00170133
0.00163157
0.00156489
0.00150213
0.00144184
0.00191842
0.00184013
0.00176545
0.00169409
0.00162688
0.00156238
0.00197172
0.00189149
0.00181503
0.00174189
0.00167348
0.00160689
0.00192658
0.00184792
0.00177277
0.00170113
0.00163396
0.00177435
0.00170112
0.00163128
0.00156459
0.00150187
0.00144113
0.00153361
0.00147264
0.00141313
0.00135734
0.00130354
0.00125262
0.00132041
0.00127646
0.0012319
0.00119309
0.00115432
0.0011173
0.00149645
0.00147168
0.00144696
0.00142401
0.00140155
0.00138046
0.00142912
0.00140498
0.0013819
0.00135742
0.0013357
0.00131334
0.00138702
0.00133758
0.00128873
0.00124309
0.00119789
0.00115516
0.00167496
0.00160732
0.00154233
0.00148005
0.00142045
0.00192781
0.00184919
0.00177401
0.00170272
0.00163524
0.00209049
0.00200602
0.00192502
0.00184806
0.00177517
0.00214769
0.00206097
0.00197805
0.00189915
0.00182471
0.00209009
0.0020056
0.00192467
0.00184759
0.00177503
0.00191889
0.00184066
0.00176599
0.00169487
0.00162813
0.00165228
0.00158626
0.00152317
0.00146281
0.00140555
0.00138553
0.00133889
0.00129395
0.00125169
0.0012105
0.00147102
0.00144586
0.00142068
0.00139761
0.00137422
0.00135193
0.00144867
0.00142457
0.00140107
0.00137809
0.00135241
0.0013325
0.00141344
0.00136769
0.00132481
0.00127799
0.001233
0.00118901
0.00170326
0.00163516
0.00157024
0.00150828
0.0019735
0.00189315
0.00181649
0.00174453
0.00214844
0.00206155
0.0019786
0.00190023
0.00220925
0.00212015
0.00203496
0.00195416
0.0018777
0.00214775
0.00206103
0.00197813
0.00189928
0.00182494
0.00197227
0.00189215
0.00181568
0.00174297
0.00167466
0.00170188
0.00163395
0.00156919
0.00150696
0.00144761
0.00141189
0.00136636
0.00132339
0.00127679
0.00123181
0.00144796
0.00142387
0.00140027
0.00137745
0.00135125
0.00149758
0.00147178
0.00144597
0.00142232
0.00139768
0.00137527
0.00143522
0.00138676
0.00133934
0.00129616
0.00125262
0.0012123
0.00172234
0.0016532
0.00158717
0.0015243
0.00146392
0.00140644
0.00200126
0.0019195
0.0018416
0.00176721
0.00169687
0.00162969
0.00217957
0.00209049
0.0020059
0.00192523
0.00184879
0.0017762
0.002148
0.0020611
0.00197821
0.00189948
0.00182526
0.00209016
0.00200569
0.00192479
0.00184782
0.00177539
0.0019267
0.00184817
0.00177315
0.00170176
0.00163478
0.00167292
0.00160525
0.00154038
0.00147808
0.001419
0.00138544
0.00133583
0.00128671
0.0012409
0.00119669
0.00142841
0.00140439
0.00138067
0.00135799
0.00133368
0.00152222
0.00149697
0.0014719
0.00144799
0.00142402
0.00140264
0.00136608
0.00131988
0.00127624
0.00123324
0.00119396
0.00115681
0.00159803
0.00153417
0.00147256
0.00141436
0.00135791
0.00130624
0.00185078
0.00177492
0.00170243
0.00163327
0.0015674
0.00150545
0.00200921
0.00192718
0.00184914
0.00177465
0.0017038
0.00163708
0.00197259
0.00189285
0.00181654
0.00174397
0.00167584
0.00191891
0.00184081
0.00176627
0.00169536
0.00162886
0.00177408
0.00170107
0.0016314
0.00156501
0.0015029
0.00154539
0.00148178
0.00141969
0.001361
0.00130606
0.00127919
0.00122968
0.00117941
0.00113545
0.00109345
0.00141443
0.00139022
0.00136777
0.00134701
0.00132603
0.00156776
0.0015442
0.00152099
0.00149852
0.00147678
0.00145592
0.00122975
0.00118902
0.00114782
0.00111186
0.00107552
0.00104417
0.00139765
0.00134234
0.00128694
0.00123788
0.00118859
0.00114473
0.00161313
0.00154735
0.00148311
0.00142287
0.00136403
0.00131009
0.00174428
0.0016738
0.00160644
0.00154217
0.00148027
0.00142197
0.00170228
0.00163446
0.00156992
0.00150802
0.00144912
0.00165252
0.0015866
0.0015237
0.00146358
0.00140669
0.00153347
0.00147265
0.0014136
0.0013576
0.00130511
0.00134049
0.00128695
0.00123431
0.00118634
0.00114162
0.00109701
0.00105676
0.00101564
0.000981213
0.000948861
0.00142179
0.0014005
0.00137973
0.00135969
0.00133995
0.00159698
0.00157547
0.00155443
0.00153393
0.00151391
0.00149443
0.00100628
0.000977408
0.000949474
0.000923987
0.00089921
0.000876289
0.00114026
0.00109874
0.00105603
0.0010206
0.000983785
0.000952279
0.00133246
0.00128211
0.00123109
0.00118589
0.00114019
0.0010994
0.00143823
0.00138699
0.00133758
0.0012898
0.0012448
0.00120144
0.00141247
0.00136671
0.00132417
0.00127873
0.00123429
0.00138586
0.00133939
0.00129469
0.00125297
0.00121233
0.00132064
0.00127693
0.00123294
0.00119372
0.00115645
0.00118845
0.0011482
0.00111062
0.00107398
0.00104282
0.000976793
0.000948935
0.000922766
0.000898158
0.000875392
0.00148835
0.00146832
0.00144888
0.00142981
0.00141083
0.00186243
0.00183931
0.00181631
0.0017938
0.00177104
0.00174912
0.00150978
0.00148923
0.00146922
0.00144982
0.00143041
0.00141145
0.00144497
0.00142298
0.00140159
0.00138106
0.00144169
0.00141589
0.00139167
0.00136941
0.00134838
0.00145489
0.0014298
0.00140571
0.00138226
0.00135951
0.00144886
0.00142476
0.00140185
0.00137748
0.00135537
0.0014716
0.00144645
0.00142149
0.00139835
0.00137584
0.0014968
0.00147207
0.00144764
0.0014246
0.00140268
0.00154389
0.00152093
0.00149854
0.0014769
0.00145608
0.00157509
0.00155408
0.00153372
0.00151382
0.00149441
0.00183816
0.00181566
0.00179335
0.0017708
0.00174864
)
;

boundaryField
{
    inlet
    {
        type            fixedValue;
        value           nonuniform List<scalar> 0();
    }
    ami1
    {
        type            cyclicAMI;
        value           nonuniform List<scalar> 0();
    }
    walls
    {
        type            kqRWallFunction;
        value           nonuniform List<scalar> 
250
(
0.00183728
0.00157426
0.00154295
0.00149559
0.00147007
0.00144715
0.0014278
0.0014139
0.00142129
0.00148788
0.00183744
0.0018146
0.00155309
0.00151981
0.00147075
0.00144488
0.00142303
0.0014037
0.00138957
0.00139984
0.00146768
0.00181484
0.0017919
0.00153241
0.00149706
0.00144594
0.00141963
0.00139932
0.00137974
0.00136688
0.00137884
0.00144803
0.00179222
0.00176936
0.00151233
0.0014753
0.00142295
0.00139657
0.00137642
0.00135698
0.00134601
0.00135867
0.00142888
0.00176983
0.00174652
0.0014926
0.00145412
0.0014004
0.00137311
0.00135031
0.00133268
0.00132508
0.00133878
0.00140983
0.00174735
0.00137941
0.00135159
0.00133056
0.00131258
0.0013044
0.00131909
0.00139095
0.0017252
0.00130665
0.00129154
0.00128347
0.00129821
0.00183744
0.00157468
0.00154359
0.00149645
0.00147102
0.00144796
0.00142841
0.00141443
0.00142179
0.00148835
0.00183816
0.00181484
0.0015536
0.00152056
0.00147168
0.00144586
0.00142387
0.00140439
0.00139022
0.0014005
0.00146832
0.00181566
0.00179222
0.00153303
0.00149793
0.00144696
0.00142068
0.00140027
0.00138067
0.00136777
0.00137973
0.00144888
0.00179335
0.00176983
0.00151305
0.00147627
0.00142401
0.00139761
0.00137745
0.00135799
0.00134701
0.00135969
0.00142981
0.0017708
0.00174735
0.00149347
0.00145529
0.00140155
0.00137422
0.00135125
0.00133368
0.00132603
0.00133995
0.00141083
0.00174864
0.0017252
0.00147436
0.00143494
0.00138046
0.00135193
0.00186243
0.00150978
0.00144497
0.00144169
0.00145489
0.00183931
0.00148923
0.00142298
0.00141589
0.0014298
0.00144886
0.0014716
0.0014968
0.00154389
0.00157509
0.00183816
0.00181631
0.00146922
0.00140159
0.00139167
0.00140571
0.00142476
0.00144645
0.00147207
0.00152093
0.00155408
0.00181566
0.0017938
0.00144982
0.00138106
0.00136941
0.00138226
0.00140185
0.00142149
0.00144764
0.00149854
0.00153372
0.00179335
0.00177104
0.00143041
0.00134838
0.00135951
0.00137748
0.00139835
0.0014246
0.0014769
0.00151382
0.0017708
0.00174912
0.00141145
0.00135537
0.00137584
0.00140268
0.00145608
0.00149441
0.00174864
0.00149758
0.00152222
0.00156776
0.00159698
0.00186243
0.00183728
0.00148797
0.00142179
0.00141508
0.00142912
0.00144867
0.00147178
0.00149697
0.0015442
0.00157547
0.00183931
0.0018146
0.00146778
0.00140042
0.00139076
0.00140498
0.00142457
0.00144597
0.0014719
0.00152099
0.00155443
0.00181631
0.0017919
0.00144809
0.00137952
0.00136811
0.0013819
0.00140107
0.00142232
0.00144799
0.00149852
0.00153393
0.0017938
0.00176936
0.00142886
0.00135942
0.00134735
0.00135742
0.00137809
0.00139768
0.00142402
0.00147678
0.00151391
0.00177104
0.00174652
0.0014094
0.00133957
0.00132658
0.0013357
0.00135241
0.00137527
0.00140264
0.00145592
0.00149443
0.00174912
0.00138906
0.00131965
0.00130589
0.00131334
0.0013325
0.00129808
0.00128487
)
;
    }
    ami2
    {
        type            cyclicAMI;
        value           nonuniform List<scalar> 0();
    }
    outlet
    {
        type            zeroGradient;
    }
    procBoundary5to6
    {
        type            processor;
        value           nonuniform List<scalar> 
177
(
0.00172309
0.00172309
0.00147269
0.00143334
0.00143334
0.00143334
0.00135831
0.00132927
0.00132927
0.00128716
0.00114051
0.00127115
0.00110474
0.00126176
0.00127702
0.00137041
0.00137041
0.00137041
0.00170359
0.00136985
0.000844799
0.00136985
0.000844799
0.000844799
0.000844799
0.000970892
0.00107685
0.0011263
0.00114051
0.00110474
0.00110474
0.000958236
0.00119686
0.000829895
0.00105043
0.000798901
0.00145449
0.00145449
0.00127701
0.000869482
0.000869482
0.000869482
0.00105096
0.00120074
0.00129314
0.00133048
0.00130183
0.0015667
0.00119686
0.00105043
0.00105043
0.000938186
0.00141456
0.00107726
0.00141456
0.00126311
0.00129292
0.000959595
0.00119848
0.00110844
0.00119848
0.00135994
0.00138071
0.00156769
0.00149749
0.00170323
0.00154028
0.0015667
0.00175155
0.0015667
0.0015667
0.00137988
0.00156135
0.00120041
0.00134756
0.00107726
0.0011674
0.00135917
0.00129292
0.00110844
0.00135994
0.00135994
0.00144586
0.00156769
0.00167356
0.00170323
0.00182406
0.00175155
0.00170353
0.00156135
0.00134756
0.0011674
0.0011674
0.00133009
0.00133296
0.0013073
0.00135243
0.00144586
0.0011424
0.00138561
0.00116927
0.00144586
0.00144586
0.00167356
0.00167356
0.00182406
0.00182406
0.00182406
0.00180278
0.00175193
0.00160656
0.00138755
0.00118505
0.00133296
0.00135243
0.00116927
0.00134817
0.0015624
0.00170456
0.00175234
0.00170401
0.00156771
0.00135908
0.00115
0.00131377
0.00138041
0.00111697
0.00125312
0.00144299
0.00157029
0.00160793
0.00156232
0.00144025
0.00124969
0.00104786
0.00130451
0.00143534
0.00100891
0.00109807
0.00125449
0.00136283
0.00138947
0.00134904
0.00125152
0.00109468
0.000911929
0.00131955
0.00147484
0.000849225
0.00136003
0.000915284
0.00134031
0.00105429
0.00132703
0.00115532
0.00133515
0.00118792
0.00116964
0.00111683
0.00100797
0.000848495
0.00139109
0.00172729
0.00136003
0.00139196
0.00134031
0.00136003
0.00136003
0.00132703
0.00133515
0.00133515
0.00132986
0.00135319
0.00138124
0.00143568
0.00147482
0.00172664
)
;
    }
    procBoundary5to7
    {
        type            processor;
        value           nonuniform List<scalar> 
131
(
0.0018614
0.00159623
0.00156693
0.00152132
0.00149644
0.00147308
0.00145355
0.00143995
0.00144374
0.00150899
0.00186152
0.00150912
0.00100416
0.00122797
0.00136399
0.00143221
0.00145694
0.00143609
0.00132942
0.00113791
0.00100376
0.00159656
0.00144419
0.00113864
0.00139625
0.00159616
0.0017202
0.00177171
0.00174347
0.00161171
0.00139572
0.00122772
0.00156743
0.00144109
0.00133193
0.00161263
0.00184999
0.00199971
0.00205504
0.00200819
0.00184989
0.00159673
0.0013649
0.00152205
0.00145481
0.00143882
0.00174546
0.00200932
0.00217891
0.00223848
0.00217847
0.00200014
0.00172145
0.00143402
0.00149731
0.00147455
0.00147455
0.00146031
0.00146031
0.00177458
0.00177458
0.00205694
0.00205694
0.0022394
0.0022394
0.00230265
0.0022385
0.0020555
0.00177285
0.00145871
0.00147384
0.00152553
0.00148676
0.00179506
0.00208691
0.0022731
0.00223898
0.00223898
0.0021785
0.00200817
0.00174382
0.00143709
0.00145408
0.00154924
0.00141215
0.00166465
0.00193031
0.00209519
0.00205602
0.00205602
0.00200004
0.00184949
0.00161153
0.00133005
0.00144038
0.00159235
0.00127039
0.00145494
0.00168199
0.00181856
0.00177352
0.00177352
0.00172167
0.00159642
0.00139599
0.00113863
0.00144416
0.00161924
0.00103507
0.0011831
0.0013843
0.00149232
0.00145974
0.00145974
0.00143434
0.00136511
0.00122852
0.00100445
0.00150943
0.00188677
0.0015313
0.00146814
0.00146773
0.00148142
0.00147465
0.00147465
0.00149787
0.00152233
0.00156766
0.00159689
0.00186208
)
;
    }
}


// ************************************************************************* //
