/*--------------------------------*- C++ -*----------------------------------*\
| =========                 |                                                 |
| \\      /  F ield         | OpenFOAM: The Open Source CFD Toolbox           |
|  \\    /   O peration     | Version:  2212                                  |
|   \\  /    A nd           | Website:  www.openfoam.com                      |
|    \\/     M anipulation  |                                                 |
\*---------------------------------------------------------------------------*/
FoamFile
{
    version     2.0;
    format      ascii;
    arch        "LSB;label=32;scalar=64";
    class       volScalarField;
    location    "2";
    object      epsilon;
}
// * * * * * * * * * * * * * * * * * * * * * * * * * * * * * * * * * * * * * //

dimensions      [0 2 -3 0 0 0 0];

internalField   nonuniform List<scalar> 
680
(
0.270013
0.245887
0.226193
0.210311
0.199872
0.189426
0.172925
0.149567
0.130965
0.115934
0.104109
0.0952409
0.14868
0.127686
0.110833
0.0971522
0.0860213
0.0775214
0.144309
0.123199
0.106236
0.0924295
0.081116
0.0725368
0.143401
0.122295
0.105337
0.091564
0.0803788
0.072372
0.143498
0.122431
0.105528
0.0918242
0.080693
0.0724333
0.171086
0.14454
0.123528
0.106707
0.0931073
0.0820497
0.0733056
0.175301
0.148952
0.128081
0.111412
0.0980108
0.0872725
0.0791868
0.203017
0.173139
0.149899
0.131523
0.116956
0.106048
0.0987592
0.299758
0.270016
0.245889
0.226194
0.210311
0.199869
0.189435
0.173138
0.149897
0.131524
0.116958
0.106052
0.0987664
0.109725
0.0931167
0.0800351
0.0695543
0.0603109
0.0549371
0.111145
0.092683
0.0781567
0.0666216
0.0571491
0.0497571
0.117765
0.0977869
0.0820983
0.069628
0.0595916
0.051388
0.122313
0.101415
0.0849998
0.0719481
0.0614568
0.0529569
0.122297
0.101399
0.0849819
0.0719269
0.0614319
0.0529215
0.14352
0.117735
0.0977553
0.0820614
0.0695838
0.0595351
0.0512274
0.134831
0.11112
0.0926576
0.078128
0.0665896
0.0570959
0.049761
0.131216
0.109721
0.093116
0.0800359
0.0695556
0.0603134
0.0549435
0.202868
0.172926
0.149569
0.130967
0.115937
0.104113
0.0952484
0.148951
0.128081
0.111413
0.0980131
0.0872756
0.0791921
0.111118
0.0926563
0.0781259
0.0665859
0.0570972
0.0497584
0.123866
0.102227
0.0853069
0.0719136
0.0611639
0.0525595
0.13833
0.113789
0.0946039
0.079429
0.0672916
0.0574975
0.146797
0.120673
0.100232
0.0840527
0.0711094
0.0606322
0.146785
0.120662
0.100219
0.084038
0.0710954
0.0606409
0.17011
0.138312
0.11377
0.0945824
0.0794047
0.0672673
0.0575065
0.151908
0.123864
0.102227
0.085308
0.0719154
0.0611668
0.052566
0.134851
0.11114
0.0926809
0.0781559
0.0666214
0.0571491
0.0497606
0.175115
0.14868
0.127686
0.110834
0.0971537
0.0860238
0.0775252
0.144539
0.123529
0.106708
0.0931091
0.0820527
0.0733107
0.117731
0.0977531
0.0820598
0.069582
0.0595336
0.0512251
0.138311
0.113769
0.0945812
0.0794031
0.0672652
0.0575039
0.158277
0.129949
0.107772
0.0902203
0.0761807
0.0647747
0.169484
0.139166
0.115386
0.0965394
0.0814431
0.0691292
0.169481
0.139163
0.115382
0.0965354
0.0814382
0.0691235
0.194885
0.158276
0.129948
0.107772
0.090221
0.0761817
0.0647762
0.170125
0.138328
0.113788
0.0946041
0.0794296
0.0672927
0.0574993
0.143547
0.117762
0.0977853
0.0820974
0.0696273
0.0595909
0.0513865
0.170921
0.144307
0.123198
0.106235
0.0924291
0.0811159
0.0725405
0.143498
0.122432
0.105528
0.0918255
0.0806948
0.0724364
0.122297
0.101399
0.084982
0.0719271
0.0614322
0.0529214
0.146785
0.120661
0.100219
0.0840378
0.0710951
0.0606414
0.16948
0.139163
0.115382
0.0965352
0.0814382
0.0691249
0.182016
0.149538
0.123999
0.103719
0.0874401
0.0740666
0.182016
0.149538
0.123999
0.10372
0.0874402
0.0740658
0.208557
0.169483
0.139166
0.115386
0.0965392
0.0814431
0.0691298
0.180595
0.146797
0.120673
0.100232
0.0840522
0.0711088
0.0606318
0.149283
0.122315
0.101416
0.085
0.0719479
0.0614565
0.0529564
0.169994
0.143398
0.122292
0.105335
0.0915624
0.0803778
0.0723728
0.143401
0.122295
0.105337
0.091564
0.0803785
0.0723723
0.122313
0.101416
0.0850011
0.07195
0.0614593
0.0529598
0.146796
0.120674
0.100233
0.084054
0.0711111
0.0606349
0.169484
0.139166
0.115386
0.0965398
0.0814437
0.0691314
0.182016
0.149538
0.123999
0.103719
0.0874403
0.0740666
0.182016
0.149538
0.123999
0.103719
0.0874401
0.0740656
0.208554
0.16948
0.139162
0.115382
0.0965346
0.0814375
0.0691236
0.180586
0.146787
0.120662
0.100218
0.0840366
0.0710936
0.0606397
0.149271
0.122303
0.101402
0.084983
0.0719274
0.0614321
0.0529214
0.170064
0.143496
0.12243
0.105526
0.0918228
0.0806917
0.0724315
0.144309
0.123199
0.106235
0.0924285
0.0811144
0.0725333
0.117765
0.0977877
0.0820997
0.0696299
0.0595938
0.0513904
0.13833
0.113789
0.0946051
0.0794306
0.0672936
0.0575011
0.158278
0.129949
0.107772
0.0902206
0.0761812
0.0647755
0.169481
0.139163
0.115382
0.0965346
0.0814374
0.0691227
0.169484
0.139166
0.115386
0.096539
0.0814427
0.0691294
0.194885
0.158276
0.129948
0.107771
0.0902203
0.076181
0.0647755
0.17011
0.138312
0.113769
0.0945813
0.0794033
0.0672656
0.0575047
0.14352
0.117736
0.0977558
0.0820617
0.069584
0.0595352
0.0512275
0.171086
0.144539
0.123528
0.106707
0.0931069
0.0820495
0.0733058
0.14868
0.127685
0.110832
0.0971503
0.086019
0.0775139
0.111145
0.0926836
0.0781576
0.0666235
0.0571453
0.0497607
0.123866
0.102228
0.0853074
0.071914
0.0611645
0.0525635
0.138311
0.113769
0.0945808
0.0794023
0.0672644
0.0575017
0.146785
0.120661
0.100217
0.0840361
0.071093
0.060638
0.146796
0.120673
0.100232
0.0840525
0.0711094
0.060633
0.170125
0.138328
0.113788
0.0946043
0.07943
0.0672931
0.0574993
0.151908
0.123864
0.102227
0.0853073
0.0719146
0.0611646
0.0525605
0.134831
0.11112
0.0926575
0.0781277
0.066589
0.057095
0.0497612
0.175301
0.148952
0.128081
0.111413
0.0980114
0.0872737
0.0791883
0.172925
0.149566
0.130963
0.11593
0.104104
0.0952323
0.109724
0.0931158
0.0800339
0.0695525
0.0603089
0.0549388
0.111118
0.0926555
0.0781248
0.0665846
0.0570958
0.049756
0.117731
0.0977525
0.0820591
0.0695813
0.0595328
0.0512241
0.122296
0.101399
0.0849817
0.071927
0.061432
0.0529211
0.122313
0.101415
0.085001
0.0719499
0.0614593
0.0529595
0.143547
0.117762
0.0977863
0.082099
0.0696294
0.0595933
0.0513893
0.134851
0.11114
0.0926812
0.0781564
0.0666227
0.0571446
0.04976
0.131215
0.10972
0.0931152
0.0800348
0.0695541
0.0603116
0.0549441
0.203017
0.173138
0.149899
0.131524
0.116956
0.106048
0.0987604
0.270013
0.245886
0.226191
0.210307
0.199862
0.189416
0.173137
0.149897
0.131523
0.116957
0.10605
0.0987621
0.148951
0.128081
0.111414
0.0980135
0.0872751
0.0791846
0.14454
0.123529
0.106709
0.0931098
0.0820528
0.0733043
0.143499
0.122433
0.105529
0.0918259
0.0806951
0.0724356
0.143402
0.122295
0.105337
0.0915639
0.0803781
0.0723707
0.170922
0.144307
0.123198
0.106235
0.0924276
0.081113
0.0725325
0.175114
0.148679
0.127685
0.110832
0.0971506
0.0860197
0.0775169
0.202868
0.172925
0.149567
0.130964
0.115932
0.104105
0.0952351
0.299758
0.270015
0.245888
0.226193
0.210307
0.199862
0.189417
0.319341
0.261316
0.21763
0.192801
0.133704
0.112206
0.0966753
0.0855852
0.0992129
0.0840898
0.0730269
0.110783
0.0958858
0.0841586
0.0760028
0.055855
0.0498469
0.0437505
0.0394298
0.0483356
0.041635
0.0363526
0.0797558
0.0704566
0.0623916
0.0464551
0.0419604
0.0363015
0.0452535
0.0394686
0.0344189
0.0767778
0.0637655
0.0560529
0.0457918
0.0408215
0.0354394
0.047528
0.041294
0.0359738
)
;

boundaryField
{
    inlet
    {
        type            fixedValue;
        value           nonuniform List<scalar> 0();
    }
    ami1
    {
        type            cyclicAMI;
        value           nonuniform List<scalar> 
100
(
0.133704
0.0928503
0.0998106
0.0861404
0.0771573
0.073344
0.0711591
0.0735018
0.0858618
0.133705
0.0858902
0.0606543
0.0480501
0.0487216
0.0500877
0.0502085
0.049346
0.0512286
0.0606561
0.0928577
0.0735169
0.0511353
0.0501241
0.0535654
0.0561569
0.0562754
0.0538815
0.0501764
0.0480447
0.0998142
0.0711664
0.0493306
0.053865
0.0599941
0.063673
0.063664
0.0599986
0.0535627
0.0487189
0.0861438
0.0733481
0.0502063
0.0562694
0.0636662
0.0679653
0.0679639
0.063668
0.0561626
0.0500991
0.0771717
0.0771578
0.0500921
0.0561541
0.0636724
0.067966
0.0679612
0.0636642
0.0562693
0.0502034
0.0733381
0.086133
0.0487271
0.0535576
0.0599956
0.0636641
0.0636657
0.0599942
0.0538661
0.049333
0.0711602
0.0997959
0.0480513
0.0501078
0.0538619
0.0562707
0.0561545
0.0535653
0.0501212
0.0511335
0.0735132
0.0928385
0.0606521
0.0511155
0.0493491
0.0502062
0.0500902
0.0487253
0.0480422
0.0606538
0.0858873
0.133693
0.0858847
0.0734854
0.0711533
0.0733449
0.0771558
0.0861329
0.0998047
0.0928443
0.133695
)
;
    }
    walls
    {
        type            epsilonWallFunction;
        blending        stepwise;
        value           nonuniform List<scalar> 
283
(
0.299758
0.202868
0.175115
0.170921
0.169994
0.170064
0.171086
0.175301
0.203017
0.299758
0.270016
0.172926
0.14868
0.144307
0.143398
0.143496
0.144539
0.148952
0.173138
0.270015
0.245889
0.149569
0.127686
0.123198
0.122292
0.12243
0.123528
0.128081
0.149899
0.245888
0.226194
0.130967
0.110834
0.106235
0.105335
0.105526
0.106707
0.111413
0.131524
0.226193
0.210311
0.115937
0.0971537
0.0924291
0.0915624
0.0918228
0.0931069
0.0980114
0.116956
0.210307
0.199869
0.104113
0.0860238
0.0811159
0.0803778
0.0806917
0.0820495
0.0872737
0.106048
0.199862
0.189435
0.0952484
0.0775252
0.0725405
0.0723728
0.0724315
0.0733058
0.0791883
0.0987604
0.189417
0.171086
0.175301
0.203017
0.299758
0.270013
0.172925
0.14868
0.144309
0.143401
0.143498
0.14454
0.148952
0.173139
0.270016
0.245887
0.149567
0.127686
0.123199
0.122295
0.122431
0.123528
0.128081
0.149899
0.245889
0.226193
0.130965
0.110833
0.106236
0.105337
0.105528
0.106707
0.111412
0.131523
0.226194
0.210311
0.115934
0.0971522
0.0924295
0.091564
0.0918242
0.0931073
0.0980108
0.116956
0.210311
0.199872
0.104109
0.0860213
0.081116
0.0803788
0.080693
0.0820497
0.0872725
0.106048
0.199869
0.189426
0.0952409
0.0775214
0.0725368
0.072372
0.0724333
0.0733056
0.0791868
0.0987592
0.189435
0.270013
0.173138
0.148951
0.144539
0.143498
0.143401
0.144309
0.14868
0.172925
0.270013
0.245887
0.149897
0.128081
0.123529
0.122432
0.122295
0.123199
0.127685
0.149566
0.245886
0.226193
0.131524
0.111413
0.106708
0.105528
0.105337
0.106235
0.110832
0.130963
0.226191
0.210311
0.116958
0.0980131
0.0931091
0.0918255
0.091564
0.0924285
0.0971503
0.11593
0.210307
0.199872
0.106052
0.0872756
0.0820527
0.0806948
0.0803785
0.0811144
0.086019
0.104104
0.199862
0.189426
0.0987664
0.0791921
0.0733107
0.0724364
0.0723723
0.0725333
0.0775139
0.0952323
0.189416
0.170922
0.175114
0.202868
0.299758
0.270013
0.173137
0.148951
0.14454
0.143499
0.143402
0.144307
0.148679
0.172925
0.270015
0.245886
0.149897
0.128081
0.123529
0.122433
0.122295
0.123198
0.127685
0.149567
0.245888
0.226191
0.131523
0.111414
0.106709
0.105529
0.105337
0.106235
0.110832
0.130964
0.226193
0.210307
0.116957
0.0980135
0.0931098
0.0918259
0.0915639
0.0924276
0.0971506
0.115932
0.210307
0.199862
0.10605
0.0872751
0.0820528
0.0806951
0.0803781
0.081113
0.0860197
0.104105
0.199862
0.189416
0.0987621
0.0791846
0.0733043
0.0724356
0.0723707
0.0725325
0.0775169
0.0952351
0.189417
0.319341
0.133704
0.0992129
0.261316
0.112206
0.0840898
0.21763
0.0966753
0.0730269
0.192801
0.0855852
0.319341
0.110783
0.0797558
0.0767778
0.261316
0.0958858
0.0704566
0.0637655
0.21763
0.0841586
0.0623916
0.0560529
0.192801
0.0760028
)
;
    }
    ami2
    {
        type            cyclicAMI;
        value           nonuniform List<scalar> 
12
(
0.197745
0.103111
0.0857987
0.0979212
0.064789
0.0564354
0.0932538
0.0504177
0.0484507
0.087187
0.0487951
0.0514624
)
;
    }
    outlet
    {
        type            zeroGradient;
    }
    procBoundary2to0
    {
        type            processor;
        value           nonuniform List<scalar> 
28
(
0.177752
0.0779787
0.0648215
0.0800438
0.070068
0.0648215
0.0622966
0.0703267
0.0564563
0.0354843
0.0317692
0.0312943
0.0465311
0.0404272
0.0317692
0.0353781
0.0564563
0.0312943
0.0476439
0.0413071
0.0300792
0.0360076
0.0505457
0.0311477
0.0520933
0.0450349
0.031494
0.0391752
)
;
    }
    procBoundary2to1
    {
        type            processor;
        value           nonuniform List<scalar> 9(0.0716986 0.0610271 0.0538749 0.0468506 0.0407635 0.0356327 0.0499594 0.0432631 0.0376505);
    }
    procBoundary2to3
    {
        type            processor;
        value           nonuniform List<scalar> 
110
(
0.299765
0.202871
0.175114
0.17092
0.169991
0.170062
0.170062
0.205047
0.209041
0.241412
0.336244
0.203022
0.131212
0.134846
0.143544
0.149284
0.149274
0.149274
0.177328
0.165892
0.159193
0.241337
0.175302
0.134832
0.151907
0.170124
0.180595
0.180587
0.180587
0.211893
0.18882
0.165902
0.208906
0.171086
0.143525
0.170111
0.194884
0.208556
0.208554
0.208554
0.242782
0.211903
0.177342
0.204928
0.170062
0.149276
0.180588
0.208554
0.223733
0.223733
0.223733
0.259498
0.224911
0.184611
0.20395
0.169991
0.149285
0.180596
0.208556
0.223732
0.223733
0.223733
0.259496
0.224904
0.184604
0.204001
0.17092
0.143545
0.170124
0.194884
0.208554
0.208556
0.208556
0.242782
0.211892
0.177328
0.205047
0.175114
0.134846
0.151907
0.17011
0.180587
0.180596
0.180596
0.211903
0.188819
0.165892
0.209041
0.202872
0.131211
0.134831
0.143525
0.149276
0.149286
0.149286
0.177343
0.165902
0.159193
0.241412
0.299765
0.203022
0.175302
0.171086
0.170062
0.169992
0.169992
0.204927
0.208906
0.241337
0.336245
)
;
    }
}


// ************************************************************************* //
