/*--------------------------------*- C++ -*----------------------------------*\
| =========                 |                                                 |
| \\      /  F ield         | OpenFOAM: The Open Source CFD Toolbox           |
|  \\    /   O peration     | Version:  2212                                  |
|   \\  /    A nd           | Website:  www.openfoam.com                      |
|    \\/     M anipulation  |                                                 |
\*---------------------------------------------------------------------------*/
FoamFile
{
    version     2.0;
    format      ascii;
    arch        "LSB;label=32;scalar=64";
    class       volScalarField;
    location    "2";
    object      k;
}
// * * * * * * * * * * * * * * * * * * * * * * * * * * * * * * * * * * * * * //

dimensions      [0 2 -2 0 0 0 0];

internalField   nonuniform List<scalar> 
680
(
0.00442638
0.00415893
0.00393434
0.00374905
0.00362672
0.00350482
0.00544814
0.00494597
0.00452725
0.00417465
0.00388785
0.00366758
0.00628382
0.00567742
0.00516624
0.00473204
0.00436383
0.00407392
0.00702819
0.00632472
0.00572967
0.00522131
0.00478485
0.00443511
0.00742833
0.00668003
0.0060469
0.005507
0.00504794
0.0047051
0.00743187
0.00668529
0.00605465
0.00551821
0.00506269
0.00471418
0.00787307
0.007036
0.00633645
0.00574734
0.00524805
0.00482398
0.00447557
0.00701329
0.0062917
0.00568942
0.00518463
0.00476038
0.0044067
0.00413137
0.00606308
0.00545269
0.00495333
0.00454013
0.00419912
0.0039354
0.00375612
0.00474558
0.00442641
0.00415895
0.00393434
0.00374904
0.00362668
0.0035048
0.00545268
0.00495331
0.00454014
0.00419919
0.00393553
0.00375636
0.010267
0.00907967
0.00808515
0.00724383
0.00654283
0.00590403
0.0126111
0.0111399
0.00990633
0.008862
0.0079735
0.00720383
0.014236
0.0125666
0.0111634
0.00997301
0.00895373
0.00806406
0.0150876
0.0133181
0.0118301
0.0105676
0.009487
0.00855024
0.0150926
0.0133253
0.0118402
0.0105819
0.00950706
0.0085849
0.0162484
0.0142466
0.012582
0.0111856
0.0100049
0.00899893
0.00814284
0.0143883
0.0126198
0.0111525
0.00992471
0.00888909
0.00801263
0.00727325
0.011698
0.010267
0.00907972
0.00808516
0.0072438
0.00654279
0.00590389
0.00606005
0.00544816
0.00494602
0.0045273
0.00417471
0.00388793
0.00366774
0.00629168
0.00568943
0.00518467
0.00476046
0.00440681
0.00413155
0.0126197
0.0111525
0.00992477
0.00888924
0.0080128
0.00727304
0.0165858
0.0146295
0.0129884
0.0116001
0.010415
0.00938249
0.0191797
0.0169121
0.0150063
0.0133907
0.0120067
0.0107906
0.0205066
0.0180847
0.0160465
0.0143166
0.0128305
0.0115069
0.0205089
0.0180879
0.016051
0.014323
0.0128416
0.0115399
0.021904
0.0191837
0.0169177
0.0150141
0.0134017
0.012023
0.0108228
0.0189388
0.0165858
0.0146295
0.0129884
0.0116001
0.0104149
0.00938257
0.0143823
0.0126111
0.0111399
0.00990638
0.00886206
0.0079736
0.00720383
0.00700816
0.00628382
0.00567744
0.00516627
0.00473209
0.00436392
0.00407407
0.007036
0.00633647
0.00574738
0.00524813
0.0048241
0.00447577
0.0142466
0.012582
0.0111856
0.010005
0.00899915
0.00814309
0.0191837
0.0169177
0.0150141
0.0134017
0.0120231
0.0108228
0.0224671
0.0198152
0.0175814
0.0156847
0.0140571
0.0126286
0.024135
0.0212948
0.0188976
0.0168581
0.0151018
0.013542
0.0241356
0.0212956
0.0188987
0.0168597
0.0151052
0.0135532
0.0256401
0.0224671
0.0198151
0.0175814
0.0156847
0.0140571
0.0126288
0.0219011
0.0191796
0.0169121
0.0150063
0.0133907
0.0120067
0.0107907
0.016241
0.0142359
0.0125666
0.0111634
0.00997305
0.00895377
0.00806433
0.0078678
0.00702814
0.00632469
0.00572965
0.00522131
0.00478493
0.0044365
0.00743188
0.00668531
0.00605468
0.00551826
0.00506276
0.00471432
0.0150926
0.0133253
0.0118403
0.010582
0.00950723
0.00858514
0.020509
0.018088
0.016051
0.0143231
0.0128417
0.01154
0.0241356
0.0212956
0.0188987
0.0168598
0.0151052
0.0135531
0.0259745
0.0229318
0.0203575
0.0181626
0.0162669
0.0145738
0.0259744
0.0229318
0.0203575
0.0181626
0.0162669
0.0145739
0.0275248
0.024135
0.0212948
0.0188976
0.016858
0.0151018
0.0135421
0.0234087
0.0205066
0.0180847
0.0160465
0.0143166
0.0128306
0.011507
0.0172114
0.0150874
0.013318
0.01183
0.0105676
0.0094871
0.00855056
0.00832062
0.00742822
0.00667994
0.00604682
0.00550694
0.0050479
0.00470519
0.00742834
0.00668003
0.0060469
0.005507
0.00504793
0.00470512
0.0150876
0.0133181
0.0118301
0.0105676
0.00948706
0.00855031
0.0205066
0.0180847
0.0160465
0.0143166
0.0128306
0.0115068
0.024135
0.0212948
0.0188976
0.0168581
0.0151018
0.0135419
0.0259745
0.0229318
0.0203575
0.0181626
0.0162669
0.0145739
0.0259745
0.0229318
0.0203575
0.0181626
0.0162669
0.0145739
0.0275252
0.0241356
0.0212956
0.0188987
0.0168597
0.0151052
0.0135532
0.0234104
0.0205089
0.0180879
0.016051
0.014323
0.0128417
0.01154
0.0172149
0.0150925
0.0133252
0.0118401
0.0105819
0.00950714
0.008585
0.00832302
0.0074318
0.00668522
0.00605458
0.00551815
0.00506264
0.00471412
0.00702819
0.00632471
0.00572965
0.00522127
0.00478479
0.004435
0.014236
0.0125666
0.0111634
0.00997291
0.00895356
0.00806378
0.0191796
0.0169121
0.0150062
0.0133906
0.0120065
0.0107903
0.0224671
0.0198151
0.0175814
0.0156847
0.014057
0.0126286
0.0241356
0.0212956
0.0188987
0.0168597
0.0151051
0.0135531
0.024135
0.0212948
0.0188976
0.0168581
0.0151018
0.0135421
0.0256401
0.0224671
0.0198152
0.0175814
0.0156847
0.0140571
0.0126287
0.021904
0.0191837
0.0169178
0.0150141
0.0134017
0.0120231
0.0108227
0.0162484
0.0142466
0.0125819
0.0111855
0.0100049
0.00899897
0.00814279
0.00787306
0.00703598
0.00633643
0.00574732
0.00524803
0.00482397
0.00447557
0.00628381
0.0056774
0.0051662
0.00473197
0.00436375
0.00407365
0.0126111
0.0111398
0.00990622
0.0088618
0.00797321
0.00720331
0.0165858
0.0146295
0.0129883
0.0115999
0.0104147
0.00938231
0.0191837
0.0169177
0.0150141
0.0134017
0.0120231
0.0108229
0.020509
0.018088
0.016051
0.0143231
0.0128417
0.0115402
0.0205066
0.0180847
0.0160466
0.0143167
0.0128307
0.0115071
0.0219011
0.0191797
0.0169121
0.0150063
0.0133908
0.0120067
0.0107906
0.0189389
0.0165858
0.0146295
0.0129884
0.0116
0.0104149
0.00938237
0.0143883
0.0126198
0.0111525
0.00992472
0.00888909
0.00801268
0.00727274
0.00701328
0.0062917
0.00568942
0.00518464
0.0047604
0.00440674
0.00413142
0.00544814
0.00494596
0.00452721
0.00417457
0.00388772
0.00366737
0.010267
0.00907962
0.00808507
0.00724369
0.00654265
0.0059037
0.0126197
0.0111524
0.00992473
0.00888917
0.00801273
0.00727283
0.0142466
0.012582
0.0111857
0.010005
0.00899918
0.00814316
0.0150926
0.0133253
0.0118403
0.010582
0.00950734
0.00858526
0.0150876
0.0133182
0.0118302
0.0105677
0.00948718
0.00855042
0.016241
0.0142359
0.0125666
0.0111634
0.00997298
0.00895363
0.00806394
0.0143823
0.0126111
0.0111399
0.00990631
0.00886191
0.00797341
0.00720356
0.011698
0.010267
0.0090797
0.00808513
0.00724373
0.00654273
0.00590369
0.00606308
0.00545269
0.00495334
0.00454014
0.00419913
0.00393542
0.00375621
0.00442638
0.00415893
0.00393432
0.00374901
0.00362661
0.00350469
0.00545267
0.00495331
0.00454014
0.00419918
0.0039355
0.00375628
0.00629169
0.00568944
0.00518468
0.00476048
0.0044068
0.00413133
0.00703601
0.00633649
0.00574741
0.00524815
0.00482412
0.00447563
0.00743191
0.00668533
0.0060547
0.00551828
0.00506278
0.00471428
0.00742836
0.00668005
0.00604691
0.00550699
0.0050479
0.00470503
0.00786781
0.00702814
0.00632468
0.00572962
0.00522124
0.00478472
0.00443494
0.00700815
0.00628381
0.0056774
0.00516621
0.00473199
0.00436378
0.00407377
0.00606005
0.00544814
0.00494599
0.00452724
0.0041746
0.00388775
0.00366744
0.00474558
0.00442641
0.00415894
0.00393433
0.00374901
0.0036266
0.00350467
0.00444412
0.00387334
0.00341235
0.00313713
0.00409728
0.00364055
0.00329403
0.00303093
0.00429351
0.00384599
0.00350521
0.00363343
0.00329225
0.00300811
0.00280133
0.00423656
0.00395683
0.00365146
0.00339035
0.00561266
0.00513961
0.00470803
0.003685
0.0034052
0.00315145
0.00605031
0.00536023
0.00482887
0.00743612
0.00678428
0.00620471
0.00418589
0.0036825
0.0033778
0.00679403
0.00618785
0.00563162
0.00898473
0.00811809
0.00738267
)
;

boundaryField
{
    inlet
    {
        type            fixedValue;
        value           nonuniform List<scalar> 0();
    }
    ami1
    {
        type            cyclicAMI;
        value           nonuniform List<scalar> 
100
(
0.00374794
0.00367972
0.00419679
0.00444252
0.0048072
0.0047671
0.0043743
0.00418396
0.00401714
0.00374783
0.00401809
0.00545348
0.00686146
0.00761991
0.00809328
0.00819812
0.00775775
0.00692342
0.0054529
0.00367988
0.0041845
0.00692342
0.00885676
0.0101934
0.0108256
0.0109065
0.0102493
0.00885665
0.00686122
0.00419724
0.00437459
0.00775788
0.0102491
0.0119552
0.0127704
0.0128023
0.0119559
0.0101934
0.00762063
0.0044436
0.00476726
0.00819827
0.0109063
0.0128016
0.013735
0.0137354
0.0127708
0.0108255
0.0080935
0.00480759
0.00480716
0.00809334
0.0108255
0.0127702
0.0137352
0.0137353
0.0128019
0.0109064
0.00819829
0.00476713
0.00444234
0.00761981
0.0101934
0.0119553
0.0128018
0.0127706
0.0119553
0.0102491
0.00775768
0.00437435
0.00419652
0.00686112
0.0088569
0.0102497
0.0109067
0.0108257
0.0101934
0.00885671
0.00692333
0.00418436
0.00367938
0.00545316
0.00692317
0.00775708
0.00819832
0.00809339
0.00761966
0.00686126
0.00545322
0.004018
0.00374767
0.00401787
0.00418351
0.00437417
0.00476716
0.00480711
0.00444236
0.00419673
0.00367952
0.00374768
)
;
    }
    walls
    {
        type            kqRWallFunction;
        value           nonuniform List<scalar> 
283
(
0.00474558
0.00606005
0.00700816
0.0078678
0.00832062
0.00832302
0.00787306
0.00701328
0.00606308
0.00474558
0.00442641
0.00544816
0.00628382
0.00702814
0.00742822
0.0074318
0.00703598
0.0062917
0.00545269
0.00442641
0.00415895
0.00494602
0.00567744
0.00632469
0.00667994
0.00668522
0.00633643
0.00568942
0.00495334
0.00415894
0.00393434
0.0045273
0.00516627
0.00572965
0.00604682
0.00605458
0.00574732
0.00518464
0.00454014
0.00393433
0.00374904
0.00417471
0.00473209
0.00522131
0.00550694
0.00551815
0.00524803
0.0047604
0.00419913
0.00374901
0.00362668
0.00388793
0.00436392
0.00478493
0.0050479
0.00506264
0.00482397
0.00440674
0.00393542
0.0036266
0.0035048
0.00366774
0.00407407
0.0044365
0.00470519
0.00471412
0.00447557
0.00413142
0.00375621
0.00350467
0.00787307
0.00701329
0.00606308
0.00474558
0.00442638
0.00544814
0.00628382
0.00702819
0.00742833
0.00743187
0.007036
0.0062917
0.00545269
0.00442641
0.00415893
0.00494597
0.00567742
0.00632472
0.00668003
0.00668529
0.00633645
0.00568942
0.00495333
0.00415895
0.00393434
0.00452725
0.00516624
0.00572967
0.0060469
0.00605465
0.00574734
0.00518463
0.00454013
0.00393434
0.00374905
0.00417465
0.00473204
0.00522131
0.005507
0.00551821
0.00524805
0.00476038
0.00419912
0.00374904
0.00362672
0.00388785
0.00436383
0.00478485
0.00504794
0.00506269
0.00482398
0.0044067
0.0039354
0.00362668
0.00350482
0.00366758
0.00407392
0.00443511
0.0047051
0.00471418
0.00447557
0.00413137
0.00375612
0.0035048
0.00442638
0.00545268
0.00629168
0.007036
0.00743188
0.00742834
0.00702819
0.00628381
0.00544814
0.00442638
0.00415893
0.00495331
0.00568943
0.00633647
0.00668531
0.00668003
0.00632471
0.0056774
0.00494596
0.00415893
0.00393434
0.00454014
0.00518467
0.00574738
0.00605468
0.0060469
0.00572965
0.0051662
0.00452721
0.00393432
0.00374905
0.00419919
0.00476046
0.00524813
0.00551826
0.005507
0.00522127
0.00473197
0.00417457
0.00374901
0.00362672
0.00393553
0.00440681
0.0048241
0.00506276
0.00504793
0.00478479
0.00436375
0.00388772
0.00362661
0.00350482
0.00375636
0.00413155
0.00447577
0.00471432
0.00470512
0.004435
0.00407365
0.00366737
0.00350469
0.00786781
0.00700815
0.00606005
0.00474558
0.00442638
0.00545267
0.00629169
0.00703601
0.00743191
0.00742836
0.00702814
0.00628381
0.00544814
0.00442641
0.00415893
0.00495331
0.00568944
0.00633649
0.00668533
0.00668005
0.00632468
0.0056774
0.00494599
0.00415894
0.00393432
0.00454014
0.00518468
0.00574741
0.0060547
0.00604691
0.00572962
0.00516621
0.00452724
0.00393433
0.00374901
0.00419918
0.00476048
0.00524815
0.00551828
0.00550699
0.00522124
0.00473199
0.0041746
0.00374901
0.00362661
0.0039355
0.0044068
0.00482412
0.00506278
0.0050479
0.00478472
0.00436378
0.00388775
0.0036266
0.00350469
0.00375628
0.00413133
0.00447563
0.00471428
0.00470503
0.00443494
0.00407377
0.00366744
0.00350467
0.00444412
0.00409728
0.00429351
0.00387334
0.00364055
0.00384599
0.00341235
0.00329403
0.00350521
0.00313713
0.00303093
0.00444412
0.00363343
0.003685
0.00418589
0.00387334
0.00329225
0.0034052
0.0036825
0.00341235
0.00300811
0.00315145
0.0033778
0.00313713
0.00280133
)
;
    }
    ami2
    {
        type            cyclicAMI;
        value           nonuniform List<scalar> 
12
(
0.00431429
0.00430023
0.0044991
0.0037688
0.00432032
0.00584322
0.00381219
0.00643592
0.00779623
0.00449987
0.00710178
0.00951196
)
;
    }
    outlet
    {
        type            zeroGradient;
    }
    procBoundary2to0
    {
        type            processor;
        value           nonuniform List<scalar> 
28
(
0.00296543
0.00284413
0.00323054
0.00427859
0.00391942
0.00323054
0.00362496
0.00265554
0.00294687
0.00318321
0.00435163
0.00442485
0.00673215
0.0060872
0.00435163
0.00553765
0.00294687
0.00442485
0.00873795
0.00797086
0.00570071
0.00729005
0.00315525
0.00515324
0.0103582
0.00944015
0.00675049
0.00862849
)
;
    }
    procBoundary2to1
    {
        type            processor;
        value           nonuniform List<scalar> 9(0.00431563 0.00386918 0.00355517 0.00733945 0.00665663 0.00606592 0.00967578 0.00881119 0.00804388);
    }
    procBoundary2to3
    {
        type            processor;
        value           nonuniform List<scalar> 
110
(
0.00474565
0.00606013
0.00700815
0.00786776
0.00832053
0.00832294
0.00832294
0.00888319
0.00788646
0.00680516
0.00512312
0.00606318
0.0116982
0.0143824
0.016241
0.0172113
0.0172148
0.0172148
0.0186798
0.01654
0.0134409
0.00680374
0.0070133
0.0143884
0.0189389
0.0219011
0.0234086
0.0234103
0.0234103
0.0252
0.0217975
0.0165358
0.00788298
0.00787305
0.0162484
0.021904
0.0256401
0.0275248
0.0275252
0.0275252
0.0294675
0.0251979
0.0186746
0.00887961
0.00832295
0.0172148
0.0234104
0.0275253
0.0295948
0.0295948
0.0295948
0.0316005
0.0269171
0.0197868
0.00939482
0.00832053
0.0172113
0.0234087
0.0275248
0.0295948
0.0295948
0.0295948
0.0316008
0.0269183
0.0197893
0.00939647
0.00786775
0.0162409
0.0219011
0.0256401
0.0275253
0.0275248
0.0275248
0.0294675
0.0252
0.0186798
0.00888319
0.00700815
0.0143824
0.0189389
0.021904
0.0234104
0.0234087
0.0234087
0.0251979
0.0217975
0.01654
0.00788646
0.00606013
0.0116982
0.0143884
0.0162484
0.0172148
0.0172113
0.0172113
0.0186746
0.0165358
0.0134409
0.00680517
0.00474566
0.00606319
0.00701332
0.00787306
0.00832296
0.00832054
0.00832054
0.0088796
0.00788297
0.00680374
0.00512313
)
;
    }
}


// ************************************************************************* //
