/*--------------------------------*- C++ -*----------------------------------*\
| =========                 |                                                 |
| \\      /  F ield         | OpenFOAM: The Open Source CFD Toolbox           |
|  \\    /   O peration     | Version:  2212                                  |
|   \\  /    A nd           | Website:  www.openfoam.com                      |
|    \\/     M anipulation  |                                                 |
\*---------------------------------------------------------------------------*/
FoamFile
{
    version     2.0;
    format      ascii;
    arch        "LSB;label=32;scalar=64";
    class       volScalarField;
    location    "2";
    object      nut;
}
// * * * * * * * * * * * * * * * * * * * * * * * * * * * * * * * * * * * * * //

dimensions      [0 2 -1 0 0 0 0];

internalField   nonuniform List<scalar> 
680
(
6.53064e-06
6.33097e-06
6.15895e-06
6.01484e-06
5.9227e-06
5.83626e-06
1.54483e-05
1.47201e-05
1.4085e-05
1.35292e-05
1.30669e-05
1.2711e-05
2.39021e-05
2.27197e-05
2.16732e-05
2.07437e-05
1.99238e-05
1.92684e-05
3.08061e-05
2.92226e-05
2.78119e-05
2.65455e-05
2.54023e-05
2.44058e-05
3.46317e-05
3.28392e-05
3.12412e-05
2.98091e-05
2.85318e-05
2.75303e-05
3.46412e-05
3.28542e-05
3.12647e-05
2.98457e-05
2.85871e-05
2.76133e-05
3.26073e-05
3.08253e-05
2.92528e-05
2.786e-05
2.66229e-05
2.55256e-05
2.45924e-05
2.52523e-05
2.39184e-05
2.27455e-05
2.17143e-05
2.0809e-05
2.00259e-05
1.9399e-05
1.62966e-05
1.5455e-05
1.47313e-05
1.41051e-05
1.35686e-05
1.31437e-05
1.28572e-05
6.7616e-06
6.53065e-06
6.33097e-06
6.15893e-06
6.01481e-06
5.92265e-06
5.83592e-06
1.5455e-05
1.47312e-05
1.41051e-05
1.35688e-05
1.3144e-05
1.28579e-05
8.64619e-05
7.9681e-05
7.35085e-05
6.78977e-05
6.38819e-05
5.71051e-05
0.000128783
0.000120505
0.000113006
0.000106094
0.000100122
9.38673e-05
0.000154882
0.000145344
0.000136616
0.000128562
0.000121078
0.000113891
0.000167497
0.000157407
0.000148184
0.000139694
0.000131804
0.000124244
0.000167631
0.000157601
0.000148468
0.000140112
0.000132416
0.000125337
0.00016556
0.000155153
0.000145747
0.00013722
0.000129466
0.00012242
0.000116491
0.00013819
0.000128989
0.00012081
0.000113468
0.000106795
0.000101202
9.56777e-05
9.38606e-05
8.64658e-05
7.96825e-05
7.35081e-05
6.78959e-05
6.38784e-05
5.70957e-05
1.62922e-05
1.54483e-05
1.47202e-05
1.40851e-05
1.35292e-05
1.3067e-05
1.2711e-05
2.39184e-05
2.27456e-05
2.17144e-05
2.08092e-05
2.00262e-05
1.93994e-05
0.00012899
0.000120812
0.000113472
0.000106804
0.000101204
9.56772e-05
0.000199878
0.000188423
0.00017798
0.000168404
0.000159611
0.00015074
0.000239336
0.000226224
0.000214229
0.000203175
0.000192809
0.000182257
0.000257818
0.000243923
0.000231205
0.000219467
0.000208356
0.000196541
0.000257897
0.000244034
0.000231364
0.000219702
0.000208755
0.000197644
0.000253839
0.000239467
0.000226413
0.000214502
0.00020357
0.000193404
0.000183317
0.000212504
0.000199881
0.000188424
0.000177978
0.000168399
0.000159603
0.000150723
0.000138053
0.000128789
0.000120508
0.000113008
0.000106096
0.000100125
9.38609e-05
2.52422e-05
2.39022e-05
2.27198e-05
2.16733e-05
2.07439e-05
1.9924e-05
1.92689e-05
3.08253e-05
2.92529e-05
2.78602e-05
2.66231e-05
2.5526e-05
2.4593e-05
0.000155158
0.000145751
0.000137225
0.000129473
0.000122429
0.000116503
0.000239469
0.000226415
0.000214505
0.000203576
0.000193413
0.000183326
0.000287023
0.000271936
0.000258135
0.00024541
0.000233446
0.00022159
0.000309322
0.000293262
0.000278549
0.000264943
0.000252026
0.000238751
0.000309342
0.00029329
0.00027859
0.000265007
0.000252154
0.000239168
0.000303602
0.000287025
0.000271936
0.000258133
0.000245408
0.000233445
0.000221592
0.000253749
0.000239338
0.000226225
0.000214229
0.000203175
0.000192808
0.000182254
0.000165377
0.000154885
0.000145346
0.000136618
0.000128564
0.000121081
0.000113902
3.25951e-05
3.08061e-05
2.92226e-05
2.78119e-05
2.65456e-05
2.54031e-05
2.44199e-05
3.46412e-05
3.28542e-05
3.12648e-05
2.98459e-05
2.85873e-05
2.76136e-05
0.000167632
0.000157602
0.00014847
0.000140114
0.00013242
0.000125345
0.000257898
0.000244035
0.000231366
0.000219704
0.000208759
0.000197643
0.000309343
0.000293291
0.000278591
0.000265008
0.000252155
0.000239158
0.000333599
0.000316494
0.000300797
0.000286245
0.000272359
0.000258088
0.000333599
0.000316494
0.000300797
0.000286244
0.000272358
0.000258094
0.000326939
0.000309323
0.000293262
0.000278549
0.000264944
0.000252025
0.000238753
0.00027308
0.000257817
0.000243923
0.000231206
0.00021947
0.00020836
0.000196545
0.000178593
0.000167492
0.000157404
0.000148182
0.000139695
0.000131808
0.000124255
3.66539e-05
3.46314e-05
3.28389e-05
3.1241e-05
2.98089e-05
2.85318e-05
2.7531e-05
3.46317e-05
3.28392e-05
3.12412e-05
2.9809e-05
2.85317e-05
2.75303e-05
0.000167498
0.000157407
0.000148182
0.000139691
0.000131801
0.00012424
0.000257819
0.000243922
0.000231204
0.000219465
0.000208352
0.00019653
0.000309322
0.000293261
0.000278548
0.000264942
0.000252024
0.00023874
0.000333599
0.000316494
0.000300797
0.000286244
0.000272357
0.000258089
0.000333599
0.000316494
0.000300797
0.000286244
0.000272357
0.000258094
0.000326954
0.000309343
0.000293292
0.000278592
0.00026501
0.000252156
0.000239166
0.000273134
0.000257894
0.000244034
0.000231367
0.000219707
0.000208765
0.000197651
0.000178681
0.000167622
0.000157596
0.000148465
0.000140111
0.000132418
0.000125341
3.666e-05
3.4641e-05
3.28539e-05
3.12645e-05
2.98455e-05
2.85869e-05
2.76132e-05
3.08061e-05
2.92226e-05
2.78118e-05
2.65454e-05
2.54021e-05
2.44058e-05
0.000154882
0.000145343
0.000136612
0.000128555
0.000121069
0.000113877
0.000239335
0.000226222
0.000214225
0.000203169
0.000192798
0.000182237
0.000287022
0.000271934
0.000258133
0.000245407
0.000233442
0.000221585
0.000309342
0.000293291
0.000278592
0.000265009
0.000252155
0.000239167
0.000309322
0.000293262
0.00027855
0.000264945
0.000252028
0.000238754
0.000303602
0.000287026
0.000271937
0.000258135
0.000245411
0.000233447
0.000221589
0.000253839
0.000239468
0.000226414
0.000214505
0.000203575
0.00019341
0.000183322
0.000165559
0.000155151
0.000145746
0.00013722
0.000129466
0.000122421
0.000116489
3.26073e-05
3.08252e-05
2.92528e-05
2.786e-05
2.66228e-05
2.55256e-05
2.45924e-05
2.39021e-05
2.27197e-05
2.16731e-05
2.07435e-05
1.99236e-05
1.92678e-05
0.000128782
0.000120503
0.000113002
0.000106086
0.000100122
9.38469e-05
0.000199876
0.000188421
0.000177977
0.000168399
0.000159603
0.000150722
0.000239468
0.000226414
0.000214506
0.000203576
0.000193414
0.000183336
0.000257898
0.000244037
0.000231369
0.00021971
0.000208768
0.000197661
0.00025782
0.000243925
0.000231208
0.000219471
0.000208362
0.000196545
0.00025375
0.000239339
0.000226226
0.00021423
0.000203174
0.000192806
0.000182252
0.000212505
0.000199882
0.000188425
0.000177979
0.000168401
0.000159606
0.000150733
0.00013819
0.00012899
0.00012081
0.000113468
0.000106796
0.000101205
9.56637e-05
2.52523e-05
2.39184e-05
2.27455e-05
2.17143e-05
2.08091e-05
2.0026e-05
1.9399e-05
1.54483e-05
1.47201e-05
1.40849e-05
1.35291e-05
1.30667e-05
1.27107e-05
8.64618e-05
7.9681e-05
7.35083e-05
6.78969e-05
6.38805e-05
5.70969e-05
0.00012899
0.000120812
0.000113473
0.000106805
0.000101204
9.56764e-05
0.000155159
0.000145752
0.000137227
0.000129475
0.000122431
0.000116508
0.000167633
0.000157604
0.000148472
0.000140116
0.000132424
0.000125349
0.000167499
0.000157408
0.000148183
0.000139693
0.000131804
0.000124243
0.000165378
0.000154885
0.000145345
0.000136615
0.000128558
0.000121072
0.000113885
0.000138053
0.000128789
0.000120507
0.000113006
0.00010609
0.000100128
9.38546e-05
9.38607e-05
8.6466e-05
7.96829e-05
7.35085e-05
6.7896e-05
6.38793e-05
5.70912e-05
1.62966e-05
1.5455e-05
1.47313e-05
1.41051e-05
1.35687e-05
1.31439e-05
1.28576e-05
6.53064e-06
6.33097e-06
6.15894e-06
6.01482e-06
5.92263e-06
5.83614e-06
1.5455e-05
1.47313e-05
1.41052e-05
1.35688e-05
1.31441e-05
1.28579e-05
2.39184e-05
2.27456e-05
2.17144e-05
2.08093e-05
2.00262e-05
1.93991e-05
3.08254e-05
2.9253e-05
2.78603e-05
2.66232e-05
2.55261e-05
2.45936e-05
3.46413e-05
3.28543e-05
3.12648e-05
2.98459e-05
2.85873e-05
2.76135e-05
3.46317e-05
3.28392e-05
3.12412e-05
2.9809e-05
2.85316e-05
2.75299e-05
3.25952e-05
3.08061e-05
2.92225e-05
2.78118e-05
2.65453e-05
2.54019e-05
2.44054e-05
2.52422e-05
2.39022e-05
2.27198e-05
2.16732e-05
2.07436e-05
1.99237e-05
1.92681e-05
1.62922e-05
1.54483e-05
1.47201e-05
1.4085e-05
1.35291e-05
1.30668e-05
1.27107e-05
6.76161e-06
6.53066e-06
6.33098e-06
6.15895e-06
6.01481e-06
5.92261e-06
5.83605e-06
5.5662e-06
5.1671e-06
4.81539e-06
4.59407e-06
1.13003e-05
1.06307e-05
1.01014e-05
9.66041e-06
1.67224e-05
1.58312e-05
1.51422e-05
1.07251e-05
1.01736e-05
9.6768e-06
9.29269e-06
2.89206e-05
2.82682e-05
2.74279e-05
2.62365e-05
5.86561e-05
5.71011e-05
5.48763e-05
1.53234e-05
1.48118e-05
1.43264e-05
7.09193e-05
6.16267e-05
5.7811e-05
0.000109972
0.000104954
0.000100667
2.05392e-05
1.914e-05
1.83194e-05
9.07214e-05
8.44176e-05
8.05421e-05
0.000152863
0.000143636
0.000136359
)
;

boundaryField
{
    inlet
    {
        type            calculated;
        value           nonuniform List<scalar> 0();
    }
    ami1
    {
        type            cyclicAMI;
        value           nonuniform List<scalar> 
100
(
1.21725e-05
1.33755e-05
2.17536e-05
2.55021e-05
3.16907e-05
3.14213e-05
2.47238e-05
2.16142e-05
1.77394e-05
1.21722e-05
1.77407e-05
5.0105e-05
8.87468e-05
0.000108282
0.000119015
0.000121243
0.000110597
8.95922e-05
5.00812e-05
1.33757e-05
2.16152e-05
8.98078e-05
0.000141649
0.000174703
0.000188004
0.000190364
0.000175714
0.000141527
8.87471e-05
2.17648e-05
2.47248e-05
0.000110636
0.000175757
0.000214569
0.000230674
0.000231879
0.000214581
0.000174712
0.000108313
2.55096e-05
3.14213e-05
0.000121254
0.000190377
0.000231843
0.000250019
0.000250039
0.000230711
0.000187981
0.000118991
3.16835e-05
3.16864e-05
0.000119009
0.00018801
0.000230672
0.000250023
0.000250046
0.000231861
0.000190382
0.000121258
3.14282e-05
2.5499e-05
0.000108269
0.000174729
0.000214568
0.000231857
0.000230712
0.000214574
0.000175755
0.000110624
2.47242e-05
2.17528e-05
8.87364e-05
0.000141699
0.000175791
0.000190386
0.000188016
0.000174703
0.000141653
8.98102e-05
2.16148e-05
1.33748e-05
5.00996e-05
8.98409e-05
0.000110569
0.000121255
0.000119014
0.000108266
8.87547e-05
5.01021e-05
1.77404e-05
1.2172e-05
1.77399e-05
2.16149e-05
2.47246e-05
3.14219e-05
3.16886e-05
2.55012e-05
2.17564e-05
1.3375e-05
1.21717e-05
)
;
    }
    walls
    {
        type            nutkWallFunction;
        blending        stepwise;
        value           uniform 0;
    }
    ami2
    {
        type            cyclicAMI;
        value           nonuniform List<scalar> 
12
(
1.31974e-05
1.82443e-05
2.21219e-05
1.36229e-05
2.69259e-05
6.08537e-05
1.63241e-05
7.77378e-05
0.000112999
2.73949e-05
9.4608e-05
0.000158637
)
;
    }
    outlet
    {
        type            calculated;
        value           nonuniform List<scalar> 0();
    }
    procBoundary2to0
    {
        type            processor;
        value           nonuniform List<scalar> 
28
(
4.45249e-06
9.33609e-06
1.44902e-05
2.05834e-05
1.97318e-05
1.44902e-05
1.89839e-05
9.02463e-06
1.38437e-05
2.57003e-05
5.36463e-05
5.63087e-05
8.76611e-05
8.24904e-05
5.36463e-05
7.80116e-05
1.38437e-05
5.63087e-05
0.000144229
0.000138429
9.72377e-05
0.000132834
1.77266e-05
7.67321e-05
0.000185367
0.000178095
0.000130222
0.000171041
)
;
    }
    procBoundary2to1
    {
        type            processor;
        value           nonuniform List<scalar> 9(2.33787e-05 2.20779e-05 2.11143e-05 0.000103479 9.78319e-05 9.29368e-05 0.000168654 0.000161508 0.000154669);
    }
    procBoundary2to3
    {
        type            processor;
        value           nonuniform List<scalar> 
110
(
6.76167e-06
1.62924e-05
2.52422e-05
3.25951e-05
3.66537e-05
3.66598e-05
3.66598e-05
3.46359e-05
2.67778e-05
1.72648e-05
7.02517e-06
1.62967e-05
9.38649e-05
0.000138059
0.000165379
0.000178589
0.000178674
0.000178674
0.000177096
0.000148418
0.000102135
1.72629e-05
2.52523e-05
0.000138189
0.000212508
0.000253752
0.000273079
0.00027313
0.00027313
0.000269728
0.000226469
0.000148334
2.67714e-05
3.26073e-05
0.000165552
0.000253838
0.000303603
0.00032694
0.000326953
0.000326953
0.000321893
0.000269672
0.000176984
3.46282e-05
3.66598e-05
0.000178672
0.000273131
0.000326954
0.000352326
0.000352325
0.000352325
0.000346334
0.000289927
0.00019087
3.89489e-05
3.66537e-05
0.000178588
0.000273079
0.00032694
0.000352326
0.000352326
0.000352326
0.000346344
0.000289962
0.000190924
3.89528e-05
3.25951e-05
0.000165378
0.000253751
0.000303603
0.000326955
0.00032694
0.00032694
0.000321894
0.00026973
0.000177097
3.46359e-05
2.52422e-05
0.000138059
0.000212508
0.000253839
0.000273132
0.000273079
0.000273079
0.000269672
0.00022647
0.000148418
2.67779e-05
1.62924e-05
9.38656e-05
0.00013819
0.000165553
0.000178673
0.000178588
0.000178588
0.000176983
0.000148334
0.000102136
1.72648e-05
6.76167e-06
1.62968e-05
2.52523e-05
3.26073e-05
3.66598e-05
3.66537e-05
3.66537e-05
3.46282e-05
2.67714e-05
1.72629e-05
7.02518e-06
)
;
    }
}


// ************************************************************************* //
