/*--------------------------------*- C++ -*----------------------------------*\
| =========                 |                                                 |
| \\      /  F ield         | OpenFOAM: The Open Source CFD Toolbox           |
|  \\    /   O peration     | Version:  2212                                  |
|   \\  /    A nd           | Website:  www.openfoam.com                      |
|    \\/     M anipulation  |                                                 |
\*---------------------------------------------------------------------------*/
FoamFile
{
    version     2.0;
    format      ascii;
    arch        "LSB;label=32;scalar=64";
    class       volScalarField;
    location    "2";
    object      p;
}
// * * * * * * * * * * * * * * * * * * * * * * * * * * * * * * * * * * * * * //

dimensions      [0 2 -2 0 0 0 0];

internalField   nonuniform List<scalar> 
680
(
0.00600881
0.00584879
0.00568647
0.00551461
0.00529432
0.00487622
0.00603111
0.00587859
0.00572556
0.00556639
0.00539133
0.00516245
0.00602778
0.0058831
0.00574422
0.0056142
0.00550453
0.00543506
0.00604121
0.0059059
0.00578416
0.00568396
0.00562099
0.00562938
0.00603122
0.00589374
0.00576632
0.00565318
0.00555943
0.00549763
0.00601792
0.0058718
0.00573015
0.00559403
0.00546367
0.0053448
0.00616588
0.00601029
0.0058543
0.00569749
0.00554038
0.00538551
0.0052349
0.00615783
0.0059967
0.00583187
0.0056592
0.00547301
0.00526813
0.00502795
0.00617479
0.00601231
0.00584738
0.00567484
0.0054799
0.00522091
0.00479935
0.00616706
0.00600882
0.00584882
0.0056865
0.00551463
0.00529431
0.00487612
0.00601229
0.00584734
0.00567478
0.00547981
0.00522073
0.0047989
0.00605426
0.00588883
0.00572043
0.0055465
0.00538069
0.00527392
0.00603615
0.00587995
0.0057263
0.00557533
0.00543239
0.00531371
0.00604897
0.00590301
0.00576473
0.00563619
0.00551954
0.0054155
0.00603555
0.0058904
0.00575278
0.00562433
0.00550737
0.00540069
0.00602119
0.00586897
0.00572088
0.00557721
0.00543998
0.00530803
0.00618317
0.00602079
0.00585901
0.00569719
0.00553573
0.00537695
0.00521704
0.00618211
0.00601533
0.00584769
0.00567778
0.00550553
0.00533699
0.00517881
0.00621888
0.00605427
0.00588885
0.00572045
0.0055465
0.00538068
0.00527396
0.00618578
0.0060311
0.00587858
0.00572553
0.00556632
0.00539119
0.00516207
0.00599667
0.00583181
0.00565912
0.00547289
0.00526795
0.00502765
0.0060153
0.00584767
0.00567776
0.0055055
0.00533697
0.00517876
0.00598312
0.00582247
0.00566352
0.00550747
0.00535945
0.00521765
0.00597591
0.00582195
0.00567143
0.00552517
0.00538285
0.00523502
0.00596348
0.00581212
0.00566512
0.00552235
0.00538512
0.00524526
0.0059562
0.00580161
0.00565044
0.00550172
0.0053562
0.00520773
0.00612546
0.00596397
0.00580473
0.00564678
0.00548986
0.00533525
0.00517574
0.00614613
0.00598312
0.00582247
0.0056635
0.00550743
0.00535934
0.00521744
0.00619527
0.00603614
0.00587993
0.00572627
0.00557527
0.0054323
0.00531361
0.00617676
0.00602775
0.00588306
0.00574415
0.00561409
0.00550433
0.00543466
0.00601026
0.00585426
0.00569744
0.0055403
0.00538542
0.0052348
0.00602078
0.00585899
0.00569717
0.00553571
0.00537697
0.00521715
0.00596398
0.00580474
0.00564679
0.00548989
0.00533533
0.0051759
0.0059385
0.00578241
0.00562798
0.00547455
0.00532234
0.00516365
0.00592438
0.00576995
0.00561746
0.00546655
0.00531839
0.005164
0.00592219
0.00576683
0.00561329
0.00546106
0.00531086
0.0051555
0.00609705
0.0059385
0.00578241
0.00562798
0.00547456
0.00532236
0.00516366
0.00613346
0.00597591
0.00582196
0.00567144
0.0055252
0.00538292
0.00523516
0.00620141
0.00604896
0.00590299
0.00576471
0.00563617
0.00551956
0.00541562
0.00618461
0.00604118
0.00590586
0.00578409
0.00568386
0.00562081
0.0056291
0.0060179
0.00587177
0.00573011
0.00559398
0.0054636
0.00534472
0.00602117
0.00586895
0.00572084
0.00557717
0.00543994
0.00530799
0.00595619
0.0058016
0.00565043
0.00550171
0.00535619
0.00520773
0.00592218
0.00576682
0.00561328
0.00546104
0.00531083
0.00515548
0.00590382
0.00574876
0.00559538
0.00544341
0.0052937
0.00513759
0.00590382
0.00574877
0.00559539
0.00544342
0.00529372
0.00513763
0.0060816
0.00592438
0.00576995
0.00561747
0.00546658
0.00531844
0.00516409
0.00611984
0.00596348
0.00581214
0.00566515
0.00552242
0.00538525
0.00524549
0.00618626
0.00603554
0.00589039
0.00575277
0.00562433
0.00550742
0.00540082
0.00617526
0.0060312
0.0058937
0.00576626
0.00565309
0.0055593
0.00549745
0.00603121
0.00589372
0.0057663
0.00565315
0.00555939
0.00549757
0.00603554
0.00589037
0.00575275
0.00562429
0.00550732
0.00540062
0.00596346
0.0058121
0.00566509
0.00552232
0.00538508
0.0052452
0.00592437
0.00576993
0.00561744
0.00546652
0.00531837
0.00516398
0.00590382
0.00574876
0.00559537
0.0054434
0.00529369
0.00513759
0.00590382
0.00574876
0.00559538
0.00544342
0.00529371
0.00513763
0.00608018
0.00592219
0.00576683
0.0056133
0.00546108
0.00531089
0.00515556
0.00611506
0.00595619
0.00580161
0.00565047
0.00550177
0.00535628
0.00520788
0.00617681
0.00602117
0.00586895
0.00572086
0.0055772
0.00544
0.0053081
0.00616714
0.0060179
0.00587176
0.00573008
0.00559394
0.00546354
0.0053446
0.00604119
0.00590588
0.00578414
0.00568394
0.00562094
0.00562933
0.00604895
0.00590298
0.0057647
0.00563615
0.00551948
0.0054154
0.00597588
0.00582192
0.00567139
0.00552511
0.00538278
0.00523491
0.00593848
0.00578239
0.00562795
0.00547452
0.00532231
0.00516362
0.00592218
0.00576682
0.00561328
0.00546104
0.00531084
0.00515549
0.00592437
0.00576994
0.00561745
0.00546655
0.0053184
0.00516404
0.00609704
0.00593849
0.00578241
0.00562798
0.00547456
0.00532236
0.00516368
0.00612545
0.00596397
0.00580474
0.0056468
0.0054899
0.00533535
0.00517593
0.00618316
0.00602078
0.005859
0.00569718
0.00553573
0.005377
0.0052172
0.00616585
0.00601026
0.00585426
0.00569744
0.0055403
0.00538541
0.00523475
0.00602776
0.00588309
0.0057442
0.00561419
0.00550452
0.00543504
0.00603613
0.00587994
0.00572628
0.0055753
0.00543235
0.00531364
0.0059831
0.00582245
0.00566349
0.00550742
0.00535939
0.00521755
0.00596396
0.00580472
0.00564677
0.00548985
0.00533527
0.00517579
0.00595618
0.00580159
0.00565042
0.0055017
0.00535619
0.00520774
0.00596346
0.00581211
0.00566511
0.00552235
0.00538514
0.00524532
0.00613345
0.00597589
0.00582194
0.00567141
0.00552515
0.00538284
0.00523503
0.00614612
0.00598311
0.00582246
0.0056635
0.00550744
0.00535942
0.00521761
0.00618209
0.00601531
0.00584767
0.00567776
0.0055055
0.00533697
0.00517877
0.0061578
0.00599667
0.00583182
0.00565914
0.00547291
0.00526798
0.00502769
0.0060311
0.00587859
0.00572555
0.00556639
0.00539134
0.00516247
0.00605425
0.00588883
0.00572043
0.0055465
0.00538071
0.00527395
0.00601529
0.00584766
0.00567775
0.00550549
0.00533696
0.00517873
0.00602076
0.00585898
0.00569715
0.00553569
0.00537695
0.0052171
0.00602115
0.00586894
0.00572083
0.00557716
0.00543993
0.00530798
0.00603552
0.00589036
0.00575274
0.00562428
0.00550733
0.00540068
0.00620139
0.00604895
0.00590297
0.00576469
0.00563613
0.00551948
0.00541545
0.00619527
0.00603613
0.00587993
0.00572626
0.00557527
0.0054323
0.00531359
0.00621887
0.00605425
0.00588883
0.00572042
0.00554647
0.00538066
0.00527388
0.00617477
0.00601229
0.00584735
0.00567479
0.00547982
0.00522077
0.004799
0.00600881
0.00584879
0.00568647
0.00551461
0.00529434
0.00487627
0.00601229
0.00584734
0.00567478
0.00547982
0.00522076
0.00479894
0.00599666
0.00583181
0.00565912
0.0054729
0.00526797
0.00502771
0.00601025
0.00585425
0.00569743
0.0055403
0.00538543
0.00523481
0.00601788
0.00587175
0.00573009
0.00559395
0.00546357
0.00534466
0.00603119
0.0058937
0.00576626
0.0056531
0.00555932
0.00549748
0.0061846
0.00604117
0.00590585
0.0057841
0.00568388
0.00562085
0.00562919
0.00617675
0.00602774
0.00588306
0.00574416
0.00561412
0.0055044
0.00543485
0.00618577
0.00603108
0.00587857
0.00572553
0.00556633
0.00539125
0.00516228
0.00616705
0.0060088
0.0058488
0.00568646
0.00551459
0.00529429
0.00487617
0.00555751
0.00494966
0.00456978
0.00442974
0.00567443
0.00504145
0.00458344
0.00439761
0.00547774
0.00508584
0.00473096
0.00544092
0.00497477
0.00465014
0.00450181
0.00533082
0.00498098
0.00468543
0.00450066
0.00523561
0.00499823
0.00476817
0.00513497
0.00495576
0.00472647
0.00515192
0.00493874
0.00472211
0.00511823
0.0049173
0.00473993
0.00500274
0.00490417
0.00474128
0.00490134
0.00475802
0.00465452
0.00498974
0.00481686
0.00467644
)
;

boundaryField
{
    inlet
    {
        type            zeroGradient;
    }
    ami1
    {
        type            cyclicAMI;
        value           nonuniform List<scalar> 
100
(
0.00496562
0.00519551
0.00540097
0.00553772
0.0054432
0.00530162
0.00517656
0.00501333
0.00487253
0.00496534
0.00487215
0.00512502
0.00517672
0.00527128
0.00525083
0.00518718
0.00510722
0.00505045
0.00512493
0.00519495
0.00501305
0.00505042
0.00506933
0.00510088
0.0051075
0.0050864
0.00505212
0.00506922
0.00517655
0.00540043
0.00517647
0.0051073
0.00505223
0.00504572
0.00504064
0.0050402
0.00504578
0.00510118
0.00527151
0.00553728
0.00530155
0.00518713
0.00508639
0.00504017
0.00501973
0.00501977
0.00504076
0.00510787
0.00525109
0.00544292
0.00544312
0.00525075
0.00510744
0.00504061
0.00501973
0.00501976
0.00504027
0.00508659
0.00518728
0.00530137
0.00553763
0.00527116
0.00510069
0.00504567
0.0050402
0.00504069
0.00504576
0.00505222
0.00510734
0.00517637
0.00540093
0.00517665
0.00506915
0.00505206
0.00508643
0.00510764
0.00510091
0.00506924
0.00505042
0.00501316
0.00519553
0.00512511
0.00505036
0.00510721
0.00518714
0.00525089
0.00527128
0.00517658
0.00512503
0.00487236
0.00496576
0.00487231
0.00501317
0.00517645
0.00530146
0.00544298
0.00553743
0.00540069
0.00519529
0.00496562
)
;
    }
    walls
    {
        type            zeroGradient;
    }
    ami2
    {
        type            cyclicAMI;
        value           nonuniform List<scalar> 
12
(
0.00552538
0.00563471
0.00547468
0.00538068
0.00544358
0.00536294
0.00514103
0.00524924
0.00526396
0.0050396
0.00508838
0.00511974
)
;
    }
    outlet
    {
        type            fixedValue;
        value           nonuniform List<scalar> 0();
    }
    procBoundary2to0
    {
        type            processor;
        value           nonuniform List<scalar> 
28
(
0.00431118
0.00427458
0.00451291
0.00528173
0.00503786
0.00451291
0.00477843
0.00437337
0.00454382
0.00435608
0.00457032
0.00453711
0.00514022
0.00496167
0.00457032
0.0047795
0.00454382
0.00453711
0.00503929
0.00486267
0.004561
0.00471556
0.00457002
0.00452041
0.0049502
0.00478418
0.0045253
0.00465262
)
;
    }
    procBoundary2to1
    {
        type            processor;
        value           nonuniform List<scalar> 9(0.00492161 0.00485926 0.00473481 0.00489951 0.00475916 0.00465307 0.00490583 0.00475357 0.00463729);
    }
    procBoundary2to3
    {
        type            processor;
        value           nonuniform List<scalar> 
110
(
0.00616705
0.00618579
0.00617678
0.00618463
0.00617528
0.00616716
0.00616716
0.0063216
0.00631789
0.00633581
0.00632393
0.00617477
0.00621888
0.00619528
0.00620141
0.00618628
0.00617683
0.00617683
0.0063472
0.00635001
0.00638433
0.00634217
0.0061578
0.00618209
0.00614613
0.00613346
0.00611984
0.00611507
0.00611507
0.00629018
0.00631258
0.0063583
0.00632952
0.00616585
0.00618315
0.00612545
0.00609705
0.0060816
0.00608019
0.00608019
0.00625881
0.00629555
0.00635946
0.0063331
0.00616714
0.00617681
0.00611506
0.00608018
0.00606134
0.00606134
0.00606134
0.00624216
0.00628161
0.00634156
0.00632331
0.00617526
0.00618626
0.00611983
0.00608159
0.00606133
0.00606133
0.00606133
0.00624125
0.00627842
0.0063355
0.00631836
0.00618462
0.0062014
0.00613344
0.00609703
0.00608018
0.00608159
0.00608159
0.00625881
0.00629017
0.00634719
0.00632158
0.00617676
0.00619526
0.00614611
0.00612544
0.00611505
0.00611983
0.00611983
0.00629554
0.00631257
0.00635
0.00631787
0.00618578
0.00621887
0.00618208
0.00618314
0.0061768
0.00618625
0.00618625
0.00635945
0.00635829
0.00638432
0.0063358
0.00616705
0.00617476
0.00615779
0.00616584
0.00616713
0.00617525
0.00617525
0.00633309
0.00632952
0.00634217
0.00632391
)
;
    }
}


// ************************************************************************* //
