/*--------------------------------*- C++ -*----------------------------------*\
| =========                 |                                                 |
| \\      /  F ield         | OpenFOAM: The Open Source CFD Toolbox           |
|  \\    /   O peration     | Version:  2212                                  |
|   \\  /    A nd           | Website:  www.openfoam.com                      |
|    \\/     M anipulation  |                                                 |
\*---------------------------------------------------------------------------*/
FoamFile
{
    version     2.0;
    format      ascii;
    arch        "LSB;label=32;scalar=64";
    class       surfaceScalarField;
    location    "2";
    object      phi;
}
// * * * * * * * * * * * * * * * * * * * * * * * * * * * * * * * * * * * * * //

dimensions      [0 3 -1 0 0 0 0];

oriented        oriented;

internalField   nonuniform List<scalar> 
1769
(
1.52227e-07
1.40066e-09
2.03947e-09
1.4921e-07
1.0004e-09
2.01654e-09
1.46784e-07
4.24407e-10
2.00181e-09
1.4574e-07
-7.68683e-10
1.81239e-09
1.48046e-07
-3.78054e-09
1.4746e-09
-2.3969e-08
-1.01903e-08
4.22546e-07
6.2447e-09
3.16099e-09
4.15004e-07
5.49498e-09
3.04723e-09
4.08058e-07
4.45781e-09
2.91257e-09
4.02248e-07
2.65564e-09
2.38506e-09
3.99836e-07
-1.30234e-09
-6.62275e-11
-8.7888e-09
-1.06022e-08
7.27144e-07
7.51033e-09
7.88909e-09
7.1785e-07
6.8228e-09
7.9656e-09
7.08084e-07
6.00233e-09
8.22132e-09
6.97129e-07
4.91767e-09
8.69354e-09
6.83351e-07
3.19726e-09
9.27741e-09
4.43549e-09
1.52733e-08
9.73635e-07
5.47266e-09
9.78932e-09
9.64867e-07
5.46202e-09
1.01286e-08
9.54286e-07
5.726e-09
1.08572e-08
9.40535e-07
6.44104e-09
1.22282e-08
9.21183e-07
8.07071e-09
1.44782e-08
1.32077e-08
2.02675e-08
1.10665e-06
8.86428e-10
9.92226e-09
1.10035e-06
1.44824e-09
1.03182e-08
1.09273e-06
2.36959e-09
1.09755e-08
1.0833e-06
3.84938e-09
1.20219e-08
1.07164e-06
6.24478e-09
1.34894e-08
1.08979e-08
1.56303e-08
1.10876e-06
-4.13866e-09
9.52179e-09
1.10379e-06
-3.22725e-09
9.64539e-09
1.09828e-06
-1.95427e-09
9.84152e-09
1.0921e-06
-9.67623e-11
1.01238e-08
1.08542e-06
2.44298e-09
1.04775e-08
6.1503e-09
1.08654e-08
9.8409e-07
-7.96182e-09
9.22795e-09
9.7814e-07
-7.19243e-09
9.00359e-09
9.7239e-07
-6.21398e-09
8.73732e-09
9.66895e-07
-4.81263e-09
8.35299e-09
9.61646e-07
-2.61697e-09
7.76937e-09
9.56337e-07
7.54145e-10
6.99826e-09
8.16803e-09
5.79766e-09
7.3847e-07
-7.15452e-09
7.56444e-09
7.30798e-07
-6.74807e-09
7.22737e-09
7.24119e-07
-6.29014e-09
6.75475e-09
7.18947e-07
-5.58767e-09
5.9468e-09
7.15796e-07
-3.83316e-09
4.36762e-09
7.15392e-07
-4.8649e-10
1.64437e-09
9.97953e-09
-4.75054e-09
4.31356e-07
-2.09428e-09
3.01714e-09
4.23899e-07
-2.03901e-09
2.74788e-09
4.17312e-07
-2.01577e-09
2.31327e-09
4.12166e-07
-2.00081e-09
1.55855e-09
4.10386e-07
-1.81033e-09
-2.43169e-10
4.15817e-07
-1.46918e-09
-4.44864e-09
1.01963e-08
-1.96693e-08
1.55667e-07
1.72308e-09
1.52227e-07
1.40126e-09
1.4921e-07
1.00113e-09
1.46784e-07
4.25482e-10
1.4574e-07
-7.66534e-10
1.48048e-07
-3.77783e-09
-2.39754e-08
4.239e-07
2.74739e-09
6.74883e-09
4.17313e-07
2.31281e-09
6.29084e-09
4.12169e-07
1.55779e-09
5.58814e-09
4.10393e-07
-2.447e-10
3.83337e-09
4.15832e-07
-4.45078e-09
4.85471e-10
-1.96698e-08
-9.98023e-09
8.0601e-07
5.07854e-09
5.76051e-09
8.01701e-07
4.29709e-09
5.37262e-09
7.98045e-07
3.24265e-09
4.88305e-09
7.94448e-07
1.66913e-09
4.06885e-09
7.88335e-07
-8.5847e-10
2.45393e-09
-4.87369e-09
-1.85012e-09
1.11699e-06
6.4869e-09
9.14727e-09
1.11451e-06
5.74269e-09
8.99981e-09
1.11208e-06
4.90202e-09
8.98866e-09
1.10945e-06
3.90479e-09
9.08894e-09
1.10602e-06
2.6636e-09
9.19305e-09
1.73297e-09
9.75467e-09
1.35319e-06
4.94879e-09
1.17347e-08
1.35246e-06
4.71385e-09
1.18852e-08
1.35127e-06
4.59419e-09
1.23508e-08
1.34956e-06
4.63907e-09
1.32027e-08
1.3474e-06
4.86092e-09
1.44435e-08
5.53069e-09
1.59266e-08
1.47919e-06
7.02596e-10
1.25179e-08
1.48046e-06
1.09965e-09
1.26606e-08
1.48128e-06
1.69441e-09
1.30602e-08
1.4816e-06
2.56783e-09
1.37666e-08
1.4814e-06
3.80401e-09
1.47513e-08
5.4387e-09
1.58745e-08
1.48076e-06
-4.06829e-09
1.2065e-08
1.48283e-06
-3.29102e-09
1.19644e-08
1.48472e-06
-2.32378e-09
1.19669e-08
1.48641e-06
-1.07557e-09
1.20863e-08
1.48782e-06
5.48983e-10
1.23159e-08
2.63381e-09
1.26148e-08
1.35566e-06
-7.28108e-09
1.12467e-08
1.35642e-06
-6.5998e-09
1.07745e-08
1.35743e-06
-5.86947e-09
1.03124e-08
1.35864e-06
-4.9834e-09
9.80413e-09
1.35995e-06
-3.81509e-09
9.19588e-09
1.36122e-06
-2.19293e-09
8.47181e-09
5.05125e-10
7.58537e-09
1.12114e-06
-6.14998e-09
8.86923e-09
1.1193e-06
-5.76027e-09
8.22575e-09
1.11806e-06
-5.37169e-09
7.50025e-09
1.11735e-06
-4.88135e-09
6.55393e-09
1.11673e-06
-4.06632e-09
5.23442e-09
1.11522e-06
-2.44808e-09
3.4144e-09
1.87587e-09
8.93421e-10
8.10941e-07
-3.29228e-09
5.71937e-09
8.0601e-07
-3.16094e-09
5.07947e-09
8.01701e-07
-3.04653e-09
4.29752e-09
7.98046e-07
-2.91102e-09
3.24272e-09
7.9445e-07
-2.38262e-09
1.66859e-09
7.88342e-07
7.33967e-11
-8.61524e-10
1.06266e-08
-4.883e-09
4.30552e-07
6.8366e-09
4.22547e-07
6.24487e-09
4.15006e-07
5.49539e-09
4.08062e-07
4.45841e-09
4.02257e-07
2.6565e-09
3.99856e-07
-1.30392e-09
-8.79541e-09
7.30801e-07
7.22679e-09
7.19271e-09
7.24125e-07
6.75355e-09
6.21388e-09
7.18956e-07
5.94474e-09
4.81176e-09
7.15811e-07
4.36395e-09
2.61474e-09
7.15416e-07
1.63922e-09
-7.58865e-10
-4.74557e-09
-8.17852e-09
1.1193e-06
8.22492e-09
6.60012e-09
1.11806e-06
7.4994e-09
5.86987e-09
1.11735e-06
6.55314e-09
4.98393e-09
1.11673e-06
5.23364e-09
3.81562e-09
1.11522e-06
3.4159e-09
2.1949e-09
9.15662e-10
-4.87558e-10
1.41656e-06
7.68521e-09
8.20535e-09
1.41829e-06
6.98434e-09
7.77803e-09
1.42019e-06
6.22776e-09
7.42178e-09
1.42201e-06
5.38219e-09
7.11152e-09
1.42338e-06
4.44334e-09
6.80106e-09
3.64219e-09
6.47358e-09
1.63477e-06
4.99231e-09
1.00683e-08
1.63908e-06
4.64653e-09
9.9094e-09
1.64338e-06
4.34577e-09
9.93495e-09
1.64774e-06
4.08039e-09
1.01474e-08
1.65231e-06
3.82374e-09
1.04891e-08
3.6201e-09
1.07747e-08
1.75073e-06
2.94334e-10
1.07744e-08
1.75692e-06
4.48342e-10
1.06695e-08
1.76291e-06
6.74327e-10
1.07446e-08
1.76877e-06
9.83838e-10
1.10004e-08
1.77457e-06
1.39793e-09
1.13729e-08
1.89112e-09
1.16968e-08
1.7515e-06
-4.77999e-09
1.04503e-08
1.75804e-06
-4.31243e-09
1.01842e-08
1.76447e-06
-3.81992e-09
1.00291e-08
1.77085e-06
-3.27535e-09
9.96843e-09
1.77723e-06
-2.63044e-09
9.96241e-09
-1.8519e-09
9.94638e-09
1.63131e-06
-8.72712e-09
9.96343e-09
1.63612e-06
-8.20514e-09
9.39057e-09
1.64103e-06
-7.77741e-09
8.86778e-09
1.64607e-06
-7.42059e-09
8.36449e-09
1.65125e-06
-7.1093e-09
7.8451e-09
1.65658e-06
-6.7961e-09
7.31272e-09
-6.46065e-09
6.81817e-09
1.41507e-06
-9.43979e-09
8.39335e-09
1.41656e-06
-9.14692e-09
7.68555e-09
1.41829e-06
-8.99861e-09
6.98412e-09
1.42019e-06
-8.9864e-09
6.22658e-09
1.42202e-06
-9.0849e-09
5.37926e-09
1.42339e-06
-9.18565e-09
4.43642e-09
-9.74216e-09
3.62555e-09
1.11966e-06
-7.94599e-09
7.19937e-09
1.11699e-06
-7.88841e-09
6.4872e-09
1.11451e-06
-7.96434e-09
5.74238e-09
1.11209e-06
-8.21894e-09
4.90064e-09
1.10946e-06
-8.6888e-09
3.90158e-09
1.10602e-06
-9.26754e-09
2.65707e-09
-1.52599e-08
1.72364e-09
7.363e-07
8.13605e-09
7.27146e-07
7.50997e-09
7.17855e-07
6.82223e-09
7.08093e-07
6.00119e-09
6.97146e-07
4.91534e-09
6.83383e-07
3.19158e-09
4.42877e-09
9.78144e-07
9.00273e-09
4.13871e-09
9.72396e-07
8.73583e-09
3.22707e-09
9.66903e-07
8.3506e-09
1.9536e-09
9.61657e-07
7.76556e-09
9.5181e-11
9.56352e-07
6.99257e-09
-2.44555e-09
5.79121e-09
-6.15509e-09
1.35643e-06
1.07737e-08
4.06866e-09
1.35743e-06
1.03113e-08
3.2914e-09
1.35864e-06
9.8027e-09
2.32429e-09
1.35995e-06
9.19427e-09
1.07642e-09
1.36121e-06
8.47114e-09
-5.4676e-10
7.59076e-09
-2.62627e-09
1.63612e-06
9.39006e-09
4.78032e-09
1.64103e-06
8.86747e-09
4.31298e-09
1.64607e-06
8.36455e-09
3.82087e-09
1.65125e-06
7.84611e-09
3.27705e-09
1.65657e-06
7.31597e-09
2.63376e-09
6.82665e-09
1.85859e-09
1.83648e-06
5.56474e-09
5.77975e-09
1.84448e-06
5.23454e-09
5.54808e-09
1.85247e-06
4.9391e-09
5.3729e-09
1.86057e-06
4.65318e-09
5.24028e-09
1.86889e-06
4.37071e-09
5.11286e-09
4.12858e-09
4.90946e-09
1.94179e-06
6.33433e-12
6.18563e-09
1.95165e-06
1.45507e-11
6.02732e-09
1.96134e-06
3.69335e-11
5.95187e-09
1.97097e-06
7.85267e-11
5.94531e-09
1.98061e-06
1.41368e-10
5.96416e-09
2.28707e-10
5.9044e-09
1.94198e-06
-5.77983e-09
6.03816e-09
1.95192e-06
-5.54821e-09
5.80849e-09
1.96171e-06
-5.37314e-09
5.64021e-09
1.97148e-06
-5.24075e-09
5.51841e-09
1.98129e-06
-5.11383e-09
5.41573e-09
-4.91153e-09
5.30891e-09
1.82837e-06
-1.03952e-08
5.93794e-09
1.83648e-06
-1.00682e-08
5.56539e-09
1.84448e-06
-9.90914e-09
5.23506e-09
1.85246e-06
-9.93455e-09
4.93945e-09
1.86056e-06
-1.0147e-08
4.65312e-09
1.86888e-06
-1.04892e-08
4.36998e-09
-1.07772e-08
4.1269e-09
1.63041e-06
-1.18335e-08
5.39034e-09
1.63476e-06
-1.17338e-08
4.99268e-09
1.63908e-06
-1.18836e-08
4.64653e-09
1.64337e-06
-1.23482e-08
4.34527e-09
1.64772e-06
-1.31985e-08
4.07906e-09
1.65229e-06
-1.44379e-08
3.82135e-09
-1.59223e-08
3.61726e-09
1.35359e-06
-9.67812e-09
5.27634e-09
1.35319e-06
-9.78804e-09
4.94893e-09
1.35246e-06
-1.01264e-08
4.71367e-09
1.35127e-06
-1.08534e-08
4.59327e-09
1.34956e-06
-1.22213e-08
4.63714e-09
1.34739e-06
-1.44664e-08
4.85781e-09
-2.02518e-08
5.52732e-09
9.81388e-07
5.64883e-09
9.73638e-07
5.47242e-09
9.64872e-07
5.46145e-09
9.54295e-07
5.72485e-09
9.40551e-07
6.43862e-09
9.2121e-07
8.06592e-09
1.31999e-08
1.10877e-06
9.52114e-09
-8.86562e-10
1.1038e-06
9.64445e-09
-1.44854e-09
1.09828e-06
9.84017e-09
-2.37015e-09
1.09211e-06
1.01219e-08
-3.85034e-09
1.08543e-06
1.0475e-08
-6.24596e-09
1.08629e-08
-1.08991e-08
1.48076e-06
1.20641e-08
-7.02503e-10
1.48283e-06
1.19634e-08
-1.09949e-09
1.48473e-06
1.19656e-08
-1.69411e-09
1.48641e-06
1.20847e-08
-2.56721e-09
1.48783e-06
1.23145e-08
-3.80258e-09
1.26147e-08
-5.43574e-09
1.7515e-06
1.04495e-08
-2.94163e-10
1.75804e-06
1.01832e-08
-4.47996e-10
1.76447e-06
1.00282e-08
-6.73664e-10
1.77085e-06
9.96766e-09
-9.82673e-10
1.77723e-06
9.96219e-09
-1.39599e-09
9.94773e-09
-1.88835e-09
1.94198e-06
6.0371e-09
-6.47299e-12
1.95192e-06
5.80729e-09
-1.47354e-11
1.96172e-06
5.63886e-09
-3.71417e-11
1.97149e-06
5.51693e-09
-7.88272e-11
1.98129e-06
5.41419e-09
-1.4191e-10
5.30745e-09
-2.29933e-10
2.0413e-06
-3.37743e-11
3.32609e-11
2.05313e-06
-4.87235e-11
4.79851e-11
2.06473e-06
-6.6628e-11
6.55402e-11
2.07619e-06
-8.6006e-11
8.43708e-11
2.08757e-06
-1.01361e-10
9.88321e-11
-9.9749e-11
9.57427e-11
2.0413e-06
-6.18615e-09
-3.23699e-11
2.05313e-06
-6.02813e-09
-4.69593e-11
2.06472e-06
-5.95316e-09
-6.43855e-11
2.07619e-06
-5.9474e-09
-8.3118e-11
2.08757e-06
-5.96766e-09
-9.75779e-11
-5.9105e-09
-9.46917e-11
1.93164e-06
-1.1047e-08
6.69029e-12
1.94178e-06
-1.07745e-08
7.39295e-12
1.95164e-06
-1.06697e-08
1.59109e-11
1.96134e-06
-1.07451e-08
3.85484e-11
1.97096e-06
-1.10013e-08
8.0563e-11
1.9806e-06
-1.13749e-08
1.4415e-10
-1.17014e-08
2.33166e-10
1.74429e-06
-1.2552e-08
1.92106e-10
1.75073e-06
-1.2517e-08
2.95142e-10
1.75691e-06
-1.26594e-08
4.4924e-10
1.7629e-06
-1.3058e-08
6.75398e-10
1.76875e-06
-1.37631e-08
9.85168e-10
1.77454e-06
-1.47462e-08
1.39984e-09
-1.5868e-08
1.89448e-09
1.47754e-06
-9.71074e-09
4.45268e-10
1.47919e-06
-9.921e-09
7.03048e-10
1.48046e-06
-1.03161e-08
1.10008e-09
1.48127e-06
-1.09717e-08
1.69476e-09
1.48159e-06
-1.20152e-08
2.56813e-09
1.48138e-06
-1.34782e-08
3.80442e-09
-1.56134e-08
5.43946e-09
1.11199e-06
5.43649e-10
1.10665e-06
8.86645e-10
1.10035e-06
1.44833e-09
1.09274e-06
2.36953e-09
1.08331e-06
3.84895e-09
1.07165e-06
6.24391e-09
1.08963e-08
1.10666e-06
9.92199e-09
-5.47299e-09
1.10035e-06
1.03179e-08
-5.46253e-09
1.09273e-06
1.09751e-08
-5.72673e-09
1.0833e-06
1.20214e-08
-6.44205e-09
1.07164e-06
1.34889e-08
-8.0719e-09
1.56293e-08
-1.32082e-08
1.47919e-06
1.25173e-08
-4.94895e-09
1.48047e-06
1.26597e-08
-4.71396e-09
1.48128e-06
1.30591e-08
-4.59422e-09
1.48161e-06
1.37653e-08
-4.63901e-09
1.48141e-06
1.47498e-08
-4.86048e-09
1.58729e-08
-5.52963e-09
1.75073e-06
1.07734e-08
-4.99234e-09
1.75692e-06
1.06683e-08
-4.64644e-09
1.76291e-06
1.07431e-08
-4.34549e-09
1.76877e-06
1.09986e-08
-4.07981e-09
1.77458e-06
1.13709e-08
-3.82276e-09
1.16949e-08
-3.61927e-09
1.94179e-06
6.18428e-09
-5.56487e-09
1.95165e-06
6.02565e-09
-5.23466e-09
1.96135e-06
5.94979e-09
-4.93916e-09
1.97098e-06
5.94273e-09
-4.65318e-09
1.98061e-06
5.96099e-09
-4.37069e-09
5.90069e-09
-4.12874e-09
2.0413e-06
3.16566e-11
-6.0374e-09
2.05313e-06
4.59297e-11
-5.8077e-09
2.06473e-06
6.28855e-11
-5.63942e-09
2.07619e-06
8.0947e-11
-5.51776e-09
2.08757e-06
9.44473e-11
-5.4155e-09
9.02176e-11
-5.30948e-09
2.0413e-06
-6.03901e-09
-6.18461e-09
2.05313e-06
-5.80978e-09
-6.02611e-09
2.06472e-06
-5.64218e-09
-5.95049e-09
2.07619e-06
-5.52136e-09
-5.94383e-09
2.08757e-06
-5.42012e-09
-5.96283e-09
-5.31527e-09
-5.90382e-09
1.93178e-06
-1.08401e-08
-6.07449e-09
1.94198e-06
-1.04507e-08
-5.77856e-09
1.95191e-06
-1.01848e-08
-5.54652e-09
1.96171e-06
-1.00302e-08
-5.37084e-09
1.97148e-06
-9.97021e-09
-5.23761e-09
1.98128e-06
-9.96549e-09
-5.10948e-09
-9.95211e-09
-4.90528e-09
1.74481e-06
-1.22656e-08
-5.25222e-09
1.75149e-06
-1.20642e-08
-4.77907e-09
1.75803e-06
-1.19635e-08
-4.31119e-09
1.76446e-06
-1.19653e-08
-3.81827e-09
1.77083e-06
-1.20838e-08
-3.27324e-09
1.77721e-06
-1.23127e-08
-2.62816e-09
-1.26125e-08
-1.84999e-09
1.47853e-06
-9.4729e-09
-4.73055e-09
1.48076e-06
-9.52083e-09
-4.06767e-09
1.48283e-06
-9.64375e-09
-3.29027e-09
1.48472e-06
-9.83857e-09
-2.3228e-09
1.4864e-06
-1.01186e-08
-1.0743e-09
1.48781e-06
-1.0469e-08
5.50222e-10
-1.08536e-08
2.63236e-09
1.11326e-06
-4.84194e-09
1.10877e-06
-4.1382e-09
1.1038e-06
-3.22676e-09
1.09828e-06
-1.95379e-09
1.09211e-06
-9.61279e-11
1.08544e-06
2.4437e-09
6.15211e-09
9.73637e-07
9.78929e-09
-7.51081e-09
9.64869e-07
1.01287e-08
-6.82351e-09
9.54289e-07
1.08574e-08
-6.00337e-09
9.40537e-07
1.22285e-08
-4.91906e-09
9.21186e-07
1.4479e-08
-3.19963e-09
2.02678e-08
-4.43759e-09
1.35319e-06
1.17342e-08
-6.48723e-09
1.35246e-06
1.18846e-08
-5.74308e-09
1.35128e-06
1.235e-08
-4.9025e-09
1.34957e-06
1.32018e-08
-3.90571e-09
1.34741e-06
1.44425e-08
-2.66448e-09
1.59263e-08
-1.73401e-09
1.63477e-06
1.00672e-08
-7.68544e-09
1.63908e-06
9.90806e-09
-6.98462e-09
1.64338e-06
9.9332e-09
-6.22809e-09
1.64774e-06
1.01452e-08
-5.38262e-09
1.65232e-06
1.04862e-08
-4.444e-09
1.07718e-08
-3.64489e-09
1.83648e-06
5.77827e-09
-9.39015e-09
1.84448e-06
5.54616e-09
-8.86759e-09
1.85247e-06
5.3704e-09
-8.36463e-09
1.86057e-06
5.23699e-09
-7.84613e-09
1.86889e-06
5.10854e-09
-7.31583e-09
4.9039e-09
-6.82637e-09
1.94198e-06
-8.12348e-12
-1.04494e-08
1.95192e-06
-1.70453e-11
-1.01832e-08
1.96172e-06
-4.00456e-11
-1.00282e-08
1.97149e-06
-8.26147e-11
-9.96772e-09
1.98129e-06
-1.4691e-10
-9.96244e-09
-2.36591e-10
-9.94824e-09
1.94179e-06
-5.56646e-09
-1.07733e-08
1.95165e-06
-5.23666e-09
-1.06681e-08
1.96134e-06
-4.94177e-09
-1.0743e-08
1.97097e-06
-4.65654e-09
-1.09985e-08
1.98061e-06
-4.37495e-09
-1.13712e-08
-4.1339e-09
-1.16965e-08
1.82837e-06
-9.96401e-09
-1.03943e-08
1.83648e-06
-9.39142e-09
-1.00671e-08
1.84448e-06
-8.86905e-09
-9.90767e-09
1.85246e-06
-8.36638e-09
-9.93256e-09
1.86056e-06
-7.84819e-09
-1.01443e-08
1.86888e-06
-7.31816e-09
-1.04853e-08
-6.82865e-09
-1.07712e-08
1.63131e-06
-1.12467e-08
-8.72644e-09
1.63612e-06
-1.07744e-08
-8.20427e-09
1.64103e-06
-1.03121e-08
-7.77625e-09
1.64606e-06
-9.80351e-09
-7.41908e-09
1.65125e-06
-9.19494e-09
-7.10765e-09
1.65657e-06
-8.47134e-09
-6.79545e-09
-7.59008e-09
-6.46572e-09
1.35566e-06
-9.22772e-09
-7.28051e-09
1.35642e-06
-9.00303e-09
-6.59911e-09
1.35743e-06
-8.73619e-09
-5.86854e-09
1.35863e-06
-8.3508e-09
-4.98202e-09
1.35994e-06
-7.76533e-09
-3.81305e-09
1.3612e-06
-6.99143e-09
-2.19102e-09
-5.78828e-09
4.93255e-10
9.84091e-07
-7.96138e-09
9.78142e-07
-7.19188e-09
9.72392e-07
-6.21323e-09
9.66899e-07
-4.81152e-09
9.61653e-07
-2.615e-09
9.56348e-07
7.57332e-10
8.17414e-09
7.27145e-07
7.88908e-09
-6.2451e-09
7.17851e-07
7.96564e-09
-5.49552e-09
7.08085e-07
8.22148e-09
-4.45859e-09
6.97128e-07
8.69424e-09
-2.65702e-09
6.8335e-07
9.27862e-09
1.29995e-09
1.52751e-08
8.7859e-09
1.11699e-06
9.14688e-09
-5.07886e-09
1.11451e-06
8.99938e-09
-4.29757e-09
1.11209e-06
8.9882e-09
-3.24335e-09
1.10946e-06
9.08886e-09
-1.6705e-09
1.10602e-06
9.19283e-09
8.56858e-10
9.75575e-09
4.87107e-09
1.41656e-06
8.20447e-09
-8.22529e-09
1.4183e-06
7.77696e-09
-7.50003e-09
1.42019e-06
7.42045e-09
-6.55415e-09
1.42202e-06
7.10988e-09
-5.23519e-09
1.42339e-06
6.79915e-09
-3.41872e-09
6.47253e-09
-9.2263e-10
1.63612e-06
4.77897e-09
-1.07739e-08
1.64103e-06
4.31122e-09
-1.03115e-08
1.64607e-06
3.81847e-09
-9.80322e-09
1.65126e-06
3.2737e-09
-9.1951e-09
1.65658e-06
2.62903e-09
-8.47215e-09
1.85185e-09
-7.58943e-09
1.7515e-06
-2.95727e-10
-1.20639e-08
1.75804e-06
-4.50015e-10
-1.19631e-08
1.76447e-06
-6.7639e-10
-1.19651e-08
1.77085e-06
-9.86428e-10
-1.20842e-08
1.77723e-06
-1.40126e-09
-1.23137e-08
-1.89588e-09
-1.26137e-08
1.75073e-06
-4.99383e-09
-1.25167e-08
1.75692e-06
-4.64821e-09
-1.2659e-08
1.76291e-06
-4.34767e-09
-1.30579e-08
1.76877e-06
-4.08254e-09
-1.37636e-08
1.77457e-06
-3.82622e-09
-1.47474e-08
-3.62339e-09
-1.58708e-08
1.63041e-06
-8.39419e-09
-1.18332e-08
1.63477e-06
-7.68678e-09
-1.17335e-08
1.63908e-06
-6.98592e-09
-1.18834e-08
1.64338e-06
-6.22933e-09
-1.23482e-08
1.64773e-06
-5.38379e-09
-1.31989e-08
1.65231e-06
-4.44466e-09
-1.44384e-08
-3.64317e-09
-1.59218e-08
1.41507e-06
-8.86966e-09
-9.43946e-09
1.41656e-06
-8.22624e-09
-9.14658e-09
1.41829e-06
-7.50078e-09
-8.99825e-09
1.42019e-06
-6.55449e-09
-8.98607e-09
1.42201e-06
-5.23518e-09
-9.08531e-09
1.42338e-06
-3.41739e-09
-9.18725e-09
-9.16866e-10
-9.74757e-09
1.12114e-06
-7.56451e-09
-6.14962e-09
1.1193e-06
-7.22732e-09
-5.75992e-09
1.11806e-06
-6.75438e-09
-5.37131e-09
1.11735e-06
-5.9458e-09
-4.88092e-09
1.11673e-06
-4.36527e-09
-4.06588e-09
1.11521e-06
-1.64115e-09
-2.4487e-09
4.74229e-09
1.85798e-09
7.3847e-07
-7.15424e-09
7.30799e-07
-6.74778e-09
7.24121e-07
-6.28986e-09
7.18951e-07
-5.5874e-09
7.15803e-07
-3.83276e-09
7.15405e-07
-4.85495e-10
9.98029e-09
4.22546e-07
3.1609e-09
-1.40087e-09
4.15004e-07
3.04716e-09
-1.00067e-09
4.08058e-07
2.91257e-09
-4.24768e-10
4.02247e-07
2.38542e-09
7.68002e-10
3.99833e-07
-6.55383e-11
3.77955e-09
-1.0602e-08
2.39666e-08
8.06011e-07
5.76024e-09
-2.74757e-09
8.01701e-07
5.37247e-09
-2.31313e-09
7.98046e-07
4.88302e-09
-1.55833e-09
7.94448e-07
4.06906e-09
2.43677e-10
7.88336e-07
2.45452e-09
4.44913e-09
-1.84712e-09
1.9668e-08
1.1193e-06
6.59953e-09
-7.22708e-09
1.11806e-06
5.86929e-09
-6.75408e-09
1.11735e-06
4.98334e-09
-5.94569e-09
1.11674e-06
3.81508e-09
-4.36563e-09
1.11522e-06
2.19458e-09
-1.64254e-09
-4.87975e-10
4.73765e-09
1.35643e-06
4.06767e-09
-9.0028e-09
1.35743e-06
3.29021e-09
-8.73606e-09
1.35864e-06
2.32278e-09
-8.35116e-09
1.35995e-06
1.07443e-09
-7.76672e-09
1.36122e-06
-5.49751e-10
-6.99436e-09
-2.63282e-09
-5.79136e-09
1.48076e-06
-7.0375e-10
-9.52079e-09
1.48284e-06
-1.10102e-09
-9.64401e-09
1.48473e-06
-1.69605e-09
-9.8396e-09
1.48641e-06
-2.56976e-09
-1.01211e-08
1.48783e-06
-3.80623e-09
-1.04738e-08
-5.44154e-09
-1.0861e-08
1.47919e-06
-4.95019e-09
-9.92137e-09
1.48047e-06
-4.7154e-09
-1.03169e-08
1.48128e-06
-4.59581e-09
-1.09736e-08
1.48161e-06
-4.64071e-09
-1.20189e-08
1.4814e-06
-4.86238e-09
-1.34846e-08
-5.53253e-09
-1.56237e-08
1.3536e-06
-7.20034e-09
-9.67827e-09
1.35319e-06
-6.48854e-09
-9.78849e-09
1.35246e-06
-5.74424e-09
-1.01274e-08
1.35128e-06
-4.90348e-09
-1.08554e-08
1.34957e-06
-3.9063e-09
-1.22251e-08
1.3474e-06
-2.66429e-09
-1.44729e-08
-1.7336e-09
-2.02605e-08
1.11966e-06
-5.71995e-09
-7.94597e-09
1.11699e-06
-5.08026e-09
-7.88851e-09
1.11451e-06
-4.29849e-09
-7.96468e-09
1.11209e-06
-3.24399e-09
-8.21987e-09
1.10946e-06
-1.67075e-09
-8.69136e-09
1.10602e-06
8.57782e-10
-9.27359e-09
4.87334e-09
-1.52683e-08
8.10941e-07
-3.01731e-09
-3.29208e-09
8.06009e-07
-2.74808e-09
-3.16079e-09
8.01699e-07
-2.31342e-09
-3.04648e-09
7.98044e-07
-1.55852e-09
-2.91128e-09
7.94447e-07
2.43568e-10
-2.38371e-09
7.88337e-07
4.44952e-09
6.98773e-11
1.96691e-08
1.06108e-08
4.31356e-07
-2.09414e-09
4.23899e-07
-2.03891e-09
4.17312e-07
-2.01577e-09
4.12167e-07
-2.00095e-09
4.10388e-07
-1.81105e-09
4.15824e-07
-1.47231e-09
1.01934e-08
1.52227e-07
2.03933e-09
1.4921e-07
2.01643e-09
1.46784e-07
2.00173e-09
1.45739e-07
1.81233e-09
1.48044e-07
1.47477e-09
-1.01901e-08
4.23901e-07
6.74861e-09
4.17313e-07
6.29066e-09
4.12169e-07
5.58813e-09
4.10391e-07
3.8337e-09
4.15829e-07
4.86452e-10
-9.97876e-09
7.30802e-07
7.19219e-09
7.24126e-07
6.21335e-09
7.18957e-07
4.81139e-09
7.1581e-07
2.61475e-09
7.15412e-07
-7.57634e-10
-8.17523e-09
9.78146e-07
4.13792e-09
9.72397e-07
3.22617e-09
9.66904e-07
1.95278e-09
9.61658e-07
9.464e-11
9.56352e-07
-2.44534e-09
-6.15376e-09
1.10877e-06
-8.87475e-10
1.1038e-06
-1.4496e-09
1.09829e-06
-2.37133e-09
1.09211e-06
-3.85146e-09
1.08544e-06
-6.24693e-09
-1.08996e-08
1.10666e-06
-5.47379e-09
1.10035e-06
-5.46348e-09
1.09274e-06
-5.72775e-09
1.08331e-06
-6.44283e-09
1.07165e-06
-8.07188e-09
-1.32081e-08
9.81389e-07
-8.13697e-09
9.73638e-07
-7.51134e-09
9.64871e-07
-6.8242e-09
9.54292e-07
-6.00407e-09
9.40544e-07
-4.91951e-09
9.21198e-07
-3.19886e-09
-4.43743e-09
7.363e-07
-6.83714e-09
7.27145e-07
-6.24559e-09
7.17853e-07
-5.49631e-09
7.08088e-07
-4.45964e-09
6.97136e-07
-2.65844e-09
6.83364e-07
1.29924e-09
8.78654e-09
4.30551e-07
-1.72324e-09
4.22546e-07
-1.40141e-09
4.15005e-07
-1.00122e-09
4.08059e-07
-4.25427e-10
4.0225e-07
7.66805e-10
3.9984e-07
3.77835e-09
2.39679e-08
1.55667e-07
1.52227e-07
1.4921e-07
1.46783e-07
1.45739e-07
1.48045e-07
1.22246e-07
-1.65157e-08
5.86322e-08
1.00303e-07
-2.44745e-08
4.64172e-08
9.06957e-08
-2.78836e-08
3.74905e-08
-2.92738e-08
3.41943e-08
3.43506e-07
-3.95005e-08
6.24024e-08
3.07757e-07
-4.40199e-08
5.52943e-08
2.85005e-07
-5.1665e-08
4.65332e-08
4.11328e-08
5.89609e-07
4.72821e-08
5.64948e-07
4.84431e-08
4.43276e-08
2.92249e-07
-7.3783e-09
8.71937e-08
2.67698e-07
-1.11013e-08
8.2069e-08
2.52387e-07
-2.01442e-08
7.29451e-08
-2.5612e-08
5.96862e-07
-3.50231e-08
8.0415e-08
5.95754e-07
-3.54754e-08
8.07761e-08
5.87104e-07
-4.10728e-08
7.61123e-08
8.61877e-07
6.46981e-08
8.67754e-07
6.75254e-08
6.65759e-08
4.47279e-07
-2.31398e-08
9.49727e-08
4.49702e-07
-1.97863e-08
9.94317e-08
-2.0115e-08
9.74227e-08
8.26736e-07
-3.5473e-08
9.50447e-08
8.26085e-07
-3.47933e-08
9.6434e-08
-3.58166e-08
9.43945e-08
1.09509e-06
7.89049e-08
1.09921e-06
7.98882e-08
7.96323e-08
6.00682e-07
-2.36313e-08
6.09033e-07
-1.94454e-08
-1.73026e-08
9.90952e-07
-2.98755e-08
9.95674e-07
-2.91315e-08
-2.81081e-08
1.272e-06
1.27471e-06
)
;

boundaryField
{
    inlet
    {
        type            calculated;
        value           nonuniform List<scalar> 0();
    }
    ami1
    {
        type            cyclicAMI;
        value           nonuniform List<scalar> 
100
(
1.82205e-07
3.95258e-07
6.54854e-07
8.92143e-07
1.05831e-06
1.07931e-06
9.48521e-07
7.18331e-07
4.3527e-07
1.8222e-07
4.35292e-07
7.64787e-07
1.10493e-06
1.34794e-06
1.48125e-06
1.48888e-06
1.36156e-06
1.1082e-06
7.64804e-07
3.95302e-07
7.1836e-07
1.10819e-06
1.42393e-06
1.65748e-06
1.78048e-06
1.78364e-06
1.66196e-06
1.42393e-06
1.10493e-06
6.54898e-07
9.48537e-07
1.36155e-06
1.66195e-06
1.87745e-06
1.9903e-06
1.99106e-06
1.87744e-06
1.65744e-06
1.34791e-06
8.92187e-07
1.07931e-06
1.48888e-06
1.78364e-06
1.99107e-06
2.09879e-06
2.09878e-06
1.99028e-06
1.78043e-06
1.48121e-06
1.05835e-06
1.05832e-06
1.48126e-06
1.78049e-06
1.99031e-06
2.09879e-06
2.09878e-06
1.99105e-06
1.78361e-06
1.48886e-06
1.07933e-06
8.92148e-07
1.34796e-06
1.6575e-06
1.87746e-06
1.99107e-06
1.9903e-06
1.87744e-06
1.66194e-06
1.36154e-06
9.48538e-07
6.54851e-07
1.10494e-06
1.42395e-06
1.66197e-06
1.78364e-06
1.78047e-06
1.65748e-06
1.42393e-06
1.10819e-06
7.18341e-07
3.95254e-07
7.64784e-07
1.1082e-06
1.36157e-06
1.48888e-06
1.48125e-06
1.34794e-06
1.10493e-06
7.64788e-07
4.3528e-07
1.82201e-07
4.35285e-07
7.18346e-07
9.48539e-07
1.07932e-06
1.05834e-06
8.92167e-07
6.54871e-07
3.95269e-07
1.82206e-07
)
;
    }
    walls
    {
        type            calculated;
        value           nonuniform List<scalar> 
283
(
0
0
0
0
0
0
0
0
0
0
0
0
0
0
0
0
0
0
0
0
0
0
0
0
0
0
0
0
0
0
0
0
0
0
0
0
0
0
0
0
0
0
0
0
0
0
0
0
0
0
0
0
0
0
0
0
0
0
0
0
0
0
0
0
0
0
0
0
0
0
0
0
0
0
0
0
0
0
0
0
0
0
0
0
0
0
0
0
0
0
0
0
0
0
0
0
0
0
0
0
0
0
0
0
0
0
0
0
0
0
0
0
0
0
0
0
0
0
0
0
0
0
0
0
0
0
0
0
0
0
0
0
0
0
0
0
0
0
0
0
0
0
0
0
0
0
0
0
0
0
0
0
0
0
0
0
0
0
0
0
0
0
0
0
0
0
0
0
0
0
0
0
0
0
0
0
0
0
0
0
0
0
0
0
0
0
0
0
0
0
0
0
0
0
0
0
0
0
0
0
0
0
0
0
0
0
0
0
0
0
0
0
0
0
0
0
0
0
0
0
0
0
0
0
0
0
0
0
0
0
0
0
0
0
0
0
0
0
0
0
0
0
0
0
0
0
0
0
0
0
0
0
0
0
0
0
0
0
2.90979e-14
2.43942e-14
1.84387e-14
2.90979e-14
2.43942e-14
1.84387e-14
2.90979e-14
2.43942e-14
1.84387e-14
2.90979e-14
2.43942e-14
-2.90979e-14
-2.43942e-14
-1.84387e-14
-1.28555e-14
-2.90979e-14
-2.43942e-14
-1.84387e-14
-1.28555e-14
-2.90979e-14
-2.43942e-14
-1.84387e-14
-1.28555e-14
-2.90979e-14
-2.43942e-14
)
;
    }
    ami2
    {
        type            cyclicAMI;
        value           nonuniform List<scalar> 
12
(
-1.64362e-07
-3.82924e-07
-6.07478e-07
-3.13432e-07
-5.8723e-07
-8.52662e-07
-4.31918e-07
-8.29032e-07
-1.09272e-06
-5.90649e-07
-9.9028e-07
-1.27094e-06
)
;
    }
    outlet
    {
        type            calculated;
        value           nonuniform List<scalar> 0();
    }
    procBoundary2to0
    {
        type            processor;
        value           nonuniform List<scalar> 
28
(
8.57747e-08
2.70829e-07
-5.62301e-08
-6.89128e-08
-6.78011e-08
5.41051e-07
-7.20952e-08
2.44054e-07
6.81392e-08
5.77501e-07
-4.60853e-08
7.12091e-08
-6.16542e-08
-6.04335e-08
8.66878e-07
-6.24444e-08
4.45339e-07
8.23504e-07
-5.20528e-08
-5.12767e-08
1.10204e-06
-5.17069e-08
6.13016e-07
9.99357e-07
-3.71863e-08
-3.73568e-08
1.27845e-06
-3.74467e-08
)
;
    }
    procBoundary2to1
    {
        type            processor;
        value           nonuniform List<scalar> 9(1.08571e-07 1.10526e-07 1.10742e-07 1.00617e-07 1.01399e-07 1.01517e-07 8.51544e-08 8.54047e-08 8.52362e-08);
    }
    procBoundary2to3
    {
        type            processor;
        value           nonuniform List<scalar> 
110
(
-1.55667e-07
-4.30551e-07
-7.36298e-07
-9.81387e-07
-1.11199e-06
-1.11326e-06
4.84231e-09
-9.90199e-07
-7.46841e-07
-4.39434e-07
-1.59485e-07
-4.31357e-07
-8.10941e-07
-1.11966e-06
-1.35359e-06
-1.47754e-06
-1.47853e-06
4.73111e-09
-1.35513e-06
-1.12357e-06
-8.16501e-07
-4.38957e-07
-7.38472e-07
-1.12114e-06
-1.41507e-06
-1.63041e-06
-1.74429e-06
-1.74481e-06
5.25297e-09
-1.62655e-06
-1.41389e-06
-1.12263e-06
-7.45545e-07
-9.84093e-07
-1.35567e-06
-1.63131e-06
-1.82837e-06
-1.93164e-06
-1.93178e-06
6.07549e-09
-1.82002e-06
-1.62596e-06
-1.35383e-06
-9.88579e-07
-1.11326e-06
-1.47853e-06
-1.74481e-06
-1.93178e-06
-2.02908e-06
-2.02907e-06
6.4293e-09
-1.92109e-06
-1.73758e-06
-1.47555e-06
-1.1166e-06
-1.11199e-06
-1.47754e-06
-1.74429e-06
-1.93164e-06
-2.02908e-06
-2.02907e-06
6.33399e-09
-1.92119e-06
-1.73794e-06
-1.47615e-06
-1.11735e-06
-9.81388e-07
-1.3536e-06
-1.63041e-06
-1.82837e-06
-1.93178e-06
-1.93164e-06
5.93869e-09
-1.82002e-06
-1.62655e-06
-1.35513e-06
-9.90199e-07
-7.36299e-07
-1.11966e-06
-1.41508e-06
-1.63131e-06
-1.74481e-06
-1.74429e-06
5.39118e-09
-1.62597e-06
-1.41389e-06
-1.12357e-06
-7.46842e-07
-4.30552e-07
-8.10942e-07
-1.12114e-06
-1.35567e-06
-1.47854e-06
-1.47754e-06
5.27729e-09
-1.35383e-06
-1.12263e-06
-8.16501e-07
-4.39434e-07
-1.55668e-07
-4.31358e-07
-7.38473e-07
-9.84094e-07
-1.11326e-06
-1.11199e-06
5.64972e-09
-9.8858e-07
-7.45545e-07
-4.38957e-07
-1.59485e-07
)
;
    }
}


// ************************************************************************* //
