/*--------------------------------*- C++ -*----------------------------------*\
| =========                 |                                                 |
| \\      /  F ield         | OpenFOAM: The Open Source CFD Toolbox           |
|  \\    /   O peration     | Version:  2212                                  |
|   \\  /    A nd           | Website:  www.openfoam.com                      |
|    \\/     M anipulation  |                                                 |
\*---------------------------------------------------------------------------*/
FoamFile
{
    version     2.0;
    format      ascii;
    arch        "LSB;label=32;scalar=64";
    class       surfaceVectorField;
    location    "2";
    object      Uf;
}
// * * * * * * * * * * * * * * * * * * * * * * * * * * * * * * * * * * * * * //

dimensions      [0 1 -1 0 0 0 0];

internalField   nonuniform List<vector> 
1769
(
(0.0455166 1.31592e-06 0.000150517)
(0.0542146 0.000126964 0.00021194)
(0.0542788 0.000123908 0.000292653)
(0.0446145 -5.76285e-05 0.000178903)
(0.0531486 4.75865e-05 0.000225223)
(0.0532572 9.46722e-05 0.000305611)
(0.043889 -0.000184921 0.000224305)
(0.0522047 -7.76448e-05 0.00026319)
(0.0523974 2.37472e-05 0.000344367)
(0.0435769 -0.00040504 0.000255999)
(0.051464 -0.000309261 0.000294228)
(0.05183 -0.000133529 0.000402253)
(0.0442663 -0.00175485 -0.000605687)
(0.0513087 -0.000804781 0.000219769)
(0.0520489 -0.000367538 0.000478369)
(0.0500904 -0.00348678 -0.0013751)
(0.0504639 -0.00204157 -0.000632131)
(0.0658917 0.000383717 0.000418357)
(0.0732813 0.000736204 0.000673713)
(0.0758481 0.00034984 0.000363727)
(0.0647156 0.000213691 0.000438187)
(0.0721543 0.000604969 0.000702217)
(0.074953 0.000233878 0.000394614)
(0.0636324 -4.70401e-05 0.00045299)
(0.0710565 0.000420659 0.000748694)
(0.0741306 6.51415e-05 0.000444565)
(0.0627265 -0.000551621 0.000394331)
(0.0699764 0.000114659 0.00079306)
(0.0733885 -0.000220912 0.000480723)
(0.0623503 -0.00195181 -8.12543e-05)
(0.0689965 -0.000511352 0.000772973)
(0.0727918 -0.000839457 0.000346392)
(0.0675834 -0.00178036 0.000951776)
(0.0718886 -0.00260316 -0.000611703)
(0.081157 0.000892413 0.000969304)
(0.0859064 0.000858234 0.00106661)
(0.088565 0.000835146 0.000950115)
(0.0801197 0.000741231 0.00102528)
(0.085008 0.000744886 0.0011124)
(0.0879111 0.000711078 0.000997728)
(0.0790297 0.000529691 0.00111419)
(0.0840363 0.00060304 0.0011942)
(0.0872448 0.000552255 0.00108253)
(0.077807 0.000163455 0.00123427)
(0.0829041 0.00040854 0.00133111)
(0.0865222 0.000328553 0.00121892)
(0.0762693 -0.000220311 0.00200144)
(0.0814959 0.000104867 0.00152836)
(0.0856887 -4.25056e-05 0.00141499)
(0.0798831 3.82445e-05 0.0025625)
(0.08487 -0.000288998 0.00239312)
(0.0903106 0.000793831 0.00124779)
(0.0925804 0.000636264 0.00123598)
(0.0960676 0.000745582 0.00128861)
(0.0894973 0.000726039 0.00132846)
(0.0919524 0.000627698 0.00129666)
(0.0956459 0.000671463 0.00135021)
(0.0885158 0.000663395 0.00147458)
(0.0912171 0.000653617 0.00139735)
(0.095146 0.000600097 0.00146761)
(0.0872403 0.000617868 0.00171195)
(0.0902991 0.000735865 0.00156645)
(0.0945046 0.000533611 0.00167704)
(0.0854453 0.000786305 0.00218858)
(0.0890826 0.000939197 0.00181518)
(0.0936371 0.00048568 0.00201036)
(0.0878001 0.00161411 0.00230677)
(0.0928001 0.000715548 0.00280819)
(0.0943449 0.000415333 0.00128056)
(0.094655 0.000124568 0.00122561)
(0.0993632 0.000370766 0.00138225)
(0.0938075 0.000482772 0.00135872)
(0.0942081 0.000203518 0.00127277)
(0.0991527 0.000399936 0.00143661)
(0.0931579 0.000610062 0.00147594)
(0.0936931 0.000332995 0.00133945)
(0.0988787 0.000465037 0.00152592)
(0.092354 0.000844706 0.00164238)
(0.0930887 0.000540947 0.00143659)
(0.0985188 0.000583522 0.00166726)
(0.0913597 0.00138498 0.00187867)
(0.0923422 0.000877568 0.00156634)
(0.0980399 0.000796466 0.00186289)
(0.0916223 0.00153146 0.00174207)
(0.0977297 0.00128812 0.00213821)
(0.0945249 -0.000104529 0.00121782)
(0.0928121 -0.000454003 0.00116855)
(0.0994778 -0.000164958 0.00133709)
(0.0941012 2.72359e-05 0.0012535)
(0.0923369 -0.000323152 0.00117693)
(0.0993372 -6.79389e-05 0.00135997)
(0.0936308 0.000224204 0.00130011)
(0.0918509 -0.000141057 0.00118291)
(0.0991685 6.84107e-05 0.0013953)
(0.0931042 0.000516231 0.00136055)
(0.0913537 0.000123871 0.0011849)
(0.0989666 0.000264378 0.00144613)
(0.0925351 0.000956296 0.00142975)
(0.0908323 0.000486736 0.00119308)
(0.0987173 0.000542208 0.00151162)
(0.0902274 0.00101305 0.00117603)
(0.0985158 0.00093675 0.00158843)
(0.0912803 -0.000773507 0.00113725)
(0.0869602 -0.000943436 0.000992123)
(0.0966035 -0.000774671 0.00120254)
(0.0907285 -0.000636649 0.00112761)
(0.0862211 -0.000831989 0.000979875)
(0.096328 -0.000664998 0.00118869)
(0.0901951 -0.000456479 0.00110776)
(0.0855364 -0.00069245 0.000955269)
(0.0960696 -0.000533584 0.00117247)
(0.0896854 -0.000198645 0.00107032)
(0.0849316 -0.000496488 0.00090399)
(0.0958293 -0.000362275 0.00114595)
(0.0891985 0.000180592 0.00101779)
(0.0844418 -0.000197601 0.000790041)
(0.0956077 -0.000121482 0.00110239)
(0.088706 0.000743568 0.00093037)
(0.0841222 0.000261701 0.00061675)
(0.0954103 0.000216918 0.00104827)
(0.0834322 0.00125189 0.000153482)
(0.0951702 0.00070138 0.000956818)
(0.0824211 -0.0010583 0.000868452)
(0.0745802 -0.000906943 0.000609814)
(0.0893746 -0.000992937 0.000855189)
(0.0815648 -0.000954706 0.000845084)
(0.0735084 -0.00084747 0.000595464)
(0.0888046 -0.000913667 0.000827258)
(0.0808194 -0.000822732 0.000797069)
(0.0725384 -0.000788521 0.00055873)
(0.0883062 -0.000825104 0.000781532)
(0.0802422 -0.000623881 0.000683878)
(0.0717265 -0.000705601 0.000483209)
(0.0879031 -0.000707433 0.000693565)
(0.0798904 -0.000253901 0.000461541)
(0.071186 -0.000509632 0.000266163)
(0.0876214 -0.000523049 0.000508378)
(0.0798454 0.000658166 -7.23381e-05)
(0.0712314 -0.000113908 -9.18933e-05)
(0.0874938 -0.000173887 0.000198093)
(0.0696504 0.00120211 -0.0010113)
(0.0870792 0.000721833 -0.00050852)
(0.0672656 -0.000630666 0.000348481)
(0.0554162 -0.000289665 0.000145837)
(0.0768641 -0.000521305 0.000267455)
(0.0661027 -0.000607029 0.000321057)
(0.0542788 -0.000292496 0.000124035)
(0.0759373 -0.000501444 0.000232242)
(0.0650755 -0.000582805 0.000257331)
(0.0532571 -0.000305367 9.48544e-05)
(0.0751037 -0.000492273 0.000165672)
(0.0642731 -0.000518538 9.49176e-05)
(0.0523972 -0.000344035 2.40072e-05)
(0.0743981 -0.00048244 4.74757e-05)
(0.0639955 -0.000418095 -0.000192309)
(0.0518298 -0.000401668 -0.00013316)
(0.0738967 -0.000421673 -0.000218823)
(0.0648424 -0.000180984 -0.000691254)
(0.0520482 -0.000477117 -0.000367055)
(0.0738195 -0.000231292 -0.000819752)
(0.0504634 0.000634244 -0.0020398)
(0.0724079 0.00078271 -0.00285642)
(0.0465452 -0.000140047 3.65217e-05)
(0.0553777 -0.000206639 0.000187755)
(0.0455165 -0.000150365 1.47884e-06)
(0.0542146 -0.000211844 0.000127128)
(0.0446144 -0.000178663 -5.73956e-05)
(0.0531487 -0.000225058 4.78141e-05)
(0.043889 -0.000223932 -0.00018458)
(0.0522049 -0.000262939 -7.73055e-05)
(0.0435768 -0.000255366 -0.000404445)
(0.0514644 -0.000293863 -0.000308664)
(0.0442671 0.000606685 -0.00175274)
(0.0513095 -0.000219039 -0.00080387)
(0.050092 0.00137784 -0.00348633)
(0.0661029 0.000320895 0.000607268)
(0.0759374 0.000232093 0.00050161)
(0.0735086 0.000595339 0.000847641)
(0.0650757 0.000257086 0.000583094)
(0.0751038 0.000165479 0.000492552)
(0.0725387 0.000558519 0.000788717)
(0.0642735 9.45358e-05 0.000518941)
(0.0743983 4.71952e-05 0.000482813)
(0.071727 0.000482887 0.000705802)
(0.0639965 -0.000192856 0.000418798)
(0.0738971 -0.000219307 0.000422226)
(0.0711869 0.000265618 0.000509878)
(0.0648448 -0.000691825 0.000182138)
(0.0738203 -0.000820504 0.000232241)
(0.0712333 -9.2777e-05 0.000114091)
(0.0724075 -0.00285728 -0.000780903)
(0.0696521 -0.00101233 -0.00120182)
(0.0873366 0.000220379 0.000433122)
(0.0917995 0.00053465 0.00072704)
(0.0918725 0.00057254 0.000679159)
(0.0868696 8.77241e-05 0.000440479)
(0.0914298 0.000416634 0.000739119)
(0.0915432 0.000481001 0.000648709)
(0.0864735 -0.000128149 0.000447683)
(0.0911003 0.00025259 0.000772062)
(0.0912721 0.000341109 0.0006173)
(0.0860837 -0.00052593 0.00038442)
(0.0907894 8.54327e-06 0.000818619)
(0.0910399 0.00010688 0.00056552)
(0.0854214 -0.00136132 -3.1562e-05)
(0.0904206 -0.000363385 0.000823732)
(0.0907625 -0.00030137 0.000446572)
(0.0902236 -0.000892928 0.000619362)
(0.0905612 -0.00109722 4.52804e-05)
(0.0965487 0.000652276 0.0010452)
(0.0993057 0.000668251 0.00122455)
(0.0996737 0.000833844 0.0010929)
(0.0963344 0.000512026 0.00108821)
(0.0991717 0.000559807 0.00126098)
(0.0996134 0.000721237 0.00109494)
(0.0961246 0.000328028 0.00116736)
(0.0990285 0.000430885 0.0013379)
(0.0995658 0.000581606 0.00112109)
(0.0958972 8.12301e-05 0.00128377)
(0.0988624 0.000270726 0.00146938)
(0.0995157 0.000400011 0.00117088)
(0.0956001 -0.000194144 0.00147175)
(0.0986585 6.68307e-05 0.00165837)
(0.0994461 0.000163106 0.00123216)
(0.0987388 -0.00011069 0.00193727)
(0.0995836 -6.38893e-05 0.00135441)
(0.102172 0.00062279 0.00146718)
(0.103431 0.000520309 0.00151893)
(0.104359 0.000702882 0.00146765)
(0.102117 0.000540058 0.00154099)
(0.103462 0.000485829 0.00156007)
(0.104473 0.000625435 0.00149652)
(0.102027 0.000455778 0.00167559)
(0.103463 0.000462725 0.00164522)
(0.10457 0.000546242 0.00156717)
(0.101898 0.000368746 0.00188798)
(0.103426 0.000456135 0.00178996)
(0.104648 0.000465086 0.00168906)
(0.101735 0.000307965 0.00217879)
(0.103357 0.000467145 0.00200069)
(0.104713 0.000379478 0.00186282)
(0.103571 0.000532673 0.00226289)
(0.105001 0.000329338 0.00206444)
(0.104777 0.000354983 0.00161281)
(0.104768 9.13062e-05 0.00157082)
(0.106531 0.000335036 0.00160688)
(0.104868 0.000378612 0.00166452)
(0.104897 0.000142906 0.00158904)
(0.106773 0.000336025 0.00162531)
(0.104925 0.000429501 0.00175843)
(0.105005 0.000220199 0.00163299)
(0.106993 0.000353896 0.00167632)
(0.104948 0.000516209 0.00189934)
(0.105087 0.000333704 0.0017092)
(0.107188 0.000391944 0.00176627)
(0.104934 0.000654525 0.00207892)
(0.105152 0.000494353 0.00181768)
(0.107374 0.000455086 0.00189127)
(0.105417 0.000706789 0.00194802)
(0.107754 0.000555601 0.00203275)
(0.104889 -0.000132711 0.00154706)
(0.103573 -0.00041196 0.00143138)
(0.106595 -0.000212554 0.00155296)
(0.105035 -3.23202e-05 0.00155751)
(0.103682 -0.000311072 0.00141478)
(0.106872 -0.000144797 0.00154254)
(0.10517 9.99841e-05 0.00158376)
(0.103793 -0.0001849 0.00140139)
(0.107137 -5.98172e-05 0.0015461)
(0.105289 0.000275684 0.00162754)
(0.103903 -2.1702e-05 0.00138845)
(0.107392 5.00397e-05 0.00156575)
(0.105389 0.000496098 0.00168678)
(0.104018 0.000190999 0.00137507)
(0.107647 0.000192152 0.0016009)
(0.10423 0.00046328 0.00134998)
(0.108016 0.000358995 0.00164596)
(0.102359 -0.000671861 0.00133894)
(0.0995535 -0.00079297 0.0011356)
(0.10432 -0.000777763 0.00139453)
(0.102416 -0.000567338 0.00130287)
(0.0994798 -0.000708517 0.00108644)
(0.104494 -0.000693549 0.00134197)
(0.102492 -0.000446035 0.00126387)
(0.0994421 -0.000618676 0.00102989)
(0.10468 -0.000606314 0.00129109)
(0.102583 -0.000295776 0.00121342)
(0.0994385 -0.000511888 0.000948966)
(0.104878 -0.000508583 0.00123533)
(0.102682 -0.000104272 0.0011463)
(0.0994588 -0.000374657 0.00082238)
(0.105088 -0.000391879 0.00116857)
(0.102778 0.000141129 0.0010533)
(0.0994818 -0.000186313 0.000634393)
(0.105315 -0.000247054 0.00108979)
(0.0995638 0.000128796 0.000331993)
(0.105612 -6.2851e-05 0.00099414)
(0.0969073 -0.000858895 0.000908356)
(0.0922627 -0.000716963 0.000639383)
(0.099808 -0.00100915 0.00101991)
(0.0967484 -0.000793848 0.000841206)
(0.0918724 -0.000679063 0.000572749)
(0.0997565 -0.000953423 0.000942441)
(0.0966409 -0.000722853 0.000746302)
(0.0915431 -0.000648508 0.000481221)
(0.099742 -0.000906023 0.000852046)
(0.0965796 -0.000631484 0.000594502)
(0.091272 -0.000616973 0.000341382)
(0.0997608 -0.000860018 0.000731001)
(0.0965264 -0.000496793 0.000354811)
(0.0910399 -0.000565039 0.000107265)
(0.0998 -0.000805349 0.000560341)
(0.0963955 -0.00024152 -2.96074e-05)
(0.0907626 -0.00044562 -0.000301042)
(0.0998342 -0.000722957 0.000326332)
(0.0905627 -4.20288e-05 -0.00109904)
(0.0999674 -0.00055066 1.37288e-05)
(0.0878708 -0.000439769 0.000309829)
(0.0768106 -0.00035188 0.000427726)
(0.0922161 -0.000735616 0.000626098)
(0.0873365 -0.00043294 0.000220609)
(0.0758482 -0.000363629 0.000350052)
(0.0917994 -0.000726945 0.000534814)
(0.0868696 -0.000440107 8.79526e-05)
(0.0749531 -0.000394401 0.000234114)
(0.0914298 -0.000738866 0.00041677)
(0.0864736 -0.000447105 -0.000127863)
(0.0741308 -0.000444188 6.54366e-05)
(0.0911004 -0.000771625 0.000252727)
(0.086084 -0.000383439 -0.000525623)
(0.073389 -0.000480134 -0.000220455)
(0.0907896 -0.000817931 8.66368e-06)
(0.0854221 3.38473e-05 -0.0013617)
(0.072793 -0.000345071 -0.000839083)
(0.090421 -0.000822495 -0.000363475)
(0.0718918 0.000615409 -0.00260374)
(0.0902251 -0.000616987 -0.000893608)
(0.0671401 -0.000407572 0.00050081)
(0.0744444 -0.000659542 0.000836549)
(0.0658918 -0.000418252 0.000383949)
(0.0732815 -0.000673585 0.000736282)
(0.0647159 -0.000437998 0.000214005)
(0.0721547 -0.000702034 0.000605107)
(0.0636331 -0.000452679 -4.65526e-05)
(0.0710571 -0.000748393 0.000420872)
(0.0627277 -0.000393701 -0.00055099)
(0.0699775 -0.000792534 0.000115003)
(0.0623534 8.29215e-05 -0.00195126)
(0.0689988 -0.000771892 -0.000511182)
(0.0675876 -0.000949711 -0.00178061)
(0.0815652 0.000844909 0.000954825)
(0.0888048 0.000827134 0.000913788)
(0.0862214 0.000979737 0.000832065)
(0.08082 0.000796783 0.000822834)
(0.0883065 0.000781314 0.000825232)
(0.0855368 0.000955042 0.000692491)
(0.0802432 0.000683398 0.000623924)
(0.0879036 0.000693214 0.000707569)
(0.0849323 0.000903627 0.000496447)
(0.0798921 0.000460728 0.000253788)
(0.0876222 0.00050779 0.000523164)
(0.0844429 0.000789444 0.000197413)
(0.0798481 -7.35815e-05 -0.000658586)
(0.087495 0.000197272 0.000174029)
(0.0841239 0.000615796 -0.000262171)
(0.0870802 -0.000508138 -0.000720559)
(0.0834342 0.000152026 -0.0012531)
(0.0967485 0.000841013 0.000793971)
(0.0997566 0.00094231 0.000953508)
(0.0994799 0.00108629 0.000708587)
(0.0966411 0.000746046 0.000723028)
(0.0997421 0.000851901 0.000906162)
(0.0994423 0.00102967 0.00061877)
(0.0965798 0.000594139 0.000631733)
(0.0997609 0.000730849 0.000860233)
(0.0994386 0.000948665 0.000512014)
(0.0965265 0.000354413 0.000497256)
(0.0998 0.000560168 0.000805674)
(0.0994589 0.000821938 0.000374809)
(0.0963953 -2.838e-05 0.000243622)
(0.0998342 0.000326404 0.000723631)
(0.0994817 0.000633942 0.000186663)
(0.0999669 1.62431e-05 0.000553409)
(0.0995632 0.000333449 -0.000126652)
(0.103092 0.000901587 0.00106975)
(0.10482 0.0008378 0.00124043)
(0.104855 0.00111677 0.00092024)
(0.103218 0.000791225 0.00105166)
(0.105017 0.00074896 0.00122762)
(0.105069 0.00103353 0.000875424)
(0.103356 0.00065757 0.00104825)
(0.105222 0.000649931 0.00123901)
(0.105294 0.00093976 0.000841085)
(0.103489 0.000493542 0.00105298)
(0.105429 0.000536634 0.00127288)
(0.105526 0.000829925 0.000814669)
(0.103589 0.000315034 0.00106299)
(0.105644 0.000409293 0.00132296)
(0.105768 0.000700557 0.000790651)
(0.105998 0.000298785 0.00138056)
(0.106123 0.000575869 0.000763854)
(0.106873 0.000699473 0.00141256)
(0.107598 0.000532347 0.00147862)
(0.107973 0.00082122 0.0011902)
(0.107155 0.00062537 0.00143073)
(0.107934 0.000489323 0.0014792)
(0.10835 0.000755681 0.00117525)
(0.107436 0.000549253 0.00148131)
(0.108262 0.000450148 0.00150909)
(0.108725 0.000691594 0.00118308)
(0.107721 0.000470332 0.00156247)
(0.108585 0.000413524 0.00156988)
(0.109102 0.000625847 0.00121424)
(0.10802 0.00039745 0.00166103)
(0.10892 0.000376496 0.00165561)
(0.109497 0.000559112 0.00126152)
(0.109385 0.000345798 0.00174573)
(0.109994 0.000503818 0.00130099)
(0.108689 0.000311638 0.00154723)
(0.108512 3.61498e-05 0.00152272)
(0.109446 0.000329447 0.0013046)
(0.109073 0.000305496 0.00155948)
(0.108914 5.50647e-05 0.00150915)
(0.109924 0.000314408 0.00129219)
(0.109445 0.000308363 0.00159948)
(0.109302 8.28199e-05 0.00151595)
(0.110388 0.000305868 0.00130155)
(0.109809 0.000319521 0.00166485)
(0.109683 0.000120834 0.00154409)
(0.110843 0.000302902 0.00133277)
(0.110169 0.000339811 0.0017426)
(0.110072 0.000171692 0.00158778)
(0.111307 0.000305168 0.0013781)
(0.110565 0.000232265 0.00163353)
(0.111864 0.000313895 0.00141734)
(0.108736 -0.000226147 0.00148464)
(0.107653 -0.000510946 0.00139497)
(0.10947 -0.000295092 0.00126595)
(0.109143 -0.000175844 0.00146561)
(0.108017 -0.000455544 0.00134934)
(0.10996 -0.000261433 0.00123434)
(0.109542 -0.000116279 0.00146055)
(0.108379 -0.000396656 0.00131012)
(0.110439 -0.000223992 0.00121635)
(0.109938 -4.41601e-05 0.00146702)
(0.108742 -0.000331044 0.00127512)
(0.110912 -0.000180247 0.00121001)
(0.110334 3.9008e-05 0.00147872)
(0.109122 -0.000252858 0.00124178)
(0.111396 -0.000128323 0.00121052)
(0.109584 -0.000157931 0.00121059)
(0.111948 -7.02633e-05 0.00120996)
(0.106647 -0.00079727 0.00132962)
(0.104654 -0.000977512 0.00119783)
(0.107612 -0.000918132 0.00117013)
(0.106962 -0.000732416 0.00126331)
(0.104855 -0.0009202 0.00111687)
(0.108009 -0.000861473 0.00110314)
(0.107283 -0.000671957 0.00119845)
(0.105069 -0.000875335 0.00103361)
(0.108405 -0.000814744 0.00104163)
(0.107612 -0.00061246 0.00113065)
(0.105294 -0.000840929 0.000939776)
(0.108802 -0.000776007 0.000981969)
(0.107951 -0.000548864 0.00105764)
(0.105526 -0.000814398 0.000829809)
(0.109205 -0.000743309 0.000919868)
(0.108299 -0.00047369 0.00098371)
(0.105768 -0.000790077 0.000700025)
(0.109629 -0.000709303 0.000856248)
(0.106123 -0.000762414 0.000574035)
(0.110127 -0.000661835 0.000798304)
(0.102984 -0.00110497 0.000998179)
(0.099755 -0.0011132 0.000934413)
(0.104631 -0.00127557 0.00092481)
(0.103092 -0.00106965 0.000901665)
(0.0996737 -0.00109283 0.000833955)
(0.10482 -0.00124037 0.000837851)
(0.103218 -0.00105147 0.00079124)
(0.0996135 -0.00109476 0.000721302)
(0.105017 -0.00122749 0.000748948)
(0.103356 -0.00104794 0.000657456)
(0.0995659 -0.00112078 0.000581595)
(0.105221 -0.00123882 0.000649803)
(0.103489 -0.00105242 0.000493079)
(0.0995159 -0.00117036 0.000399844)
(0.105429 -0.00127257 0.000536295)
(0.103589 -0.00106167 0.000313444)
(0.0994464 -0.00123126 0.000162497)
(0.105644 -0.00132246 0.000408462)
(0.0995841 -0.001353 -6.54753e-05)
(0.105997 -0.00137963 0.000296755)
(0.0967792 -0.00103172 0.000768111)
(0.0892285 -0.000927643 0.000942108)
(0.0994423 -0.00121899 0.000766802)
(0.0965488 -0.00104504 0.00065237)
(0.0885651 -0.00094999 0.000835224)
(0.0993057 -0.00122442 0.000668315)
(0.0963345 -0.0010879 0.00051206)
(0.0879113 -0.000997518 0.000711145)
(0.0991717 -0.00126072 0.000559813)
(0.0961249 -0.00116681 0.000327954)
(0.0872452 -0.00108216 0.000552302)
(0.0990285 -0.00133745 0.000430777)
(0.0958976 -0.00128282 8.08891e-05)
(0.0865231 -0.0012182 0.000328538)
(0.0988624 -0.00146862 0.000270422)
(0.0956005 -0.00147041 -0.000194868)
(0.0856904 -0.00141363 -4.29395e-05)
(0.0986583 -0.00165716 6.61544e-05)
(0.0848727 -0.0023913 -0.000289714)
(0.0987383 -0.00193581 -0.000111705)
(0.0821789 -0.000937676 0.00101409)
(0.0867719 -0.001042 0.000957251)
(0.0811573 -0.000969123 0.000892467)
(0.0859066 -0.00106644 0.000858222)
(0.0801203 -0.001025 0.000741306)
(0.0850084 -0.00111214 0.000744865)
(0.0790307 -0.00111368 0.000529791)
(0.084037 -0.00119375 0.000602978)
(0.0778089 -0.0012333 0.000163371)
(0.0829053 -0.0013303 0.000408389)
(0.0762728 -0.00200017 -0.000220604)
(0.0814982 -0.00152691 0.000104374)
(0.0798866 -0.00256117 3.75664e-05)
(0.0907288 0.00112743 0.000636685)
(0.0963282 0.00118856 0.000665061)
(0.0928124 0.00116843 0.000454023)
(0.0901956 0.00110748 0.000456453)
(0.0960699 0.00117225 0.000533627)
(0.0923373 0.00117676 0.000323146)
(0.0896861 0.00106988 0.000198503)
(0.0958296 0.0011456 0.000362277)
(0.0918515 0.00118265 0.000140991)
(0.0891996 0.00101711 -0.000180946)
(0.0956082 0.00110185 0.000121412)
(0.0913544 0.0011845 -0.000124049)
(0.0887074 0.000929326 -0.000744393)
(0.0954108 0.00104748 -0.000217083)
(0.0908333 0.00119248 -0.000487034)
(0.0951707 0.00095592 -0.000701577)
(0.0902285 0.00117521 -0.00101364)
(0.102416 0.0013027 0.000567415)
(0.104494 0.00134186 0.000693609)
(0.103573 0.00143126 0.000412018)
(0.102492 0.00126362 0.000446118)
(0.10468 0.00129093 0.000606388)
(0.103682 0.0014146 0.000311138)
(0.102583 0.00121305 0.000295878)
(0.104878 0.00123513 0.000508685)
(0.103793 0.00140115 0.000184989)
(0.102682 0.00114583 0.000104454)
(0.105087 0.00116834 0.000392034)
(0.103904 0.00138811 2.18447e-05)
(0.102778 0.00105307 -0.000140512)
(0.105315 0.00108966 0.000247383)
(0.104018 0.00137467 -0.000190672)
(0.105612 0.00099474 6.38091e-05)
(0.10423 0.0013499 -0.000462281)
(0.106962 0.00126322 0.000732475)
(0.10801 0.00110307 0.000861493)
(0.107653 0.00139487 0.000510994)
(0.107283 0.00119837 0.000672053)
(0.108405 0.00104159 0.000814773)
(0.108017 0.00134923 0.000455619)
(0.107612 0.00113063 0.000612623)
(0.108802 0.000981973 0.000776055)
(0.108379 0.00131003 0.00039678)
(0.107951 0.00105781 0.000549176)
(0.109205 0.000919988 0.000743381)
(0.108742 0.00127508 0.000331258)
(0.108299 0.000984457 0.00047436)
(0.109629 0.000856642 0.000709437)
(0.109122 0.00124193 0.000253262)
(0.110128 0.000799336 0.000662135)
(0.109584 0.00121131 0.000158719)
(0.109526 0.000883582 0.000951059)
(0.109861 0.000631089 0.00101154)
(0.109866 0.000970873 0.000658273)
(0.110003 0.000828809 0.000927184)
(0.110384 0.000592489 0.000984357)
(0.110391 0.000923892 0.00063217)
(0.110479 0.00077597 0.000916677)
(0.110899 0.000557528 0.000972111)
(0.110908 0.000884921 0.000612554)
(0.110962 0.00072344 0.000915254)
(0.111411 0.000523226 0.000973582)
(0.111424 0.000850207 0.000597886)
(0.111459 0.000675771 0.000910774)
(0.111939 0.000489136 0.000980804)
(0.111955 0.00081821 0.000583745)
(0.112532 0.00046028 0.000976563)
(0.112546 0.000790327 0.000560359)
(0.110736 0.000333026 0.00104621)
(0.110456 7.4994e-07 0.00104477)
(0.110889 0.00035692 0.000723412)
(0.111298 0.000315296 0.00103079)
(0.111027 1.7227e-06 0.00101466)
(0.111501 0.000339178 0.000704998)
(0.111851 0.000300461 0.00103071)
(0.111585 4.37267e-06 0.000998575)
(0.112097 0.000324558 0.000696293)
(0.1124 0.00028799 0.00104109)
(0.112137 9.29701e-06 0.0009943)
(0.112686 0.000312467 0.000695662)
(0.11295 0.000277953 0.00104889)
(0.1127 1.67369e-05 0.00099549)
(0.113282 0.000301939 0.000698)
(0.11332 2.70773e-05 0.000990616)
(0.113931 0.000292712 0.000691079)
(0.110747 -0.000333477 0.00101322)
(0.109866 -0.00065828 0.000970951)
(0.110893 -0.000361637 0.000706012)
(0.111313 -0.000313491 0.000982443)
(0.110391 -0.000632184 0.000923956)
(0.111507 -0.000345406 0.000679187)
(0.111872 -0.000292892 0.000962166)
(0.110908 -0.000612581 0.000884962)
(0.112106 -0.000331199 0.000659558)
(0.112429 -0.000270654 0.000948698)
(0.111424 -0.000597943 0.000850186)
(0.112698 -0.000317693 0.000645389)
(0.112988 -0.0002454 0.000937215)
(0.111955 -0.000583867 0.000818067)
(0.113298 -0.000303487 0.000633477)
(0.112545 -0.000560619 0.000789967)
(0.113944 -0.000284903 0.000621128)
(0.109042 -0.000988689 0.000943838)
(0.107587 -0.00122565 0.000891735)
(0.109323 -0.00105376 0.000674312)
(0.109526 -0.000951071 0.000883619)
(0.107973 -0.00119019 0.000821262)
(0.109861 -0.00101157 0.000631166)
(0.110003 -0.000927208 0.000828804)
(0.10835 -0.00117521 0.000755669)
(0.110384 -0.00098441 0.000592549)
(0.110479 -0.000916732 0.000775889)
(0.108725 -0.00118304 0.000691502)
(0.110899 -0.000972201 0.000557567)
(0.110962 -0.000915381 0.000723205)
(0.109102 -0.0012142 0.000625608)
(0.111411 -0.000973746 0.000523213)
(0.111458 -0.000911051 0.000675266)
(0.109496 -0.00126156 0.000558635)
(0.111939 -0.000981125 0.000489037)
(0.109992 -0.00130137 0.000503041)
(0.112531 -0.000977179 0.000460057)
(0.106588 -0.00142401 0.000774731)
(0.104233 -0.00147151 0.000782001)
(0.107251 -0.00150298 0.000580376)
(0.106873 -0.00141248 0.000699467)
(0.104359 -0.00146753 0.000702914)
(0.107598 -0.00147857 0.000532396)
(0.107155 -0.0014306 0.000625271)
(0.104473 -0.0014963 0.000625412)
(0.107934 -0.00147913 0.000489328)
(0.107436 -0.00148112 0.000549005)
(0.104569 -0.00156684 0.000546097)
(0.108262 -0.00150898 0.000450092)
(0.10772 -0.00156226 0.000469852)
(0.104647 -0.00168855 0.000464759)
(0.108585 -0.00156973 0.000413367)
(0.108019 -0.00166101 0.000396696)
(0.104712 -0.00186215 0.0003789)
(0.108919 -0.00165547 0.000376208)
(0.104999 -0.00206395 0.000328598)
(0.109383 -0.00174585 0.000345437)
(0.102202 -0.00143631 0.00070429)
(0.0964439 -0.00125956 0.000822169)
(0.10338 -0.00150754 0.000564412)
(0.102172 -0.00146695 0.000622806)
(0.0960676 -0.00128842 0.000745587)
(0.103431 -0.00151875 0.000520343)
(0.102117 -0.00154059 0.000539989)
(0.0956461 -0.0013499 0.000671434)
(0.103462 -0.00155979 0.00048583)
(0.102027 -0.00167494 0.000455554)
(0.0951463 -0.00146707 0.000599963)
(0.103463 -0.00164474 0.000462645)
(0.101898 -0.00188699 0.000368314)
(0.0945051 -0.00167609 0.000533295)
(0.103426 -0.00178919 0.000455948)
(0.101734 -0.00217753 0.000307374)
(0.0936378 -0.00200876 0.000485091)
(0.103356 -0.00199952 0.000466835)
(0.0928006 -0.00280604 0.000714864)
(0.103569 -0.00226138 0.000532361)
(0.0910297 -0.00120445 0.000866301)
(0.0931387 -0.00120097 0.000665436)
(0.0903108 -0.00124755 0.000793798)
(0.0925805 -0.0012358 0.00063625)
(0.0894978 -0.00132804 0.000725953)
(0.0919527 -0.00129635 0.000627653)
(0.0885167 -0.00147385 0.000663186)
(0.0912177 -0.00139681 0.000653515)
(0.0872418 -0.00171068 0.000617441)
(0.0903 -0.00156551 0.000735629)
(0.0854478 -0.00218716 0.000785799)
(0.0890842 -0.00181358 0.000938701)
(0.0878025 -0.00230496 0.00161321)
(0.0945252 0.00121772 0.00010452)
(0.099478 0.001337 0.000164975)
(0.0946553 0.00122556 -0.000124587)
(0.0941016 0.00125335 -2.72775e-05)
(0.0993375 0.00135984 6.795e-05)
(0.0942084 0.00127269 -0.000203561)
(0.0936314 0.00129988 -0.000224297)
(0.0991689 0.00139511 -6.84097e-05)
(0.0936935 0.00133935 -0.000333073)
(0.0931048 0.00136023 -0.000516385)
(0.098967 0.00144586 -0.000264382)
(0.0930892 0.00143645 -0.000541082)
(0.0925358 0.00142936 -0.00095653)
(0.0987178 0.00151125 -0.000542173)
(0.0923427 0.00156614 -0.000877734)
(0.0985163 0.00158808 -0.000936618)
(0.091623 0.0017418 -0.00153162)
(0.104889 0.00154693 0.000132752)
(0.106595 0.00155285 0.00021259)
(0.104768 0.00157073 -9.12942e-05)
(0.105036 0.00155734 3.23801e-05)
(0.106872 0.0015424 0.000144852)
(0.104897 0.00158893 -0.000142885)
(0.10517 0.00158353 -9.98821e-05)
(0.107138 0.00154593 5.99069e-05)
(0.105005 0.00163283 -0.000220159)
(0.105289 0.00162726 -0.000275476)
(0.107392 0.00156555 -4.98821e-05)
(0.105087 0.001709 -0.000333623)
(0.105389 0.00168651 -0.000495654)
(0.107647 0.0016007 -0.000191852)
(0.105152 0.00181745 -0.000494167)
(0.108016 0.00164592 -0.000358438)
(0.105417 0.00194779 -0.000706405)
(0.108737 0.00148453 0.000226198)
(0.109471 0.00126585 0.000295105)
(0.108512 0.00152262 -3.61287e-05)
(0.109143 0.00146549 0.000175931)
(0.10996 0.00123423 0.000261458)
(0.108914 0.00150903 -5.50222e-05)
(0.109542 0.00146043 0.000116427)
(0.110439 0.00121623 0.000224035)
(0.109303 0.0015158 -8.27385e-05)
(0.109938 0.00146694 4.44138e-05)
(0.110912 0.00120991 0.000180318)
(0.109683 0.00154394 -0.000120691)
(0.110334 0.00147882 -3.85942e-05)
(0.111396 0.00121049 0.000128439)
(0.110072 0.00158766 -0.000171454)
(0.111948 0.00121012 7.04152e-05)
(0.110566 0.00163359 -0.000231925)
(0.110747 0.00101311 0.000333462)
(0.110894 0.000705889 0.000361598)
(0.110456 0.00104464 -7.66357e-07)
(0.111314 0.000982333 0.000313468)
(0.111507 0.000679046 0.000345348)
(0.111027 0.00101452 -1.74457e-06)
(0.111872 0.000962062 0.000292852)
(0.112106 0.000659401 0.000331109)
(0.111585 0.000998415 -4.39731e-06)
(0.11243 0.000948623 0.000270578)
(0.112698 0.000645217 0.00031755)
(0.112138 0.000994125 -9.33259e-06)
(0.112989 0.000937204 0.000245239)
(0.113298 0.000633299 0.000303253)
(0.112701 0.000995313 -1.68011e-05)
(0.113945 0.00062096 0.000284492)
(0.11332 0.000990471 -2.72225e-05)
(0.111665 0.000363477 0.000374016)
(0.111338 -3.927e-06 0.000375938)
(0.111338 0.000375777 3.86731e-06)
(0.112313 0.000348901 0.000363657)
(0.111994 -5.66517e-06 0.000361714)
(0.111994 0.000361516 5.57933e-06)
(0.112947 0.000337092 0.000356672)
(0.112632 -7.74697e-06 0.000351035)
(0.112632 0.000350789 7.62049e-06)
(0.113574 0.000327017 0.000351341)
(0.113261 -1.00001e-05 0.000342961)
(0.113261 0.000342653 9.80996e-06)
(0.114197 0.000317363 0.000343893)
(0.113895 -1.17854e-05 0.000335682)
(0.113895 0.000335297 1.14914e-05)
(0.114571 -1.1598e-05 0.000325931)
(0.114572 0.000325448 1.11322e-05)
(0.111665 -0.000374099 0.000363636)
(0.110889 -0.000723472 0.000357043)
(0.111338 -0.000376022 -3.76371e-06)
(0.112313 -0.000363784 0.000349092)
(0.111501 -0.000705091 0.000339318)
(0.111994 -0.00036184 -5.46005e-06)
(0.112947 -0.000356868 0.000337324)
(0.112097 -0.000696443 0.000324718)
(0.112632 -0.000351224 -7.48622e-06)
(0.113574 -0.000351646 0.000327302)
(0.112685 -0.000695905 0.000312652)
(0.113261 -0.000343242 -9.6643e-06)
(0.114196 -0.000344381 0.00031772)
(0.113282 -0.00069841 0.000302166)
(0.113895 -0.000336101 -1.13456e-05)
(0.11393 -0.000691792 0.000293031)
(0.114571 -0.000326555 -1.101e-05)
(0.110157 -0.00107792 0.000353821)
(0.10895 -0.00133732 0.000349909)
(0.109866 -0.00108926 7.92083e-07)
(0.110736 -0.00104628 0.00033313)
(0.109446 -0.00130461 0.000329535)
(0.110456 -0.00104484 8.75273e-07)
(0.111298 -0.00103091 0.000315405)
(0.109924 -0.00129222 0.000314492)
(0.111027 -0.00101478 1.88373e-06)
(0.111851 -0.00103091 0.000300575)
(0.110387 -0.0013016 0.000305951)
(0.111585 -0.00099877 4.56386e-06)
(0.1124 -0.00104145 0.000288118)
(0.110842 -0.00133288 0.000302978)
(0.112137 -0.000994613 9.53809e-06)
(0.112949 -0.00104956 0.000278144)
(0.111305 -0.00137834 0.000305257)
(0.1127 -0.00099601 1.70664e-05)
(0.111863 -0.0014179 0.000314073)
(0.113319 -0.000991477 2.76052e-05)
(0.108289 -0.00155951 0.000326547)
(0.106269 -0.00161085 0.000346725)
(0.108098 -0.0015555 2.35942e-05)
(0.108689 -0.00154718 0.000311706)