/*--------------------------------*- C++ -*----------------------------------*\
| =========                 |                                                 |
| \\      /  F ield         | OpenFOAM: The Open Source CFD Toolbox           |
|  \\    /   O peration     | Version:  2212                                  |
|   \\  /    A nd           | Website:  www.openfoam.com                      |
|    \\/     M anipulation  |                                                 |
\*---------------------------------------------------------------------------*/
FoamFile
{
    version     2.0;
    format      ascii;
    arch        "LSB;label=32;scalar=64";
    class       volScalarField;
    location    "0.2";
    object      epsilon;
}
// * * * * * * * * * * * * * * * * * * * * * * * * * * * * * * * * * * * * * //

dimensions      [0 2 -3 0 0 0 0];

internalField   nonuniform List<scalar> 
682
(
0.270908
0.271424
0.271857
0.272212
0.272498
0.272724
0.272902
0.273037
0.273137
0.273206
0.273246
0.276691
0.277198
0.277626
0.277977
0.27826
0.278484
0.278659
0.278793
0.278891
0.27896
0.279
0.292152
0.292711
0.293167
0.293533
0.293822
0.294048
0.294224
0.294357
0.294454
0.294518
0.294547
0.321603
0.322196
0.322657
0.323057
0.323397
0.323677
0.3239
0.324074
0.324206
0.324294
0.324367
0.324386
0.41331
0.414034
0.414655
0.415171
0.415577
0.4159
0.416152
0.416345
0.416488
0.416602
0.416646
0.416675
0.53289
0.53368
0.534186
0.534558
0.534866
0.535111
0.5353
0.535444
0.535549
0.535624
0.535791
0.535772
0.158819
0.159066
0.159281
0.159465
0.159619
0.159745
0.159847
0.15993
0.159999
0.160063
0.16014
0.160395
0.160636
0.160848
0.161031
0.161184
0.161309
0.16141
0.161491
0.161558
0.161618
0.161687
0.164544
0.164728
0.164928
0.165113
0.165269
0.165396
0.165497
0.165578
0.165642
0.165696
0.165742
0.17345
0.174184
0.174691
0.175001
0.175221
0.175388
0.175519
0.175621
0.1757
0.175762
0.175812
0.175855
0.203904
0.204301
0.204646
0.204921
0.205141
0.205317
0.205456
0.205564
0.205647
0.205712
0.205767
0.205806
0.404657
0.405366
0.406007
0.406542
0.406959
0.407288
0.407543
0.407739
0.407885
0.408002
0.408046
0.408081
0.154302
0.154508
0.154684
0.15483
0.154951
0.155051
0.155133
0.155205
0.155273
0.155352
0.155463
0.154027
0.154231
0.154406
0.154554
0.154677
0.154778
0.154862
0.154933
0.154999
0.155072
0.155167
0.153518
0.153724
0.153906
0.154062
0.154193
0.1543
0.154388
0.154462
0.154527
0.154594
0.154677
0.155588
0.155899
0.156182
0.156416
0.156605
0.156756
0.156876
0.156972
0.157049
0.157112
0.157168
0.157226
0.17256
0.172917
0.17322
0.173472
0.173678
0.173843
0.173973
0.174076
0.174156
0.174219
0.174268
0.174306
0.309945
0.31062
0.311179
0.311636
0.312
0.312287
0.31251
0.312683
0.312813
0.312907
0.312969
0.312997
0.159224
0.159394
0.159535
0.159651
0.159746
0.159825
0.159895
0.159962
0.160039
0.160146
0.160313
0.158054
0.158227
0.158375
0.158499
0.158602
0.158688
0.158761
0.158829
0.158902
0.158995
0.159134
0.155154
0.155333
0.155492
0.155627
0.155741
0.155835
0.155915
0.155984
0.156053
0.156132
0.15624
0.152838
0.153089
0.153312
0.153504
0.153665
0.153798
0.153907
0.153996
0.15407
0.154135
0.154202
0.154282
0.162747
0.163081
0.163364
0.163603
0.1638
0.16396
0.164089
0.164191
0.164273
0.164338
0.164391
0.164436
0.285655
0.286294
0.28683
0.287267
0.28762
0.287901
0.288121
0.288293
0.288424
0.288521
0.288583
0.288625
0.162261
0.162407
0.162527
0.162625
0.162707
0.162776
0.162839
0.162904
0.162983
0.163097
0.163279
0.157993
0.158146
0.158282
0.158399
0.158498
0.158582
0.158655
0.158723
0.158794
0.158884
0.159014
0.153521
0.15375
0.153951
0.154125
0.154272
0.154395
0.154496
0.15458
0.154651
0.154717
0.154786
0.154872
0.159278
0.159586
0.159855
0.160085
0.160275
0.160432
0.160558
0.16066
0.160741
0.160808
0.160864
0.160919
0.272791
0.273391
0.273893
0.274308
0.274645
0.274916
0.275131
0.275299
0.275429
0.275526
0.275595
0.275641
0.163925
0.164039
0.164135
0.164216
0.164285
0.164347
0.164405
0.164468
0.164549
0.164669
0.164862
0.159236
0.159365
0.159484
0.159589
0.159681
0.15976
0.159829
0.159896
0.159969
0.160063
0.1602
0.154089
0.154306
0.1545
0.154668
0.154812
0.154932
0.155031
0.155115
0.155186
0.155252
0.155323
0.155412
0.158528
0.158836
0.159105
0.159332
0.15952
0.159674
0.159799
0.1599
0.15998
0.160047
0.160105
0.160163
0.270413
0.270981
0.271459
0.271856
0.272182
0.272445
0.272654
0.272818
0.272945
0.27304
0.273108
0.273154
0.162314
0.16243
0.16253
0.162616
0.16269
0.162756
0.162817
0.16288
0.162959
0.163072
0.16325
0.158115
0.158249
0.158373
0.158483
0.158578
0.15866
0.158731
0.158799
0.15887
0.15896
0.159089
0.153785
0.154015
0.154217
0.15439
0.154536
0.154658
0.154758
0.154842
0.154913
0.154979
0.155048
0.155134
0.159931
0.160308
0.160602
0.160838
0.161029
0.161184
0.161308
0.161408
0.161488
0.161553
0.161611
0.161673
0.276344
0.276864
0.277314
0.277696
0.278014
0.278273
0.27848
0.278643
0.278769
0.278863
0.278929
0.27897
0.158002
0.15816
0.158293
0.158405
0.158499
0.158579
0.15865
0.158717
0.15879
0.158886
0.15903
0.155169
0.15534
0.155491
0.15562
0.15573
0.155822
0.1559
0.15597
0.156039
0.156119
0.156228
0.153241
0.153483
0.153702
0.153891
0.15405
0.154181
0.154289
0.154378
0.154452
0.154517
0.154584
0.154663
0.164094
0.16442
0.164694
0.164924
0.165115
0.16527
0.165396
0.165496
0.165575
0.165639
0.165692
0.165736
0.291756
0.292338
0.292834
0.293246
0.293581
0.29385
0.294063
0.29423
0.294357
0.29445
0.294512
0.294539
0.153735
0.153918
0.154078
0.154215
0.154332
0.154429
0.154511
0.154583
0.154652
0.15473
0.154837
0.153116
0.15332
0.153499
0.153653
0.153782
0.15389
0.153978
0.154053
0.154121
0.15419
0.154276
0.155596
0.155904
0.156184
0.156416
0.156603
0.156753
0.156874
0.15697
0.157048
0.157113
0.15717
0.157227
0.174176
0.174508
0.174792
0.175034
0.175234
0.175395
0.175524
0.175626
0.175706
0.175768
0.175818
0.175859
0.321414
0.322058
0.322605
0.323054
0.323413
0.323697
0.32392
0.324091
0.32422
0.324305
0.324378
0.324395
0.159336
0.159498
0.159678
0.159849
0.159999
0.160125
0.160228
0.160313
0.160384
0.160455
0.160564
0.163155
0.16335
0.163555
0.163743
0.163904
0.164036
0.164142
0.164226
0.164295
0.164354
0.164411
0.171922
0.172652
0.173149
0.173456
0.173677
0.173848
0.173983
0.174089
0.174172
0.174237
0.174288
0.174326
0.203859
0.204272
0.204644
0.20493
0.205155
0.205333
0.205474
0.205584
0.205669
0.205736
0.205791
0.20583
0.413332
0.414047
0.414676
0.415201
0.415617
0.415943
0.416197
0.416391
0.416535
0.416649
0.416692
0.416718
0.273445
0.274028
0.274507
0.274892
0.275196
0.275434
0.275618
0.275757
0.275859
0.275921
0.275949
0.286229
0.286841
0.287341
0.287741
0.288055
0.288298
0.288486
0.288627
0.288729
0.288794
0.288817
0.31015
0.310782
0.311284
0.311718
0.312085
0.312384
0.312621
0.312805
0.312943
0.313042
0.313105
0.313127
0.40475
0.40547
0.406085
0.406607
0.407027
0.407363
0.407626
0.407829
0.40798
0.4081
0.408144
0.408176
0.532939
0.533728
0.534227
0.534599
0.53491
0.535158
0.535351
0.535498
0.535605
0.535681
0.535849
0.535829
)
;

boundaryField
{
    inlet
    {
        type            fixedValue;
        value           nonuniform List<scalar> 0();
    }
    ami1
    {
        type            cyclicAMI;
        value           nonuniform List<scalar> 0();
    }
    walls
    {
        type            epsilonWallFunction;
        blending        stepwise;
        value           nonuniform List<scalar> 
259
(
0.321603
0.41331
0.53289
0.270908
0.276691
0.292152
0.322196
0.414034
0.53368
0.271424
0.277198
0.292711
0.322657
0.414655
0.534186
0.271857
0.277626
0.293167
0.323057
0.415171
0.534558
0.272212
0.277977
0.293533
0.323397
0.415577
0.534866
0.272498
0.27826
0.293822
0.323677
0.4159
0.535111
0.272724
0.278484
0.294048
0.3239
0.416152
0.5353
0.272902
0.278659
0.294224
0.324074
0.416345
0.535444
0.273037
0.278793
0.294357
0.324206
0.416488
0.535549
0.273137
0.278891
0.294454
0.324294
0.416602
0.535624
0.273206
0.27896
0.294518
0.324367
0.416646
0.535791
0.273246
0.279
0.294547
0.324386
0.416675
0.535772
0.53289
0.404657
0.309945
0.285655
0.272791
0.270413
0.276344
0.291756
0.321414
0.413332
0.532939
0.53368
0.405366
0.31062
0.286294
0.273391
0.270981
0.276864
0.292338
0.322058
0.414047
0.533728
0.534186
0.406007
0.311179
0.28683
0.273893
0.271459
0.277314
0.292834
0.322605
0.414676
0.534227
0.534558
0.406542
0.311636
0.287267
0.274308
0.271856
0.277696
0.293246
0.323054
0.415201
0.534599
0.534866
0.406959
0.312
0.28762
0.274645
0.272182
0.278014
0.293581
0.323413
0.415617
0.53491
0.535111
0.407288
0.312287
0.287901
0.274916
0.272445
0.278273
0.29385
0.323697
0.415943
0.535158
0.5353
0.407543
0.31251
0.288121
0.275131
0.272654
0.27848
0.294063
0.32392
0.416197
0.535351
0.535444
0.407739
0.312683
0.288293
0.275299
0.272818
0.278643
0.29423
0.324091
0.416391
0.535498
0.535549
0.407885
0.312813
0.288424
0.275429
0.272945
0.278769
0.294357
0.32422
0.416535
0.535605
0.535624
0.408002
0.312907
0.288521
0.275526
0.27304
0.278863
0.29445
0.324305
0.416649
0.535681
0.535791
0.408046
0.312969
0.288583
0.275595
0.273108
0.278929
0.294512
0.324378
0.416692
0.535849
0.535772
0.408081
0.312997
0.288625
0.275641
0.273154
0.27897
0.294539
0.324395
0.416718
0.535829
0.31015
0.40475
0.532939
0.273445
0.286229
0.310782
0.40547
0.533728
0.274028
0.286841
0.311284
0.406085
0.534227
0.274507
0.287341
0.311718
0.406607
0.534599
0.274892
0.287741
0.312085
0.407027
0.53491
0.275196
0.288055
0.312384
0.407363
0.535158
0.275434
0.288298
0.312621
0.407626
0.535351
0.275618
0.288486
0.312805
0.407829
0.535498
0.275757
0.288627
0.312943
0.40798
0.535605
0.275859
0.288729
0.313042
0.4081
0.535681
0.275921
0.288794
0.313105
0.408144
0.535849
0.275949
0.288817
0.313127
0.408176
0.535829
)
;
    }
    ami2
    {
        type            cyclicAMI;
        value           nonuniform List<scalar> 0();
    }
    outlet
    {
        type            zeroGradient;
    }
    procBoundary9to0
    {
        type            processor;
        value           nonuniform List<scalar> 
40
(
0.270304
0.276108
0.291509
0.291509
0.320631
0.412259
0.532045
0.158523
0.160094
0.164472
0.164472
0.173664
0.203415
0.403588
0.154027
0.153758
0.153252
0.153252
0.155296
0.172132
0.309144
0.158929
0.157793
0.154895
0.154895
0.152534
0.162357
0.284906
0.161985
0.157741
0.157741
0.153229
0.15892
0.272084
0.163656
0.158994
0.158994
0.153798
0.158163
0.269746
)
;
    }
    procBoundary9to1
    {
        type            processor;
        value           nonuniform List<scalar> 
30
(
0.162047
0.157869
0.157869
0.153472
0.159378
0.275744
0.157727
0.154906
0.154906
0.152941
0.16371
0.291087
0.153472
0.152842
0.152842
0.155299
0.173735
0.32067
0.159221
0.163025
0.163025
0.172089
0.203421
0.412305
0.27276
0.285529
0.285529
0.309157
0.403619
0.532075
)
;
    }
    procBoundary9to7
    {
        type            processor;
        value           nonuniform List<scalar> 
59
(
0.273263
0.279024
0.294562
0.324396
0.416713
0.535632
0.160208
0.161733
0.165779
0.175881
0.205846
0.40813
0.155535
0.155236
0.154733
0.157267
0.174338
0.313013
0.160387
0.159225
0.156318
0.154336
0.164474
0.288645
0.163372
0.159105
0.154939
0.16096
0.275674
0.164962
0.160297
0.155483
0.160206
0.273186
0.163347
0.159182
0.155202
0.161716
0.278998
0.159118
0.156308
0.154718
0.165773
0.294556
0.154927
0.154336
0.157269
0.175884
0.324405
0.160824
0.164469
0.174359
0.205867
0.416752
0.275901
0.288808
0.313128
0.408214
0.535682
)
;
    }
    procBoundary9to8
    {
        type            processor;
        value           nonuniform List<scalar> 
132
(
0.273455
0.274035
0.27451
0.274891
0.275193
0.275429
0.275613
0.275752
0.275853
0.275915
0.275945
0.159312
0.15949
0.159682
0.159859
0.160012
0.160139
0.160243
0.160327
0.160398
0.160469
0.16058
0.153726
0.153922
0.154091
0.154236
0.154357
0.154457
0.15454
0.154612
0.154681
0.154759
0.154871
0.15798
0.158152
0.158299
0.158422
0.158523
0.158608
0.15868
0.158748
0.158822
0.15892
0.159068
0.163894
0.16403
0.164142
0.164233
0.164308
0.164373
0.164433
0.164497
0.16458
0.164706
0.164908
0.163894
0.16403
0.164142
0.164233
0.164308
0.164373
0.164433
0.164497
0.16458
0.164706
0.164908
0.165698
0.165795
0.16588
0.165954
0.166019
0.166076
0.166133
0.166196
0.166281
0.166409
0.166613
0.163922
0.16402
0.16411
0.16419
0.16426
0.164322
0.164382
0.164446
0.164528
0.164646
0.164832
0.159203
0.159351
0.159479
0.159587
0.159679
0.159758
0.159828
0.159895
0.159971
0.16007
0.160217
0.154297
0.154489
0.154654
0.154795
0.154913
0.155011
0.155094
0.155167
0.155236
0.155314
0.155416
0.158815
0.159056
0.159267
0.159449
0.159602
0.159728
0.15983
0.159914
0.159984
0.160049
0.160122
0.270918
0.271435
0.271868
0.272222
0.272508
0.272734
0.27291
0.273045
0.273144
0.273212
0.273251
)
;
    }
}


// ************************************************************************* //
