/*--------------------------------*- C++ -*----------------------------------*\
| =========                 |                                                 |
| \\      /  F ield         | OpenFOAM: The Open Source CFD Toolbox           |
|  \\    /   O peration     | Version:  2212                                  |
|   \\  /    A nd           | Website:  www.openfoam.com                      |
|    \\/     M anipulation  |                                                 |
\*---------------------------------------------------------------------------*/
FoamFile
{
    version     2.0;
    format      ascii;
    arch        "LSB;label=32;scalar=64";
    class       volVectorField;
    location    "0.2";
    object      U;
}
// * * * * * * * * * * * * * * * * * * * * * * * * * * * * * * * * * * * * * //

dimensions      [0 1 -1 0 0 0 0];

internalField   nonuniform List<vector> 
682
(
(0.0946017 1.8778e-05 -1.10615e-05)
(0.0946059 1.21228e-05 -1.22369e-05)
(0.0946105 7.91743e-06 -1.2203e-05)
(0.094615 5.25523e-06 -1.15199e-05)
(0.0946195 3.59058e-06 -1.04075e-05)
(0.0946236 2.56734e-06 -9.05548e-06)
(0.0946274 1.93239e-06 -7.61001e-06)
(0.0946306 1.53151e-06 -6.17741e-06)
(0.0946333 1.29127e-06 -4.83294e-06)
(0.0946356 1.19235e-06 -3.6012e-06)
(0.0946375 1.25137e-06 -2.4072e-06)
(0.0927412 2.16552e-05 -1.43152e-05)
(0.0927527 1.58079e-05 -1.36286e-05)
(0.0927622 1.17645e-05 -1.25423e-05)
(0.09277 8.77162e-06 -1.12342e-05)
(0.0927767 6.535e-06 -9.8094e-06)
(0.0927823 4.91803e-06 -8.34341e-06)
(0.0927869 3.77144e-06 -6.90734e-06)
(0.0927907 2.93015e-06 -5.56149e-06)
(0.0927938 2.28694e-06 -4.36057e-06)
(0.0927963 1.75395e-06 -3.32144e-06)
(0.0927984 1.31395e-06 -2.37962e-06)
(0.0880223 1.76955e-05 -1.69148e-05)
(0.0880392 1.33543e-05 -1.39474e-05)
(0.0880525 1.05059e-05 -1.17023e-05)
(0.0880632 8.33027e-06 -9.84317e-06)
(0.0880718 6.62403e-06 -8.22088e-06)
(0.0880788 5.32091e-06 -6.76136e-06)
(0.0880844 4.28626e-06 -5.4551e-06)
(0.0880888 3.42511e-06 -4.30464e-06)
(0.0880922 2.70965e-06 -3.32814e-06)
(0.0880949 1.89283e-06 -2.43758e-06)
(0.088097 1.02258e-06 -1.56196e-06)
(0.0791463 1.67737e-05 -2.10311e-05)
(0.0791657 1.32397e-05 -1.54194e-05)
(0.0791813 1.04411e-05 -1.15618e-05)
(0.0791946 8.6695e-06 -9.05711e-06)
(0.0792055 7.24393e-06 -7.24658e-06)
(0.0792146 5.76463e-06 -5.79735e-06)
(0.079222 4.67665e-06 -4.59628e-06)
(0.0792281 3.84332e-06 -3.61871e-06)
(0.0792329 3.20636e-06 -2.77784e-06)
(0.0792367 2.80454e-06 -2.07006e-06)
(0.0792394 2.06167e-06 -1.21325e-06)
(0.0792406 1.08119e-06 -5.57401e-07)
(0.06458 8.31598e-06 -1.41782e-05)
(0.0645999 7.57938e-06 -1.09007e-05)
(0.064617 5.95339e-06 -7.96034e-06)
(0.0646311 4.57575e-06 -5.81545e-06)
(0.0646429 3.61324e-06 -4.32004e-06)
(0.0646527 2.82118e-06 -3.27283e-06)
(0.0646608 2.23149e-06 -2.48761e-06)
(0.0646675 1.80339e-06 -1.86106e-06)
(0.0646731 1.48755e-06 -1.31483e-06)
(0.0646777 1.59203e-06 -1.00213e-06)
(0.0646816 1.40899e-06 -2.37776e-07)
(0.0646843 5.03558e-07 4.76529e-07)
(0.043586 -2.66992e-06 -6.11332e-06)
(0.0436007 -1.68132e-06 -3.63282e-06)
(0.0436137 -9.61024e-07 -2.68087e-06)
(0.0436258 -6.68355e-07 -2.14107e-06)
(0.043636 -3.99574e-07 -1.6757e-06)
(0.0436448 -2.00061e-07 -1.30723e-06)
(0.0436521 -8.21549e-08 -1.01218e-06)
(0.0436582 -4.61646e-09 -7.73987e-07)
(0.0436633 6.96627e-08 -5.98895e-07)
(0.0436682 1.82492e-07 -4.86533e-07)
(0.043673 5.27988e-07 -5.87254e-07)
(0.043681 6.97421e-07 -5.63464e-07)
(0.103744 2.14952e-05 -7.77531e-06)
(0.103741 1.45489e-05 -1.07254e-05)
(0.103738 9.91376e-06 -1.20671e-05)
(0.103736 6.82786e-06 -1.22427e-05)
(0.103734 4.77444e-06 -1.16304e-05)
(0.103733 3.40877e-06 -1.05349e-05)
(0.103732 2.48825e-06 -9.1826e-06)
(0.103732 1.86084e-06 -7.75669e-06)
(0.103732 1.42227e-06 -6.40097e-06)
(0.103732 1.10321e-06 -5.22881e-06)
(0.103732 8.60821e-07 -4.24528e-06)
(0.102505 1.92687e-05 -1.58406e-05)
(0.102508 1.45814e-05 -1.52695e-05)
(0.102509 1.1145e-05 -1.43742e-05)
(0.102509 8.57761e-06 -1.3185e-05)
(0.10251 6.63438e-06 -1.17738e-05)
(0.10251 5.15784e-06 -1.02472e-05)
(0.10251 4.02382e-06 -8.70218e-06)
(0.102511 3.13851e-06 -7.22359e-06)
(0.102511 2.43839e-06 -5.88789e-06)
(0.102511 1.88724e-06 -4.74995e-06)
(0.102512 1.44263e-06 -3.75709e-06)
(0.0994198 8.65112e-06 -2.05175e-05)
(0.099425 8.38381e-06 -1.72185e-05)
(0.0994288 7.80802e-06 -1.46929e-05)
(0.0994316 6.94815e-06 -1.24884e-05)
(0.0994338 5.99972e-06 -1.05177e-05)
(0.0994355 5.06983e-06 -8.76209e-06)
(0.0994368 4.20822e-06 -7.19415e-06)
(0.0994379 3.42696e-06 -5.80739e-06)
(0.0994388 2.73049e-06 -4.60767e-06)
(0.0994396 2.102e-06 -3.57707e-06)
(0.0994403 1.61054e-06 -2.75259e-06)
(0.0940874 -5.79203e-06 -2.50786e-05)
(0.0940941 1.81641e-06 -2.13821e-05)
(0.0941004 4.24451e-06 -1.68622e-05)
(0.0941058 4.67359e-06 -1.29222e-05)
(0.0941103 4.60559e-06 -1.00186e-05)
(0.0941139 4.35743e-06 -7.90395e-06)
(0.0941169 3.97377e-06 -6.28854e-06)
(0.0941193 3.48787e-06 -4.97626e-06)
(0.0941213 2.99072e-06 -3.90272e-06)
(0.0941228 2.50859e-06 -3.00574e-06)
(0.0941239 2.05334e-06 -2.29252e-06)
(0.0941248 1.7104e-06 -1.80602e-06)
(0.0860065 -1.29735e-05 -1.94055e-05)
(0.0860117 -6.69409e-06 -1.4193e-05)
(0.0860181 -3.22625e-06 -1.05028e-05)
(0.0860249 -1.08014e-06 -7.95535e-06)
(0.086031 2.90729e-07 -6.1145e-06)
(0.0860364 1.06815e-06 -4.78039e-06)
(0.0860411 1.38569e-06 -3.74419e-06)
(0.086045 1.47882e-06 -2.92178e-06)
(0.0860483 1.40032e-06 -2.26583e-06)
(0.0860508 1.40528e-06 -1.8102e-06)
(0.0860525 1.62419e-06 -1.63824e-06)
(0.0860531 1.5148e-06 -1.32625e-06)
(0.0662324 -8.37977e-06 -1.90914e-05)
(0.0662484 -2.75134e-06 -1.39112e-05)
(0.0662631 -7.7211e-07 -9.97628e-06)
(0.0662756 2.31452e-07 -7.47572e-06)
(0.0662864 9.72592e-07 -5.81716e-06)
(0.0662957 1.32872e-06 -4.55152e-06)
(0.0663034 1.41916e-06 -3.57868e-06)
(0.0663099 1.35766e-06 -2.85314e-06)
(0.0663152 1.12695e-06 -2.2908e-06)
(0.0663196 1.18941e-06 -2.10056e-06)
(0.0663232 6.58367e-07 -1.74531e-06)
(0.0663257 7.68773e-08 -9.95523e-07)
(0.107142 1.26717e-05 -1.97705e-06)
(0.107138 9.04851e-06 -6.25527e-06)
(0.107134 6.54052e-06 -8.73433e-06)
(0.107131 4.81063e-06 -9.87946e-06)
(0.107127 3.60108e-06 -1.00689e-05)
(0.107124 2.74904e-06 -9.61122e-06)
(0.107122 2.13364e-06 -8.78051e-06)
(0.10712 1.67449e-06 -7.7576e-06)
(0.107118 1.31611e-06 -6.72054e-06)
(0.107117 1.01577e-06 -5.76534e-06)
(0.107116 7.36754e-07 -4.85213e-06)
(0.106279 8.05983e-06 -1.2402e-05)
(0.106278 7.51877e-06 -1.27088e-05)
(0.106276 6.89412e-06 -1.25061e-05)
(0.106274 6.20203e-06 -1.18799e-05)
(0.106272 5.47886e-06 -1.09526e-05)
(0.10627 4.75889e-06 -9.81074e-06)
(0.106268 4.07453e-06 -8.57736e-06)
(0.106266 3.44302e-06 -7.35317e-06)
(0.106265 2.88793e-06 -6.22325e-06)
(0.106264 2.41602e-06 -5.23205e-06)
(0.106263 1.96395e-06 -4.31337e-06)
(0.104089 -1.35719e-06 -1.93765e-05)
(0.104088 2.60594e-06 -1.66467e-05)
(0.104086 4.70865e-06 -1.43328e-05)
(0.104084 5.60605e-06 -1.23076e-05)
(0.104083 5.77052e-06 -1.0502e-05)
(0.104082 5.50434e-06 -8.87826e-06)
(0.104081 4.98478e-06 -7.42308e-06)
(0.10408 4.36713e-06 -6.14252e-06)
(0.104079 3.75843e-06 -5.0543e-06)
(0.104079 3.22863e-06 -4.16805e-06)
(0.104079 2.71511e-06 -3.38992e-06)
(0.10056 -1.63595e-05 -2.44021e-05)
(0.100554 -5.97459e-06 -1.99259e-05)
(0.10055 1.6249e-07 -1.62681e-05)
(0.100547 3.50058e-06 -1.32082e-05)
(0.100546 5.12245e-06 -1.06993e-05)
(0.100545 5.69262e-06 -8.65145e-06)
(0.100545 5.62288e-06 -6.97686e-06)
(0.100545 5.18992e-06 -5.59784e-06)
(0.100545 4.58467e-06 -4.46285e-06)
(0.100545 3.95378e-06 -3.55695e-06)
(0.100545 3.39384e-06 -2.87517e-06)
(0.100546 2.86403e-06 -2.32876e-06)
(0.0952958 -1.25126e-05 -2.25018e-05)
(0.0952858 -4.42259e-06 -1.73215e-05)
(0.0952809 2.83731e-07 -1.34611e-05)
(0.0952792 3.02762e-06 -1.06724e-05)
(0.0952792 4.39953e-06 -8.46817e-06)
(0.0952801 4.88822e-06 -6.67028e-06)
(0.0952814 4.79508e-06 -5.21546e-06)
(0.0952829 4.37003e-06 -4.05538e-06)
(0.0952842 3.79982e-06 -3.12715e-06)
(0.0952854 3.16674e-06 -2.39269e-06)
(0.0952864 2.49182e-06 -1.75132e-06)
(0.0952871 2.00499e-06 -1.28861e-06)
(0.0824064 2.96616e-07 -2.61133e-05)
(0.0824059 3.98776e-06 -1.99482e-05)
(0.0824107 5.4811e-06 -1.55408e-05)
(0.0824175 5.91517e-06 -1.22399e-05)
(0.0824246 5.87292e-06 -9.44472e-06)
(0.0824314 5.4114e-06 -7.02205e-06)
(0.0824374 4.73424e-06 -5.29299e-06)
(0.0824425 4.02453e-06 -4.04169e-06)
(0.0824468 3.33766e-06 -3.12811e-06)
(0.0824501 2.7597e-06 -2.51735e-06)
(0.0824525 1.98335e-06 -1.84608e-06)
(0.0824536 1.25368e-06 -9.8428e-07)
(0.109151 2.89817e-06 3.14415e-06)
(0.109149 2.39084e-06 -1.26787e-06)
(0.109147 2.03582e-06 -4.11287e-06)
(0.109143 1.77217e-06 -5.75177e-06)
(0.10914 1.56091e-06 -6.49759e-06)
(0.109136 1.37819e-06 -6.61632e-06)
(0.109133 1.2153e-06 -6.33773e-06)
(0.10913 1.06418e-06 -5.84239e-06)
(0.109128 9.23728e-07 -5.27233e-06)
(0.109126 7.89947e-07 -4.7002e-06)
(0.109124 6.41889e-07 -4.04996e-06)
(0.108577 -2.40097e-06 -4.90367e-06)
(0.108576 4.89085e-07 -6.41736e-06)
(0.108573 2.31842e-06 -7.22033e-06)
(0.10857 3.3521e-06 -7.45748e-06)
(0.108567 3.82024e-06 -7.27824e-06)
(0.108564 3.89838e-06 -6.80868e-06)
(0.108561 3.72993e-06 -6.17008e-06)
(0.108558 3.42924e-06 -5.46906e-06)
(0.108556 3.08205e-06 -4.78907e-06)
(0.108554 2.73134e-06 -4.16664e-06)
(0.108552 2.32264e-06 -3.52889e-06)
(0.107032 -9.16279e-06 -8.95825e-06)
(0.107028 -2.43005e-06 -8.74397e-06)
(0.107024 1.77635e-06 -8.28109e-06)
(0.10702 4.18555e-06 -7.63021e-06)
(0.107017 5.36059e-06 -6.86374e-06)
(0.107014 5.72168e-06 -6.03971e-06)
(0.107011 5.57531e-06 -5.21974e-06)
(0.107009 5.1543e-06 -4.45487e-06)
(0.107007 4.62726e-06 -3.78742e-06)
(0.107006 4.0913e-06 -3.23207e-06)
(0.107005 3.49407e-06 -2.70828e-06)
(0.104573 -2.17635e-05 -5.99164e-06)
(0.104561 -9.18932e-06 -7.05634e-06)
(0.104552 -1.26308e-06 -7.21145e-06)
(0.104545 3.43999e-06 -6.79447e-06)
(0.10454 5.96779e-06 -6.09958e-06)
(0.104537 7.05521e-06 -5.30368e-06)
(0.104534 7.21762e-06 -4.50189e-06)
(0.104532 6.82483e-06 -3.74831e-06)
(0.104531 6.14218e-06 -3.07771e-06)
(0.10453 5.36166e-06 -2.52028e-06)
(0.10453 4.61003e-06 -2.09459e-06)
(0.104529 3.86631e-06 -1.74019e-06)
(0.100799 -1.23808e-05 -9.36805e-07)
(0.100782 -2.6466e-06 -3.59342e-06)
(0.100771 3.11501e-06 -4.66422e-06)
(0.100765 6.23439e-06 -4.80967e-06)
(0.100761 7.61975e-06 -4.45466e-06)
(0.100759 7.9031e-06 -3.8736e-06)
(0.100758 7.52031e-06 -3.22507e-06)
(0.100757 6.76686e-06 -2.59945e-06)
(0.100757 5.83975e-06 -2.03237e-06)
(0.100757 4.87735e-06 -1.53607e-06)
(0.100758 3.93061e-06 -1.1093e-06)
(0.100758 3.10858e-06 -7.96743e-07)
(0.0908132 1.33107e-06 -3.22784e-06)
(0.0908025 6.22558e-06 -6.00633e-06)
(0.0907989 8.22397e-06 -6.78754e-06)
(0.0907993 8.62614e-06 -6.37525e-06)
(0.0908019 8.36884e-06 -5.43848e-06)
(0.0908055 7.71168e-06 -4.41337e-06)
(0.0908095 6.82503e-06 -3.47519e-06)
(0.0908132 5.8234e-06 -2.6835e-06)
(0.0908165 4.81449e-06 -2.00473e-06)
(0.0908194 3.89689e-06 -1.41849e-06)
(0.0908217 3.05838e-06 -8.77777e-07)
(0.0908237 2.19987e-06 -3.89686e-07)
(0.109893 -6.1272e-06 4.76872e-08)
(0.109893 -2.22637e-06 -1.45583e-06)
(0.109891 4.02041e-07 -2.39954e-06)
(0.109888 2.04903e-06 -2.90543e-06)
(0.109885 2.97218e-06 -3.08972e-06)
(0.109881 3.38038e-06 -3.04959e-06)
(0.109878 3.44284e-06 -2.86825e-06)
(0.109875 3.29651e-06 -2.6161e-06)
(0.109872 3.04449e-06 -2.34607e-06)
(0.10987 2.74347e-06 -2.08101e-06)
(0.109867 2.35705e-06 -1.77865e-06)
(0.108674 -9.41223e-06 6.99422e-07)
(0.108671 -2.66987e-06 -7.64197e-07)
(0.108667 1.71109e-06 -1.62564e-06)
(0.108663 4.33128e-06 -2.05522e-06)
(0.108659 5.68673e-06 -2.19034e-06)
(0.108656 6.17207e-06 -2.13712e-06)
(0.108653 6.096e-06 -1.97751e-06)
(0.10865 5.69724e-06 -1.77426e-06)
(0.108647 5.15111e-06 -1.57102e-06)
(0.108645 4.55767e-06 -1.38561e-06)
(0.108644 3.88705e-06 -1.18419e-06)
(0.106652 -1.77735e-05 1.2268e-05)
(0.106643 -6.55548e-06 6.92602e-06)
(0.106635 7.35125e-07 3.50316e-06)
(0.106629 5.14959e-06 1.4202e-06)
(0.106624 7.52886e-06 2.25817e-07)
(0.10662 8.51191e-06 -3.97596e-07)
(0.106617 8.57062e-06 -6.85458e-07)
(0.106614 8.06425e-06 -7.68742e-07)
(0.106612 7.25928e-06 -7.47978e-07)
(0.10661 6.34815e-06 -6.87778e-07)
(0.106609 5.44795e-06 -6.25285e-07)
(0.106608 4.55191e-06 -5.53908e-07)
(0.103305 -8.03375e-06 2.14757e-05)
(0.103292 7.38535e-07 1.26823e-05)
(0.103283 5.977e-06 7.15575e-06)
(0.103277 8.74484e-06 3.80743e-06)
(0.103273 9.85277e-06 1.85963e-06)
(0.10327 9.88856e-06 7.83676e-07)
(0.103268 9.27038e-06 2.27169e-07)
(0.103267 8.29367e-06 -2.91845e-08)
(0.103267 7.16589e-06 -1.18466e-07)
(0.103267 6.03371e-06 -1.20462e-07)
(0.103267 4.99048e-06 -8.73661e-08)
(0.103267 4.04741e-06 -6.65441e-08)
(0.0941479 2.65673e-06 1.6685e-05)
(0.0941406 7.42656e-06 8.55354e-06)
(0.094138 9.31965e-06 3.81939e-06)
(0.0941382 9.88398e-06 1.29138e-06)
(0.0941402 9.6917e-06 1.04975e-07)
(0.094143 9.00652e-06 -3.51671e-07)
(0.0941462 8.01108e-06 -4.59897e-07)
(0.0941493 6.87546e-06 -4.18951e-07)
(0.0941522 5.72415e-06 -3.18736e-07)
(0.0941548 4.65363e-06 -1.95198e-07)
(0.094157 3.70466e-06 -3.43351e-08)
(0.094159 2.88276e-06 1.15412e-07)
(0.110313 -3.35543e-06 -1.1894e-06)
(0.110314 -5.26825e-07 -6.43039e-07)
(0.110313 1.36175e-06 -2.48074e-07)
(0.110311 2.51895e-06 2.75035e-08)
(0.110308 3.12877e-06 2.09937e-07)
(0.110304 3.34767e-06 3.22145e-07)
(0.110301 3.30482e-06 3.83006e-07)
(0.110298 3.10599e-06 4.09669e-07)
(0.110295 2.83083e-06 4.15982e-07)
(0.110292 2.52164e-06 4.09862e-07)
(0.11029 2.14792e-06 3.85165e-07)
(0.109151 -2.84776e-06 2.89387e-06)
(0.109149 1.57277e-06 2.37083e-06)
(0.109146 4.40505e-06 2.00034e-06)
(0.109143 6.00684e-06 1.72346e-06)
(0.10914 6.70247e-06 1.50135e-06)
(0.109136 6.77393e-06 1.3222e-06)
(0.109133 6.43856e-06 1.16287e-06)
(0.10913 5.87699e-06 1.02044e-06)
(0.109128 5.2254e-06 8.96336e-07)
(0.109126 4.55965e-06 7.88726e-07)
(0.109124 3.85012e-06 6.79071e-07)
(0.107145 -4.68975e-06 1.7903e-05)
(0.107142 1.9918e-06 1.26907e-05)
(0.107138 6.27255e-06 9.04414e-06)
(0.107134 8.72221e-06 6.52268e-06)
(0.107131 9.82824e-06 4.7896e-06)
(0.107128 9.98826e-06 3.57138e-06)
(0.107125 9.53716e-06 2.71699e-06)
(0.107123 8.69984e-06 2.10221e-06)
(0.107121 7.6849e-06 1.65077e-06)
(0.107119 6.63741e-06 1.31529e-06)
(0.107118 5.63886e-06 1.06201e-06)
(0.107117 4.67727e-06 8.53678e-07)
(0.103747 2.29474e-06 3.189e-05)
(0.103744 7.40321e-06 2.15801e-05)
(0.103741 1.02617e-05 1.46186e-05)
(0.103738 1.14995e-05 9.97929e-06)
(0.103737 1.16334e-05 6.9e-06)
(0.103735 1.10567e-05 4.85228e-06)
(0.103734 1.00468e-05 3.46133e-06)
(0.103734 8.82474e-06 2.51105e-06)
(0.103734 7.54773e-06 1.84903e-06)
(0.103733 6.32855e-06 1.37859e-06)
(0.103734 5.23462e-06 1.03893e-06)
(0.103734 4.24829e-06 7.80671e-07)
(0.094601 6.19698e-06 2.92078e-05)
(0.0946039 9.29683e-06 1.86621e-05)
(0.0946076 1.04768e-05 1.21321e-05)
(0.0946115 1.06118e-05 8.07982e-06)
(0.0946155 1.0143e-05 5.52019e-06)
(0.0946195 9.26497e-06 3.86897e-06)
(0.0946232 8.15841e-06 2.78351e-06)
(0.0946267 6.96385e-06 2.04633e-06)
(0.0946297 5.78586e-06 1.52013e-06)
(0.0946323 4.70276e-06 1.12102e-06)
(0.0946345 3.76201e-06 7.99732e-07)
(0.0946365 2.9592e-06 5.4247e-07)
(0.109892 2.08523e-07 -6.43448e-06)
(0.109892 1.66833e-06 -2.57423e-06)
(0.109891 2.56755e-06 5.26064e-08)
(0.109888 3.03147e-06 1.72589e-06)
(0.109884 3.1816e-06 2.69295e-06)
(0.109881 3.1156e-06 3.15553e-06)
(0.109878 2.91347e-06 3.28021e-06)
(0.109875 2.6414e-06 3.20321e-06)
(0.109872 2.3474e-06 3.02616e-06)
(0.109869 2.05231e-06 2.80312e-06)
(0.109867 1.71975e-06 2.49388e-06)
(0.108576 5.27779e-06 -2.58562e-06)
(0.108575 6.75727e-06 2.59712e-07)
(0.108573 7.50967e-06 2.07718e-06)
(0.10857 7.68623e-06 3.12213e-06)
(0.108567 7.45391e-06 3.62123e-06)
(0.108563 6.93297e-06 3.73428e-06)
(0.108561 6.24467e-06 3.60285e-06)
(0.108558 5.49272e-06 3.342e-06)
(0.108556 4.7558e-06 3.03821e-06)
(0.108554 4.0707e-06 2.7337e-06)
(0.108552 3.38447e-06 2.37894e-06)
(0.106277 1.15219e-05 8.36596e-06)
(0.106278 1.24506e-05 7.90645e-06)
(0.106277 1.27409e-05 7.36531e-06)
(0.106276 1.24887e-05 6.7389e-06)
(0.106274 1.18141e-05 6.06121e-06)
(0.106272 1.08776e-05 5.35719e-06)
(0.10627 9.72204e-06 4.66811e-06)
(0.106268 8.49049e-06 4.00395e-06)
(0.106267 7.27315e-06 3.39425e-06)
(0.106266 6.14351e-06 2.8647e-06)
(0.106265 5.14035e-06 2.42698e-06)
(0.106264 4.21436e-06 2.02788e-06)
(0.102499 1.60732e-05 2.64282e-05)
(0.102505 1.58365e-05 1.95442e-05)
(0.102507 1.509e-05 1.4632e-05)
(0.102509 1.40218e-05 1.11343e-05)
(0.10251 1.27372e-05 8.5929e-06)
(0.10251 1.13054e-05 6.67422e-06)
(0.102511 9.82481e-06 5.20712e-06)
(0.102511 8.37006e-06 4.06208e-06)
(0.102511 7.00128e-06 3.15146e-06)
(0.102512 5.7744e-06 2.42204e-06)
(0.102512 4.72587e-06 1.84829e-06)
(0.102512 3.80348e-06 1.39902e-06)
(0.0927336 1.29079e-05 3.09363e-05)
(0.092747 1.2775e-05 2.17955e-05)
(0.0927575 1.21889e-05 1.59042e-05)
(0.0927658 1.12592e-05 1.19087e-05)
(0.0927728 1.0114e-05 8.9908e-06)
(0.0927787 8.86091e-06 6.7876e-06)
(0.0927838 7.57884e-06 5.13449e-06)
(0.092788 6.33296e-06 3.90317e-06)
(0.0927915 5.176e-06 2.94932e-06)
(0.0927944 4.15861e-06 2.17524e-06)
(0.0927968 3.30698e-06 1.47014e-06)
(0.0927988 2.56589e-06 8.69718e-07)
(0.108674 -4.38081e-07 -9.81058e-06)
(0.108671 9.83976e-07 -3.12254e-06)
(0.108667 1.79134e-06 1.2733e-06)
(0.108663 2.16922e-06 3.95267e-06)
(0.108659 2.26268e-06 5.38357e-06)
(0.108655 2.17921e-06 5.94529e-06)
(0.108652 1.99733e-06 5.94365e-06)
(0.108649 1.77512e-06 5.62247e-06)
(0.108647 1.55244e-06 5.16836e-06)
(0.108645 1.34491e-06 4.68969e-06)
(0.108643 1.11622e-06 4.13657e-06)
(0.107032 9.27579e-06 -9.40427e-06)
(0.107028 9.0392e-06 -2.73397e-06)
(0.107024 8.51654e-06 1.46802e-06)
(0.10702 7.7999e-06 3.91031e-06)
(0.107016 6.97439e-06 5.13451e-06)
(0.107013 6.10408e-06 5.54269e-06)
(0.107011 5.24347e-06 5.44045e-06)
(0.107009 4.43945e-06 5.06022e-06)
(0.107007 3.72766e-06 4.57482e-06)
(0.107006 3.11878e-06 4.08432e-06)
(0.107004 2.54493e-06 3.53741e-06)
(0.104089 2.27123e-05 -8.1795e-06)
(0.104089 1.91994e-05 -1.67499e-06)
(0.104087 1.64357e-05 2.30846e-06)
(0.104086 1.41339e-05 4.46101e-06)
(0.104084 1.21389e-05 5.4217e-06)
(0.104083 1.0359e-05 5.65369e-06)
(0.104082 8.75516e-06 5.41855e-06)
(0.104081 7.31687e-06 4.92549e-06)
(0.10408 6.0491e-06 4.31991e-06)
(0.104079 4.96615e-06 3.71498e-06)
(0.104079 4.07428e-06 3.18668e-06)
(0.104079 3.29351e-06 2.68726e-06)
(0.0994132 2.5326e-05 9.41704e-06)
(0.099421 2.07951e-05 9.36795e-06)
(0.0994263 1.72794e-05 8.87118e-06)
(0.0994299 1.44676e-05 8.11404e-06)
(0.0994325 1.21361e-05 7.20725e-06)
(0.0994345 1.01505e-05 6.2385e-06)
(0.0994361 8.42851e-06 5.2752e-06)
(0.0994374 6.92479e-06 4.36173e-06)
(0.0994384 5.61533e-06 3.51735e-06)
(0.0994393 4.49479e-06 2.75455e-06)
(0.0994401 3.53179e-06 2.06334e-06)
(0.0994408 2.77075e-06 1.52058e-06)
(0.0880061 1.96451e-05 2.33961e-05)
(0.0880268 1.62044e-05 1.848e-05)
(0.0880428 1.35842e-05 1.51687e-05)
(0.0880554 1.13902e-05 1.2398e-05)
(0.0880655 9.479e-06 9.89169e-06)
(0.0880737 7.81889e-06 7.7158e-06)
(0.0880803 6.36971e-06 6.01696e-06)
(0.0880856 5.11947e-06 4.69003e-06)
(0.0880898 4.04938e-06 3.60988e-06)
(0.0880931 3.16317e-06 2.7025e-06)
(0.0880957 2.37994e-06 1.74365e-06)
(0.0880976 1.62025e-06 7.29761e-07)
(0.106643 -6.75023e-06 -6.65458e-06)
(0.106635 -3.40141e-06 5.68014e-07)
(0.106628 -1.37415e-06 5.01499e-06)
(0.106623 -2.20088e-07 7.45678e-06)
(0.106618 3.82268e-07 8.48997e-06)
(0.106615 6.4702e-07 8.57681e-06)
(0.106612 7.27048e-07 8.0739e-06)
(0.10661 7.06028e-07 7.26201e-06)
(0.106608 6.47994e-07 6.36095e-06)
(0.106607 5.9271e-07 5.52415e-06)
(0.106607 5.41647e-07 4.74825e-06)
(0.104561 7.29335e-06 -8.9379e-06)
(0.104552 7.35493e-06 -1.05291e-06)
(0.104545 6.85878e-06 3.57704e-06)
(0.10454 6.10655e-06 6.05025e-06)
(0.104536 5.27201e-06 7.10352e-06)
(0.104534 4.44577e-06 7.24096e-06)
(0.104532 3.67873e-06 6.82174e-06)
(0.10453 2.99642e-06 6.10716e-06)
(0.104529 2.41945e-06 5.29283e-06)
(0.104529 1.95717e-06 4.51239e-06)
(0.104528 1.55912e-06 3.74965e-06)
(0.10056 2.43764e-05 -1.63043e-05)
(0.100554 1.96524e-05 -5.73821e-06)
(0.10055 1.59186e-05 4.6033e-07)
(0.100547 1.2871e-05 3.73863e-06)
(0.100546 1.04099e-05 5.2926e-06)
(0.100545 8.41003e-06 5.81017e-06)
(0.100545 6.77432e-06 5.70091e-06)
(0.100545 5.43132e-06 5.23007e-06)
(0.100545 4.32994e-06 4.57903e-06)
(0.100545 3.45083e-06 3.89221e-06)
(0.100545 2.78341e-06 3.2664e-06)
(0.100545 2.25132e-06 2.67911e-06)
(0.0940923 2.60747e-05 -3.56723e-06)
(0.0940979 1.95018e-05 5.73927e-07)
(0.0941028 1.48494e-05 2.88013e-06)
(0.0941073 1.16091e-05 4.14045e-06)
(0.0941112 9.23073e-06 4.63491e-06)
(0.0941146 7.404e-06 4.62091e-06)
(0.0941174 5.91938e-06 4.25188e-06)
(0.0941197 4.70043e-06 3.70885e-06)
(0.0941217 3.70362e-06 3.11504e-06)
(0.0941232 2.89015e-06 2.5341e-06)
(0.0941243 2.24992e-06 1.9646e-06)
(0.0941252 1.83577e-06 1.51024e-06)
(0.0791397 1.97878e-05 1.67958e-05)
(0.0791606 1.49177e-05 1.41691e-05)
(0.0791784 1.1514e-05 1.17727e-05)
(0.0791932 9.12668e-06 1.00495e-05)
(0.0792053 7.26108e-06 8.53104e-06)
(0.079215 5.64295e-06 6.81307e-06)
(0.0792228 4.38489e-06 5.43269e-06)
(0.079229 3.39831e-06 4.33859e-06)
(0.0792339 2.58566e-06 3.47974e-06)
(0.0792376 1.93702e-06 2.87572e-06)
(0.0792404 1.14676e-06 1.94654e-06)
(0.0792415 5.77393e-07 7.64535e-07)
(0.103292 -1.27536e-05 3.83819e-07)
(0.103282 -7.11891e-06 5.85042e-06)
(0.103275 -3.78036e-06 8.91562e-06)
(0.103271 -1.88452e-06 1.02029e-05)
(0.103268 -8.43667e-07 1.0292e-05)
(0.103266 -2.97535e-07 9.62964e-06)
(0.103265 -3.10733e-08 8.54042e-06)
(0.103264 7.73939e-08 7.26377e-06)
(0.103264 1.01279e-07 6.00427e-06)
(0.103264 1.04106e-07 5.00168e-06)
(0.103265 1.76804e-07 4.51075e-06)
(0.100782 3.23049e-06 -2.96585e-06)
(0.100771 4.3621e-06 2.85158e-06)
(0.100764 4.53637e-06 6.21957e-06)
(0.100761 4.18091e-06 7.76269e-06)
(0.100758 3.61394e-06 8.10722e-06)
(0.100757 3.0045e-06 7.71517e-06)
(0.100757 2.43323e-06 6.89869e-06)
(0.100757 1.92597e-06 5.8734e-06)
(0.100757 1.48861e-06 4.81163e-06)
(0.100758 1.12891e-06 3.82781e-06)
(0.100758 9.22508e-07 3.09168e-06)
(0.0952924 2.09338e-05 -1.38848e-05)
(0.0952833 1.78919e-05 -2.42188e-06)
(0.0952797 1.4099e-05 2.37089e-06)
(0.0952788 1.07403e-05 4.15343e-06)
(0.0952794 8.17915e-06 4.92388e-06)
(0.0952806 6.2645e-06 5.12251e-06)
(0.0952821 4.84182e-06 4.90834e-06)
(0.0952835 3.76804e-06 4.42409e-06)
(0.0952849 2.94716e-06 3.79027e-06)
(0.0952861 2.32283e-06 3.09243e-06)
(0.095287 1.80698e-06 2.35256e-06)
(0.0952877 1.50025e-06 1.84529e-06)
(0.0860064 1.86429e-05 -1.29134e-05)
(0.0860116 1.33687e-05 -6.01019e-06)
(0.0860184 9.70659e-06 -2.369e-06)
(0.0860255 7.19226e-06 -4.31521e-07)
(0.0860319 5.38643e-06 7.45908e-07)
(0.0860374 4.13006e-06 1.40343e-06)
(0.0860421 3.20545e-06 1.65287e-06)
(0.086046 2.51622e-06 1.65164e-06)
(0.0860493 2.00713e-06 1.48782e-06)
(0.0860518 1.70446e-06 1.38419e-06)
(0.0860535 1.6924e-06 1.50461e-06)
(0.086054 1.53533e-06 1.30346e-06)
(0.0645819 1.37111e-05 1.00458e-05)
(0.064602 1.03023e-05 8.08783e-06)
(0.0646185 7.24522e-06 5.84684e-06)
(0.0646322 5.13449e-06 4.65875e-06)
(0.064644 3.81335e-06 4.06095e-06)
(0.064654 2.84125e-06 3.41988e-06)
(0.0646623 2.10007e-06 2.76995e-06)
(0.0646691 1.53942e-06 2.1798e-06)
(0.0646747 1.06978e-06 1.67976e-06)
(0.0646793 8.55505e-07 1.57869e-06)
(0.0646832 1.98769e-07 1.18016e-06)
(0.0646859 -4.04639e-07 6.47101e-08)
(0.0941426 -9.03442e-06 9.14977e-06)
(0.0941413 -4.00259e-06 1.10469e-05)
(0.0941429 -1.30825e-06 1.14455e-05)
(0.094146 -7.66624e-08 1.10421e-05)
(0.0941497 3.91185e-07 1.01106e-05)
(0.0941535 5.17857e-07 8.86392e-06)
(0.0941571 5.00583e-07 7.46662e-06)
(0.0941602 4.1797e-07 6.03054e-06)
(0.0941627 2.95987e-07 4.64739e-06)
(0.0941647 1.06073e-07 3.33104e-06)
(0.0941661 -8.79076e-08 1.95645e-06)
(0.0908023 5.01999e-06 6.80259e-06)
(0.0907997 5.22289e-06 8.39674e-06)
(0.0908011 4.94175e-06 8.85274e-06)
(0.0908045 4.41746e-06 8.73094e-06)
(0.0908089 3.78584e-06 8.15424e-06)
(0.0908134 3.1413e-06 7.24734e-06)
(0.0908176 2.55631e-06 6.16537e-06)
(0.0908211 2.03895e-06 5.04443e-06)
(0.090824 1.58274e-06 3.96728e-06)
(0.0908263 1.19773e-06 2.93367e-06)
(0.0908281 9.55202e-07 1.93532e-06)
(0.0824134 2.59561e-05 1.89215e-06)
(0.0824119 1.90784e-05 4.1392e-06)
(0.0824152 1.42142e-05 4.84785e-06)
(0.082421 1.09085e-05 5.34895e-06)
(0.0824275 8.31726e-06 5.62359e-06)
(0.0824339 6.22922e-06 5.38721e-06)
(0.0824399 4.80217e-06 4.86113e-06)
(0.0824451 3.78546e-06 4.18352e-06)
(0.0824495 3.06357e-06 3.45778e-06)
(0.0824528 2.61056e-06 2.81427e-06)
(0.0824553 2.12686e-06 1.9618e-06)
(0.0824563 1.5079e-06 1.17882e-06)
(0.0662349 1.78429e-05 -8.08694e-06)
(0.0662512 1.32415e-05 -2.36331e-06)
(0.0662656 9.65261e-06 -4.5487e-07)
(0.0662779 7.05468e-06 3.91341e-07)
(0.0662884 5.20411e-06 1.0319e-06)
(0.0662974 3.92753e-06 1.39244e-06)
(0.0663051 3.09745e-06 1.53934e-06)
(0.0663117 2.53597e-06 1.48607e-06)
(0.0663171 2.16612e-06 1.26515e-06)
(0.0663215 2.15519e-06 1.27231e-06)
(0.0663251 2.01633e-06 6.95149e-07)
(0.0663276 1.48743e-06 8.42059e-08)
(0.0435873 5.15278e-06 -2.15588e-06)
(0.0436022 3.03195e-06 -1.39643e-06)
(0.0436152 2.31645e-06 -8.12406e-07)
(0.0436271 1.73168e-06 -4.36677e-07)
(0.0436373 1.19856e-06 -1.03402e-07)
(0.043646 8.29471e-07 1.00164e-07)
(0.0436534 6.10582e-07 1.75929e-07)
(0.0436596 4.93096e-07 1.77234e-07)
(0.0436647 4.48479e-07 1.68684e-07)
(0.0436697 4.67276e-07 1.95133e-07)
(0.0436745 6.76593e-07 4.79573e-07)
(0.0436824 7.69228e-07 5.83018e-07)
)
;

boundaryField
{
    inlet
    {
        type            fixedValue;
        value           nonuniform List<vector> 0();
    }
    ami1
    {
        type            cyclicAMI;
        value           nonuniform List<vector> 0();
    }
    walls
    {
        type            noSlip;
    }
    ami2
    {
        type            cyclicAMI;
        value           nonuniform List<vector> 0();
    }
    outlet
    {
        type            zeroGradient;
    }
    procBoundary9to0
    {
        type            processor;
        value           nonuniform List<vector> 
40
(
(0.0945983 2.93392e-05 -7.62543e-06)
(0.0927268 3.06076e-05 -1.43139e-05)
(0.0880006 2.40728e-05 -2.0867e-05)
(0.0880006 2.40728e-05 -2.0867e-05)
(0.079116 2.02904e-05 -2.86903e-05)
(0.0645547 9.57139e-06 -1.98043e-05)
(0.0435607 -3.7284e-06 -9.78748e-06)
(0.103748 3.17893e-05 -2.63233e-06)
(0.102501 2.58535e-05 -1.59868e-05)
(0.0994121 9.43338e-06 -2.59542e-05)
(0.0994121 9.43338e-06 -2.59542e-05)
(0.094084 -1.45955e-05 -3.30458e-05)
(0.0860017 -2.27699e-05 -2.69878e-05)
(0.0662147 -1.64877e-05 -2.5913e-05)
(0.107146 1.78437e-05 4.71124e-06)
(0.106278 8.50513e-06 -1.14631e-05)
(0.10409 -7.93184e-06 -2.27581e-05)
(0.10409 -7.93184e-06 -2.27581e-05)
(0.10057 -3.20222e-05 -3.07853e-05)
(0.0953139 -2.62791e-05 -2.8611e-05)
(0.0824176 -5.99391e-06 -3.39501e-05)
(0.10915 3.61691e-06 9.62445e-06)
(0.108576 -6.71804e-06 -2.4652e-06)
(0.107036 -1.93899e-05 -8.82318e-06)
(0.107036 -1.93899e-05 -8.82318e-06)
(0.104588 -4.0643e-05 -3.85829e-06)
(0.100824 -2.79297e-05 4.41195e-06)
(0.0908354 -6.94751e-06 2.57294e-06)
(0.10989 -1.1671e-05 2.27131e-06)
(0.108677 -1.93074e-05 3.00659e-06)
(0.108677 -1.93074e-05 3.00659e-06)
(0.106663 -3.42001e-05 2.02596e-05)
(0.103323 -2.16964e-05 3.50121e-05)
(0.0941626 -5.22015e-06 2.99122e-05)
(0.110309 -7.29394e-06 -1.91784e-06)
(0.10915 -9.33221e-06 3.62723e-06)
(0.10915 -9.33221e-06 3.62723e-06)
(0.107147 -1.44311e-05 2.52258e-05)
(0.103751 -5.83462e-06 4.68413e-05)
(0.0945993 9.55868e-07 4.56993e-05)
)
;
    }
    procBoundary9to1
    {
        type            processor;
        value           nonuniform List<vector> 
30
(
(0.10989 -1.98663e-06 -1.19131e-05)
(0.108576 2.84431e-06 -6.83455e-06)
(0.108576 2.84431e-06 -6.83455e-06)
(0.106273 9.84893e-06 8.74111e-06)
(0.102491 1.52859e-05 3.57356e-05)
(0.0927163 1.25761e-05 4.48534e-05)
(0.108677 -2.73939e-06 -1.96066e-05)
(0.107036 9.08523e-06 -1.9525e-05)
(0.107036 9.08523e-06 -1.9525e-05)
(0.104089 2.73522e-05 -1.78447e-05)
(0.0994017 3.1479e-05 8.87139e-06)
(0.0879787 2.44755e-05 3.08282e-05)
(0.106652 -1.20246e-05 -1.77436e-05)
(0.104573 6.29292e-06 -2.15832e-05)
(0.104573 6.29292e-06 -2.15832e-05)
(0.100571 3.08935e-05 -3.20338e-05)
(0.0940859 3.49926e-05 -1.14274e-05)
(0.0791158 2.73824e-05 1.99077e-05)
(0.103306 -2.1692e-05 -8.04984e-06)
(0.100799 8.41671e-07 -1.16947e-05)
(0.100799 8.41671e-07 -1.16947e-05)
(0.0953132 2.65631e-05 -2.86518e-05)
(0.0860021 2.64365e-05 -2.29264e-05)
(0.064556 1.95647e-05 1.12533e-05)
(0.0941486 -1.74308e-05 3.87701e-06)
(0.0908121 3.30893e-06 2.76098e-06)
(0.0908121 3.30893e-06 2.76098e-06)
(0.0824196 3.40663e-05 -4.23629e-06)
(0.0662161 2.46777e-05 -1.63409e-05)
(0.0435615 9.0803e-06 -3.31494e-06)
)
;
    }
    procBoundary9to7
    {
        type            processor;
        value           nonuniform List<vector> 
59
(
(0.094639 1.39157e-06 -1.40661e-06)
(0.0928002 1.12804e-06 -1.56085e-06)
(0.0880987 6.29899e-07 -9.09662e-07)
(0.0792412 2.48228e-07 -2.39707e-07)
(0.0646862 3.44087e-07 -3.00993e-08)
(0.0436854 1.86494e-07 -8.5814e-08)
(0.103733 6.57571e-07 -3.30623e-06)
(0.102512 1.09234e-06 -2.83443e-06)
(0.099441 1.30185e-06 -2.1156e-06)
(0.0941256 1.47194e-06 -1.52258e-06)
(0.0860539 1.40799e-06 -1.07023e-06)
(0.0663277 2.93929e-07 -3.15041e-07)
(0.107115 4.90526e-07 -3.892e-06)
(0.106263 1.48516e-06 -3.39484e-06)
(0.104079 2.12819e-06 -2.63175e-06)
(0.100546 2.28845e-06 -1.81018e-06)
(0.0952877 1.76683e-06 -1.01155e-06)
(0.0824543 5.81366e-07 -2.22025e-07)
(0.109122 4.7758e-07 -3.2808e-06)
(0.108551 1.82101e-06 -2.81975e-06)
(0.107004 2.77464e-06 -2.13586e-06)
(0.104529 3.06835e-06 -1.36494e-06)
(0.100759 2.4712e-06 -6.47813e-07)
(0.0908253 1.59363e-06 -2.63187e-07)
(0.109866 1.87547e-06 -1.41993e-06)
(0.108642 3.10917e-06 -9.36886e-07)
(0.106608 3.62239e-06 -4.47381e-07)
(0.103267 3.1861e-06 -8.18176e-08)
(0.0941606 2.1773e-06 1.18287e-07)
(0.110288 1.70242e-06 3.38138e-07)
(0.109123 3.06802e-06 5.52789e-07)
(0.107116 3.70903e-06 6.58866e-07)
(0.103734 3.32415e-06 5.69526e-07)
(0.0946381 2.26207e-06 3.67943e-07)
(0.109865 1.33861e-06 2.07019e-06)
(0.108551 2.65291e-06 1.9264e-06)
(0.106263 3.30478e-06 1.59756e-06)