/*--------------------------------*- C++ -*----------------------------------*\
| =========                 |                                                 |
| \\      /  F ield         | OpenFOAM: The Open Source CFD Toolbox           |
|  \\    /   O peration     | Version:  2212                                  |
|   \\  /    A nd           | Website:  www.openfoam.com                      |
|    \\/     M anipulation  |                                                 |
\*---------------------------------------------------------------------------*/
FoamFile
{
    version     2.0;
    format      ascii;
    arch        "LSB;label=32;scalar=64";
    class       volScalarField;
    location    "1.05";
    object      k;
}
// * * * * * * * * * * * * * * * * * * * * * * * * * * * * * * * * * * * * * //

dimensions      [0 2 -2 0 0 0 0];

internalField   nonuniform List<scalar> 
678
(
0.00186447
0.00185655
0.00185098
0.00184485
0.00183951
0.00183202
0.00159665
0.00158972
0.00158331
0.00157786
0.0015732
0.00156835
0.00156732
0.00155839
0.00155115
0.0015444
0.00153876
0.00153391
0.00150693
0.0014991
0.00149185
0.00148564
0.00148019
0.00147681
0.00146787
0.0014602
0.0014537
0.00144823
0.00143379
0.0014266
0.00142015
0.00141469
0.00140425
0.0013965
0.00138975
0.00138374
0.00138917
0.00138111
0.00137378
0.00136764
0.0014011
0.00139395
0.00138757
0.00138178
0.00148341
0.00147672
0.00147093
0.00146588
0.0014603
0.00185816
0.00185176
0.00184519
0.00183904
0.00183005
0.00148436
0.00147725
0.00147171
0.00146697
0.0014618
0.00092018
0.000904708
0.000894867
0.000887104
0.000881193
0.000877066
0.00105701
0.0010353
0.00102041
0.0010096
0.000999415
0.00117231
0.00114788
0.00112901
0.00111405
0.0010989
0.0012287
0.00120272
0.00118086
0.0011637
0.00114558
0.00124578
0.00121861
0.00119448
0.00117759
0.00115824
0.00121054
0.00118203
0.00115879
0.00114316
0.00112526
0.00108669
0.00106111
0.00104461
0.00102906
0.000949955
0.000929391
0.00091822
0.000909751
0.00089794
0.00088544
0.000878549
0.000874377
0.00159084
0.00158473
0.00157866
0.00157327
0.00156753
0.00140404
0.00139674
0.0013903
0.00138458
0.000968264
0.000947436
0.000933443
0.000924018
0.000917409
0.00115411
0.0011238
0.00110033
0.00108271
0.00106492
0.00131732
0.00128271
0.00125297
0.00122935
0.00120413
0.00141878
0.00138176
0.00134842
0.00132119
0.00129177
0.00145976
0.0014211
0.00138631
0.00135766
0.00132697
0.00142875
0.0013901
0.0013555
0.0013289
0.00129997
0.00131771
0.00128194
0.00125064
0.00122615
0.00120025
0.00115405
0.00112364
0.00109769
0.00108063
0.00106078
0.00104141
0.00101918
0.00100679
0.000996223
0.00155963
0.00155208
0.00154487
0.00153865
0.0015332
0.00139159
0.00138321
0.00137581
0.00136976
0.00109072
0.00106522
0.00104837
0.00103569
0.00131952
0.00128331
0.00125155
0.00122846
0.00120321
0.00151562
0.00147296
0.0014358
0.00140564
0.00137376
0.00164112
0.0015952
0.0015542
0.00151978
0.00148371
0.00168829
0.00164021
0.00159725
0.00156131
0.00152373
0.00169352
0.00164245
0.00159804
0.00155805
0.00152399
0.00148822
0.00151628
0.00147348
0.00143531
0.00140444
0.00137178
0.00131701
0.00128152
0.00124973
0.00122675
0.00120109
0.00117186
0.00114623
0.00112479
0.00111189
0.00109643
0.00150724
0.00149905
0.00149155
0.00148504
0.00147932
0.00141258
0.00140412
0.00139697
0.00139036
0.00138462
0.0012143
0.0011847
0.00115998
0.00114457
0.00112836
0.0014711
0.00142811
0.00139028
0.00135634
0.00133069
0.00130274
0.00169529
0.00164439
0.0015991
0.00155912
0.00152547
0.00149027
0.00183853
0.00178353
0.00173395
0.00168966
0.00165163
0.00161196
0.00188729
0.00183133
0.00178038
0.00173466
0.00169522
0.00165408
0.00183626
0.00178171
0.00173209
0.00168765
0.00164949
0.00160961
0.00168689
0.00163667
0.00159139
0.00155103
0.00151688
0.00148104
0.00145719
0.00141572
0.00137882
0.00134507
0.0013186
0.00128964
0.00125542
0.00122506
0.00120103
0.00117879
0.00116335
0.00114517
0.00147842
0.00146861
0.00146009
0.00145294
0.00144697
0.00144178
0.00143288
0.00142569
0.00141966
0.00141415
0.00124962
0.00121876
0.00119467
0.00117689
0.00115927
0.00154857
0.00150027
0.00145812
0.00142045
0.00138656
0.00135934
0.00133021
0.00179041
0.0017334
0.00168309
0.00163783
0.00159739
0.00156276
0.00152656
0.00194822
0.0018857
0.00183121
0.00178138
0.00173636
0.00169717
0.0016564
0.00194183
0.00188387
0.00183103
0.00178369
0.00174276
0.00170023
0.00188647
0.00183015
0.00177889
0.00173297
0.00169348
0.00165231
0.00173328
0.00168124
0.00163434
0.00159278
0.00155756
0.00152071
0.00149966
0.00145614
0.0014176
0.00138279
0.00135485
0.00132455
0.00127488
0.00124341
0.00121748
0.00119386
0.00117735
0.00115807
0.00144897
0.00143939
0.00143114
0.00142393
0.00141761
0.00141195
0.00148701
0.00147688
0.00146753
0.00145954
0.00145285
0.00144738
0.00125788
0.00122698
0.00120203
0.00117966
0.00116491
0.00114771
0.00145958
0.00141727
0.00138049
0.00134751
0.0013223
0.00129488
0.00168894
0.00163822
0.00159318
0.00155356
0.00152018
0.00148532
0.00183899
0.00178425
0.00173452
0.00169019
0.00165219
0.00161263
0.00188715
0.00183093
0.00177989
0.00173416
0.00169478
0.00165378
0.00183519
0.00178012
0.00173027
0.0016858
0.00164779
0.00160812
0.00169008
0.00163905
0.00159343
0.00155316
0.00151941
0.00148404
0.00146601
0.00142306
0.00138514
0.00135085
0.00132485
0.00129636
0.0012351
0.00120318
0.00117798
0.00115583
0.00114137
0.00112518
0.00141893
0.00140894
0.00140032
0.00139272
0.0013863
0.00138077
0.00151576
0.00150667
0.00149836
0.00149105
0.00148494
0.00147966
0.00119707
0.00116847
0.0011472
0.00112831
0.00111648
0.00110197
0.00135293
0.00131409
0.00128106
0.00125185
0.00123076
0.00120733
0.00155766
0.00151093
0.00146996
0.00143438
0.00140544
0.00137502
0.00169286
0.00164235
0.00159734
0.00155766
0.00152438
0.00148952
0.00173418
0.00168234
0.00163587
0.00159466
0.00155981
0.00152327
0.00168532
0.00163441
0.00158905
0.001549
0.00151545
0.00148028
0.00155416
0.00150664
0.0014651
0.0014288
0.0013994
0.00136836
0.00134972
0.00130882
0.00127432
0.00124348
0.00122164
0.00119721
0.00113067
0.00109977
0.00107623
0.00105647
0.00104423
0.00103185
0.00140411
0.00139341
0.00138403
0.00137617
0.00136991
0.00136492
0.0015666
0.00155807
0.00155032
0.00154368
0.00153834
0.0015338
0.00107768
0.00105245
0.00103412
0.00102068
0.00101265
0.00100257
0.00118249
0.00114812
0.00112178
0.00109941
0.00108532
0.00106872
0.00135431
0.00131377
0.00127982
0.00125021
0.00122932
0.00120619
0.00146937
0.00142649
0.00138918
0.00135628
0.00133087
0.00130354
0.00150049
0.00145713
0.00141899
0.00138518
0.00135764
0.00132855
0.00145615
0.00141403
0.00137732
0.00134433
0.00131903
0.00129147
0.00134864
0.00130958
0.00127625
0.0012467
0.00122554
0.00120194
0.00117779
0.00114332
0.00111637
0.00109312
0.00107855
0.00106162
0.000982024
0.000956781
0.000939545
0.000927753
0.000920369
0.000914587
0.00141341
0.00140437
0.00139647
0.00139
0.00138488
0.0013805
0.00159624
0.00158938
0.00158309
0.00157756
0.00157301
0.00156842
0.000917515
0.000902431
0.000893081
0.000886743
0.000882202
0.000877695
0.000987918
0.000962732
0.000945908
0.000934923
0.000928003
0.000921326
0.0011382
0.00110698
0.00108395
0.00106562
0.00105488
0.00104346
0.00124142
0.00120928
0.00118432
0.00116338
0.0011503
0.00113568
0.00127752
0.00124613
0.00122007
0.00119835
0.00118175
0.00116423
0.00125477
0.00122448
0.00120107
0.00118033
0.00116639
0.00115014
0.00119399
0.00116537
0.00114435
0.00112634
0.00111526
0.00110179
0.00107459
0.00104926
0.00103059
0.00101772
0.00101002
0.00100157
0.000914597
0.000899188
0.00088977
0.000883535
0.000879331
0.00087523
0.0014872
0.00147965
0.00147339
0.00146805
0.00146367
0.00145901
0.00186417
0.00185721
0.00185063
0.00184426
0.00183922
0.00183263
0.00148873
0.00148149
0.00147558
0.00147045
0.00146616
0.00146162
0.00143449
0.00142411
0.00141473
0.00140626
0.00139901
0.00139302
0.00138824
0.00138407
0.00141686
0.00140544
0.00139515
0.00138636
0.00137909
0.00137335
0.00136868
0.00143131
0.00141981
0.00141043
0.00140228
0.00139509
0.00138911
0.00138399
0.00145097
0.00144051
0.00143237
0.00142546
0.00141953
0.00141428
0.00148601
0.0014757
0.00146667
0.00145902
0.00145267
0.00144742
0.00151466
0.00150539
0.00149718
0.00149017
0.00148433
0.00147929
0.00156548
0.00155668
0.001549
0.00154257
0.00153742
0.00153301
0.00159533
0.00158795
0.00158152
0.00157603
0.00157154
0.00156699
0.00186257
0.00185523
0.00184846
0.00184196
0.00183683
0.00183001
)
;

boundaryField
{
    inlet
    {
        type            fixedValue;
        value           nonuniform List<scalar> 0();
    }
    ami1
    {
        type            cyclicAMI;
        value           nonuniform List<scalar> 0();
    }
    walls
    {
        type            kqRWallFunction;
        value           nonuniform List<scalar> 
244
(
0.00186447
0.00159665
0.00156732
0.00185655
0.00158972
0.00155839
0.00150693
0.00147681
0.00148341
0.00185816
0.00185098
0.00158331
0.00155115
0.0014991
0.00146787
0.00143379
0.00140425
0.00138917
0.0014011
0.00147672
0.00185176
0.00184485
0.00157786
0.0015444
0.00149185
0.0014602
0.0014266
0.0013965
0.00138111
0.00139395
0.00147093
0.00184519
0.00183951
0.0015732
0.00153876
0.00148564
0.0014537
0.00142015
0.00138975
0.00137378
0.00138757
0.00146588
0.00183904
0.00183202
0.00156835
0.00153391
0.00148019
0.00144823
0.00141469
0.00138374
0.00136764
0.00138178
0.0014603
0.00183005
0.00144897
0.00141893
0.00140411
0.00141341
0.0014872
0.00186257
0.00185816
0.00159084
0.00155963
0.00150724
0.00147842
0.00143939
0.00140894
0.00139341
0.00140437
0.00147965
0.00185523
0.00185176
0.00158473
0.00155208
0.00149905
0.00146861
0.00143114
0.00140032
0.00138403
0.00139647
0.00147339
0.00184846
0.00184519
0.00157866
0.00154487
0.00149155
0.00146009
0.00142393
0.00139272
0.00137617
0.00139
0.00146805
0.00184196
0.00183904
0.00157327
0.00153865
0.00148504
0.00145294
0.00141761
0.0013863
0.00136991
0.00138488
0.00146367
0.00183683
0.00183005
0.00156753
0.0015332
0.00147932
0.00144697
0.00141195
0.00138077
0.00136492
0.0013805
0.00145901
0.00183001
0.00143449
0.00142411
0.00141686
0.00143131
0.00186417
0.00148873
0.00141473
0.00140544
0.00141981
0.00145097
0.00148601
0.00151466
0.00156548
0.00159533
0.00186257
0.00185721
0.00148149
0.00140626
0.00139515
0.00141043
0.00144051
0.0014757
0.00150539
0.00155668
0.00158795
0.00185523
0.00185063
0.00147558
0.00139901
0.00138636
0.00140228
0.00143237
0.00146667
0.00149718
0.001549
0.00158152
0.00184846
0.00184426
0.00147045
0.00139302
0.00137909
0.00139509
0.00142546
0.00145902
0.00149017
0.00154257
0.00157603
0.00184196
0.00183922
0.00146616
0.00138824
0.00137335
0.00138911
0.00141953
0.00145267
0.00148433
0.00153742
0.00157154
0.00183683
0.00183263
0.00146162
0.00138407
0.00136868
0.00138399
0.00141428
0.00144742
0.00147929
0.00153301
0.00156699
0.00183001
0.00186447
0.00148701
0.00151576
0.0015666
0.00159624
0.00186417
0.00185655
0.00148436
0.00141258
0.00144178
0.00147688
0.00150667
0.00155807
0.00158938
0.00185721
0.00185098
0.00147725
0.00140404
0.00139159
0.00140412
0.00143288
0.00146753
0.00149836
0.00155032
0.00158309
0.00185063
0.00184485
0.00147171
0.00139674
0.00138321
0.00139697
0.00142569
0.00145954
0.00149105
0.00154368
0.00157756
0.00184426
0.00183951
0.00146697
0.0013903
0.00137581
0.00139036
0.00141966
0.00145285
0.00148494
0.00153834
0.00157301
0.00183922
0.00183202
0.0014618
0.00138458
0.00136976
0.00138462
0.00141415
0.00144738
0.00147966
0.0015338
0.00156842
0.00183263
)
;
    }
    ami2
    {
        type            cyclicAMI;
        value           nonuniform List<scalar> 0();
    }
    outlet
    {
        type            zeroGradient;
    }
    procBoundary6to5
    {
        type            processor;
        value           nonuniform List<scalar> 
177
(
0.00187233
0.00149184
0.00160456
0.0015755
0.00151553
0.00108548
0.00151553
0.00148622
0.0014423
0.0014423
0.0014423
0.00141246
0.00141246
0.0013968
0.00140834
0.00140834
0.00148974
0.00091476
0.00186404
0.00149184
0.00149184
0.00141096
0.000938928
0.00108548
0.000996585
0.00108548
0.00120385
0.00126311
0.00128326
0.00124577
0.00111898
0.00111898
0.00111898
0.0009754
0.0009754
0.00091476
0.00091476
0.00159703
0.00141096
0.00141096
0.000996585
0.00112392
0.00119234
0.00136046
0.00146511
0.0015079
0.00147611
0.00147611
0.00136206
0.00119116
0.00106785
0.00106785
0.00106785
0.00106785
0.00156722
0.0013992
0.0013992
0.00112392
0.00112392
0.00112392
0.00136462
0.00136462
0.00156583
0.00156583
0.00169314
0.00169314
0.00174099
0.00174099
0.00174099
0.00174871
0.00156543
0.00156543
0.00156543
0.00136015
0.00136015
0.00120444
0.00120444
0.001516
0.00142249
0.0012511
0.0012511
0.00152232
0.00152232
0.00175171
0.00175171
0.00189812
0.00189812
0.00194809
0.00189581
0.00174298
0.00150725
0.00129226
0.00148759
0.00148759
0.00148759
0.0014526
0.0014526
0.001323
0.00128714
0.00128714
0.00128714
0.00160181
0.00150955
0.00185032
0.00174565
0.00201158
0.00200396
0.00189859
0.00200396
0.0019474
0.00179091
0.00155172
0.00131654
0.00146208
0.00149807
0.00129492
0.00150955
0.00174565
0.00189859
0.00194809
0.0018953
0.00174714
0.00151759
0.00127425
0.00143107
0.0015257
0.00123116
0.00139923
0.0016118
0.00174976
0.00179179
0.0017422
0.00160859
0.00139818
0.00116805
0.00141514
0.00157509
0.00110784
0.00122341
0.00140256
0.00152047
0.00155257
0.00150654
0.00139539
0.00121849
0.0010123
0.00142346
0.00160377
0.000938395
0.00104275
0.00101885
0.00101885
0.00117589
0.00117589
0.00128056
0.00128056
0.00131749
0.00129198
0.00122827
0.00110514
0.000936034
0.00149632
0.00187173
0.00150743
0.00149731
0.00149731
0.00144587
0.00142923
0.00142923
0.00144464
0.00146371
0.00146371
0.00149729
0.00152494
0.00157468
0.00160353
0.00187107
)
;
    }
}


// ************************************************************************* //
