/*--------------------------------*- C++ -*----------------------------------*\
| =========                 |                                                 |
| \\      /  F ield         | OpenFOAM: The Open Source CFD Toolbox           |
|  \\    /   O peration     | Version:  2212                                  |
|   \\  /    A nd           | Website:  www.openfoam.com                      |
|    \\/     M anipulation  |                                                 |
\*---------------------------------------------------------------------------*/
FoamFile
{
    version     2.0;
    format      ascii;
    arch        "LSB;label=32;scalar=64";
    class       volVectorField;
    location    "1.05";
    object      U;
}
// * * * * * * * * * * * * * * * * * * * * * * * * * * * * * * * * * * * * * //

dimensions      [0 1 -1 0 0 0 0];

internalField   nonuniform List<vector> 
678
(
(0.023052 1.72573e-05 1.47001e-05)
(0.0229759 1.50027e-05 1.21342e-05)
(0.0229119 1.20984e-05 1.19096e-05)
(0.0228404 8.92967e-06 1.17307e-05)
(0.0227736 5.75237e-06 1.00421e-05)
(0.0226667 1.80854e-06 9.28352e-06)
(0.0390657 -1.00929e-05 7.80859e-05)
(0.0389383 -5.90456e-06 6.17352e-05)
(0.0388343 -6.04286e-06 5.56316e-05)
(0.0387294 -8.12891e-06 5.2123e-05)
(0.0386349 -8.60161e-06 4.43313e-05)
(0.0384968 -1.14962e-05 3.3484e-05)
(0.0544195 -0.000117136 0.000121373)
(0.0542245 -0.000103418 0.000100863)
(0.054067 -8.896e-05 8.38665e-05)
(0.0539312 -7.45135e-05 6.9901e-05)
(0.0538161 -6.08594e-05 5.58983e-05)
(0.0536567 -4.95943e-05 4.51162e-05)
(0.0634753 -0.000230306 0.000144465)
(0.0632861 -0.000199848 0.000121577)
(0.0631237 -0.000167494 9.74385e-05)
(0.0629839 -0.000139818 7.90698e-05)
(0.0627985 -0.000108848 6.30648e-05)
(0.0682948 -0.000304344 0.000141285)
(0.0680853 -0.000266109 0.000120405)
(0.067902 -0.000226251 9.9447e-05)
(0.067745 -0.000190492 8.31001e-05)
(0.0675402 -0.000148184 6.64095e-05)
(0.0682007 -0.000273649 0.00010816)
(0.0680116 -0.000233647 8.98432e-05)
(0.0678549 -0.000198488 7.71565e-05)
(0.0676434 -0.000154357 6.23553e-05)
(0.064261 -0.00023495 8.40554e-05)
(0.0640772 -0.000203384 6.66603e-05)
(0.0639256 -0.000170116 5.58409e-05)
(0.0637186 -0.000128585 4.49465e-05)
(0.0575788 -0.000135527 5.08608e-05)
(0.0574079 -0.000117678 3.98864e-05)
(0.0572715 -9.23591e-05 3.06966e-05)
(0.0570846 -7.13141e-05 2.27504e-05)
(0.0482348 -8.25865e-05 3.17789e-05)
(0.0480913 -7.23664e-05 2.50791e-05)
(0.0479741 -5.84952e-05 1.6984e-05)
(0.0477994 -5.03871e-05 1.08434e-05)
(0.0359403 -1.72006e-05 2.85133e-05)
(0.0358208 -1.40191e-05 2.49533e-05)
(0.0357178 -1.81393e-05 1.93221e-05)
(0.0356224 -2.10788e-05 1.23644e-05)
(0.0354656 -2.41742e-05 7.58452e-06)
(0.0229814 -1.11977e-05 1.16186e-05)
(0.0229164 -1.05426e-05 1.19437e-05)
(0.0228457 -1.21304e-05 1.06095e-05)
(0.0227722 -1.11936e-05 8.0636e-06)
(0.0226454 -1.05809e-05 4.5415e-06)
(0.0359364 3.54868e-05 1.28922e-05)
(0.0358371 2.85505e-05 1.43001e-05)
(0.0357362 2.04047e-05 1.99234e-05)
(0.035642 1.21237e-05 2.27263e-05)
(0.0354987 6.19981e-06 2.45226e-05)
(0.0681831 1.32551e-05 0.000148583)
(0.0679573 1.15282e-05 0.000133341)
(0.0677794 8.6975e-06 0.000123112)
(0.0676325 3.98185e-06 0.000113707)
(0.0675138 -2.23842e-06 0.000105736)
(0.0673481 -9.65945e-06 9.40004e-05)
(0.0896677 -0.000135444 0.00023596)
(0.0895462 -0.000126999 0.000222387)
(0.089436 -0.000116626 0.000204079)
(0.0893387 -0.000103934 0.000180574)
(0.0892063 -8.6895e-05 0.000149244)
(0.0995647 -0.000281997 0.000262967)
(0.0994978 -0.000257985 0.000243409)
(0.0994292 -0.000232463 0.000220771)
(0.0993683 -0.000205323 0.000195768)
(0.0992816 -0.000168359 0.000162981)
(0.103563 -0.000375109 0.000271665)
(0.103511 -0.000343347 0.000250045)
(0.103457 -0.000309743 0.000227161)
(0.10341 -0.000274051 0.000203026)
(0.103339 -0.000223524 0.000168873)
(0.103793 -0.000390632 0.000243548)
(0.103744 -0.000359572 0.000225359)
(0.103695 -0.000328487 0.000207249)
(0.103649 -0.000289958 0.00018451)
(0.10359 -0.000235226 0.00015153)
(0.101316 -0.000367297 0.000186057)
(0.10127 -0.00033741 0.00017127)
(0.101222 -0.000312655 0.00015763)
(0.10118 -0.000280978 0.000140495)
(0.101121 -0.00023409 0.000114351)
(0.0960067 -0.000280408 9.24132e-05)
(0.0959422 -0.000264183 8.10726e-05)
(0.0958805 -0.0002491 7.03587e-05)
(0.0957952 -0.000216931 5.58331e-05)
(0.0860977 -0.000243269 2.45216e-05)
(0.0859732 -0.000237432 1.60521e-05)
(0.0858697 -0.000227289 9.4809e-06)
(0.0857191 -0.000195161 4.28284e-06)
(0.0677831 -0.000106512 4.441e-06)
(0.067614 -0.000113995 9.99336e-07)
(0.0674831 -0.000114509 -2.84757e-06)
(0.0672975 -0.000103012 -6.94592e-06)
(0.0389811 -6.09416e-05 -1.28012e-05)
(0.0388546 -6.17379e-05 -6.59526e-06)
(0.0387367 -6.26982e-05 -3.17724e-06)
(0.0386291 -5.66699e-05 -1.01906e-06)
(0.0384624 -4.46945e-05 -4.87591e-06)
(0.048268 4.16845e-05 6.56077e-05)
(0.04814 3.19397e-05 5.49339e-05)
(0.0480288 1.98188e-05 4.87528e-05)
(0.047865 1.0658e-05 4.60828e-05)
(0.0862921 3.95155e-05 0.000269972)
(0.0861413 3.13438e-05 0.000259735)
(0.0860073 2.30747e-05 0.000246553)
(0.0858934 1.56113e-05 0.000225545)
(0.0857445 7.11595e-06 0.000186486)
(0.106249 -0.000111231 0.000426812)
(0.106254 -0.000107833 0.00040358)
(0.106244 -0.000100631 0.00037375)
(0.106233 -9.02866e-05 0.000336743)
(0.106205 -7.51674e-05 0.000277838)
(0.114911 -0.000270089 0.000410377)
(0.114976 -0.000249594 0.000382191)
(0.115031 -0.000225604 0.000351521)
(0.115081 -0.000200135 0.00031903)
(0.115131 -0.000165405 0.000268668)
(0.118451 -0.000378289 0.000367887)
(0.118539 -0.000347086 0.00033977)
(0.118617 -0.000314235 0.000311376)
(0.118686 -0.000277747 0.000279778)
(0.118764 -0.000229883 0.000235382)
(0.119037 -0.000432137 0.000282012)
(0.119132 -0.000396362 0.000261442)
(0.119218 -0.000360928 0.000238774)
(0.119293 -0.000321893 0.000212404)
(0.119382 -0.000270722 0.000177067)
(0.117551 -0.000457139 0.000159355)
(0.117649 -0.0004202 0.000148198)
(0.117734 -0.000388262 0.000135896)
(0.117805 -0.000352118 0.000120309)
(0.11789 -0.000298907 9.84626e-05)
(0.113863 -0.00046158 1.54113e-05)
(0.11394 -0.000427285 1.45057e-05)
(0.114002 -0.000391488 1.23762e-05)
(0.114054 -0.00035741 9.45516e-06)
(0.114114 -0.000305012 5.7852e-06)
(0.106229 -0.00043669 -0.000116939)
(0.106242 -0.000405867 -0.000109975)
(0.106239 -0.0003791 -0.000102225)
(0.10623 -0.000342005 -9.13993e-05)
(0.106215 -0.000279264 -7.47283e-05)
(0.0895121 -0.000206681 -0.000124215)
(0.0894086 -0.000202534 -0.000114268)
(0.0893195 -0.000193572 -0.000104011)
(0.0891823 -0.000167254 -8.66727e-05)
(0.0542829 -9.83933e-05 -0.000109829)
(0.0540978 -0.00010824 -9.47377e-05)
(0.0539333 -0.000103849 -7.65916e-05)
(0.0537994 -8.52989e-05 -5.80017e-05)
(0.053614 -6.53274e-05 -4.39124e-05)
(0.0576319 6.22901e-05 0.000124968)
(0.0574608 4.9649e-05 0.000101307)
(0.0573233 3.55695e-05 7.81644e-05)
(0.0571427 2.25033e-05 6.3118e-05)
(0.0960216 9.49211e-05 0.000274664)
(0.0959507 8.08624e-05 0.000260018)
(0.0958873 7.00144e-05 0.000250617)
(0.0957895 5.47856e-05 0.000218568)
(0.113841 1.68546e-05 0.000453888)
(0.113919 1.14902e-05 0.000422582)
(0.113981 7.29872e-06 0.00039161)
(0.114034 4.6302e-06 0.000356483)
(0.11409 2.16625e-06 0.000301045)
(0.121733 -0.000122058 0.000393078)
(0.121865 -0.000112323 0.000361953)
(0.121985 -0.000102794 0.000337999)
(0.122092 -9.18185e-05 0.000312462)
(0.122217 -7.76549e-05 0.000273262)
(0.125169 -0.000228615 0.000312501)
(0.125319 -0.000207525 0.000287257)
(0.125458 -0.000188711 0.000266414)
(0.125582 -0.000169214 0.000244228)
(0.12573 -0.00014527 0.000213592)
(0.126017 -0.000299778 0.00019241)
(0.126174 -0.000272933 0.000174596)
(0.126318 -0.000251994 0.000159869)
(0.126449 -0.000230406 0.000144856)
(0.126603 -0.000201842 0.000125677)
(0.124769 -0.00039576 4.9798e-05)
(0.124944 -0.000363929 4.55439e-05)
(0.125095 -0.000336571 4.0908e-05)
(0.125233 -0.000309809 3.59733e-05)
(0.125357 -0.000282273 3.12613e-05)
(0.125506 -0.000247226 2.58717e-05)
(0.121737 -0.000399908 -0.000113807)
(0.121872 -0.00036247 -0.00010619)
(0.121994 -0.000336139 -9.96721e-05)
(0.122102 -0.000310491 -9.11933e-05)
(0.122229 -0.00027164 -7.85798e-05)
(0.114913 -0.000417782 -0.000266858)
(0.11498 -0.000381656 -0.000248167)
(0.115038 -0.000352269 -0.000228526)
(0.115085 -0.000319425 -0.000203277)
(0.115143 -0.000269393 -0.000167111)
(0.0995534 -0.000260897 -0.000280112)
(0.0994903 -0.000248658 -0.000258658)
(0.0994223 -0.00023519 -0.000236838)
(0.0993631 -0.000213471 -0.00020834)
(0.0992776 -0.000179695 -0.000167511)
(0.0634923 -0.00015638 -0.000239025)
(0.0632899 -0.000153967 -0.000203584)
(0.0631125 -0.000135419 -0.000167872)
(0.0629688 -0.000111542 -0.000136979)
(0.0627706 -8.53443e-05 -0.00010147)
(0.0645375 0.000110905 0.000262637)
(0.0643218 9.14422e-05 0.000240249)
(0.0641303 7.23224e-05 0.00020459)
(0.0639727 5.82192e-05 0.000167288)
(0.0637609 4.32502e-05 0.000125415)
(0.101307 0.00018556 0.000354825)
(0.101265 0.000166501 0.000332054)
(0.101217 0.000150714 0.000311355)
(0.101175 0.000133452 0.000283159)
(0.101113 0.000108283 0.000237174)
(0.117416 0.000170424 0.000494554)
(0.117533 0.000157443 0.000461581)
(0.117627 0.000144742 0.000424132)
(0.117712 0.000131447 0.000389801)
(0.117783 0.000116155 0.000351712)
(0.117869 9.55762e-05 0.000297059)
(0.124753 3.53666e-05 0.000386023)
(0.124925 3.5534e-05 0.000354152)
(0.125077 3.62958e-05 0.000329207)
(0.125218 3.55393e-05 0.000305688)
(0.125344 3.36058e-05 0.000280449)
(0.125492 2.99419e-05 0.000246425)
(0.128108 -8.11571e-05 0.000263048)
(0.128297 -7.05913e-05 0.000241996)
(0.128466 -6.03213e-05 0.000224203)
(0.128624 -5.17089e-05 0.00020717)
(0.128767 -4.43526e-05 0.000189103)
(0.128933 -3.74569e-05 0.000166906)
(0.12907 -0.000176089 0.000108499)
(0.129262 -0.000160678 9.86043e-05)
(0.129435 -0.0001464 8.92367e-05)
(0.129597 -0.000132742 8.07285e-05)
(0.129745 -0.000119526 7.28488e-05)
(0.129917 -0.000107273 6.53565e-05)
(0.128117 -0.000266595 -6.33603e-05)
(0.128305 -0.000245181 -6.05591e-05)
(0.128474 -0.000226076 -5.84402e-05)
(0.128633 -0.000207879 -5.50022e-05)
(0.128777 -0.000188997 -5.02481e-05)
(0.128943 -0.000166458 -4.45678e-05)
(0.124999 -0.000346291 -0.000235786)
(0.12517 -0.000317869 -0.000220779)
(0.125322 -0.000293199 -0.000207981)
(0.125463 -0.000269566 -0.000192076)
(0.125588 -0.000244973 -0.000173158)
(0.125735 -0.000213507 -0.00014954)
(0.11834 -0.000406686 -0.000409293)
(0.118444 -0.000376713 -0.00038252)
(0.118534 -0.000345471 -0.000351549)
(0.118618 -0.000316934 -0.00031834)
(0.118686 -0.000285765 -0.000281392)
(0.118765 -0.000241212 -0.000233297)
(0.10362 -0.000304134 -0.00041263)
(0.103568 -0.000288521 -0.000385299)
(0.103513 -0.000268376 -0.000353613)
(0.103456 -0.000244941 -0.000316263)
(0.103407 -0.000218576 -0.00027383)
(0.103338 -0.00018141 -0.000217607)
(0.0683058 -0.000160964 -0.000311272)
(0.0680941 -0.000145546 -0.000266175)
(0.0679015 -0.000123641 -0.000221422)
(0.067744 -0.000103743 -0.000181742)
(0.0675361 -8.20819e-05 -0.000133275)
(0.0684766 0.000131112 0.000321113)
(0.068253 0.000109011 0.00028765)
(0.0680565 8.90934e-05 0.000245722)
(0.0678882 7.50431e-05 0.000205284)
(0.0676732 5.98874e-05 0.000158837)
(0.103777 0.000238188 0.000380888)
(0.103734 0.000220831 0.00035301)
(0.103687 0.000201247 0.000322701)
(0.103647 0.000180001 0.000290781)
(0.10359 0.000149476 0.00024406)
(0.118781 0.000326288 0.000511516)
(0.118907 0.000306049 0.000480779)
(0.11902 0.000287044 0.000443132)
(0.119115 0.000264606 0.00040154)
(0.119202 0.000239582 0.000361959)
(0.119278 0.000213208 0.000323612)
(0.119365 0.000179006 0.000274303)
(0.125645 0.000214998 0.000348489)
(0.125838 0.00019993 0.000325081)
(0.126009 0.000189041 0.000302232)
(0.126164 0.000178142 0.000278945)
(0.126309 0.000165523 0.00025573)
(0.126438 0.000151223 0.000231997)
(0.126588 0.000132766 0.000203148)
(0.128857 0.000102403 0.000177693)
(0.129067 9.59837e-05 0.000168359)
(0.129255 9.32708e-05 0.000159247)
(0.129428 9.0618e-05 0.000148545)
(0.129589 8.64551e-05 0.000136844)
(0.129736 8.08713e-05 0.000124695)
(0.129906 7.43202e-05 0.000112574)
(0.130029 -4.75891e-06 2.61533e-06)
(0.130223 -1.50907e-06 3.2912e-06)
(0.130402 1.70979e-06 2.64045e-06)
(0.13057 3.81496e-06 1.78226e-06)
(0.13072 4.56078e-06 8.79137e-07)
(0.130902 4.57791e-06 -1.75078e-08)
(0.129069 -0.000105595 -0.00016309)
(0.12926 -9.66465e-05 -0.000152054)
(0.129435 -8.82366e-05 -0.000143105)
(0.1296 -7.98426e-05 -0.000133146)
(0.12975 -7.16951e-05 -0.000122184)
(0.129922 -6.40964e-05 -0.000111455)
(0.125843 -0.000210691 -0.000315514)
(0.126017 -0.00019405 -0.000294681)
(0.126177 -0.000178376 -0.000277657)
(0.126325 -0.000162051 -0.00025778)
(0.126456 -0.000145076 -0.000234321)
(0.126609 -0.000125188 -0.000205073)
(0.118916 -0.000315717 -0.000468925)
(0.119026 -0.000292929 -0.000436721)
(0.119125 -0.000267364 -0.000401281)
(0.119219 -0.000240637 -0.000363499)
(0.119296 -0.000212688 -0.000323316)
(0.119383 -0.00017765 -0.000272637)
(0.103845 -0.000283581 -0.000434237)
(0.103796 -0.000263984 -0.000404138)
(0.103745 -0.000241526 -0.000367108)
(0.103695 -0.000219316 -0.000326344)
(0.103649 -0.000194118 -0.000282802)
(0.103586 -0.000159792 -0.00022781)
(0.0686727 -0.000156924 -0.000358035)
(0.0684273 -0.000142445 -0.000316396)
(0.0682118 -0.000126378 -0.000269659)
(0.0680142 -0.000109715 -0.000222072)
(0.0678537 -9.49773e-05 -0.000178822)
(0.0676486 -7.54006e-05 -0.000127764)
(0.0685784 0.0001609 0.000343803)
(0.068338 0.000136552 0.000311535)
(0.0681297 0.000109556 0.000272927)
(0.0679398 8.74856e-05 0.00023146)
(0.0677839 7.43122e-05 0.000194337)
(0.0675762 6.20274e-05 0.000151963)
(0.103624 0.000288103 0.000414327)
(0.10357 0.000271732 0.000381413)
(0.103514 0.000251718 0.000346733)
(0.103458 0.000228007 0.000311581)
(0.103409 0.000201592 0.000274096)
(0.10334 0.000165383 0.000223071)
(0.118342 0.000390686 0.000408802)
(0.118442 0.000368499 0.000378503)
(0.118529 0.00034274 0.000344208)
(0.11861 0.000315518 0.000311486)
(0.118674 0.000283436 0.000276779)
(0.118748 0.000237955 0.000230991)
(0.124997 0.000329656 0.000237304)
(0.125162 0.000307824 0.000221407)
(0.125313 0.000291379 0.00020684)
(0.125453 0.000272836 0.000190186)
(0.125576 0.000250336 0.000171633)
(0.125718 0.000219282 0.000148452)
(0.128103 0.000256785 6.7298e-05)
(0.128287 0.000237251 6.38875e-05)
(0.128457 0.000223185 6.06912e-05)
(0.128616 0.000209363 5.68305e-05)
(0.12876 0.000193333 5.19752e-05)
(0.128924 0.000172437 4.57249e-05)
(0.129063 0.000167034 -9.8965e-05)
(0.129252 0.000155761 -9.21929e-05)
(0.129426 0.000146522 -8.64835e-05)
(0.129589 0.000136504 -8.02157e-05)
(0.129738 0.000125723 -7.35102e-05)
(0.129909 0.000114775 -6.6814e-05)
(0.128116 6.8175e-05 -0.000254161)
(0.128302 6.41309e-05 -0.000237822)
(0.128473 6.07357e-05 -0.000224101)
(0.128634 5.69354e-05 -0.000209165)
(0.128779 5.24559e-05 -0.000191929)
(0.128945 4.67716e-05 -0.000170228)
(0.124773 -4.89742e-05 -0.000377339)
(0.124944 -4.44007e-05 -0.000352679)
(0.125099 -3.93795e-05 -0.000333707)
(0.125245 -3.38989e-05 -0.000312182)
(0.125372 -2.88556e-05 -0.000286209)
(0.125519 -2.38041e-05 -0.000251102)
(0.117444 -0.000184404 -0.000492622)
(0.117554 -0.000169797 -0.00045736)
(0.117653 -0.000152331 -0.000421113)
(0.117744 -0.000134785 -0.000388072)
(0.117816 -0.000116883 -0.000350096)
(0.117898 -9.5206e-05 -0.000295773)
(0.101384 -0.000219767 -0.00040156)
(0.101336 -0.000203901 -0.000376171)
(0.101284 -0.000186862 -0.000345615)
(0.101231 -0.000168942 -0.000311734)
(0.101184 -0.000149178 -0.00027501)
(0.101114 -0.00012105 -0.000226376)
(0.0646954 -0.000126369 -0.00030605)
(0.0644561 -0.000111707 -0.000266298)
(0.0642498 -9.71471e-05 -0.00022081)
(0.0640644 -8.30749e-05 -0.000173155)
(0.0639165 -7.07659e-05 -0.000132108)
(0.0637297 -5.49081e-05 -9.41039e-05)
(0.0637186 0.000157066 0.000264434)
(0.0635055 0.000134758 0.000234971)
(0.0633242 0.000107216 0.000201156)
(0.063158 8.33261e-05 0.000168655)
(0.0630232 6.8416e-05 0.000141253)
(0.0628399 5.752e-05 0.000110694)
(0.0996557 0.000274532 0.000312812)
(0.0995871 0.000257904 0.000289754)
(0.0995156 0.000239861 0.000265538)
(0.0994427 0.000216285 0.000237805)
(0.0993801 0.000190267 0.000208267)
(0.0992897 0.000156415 0.000169106)
(0.114838 0.000440563 0.00029583)
(0.114913 0.000409095 0.000272112)
(0.114976 0.000378897 0.000247059)
(0.115034 0.000350928 0.000222568)
(0.115077 0.000314803 0.000196157)
(0.115121 0.000261535 0.000161512)
(0.121591 0.000419416 0.000127333)
(0.121734 0.000391407 0.000118255)
(0.121865 0.000371378 0.000110259)
(0.121986 0.000348476 0.000101266)
(0.122088 0.000319424 9.09227e-05)
(0.122204 0.000276591 7.76192e-05)
(0.124757 0.000377861 -4.51414e-05)
(0.124922 0.00035222 -4.09691e-05)
(0.125073 0.000333185 -3.67108e-05)
(0.125215 0.000312141 -3.19915e-05)
(0.12534 0.000286789 -2.76924e-05)
(0.125483 0.00025164 -2.31862e-05)
(0.125835 0.000320607 -0.000202233)
(0.126005 0.000297755 -0.000187503)
(0.126161 0.000278896 -0.000174395)
(0.126307 0.000258018 -0.000160016)
(0.126437 0.000234693 -0.000144372)
(0.126586 0.000205393 -0.000125188)
(0.125005 0.000240824 -0.000331236)
(0.125171 0.00022424 -0.000309225)
(0.125322 0.000208964 -0.000291194)
(0.125464 0.00019169 -0.000271252)
(0.125588 0.000172646 -0.000247803)
(0.125732 0.00014898 -0.000216169)
(0.121606 0.000126107 -0.000420957)
(0.121755 0.000117847 -0.000394382)
(0.121888 0.00011029 -0.00037416)
(0.122013 0.000101499 -0.000350323)
(0.122118 9.12266e-05 -0.000321008)
(0.122237 7.75491e-05 -0.000278031)
(0.113793 -2.56945e-05 -0.000493234)
(0.11388 -2.27692e-05 -0.000460633)
(0.113952 -1.83755e-05 -0.00042849)
(0.114018 -1.39674e-05 -0.000396353)
(0.114067 -1.0381e-05 -0.000357576)
(0.114117 -6.98608e-06 -0.000298537)
(0.0961853 -0.00012977 -0.00035156)
(0.0961046 -0.000118708 -0.000332621)
(0.0960257 -0.000107666 -0.000308885)
(0.0959458 -9.60591e-05 -0.000279968)
(0.095879 -8.39258e-05 -0.000250447)
(0.0957813 -6.65227e-05 -0.000209578)
(0.0579362 -7.89235e-05 -0.000168175)
(0.0577294 -6.89003e-05 -0.000141095)
(0.0575537 -5.90439e-05 -0.000112187)
(0.0573929 -4.91937e-05 -8.60148e-05)
(0.0572671 -3.96478e-05 -6.39643e-05)
(0.0571064 -2.96682e-05 -5.19478e-05)
(0.0544252 0.000109614 0.000124703)
(0.0542486 9.43839e-05 0.000110472)
(0.0540962 7.66645e-05 9.40197e-05)
(0.0539586 6.02037e-05 7.84425e-05)
(0.0538493 4.69602e-05 6.46921e-05)
(0.053693 4.01088e-05 5.30084e-05)
(0.0898052 0.000250604 0.000156145)
(0.089681 0.000233877 0.000146484)
(0.0895682 0.000217466 0.000136747)
(0.0894551 0.000197596 0.000125053)
(0.089362 0.000169736 0.000109706)
(0.0892357 0.000132972 8.87866e-05)
(0.106252 0.000460223 0.000126348)
(0.106263 0.00043059 0.000118829)
(0.106261 0.00039848 0.00010939)
(0.10625 0.0003637 9.88752e-05)
(0.106238 0.000322194 8.75293e-05)
(0.106205 0.000258999 7.23237e-05)
(0.113777 0.000483335 -2.1264e-05)
(0.113859 0.000453133 -1.74944e-05)
(0.113927 0.000421539 -1.28223e-05)
(0.113988 0.000390906 -8.68357e-06)
(0.114032 0.00035207 -5.71045e-06)
(0.114078 0.000292644 -2.88255e-06)
(0.117426 0.000486266 -0.000178339)
(0.11753 0.000450969 -0.00016273)
(0.117623 0.000415899 -0.000144895)
(0.117709 0.00038158 -0.000126604)
(0.117778 0.000344592 -0.000109136)
(0.117854 0.00029243 -8.88848e-05)
(0.11891 0.000466187 -0.000308697)
(0.119015 0.000432426 -0.000285945)
(0.119111 0.000395643 -0.000260077)
(0.119199 0.000356571 -0.000232232)
(0.119275 0.000318209 -0.000204779)
(0.119356 0.00026873 -0.00017049)
(0.118344 0.0004082 -0.000399512)
(0.118443 0.000377928 -0.000370923)
(0.118531 0.000343205 -0.000340155)
(0.118613 0.000308862 -0.00031065)
(0.118678 0.000272909 -0.000278583)
(0.118751 0.000226236 -0.00023378)
(0.114841 0.000293245 -0.000448352)
(0.114919 0.000270495 -0.00041567)
(0.114984 0.000245357 -0.00038335)
(0.115043 0.000220354 -0.000352954)
(0.115087 0.000193266 -0.000317115)
(0.115133 0.000157672 -0.000264331)
(0.106249 0.00012087 -0.000474689)
(0.106262 0.000112312 -0.000440253)
(0.106261 0.000102641 -0.000406385)
(0.106251 9.19495e-05 -0.000370513)
(0.10624 8.06548e-05 -0.000328599)
(0.106209 6.56459e-05 -0.000265875)
(0.086389 -4.51851e-05 -0.000302373)
(0.0862366 -3.99618e-05 -0.000286026)
(0.0861019 -3.46323e-05 -0.00026969)
(0.0859709 -2.91353e-05 -0.000246573)
(0.0858667 -2.35459e-05 -0.00021968)
(0.085724 -1.54644e-05 -0.000180969)
(0.0485467 -5.06399e-05 -0.000103113)
(0.0483691 -4.388e-05 -8.70339e-05)
(0.0482164 -3.63699e-05 -7.19845e-05)
(0.0480766 -2.93647e-05 -5.93994e-05)
(0.047963 -2.22277e-05 -4.78366e-05)
(0.0478125 -1.54958e-05 -4.24855e-05)
(0.0390835 6.77417e-05 1.48849e-05)
(0.0389622 6.05142e-05 1.53904e-05)
(0.0388494 5.42186e-05 1.62994e-05)
(0.0387366 4.62052e-05 1.67343e-05)
(0.0386448 3.57222e-05 1.53659e-05)
(0.0385171 2.66898e-05 1.62596e-05)
(0.0681577 0.000131405 -8.66893e-06)
(0.0679671 0.000127793 -1.5458e-06)
(0.0678061 0.000124775 5.68831e-06)
(0.0676611 0.000115891 1.14733e-05)
(0.0675483 0.000102014 1.53931e-05)
(0.0673906 8.35582e-05 1.84859e-05)
(0.0864216 0.000292094 -3.57457e-05)
(0.0862749 0.000279337 -2.93214e-05)
(0.0861446 0.000263605 -2.33661e-05)
(0.086019 0.000241963 -1.73394e-05)
(0.0859188 0.000210512 -1.16029e-05)
(0.0857856 0.000166585 -4.3743e-06)
(0.0961959 0.000342694 -0.000121541)
(0.0961185 0.000321962 -0.000109029)
(0.0960409 0.000300699 -9.75308e-05)
(0.0959621 0.000275006 -8.61216e-05)
(0.0958957 0.000245451 -7.40706e-05)
(0.0958005 0.000203373 -5.69211e-05)
(0.101383 0.00038918 -0.000213131)
(0.101335 0.000362068 -0.000194249)
(0.101284 0.000332851 -0.000175362)
(0.101231 0.000302662 -0.000156847)
(0.101181 0.000268964 -0.000137397)
(0.101109 0.000222187 -0.000110316)
(0.103848 0.000424738 -0.000279136)
(0.103798 0.000392468 -0.000256397)
(0.103747 0.000355501 -0.000232176)
(0.103694 0.00031367 -0.000205689)
(0.103647 0.000272511 -0.000179567)
(0.103581 0.000222216 -0.000146759)
(0.103632 0.000405244 -0.00030356)
(0.103578 0.000374417 -0.000282907)
(0.10352 0.000339811 -0.000258992)
(0.103462 0.000302461 -0.000232339)
(0.103409 0.000262271 -0.000203898)
(0.103333 0.000209011 -0.000165946)
(0.0996475 0.000304152 -0.00029039)
(0.0995773 0.000280324 -0.000272308)
(0.0995054 0.000254763 -0.000250522)
(0.0994313 0.000226552 -0.000224066)
(0.0993683 0.000196985 -0.000196236)
(0.0992747 0.00015803 -0.000160907)
(0.0897845 0.000145107 -0.000265939)
(0.0896558 0.000133282 -0.000248051)
(0.08954 0.000122306 -0.000230037)
(0.089424 0.000109714 -0.000206635)
(0.0893301 9.61509e-05 -0.00017951)
(0.0891972 7.91691e-05 -0.000145803)
(0.0681252 -2.48241e-05 -0.000139434)
(0.0679256 -1.94838e-05 -0.000135445)
(0.0677568 -1.2995e-05 -0.000131862)
(0.0676075 -6.85911e-06 -0.000122316)
(0.0674885 -1.35123e-06 -0.000108046)
(0.0673316 5.78004e-06 -9.01127e-05)
(0.0360454 -4.31396e-05 -1.83156e-05)
(0.0359205 -3.65974e-05 -1.8746e-05)
(0.0358046 -2.94956e-05 -2.16804e-05)
(0.035687 -2.29586e-05 -2.3295e-05)
(0.035589 -1.57539e-05 -2.28197e-05)
(0.0354531 -9.27992e-06 -2.37323e-05)
(0.0230655 1.23288e-05 -1.38879e-05)
(0.0229946 1.25419e-05 -1.01603e-05)
(0.0229172 1.23233e-05 -6.69115e-06)
(0.0228344 1.13378e-05 -3.73382e-06)
(0.0227682 8.68104e-06 -1.46642e-06)
(0.0226741 7.53662e-06 8.99895e-07)
(0.0360686 1.84733e-05 -3.52032e-05)
(0.0359527 1.97448e-05 -2.75196e-05)
(0.0358435 2.3137e-05 -1.96866e-05)
(0.0357302 2.49286e-05 -1.30693e-05)
(0.0356356 2.31097e-05 -7.09473e-06)
(0.0355066 2.22169e-05 -2.72571e-06)
(0.0490347 0.00012886 -4.90934e-05)
(0.0488129 0.000116081 -4.81187e-05)
(0.0485939 9.99022e-05 -4.47223e-05)
(0.048427 8.37714e-05 -3.82253e-05)
(0.048283 6.98324e-05 -2.99952e-05)
(0.04815 5.92174e-05 -2.17908e-05)
(0.0480424 4.97281e-05 -1.42465e-05)
(0.047893 4.41008e-05 -8.35237e-06)
(0.058249 0.000183517 -8.13774e-05)
(0.0580042 0.000161934 -7.32563e-05)
(0.0578062 0.000134445 -6.43637e-05)
(0.0576387 0.000106473 -5.42335e-05)
(0.0574863 8.22585e-05 -4.29779e-05)
(0.0573665 6.39677e-05 -3.16822e-05)
(0.0572107 5.41829e-05 -2.12561e-05)
(0.06505 0.000320479 -0.000135953)
(0.0647729 0.000291466 -0.0001207)
(0.0645435 0.0002537 -0.000104479)
(0.0643451 0.000209436 -8.84789e-05)
(0.0641673 0.000163163 -7.36493e-05)
(0.0640253 0.000125185 -6.02538e-05)
(0.0638458 9.10846e-05 -4.43766e-05)
(0.0687257 0.0003411 -0.000153066)
(0.0684919 0.000300436 -0.000132894)
(0.0682843 0.000255299 -0.000112301)
(0.0680964 0.000209663 -9.35298e-05)
(0.067938 0.000168246 -7.82627e-05)
(0.0677428 0.000121461 -6.03175e-05)
(0.068581 0.000334814 -0.000171366)
(0.0683469 0.000293989 -0.000148724)
(0.0681443 0.000249682 -0.000122008)
(0.0679592 0.000206521 -9.69e-05)
(0.0678085 0.000168888 -7.83243e-05)
(0.067612 0.000124401 -6.13322e-05)
(0.0637157 0.000254821 -0.000172075)
(0.0635023 0.000221595 -0.000149947)
(0.0633202 0.000185202 -0.000121338)
(0.0631551 0.000152042 -9.39028e-05)
(0.0630229 0.000123525 -7.32302e-05)
(0.0628459 9.21104e-05 -5.7051e-05)
(0.0544153 0.000114596 -0.000123944)
(0.0542336 9.84309e-05 -0.000108425)
(0.0540774 8.06038e-05 -8.91013e-05)
(0.05394 6.44934e-05 -6.97364e-05)
(0.0538297 5.07092e-05 -5.18228e-05)
(0.0536812 4.03441e-05 -4.11006e-05)
(0.0390709 5.1136e-06 -8.00105e-05)
(0.0389424 4.16195e-06 -7.16769e-05)
(0.0388254 4.64024e-06 -6.42589e-05)
(0.038711 5.5039e-06 -5.47195e-05)
(0.0386181 5.43095e-06 -4.25894e-05)
(0.0384893 8.40129e-06 -3.07849e-05)
(0.0230546 -2.08881e-05 -1.47396e-05)
(0.0229777 -1.76579e-05 -1.46294e-05)
(0.0228965 -1.40246e-05 -1.41937e-05)
(0.0228115 -1.05064e-05 -1.27643e-05)
(0.0227432 -7.14992e-06 -1.02483e-05)
(0.0226447 -3.03075e-06 -9.07826e-06)
)
;

boundaryField
{
    inlet
    {
        type            fixedValue;
        value           nonuniform List<vector> 0();
    }
    ami1
    {
        type            cyclicAMI;
        value           nonuniform List<vector> 0();
    }
    walls
    {
        type            noSlip;
    }
    ami2
    {
        type            cyclicAMI;
        value           nonuniform List<vector> 0();
    }
    outlet
    {
        type            zeroGradient;
    }
    procBoundary6to5
    {
        type            processor;
        value           nonuniform List<vector> 
177
(
(0.0231582 1.86981e-05 1.92016e-05)
(0.0360636 3.89257e-05 2.38736e-05)
(0.0392364 -1.38329e-05 9.43026e-05)
(0.0546258 -0.000128562 0.000135538)
(0.0637019 -0.000254892 0.000161552)
(0.0898083 -0.000154694 0.00027416)
(0.0637019 -0.000254892 0.000161552)
(0.0685456 -0.000338118 0.000158306)
(0.0684133 -0.000310928 0.000128627)
(0.0684133 -0.000310928 0.000128627)
(0.0684133 -0.000310928 0.000128627)
(0.0644718 -0.000257267 0.000103713)
(0.0644718 -0.000257267 0.000103713)
(0.0577827 -0.000142132 6.15595e-05)
(0.0484094 -9.0098e-05 3.57044e-05)
(0.0484094 -9.0098e-05 3.57044e-05)
(0.0360696 -2.63999e-05 3.07484e-05)
(0.0679826 -0.000123229 1.27007e-06)
(0.023057 -1.47454e-05 1.17074e-05)
(0.0360636 3.89257e-05 2.38736e-05)
(0.0360636 3.89257e-05 2.38736e-05)
(0.0484154 4.47489e-05 8.76482e-05)
(0.0684054 1.15133e-05 0.000179034)
(0.0898083 -0.000154694 0.00027416)
(0.0864483 4.33245e-05 0.000312103)
(0.0898083 -0.000154694 0.00027416)
(0.0996416 -0.000321628 0.000303292)
(0.10362 -0.000426554 0.000310499)
(0.103843 -0.000445919 0.00027597)
(0.101374 -0.000423672 0.000212667)
(0.0960733 -0.000337206 0.000108283)
(0.0960733 -0.000337206 0.000108283)
(0.0960733 -0.000337206 0.000108283)
(0.0862364 -0.000282227 3.0539e-05)
(0.0862364 -0.000282227 3.0539e-05)
(0.0679826 -0.000123229 1.27007e-06)
(0.0679826 -0.000123229 1.27007e-06)
(0.0391047 -6.93071e-05 -1.8257e-05)
(0.0484154 4.47489e-05 8.76482e-05)
(0.0484154 4.47489e-05 8.76482e-05)
(0.0864483 4.33245e-05 0.000312103)
(0.0960915 0.000115823 0.000326338)
(0.106233 -0.00012268 0.000483984)
(0.114826 -0.000301853 0.000463124)
(0.118344 -0.000423514 0.000411253)
(0.118921 -0.000486804 0.000312422)
(0.117431 -0.00051196 0.000176315)
(0.117431 -0.00051196 0.000176315)
(0.113769 -0.000521489 1.7785e-05)
(0.106221 -0.000492838 -0.000130673)
(0.0896232 -0.000234088 -0.000144452)
(0.0896232 -0.000234088 -0.000144452)
(0.0896232 -0.000234088 -0.000144452)
(0.0896232 -0.000234088 -0.000144452)
(0.0544646 -9.79143e-05 -0.000123055)
(0.0578346 7.09914e-05 0.000145445)
(0.0578346 7.09914e-05 0.000145445)
(0.0960915 0.000115823 0.000326338)
(0.0960915 0.000115823 0.000326338)
(0.0960915 0.000115823 0.000326338)
(0.113748 2.19642e-05 0.000509102)
(0.113748 2.19642e-05 0.000509102)
(0.121578 -0.000136022 0.000444951)
(0.121578 -0.000136022 0.000444951)
(0.124997 -0.000256327 0.000349619)
(0.124997 -0.000256327 0.000349619)
(0.125841 -0.000338311 0.000215907)
(0.125841 -0.000338311 0.000215907)
(0.125841 -0.000338311 0.000215907)
(0.124574 -0.000436026 5.42268e-05)
(0.12158 -0.00045506 -0.000127277)
(0.12158 -0.00045506 -0.000127277)
(0.12158 -0.00045506 -0.000127277)
(0.114823 -0.000468862 -0.000295739)
(0.114823 -0.000468862 -0.000295739)
(0.0996272 -0.000292778 -0.000317892)
(0.0996272 -0.000292778 -0.000317892)
(0.0637296 -0.000153425 -0.000267521)
(0.0647933 0.000124397 0.000280397)
(0.101354 0.000218459 0.000411656)
(0.101354 0.000218459 0.000411656)
(0.117287 0.00019161 0.000544368)
(0.117287 0.00019161 0.000544368)
(0.124558 4.14552e-05 0.00042902)
(0.124558 4.14552e-05 0.00042902)
(0.127898 -8.78216e-05 0.000288271)
(0.127898 -8.78216e-05 0.000288271)
(0.128856 -0.000192429 0.000117827)
(0.127906 -0.000291606 -7.02961e-05)
(0.124808 -0.000380689 -0.000262564)
(0.118219 -0.000444891 -0.000451237)
(0.103678 -0.000340226 -0.00046595)
(0.0685508 -0.000168662 -0.000351825)
(0.0685508 -0.000168662 -0.000351825)
(0.0685508 -0.000168662 -0.000351825)
(0.0687404 0.000150373 0.000344755)
(0.0687404 0.000150373 0.000344755)
(0.103875 0.000309318 0.000504184)
(0.103816 0.000272774 0.000440725)
(0.103816 0.000272774 0.000440725)
(0.103816 0.000272774 0.000440725)
(0.118642 0.000354526 0.000550275)
(0.118221 0.000429202 0.000450305)
(0.125433 0.000236658 0.000378095)
(0.12481 0.000366018 0.000261551)
(0.128626 0.000114129 0.000191595)
(0.129815 -5.78779e-06 6.92702e-07)
(0.127898 0.000285441 7.30141e-05)
(0.129815 -5.78779e-06 6.92702e-07)
(0.128858 -0.000115948 -0.000180555)
(0.125648 -0.00023181 -0.000351561)