/*--------------------------------*- C++ -*----------------------------------*\
| =========                 |                                                 |
| \\      /  F ield         | OpenFOAM: The Open Source CFD Toolbox           |
|  \\    /   O peration     | Version:  2212                                  |
|   \\  /    A nd           | Website:  www.openfoam.com                      |
|    \\/     M anipulation  |                                                 |
\*---------------------------------------------------------------------------*/
FoamFile
{
    version     2.0;
    format      ascii;
    arch        "LSB;label=32;scalar=64";
    class       surfaceVectorField;
    location    "1.05";
    object      Uf;
}
// * * * * * * * * * * * * * * * * * * * * * * * * * * * * * * * * * * * * * //

dimensions      [0 1 -1 0 0 0 0];

internalField   nonuniform List<vector> 
1763
(
(0.0230141 1.613e-05 1.34172e-05)
(0.0294559 6.20332e-06 4.4104e-05)
(0.0229463 1.35506e-05 1.20219e-05)
(0.0293593 6.4932e-06 3.71413e-05)
(0.0281589 2.67537e-05 5.9293e-06)
(0.0228778 1.0514e-05 1.18201e-05)
(0.0292793 4.72552e-06 3.35037e-05)
(0.0280807 2.1611e-05 7.50198e-06)
(0.0228045 7.34102e-06 1.08864e-05)
(0.0291944 2.03741e-06 3.0336e-05)
(0.0279974 1.60799e-05 1.03236e-05)
(0.0227314 3.78045e-06 9.66281e-06)
(0.0291166 -4.8563e-08 2.58676e-05)
(0.0279197 1.00044e-05 1.19987e-05)
(0.0289972 -3.50485e-06 1.87106e-05)
(0.0277982 4.84628e-06 1.30342e-05)
(0.0390032 -7.99872e-06 6.99105e-05)
(0.0459055 -5.75546e-05 9.92823e-05)
(0.0519551 1.37182e-05 9.03507e-05)
(0.0388907 -5.97371e-06 5.86834e-05)
(0.0457479 -4.93752e-05 7.89039e-05)
(0.0517841 1.40394e-05 7.62461e-05)
(0.038784 -7.08588e-06 5.38773e-05)
(0.0456201 -4.28851e-05 6.90268e-05)
(0.0516474 8.94279e-06 7.36103e-05)
(0.0386789 -8.36526e-06 4.82271e-05)
(0.0455014 -3.7534e-05 6.14796e-05)
(0.0515239 2.36142e-06 7.21742e-05)
(0.0385837 -1.00489e-05 3.89077e-05)
(0.0453977 -3.18352e-05 4.98785e-05)
(0.0514187 -2.53576e-06 6.69464e-05)
(0.0452502 -2.84179e-05 3.90956e-05)
(0.0512683 -9.25972e-06 5.82719e-05)
(0.0543219 -0.000110277 0.000111118)
(0.0541522 -9.61892e-05 9.23645e-05)
(0.0585512 -0.000162693 0.000121543)
(0.0705246 -0.000105165 0.000148513)
(0.0540013 -8.17368e-05 7.68837e-05)
(0.0583788 -0.000140941 0.00010103)
(0.0703837 -9.62335e-05 0.000136171)
(0.0538699 -6.76864e-05 6.28996e-05)
(0.0582306 -0.000118204 8.19667e-05)
(0.0702597 -8.69888e-05 0.000123921)
(0.0537554 -5.52268e-05 5.05073e-05)
(0.0581039 -9.78992e-05 6.62929e-05)
(0.0701527 -7.60614e-05 0.000108096)
(0.0579323 -7.72663e-05 5.36763e-05)
(0.0700057 -6.48752e-05 9.09143e-05)
(0.0633871 -0.000215077 0.000133021)
(0.0658007 -0.000267204 0.00013981)
(0.0803751 -0.000244357 0.000190844)
(0.063207 -0.000183671 0.000109508)
(0.0656017 -0.000232962 0.000117973)
(0.0802432 -0.000217382 0.000169933)
(0.0630501 -0.000153656 8.82542e-05)
(0.0654292 -0.000196803 9.5861e-05)
(0.0801247 -0.00018944 0.000147585)
(0.0629127 -0.000124333 7.10673e-05)
(0.0652811 -0.000164891 7.93599e-05)
(0.0800219 -0.000164 0.000127891)
(0.0650864 -0.000128044 6.41043e-05)
(0.0798827 -0.000133471 0.000106942)
(0.0681959 -0.000285227 0.000130845)
(0.084952 -0.000330992 0.000197972)
(0.067996 -0.00024618 0.000109926)
(0.0681423 -0.000269605 0.000114811)
(0.084817 -0.000295172 0.000176279)
(0.0678198 -0.000208372 9.12735e-05)
(0.0679562 -0.000229877 9.476e-05)
(0.0846947 -0.000258088 0.000154281)
(0.0676658 -0.000169338 7.47548e-05)
(0.0677993 -0.000194669 7.97182e-05)
(0.0845895 -0.000223409 0.000135013)
(0.0675912 -0.000151513 6.38565e-05)
(0.0844484 -0.000180052 0.000112121)
(0.0681091 -0.000253648 9.90018e-05)
(0.0662089 -0.000253124 9.74589e-05)
(0.0850309 -0.000307624 0.000159806)
(0.0679293 -0.000216067 8.34999e-05)
(0.0660225 -0.000217164 7.99536e-05)
(0.0849082 -0.000270932 0.000141064)
(0.0677717 -0.000176422 6.97559e-05)
(0.0658684 -0.000183147 6.79231e-05)
(0.0848037 -0.00023496 0.000124066)
(0.0656592 -0.00014085 5.42933e-05)
(0.0846646 -0.000188783 0.000102363)
(0.0641738 -0.000219167 7.53579e-05)
(0.060803 -0.000186898 6.26903e-05)
(0.0817406 -0.000279411 0.00012351)
(0.063998 -0.00018675 6.12506e-05)
(0.0606259 -0.000161873 4.93043e-05)
(0.0816209 -0.00024961 0.000107246)
(0.0638437 -0.000149351 5.03937e-05)
(0.0604821 -0.000131549 4.07691e-05)
(0.081521 -0.000216819 9.33229e-05)
(0.0602856 -9.97761e-05 3.24394e-05)
(0.0813841 -0.000175008 7.62203e-05)
(0.0575014 -0.000126603 4.53736e-05)
(0.0526051 -0.000104075 4.38985e-05)
(0.0755737 -0.000204569 7.07027e-05)
(0.0573378 -0.000105018 3.52915e-05)
(0.0524488 -9.03491e-05 3.51383e-05)
(0.0754526 -0.000184972 5.87527e-05)
(0.0571974 -8.18366e-05 2.67235e-05)
(0.0523226 -7.19436e-05 2.57309e-05)
(0.0753512 -0.000162093 4.80946e-05)
(0.0521422 -5.90095e-05 1.75501e-05)
(0.0752119 -0.00013747 3.75904e-05)
(0.0481719 -7.74764e-05 2.8429e-05)
(0.0413509 -5.23872e-05 2.21036e-05)
(0.0656477 -0.000150806 2.72806e-05)
(0.048031 -6.54308e-05 2.10315e-05)
(0.0412299 -4.92958e-05 1.66164e-05)
(0.065513 -0.000143963 2.00452e-05)
(0.0479063 -5.44411e-05 1.39137e-05)
(0.0411248 -4.24287e-05 1.08972e-05)
(0.0654021 -0.000131971 1.26845e-05)
(0.04096 -3.83687e-05 7.14089e-06)
(0.0652384 -0.000115366 7.49881e-06)
(0.0358814 -1.56098e-05 2.67333e-05)
(0.0281637 -6.2937e-06 2.23697e-05)
(0.0357778 -1.60792e-05 2.21377e-05)
(0.0280769 -4.83742e-06 2.10267e-05)
(0.0499695 -4.8168e-05 1.52658e-05)
(0.0356685 -1.9609e-05 1.58433e-05)
(0.0279933 -8.60173e-06 1.73377e-05)
(0.0498373 -5.73905e-05 1.09269e-05)
(0.0355627 -2.26265e-05 9.97448e-06)
(0.027911 -1.16967e-05 1.16703e-05)
(0.0497261 -6.22807e-05 5.61653e-06)
(0.0277722 -1.32251e-05 7.28525e-06)
(0.0495566 -5.99639e-05 1.23195e-06)
(0.0229494 -1.08701e-05 1.17811e-05)
(0.0293797 -3.40564e-05 1.76782e-06)
(0.0228857 -1.13365e-05 1.12766e-05)
(0.0292901 -3.35013e-05 4.45845e-06)
(0.022807 -1.1662e-05 9.33654e-06)
(0.0292005 -3.48682e-05 5.02383e-06)
(0.0227212 -1.08872e-05 6.30255e-06)
(0.0291134 -3.25051e-05 4.34158e-06)
(0.0289707 -2.46349e-05 7.63617e-07)
(0.0358911 3.20186e-05 1.35962e-05)
(0.0501111 2.42372e-05 5.90076e-05)
(0.0357892 2.44776e-05 1.71117e-05)
(0.0499769 1.95504e-05 6.00981e-05)
(0.0413748 2.96103e-05 4.35195e-05)
(0.035686 1.62642e-05 2.13248e-05)
(0.0498557 1.32858e-05 6.31273e-05)
(0.0412618 2.1022e-05 4.15245e-05)
(0.035588 9.16176e-06 2.36245e-05)
(0.0497506 5.93273e-06 6.1337e-05)
(0.04116 1.25719e-05 3.8278e-05)
(0.0495974 -7.27322e-07 5.63217e-05)
(0.0410076 6.67094e-06 3.61391e-05)
(0.0680693 1.23916e-05 0.000140962)
(0.0678759 1.01129e-05 0.000128226)
(0.0780089 -5.3486e-05 0.000195321)
(0.076446 1.51008e-05 0.000206965)
(0.0677092 6.33968e-06 0.000118409)
(0.0778571 -5.22318e-05 0.000178124)
(0.0762807 1.49418e-05 0.00019105)
(0.0675691 8.71713e-07 0.000109721)
(0.0777272 -5.09325e-05 0.000159963)
(0.0761398 1.0648e-05 0.000177613)
(0.0674467 -5.94894e-06 9.98683e-05)
(0.0776184 -4.89428e-05 0.000142195)
(0.0760233 4.13916e-06 0.00016329)
(0.0774681 -4.53223e-05 0.000120036)
(0.0758654 -3.09393e-06 0.000138146)
(0.089612 -0.000131222 0.000229173)
(0.0943821 -0.000205125 0.000249234)
(0.0974941 -0.000138565 0.000339633)
(0.0894933 -0.000121813 0.000213233)
(0.0942867 -0.000189614 0.000231708)
(0.0974324 -0.000126737 0.000316116)
(0.089384 -0.00011028 0.000192327)
(0.0941963 -0.00017232 0.000210408)
(0.0973696 -0.000113402 0.000288206)
(0.0892848 -9.54145e-05 0.000164909)
(0.0941163 -0.000152594 0.000186666)
(0.097313 -0.000100195 0.000256813)
(0.0940056 -0.000125973 0.000154928)
(0.0972301 -8.22001e-05 0.000210727)
(0.0995328 -0.000269991 0.000253188)
(0.101511 -0.000327318 0.000267192)
(0.106884 -0.000291482 0.000345338)
(0.0994643 -0.000245224 0.00023209)
(0.101451 -0.000299312 0.00024716)
(0.10688 -0.000265337 0.000318634)
(0.0993968 -0.000218893 0.000208269)
(0.101389 -0.000269659 0.000224873)
(0.106871 -0.000237076 0.000289405)
(0.0993335 -0.000186841 0.000179375)
(0.101335 -0.00023846 0.000200046)
(0.106862 -0.000208288 0.000258886)
(0.101257 -0.00019508 0.000166151)
(0.106841 -0.00016876 0.00021483)
(0.103537 -0.000359228 0.000260855)
(0.103677 -0.000383285 0.000256804)
(0.110701 -0.000391886 0.00032814)
(0.103484 -0.000326545 0.000238603)
(0.103626 -0.00035202 0.000236599)
(0.110716 -0.000357383 0.000301365)
(0.103431 -0.000291897 0.000215093)
(0.103575 -0.000319636 0.000216134)
(0.110726 -0.00032124 0.000273873)
(0.103381 -0.000248787 0.000185949)
(0.103528 -0.000282336 0.000193079)
(0.110734 -0.000282774 0.000244538)
(0.103464 -0.000229465 0.000160006)
(0.110735 -0.000229172 0.000202524)
(0.103769 -0.000375102 0.000234453)
(0.102543 -0.00037831 0.000215436)
(0.111114 -0.000427348 0.000271648)
(0.103719 -0.000344029 0.000216304)
(0.102496 -0.000347463 0.000199565)
(0.111134 -0.000390609 0.000250357)
(0.10367 -0.000309222 0.000195879)
(0.102448 -0.000319573 0.000183704)
(0.11115 -0.000354385 0.000228307)
(0.103625 -0.000262592 0.00016802)
(0.102404 -0.000284781 0.000163344)
(0.111162 -0.000313097 0.000202381)
(0.102345 -0.000234496 0.000133031)
(0.111174 -0.000255226 0.000165488)
(0.101295 -0.000352353 0.000178663)
(0.1091 -0.000429331 0.000182316)
(0.101245 -0.000325032 0.00016445)
(0.0985685 -0.000307628 0.000131488)
(0.109123 -0.00039095 0.000166825)
(0.101199 -0.000296817 0.000149063)
(0.098512 -0.000287896 0.000118171)
(0.109139 -0.000358469 0.00015178)
(0.101156 -0.000257534 0.000127423)
(0.0984597 -0.000265099 0.000103851)
(0.109151 -0.000321709 0.000133981)
(0.0983875 -0.00022542 8.41315e-05)
(0.109162 -0.000267385 0.000107792)
(0.0959732 -0.000272296 8.67429e-05)
(0.0908179 -0.000262214 5.54722e-05)
(0.10456 -0.000363168 6.01773e-05)
(0.0959083 -0.000256642 7.57156e-05)
(0.090722 -0.000250408 4.67663e-05)
(0.104556 -0.000333243 5.15387e-05)
(0.0958465 -0.000233016 6.30959e-05)
(0.0906384 -0.000237621 3.85445e-05)
(0.104549 -0.000306248 4.34366e-05)
(0.0905188 -0.000205249 2.91517e-05)
(0.104533 -0.000260195 3.2448e-05)
(0.0860384 -0.00024035 2.02869e-05)
(0.0762625 -0.000181664 3.02304e-06)
(0.0956062 -0.000338454 -3.34533e-05)
(0.0859183 -0.00023236 1.27665e-05)
(0.0761141 -0.000179316 5.69965e-07)
(0.095539 -0.000315298 -3.64903e-05)
(0.0858073 -0.000211225 6.88187e-06)
(0.0759958 -0.000170765 -7.97202e-07)
(0.09548 -0.0002867 -3.65634e-05)
(0.0758264 -0.00014691 -2.86476e-06)
(0.0953937 -0.00023565 -3.27754e-05)
(0.067707 -0.000110254 2.72017e-06)
(0.0516603 -6.59544e-05 9.39091e-06)
(0.0778433 -0.000170616 -5.14099e-05)
(0.0675468 -0.000114252 -9.24119e-07)
(0.0515198 -7.31916e-05 7.36086e-06)
(0.0777046 -0.000166575 -4.99395e-05)
(0.0674073 -0.000108761 -4.89675e-06)
(0.0514018 -7.4314e-05 3.83422e-06)
(0.077593 -0.000155538 -4.87577e-05)
(0.0512268 -6.70576e-05 -3.33616e-06)
(0.0774298 -0.000133235 -4.37577e-05)
(0.0389197 -6.13397e-05 -9.69823e-06)
(0.0457977 -7.89821e-05 -5.58666e-05)
(0.0388035 -6.2218e-05 -4.88625e-06)
(0.0456451 -8.36426e-05 -4.57218e-05)
(0.038681 -5.9684e-05 -2.09815e-06)
(0.0455064 -8.17683e-05 -3.57954e-05)
(0.0385663 -5.06822e-05 -2.94748e-06)
(0.0453871 -6.91446e-05 -2.6436e-05)
(0.0452121 -5.40383e-05 -2.2248e-05)
(0.0482075 3.68121e-05 6.02708e-05)
(0.0656857 3.48761e-05 0.000144846)
(0.0526476 5.61671e-05 8.84082e-05)
(0.0480811 2.58793e-05 5.18434e-05)
(0.0655549 2.66661e-05 0.000137206)
(0.0524994 4.43308e-05 7.24149e-05)
(0.0479658 1.52384e-05 4.74178e-05)
(0.0654425 1.72534e-05 0.000126975)
(0.0523759 2.93176e-05 6.0325e-05)
(0.0652856 8.96124e-06 0.000110322)
(0.0522043 1.68717e-05 5.33603e-05)
(0.0862208 3.54296e-05 0.000264853)
(0.0957118 -2.52589e-05 0.000365352)
(0.0860781 2.72092e-05 0.000253144)
(0.0956347 -2.96693e-05 0.000343294)
(0.0908478 5.84564e-05 0.00026971)
(0.0859479 1.9343e-05 0.000236049)
(0.0955593 -3.30217e-05 0.000314271)
(0.0907439 4.9136e-05 0.00025429)
(0.0858332 1.13636e-05 0.000206015)
(0.095494 -3.34885e-05 0.000280996)
(0.090654 4.17825e-05 0.000237256)
(0.0954024 -3.17818e-05 0.000229409)
(0.0905294 3.08269e-05 0.000200863)
(0.106249 -0.000109532 0.000415196)
(0.110418 -0.000189772 0.000413476)
(0.109903 -4.73255e-05 0.000438039)
(0.106248 -0.000104232 0.000388665)
(0.110452 -0.000177645 0.000389166)
(0.109943 -5.13548e-05 0.000413497)
(0.106238 -9.54589e-05 0.000355247)
(0.110474 -0.000161575 0.000360991)
(0.109968 -4.99494e-05 0.000383368)
(0.106223 -8.2727e-05 0.000307291)
(0.110492 -0.000143491 0.00032736)
(0.109988 -4.46292e-05 0.000346271)
(0.110502 -0.000118875 0.000272715)
(0.110001 -3.7085e-05 0.00028832)
(0.114939 -0.000259842 0.000396284)
(0.116643 -0.000323388 0.000388807)
(0.118215 -0.000195543 0.000399948)
(0.115003 -0.000237599 0.000366856)
(0.116719 -0.00029712 0.000361815)
(0.118312 -0.000181588 0.000371293)
(0.115057 -0.00021287 0.000335275)
(0.116786 -0.00026845 0.000333008)
(0.118399 -0.000164944 0.000344122)
(0.115103 -0.00018277 0.000293849)
(0.116844 -0.000237643 0.00030084)
(0.118476 -0.000146394 0.000314926)
(0.116908 -0.000196663 0.000253011)
(0.118562 -0.000121875 0.000270151)
(0.118491 -0.000362687 0.000353829)
(0.118742 -0.000405676 0.000324032)
(0.121715 -0.000302037 0.000338707)
(0.118577 -0.00033066 0.000325573)
(0.118833 -0.000372317 0.00029945)
(0.121833 -0.000276782 0.000312651)
(0.118653 -0.000295991 0.000295577)
(0.118915 -0.000337982 0.000274275)
(0.12194 -0.000251066 0.000288127)
(0.11872 -0.000253815 0.00025758)
(0.118987 -0.000299881 0.000245924)
(0.122036 -0.000223013 0.000261217)
(0.119071 -0.000250142 0.000206462)
(0.122148 -0.000187446 0.000223942)
(0.119081 -0.00041425 0.000271727)
(0.118289 -0.000443388 0.000222434)
(0.122432 -0.000362965 0.000235682)
(0.119174 -0.000378645 0.000250108)
(0.118385 -0.00040739 0.000206011)
(0.122556 -0.000332961 0.000217271)
(0.119258 -0.000341411 0.000225589)
(0.118471 -0.000374312 0.000187592)
(0.122671 -0.000305388 0.000198931)
(0.119333 -0.000296308 0.000194735)
(0.118544 -0.00033718 0.000165922)
(0.122773 -0.000275085 0.000178225)
(0.118631 -0.000285119 0.000137154)
(0.122894 -0.000235708 0.000151205)
(0.117597 -0.000438669 0.000153776)
(0.115667 -0.000459755 8.53429e-05)
(0.121143 -0.000405481 0.000100821)
(0.117689 -0.000404231 0.000142047)
(0.115755 -0.000423844 7.98817e-05)
(0.121266 -0.000374538 9.35143e-05)
(0.117771 -0.00037019 0.000128102)
(0.115828 -0.000389994 7.26916e-05)
(0.121377 -0.000346784 8.56405e-05)
(0.117843 -0.000325513 0.000109386)
(0.11589 -0.000354922 6.35487e-05)
(0.121474 -0.000315895 7.58822e-05)
(0.115962 -0.000302152 5.09483e-05)
(0.12159 -0.00027248 6.25251e-05)
(0.113901 -0.000444432 1.49585e-05)
(0.109904 -0.000445939 -4.98291e-05)
(0.117676 -0.000426645 -4.9424e-05)
(0.113967 -0.000409387 1.3441e-05)
(0.109948 -0.000413504 -4.67259e-05)
(0.117781 -0.000390562 -4.63201e-05)
(0.114028 -0.000374449 1.09157e-05)
(0.109976 -0.000383678 -4.5336e-05)
(0.117872 -0.00036097 -4.35403e-05)
(0.114082 -0.000331211 7.62018e-06)
(0.109996 -0.000348881 -4.21798e-05)
(0.117952 -0.000332556 -4.02363e-05)
(0.110018 -0.000291141 -3.53288e-05)
(0.118044 -0.000287765 -3.55548e-05)
(0.106238 -0.000421279 -0.000113457)
(0.110409 -0.000423721 -0.000190582)
(0.106237 -0.000392483 -0.0001061)
(0.097409 -0.00031127 -0.000128812)
(0.110448 -0.00038656 -0.00017942)
(0.106233 -0.000360553 -9.68122e-05)
(0.0973529 -0.000292242 -0.000115401)
(0.110474 -0.000360513 -0.000165189)
(0.106226 -0.000310635 -8.30638e-05)
(0.0973014 -0.000267615 -0.00010232)
(0.110492 -0.000328762 -0.00014616)
(0.0972222 -0.000221527 -8.25368e-05)
(0.110513 -0.000273702 -0.000119508)
(0.0894615 -0.000204607 -0.000119241)
(0.0703846 -0.000144161 -9.99107e-05)
(0.0942652 -0.000223866 -0.000189149)
(0.08936 -0.000198053 -0.00010914)
(0.0702482 -0.000141317 -8.68213e-05)
(0.0941786 -0.000214768 -0.000173709)
(0.0892624 -0.000180413 -9.53418e-05)
(0.0701349 -0.000127974 -7.27786e-05)
(0.0941037 -0.000201141 -0.000154314)
(0.0699717 -0.000108526 -6.02814e-05)
(0.0939912 -0.000172231 -0.000125482)
(0.0541937 -0.000103316 -0.000102284)
(0.0585902 -0.000125317 -0.000170304)
(0.0540221 -0.000106044 -8.56647e-05)
(0.058397 -0.000131394 -0.000145205)
(0.0538642 -9.45741e-05 -6.72966e-05)
(0.0582265 -0.000119597 -0.00011904)
(0.0537278 -7.53132e-05 -5.0957e-05)
(0.058088 -9.73516e-05 -9.4995e-05)
(0.0578966 -7.44899e-05 -7.0882e-05)
(0.0575529 5.59695e-05 0.000113137)
(0.0756089 7.70945e-05 0.000193583)
(0.0608598 7.11999e-05 0.000184776)
(0.0573901 4.26093e-05 8.97357e-05)
(0.0754847 6.33127e-05 0.000172656)
(0.0606789 5.61002e-05 0.000154785)
(0.0572528 2.90364e-05 7.06412e-05)
(0.0753819 5.03327e-05 0.000154657)
(0.0605317 4.43857e-05 0.000122882)
(0.0752401 3.69172e-05 0.000133719)
(0.060336 3.18383e-05 9.3725e-05)
(0.0959866 8.78917e-05 0.000267341)
(0.104558 6.04414e-05 0.00035893)
(0.0985734 0.000128477 0.000303559)
(0.0959164 7.54384e-05 0.000255317)
(0.10455 4.90777e-05 0.000331305)
(0.0985139 0.000113964 0.000285677)
(0.0958471 6.24e-05 0.000234593)
(0.104542 4.07826e-05 0.000306153)
(0.0984608 0.00010031 0.00026689)
(0.104518 3.00452e-05 0.000258827)
(0.0983806 8.06389e-05 0.000227762)
(0.113877 1.41724e-05 0.000438235)
(0.117663 -5.34105e-05 0.00041772)
(0.115648 8.54236e-05 0.000457805)
(0.113947 9.39448e-06 0.000407096)
(0.117767 -5.14511e-05 0.000386526)
(0.115733 7.78663e-05 0.000422515)
(0.114007 5.96446e-06 0.000374046)
(0.117857 -4.7937e-05 0.000361336)
(0.115806 6.89396e-05 0.000390096)
(0.114059 3.39822e-06 0.000328764)
(0.117936 -4.30216e-05 0.000333045)
(0.115868 5.9168e-05 0.000354169)
(0.118025 -3.68947e-05 0.000286681)
(0.115939 4.73991e-05 0.000299424)
(0.121795 -0.000117191 0.000377516)
(0.12342 -0.000174307 0.000353635)
(0.1233 -4.43375e-05 0.00037373)
(0.121923 -0.000107558 0.000349976)
(0.123561 -0.000158424 0.000326551)
(0.123442 -3.90185e-05 0.000345647)
(0.122041 -9.73064e-05 0.00032523)
(0.12369 -0.000144214 0.000304371)
(0.123572 -3.49208e-05 0.000322157)
(0.122146 -8.47367e-05 0.000292862)
(0.123805 -0.000129281 0.000280027)
(0.123688 -3.04533e-05 0.000296878)
(0.123941 -0.000110547 0.000244568)
(0.123824 -2.51284e-05 0.000260277)
(0.12524 -0.00021807 0.000299879)
(0.12559 -0.000264615 0.000251662)
(0.126707 -0.00015041 0.000277524)
(0.125387 -0.000198118 0.000276835)
(0.125744 -0.000240486 0.000230438)
(0.126867 -0.000134502 0.000255859)
(0.125522 -0.000178963 0.000255321)
(0.125885 -0.000220385 0.000213054)
(0.127014 -0.000121076 0.000237117)
(0.125645 -0.000157242 0.00022891)
(0.126013 -0.000199711 0.000194685)
(0.127148 -0.000107542 0.000216953)
(0.126163 -0.000173352 0.000169961)
(0.127305 -9.22292e-05 0.000190619)
(0.126092 -0.000286355 0.000183503)
(0.125478 -0.000331504 0.000119439)
(0.127613 -0.000230764 0.000145928)
(0.126244 -0.000262463 0.000167232)
(0.125631 -0.000304812 0.000107569)
(0.127778 -0.000210029 0.000132227)
(0.126386 -0.0002412 0.000152362)
(0.125772 -0.000281235 9.72815e-05)
(0.127931 -0.000192964 0.000120727)
(0.126514 -0.000216124 0.000135266)
(0.1259 -0.000256749 8.72937e-05)
(0.12807 -0.000175459 0.000109203)
(0.126051 -0.000224886 7.51145e-05)
(0.128233 -0.000155257 9.59667e-05)
(0.124857 -0.000379845 4.7671e-05)
(0.126415 -0.000332104 -5.91934e-06)
(0.125016 -0.00035025 4.3226e-05)
(0.123311 -0.000381978 -3.51788e-05)
(0.126597 -0.000304418 -7.22728e-06)
(0.125162 -0.00032319 3.84406e-05)
(0.123454 -0.000349328 -3.33329e-05)
(0.126756 -0.000281516 -8.32889e-06)
(0.125297 -0.000296041 3.36173e-05)
(0.123584 -0.000322949 -3.26854e-05)
(0.126905 -0.000259699 -8.75373e-06)
(0.125421 -0.000264749 2.85665e-05)
(0.1237 -0.000296544 -3.09403e-05)
(0.127039 -0.000236511 -8.76177e-06)
(0.123837 -0.000259786 -2.75088e-05)
(0.127196 -0.000207702 -8.66117e-06)
(0.1218 -0.000381189 -0.000109999)
(0.118218 -0.000406229 -0.000188704)
(0.123422 -0.000357819 -0.00016722)
(0.12193 -0.000349304 -0.000102931)
(0.118318 -0.00037097 -0.000177468)
(0.123565 -0.000327949 -0.000156412)
(0.12205 -0.000323315 -9.54327e-05)
(0.118406 -0.000343914 -0.000165368)
(0.123697 -0.000303935 -0.000144792)
(0.122157 -0.000291065 -8.48865e-05)
(0.118483 -0.000314403 -0.000148028)
(0.123813 -0.000278881 -0.000131151)
(0.118574 -0.000269651 -0.000123081)
(0.12395 -0.000243574 -0.000113177)
(0.114943 -0.000399719 -0.000257513)
(0.106879 -0.000347896 -0.000289091)
(0.116641 -0.000394723 -0.000324811)
(0.115006 -0.000366962 -0.000238347)
(0.106878 -0.000320509 -0.000264235)
(0.116719 -0.000363541 -0.000298938)
(0.115063 -0.000335847 -0.000215901)
(0.10687 -0.000296917 -0.000240272)
(0.116789 -0.000336276 -0.000271874)
(0.115112 -0.000294409 -0.000185194)
(0.106862 -0.000268716 -0.000211845)
(0.116847 -0.00030413 -0.000240957)
(0.106845 -0.000224447 -0.000169797)
(0.116915 -0.000256198 -0.000199222)
(0.0995233 -0.000254778 -0.000269385)
(0.0803789 -0.000196761 -0.000248723)
(0.101508 -0.000273902 -0.00033149)
(0.0994554 -0.000241924 -0.000247748)
(0.0802417 -0.000190711 -0.000220906)
(0.101448 -0.000257118 -0.000305349)
(0.0993897 -0.00022433 -0.000222589)
(0.0801155 -0.000174341 -0.000191476)
(0.101386 -0.000239937 -0.000275493)
(0.0993283 -0.000196583 -0.000187926)
(0.0800114 -0.000152157 -0.000162467)
(0.101331 -0.000217015 -0.00023977)
(0.079866 -0.00012571 -0.000128142)
(0.101254 -0.000181427 -0.000191517)
(0.0633961 -0.000155174 -0.000221304)
(0.0658149 -0.000157975 -0.000274116)
(0.0632042 -0.000144693 -0.000185728)
(0.0656079 -0.000147602 -0.00023465)
(0.0630372 -0.00012348 -0.000152426)
(0.0654232 -0.000126754 -0.000194832)
(0.0628914 -9.8443e-05 -0.000119224)
(0.0652728 -0.000105562 -0.000159411)
(0.06507 -8.2969e-05 -0.000117117)
(0.0644367 0.000101174 0.000251443)
(0.0819041 0.000145737 0.000305208)
(0.0664851 0.000121252 0.000291319)
(0.0642303 8.18823e-05 0.00022242)
(0.08177 0.000125881 0.000281319)
(0.0662655 0.000102142 0.000262385)
(0.0640478 6.52708e-05 0.000185939)
(0.0816466 0.00010685 0.000249367)
(0.0660716 8.32e-05 0.000223256)
(0.0638887 5.07347e-05 0.000146352)
(0.0815435 9.09203e-05 0.000215608)
(0.0659087 6.8192e-05 0.000185006)
(0.0814026 7.22902e-05 0.000174409)
(0.0656953 5.1668e-05 0.000141816)
(0.101286 0.000176031 0.000343439)
(0.109087 0.000179958 0.000422496)
(0.102532 0.000211382 0.000367911)
(0.10124 0.000158608 0.000321705)
(0.10911 0.000161827 0.00038825)
(0.102489 0.000194821 0.000341568)
(0.101194 0.000142083 0.000297257)
(0.109126 0.000145634 0.000357668)
(0.102442 0.00017723 0.000316057)
(0.10115 0.000120868 0.000260166)
(0.109138 0.000128177 0.000322344)
(0.102401 0.000157257 0.000286477)
(0.109147 0.000103203 0.000268005)
(0.102341 0.000128856 0.000240491)
(0.117476 0.000163934 0.000478068)
(0.120981 0.000101439 0.000435199)
(0.118157 0.000239256 0.000486798)
(0.117576 0.000151092 0.000442857)
(0.121124 9.42476e-05 0.000401585)
(0.118271 0.000223193 0.00045156)
(0.117667 0.000138094 0.000406967)
(0.121246 8.9021e-05 0.000372046)
(0.118366 0.000205084 0.000412407)
(0.117749 0.000123801 0.000370757)
(0.121359 8.30036e-05 0.000345301)
(0.118452 0.000185276 0.000375892)
(0.117822 0.000105865 0.000324386)
(0.121457 7.48947e-05 0.000314818)
(0.118526 0.000164419 0.000337713)
(0.121573 6.30348e-05 0.000271173)
(0.118612 0.000137164 0.000285659)
(0.124838 3.54503e-05 0.000370088)
(0.126403 -2.20662e-05 0.000325296)
(0.125292 0.000119871 0.000354106)
(0.124999 3.59149e-05 0.000341679)
(0.126583 -1.62554e-05 0.000299736)
(0.125464 0.000114242 0.0003269)
(0.125146 3.59176e-05 0.000317448)
(0.126744 -1.06685e-05 0.000278587)
(0.125617 0.000108264 0.000303345)
(0.125283 3.45725e-05 0.000293069)
(0.126893 -6.84964e-06 0.0002582)
(0.12576 0.000100635 0.000280562)
(0.125407 3.17738e-05 0.000263437)
(0.127027 -4.45763e-06 0.000236035)
(0.125887 9.21519e-05 0.000256314)
(0.127184 -3.02778e-06 0.000207643)
(0.126037 8.09634e-05 0.000224965)
(0.128201 -7.58742e-05 0.000252522)
(0.128586 -0.000128899 0.000185243)
(0.128585 9.44579e-06 0.000214487)
(0.128379 -6.54563e-05 0.000233099)
(0.128777 -0.000115699 0.000170139)
(0.128773 1.34509e-05 0.000199347)
(0.128544 -5.60151e-05 0.000215686)
(0.128948 -0.000103277 0.000156818)
(0.128945 1.63336e-05 0.000185644)
(0.128697 -4.80308e-05 0.000198137)
(0.129108 -9.21262e-05 0.000144077)
(0.129104 1.76798e-05 0.000171798)
(0.128836 -4.09048e-05 0.000178005)
(0.129253 -8.17756e-05 0.000131219)
(0.129249 1.79817e-05 0.000157037)
(0.129422 -7.21223e-05 0.000116501)
(0.129417 1.79371e-05 0.000139999)
(0.129164 -0.000168384 0.000103552)
(0.128591 -0.000220799 2.34484e-05)
(0.129547 -8.97403e-05 5.51854e-05)
(0.129346 -0.000153539 9.39205e-05)
(0.128781 -0.000202978 1.88993e-05)
(0.12974 -8.01932e-05 5.0442e-05)
(0.129516 -0.000139571 8.49826e-05)
(0.128952 -0.000186625 1.47058e-05)
(0.129916 -7.17428e-05 4.55973e-05)
(0.129673 -0.000126134 7.67886e-05)
(0.129112 -0.000170689 1.21964e-05)
(0.130081 -6.42926e-05 4.1159e-05)
(0.129817 -0.000113399 6.91027e-05)
(0.129258 -0.000154599 1.07118e-05)
(0.13023 -5.79281e-05 3.71217e-05)
(0.129427 -0.000137169 9.85165e-06)
(0.130407 -5.18431e-05 3.2957e-05)
(0.128209 -0.000255888 -6.19597e-05)
(0.126532 -0.000307441 -0.000151554)
(0.128591 -0.00018539 -0.000113595)
(0.128388 -0.000235629 -5.94997e-05)
(0.126711 -0.000281847 -0.000141541)
(0.12878 -0.000170753 -0.000106374)
(0.128553 -0.000216977 -5.67212e-05)
(0.126872 -0.000259731 -0.000133695)
(0.128952 -0.000157226 -0.000100714)
(0.128707 -0.000198438 -5.26252e-05)
(0.127022 -0.000238991 -0.00012428)
(0.129114 -0.000143937 -9.40142e-05)
(0.128846 -0.000177728 -4.7408e-05)
(0.127156 -0.000217328 -0.000112526)
(0.129261 -0.000130555 -8.60824e-05)
(0.127312 -0.000190438 -9.80315e-05)
(0.12943 -0.000115619 -7.77939e-05)
(0.125083 -0.00033208 -0.000228282)
(0.121575 -0.000374063 -0.000319892)
(0.125418 -0.000277767 -0.000276031)
(0.125244 -0.000305534 -0.00021438)
(0.121712 -0.000345807 -0.000300335)
(0.125591 -0.00025549 -0.000257969)
(0.125392 -0.000281383 -0.000200028)
(0.121832 -0.000318365 -0.000279136)
(0.125747 -0.000235447 -0.000242985)
(0.125528 -0.000257269 -0.000182617)
(0.121943 -0.000292494 -0.000254777)
(0.125892 -0.000215698 -0.000224969)
(0.125651 -0.00022924 -0.000161349)
(0.122039 -0.000264617 -0.00022674)
(0.12602 -0.000195082 -0.000203689)
(0.122151 -0.000226806 -0.000191133)
(0.12617 -0.000169555 -0.000177172)
(0.118391 -0.0003917 -0.000395906)
(0.110678 -0.000364848 -0.000428058)
(0.118626 -0.00036012 -0.000439649)
(0.118488 -0.000361092 -0.000367034)
(0.110701 -0.000340511 -0.000398284)
(0.118733 -0.000334309 -0.000409862)
(0.118575 -0.000331203 -0.000334944)
(0.110715 -0.000313445 -0.000364579)
(0.118828 -0.000306516 -0.000376334)
(0.118653 -0.00030135 -0.000299866)
(0.110726 -0.000285829 -0.000326656)
(0.118916 -0.000279039 -0.000340768)
(0.118721 -0.000263488 -0.000257345)
(0.110733 -0.000255466 -0.000284352)
(0.118989 -0.00024937 -0.000302267)
(0.110735 -0.000211731 -0.00022756)
(0.119072 -0.000209515 -0.000252903)
(0.103595 -0.000296327 -0.000398964)
(0.103732 -0.000292401 -0.000424145)
(0.10354 -0.000278448 -0.000369456)
(0.0849605 -0.000215431 -0.000338232)
(0.103681 -0.000274466 -0.000395623)
(0.103484 -0.000256658 -0.000334938)
(0.0848226 -0.00019699 -0.000298376)
(0.103628 -0.000254249 -0.000360728)
(0.10343 -0.000231758 -0.000295046)
(0.0846942 -0.000174532 -0.000257354)
(0.103575 -0.000231812 -0.000321482)
(0.10338 -0.000199993 -0.000245718)
(0.0845877 -0.000152902 -0.000218204)
(0.103527 -0.000205985 -0.000278521)
(0.0844453 -0.000126455 -0.000169588)
(0.103461 -0.0001704 -0.000222818)
(0.0682022 -0.000153255 -0.000288724)
(0.0683659 -0.0001505 -0.000314466)
(0.0679984 -0.000134593 -0.000243798)
(0.0681523 -0.000134536 -0.000268672)
(0.0678193 -0.000113692 -0.000201582)
(0.0679572 -0.000115915 -0.000222168)
(0.0676626 -9.29127e-05 -0.000157509)
(0.0677982 -9.91387e-05 -0.000180435)
(0.0675918 -7.8658e-05 -0.000130611)
(0.0683708 0.000120061 0.000304382)
(0.0851921 0.000181306 0.000348533)
(0.0684065 0.000131883 0.000317271)
(0.0681567 9.90523e-05 0.000266686)
(0.0850539 0.000159447 0.00031422)
(0.0681907 0.000107817 0.000280949)
(0.0679686 8.20683e-05 0.000225503)
(0.0849282 0.000138209 0.000275215)
(0.0679975 8.72245e-05 0.000239045)
(0.0678053 6.74653e-05 0.000182061)
(0.0848207 0.000120958 0.000239171)
(0.0678355 7.41701e-05 0.000200004)
(0.0846805 9.99943e-05 0.000195156)
(0.0676242 6.10916e-05 0.0001553)
(0.103754 0.000229509 0.000366949)
(0.111098 0.000269812 0.000425008)
(0.103673 0.000257101 0.000380113)
(0.10371 0.000211039 0.000337855)
(0.111121 0.000248817 0.000388455)
(0.103623 0.000236842 0.000349618)
(0.103666 0.000190624 0.000306741)
(0.111138 0.000225216 0.000351245)
(0.103572 0.000213951 0.000317505)
(0.103625 0.000164738 0.000267421)
(0.111154 0.00019994 0.000313506)
(0.103527 0.000190022 0.000282819)
(0.111166 0.000165066 0.000261039)
(0.103464 0.000157007 0.000233731)
(0.118847 0.000316168 0.000496148)
(0.122119 0.000269523 0.000427626)
(0.118963 0.000296546 0.000461956)
(0.122278 0.000250639 0.000398432)
(0.118623 0.000348344 0.00044471)
(0.119064 0.000275825 0.000422336)
(0.122419 0.000235169 0.000367263)
(0.118729 0.000328641 0.000410279)
(0.119157 0.000252094 0.00038175)
(0.122543 0.00021926 0.000336172)
(0.11882 0.000303999 0.000372645)
(0.119242 0.000226395 0.000342786)
(0.122658 0.000201341 0.000306418)
(0.118904 0.000277664 0.000336627)
(0.119316 0.000196107 0.000298957)
(0.12276 0.000181568 0.00027645)
(0.118974 0.000248315 0.000300166)
(0.122878 0.000155736 0.000238335)
(0.119055 0.000208384 0.000252657)
(0.125741 0.000207464 0.000336785)
(0.127225 0.000159289 0.000263912)
(0.125922 0.000194486 0.000313657)
(0.127427 0.000148861 0.000248099)
(0.125415 0.000262892 0.000282185)
(0.126085 0.000183592 0.000290589)
(0.127606 0.000142384 0.000232687)
(0.125583 0.000246707 0.000262719)
(0.126236 0.000171832 0.000267338)
(0.12777 0.000135576 0.000215652)
(0.125736 0.000233943 0.000243311)
(0.126375 0.000158373 0.000243863)
(0.127923 0.000127035 0.000197958)
(0.125878 0.000219113 0.000222974)
(0.126501 0.000141994 0.000217572)
(0.12806 0.000116791 0.00017952)
(0.126004 0.000201018 0.000201666)
(0.12822 0.000104148 0.000158823)
(0.12615 0.000176391 0.000175577)
(0.128961 9.91934e-05 0.000173026)
(0.129159 9.46273e-05 0.000163803)