/*--------------------------------*- C++ -*----------------------------------*\
| =========                 |                                                 |
| \\      /  F ield         | OpenFOAM: The Open Source CFD Toolbox           |
|  \\    /   O peration     | Version:  2212                                  |
|   \\  /    A nd           | Website:  www.openfoam.com                      |
|    \\/     M anipulation  |                                                 |
\*---------------------------------------------------------------------------*/
FoamFile
{
    version     2.0;
    format      ascii;
    arch        "LSB;label=32;scalar=64";
    class       surfaceScalarField;
    location    "2.2";
    object      phi;
}
// * * * * * * * * * * * * * * * * * * * * * * * * * * * * * * * * * * * * * //

dimensions      [0 3 -1 0 0 0 0];

oriented        oriented;

internalField   nonuniform List<scalar> 
1805
(
6.96652e-07
-1.89344e-08
1.17693e-07
7.1164e-07
-1.5025e-08
1.1816e-07
-1.21855e-08
1.18714e-07
1.11418e-06
-1.43431e-08
1.05494e-07
1.11735e-06
-1.43441e-08
1.05729e-07
-1.35495e-08
1.05944e-07
1.3881e-06
8.6573e-08
1.39302e-06
8.65692e-08
8.66282e-08
7.49476e-07
-6.34103e-09
1.10097e-07
7.62962e-07
-4.22e-09
1.08894e-07
7.74549e-07
-2.43106e-09
1.09558e-07
7.83222e-07
-9.18767e-10
1.10906e-07
7.8882e-07
6.17209e-10
1.12202e-07
7.91748e-07
1.93176e-09
1.13345e-07
7.92504e-07
3.04931e-09
1.14271e-07
7.91545e-07
3.98311e-09
1.14996e-07
7.89194e-07
4.74183e-09
1.15544e-07
7.85715e-07
5.43615e-09
1.15944e-07
7.81337e-07
6.01406e-09
1.16281e-07
6.46378e-09
1.16492e-07
1.15982e-06
2.66145e-09
9.65638e-08
1.16383e-06
2.39613e-09
9.51041e-08
1.16939e-06
2.97692e-09
9.49711e-08
1.17515e-06
3.66729e-09
9.55176e-08
1.1807e-06
4.37679e-09
9.63216e-08
1.18566e-06
5.10024e-09
9.72048e-08
1.18985e-06
5.79725e-09
9.80846e-08
1.19327e-06
6.37419e-09
9.88864e-08
1.19604e-06
6.81192e-09
9.95663e-08
1.19829e-06
7.20465e-09
1.00135e-07
1.20008e-06
7.58209e-09
1.00599e-07
7.92805e-09
1.00965e-07
1.43067e-06
7.82139e-08
1.43576e-06
7.76593e-08
1.4417e-06
7.75059e-08
1.448e-06
7.76532e-08
1.45431e-06
7.7988e-08
1.46047e-06
7.84217e-08
1.46636e-06
7.88983e-08
1.47189e-06
7.93616e-08
1.47705e-06
7.97748e-08
1.48189e-06
8.01343e-08
1.48648e-06
8.04468e-08
8.07148e-08
7.622e-07
8.60376e-09
9.21596e-08
7.69932e-07
1.10141e-08
9.01474e-08
7.75166e-07
1.22389e-08
9.20843e-08
7.77871e-07
1.2996e-08
9.52055e-08
7.78479e-07
1.36198e-08
9.79738e-08
7.77393e-07
1.41617e-08
1.00269e-07
7.74968e-07
1.46012e-08
1.02095e-07
7.71511e-07
1.49733e-08
1.0348e-07
7.67254e-07
1.53096e-08
1.0449e-07
7.62381e-07
1.56121e-08
1.05205e-07
7.57007e-07
1.58936e-08
1.05761e-07
1.61301e-08
1.06113e-07
1.14771e-06
2.37756e-08
8.09459e-08
1.15091e-06
2.41647e-08
7.87489e-08
1.15482e-06
2.46007e-08
7.87047e-08
1.1585e-06
2.48395e-08
7.99874e-08
1.16175e-06
2.5016e-08
8.1676e-08
1.16447e-06
2.51792e-08
8.34656e-08
1.16666e-06
2.52889e-08
8.52109e-08
1.16839e-06
2.53448e-08
8.6783e-08
1.16976e-06
2.53935e-08
8.81182e-08
1.17082e-06
2.54669e-08
8.92193e-08
1.17164e-06
2.55628e-08
9.01092e-08
2.5675e-08
9.08219e-08
1.40337e-06
3.21562e-08
6.54629e-08
1.40858e-06
3.23734e-08
6.42366e-08
1.41436e-06
3.25106e-08
6.38154e-08
1.42011e-06
3.24951e-08
6.42531e-08
1.42558e-06
3.23849e-08
6.51463e-08
1.43074e-06
3.22407e-08
6.61978e-08
1.43557e-06
3.20718e-08
6.72891e-08
1.44007e-06
3.1886e-08
6.83257e-08
1.44427e-06
3.17056e-08
6.92535e-08
1.44827e-06
3.15512e-08
7.00592e-08
1.4521e-06
3.14315e-08
7.07472e-08
3.13459e-08
7.1331e-08
1.58379e-06
3.49144e-08
4.51037e-08
1.59116e-06
3.49554e-08
4.48404e-08
1.59861e-06
3.4984e-08
4.47659e-08
1.60595e-06
3.49393e-08
4.49259e-08
1.61308e-06
3.48158e-08
4.52748e-08
1.61997e-06
3.46414e-08
4.57234e-08
1.6266e-06
3.44349e-08
4.62253e-08
1.63297e-06
3.42104e-08
4.67388e-08
1.6391e-06
3.39843e-08
4.72282e-08
1.64504e-06
3.37716e-08
4.76725e-08
1.65083e-06
3.35816e-08
4.80664e-08
3.34177e-08
4.84101e-08
1.69423e-06
3.26554e-08
2.1235e-08
1.70285e-06
3.26355e-08
2.14239e-08
1.71129e-06
3.26902e-08
2.15411e-08
1.7196e-06
3.27118e-08
2.15901e-08
1.72778e-06
3.26893e-08
2.16462e-08
1.73579e-06
3.26355e-08
2.17244e-08
1.74361e-06
3.25585e-08
2.18283e-08
1.75123e-06
3.24667e-08
2.19554e-08
1.75866e-06
3.23689e-08
2.20967e-08
1.76589e-06
3.22723e-08
2.22385e-08
1.77295e-06
3.21818e-08
2.23712e-08
3.21001e-08
2.2491e-08
1.73369e-06
2.76945e-08
-5.75009e-09
1.7419e-06
2.77181e-08
-5.61044e-09
1.75025e-06
2.76847e-08
-5.61321e-09
1.75867e-06
2.76716e-08
-5.61905e-09
1.76708e-06
2.76849e-08
-5.60689e-09
1.7754e-06
2.7717e-08
-5.5807e-09
1.7836e-06
2.77649e-08
-5.5454e-09
1.79165e-06
2.78244e-08
-5.49819e-09
1.79952e-06
2.78898e-08
-5.43954e-09
1.80721e-06
2.79556e-08
-5.37737e-09
1.81472e-06
2.8018e-08
-5.3199e-09
2.8076e-08
-5.26998e-09
1.69423e-06
2.12343e-08
-3.49115e-08
1.70285e-06
2.14216e-08
-3.49533e-08
1.71129e-06
2.15379e-08
-3.49814e-08
1.71961e-06
2.1586e-08
-3.49349e-08
1.72778e-06
2.16411e-08
-3.48088e-08
1.73579e-06
2.1718e-08
-3.46319e-08
1.74361e-06
2.18208e-08
-3.44233e-08
1.75123e-06
2.19464e-08
-3.41974e-08
1.75865e-06
2.2086e-08
-3.39705e-08
1.76588e-06
2.22254e-08
-3.37574e-08
1.77294e-06
2.23551e-08
-3.35675e-08
2.24732e-08
-3.34031e-08
1.58109e-06
1.62763e-08
-6.31677e-08
1.58772e-06
1.66281e-08
-6.34783e-08
1.5947e-06
1.65398e-08
-6.36114e-08
1.60177e-06
1.63874e-08
-6.34566e-08
1.60875e-06
1.62631e-08
-6.30746e-08
1.61556e-06
1.61538e-08
-6.25638e-08
1.62216e-06
1.60833e-08
-6.19876e-08
1.62851e-06
1.60621e-08
-6.14011e-08
1.63464e-06
1.6075e-08
-6.08458e-08
1.64056e-06
1.60919e-08
-6.03441e-08
1.64634e-06
1.6101e-08
-5.99058e-08
-5.95296e-08
1.38813e-06
1.43413e-08
-8.83512e-08
1.39306e-06
1.4326e-08
-8.92041e-08
1.39876e-06
1.35226e-08
-8.93061e-08
1.40453e-06
1.2747e-08
-8.86753e-08
1.4101e-06
1.20316e-08
-8.76828e-08
1.41536e-06
1.13555e-08
-8.65578e-08
1.42028e-06
1.07908e-08
-8.54224e-08
1.42482e-06
1.03924e-08
-8.43693e-08
1.42905e-06
1.01022e-08
-8.34582e-08
1.43304e-06
9.83779e-09
-8.26845e-08
9.59128e-09
-8.20434e-08
1.11419e-06
1.89447e-08
-1.07688e-07
1.11736e-06
1.50212e-08
-1.09597e-07
1.12203e-06
1.21606e-08
-1.09258e-07
1.12662e-06
1.00471e-08
-1.07766e-07
1.13075e-06
8.23978e-09
-1.05953e-07
1.1342e-06
6.76465e-09
-1.04178e-07
1.1369e-06
5.63926e-09
-1.02562e-07
1.13897e-06
4.79805e-09
-1.01152e-07
1.14057e-06
4.13057e-09
-1.00019e-07
1.1418e-06
3.61585e-09
-9.91342e-08
3.2331e-09
-9.8458e-08
6.96661e-07
-1.13876e-07
7.11666e-07
-1.18123e-07
7.22982e-07
-1.17859e-07
7.30137e-07
-1.15779e-07
7.33807e-07
-1.13875e-07
7.34809e-07
-1.12471e-07
7.33838e-07
-1.11484e-07
7.31393e-07
-1.10781e-07
7.27816e-07
-1.10217e-07
7.23437e-07
-1.09888e-07
-1.09685e-07
7.17637e-07
2.68854e-08
6.59954e-08
7.12946e-07
3.01071e-08
6.47309e-08
7.05419e-07
2.98511e-08
6.97602e-08
6.96554e-07
2.88348e-08
7.52358e-08
6.87359e-07
2.79317e-08
7.92366e-08
6.7835e-07
2.70709e-08
8.22072e-08
6.69768e-07
2.63289e-08
8.43475e-08
6.61725e-07
2.57635e-08
8.57592e-08
6.54175e-07
2.53413e-08
8.66984e-08
6.47029e-07
2.50266e-08
8.73253e-08
6.40171e-07
2.48163e-08
8.78017e-08
2.46604e-08
8.80949e-08
1.05245e-06
4.54471e-08
5.87603e-08
1.05759e-06
4.75897e-08
5.61199e-08
1.06037e-06
4.79058e-08
5.78763e-08
1.06079e-06
4.72121e-08
6.1185e-08
1.05992e-06
4.62901e-08
6.4186e-08
1.05836e-06
4.53492e-08
6.67489e-08
1.0565e-06
4.44371e-08
6.89643e-08
1.05461e-06
4.36465e-08
7.07902e-08
1.05284e-06
4.30064e-08
7.22195e-08
1.05125e-06
4.25023e-08
7.3333e-08
1.04987e-06
4.21224e-08
7.41825e-08
4.18282e-08
7.48772e-08
1.29298e-06
5.77353e-08
4.71732e-08
1.30034e-06
5.86102e-08
4.58563e-08
1.30662e-06
5.89988e-08
4.64399e-08
1.31139e-06
5.87044e-08
4.79985e-08
1.31499e-06
5.80407e-08
4.97919e-08
1.31777e-06
5.72596e-08
5.15067e-08
1.32e-06
5.64358e-08
5.30626e-08
1.32193e-06
5.56424e-08
5.43996e-08
1.32376e-06
5.49298e-08
5.55023e-08
1.32559e-06
5.43178e-08
5.64063e-08
1.32754e-06
5.38111e-08
5.71169e-08
5.33996e-08
5.77009e-08
1.4723e-06
6.31655e-08
3.43814e-08
1.47836e-06
6.34734e-08
3.39178e-08
1.48478e-06
6.36088e-08
3.37442e-08
1.49092e-06
6.34586e-08
3.4032e-08
1.49659e-06
6.30813e-08
3.45547e-08
1.50185e-06
6.25742e-08
3.51581e-08
1.50671e-06
6.20005e-08
3.57937e-08
1.51128e-06
6.14155e-08
3.63994e-08
1.51565e-06
6.08604e-08
3.69294e-08
1.51991e-06
6.0358e-08
3.7372e-08
1.52412e-06
5.99168e-08
3.77461e-08
5.95392e-08
3.80594e-08
1.58109e-06
6.16001e-08
1.62739e-08
1.58773e-06
6.16335e-08
1.66279e-08
1.5947e-06
6.16396e-08
1.65395e-08
1.60177e-06
6.1588e-08
1.63874e-08
1.60876e-06
6.14765e-08
1.6264e-08
1.61558e-06
6.13227e-08
1.61558e-08
1.62218e-06
6.11394e-08
1.60856e-08
1.62854e-06
6.09428e-08
1.6065e-08
1.63468e-06
6.07472e-08
1.60789e-08
1.64061e-06
6.05625e-08
1.60975e-08
1.6464e-06
6.03936e-08
1.61116e-08
6.02435e-08
1.61194e-08
1.61907e-06
5.50071e-08
-6.6509e-09
1.62652e-06
5.47766e-08
-6.21103e-09
1.63403e-06
5.46777e-08
-6.16012e-09
1.64158e-06
5.47026e-08
-6.28005e-09
1.64907e-06
5.48226e-08
-6.445e-09
1.65645e-06
5.49989e-08
-6.63349e-09
1.66366e-06
5.52056e-08
-6.82428e-09
1.67067e-06
5.54209e-08
-6.98093e-09
1.67744e-06
5.56273e-08
-7.09494e-09
1.684e-06
5.58159e-08
-7.19084e-09
1.69038e-06
5.59839e-08
-7.28563e-09
5.6132e-08
-7.38e-09
1.5838e-06
4.50969e-08
-3.21526e-08
1.59116e-06
4.4829e-08
-3.23721e-08
1.59861e-06
4.47552e-08
-3.25106e-08
1.60596e-06
4.49176e-08
-3.24946e-08
1.61309e-06
4.52687e-08
-3.23824e-08
1.61997e-06
4.57181e-08
-3.22359e-08
1.6266e-06
4.622e-08
-3.20648e-08
1.63297e-06
4.67327e-08
-3.18773e-08
1.6391e-06
4.72201e-08
-3.16957e-08
1.64504e-06
4.76611e-08
-3.15404e-08
1.65082e-06
4.80493e-08
-3.14202e-08
4.83895e-08
-3.13343e-08
1.47229e-06
3.43742e-08
-5.77369e-08
1.47835e-06
3.39056e-08
-5.86164e-08
1.48476e-06
3.37363e-08
-5.90009e-08
1.4909e-06
3.40285e-08
-5.87011e-08
1.49657e-06
3.45554e-08
-5.8033e-08
1.50181e-06
3.51616e-08
-5.72499e-08
1.50667e-06
3.57983e-08
-5.64242e-08
1.51123e-06
3.6404e-08
-5.56293e-08
1.51558e-06
3.69323e-08
-5.49159e-08
1.51983e-06
3.7372e-08
-5.43038e-08
1.52404e-06
3.77345e-08
-5.38003e-08
-5.33923e-08
1.28104e-06
2.42731e-08
-8.24636e-08
1.28649e-06
2.30627e-08
-8.38144e-08
1.29137e-06
2.27298e-08
-8.3183e-08
1.29522e-06
2.30308e-08
-8.15287e-08
1.29825e-06
2.34851e-08
-7.96336e-08
1.3007e-06
2.3948e-08
-7.78012e-08
1.30279e-06
2.44355e-08
-7.61424e-08
1.30467e-06
2.48651e-08
-7.47111e-08
1.30651e-06
2.51542e-08
-7.35253e-08
1.3084e-06
2.53552e-08
-7.25564e-08
2.54997e-08
-7.18221e-08
1.0135e-06
1.99731e-08
-1.01176e-07
1.01529e-06
1.52218e-08
-1.03538e-07
1.01679e-06
1.34091e-08
-1.01438e-07
1.01695e-06
1.27583e-08
-9.76569e-08
1.01618e-06
1.2381e-08
-9.40824e-08
1.01493e-06
1.21477e-08
-9.11272e-08
1.01355e-06
1.20476e-08
-8.87876e-08
1.01222e-06
1.20213e-08
-8.69846e-08
1.01107e-06
1.19424e-08
-8.56514e-08
1.01003e-06
1.19219e-08
-8.4669e-08
1.19225e-08
-8.39548e-08
6.11716e-07
-1.09678e-07
6.20857e-07
-1.12042e-07
6.23182e-07
-1.06775e-07
6.2116e-07
-1.01e-07
6.1695e-07
-9.72839e-08
6.11715e-07
-9.50882e-08
6.06e-07
-9.37218e-08
6.0012e-07
-9.28789e-08
5.9424e-07
-9.23949e-08
5.8841e-07
-9.21372e-08
-9.19865e-08
5.82902e-07
4.732e-08
3.45744e-08
5.5893e-07
4.88198e-08
3.98831e-08
5.35287e-07
4.41653e-08
4.92374e-08
5.15495e-07
4.00465e-08
5.49813e-08
4.99382e-07
3.72147e-08
5.81338e-08
4.86354e-07
3.51366e-08
6.00984e-08
4.75889e-07
3.35349e-08
6.12778e-08
4.67352e-07
3.23781e-08
6.19185e-08
4.60129e-07
3.15773e-08
6.23431e-08
4.53802e-07
3.0997e-08
6.26557e-08
4.481e-07
3.06028e-08
6.29005e-08
3.03175e-08
6.30643e-08
8.68702e-07
6.53057e-08
2.84985e-08
8.77311e-07
6.84371e-08
2.7894e-08
8.77303e-07
6.74297e-08
3.46191e-08
8.72493e-07
6.47752e-08
4.1266e-08
8.66116e-07
6.23756e-08
4.54024e-08
8.59556e-07
6.03524e-08
4.80934e-08
8.53486e-07
5.85855e-08
4.99828e-08
8.48208e-07
5.71261e-08
5.13207e-08
8.43753e-07
5.60167e-08
5.22347e-08
8.4002e-07
5.51726e-08
5.28908e-08
8.36845e-07
5.4585e-08
5.33751e-08
5.41096e-08
5.37937e-08
1.11393e-06
8.24576e-08
2.9198e-08
1.11761e-06
8.38039e-08
2.68024e-08
1.12018e-06
8.31797e-08
2.81287e-08
1.12053e-06
8.15324e-08
3.08849e-08
1.11953e-06
7.96437e-08
3.35272e-08
1.11793e-06
7.78174e-08
3.56451e-08
1.11621e-06
7.61624e-08
3.72062e-08
1.11468e-06
7.47325e-08
3.83146e-08
1.11354e-06
7.3546e-08
3.91129e-08
1.11282e-06
7.25768e-08
3.97277e-08
1.11251e-06
7.18314e-08
4.01823e-08
7.12335e-08
4.05372e-08
1.28106e-06
8.83429e-08
2.42779e-08
1.28653e-06
8.91908e-08
2.3068e-08
1.29142e-06
8.92978e-08
2.27272e-08
1.29529e-06
8.86741e-08
2.3025e-08
1.29833e-06
8.76894e-08
2.34738e-08
1.30079e-06
8.6571e-08
2.39352e-08
1.30289e-06
8.54394e-08
2.44235e-08
1.30478e-06
8.43883e-08
2.48515e-08
1.30664e-06
8.3477e-08
2.51406e-08
1.30854e-06
8.27016e-08
2.53407e-08
1.31057e-06
8.2052e-08
2.55015e-08
8.15166e-08
2.56246e-08
1.38812e-06
8.65714e-08
1.43321e-08
1.39306e-06
8.65642e-08
1.43193e-08
1.39876e-06
8.66173e-08
1.35152e-08
1.40454e-06
8.65458e-08
1.27409e-08
1.41011e-06
8.63557e-08
1.20276e-08
1.41538e-06
8.60997e-08
1.13529e-08
1.42031e-06
8.58087e-08
1.07868e-08
1.42488e-06
8.55023e-08
1.03864e-08
1.42912e-06
8.52148e-08
1.00946e-08
1.43313e-06
8.49587e-08
9.82952e-09
1.43697e-06
8.47334e-08
9.58808e-09
8.45396e-08
9.37209e-09
1.43068e-06
7.82103e-08
-2.66034e-09
1.43578e-06
7.76527e-08
-2.40096e-09
1.44173e-06
7.74972e-08
-2.98808e-09
1.44803e-06
7.76429e-08
-3.68039e-09
1.45435e-06
7.79752e-08
-4.38401e-09
1.46051e-06
7.84076e-08
-5.10095e-09
1.46641e-06
7.88846e-08
-5.79817e-09
1.47196e-06
7.93484e-08
-6.3776e-09
1.47713e-06
7.97604e-08
-6.81491e-09
1.48199e-06
8.01173e-08
-7.20605e-09
1.48659e-06
8.04258e-08
-7.58095e-09
8.06897e-08
-7.92441e-09
1.40337e-06
6.54551e-08
-2.37691e-08
1.40859e-06
6.42227e-08
-2.41599e-08
1.41437e-06
6.3804e-08
-2.46003e-08
1.42012e-06
6.4246e-08
-2.48426e-08
1.42559e-06
6.51422e-08
-2.50204e-08
1.43075e-06
6.61946e-08
-2.51831e-08
1.43557e-06
6.72864e-08
-2.52918e-08
1.44007e-06
6.83228e-08
-2.5347e-08
1.44428e-06
6.92487e-08
-2.53944e-08
1.44827e-06
7.00509e-08
-2.54658e-08
1.4521e-06
7.07316e-08
-2.55593e-08
7.13081e-08
-2.5671e-08
1.29297e-06
4.71599e-08
-4.54405e-08
1.30032e-06
4.58373e-08
-4.75834e-08
1.30659e-06
4.6431e-08
-4.78989e-08
1.31135e-06
4.79979e-08
-4.72059e-08
1.31494e-06
4.97977e-08
-4.62855e-08
1.31772e-06
5.15168e-08
-4.53473e-08
1.31994e-06
5.30749e-08
-4.44364e-08
1.32187e-06
5.44118e-08
-4.36449e-08
1.32369e-06
5.55114e-08
-4.30029e-08
1.32552e-06
5.64124e-08
-4.24969e-08
1.32746e-06
5.71086e-08
-4.21152e-08
-4.18273e-08
1.11389e-06
2.91876e-08
-6.52967e-08
1.11755e-06
2.67844e-08
-6.84226e-08
1.12009e-06
2.81218e-08
-6.74082e-08
1.12042e-06
3.08858e-08
-6.47526e-08
1.11941e-06
3.35382e-08
-6.23587e-08
1.1178e-06
3.56662e-08
-6.03443e-08
1.11608e-06
3.72306e-08
-5.85827e-08
1.11457e-06
3.83381e-08
-5.71214e-08
1.11343e-06
3.91321e-08
-5.60093e-08
1.1127e-06
3.97515e-08
-5.51636e-08
4.01884e-08
-5.45707e-08
8.4484e-07
8.82472e-09
-8.80478e-08
8.49918e-07
6.18693e-09
-8.80184e-08
8.47856e-07
1.0104e-08
-8.13577e-08
8.41869e-07
1.38934e-08
-7.46784e-08
8.35012e-07
1.65047e-08
-7.01915e-08
8.28532e-07
1.81596e-08
-6.71404e-08
8.22871e-07
1.91785e-08
-6.5075e-08
8.18157e-07
1.9762e-08
-6.3695e-08
8.14275e-07
2.01473e-08
-6.2784e-08
8.1105e-07
2.04376e-08
-6.21309e-08
2.06537e-08
-6.16619e-08
4.98951e-07
-9.73248e-08
4.84234e-07
-9.11392e-08
4.67948e-07
-8.0384e-08
4.53674e-07
-7.28327e-08
4.42202e-07
-6.93068e-08
4.32994e-07
-6.7721e-08
4.25453e-07
-6.70024e-08
4.19048e-07
-6.67126e-08
4.13395e-07
-6.65939e-08
4.08226e-07
-6.65315e-08
-6.65022e-08
3.53992e-07
6.43365e-08
1.23744e-08
3.141e-07
5.79632e-08
2.18124e-08
2.88095e-07
4.7906e-08
2.73355e-08
2.72155e-07
4.16907e-08
2.92305e-08
2.61484e-07
3.82206e-08
3.05845e-08
2.53891e-07
3.60116e-08
3.16795e-08
2.48079e-07
3.46846e-08
3.2405e-08
2.43237e-07
3.39438e-08
3.28163e-08
2.3902e-07
3.34824e-08
3.30779e-08
2.35267e-07
3.31457e-08
3.32623e-08
2.31871e-07
3.28891e-08
3.34071e-08
3.26789e-08
3.35144e-08
6.26952e-07
8.80527e-08
-2.32564e-10
6.20875e-07
8.80314e-08
3.90259e-09
6.07699e-07
8.13756e-08
1.43252e-08
5.93899e-07
7.46903e-08
2.20663e-08
5.81833e-07
7.01987e-08
2.54906e-08
5.71854e-07
6.71468e-08
2.69367e-08
5.63785e-07
6.50801e-08
2.76562e-08
5.5724e-07
6.37021e-08
2.81081e-08
5.51737e-07
6.27839e-08
2.84361e-08
5.4692e-07
6.2144e-08
2.87089e-08
5.42586e-07
6.16697e-08
2.89291e-08
6.13068e-08
2.91284e-08
8.44844e-07
1.01177e-07
8.8213e-09
8.49958e-07
1.0354e-07
6.18018e-09
8.47932e-07
1.01444e-07
1.00871e-08
8.41969e-07
9.76628e-08
1.38755e-08
8.35112e-07
9.4092e-08
1.64908e-08
8.28614e-07
9.11399e-08
1.81497e-08
8.22929e-07
8.88e-08
1.91718e-08
8.18193e-07
8.69963e-08
1.97566e-08
8.14291e-07
8.56602e-08
2.01382e-08
8.11056e-07
8.46829e-08
2.04239e-08
8.08306e-07
8.39575e-08
2.06443e-08
8.34162e-08
2.08174e-08
1.01354e-06
1.07689e-07
1.9959e-08
1.01535e-06
1.09597e-07
1.5201e-08
1.01687e-06
1.0926e-07
1.33859e-08
1.01705e-06
1.07769e-07
1.27376e-08
1.0163e-06
1.05959e-07
1.2365e-08
1.01505e-06
1.04186e-07
1.21383e-08
1.01366e-06
1.02572e-07
1.20417e-08
1.01233e-06
1.01165e-07
1.20134e-08
1.01117e-06
1.00031e-07
1.19294e-08
1.01014e-06
9.91477e-08
1.19053e-08
1.00922e-06
9.84639e-08
1.19079e-08
9.79389e-08
1.19223e-08
1.11418e-06
1.05499e-07
1.89343e-08
1.11735e-06
1.05738e-07
1.50101e-08
1.12202e-06
1.05955e-07
1.21494e-08
1.12662e-06
1.05872e-07
1.00364e-08
1.13075e-06
1.05624e-07
8.22799e-09
1.13421e-06
1.05329e-07
6.75328e-09
1.13693e-06
1.05019e-07
5.62496e-09
1.139e-06
1.04696e-07
4.78008e-09
1.14062e-06
1.04396e-07
4.10644e-09
1.14187e-06
1.04144e-07
3.58894e-09
1.14278e-06
1.0394e-07
3.20581e-09
1.03777e-07
2.90644e-09
1.15982e-06
9.6567e-08
6.34747e-09
1.16382e-06
9.51114e-08
4.22254e-09
1.16938e-06
9.49801e-08
2.4254e-09
1.17514e-06
9.55266e-08
9.03854e-10
1.18069e-06
9.63276e-08
-6.37597e-10
1.18567e-06
9.72075e-08
-1.95253e-09
1.18987e-06
9.80852e-08
-3.0714e-09
1.19331e-06
9.88857e-08
-4.00591e-09
1.1961e-06
9.95634e-08
-4.76605e-09
1.19837e-06
1.00128e-07
-5.46228e-09
1.20018e-06
1.00587e-07
-6.03566e-09
1.00945e-07
-6.47961e-09
1.14771e-06
8.09502e-08
-8.59823e-09
1.15091e-06
7.87573e-08
-1.10089e-08
1.15481e-06
7.87144e-08
-1.22368e-08
1.1585e-06
7.99963e-08
-1.29974e-08
1.16175e-06
8.16826e-08
-1.36252e-08
1.16447e-06
8.34693e-08
-1.41694e-08
1.16667e-06
8.52123e-08
-1.46099e-08
1.1684e-06
8.67832e-08
-1.49824e-08
1.16977e-06
8.81168e-08
-1.53181e-08
1.17084e-06
8.92147e-08
-1.56194e-08
1.17166e-06
9.01005e-08
-1.58973e-08
9.0801e-08
-1.61322e-08
1.05245e-06
5.87667e-08
-2.68814e-08
1.0576e-06
5.6133e-08
-3.01033e-08
1.06037e-06
5.78925e-08
-2.98468e-08
1.06079e-06
6.12016e-08
-2.8832e-08
1.05992e-06
6.41991e-08
-2.79315e-08
1.05836e-06
6.67555e-08
-2.70724e-08
1.0565e-06
6.89659e-08
-2.63314e-08
1.05461e-06
7.07919e-08
-2.57664e-08
1.05285e-06
7.22208e-08
-2.53418e-08
1.05125e-06
7.33316e-08
-2.50228e-08
1.04986e-06
7.41844e-08
-2.48072e-08
-2.4642e-08
8.68716e-07
2.8511e-08
-4.73187e-08
8.77324e-07
2.79166e-08
-4.88143e-08
8.77315e-07
3.46448e-08
-4.41515e-08
8.72506e-07
4.12874e-08
-4.00295e-08
8.66133e-07
4.54146e-08
-3.72017e-08
8.59579e-07
4.80965e-08
-3.51317e-08
8.53517e-07
4.99813e-08
-3.35361e-08
8.48243e-07
5.13236e-08
-3.23793e-08
8.43793e-07
5.2234e-08
-3.15729e-08
8.40051e-07
5.28991e-08
-3.09894e-08
5.33906e-08
-3.05863e-08
6.26997e-07
-2.32692e-10
-6.43398e-08
6.20958e-07
3.90186e-09
-5.79652e-08
6.07821e-07
1.43276e-08
-4.79035e-08
5.94047e-07
2.20716e-08
-4.16888e-08
5.81993e-07
2.54946e-08
-3.82176e-08
5.72016e-07
2.69401e-08
-3.60077e-08
5.63945e-07
2.76594e-08
-3.46817e-08
5.57399e-07
2.8114e-08
-3.39398e-08
5.51892e-07
2.84386e-08
-3.3482e-08
5.47086e-07
2.87151e-08
-3.31407e-08
2.89348e-08
-3.28836e-08
3.31007e-07
-6.18471e-08
2.92661e-07
-4.88917e-08
2.6662e-07
-4.00161e-08
2.51687e-07
-3.58283e-08
2.42404e-07
-3.45293e-08
2.36015e-07
-3.43913e-08
2.3116e-07
-3.4488e-08
2.27118e-07
-3.4557e-08
2.23558e-07
-3.45954e-08
2.20353e-07
-3.46115e-08
-3.4627e-08
1.34254e-07
6.18443e-08
1.07178e-07
4.88875e-08
9.45061e-08
4.00078e-08
8.79126e-08
3.5824e-08
8.3971e-08
3.4526e-08
8.12613e-08
3.43892e-08
7.91785e-08
3.44877e-08
7.74365e-08
3.45583e-08
7.59172e-08
3.45971e-08
7.45656e-08
3.46139e-08
7.33434e-08
3.46293e-08
3.46376e-08
3.3098e-07
9.73234e-08
2.92634e-07
9.11356e-08
2.66581e-07
8.03855e-08
2.51631e-07
7.28403e-08
2.42335e-07
6.93135e-08
2.35936e-07
6.77246e-08
2.31077e-07
6.70026e-08
2.27033e-07
6.67104e-08
2.23469e-07
6.65978e-08
2.20255e-07
6.65364e-08
2.17306e-07
6.65078e-08
6.65138e-08
4.98868e-07
1.09708e-07
4.84096e-07
1.12087e-07
4.67748e-07
1.06821e-07
4.53428e-07
1.01036e-07
4.41933e-07
9.72995e-08
4.32723e-07
9.50836e-08
4.25192e-07
9.37062e-08
4.18797e-07
9.2862e-08
4.13146e-07
9.23867e-08
4.07971e-07
9.21351e-08
4.0313e-07
9.19932e-08
9.19168e-08
6.11656e-07
1.1391e-07
6.20776e-07
1.18168e-07
6.23084e-07
1.179e-07
6.21049e-07
1.15809e-07
6.16823e-07
1.13891e-07
6.11569e-07
1.12476e-07
6.05832e-07
1.11485e-07
5.99925e-07
1.10783e-07
5.94017e-07
1.10224e-07
5.88155e-07
1.09902e-07
5.82349e-07
1.09707e-07
1.09578e-07
6.96684e-07
1.17695e-07
7.11696e-07
1.18165e-07
7.23014e-07
1.18731e-07
7.30165e-07
1.18694e-07
7.33821e-07
1.18463e-07
7.34802e-07
1.18248e-07
7.33802e-07
1.1811e-07
7.31322e-07
1.18043e-07
7.27706e-07
1.17947e-07
7.23286e-07
1.1791e-07
7.1828e-07
1.17918e-07
1.17902e-07
7.49498e-07
1.10098e-07
7.62992e-07
1.08894e-07
7.74588e-07
1.09561e-07
7.83269e-07
1.10917e-07
7.8887e-07
1.12224e-07
7.91792e-07
1.13373e-07
7.92531e-07
1.14299e-07
7.91549e-07
1.1502e-07
7.89169e-07
1.15561e-07
7.85663e-07
1.15955e-07
7.81262e-07
1.16284e-07
1.16489e-07
7.62214e-07
9.21659e-08
7.69944e-07
9.01546e-08
7.75177e-07
9.20913e-08
7.77883e-07
9.52126e-08
7.78498e-07
9.7984e-08
7.7742e-07
1.00282e-07
7.75e-07
1.02109e-07
7.71544e-07
1.03492e-07
7.67286e-07
1.04501e-07
7.62408e-07
1.05213e-07
7.57028e-07
1.05766e-07
1.06118e-07
7.17654e-07
6.60033e-08
7.12965e-07
6.474e-08
7.0544e-07
6.97695e-08
6.96578e-07
7.52425e-08
6.87389e-07
7.92421e-08
6.78385e-07
8.22129e-08
6.6981e-07
8.43523e-08
6.61774e-07
8.57623e-08
6.5423e-07
8.67027e-08
6.47088e-07
8.73327e-08
6.40236e-07
8.7811e-08
5.82919e-07
3.45814e-08
5.58953e-07
3.98916e-08
5.3532e-07
4.92513e-08
5.15536e-07
5.49964e-08
4.99429e-07
5.81473e-08
4.86404e-07
6.01067e-08
4.75939e-07
6.12805e-08
4.67404e-07
6.19176e-08
4.60187e-07
6.23473e-08
4.53871e-07
6.26587e-08
6.29071e-08
3.54008e-07
1.2378e-08
3.14117e-07
2.18167e-08
2.88124e-07
2.7341e-08
2.72195e-07
2.92361e-08
2.61534e-07
3.05911e-08
2.53947e-07
3.1685e-08
2.48138e-07
3.24082e-08
2.43298e-07
3.28177e-08
2.39084e-07
3.30792e-08
2.35337e-07
3.32641e-08
3.34078e-08
1.34262e-07
1.07187e-07
9.45121e-08
8.79199e-08
8.39816e-08
8.12753e-08
7.91955e-08
7.74561e-08
7.59399e-08
7.45926e-08
)
;

boundaryField
{
    inlet
    {
        type            calculated;
        value           nonuniform List<scalar> 0();
    }
    ami1
    {
        type            cyclicAMI;
        value           nonuniform List<scalar> 0();
    }
    walls
    {
        type            calculated;
        value           nonuniform List<scalar> 
259
(
-6.40674e-15
-1.28555e-14
-1.84387e-14
-2.43942e-14
-2.90979e-14
-6.40674e-15
-1.28555e-14
-1.84387e-14
-2.43942e-14
-2.90979e-14
-6.40674e-15
-1.28555e-14
-1.84387e-14
-2.43942e-14
-2.90979e-14
-6.40674e-15
-1.28555e-14
-1.84387e-14
-2.43942e-14
-2.90979e-14
-6.40674e-15
-1.28555e-14
-1.84387e-14
-2.43942e-14
-2.90979e-14
-6.40674e-15
-1.28555e-14
-1.84387e-14
-2.43942e-14
-2.90979e-14
-6.40674e-15
-1.28555e-14
-1.84387e-14
-2.43942e-14
-2.90979e-14
-6.40674e-15
-1.28555e-14
-1.84387e-14
-2.43942e-14
-2.90979e-14
-6.40674e-15
-1.28555e-14
-1.84387e-14
-2.43942e-14
-2.90979e-14
-6.40674e-15
-1.28555e-14
-1.84387e-14
-2.43942e-14
-2.90979e-14
-6.40674e-15
-1.28555e-14
-1.84387e-14
-2.43942e-14
-2.90979e-14
-2.90979e-14
-2.43942e-14
-1.84387e-14
-1.28555e-14
-6.40674e-15
3.84203e-22
6.40674e-15
1.28555e-14
1.84387e-14
2.43942e-14
2.90979e-14
-2.90979e-14
-2.43942e-14
-1.84387e-14
-1.28555e-14
-6.40674e-15
1.67763e-22
6.40674e-15
1.28555e-14
1.84387e-14
2.43942e-14
2.90979e-14
-2.90979e-14
-2.43942e-14
-1.84387e-14
-1.28555e-14
-6.40674e-15
3.8438e-22
6.40674e-15
1.28555e-14
1.84387e-14
2.43942e-14
2.90979e-14
-2.90979e-14
-2.43942e-14
-1.84387e-14
-1.28555e-14
-6.40674e-15
4.61832e-22
6.40674e-15
1.28555e-14
1.84387e-14
2.43942e-14
2.90979e-14
-2.90979e-14
-2.43942e-14
-1.84387e-14
-1.28555e-14
-6.40674e-15
3.86093e-22
6.40674e-15
1.28555e-14
1.84387e-14
2.43942e-14
2.90979e-14
-2.90979e-14
-2.43942e-14
-1.84387e-14
-1.28555e-14
-6.40674e-15
1.67843e-22
6.40674e-15
1.28555e-14
1.84387e-14
2.43942e-14
2.90979e-14
-2.90979e-14
-2.43942e-14
-1.84387e-14
-1.28555e-14
-6.40674e-15
3.85156e-22
6.40674e-15
1.28555e-14
1.84387e-14
2.43942e-14
2.90979e-14
-2.90979e-14
-2.43942e-14
-1.84387e-14
-1.28555e-14
-6.40674e-15
3.85156e-22
6.40674e-15
1.28555e-14
1.84387e-14
2.43942e-14
2.90979e-14
-2.90979e-14
-2.43942e-14
-1.84387e-14
-1.28555e-14
-6.40674e-15
3.86093e-22
6.40674e-15
1.28555e-14
1.84387e-14
2.43942e-14
2.90979e-14
-2.90979e-14
-2.43942e-14
-1.84387e-14
-1.28555e-14
-6.40674e-15
5.37667e-22
6.40674e-15
1.28555e-14
1.84387e-14
2.43942e-14
2.90979e-14
-2.90979e-14
-2.43942e-14
-1.84387e-14
-1.28555e-14
-6.40674e-15
3.84542e-22
6.40674e-15
1.28555e-14
1.84387e-14
2.43942e-14
2.90979e-14
-2.90979e-14
-2.43942e-14
-1.84387e-14
-1.28555e-14
-6.40674e-15
3.84542e-22
6.40674e-15
1.28555e-14
-6.40674e-15
3.84203e-22
6.40674e-15
1.28555e-14
1.84387e-14
2.43942e-14
2.90979e-14
-6.40674e-15
1.67763e-22
6.40674e-15
1.28555e-14
1.84387e-14
2.43942e-14
2.90979e-14
-6.40674e-15
3.8438e-22
6.40674e-15
1.28555e-14
1.84387e-14
2.43942e-14
2.90979e-14
4.61832e-22
6.40674e-15
1.28555e-14
1.84387e-14
2.43942e-14
2.90979e-14
3.86093e-22
6.40674e-15
1.28555e-14
1.84387e-14
2.43942e-14
2.90979e-14
1.67843e-22
6.40674e-15
1.28555e-14
1.84387e-14
2.43942e-14
2.90979e-14
3.85156e-22
6.40674e-15
1.28555e-14
1.84387e-14
2.43942e-14
2.90979e-14
3.85156e-22
6.40674e-15
1.28555e-14
1.84387e-14
2.43942e-14
2.90979e-14
3.86093e-22
6.40674e-15
1.28555e-14
1.84387e-14
2.43942e-14
2.90979e-14
5.37667e-22
6.40674e-15
1.28555e-14
1.84387e-14
2.43942e-14
2.90979e-14
3.84542e-22
6.40674e-15
1.28555e-14
1.84387e-14
2.43942e-14
2.90979e-14
3.84542e-22
6.40674e-15
1.28555e-14
1.84387e-14
2.43942e-14
2.90979e-14
)
;
    }
    ami2
    {
        type            cyclicAMI;
        value           nonuniform List<scalar> 
61
(
-6.81521e-07
-1.11659e-06
-1.3844e-06
-7.35539e-07
-1.15989e-06
-1.4263e-06
-7.52866e-07
-1.14726e-06
-1.399e-06
-1.57664e-06
-1.68551e-06
-1.72537e-06
-1.68551e-06
-1.57456e-06
-1.38441e-06
-1.1166e-06
-6.8152e-07
-7.18358e-07
-1.04882e-06
-1.28698e-06
-1.46701e-06
-1.57456e-06
-1.61157e-06
-1.57664e-06
-1.467e-06
-1.27682e-06
-1.01572e-06
-5.95941e-07
-5.98801e-07
-8.56426e-07
-1.1131e-06
-1.27684e-06
-1.38441e-06
-1.42631e-06
-1.399e-06
-1.28697e-06
-1.11308e-06
-8.37606e-07
-5.02479e-07
-3.96129e-07
-6.21937e-07
-8.37592e-07
-1.01573e-06
-1.11659e-06
-1.1599e-06
-1.14726e-06
-1.04883e-06
-8.56438e-07
-6.21961e-07
-3.66717e-07
-1.83723e-07
-3.66691e-07
-5.0243e-07
-5.959e-07
-6.81534e-07
-7.35554e-07
-7.5288e-07
-7.18373e-07
-5.98816e-07
-3.96144e-07
-1.83731e-07
)
;
    }
    outlet
    {
        type            calculated;
        value           nonuniform List<scalar> 0();
    }
    procBoundary1to0
    {
        type            processor;
        value           nonuniform List<scalar> 
138
(
7.22941e-07
-1.18661e-07
-1.18417e-07
-1.18204e-07
-1.18076e-07
-1.1802e-07
-1.17935e-07
-1.17901e-07
-1.17917e-07
-1.17908e-07
1.12203e-06
-1.05865e-07
-1.05624e-07
-1.05334e-07
-1.05024e-07
-1.04701e-07
-1.04404e-07
-1.04157e-07
-1.03958e-07
-1.038e-07
-1.6275e-08
-1.66292e-08
1.39871e-06
-1.65407e-08
-8.65636e-08
-8.63782e-08
-8.61204e-08
-8.58254e-08
-8.55166e-08
-8.5229e-08
-8.49749e-08
-8.47529e-08
-8.45631e-08
6.65368e-09
6.2126e-09
6.15983e-09
6.28093e-09
6.45042e-09
6.64299e-09
6.83537e-09
6.99246e-09
7.10726e-09
7.20415e-09
7.30007e-09
7.39558e-09
-5.50116e-08
-5.47847e-08
-5.46881e-08
-5.47143e-08
-5.48349e-08
-5.50116e-08
-5.52183e-08
-5.54342e-08
-5.56422e-08
-5.58333e-08
-5.60044e-08
-5.61552e-08
-2.7696e-08
-2.7721e-08
-2.76896e-08
-2.76783e-08
-2.76932e-08
-2.77266e-08
-2.77757e-08
-2.78366e-08
-2.79037e-08
-2.79715e-08
-2.80362e-08
-2.8096e-08
2.38862e-09
2.31581e-09
2.26716e-09
2.2359e-09
2.20884e-09
2.17485e-09
2.13658e-09
2.09488e-09
2.05067e-09
2.0063e-09
1.96418e-09
1.92548e-09
3.26512e-08
3.26306e-08
3.26843e-08
3.27043e-08
3.26802e-08
3.26247e-08
3.25463e-08
3.24537e-08
3.23554e-08
3.22586e-08
3.21681e-08
3.2086e-08
6.15996e-08
6.16341e-08
6.16385e-08
6.1584e-08
6.14694e-08
6.13133e-08
6.11287e-08
6.09315e-08
6.07362e-08
6.05524e-08
6.03851e-08
6.02354e-08
8.65723e-08
8.65697e-08
8.6622e-08
8.65464e-08
8.63516e-08
8.60916e-08
8.57984e-08
8.54911e-08
8.52037e-08
8.49488e-08
8.47268e-08
1.05492e-07
1.05734e-07
1.05951e-07
1.05868e-07
1.05619e-07
1.05322e-07
1.05008e-07
1.04682e-07
1.04381e-07
1.04129e-07
1.03926e-07
1.17679e-07
1.18139e-07
1.18704e-07
1.18672e-07
1.18445e-07
1.18234e-07
1.18094e-07
1.18024e-07
1.17925e-07
1.17883e-07
1.1789e-07
)
;
    }
    procBoundary1to2
    {
        type            processor;
        value           nonuniform List<scalar> 9(-1.1389e-07 -1.18123e-07 -1.17829e-07 -1.07679e-07 -1.09584e-07 -1.09252e-07 -8.83466e-08 -8.92056e-08 -8.93278e-08);
    }
    procBoundary1to8
    {
        type            processor;
        value           nonuniform List<scalar> 
33
(
7.76289e-07
1.20146e-06
1.49086e-06
7.51255e-07
1.17224e-06
1.45581e-06
1.6565e-06
1.77988e-06
1.82209e-06
6.33529e-07
1.04865e-06
1.32959e-06
1.52833e-06
1.65206e-06
1.6966e-06
4.42813e-07
8.34136e-07
1.11255e-06
1.31272e-06
1.4407e-06
1.49099e-06
2.28742e-07
5.38623e-07
8.05916e-07
1.0084e-06
1.1434e-06
1.20156e-06
7.22202e-08
2.14558e-07
3.98545e-07
5.7661e-07
7.12862e-07
7.76196e-07
)
;
    }
    procBoundary1to9
    {
        type            processor;
        value           nonuniform List<scalar> 
30
(
1.77986e-06
1.65199e-06
1.61084e-08
1.43687e-06
1.14269e-06