/*--------------------------------*- C++ -*----------------------------------*\
| =========                 |                                                 |
| \\      /  F ield         | OpenFOAM: The Open Source CFD Toolbox           |
|  \\    /   O peration     | Version:  2212                                  |
|   \\  /    A nd           | Website:  www.openfoam.com                      |
|    \\/     M anipulation  |                                                 |
\*---------------------------------------------------------------------------*/
FoamFile
{
    version     2.0;
    format      ascii;
    arch        "LSB;label=32;scalar=64";
    class       volScalarField;
    location    "1.6";
    object      epsilon;
}
// * * * * * * * * * * * * * * * * * * * * * * * * * * * * * * * * * * * * * //

dimensions      [0 2 -3 0 0 0 0];

internalField   nonuniform List<scalar> 
6840
(
90.5034
12.1248
4.38869
2.46658
1.63315
1.18306
0.902005
0.720648
0.594563
0.502466
0.432619
0.379192
0.336152
0.299592
0.269736
0.245401
0.225261
0.208313
0.194159
0.178936
58.5856
14.5696
6.08946
3.33295
2.08217
1.40266
0.998643
0.740273
0.565886
0.443903
0.35599
0.290882
0.241342
0.202913
0.172979
0.149634
0.131049
0.116015
0.103915
0.0941615
45.0226
13.4729
5.73075
3.07322
1.86023
1.22699
0.873573
0.649775
0.497009
0.389479
0.311287
0.252973
0.208976
0.175208
0.148815
0.127874
0.111096
0.0975204
0.0865065
0.077801
38.7028
13.0541
5.74336
3.08733
1.88066
1.2275
0.869481
0.64539
0.4926
0.384791
0.30704
0.249065
0.205006
0.171029
0.144461
0.123416
0.106548
0.0928854
0.0817755
0.0734624
36.0571
12.8529
5.76645
3.10212
1.89476
1.2267
0.866515
0.644002
0.492276
0.383998
0.305845
0.247985
0.204009
0.170071
0.143508
0.122445
0.105545
0.091842
0.0806734
0.0719652
36.0571
12.8529
5.76645
3.10212
1.89476
1.2267
0.866515
0.644003
0.492276
0.383999
0.305845
0.247983
0.204006
0.170063
0.143494
0.122427
0.105521
0.091811
0.0806532
0.0720753
38.7028
13.0541
5.74336
3.08733
1.88067
1.22751
0.869483
0.64539
0.4926
0.384791
0.307039
0.249062
0.204998
0.171011
0.144433
0.123377
0.106491
0.0928013
0.0816599
0.0733324
45.0226
13.4729
5.73075
3.07323
1.86023
1.22699
0.873574
0.649775
0.497009
0.389477
0.311285
0.252968
0.208964
0.175187
0.148782
0.127826
0.111025
0.0974108
0.0863205
0.0774783
58.5856
14.5696
6.08946
3.33295
2.08217
1.40266
0.998643
0.740272
0.565885
0.443901
0.355987
0.290876
0.241334
0.202881
0.172939
0.14958
0.130966
0.115884
0.103721
0.0939174
90.5034
12.1248
4.38869
2.46658
1.63315
1.18306
0.902004
0.720648
0.594562
0.502466
0.432618
0.379189
0.336156
0.299585
0.269736
0.245401
0.22526
0.208311
0.194155
0.178927
58.5856
14.5696
6.08946
3.33295
2.08217
1.40266
0.998643
0.740273
0.565886
0.443902
0.355987
0.290877
0.241333
0.202889
0.172939
0.149578
0.130965
0.115883
0.103719
0.093919
16.5373
9.49238
5.0127
2.8606
1.75746
1.14759
0.786927
0.562044
0.41536
0.315937
0.246319
0.196203
0.159193
0.131212
0.109725
0.0931167
0.0800351
0.0695543
0.0603109
0.0549371
13.6679
8.73671
5.07741
3.05388
1.92223
1.26609
0.869289
0.618631
0.453959
0.342034
0.26365
0.207311
0.165901
0.134846
0.111145
0.092683
0.0781567
0.0666216
0.0571491
0.0497571
12.9054
8.33993
5.07879
3.15547
2.02775
1.35121
0.933541
0.666464
0.489552
0.368603
0.283614
0.222399
0.177342
0.143544
0.117765
0.0977869
0.0820983
0.069628
0.0595916
0.051388
12.6882
8.1544
5.07113
3.20039
2.0794
1.39506
0.967837
0.692729
0.509646
0.384027
0.295517
0.231664
0.184612
0.149284
0.122313
0.101415
0.0849998
0.0719481
0.0614568
0.0529569
12.6882
8.1544
5.07113
3.20039
2.0794
1.39506
0.967835
0.692726
0.509644
0.384024
0.295513
0.231659
0.184606
0.149274
0.122297
0.101399
0.0849819
0.0719269
0.0614319
0.0529215
12.9054
8.33993
5.07879
3.15547
2.02775
1.3512
0.933538
0.666459
0.489548
0.368598
0.283607
0.22239
0.177328
0.14352
0.117735
0.0977553
0.0820614
0.0695838
0.0595351
0.0512274
13.6679
8.73671
5.0774
3.05388
1.92223
1.26609
0.869287
0.618628
0.453956
0.34203
0.263645
0.207305
0.165892
0.134831
0.11112
0.0926576
0.078128
0.0665896
0.0570959
0.049761
16.5373
9.49238
5.0127
2.8606
1.75746
1.14759
0.786927
0.562044
0.41536
0.315937
0.246319
0.196203
0.159193
0.131216
0.109721
0.093116
0.0800359
0.0695556
0.0603134
0.0549435
58.5856
14.5696
6.08946
3.33295
2.08217
1.40266
0.998643
0.740272
0.565886
0.443902
0.355989
0.290882
0.241342
0.20291
0.172979
0.149636
0.131051
0.116018
0.103917
0.0941666
45.0226
13.4729
5.73075
3.07323
1.86023
1.22699
0.873574
0.649776
0.497009
0.389478
0.311285
0.252969
0.208967
0.175191
0.14878
0.127824
0.111024
0.0974113
0.0863219
0.0774781
13.6679
8.73671
5.0774
3.05388
1.92223
1.26609
0.869287
0.618628
0.453956
0.34203
0.263645
0.207304
0.165892
0.134832
0.111118
0.0926563
0.0781259
0.0665859
0.0570972
0.0497584
11.8601
7.76395
4.99734
3.24076
2.14419
1.45499
1.0141
0.725633
0.532153
0.399146
0.305541
0.238216
0.188818
0.151907
0.123866
0.102227
0.0853069
0.0719136
0.0611639
0.0525595
11.6229
7.60535
5.0103
3.34209
2.26848
1.57142
1.11236
0.804589
0.594205
0.447519
0.343212
0.267636
0.211902
0.170124
0.13833
0.113789
0.0946039
0.079429
0.0672916
0.0574975
11.5726
7.56718
5.02065
3.38345
2.32103
1.62326
1.15829
0.843158
0.625693
0.472852
0.363488
0.283858
0.224911
0.180595
0.146797
0.120673
0.100232
0.0840527
0.0711094
0.0606322
11.5726
7.56718
5.02065
3.38344
2.32103
1.62326
1.15828
0.843155
0.625691
0.47285
0.363485
0.283854
0.224906
0.180587
0.146785
0.120662
0.100219
0.084038
0.0710954
0.0606409
11.6229
7.60535
5.0103
3.34209
2.26848
1.57142
1.11236
0.804586
0.594202
0.447514
0.343207
0.267629
0.211893
0.17011
0.138312
0.11377
0.0945824
0.0794047
0.0672673
0.0575065
11.8601
7.76395
4.99734
3.24076
2.14419
1.45499
1.0141
0.725633
0.532153
0.399146
0.305542
0.238217
0.18882
0.151908
0.123864
0.102227
0.085308
0.0719154
0.0611668
0.052566
13.6679
8.73671
5.07741
3.05388
1.92223
1.26609
0.869289
0.618631
0.453959
0.342034
0.26365
0.207311
0.165902
0.134851
0.11114
0.0926809
0.0781559
0.0666214
0.0571491
0.0497606
45.0226
13.4729
5.73075
3.07322
1.86023
1.22699
0.873572
0.649775
0.497008
0.389478
0.311287
0.252973
0.208976
0.175208
0.148813
0.127872
0.111095
0.0975198
0.0865049
0.0778087
38.7028
13.0541
5.74336
3.08733
1.88067
1.22751
0.869483
0.645391
0.4926
0.384792
0.307039
0.249063
0.205001
0.171015
0.144431
0.123376
0.106491
0.0928018
0.0816613
0.0733376
12.9054
8.33993
5.07879
3.15547
2.02775
1.3512
0.933539
0.666459
0.489548
0.368598
0.283607
0.22239
0.177329
0.143525
0.117731
0.0977531
0.0820598
0.069582
0.0595336
0.0512251
11.6229
7.60535
5.0103
3.34209
2.26848
1.57142
1.11236
0.804586
0.594202
0.447514
0.343207
0.267629
0.211893
0.170111
0.138311
0.113769
0.0945812
0.0794031
0.0672652
0.0575039
11.4933
7.5119
5.02843
3.434
2.3892
1.6928
1.22111
0.896486
0.669455
0.50812
0.391654
0.306283
0.242781
0.194884
0.158277
0.129949
0.107772
0.0902203
0.0761807
0.0647747
11.4757
7.50136
5.04297
3.47002
2.43665
1.74299
1.26863
0.938712
0.705583
0.538335
0.416593
0.326727
0.259498
0.208556
0.169484
0.139166
0.115386
0.0965394
0.0814431
0.0691292
11.4757
7.50136
5.04297
3.47002
2.43665
1.74299
1.26863
0.938711
0.705582
0.538334
0.416592
0.326726
0.259496
0.208554
0.169481
0.139163
0.115382
0.0965354
0.0814382
0.0691235
11.4933
7.5119
5.02843
3.434
2.3892
1.6928
1.22111
0.896486
0.669455
0.508121
0.391654
0.306283
0.242782
0.194885
0.158276
0.129948
0.107772
0.090221
0.0761817
0.0647762
11.6229
7.60535
5.0103
3.34209
2.26848
1.57142
1.11236
0.804589
0.594205
0.447519
0.343213
0.267636
0.211903
0.170125
0.138328
0.113788
0.0946041
0.0794296
0.0672927
0.0574993
12.9054
8.33993
5.07879
3.15547
2.02775
1.35121
0.933541
0.666464
0.489552
0.368603
0.283614
0.222399
0.177342
0.143547
0.117762
0.0977853
0.0820974
0.0696273
0.0595909
0.0513865
38.7028
13.0541
5.74336
3.08733
1.88066
1.2275
0.869481
0.64539
0.492599
0.38479
0.307039
0.249065
0.205007
0.17103
0.144459
0.123414
0.106547
0.0928839
0.0817735
0.0734551
36.0571
12.8529
5.76645
3.10212
1.89476
1.2267
0.866515
0.644003
0.492276
0.383999
0.305845
0.247984
0.204007
0.170065
0.143495
0.122428
0.105522
0.0918126
0.0806549
0.0720726
12.6882
8.1544
5.07113
3.20039
2.0794
1.39506
0.967836
0.692726
0.509644
0.384024
0.295514
0.231659
0.184606
0.149276
0.122297
0.101399
0.084982
0.0719271
0.0614322
0.0529214
11.5726
7.56718
5.02065
3.38344
2.32103
1.62326
1.15828
0.843155
0.625691
0.47285
0.363485
0.283854
0.224906
0.180588
0.146785
0.120661
0.100219
0.0840378
0.0710951
0.0606414
11.4757
7.50136
5.04297
3.47002
2.43665
1.74299
1.26863
0.938711
0.705582
0.538334
0.416591
0.326726
0.259496
0.208554
0.16948
0.139163
0.115382
0.0965352
0.0814382
0.0691249
11.4647
7.49683
5.0577
3.50272
2.48038
1.79068
1.31522
0.981304
0.742923
0.570208
0.443348
0.348965
0.277885
0.223733
0.182016
0.149538
0.123999
0.103719
0.0874401
0.0740666
11.4647
7.49683
5.0577
3.50272
2.48038
1.79068
1.31522
0.981304
0.742923
0.570208
0.443348
0.348965
0.277885
0.223733
0.182016
0.149538
0.123999
0.10372
0.0874402
0.0740658
11.4757
7.50136
5.04297
3.47002
2.43665
1.74299
1.26863
0.938712
0.705583
0.538335
0.416593
0.326727
0.259498
0.208557
0.169483
0.139166
0.115386
0.0965392
0.0814431
0.0691298
11.5726
7.56718
5.02065
3.38345
2.32103
1.62326
1.15829
0.843158
0.625693
0.472852
0.363488
0.283858
0.224911
0.180595
0.146797
0.120673
0.100232
0.0840522
0.0711088
0.0606318
12.6882
8.1544
5.07113
3.20039
2.0794
1.39506
0.967837
0.692729
0.509646
0.384027
0.295516
0.231663
0.184611
0.149283
0.122315
0.101416
0.085
0.0719479
0.0614565
0.0529564
36.0571
12.8529
5.76645
3.10212
1.89476
1.2267
0.866514
0.644002
0.492275
0.383998
0.305845
0.247984
0.204009
0.170071
0.143507
0.122444
0.105544
0.091841
0.0806724
0.0719631
36.0571
12.8529
5.76645
3.10212
1.89476
1.2267
0.866515
0.644002
0.492276
0.383998
0.305845
0.247984
0.204009
0.170071
0.143508
0.122445
0.105546
0.0918431
0.0806759
0.0719671
12.6882
8.1544
5.07113
3.20039
2.0794
1.39506
0.967837
0.692729
0.509646
0.384027
0.295517
0.231664
0.184612
0.149285
0.122313
0.101416
0.0850011
0.07195
0.0614593
0.0529598
11.5726
7.56718
5.02065
3.38345
2.32103
1.62326
1.15829
0.843158
0.625693
0.472853
0.363488
0.283858
0.224912
0.180596
0.146796
0.120674
0.100233
0.084054
0.0711111
0.0606349
11.4757
7.50136
5.04297
3.47002
2.43665
1.74299
1.26863
0.938712
0.705583
0.538335
0.416593
0.326727
0.259498
0.208556
0.169484
0.139166
0.115386
0.0965398
0.0814437
0.0691314
11.4647
7.49683
5.0577
3.50272
2.48038
1.79068
1.31522
0.981304
0.742923
0.570208
0.443348
0.348965
0.277885
0.223732
0.182016
0.149538
0.123999
0.103719
0.0874403
0.0740666
11.4647
7.49683
5.0577
3.50272
2.48038
1.79068
1.31522
0.981304
0.742923
0.570208
0.443348
0.348965
0.277885
0.223733
0.182016
0.149538
0.123999
0.103719
0.0874401
0.0740656
11.4757
7.50136
5.04297
3.47002
2.43665
1.74299
1.26863
0.938711
0.705582
0.538334
0.416591
0.326726
0.259496
0.208554
0.16948
0.139162
0.115382
0.0965346
0.0814375
0.0691236
11.5726
7.56718
5.02065
3.38344
2.32103
1.62326
1.15828
0.843155
0.625691
0.472849
0.363484
0.283853
0.224904
0.180586
0.146787
0.120662
0.100218
0.0840366
0.0710936
0.0606397
12.6882
8.1544
5.07113
3.20039
2.07939
1.39506
0.967835
0.692726
0.509644
0.384024
0.295513
0.231659
0.184604
0.149271
0.122303
0.101402
0.084983
0.0719274
0.0614321
0.0529214
36.0571
12.8529
5.76645
3.10212
1.89476
1.2267
0.866515
0.644002
0.492276
0.383998
0.305844
0.247983
0.204005
0.170063
0.143496
0.122428
0.105521
0.0918115
0.0806532
0.072069
38.7028
13.0541
5.74336
3.08733
1.88066
1.2275
0.869481
0.64539
0.492599
0.384791
0.307039
0.249065
0.205006
0.171029
0.144461
0.123416
0.106548
0.0928853
0.0817756
0.0734614
12.9054
8.33993
5.07879
3.15547
2.02775
1.35121
0.933541
0.666464
0.489552
0.368603
0.283614
0.2224
0.177342
0.143545
0.117765
0.0977877
0.0820997
0.0696299
0.0595938
0.0513904
11.6229
7.60535
5.0103
3.34209
2.26848
1.57142
1.11236
0.804589
0.594205
0.447519
0.343213
0.267636
0.211902
0.170124
0.13833
0.113789
0.0946051
0.0794306
0.0672936
0.0575011
11.4933
7.5119
5.02843
3.434
2.3892
1.6928
1.22111
0.896486
0.669455
0.508121
0.391654
0.306283
0.242781
0.194884
0.158278
0.129949
0.107772
0.0902206
0.0761812
0.0647755
11.4757
7.50136
5.04297
3.47002
2.43665
1.74299
1.26863
0.938711
0.705582
0.538334
0.416591
0.326726
0.259496
0.208554
0.169481
0.139163
0.115382
0.0965346
0.0814374
0.0691227
11.4757
7.50136
5.04297
3.47002
2.43665
1.74299
1.26863
0.938712
0.705583
0.538335
0.416592
0.326727
0.259498
0.208556
0.169484
0.139166
0.115386
0.096539
0.0814427
0.0691294
11.4933
7.5119
5.02843
3.434
2.3892
1.6928
1.22111
0.896485
0.669454
0.50812
0.391654
0.306283
0.242782
0.194885
0.158276
0.129948
0.107771
0.0902203
0.076181
0.0647755
11.6229
7.60535
5.0103
3.34209
2.26848
1.57142
1.11236
0.804586
0.594202
0.447514
0.343207
0.267628
0.211892
0.17011
0.138312
0.113769
0.0945813
0.0794033
0.0672656
0.0575047
12.9054
8.33993
5.07879
3.15547
2.02775
1.3512
0.933537
0.66646
0.489548
0.368598
0.283607
0.22239
0.177328
0.14352
0.117736
0.0977558
0.0820617
0.069584
0.0595352
0.0512275
38.7028
13.0541
5.74336
3.08733
1.88067
1.22751
0.869482
0.645391
0.4926
0.384791
0.307039
0.249062
0.204998
0.171011
0.144434
0.123377
0.106492
0.0928021
0.0816612
0.0733375
45.0226
13.4729
5.73075
3.07322
1.86023
1.22699
0.873572
0.649775
0.497008
0.389478
0.311287
0.252973
0.208975
0.175207
0.148814
0.127873
0.111095
0.0975184
0.0865038
0.0777988
13.6679
8.73671
5.07741
3.05388
1.92223
1.26609
0.869289
0.618631
0.453959
0.342034
0.26365
0.207311
0.165901
0.134846
0.111145
0.0926836
0.0781576
0.0666235
0.0571453
0.0497607
11.8601
7.76395
4.99734
3.24076
2.14419
1.45499
1.0141
0.725633
0.532153
0.399146
0.305541
0.238216
0.188818
0.151907
0.123866
0.102228
0.0853074
0.071914
0.0611645
0.0525635
11.6229
7.60535
5.0103
3.34209
2.26848
1.57142
1.11236
0.804586
0.594202
0.447514
0.343207
0.267628
0.211892
0.17011
0.138311
0.113769
0.0945808
0.0794023
0.0672644
0.0575017
11.5726
7.56718
5.02065
3.38344
2.32103
1.62326
1.15828
0.843155
0.625691
0.472849
0.363484
0.283853
0.224905
0.180587
0.146785
0.120661
0.100217
0.0840361
0.071093
0.060638
11.5726
7.56718
5.02065
3.38345
2.32103
1.62326
1.15829
0.843158
0.625693
0.472852
0.363488
0.283858
0.224911
0.180596
0.146796
0.120673
0.100232
0.0840525
0.0711094
0.060633
11.6229
7.60535
5.0103
3.34209
2.26848
1.57142
1.11236
0.804589
0.594205
0.447519
0.343213
0.267636
0.211903
0.170125
0.138328
0.113788
0.0946043
0.07943
0.0672931
0.0574993
11.8601
7.76395
4.99734
3.24076
2.14419
1.45499
1.0141
0.725632
0.532153
0.399146
0.305541
0.238217
0.188819
0.151908
0.123864
0.102227
0.0853073
0.0719146
0.0611646
0.0525605
13.6679
8.73671
5.0774
3.05388
1.92223
1.26609
0.869287
0.618628
0.453956
0.34203
0.263645
0.207305
0.165892
0.134831
0.11112
0.0926575
0.0781277
0.066589
0.057095
0.0497612
45.0226
13.4729
5.73075
3.07322
1.86023
1.22699
0.873573
0.649776
0.497009
0.389477
0.311285
0.252968
0.208965
0.175187
0.148782
0.127827
0.111025
0.097412
0.0863223
0.0774797
58.5856
14.5696
6.08946
3.33295
2.08217
1.40266
0.998643
0.740272
0.565885
0.443902
0.355989
0.290881
0.24134
0.202911
0.172977
0.149632
0.131046
0.11601
0.10391
0.0941529
16.5373
9.49238
5.0127
2.8606
1.75746
1.14759
0.786927
0.562044
0.41536
0.315937
0.246318
0.196203
0.159192
0.131211
0.109724
0.0931158
0.0800339
0.0695525
0.0603089
0.0549388
13.6679
8.73671
5.0774
3.05388
1.92223
1.26609
0.869287
0.618628
0.453956
0.34203
0.263645
0.207304
0.165891
0.134831
0.111118
0.0926555
0.0781248
0.0665846
0.0570958
0.049756
12.9054
8.33993
5.07879
3.15547
2.02775
1.3512
0.933538
0.666458
0.489547
0.368598
0.283607
0.222389
0.177329
0.143525
0.117731
0.0977525
0.0820591
0.0695813
0.0595328
0.0512241
12.6882
8.1544
5.07113
3.20039
2.07939
1.39506
0.967835
0.692726
0.509644
0.384024
0.295513
0.231659
0.184606
0.149276
0.122296
0.101399
0.0849817
0.071927
0.061432
0.0529211
12.6882
8.1544
5.07113
3.20039
2.0794
1.39506
0.967837
0.692729
0.509646
0.384027
0.295517
0.231664
0.184612
0.149286
0.122313
0.101415
0.085001
0.0719499
0.0614593
0.0529595
12.9054
8.33993
5.07879
3.15547
2.02775
1.35121
0.933542
0.666463
0.489552
0.368603
0.283614
0.222399
0.177343
0.143547
0.117762
0.0977863
0.082099
0.0696294
0.0595933
0.0513893
13.6679
8.73671
5.07741
3.05388
1.92223
1.26609
0.869289
0.61863
0.453959
0.342034
0.26365
0.207311
0.165902
0.134851
0.11114
0.0926812
0.0781564
0.0666227
0.0571446
0.04976
16.5373
9.49238
5.0127
2.8606
1.75746
1.14759
0.786927
0.562044
0.415359
0.315937
0.246318
0.196203
0.159193
0.131215
0.10972
0.0931152
0.0800348
0.0695541
0.0603116
0.0549441
58.5856
14.5696
6.08946
3.33295
2.08217
1.40266
0.998642
0.740272
0.565886
0.443901
0.355987
0.290876
0.241334
0.202881
0.172939
0.14958
0.130966
0.115884
0.10372
0.0939165
90.5034
12.1248
4.38869
2.46658
1.63315
1.18306
0.902004
0.720648
0.594562
0.502465
0.432618
0.379191
0.33615
0.299589
0.269733
0.245396
0.225255
0.208305
0.194149
0.178929
58.5856
14.5696
6.08946
3.33295
2.08217
1.40266
0.998643
0.740272
0.565885
0.443901
0.355986
0.290876
0.241331
0.202887
0.172936
0.149575
0.13096
0.115877
0.103711
0.0939077
45.0226
13.4729
5.73075
3.07322
1.86023
1.22699
0.873574
0.649775
0.497009
0.389477
0.311285
0.252969
0.208967
0.17519
0.148779
0.127823
0.111022
0.0974097
0.0863198
0.0774763
38.7028
13.0541
5.74336
3.08733
1.88067
1.22751
0.869483
0.64539
0.4926
0.384791
0.307039
0.249063
0.205
0.171014
0.14443
0.123375
0.10649
0.0928016
0.0816614
0.0733396
36.0571
12.8529
5.76645
3.10212
1.89476
1.2267
0.866515
0.644002
0.492276
0.383998
0.305845
0.247983
0.204006
0.170065
0.143495
0.122428
0.105522
0.0918131
0.0806562
0.0720781
36.0571
12.8529
5.76645
3.10212
1.89476
1.2267
0.866515
0.644002
0.492275
0.383998
0.305845
0.247984
0.204009
0.170072
0.143508
0.122445
0.105546
0.0918434
0.0806765
0.0719693
38.7028
13.0541
5.74336
3.08733
1.88066
1.2275
0.869481
0.645389
0.492599
0.38479
0.307039
0.249065
0.205007
0.17103
0.14446
0.123415
0.106547
0.0928847
0.0817751
0.0734617
45.0226
13.4729
5.73075
3.07322
1.86023
1.22699
0.873572
0.649775
0.497008
0.389478
0.311286
0.252973
0.208975
0.175208
0.148812
0.127871
0.111094
0.0975178
0.0865034
0.0777984
58.5856
14.5696
6.08946
3.33295
2.08217
1.40266
0.998642
0.740273
0.565886
0.443902
0.355989
0.290881
0.241341
0.202909
0.172977
0.149634
0.131048
0.116013
0.103913
0.0941585
90.5034
12.1248
4.38869
2.46658
1.63315
1.18306
0.902003
0.720648
0.594562
0.502466
0.432619
0.379189
0.336156
0.299584
0.269736
0.245401
0.22526
0.208312
0.194159
0.178938
0.216048
0.204434
0.190665
0.178349
0.168424
0.161192
0.154697
0.148979
0.143598
0.138893
0.134753
0.131126
0.127414
0.123962
0.120586
0.117493
0.114473
0.111707
0.109046
0.106548
0.104132
0.101789
0.0996288
0.0975266
0.0955516
0.0936277
0.0917437
0.0898797
0.0880582
0.0862452
0.0845352
0.0828555
0.0811628
0.0794945
0.07782
0.0763553
0.0749784
0.0735809
0.0723999
0.070548
0.101413
0.091592
0.0837614
0.0773761
0.0721688
0.0682649
0.0646648
0.0615946
0.0586693
0.0560548
0.0537773
0.0518745
0.04998
0.0483452
0.0467135
0.04522
0.0438175
0.0425442
0.0413577
0.0402479
0.0392002
0.0381981
0.0372717
0.0364042
0.0355981
0.0348331
0.0340932
0.0333734
0.0326643
0.0319661
0.0312838
0.0306339
0.0300063
0.0293847
0.0287867
0.0282016
0.0276497
0.0271244
0.026633
0.0260727
0.0800852
0.0715874
0.0650836
0.0595198
0.0550795
0.0512845
0.0480841
0.0453135
0.0429173
0.0407743
0.0388358
0.0370919
0.0355402
0.0342349
0.0328799
0.031676
0.0305691
0.0295936
0.0286591
0.0277757
0.0269633
0.0261361
0.0253718
0.0246775
0.0240551
0.0234708
0.0229057
0.0223595
0.021838
0.0213343
0.0208379
0.0203646
0.0199113
0.0194829
0.0190818
0.0186833
0.0182917
0.0179173
0.0175641
0.0172008
0.0726943
0.0648008
0.0585094
0.0533319
0.049011
0.0453493
0.0421706
0.0394045
0.0369691
0.0348128
0.0328941
0.0311752
0.0296248
0.0282578
0.0270223
0.0259009
0.0248694
0.0239768
0.0230471
0.0221742
0.0214154
0.0207008
0.0200322
0.0194002
0.0188211
0.0182791
0.0177779
0.0173
0.0168485
0.0164197
0.0159922
0.0155879
0.0152052
0.0148481
0.0145094
0.0141871
0.0138719
0.0135721
0.0132875
0.0130106
0.0702313
0.0626027
0.0563284
0.051087
0.0466562
0.0428795
0.0396422
0.0368399
0.0343743
0.032194
0.0302558
0.0285255
0.0269618
0.0255846
0.0243472
0.0232366
0.0222249
0.0212977
0.0204505
0.0196689
0.0189857
0.0182872
0.0176234
0.0170285
0.0164811
0.0159759
0.0155058
0.015066
0.0146526
0.0142693
0.0138828
0.01352
0.0131737
0.0128461
0.0125345
0.0122408
0.0119614
0.0116925
0.0114371
0.0111965
0.0696179
0.0620559
0.0557616
0.050454
0.0459373
0.0420669
0.0387452
0.0358725
0.0333561
0.0311316
0.0291593
0.0274013
0.0258249
0.0244263
0.0231713
0.0220421
0.0210291
0.0201197
0.0192954
0.0185447
0.0178619
0.017235
0.0166733
0.0161282
0.0155751
0.0150611
0.0145951
0.0141715
0.0137847
0.0134185
0.013075
0.012735
0.012382
0.0120511
0.0117513
0.011472
0.011212
0.0109564
0.0107093
0.0104778
0.069889
0.0622329
0.0558727
0.0505263
0.0459782
0.0420897
0.0387441
0.0358431
0.0332988
0.0310615
0.0290885
0.0273437
0.0257875
0.0244103
0.0231791
0.022074
0.0210808
0.0201868
0.0193854
0.0186575
0.0179988
0.0173881
0.0168151
0.0162855
0.0157357
0.0152415
0.0147871
0.0143719
0.0139829
0.013601
0.0132387
0.0128806
0.0125227
0.0122052
0.0119091
0.01163
0.0113514
0.0110754
0.0108065
0.0105508
0.0720531
0.064272
0.0578276
0.052404
0.0477652
0.0437998
0.040384
0.0374283
0.0348728
0.0326476
0.0306892
0.0289503
0.0274011
0.026037
0.0248175
0.0237183
0.0227372
0.0218456
0.021038
0.0202976
0.0196397
0.0189855
0.0183608
0.0178029
0.0172753
0.0167854
0.0163155
0.0158775
0.0154321
0.0149925
0.0145825
0.0142111
0.0138578
0.0135123
0.0131756
0.0128432
0.0125131
0.0121871
0.0118751
0.0115769
0.0791034
0.0709954
0.0641922
0.0583388
0.0533368
0.0491149
0.0456039
0.0426107
0.0400014
0.0377289
0.0357436
0.0339579
0.0324275
0.0310292
0.0298302
0.0285861
0.0274754
0.0264696
0.0255899
0.024745
0.0239859
0.0232548
0.0225747
0.0219354
0.0213199
0.0207469
0.0202026
0.0196919
0.0192036
0.0187225
0.0182568
0.0178152
0.0173864
0.0169725
0.016554
0.0161464
0.0157403
0.0153414
0.0149739
0.0146229
0.101814
0.0928703
0.0841972
0.0767039
0.0709085
0.0663044
0.0623885
0.059118
0.0560821
0.0533959
0.0510896
0.0491533
0.0474245
0.0455689
0.0439125
0.04238
0.0409584
0.0396446
0.0384281
0.0372972
0.036245
0.0352704
0.0343884
0.0335516
0.0327617
0.0320143
0.0312935
0.0305963
0.0299065
0.0292121
0.0285546
0.0279338
0.0273282
0.0267365
0.0261456
0.0255367
0.0249482
0.0243874
0.0238949
0.0233297
0.216077
0.204482
0.19073
0.178324
0.168819
0.16162
0.155113
0.149314
0.143883
0.13907
0.134922
0.131139
0.127514
0.124038
0.120692
0.117575
0.114573
0.111777
0.109091
0.106591
0.10414
0.101813
0.0996296
0.0975527
0.0955737
0.0936696
0.0917788
0.089913
0.0880868
0.0862683
0.084561
0.0828818
0.0812086
0.0795764
0.0779986
0.0764808
0.0749825
0.0735322
0.0722877
0.0703443
0.101806
0.0928391
0.08416
0.076743
0.0706701
0.0660165
0.0621631
0.0589444
0.0559265
0.0532952
0.0509878
0.0491423
0.047388
0.0455428
0.0438603
0.0423487
0.0409094
0.0396149
0.0384038
0.037283
0.036242
0.0352679
0.0343871
0.0335457
0.0327586
0.0320094
0.0312885
0.0305927
0.0299054
0.0292136
0.0285583
0.0279388
0.0273296
0.026713
0.0260834
0.0254808
0.0249343
0.0244187
0.0239479
0.0234071
0.055855
0.0498469
0.0437505
0.0394298
0.0354843
0.0330086
0.0307319
0.0287976
0.0270403
0.0254284
0.0240245
0.0229004
0.0216076
0.020745
0.0197103
0.0189289
0.0180711
0.017385
0.0166981
0.0161065
0.0155286
0.0149493
0.014501
0.0139959
0.0136168
0.0132536
0.0128717
0.0125186
0.012139
0.01177
0.0115187
0.0111972
0.0108669
0.0105333
0.0103224
0.0100389
0.00969661
0.00940645
0.00915311
0.0088807
0.0483356
0.041635
0.0363526
0.0317692
0.0287807
0.0262375
0.0240612
0.0221926
0.0205896
0.0192035
0.01793
0.0169327
0.0156455
0.0150116
0.014029
0.0134968
0.0126948
0.0122495
0.0116127
0.0112053
0.010766
0.0102666
0.00994785
0.00951125
0.00926905
0.00893767
0.00863376
0.00840998
0.0080789
0.00790579
0.00773269
0.00754498
0.00723997
0.00707429
0.00685952
0.00682729
0.00662444
0.00641386
0.00612833
0.00590086
0.0465311
0.0404272
0.0353781
0.03117
0.0275185
0.0246088
0.0224598
0.0205678
0.0189169
0.0174735
0.0162031
0.0150798
0.0140533
0.0131872
0.0124008
0.0116983
0.0110733
0.0105049
0.0100226
0.00948341
0.00913903
0.00861038
0.00832031
0.00791552
0.00770903
0.00735521
0.00717471
0.00686389
0.00666232
0.00645799
0.00632611
0.00619556
0.00593336
0.00581795
0.00561726
0.00563204
0.00547659
0.00533384
0.00506431
0.00492272
0.0467448
0.0405367
0.0355137
0.0313635
0.0278476
0.0247374
0.0221831
0.0200605
0.0183852
0.0169053
0.0156007
0.0144442
0.013398
0.0125054
0.011705
0.0109875
0.0103442
0.00976594
0.00924529
0.00877324
0.00834924
0.00796306
0.00761878
0.00731678
0.00700358
0.00674446
0.00645683
0.00623431
0.00602098
0.00582898
0.00566431
0.00555045
0.00533834
0.00522953
0.00504375
0.00506158
0.00491981
0.00479533
0.00455683
0.00441734
0.0468213
0.0406945
0.0356615
0.0314647
0.0279378
0.0248401
0.0221649
0.0198986
0.0181428
0.0166678
0.0153551
0.0141856
0.013129
0.0122192
0.0114052
0.0106781
0.010028
0.00944565
0.00892276
0.00845227
0.00802841
0.00764682
0.00731197
0.00702139
0.00671786
0.0064446
0.00617924
0.0059546
0.00574246
0.00556056
0.00541497
0.00527224
0.00511493
0.00499139
0.0048046
0.00481674
0.00468679
0.00450188
0.00439504
0.00414307
0.0465099
0.0407017
0.0356164
0.0313201
0.0277161
0.0245457
0.0218286
0.019651
0.0180013
0.0165321
0.0152277
0.0140727
0.0130394
0.0121424
0.0113416
0.0106261
0.00998698
0.0094136
0.00889868
0.00843466
0.00801623
0.00763838
0.00730504
0.00702523
0.00672316
0.0064778
0.00616381
0.00597594
0.00570343
0.0055649
0.00542146
0.00528211
0.00506874
0.00494592
0.00475125
0.00478478
0.00464411
0.00445657
0.00434441
0.00407074
0.0457556
0.0409824
0.0355441
0.0310483
0.0272839
0.0240496
0.0217197
0.01986
0.0182263
0.0167945
0.0155386
0.0144285
0.0134395
0.012579
0.011804
0.0111038
0.0104773
0.00990053
0.00938902
0.00891908
0.00850036
0.00812021
0.00774611
0.00751847
0.0070925
0.00689172
0.00654773
0.00638832
0.00606564
0.00595188
0.00579856
0.00565048
0.00536076
0.00523206
0.00501376
0.00486355
0.00492014
0.00473352
0.00457443
0.00423302
0.046472
0.0419901
0.0362861
0.0314167
0.0280827
0.0255443
0.0233659
0.0214883
0.0198545
0.0184266
0.0171797
0.0160573
0.0150893
0.0142279
0.013445
0.012669
0.01212
0.0113437
0.0109285
0.0103053
0.00996606
0.00943201
0.00913019
0.00869849
0.00839211
0.00817817
0.00780275
0.00761772
0.00727942
0.0071018
0.00691603
0.00673175
0.00640659
0.00625386
0.00600636
0.00583232
0.00582722
0.00557305
0.00537161
0.00502895
0.0558803
0.0497814
0.0437312
0.039346
0.0360042
0.0331804
0.0309056
0.0289137
0.0271412
0.0254885
0.0241185
0.022809
0.0216844
0.0207627
0.0197645
0.0189276
0.0181071
0.0173959
0.0167128
0.0161227
0.0155229
0.0149728
0.014496
0.0140174
0.0135958
0.0132763
0.0128772
0.0125306
0.0121491
0.0117738
0.0115226
0.0112
0.0108673
0.0105678
0.0102978
0.00999936
0.00983413
0.0095184
0.00915919
0.00884291
0.101454
0.0916869
0.0838692
0.0775734
0.0726055
0.0686458
0.0649401
0.0617923
0.0588358
0.0561589
0.0538965
0.0518675
0.0500289
0.0483893
0.0467641
0.0452662
0.0438606
0.0425871
0.0413839
0.0402774
0.0392142
0.0382141
0.0372861
0.036422
0.035617
0.034855
0.0341172
0.0333969
0.0326883
0.0319882
0.0313054
0.0306552
0.0300287
0.0294224
0.0288322
0.0282524
0.0276889
0.0271308
0.0266158
0.0260282
0.0790864
0.0709829
0.0642137
0.0583924
0.0532805
0.049004
0.0454827
0.0425153
0.0399264
0.0376746
0.0356996
0.0339599
0.0324124
0.031022
0.0298183
0.0285874
0.0274529
0.0264778
0.0255874
0.0247516
0.0239961
0.0232616
0.0225893
0.0219392
0.0213287
0.0207553
0.0202125
0.0197023
0.0192154
0.0187364
0.0182736
0.0178349
0.0174088
0.0169964
0.016589
0.0161601
0.0157392
0.0153529
0.0150006
0.0146633
0.0464551
0.0419604
0.0363015
0.0312943
0.0280373
0.0255191
0.0233455
0.0214746
0.0198459
0.0184246
0.0171827
0.0161165
0.0150493
0.0142717
0.0133748
0.0127982
0.0119334
0.0114802
0.0107876
0.0103735
0.0099566
0.00945376
0.00914664
0.0086751
0.00842956
0.00814839
0.00781132
0.00761982
0.00727922
0.00709895
0.00690999
0.00672746
0.00640365
0.0062519
0.0060351
0.00597082
0.00573511
0.00548198
0.00523379
0.00504527
0.0452535
0.0394686
0.0344189
0.0300792
0.02655
0.0236421
0.0212142
0.0191692
0.0174283
0.015933
0.0146322
0.0135087
0.0124683
0.0116033
0.0108077
0.0101179
0.00942291
0.00881429
0.00833098
0.00793955
0.00754278
0.00714563
0.0068193
0.00648114
0.00616522
0.00594
0.00565343
0.00549024
0.00520387
0.00510757
0.00499039
0.00485478
0.0046087
0.00449568
0.00431381
0.00434415
0.00421434
0.00410065
0.00385196
0.00371814
0.0476439
0.0413071
0.0360076
0.0315685
0.0278257
0.0246744
0.0220338
0.0197877
0.0178642
0.016206
0.0147681
0.0135133
0.0124072
0.0114393
0.0105805
0.00981732
0.00913422
0.00851546
0.00796928
0.0074795
0.00704329
0.00664674
0.00620955
0.00592452
0.00567433
0.00542357
0.00522578
0.00493258
0.00474476
0.00457372
0.00446096
0.00434374
0.00418465
0.00407684
0.00390096
0.00392919
0.00381327
0.00370531
0.00355235
0.00342161
0.0498793
0.0431252
0.037551
0.0329048
0.0289979
0.0256839
0.0228654
0.0204595
0.0184112
0.0166492
0.0151211
0.0137878
0.0126228
0.0115971
0.0106908
0.00988689
0.00917127
0.00853125
0.00795809
0.00744332
0.00698025
0.00656743
0.00616589
0.00585511
0.0055412
0.00522043
0.00497014
0.0047835
0.00461312
0.00448656
0.00433687
0.00419679
0.0040632
0.0039529
0.00381135
0.00382998
0.00370974
0.00359054
0.00347437
0.00336105
0.0507644
0.0438968
0.0382024
0.0334496
0.0294544
0.0260683
0.0231789
0.020705
0.0185954
0.0167887
0.0152274
0.0138673
0.0126811
0.0116372
0.0107155
0.00989883
0.00917234
0.00852317
0.00794219
0.0074219
0.00695374
0.00653671
0.00613808
0.00582907
0.00551285
0.00521518
0.00496316
0.00470984
0.00450897
0.00443873
0.00429627
0.00415904
0.00402544
0.00391094
0.00378945
0.00380502
0.00368462
0.00356463
0.00344762
0.00332997
0.0499336
0.0432651
0.0376641
0.0329572
0.0289913
0.02563
0.022773
0.0203442
0.0182801
0.0165084
0.0149789
0.0136502
0.0124915
0.0114752
0.0105772
0.00978141
0.00907301
0.00843995
0.00787335
0.00736609
0.0069078
0.00649969
0.00610719
0.00579808
0.00548411
0.00520553
0.00492282
0.00471426
0.00454016