/*--------------------------------*- C++ -*----------------------------------*\
| =========                 |                                                 |
| \\      /  F ield         | OpenFOAM: The Open Source CFD Toolbox           |
|  \\    /   O peration     | Version:  2212                                  |
|   \\  /    A nd           | Website:  www.openfoam.com                      |
|    \\/     M anipulation  |                                                 |
\*---------------------------------------------------------------------------*/
FoamFile
{
    version     2.0;
    format      ascii;
    arch        "LSB;label=32;scalar=64";
    class       volScalarField;
    location    "1.6";
    object      k;
}
// * * * * * * * * * * * * * * * * * * * * * * * * * * * * * * * * * * * * * //

dimensions      [0 2 -2 0 0 0 0];

internalField   nonuniform List<scalar> 
6840
(
0.213564
0.055916
0.0283994
0.0193411
0.0146927
0.011851
0.00989064
0.00851598
0.00749119
0.00669613
0.00606024
0.00555043
0.00512208
0.00474364
0.00442307
0.00415291
0.00392261
0.00372332
0.0035526
0.00336422
0.264759
0.104702
0.0585298
0.039163
0.0286199
0.0219934
0.017536
0.0143632
0.0120082
0.0102137
0.00881625
0.00770556
0.00680376
0.00606083
0.00544906
0.00494704
0.0045284
0.00417494
0.0038787
0.00363262
0.283364
0.126774
0.071702
0.0473282
0.0338663
0.0256616
0.0204608
0.016797
0.0140486
0.0119411
0.010284
0.00895582
0.00788469
0.00701059
0.00628749
0.0056828
0.00517405
0.00474333
0.00437836
0.0040762
0.292299
0.141633
0.0819301
0.0541654
0.0389231
0.0292874
0.0232723
0.0190786
0.0159341
0.013515
0.0116268
0.0101128
0.00888195
0.00787121
0.00703327
0.00633235
0.00574125
0.00523914
0.00481249
0.0044801
0.295943
0.148782
0.0871941
0.057675
0.0415194
0.0310723
0.0246452
0.0202212
0.0169052
0.0143252
0.0123088
0.0107028
0.00939681
0.00832338
0.0074324
0.00668606
0.00605571
0.00551947
0.00506255
0.00469419
0.295943
0.148782
0.0871941
0.057675
0.0415194
0.0310723
0.0246452
0.0202212
0.0169052
0.0143252
0.0123088
0.0107028
0.00939679
0.00832327
0.00743213
0.0066857
0.00605517
0.00551871
0.0050617
0.00469243
0.292299
0.141633
0.0819301
0.0541654
0.0389231
0.0292875
0.0232724
0.0190787
0.0159342
0.0135151
0.0116269
0.0101129
0.00888191
0.00787095
0.00703281
0.00633164
0.00574009
0.00523727
0.00480984
0.00447947
0.283364
0.126774
0.071702
0.0473282
0.0338663
0.0256617
0.0204608
0.016797
0.0140486
0.0119412
0.0102841
0.00895583
0.00788461
0.00701035
0.00628703
0.00568205
0.0051728
0.00474111
0.00437459
0.00407965
0.264759
0.104702
0.0585298
0.039163
0.0286199
0.0219934
0.017536
0.0143632
0.0120082
0.0102137
0.00881623
0.00770551
0.00680369
0.0060604
0.0054485
0.00494629
0.00452719
0.00417292
0.00387598
0.00363385
0.213564
0.055916
0.0283994
0.0193411
0.0146927
0.011851
0.00989064
0.00851597
0.00749118
0.00669612
0.00606024
0.00555039
0.00512211
0.00474358
0.00442305
0.0041529
0.0039226
0.00372329
0.00355251
0.003364
0.264759
0.104702
0.0585298
0.039163
0.0286199
0.0219934
0.017536
0.0143632
0.0120082
0.0102137
0.00881624
0.00770553
0.00680368
0.00606055
0.00544851
0.00494624
0.00452715
0.0041729
0.00387598
0.00363379
0.311746
0.197541
0.130357
0.0911456
0.0668022
0.0508111
0.0397944
0.031912
0.0260941
0.0216872
0.0182764
0.0155882
0.0134405
0.0116975
0.0102657
0.00907712
0.00808012
0.0072339
0.00652656
0.00590038
0.31754
0.217754
0.151085
0.108549
0.0807155
0.0618725
0.0486772
0.0391416
0.0320584
0.0266712
0.0224896
0.0191867
0.016538
0.0143854
0.0126152
0.0111455
0.00991404
0.00887239
0.00798756
0.00723449
0.319723
0.227073
0.162232
0.118772
0.0893611
0.0689928
0.0545306
0.0439845
0.0360999
0.0300749
0.0253824
0.0216656
0.0186783
0.0162462
0.0142433
0.0125771
0.0111784
0.0099943
0.00898388
0.00812182
0.320484
0.23086
0.167176
0.123531
0.093516
0.0724827
0.0574409
0.0464216
0.0381542
0.0318179
0.0268718
0.0229479
0.0197899
0.0172157
0.0150937
0.0133268
0.0118423
0.0105846
0.00951053
0.00858765
0.320484
0.23086
0.167176
0.123531
0.093516
0.0724827
0.0574409
0.0464216
0.0381542
0.0318178
0.0268717
0.0229478
0.0197897
0.0172153
0.0150931
0.0133261
0.0118413
0.0105833
0.00950906
0.00858865
0.319723
0.227073
0.162232
0.118772
0.0893611
0.0689928
0.0545306
0.0439845
0.0360999
0.0300749
0.0253823
0.0216654
0.0186779
0.0162455
0.0142424
0.0125758
0.0111766
0.00999173
0.00898022
0.0081239
0.31754
0.217754
0.151085
0.108549
0.0807155
0.0618725
0.0486772
0.0391416
0.0320584
0.0266712
0.0224896
0.0191865
0.0165377
0.0143849
0.0126146
0.0111446
0.00991275
0.00887038
0.00798306
0.00723871
0.311746
0.197541
0.130357
0.0911456
0.0668022
0.050811
0.0397943
0.031912
0.0260941
0.0216872
0.0182764
0.0155882
0.0134405
0.0116973
0.0102658
0.0090772
0.0080802
0.00723398
0.00652667
0.00590061
0.264759
0.104702
0.0585298
0.039163
0.0286199
0.0219934
0.017536
0.0143632
0.0120082
0.0102137
0.00881624
0.00770555
0.00680375
0.00606076
0.00544904
0.00494707
0.00452845
0.004175
0.00387879
0.00363268
0.283364
0.126774
0.071702
0.0473282
0.0338663
0.0256617
0.0204608
0.0167971
0.0140486
0.0119412
0.0102841
0.00895586
0.00788468
0.00701043
0.006287
0.00568201
0.00517278
0.00474113
0.00437461
0.00407962
0.31754
0.217754
0.151085
0.108549
0.0807155
0.0618725
0.0486772
0.0391416
0.0320584
0.0266712
0.0224896
0.0191866
0.0165378
0.014385
0.0126145
0.0111446
0.00991273
0.00887041
0.00798309
0.00723877
0.322005
0.239026
0.177588
0.133616
0.102323
0.0798668
0.0635104
0.0513819
0.0422214
0.0351791
0.0296753
0.0253087
0.0217972
0.0189384
0.016585
0.0146283
0.0129866
0.0115973
0.0104123
0.00939435
0.323293
0.245617
0.187499
0.144537
0.112864
0.0894039
0.0718632
0.0585864
0.0483995
0.0404742
0.0342247
0.0292333
0.0251991
0.0219027
0.0191819
0.0169152
0.0150106
0.0133967
0.0120161
0.0108142
0.323714
0.247819
0.191099
0.14881
0.117249
0.0935708
0.0756574
0.0619607
0.0513629
0.0430614
0.0364795
0.0311999
0.0269182
0.0234102
0.0205087
0.0180877
0.0160506
0.0143224
0.012841
0.0115424
0.323714
0.247819
0.191099
0.14881
0.117249
0.0935708
0.0756574
0.0619606
0.0513628
0.0430614
0.0364794
0.0311997
0.026918
0.02341
0.0205084
0.0180872
0.0160501
0.0143218
0.0128405
0.0115429
0.323293
0.245617
0.187499
0.144537
0.112864
0.0894039
0.0718632
0.0585864
0.0483994
0.0404741
0.0342245
0.0292331
0.0251988
0.0219023
0.0191814
0.0169146
0.0150097
0.0133957
0.012015
0.0108146
0.322005
0.239026
0.177588
0.133616
0.102323
0.0798668
0.0635104
0.0513819
0.0422214
0.0351791
0.0296752
0.0253087
0.0217972
0.0189383
0.016585
0.0146283
0.0129866
0.0115974
0.0104123
0.00939429
0.31754
0.217754
0.151085
0.108549
0.0807155
0.0618725
0.0486772
0.0391416
0.0320584
0.0266712
0.0224896
0.0191866
0.016538
0.0143853
0.0126152
0.0111455
0.00991406
0.00887244
0.00798765
0.00723464
0.283364
0.126774
0.071702
0.0473282
0.0338663
0.0256616
0.0204608
0.016797
0.0140486
0.0119411
0.010284
0.00895582
0.0078847
0.0070106
0.00628746
0.00568277
0.00517404
0.00474333
0.00437837
0.00407597
0.292299
0.141633
0.0819301
0.0541654
0.0389231
0.0292875
0.0232724
0.0190787
0.0159342
0.0135151
0.0116269
0.0101129
0.00888197
0.00787105
0.00703277
0.00633161
0.00574008
0.0052373
0.00480986
0.00447922
0.319723
0.227073
0.162232
0.118772
0.0893611
0.0689928
0.0545306
0.0439845
0.0360999
0.0300749
0.0253823
0.0216655
0.018678
0.0162456
0.0142424
0.0125758
0.0111766
0.0099918
0.00898033
0.00812411
0.323293
0.245617
0.187499
0.144537
0.112864
0.0894039
0.0718632
0.0585864
0.0483995
0.0404741
0.0342246
0.0292331
0.0251989
0.0219024
0.0191814
0.0169146
0.0150097
0.0133957
0.0120151
0.0108147
0.324288
0.250862
0.19613
0.154888
0.123591
0.09968
0.0812741
0.0669837
0.0557847
0.0469223
0.0398394
0.0341235
0.0294672
0.0256397
0.0224665
0.0198144
0.0175803
0.0156827
0.0140522
0.0126106
0.32459
0.252403
0.19891
0.158543
0.12769
0.103871
0.08532
0.0707499
0.0592099
0.0499926
0.0425683
0.0365382
0.0316003
0.0275246
0.0241348
0.0212944
0.0188969
0.0168566
0.0150977
0.0135281
0.32459
0.252403
0.19891
0.158543
0.12769
0.103871
0.08532
0.0707499
0.0592099
0.0499926
0.0425683
0.0365381
0.0316002
0.0275245
0.0241347
0.0212943
0.0188968
0.0168564
0.0150975
0.0135281
0.324288
0.250862
0.19613
0.154888
0.123591
0.09968
0.0812741
0.0669837
0.0557847
0.0469222
0.0398394
0.0341235
0.0294672
0.0256397
0.0224665
0.0198144
0.0175803
0.0156827
0.0140522
0.0126105
0.323293
0.245617
0.187499
0.144537
0.112864
0.0894039
0.0718632
0.0585864
0.0483995
0.0404742
0.0342246
0.0292332
0.0251991
0.0219027
0.0191819
0.0169152
0.0150106
0.0133967
0.0120161
0.0108141
0.319723
0.227073
0.162232
0.118772
0.0893611
0.0689928
0.0545306
0.0439845
0.0360999
0.0300749
0.0253824
0.0216656
0.0186783
0.0162462
0.0142433
0.0125771
0.0111784
0.00999429
0.00898391
0.00812192
0.292299
0.141633
0.0819301
0.0541654
0.0389231
0.0292874
0.0232723
0.0190786
0.0159341
0.013515
0.0116268
0.0101128
0.00888197
0.00787123
0.00703322
0.0063323
0.0057412
0.0052391
0.00481245
0.00448014
0.295943
0.148782
0.0871941
0.057675
0.0415194
0.0310723
0.0246452
0.0202212
0.0169052
0.0143252
0.0123088
0.0107028
0.00939681
0.00832331
0.00743217
0.00668573
0.00605522
0.00551877
0.00506178
0.00469239
0.320484
0.23086
0.167176
0.123531
0.093516
0.0724827
0.0574409
0.0464216
0.0381542
0.0318178
0.0268717
0.0229478
0.0197897
0.0172154
0.0150932
0.0133261
0.0118414
0.0105834
0.00950922
0.00858888
0.323714
0.247819
0.191099
0.14881
0.117249
0.0935708
0.0756574
0.0619606
0.0513628
0.0430614
0.0364794
0.0311997
0.026918
0.02341
0.0205084
0.0180872
0.0160501
0.0143218
0.0128405
0.011543
0.32459
0.252403
0.19891
0.158543
0.12769
0.103871
0.08532
0.0707499
0.0592099
0.0499926
0.0425683
0.0365381
0.0316002
0.0275245
0.0241347
0.0212943
0.0188968
0.0168564
0.0150975
0.0135281
0.324844
0.253685
0.20131
0.161836
0.131535
0.107943
0.08937
0.0746125
0.062792
0.0532533
0.0455012
0.0391571
0.0339299
0.0295939
0.0259733
0.0229302
0.0203551
0.0181581
0.0162563
0.0145394
0.324844
0.253685
0.20131
0.161836
0.131535
0.107943
0.08937
0.0746125
0.062792
0.0532533
0.0455012
0.0391571
0.0339299
0.0295939
0.0259733
0.0229302
0.0203551
0.0181581
0.0162562
0.0145393
0.32459
0.252403
0.19891
0.158543
0.12769
0.103871
0.08532
0.0707499
0.0592099
0.0499926
0.0425683
0.0365382
0.0316003
0.0275246
0.0241348
0.0212944
0.0188969
0.0168566
0.0150977
0.0135279
0.323714
0.247819
0.191099
0.14881
0.117249
0.0935708
0.0756574
0.0619607
0.0513629
0.0430614
0.0364795
0.0311998
0.0269182
0.0234102
0.0205087
0.0180877
0.0160506
0.0143224
0.012841
0.0115423
0.320484
0.23086
0.167176
0.123531
0.093516
0.0724827
0.0574409
0.0464216
0.0381542
0.0318178
0.0268718
0.0229479
0.0197899
0.0172157
0.0150937
0.0133268
0.0118422
0.0105846
0.00951053
0.0085876
0.295943
0.148782
0.0871941
0.057675
0.0415194
0.0310723
0.0246452
0.0202212
0.0169052
0.0143252
0.0123088
0.0107028
0.00939681
0.0083234
0.00743237
0.00668603
0.00605568
0.00551943
0.0050625
0.00469408
0.295943
0.148782
0.0871941
0.057675
0.0415194
0.0310723
0.0246452
0.0202212
0.0169052
0.0143252
0.0123088
0.0107028
0.00939681
0.00832339
0.0074324
0.00668608
0.00605573
0.00551951
0.00506262
0.00469423
0.320484
0.23086
0.167176
0.123531
0.093516
0.0724827
0.0574409
0.0464216
0.0381542
0.0318179
0.0268718
0.0229479
0.0197899
0.0172157
0.0150937
0.0133268
0.0118423
0.0105846
0.00951063
0.00858782
0.323714
0.247819
0.191099
0.14881
0.117249
0.0935708
0.0756574
0.0619607
0.0513629
0.0430614
0.0364795
0.0311998
0.0269182
0.0234102
0.0205088
0.0180877
0.0160506
0.0143225
0.0128411
0.0115424
0.32459
0.252403
0.19891
0.158543
0.12769
0.103871
0.08532
0.0707499
0.0592099
0.0499926
0.0425683
0.0365382
0.0316003
0.0275246
0.0241348
0.0212944
0.0188969
0.0168566
0.0150977
0.013528
0.324844
0.253685
0.20131
0.161836
0.131535
0.107943
0.08937
0.0746125
0.062792
0.0532533
0.0455012
0.0391571
0.0339299
0.0295939
0.0259733
0.0229302
0.0203551
0.0181581
0.0162562
0.0145394
0.324844
0.253685
0.20131
0.161836
0.131535
0.107943
0.08937
0.0746125
0.062792
0.0532533
0.0455012
0.0391571
0.0339299
0.0295939
0.0259733
0.0229302
0.0203551
0.0181581
0.0162562
0.0145393
0.32459
0.252403
0.19891
0.158543
0.12769
0.103871
0.08532
0.0707498
0.0592099
0.0499926
0.0425683
0.0365381
0.0316002
0.0275245
0.0241347
0.0212943
0.0188967
0.0168564
0.0150975
0.0135279
0.323714
0.247819
0.191099
0.14881
0.117249
0.0935708
0.0756574
0.0619606
0.0513628
0.0430614
0.0364794
0.0311997
0.026918
0.02341
0.0205084
0.0180872
0.0160501
0.0143218
0.0128404
0.0115428
0.320484
0.23086
0.167176
0.123531
0.093516
0.0724826
0.0574409
0.0464215
0.0381542
0.0318178
0.0268717
0.0229478
0.0197896
0.0172153
0.0150932
0.0133261
0.0118413
0.0105833
0.00950903
0.00858855
0.295943
0.148782
0.0871941
0.057675
0.0415194
0.0310723
0.0246452
0.0202212
0.0169052
0.0143252
0.0123088
0.0107028
0.00939676
0.00832326
0.00743218
0.00668572
0.00605519
0.00551871
0.00506169
0.00469223
0.292299
0.141633
0.0819301
0.0541654
0.0389231
0.0292874
0.0232723
0.0190786
0.0159341
0.013515
0.0116268
0.0101128
0.00888194
0.0078712
0.00703326
0.00633234
0.00574123
0.00523913
0.00481248
0.00448012
0.319723
0.227073
0.162232
0.118772
0.0893611
0.0689928
0.0545306
0.0439845
0.0360999
0.0300749
0.0253824
0.0216656
0.0186783
0.0162462
0.0142433
0.0125771
0.0111784
0.00999427
0.00898388
0.00812186
0.323293
0.245617
0.187499
0.144537
0.112864
0.0894039
0.0718632
0.0585864
0.0483995
0.0404742
0.0342246
0.0292332
0.0251991
0.0219027
0.0191819
0.0169152
0.0150106
0.0133967
0.0120161
0.0108141
0.324288
0.250862
0.19613
0.154888
0.123591
0.09968
0.0812741
0.0669837
0.0557847
0.0469222
0.0398394
0.0341235
0.0294672
0.0256397
0.0224665
0.0198144
0.0175802
0.0156827
0.0140522
0.0126105
0.32459
0.252403
0.19891
0.158543
0.12769
0.103871
0.08532
0.0707498
0.0592099
0.0499926
0.0425683
0.0365381
0.0316002
0.0275245
0.0241347
0.0212943
0.0188967
0.0168564
0.0150975
0.0135281
0.32459
0.252403
0.19891
0.158543
0.12769
0.103871
0.08532
0.0707499
0.0592099
0.0499926
0.0425683
0.0365382
0.0316003
0.0275246
0.0241348
0.0212944
0.0188969
0.0168566
0.0150977
0.013528
0.324288
0.250862
0.19613
0.154888
0.123591
0.09968
0.0812741
0.0669837
0.0557847
0.0469222
0.0398394
0.0341235
0.0294671
0.0256397
0.0224665
0.0198144
0.0175802
0.0156827
0.0140522
0.0126105
0.323293
0.245617
0.187499
0.144537
0.112864
0.0894039
0.0718632
0.0585864
0.0483994
0.0404741
0.0342245
0.0292331
0.0251988
0.0219023
0.0191814
0.0169145
0.0150097
0.0133956
0.012015
0.0108145
0.319723
0.227073
0.162232
0.118772
0.0893611
0.0689928
0.0545306
0.0439845
0.0360999
0.0300749
0.0253823
0.0216654
0.0186779
0.0162455
0.0142424
0.0125758
0.0111765
0.0099917
0.00898018
0.00812382
0.292299
0.141633
0.0819301
0.0541654
0.0389231
0.0292875
0.0232723
0.0190787
0.0159342
0.013515
0.0116269
0.0101129
0.0088819
0.00787095
0.00703282
0.00633165
0.0057401
0.00523728
0.00480984
0.00447908
0.283364
0.126774
0.071702
0.0473282
0.0338663
0.0256616
0.0204608
0.016797
0.0140486
0.0119411
0.010284
0.00895581
0.00788467
0.00701057
0.00628747
0.00568277
0.00517401
0.00474326
0.00437828
0.0040761
0.31754
0.217754
0.151085
0.108549
0.0807155
0.0618725
0.0486772
0.0391416
0.0320584
0.0266712
0.0224896
0.0191866
0.016538
0.0143853
0.0126151
0.0111454
0.00991393
0.00887223
0.00798739
0.00723425
0.322005
0.239026
0.177588
0.133616
0.102323
0.0798668
0.0635104
0.0513819
0.0422214
0.0351791
0.0296752
0.0253087
0.0217972
0.0189383
0.0165849
0.0146282
0.0129864
0.0115972
0.0104121
0.00939402
0.323293
0.245617
0.187499
0.144537
0.112864
0.0894039
0.0718632
0.0585864
0.0483994
0.0404741
0.0342245
0.0292331
0.0251989
0.0219023
0.0191813
0.0169145
0.0150097
0.0133956
0.0120149
0.0108145
0.323714
0.247819
0.191099
0.14881
0.117249
0.0935708
0.0756574
0.0619606
0.0513628
0.0430614
0.0364794
0.0311997
0.026918
0.02341
0.0205084
0.0180872
0.01605
0.0143218
0.0128405
0.0115429
0.323714
0.247819
0.191099
0.14881
0.117249
0.0935708
0.0756574
0.0619607
0.0513629
0.0430614
0.0364795
0.0311998
0.0269182
0.0234102
0.0205087
0.0180877
0.0160506
0.0143224
0.0128411
0.0115424
0.323293
0.245617
0.187499
0.144537
0.112864
0.0894039
0.0718632
0.0585864
0.0483995
0.0404742
0.0342246
0.0292332
0.0251991
0.0219027
0.0191819
0.0169152
0.0150106
0.0133967
0.0120161
0.0108141
0.322005
0.239026
0.177588
0.133616
0.102323
0.0798668
0.0635104
0.0513819
0.0422214
0.0351791
0.0296752
0.0253087
0.0217972
0.0189383
0.016585
0.0146282
0.0129865
0.0115973
0.0104122
0.00939422
0.31754
0.217754
0.151085
0.108549
0.0807155
0.0618725
0.0486772
0.0391416
0.0320584
0.0266712
0.0224896
0.0191865
0.0165377
0.0143849
0.0126145
0.0111446
0.00991271
0.00887032
0.00798299
0.00723857
0.283364
0.126774
0.071702
0.0473282
0.0338663
0.0256616
0.0204608
0.0167971
0.0140486
0.0119412
0.0102841
0.00895583
0.00788461
0.00701034
0.00628704
0.00568206
0.00517281
0.00474114
0.00437462
0.00407962
0.264759
0.104702
0.0585298
0.039163
0.0286199
0.0219934
0.017536
0.0143632
0.0120082
0.0102137
0.00881624
0.00770554
0.00680373
0.0060608
0.00544902
0.00494699
0.00452832
0.00417483
0.00387855
0.00363241
0.311746
0.197541
0.130357
0.0911456
0.0668022
0.0508111
0.0397944
0.031912
0.0260941
0.0216872
0.0182764
0.0155882
0.0134405
0.0116974
0.0102656
0.00907701
0.00807997
0.00723369
0.00652628
0.00589993
0.31754
0.217754
0.151085
0.108549
0.0807155
0.0618725
0.0486772
0.0391416
0.0320584
0.0266712
0.0224896
0.0191865
0.0165378
0.014385
0.0126145
0.0111445
0.00991261
0.00887025
0.00798285
0.00723843
0.319723
0.227073
0.162232
0.118772
0.0893611
0.0689928
0.0545306
0.0439845
0.0360999
0.0300749
0.0253823
0.0216654
0.018678
0.0162456
0.0142423
0.0125757
0.0111765
0.00999169
0.0089802
0.00812389
0.320484
0.23086
0.167176
0.123531
0.093516
0.0724826
0.0574409
0.0464216
0.0381542
0.0318178
0.0268717
0.0229478
0.0197897
0.0172153
0.0150932
0.0133261
0.0118414
0.0105834
0.00950915
0.00858875
0.320484
0.23086
0.167176
0.123531
0.093516
0.0724827
0.0574409
0.0464216
0.0381542
0.0318178
0.0268718
0.0229479
0.0197899
0.0172157
0.0150937
0.0133268
0.0118423
0.0105846
0.00951064
0.00858776
0.319723
0.227073
0.162232
0.118772
0.0893611
0.0689928
0.0545306
0.0439845
0.0360999
0.0300749
0.0253824
0.0216656
0.0186783
0.0162462
0.0142433
0.0125771
0.0111784
0.00999428
0.0089839
0.00812186
0.31754
0.217754
0.151085
0.108549
0.0807155
0.0618725
0.0486772
0.0391416
0.0320584
0.0266712
0.0224896
0.0191866
0.016538
0.0143853
0.0126151
0.0111455
0.00991398
0.00887229
0.00798747
0.00723435
0.311746
0.197541
0.130357
0.0911456
0.0668022
0.050811
0.0397943
0.031912
0.0260941
0.0216872
0.0182764
0.0155882
0.0134405
0.0116972
0.0102658
0.00907716
0.00808013
0.00723387
0.00652652
0.00590016
0.264759
0.104702
0.0585298
0.039163
0.0286199
0.0219934
0.017536
0.0143632
0.0120082
0.0102137
0.00881623
0.00770551
0.00680369
0.00606039
0.0054485
0.00494629
0.00452719
0.00417292
0.00387599
0.00363378
0.213564
0.055916
0.0283994
0.0193411
0.0146927
0.011851
0.00989064
0.00851597
0.00749118
0.00669612
0.00606023
0.00555041
0.00512206
0.00474361
0.00442302
0.00415285
0.00392254
0.00372321
0.00355246
0.00336394
0.264759
0.104702
0.0585298
0.039163
0.0286199
0.0219934
0.017536
0.0143632
0.0120082
0.0102137
0.00881622
0.0077055
0.00680365
0.00606051
0.00544845
0.00494617
0.00452706
0.00417279
0.00387583
0.00363356
0.283364
0.126774
0.071702
0.0473282
0.0338663
0.0256617
0.0204608
0.016797
0.0140486
0.0119412
0.0102841
0.00895584
0.00788467
0.00701042
0.00628697
0.00568197
0.00517274
0.00474108
0.00437456
0.00407957
0.292299
0.141633
0.0819301
0.0541654
0.0389231
0.0292875
0.0232724
0.0190787
0.0159342
0.013515
0.0116269
0.0101129
0.00888196
0.00787104
0.00703274
0.00633159
0.00574007
0.00523728
0.00480985
0.00447921
0.295943
0.148782
0.0871941
0.057675
0.0415194
0.0310723
0.0246452
0.0202212
0.0169052
0.0143252
0.0123088
0.0107028
0.0093968
0.0083233
0.00743216
0.00668573
0.00605522
0.00551878
0.00506181
0.00469258
0.295943
0.148782
0.0871941
0.057675
0.0415194
0.0310723
0.0246452
0.0202212
0.0169052
0.0143252
0.0123088
0.0107028
0.0093968
0.0083234
0.00743241
0.00668608
0.00605574
0.00551952
0.00506264
0.00469445
0.292299
0.141633
0.0819301
0.0541654
0.0389231
0.0292874
0.0232723
0.0190786
0.0159341
0.013515
0.0116268
0.0101128
0.00888196
0.00787123
0.00703323
0.00633231
0.00574121
0.00523912
0.00481247
0.0044801
0.283364
0.126774
0.071702
0.0473282
0.0338663
0.0256616
0.0204608
0.016797
0.0140486
0.0119411
0.010284
0.00895581
0.00788469
0.00701058
0.00628744
0.00568274
0.00517399
0.00474327
0.00437829
0.00407612
0.264759
0.104702
0.0585298
0.039163
0.0286199
0.0219934
0.017536
0.0143632
0.0120082
0.0102137
0.00881624
0.00770555
0.00680374
0.00606074
0.00544902
0.00494704
0.0045284
0.00417493
0.0038787
0.00363258
0.213564
0.055916
0.0283994
0.0193411
0.0146927
0.011851
0.00989063
0.00851597
0.00749119
0.00669613
0.00606024
0.00555039
0.00512211
0.00474357
0.00442305
0.00415291
0.00392261
0.0037233
0.00355256
0.00336413
0.00337858
0.00325204
0.00311167
0.00297858
0.00286529
0.00278127
0.0027048
0.00263631
0.00257194
0.00251429
0.00246303
0.00241802
0.00237175
0.00232837
0.00228575
0.00224628
0.00220754
0.0021717
0.00213697
0.00210413
0.00207213
0.0020409
0.00201187
0.00198348
0.00195661
0.00193026
0.00190429
0.00187841
0.00185294
0.00182746
0.00180322
0.0017792
0.00175484
0.00173062
0.00170604
0.00168451
0.00166395
0.00164291
0.00162497
0.00159663
0.00341319
0.00318982
0.00300423
0.0028466
0.00271271
0.00261075
0.002516
0.0024341
0.00235603
0.00228452
0.00222138
0.00216797
0.00211463
0.00206756
0.00202062
0.00197699
0.00193586
0.00189797
0.00186246
0.00182887
0.00179686
0.00176608
0.00173728
0.00171027
0.0016849
0.00166063
0.00163701
0.00161385
0.0015909
0.00156824
0.00154583
0.00152423
0.0015033
0.00148244
0.0014622
0.00144224
0.00142325
0.00140495
0.00138774
0.00136802
0.00376297
0.00348251
0.00325799
0.00306475
0.00290818
0.0027706
0.0026524
0.00254816
0.00245645
0.00237349
0.00229742
0.0022278
0.0021652
0.00211107
0.00205494
0.00200412
0.00195715
0.00191508
0.00187448
0.0018356
0.00179946
0.00176251
0.00172785
0.00169612
0.0016674
0.00164026
0.0016138
0.00158797
0.00156317
0.00153899
0.00151506
0.00149188
0.00146967
0.00144835
0.00142815
0.00140825
0.00138849
0.00136928
0.00135113
0.00133228
0.00406565
0.00375709
0.00350279
0.00328839
0.00310433
0.00294516
0.0028042
0.00267909
0.0025669
0.00246562
0.00237381
0.00229008
0.00221346
0.00214456
0.00208135
0.00202319
0.00196888
0.0019214
0.00187113
0.00182355
0.00178156
0.00174169
0.00170385
0.00166783
0.00163433
0.00160284
0.00157329
0.00154498
0.00151795
0.001492
0.00146611
0.00144106
0.00141751
0.00139499
0.00137374
0.00135299
0.00133291
0.0013134
0.00129491
0.00127664
0.00426782
0.00394698
0.00367461
0.00344034
0.00323679
0.00305872
0.00290215
0.0027633
0.00263834
0.00252539
0.00242289
0.00232951
0.00224355
0.00216631
0.00209582
0.00203143
0.00197187
0.0019165
0.00186523
0.00181723
0.00177507
0.00173078
0.00168868
0.00165042
0.00161486
0.00158166
0.00155049
0.001521
0.00149307
0.00146679
0.00144046
0.00141485
0.00139085
0.00136743
0.00134525
0.00132389
0.00130364
0.00128391
0.00126506
0.00124711
0.00432015
0.00400028
0.00372457
0.00348463
0.0032741
0.00308829
0.00292416
0.00277832
0.00264721
0.00252845
0.00242065
0.00232247
0.00223268
0.00215127
0.00207688
0.00200879
0.00194675
0.00189015
0.0018381
0.00179005
0.0017458
0.00170463
0.00166745
0.00163073
0.0015932
0.00155797
0.00152571
0.00149606
0.00146877
0.00144264
0.001418
0.00139322
0.00136768
0.00134274
0.00132055
0.00129929
0.00127956
0.00125999
0.00124082
0.00122276
0.00420305
0.00389413
0.00362809
0.00339628
0.00319233
0.00301217
0.00285219
0.00270932
0.00258046
0.00246412
0.00235898
0.00226385
0.00217716
0.00209891
0.00202768
0.00196265
0.00190327
0.00184903
0.00179972
0.00175434
0.00171276
0.00167377
0.00163683
0.00160217
0.00156598
0.00153297
0.0015025
0.0014742
0.00144764
0.00142115
0.00139605
0.00137029
0.00134575
0.00132203
0.00130095
0.0012803
0.00125971
0.00123924
0.00121894
0.00119956
0.00396192
0.00368008
0.00343599
0.00322239
0.00303417
0.00286774
0.00271885
0.00258597
0.00246758
0.00236138
0.00226585
0.00217919
0.00210047
0.00203002
0.00196599
0.00190741
0.00185434
0.00180551
0.00176066
0.00171911
0.00168169
0.0016442
0.00160793
0.00157503
0.00154398
0.00151455
0.00148637
0.00145954
0.00143232
0.00140503
0.00137945
0.00135589
0.00133345
0.00131118
0.00128928
0.00126764
0.00124554
0.00122396
0.00120278
0.00118243
0.00365209
0.00340874
0.00319529
0.00300625
0.0028364
0.0026872
0.00255838
0.00244499
0.00234388
0.00225381
0.00217368
0.00210016
0.00203623
0.00197698
0.0019253
0.00187168
0.00182248
0.00177783
0.00173796
0.00169966
0.00166452
0.00163068
0.00159861
0.00156833
0.00153908
0.00151121
0.00148486
0.00145964
0.00143562
0.00141169
0.00138836
0.00136578
0.00134395
0.00132246
0.00130073
0.00127925
0.0012577
0.00123637
0.00121626
0.00119694
0.00337708
0.00318029
0.00298957
0.00281623
0.00267341
0.0025578
0.00245542
0.00236749
0.00228597
0.00221153
0.00214641
0.00209124
0.0020414
0.00198726
0.00193871
0.00189318
0.0018506
0.0018107
0.00177349
0.00173844
0.00170559
0.00167481
0.0016467
0.00161998
0.00159457
0.00157016
0.00154657
0.00152355
0.00150065
0.00147765
0.00145544
0.00143419
0.0014134
0.00139292
0.0013723
0.00135059
0.00133009
0.00130995
0.00129197
0.00127131
0.0033787
0.00325243
0.00311256
0.00297835
0.00287077
0.00278729
0.00271048
0.00264098
0.00257591
0.00251682
0.00246541
0.00241839
0.00237315
0.00232948
0.00228715
0.00224743
0.00220892
0.00217274
0.0021377
0.00210484
0.00207237
0.00204132
0.00201196
0.00198388
0.00195696
0.00193088
0.00190482
0.00187893
0.0018534
0.00182783
0.00180362
0.00177962
0.00175553
0.00173184
0.00170873
0.00168622
0.00166397
0.00164211
0.00162322
0.00159343
0.00337681
0.00318025
0.00298938
0.00281796
0.00266858
0.00254906
0.00244833
0.00236227
0.00228118
0.00220838
0.00214321
0.00209043
0.00204037
0.00198636
0.00193722
0.00189218
0.00184913
0.0018097
0.00177262
0.00173789
0.00170529
0.00167465
0.00164656
0.00161979
0.00159439
0.00156999
0.00154637
0.00152339
0.00150058
0.00147764
0.00145551
0.00143431
0.0014134
0.0013921
0.00136992
0.00134903
0.00132957
0.00131095
0.00129382
0.00127411
0.00489245
0.0043034
0.00387806
0.00353839
0.00325052
0.00301875
0.00281445
0.00263502
0.00246068
0.00230419
0.00216874
0.00205702
0.00194045
0.00183455
0.00173476
0.00164947
0.00156877
0.00149833
0.00143266
0.00137341
0.00131295
0.00125675
0.00121193
0.00117211
0.00113189
0.00109407
0.00105822
0.0010242
0.000991939
0.000955717
0.00092057
0.000890289
0.0008623
0.000834549
0.000799066
0.000768728
0.000741481
0.000716386
0.000693248
0.000674837
0.00604198
0.00542495
0.00491933
0.00449469
0.0041394
0.00383245
0.00356238
0.00332223
0.00310873
0.00291666
0.00274221
0.00258533
0.00244184
0.00231158
0.0021926
0.00208452
0.00198546
0.00189511
0.00181249
0.00173382
0.00166159
0.00159205
0.00152891
0.00146861
0.00141127
0.00135773
0.00130767
0.00125933
0.00121734
0.00117182
0.00112583
0.00108375
0.00104484
0.00100811
0.000973915
0.000930945
0.000890051
0.000853351
0.000819889
0.000775491
0.0068201
0.00615412
0.00559365
0.00511819
0.00471177
0.00435986
0.00404772
0.00376974
0.00352043
0.00329647
0.00309437
0.00291146
0.00274661
0.00259534
0.00245791
0.00233256
0.00221792
0.0021128
0.00201671
0.00192682
0.00184549
0.0017687
0.00169736
0.00162955
0.00156709
0.00150878
0.00145466
0.00140282
0.00135538
0.00130739
0.00125957
0.0012132
0.00116972
0.00112775
0.00109022
0.00104362
0.0010017
0.000960669
0.000922914
0.000871943
0.00728299
0.00659627
0.00600706
0.00549792
0.00505497
0.00466826
0.00432848
0.0040287
0.00375951
0.00351676
0.00329753
0.00309921
0.00292007
0.00275632
0.00260749
0.00247196
0.00234824
0.00223496
0.00213113
0.0020351
0.00194795
0.0018593
0.00177744
0.00170866
0.0016462
0.00158797
0.00153225
0.00147713
0.00142456
0.00137337
0.00132492
0.00127715
0.00123098
0.00118568
0.00114437
0.00109509
0.00105041
0.00100629
0.000964012
0.000908762
0.00743992
0.00675401
0.00615899
0.00564016
0.00518563
0.00478631
0.0044352
0.00412603
0.00384988
0.00360071
0.00337554
0.00317225
0.00298761
0.00282004
0.00266778
0.00252906
0.00240234
0.00228628
0.00217972
0.00208147
0.00199096
0.00190647
0.00182833
0.00174592
0.00167031
0.00160577
0.00155029
0.001498
0.00144844
0.00139905
0.00135358
0.00130446
0.001254
0.00120425
0.00115905
0.0011072
0.00105944
0.00101281
0.000965841
0.000908162
0.0072897
0.00661496
0.00602982
0.00552114
0.00507676
0.00468889
0.00434942
0.00404979
0.00378047
0.00353782
0.00331903
0.00312222
0.00294069
0.00277835
0.00263064
0.00249578
0.00237225
0.00225877
0.00215426
0.0020577
0.00196826
0.0018847
0.00180785
0.00172913
0.00165997
0.00159715
0.00153585
0.00147702
0.00142375
0.00136758
0.00131365
0.00126098
0.00121002
0.00116095
0.0011155
0.00106182
0.00101186
0.000962423
0.000911113
0.000847445
0.00683484
0.00617268
0.00561395
0.00513808
0.00473021
0.00437915
0.00406877
0.00379111
0.00354158
0.00331681
0.00311428
0.00293074
0.00275977
0.00260807
0.00246973
0.00234277
0.00222607
0.00211878
0.00201958
0.00192771
0.00184182
0.00176191
0.00168673
0.00161467
0.00154723
0.00148389
0.00142365
0.001366
0.00131366
0.00125631
0.00120014
0.0011463
0.00109527
0.00104731
0.000999206
0.000954018
0.000894971
0.000842614
0.00079156
0.000731518
0.00606546
0.00543812
0.0049317
0.00451863
0.0041652
0.00385548
0.00358079
0.00333628
0.00311376
0.00291188
0.00273232
0.00256179
0.00241132
0.00227367
0.0021491
0.00203283
0.00192779
0.0018308
0.00174217
0.001659
0.00158191
0.00150874
0.00144206
0.0013816
0.0013216
0.00126695
0.00121549
0.00116681
0.00112283
0.00107391
0.00102428
0.000979674
0.00093848
0.00089947
0.00085671
0.000817107
0.000767098
0.000717567
0.00067756
0.000643314
0.00489287
0.00430585
0.00387629
0.00354594
0.00327426
0.00304085
0.00283189
0.00264813
0.00247275
0.00231056
0.00217727
0.00206049
0.00194148
0.00183577
0.00173868
0.00165221
0.00157245
0.00150127
0.00143487
0.00137512
0.00131396
0.00125766
0.00121306
0.00117373
0.00113325
0.00109529
0.00105931
0.00102515
0.000992711
0.000956405
0.000921209
0.000890885
0.000862994
0.000836486
0.000810969
0.000781596
0.000743018
0.000711901
0.000687055
0.000668509
0.00341412
0.00319221
0.00300674
0.00285202
0.0027245
0.00262113
0.0025235
0.00243951