/*--------------------------------*- C++ -*----------------------------------*\
| =========                 |                                                 |
| \\      /  F ield         | OpenFOAM: The Open Source CFD Toolbox           |
|  \\    /   O peration     | Version:  2212                                  |
|   \\  /    A nd           | Website:  www.openfoam.com                      |
|    \\/     M anipulation  |                                                 |
\*---------------------------------------------------------------------------*/
FoamFile
{
    version     2.0;
    format      ascii;
    arch        "LSB;label=32;scalar=64";
    class       volScalarField;
    location    "1.6";
    object      p;
}
// * * * * * * * * * * * * * * * * * * * * * * * * * * * * * * * * * * * * * //

dimensions      [0 2 -2 0 0 0 0];

internalField   nonuniform List<scalar> 
6840
(
0.0178647
0.0107503
0.00845881
0.00792098
0.00764662
0.00742442
0.0072378
0.00707141
0.0069103
0.00675095
0.00659347
0.00643777
0.0062831
0.00612847
0.00597401
0.00582093
0.00566949
0.00551748
0.00536786
0.00522892
0.0106859
0.00995203
0.00885913
0.00819316
0.00779057
0.00751685
0.00730568
0.00711949
0.00694513
0.0067779
0.00661532
0.00645574
0.00629787
0.00614106
0.00598548
0.00583164
0.0056796
0.0055281
0.00537934
0.0052318
0.0103376
0.00948609
0.00872182
0.00816268
0.00778652
0.00751848
0.00730279
0.00710984
0.00693137
0.0067628
0.00659927
0.00643856
0.00628016
0.00612395
0.0059697
0.00581714
0.00566615
0.00551686
0.00536662
0.00521604
0.00992831
0.00916557
0.0085468
0.00809547
0.00775148
0.00748241
0.00726272
0.00707379
0.00690577
0.00674804
0.00659192
0.00643593
0.00628071
0.0061268
0.00597439
0.00582361
0.00567458
0.0055274
0.00538091
0.00523821
0.00979407
0.00905288
0.0084647
0.00805656
0.00773457
0.00746778
0.00724612
0.00705527
0.00688415
0.00672687
0.00657606
0.00642472
0.00627185
0.006119
0.0059673
0.00581723
0.00566909
0.00552314
0.00537931
0.00523985
0.00979407
0.00905288
0.0084647
0.00805656
0.00773457
0.00746777
0.00724612
0.00705526
0.00688414
0.00672686
0.00657606
0.00642472
0.00627186
0.00611904
0.00596737
0.00581736
0.00566935
0.00552367
0.00538094
0.00524046
0.00992831
0.00916558
0.00854681
0.00809547
0.00775148
0.0074824
0.00726271
0.00707379
0.00690576
0.00674803
0.00659191
0.00643592
0.0062807
0.00612676
0.00597432
0.00582352
0.00567455
0.00552774
0.00538328
0.00523712
0.0103376
0.00948609
0.00872182
0.00816269
0.00778652
0.00751848
0.00730279
0.00710984
0.00693137
0.0067628
0.00659927
0.00643857
0.00628016
0.0061239
0.00596956
0.00581683
0.00566556
0.00551592
0.00536778
0.00521281
0.0106859
0.00995204
0.00885914
0.00819317
0.00779058
0.00751685
0.00730568
0.00711948
0.00694512
0.00677787
0.00661527
0.00645565
0.00629773
0.00614086
0.0059852
0.00583122
0.00567876
0.00552656
0.00537702
0.00522246
0.0178647
0.0107503
0.00845882
0.00792099
0.00764664
0.00742443
0.00723781
0.00707142
0.00691032
0.00675098
0.0065935
0.00643781
0.00628315
0.00612852
0.00597405
0.005821
0.0056696
0.00551763
0.00536805
0.00522937
0.0106859
0.00995203
0.00885913
0.00819316
0.00779057
0.00751684
0.00730567
0.00711947
0.0069451
0.00677785
0.00661525
0.00645563
0.00629769
0.00614084
0.00598518
0.00583117
0.00567867
0.00552644
0.00537683
0.00522211
0.00996929
0.00993759
0.00920938
0.00849888
0.00805254
0.00773661
0.00747776
0.00725017
0.0070457
0.00685752
0.00668013
0.00650995
0.00634428
0.00618147
0.00602117
0.00586377
0.00570895
0.00555604
0.00540791
0.00526225
0.00904381
0.00917001
0.00886713
0.00845093
0.00808379
0.00776517
0.00748665
0.00724625
0.00703376
0.00683937
0.00665634
0.00648147
0.00631289
0.006149
0.00598869
0.00583133
0.00567658
0.00552394
0.00537041
0.00521813
0.00862544
0.00866895
0.00850338
0.00824044
0.00796006
0.00768872
0.00743769
0.00721128
0.0070082
0.0068216
0.00664467
0.00647422
0.00630868
0.00614709
0.00598899
0.00583404
0.00568183
0.00553237
0.00538571
0.00524509
0.00840943
0.00843126
0.00830405
0.00808652
0.00785407
0.00762487
0.007402
0.00718877
0.00698786
0.00680033
0.00662363
0.00645427
0.00629052
0.00613124
0.0059755
0.00582272
0.00567271
0.00552614
0.00538505
0.00525045
0.00840944
0.00843126
0.00830405
0.00808653
0.00785407
0.00762487
0.00740201
0.00718877
0.00698786
0.00680034
0.00662367
0.00645435
0.00629065
0.00613145
0.00597576
0.00582309
0.00567326
0.00552678
0.00538581
0.0052476
0.00862544
0.00866895
0.00850338
0.00824045
0.00796007
0.00768873
0.0074377
0.00721129
0.00700821
0.00682163
0.00664475
0.00647439
0.00630893
0.00614738
0.00598924
0.00583417
0.00568182
0.0055321
0.00538542
0.0052342
0.00904382
0.00917001
0.00886714
0.00845094
0.0080838
0.00776518
0.00748666
0.00724627
0.00703378
0.00683941
0.0066564
0.00648156
0.006313
0.00614915
0.00598886
0.00583142
0.00567643
0.0055234
0.00536905
0.00520657
0.0099693
0.0099376
0.00920939
0.00849889
0.00805255
0.00773663
0.00747777
0.00725018
0.00704572
0.00685755
0.00668016
0.00650999
0.00634432
0.00618152
0.00602123
0.00586385
0.00570908
0.00555621
0.00540817
0.0052626
0.0106859
0.00995204
0.00885915
0.00819318
0.00779059
0.00751686
0.0073057
0.00711951
0.00694516
0.00677793
0.00661536
0.00645579
0.00629793
0.00614112
0.00598554
0.00583174
0.00567974
0.00552828
0.0053796
0.00523229
0.0103376
0.00948609
0.00872182
0.00816268
0.00778651
0.00751847
0.00730278
0.00710983
0.00693135
0.00676278
0.00659925
0.00643854
0.00628014
0.00612388
0.00596953
0.00581678
0.00566549
0.00551582
0.00536762
0.00521258
0.00904381
0.00917001
0.00886713
0.00845093
0.00808379
0.00776517
0.00748665
0.00724625
0.00703377
0.00683939
0.00665637
0.00648153
0.00631296
0.0061491
0.00598879
0.00583134
0.00567632
0.00552326
0.00536886
0.00520635
0.00847432
0.0085753
0.00846374
0.00823829
0.00798256
0.00772419
0.00746585
0.00722434
0.00700663
0.00680665
0.00661947
0.00644206
0.00627199
0.00610726
0.00594659
0.00578903
0.00563362
0.00547898
0.00532242
0.00515986
0.00810633
0.00817439
0.008122
0.00797504
0.0077902
0.00758511
0.00737447
0.00716764
0.00696666
0.00677447
0.00659226
0.00641823
0.00625042
0.00608748
0.00592855
0.00577291
0.00561983
0.005469
0.00532078
0.00517296
0.00792324
0.00798767
0.00795819
0.00783334
0.00767432
0.00750061
0.0073143
0.00712626
0.00694012
0.00675672
0.00657766
0.00640397
0.00623604
0.00607326
0.00591501
0.00576106
0.00561047
0.00546295
0.00532066
0.0051799
0.00792324
0.00798767
0.0079582
0.00783335
0.00767433
0.00750062
0.00731431
0.00712628
0.00694014
0.00675675
0.00657771
0.00640404
0.00623611
0.00607332
0.00591509
0.00576121
0.00561067
0.00546313
0.00532066
0.00517802
0.00810633
0.00817439
0.00812201
0.00797505
0.00779021
0.00758512
0.00737449
0.00716766
0.00696668
0.00677451
0.00659232
0.00641831
0.00625051
0.00608757
0.0059286
0.00577286
0.00561959
0.00546846
0.00531995
0.00516782
0.00847433
0.0085753
0.00846375
0.0082383
0.00798257
0.0077242
0.00746587
0.00722435
0.00700665
0.00680667
0.0066195
0.00644209
0.00627203
0.00610733
0.00594666
0.00578911
0.00563371
0.00547908
0.00532249
0.00515985
0.00904383
0.00917002
0.00886715
0.00845094
0.00808381
0.00776519
0.00748667
0.00724627
0.00703378
0.00683939
0.00665637
0.00648151
0.00631293
0.00614907
0.00598878
0.00583143
0.0056767
0.0055241
0.00537062
0.00521833
0.0103376
0.0094861
0.00872183
0.0081627
0.00778653
0.0075185
0.00730281
0.00710986
0.0069314
0.00676283
0.00659931
0.0064386
0.00628021
0.006124
0.00596977
0.00581723
0.00566627
0.00551702
0.00536686
0.00521638
0.00992831
0.00916557
0.0085468
0.00809547
0.00775147
0.0074824
0.00726271
0.00707378
0.00690575
0.00674802
0.0065919
0.0064359
0.00628068
0.00612674
0.00597429
0.00582348
0.00567449
0.00552766
0.00538317
0.00523698
0.00862544
0.00866895
0.00850338
0.00824044
0.00796006
0.00768872
0.00743769
0.00721128
0.0070082
0.00682162
0.00664474
0.00647436
0.0063089
0.00614733
0.00598919
0.00583411
0.00568175
0.005532
0.0053853
0.00523407
0.00810633
0.00817439
0.00812201
0.00797504
0.00779021
0.00758511
0.00737448
0.00716764
0.00696667
0.00677449
0.0065923
0.00641829
0.00625048
0.00608754
0.00592856
0.00577283
0.00561956
0.00546844
0.00531996
0.00516789
0.00780845
0.00786759
0.00785566
0.00776027
0.00762066
0.0074552
0.00727505
0.00709065
0.00690679
0.0067266
0.00655173
0.00638206
0.00621703
0.00605608
0.00589872
0.0057444
0.00559254
0.00544326
0.00529815
0.00515117
0.00765733
0.00772022
0.00772398
0.00765033
0.00753021
0.00738382
0.00722092
0.00704951
0.00687541
0.00670194
0.00653098
0.00636344
0.00619965
0.00603956
0.00588296
0.00572957
0.00557888
0.00543127
0.00528898
0.00514433
0.00765734
0.00772023
0.00772399
0.00765034
0.00753021
0.00738382
0.00722093
0.00704952
0.00687542
0.00670196
0.006531
0.00636347
0.00619968
0.0060396
0.00588302
0.00572967
0.00557901
0.00543141
0.00528911
0.00514409
0.00780846
0.0078676
0.00785566
0.00776028
0.00762067
0.00745521
0.00727506
0.00709066
0.0069068
0.00672662
0.00655175
0.00638208
0.00621705
0.00605611
0.00589874
0.00574442
0.00559255
0.00544325
0.00529811
0.00515107
0.00810633
0.0081744
0.00812201
0.00797505
0.00779021
0.00758512
0.00737449
0.00716766
0.00696668
0.0067745
0.00659229
0.00641827
0.00625046
0.00608753
0.0059286
0.00577296
0.00561989
0.00546904
0.00532077
0.00517285
0.00862545
0.00866896
0.00850339
0.00824046
0.00796008
0.00768874
0.00743771
0.00721131
0.00700823
0.00682163
0.0066447
0.00647426
0.00630873
0.00614714
0.00598906
0.00583412
0.00568193
0.00553248
0.00538581
0.00524511
0.00992832
0.00916559
0.00854682
0.00809549
0.00775149
0.00748242
0.00726274
0.00707381
0.00690579
0.00674807
0.00659196
0.00643597
0.00628076
0.00612685
0.00597446
0.00582369
0.00567468
0.00552753
0.00538109
0.00523844
0.00979407
0.00905288
0.0084647
0.00805656
0.00773457
0.00746777
0.00724611
0.00705526
0.00688414
0.00672686
0.00657605
0.00642471
0.00627185
0.00611902
0.00596735
0.00581734
0.00566932
0.00552363
0.00538089
0.00524041
0.00840943
0.00843126
0.00830405
0.00808652
0.00785407
0.00762487
0.007402
0.00718877
0.00698786
0.00680033
0.00662366
0.00645434
0.00629064
0.00613143
0.00597574
0.00582306
0.00567324
0.00552675
0.00538577
0.00524756
0.00792324
0.00798767
0.00795819
0.00783335
0.00767432
0.00750062
0.00731431
0.00712627
0.00694013
0.00675674
0.00657771
0.00640403
0.00623611
0.00607331
0.00591508
0.00576121
0.00561068
0.00546315
0.00532071
0.0051781
0.00765733
0.00772023
0.00772398
0.00765033
0.00753021
0.00738382
0.00722093
0.00704952
0.00687542
0.00670195
0.006531
0.00636346
0.00619968
0.0060396
0.00588302
0.00572967
0.00557902
0.00543143
0.00528915
0.00514415
0.00751454
0.00758405
0.00760617
0.00755363
0.00745238
0.00732146
0.00717156
0.00701062
0.0068442
0.00667601
0.00650844
0.00634295
0.00618031
0.00602086
0.00586464
0.00571147
0.00556088
0.00541296
0.005269
0.00512781
0.00751454
0.00758405
0.00760617
0.00755363
0.00745238
0.00732146
0.00717156
0.00701062
0.0068442
0.00667602
0.00650845
0.00634296
0.00618032
0.00602087
0.00586464
0.00571147
0.00556087
0.00541296
0.00526899
0.00512779
0.00765734
0.00772023
0.00772399
0.00765034
0.00753022
0.00738383
0.00722093
0.00704952
0.00687542
0.00670196
0.006531
0.00636346
0.00619967
0.00603958
0.00588298
0.00572959
0.00557889
0.00543128
0.00528898
0.0051443
0.00792325
0.00798768
0.00795821
0.00783336
0.00767433
0.00750063
0.00731431
0.00712628
0.00694014
0.00675674
0.00657769
0.006404
0.00623608
0.00607329
0.00591505
0.0057611
0.00561052
0.00546299
0.00532069
0.00517991
0.00840945
0.00843127
0.00830406
0.00808654
0.00785409
0.00762488
0.00740202
0.00718878
0.00698788
0.00680035
0.00662366
0.0064543
0.00629056
0.00613129
0.00597554
0.00582278
0.00567277
0.0055262
0.0053851
0.00525046
0.00979408
0.0090529
0.00846472
0.00805658
0.00773459
0.00746779
0.00724614
0.00705528
0.00688417
0.00672689
0.00657609
0.00642475
0.00627188
0.00611905
0.00596735
0.00581729
0.00566915
0.00552322
0.00537939
0.00523994
0.00979407
0.00905288
0.0084647
0.00805656
0.00773457
0.00746778
0.00724612
0.00705527
0.00688415
0.00672687
0.00657607
0.00642473
0.00627186
0.00611902
0.00596732
0.00581725
0.00566911
0.00552317
0.00537935
0.00523991
0.00840944
0.00843126
0.00830405
0.00808652
0.00785407
0.00762487
0.007402
0.00718877
0.00698786
0.00680033
0.00662364
0.00645428
0.00629053
0.00613126
0.00597551
0.00582275
0.00567274
0.00552617
0.00538509
0.0052505
0.00792324
0.00798767
0.00795819
0.00783334
0.00767432
0.00750061
0.0073143
0.00712626
0.00694012
0.00675672
0.00657767
0.00640398
0.00623606
0.00607327
0.00591504
0.00576108
0.0056105
0.00546299
0.0053207
0.00517994
0.00765733
0.00772023
0.00772398
0.00765033
0.00753021
0.00738382
0.00722092
0.00704951
0.00687541
0.00670195
0.00653099
0.00636345
0.00619966
0.00603958
0.00588298
0.00572958
0.0055789
0.0054313
0.00528901
0.00514434
0.00751454
0.00758405
0.00760617
0.00755363
0.00745238
0.00732146
0.00717156
0.00701062
0.0068442
0.00667602
0.00650845
0.00634296
0.00618032
0.00602087
0.00586465
0.00571148
0.00556088
0.00541297
0.00526901
0.00512782
0.00751455
0.00758405
0.00760617
0.00755363
0.00745239
0.00732146
0.00717156
0.00701062
0.00684421
0.00667602
0.00650845
0.00634296
0.00618032
0.00602087
0.00586465
0.00571148
0.00556088
0.00541297
0.005269
0.00512781
0.00765734
0.00772023
0.00772399
0.00765034
0.00753022
0.00738383
0.00722094
0.00704953
0.00687543
0.00670197
0.00653101
0.00636348
0.0061997
0.00603962
0.00588304
0.00572969
0.00557904
0.00543144
0.00528914
0.00514413
0.00792325
0.00798768
0.00795821
0.00783336
0.00767434
0.00750064
0.00731432
0.00712629
0.00694015
0.00675677
0.00657773
0.00640406
0.00623614
0.00607334
0.00591511
0.00576124
0.0056107
0.00546317
0.00532072
0.0051781
0.00840945
0.00843127
0.00830406
0.00808654
0.00785409
0.00762488
0.00740202
0.00718879
0.00698788
0.00680036
0.00662369
0.00645437
0.00629068
0.00613148
0.00597579
0.00582312
0.0056733
0.00552681
0.00538584
0.00524762
0.00979408
0.00905289
0.00846471
0.00805658
0.00773458
0.00746779
0.00724613
0.00705528
0.00688416
0.00672688
0.00657608
0.00642474
0.00627188
0.00611907
0.0059674
0.0058174
0.00566939
0.00552372
0.005381
0.00524051
0.00992831
0.00916558
0.00854681
0.00809547
0.00775148
0.00748241
0.00726272
0.0070738
0.00690578
0.00674806
0.00659194
0.00643595
0.00628074
0.00612683
0.00597444
0.00582367
0.00567465
0.00552749
0.00538101
0.00523832
0.00862544
0.00866895
0.00850338
0.00824045
0.00796007
0.00768872
0.00743769
0.00721129
0.00700821
0.00682162
0.00664469
0.00647425
0.00630872
0.00614713
0.00598904
0.0058341
0.0056819
0.00553245
0.00538581
0.00524518
0.00810633
0.00817439
0.00812201
0.00797504
0.0077902
0.00758511
0.00737448
0.00716765
0.00696667
0.00677449
0.00659228
0.00641826
0.00625045
0.00608752
0.00592859
0.00577295
0.00561989
0.00546906
0.00532083
0.005173
0.00780845
0.00786759
0.00785566
0.00776028
0.00762066
0.0074552
0.00727506
0.00709065
0.0069068
0.00672661
0.00655174
0.00638208
0.00621705
0.00605611
0.00589875
0.00574443
0.00559258
0.00544329
0.00529818
0.00515119
0.00765734
0.00772023
0.00772399
0.00765034
0.00753022
0.00738383
0.00722093
0.00704952
0.00687543
0.00670197
0.00653101
0.00636347
0.00619969
0.00603962
0.00588304
0.00572969
0.00557905
0.00543146
0.00528918
0.00514419
0.00765734
0.00772023
0.00772399
0.00765034
0.00753022
0.00738383
0.00722093
0.00704952
0.00687542
0.00670195
0.00653099
0.00636346
0.00619967
0.00603958
0.00588299
0.00572959
0.00557891
0.00543131
0.00528902
0.00514437
0.00780846
0.0078676
0.00785567
0.00776028
0.00762067
0.00745521
0.00727507
0.00709066
0.0069068
0.00672662
0.00655175
0.00638208
0.00621706
0.00605612
0.00589875
0.00574443
0.00559257
0.00544328
0.00529816
0.00515117
0.00810634
0.0081744
0.00812202
0.00797506
0.00779022
0.00758513
0.0073745
0.00716766
0.00696669
0.00677451
0.00659232
0.00641832
0.00625052
0.00608758
0.00592861
0.00577287
0.0056196
0.00546847
0.00531998
0.00516788
0.00862545
0.00866896
0.00850339
0.00824046
0.00796008
0.00768874
0.00743771
0.0072113
0.00700822
0.00682165
0.00664477
0.0064744
0.00630894
0.00614739
0.00598925
0.00583418
0.00568183
0.0055321
0.00538541
0.00523417
0.00992832
0.00916559
0.00854682
0.00809548
0.00775149
0.00748242
0.00726272
0.0070738
0.00690577
0.00674804
0.00659193
0.00643594
0.00628072
0.00612678
0.00597435
0.00582355
0.00567459
0.0055278
0.00538335
0.00523722
0.0103376
0.00948609
0.00872182
0.00816269
0.00778653
0.00751849
0.0073028
0.00710985
0.00693139
0.00676282
0.0065993
0.0064386
0.00628021
0.006124
0.00596977
0.00581723
0.00566626
0.00551699
0.00536677
0.00521621
0.00904382
0.00917001
0.00886714
0.00845093
0.0080838
0.00776518
0.00748666
0.00724626
0.00703377
0.00683939
0.00665636
0.00648151
0.00631294
0.00614906
0.00598876
0.00583142
0.00567668
0.00552406
0.00537055
0.00521826
0.00847432
0.0085753
0.00846375
0.0082383
0.00798257
0.0077242
0.00746586
0.00722435
0.00700664
0.00680667
0.0066195
0.00644209
0.00627203
0.00610731
0.00594665
0.0057891
0.00563369
0.00547906
0.00532248
0.00515987
0.00810633
0.00817439
0.00812201
0.00797505
0.00779021
0.00758512
0.00737449
0.00716766
0.00696668
0.00677451
0.00659232
0.00641831
0.00625052
0.00608758
0.00592861
0.00577288
0.00561962
0.00546849
0.00532
0.0051679
0.00792324
0.00798767
0.0079582
0.00783335
0.00767433
0.00750063
0.00731432
0.00712628
0.00694015
0.00675676
0.00657772
0.00640405
0.00623613
0.00607334
0.00591511
0.00576124
0.00561071
0.00546319
0.00532077
0.0051782
0.00792325
0.00798768
0.0079582
0.00783335
0.00767433
0.00750062
0.00731431
0.00712627
0.00694013
0.00675674
0.00657768
0.00640399
0.00623607
0.00607329
0.00591505
0.00576109
0.00561051
0.005463
0.00532074
0.00518003
0.00810634
0.0081744
0.00812202
0.00797505
0.00779021
0.00758512
0.00737449
0.00716765
0.00696668
0.00677449
0.00659229
0.00641826
0.00625045
0.00608752
0.00592859
0.00577294
0.00561988
0.00546905
0.00532084
0.00517303
0.00847433
0.00857531
0.00846376
0.00823831
0.00798258
0.00772421
0.00746587
0.00722436
0.00700665
0.00680667
0.0066195
0.00644209
0.00627203
0.00610731
0.00594665
0.00578908
0.00563367
0.00547904
0.00532247
0.00515988
0.00904383
0.00917002
0.00886715
0.00845094
0.00808381
0.00776519
0.00748667
0.00724627
0.00703379
0.00683941
0.0066564
0.00648156
0.006313
0.00614915
0.00598885
0.00583142
0.00567641
0.00552338
0.00536901
0.00520653
0.0103376
0.0094861
0.00872183
0.00816269
0.00778653
0.00751849
0.0073028
0.00710984
0.00693137
0.00676281
0.00659928
0.00643858
0.00628017
0.00612391
0.00596958
0.00581685
0.00566559
0.00551597
0.00536784
0.00521291
0.0106859
0.00995203
0.00885914
0.00819317
0.00779058
0.00751686
0.0073057
0.00711951
0.00694515
0.00677793
0.00661535
0.00645579
0.00629793
0.00614113
0.00598556
0.00583175
0.00567974
0.00552827
0.00537956
0.00523212
0.0099693
0.0099376
0.00920938
0.00849889
0.00805255
0.00773662
0.00747777
0.00725018
0.00704572
0.00685755
0.00668016
0.00650999
0.00634433
0.00618154
0.00602126
0.00586388
0.00570909
0.00555622
0.00540815
0.00526255
0.00904382
0.00917001
0.00886714
0.00845094
0.0080838
0.00776518
0.00748666
0.00724627
0.00703378
0.00683941
0.0066564
0.00648156
0.00631301
0.00614916
0.00598886
0.00583144
0.00567644
0.0055234
0.00536903
0.00520655
0.00862544
0.00866895
0.00850338
0.00824045
0.00796007
0.00768873
0.0074377
0.0072113
0.00700822
0.00682164
0.00664476
0.0064744
0.00630894
0.00614738
0.00598925
0.00583418
0.00568183
0.0055321
0.00538541
0.00523415
0.00840944
0.00843127
0.00830406
0.00808653
0.00785408
0.00762488
0.00740201
0.00718878
0.00698787
0.00680035
0.00662368
0.00645436
0.00629067
0.00613146
0.00597577
0.0058231
0.00567328
0.00552679
0.00538583
0.00524764
0.00840944
0.00843127
0.00830406
0.00808653
0.00785408
0.00762488
0.00740201
0.00718878
0.00698787
0.00680034
0.00662365
0.00645429
0.00629054
0.00613127
0.00597552
0.00582274
0.00567273
0.00552616
0.00538508
0.00525051
0.00862545
0.00866896
0.00850339
0.00824045
0.00796008
0.00768873
0.0074377
0.0072113
0.00700822
0.00682162
0.00664469
0.00647425
0.00630871
0.00614712
0.00598902
0.00583407
0.00568186
0.0055324
0.00538574
0.00524512
0.00904383
0.00917002
0.00886715
0.00845094
0.00808381
0.00776519
0.00748666
0.00724627
0.00703377
0.00683939
0.00665636
0.0064815
0.00631292
0.00614904
0.00598874
0.00583137
0.00567662
0.00552398
0.00537045
0.00521815
0.00996931
0.0099376
0.00920939
0.0084989
0.00805256
0.00773663
0.00747777
0.00725018
0.00704572
0.00685755
0.00668015
0.00650998
0.00634432
0.00618151
0.00602121
0.00586382
0.00570903
0.00555614
0.00540805
0.00526242
0.0106859
0.00995204
0.00885915
0.00819317
0.00779058
0.00751685
0.00730569
0.00711948
0.00694512
0.00677787
0.00661527
0.00645566
0.00629773
0.00614086
0.0059852
0.00583123
0.00567876
0.00552657
0.00537703
0.00522245
0.0178647
0.0107503
0.00845881
0.00792099
0.00764663
0.00742442
0.00723781
0.00707142
0.00691032
0.00675098
0.0065935
0.00643781
0.00628315
0.00612853
0.00597409
0.00582103
0.00566962
0.00551765
0.0053681
0.00522933
0.0106859
0.00995203
0.00885914
0.00819316
0.00779057
0.00751685
0.00730568
0.00711948
0.00694512
0.00677787
0.00661527
0.00645566
0.00629774
0.00614089
0.00598525
0.00583127
0.0056788
0.00552661
0.00537708
0.00522251
0.0103376
0.00948609
0.00872182
0.00816269
0.00778652
0.00751848
0.00730279
0.00710984
0.00693137
0.0067628
0.00659928
0.00643858
0.00628018
0.00612393
0.0059696
0.00581686
0.0056656
0.00551597
0.00536782
0.00521287
0.00992831
0.00916558
0.00854681
0.00809547
0.00775148
0.00748241
0.00726272
0.00707379
0.00690576
0.00674804
0.00659192
0.00643593
0.00628071
0.00612678
0.00597434
0.00582354
0.00567456
0.00552775
0.00538329
0.00523713
0.00979408
0.00905289
0.00846471
0.00805657
0.00773458
0.00746778
0.00724612
0.00705527
0.00688415
0.00672687
0.00657607
0.00642473
0.00627187
0.00611905
0.00596738
0.00581736
0.00566934
0.00552364
0.00538088
0.00524035
0.00979408
0.00905289
0.00846471
0.00805657
0.00773458
0.00746779
0.00724613
0.00705528
0.00688416
0.00672688
0.00657608
0.00642474
0.00627186
0.00611902
0.00596731
0.00581724
0.00566908
0.00552311
0.00537925
0.00523975
0.00992832
0.00916558
0.00854681
0.00809548
0.00775149
0.00748242
0.00726273
0.0070738
0.00690578
0.00674806
0.00659194
0.00643595
0.00628074
0.00612682
0.00597441
0.00582363
0.00567459
0.00552739
0.00538087
0.00523813
0.0103376
0.0094861
0.00872183
0.0081627
0.00778653
0.00751849
0.00730281
0.00710985
0.00693139
0.00676282
0.00659929
0.00643858
0.00628019
0.00612397
0.00596973
0.00581717
0.00566618
0.00551687
0.00536661
0.00521597
0.0106859
0.00995204
0.00885915
0.00819317
0.00779058
0.00751686
0.0073057
0.0071195
0.00694515
0.00677792
0.00661535
0.00645577
0.00629791
0.00614109
0.0059855
0.00583168
0.00567965
0.00552815
0.0053794
0.00523189
0.0178647
0.0107503
0.00845882
0.00792099
0.00764664
0.00742443
0.00723781
0.00707142
0.00691032
0.00675097
0.00659349
0.0064378
0.00628314
0.0061285
0.00597403
0.00582097
0.00566955
0.00551756
0.00536798
0.00522915
0.00519802
0.00491577
0.00469714
0.00455293
0.00441373
0.00426921
0.00412657
0.00398673
0.00384828
0.00370974
0.00357143
0.00343577
0.00330143
0.00316797
0.00303593
0.00290481
0.00277478
0.00264596
0.00251934
0.00239377
0.00226987
0.00214677
0.00202512
0.00190523
0.0017855
0.00166677
0.00154915
0.00143242
0.00131769
0.00120332
0.00108685
0.000970873
0.000856867
0.000744405
0.00063281
0.000519647
0.000404355
0.000288218
0.000174911
5.39045e-05
0.00522755
0.00496235
0.00471275
0.00455558
0.00441488
0.00427026
0.00412646
0.00398516
0.00384515
0.00370519
0.00356579
0.00342912
0.00329364
0.00315881
0.00302539
0.00289319
0.0027627
0.00263383
0.00250716
0.00238176
0.00225806
0.00213568
0.00201539
0.00189667
0.00177758
0.00165898
0.00154139
0.00142484
0.00131027
0.0011961
0.00108012
0.000964604
0.000850962
0.000738915
0.000627438
0.000514183
0.000399118
0.000283975
0.000171125
5.25924e-05
0.00521383
0.00497498
0.00472409
0.00455318
0.0044045
0.00425624
0.00411065
0.00396823
0.00382754
0.00368812
0.00354995
0.00341393
0.0032786
0.00314437
0.003012
0.00288115
0.00275191
0.00262404
0.00249799
0.00237275
0.00224908
0.00212681
0.00200651
0.0018875
0.00176851
0.00165037
0.00153309
0.00141684
0.00130235
0.00118875
0.00107385
0.000959197
0.000845895
0.000733617
0.000622706
0.00051049
0.000395539
0.000280755
0.000169035
5.16073e-05
0.00518421
0.00497369
0.00474974
0.00457273
0.00441648
0.00426696
0.00412159
0.00397936
0.00383924
0.00370045
0.00356287
0.00342676
0.0032919
0.00315821
0.00302584
0.00289492
0.00276539
0.00263706
0.00251023
0.00238428
0.00225964
0.00213583
0.00201254
0.00189041
0.0017698
0.00165082
0.00153329
0.00141685
0.00130188
0.00118822
0.00107324
0.000958271
0.000844552
0.00073248
0.000622297
0.000510705
0.000396185
0.000281811
0.000170109
5.16308e-05
0.00513616
0.00495042
0.00475518
0.00458114
0.00442179
0.00426948
0.00412212
0.00397939
0.00383975
0.00370154
0.00356446
0.00342871
0.00329432
0.00316123
0.00302943
0.00289885
0.00276952
0.00264143
0.00251464
0.00238908
0.00226501
0.00214211
0.0020197
0.00189796
0.00177721
0.0016579
0.00154024
0.00142387
0.00130869
0.00119369
0.00107781
0.000962332
0.00084804
0.000735402
0.000624556
0.000512355
0.000397517
0.000282809
0.000170694
5.16053e-05
0.00510043
0.00492632
0.0047496
0.00458217
0.00442396
0.00427197
0.00412463
0.00398183
0.00384242
0.00370462
0.0035677
0.0034319
0.00329736
0.00316409
0.00303218
0.00290167
0.00277249
0.00264456
0.00251794
0.00239262
0.0022686
0.00214586
0.00202439
0.00190355
0.00178276
0.00166276
0.00154432
0.00142757
0.00131253
0.00119804
0.0010832
0.000968656
0.000854629
0.000741556
0.000629925
0.000517079
0.000402027
0.000286396
0.000172882
5.28207e-05
0.00508143
0.00491073
0.00474111
0.00457739
0.00442153
0.00427147
0.00412566
0.00398359
0.003844
0.00370568
0.00356844
0.0034325
0.00329774
0.00316404
0.00303173
0.00290112
0.00277214
0.00264455
0.00251822
0.00239319
0.00226943
0.00214699
0.00202577
0.00190522
0.00178454
0.00166498
0.0015471
0.0014308
0.00131654
0.00120237
0.0010871
0.000972417
0.000858596
0.000746042
0.000635515
0.000523528
0.000408582
0.000292
0.000176717
5.48889e-05
0.00507355
0.00490132
0.00473022
0.00456749
0.00441446
0.00426672
0.00412229
0.00398046
0.00384077
0.00370266
0.00356587
0.00343049
0.00329601
0.00316201
0.00302911
0.00289802
0.00276904
0.00264171
0.00251576
0.00239108
0.00226747
0.00214516
0.00202395
0.00190421
0.00178532
0.00166775
0.00155124
0.00143554
0.00132179
0.00120759
0.00109149
0.000976344
0.000862787
0.00075019
0.000639058
0.000527417
0.000412848
0.000294986
0.000178048
5.57111e-05
0.00508985
0.00489756
0.00470775
0.00454342
0.00439505
0.00425001
0.00410679
0.00396692
0.00382964
0.00369341
0.00355824
0.00342421
0.00329081
0.00315889
0.00302934
0.00290026
0.00277184
0.00264443
0.00251835
0.00239354
0.00226963
0.00214701
0.00202562
0.00190623
0.00178757
0.00167024
0.00155373
0.00143764
0.00132344
0.00120884
0.00109203
0.000976066
0.000861982
0.000749157
0.000637847
0.000526149
0.00041156
0.000293406
0.000176118
5.49138e-05
0.00515416
0.00491455
0.00470369
0.0045495
0.00440846
0.00426567
0.00412362
0.00398477
0.0038481
0.00371131
0.00357477
0.00344014
0.00330664
0.00317479
0.00304515
0.0029157
0.00278634
0.00265796
0.00253105
0.0024056
0.00228119
0.00215746
0.00203509
0.00191478
0.00179499
0.00167601
0.00155843
0.00144173
0.00132718
0.00121258
0.00109542
0.00097871
0.000864032
0.000750702
0.000639151
0.000528065
0.000413807
0.000295482
0.000177932
5.57884e-05
0.00519768
0.00491544
0.00469571
0.00454997
0.0044121
0.00427035
0.00412835
0.00398799
0.00384919
0.00371036
0.00357203
0.00343598
0.00330126
0.00316782
0.00303609
0.00290509
0.00277494
0.00264626
0.00251926
0.00239384
0.00226966
0.00214639
0.00202493
0.00190552
0.00178613
0.00166715
0.00154958
0.00143279
0.00131801
0.0012036
0.00108705
0.000970952
0.000856785
0.000743791
0.00063242
0.000521384
0.000407453
0.000289949
0.000175163
5.37654e-05
0.00515419
0.00491457
0.00470499
0.00455268
0.00441037
0.00426471
0.00412203
0.0039836
0.00384721
0.00371065
0.00357406
0.00343973
0.00330666
0.00317495
0.00304492
0.00291531
0.00278601
0.00265751
0.00253095
0.00240533
0.00228123
0.0021576
0.00203505
0.00191428
0.0017942
0.00167547
0.00155786
0.00144123
0.00132671
0.00121216
0.00109511
0.000978542
0.000864142
0.000751631
0.000639982
0.000526302
0.0004102
0.000293189
0.000177258
5.56955e-05
0.00516294
0.00494915
0.00473871
0.00457487
0.00442712
0.00428092
0.00413736
0.00399682
0.00385777
0.00371978
0.00358276
0.0034477
0.00331294
0.00317916
0.00304675
0.00291559
0.00278576
0.00265732
0.002531
0.00240523
0.00228134
0.00215816
0.00203611
0.00191551
0.00179513
0.00167607
0.00155781
0.0014406
0.00132581
0.00121125
0.00109407
0.000977189
0.00086224
0.000748896
0.000638095
0.000525684
0.000409152
0.000291886
0.000177357
5.60128e-05
0.00510033
0.0049214
0.00473268
0.00456587
0.00441295
0.00426467
0.00411924
0.00397658
0.00383629
0.00369828
0.00356212
0.00342678
0.0032928
0.00316032
0.00302904
0.00289904
0.00277004
0.00264265
0.0025167
0.00239137
0.00226687
0.00214363
0.00202147
0.0019005
0.00178075
0.00166224
0.00154475
0.00142793
0.00131223
0.00119738
0.00108178
0.000966284
0.00085131
0.000737058
0.000625123
0.000513071
0.000398476
0.000283725
0.000171695
5.37842e-05
0.00508633
0.00491911
0.00474629
0.00458268
0.00442745
0.00427667
0.00412958
0.00398624
0.00384582
0.00370733
0.00357049
0.00343469
0.00330065
0.003168
0.00303622
0.00290555
0.00277607
0.00264798
0.00252095
0.0023954
0.00227066
0.00214685
0.00202439
0.00190317
0.001783
0.00166368
0.00154561
0.00142824
0.00131146
0.0011951
0.00107913
0.000963661
0.000848558
0.000734252
0.000620867
0.000507665
0.000394561
0.000281668
0.000169748
5.36818e-05
0.00505872
0.00489913
0.0047449
0.00458989
0.00443677
0.00428673
0.00413953
0.00399499
0.00385308
0.00371363
0.00357614
0.00344012
0.00330553
0.00317236
0.00304048
0.00290976
0.00278029
0.00265209
0.00252501
0.00239924
0.00227433
0.00215021
0.00202746
0.00190603
0.00178583
0.00166688
0.00154889
0.00143148
0.00131444
0.0011975
0.00108125
0.000965537
0.000850399
0.000735283
0.000619692
0.00050462
0.000391038
0.000278444
0.000167128
5.35076e-05
0.00503569
0.00488214
0.00474268
0.00459505
0.00444492
0.00429682
0.00415061
0.00400582
0.00386297
0.00372251
0.00358409
0.00344728
0.00331199
0.00317807
0.00304538
0.00291404
0.00278392
0.00265514
0.00252762
0.00240134