/*--------------------------------*- C++ -*----------------------------------*\
| =========                 |                                                 |
| \\      /  F ield         | OpenFOAM: The Open Source CFD Toolbox           |
|  \\    /   O peration     | Version:  2212                                  |
|   \\  /    A nd           | Website:  www.openfoam.com                      |
|    \\/     M anipulation  |                                                 |
\*---------------------------------------------------------------------------*/
FoamFile
{
    version     2.0;
    format      ascii;
    arch        "LSB;label=32;scalar=64";
    class       volVectorField;
    location    "1.6";
    object      U;
}
// * * * * * * * * * * * * * * * * * * * * * * * * * * * * * * * * * * * * * //

dimensions      [0 1 -1 0 0 0 0];

internalField   nonuniform List<vector> 
6840
(
(0.0956456 -0.00836006 -0.00836006)
(0.0904939 0.00152204 0.00152204)
(0.0790682 0.00242976 0.00242975)
(0.071301 0.00148775 0.00148775)
(0.0661792 0.000830452 0.000830426)
(0.0623222 0.000563671 0.000563625)
(0.0592201 0.000426308 0.000426147)
(0.0566837 0.000323899 0.000323561)
(0.0545477 0.000253018 0.000252436)
(0.0526939 0.000202606 0.000201623)
(0.0510529 0.000166452 0.000164626)
(0.0495859 0.000140798 0.000137476)
(0.04826 0.000121581 0.000115835)
(0.0470465 0.00010612 9.76398e-05)
(0.0459304 9.29698e-05 8.08084e-05)
(0.0449014 8.19227e-05 6.41551e-05)
(0.0439533 7.47345e-05 4.74979e-05)
(0.043064 7.31753e-05 3.20445e-05)
(0.042243 9.69161e-05 4.77866e-05)
(0.0409652 -8.30199e-05 -0.000103271)
(0.0999088 0.00129701 0.000712559)
(0.0969668 0.00365592 0.00274723)
(0.0935345 0.00264027 0.0021181)
(0.0895891 0.00182056 0.00162052)
(0.0858317 0.00152899 0.00139045)
(0.0825894 0.00135163 0.00116089)
(0.0798641 0.00117993 0.000896735)
(0.077565 0.00104158 0.000691529)
(0.0755542 0.000944665 0.000559477)
(0.0737449 0.000868923 0.000478189)
(0.0720902 0.00079889 0.000429929)
(0.0705602 0.000729987 0.000400888)
(0.0691348 0.000666528 0.000382416)
(0.0677969 0.000612661 0.000372172)
(0.0665309 0.000568456 0.000368493)
(0.0653247 0.000528902 0.000367879)
(0.0641765 0.000489273 0.00036347)
(0.0630714 0.000458168 0.000357169)
(0.0620405 0.000455921 0.000368573)
(0.0602481 0.000578012 0.000510865)
(0.099413 0.000345244 0.000270233)
(0.0988664 0.00201911 0.00187489)
(0.0979215 0.00257326 0.00218894)
(0.0963659 0.0023801 0.00190825)
(0.0946335 0.00211451 0.0016264)
(0.0929725 0.00192742 0.00141809)
(0.0913646 0.00180263 0.00127022)
(0.0898548 0.0017075 0.00115841)
(0.088456 0.00160844 0.0010673)
(0.0871604 0.00150048 0.000994092)
(0.0859605 0.00139401 0.000943547)
(0.0848422 0.00129672 0.000912555)
(0.0837868 0.00120996 0.000895984)
(0.0827801 0.00113168 0.000888966)
(0.0818127 0.0010599 0.000888004)
(0.0808789 0.000993545 0.000891106)
(0.0799749 0.000930276 0.000896321)
(0.0791048 0.000865701 0.000901658)
(0.0782452 0.000820257 0.000926545)
(0.0769452 0.000882866 0.00111053)
(0.0995405 0.000245046 0.0003219)
(0.0992576 0.00105563 0.00154092)
(0.098849 0.00150238 0.0021144)
(0.098125 0.0015795 0.00209152)
(0.0973373 0.00151491 0.00188593)
(0.0965859 0.00144658 0.00166551)
(0.0958671 0.0014104 0.00149739)
(0.0952005 0.00137944 0.00137055)
(0.0945737 0.00133393 0.00128319)
(0.0939315 0.00126323 0.00122683)
(0.0933076 0.00117421 0.00118848)
(0.0927004 0.00107939 0.00116433)
(0.0921019 0.000988885 0.00115057)
(0.0915062 0.000906458 0.00114479)
(0.0909104 0.000831701 0.00114458)
(0.0903124 0.000762131 0.00114813)
(0.0897106 0.000694959 0.00115371)
(0.0891047 0.000626422 0.00116087)
(0.0884766 0.000544195 0.00117908)
(0.0877512 0.00050878 0.00131006)
(0.0993802 3.37776e-05 5.89841e-05)
(0.0992678 0.000274392 0.00120003)
(0.0989806 0.000432366 0.00188841)
(0.098475 0.000483428 0.00200626)
(0.0979962 0.000478746 0.00191427)
(0.0975723 0.000465278 0.0017341)
(0.0971836 0.000452332 0.0015463)
(0.0968354 0.000441356 0.00138697)
(0.0965379 0.000434445 0.00126746)
(0.0962875 0.000425432 0.00119533)
(0.0960201 0.000406509 0.00116576)
(0.0957371 0.000379964 0.00116044)
(0.0954392 0.000350886 0.00116469)
(0.0951182 0.000322118 0.00117285)
(0.0947704 0.000294268 0.0011836)
(0.0943952 0.000267318 0.00119656)
(0.0939929 0.000242017 0.00121158)
(0.0935641 0.000215559 0.00122663)
(0.0931028 0.000182544 0.00124448)
(0.0926187 0.000179258 0.00133861)
(0.0993802 -3.37763e-05 5.89863e-05)
(0.0992678 -0.000274386 0.00120003)
(0.0989806 -0.00043235 0.0018884)
(0.098475 -0.000483406 0.00200626)
(0.0979963 -0.000478717 0.00191427)
(0.0975723 -0.000465251 0.00173412)
(0.0971836 -0.000452335 0.00154632)
(0.0968354 -0.000441424 0.00138702)
(0.0965378 -0.000434643 0.00126757)
(0.0962873 -0.000425875 0.0011956)
(0.0960197 -0.000407382 0.0011663)
(0.0957362 -0.000381593 0.00116144)
(0.0954374 -0.000353824 0.00116648)
(0.0951147 -0.000327299 0.00117601)
(0.0947635 -0.000303336 0.00118901)
(0.0943831 -0.0002824 0.00120522)
(0.0939729 -0.000264844 0.00122459)
(0.0935327 -0.0002517 0.00124679)
(0.0930681 -0.00024123 0.00127276)
(0.0926031 -0.000235422 0.00131734)
(0.0995405 -0.000245045 0.000321899)
(0.0992576 -0.00105563 0.00154092)
(0.098849 -0.00150237 0.0021144)
(0.098125 -0.00157947 0.00209152)
(0.0973373 -0.00151487 0.00188594)
(0.0965859 -0.00144655 0.00166553)
(0.095867 -0.00141039 0.0014974)
(0.0952004 -0.00137947 0.00137058)
(0.0945734 -0.0013341 0.00128331)
(0.0939309 -0.00126363 0.00122718)
(0.0933063 -0.0011749 0.00118939)
(0.092698 -0.00108055 0.00116612)
(0.0920972 -0.000990789 0.00115383)
(0.0914977 -0.000909688 0.00115033)
(0.0908952 -0.00083747 0.00115359)
(0.090286 -0.000772421 0.0011627)
(0.089666 -0.000712368 0.00117742)
(0.0890329 -0.000656006 0.00119993)
(0.0883892 -0.000605991 0.00124124)
(0.0877154 -0.000551476 0.00122633)
(0.099413 -0.000345244 0.000270233)
(0.0988664 -0.00201911 0.00187489)
(0.0979215 -0.00257326 0.00218895)
(0.0963659 -0.00238008 0.00190827)
(0.0946335 -0.00211449 0.00162644)
(0.0929725 -0.00192737 0.00141814)
(0.0913646 -0.00180257 0.00127031)
(0.0898547 -0.00170741 0.00115857)
(0.0884557 -0.0016083 0.00106756)
(0.0871596 -0.00150025 0.000994544)
(0.0859591 -0.00139362 0.000944285)
(0.0848393 -0.00129602 0.000913877)
(0.0837816 -0.00120875 0.000898349)
(0.0827711 -0.00112977 0.0008931)
(0.0817975 -0.00105731 0.000895067)
(0.0808534 -0.000990728 0.000903144)
(0.0799313 -0.000928303 0.000916988)
(0.0790252 -0.000866825 0.000936537)
(0.078149 -0.000833893 0.00100591)
(0.0770437 -0.000776454 0.000935123)
(0.0999088 -0.001297 0.000712559)
(0.0969668 -0.00365592 0.00274724)
(0.0935345 -0.00264027 0.00211811)
(0.0895891 -0.00182056 0.00162055)
(0.0858317 -0.00152899 0.00139048)
(0.0825894 -0.00135162 0.00116095)
(0.0798641 -0.00117994 0.000896814)
(0.077565 -0.00104163 0.000691659)
(0.0755541 -0.000944746 0.00055972)
(0.0737447 -0.000868993 0.000478647)
(0.0720898 -0.000798848 0.000430967)
(0.0705591 -0.000729717 0.000402946)
(0.0691324 -0.000665896 0.000386189)
(0.0677923 -0.000611454 0.000376392)
(0.0665237 -0.000566366 0.000373281)
(0.0653135 -0.000525322 0.000372988)
(0.0641578 -0.000483033 0.000374323)
(0.0630373 -0.00044212 0.000370602)
(0.0620243 -0.000452936 0.00043915)
(0.0604923 -0.000371616 0.000273855)
(0.0956456 0.00836006 -0.00836006)
(0.0904939 -0.00152204 0.00152204)
(0.0790682 -0.00242975 0.00242975)
(0.071301 -0.00148775 0.00148775)
(0.0661792 -0.000830431 0.000830449)
(0.0623222 -0.000563632 0.000563667)
(0.0592201 -0.000426155 0.000426302)
(0.0566837 -0.000323572 0.000323891)
(0.0545477 -0.000252452 0.000253007)
(0.0526938 -0.000201645 0.000202591)
(0.0510528 -0.000164652 0.00016643)
(0.0495857 -0.000137515 0.000140775)
(0.0482598 -0.000115874 0.000121533)
(0.0470462 -9.77169e-05 0.000106078)
(0.0459301 -8.09301e-05 9.29378e-05)
(0.0449009 -6.42724e-05 8.18566e-05)
(0.0439526 -4.76437e-05 7.46738e-05)
(0.0430629 -3.22445e-05 7.31348e-05)
(0.0422408 -4.82181e-05 9.70805e-05)
(0.0409603 0.000102979 -8.28831e-05)
(0.0999088 0.00071256 0.001297)
(0.0969668 0.00274724 0.00365591)
(0.0935345 0.00211811 0.00264026)
(0.0895891 0.00162055 0.00182054)
(0.0858317 0.00139048 0.00152897)
(0.0825894 0.00116095 0.0013516)
(0.0798641 0.000896814 0.00117992)
(0.077565 0.000691661 0.0010416)
(0.0755542 0.000559722 0.00094471)
(0.0737448 0.000478652 0.000868947)
(0.0720899 0.000430971 0.000798786)
(0.0705593 0.000402956 0.000729639)
(0.0691326 0.000386205 0.000665799)
(0.0677928 0.000376434 0.00061136)
(0.066524 0.000373323 0.000566211)
(0.065314 0.000373015 0.000525108)
(0.0641586 0.000374329 0.000482738)
(0.0630385 0.000370562 0.000441687)
(0.0620265 0.000438796 0.000451996)
(0.0604969 0.000272582 0.000369647)
(0.100226 0.000720817 0.000720816)
(0.09996 0.00198275 0.00198274)
(0.0997822 0.00245187 0.00245186)
(0.098788 0.0024197 0.00241967)
(0.0972752 0.00220093 0.00220089)
(0.0957742 0.00181164 0.00181157)
(0.0943919 0.00138264 0.00138252)
(0.0931622 0.00107048 0.00107028)
(0.0920738 0.000854579 0.000854209)
(0.0911095 0.000702743 0.000702036)
(0.0902533 0.000591449 0.000589997)
(0.0894823 0.000507969 0.000505336)
(0.0887754 0.000446298 0.000441957)
(0.088123 0.000399158 0.000393214)
(0.087522 0.000359822 0.00035086)
(0.0869705 0.000324399 0.000310721)
(0.0864503 0.000296552 0.000273573)
(0.08595 0.000286815 0.000257301)
(0.0854825 0.000242954 0.000194022)
(0.0850444 -4.44124e-05 -6.62111e-05)
(0.10014 0.00077503 0.000869256)
(0.100454 0.00196244 0.00196358)
(0.100911 0.0024276 0.00233451)
(0.100978 0.0025267 0.00244123)
(0.100694 0.00242643 0.00233667)
(0.100224 0.00219778 0.00211228)
(0.0997082 0.00191723 0.0018229)
(0.0991824 0.00166675 0.00157494)
(0.0986868 0.0014645 0.00138889)
(0.098238 0.00129899 0.00124866)
(0.0978424 0.00116303 0.00114478)
(0.0974959 0.00105166 0.00106972)
(0.0971938 0.000960611 0.00101527)
(0.096931 0.000885097 0.000973861)
(0.0967027 0.000821106 0.000941709)
(0.0965044 0.000766708 0.000918089)
(0.0963331 0.000718992 0.000901328)
(0.0961919 0.000674446 0.000886836)
(0.0960723 0.000617059 0.000863368)
(0.0960203 0.000517087 0.000815119)
(0.100093 0.000445943 0.000763201)
(0.100504 0.00119454 0.00174901)
(0.101105 0.0015869 0.00212951)
(0.101635 0.00174057 0.00223458)
(0.101979 0.00178252 0.0022868)
(0.102172 0.00172948 0.00223546)
(0.102253 0.00160889 0.0021152)
(0.102277 0.00146167 0.00196355)
(0.102279 0.00130751 0.00180063)
(0.102272 0.0011607 0.00165046)
(0.102266 0.00103541 0.00154039)
(0.102266 0.000930492 0.00146189)
(0.102271 0.000840055 0.0014053)
(0.102285 0.000761587 0.00136504)
(0.102306 0.000692086 0.00133707)
(0.102333 0.000628957 0.00131828)
(0.102363 0.000568283 0.00130633)
(0.102399 0.000505788 0.00129882)
(0.102432 0.0004317 0.00129274)
(0.102567 0.000347139 0.00129399)
(0.100087 0.000144401 0.000707012)
(0.100477 0.000390537 0.00161776)
(0.101066 0.000541186 0.00203457)
(0.101694 0.000610266 0.00211745)
(0.102269 0.000636195 0.00214969)
(0.102743 0.000627088 0.00217889)
(0.103125 0.000595227 0.00213277)
(0.103429 0.000549957 0.0020423)
(0.103682 0.000504903 0.001932)
(0.103902 0.000462784 0.00182465)
(0.104101 0.000420707 0.00172442)
(0.104293 0.000379738 0.00163473)
(0.10448 0.000343084 0.00156916)
(0.104658 0.00031066 0.00152974)
(0.104825 0.000280877 0.0015081)
(0.104981 0.000253463 0.0014963)
(0.105126 0.000226953 0.0014902)
(0.105258 0.000198876 0.00148692)
(0.105377 0.000166285 0.00148295)
(0.105608 0.000143027 0.00149198)
(0.100087 -0.0001444 0.000707012)
(0.100477 -0.000390533 0.00161776)
(0.101066 -0.000541181 0.00203457)
(0.101694 -0.000610262 0.00211745)
(0.102269 -0.000636198 0.00214969)
(0.102743 -0.00062711 0.00217891)
(0.103125 -0.000595282 0.00213282)
(0.103429 -0.000550069 0.00204239)
(0.103682 -0.000505141 0.00193214)
(0.103902 -0.000463307 0.00182488)
(0.104101 -0.000421811 0.00172493)
(0.104293 -0.000381794 0.00163572)
(0.104479 -0.000346589 0.00157096)
(0.104656 -0.000316175 0.00153287)
(0.104822 -0.000289064 0.00151311)
(0.104976 -0.000265237 0.00150369)
(0.105118 -0.000243285 0.00150065)
(0.105247 -0.00022107 0.00150053)
(0.10537 -0.000193878 0.00149592)
(0.105595 -0.000146065 0.00147072)
(0.100093 -0.000445942 0.000763201)
(0.100504 -0.00119454 0.00174901)
(0.101105 -0.00158689 0.00212952)
(0.101635 -0.00174057 0.0022346)
(0.101979 -0.00178251 0.00228685)
(0.102172 -0.00172947 0.00223555)
(0.102253 -0.0016089 0.00211535)
(0.102277 -0.00146171 0.00196379)
(0.102279 -0.00130759 0.00180101)
(0.102272 -0.00116092 0.0016511)
(0.102265 -0.0010359 0.00154156)
(0.102264 -0.00093124 0.00146394)
(0.102268 -0.000841118 0.0014088)
(0.10228 -0.000762899 0.00137089)
(0.102297 -0.000693674 0.00134661)
(0.102319 -0.000631308 0.00133339)
(0.102343 -0.000572662 0.00132935)
(0.102371 -0.000512922 0.00133222)
(0.102418 -0.000441744 0.00133309)
(0.102532 -0.000319164 0.00122591)
(0.10014 -0.00077503 0.000869257)
(0.100454 -0.00196244 0.00196359)
(0.100911 -0.0024276 0.00233454)
(0.100978 -0.00252669 0.00244127)
(0.100694 -0.00242641 0.00233673)
(0.100224 -0.00219775 0.00211236)
(0.0997081 -0.00191717 0.00182304)
(0.0991822 -0.00166667 0.00157521)
(0.0986864 -0.00146435 0.00138938)
(0.0982374 -0.00129867 0.00124953)
(0.0978411 -0.0011624 0.00114628)
(0.0974937 -0.00105038 0.00107222)
(0.0971899 -0.000958111 0.00101933)
(0.0969249 -0.000880186 0.000980378)
(0.0966933 -0.000812984 0.000952017)
(0.0964902 -0.000754111 0.000934108)
(0.0963119 -0.000701485 0.00092634)
(0.0961625 -0.000650276 0.000924246)
(0.0960501 -0.000594278 0.000923921)
(0.0959722 -0.000424123 0.000714372)
(0.100226 -0.000720818 0.000720817)
(0.09996 -0.00198274 0.00198275)
(0.0997822 -0.00245187 0.00245187)
(0.0987879 -0.00241968 0.00241969)
(0.0972752 -0.0022009 0.00220092)
(0.0957742 -0.00181159 0.00181164)
(0.0943918 -0.00138255 0.00138263)
(0.0931621 -0.00107031 0.00107048)
(0.0920738 -0.00085425 0.000854573)
(0.0911094 -0.000702091 0.000702735)
(0.0902532 -0.00059007 0.000591439)
(0.0894821 -0.000505422 0.000507945)
(0.0887752 -0.000441994 0.00044619)
(0.0881227 -0.000393385 0.000399149)
(0.0875215 -0.00035122 0.000359947)
(0.0869698 -0.000311058 0.00032444)
(0.0864493 -0.000274025 0.000296659)
(0.0859484 -0.000257966 0.000287101)
(0.0854801 -0.000195224 0.000243646)
(0.0850411 6.48106e-05 -4.35202e-05)
(0.0999088 -0.000712558 0.001297)
(0.0969668 -0.00274724 0.00365592)
(0.0935345 -0.0021181 0.00264026)
(0.0895891 -0.00162053 0.00182055)
(0.0858317 -0.00139045 0.00152898)
(0.0825894 -0.0011609 0.00135162)
(0.079864 -0.000896745 0.00117992)
(0.0775649 -0.000691543 0.00104156)
(0.0755541 -0.000559496 0.000944647)
(0.0737448 -0.000478214 0.000868903)
(0.0720901 -0.000429965 0.000798871)
(0.07056 -0.000400933 0.000729965)
(0.0691346 -0.000382476 0.000666497)
(0.0677964 -0.000372203 0.000612565)
(0.0665306 -0.000368513 0.00056833)
(0.0653242 -0.00036794 0.000528784)
(0.0641756 -0.000363583 0.000489207)
(0.06307 -0.000357374 0.000458185)
(0.0620379 -0.000369039 0.000456248)
(0.0602435 -0.000511527 0.000578587)
(0.099413 0.000270233 0.000345243)
(0.0988664 0.00187489 0.0020191)
(0.0979215 0.00218896 0.00257325)
(0.0963659 0.00190827 0.00238007)
(0.0946335 0.00162644 0.00211447)
(0.0929725 0.00141815 0.00192736)
(0.0913646 0.00127031 0.00180254)
(0.0898547 0.00115857 0.00170738)
(0.0884557 0.00106757 0.00160825)
(0.0871597 0.000994552 0.00150019)
(0.0859592 0.000944295 0.00139354)
(0.0848395 0.000913891 0.00129591)
(0.0837818 0.000898359 0.0012086)
(0.0827714 0.000893139 0.00112959)
(0.0817978 0.000895142 0.00105711)
(0.0808539 0.00090319 0.000990418)
(0.079932 0.000916961 0.000927806)
(0.0790264 0.000936372 0.000866031)
(0.0781509 0.00100532 0.000832517)
(0.0770471 0.000933816 0.000774097)
(0.10014 0.000869258 0.000775028)
(0.100454 0.00196359 0.00196244)
(0.100911 0.00233454 0.00242759)
(0.100978 0.00244128 0.00252668)
(0.100694 0.00233673 0.00242639)
(0.100224 0.00211236 0.00219772)
(0.0997081 0.00182304 0.00191714)
(0.0991823 0.00157521 0.00166663)
(0.0986865 0.00138939 0.00146429)
(0.0982374 0.00124953 0.00129859)
(0.0978412 0.00114629 0.0011623)
(0.0974938 0.00107225 0.00105027)
(0.0971901 0.00101938 0.000957972)
(0.0969251 0.000980333 0.000879911)
(0.0966936 0.000951914 0.000812578)
(0.0964907 0.000934015 0.00075363)
(0.0963126 0.000926157 0.000700822)
(0.0961634 0.000923778 0.000649254)
(0.0960513 0.000923001 0.000592745)
(0.0959735 0.000712885 0.00042202)
(0.10006 0.000641413 0.00064141)
(0.100501 0.00164511 0.00164509)
(0.101149 0.00221252 0.0022125)
(0.101738 0.00244017 0.00244013)
(0.102205 0.00244223 0.00244216)
(0.102501 0.00231393 0.00231383)
(0.102644 0.00209318 0.002093)
(0.102713 0.00187003 0.00186974)
(0.102738 0.00167269 0.00167221)
(0.10275 0.00150743 0.00150663)
(0.102767 0.00137079 0.00136944)
(0.102797 0.00125872 0.00125649)
(0.102845 0.00116764 0.00116399)
(0.102912 0.00109384 0.00108796)
(0.102999 0.00103396 0.00102474)
(0.103104 0.000985373 0.000971325)
(0.10323 0.000945402 0.000924867)
(0.103381 0.000909317 0.000881314)
(0.103563 0.000862283 0.000829453)
(0.103783 0.000770908 0.000765624)
(0.100046 0.000395736 0.000540243)
(0.10048 0.00104492 0.00138409)
(0.101154 0.00147547 0.00192294)
(0.101913 0.00170543 0.00219249)
(0.102632 0.00178041 0.00229391)
(0.103301 0.00174537 0.00227801)
(0.103893 0.00163506 0.00218521)
(0.104389 0.00149292 0.00205186)
(0.104816 0.0013473 0.00190399)
(0.105193 0.00121341 0.00176418)
(0.105534 0.00109616 0.00164114)
(0.105854 0.00099613 0.00153645)
(0.10616 0.000910713 0.00144997)
(0.106459 0.000837234 0.00137987)
(0.106755 0.000773518 0.00132375)
(0.107051 0.000718252 0.00127873)
(0.107348 0.000667859 0.00124208)
(0.10765 0.000616619 0.00121043)
(0.10796 0.000556532 0.00117815)
(0.108333 0.00049231 0.00115558)
(0.100039 0.000131347 0.000478751)
(0.100448 0.000350533 0.00123472)
(0.101114 0.000505144 0.00174636)
(0.101909 0.000597303 0.00202659)
(0.102729 0.000638769 0.0021517)
(0.103529 0.000638563 0.00218575)
(0.104298 0.000605039 0.00215217)
(0.105008 0.000560116 0.00207771)
(0.105644 0.000511515 0.00197823)
(0.106217 0.00046419 0.00186971)
(0.106739 0.000421006 0.00176364)
(0.107221 0.0003828 0.00166721)
(0.107671 0.000349329 0.00158548)
(0.108098 0.000319899 0.00152062)
(0.108511 0.000293737 0.00147142)
(0.108913 0.000270803 0.00143534)
(0.109303 0.000248978 0.00140777)
(0.109681 0.000226395 0.00138566)
(0.110056 0.000200958 0.0013647)
(0.110498 0.000177814 0.00134879)
(0.100039 -0.000131347 0.000478751)
(0.100448 -0.000350534 0.00123472)
(0.101114 -0.000505147 0.00174636)
(0.101909 -0.000597308 0.0020266)
(0.102729 -0.000638779 0.00215172)
(0.103529 -0.000638581 0.0021858)
(0.104298 -0.000605079 0.00215224)
(0.105008 -0.000560184 0.00207782)
(0.105643 -0.000511642 0.00197839)
(0.106217 -0.000464441 0.00186997)
(0.106739 -0.000421483 0.00176409)
(0.10722 -0.000383612 0.00166803)
(0.10767 -0.000350555 0.00158691)
(0.108097 -0.000321554 0.00152302)
(0.10851 -0.000295788 0.00147522)
(0.108912 -0.000273169 0.00144109)
(0.1093 -0.000252164 0.00141575)
(0.109678 -0.000230173 0.00139534)
(0.110054 -0.000204447 0.0013732)
(0.110494 -0.000174586 0.00134203)
(0.100046 -0.000395736 0.000540244)
(0.10048 -0.00104492 0.0013841)
(0.101154 -0.00147546 0.00192296)
(0.101913 -0.00170543 0.00219253)
(0.102632 -0.0017804 0.00229398)
(0.103301 -0.00174535 0.00227812)
(0.103893 -0.001635 0.00218538)
(0.104389 -0.00149283 0.00205215)
(0.104816 -0.00134714 0.00190443)
(0.105193 -0.00121317 0.00176488)
(0.105534 -0.00109581 0.00164228)
(0.105853 -0.000995558 0.00153834)
(0.106158 -0.000909748 0.00145307)
(0.106457 -0.000835556 0.0013849)
(0.106752 -0.000770652 0.00133172)
(0.107047 -0.000713878 0.00129083)
(0.107343 -0.000661671 0.00125947)
(0.107644 -0.000608599 0.00123285)
(0.10796 -0.000547443 0.00120053)
(0.108325 -0.000482927 0.00114082)
(0.10006 -0.000641412 0.000641412)
(0.100501 -0.0016451 0.0016451)
(0.101149 -0.00221251 0.00221252)
(0.101738 -0.00244014 0.00244017)
(0.102204 -0.00244218 0.00244223)
(0.102501 -0.00231386 0.00231393)
(0.102644 -0.00209304 0.00209318)
(0.102713 -0.00186979 0.00187003)
(0.102738 -0.00167228 0.00167269)
(0.10275 -0.00150671 0.00150743)
(0.102767 -0.00136956 0.00137079)
(0.102797 -0.00125663 0.00125873)
(0.102845 -0.00116417 0.00116765)
(0.102912 -0.00108825 0.0010939)
(0.102998 -0.00102514 0.00103408)
(0.103104 -0.000971857 0.00098554)
(0.103229 -0.000925597 0.000945678)
(0.103381 -0.000882323 0.000909775)
(0.103563 -0.000830738 0.000862936)
(0.103783 -0.000766975 0.000771544)
(0.10014 -0.000869257 0.000775029)
(0.100454 -0.00196358 0.00196244)
(0.100911 -0.00233452 0.0024276)
(0.100978 -0.00244124 0.0025267)
(0.100694 -0.00233668 0.00242643)
(0.100224 -0.00211229 0.00219778)
(0.0997082 -0.00182293 0.00191723)
(0.0991824 -0.00157497 0.00166676)
(0.0986867 -0.00138893 0.0014645)
(0.0982379 -0.00124872 0.001299)
(0.0978423 -0.00114486 0.00116303)
(0.0974957 -0.00106983 0.00105167)
(0.0971935 -0.0010154 0.000960614)
(0.0969307 -0.000974056 0.000885121)
(0.0967023 -0.00094197 0.000821166)
(0.0965038 -0.000918459 0.000766835)
(0.0963323 -0.0009019 0.000719272)
(0.0961908 -0.0008877 0.000674978)
(0.0960709 -0.000864422 0.000617833)
(0.0960187 -0.000815736 0.000517678)
(0.099413 -0.000270233 0.000345242)
(0.0988664 -0.00187489 0.00201911)
(0.0979215 -0.00218894 0.00257326)
(0.0963659 -0.00190825 0.0023801)
(0.0946335 -0.00162641 0.00211451)
(0.0929725 -0.0014181 0.00192741)
(0.0913646 -0.00127023 0.00180262)
(0.0898548 -0.00115843 0.00170749)
(0.0884559 -0.00106732 0.00160843)
(0.0871603 -0.00099412 0.00150047)
(0.0859604 -0.000943584 0.001394)
(0.084842 -0.000912607 0.00129671)
(0.0837866 -0.000896062 0.00120997)
(0.0827798 -0.000889031 0.00113167)
(0.0818122 -0.000888039 0.00105984)
(0.0808783 -0.000891186 0.000993543)
(0.079974 -0.000896502 0.000930411)
(0.0791035 -0.000902006 0.000866053)
(0.0782431 -0.000927187 0.000821004)
(0.076943 -0.00110998 0.000883302)
(0.0995405 0.0003219 0.000245044)
(0.0992576 0.00154092 0.00105562)
(0.098849 0.0021144 0.00150236)
(0.098125 0.00209152 0.00157946)
(0.0973373 0.00188594 0.00151486)
(0.0965859 0.00166553 0.00144653)
(0.095867 0.0014974 0.00141036)
(0.0952004 0.00137058 0.00137943)
(0.0945735 0.00128331 0.00133404)
(0.0939309 0.00122718 0.00126354)
(0.0933064 0.00118938 0.00117479)
(0.092698 0.00116611 0.0010804)
(0.0920973 0.00115382 0.000990601)
(0.0914979 0.00115032 0.000909467)
(0.0908954 0.00115359 0.000837193)
(0.0902863 0.00116264 0.000772011)
(0.0896665 0.00117725 0.00071175)
(0.0890337 0.00119957 0.000655084)
(0.0883904 0.0012405 0.000604613)
(0.0877175 0.00122481 0.000549318)
(0.100093 0.000763202 0.000445941)
(0.100504 0.00174901 0.00119453)
(0.101105 0.00212952 0.00158688)
(0.101635 0.0022346 0.00174055)
(0.101979 0.00228685 0.00178248)
(0.102172 0.00223555 0.00172944)
(0.102253 0.00211535 0.00160886)
(0.102277 0.00196379 0.00146166)
(0.102279 0.00180101 0.00130751)
(0.102272 0.0016511 0.00116082)
(0.102265 0.00154156 0.00103577)
(0.102264 0.00146395 0.000931082)
(0.102268 0.00140881 0.000840913)
(0.10228 0.00137084 0.000762594)
(0.102297 0.00134653 0.000693249)
(0.102319 0.00133326 0.000630768)
(0.102344 0.00132912 0.000571954)
(0.102372 0.00133178 0.000511955)
(0.102418 0.00133229 0.000440412)
(0.102532 0.00122447 0.000317326)
(0.100046 0.000540245 0.000395733)
(0.10048 0.0013841 0.00104491)
(0.101154 0.00192296 0.00147545)
(0.101913 0.00219253 0.00170541)
(0.102632 0.00229397 0.00178037)
(0.103301 0.00227812 0.00174531)
(0.103893 0.00218538 0.00163496)
(0.104389 0.00205215 0.00149277)
(0.104816 0.00190443 0.00134706)
(0.105193 0.00176488 0.00121306)
(0.105534 0.00164227 0.00109567)
(0.105853 0.00153833 0.000995381)
(0.106159 0.00145305 0.000909514)
(0.106457 0.00138484 0.00083523)
(0.106752 0.00133163 0.000770218)
(0.107047 0.0012907 0.000713327)
(0.107343 0.00125926 0.000660972)
(0.107643 0.00123253 0.000607725)
(0.107959 0.0012001 0.000546425)
(0.108324 0.00114034 0.000481903)
(0.100036 0.000323143 0.000323139)
(0.100429 0.000868672 0.000868662)
(0.10108 0.00126239 0.00126237)
(0.101891 0.00150437 0.00150434)
(0.102756 0.00162161 0.00162155)
(0.103616 0.00164278 0.0016427)
(0.104445 0.00160468 0.00160455)
(0.105222 0.00152637 0.00152616)
(0.105936 0.00142687 0.00142656)
(0.10659 0.00132206 0.00132158)
(0.107193 0.00122239 0.00122164)
(0.107753 0.00113286 0.00113169)
(0.108279 0.00105499 0.00105316)
(0.10878 0.000988531 0.000985692)
(0.10926 0.000932407 0.000928074)
(0.109726 0.000884975 0.00087863)
(0.11018 0.000843775 0.000835126)
(0.110627 0.000804854 0.00079445)
(0.111078 0.000762947 0.00075337)
(0.111582 0.000717987 0.000720288)
(0.100031 0.000107081 0.000281359)
(0.100395 0.000293059 0.000768567)
(0.101024 0.000434103 0.00113296)
(0.101843 0.000526274 0.00136904)
(0.102751 0.00057643 0.00150118)
(0.103688 0.000591873 0.00155383)
(0.104617 0.000582534 0.00154861)
(0.105515 0.000558 0.00150736)
(0.106365 0.000524477 0.00144325)
(0.107161 0.000487476 0.00136645)
(0.107903 0.000451244 0.00128552)
(0.108593 0.000418131 0.00120693)
(0.109239 0.000389076 0.00113499)
(0.109848 0.000364089 0.00107196)
(0.110428 0.000342575 0.00101874)
(0.110984 0.000323345 0.00097562)
(0.111521 0.000305373 0.000941007)
(0.112041 0.000287312 0.000912084)
(0.112557 0.000267368 0.000886472)
(0.113126 0.000248384 0.000867449)
(0.100031 -0.000107082 0.00028136)
(0.100395 -0.00029306 0.000768571)
(0.101024 -0.000434106 0.00113297)
(0.101843 -0.000526278 0.00136905)
(0.102751 -0.000576432 0.00150121)
(0.103688 -0.000591867 0.00155387)
(0.104617 -0.000582516 0.00154868)
(0.105515 -0.000557971 0.00150746)
(0.106365 -0.000524438 0.0014434)
(0.107161 -0.000487427 0.00136668)
(0.107902 -0.00045117 0.00128587)
(0.108593 -0.000417985 0.00120748)
(0.109239 -0.000388747 0.00113583)
(0.109848 -0.000363376 0.00107323)
(0.110427 -0.000341204 0.00102067)
(0.110984 -0.000321067 0.000978567)
(0.11152 -0.000302218 0.000945084)
(0.11204 -0.000283579 0.000916945)
(0.112557 -0.000264133 0.000890684)
(0.113125 -0.000248417 0.000865833)
(0.100036 -0.000323142 0.000323141)
(0.100429 -0.000868669 0.00086867)
(0.10108 -0.00126238 0.00126239)
(0.101891 -0.00150436 0.00150438)
(0.102756 -0.00162158 0.00162161)
(0.103616 -0.00164274 0.00164279)
(0.104445 -0.0016046 0.00160468)
(0.105222 -0.00152623 0.00152637)
(0.105936 -0.00142664 0.00142688)
(0.10659 -0.00132169 0.00132207)
(0.107193 -0.00122178 0.0012224)
(0.107753 -0.00113187 0.00113287)
(0.108279 -0.00105339 0.001055)
(0.10878 -0.000985981 0.000988556)
(0.10926 -0.000928438 0.000932439)
(0.109726 -0.000879077 0.000885)
(0.11018 -0.000835665 0.000843777)
(0.110628 -0.000795071 0.0008048)
(0.111079 -0.000754006 0.000762754)
(0.111583 -0.000720821 0.000717526)
(0.100046 -0.000540244 0.000395735)
(0.10048 -0.00138409 0.00104492)
(0.101154 -0.00192295 0.00147547)
(0.101913 -0.00219251 0.00170544)
(0.102632 -0.00229394 0.00178042)
(0.103301 -0.00227804 0.00174538)
(0.103893 -0.00218525 0.00163506)
(0.104389 -0.00205192 0.00149293)
(0.104816 -0.00190406 0.00134731)
(0.105193 -0.00176427 0.00121343)
(0.105534 -0.00164125 0.00109619)
(0.105853 -0.0015366 0.000996158)
(0.10616 -0.00145017 0.00091075)
(0.106459 -0.00138012 0.000837297)
(0.106755 -0.00132409 0.000773615)
(0.10705 -0.00127917 0.000718374)
(0.107348 -0.00124267 0.000668009)
(0.10765 -0.00121118 0.000616778)
(0.10796 -0.001179 0.000556597)
(0.108333 -0.00115638 0.000492072)
(0.100093 -0.000763201 0.000445942)
(0.100504 -0.00174901 0.00119454)
(0.101105 -0.00212952 0.0015869)
(0.101635 -0.00223459 0.00174058)
(0.101979 -0.00228681 0.00178252)
(0.102172 -0.00223548 0.00172948)
(0.102253 -0.00211523 0.0016089)
(0.102277 -0.00196359 0.00146168)
(0.102279 -0.00180067 0.00130752)
(0.102272 -0.00165052 0.00116072)
(0.102266 -0.00154047 0.00103544)
(0.102265 -0.00146199 0.000930529)
(0.102271 -0.00140544 0.000840104)
(0.102285 -0.0013652 0.000761652)
(0.102306 -0.00133728 0.000692191)
(0.102332 -0.00131859 0.000629134)
(0.102363 -0.00130678 0.000568567)
(0.102398 -0.00129947 0.000506216)
(0.102431 -0.00129351 0.000432206)
(0.102567 -0.00129389 0.000347029)
(0.0995405 -0.0003219 0.000245045)
(0.0992576 -0.00154092 0.00105563)
(0.098849 -0.0021144 0.00150238)
(0.098125 -0.00209152 0.0015795)
(0.0973373 -0.00188593 0.00151491)
(0.0965859 -0.00166552 0.00144658)
(0.095867 -0.00149739 0.0014104)
(0.0952005 -0.00137057 0.00137944)
(0.0945737 -0.00128321 0.00133393)
(0.0939314 -0.00122685 0.00126324)
(0.0933074 -0.00118852 0.00117422)
(0.0927003 -0.00116438 0.00107941)
(0.0921016 -0.00115064 0.000988914)
(0.0915059 -0.00114487 0.000906485)
(0.09091 -0.00114467 0.00083174)
(0.0903118 -0.00114827 0.00076223)
(0.0897098 -0.00115393 0.000695169)
(0.0891036 -0.00116126 0.000626825)
(0.0884751 -0.00117967 0.000544924)
(0.0877495 -0.00131047 0.000509819)
(0.0993802 5.89844e-05 3.37758e-05)
(0.0992678 0.00120003 0.000274382)
(0.0989806 0.0018884 0.000432345)
(0.098475 0.00200626 0.000483397)
(0.0979963 0.00191427 0.000478703)
(0.0975723 0.00173412 0.000465231)
(0.0971836 0.00154632 0.000452306)
(0.0968354 0.00138701 0.000441382)
(0.0965378 0.00126757 0.000434585)
(0.0962873 0.00119559 0.000425795)
(0.0960197 0.00116628 0.000407273)
(0.0957362 0.00116142 0.000381448)
(0.0954374 0.00116645 0.000353635)
(0.0951147 0.00117598 0.000327059)
(0.0947636 0.00118896 0.000303027)
(0.0943832 0.00120511 0.000281976)
(0.0939732 0.00122437 0.000264235)
(0.0935332 0.00124637 0.000250828)
(0.0930687 0.00127202 0.000240021)
(0.0926041 0.00131614 0.000233708)
(0.100087 0.000707013 0.000144398)
(0.100477 0.00161776 0.000390528)
(0.101066 0.00203457 0.000541171)
(0.101694 0.00211745 0.000610245)
(0.102269 0.0021497 0.000636173)
(0.102743 0.00217891 0.000627075)
(0.103125 0.00213282 0.000595234)
(0.103429 0.00204239 0.000550005)
(0.103682 0.00193214 0.000505058)
(0.103902 0.00182488 0.000463199)
(0.104101 0.00172492 0.000421671)
(0.104293 0.00163572 0.000381614)
(0.104479 0.00157095 0.000346355)
(0.104656 0.00153283 0.000315862)
(0.104822 0.00151304 0.000288649)
(0.104976 0.00150356 0.000264707)
(0.105118 0.00150043 0.000242617)
(0.105246 0.00150018 0.000220217)
(0.10537 0.00149538 0.00019282)
(0.105595 0.00146995 0.000144855)
(0.100039 0.000478752 0.000131345)