/*--------------------------------*- C++ -*----------------------------------*\
| =========                 |                                                 |
| \\      /  F ield         | OpenFOAM: The Open Source CFD Toolbox           |
|  \\    /   O peration     | Version:  2212                                  |
|   \\  /    A nd           | Website:  www.openfoam.com                      |
|    \\/     M anipulation  |                                                 |
\*---------------------------------------------------------------------------*/
FoamFile
{
    version     2.0;
    format      ascii;
    arch        "LSB;label=32;scalar=64";
    class       surfaceVectorField;
    location    "1.6";
    object      Uf;
}
// * * * * * * * * * * * * * * * * * * * * * * * * * * * * * * * * * * * * * //

dimensions      [0 1 -1 0 0 0 0];

internalField   nonuniform List<vector> 
19019
(
(0.0993441 -0.00341901 -0.00341901)
(0.0973536 0.00106248 -0.00148428)
(0.0973536 -0.00148428 0.00106248)
(0.0834791 0.0019759 0.00197589)
(0.0930872 0.003269 0.00253348)
(0.0930872 0.00253348 0.003269)
(0.074517 0.00195876 0.00195875)
(0.084864 0.00163586 0.00179237)
(0.084864 0.00179238 0.00163585)
(0.0685475 0.0011591 0.00115909)
(0.0786279 0.00107354 0.00122141)
(0.0786279 0.00122142 0.00107354)
(0.0642357 0.000697062 0.000697025)
(0.0740528 0.000785385 0.000865169)
(0.0740528 0.000865204 0.000785367)
(0.060756 0.000494989 0.000494886)
(0.070442 0.000650628 0.000669431)
(0.0704421 0.00066949 0.000650601)
(0.0579361 0.000375103 0.000374854)
(0.0674909 0.000546879 0.000508844)
(0.0674909 0.000508989 0.000546805)
(0.0556119 0.000288459 0.000287999)
(0.0650496 0.000469111 0.000387929)
(0.0650496 0.000388215 0.000468969)
(0.053621 0.000227812 0.00022703)
(0.0629637 0.000415634 0.000308638)
(0.0629637 0.000309135 0.000415389)
(0.0518733 0.000184529 0.000183124)
(0.0611277 0.000373373 0.000256294)
(0.0611277 0.000257148 0.00037293)
(0.0503185 0.000153625 0.000151051)
(0.0594813 0.00033577 0.00022186)
(0.0594812 0.000223508 0.000334866)
(0.0489218 0.00013119 0.000126655)
(0.057989 0.000301728 0.000199169)
(0.0579887 0.000202215 0.000299985)
(0.0476534 0.000113851 0.000106737)
(0.0566233 0.000272575 0.000183344)
(0.0566224 0.00018866 0.000269446)
(0.0464899 9.95448e-05 8.92241e-05)
(0.0553599 0.000248083 0.000172043)
(0.0553583 0.00017927 0.000243227)
(0.0454162 8.74463e-05 7.24817e-05)
(0.0541838 0.000226916 0.000163063)
(0.054181 0.000172831 0.000219658)
(0.0444247 7.83286e-05 5.58265e-05)
(0.0530838 0.000207862 0.000154828)
(0.0530795 0.000168305 0.000197011)
(0.0435114 7.39549e-05 3.97712e-05)
(0.0520555 0.000190558 0.00014476)
(0.0520483 0.000166907 0.000174137)
(0.0426681 8.50457e-05 3.99155e-05)
(0.0510797 0.000178164 0.000133558)
(0.0510666 0.000166289 0.000151558)
(0.0417388 6.94811e-06 -2.77424e-05)
(0.0501746 0.000186983 0.00014493)
(0.0501691 0.000207082 0.000163797)
(0.0486907 0.00017499 0.000138793)
(0.0487904 6.30402e-05 9.23536e-05)
(0.0984572 0.00247646 0.0017299)
(0.0996871 0.000439242 0.000345487)
(0.100049 0.00105639 0.000750973)
(0.0958347 0.0031481 0.00243267)
(0.0978161 0.00273284 0.00228229)
(0.0982936 0.00280923 0.00216148)
(0.0914499 0.00223041 0.00186931)
(0.0954959 0.00300179 0.00230312)
(0.0963039 0.00244265 0.00199781)
(0.0875949 0.00167477 0.00150549)
(0.092619 0.00229949 0.00183877)
(0.0936666 0.00198074 0.00172703)
(0.0841471 0.00144031 0.00127567)
(0.089767 0.00189211 0.00153563)
(0.0909042 0.00171973 0.00149793)
(0.0811869 0.00126578 0.00102881)
(0.0872317 0.0016568 0.00129458)
(0.0884338 0.00145455 0.00121194)
(0.0786997 0.00111076 0.000794132)
(0.085006 0.00149252 0.00107711)
(0.0863037 0.00118342 0.000909061)
(0.0765541 0.000993122 0.000625503)
(0.0830598 0.00137243 0.000913244)
(0.0844787 0.000982928 0.00069144)
(0.0746465 0.000906794 0.000518833)
(0.0813226 0.00128004 0.000801646)
(0.0828768 0.000845083 0.000549913)
(0.0729154 0.000833907 0.000454059)
(0.0797429 0.00119647 0.000726545)
(0.081442 0.00074432 0.000457672)
(0.0713234 0.000764438 0.000415408)
(0.0782917 0.00111609 0.00067959)
(0.0801413 0.000662197 0.000395714)
(0.0698466 0.000698257 0.000391652)
(0.0769457 0.00103945 0.000651622)
(0.0789477 0.000591113 0.000352081)
(0.0684661 0.000639595 0.000377294)
(0.0756857 0.000968236 0.000635041)
(0.0778408 0.000531573 0.000321053)
(0.0671647 0.000590559 0.000370332)
(0.0744959 0.000903817 0.000626381)
(0.0768068 0.000483312 0.00029991)
(0.065928 0.000548679 0.000368186)
(0.0733634 0.000846717 0.000623696)
(0.0758356 0.000443579 0.000284527)
(0.0647488 0.000509088 0.000365675)
(0.072279 0.000794913 0.000624638)
(0.0749196 0.000407557 0.00027039)
(0.0636268 0.000473721 0.00036032)
(0.0712399 0.000745202 0.000624723)
(0.0740497 0.000374392 0.000254386)
(0.0625506 0.000457045 0.000362871)
(0.07024 0.000699496 0.000623768)
(0.0732127 0.000353378 0.000245122)
(0.0615242 0.000516967 0.000439719)
(0.0692856 0.000689137 0.000645588)
(0.0724315 0.000330778 0.000218939)
(0.0677134 0.000784743 0.000806566)
(0.0712394 0.00026274 0.000162519)
(0.0993753 0.00118218 0.00107256)
(0.099473 0.00034977 0.00030706)
(0.0997475 0.000610993 0.000779881)
(0.0984948 0.00229619 0.00203191)
(0.0990504 0.00157688 0.00172046)
(0.0995971 0.00201836 0.00200288)
(0.0971412 0.00247668 0.00204859)
(0.0983577 0.00213126 0.00216884)
(0.0992972 0.00246164 0.00210241)
(0.0954394 0.00224731 0.00176733)
(0.0971933 0.00203608 0.00200234)
(0.0984882 0.00237466 0.00190258)
(0.0937505 0.00202097 0.00152225)
(0.0959053 0.00185612 0.0017542)
(0.0974221 0.00218116 0.0016886)
(0.0921378 0.00186502 0.00134416)
(0.0946721 0.00173355 0.0015423)
(0.0963092 0.00198515 0.001508)
(0.0906009 0.00175507 0.00121432)
(0.0934824 0.00165418 0.00138581)
(0.0952039 0.00180238 0.00134217)
(0.0891503 0.00165797 0.00111286)
(0.0923692 0.00157927 0.00126452)
(0.0941468 0.00164599 0.00120288)
(0.0878022 0.00155446 0.0010307)
(0.0913335 0.00148546 0.00117033)
(0.0931636 0.00150708 0.00109435)
(0.0865576 0.00144725 0.00096882)
(0.0903452 0.00137769 0.00110084)
(0.0922576 0.0013788 0.00101153)
(0.0854007 0.00134536 0.000928051)
(0.0894163 0.00127063 0.00105391)
(0.0914279 0.00126367 0.000953339)
(0.0843144 0.00125334 0.000904269)
(0.0885383 0.0011689 0.00102477)
(0.0906647 0.00116359 0.000914786)
(0.0832832 0.00117082 0.000892475)
(0.0876978 0.00107582 0.00100842)
(0.0899559 0.00107761 0.000890262)
(0.082296 0.00109579 0.000888485)
(0.0868845 0.000992516 0.00100124)
(0.0892915 0.0010028 0.000874957)
(0.0813456 0.00102672 0.000889555)
(0.0860919 0.000917448 0.00100017)
(0.0886642 0.000936447 0.000865993)
(0.080427 0.00096191 0.000893714)
(0.085316 0.000847623 0.00100301)
(0.0880689 0.000877096 0.000861973)
(0.0795363 0.000897988 0.00089899)
(0.0845541 0.000779896 0.00100776)
(0.087502 0.000822093 0.000860894)
(0.0786761 0.000842979 0.000914101)
(0.0838083 0.000711436 0.00101346)
(0.0869673 0.000767616 0.000860142)
(0.0778716 0.000851562 0.00101854)
(0.0830576 0.000640084 0.00103312)
(0.0864482 0.000717394 0.000865245)
(0.0820279 0.000637407 0.00118753)
(0.0857224 0.000703795 0.000937561)
(0.0996493 0.00065034 0.000931412)
(0.0994625 0.000129395 0.000192518)
(0.0997993 0.000375142 0.000741356)
(0.0990855 0.00127901 0.00182766)
(0.0992625 0.000636946 0.00137062)
(0.0998409 0.00115044 0.00181419)
(0.0984493 0.00154094 0.00210296)
(0.098913 0.000973537 0.0020035)
(0.0999048 0.00153662 0.00209006)
(0.0977078 0.00154721 0.00198872)
(0.0982952 0.00105023 0.0020505)
(0.0997674 0.0016319 0.00202284)
(0.0969399 0.00148074 0.00177572)
(0.0976578 0.00100781 0.00189936)
(0.0995097 0.00160995 0.00189532)
(0.0962087 0.00142849 0.00158145)
(0.0970657 0.000960624 0.00169787)
(0.0992 0.00154828 0.00175108)
(0.0955238 0.00139492 0.00143397)
(0.0965074 0.00093416 0.00151999)
(0.0988555 0.0014759 0.00162487)
(0.0948752 0.00135668 0.00132687)
(0.0959957 0.000918278 0.00137797)
(0.0985122 0.00139513 0.00151352)
(0.0942421 0.00129858 0.00125501)
(0.0955291 0.000904783 0.00127651)
(0.0981798 0.00130324 0.00141717)
(0.0936177 0.00121872 0.00120765)
(0.0950775 0.000873523 0.00121358)
(0.0978348 0.00120068 0.00133909)
(0.0930049 0.0011268 0.00117641)
(0.094627 0.000818124 0.00117944)
(0.0975 0.00109746 0.00128354)
(0.0924019 0.00103414 0.00115745)
(0.0941775 0.000754358 0.0011642)
(0.0971769 0.000999862 0.00124548)
(0.0918044 0.000947672 0.00114768)
(0.0937252 0.000693502 0.00115917)
(0.0968612 0.000910803 0.00122003)
(0.0912085 0.00086908 0.00114469)
(0.0932631 0.000638034 0.00116028)
(0.0965507 0.000831299 0.00120443)
(0.0906117 0.000796916 0.00114636)
(0.092788 0.000587085 0.00116551)
(0.0962435 0.000759794 0.0011959)
(0.0900118 0.000728545 0.00115092)
(0.0922983 0.000539146 0.00117374)
(0.0959379 0.0006938 0.00119231)
(0.0894066 0.00066069 0.00115729)
(0.0917935 0.000493156 0.00118401)
(0.095632 0.000630075 0.00119208)
(0.0887957 0.000585309 0.00116997)
(0.0912738 0.000445609 0.00119507)
(0.0953262 0.000564593 0.00119371)
(0.0881846 0.000526487 0.00124457)
(0.0907268 0.000387667 0.00121314)
(0.0950075 0.000485991 0.00119948)
(0.0901188 0.000369973 0.00132644)
(0.0946849 0.00042659 0.00126393)
(0.0996725 0.000154085 0.000629509)
(0.0993802 4.33362e-10 5.89852e-05)
(0.0997132 0.000103933 0.000687946)
(0.0991592 0.000353379 0.00154422)
(0.0992678 4.10062e-09 0.00120003)
(0.0998377 0.00034168 0.00162228)
(0.0986639 0.000457897 0.00194733)
(0.0989806 9.33258e-09 0.0018884)
(0.0999632 0.000485542 0.00199131)
(0.0982128 0.000481087 0.00196027)
(0.098475 1.18817e-08 0.00200626)
(0.0999921 0.000539732 0.00199642)
(0.0977774 0.000472012 0.00182419)
(0.0979963 1.46127e-08 0.00191427)
(0.10001 0.000546554 0.00191052)
(0.0973648 0.000458805 0.0016402)
(0.0975723 1.43339e-08 0.00173411)
(0.100009 0.000533712 0.00180335)
(0.0969983 0.000446844 0.00146663)
(0.0971836 9.1332e-10 0.00154631)
(0.0999833 0.000511801 0.0016814)
(0.0966804 0.0004379 0.00132721)
(0.0968354 -2.97141e-08 0.00138699)
(0.0999427 0.000485536 0.00157018)
(0.0964042 0.000429938 0.00123139)
(0.0965378 -9.69352e-08 0.00126751)
(0.0999047 0.000461899 0.00147742)
(0.0961451 0.00041597 0.00118055)
(0.0962874 -2.20355e-07 0.00119546)
(0.0998757 0.000438584 0.00141201)
(0.0958773 0.000393236 0.0011631)
(0.0960199 -4.35944e-07 0.00116603)
(0.0998283 0.000409889 0.00136959)
(0.0955902 0.000365425 0.00116256)
(0.0957366 -8.26853e-07 0.00116094)
(0.0997692 0.000377334 0.00133864)
(0.0952802 0.000336502 0.00116877)
(0.0954383 -1.52091e-06 0.00116558)
(0.0996996 0.000345133 0.00131802)
(0.094945 0.000308193 0.00117822)
(0.0951165 -2.71743e-06 0.00117443)
(0.0996136 0.000314875 0.00130793)
(0.0945833 0.000280793 0.00119008)
(0.094767 -4.77459e-06 0.0011863)
(0.0995086 0.000286241 0.00130569)
(0.0941946 0.000254667 0.00120407)
(0.0943891 -7.95293e-06 0.00120089)
(0.0993838 0.000259156 0.00130849)
(0.0937788 0.000228788 0.00121911)
(0.0939829 -1.2063e-05 0.00121808)
(0.0992393 0.000233339 0.00131453)
(0.0933368 0.000199051 0.00123556)
(0.0935484 -1.88721e-05 0.00123671)
(0.0990749 0.000206092 0.00132047)
(0.0928677 0.000180901 0.00129154)
(0.0930854 -3.06504e-05 0.00125862)
(0.098887 0.000173029 0.00132359)
(0.0926109 -2.92549e-05 0.00132797)
(0.0987397 0.000159846 0.0013689)
(0.0996725 -0.000154081 0.000629507)
(0.0994625 -0.000129394 0.000192519)
(0.0997132 -0.000103931 0.000687946)
(0.0991592 -0.000353368 0.00154421)
(0.0992625 -0.000636941 0.00137061)
(0.0998377 -0.000341675 0.00162227)
(0.0986639 -0.000457878 0.00194733)
(0.098913 -0.000973521 0.0020035)
(0.0999632 -0.000485531 0.0019913)
(0.0982128 -0.000481061 0.00196027)
(0.0982952 -0.00105021 0.0020505)
(0.0999921 -0.000539718 0.00199641)
(0.0977774 -0.000471984 0.0018242)
(0.0976578 -0.00100778 0.00189936)
(0.10001 -0.00054654 0.00191052)
(0.0973648 -0.000458793 0.00164022)
(0.0970657 -0.000960595 0.00169789)
(0.100009 -0.000533708 0.00180337)
(0.0969983 -0.00044688 0.00146667)
(0.0965074 -0.000934156 0.00152001)
(0.0999833 -0.000511828 0.00168143)
(0.0966804 -0.000438034 0.00132729)
(0.0959957 -0.000918327 0.00137801)
(0.0999426 -0.000485624 0.00157024)
(0.096404 -0.000430259 0.00123158)
(0.0955289 -0.000904972 0.00127663)
(0.0999046 -0.000462116 0.00147753)
(0.0961449 -0.000416629 0.00118095)
(0.0950771 -0.000873943 0.00121389)
(0.0998755 -0.000439065 0.00141225)
(0.0958766 -0.000394487 0.00116387)
(0.0946261 -0.000818898 0.00118017)
(0.0998279 -0.000410869 0.00137007)
(0.0955888 -0.000367709 0.00116396)
(0.0941758 -0.000755727 0.0011656)
(0.0997685 -0.00037916 0.00133956)
(0.0952776 -0.000340561 0.00117124)
(0.0937219 -0.000695849 0.00116171)
(0.0996982 -0.00034833 0.00131967)
(0.0949398 -0.000315317 0.00118251)
(0.093257 -0.000642071 0.00116464)
(0.0996109 -0.0003202 0.00131083)
(0.0945738 -0.000292868 0.00119711)
(0.0927768 -0.000594208 0.00117274)
(0.0995034 -0.000294877 0.00131061)
(0.0941785 -0.000273622 0.0012149)
(0.0922788 -0.000551394 0.00118539)
(0.0993749 -0.000272656 0.00131615)
(0.0937537 -0.000258272 0.00123569)
(0.0917609 -0.000512746 0.00120246)
(0.0992249 -0.000253073 0.00132576)
(0.0932994 -0.000246465 0.00125978)
(0.0912217 -0.000478192 0.00122491)
(0.0990528 -0.00023563 0.001337)
(0.0928174 -0.000238326 0.00129505)
(0.0906651 -0.000446739 0.00125868)
(0.0988653 -0.00021707 0.00134479)
(0.0900928 -0.000414414 0.00127253)
(0.0987256 -0.000191166 0.00135107)
(0.0996493 -0.000650337 0.00093141)
(0.099473 -0.00034977 0.00030706)
(0.0997993 -0.000375141 0.000741356)
(0.0990855 -0.001279 0.00182766)
(0.0990504 -0.00157688 0.00172046)
(0.0998409 -0.00115044 0.00181419)
(0.0984493 -0.00154092 0.00210296)
(0.0983577 -0.00213125 0.00216885)
(0.0999048 -0.0015366 0.00209007)
(0.0977078 -0.00154717 0.00198873)
(0.0971933 -0.00203605 0.00200236)
(0.0997674 -0.00163188 0.00202285)
(0.0969399 -0.00148071 0.00177574)
(0.0959053 -0.00185608 0.00175423)
(0.0995097 -0.00160993 0.00189534)
(0.0962086 -0.00142847 0.00158147)
(0.0946721 -0.00173351 0.00154234)
(0.0991999 -0.00154826 0.00175112)
(0.0955237 -0.00139493 0.00143399)
(0.0934823 -0.00165415 0.00138586)
(0.0988554 -0.0014759 0.00162493)
(0.094875 -0.00135679 0.00132694)
(0.0923691 -0.00157925 0.00126461)
(0.0985121 -0.00139516 0.00151363)
(0.0942417 -0.00129887 0.00125525)
(0.0913332 -0.00148549 0.00117053)
(0.0981795 -0.00130336 0.0014174)
(0.0936167 -0.00121926 0.00120829)
(0.0903445 -0.0013778 0.00110126)
(0.0978343 -0.00120099 0.00133955)
(0.093003 -0.00112772 0.00117775)
(0.0894149 -0.00127085 0.00105475)
(0.0974989 -0.00109803 0.00128445)
(0.0923983 -0.00103567 0.00115997)
(0.0885357 -0.00116926 0.00102636)
(0.0971748 -0.00100079 0.00124716)
(0.0917978 -0.000950239 0.00115208)
(0.0876929 -0.00107635 0.00101127)
(0.0968572 -0.000912249 0.00122301)
(0.0911967 -0.000873579 0.00115196)
(0.0868757 -0.000993339 0.00100611)
(0.0965435 -0.000833546 0.0012096)
(0.0905909 -0.000804946 0.00115815)
(0.0860767 -0.000919104 0.00100823)
(0.0962311 -0.000763515 0.00120462)
(0.0899765 -0.000742395 0.00117006)
(0.0852901 -0.000851206 0.00101629)
(0.0959172 -0.000700293 0.00120665)
(0.0893492 -0.000684187 0.00118868)
(0.0845101 -0.000787326 0.00102993)
(0.0955989 -0.000641315 0.00121505)
(0.0887044 -0.000630999 0.00122059)
(0.0837324 -0.000726484 0.00105044)
(0.0952752 -0.000583671 0.00123013)
(0.0880497 -0.000578734 0.00123379)
(0.0829656 -0.000681354 0.0011056)
(0.0949545 -0.000523793 0.00125276)
(0.0820632 -0.00061231 0.00105795)
(0.0946495 -0.000438156 0.00119899)
(0.0993753 -0.00118218 0.00107256)
(0.0996871 -0.000439242 0.000345488)
(0.0997475 -0.000610993 0.000779881)
(0.0984948 -0.00229618 0.00203192)
(0.0978161 -0.00273284 0.00228229)
(0.0995971 -0.00201836 0.00200288)
(0.0971412 -0.00247667 0.00204861)
(0.0954959 -0.00300178 0.00230313)
(0.0992972 -0.00246163 0.00210242)
(0.0954394 -0.00224728 0.00176736)
(0.092619 -0.00229948 0.0018388)
(0.0984882 -0.00237465 0.00190261)
(0.0937505 -0.00202093 0.00152229)
(0.089767 -0.00189209 0.00153567)
(0.097422 -0.00218113 0.00168864)
(0.0921378 -0.00186497 0.00134423)
(0.0872317 -0.00165677 0.00129464)
(0.0963092 -0.0019851 0.00150807)
(0.0906008 -0.00175499 0.00121444)
(0.085006 -0.00149247 0.00107718)
(0.0952038 -0.00180232 0.00134227)
(0.08915 -0.00165785 0.00111307)
(0.0830597 -0.00137237 0.000913366)
(0.0941467 -0.0016459 0.00120307)
(0.0878017 -0.00155428 0.00103105)
(0.0813224 -0.00127994 0.000801864)
(0.0931633 -0.00150692 0.00109468)
(0.0865565 -0.00144694 0.000969415)
(0.0797425 -0.00119626 0.000726943)
(0.092257 -0.00137851 0.00101211)
(0.0853986 -0.00134482 0.000929081)
(0.0782908 -0.0011156 0.000680382)
(0.0914265 -0.00126314 0.00095434)
(0.0843103 -0.00125239 0.000906113)
(0.0769438 -0.0010385 0.000653159)
(0.0906621 -0.0011626 0.000916535)
(0.0832761 -0.00116926 0.000895725)
(0.0756821 -0.000966604 0.000637893)
(0.0899513 -0.00107576 0.000893239)
(0.0822839 -0.00109354 0.000894084)
(0.0744894 -0.000901447 0.000630231)
(0.0892839 -0.000999411 0.000879862)
(0.0813253 -0.00102402 0.000899106)
(0.0733526 -0.000843522 0.000629155)
(0.0886517 -0.00093116 0.00087403)
(0.0803927 -0.000959516 0.000910066)
(0.0722614 -0.000790708 0.000632467)
(0.0880485 -0.000869578 0.000875149)
(0.0794777 -0.000897564 0.000926762)
(0.0712101 -0.000738884 0.000639186)
(0.0874687 -0.000812776 0.00088288)
(0.0785723 -0.000850359 0.000971223)
(0.0701855 -0.000686615 0.000645022)
(0.0869108 -0.000756953 0.000895671)
(0.0776832 -0.000805173 0.000970516)
(0.0692337 -0.000682088 0.000715591)
(0.0863861 -0.000715389 0.000939797)
(0.0678924 -0.000596466 0.000586683)
(0.0857534 -0.000608893 0.000814824)
(0.0984572 -0.00247646 0.0017299)
(0.0973536 -0.00106248 -0.00148428)
(0.100049 -0.00105639 0.000750974)
(0.0958348 -0.0031481 0.00243268)
(0.0930872 -0.003269 0.00253348)
(0.0982936 -0.00280923 0.00216148)
(0.0914499 -0.00223041 0.00186933)
(0.084864 -0.00163586 0.00179238)
(0.0963039 -0.00244264 0.00199782)
(0.0875949 -0.00167477 0.00150552)
(0.0786279 -0.00107355 0.00122142)
(0.0936666 -0.00198073 0.00172704)
(0.0841471 -0.0014403 0.00127572)
(0.0740528 -0.000785378 0.000865203)
(0.0909042 -0.00171971 0.00149796)
(0.0811869 -0.00126578 0.00102888)
(0.070442 -0.000650613 0.000669488)
(0.0884338 -0.00145451 0.00121198)
(0.0786997 -0.00111079 0.000794237)
(0.0674909 -0.00054682 0.000508986)
(0.0863037 -0.00118337 0.000909128)
(0.076554 -0.000993187 0.00062569)
(0.0650495 -0.000468988 0.00038821)
(0.0844787 -0.000982862 0.000691555)
(0.0746464 -0.000906869 0.000519183)
(0.0629637 -0.000415413 0.000309127)
(0.0828767 -0.000844951 0.000550135)
(0.0729151 -0.00083392 0.000454807)
(0.0611276 -0.000372961 0.000257137)
(0.0814419 -0.000744019 0.000458119)
(0.0713227 -0.000764283 0.000416956)
(0.0594811 -0.000334906 0.000223493)
(0.080141 -0.000661482 0.000396744)
(0.0698449 -0.000697807 0.000394567)
(0.0579885 -0.000300037 0.000202196)
(0.0789471 -0.000589706 0.000354082)
(0.0684626 -0.000638675 0.00038129)
(0.0566222 -0.000269506 0.000188623)
(0.0778394 -0.000529114 0.000324559)
(0.0671588 -0.00058891 0.000374836)
(0.0553579 -0.000243322 0.000179234)
(0.0768041 -0.000479816 0.000304267)
(0.0659184 -0.000545844 0.000373134)
(0.0541807 -0.000219806 0.000172802)
(0.0758313 -0.000438254 0.000290402)
(0.0647338 -0.000504178 0.000373655)
(0.053079 -0.000197179 0.000168261)
(0.074913 -0.000399172 0.000278192)
(0.0636016 -0.000462577 0.000372462)
(0.0520476 -0.00017435 0.000166872)
(0.0740389 -0.0003601 0.000268707)
(0.0625165 -0.000447528 0.000404876)
(0.0510654 -0.000151835 0.000166272)
(0.073193 -0.000330209 0.00026241)
(0.0614383 -0.000412276 0.000356503)
(0.0501669 -0.000164312 0.000207252)
(0.0724215 -0.000305776 0.000275097)
(0.0487856 -9.34928e-05 6.37345e-05)
(0.0713739 -0.000139123 4.14069e-05)
(0.0993441 0.00341901 -0.00341901)
(0.0973536 0.00148428 0.00106247)
(0.0834791 -0.0019759 0.0019759)
(0.0930872 -0.00253348 0.003269)
(0.074517 -0.00195875 0.00195875)
(0.084864 -0.00179237 0.00163585)
(0.0685475 -0.00115909 0.0011591)
(0.0786279 -0.00122141 0.00107354)
(0.0642357 -0.000697031 0.000697058)
(0.0740528 -0.000865173 0.000785376)
(0.060756 -0.000494893 0.000494984)
(0.070442 -0.000669436 0.000650617)
(0.0579361 -0.000374863 0.000375096)
(0.0674909 -0.000508851 0.000546866)
(0.0556118 -0.000288012 0.000288449)
(0.0650495 -0.000387939 0.000469096)
(0.0536209 -0.000227049 0.000227799)
(0.0629637 -0.000308653 0.000415615)
(0.0518732 -0.000183148 0.000184511)
(0.0611277 -0.000256315 0.000373351)
(0.0503184 -0.000151083 0.000153602)
(0.0594812 -0.000221887 0.000335745)
(0.0489216 -0.000126694 0.000131154)
(0.0579888 -0.000199207 0.000301698)
(0.0476532 -0.000106795 0.000113806)
(0.0566231 -0.000183387 0.000272527)
(0.0464896 -8.93235e-05 9.95081e-05)
(0.0553595 -0.000172103 0.000248021)
(0.0454158 -7.26012e-05 8.73972e-05)
(0.0541835 -0.000163142 0.000226841)
(0.0444241 -5.59581e-05 7.82652e-05)
(0.0530833 -0.000154914 0.000207759)
(0.0435105 -3.99441e-05 7.39043e-05)
(0.0520547 -0.000144877 0.00019047)
(0.0426668 -4.02313e-05 8.51076e-05)
(0.0510785 -0.000133727 0.000178091)
(0.041736 2.73807e-05 7.0987e-06)
(0.0501723 -0.000145263 0.00018702)
(0.0486859 -0.000139195 0.000175238)
(0.0984572 0.0017299 0.00247646)
(0.100049 0.000750974 0.00105638)
(0.0996871 0.000345488 0.000439241)
(0.0958348 0.00243268 0.00314809)
(0.0982936 0.00216149 0.00280922)
(0.0978161 0.00228229 0.00273283)
(0.0914499 0.00186933 0.0022304)
(0.0963039 0.00199782 0.00244263)
(0.0954959 0.00230313 0.00300178)
(0.0875949 0.00150552 0.00167476)
(0.0936666 0.00172705 0.00198072)
(0.092619 0.0018388 0.00229947)
(0.0841471 0.00127572 0.00144028)
(0.0909042 0.00149796 0.0017197)
(0.089767 0.00153567 0.00189207)
(0.0811869 0.00102888 0.00126576)
(0.0884338 0.00121198 0.00145449)
(0.0872317 0.00129464 0.00165675)
(0.0786998 0.000794237 0.00111076)
(0.0863038 0.000909132 0.00118335)
(0.085006 0.00107719 0.00149245)
(0.0765541 0.000625692 0.000993155)
(0.0844787 0.00069156 0.000982834)
(0.0830597 0.00091337 0.00137234)
(0.0746465 0.000519187 0.000906829)
(0.0828768 0.000550141 0.000844914)
(0.0813225 0.00080187 0.0012799)
(0.0729152 0.000454811 0.000833866)
(0.081442 0.000458127 0.00074397)
(0.0797426 0.000726951 0.00119621)
(0.0713229 0.000416963 0.000764212)
(0.0801411 0.000396751 0.000661415)
(0.0782909 0.000680392 0.00111554)
(0.0698451 0.00039458 0.000697719)
(0.0789472 0.000354093 0.000589622)
(0.076944 0.000653173 0.00103842)
(0.0684629 0.00038132 0.000638579)
(0.0778396 0.000324606 0.000529039)
(0.0756823 0.000637905 0.000966476)
(0.0671591 0.000374879 0.000588785)
(0.0768045 0.000304294 0.000479687)
(0.0744897 0.000630275 0.000901322)
(0.0659188 0.000373169 0.000545659)
(0.0758317 0.000290377 0.000438011)
(0.0733529 0.000629223 0.000843373)
(0.0647344 0.000373672 0.000503923)
(0.0749136 0.000278193 0.000398905)
(0.0722619 0.000632509 0.00079047)
(0.0636026 0.000372445 0.000462212)
(0.0740397 0.000268684 0.000359745)
(0.0712109 0.000639181 0.000738508)
(0.0625181 0.000404679 0.000446841)
(0.0731944 0.000262308 0.000329693)
(0.0701867 0.000644926 0.00068602)
(0.0614416 0.000355689 0.000410821)
(0.0724238 0.000274681 0.000304757)
(0.0692357 0.000715117 0.000680913)
(0.071378 4.05258e-05 0.0001375)
(0.0678965 0.000585355 0.000594223)
(0.10008 0.00135178 0.00135178)
(0.100186 0.000798774 0.000804956)
(0.100186 0.000804958 0.000798772)
(0.100264 0.00221731 0.0022173)
(0.10019 0.0023119 0.00207149)
(0.10019 0.0020715 0.00231189)
(0.0993827 0.00243578 0.00243576)
(0.100306 0.00263377 0.00245309)
(0.100306 0.00245311 0.00263376)
(0.0979837 0.00231031 0.00231028)
(0.0998048 0.00256052 0.00245597)
(0.0998048 0.002456 0.0025605)
(0.0964944 0.00200628 0.00200623)
(0.0988623 0.00236464 0.00228095)
(0.0988623 0.002281 0.0023646)
(0.0950716 0.00159714 0.00159705)
(0.0978401 0.00204942 0.00196805)
(0.0978401 0.00196813 0.00204936)
(0.0937735 0.00122656 0.0012264)
(0.0968601 0.0016919 0.00160459)
(0.09686 0.00160472 0.0016918)
(0.0926146 0.000962531 0.000962246)
(0.0959572 0.00140569 0.00132141)
(0.0959571 0.00132165 0.00140552)
(0.0915886 0.000778661 0.000778123)
(0.095144 0.00119349 0.00111852)
(0.0951439 0.00111894 0.00119317)
(0.0906793 0.000647096 0.000646017)
(0.0944191 0.00103496 0.000971794)
(0.0944188 0.000972566 0.00103435)
(0.089866 0.000549709 0.000547667)
(0.0937767 0.000913835 0.000864013)
(0.0937761 0.000865476 0.000912668)
(0.0891277 0.000477134 0.000473647)
(0.0932028 0.000819914 0.000784532)
(0.0932018 0.000787097 0.00081779)
(0.088449 0.000422728 0.000417586)
(0.0926838 0.000746608 0.000725876)
(0.0926821 0.00073008 0.000742956)
(0.0878229 0.00037949 0.000372037)
(0.0922123 0.000687281 0.000680821)
(0.0922095 0.00068696 0.000681518)
(0.087246 0.000342111 0.00033079)
(0.0917843 0.000637066 0.000643366)
(0.0917801 0.000652828 0.000628034)
(0.0867098 0.000310476 0.000292147)
(0.0913968 0.000594128 0.000611271)
(0.0913905 0.00062588 0.000580338)
(0.0862029 0.000291684 0.000265437)
(0.0910386 0.00055907 0.000584169)
(0.0910291 0.000607861 0.00053782)
(0.0857139 0.000264885 0.000225662)
(0.090705 0.00053657 0.000569702)
(0.0906918 0.000602419 0.00050821)
(0.0852767 9.92709e-05 6.39054e-05)
(0.090399 0.000499762 0.000528751)
(0.0903893 0.000582486 0.000461684)
(0.0901402 0.000321668 0.000373359)
(0.0901184 0.000339039 0.000270936)
(0.100171 0.00136874 0.00141642)
(0.100118 0.000577434 0.000811302)
(0.100102 0.000699785 0.000700695)
(0.100759 0.00219502 0.00214905)
(0.100478 0.00158295 0.00185875)
(0.100477 0.00182261 0.00186467)
(0.100996 0.00247715 0.00238787)
(0.101004 0.00205894 0.00224246)
(0.101024 0.00234693 0.00238297)
(0.100837 0.00247657 0.00238895)
(0.101292 0.00220379 0.00235191)
(0.101337 0.0025062 0.00254371)
(0.100457 0.00231211 0.00222447)
(0.101309 0.00216784 0.0023217)
(0.101408 0.00245089 0.00247226)
(0.0999665 0.00205751 0.00196759)
(0.101156 0.00201161 0.00217802)
(0.101301 0.00226515 0.00227032)
(0.0994415 0.00179199 0.00169892)
(0.100926 0.00179503 0.00196731)
(0.101097 0.00200992 0.00199843)
(0.0989303 0.00156563 0.00148191)
(0.100663 0.00158564 0.00176393)
(0.100852 0.00177143 0.00175745)
(0.0984591 0.00138174 0.00131877)
(0.100406 0.00139879 0.00158758)
(0.100603 0.001571 0.00156343)
(0.0980386 0.00123101 0.00119672)
(0.100168 0.0012347 0.00144124)
(0.100372 0.00140522 0.00140927)
(0.0976682 0.00110734 0.00110725)
(0.0999589 0.00109723 0.00133322)
(0.100171 0.00126861 0.00128801)
(0.0973439 0.00100613 0.0010425)
(0.099778 0.000983579 0.00125554)
(0.100003 0.00115665 0.00119369)
(0.0970617 0.000922854 0.000994567)
(0.0996232 0.000889072 0.0011994)
(0.0998665 0.00106539 0.00112027)
(0.0968165 0.000853102 0.000957785)
(0.0994927 0.000809751 0.00115811)
(0.0997597 0.000990557 0.00106182)
(0.0966034 0.000793907 0.000929899)
(0.0993837 0.000741183 0.00112761)
(0.0996803 0.000928414 0.00101448)
(0.0964184 0.00074285 0.000909709)
(0.099293 0.0006804 0.0011059)
(0.0996256 0.000876725 0.000976575)
(0.09626 0.000696719 0.000894082)
(0.0992183 0.000624118 0.00109102)
(0.0995948 0.000832793 0.000946379)
(0.0961344 0.000645753 0.000875102)
(0.0991616 0.000568311 0.00107938)
(0.099592 0.000792687 0.000920354)
(0.0960502 0.000567073 0.000839244)
(0.099115 0.00049459 0.00106274)
(0.0996147 0.000740983 0.000887427)
(0.0991526 0.000388713 0.00103579)
(0.0996914 0.000647545 0.00084426)
(0.100242 0.000820241 0.00125611)
(0.10009 0.000294366 0.000735345)
(0.100071 0.000415706 0.000602768)
(0.100828 0.00139072 0.00193926)
(0.100491 0.000792077 0.00168397)
(0.100492 0.00112452 0.00158695)
(0.101392 0.00166374 0.00218205)
(0.101086 0.00107789 0.00208329)
(0.101128 0.00154102 0.002094)
(0.101816 0.00176155 0.00226069)
(0.101664 0.00120459 0.00217873)
(0.101767 0.00173302 0.00229395)
(0.10208 0.001756 0.00226113)
(0.102121 0.00124014 0.00222129)
(0.102291 0.00179039 0.00236667)
(0.102215 0.00166918 0.00217533)
(0.102451 0.0012026 0.00220888)
(0.102711 0.00174463 0.00232095)
(0.102265 0.00153528 0.00203938)
(0.10268 0.0011195 0.00212442)
(0.103036 0.00162741 0.00220054)
(0.102275 0.00138459 0.00188209)
(0.102841 0.00101913 0.00200247)
(0.103285 0.0014814 0.00204712)
(0.102272 0.0012341 0.00172554)
(0.102966 0.00091956 0.00186542)
(0.10349 0.00133075 0.00188653)
(0.102267 0.00109806 0.00159543)
(0.10307 0.00082681 0.00173646)
(0.103667 0.00118997 0.0017401)
(0.102265 0.000982952 0.00150114)
(0.103165 0.000744349 0.00163139)
(0.103826 0.0010685 0.00162366)
(0.102268 0.000885273 0.00143359)
(0.103259 0.000672001 0.00154752)
(0.103979 0.000965924 0.00153275)
(0.102278 0.000800821 0.00138517)
(0.103353 0.000608294 0.00148656)
(0.104128 0.000877905 0.00146208)
(0.102295 0.000726837 0.00135106)
(0.103447 0.000552099 0.00144669)
(0.104278 0.000801842 0.00140777)
(0.102319 0.000660521 0.00132768)
(0.10354 0.000501664 0.00142179)
(0.10443 0.000735147 0.00136674)
(0.102348 0.00059862 0.00131231)
(0.10363 0.000455799 0.0014064)
(0.104585 0.00067585 0.0013361)
(0.102381 0.000537035 0.00130257)
(0.103716 0.000411642 0.0013973)
(0.104743 0.000620207 0.00131341)
(0.102418 0.000468744 0.00129578)
(0.103799 0.000365397 0.0013918)
(0.104906 0.000563295 0.00129617)
(0.102453 0.000389419 0.00129337)
(0.103874 0.000310434 0.00138666)
(0.105071 0.000496281 0.00128094)
(0.104056 0.000254981 0.00139164)
(0.10532 0.000422385 0.00127904)
(0.100243 0.000267469 0.00116238)
(0.100087 5.11032e-10 0.000707012)
(0.100064 0.000135838 0.00053732)
(0.100782 0.000465862 0.00182616)
(0.100477 2.26975e-09 0.00161776)
(0.100463 0.000370975 0.00142408)
(0.101401 0.000575726 0.00207601)
(0.101066 3.00476e-09 0.00203457)
(0.101089 0.000525324 0.00193346)
(0.101988 0.000623231 0.00213357)
(0.101694 1.83711e-09 0.00211745)
(0.101798 0.000606134 0.00212836)
(0.102507 0.000631642 0.00216429)
(0.102269 -2.17582e-09 0.00214969)
(0.102489 0.000639717 0.00221048)
(0.102935 0.000611157 0.00215583)
(0.102743 -1.20017e-08 0.0021789)
(0.10312 0.000634827 0.00224071)
(0.103279 0.000572592 0.00208753)
(0.103125 -3.01934e-08 0.00213279)
(0.103687 0.000601972 0.00219547)
(0.103557 0.00052743 0.00198715)
(0.103429 -6.02471e-08 0.00204234)
(0.104186 0.000556536 0.00210398)
(0.103791 0.000483843 0.00187833)
(0.103682 -1.22589e-07 0.00193207)
(0.104623 0.000509441 0.00198995)
(0.104 0.000441746 0.00177454)