/*--------------------------------*- C++ -*----------------------------------*\
| =========                 |                                                 |
| \\      /  F ield         | OpenFOAM: The Open Source CFD Toolbox           |
|  \\    /   O peration     | Version:  2212                                  |
|   \\  /    A nd           | Website:  www.openfoam.com                      |
|    \\/     M anipulation  |                                                 |
\*---------------------------------------------------------------------------*/
FoamFile
{
    version     2.0;
    format      ascii;
    arch        "LSB;label=32;scalar=64";
    class       volScalarField;
    location    "2.05";
    object      epsilon;
}
// * * * * * * * * * * * * * * * * * * * * * * * * * * * * * * * * * * * * * //

dimensions      [0 2 -3 0 0 0 0];

internalField   nonuniform List<scalar> 
6840
(
90.5034
12.1248
4.38869
2.46658
1.63315
1.18306
0.902009
0.720656
0.594577
0.502489
0.432656
0.379257
0.336269
0.299814
0.270089
0.246011
0.2264
0.210684
0.200688
0.190954
58.5856
14.5696
6.08947
3.33295
2.08217
1.40266
0.998643
0.740273
0.565889
0.443903
0.355991
0.290886
0.24135
0.202888
0.17295
0.149609
0.131037
0.116067
0.104416
0.0958395
45.0226
13.4729
5.73075
3.07322
1.86022
1.22698
0.873561
0.64976
0.496989
0.389445
0.311246
0.25292
0.208906
0.175114
0.14868
0.127688
0.110841
0.0971736
0.08607
0.0776713
38.7028
13.0541
5.74336
3.08733
1.88066
1.22749
0.869464
0.645368
0.492572
0.384755
0.30699
0.249
0.204919
0.170909
0.144293
0.123176
0.106202
0.0923768
0.0810267
0.0723491
36.0571
12.8529
5.76645
3.10211
1.89475
1.22669
0.866499
0.643983
0.492251
0.383967
0.305802
0.247929
0.203936
0.169974
0.143376
0.12226
0.105286
0.0914898
0.0802674
0.0721752
36.0571
12.8529
5.76645
3.10212
1.89476
1.2267
0.866509
0.643996
0.492268
0.383989
0.305833
0.24797
0.203992
0.170051
0.143483
0.122411
0.105499
0.0917865
0.0806575
0.0725507
38.7028
13.0541
5.74337
3.08734
1.88067
1.22751
0.869487
0.645398
0.492611
0.384805
0.307061
0.249094
0.205047
0.171087
0.14454
0.123528
0.106708
0.0931102
0.0820587
0.0733698
45.0226
13.4729
5.73075
3.07323
1.86023
1.227
0.873582
0.649789
0.497027
0.389508
0.311325
0.253025
0.209047
0.17531
0.148965
0.128098
0.111439
0.0980526
0.0873473
0.0793213
58.5856
14.5696
6.08947
3.33295
2.08217
1.40266
0.998648
0.740281
0.565898
0.443924
0.356023
0.290936
0.241427
0.203037
0.173167
0.149941
0.131589
0.117071
0.106271
0.0991821
90.5034
12.1248
4.38869
2.46658
1.63315
1.18306
0.902009
0.720656
0.594577
0.502488
0.432658
0.379254
0.336274
0.299807
0.270091
0.246011
0.2264
0.210682
0.200682
0.190947
58.5856
14.5696
6.08947
3.33295
2.08217
1.40267
0.998648
0.740281
0.565899
0.443924
0.356024
0.290936
0.241427
0.203042
0.173167
0.14994
0.13159
0.117075
0.106276
0.099192
16.5373
9.49238
5.0127
2.8606
1.75746
1.14759
0.786927
0.562044
0.41536
0.315937
0.246319
0.196203
0.159193
0.131212
0.109725
0.0931167
0.0800351
0.0695543
0.0603109
0.0549371
13.6679
8.73671
5.07741
3.05388
1.92223
1.26609
0.869289
0.618631
0.453959
0.342034
0.26365
0.207311
0.165901
0.134846
0.111145
0.092683
0.0781567
0.0666216
0.0571491
0.0497571
12.9054
8.33993
5.07879
3.15547
2.02775
1.35121
0.933541
0.666464
0.489552
0.368603
0.283614
0.222399
0.177342
0.143544
0.117765
0.0977869
0.0820983
0.069628
0.0595916
0.051388
12.6882
8.1544
5.07113
3.20039
2.0794
1.39506
0.967837
0.692729
0.509646
0.384027
0.295517
0.231664
0.184612
0.149284
0.122313
0.101415
0.0849998
0.0719481
0.0614568
0.0529569
12.6882
8.1544
5.07113
3.20039
2.0794
1.39506
0.967835
0.692726
0.509644
0.384024
0.295513
0.231659
0.184606
0.149274
0.122297
0.101399
0.0849819
0.0719269
0.0614319
0.0529215
12.9054
8.33993
5.07879
3.15547
2.02775
1.3512
0.933538
0.666459
0.489548
0.368598
0.283607
0.22239
0.177328
0.14352
0.117735
0.0977553
0.0820614
0.0695838
0.0595351
0.0512274
13.6679
8.73671
5.0774
3.05388
1.92223
1.26609
0.869287
0.618628
0.453956
0.34203
0.263645
0.207305
0.165892
0.134831
0.11112
0.0926576
0.078128
0.0665896
0.0570959
0.049761
16.5373
9.49238
5.0127
2.8606
1.75746
1.14759
0.786927
0.562044
0.41536
0.315937
0.246319
0.196203
0.159193
0.131216
0.109721
0.093116
0.0800359
0.0695556
0.0603134
0.0549435
58.5856
14.5696
6.08947
3.33295
2.08217
1.40266
0.998643
0.740273
0.565889
0.443903
0.355991
0.290886
0.24135
0.202883
0.172951
0.149611
0.131039
0.116069
0.104418
0.0958437
45.0226
13.4729
5.73075
3.07323
1.86023
1.227
0.873583
0.649789
0.497027
0.389508
0.311326
0.253026
0.209048
0.175311
0.148964
0.128099
0.11144
0.0980552
0.0873507
0.0793261
13.6679
8.73671
5.0774
3.05388
1.92223
1.26609
0.869287
0.618628
0.453956
0.34203
0.263645
0.207304
0.165892
0.134832
0.111118
0.0926563
0.0781259
0.0665859
0.0570972
0.0497584
11.8601
7.76395
4.99734
3.24076
2.14419
1.45499
1.0141
0.725633
0.532153
0.399146
0.305541
0.238216
0.188818
0.151907
0.123866
0.102227
0.0853069
0.0719136
0.0611639
0.0525595
11.6229
7.60535
5.0103
3.34209
2.26848
1.57142
1.11236
0.804589
0.594205
0.447519
0.343212
0.267636
0.211902
0.170124
0.13833
0.113789
0.0946039
0.079429
0.0672916
0.0574975
11.5726
7.56718
5.02065
3.38345
2.32103
1.62326
1.15829
0.843158
0.625693
0.472852
0.363488
0.283858
0.224911
0.180595
0.146797
0.120673
0.100232
0.0840527
0.0711094
0.0606322
11.5726
7.56718
5.02065
3.38344
2.32103
1.62326
1.15828
0.843155
0.625691
0.47285
0.363485
0.283854
0.224906
0.180587
0.146785
0.120662
0.100219
0.084038
0.0710954
0.0606409
11.6229
7.60535
5.0103
3.34209
2.26848
1.57142
1.11236
0.804586
0.594202
0.447514
0.343207
0.267629
0.211893
0.17011
0.138312
0.11377
0.0945824
0.0794047
0.0672673
0.0575065
11.8601
7.76395
4.99734
3.24076
2.14419
1.45499
1.0141
0.725633
0.532153
0.399146
0.305542
0.238217
0.18882
0.151908
0.123864
0.102227
0.085308
0.0719154
0.0611668
0.052566
13.6679
8.73671
5.07741
3.05388
1.92223
1.26609
0.869289
0.618631
0.453959
0.342034
0.26365
0.207311
0.165902
0.134851
0.11114
0.0926809
0.0781559
0.0666214
0.0571491
0.0497606
45.0226
13.4729
5.73075
3.07322
1.86022
1.22698
0.873561
0.64976
0.496989
0.389445
0.311246
0.252921
0.208906
0.175114
0.148681
0.127689
0.110842
0.0971754
0.0860728
0.0776761
38.7028
13.0541
5.74337
3.08734
1.88067
1.22751
0.869487
0.645398
0.492611
0.384806
0.307061
0.249095
0.205047
0.171086
0.14454
0.123529
0.106709
0.0931123
0.0820619
0.0733747
12.9054
8.33993
5.07879
3.15547
2.02775
1.3512
0.933539
0.666459
0.489548
0.368598
0.283607
0.22239
0.177329
0.143525
0.117731
0.0977531
0.0820598
0.069582
0.0595336
0.0512251
11.6229
7.60535
5.0103
3.34209
2.26848
1.57142
1.11236
0.804586
0.594202
0.447514
0.343207
0.267629
0.211893
0.170111
0.138311
0.113769
0.0945812
0.0794031
0.0672652
0.0575039
11.4933
7.5119
5.02843
3.434
2.3892
1.6928
1.22111
0.896486
0.669455
0.50812
0.391654
0.306283
0.242781
0.194884
0.158277
0.129949
0.107772
0.0902203
0.0761807
0.0647747
11.4757
7.50136
5.04297
3.47002
2.43665
1.74299
1.26863
0.938712
0.705583
0.538335
0.416593
0.326727
0.259498
0.208556
0.169484
0.139166
0.115386
0.0965394
0.0814431
0.0691292
11.4757
7.50136
5.04297
3.47002
2.43665
1.74299
1.26863
0.938711
0.705582
0.538334
0.416592
0.326726
0.259496
0.208554
0.169481
0.139163
0.115382
0.0965354
0.0814382
0.0691235
11.4933
7.5119
5.02843
3.434
2.3892
1.6928
1.22111
0.896486
0.669455
0.508121
0.391654
0.306283
0.242782
0.194885
0.158276
0.129948
0.107772
0.090221
0.0761817
0.0647762
11.6229
7.60535
5.0103
3.34209
2.26848
1.57142
1.11236
0.804589
0.594205
0.447519
0.343213
0.267636
0.211903
0.170125
0.138328
0.113788
0.0946041
0.0794296
0.0672927
0.0574993
12.9054
8.33993
5.07879
3.15547
2.02775
1.35121
0.933541
0.666464
0.489552
0.368603
0.283614
0.222399
0.177342
0.143547
0.117762
0.0977853
0.0820974
0.0696273
0.0595909
0.0513865
38.7028
13.0541
5.74336
3.08733
1.88066
1.22749
0.869464
0.645368
0.492572
0.384755
0.30699
0.249
0.20492
0.17091
0.144291
0.123176
0.106202
0.092377
0.081028
0.0723601
36.0571
12.8529
5.76645
3.10212
1.89476
1.2267
0.866509
0.643996
0.492268
0.383989
0.305833
0.24797
0.203992
0.170051
0.143484
0.122411
0.1055
0.0917876
0.0806591
0.0725536
12.6882
8.1544
5.07113
3.20039
2.0794
1.39506
0.967836
0.692726
0.509644
0.384024
0.295514
0.231659
0.184606
0.149276
0.122297
0.101399
0.084982
0.0719271
0.0614322
0.0529214
11.5726
7.56718
5.02065
3.38344
2.32103
1.62326
1.15828
0.843155
0.625691
0.47285
0.363485
0.283854
0.224906
0.180588
0.146785
0.120661
0.100219
0.0840378
0.0710951
0.0606414
11.4757
7.50136
5.04297
3.47002
2.43665
1.74299
1.26863
0.938711
0.705582
0.538334
0.416591
0.326726
0.259496
0.208554
0.16948
0.139163
0.115382
0.0965352
0.0814382
0.0691249
11.4647
7.49683
5.0577
3.50272
2.48038
1.79068
1.31522
0.981304
0.742923
0.570208
0.443348
0.348965
0.277885
0.223733
0.182016
0.149538
0.123999
0.103719
0.0874401
0.0740666
11.4647
7.49683
5.0577
3.50272
2.48038
1.79068
1.31522
0.981304
0.742923
0.570208
0.443348
0.348965
0.277885
0.223733
0.182016
0.149538
0.123999
0.10372
0.0874402
0.0740658
11.4757
7.50136
5.04297
3.47002
2.43665
1.74299
1.26863
0.938712
0.705583
0.538335
0.416593
0.326727
0.259498
0.208557
0.169483
0.139166
0.115386
0.0965392
0.0814431
0.0691298
11.5726
7.56718
5.02065
3.38345
2.32103
1.62326
1.15829
0.843158
0.625693
0.472852
0.363488
0.283858
0.224911
0.180595
0.146797
0.120673
0.100232
0.0840522
0.0711088
0.0606318
12.6882
8.1544
5.07113
3.20039
2.0794
1.39506
0.967837
0.692729
0.509646
0.384027
0.295516
0.231663
0.184611
0.149283
0.122315
0.101416
0.085
0.0719479
0.0614565
0.0529564
36.0571
12.8529
5.76645
3.10211
1.89475
1.22669
0.866499
0.643983
0.492251
0.383967
0.305802
0.247929
0.203938
0.169977
0.143373
0.122257
0.105284
0.0914883
0.0802666
0.0721766
36.0571
12.8529
5.76645
3.10211
1.89475
1.22669
0.866499
0.643983
0.492251
0.383967
0.305802
0.247929
0.203936
0.169974
0.143376
0.12226
0.105286
0.0914896
0.0802671
0.0721751
12.6882
8.1544
5.07113
3.20039
2.0794
1.39506
0.967837
0.692729
0.509646
0.384027
0.295517
0.231664
0.184612
0.149285
0.122313
0.101416
0.0850011
0.07195
0.0614593
0.0529598
11.5726
7.56718
5.02065
3.38345
2.32103
1.62326
1.15829
0.843158
0.625693
0.472853
0.363488
0.283858
0.224912
0.180596
0.146796
0.120674
0.100233
0.084054
0.0711111
0.0606349
11.4757
7.50136
5.04297
3.47002
2.43665
1.74299
1.26863
0.938712
0.705583
0.538335
0.416593
0.326727
0.259498
0.208556
0.169484
0.139166
0.115386
0.0965398
0.0814437
0.0691314
11.4647
7.49683
5.0577
3.50272
2.48038
1.79068
1.31522
0.981304
0.742923
0.570208
0.443348
0.348965
0.277885
0.223732
0.182016
0.149538
0.123999
0.103719
0.0874403
0.0740666
11.4647
7.49683
5.0577
3.50272
2.48038
1.79068
1.31522
0.981304
0.742923
0.570208
0.443348
0.348965
0.277885
0.223733
0.182016
0.149538
0.123999
0.103719
0.0874401
0.0740656
11.4757
7.50136
5.04297
3.47002
2.43665
1.74299
1.26863
0.938711
0.705582
0.538334
0.416591
0.326726
0.259496
0.208554
0.16948
0.139162
0.115382
0.0965346
0.0814375
0.0691236
11.5726
7.56718
5.02065
3.38344
2.32103
1.62326
1.15828
0.843155
0.625691
0.472849
0.363484
0.283853
0.224904
0.180586
0.146787
0.120662
0.100218
0.0840366
0.0710936
0.0606397
12.6882
8.1544
5.07113
3.20039
2.07939
1.39506
0.967835
0.692726
0.509644
0.384024
0.295513
0.231659
0.184604
0.149271
0.122303
0.101402
0.084983
0.0719274
0.0614321
0.0529214
36.0571
12.8529
5.76645
3.10212
1.89476
1.2267
0.866509
0.643996
0.492268
0.383989
0.305833
0.247971
0.203993
0.170053
0.143481
0.122408
0.105497
0.0917848
0.0806562
0.0725496
38.7028
13.0541
5.74336
3.08733
1.88066
1.22749
0.869464
0.645368
0.492572
0.384756
0.30699
0.249
0.204919
0.170909
0.144293
0.123176
0.106202
0.0923756
0.0810248
0.0723462
12.9054
8.33993
5.07879
3.15547
2.02775
1.35121
0.933541
0.666464
0.489552
0.368603
0.283614
0.2224
0.177342
0.143545
0.117765
0.0977877
0.0820997
0.0696299
0.0595938
0.0513904
11.6229
7.60535
5.0103
3.34209
2.26848
1.57142
1.11236
0.804589
0.594205
0.447519
0.343213
0.267636
0.211902
0.170124
0.13833
0.113789
0.0946051
0.0794306
0.0672936
0.0575011
11.4933
7.5119
5.02843
3.434
2.3892
1.6928
1.22111
0.896486
0.669455
0.508121
0.391654
0.306283
0.242781
0.194884
0.158278
0.129949
0.107772
0.0902206
0.0761812
0.0647755
11.4757
7.50136
5.04297
3.47002
2.43665
1.74299
1.26863
0.938711
0.705582
0.538334
0.416591
0.326726
0.259496
0.208554
0.169481
0.139163
0.115382
0.0965346
0.0814374
0.0691227
11.4757
7.50136
5.04297
3.47002
2.43665
1.74299
1.26863
0.938712
0.705583
0.538335
0.416592
0.326727
0.259498
0.208556
0.169484
0.139166
0.115386
0.096539
0.0814427
0.0691294
11.4933
7.5119
5.02843
3.434
2.3892
1.6928
1.22111
0.896485
0.669454
0.50812
0.391654
0.306283
0.242782
0.194885
0.158276
0.129948
0.107771
0.0902203
0.076181
0.0647755
11.6229
7.60535
5.0103
3.34209
2.26848
1.57142
1.11236
0.804586
0.594202
0.447514
0.343207
0.267628
0.211892
0.17011
0.138312
0.113769
0.0945813
0.0794033
0.0672656
0.0575047
12.9054
8.33993
5.07879
3.15547
2.02775
1.3512
0.933537
0.66646
0.489548
0.368598
0.283607
0.22239
0.177328
0.14352
0.117736
0.0977558
0.0820617
0.069584
0.0595352
0.0512275
38.7028
13.0541
5.74337
3.08734
1.88067
1.22751
0.869488
0.645398
0.492611
0.384805
0.307061
0.249094
0.205047
0.171086
0.144539
0.123528
0.106707
0.0931097
0.0820583
0.0733695
45.0226
13.4729
5.73075
3.07322
1.86022
1.22698
0.873561
0.64976
0.49699
0.389445
0.311246
0.25292
0.208906
0.175114
0.14868
0.127688
0.11084
0.0971714
0.0860669
0.0776638
13.6679
8.73671
5.07741
3.05388
1.92223
1.26609
0.869289
0.618631
0.453959
0.342034
0.26365
0.207311
0.165901
0.134846
0.111145
0.0926836
0.0781576
0.0666235
0.0571453
0.0497607
11.8601
7.76395
4.99734
3.24076
2.14419
1.45499
1.0141
0.725633
0.532153
0.399146
0.305541
0.238216
0.188818
0.151907
0.123866
0.102228
0.0853074
0.071914
0.0611645
0.0525635
11.6229
7.60535
5.0103
3.34209
2.26848
1.57142
1.11236
0.804586
0.594202
0.447514
0.343207
0.267628
0.211892
0.17011
0.138311
0.113769
0.0945808
0.0794023
0.0672644
0.0575017
11.5726
7.56718
5.02065
3.38344
2.32103
1.62326
1.15828
0.843155
0.625691
0.472849
0.363484
0.283853
0.224905
0.180587
0.146785
0.120661
0.100217
0.0840361
0.071093
0.060638
11.5726
7.56718
5.02065
3.38345
2.32103
1.62326
1.15829
0.843158
0.625693
0.472852
0.363488
0.283858
0.224911
0.180596
0.146796
0.120673
0.100232
0.0840525
0.0711094
0.060633
11.6229
7.60535
5.0103
3.34209
2.26848
1.57142
1.11236
0.804589
0.594205
0.447519
0.343213
0.267636
0.211903
0.170125
0.138328
0.113788
0.0946043
0.07943
0.0672931
0.0574993
11.8601
7.76395
4.99734
3.24076
2.14419
1.45499
1.0141
0.725632
0.532153
0.399146
0.305541
0.238217
0.188819
0.151908
0.123864
0.102227
0.0853073
0.0719146
0.0611646
0.0525605
13.6679
8.73671
5.0774
3.05388
1.92223
1.26609
0.869287
0.618628
0.453956
0.34203
0.263645
0.207305
0.165892
0.134831
0.11112
0.0926575
0.0781277
0.066589
0.057095
0.0497612
45.0226
13.4729
5.73075
3.07323
1.86023
1.227
0.873583
0.649789
0.497027
0.389508
0.311325
0.253025
0.209047
0.17531
0.148965
0.128099
0.111439
0.0980531
0.0873484
0.079322
58.5856
14.5696
6.08947
3.33295
2.08217
1.40266
0.998643
0.740274
0.565889
0.443904
0.355992
0.290887
0.241351
0.202888
0.17295
0.149608
0.131035
0.116064
0.104411
0.0958316
16.5373
9.49238
5.0127
2.8606
1.75746
1.14759
0.786927
0.562044
0.41536
0.315937
0.246318
0.196203
0.159192
0.131211
0.109724
0.0931158
0.0800339
0.0695525
0.0603089
0.0549388
13.6679
8.73671
5.0774
3.05388
1.92223
1.26609
0.869287
0.618628
0.453956
0.34203
0.263645
0.207304
0.165891
0.134831
0.111118
0.0926555
0.0781248
0.0665846
0.0570958
0.049756
12.9054
8.33993
5.07879
3.15547
2.02775
1.3512
0.933538
0.666458
0.489547
0.368598
0.283607
0.222389
0.177329
0.143525
0.117731
0.0977525
0.0820591
0.0695813
0.0595328
0.0512241
12.6882
8.1544
5.07113
3.20039
2.07939
1.39506
0.967835
0.692726
0.509644
0.384024
0.295513
0.231659
0.184606
0.149276
0.122296
0.101399
0.0849817
0.071927
0.061432
0.0529211
12.6882
8.1544
5.07113
3.20039
2.0794
1.39506
0.967837
0.692729
0.509646
0.384027
0.295517
0.231664
0.184612
0.149286
0.122313
0.101415
0.085001
0.0719499
0.0614593
0.0529595
12.9054
8.33993
5.07879
3.15547
2.02775
1.35121
0.933542
0.666463
0.489552
0.368603
0.283614
0.222399
0.177343
0.143547
0.117762
0.0977863
0.082099
0.0696294
0.0595933
0.0513893
13.6679
8.73671
5.07741
3.05388
1.92223
1.26609
0.869289
0.61863
0.453959
0.342034
0.26365
0.207311
0.165902
0.134851
0.11114
0.0926812
0.0781564
0.0666227
0.0571446
0.04976
16.5373
9.49238
5.0127
2.8606
1.75746
1.14759
0.786927
0.562044
0.415359
0.315937
0.246318
0.196203
0.159193
0.131215
0.10972
0.0931152
0.0800348
0.0695541
0.0603116
0.0549441
58.5856
14.5696
6.08947
3.33295
2.08217
1.40266
0.998648
0.740282
0.565899
0.443925
0.356024
0.290936
0.241427
0.203037
0.173167
0.149941
0.13159
0.117072
0.106272
0.0991856
90.5034
12.1248
4.38869
2.46658
1.63315
1.18306
0.902009
0.720657
0.594577
0.50249
0.432657
0.379258
0.33627
0.299815
0.270089
0.24601
0.226399
0.210681
0.200679
0.190945
58.5856
14.5696
6.08947
3.33295
2.08217
1.40267
0.998649
0.740282
0.565899
0.443925
0.356024
0.290937
0.241427
0.203043
0.173167
0.14994
0.13159
0.117075
0.106276
0.0991898
45.0226
13.4729
5.73075
3.07323
1.86023
1.227
0.873583
0.649789
0.497027
0.389509
0.311326
0.253026
0.209049
0.175311
0.148965
0.128099
0.111441
0.0980559
0.0873506
0.0793214
38.7028
13.0541
5.74337
3.08734
1.88067
1.22751
0.869488
0.645399
0.492611
0.384806
0.307062
0.249095
0.205048
0.171086
0.144541
0.12353
0.10671
0.0931131
0.0820625
0.0733729
36.0571
12.8529
5.76645
3.10212
1.89476
1.2267
0.866509
0.643996
0.492268
0.383989
0.305834
0.247971
0.203992
0.170051
0.143484
0.122412
0.1055
0.091788
0.0806594
0.0725528
36.0571
12.8529
5.76645
3.10211
1.89475
1.22669
0.8665
0.643983
0.492251
0.383967
0.305802
0.247929
0.203936
0.169974
0.143377
0.12226
0.105286
0.0914895
0.0802666
0.0721733
38.7028
13.0541
5.74336
3.08733
1.88066
1.22749
0.869464
0.645368
0.492572
0.384755
0.30699
0.249
0.204919
0.17091
0.144291
0.123175
0.106201
0.0923751
0.0810236
0.0723442
45.0226
13.4729
5.73075
3.07322
1.86022
1.22698
0.873561
0.64976
0.49699
0.389445
0.311246
0.25292
0.208906
0.175114
0.14868
0.127688
0.110841
0.0971723
0.0860683
0.077667
58.5856
14.5696
6.08946
3.33295
2.08217
1.40266
0.998642
0.740274
0.565889
0.443903
0.355991
0.290886
0.241351
0.202883
0.17295
0.14961
0.131036
0.116065
0.104412
0.0958335
90.5034
12.1248
4.38869
2.46658
1.63315
1.18306
0.902009
0.720657
0.594578
0.502489
0.432658
0.379254
0.336275
0.299807
0.270091
0.246012
0.2264
0.210681
0.200677
0.190942
0.335124
0.271165
0.222821
0.195454
0.179111
0.168818
0.16105
0.154317
0.148355
0.142941
0.138353
0.134154
0.130186
0.126227
0.12262
0.119179
0.116031
0.113002
0.110197
0.107567
0.10502
0.102621
0.100336
0.0982524
0.0962936
0.0944094
0.0926105
0.0908478
0.0891607
0.0875365
0.0860185
0.0845417
0.0831069
0.0816869
0.080296
0.0791162
0.0779772
0.076829
0.0758461
0.0740169
0.136421
0.113931
0.0979695
0.0862532
0.0782359
0.0724734
0.067915
0.0641154
0.0607893
0.0577901
0.0553536
0.0531445
0.0511832
0.0492657
0.0475074
0.0458589
0.04438
0.0430118
0.0417558
0.0405941
0.039494
0.0384565
0.0374947
0.0366143
0.0358087
0.0350511
0.0343256
0.0336243
0.0329505
0.032298
0.0316749
0.0310769
0.0305073
0.0299593
0.0294251
0.0289183
0.0284489
0.0279967
0.0275709
0.0270745
0.0994337
0.0843682
0.0735423
0.0648981
0.0590868
0.0542952
0.0502898
0.0469495
0.0441361
0.0417455
0.0396571
0.0377838
0.0361882
0.0346167
0.0332001
0.0319333
0.0308015
0.0297802
0.0288189
0.0279232
0.0270854
0.026256
0.0254817
0.0247899
0.024165
0.023584
0.0230235
0.0224837
0.0219698
0.0214764
0.021003
0.0205446
0.0201112
0.0196986
0.0193043
0.0189313
0.0185679
0.0182129
0.0178705
0.0175283
0.0792565
0.0696636
0.0620198
0.0559492
0.0509961
0.0468584
0.0433108
0.0402562
0.0376081
0.0352967
0.0332752
0.0314878
0.0299069
0.028477
0.0271908
0.0260376
0.0249891
0.0240681
0.0231204
0.0222554
0.0214945
0.0207861
0.0201117
0.0194864
0.0189049
0.0183677
0.0178649
0.0173919
0.0169482
0.0165266
0.0161193
0.0157271
0.0153546
0.0150157
0.0146847
0.0143787
0.0140766
0.0137921
0.0135193
0.0132463
0.0681372
0.0613729
0.0555279
0.0505043
0.0461981
0.0425114
0.039333
0.0365735
0.0341504
0.0320132
0.0301198
0.0284383
0.0269506
0.0255868
0.0243627
0.0232644
0.0222635
0.0213452
0.0205096
0.0197327
0.0190664
0.0183653
0.0177037
0.0171074
0.0165656
0.0160593
0.0155941
0.0151558
0.0147502
0.0143668
0.0139991
0.0136462
0.0133141
0.0130063
0.0127
0.0124184
0.0121461
0.0118913
0.0116516
0.0114262
0.0676716
0.0595925
0.0532734
0.0481599
0.0439228
0.0403652
0.0373423
0.0347401
0.0324578
0.0304367
0.0286382
0.0270345
0.0256097
0.0242998
0.023117
0.022045
0.02107
0.0201849
0.0193828
0.0186462
0.0179711
0.0173468
0.01678
0.0162449
0.0156929
0.0151745
0.0147085
0.0142857
0.0139056
0.0135437
0.0132099
0.0128942
0.0125563
0.0122793
0.0119481
0.0117035
0.0114409
0.0112093
0.0109834
0.0107693
0.0723155
0.0612373
0.0538032
0.0483136
0.0439398
0.0403572
0.0373545
0.0347774
0.0325162
0.0305196
0.0287454
0.0271628
0.0257517
0.024456
0.0232828
0.0222169
0.0212461
0.0203625
0.0195579
0.0188324
0.0181673
0.0175555
0.0169777
0.0164553
0.0158994
0.0153907
0.0149382
0.0145224
0.014144
0.013774
0.0134312
0.0131067
0.0127643
0.0124833
0.0121893
0.0119373
0.0116818
0.0114382
0.0112017
0.0109749
0.077004
0.0635096
0.0557532
0.0503404
0.04598
0.0424039
0.0393761
0.0367619
0.0344772
0.0324586
0.0306621
0.0290635
0.0276315
0.0263129
0.0251147
0.024024
0.0230289
0.0221301
0.021306
0.0205514
0.0198636
0.0192231
0.018584
0.0179916
0.0174665
0.0169666
0.0165074
0.0160714
0.0156496
0.0152314
0.0148494
0.0145035
0.0141905
0.013884
0.0135879
0.0132981
0.0130091
0.0127344
0.0124706
0.0122157
0.0787066
0.0700371
0.0625198
0.0565805
0.0519111
0.0481001
0.044933
0.0422384
0.0398826
0.0378051
0.0359523
0.0343461
0.0328867
0.0315193
0.03026
0.0290813
0.0278911
0.0268684
0.0259261
0.0250749
0.0242687
0.0235293
0.0228336
0.0221605
0.0215581
0.0209796
0.0204491
0.0199485
0.0194873
0.0190486
0.0186375
0.0182437
0.0178757
0.0175224
0.0171808
0.0168328
0.0164921
0.0161777
0.0158831
0.0155765
0.114818
0.0985919
0.0856792
0.0766846
0.0704546
0.0659274
0.0623256
0.0592943
0.0564727
0.0539943
0.0518309
0.0500312
0.0483247
0.0464
0.0446619
0.0430716
0.0415767
0.0401996
0.0389192
0.0377417
0.0366389
0.0356193
0.0346926
0.0338395
0.0330637
0.0323255
0.0316285
0.0309657
0.0303431
0.0297425
0.0291773
0.0286423
0.0281362
0.0276461
0.0271737
0.0266901
0.0262535
0.0258446
0.0254855
0.0250425
0.335008
0.271113
0.222664
0.195297
0.17897
0.168376
0.160342
0.153598
0.147569
0.142342
0.137783
0.133822
0.129956
0.126076
0.122488
0.119117
0.11598
0.112988
0.1102
0.10756
0.105045
0.102619
0.100366
0.0982599
0.0963224
0.0944169
0.092616
0.0908415
0.0891454
0.0875161
0.085998
0.0845223
0.0830923
0.0816807
0.0803258
0.0790571
0.07789
0.0767092
0.0757019
0.0737746
0.114813
0.098682
0.0858088
0.0767707
0.0706181
0.0662291
0.0627229
0.0596605
0.0568851
0.0543115
0.0521563
0.0502093
0.0484565
0.0464886
0.0447511
0.0431116
0.0416218
0.0402164
0.0389316
0.0377511
0.0366374
0.0356171
0.0346866
0.0338356
0.0330579
0.0323226
0.0316294
0.0309708
0.0303525
0.0297551
0.0291926
0.0286588
0.0281541
0.0276599
0.0271656
0.0267007
0.0262935
0.0259071
0.0255577
0.0251307
0.055855
0.0498469
0.0437505
0.0394298
0.0354843
0.0330086
0.0307319
0.0287976
0.0270403
0.0254284
0.0240245
0.0229004
0.0216076
0.020745
0.0197103
0.0189289
0.0180711
0.017385
0.0166981
0.0161065
0.0155286
0.0149493
0.014501
0.0139959
0.0136168
0.0132536
0.0128717
0.0125186
0.012139
0.01177
0.0115187
0.0111972
0.0108669
0.0105333
0.0103224
0.0100389
0.00969661
0.00940645
0.00915311
0.0088807
0.0483356
0.041635
0.0363526
0.0317692
0.0287807
0.0262375
0.0240612
0.0221926
0.0205896
0.0192035
0.01793
0.0169327
0.0156455
0.0150116
0.014029
0.0134968
0.0126948
0.0122495
0.0116127
0.0112053
0.010766
0.0102666
0.00994785
0.00951125
0.00926905
0.00893767
0.00863376
0.00840998
0.0080789
0.00790579
0.00773269
0.00754498
0.00723997
0.00707429
0.00685952
0.00682729
0.00662444
0.00641386
0.00612833
0.00590086
0.0465311
0.0404272
0.0353781
0.03117
0.0275185
0.0246088
0.0224598
0.0205678
0.0189169
0.0174735
0.0162031
0.0150798
0.0140533
0.0131872
0.0124008
0.0116983
0.0110733
0.0105049
0.0100226
0.00948341
0.00913903
0.00861038
0.00832031
0.00791552
0.00770903
0.00735521
0.00717471
0.00686389
0.00666232
0.00645799
0.00632611
0.00619556
0.00593336
0.00581795
0.00561726
0.00563204
0.00547659
0.00533384
0.00506431
0.00492272
0.0467448
0.0405367
0.0355137
0.0313635
0.0278476
0.0247374
0.0221831
0.0200605
0.0183852
0.0169053
0.0156007
0.0144442
0.013398
0.0125054
0.011705
0.0109875
0.0103442
0.00976594
0.00924529
0.00877324
0.00834924
0.00796306
0.00761878
0.00731678
0.00700358
0.00674446
0.00645683
0.00623431
0.00602098
0.00582898
0.00566431
0.00555045
0.00533834
0.00522953
0.00504375
0.00506158
0.00491981
0.00479533
0.00455683
0.00441734
0.0468213
0.0406945
0.0356615
0.0314647
0.0279378
0.0248401
0.0221649
0.0198986
0.0181428
0.0166678
0.0153551
0.0141856
0.013129
0.0122192
0.0114052
0.0106781
0.010028
0.00944565
0.00892276
0.00845227
0.00802841
0.00764682
0.00731197
0.00702139
0.00671786
0.0064446
0.00617924
0.0059546
0.00574246
0.00556056
0.00541497
0.00527224
0.00511493
0.00499139
0.0048046
0.00481674
0.00468679
0.00450188
0.00439504
0.00414307
0.0465099
0.0407017
0.0356164
0.0313201
0.0277161
0.0245457
0.0218286
0.019651
0.0180013
0.0165321
0.0152277
0.0140727
0.0130394
0.0121424
0.0113416
0.0106261
0.00998698
0.0094136
0.00889868
0.00843466
0.00801623
0.00763838
0.00730504
0.00702523
0.00672316
0.0064778
0.00616381
0.00597594
0.00570343
0.0055649
0.00542146
0.00528211
0.00506874
0.00494592
0.00475125
0.00478478
0.00464411
0.00445657
0.00434441
0.00407074
0.0457556
0.0409824
0.0355441
0.0310483
0.0272839
0.0240496
0.0217197
0.01986
0.0182263
0.0167945
0.0155386
0.0144285
0.0134395
0.012579
0.011804
0.0111038
0.0104773
0.00990053
0.00938902
0.00891908
0.00850036
0.00812021
0.00774611
0.00751847
0.0070925
0.00689172
0.00654773
0.00638832
0.00606564
0.00595188
0.00579856
0.00565048
0.00536076
0.00523206
0.00501376
0.00486355
0.00492014
0.00473352
0.00457443
0.00423302
0.046472
0.0419901
0.0362861
0.0314167
0.0280827
0.0255443
0.0233659
0.0214883
0.0198545
0.0184266
0.0171797
0.0160573
0.0150893
0.0142279
0.013445
0.012669
0.01212
0.0113437
0.0109285
0.0103053
0.00996606
0.00943201
0.00913019
0.00869849
0.00839211
0.00817817
0.00780275
0.00761772
0.00727942
0.0071018
0.00691603
0.00673175
0.00640659
0.00625386
0.00600636
0.00583232
0.00582722
0.00557305
0.00537161
0.00502895
0.0558803
0.0497814
0.0437312
0.039346
0.0360042
0.0331804
0.0309056
0.0289137
0.0271412
0.0254885
0.0241185
0.022809
0.0216844
0.0207627
0.0197645
0.0189276
0.0181071
0.0173959
0.0167128
0.0161227
0.0155229
0.0149728
0.014496
0.0140174
0.0135958
0.0132763
0.0128772
0.0125306
0.0121491
0.0117738
0.0115226
0.0112
0.0108673
0.0105678
0.0102978
0.00999936
0.00983413
0.0095184
0.00915919
0.00884291
0.136387
0.113916
0.0978758
0.0862176
0.0781317
0.0722312
0.0676026
0.0638004
0.0604145
0.0575222
0.0550381
0.0529659
0.0510527
0.049175
0.0474367
0.045817
0.0443536
0.042996
0.0417584
0.0405909
0.0395071
0.0384668
0.0375096
0.0366239
0.0358188
0.0350601
0.0343316
0.0336289
0.0329532
0.0322991
0.031676
0.0310788
0.0305101
0.0299642
0.0294427
0.028924
0.0284451
0.0279832
0.0275469
0.0270343
0.0787277
0.0701208
0.0626204
0.0566189
0.0520026
0.0482198
0.0450628
0.042367
0.0400128
0.0379204
0.0360551
0.03439
0.0329404
0.0315533
0.0302924
0.0290888
0.0279153
0.0268647
0.0259365
0.0250794
0.0242679
0.0235304
0.022824
0.0221597
0.0215532
0.0209788
0.0204501
0.0199522
0.0194935
0.0190573
0.0186492
0.0182583
0.0178928
0.0175414
0.0172004
0.0168465
0.0165072
0.0162022
0.0159217
0.0156276
0.0464551
0.0419604
0.0363015
0.0312943
0.0280373
0.0255191
0.0233455
0.0214746
0.0198459
0.0184246
0.0171827
0.0161165
0.0150493
0.0142717
0.0133748
0.0127982
0.0119334
0.0114802
0.0107876
0.0103735
0.0099566
0.00945376
0.00914664
0.0086751
0.00842956
0.00814839
0.00781132
0.00761982
0.00727922
0.00709895
0.00690999
0.00672746
0.00640365
0.0062519
0.0060351
0.00597082
0.00573511
0.00548198
0.00523379
0.00504527
0.0452535
0.0394686
0.0344189
0.0300792
0.02655
0.0236421
0.0212142
0.0191692
0.0174283
0.015933
0.0146322
0.0135087
0.0124683
0.0116033
0.0108077
0.0101179
0.00942291
0.00881429
0.00833098
0.00793955
0.00754278
0.00714563
0.0068193
0.00648114
0.00616522
0.00594
0.00565343
0.00549024
0.00520387
0.00510757
0.00499039
0.00485478
0.0046087
0.00449568
0.00431381
0.00434415
0.00421434
0.00410065
0.00385196
0.00371814
0.0476439
0.0413071
0.0360076
0.0315685
0.0278257
0.0246744
0.0220338
0.0197877
0.0178642
0.016206
0.0147681
0.0135133
0.0124072
0.0114393
0.0105805
0.00981732
0.00913422
0.00851546
0.00796928
0.0074795
0.00704329
0.00664674
0.00620955
0.00592452
0.00567433
0.00542357
0.00522578
0.00493258
0.00474476
0.00457372
0.00446096
0.00434374
0.00418465
0.00407684
0.00390096
0.00392919
0.00381327
0.00370531
0.00355235
0.00342161
0.0498793
0.0431252
0.037551
0.0329048
0.0289979
0.0256839
0.0228654
0.0204595
0.0184112
0.0166492
0.0151211
0.0137878
0.0126228
0.0115971
0.0106908
0.00988689
0.00917127
0.00853125
0.00795809
0.00744332
0.00698025
0.00656743
0.00616589
0.00585511
0.0055412
0.00522043
0.00497014
0.0047835
0.00461312
0.00448656
0.00433687
0.00419679
0.0040632
0.0039529
0.00381135
0.00382998
0.00370974
0.00359054
0.00347437
0.00336105
0.0507644
0.0438968
0.0382024
0.0334496
0.0294544
0.0260683
0.0231789
0.020705
0.0185954
0.0167887
0.0152274
0.0138673
0.0126811
0.0116372
0.0107155
0.00989883
0.00917234
0.00852317
0.00794219
0.0074219
0.00695374
0.00653671
0.00613808
0.00582907
0.00551285
0.00521518
0.00496316
0.00470984
0.00450897
0.00443873
0.00429627
0.00415904
0.00402544
0.00391094
0.00378945
0.00380502
0.00368462
0.00356463
0.00344762
0.00332997
0.0499336
0.0432651
0.0376641
0.0329572
0.0289913
0.02563
0.022773
0.0203442
0.0182801
0.0165084
0.0149789
0.0136502
0.0124915
0.0114752
0.0105772
0.00978141
0.00907301
0.00843995
0.00787335
0.00736609
0.0069078
0.00649969
0.00610719
0.00579808
0.00548411
0.00520553
0.00492282
0.00471426
0.00454016
0.00444955
0.0043033
0.00416429