/*--------------------------------*- C++ -*----------------------------------*\
| =========                 |                                                 |
| \\      /  F ield         | OpenFOAM: The Open Source CFD Toolbox           |
|  \\    /   O peration     | Version:  2212                                  |
|   \\  /    A nd           | Website:  www.openfoam.com                      |
|    \\/     M anipulation  |                                                 |
\*---------------------------------------------------------------------------*/
FoamFile
{
    version     2.0;
    format      ascii;
    arch        "LSB;label=32;scalar=64";
    class       volScalarField;
    location    "2.05";
    object      k;
}
// * * * * * * * * * * * * * * * * * * * * * * * * * * * * * * * * * * * * * //

dimensions      [0 2 -2 0 0 0 0];

internalField   nonuniform List<scalar> 
6840
(
0.213564
0.055916
0.0283994
0.0193412
0.0146927
0.0118511
0.00989068
0.00851605
0.00749133
0.00669636
0.00606064
0.00555114
0.00512338
0.00474619
0.00442723
0.00416034
0.00393674
0.00375332
0.00363631
0.00352141
0.264759
0.104702
0.0585298
0.039163
0.0286199
0.0219934
0.017536
0.0143633
0.0120082
0.0102137
0.00881631
0.0077057
0.00680402
0.00606053
0.00544875
0.00494704
0.00452914
0.00417825
0.00389631
0.00368484
0.283364
0.126774
0.0717019
0.0473281
0.0338662
0.0256615
0.0204606
0.0167968
0.0140482
0.0119405
0.0102832
0.00895462
0.00788302
0.00700823
0.00628393
0.00567769
0.00516678
0.00473314
0.00436574
0.00407693
0.292299
0.141633
0.0819301
0.0541653
0.0389229
0.0292872
0.023272
0.0190782
0.0159335
0.0135141
0.0116256
0.0101111
0.0088794
0.00786749
0.00702777
0.00632412
0.00572874
0.00521984
0.00478274
0.00443553
0.295943
0.148782
0.0871941
0.0576749
0.0415193
0.0310721
0.0246449
0.0202207
0.0169046
0.0143244
0.0123075
0.0107011
0.00939438
0.00831996
0.00742748
0.00667875
0.00604494
0.00550395
0.00504293
0.00469383
0.295943
0.148782
0.0871941
0.0576749
0.0415194
0.0310722
0.0246451
0.020221
0.016905
0.0143249
0.0123084
0.0107023
0.00939613
0.00832253
0.00743129
0.00668442
0.00605338
0.00551643
0.00506084
0.00471871
0.292299
0.141633
0.0819302
0.0541654
0.0389231
0.0292875
0.0232724
0.0190788
0.0159344
0.0135153
0.0116274
0.0101136
0.00888314
0.00787302
0.00703592
0.00633632
0.00574719
0.00524793
0.00482415
0.00448038
0.283364
0.126774
0.071702
0.0473282
0.0338663
0.0256617
0.020461
0.0167973
0.0140489
0.0119418
0.0102849
0.0089571
0.00788658
0.00701348
0.00629198
0.00568984
0.00518528
0.00476146
0.00440872
0.00413535
0.264759
0.104702
0.0585298
0.0391631
0.0286199
0.0219935
0.0175361
0.0143634
0.0120084
0.0102141
0.00881684
0.00770657
0.00680545
0.00606348
0.00545327
0.00495423
0.00454155
0.00420157
0.00394014
0.00376466
0.213564
0.055916
0.0283994
0.0193412
0.0146927
0.0118511
0.00989068
0.00851605
0.00749133
0.00669635
0.00606065
0.0055511
0.00512344
0.0047461
0.00442725
0.00416035
0.00393673
0.00375329
0.00363624
0.00352128
0.264759
0.104702
0.0585298
0.0391631
0.0286199
0.0219935
0.0175361
0.0143634
0.0120084
0.0102141
0.00881685
0.00770658
0.00680546
0.00606358
0.00545327
0.00495421
0.00454157
0.00420166
0.0039403
0.00376487
0.311746
0.197541
0.130357
0.0911456
0.0668022
0.0508111
0.0397944
0.0319121
0.0260942
0.0216873
0.0182767
0.0155887
0.0134413
0.0116986
0.0102676
0.00908067
0.00808677
0.0072462
0.00654647
0.00590219
0.31754
0.217754
0.151085
0.108549
0.0807154
0.0618723
0.0486769
0.0391412
0.0320578
0.0266704
0.0224885
0.0191851
0.0165359
0.0143825
0.0126113
0.0111402
0.0099069
0.00886299
0.00797511
0.00720869
0.319723
0.227073
0.162232
0.118772
0.0893608
0.0689924
0.0545301
0.0439838
0.0360989
0.0300735
0.0253804
0.0216628
0.0186743
0.0162405
0.0142354
0.0125658
0.0111622
0.00997129
0.00895124
0.00806506
0.320484
0.23086
0.167176
0.123531
0.0935158
0.0724823
0.0574404
0.0464209
0.0381533
0.0318165
0.0268699
0.0229453
0.0197861
0.0172104
0.0150864
0.0133164
0.0118276
0.010564
0.00948146
0.00853491
0.320484
0.23086
0.167176
0.123531
0.0935159
0.0724825
0.0574407
0.0464213
0.0381539
0.0318174
0.0268712
0.0229471
0.0197887
0.0172142
0.0150917
0.013324
0.0118384
0.0105793
0.00950352
0.00857836
0.319723
0.227073
0.162232
0.118772
0.0893612
0.0689929
0.0545308
0.0439847
0.0361002
0.0300754
0.0253831
0.0216666
0.0186797
0.0162483
0.0142465
0.0125817
0.0111853
0.0100045
0.00899856
0.00814246
0.31754
0.217754
0.151085
0.108549
0.0807156
0.0618727
0.0486774
0.0391419
0.0320589
0.0266719
0.0224906
0.0191881
0.0165402
0.0143886
0.0126202
0.011153
0.00992556
0.00889041
0.00801473
0.00727474
0.311746
0.197541
0.130357
0.0911456
0.0668022
0.050811
0.0397944
0.0319121
0.0260942
0.0216873
0.0182766
0.0155887
0.0134412
0.0116984
0.0102677
0.00908072
0.00808676
0.00724613
0.00654637
0.005902
0.264759
0.104702
0.0585298
0.039163
0.0286199
0.0219934
0.017536
0.0143633
0.0120082
0.0102137
0.0088163
0.00770569
0.00680403
0.00606042
0.00544877
0.00494709
0.00452918
0.00417829
0.00389635
0.00368491
0.283364
0.126774
0.071702
0.0473282
0.0338663
0.0256617
0.020461
0.0167973
0.014049
0.0119418
0.0102849
0.00895712
0.00788661
0.0070135
0.00629198
0.00568986
0.00518533
0.00476154
0.00440884
0.00413551
0.31754
0.217754
0.151085
0.108549
0.0807156
0.0618727
0.0486774
0.0391419
0.0320589
0.0266719
0.0224907
0.0191882
0.0165403
0.0143887
0.0126202
0.0111531
0.00992565
0.00889059
0.00801495
0.00727463
0.322005
0.239026
0.177588
0.133616
0.102323
0.0798668
0.0635104
0.051382
0.0422215
0.0351792
0.0296755
0.0253091
0.0217978
0.0189392
0.0165862
0.0146301
0.0129892
0.0116011
0.010416
0.00937852
0.323293
0.245617
0.187499
0.144536
0.112864
0.0894038
0.0718631
0.0585862
0.0483992
0.0404738
0.0342241
0.0292324
0.0251979
0.0219011
0.0191797
0.0169121
0.0150063
0.0133907
0.0120067
0.0107912
0.323714
0.247819
0.191099
0.14881
0.117249
0.0935707
0.0756572
0.0619604
0.0513625
0.0430609
0.0364788
0.0311989
0.0269169
0.0234084
0.0205063
0.0180842
0.0160459
0.0143158
0.0128298
0.0115088
0.323714
0.247819
0.191099
0.14881
0.117249
0.0935708
0.0756574
0.0619607
0.0513629
0.0430614
0.0364795
0.0311998
0.0269182
0.0234102
0.0205087
0.0180876
0.0160506
0.0143224
0.0128407
0.0115388
0.323293
0.245617
0.187499
0.144537
0.112864
0.089404
0.0718634
0.0585866
0.0483998
0.0404746
0.0342252
0.029234
0.0252001
0.0219041
0.0191839
0.016918
0.0150144
0.0134021
0.0120234
0.0108228
0.322005
0.239026
0.177588
0.133616
0.102323
0.0798668
0.0635104
0.0513819
0.0422215
0.0351792
0.0296755
0.0253091
0.0217977
0.0189391
0.0165862
0.0146301
0.0129892
0.0116011
0.0104159
0.0093787
0.31754
0.217754
0.151085
0.108549
0.0807154
0.0618723
0.0486769
0.0391412
0.0320578
0.0266704
0.0224885
0.0191851
0.0165359
0.0143824
0.0126113
0.0111403
0.00990694
0.00886302
0.00797517
0.0072087
0.283364
0.126774
0.0717019
0.0473281
0.0338662
0.0256615
0.0204606
0.0167968
0.0140482
0.0119405
0.0102832
0.00895462
0.00788302
0.00700822
0.00628396
0.00567772
0.00516683
0.0047332
0.00436584
0.00407707
0.292299
0.141633
0.0819302
0.0541654
0.0389231
0.0292875
0.0232724
0.0190788
0.0159344
0.0135153
0.0116274
0.0101137
0.00888315
0.00787299
0.00703594
0.00633636
0.00574724
0.00524802
0.00482428
0.00448057
0.319723
0.227073
0.162232
0.118772
0.0893612
0.0689929
0.0545308
0.0439847
0.0361002
0.0300754
0.0253831
0.0216666
0.0186798
0.0162483
0.0142465
0.0125818
0.0111854
0.0100047
0.00899879
0.00814274
0.323293
0.245617
0.187499
0.144537
0.112864
0.089404
0.0718634
0.0585866
0.0483998
0.0404746
0.0342252
0.029234
0.0252001
0.0219041
0.0191839
0.016918
0.0150145
0.0134021
0.0120235
0.0108227
0.324288
0.250862
0.19613
0.154888
0.123591
0.09968
0.0812742
0.0669838
0.0557848
0.0469225
0.0398396
0.0341238
0.0294676
0.0256402
0.0224672
0.0198153
0.0175817
0.015685
0.0140572
0.0126275
0.32459
0.252403
0.19891
0.158543
0.12769
0.103871
0.0853201
0.0707499
0.05921
0.0499927
0.0425684
0.0365383
0.0316005
0.0275248
0.024135
0.0212948
0.0188976
0.0168582
0.0151021
0.0135436
0.32459
0.252403
0.19891
0.158543
0.12769
0.103871
0.0853201
0.07075
0.0592101
0.0499929
0.0425686
0.0365386
0.0316008
0.0275253
0.0241357
0.0212956
0.0188987
0.0168597
0.0151047
0.0135489
0.324288
0.250862
0.19613
0.154888
0.123591
0.09968
0.0812741
0.0669838
0.0557848
0.0469224
0.0398396
0.0341238
0.0294676
0.0256402
0.0224672
0.0198153
0.0175816
0.015685
0.0140572
0.0126278
0.323293
0.245617
0.187499
0.144536
0.112864
0.0894037
0.0718631
0.0585862
0.0483992
0.0404738
0.034224
0.0292324
0.0251979
0.0219011
0.0191796
0.0169121
0.0150063
0.0133908
0.0120068
0.0107913
0.319723
0.227073
0.162232
0.118772
0.0893608
0.0689924
0.0545301
0.0439838
0.0360989
0.0300735
0.0253804
0.0216628
0.0186743
0.0162406
0.0142353
0.0125657
0.0111622
0.00997133
0.00895131
0.00806516
0.292299
0.141633
0.0819301
0.0541653
0.0389229
0.0292872
0.023272
0.0190782
0.0159335
0.0135141
0.0116256
0.0101111
0.00887943
0.00786752
0.00702774
0.0063241
0.00572873
0.00521986
0.00478278
0.00443559
0.295943
0.148782
0.0871941
0.0576749
0.0415194
0.0310722
0.0246451
0.020221
0.016905
0.0143249
0.0123084
0.0107023
0.00939614
0.00832253
0.0074313
0.00668444
0.00605341
0.00551647
0.00506089
0.00471882
0.320484
0.23086
0.167176
0.123531
0.0935159
0.0724825
0.0574407
0.0464213
0.0381539
0.0318174
0.0268712
0.0229471
0.0197888
0.0172142
0.0150917
0.013324
0.0118384
0.0105794
0.00950366
0.0085786
0.323714
0.247819
0.191099
0.14881
0.117249
0.0935708
0.0756574
0.0619607
0.0513629
0.0430614
0.0364795
0.0311998
0.0269182
0.0234102
0.0205087
0.0180877
0.0160506
0.0143225
0.0128408
0.0115388
0.32459
0.252403
0.19891
0.158543
0.12769
0.103871
0.0853201
0.07075
0.0592101
0.0499929
0.0425686
0.0365386
0.0316008
0.0275253
0.0241357
0.0212957
0.0188988
0.0168598
0.0151047
0.0135487
0.324844
0.253685
0.20131
0.161836
0.131535
0.107943
0.0893702
0.0746127
0.0627923
0.0532537
0.0455017
0.0391577
0.0339307
0.0295949
0.0259746
0.022932
0.0203578
0.0181631
0.0162682
0.014578
0.324844
0.253685
0.20131
0.161836
0.131535
0.107943
0.0893702
0.0746127
0.0627923
0.0532537
0.0455016
0.0391577
0.0339307
0.0295949
0.0259746
0.022932
0.0203578
0.0181631
0.0162682
0.0145781
0.32459
0.252403
0.19891
0.158543
0.12769
0.103871
0.0853201
0.0707499
0.05921
0.0499927
0.0425684
0.0365383
0.0316005
0.0275248
0.024135
0.0212948
0.0188976
0.0168582
0.0151022
0.0135437
0.323714
0.247819
0.191099
0.14881
0.117249
0.0935707
0.0756572
0.0619604
0.0513625
0.0430609
0.0364788
0.0311989
0.0269169
0.0234084
0.0205062
0.0180842
0.0160459
0.0143158
0.0128299
0.0115088
0.320484
0.23086
0.167176
0.123531
0.0935158
0.0724823
0.0574404
0.0464209
0.0381533
0.0318165
0.0268699
0.0229453
0.0197863
0.0172106
0.0150862
0.0133163
0.0118276
0.010564
0.00948149
0.00853508
0.295943
0.148782
0.0871941
0.0576749
0.0415193
0.0310721
0.0246449
0.0202207
0.0169046
0.0143244
0.0123076
0.0107011
0.00939444
0.00832005
0.00742737
0.00667866
0.00604487
0.00550389
0.00504291
0.00469386
0.295943
0.148782
0.0871941
0.0576749
0.0415193
0.0310721
0.0246449
0.0202207
0.0169046
0.0143244
0.0123075
0.0107011
0.00939438
0.00831996
0.00742749
0.00667875
0.00604494
0.00550394
0.00504291
0.0046938
0.320484
0.23086
0.167176
0.123531
0.0935158
0.0724823
0.0574404
0.0464209
0.0381533
0.0318165
0.0268699
0.0229453
0.0197862
0.0172104
0.0150864
0.0133164
0.0118276
0.010564
0.00948144
0.00853487
0.323714
0.247819
0.191099
0.14881
0.117249
0.0935707
0.0756572
0.0619604
0.0513625
0.0430609
0.0364788
0.0311989
0.0269169
0.0234084
0.0205063
0.0180842
0.0160459
0.0143158
0.0128298
0.0115086
0.32459
0.252403
0.19891
0.158543
0.12769
0.103871
0.0853201
0.0707499
0.05921
0.0499927
0.0425684
0.0365383
0.0316005
0.0275248
0.0241351
0.0212948
0.0188976
0.0168582
0.0151021
0.0135435
0.324844
0.253685
0.20131
0.161836
0.131535
0.107943
0.0893702
0.0746127
0.0627923
0.0532537
0.0455017
0.0391577
0.0339307
0.0295949
0.0259746
0.022932
0.0203578
0.0181631
0.0162681
0.014578
0.324844
0.253685
0.20131
0.161836
0.131535
0.107943
0.0893702
0.0746127
0.0627923
0.0532537
0.0455017
0.0391577
0.0339307
0.0295949
0.0259746
0.022932
0.0203578
0.0181631
0.0162681
0.014578
0.32459
0.252403
0.19891
0.158543
0.12769
0.103871
0.0853201
0.07075
0.0592101
0.0499929
0.0425686
0.0365386
0.0316008
0.0275253
0.0241357
0.0212957
0.0188988
0.0168598
0.0151047
0.0135489
0.323714
0.247819
0.191099
0.14881
0.117249
0.0935708
0.0756574
0.0619607
0.0513629
0.0430614
0.0364795
0.0311998
0.0269182
0.0234102
0.0205087
0.0180876
0.0160506
0.0143225
0.0128409
0.0115389
0.320484
0.23086
0.167176
0.123531
0.0935159
0.0724825
0.0574407
0.0464213
0.0381539
0.0318174
0.0268712
0.0229471
0.0197888
0.0172143
0.0150916
0.0133239
0.0118383
0.0105793
0.0095036
0.00857849
0.295943
0.148782
0.0871941
0.0576749
0.0415194
0.0310722
0.0246451
0.020221
0.016905
0.0143249
0.0123084
0.0107023
0.00939618
0.00832261
0.0074312
0.00668433
0.0060533
0.00551636
0.00506078
0.00471867
0.292299
0.141633
0.0819301
0.0541653
0.0389229
0.0292872
0.023272
0.0190782
0.0159335
0.0135142
0.0116256
0.0101111
0.0088794
0.00786748
0.00702777
0.00632411
0.00572871
0.00521979
0.00478266
0.00443539
0.319723
0.227073
0.162232
0.118772
0.0893608
0.0689924
0.0545301
0.0439838
0.0360989
0.0300735
0.0253804
0.0216628
0.0186743
0.0162405
0.0142354
0.0125657
0.0111621
0.00997117
0.00895104
0.00806466
0.323293
0.245617
0.187499
0.144536
0.112864
0.0894038
0.0718631
0.0585862
0.0483992
0.0404738
0.0342241
0.0292324
0.0251979
0.0219011
0.0191796
0.0169121
0.0150062
0.0133906
0.0120066
0.0107909
0.324288
0.250862
0.19613
0.154888
0.123591
0.09968
0.0812742
0.0669838
0.0557848
0.0469225
0.0398396
0.0341238
0.0294676
0.0256402
0.0224672
0.0198153
0.0175816
0.015685
0.0140571
0.0126275
0.32459
0.252403
0.19891
0.158543
0.12769
0.103871
0.0853201
0.07075
0.0592101
0.0499929
0.0425686
0.0365386
0.0316008
0.0275253
0.0241357
0.0212957
0.0188988
0.0168598
0.0151047
0.0135488
0.32459
0.252403
0.19891
0.158543
0.12769
0.103871
0.0853201
0.0707499
0.05921
0.0499927
0.0425684
0.0365383
0.0316005
0.0275248
0.0241351
0.0212948
0.0188976
0.0168582
0.0151022
0.0135436
0.324288
0.250862
0.19613
0.154888
0.123591
0.09968
0.0812742
0.0669838
0.0557848
0.0469224
0.0398396
0.0341238
0.0294676
0.0256402
0.0224672
0.0198153
0.0175817
0.015685
0.0140572
0.0126276
0.323293
0.245617
0.187499
0.144537
0.112864
0.089404
0.0718634
0.0585866
0.0483998
0.0404746
0.0342252
0.029234
0.0252001
0.0219041
0.0191839
0.016918
0.0150145
0.0134021
0.0120235
0.0108227
0.319723
0.227073
0.162232
0.118772
0.0893611
0.0689929
0.0545308
0.0439847
0.0361002
0.0300754
0.0253831
0.0216666
0.0186797
0.0162483
0.0142464
0.0125817
0.0111853
0.0100045
0.00899862
0.00814245
0.292299
0.141633
0.0819302
0.0541654
0.0389231
0.0292875
0.0232724
0.0190788
0.0159344
0.0135153
0.0116274
0.0101136
0.00888315
0.00787302
0.0070359
0.0063363
0.00574716
0.00524791
0.00482413
0.00448036
0.283364
0.126774
0.0717019
0.0473281
0.0338662
0.0256615
0.0204606
0.0167968
0.0140482
0.0119405
0.0102832
0.00895462
0.00788301
0.00700822
0.00628393
0.00567766
0.00516674
0.00473306
0.00436563
0.00407668
0.31754
0.217754
0.151085
0.108549
0.0807154
0.0618723
0.0486769
0.0391412
0.0320579
0.0266704
0.0224885
0.0191851
0.0165359
0.0143825
0.0126112
0.0111402
0.0099068
0.00886279
0.00797487
0.00720822
0.322005
0.239026
0.177588
0.133616
0.102323
0.0798668
0.0635104
0.051382
0.0422215
0.0351792
0.0296755
0.0253091
0.0217978
0.0189392
0.0165862
0.01463
0.0129891
0.011601
0.0104158
0.00937836
0.323293
0.245617
0.187499
0.144537
0.112864
0.089404
0.0718634
0.0585866
0.0483998
0.0404746
0.0342252
0.029234
0.0252001
0.0219041
0.0191838
0.016918
0.0150144
0.0134021
0.0120235
0.0108229
0.323714
0.247819
0.191099
0.14881
0.117249
0.0935708
0.0756574
0.0619607
0.0513629
0.0430614
0.0364795
0.0311999
0.0269182
0.0234102
0.0205088
0.0180877
0.0160506
0.0143225
0.0128409
0.011539
0.323714
0.247819
0.191099
0.14881
0.117249
0.0935707
0.0756572
0.0619604
0.0513625
0.0430609
0.0364788
0.0311989
0.0269169
0.0234084
0.0205063
0.0180843
0.0160459
0.0143159
0.0128299
0.0115089
0.323293
0.245617
0.187499
0.144536
0.112864
0.0894038
0.0718631
0.0585862
0.0483992
0.0404738
0.0342241
0.0292324
0.0251979
0.0219011
0.0191797
0.0169121
0.0150063
0.0133908
0.0120067
0.0107912
0.322005
0.239026
0.177588
0.133616
0.102323
0.0798668
0.0635104
0.051382
0.0422215
0.0351792
0.0296755
0.0253091
0.0217977
0.0189391
0.0165862
0.0146301
0.0129892
0.0116011
0.0104159
0.00937841
0.31754
0.217754
0.151085
0.108549
0.0807156
0.0618727
0.0486774
0.0391419
0.0320589
0.0266719
0.0224906
0.0191882
0.0165402
0.0143886
0.0126202
0.0111531
0.00992558
0.00889043
0.00801481
0.00727434
0.283364
0.126774
0.071702
0.0473282
0.0338663
0.0256617
0.020461
0.0167973
0.014049
0.0119418
0.0102849
0.00895711
0.00788659
0.00701348
0.00629198
0.00568984
0.00518529
0.00476147
0.00440875
0.00413536
0.264759
0.104702
0.0585298
0.039163
0.0286199
0.0219934
0.017536
0.0143633
0.0120082
0.0102137
0.00881632
0.0077057
0.00680403
0.00606053
0.00544875
0.00494702
0.0045291
0.00417818
0.0038962
0.00368465
0.311746
0.197541
0.130357
0.0911456
0.0668022
0.0508111
0.0397944
0.0319121
0.0260942
0.0216873
0.0182767
0.0155887
0.0134413
0.0116986
0.0102676
0.00908064
0.00808671
0.0072461
0.00654636
0.00590194
0.31754
0.217754
0.151085
0.108549
0.0807156
0.0618727
0.0486775
0.0391419
0.0320589
0.0266719
0.0224907
0.0191882
0.0165403
0.0143887
0.0126202
0.0111531
0.00992563
0.00889057
0.00801493
0.00727458
0.319723
0.227073
0.162232
0.118772
0.0893612
0.0689929
0.0545308
0.0439847
0.0361002
0.0300754
0.0253831
0.0216666
0.0186798
0.0162483
0.0142465
0.0125818
0.0111854
0.0100047
0.00899886
0.00814286
0.320484
0.23086
0.167176
0.123531
0.0935159
0.0724825
0.0574407
0.0464213
0.0381539
0.0318174
0.0268712
0.0229471
0.0197888
0.0172142
0.0150918
0.0133241
0.0118385
0.0105795
0.00950377
0.00857871
0.320484
0.23086
0.167176
0.123531
0.0935158
0.0724823
0.0574404
0.0464209
0.0381533
0.0318165
0.0268699
0.0229453
0.0197862
0.0172105
0.0150864
0.0133164
0.0118277
0.0105641
0.00948152
0.00853499
0.319723
0.227073
0.162232
0.118772
0.0893608
0.0689924
0.0545301
0.0439838
0.0360989
0.0300735
0.0253804
0.0216628
0.0186743
0.0162406
0.0142353
0.0125658
0.0111622
0.00997126
0.00895117
0.00806489
0.31754
0.217754
0.151085
0.108549
0.0807154
0.0618723
0.0486769
0.0391412
0.0320579
0.0266704
0.0224885
0.0191851
0.0165359
0.0143824
0.0126113
0.0111402
0.00990689
0.0088629
0.00797504
0.00720841
0.311746
0.197541
0.130357
0.0911456
0.0668022
0.050811
0.0397944
0.0319121
0.0260942
0.0216873
0.0182766
0.0155887
0.0134412
0.0116984
0.0102677
0.00908072
0.00808676
0.00724611
0.00654639
0.00590186
0.264759
0.104702
0.0585298
0.0391631
0.0286199
0.0219935
0.0175361
0.0143634
0.0120084
0.0102141
0.00881685
0.00770658
0.00680547
0.00606348
0.00545328
0.00495424
0.00454157
0.00420161
0.00394019
0.00376471
0.213564
0.055916
0.0283994
0.0193412
0.0146927
0.0118511
0.00989069
0.00851605
0.00749133
0.00669636
0.00606064
0.00555114
0.00512339
0.00474619
0.00442723
0.00416034
0.00393672
0.00375329
0.00363622
0.00352132
0.264759
0.104702
0.0585298
0.0391631
0.0286199
0.0219935
0.0175361
0.0143634
0.0120084
0.0102141
0.00881686
0.00770659
0.00680547
0.0060636
0.00545327
0.00495422
0.00454158
0.00420168
0.00394031
0.00376483
0.283364
0.126774
0.071702
0.0473282
0.0338663
0.0256617
0.020461
0.0167973
0.014049
0.0119418
0.0102849
0.00895713
0.00788663
0.00701352
0.006292
0.00568988
0.00518536
0.00476157
0.00440885
0.00413539
0.292299
0.141633
0.0819302
0.0541654
0.0389231
0.0292875
0.0232724
0.0190788
0.0159344
0.0135153
0.0116274
0.0101137
0.00888316
0.007873
0.00703596
0.00633638
0.00574727
0.00524805
0.00482431
0.00448054
0.295943
0.148782
0.0871941
0.0576749
0.0415194
0.0310722
0.0246451
0.020221
0.016905
0.0143249
0.0123084
0.0107023
0.00939615
0.00832254
0.00743132
0.00668446
0.00605343
0.00551648
0.0050609
0.00471881
0.295943
0.148782
0.0871941
0.0576749
0.0415193
0.0310721
0.0246449
0.0202207
0.0169046
0.0143244
0.0123075
0.0107011
0.00939439
0.00831997
0.00742751
0.00667876
0.00604494
0.00550393
0.0050429
0.00469373
0.292299
0.141633
0.0819301
0.0541653
0.0389229
0.0292872
0.023272
0.0190782
0.0159335
0.0135141
0.0116256
0.0101111
0.00887942
0.00786752
0.00702774
0.00632409
0.0057287
0.00521978
0.00478263
0.00443532
0.283364
0.126774
0.0717019
0.0473281
0.0338662
0.0256615
0.0204606
0.0167968
0.0140482
0.0119405
0.0102832
0.00895462
0.00788301
0.00700821
0.00628394
0.00567769
0.00516677
0.0047331
0.00436569
0.00407679
0.264759
0.104702
0.0585298
0.039163
0.0286199
0.0219934
0.017536
0.0143633
0.0120082
0.0102137
0.00881631
0.0077057
0.00680403
0.00606042
0.00544876
0.00494707
0.00452914
0.00417822
0.00389623
0.00368469
0.213564
0.055916
0.0283994
0.0193412
0.0146927
0.0118511
0.00989068
0.00851605
0.00749133
0.00669636
0.00606065
0.0055511
0.00512344
0.00474611
0.00442725
0.00416035
0.00393673
0.00375328
0.00363619
0.00352126
0.00458388
0.0039669
0.00346667
0.00316699
0.00298206
0.00286312
0.00277147
0.0026924
0.00262157
0.00255757
0.00250283
0.00245214
0.0024041
0.00235545
0.00231053
0.00226724
0.00222718
0.00218826
0.00215186
0.00211743
0.00208385
0.00205191
0.00202127
0.00199312
0.00196652
0.00194077
0.00191604
0.00189167
0.00186821
0.00184551
0.00182418
0.00180335
0.00178302
0.00176283
0.00174305
0.00172611
0.00170982
0.00169334
0.0016792
0.00165242
0.00415503
0.00367572
0.003321
0.00304637
0.00285092
0.00270709
0.00259102
0.00249282
0.00240475
0.00232538
0.00225972
0.00219922
0.00214553
0.00209203
0.00204226
0.00199491
0.00195187
0.00191156
0.00187415
0.00183918
0.00180576
0.00177395
0.0017442
0.00171673
0.00169144
0.00166749
0.00164441
0.00162194
0.00160022
0.00157905
0.00155872
0.00153908
0.00152029
0.00150211
0.00148434
0.00146741
0.00145167
0.00143644
0.00142207
0.00140516
0.00429358
0.00384829
0.0035158
0.00323119
0.00303425
0.00286828
0.00272511
0.00260276
0.00249774
0.00240641
0.0023257
0.00225195
0.00218842
0.00212464
0.00206649
0.0020137
0.00196589
0.00192225
0.00188071
0.00184156
0.00180455
0.00176756
0.00173264
0.00170113
0.00167244
0.00164556
0.0016194
0.00159402
0.00156965
0.00154608
0.0015233
0.00150106
0.00147995
0.00145963
0.00144015
0.00142159
0.00140347
0.0013855
0.00136816
0.0013508
0.00423995
0.00389853
0.00361126
0.00337293
0.0031717
0.0029981
0.00284513
0.00271004
0.00259013
0.00248312
0.00238767
0.00230165
0.00222437
0.0021531
0.00208789
0.00202854
0.00197378
0.00192516
0.00187436
0.00182734
0.00178547
0.00174614
0.00170822
0.00167265
0.00163925
0.00160807
0.00157863
0.00155066
0.0015242
0.00149882
0.0014742
0.00144986
0.00142752
0.00140571
0.00138578
0.00136578
0.00134723
0.00132887
0.00131149
0.00129387
0.00414728
0.00386882
0.00361932
0.0033983
0.00320306
0.00303105
0.00287869
0.00274301
0.00262099
0.00251092
0.00241131
0.00232109
0.00223984
0.00216387
0.00209443
0.00203124
0.00197276
0.00191828
0.00186802
0.00182067
0.00177944
0.00173595
0.00169399
0.00165572
0.00162062
0.00158745
0.00155668
0.00152738
0.00150002
0.00147392
0.00144865
0.00142414
0.00140138
0.00137881
0.00135823
0.00133734
0.00131814
0.00129967
0.00128225
0.00126577
0.00426475
0.00390506
0.00361756
0.00337892
0.00317621
0.00300173
0.00284984
0.002716
0.00259596
0.00248733
0.00238867
0.00229898
0.00221786
0.0021419
0.00207212
0.00200782
0.00194839
0.00189356
0.00184324
0.0017964
0.0017529
0.00171218
0.00167469
0.00163904
0.00160175
0.00156627
0.00153403
0.00150447
0.00147766
0.00145187
0.00142798
0.0014046
0.00138223
0.00135687
0.00133836
0.00131635
0.00129831
0.0012804
0.00126313
0.00124676
0.00433352
0.00387486
0.00355094
0.00330437
0.00310154
0.00293049
0.00278326
0.00265378
0.00253756
0.00243272
0.0023377
0.00225138
0.00217307
0.00209988
0.00203249
0.00197026
0.00191267
0.00185946
0.0018103
0.00176536
0.00172365
0.00168483
0.0016477
0.00161383
0.00157729
0.00154342
0.00151299
0.00148474
0.00145883
0.00143323
0.00140942
0.00138582
0.001364
0.00134058
0.00132193
0.00130297
0.00128453
0.00126674
0.00124935
0.00123263
0.00415672
0.00366718
0.00336499
0.00314546
0.00296185
0.00280628
0.00267086
0.00255107
0.00244408
0.00234774
0.00226043
0.00218147
0.00210965
0.00204238
0.00198028
0.00192286
0.00186963
0.00182092
0.0017756
0.00173356
0.00169471
0.0016582
0.00162127
0.00158662
0.00155557
0.00152571
0.00149802
0.00147148
0.00144564
0.00141974
0.00139586
0.0013741
0.00135432
0.00133478
0.00131583
0.00129719
0.00127853
0.00126066
0.00124343
0.0012267
0.00367327
0.00340144
0.00315593
0.00295216
0.00278556
0.00264587
0.00252715
0.00242424
0.00233271
0.00225087
0.00217687
0.00211181
0.00205208
0.00199539
0.00194235
0.00189205
0.00184043
0.00179537
0.00175329
0.0017148
0.00167789
0.00164368
0.00161113
0.00157928
0.00155049
0.00152258
0.00149676
0.0014722
0.0014494
0.00142755
0.00140695
0.00138709
0.00136844
0.00135044
0.00133293
0.00131507
0.00129755
0.00128129
0.00126599
0.00124995
0.00372585
0.00335563
0.00304671
0.0028216
0.00266098
0.00254227
0.0024465
0.00236556
0.00228837
0.00222125
0.00216187
0.00211167
0.00206414
0.00200967
0.00195959
0.00191313
0.00186885
0.00182749
0.00178858
0.00175233
0.00171805
0.00168602
0.00165658
0.00162921
0.00160417
0.00158016
0.00155734
0.0015355
0.00151485
0.00149481
0.00147586
0.00145783
0.0014407
0.00142405
0.00140797
0.00139152
0.0013766
0.00136263
0.00135037
0.00133503
0.00458287
0.0039665
0.00346515
0.00316522
0.00298045
0.00285803
0.00276382
0.00268442
0.00261247
0.00255036
0.00249565
0.00244779
0.00240083
0.00235315
0.00230849
0.00226609
0.00222622
0.00218781
0.00215171
0.0021172
0.0020841
0.00205185
0.00202166
0.00199323
0.00196693
0.00194089
0.00191613
0.00189159
0.00186801
0.00184522
0.00182388
0.00180304
0.00178276
0.00176266
0.00174333
0.0017252
0.00170845
0.00169148
0.00167698
0.00164873
0.00372549
0.00335751
0.00304969
0.00282387
0.00266442
0.00254945
0.00245583
0.00237464
0.00229922
0.00222994
0.00217114
0.00211714
0.00206843
0.00201276
0.00196267
0.0019148
0.00187064
0.00182838
0.00178924
0.00175286
0.00171816
0.00168602
0.00165641
0.00162909
0.00160397
0.00158006
0.00155736
0.00153565
0.00151515
0.00149523
0.00147638
0.00145841
0.00144134
0.0014246
0.00140783
0.001392
0.00137809
0.00136492
0.00135301
0.00133824
0.00423935
0.00395091
0.00364939
0.00338474
0.00316926
0.00296617
0.00278435
0.00261948
0.00246133
0.00231591
0.00219734
0.00208108
0.00197914
0.00187168
0.00177846
0.00168398
0.00160462
0.00152688
0.00145835
0.0013957
0.00133308
0.00127419
0.00122187
0.00118141
0.00114341
0.00110655
0.00107278
0.00104062
0.00101265
0.000986779
0.000961025
0.000936922
0.000916365
0.000897862
0.000877804
0.000860948
0.000847872
0.000837369
0.000829597
0.000825186
0.00558324
0.00512629
0.00469897
0.00433849
0.00402027
0.00374212
0.0034953
0.00327346
0.00307378
0.00289238
0.00272852
0.00257236
0.00244371
0.00231421
0.00220144
0.00209044
0.00199456
0.00190172
0.00181929
0.00174107
0.00166548
0.0015994
0.00153304
0.00147504
0.00141774
0.0013653
0.00131783
0.00127029
0.00123032
0.00119028
0.00115129
0.00111144
0.00107895
0.0010462
0.00101669
0.000984504
0.000954366
0.000923442
0.000895223
0.000871404
0.00674235
0.00608727
0.00553456
0.00506386
0.00466265
0.0043162
0.00400911
0.00373615
0.00349242
0.0032736
0.00307651
0.00289752
0.0027374
0.00258978
0.0024549
0.0023313
0.00221771
0.00211411
0.00201704
0.00192985
0.00184631
0.00177232
0.00169948
0.00163476
0.00157171
0.00151629
0.00146187
0.00141279
0.00136557
0.00132074
0.00127712
0.00123277
0.00119465
0.00115595
0.00112124
0.00108413
0.00104826
0.00101204
0.000980669
0.00094157
0.00732189
0.0066202
0.00601976
0.00550234
0.00505343
0.00466399
0.00432323
0.00402284
0.00375392
0.00351234
0.00329477
0.00309842
0.00292071
0.00275925
0.00261202
0.00247756
0.00235445
0.00224157
0.00213777
0.00204185
0.00195476
0.00186658
0.00178448
0.00171543
0.00165405
0.00159512
0.00154098
0.00148617
0.00143464
0.00138577
0.00134033
0.00129503
0.00125378
0.00121187
0.00117346
0.00113294
0.00109322
0.00105412
0.00101898
0.000975283
0.00745745
0.00678068
0.00618582
0.00566419
0.00520609
0.00480458
0.00445254
0.00414295
0.00386629
0.00361696
0.00339193
0.00318889
0.00300475
0.00283794
0.00268589
0.00254697
0.00241973
0.00230293
0.00219552
0.0020964
0.0020051
0.0019198
0.00184136
0.00176057
0.00168385
0.00161738
0.00156224
0.00151064
0.00146177
0.00141442
0.00136905
0.00132577
0.00128019
0.00123357
0.00119192
0.00114844
0.00110525
0.00106639
0.00102736
0.000981805
0.00738104
0.00667842
0.00607716
0.005559
0.0051092
0.00471865
0.00437882
0.00407978
0.00381119
0.00356939
0.00335135
0.00315435
0.00297647
0.00281394
0.00266531
0.00252912
0.00240388
0.00228855
0.00218205
0.00208354
0.00199236
0.00190712
0.00182894
0.00175274
0.0016779
0.00161512
0.00155484
0.00149569
0.00144343
0.00139087
0.00134107
0.0012912
0.00124641
0.00120128
0.00116074
0.00111776
0.00107485
0.0010357
0.000995738
0.000949579
0.0067508
0.00615956
0.00561284
0.00513847
0.00473081
0.00438198
0.00407575
0.00380285
0.00355797
0.00333791
0.00313876
0.0029594
0.002798
0.00264732
0.00250847
0.00238073
0.00226204
0.00215286
0.00205127
0.00195725
0.00186968
0.00178712
0.00171218
0.00163599
0.00157022
0.00150431
0.00144665
0.00138792
0.00133761
0.00128612
0.00123655
0.00118604
0.00114376
0.00110103
0.00106319
0.00102518
0.000983521
0.000943751
0.000907623
0.000868775
0.00600325
0.00533011
0.00480899
0.00440347
0.00406692
0.00377666
0.00352094
0.00329351
0.00308563
0.00289987
0.00272772
0.00257951
0.00243782
0.00230525
0.00218097
0.00206831
0.00195786
0.0018635
0.00176904
0.00168702
0.00160565
0.00153299
0.00146336
0.00139825
0.00134194
0.0012845
0.00123631
0.00118651
0.0011456
0.00110416
0.00106489
0.00102457
0.00099343
0.000961822
0.000933691
0.000901534
0.000869015
0.000843491
0.000820503
0.000804496
0.0042377
0.00394749
0.00364544
0.00338125
0.00314835
0.00294411
0.00275957
0.00259699
0.00243122
0.00229621
0.00216991
0.00207103
0.00196947
0.00186336
0.00176898
0.00167882
0.00159847
0.00152342
0.00145592
0.00139307
0.00133286
0.00127346
0.0012227
0.00118109
0.00114414
0.00110643
0.00107253
0.00104
0.00101173
0.000985734
0.000959884
0.000935715
0.000915149
0.000896203
0.00087891
0.000862798
0.000843368
0.000829327
0.000821779
0.00081878
0.00415469
0.00367533
0.00331904
0.00304517