/*--------------------------------*- C++ -*----------------------------------*\
| =========                 |                                                 |
| \\      /  F ield         | OpenFOAM: The Open Source CFD Toolbox           |
|  \\    /   O peration     | Version:  2212                                  |
|   \\  /    A nd           | Website:  www.openfoam.com                      |
|    \\/     M anipulation  |                                                 |
\*---------------------------------------------------------------------------*/
FoamFile
{
    version     2.0;
    format      ascii;
    arch        "LSB;label=32;scalar=64";
    class       volScalarField;
    location    "2.05";
    object      p;
}
// * * * * * * * * * * * * * * * * * * * * * * * * * * * * * * * * * * * * * //

dimensions      [0 2 -2 0 0 0 0];

internalField   nonuniform List<scalar> 
6840
(
0.0179276
0.0108132
0.00852177
0.00798393
0.00770956
0.00748734
0.00730067
0.00713419
0.00697294
0.00681335
0.00665546
0.006499
0.00634274
0.00618542
0.00602655
0.00586555
0.00570138
0.0055258
0.00529673
0.00485484
0.0107489
0.010015
0.00892211
0.00825614
0.00785356
0.00757984
0.0073687
0.00718252
0.00700819
0.006841
0.00667844
0.00651882
0.00636074
0.00620373
0.00604801
0.00589353
0.00573684
0.00557086
0.00538022
0.00511209
0.0104006
0.00954911
0.00878485
0.00822572
0.0078496
0.00758164
0.00736608
0.00717333
0.00699516
0.00682709
0.00666436
0.0065049
0.00634848
0.00619527
0.00604538
0.00589901
0.00575702
0.00562184
0.00550429
0.00542485
0.00999136
0.00922863
0.00860987
0.00815857
0.00781463
0.00754568
0.00732619
0.00713761
0.00697014
0.00681328
0.00665854
0.00650477
0.00635308
0.00620484
0.00606184
0.00592731
0.00580649
0.00570714
0.00564551
0.00565303
0.00985713
0.00911595
0.00852778
0.00811968
0.00779775
0.00753106
0.00730959
0.00711906
0.00694847
0.00679205
0.00664264
0.00649355
0.00634428
0.00619714
0.00605467
0.00591995
0.00579735
0.00569267
0.00561539
0.00558254
0.00985711
0.00911593
0.00852774
0.00811962
0.00779766
0.00753092
0.00730937
0.00711867
0.00694782
0.00679097
0.00664086
0.00649058
0.00633933
0.00618893
0.00604105
0.00589709
0.00575898
0.005628
0.0055059
0.00540077
0.0099913
0.00922856
0.00860979
0.00815845
0.00781445
0.00754537
0.00732567
0.0071367
0.00696861
0.00681074
0.00665437
0.00649794
0.00634197
0.00618669
0.00603179
0.00587681
0.00572148
0.00556648
0.00541418
0.00526955
0.0104006
0.00954905
0.00878477
0.00822562
0.00784942
0.00758132
0.00736554
0.00717242
0.00699367
0.0068246
0.00666021
0.00649813
0.00633754
0.00617754
0.00601647
0.00585176
0.00567927
0.00549338
0.00528933
0.00504877
0.0107488
0.010015
0.00892208
0.00825609
0.00785347
0.00757969
0.00736843
0.00718207
0.00700742
0.0068397
0.00667632
0.00651536
0.00635487
0.00619355
0.00603073
0.00586529
0.00569183
0.005495
0.0052322
0.00480156
0.0179276
0.0108132
0.00852176
0.00798393
0.00770955
0.00748733
0.00730066
0.00713418
0.00697294
0.00681335
0.00665546
0.00649901
0.00634275
0.00618543
0.00602657
0.00586558
0.0057014
0.00552582
0.00529673
0.00485482
0.0107488
0.010015
0.00892208
0.00825609
0.00785347
0.00757969
0.00736843
0.00718207
0.00700742
0.0068397
0.00667632
0.00651534
0.00635484
0.00619353
0.00603071
0.00586525
0.00569178
0.00549493
0.00523204
0.00480117
0.0100323
0.0100006
0.00927232
0.00856182
0.00811546
0.00779949
0.00754057
0.00731285
0.00710819
0.00691967
0.00674172
0.00657048
0.00640278
0.0062367
0.00607112
0.00590415
0.00573314
0.00555539
0.0053856
0.0052845
0.00910683
0.00923302
0.00893015
0.00851394
0.00814681
0.00782821
0.00754973
0.00730942
0.00709706
0.00690282
0.00671993
0.00654519
0.00637675
0.00621303
0.00605275
0.00589468
0.00573809
0.00558278
0.0054334
0.00530463
0.00868849
0.008732
0.00856646
0.00830356
0.00802323
0.00775196
0.00750109
0.00727493
0.00707227
0.00688644
0.00671073
0.00654203
0.00637882
0.00622062
0.00606794
0.00592165
0.00578282
0.00565311
0.00553534
0.00543113
0.0084725
0.00849433
0.00836714
0.00814967
0.0079173
0.00768821
0.00746551
0.00725254
0.00705207
0.00686531
0.00668989
0.00652266
0.00636228
0.00620755
0.00605768
0.00591425
0.00577941
0.00565497
0.00554496
0.00544957
0.00847245
0.00849428
0.00836708
0.00814956
0.00791713
0.00768797
0.00746516
0.00725201
0.00705127
0.00686399
0.00668764
0.00651887
0.00635617
0.00619801
0.00604318
0.00589232
0.00574624
0.00560537
0.00547248
0.00534673
0.00868839
0.0087319
0.00856632
0.00830337
0.00802296
0.00775158
0.0075005
0.00727401
0.00707072
0.00688369
0.00670589
0.00653415
0.00636707
0.00620315
0.00604094
0.00587935
0.00571777
0.00555668
0.00539875
0.00523973
0.00910677
0.00923296
0.00893006
0.00851383
0.00814666
0.00782797
0.00754932
0.00730869
0.00709581
0.00690078
0.00671674
0.00654025
0.00636903
0.00620084
0.00603362
0.00586534
0.00569453
0.00552124
0.00535204
0.00519644
0.0100323
0.0100005
0.00927232
0.00856181
0.00811545
0.00779949
0.00754056
0.00731285
0.00710819
0.00691967
0.00674172
0.00657049
0.00640279
0.0062367
0.00607112
0.00590416
0.00573316
0.00555541
0.00538562
0.00528464
0.0107489
0.010015
0.0089221
0.00825613
0.00785355
0.00757983
0.00736869
0.00718251
0.00700819
0.006841
0.00667844
0.00651882
0.00636075
0.00620372
0.00604799
0.00589352
0.00573683
0.00557081
0.0053801
0.0051118
0.0104006
0.00954905
0.00878477
0.00822562
0.00784942
0.00758132
0.00736553
0.00717242
0.00699367
0.0068246
0.0066602
0.00649812
0.00633752
0.00617752
0.00601644
0.00585172
0.00567921
0.0054933
0.00528922
0.00504858
0.00910678
0.00923296
0.00893006
0.00851383
0.00814666
0.00782797
0.00754932
0.00730869
0.00709581
0.00690077
0.00671674
0.00654025
0.00636903
0.00620083
0.0060336
0.00586532
0.00569451
0.00552121
0.00535202
0.00519638
0.00853731
0.00863829
0.00852673
0.00830125
0.0080455
0.00778709
0.00752868
0.00728705
0.00706915
0.00686883
0.00668112
0.00650283
0.00633129
0.00616439
0.00600073
0.00583914
0.00567882
0.00552109
0.00537168
0.0052287
0.00816936
0.00823743
0.00818507
0.00803814
0.00785332
0.00764823
0.00743763
0.00723086
0.00702994
0.00683787
0.00665588
0.00648213
0.00631468
0.00615238
0.00599464
0.00584066
0.00569
0.00554324
0.00540104
0.00525482
0.00798629
0.00805073
0.00802127
0.00789647
0.00773752
0.0075639
0.00737768
0.00718977
0.0070038
0.00682066
0.00664194
0.00646869
0.00630134
0.00613971
0.0059837
0.00583284
0.00568636
0.00554354
0.00540479
0.00526188
0.00798626
0.0080507
0.00802123
0.00789637
0.00773734
0.00756365
0.00737737
0.00718934
0.00700318
0.00681971
0.00664048
0.0064665
0.00629816
0.0061349
0.0059763
0.005822
0.00567092
0.00552198
0.00537565
0.00522573
0.0081693
0.00823736
0.00818497
0.00803798
0.00785308
0.00764794
0.00743725
0.0072303
0.00702909
0.0068365
0.00665364
0.00647864
0.00630945
0.00614456
0.00598281
0.00582314
0.00566447
0.0055065
0.00535037
0.00518904
0.00853731
0.00863828
0.00852672
0.00830125
0.00804549
0.00778708
0.00752868
0.00728705
0.00706914
0.00686883
0.00668112
0.00650283
0.00633129
0.00616439
0.00600073
0.00583912
0.00567878
0.00552102
0.00537151
0.00522839
0.00910682
0.00923301
0.00893014
0.00851394
0.00814681
0.0078282
0.00754972
0.00730941
0.00709705
0.00690282
0.00671993
0.00654518
0.00637674
0.00621302
0.00605274
0.00589466
0.00573805
0.00558273
0.00543332
0.00530454
0.0104006
0.0095491
0.00878484
0.00822571
0.00784959
0.00758163
0.00736607
0.00717332
0.00699515
0.00682708
0.00666435
0.00650489
0.00634847
0.00619525
0.00604536
0.00589898
0.00575696
0.00562174
0.00550411
0.00542449
0.00999129
0.00922856
0.00860979
0.00815845
0.00781445
0.00754537
0.00732566
0.0071367
0.0069686
0.00681074
0.00665437
0.00649794
0.00634196
0.00618668
0.00603177
0.00587678
0.00572145
0.00556643
0.00541413
0.0052695
0.00868839
0.0087319
0.00856632
0.00830337
0.00802296
0.00775158
0.0075005
0.00727401
0.00707072
0.00688368
0.00670588
0.00653415
0.00636706
0.00620314
0.00604093
0.00587934
0.00571776
0.00555667
0.00539878
0.00523983
0.0081693
0.00823736
0.00818498
0.00803798
0.00785308
0.00764794
0.00743725
0.0072303
0.00702909
0.0068365
0.00665364
0.00647864
0.00630945
0.00614456
0.00598283
0.00582316
0.00566451
0.00550655
0.00535047
0.00518922
0.00787143
0.00793058
0.00791864
0.00782325
0.00768363
0.00751815
0.00733795
0.00715347
0.00696949
0.0067891
0.00661395
0.00644387
0.00627822
0.00611641
0.00595783
0.00580172
0.00564722
0.00549389
0.00534239
0.00518447
0.00772033
0.00778323
0.00778699
0.00771335
0.00759323
0.00744685
0.00728398
0.00711257
0.00693843
0.00676488
0.00659377
0.00642598
0.00626184
0.00610132
0.00594418
0.00578981
0.00563729
0.00548615
0.00533741
0.00518147
0.00772031
0.00778321
0.00778697
0.00771331
0.00759318
0.00744678
0.00728386
0.0071124
0.0069382
0.00676457
0.00659333
0.00642536
0.00626094
0.00609995
0.00594209
0.00578694
0.00563363
0.00548182
0.00533258
0.00517797
0.00787143
0.00793058
0.00791864
0.00782325
0.00768363
0.00751814
0.00733795
0.00715347
0.00696948
0.0067891
0.00661395
0.00644387
0.00627822
0.0061164
0.00595782
0.00580172
0.00564721
0.00549389
0.00534239
0.00518447
0.00816935
0.00823742
0.00818506
0.00803813
0.00785331
0.00764822
0.00743762
0.00723085
0.00702994
0.00683787
0.00665588
0.00648212
0.00631467
0.00615238
0.00599464
0.00584065
0.00568999
0.00554324
0.00540105
0.00525486
0.00868848
0.00873199
0.00856645
0.00830355
0.00802323
0.00775195
0.00750108
0.00727492
0.00707226
0.00688643
0.00671073
0.00654202
0.00637881
0.00622062
0.00606793
0.00592163
0.0057828
0.00565309
0.00553534
0.00543122
0.00999135
0.00922862
0.00860986
0.00815856
0.00781462
0.00754567
0.00732618
0.0071376
0.00697013
0.00681327
0.00665853
0.00650475
0.00635307
0.00620482
0.00606181
0.00592728
0.00580643
0.00570704
0.00564537
0.00565278
0.00985711
0.00911592
0.00852774
0.00811961
0.00779766
0.00753092
0.00730936
0.00711867
0.00694782
0.00679097
0.00664086
0.00649058
0.00633932
0.00618892
0.00604104
0.00589708
0.00575897
0.00562797
0.00550586
0.00540072
0.00847245
0.00849428
0.00836708
0.00814956
0.00791713
0.00768797
0.00746515
0.007252
0.00705127
0.00686398
0.00668763
0.00651887
0.00635617
0.006198
0.00604317
0.00589231
0.00574622
0.00560535
0.00547246
0.00534671
0.00798626
0.00805069
0.00802123
0.00789637
0.00773734
0.00756365
0.00737737
0.00718934
0.00700318
0.0068197
0.00664048
0.0064665
0.00629816
0.0061349
0.0059763
0.005822
0.00567091
0.00552198
0.00537565
0.00522573
0.00772031
0.00778321
0.00778697
0.00771331
0.00759318
0.00744678
0.00728386
0.0071124
0.0069382
0.00676457
0.00659333
0.00642536
0.00626094
0.00609994
0.00594209
0.00578693
0.00563363
0.00548181
0.00533256
0.00517794
0.00757751
0.00764703
0.00766916
0.00761661
0.00751535
0.00738441
0.00723447
0.00707345
0.0069069
0.00673851
0.00657063
0.00640467
0.00624138
0.006081
0.00592349
0.00576836
0.00561472
0.00546219
0.00531141
0.00515366
0.00757751
0.00764703
0.00766916
0.00761661
0.00751535
0.00738441
0.00723447
0.00707345
0.0069069
0.00673851
0.00657063
0.00640467
0.00624138
0.00608101
0.0059235
0.00576836
0.00561473
0.0054622
0.00531144
0.0051537
0.00772033
0.00778322
0.00778699
0.00771334
0.00759323
0.00744685
0.00728397
0.00711256
0.00693843
0.00676488
0.00659377
0.00642598
0.00626184
0.00610132
0.00594418
0.00578982
0.0056373
0.00548618
0.00533745
0.00518155
0.00798628
0.00805072
0.00802126
0.00789646
0.00773751
0.0075639
0.00737768
0.00718976
0.00700379
0.00682066
0.00664194
0.00646868
0.00630133
0.00613971
0.0059837
0.00583285
0.00568639
0.0055436
0.0054049
0.00526208
0.00847249
0.00849432
0.00836714
0.00814966
0.00791729
0.0076882
0.0074655
0.00725253
0.00705206
0.0068653
0.00668988
0.00652265
0.00636227
0.00620753
0.00605767
0.00591424
0.0057794
0.00565498
0.005545
0.00544969
0.00985712
0.00911594
0.00852777
0.00811967
0.00779774
0.00753106
0.00730959
0.00711905
0.00694846
0.00679204
0.00664263
0.00649353
0.00634427
0.00619713
0.00605465
0.00591992
0.0057973
0.00569259
0.00561529
0.00558239
0.00985713
0.00911595
0.00852778
0.00811968
0.00779775
0.00753106
0.00730959
0.00711905
0.00694847
0.00679205
0.00664264
0.00649355
0.00634428
0.00619714
0.00605467
0.00591995
0.00579734
0.00569265
0.00561537
0.0055825
0.00847249
0.00849433
0.00836714
0.00814967
0.0079173
0.0076882
0.00746551
0.00725254
0.00705207
0.00686531
0.00668989
0.00652265
0.00636227
0.00620754
0.00605767
0.00591424
0.00577939
0.00565495
0.00554492
0.00544952
0.00798629
0.00805072
0.00802127
0.00789646
0.00773751
0.0075639
0.00737768
0.00718976
0.00700379
0.00682066
0.00664194
0.00646868
0.00630133
0.0061397
0.00598369
0.00583283
0.00568634
0.00554352
0.00540476
0.00526184
0.00772033
0.00778323
0.00778699
0.00771334
0.00759323
0.00744685
0.00728397
0.00711256
0.00693843
0.00676488
0.00659377
0.00642598
0.00626184
0.00610132
0.00594418
0.0057898
0.00563728
0.00548614
0.00533739
0.00518145
0.00757751
0.00764703
0.00766916
0.00761661
0.00751535
0.00738441
0.00723447
0.00707345
0.0069069
0.0067385
0.00657062
0.00640467
0.00624137
0.006081
0.00592349
0.00576836
0.00561472
0.00546219
0.00531141
0.00515366
0.00757751
0.00764703
0.00766916
0.00761661
0.00751535
0.00738441
0.00723447
0.00707345
0.0069069
0.00673851
0.00657063
0.00640467
0.00624138
0.00608101
0.0059235
0.00576836
0.00561473
0.0054622
0.00531143
0.0051537
0.00772031
0.00778321
0.00778696
0.00771331
0.00759318
0.00744678
0.00728386
0.0071124
0.0069382
0.00676457
0.00659333
0.00642536
0.00626094
0.00609995
0.00594209
0.00578694
0.00563365
0.00548184
0.00533261
0.00517802
0.00798625
0.00805069
0.00802122
0.00789636
0.00773733
0.00756365
0.00737736
0.00718934
0.00700317
0.0068197
0.00664048
0.0064665
0.00629816
0.0061349
0.0059763
0.00582201
0.00567094
0.00552204
0.00537573
0.00522587
0.00847245
0.00849428
0.00836707
0.00814955
0.00791712
0.00768797
0.00746515
0.007252
0.00705126
0.00686398
0.00668763
0.00651886
0.00635616
0.00619799
0.00604316
0.00589231
0.00574623
0.00560538
0.00547251
0.00534681
0.00985711
0.00911592
0.00852774
0.00811961
0.00779765
0.00753092
0.00730936
0.00711866
0.00694781
0.00679096
0.00664085
0.00649057
0.00633931
0.00618891
0.00604103
0.00589706
0.00575894
0.00562793
0.0055058
0.00540062
0.00999136
0.00922863
0.00860987
0.00815857
0.00781463
0.00754567
0.00732619
0.00713761
0.00697014
0.00681327
0.00665854
0.00650477
0.00635308
0.00620484
0.00606184
0.00592732
0.0058065
0.00570713
0.0056455
0.00565301
0.00868849
0.008732
0.00856645
0.00830356
0.00802323
0.00775196
0.00750108
0.00727492
0.00707226
0.00688643
0.00671073
0.00654202
0.00637882
0.00622062
0.00606793
0.00592164
0.00578281
0.00565308
0.00553529
0.00543104
0.00816936
0.00823742
0.00818506
0.00803813
0.00785331
0.00764822
0.00743762
0.00723085
0.00702994
0.00683787
0.00665588
0.00648213
0.00631467
0.00615237
0.00599463
0.00584064
0.00568997
0.0055432
0.00540098
0.00525472
0.00787143
0.00793057
0.00791864
0.00782325
0.00768363
0.00751814
0.00733795
0.00715347
0.00696948
0.0067891
0.00661395
0.00644386
0.00627822
0.0061164
0.00595782
0.00580171
0.0056472
0.00549387
0.00534237
0.00518445
0.00772031
0.00778321
0.00778696
0.00771331
0.00759318
0.00744678
0.00728386
0.0071124
0.0069382
0.00676456
0.00659333
0.00642536
0.00626094
0.00609994
0.00594209
0.00578693
0.00563363
0.00548182
0.00533258
0.00517797
0.00772033
0.00778322
0.00778699
0.00771334
0.00759323
0.00744685
0.00728397
0.00711256
0.00693843
0.00676488
0.00659377
0.00642598
0.00626184
0.00610132
0.00594418
0.00578981
0.00563729
0.00548616
0.00533743
0.00518151
0.00787143
0.00793057
0.00791864
0.00782325
0.00768363
0.00751814
0.00733795
0.00715347
0.00696948
0.0067891
0.00661395
0.00644387
0.00627822
0.00611641
0.00595783
0.00580172
0.00564722
0.0054939
0.00534241
0.0051845
0.00816929
0.00823736
0.00818497
0.00803798
0.00785308
0.00764793
0.00743725
0.0072303
0.00702909
0.0068365
0.00665364
0.00647864
0.00630945
0.00614456
0.00598282
0.00582316
0.00566451
0.00550656
0.00535048
0.00518923
0.00868839
0.0087319
0.00856632
0.00830337
0.00802296
0.00775158
0.0075005
0.007274
0.00707072
0.00688368
0.00670588
0.00653415
0.00636706
0.00620314
0.00604093
0.00587934
0.00571777
0.00555669
0.0053988
0.00523986
0.00999129
0.00922856
0.00860978
0.00815844
0.00781444
0.00754537
0.00732566
0.00713669
0.0069686
0.00681074
0.00665436
0.00649793
0.00634196
0.00618668
0.00603177
0.00587678
0.00572144
0.00556642
0.0054141
0.00526942
0.0104006
0.00954911
0.00878484
0.00822572
0.00784959
0.00758163
0.00736608
0.00717332
0.00699516
0.00682709
0.00666436
0.0065049
0.00634848
0.00619527
0.00604539
0.00589902
0.00575703
0.00562185
0.00550431
0.00542486
0.00910682
0.00923302
0.00893015
0.00851394
0.00814681
0.00782821
0.00754973
0.00730941
0.00709705
0.00690282
0.00671993
0.00654519
0.00637675
0.00621303
0.00605275
0.00589469
0.00573809
0.00558278
0.00543338
0.00530458
0.00853731
0.00863828
0.00852672
0.00830125
0.00804549
0.00778708
0.00752868
0.00728705
0.00706914
0.00686883
0.00668112
0.00650283
0.00633129
0.00616438
0.00600072
0.00583913
0.0056788
0.00552107
0.00537163
0.00522861
0.00816929
0.00823736
0.00818497
0.00803798
0.00785308
0.00764793
0.00743725
0.0072303
0.00702909
0.0068365
0.00665364
0.00647864
0.00630945
0.00614456
0.00598282
0.00582315
0.0056645
0.00550653
0.00535043
0.00518913
0.00798625
0.00805069
0.00802122
0.00789636
0.00773733
0.00756365
0.00737736
0.00718934
0.00700317
0.0068197
0.00664048
0.0064665
0.00629816
0.0061349
0.00597631
0.00582201
0.00567092
0.005522
0.00537568
0.00522578
0.00798629
0.00805072
0.00802127
0.00789646
0.00773751
0.0075639
0.00737768
0.00718976
0.00700379
0.00682066
0.00664194
0.00646868
0.00630133
0.00613971
0.0059837
0.00583284
0.00568637
0.00554356
0.00540483
0.00526196
0.00816936
0.00823742
0.00818506
0.00803813
0.00785331
0.00764822
0.00743762
0.00723085
0.00702994
0.00683787
0.00665588
0.00648213
0.00631467
0.00615238
0.00599464
0.00584065
0.00568999
0.00554323
0.00540103
0.00525482
0.00853731
0.00863828
0.00852672
0.00830125
0.00804549
0.00778708
0.00752868
0.00728705
0.00706914
0.00686883
0.00668112
0.00650283
0.00633129
0.00616439
0.00600073
0.00583913
0.0056788
0.00552107
0.00537164
0.00522864
0.00910677
0.00923296
0.00893006
0.00851383
0.00814666
0.00782797
0.00754932
0.00730869
0.0070958
0.00690077
0.00671674
0.00654025
0.00636903
0.00620084
0.00603361
0.00586533
0.00569451
0.00552122
0.00535203
0.0051964
0.0104006
0.00954905
0.00878477
0.00822562
0.00784942
0.00758131
0.00736553
0.00717241
0.00699366
0.0068246
0.0066602
0.00649812
0.00633753
0.00617752
0.00601645
0.00585173
0.00567922
0.00549331
0.00528923
0.00504859
0.0107489
0.010015
0.00892211
0.00825614
0.00785355
0.00757984
0.00736869
0.00718252
0.00700819
0.006841
0.00667844
0.00651882
0.00636075
0.00620373
0.00604802
0.00589355
0.00573687
0.00557089
0.00538026
0.00511215
0.0100323
0.0100005
0.00927232
0.00856181
0.00811545
0.00779949
0.00754056
0.00731285
0.00710819
0.00691967
0.00674172
0.00657048
0.00640279
0.0062367
0.00607113
0.00590416
0.00573316
0.00555542
0.00538565
0.00528457
0.00910677
0.00923296
0.00893006
0.00851383
0.00814666
0.00782797
0.00754931
0.00730869
0.0070958
0.00690077
0.00671673
0.00654025
0.00636903
0.00620083
0.00603361
0.00586533
0.00569452
0.00552123
0.00535204
0.0051964
0.00868839
0.0087319
0.00856631
0.00830336
0.00802296
0.00775157
0.0075005
0.007274
0.00707072
0.00688368
0.00670588
0.00653415
0.00636706
0.00620314
0.00604093
0.00587934
0.00571777
0.00555668
0.00539878
0.00523981
0.00847245
0.00849428
0.00836708
0.00814955
0.00791712
0.00768797
0.00746515
0.007252
0.00705126
0.00686398
0.00668763
0.00651887
0.00635616
0.006198
0.00604317
0.00589232
0.00574623
0.00560536
0.00547247
0.00534673
0.00847249
0.00849432
0.00836714
0.00814967
0.00791729
0.0076882
0.00746551
0.00725254
0.00705206
0.00686531
0.00668989
0.00652265
0.00636227
0.00620754
0.00605768
0.00591424
0.00577939
0.00565496
0.00554495
0.00544959
0.00868849
0.008732
0.00856645
0.00830356
0.00802323
0.00775196
0.00750108
0.00727492
0.00707226
0.00688644
0.00671073
0.00654202
0.00637882
0.00622062
0.00606794
0.00592164
0.0057828
0.00565308
0.0055353
0.0054311
0.00910682
0.00923302
0.00893015
0.00851394
0.00814681
0.00782821
0.00754973
0.00730941
0.00709705
0.00690282
0.00671993
0.00654519
0.00637675
0.00621303
0.00605275
0.00589467
0.00573807
0.00558275
0.00543334
0.00530454
0.0100323
0.0100006
0.00927232
0.00856181
0.00811546
0.00779949
0.00754056
0.00731285
0.00710819
0.00691967
0.00674172
0.00657049
0.00640279
0.0062367
0.00607112
0.00590416
0.00573315
0.00555539
0.0053856
0.00528451
0.0107488
0.010015
0.00892208
0.00825609
0.00785347
0.00757969
0.00736843
0.00718207
0.00700742
0.0068397
0.00667632
0.00651535
0.00635486
0.00619354
0.00603072
0.00586527
0.00569179
0.00549494
0.00523207
0.00480126
0.0179276
0.0108132
0.00852177
0.00798393
0.00770955
0.00748733
0.00730066
0.00713418
0.00697294
0.00681335
0.00665545
0.00649901
0.00634274
0.00618543
0.00602657
0.00586557
0.00570141
0.00552583
0.00529678
0.00485492
0.0107488
0.010015
0.00892207
0.00825609
0.00785346
0.00757969
0.00736843
0.00718206
0.00700742
0.0068397
0.00667632
0.00651534
0.00635485
0.00619354
0.00603073
0.00586527
0.0056918
0.00549496
0.00523209
0.00480124
0.0104006
0.00954905
0.00878477
0.00822561
0.00784942
0.00758131
0.00736553
0.00717241
0.00699366
0.00682459
0.0066602
0.00649812
0.00633753
0.00617752
0.00601645
0.00585173
0.00567923
0.00549333
0.00528927
0.00504867
0.00999129
0.00922856
0.00860978
0.00815844
0.00781444
0.00754537
0.00732566
0.00713669
0.0069686
0.00681074
0.00665436
0.00649793
0.00634196
0.00618668
0.00603177
0.00587678
0.00572145
0.00556644
0.00541414
0.0052695
0.00985711
0.00911592
0.00852774
0.00811961
0.00779765
0.00753092
0.00730936
0.00711866
0.00694781
0.00679097
0.00664085
0.00649057
0.00633932
0.00618892
0.00604103
0.00589707
0.00575896
0.00562796
0.00550584
0.00540067
0.00985713
0.00911594
0.00852778
0.00811967
0.00779775
0.00753106
0.00730959
0.00711905
0.00694847
0.00679204
0.00664263
0.00649355
0.00634428
0.00619714
0.00605466
0.00591994
0.00579733
0.00569262
0.00561532
0.00558242
0.00999136
0.00922863
0.00860987
0.00815857
0.00781463
0.00754567
0.00732619
0.00713761
0.00697014
0.00681328
0.00665854
0.00650477
0.00635308
0.00620484
0.00606183
0.0059273
0.00580647
0.00570708
0.00564542
0.00565288
0.0104006
0.00954911
0.00878485
0.00822572
0.0078496
0.00758164
0.00736608
0.00717332
0.00699516
0.00682709
0.00666436
0.0065049
0.00634848
0.00619527
0.00604537
0.005899
0.005757
0.00562179
0.00550421
0.00542469
0.0107489
0.010015
0.00892211
0.00825614
0.00785356
0.00757984
0.0073687
0.00718252
0.00700819
0.00684101
0.00667845
0.00651883
0.00636076
0.00620373
0.006048
0.00589353
0.00573684
0.00557084
0.00538017
0.005112
0.0179276
0.0108132
0.00852177
0.00798393
0.00770956
0.00748733
0.00730067
0.00713418
0.00697294
0.00681335
0.00665546
0.00649901
0.00634276
0.00618543
0.00602656
0.00586557
0.00570139
0.00552579
0.00529672
0.00485485
0.0055949
0.00497351
0.00457464
0.00443401
0.00431642
0.00418917
0.00406185
0.00393403
0.00380255
0.00366923
0.00353641
0.00340398
0.00327329
0.00314398
0.00301487
0.00288597
0.00275715
0.00262969
0.00250314
0.0023783
0.002254
0.00213074
0.0020087
0.00188781
0.00176843
0.00164949
0.00153149
0.00141431
0.00129819
0.0011838
0.00106988
0.000955236
0.000841071
0.000728605
0.000617171
0.000505273
0.000392197
0.000278502
0.000167461
5.07477e-05
0.00572013
0.00507106
0.00459659
0.00440718
0.00428246
0.00415726
0.00403275
0.00390864
0.00378081
0.00365039
0.0035197
0.00338874
0.00325888
0.00312998
0.00300076
0.00287166
0.00274297
0.00261576
0.00248962
0.00236507
0.00224127
0.00211888
0.00199815
0.00187865
0.00176007
0.00164154
0.00152374
0.00140676
0.00129092
0.00117691
0.00106355
0.000949579
0.000835972
0.000723947
0.000612865
0.00050126
0.000388684
0.000275846
0.000164877
5.00624e-05
0.00550318
0.00510399
0.00474439
0.00452488
0.00436005
0.00420556
0.00405818
0.00391769
0.00378191
0.00364815
0.00351572
0.00338321
0.00325206
0.00312222
0.00299268
0.0028637
0.00273543
0.00260849
0.00248255
0.002358
0.00223387
0.00211119
0.00199028
0.00187076
0.00175218
0.00163376
0.00151639
0.00139982
0.00128465
0.00117127
0.0010587
0.000945563
0.00083274
0.00072131
0.000610902
0.000500251
0.000388345
0.000275969
0.000165494
5.04611e-05
0.00528649
0.00504609
0.00479095
0.00458355
0.00440894
0.00424918
0.00409767
0.00395232
0.00381173
0.0036738
0.0035377
0.00340315
0.00327008
0.00313846
0.00300782
0.0028781
0.00274932
0.00262166
0.00249485
0.00236924
0.00224429
0.00211999
0.00199644
0.00187416
0.00175361
0.00163441
0.00151648
0.00139966
0.00128444
0.00117043
0.00105716
0.000943459
0.00083048
0.000719153
0.000609088
0.000498917
0.000387321
0.000275044
0.000165038
5.01505e-05
0.00511951
0.00496227
0.00477872
0.00459962
0.00443259
0.00427407
0.00412149
0.00397408
0.00383095
0.00369055
0.003552
0.00341549
0.00328099
0.00314815
0.00301652
0.00288604
0.00275673
0.00262862
0.00250165
0.00237589
0.0022514
0.00212798
0.00200515
0.00188288
0.00176178
0.00164205
0.00152392
0.00140739
0.00129186
0.00117691
0.00106216
0.000947479
0.000834037
0.000722125
0.00061149
0.000500689
0.000388503
0.000276072
0.000165943
5.04752e-05
0.00500903
0.00491166
0.00476496
0.00460078
0.00443885
0.00428248
0.00413094
0.00398401
0.00384112
0.00370056
0.0035617
0.00342468
0.00328956
0.00315606
0.00302384
0.00289287
0.00276317
0.00263472
0.00250752
0.00238156
0.00225685
0.00213337
0.00201114
0.00188971
0.00176859
0.00164807
0.00152904
0.00141188
0.00129624
0.00118175
0.00106777
0.000954187
0.000841411
0.000729264
0.000617939
0.000506172
0.000392819
0.000279705
0.000168459
5.12432e-05
0.00492993
0.00487177
0.00475122
0.00459427
0.00443561
0.00428278
0.00413374
0.00398811
0.0038457
0.00370525
0.00356638
0.00342915
0.00329364
0.00315962
0.0030268
0.00289535
0.0027654
0.00263686
0.00250962
0.00238364
0.00225896
0.00213548
0.0020133
0.0018919
0.00177086
0.00165024
0.00153133
0.00141428
0.00129887
0.00118492
0.00107101
0.000956815
0.0008434
0.000731551
0.000621136
0.000510325
0.000397295
0.000283545
0.000170893
5.25676e-05
0.00502576
0.00492773
0.00476055
0.00458406
0.00442529
0.00427584
0.00412976
0.0039858
0.00384385
0.00370348
0.00356473
0.0034278
0.00329272
0.00315873
0.00302515
0.00289289
0.00276253
0.00263396
0.0025069
0.00238116
0.00225674
0.00213343
0.00201164
0.00189035
0.00177013
0.00165159
0.00153446
0.00141813
0.0013029
0.00118921
0.00107512
0.000960127
0.000846138
0.00073423
0.000623243
0.000512917
0.000400635
0.000285866
0.000171637
5.31535e-05
0.00520898
0.00499667
0.00474207
0.00455157
0.00439804
0.00425133
0.00410721
0.00396612
0.00382655
0.00368811
0.00355096
0.00341583
0.00328307
0.00315157
0.00302103
0.00289191
0.00276284
0.00263474
0.00250815
0.00238254
0.00225803
0.00213445
0.00201231
0.00189103
0.0017716
0.00165345
0.00153635
0.00141972
0.00130381
0.0011895
0.00107515
0.000959792
0.000845355
0.000732853
0.000621346
0.000510771
0.000398036
0.000282949
0.000168891
5.20466e-05
0.00550106
0.00500275
0.00465547
0.00450601
0.00437819
0.00423914
0.00409992
0.00396256
0.00382525
0.00368833
0.00355239
0.00341834
0.00328769
0.00315802
0.00302893
0.00290077
0.00277212
0.00264399
0.00251719
0.00239155
0.00226699
0.00214322
0.00202019
0.00189802
0.00177768
0.00165848
0.00154003
0.00142249
0.00130592
0.00119113
0.00107665
0.000961236
0.000846435
0.000733377
0.000621403
0.000510468
0.000397918
0.000282817
0.000168784
5.18891e-05
0.0055952
0.00497407
0.0045756
0.00443555
0.00431737
0.00418925
0.00406173
0.00393365
0.00380184
0.00366844
0.0035351
0.00340285
0.00327346
0.00314434
0.00301483
0.002886
0.00275732
0.0026296
0.00250328
0.0023781
0.00225401
0.00213098
0.00200913
0.0018883
0.00176873
0.00164996
0.00153178
0.00141456
0.00129837
0.00118397
0.00107006
0.000955361
0.000841174
0.000728602
0.000617017
0.000506388
0.000394285
0.000279845
0.000167931
5.03935e-05
0.00550065
0.00500205
0.00465444
0.00450386
0.00437637
0.0042392
0.00410066
0.00396328
0.00382616
0.00368925
0.00355389
0.00341963
0.00328762
0.00315759
0.00302889
0.00290067
0.00277191
0.00264407
0.00251706
0.00239178
0.002267
0.00214299
0.00201969
0.00189746
0.00177723
0.00165787
0.00153959
0.0014221
0.00130563
0.00119086
0.00107639
0.000961071
0.000846325
0.000733449
0.000621617
0.000509144
0.000395262
0.000280855
0.000168079
5.21366e-05
0.00538831
0.0050184
0.00470658
0.00451219
0.0043633
0.00421909
0.00407944
0.00394432
0.00381109
0.00367826
0.00354612
0.00341355
0.00328244
0.0031529
0.00302406
0.0028952
0.00276672
0.00263957
0.00251331
0.00238881
0.00226424
0.00214085
0.00201865
0.00189745
0.00177773
0.00165814
0.00153972
0.00142209
0.00130568
0.00119117
0.00107683
0.000961335
0.000846533
0.000733678
0.000622343
0.000510655
0.000396816
0.000282263
0.000169997
5.30329e-05
0.0052743
0.00502724
0.00478745
0.00458318
0.00440723
0.00424468
0.00409211
0.0039469
0.00380645
0.0036693
0.00353423
0.00340077
0.00326823
0.00313698
0.0030073
0.00287861
0.00275095
0.00262443
0.00249907
0.0023743
0.00225008
0.00212671
0.00200463
0.00188382
0.00176431
0.00164591
0.00152848
0.00141196
0.0012969
0.00118285
0.00106886
0.000954497
0.00084102
0.00072866
0.000617636
0.000506927
0.00039488
0.000281976
0.000171175
5.40975e-05
0.00516345
0.0049798
0.00479265
0.00460671
0.00443452
0.00427295
0.00411796
0.0039689
0.00382506
0.00368496
0.0035477
0.0034132
0.00327989
0.00314757
0.00301689
0.00288742
0.00275909
0.00263167
0.00250545
0.00238001
0.00225586
0.0021322
0.00200941
0.0018881
0.00176791
0.00164906
0.0015309
0.00141393
0.00129809
0.00118254
0.00106713
0.000952541
0.000839171
0.00072647
0.000614714
0.000503214
0.000391385
0.000279672
0.000169375
5.38759e-05
0.00506465
0.00489952
0.00474397
0.00458124
0.00442186
0.00426861
0.00411955
0.00397383
0.00383138
0.00369201
0.00355506
0.00342011
0.00328661
0.00315428
0.00302331
0.00289352
0.00276477
0.00263705
0.00251052
0.00238494
0.00226028
0.00213637
0.00201367
0.00189231
0.00177184
0.00165264
0.00153478
0.00141791
0.00130173
0.00118581
0.00106999
0.000955315
0.00084176
0.000728596
0.000615655
0.000502373
0.000389315
0.000277551
0.00016734
5.37808e-05
0.00495374
0.00480718
0.0046861
0.0045449
0.00439784
0.00425369
0.0041117
0.00397096
0.00383199
0.00369508
0.00355961
0.00342531
0.00329206
0.00315977
0.00302855
0.00289835
0.00276919
0.00264111
0.00251416
0.00238824
0.0022633
0.00213929