/*--------------------------------*- C++ -*----------------------------------*\
| =========                 |                                                 |
| \\      /  F ield         | OpenFOAM: The Open Source CFD Toolbox           |
|  \\    /   O peration     | Version:  2212                                  |
|   \\  /    A nd           | Website:  www.openfoam.com                      |
|    \\/     M anipulation  |                                                 |
\*---------------------------------------------------------------------------*/
FoamFile
{
    version     2.0;
    format      ascii;
    arch        "LSB;label=32;scalar=64";
    class       surfaceScalarField;
    location    "2.05";
    object      phi;
}
// * * * * * * * * * * * * * * * * * * * * * * * * * * * * * * * * * * * * * //

dimensions      [0 3 -1 0 0 0 0];

oriented        oriented;

internalField   nonuniform List<scalar> 
19019
(
3.32249e-07
1.09682e-09
1.09686e-09
2.7919e-07
2.65293e-08
2.65298e-08
2.49218e-07
1.49861e-08
1.49868e-08
2.29253e-07
9.98151e-09
9.98265e-09
2.14833e-07
7.20871e-09
7.2114e-09
2.03197e-07
5.81623e-09
5.82037e-09
1.93768e-07
4.7103e-09
4.71866e-09
1.85998e-07
3.8775e-09
3.89243e-09
1.79346e-07
3.31334e-09
3.33916e-09
1.73511e-07
2.89503e-09
2.93923e-09
1.68331e-07
2.55411e-09
2.62637e-09
1.63697e-07
2.25762e-09
2.37646e-09
1.59512e-07
1.99103e-09
2.19389e-09
1.5571e-07
1.72217e-09
2.07991e-09
1.52297e-07
1.39988e-09
2.01292e-09
1.49328e-07
9.9948e-10
1.96928e-09
1.46987e-07
4.31939e-10
1.90899e-09
1.46142e-07
-7.86131e-10
1.63077e-09
1.48917e-07
-3.72768e-09
9.52446e-10
-2.53584e-08
-1.11933e-08
6.3138e-07
3.58748e-09
7.40296e-09
6.14563e-07
2.26452e-08
2.07009e-08
5.86444e-07
2.43752e-08
1.87302e-08
5.61723e-07
1.88535e-08
1.58488e-08
5.39613e-07
1.55668e-08
1.37517e-08
5.2063e-07
1.35057e-08
1.12937e-08
5.0468e-07
1.1944e-08
8.71631e-09
4.9092e-07
1.07864e-08
6.85165e-09
4.78686e-07
9.92459e-09
5.62263e-09
4.67584e-07
9.1986e-09
4.7986e-09
4.57372e-07
8.54646e-09
4.21958e-09
4.47897e-07
7.94011e-09
3.79236e-09
4.39033e-07
7.36325e-09
3.49159e-09
4.3068e-07
6.78941e-09
3.28614e-09
4.22775e-07
6.16349e-09
3.14125e-09
4.15415e-07
5.359e-09
3.00027e-09
4.08802e-07
4.2378e-09
2.80707e-09
4.03727e-07
2.18432e-09
2.10395e-09
4.03165e-07
-2.36546e-09
-8.00564e-10
-1.29652e-08
-1.38738e-08
8.90374e-07
2.85255e-09
6.33245e-09
8.82485e-07
1.34083e-08
1.71264e-08
8.70356e-07
1.78669e-08
1.86373e-08
8.55106e-07
1.69545e-08
1.71494e-08
8.3997e-07
1.5339e-08
1.53635e-08
8.25513e-07
1.41682e-08
1.37942e-08
8.11731e-07
1.33766e-08
1.23494e-08
7.98715e-07
1.26698e-08
1.11334e-08
7.86605e-07
1.18776e-08
1.0157e-08
7.75401e-07
1.10258e-08
9.37638e-09
7.64948e-07
1.02057e-08
8.79356e-09
7.55069e-07
9.43465e-09
8.38513e-09
7.456e-07
8.71814e-09
8.11375e-09
7.36401e-07
8.03859e-09
7.94965e-09
7.27334e-07
7.3417e-09
7.88838e-09
7.18216e-07
6.52848e-09
7.94943e-09
7.08776e-07
5.51476e-09
8.16263e-09
6.9835e-07
4.077e-09
8.53264e-09
6.85249e-07
1.8335e-09
8.90265e-09
2.201e-09
1.36234e-08
1.07432e-06
1.06497e-09
5.56894e-09
1.06824e-06
5.58715e-09
1.39005e-08
1.06137e-06
8.46524e-09
1.62627e-08
1.05338e-06
9.0419e-09
1.59109e-08
1.04509e-06
8.62157e-09
1.50055e-08
1.03719e-06
8.12722e-09
1.39384e-08
1.02978e-06
7.7984e-09
1.29847e-08
1.02275e-06
7.57434e-09
1.2127e-08
1.01586e-06
7.40325e-09
1.13655e-08
1.00902e-06
7.14077e-09
1.07262e-08
1.00223e-06
6.73587e-09
1.02566e-08
9.95437e-07
6.29421e-09
9.93748e-09
9.88508e-07
5.89466e-09
9.75283e-09
9.81266e-07
5.56719e-09
9.71292e-09
9.73421e-07
5.34032e-09
9.8473e-09
9.64481e-07
5.24101e-09
1.02273e-08
9.536e-07
5.37843e-09
1.10171e-08
9.39373e-07
5.80044e-09
1.25038e-08
9.19218e-07
6.99186e-09
1.49959e-08
1.19522e-08
2.25143e-08
1.16914e-06
1.36223e-13
4.90667e-09
1.16312e-06
6.45103e-13
1.16089e-08
1.15731e-06
1.49729e-12
1.42761e-08
1.15201e-06
2.6955e-12
1.43348e-08
1.1469e-06
4.65305e-12
1.37328e-08
1.14204e-06
8.16739e-12
1.29736e-08
1.13772e-06
1.44645e-11
1.21069e-08
1.13395e-06
2.48298e-11
1.13177e-08
1.13065e-06
4.23154e-11
1.06658e-08
1.1275e-06
7.12612e-11
1.02159e-08
1.12418e-06
1.1913e-10
9.93701e-09
1.12052e-06
1.98235e-10
9.75945e-09
1.11639e-06
3.29945e-10
9.69436e-09
1.11163e-06
5.48239e-10
9.77381e-09
1.10604e-06
9.00119e-10
1.00325e-08
1.09929e-06
1.48298e-09
1.0507e-08
1.09088e-06
2.47872e-09
1.13081e-08
1.08004e-06
4.04417e-09
1.26005e-08
1.0658e-06
6.73194e-09
1.45022e-08
1.21994e-08
1.77212e-08
1.16914e-06
-1.06467e-09
4.90662e-09
1.16312e-06
-5.58611e-09
1.16087e-08
1.15731e-06
-8.46327e-09
1.4276e-08
1.15202e-06
-9.03854e-09
1.43342e-08
1.14691e-06
-8.61522e-09
1.37309e-08
1.14206e-06
-8.1153e-09
1.29696e-08
1.13775e-06
-7.77686e-09
1.21008e-08
1.13401e-06
-7.53708e-09
1.13076e-08
1.13074e-06
-7.33851e-09
1.06484e-08
1.12766e-06
-7.03292e-09
1.01861e-08
1.12445e-06
-6.55919e-09
9.88789e-09
1.12097e-06
-6.00615e-09
9.67645e-09
1.11717e-06
-5.4204e-09
9.55103e-09
1.11297e-06
-4.7796e-09
9.52695e-09
1.1083e-06
-4.0404e-09
9.61057e-09
1.10306e-06
-3.0601e-09
9.7908e-09
1.09712e-06
-1.67431e-09
1.00866e-08
1.09029e-06
3.76764e-10
1.05041e-08
1.08276e-06
3.22203e-09
1.10421e-08
7.49171e-09
1.16992e-08
1.07432e-06
-2.85259e-09
5.56894e-09
1.06824e-06
-1.34084e-08
1.39004e-08
1.06138e-06
-1.7867e-08
1.62619e-08
1.05339e-06
-1.69546e-08
1.59085e-08
1.04511e-06
-1.53385e-08
1.50008e-08
1.03723e-06
-1.41662e-08
1.39311e-08
1.02985e-06
-1.33726e-08
1.29738e-08
1.02287e-06
-1.26634e-08
1.21093e-08
1.01606e-06
-1.18664e-08
1.13358e-08
1.00936e-06
-1.10072e-08
1.06752e-08
1.00281e-06
-1.01761e-08
1.01683e-08
9.96405e-07
-9.38629e-09
9.7831e-09
9.90132e-07
-8.63427e-09
9.48722e-09
9.83986e-07
-7.88824e-09
9.25468e-09
9.77976e-07
-7.07649e-09
9.04593e-09
9.72141e-07
-6.02557e-09
8.80052e-09
9.6654e-07
-4.52082e-09
8.44794e-09
9.61189e-07
-2.18514e-09
7.9128e-09
9.55567e-07
1.63534e-09
7.20875e-09
9.44218e-09
6.05689e-09
8.90375e-07
-3.5876e-09
6.33235e-09
8.82486e-07
-2.26459e-08
1.71257e-08
8.7036e-07
-2.43761e-08
1.86356e-08
8.55114e-07
-1.88551e-08
1.71464e-08
8.39987e-07
-1.55702e-08
1.53592e-08
8.25544e-07
-1.35114e-08
1.37884e-08
8.11785e-07
-1.19537e-08
1.234e-08
7.98807e-07
-1.08026e-08
1.11168e-08
7.86762e-07
-9.95176e-09
1.01301e-08
7.75668e-07
-9.24492e-09
9.33212e-09
7.65398e-07
-8.6254e-09
8.71903e-09
7.55824e-07
-8.0678e-09
8.25605e-09
7.46861e-07
-7.56268e-09
7.89165e-09
7.38501e-07
-7.1026e-09
7.57363e-09
7.30848e-07
-6.6645e-09
7.24158e-09
7.24209e-07
-6.15755e-09
6.77094e-09
7.19098e-07
-5.36858e-09
5.95858e-09
7.16046e-07
-3.4683e-09
4.33505e-09
7.15953e-07
2.33349e-10
1.49513e-09
1.13445e-08
-5.09526e-09
6.3138e-07
-1.09685e-09
7.40286e-09
6.14564e-07
-2.65297e-08
2.07003e-08
5.86445e-07
-1.49867e-08
1.87292e-08
5.61726e-07
-9.98261e-09
1.58469e-08
5.39618e-07
-7.21135e-09
1.37491e-08
5.20638e-07
-5.82031e-09
1.12887e-08
5.04695e-07
-4.71859e-09
8.70823e-09
4.90946e-07
-3.89235e-09
6.83853e-09
4.78733e-07
-3.33907e-09
5.60065e-09
4.67666e-07
-2.93912e-09
4.76092e-09
4.5752e-07
-2.62625e-09
4.14715e-09
4.48161e-07
-2.37633e-09
3.66749e-09
4.39489e-07
-2.19369e-09
3.30282e-09
4.3144e-07
-2.07968e-09
3.02567e-09
4.24033e-07
-2.01257e-09
2.75499e-09
4.17523e-07
-1.96868e-09
2.3216e-09
4.12508e-07
-1.90828e-09
1.554e-09
4.10978e-07
-1.62932e-09
-3.09268e-10
4.16944e-07
-9.49264e-10
-4.7832e-09
1.1195e-08
-2.0413e-08
3.32249e-07
1.09683e-09
2.7919e-07
2.65294e-08
2.49218e-07
1.49861e-08
2.29253e-07
9.98154e-09
2.14833e-07
7.20875e-09
2.03197e-07
5.81628e-09
1.93768e-07
4.71037e-09
1.85998e-07
3.87758e-09
1.79345e-07
3.31345e-09
1.73511e-07
2.89517e-09
1.68331e-07
2.55428e-09
1.63696e-07
2.25781e-09
1.59512e-07
1.99124e-09
1.55709e-07
1.72259e-09
1.52296e-07
1.40048e-09
1.49327e-07
1.00022e-09
1.46986e-07
4.3309e-10
1.4614e-07
-7.84109e-10
1.48916e-07
-3.72493e-09
-2.53613e-08
6.3138e-07
7.40286e-09
3.58761e-09
6.14564e-07
2.07003e-08
2.26459e-08
5.86445e-07
1.87292e-08
2.43761e-08
5.61726e-07
1.58469e-08
1.88551e-08
5.39618e-07
1.37491e-08
1.55702e-08
5.20638e-07
1.12887e-08
1.35114e-08
5.04695e-07
8.7082e-09
1.19538e-08
4.90946e-07
6.83849e-09
1.08026e-08
4.78733e-07
5.60059e-09
9.95184e-09
4.67666e-07
4.76085e-09
9.245e-09
4.5752e-07
4.14705e-09
8.62547e-09
4.48161e-07
3.66741e-09
8.06781e-09
4.3949e-07
3.3029e-09
7.56263e-09
4.31441e-07
3.02554e-09
7.10288e-09
4.24035e-07
2.75442e-09
6.66506e-09
4.17525e-07
2.32103e-09
6.15791e-09
4.12512e-07
1.55302e-09
5.36839e-09
4.10987e-07
-3.11298e-10
3.46717e-09
4.16963e-07
-4.7865e-09
-2.37043e-10
-2.04166e-08
-1.1353e-08
9.23616e-07
7.03379e-09
7.03398e-09
9.25317e-07
1.98497e-08
1.98504e-08
9.17182e-07
2.27965e-08
2.27978e-08
9.04272e-07
2.23017e-08
2.23042e-08
8.90529e-07
2.06198e-08
2.06239e-08
8.77402e-07
1.78511e-08
1.78588e-08
8.65428e-07
1.4693e-08
1.47057e-08
8.54742e-07
1.21778e-08
1.21981e-08
8.4529e-07
1.03202e-08
1.03555e-08
8.36925e-07
8.93168e-09
8.99263e-09
8.29462e-07
7.86309e-09
7.9663e-09
8.22721e-07
7.01622e-09
7.18505e-09
8.16605e-07
6.32124e-09
6.58873e-09
8.11115e-07
5.69029e-09
6.11169e-09
8.06287e-07
5.0288e-09
5.69455e-09
8.02135e-07
4.21456e-09
5.2587e-09
7.98724e-07
3.09579e-09
4.67583e-09
7.95422e-07
1.40207e-09
3.69239e-09
7.89293e-07
-1.26033e-09
1.80165e-09
-5.60465e-09
-2.75361e-09
1.1589e-06
5.28132e-09
6.10286e-09
1.16569e-06
1.39987e-08
1.61839e-08
1.16844e-06
1.79782e-08
2.07087e-08
1.16661e-06
1.91792e-08
2.21082e-08
1.1622e-06
1.88764e-08
2.15106e-08
1.15653e-06
1.7545e-08
1.97768e-08
1.15045e-06
1.56842e-08
1.74364e-08
1.14453e-06
1.38844e-08
1.53485e-08
1.13906e-06
1.22795e-08
1.36614e-08
1.13418e-06
1.08741e-08
1.23204e-08
1.12986e-06
9.70448e-09
1.12715e-08
1.12606e-06
8.73066e-09
1.04687e-08
1.12274e-06
7.89091e-09
9.86501e-09
1.11983e-06
7.12498e-09
9.41784e-09
1.11728e-06
6.36285e-09
9.10574e-09
1.11499e-06
5.541e-09
8.9192e-09
1.11284e-06
4.57495e-09
8.83361e-09
1.11058e-06
3.38098e-09
8.80597e-09
1.10765e-06
1.85799e-09
8.7172e-09
5.27139e-10
8.95864e-09
1.32762e-06
2.71844e-09
4.9314e-09
1.33539e-06
7.12145e-09
1.30099e-08
1.34286e-06
9.55453e-09
1.72177e-08
1.34847e-06
1.058e-08
1.89035e-08
1.35196e-06
1.08787e-08
1.95086e-08
1.35373e-06
1.0586e-08
1.91264e-08
1.35438e-06
9.90051e-09
1.8118e-08
1.3545e-06
9.0601e-09
1.68384e-08
1.35442e-06
8.21695e-09
1.55053e-08
1.35429e-06
7.43527e-09
1.42995e-08
1.35414e-06
6.75068e-09
1.33583e-08
1.35399e-06
6.15904e-09
1.26541e-08
1.35383e-06
5.64523e-09
1.21566e-08
1.35361e-06
5.20683e-09
1.18566e-08
1.35322e-06
4.83549e-09
1.17677e-08
1.35252e-06
4.53308e-09
1.1931e-08
1.35139e-06
4.30671e-09
1.24149e-08
1.34978e-06
4.18053e-09
1.33122e-08
1.34782e-06
4.17536e-09
1.46454e-08
4.69434e-09
1.63494e-08
1.41518e-06
2.57857e-13
4.19314e-09
1.42279e-06
7.37647e-13
1.11167e-08
1.43152e-06
1.27052e-12
1.50999e-08
1.4398e-06
2.35169e-12
1.66318e-08
1.44713e-06
4.39677e-12
1.72802e-08
1.45316e-06
7.72599e-12
1.75175e-08
1.45799e-06
1.27692e-11
1.71646e-08
1.46189e-06
2.09677e-11
1.64542e-08
1.46517e-06
3.53299e-11
1.55755e-08
1.46805e-06
6.11022e-11
1.47081e-08
1.47071e-06
1.04208e-10
1.39189e-08
1.4732e-06
1.74136e-10
1.32609e-08
1.47543e-06
2.80502e-10
1.28234e-08
1.47734e-06
4.44714e-10
1.26255e-08
1.47888e-06
7.0487e-10
1.26254e-08
1.47998e-06
1.10615e-09
1.28302e-08
1.48054e-06
1.7121e-09
1.33449e-08
1.48048e-06
2.60742e-09
1.42387e-08
1.47973e-06
3.90163e-09
1.55221e-08
5.67472e-09
1.70228e-08
1.41518e-06
-2.71814e-09
4.193e-09
1.42279e-06
-7.12066e-09
1.11163e-08
1.43152e-06
-9.5531e-09
1.50993e-08
1.4398e-06
-1.05772e-08
1.66304e-08
1.44714e-06
-1.08734e-08
1.7277e-08
1.45318e-06
-1.0577e-08
1.75119e-08
1.45802e-06
-9.88538e-09
1.71557e-08
1.46195e-06
-9.03477e-09
1.64403e-08
1.46525e-06
-8.17399e-09
1.55541e-08
1.46818e-06
-7.35768e-09
1.46731e-08
1.47093e-06
-6.61553e-09
1.38599e-08
1.47356e-06
-5.93553e-09
1.3158e-08
1.47605e-06
-5.30385e-09
1.26452e-08
1.47837e-06
-4.67835e-09
1.23299e-08
1.4805e-06
-3.98194e-09
1.21605e-08
1.48244e-06
-3.15422e-09
1.21104e-08
1.48415e-06
-2.10799e-09
1.21982e-08
1.48556e-06
-7.42632e-10
1.24467e-08
1.48659e-06
1.05227e-09
1.28631e-08
3.34735e-09
1.33912e-08
1.32763e-06
-5.28146e-09
4.93112e-09
1.33539e-06
-1.3999e-08
1.3009e-08
1.34287e-06
-1.79785e-08
1.72158e-08
1.34848e-06
-1.91798e-08
1.8899e-08
1.35198e-06
-1.88773e-08
1.95005e-08
1.35377e-06
-1.75471e-08
1.91141e-08
1.35445e-06
-1.56868e-08
1.80988e-08
1.3546e-06
-1.38867e-08
1.6808e-08
1.35459e-06
-1.22844e-08
1.54585e-08
1.35457e-06
-1.08836e-08
1.42231e-08
1.35461e-06
-9.72072e-09
1.32269e-08
1.35479e-06
-8.76102e-09
1.24342e-08
1.35512e-06
-7.94876e-09
1.17969e-08
1.35565e-06
-7.22182e-09
1.12715e-08
1.35641e-06
-6.5058e-09
1.08122e-08
1.3574e-06
-5.72044e-09
1.03681e-08
1.35861e-06
-4.74599e-09
9.88558e-09
1.3599e-06
-3.43723e-09
9.31554e-09
1.36113e-06
-1.62797e-09
8.65367e-09
1.32336e-09
7.8532e-09
1.1589e-06
-7.03398e-09
6.10252e-09
1.1657e-06
-1.98504e-08
1.61826e-08
1.16845e-06
-2.27978e-08
2.07058e-08
1.16661e-06
-2.23041e-08
2.21034e-08
1.16221e-06
-2.06239e-08
2.15035e-08
1.15655e-06
-1.78588e-08
1.97668e-08
1.15049e-06
-1.47056e-08
1.74201e-08
1.14459e-06
-1.2198e-08
1.53202e-08
1.13918e-06
-1.03554e-08
1.36133e-08
1.13438e-06
-8.99252e-09
1.22411e-08
1.13021e-06
-7.96615e-09
1.11406e-08
1.12663e-06
-7.18482e-09
1.02559e-08
1.12364e-06
-6.58835e-09
9.51949e-09
1.12124e-06
-6.11159e-09
8.86139e-09
1.11946e-06
-5.69452e-09
8.21378e-09
1.11829e-06
-5.2581e-09
7.47846e-09
1.11767e-06
-4.67479e-09
6.50839e-09
1.11713e-06
-3.69122e-09
5.12608e-09
1.11557e-06
-1.79819e-09
3.22938e-09
2.77073e-09
6.83206e-10
9.23616e-07
-7.40296e-09
7.03379e-09
9.25317e-07
-2.07009e-08
1.98497e-08
9.17182e-07
-1.87302e-08
2.27965e-08
9.04272e-07
-1.58488e-08
2.23017e-08
8.90529e-07
-1.37517e-08
2.06199e-08
8.77402e-07
-1.12937e-08
1.78511e-08
8.65428e-07
-8.71628e-09
1.46931e-08
8.54742e-07
-6.85162e-09
1.21779e-08
8.45289e-07
-5.62259e-09
1.03204e-08
8.36925e-07
-4.79856e-09
8.93189e-09
8.29462e-07
-4.21954e-09
7.86334e-09
8.2272e-07
-3.79226e-09
7.01644e-09
8.16605e-07
-3.49131e-09
6.32126e-09
8.11114e-07
-3.28605e-09
5.69097e-09
8.06286e-07
-3.14127e-09
5.0301e-09
8.02133e-07
-2.99968e-09
4.21548e-09
7.98722e-07
-2.80587e-09
3.09669e-09
7.9542e-07
-2.1019e-09
1.40301e-09
7.89292e-07
8.06699e-10
-1.26091e-09
1.38955e-08
-5.61068e-09
6.3138e-07
3.58749e-09
6.14563e-07
2.26453e-08
5.86444e-07
2.43753e-08
5.61723e-07
1.88536e-08
5.39613e-07
1.55669e-08
5.2063e-07
1.35058e-08
5.0468e-07
1.19441e-08
4.9092e-07
1.07866e-08
4.78686e-07
9.92477e-09
4.67584e-07
9.19883e-09
4.57372e-07
8.54675e-09
4.47897e-07
7.94048e-09
4.39033e-07
7.36366e-09
4.3068e-07
6.7897e-09
4.22775e-07
6.16387e-09
4.15416e-07
5.35969e-09
4.08804e-07
4.23894e-09
4.03732e-07
2.18588e-09
4.03179e-07
-2.36544e-09
-1.29679e-08
8.90375e-07
6.33235e-09
2.85259e-09
8.82486e-07
1.71257e-08
1.34084e-08
8.7036e-07
1.86355e-08
1.7867e-08
8.55114e-07
1.71464e-08
1.69546e-08
8.39987e-07
1.53591e-08
1.53385e-08
8.25544e-07
1.37883e-08
1.41662e-08
8.11785e-07
1.23399e-08
1.33726e-08
7.98807e-07
1.11168e-08
1.26635e-08
7.86763e-07
1.013e-08
1.18664e-08
7.75669e-07
9.33199e-09
1.10072e-08
7.65399e-07
8.71886e-09
1.01761e-08
7.55825e-07
8.25578e-09
9.38629e-09
7.46862e-07
7.89117e-09
8.63424e-09
7.38504e-07
7.5731e-09
7.8883e-09
7.30851e-07
7.24095e-09
7.07652e-09
7.24215e-07
6.76965e-09
6.02516e-09
7.19107e-07
5.95645e-09
4.51958e-09
7.1606e-07
4.33131e-09
2.18269e-09
7.15974e-07
1.48976e-09
-1.64068e-09
-5.09285e-09
-9.45261e-09
1.1589e-06
6.10251e-09
5.28147e-09
1.1657e-06
1.61826e-08
1.3999e-08
1.16845e-06
2.07057e-08
1.79785e-08
1.16661e-06
2.21034e-08
1.91798e-08
1.16222e-06
2.15034e-08
1.88774e-08
1.15655e-06
1.97667e-08
1.75472e-08
1.15049e-06
1.742e-08
1.56869e-08
1.1446e-06
1.532e-08
1.38867e-08
1.13918e-06
1.36131e-08
1.22845e-08
1.13438e-06
1.22408e-08
1.08837e-08
1.13021e-06
1.11404e-08
9.72084e-09
1.12663e-06
1.02555e-08
8.76116e-09
1.12364e-06
9.51892e-09
7.94883e-09
1.12125e-06
8.8605e-09
7.22189e-09
1.11946e-06
8.21268e-09
6.50594e-09
1.11829e-06
7.47717e-09
5.72059e-09
1.11767e-06
6.50694e-09
4.74618e-09
1.11714e-06
5.1241e-09
3.43712e-09
1.11557e-06
3.22871e-09
1.62861e-09
7.01429e-10
-1.31028e-09
1.37712e-06
4.57723e-09
4.57756e-09
1.38565e-06
1.19169e-08
1.19178e-08
1.39417e-06
1.64465e-08
1.64483e-08
1.40126e-06
1.85597e-08
1.85627e-08
1.40641e-06
1.89282e-08
1.89331e-08
1.40951e-06
1.82184e-08
1.8226e-08
1.41094e-06
1.67095e-08
1.6722e-08
1.41152e-06
1.50323e-08
1.50519e-08
1.4118e-06
1.34813e-08
1.35131e-08
1.41205e-06
1.21323e-08
1.21831e-08
1.41243e-06
1.09733e-08
1.10549e-08
1.41306e-06
9.98309e-09
1.01139e-08
1.41398e-06
9.12439e-09
9.33509e-09
1.41522e-06
8.35135e-09
8.68719e-09
1.41678e-06
7.62083e-09
8.14226e-09
1.41861e-06
6.88311e-09
7.6782e-09
1.42062e-06
6.07189e-09
7.26409e-09
1.42252e-06
5.1485e-09
6.87533e-09
1.42388e-06
4.118e-09
6.47557e-09
3.26469e-09
6.12113e-09
1.53312e-06
2.36619e-09
3.6497e-09
1.54218e-06
6.23927e-09
9.635e-09
1.55327e-06
8.87417e-09
1.36939e-08
1.56445e-06
1.03486e-08
1.59405e-08
1.57506e-06
1.0902e-08
1.6918e-08
1.5847e-06
1.07581e-08
1.6955e-08
1.59298e-06
1.0149e-08
1.63912e-08
1.60004e-06
9.34038e-09
1.54692e-08
1.60618e-06
8.47456e-09
1.438e-08
1.61164e-06
7.66313e-09
1.33055e-08
1.61667e-06
6.95281e-09
1.2346e-08
1.62143e-06
6.34398e-09
1.15347e-08
1.62601e-06
5.81565e-09
1.08832e-08
1.63048e-06
5.34853e-09
1.03925e-08
1.63487e-06
4.93034e-09
1.00638e-08
1.63923e-06
4.55711e-09
9.90359e-09
1.64357e-06
4.21755e-09
9.92654e-09
1.64798e-06
3.91095e-09
1.01408e-08
1.65261e-06
3.62942e-09
1.05021e-08
3.45808e-09
1.0874e-08
1.61424e-06
1.861e-13
3.09311e-09
1.62332e-06
4.44224e-13
8.27482e-09
1.63533e-06
7.81991e-13
1.19586e-08
1.6482e-06
1.3999e-12
1.4117e-08
1.66117e-06
2.51211e-12
1.52044e-08
1.67385e-06
4.13505e-12
1.55892e-08
1.68572e-06
6.84596e-12
1.54387e-08
1.69653e-06
1.09847e-11
1.49712e-08
1.70626e-06
1.81702e-11
1.43042e-08
1.71506e-06
3.04716e-11
1.35413e-08
1.72311e-06
5.02686e-11
1.2775e-08
1.73055e-06
8.05665e-11
1.20769e-08
1.73757e-06
1.24727e-10
1.15013e-08
1.74427e-06
1.91657e-10
1.10805e-08
1.7507e-06
2.95009e-10
1.08289e-08
1.75688e-06
4.51502e-10
1.07557e-08
1.76288e-06
6.81582e-10
1.08808e-08
1.76882e-06
1.00123e-09
1.12072e-08
1.77488e-06
1.42691e-09
1.16668e-08
1.92885e-09
1.20728e-08
1.61424e-06
-2.36607e-09
3.09293e-09
1.62332e-06
-6.239e-09
8.27429e-09
1.63534e-06
-8.87368e-09
1.19575e-08
1.6482e-06
-1.03477e-08
1.4115e-08
1.66118e-06
-1.09007e-08
1.52007e-08
1.67387e-06
-1.07562e-08
1.55833e-08
1.68575e-06
-1.01457e-08
1.54302e-08
1.69657e-06
-9.33441e-09
1.49586e-08
1.70633e-06
-8.46432e-09
1.42847e-08
1.71516e-06
-7.64391e-09
1.35103e-08
1.72327e-06
-6.91807e-09
1.27246e-08
1.7308e-06
-6.28585e-09
1.19947e-08
1.73793e-06
-5.72721e-09
1.13681e-08
1.7448e-06
-5.21703e-09
1.08669e-08
1.75148e-06
-4.72507e-09
1.04941e-08
1.75803e-06
-4.22971e-09
1.02505e-08
1.76448e-06
-3.6982e-09
1.01263e-08
1.77092e-06
-3.10221e-09
1.01075e-08
1.77745e-06
-2.39149e-09
1.01482e-08
-1.54111e-09
1.01799e-08
1.53312e-06
-4.57756e-09
3.64927e-09
1.54218e-06
-1.19178e-08
9.63379e-09
1.55328e-06
-1.64483e-08
1.36916e-08
1.56446e-06
-1.85627e-08
1.59363e-08
1.57508e-06
-1.89331e-08
1.6911e-08
1.58472e-06
-1.82259e-08
1.69441e-08
1.59302e-06
-1.67219e-08
1.63745e-08
1.6001e-06
-1.50518e-08
1.54424e-08
1.60627e-06
-1.35131e-08
1.43385e-08
1.61179e-06
-1.2183e-08
1.32408e-08
1.61691e-06
-1.10548e-08
1.22419e-08
1.62181e-06
-1.01137e-08
1.13675e-08
1.6266e-06
-9.33486e-09
1.06123e-08
1.63138e-06
-8.6871e-09
9.95808e-09
1.63623e-06
-8.14214e-09
9.38093e-09
1.6412e-06
-7.67769e-09
8.84959e-09
1.64631e-06
-7.26302e-09
8.33354e-09
1.6516e-06
-6.87319e-09
7.80003e-09
1.65709e-06
-6.47028e-09
7.24643e-09
-6.1054e-09
6.736e-09
1.37712e-06
-6.10286e-09
4.57724e-09
1.38565e-06
-1.61839e-08
1.19169e-08
1.39417e-06
-2.07087e-08
1.64466e-08
1.40126e-06
-2.21081e-08
1.85598e-08
1.40641e-06
-2.15105e-08
1.89283e-08
1.40951e-06
-1.97768e-08
1.82185e-08
1.41094e-06
-1.74364e-08
1.67097e-08
1.41152e-06
-1.53484e-08
1.50326e-08
1.4118e-06
-1.36613e-08
1.34816e-08
1.41205e-06
-1.23203e-08
1.21326e-08
1.41243e-06
-1.12713e-08
1.09737e-08
1.41306e-06
-1.04684e-08
9.98353e-09
1.41398e-06
-9.86457e-09
9.12491e-09
1.41522e-06
-9.41771e-09
8.3521e-09
1.41678e-06
-9.10565e-09
7.62157e-09
1.41861e-06
-8.91841e-09
6.88345e-09
1.42062e-06
-8.83205e-09
6.07148e-09
1.42253e-06
-8.80314e-09
5.14665e-09
1.42389e-06
-8.71129e-09
4.11218e-09
-8.94431e-09
3.24739e-09
1.1589e-06
-6.33245e-09
5.28133e-09
1.16569e-06
-1.71264e-08
1.39988e-08
1.16844e-06
-1.86373e-08
1.79782e-08
1.16661e-06
-1.71494e-08
1.91793e-08
1.1622e-06
-1.53635e-08
1.88765e-08
1.15653e-06
-1.37942e-08
1.75451e-08
1.15045e-06
-1.23494e-08
1.56844e-08
1.14453e-06
-1.11334e-08
1.38846e-08
1.13906e-06
-1.01569e-08
1.22798e-08
1.13418e-06
-9.37631e-09
1.08745e-08
1.12986e-06
-8.79347e-09
9.70483e-09
1.12606e-06
-8.38499e-09
8.73101e-09
1.12274e-06
-8.11352e-09
7.89118e-09
1.11983e-06
-7.94933e-09
7.12557e-09
1.11728e-06
-7.88783e-09
6.36362e-09
1.11499e-06
-7.94839e-09
5.54131e-09
1.11284e-06
-8.1607e-09
4.57456e-09
1.11059e-06
-8.52871e-09
3.37939e-09
1.10765e-06
-8.89412e-09
1.85373e-09
-1.36091e-08
5.19529e-10
8.90374e-07
2.85256e-09
8.82485e-07
1.34084e-08
8.70356e-07
1.7867e-08
8.55106e-07
1.69546e-08
8.3997e-07
1.53391e-08
8.25513e-07
1.41683e-08
8.11731e-07
1.33768e-08
7.98715e-07
1.267e-08
7.86605e-07
1.18778e-08
7.75401e-07
1.10261e-08
7.64948e-07
1.0206e-08
7.55069e-07
9.43507e-09
7.456e-07
8.71856e-09
7.36402e-07
8.03877e-09
7.27336e-07
7.34163e-09
7.18219e-07
6.52836e-09
7.08783e-07
5.51432e-09
6.98365e-07
4.07567e-09
6.85275e-07
1.8296e-09
2.19777e-09
1.07432e-06
5.56894e-09
1.06467e-09
1.06824e-06
1.39004e-08
5.5861e-09
1.06138e-06
1.62619e-08
8.46326e-09
1.05339e-06
1.59084e-08
9.03852e-09
1.04511e-06
1.50008e-08
8.6152e-09
1.03723e-06
1.3931e-08
8.11529e-09
1.02985e-06
1.29737e-08
7.77685e-09
1.02287e-06
1.21092e-08
7.53707e-09
1.01606e-06
1.13357e-08
7.3385e-09
1.00936e-06
1.0675e-08
7.03291e-09
1.00281e-06
1.0168e-08
6.55918e-09
9.96407e-07
9.78279e-09
6.00614e-09
9.90134e-07
9.48672e-09
5.4204e-09
9.83989e-07
9.25406e-09
4.77952e-09
9.7798e-07
9.04507e-09
4.04021e-09
9.72147e-07
8.79904e-09
3.05965e-09
9.66548e-07
8.44563e-09
1.67336e-09
9.61199e-07
7.90929e-09
-3.78222e-10
9.5558e-07
7.20368e-09
-3.22457e-09
6.05077e-09
-7.49574e-09
1.32763e-06
4.93111e-09
2.71814e-09
1.3354e-06
1.3009e-08
7.12066e-09
1.34287e-06
1.72158e-08
9.5531e-09
1.34848e-06
1.8899e-08
1.05772e-08
1.35198e-06
1.95004e-08
1.08735e-08
1.35377e-06
1.91139e-08
1.0577e-08
1.35445e-06
1.80987e-08
9.8854e-09
1.3546e-06
1.68079e-08
9.0348e-09
1.35459e-06
1.54583e-08
8.17402e-09
1.35457e-06
1.42228e-08
7.35771e-09
1.35461e-06
1.32265e-08
6.61557e-09
1.35479e-06
1.24337e-08
5.93557e-09
1.35512e-06
1.17961e-08
5.30382e-09
1.35565e-06
1.12706e-08
4.67842e-09
1.35641e-06
1.08112e-08
3.98214e-09
1.35741e-06
1.03667e-08
3.15439e-09
1.35861e-06
9.88385e-09
2.10823e-09
1.3599e-06
9.31346e-09
7.43084e-10
1.36113e-06
8.65196e-09
-1.05078e-09
7.85531e-09
-3.34194e-09
1.53312e-06
3.64926e-09
2.36607e-09
1.54218e-06
9.63375e-09
6.239e-09
1.55328e-06
1.36915e-08
8.87368e-09
1.56446e-06
1.59362e-08
1.03477e-08
1.57508e-06
1.69109e-08
1.09007e-08
1.58472e-06
1.69439e-08
1.07562e-08
1.59302e-06
1.63743e-08
1.01457e-08
1.6001e-06
1.54422e-08
9.33444e-09
1.60627e-06
1.43382e-08
8.46435e-09
1.61179e-06
1.32404e-08
7.64395e-09
1.61691e-06
1.22415e-08
6.91813e-09
1.62181e-06
1.13669e-08
6.28594e-09
1.6266e-06
1.06116e-08
5.72732e-09
1.63138e-06
9.95729e-09
5.21719e-09
1.63623e-06
9.38014e-09
4.72537e-09
1.6412e-06
8.84891e-09
4.23024e-09
1.64631e-06
8.33311e-09
3.69917e-09
1.6516e-06
7.80037e-09
3.10398e-09
1.65708e-06
7.2486e-09
2.39487e-09
6.74219e-09
1.54738e-09
1.68027e-06
1.89107e-09
1.89125e-09
1.68934e-06
5.09938e-09
5.09994e-09
1.7018e-06
7.46426e-09
7.46532e-09
1.71578e-06
8.94604e-09
8.9478e-09
1.73022e-06
9.69281e-09
9.69566e-09
1.74439e-06
9.86045e-09
9.86501e-09
1.75785e-06
9.65142e-09
9.65837e-09
1.77035e-06
9.19772e-09
9.20813e-09
1.78183e-06
8.61121e-09
8.62649e-09
1.79239e-06
7.98498e-09
8.00767e-09
1.80217e-06
7.38281e-09
7.41758e-09
1.81135e-06
6.83527e-09
6.89021e-09
1.82006e-06
6.35011e-09
6.43893e-09
1.82842e-06
5.92267e-09
6.06566e-09
1.83655e-06
5.5428e-09
5.76507e-09
1.84458e-06
5.20218e-09
5.52694e-09
1.8526e-06
4.89384e-09
5.34478e-09
1.86073e-06
4.60158e-09
5.20453e-09
1.86909e-06
4.3238e-09
5.07459e-09
4.11296e-09
4.88229e-09
1.7569e-06
2.87381e-14
1.61341e-09
1.76589e-06
1.05353e-14
4.38463e-09
1.77878e-06
-1.91087e-14
6.53272e-09
1.79389e-06
-5.19393e-14
7.95259e-09
1.81003e-06
-1.08301e-13
8.75805e-09
1.82639e-06
-2.04007e-13
9.08919e-09
1.8424e-06
-2.79315e-13
9.0772e-09
1.85773e-06
-4.22351e-14
8.84334e-09
1.87217e-06
6.27927e-13
8.47312e-09
1.88566e-06
1.80456e-12
8.03334e-09
1.89824e-06
3.26615e-12
7.57647e-09
1.91001e-06
4.5259e-12
7.14152e-09
1.9211e-06
4.67911e-12
6.75591e-09
1.93166e-06
3.47424e-12
6.43841e-09
1.94182e-06
2.95164e-12
6.20311e-09
1.95172e-06
9.57788e-12
6.05717e-09
1.96146e-06
2.84611e-11
6.00041e-09
1.97119e-06
6.4167e-11
6.01976e-09
1.98099e-06
1.1314e-10
6.07084e-09
1.80477e-10
6.04872e-09
1.7569e-06
-1.89124e-09
1.61327e-09
1.76589e-06
-5.09994e-09
4.38424e-09
1.77878e-06
-7.46533e-09
6.53194e-09
1.79389e-06
-8.9478e-09
7.95123e-09
1.81003e-06
-9.69566e-09
8.75584e-09
1.8264e-06
-9.865e-09
9.08578e-09
1.84241e-06
-9.65837e-09
9.07219e-09
1.85774e-06
-9.20813e-09
8.83598e-09
1.87219e-06
-8.62649e-09
8.4621e-09
1.8857e-06
-8.00766e-09
8.01655e-09
1.89829e-06
-7.41757e-09
7.55054e-09
1.91008e-06
-6.89019e-09
7.10113e-09
1.9212e-06
-6.4389e-09
6.69274e-09
1.93179e-06
-6.06565e-09
6.33969e-09
1.94201e-06
-5.76506e-09
6.05042e-09
1.95196e-06
-5.52692e-09
5.83063e-09
1.96178e-06
-5.34476e-09
5.67755e-09
1.97158e-06
-5.20459e-09
5.58064e-09
1.9814e-06
-5.0749e-09
5.51803e-09
-4.88331e-09
5.46243e-09
1.68027e-06
-3.64969e-09
1.89108e-09
1.68934e-06
-9.63499e-09
5.09943e-09
1.7018e-06
-1.36939e-08
7.46434e-09
1.71578e-06
-1.59404e-08
8.94615e-09
1.73022e-06
-1.6918e-08
9.69297e-09
1.74439e-06
-1.6955e-08
9.86067e-09
1.75785e-06
-1.63912e-08
9.6517e-09
1.77035e-06
-1.54692e-08
9.19807e-09
1.78183e-06
-1.43799e-08
8.61163e-09
1.79239e-06
-1.33055e-08
7.98547e-09
1.80217e-06
-1.23459e-08
7.38339e-09
1.81135e-06
-1.15346e-08
6.83595e-09
1.82006e-06
-1.0883e-08
6.35089e-09
1.82842e-06
-1.03924e-08
5.92356e-09
1.83655e-06
-1.00636e-08
5.54375e-09
1.84458e-06
-9.90325e-09
5.20307e-09
1.8526e-06
-9.92597e-09
4.89466e-09
1.86073e-06
-1.014e-08
4.6021e-09
1.86908e-06
-1.05013e-08
4.3238e-09
-1.08744e-08
4.11219e-09
1.53312e-06
-4.9314e-09
2.3662e-09
1.54218e-06
-1.30099e-08
6.23931e-09
1.55327e-06
-1.72177e-08
8.87424e-09
1.56445e-06
-1.89035e-08
1.03487e-08
1.57506e-06
-1.95085e-08
1.09021e-08
1.5847e-06
-1.91264e-08
1.07583e-08
1.59298e-06
-1.81179e-08
1.01493e-08
1.60004e-06
-1.68384e-08
9.34068e-09
1.60618e-06
-1.55053e-08
8.47492e-09
1.61164e-06
-1.42994e-08
7.66356e-09
1.61667e-06
-1.33582e-08
6.95331e-09
1.62143e-06
-1.26538e-08
6.34453e-09
1.62601e-06
-1.21562e-08
5.81626e-09
1.63048e-06
-1.18561e-08
5.34926e-09
1.63487e-06
-1.17669e-08
4.9311e-09
1.63922e-06
-1.19297e-08
4.55757e-09
1.64356e-06
-1.24127e-08
4.21756e-09
1.64797e-06
-1.33088e-08
3.91016e-09
1.65259e-06
-1.46408e-08
3.62737e-09
-1.63467e-08
3.45499e-09
1.32762e-06
-5.56894e-09
2.71845e-09
1.33539e-06
-1.39005e-08
7.12149e-09
1.34286e-06
-1.62627e-08
9.55459e-09
1.34847e-06
-1.59109e-08
1.05801e-08
1.35196e-06
-1.50055e-08
1.08788e-08
1.35373e-06
-1.39384e-08
1.05862e-08
1.35438e-06
-1.29847e-08
9.90073e-09
1.3545e-06
-1.21269e-08
9.06036e-09
1.35442e-06
-1.13654e-08
8.21728e-09
1.35428e-06
-1.07261e-08
7.43566e-09
1.35414e-06
-1.02564e-08
6.75113e-09
1.35399e-06
-9.93729e-09
6.15955e-09
1.35383e-06
-9.75249e-09
5.64572e-09
1.35361e-06
-9.71226e-09
5.2074e-09
1.35321e-06
-9.84614e-09
4.83611e-09
1.35252e-06
-1.02254e-08
4.53351e-09
1.35139e-06
-1.10137e-08
4.30665e-09
1.34978e-06
-1.24979e-08
4.17976e-09
1.3478e-06
-1.49854e-08
4.17366e-09
-2.25036e-08
4.69288e-09
1.07432e-06
1.06497e-09
1.06824e-06
5.58718e-09
1.06137e-06
8.4653e-09
1.05338e-06
9.04199e-09
1.04509e-06
8.6217e-09
1.03719e-06
8.12739e-09
1.02978e-06
7.79861e-09
1.02275e-06
7.5746e-09
1.01586e-06
7.40356e-09
1.00902e-06
7.14113e-09
1.00223e-06
6.73629e-09
9.95438e-07
6.29468e-09
9.88509e-07
5.89515e-09
9.81268e-07
5.56751e-09
9.73423e-07
5.3404e-09
9.64485e-07
5.24094e-09
9.53607e-07
5.37811e-09
9.39386e-07
5.79914e-09
9.19242e-07
6.98869e-09
1.19473e-08
1.16914e-06
4.90662e-09
-1.35331e-13
1.16312e-06
1.16087e-08
-6.53715e-13
1.15731e-06
1.4276e-08
-1.52769e-12
1.15202e-06
1.43342e-08
-2.72974e-12
1.14691e-06
1.37308e-08
-4.68845e-12
1.14206e-06
1.29695e-08
-8.20492e-12
1.13775e-06
1.21007e-08
-1.45057e-11
1.13401e-06
1.13075e-08
-2.48774e-11
1.13074e-06
1.06482e-08
-4.23733e-11
1.12766e-06
1.01859e-08
-7.13333e-11
1.12445e-06
9.88769e-09
-1.19222e-10
1.12098e-06
9.6762e-09
-1.98351e-10
1.11718e-06
9.5507e-09
-3.30097e-10
1.11298e-06
9.52649e-09
-5.48465e-10
1.10831e-06
9.60992e-09
-9.00466e-10
1.10306e-06
9.78989e-09
-1.48353e-09
1.09713e-06
1.00853e-08
-2.47952e-09
1.09029e-06
1.05023e-08
-4.04535e-09
1.08276e-06
1.10398e-08
-6.73336e-09
1.16967e-08
-1.22006e-08
1.41518e-06
4.19299e-09
-2.58443e-13
1.42279e-06
1.11163e-08
-7.45565e-13
1.43152e-06
1.50993e-08
-1.27935e-12
1.4398e-06
1.66304e-08
-2.35759e-12
1.44714e-06
1.72769e-08
-4.40037e-12
1.45318e-06
1.75118e-08
-7.72906e-12
1.45802e-06
1.71555e-08
-1.27738e-11
1.46195e-06
1.64401e-08
-2.09761e-11
1.46525e-06
1.55539e-08
-3.53443e-11
1.46818e-06
1.46727e-08
-6.11278e-11
1.47093e-06
1.38595e-08
-1.04247e-10
1.47356e-06
1.31575e-08
-1.7419e-10
1.47605e-06
1.26445e-08
-2.80576e-10
1.47837e-06
1.23291e-08
-4.44788e-10
1.48051e-06
1.21596e-08
-7.04906e-10
1.48245e-06
1.21092e-08
-1.10614e-09
1.48416e-06
1.21967e-08
-1.71201e-09
1.48556e-06
1.2445e-08
-2.60708e-09
1.48659e-06
1.28614e-08
-3.90068e-09
1.33901e-08
-5.67264e-09
1.61424e-06
3.09292e-09
-1.8532e-13
1.62332e-06
8.27425e-09
-4.4636e-13
1.63534e-06
1.19575e-08
-7.8384e-13
1.6482e-06
1.41149e-08
-1.39938e-12
1.66118e-06
1.52006e-08
-2.50977e-12