/*--------------------------------*- C++ -*----------------------------------*\
| =========                 |                                                 |
| \\      /  F ield         | OpenFOAM: The Open Source CFD Toolbox           |
|  \\    /   O peration     | Version:  2212                                  |
|   \\  /    A nd           | Website:  www.openfoam.com                      |
|    \\/     M anipulation  |                                                 |
\*---------------------------------------------------------------------------*/
FoamFile
{
    version     2.0;
    format      ascii;
    arch        "LSB;label=32;scalar=64";
    class       surfaceVectorField;
    location    "2.05";
    object      Uf;
}
// * * * * * * * * * * * * * * * * * * * * * * * * * * * * * * * * * * * * * //

dimensions      [0 1 -1 0 0 0 0];

internalField   nonuniform List<vector> 
19019
(
(0.0993441 -0.00341904 -0.00341899)
(0.0973536 0.00106247 -0.00148427)
(0.0973536 -0.00148428 0.00106248)
(0.0834792 0.0019758 0.00197594)
(0.0930872 0.00326892 0.00253353)
(0.0930872 0.00253344 0.00326905)
(0.0745172 0.00195859 0.00195886)
(0.0848641 0.00163572 0.00179247)
(0.0848641 0.00179229 0.00163594)
(0.0685478 0.00115882 0.00115936)
(0.0786281 0.00107328 0.00122163)
(0.0786282 0.00122125 0.0010737)
(0.0642361 0.000696534 0.000697472)
(0.074053 0.000784878 0.000865558)
(0.0740532 0.000864935 0.000785724)
(0.0607568 0.000493909 0.000495767)
(0.0704424 0.000649784 0.000670059)
(0.0704428 0.000669006 0.000651138)
(0.0579375 0.000373108 0.000376581)
(0.0674915 0.000545251 0.000510059)
(0.0674921 0.000507945 0.00054798)
(0.0556142 0.000285122 0.000290902)
(0.0650506 0.000466281 0.000390004)
(0.0650518 0.000386479 0.000471011)
(0.0536251 0.000222319 0.000231767)
(0.0629655 0.000410843 0.000312005)
(0.0629677 0.000306278 0.000418807)
(0.0518806 0.000175273 0.000191061)
(0.0611308 0.000365292 0.000261789)
(0.0611346 0.000252406 0.000378677)
(0.0503317 0.000137888 0.000164252)
(0.0594868 0.000321949 0.00023152)
(0.0594936 0.00021484 0.000344614)
(0.0489461 0.000105168 0.000147746)
(0.0579993 0.000278386 0.000215249)
(0.0580116 0.000187202 0.000316021)
(0.0476947 7.24309e-05 0.000139235)
(0.056641 0.000234889 0.000208039)
(0.0566627 0.000165482 0.000296025)
(0.0465579 3.63449e-05 0.000138464)
(0.0553898 0.000187315 0.000207114)
(0.0554264 0.000146848 0.000286503)
(0.0455374 1.87835e-06 0.000147441)
(0.0542348 0.00012661 0.000212309)
(0.0542949 0.000125837 0.000286778)
(0.0446496 -5.62282e-05 0.000172692)
(0.0531837 4.74145e-05 0.000225235)
(0.0532838 9.75636e-05 0.000295468)
(0.0439497 -0.000181899 0.000211605)
(0.0522667 -7.55359e-05 0.000261886)
(0.0524419 2.79503e-05 0.000325303)
(0.0436971 -0.000393177 0.000222749)
(0.0515803 -0.000307013 0.000285024)
(0.0519082 -0.000129836 0.000367597)
(0.0445268 -0.00174373 -0.000695725)
(0.051558 -0.000779595 0.00019282)
(0.0522092 -0.00037331 0.000388297)
(0.0502873 -0.00361129 -0.00158779)
(0.0505849 -0.00204893 -0.000807329)
(0.0984572 0.00247639 0.00172993)
(0.0996871 0.000439211 0.000345491)
(0.100049 0.00105637 0.000750988)
(0.0958348 0.00314794 0.00243278)
(0.0978161 0.00273267 0.00228234)
(0.0982936 0.00280914 0.00216158)
(0.0914499 0.00223014 0.00186953)
(0.0954959 0.00300154 0.00230328)
(0.0963039 0.00244248 0.00199802)
(0.0875949 0.00167425 0.00150584)
(0.0926189 0.00229906 0.00183907)
(0.0936667 0.00198042 0.00172737)
(0.0841471 0.00143942 0.00127627)
(0.0897667 0.00189136 0.00153609)
(0.0909044 0.00171917 0.00149847)
(0.0811869 0.0012643 0.00102979)
(0.0872311 0.00165557 0.00129537)
(0.088434 0.00145359 0.00121289)
(0.0786997 0.00110823 0.000795683)
(0.0850049 0.00149046 0.00107835)
(0.0863042 0.00118181 0.000910583)
(0.0765539 0.000988776 0.000628054)
(0.0830579 0.00136894 0.000915284)
(0.0844794 0.0009802 0.000693998)
(0.0746461 0.000899327 0.000523028)
(0.0813194 0.00127414 0.000804952)
(0.082878 0.000840375 0.000554195)
(0.0729149 0.000821013 0.000461446)
(0.0797377 0.00118647 0.000731942)
(0.0814442 0.000736174 0.000464908)
(0.0713224 0.000742377 0.000428235)
(0.078283 0.00109892 0.000688812)
(0.0801451 0.000647729 0.000408648)
(0.0698449 0.000662584 0.000411899)
(0.0769312 0.00101037 0.00066697)
(0.0789537 0.000566799 0.000373803)
(0.0684627 0.000583002 0.000405785)
(0.0756613 0.000921118 0.000658969)
(0.0778503 0.000494471 0.000355804)
(0.06716 0.000494927 0.000408225)
(0.0744565 0.000828236 0.000661471)
(0.0768254 0.000425971 0.000351631)
(0.0659273 0.000373598 0.000418406)
(0.0733029 0.000722233 0.000676178)
(0.0758734 0.000345987 0.000362165)
(0.0647796 0.00019805 0.000436551)
(0.0721935 0.0005821 0.000705004)
(0.0749959 0.000227186 0.000389846)
(0.0637484 -7.39218e-05 0.000442654)
(0.071128 0.000384902 0.000750027)
(0.0742037 5.42633e-05 0.000432085)
(0.0629571 -0.000603935 0.000358801)
(0.0701128 4.24631e-05 0.00078467)
(0.0735189 -0.000245139 0.000445448)
(0.0628695 -0.00215835 -0.000284116)
(0.0692661 -0.000665859 0.000732753)
(0.0730316 -0.000897122 0.000251851)
(0.0678357 -0.00231317 0.000604456)
(0.0721381 -0.00287594 -0.00102614)
(0.0993753 0.00118209 0.00107259)
(0.099473 0.000349748 0.000307064)
(0.0997475 0.000610961 0.000779899)
(0.0984947 0.00229598 0.00203204)
(0.0990504 0.00157677 0.00172051)
(0.0995971 0.00201824 0.00200298)
(0.097141 0.00247631 0.00204885)
(0.0983576 0.00213106 0.00216902)
(0.0992971 0.00246141 0.00210266)
(0.0954389 0.00224669 0.00176775)
(0.0971929 0.00203571 0.00200266)
(0.0984879 0.00237424 0.00190303)
(0.0937496 0.00201999 0.00152294)
(0.0959044 0.00185559 0.00175471)
(0.0974216 0.00218048 0.00168931)
(0.0921361 0.00186346 0.00134533)
(0.0946704 0.00173277 0.00154316)
(0.0963083 0.00198403 0.00150912)
(0.0905979 0.00175244 0.00121624)
(0.0934794 0.00165288 0.00138717)
(0.0952023 0.00180054 0.001344)
(0.089145 0.0016535 0.00111593)
(0.0923641 0.00157698 0.00126671)
(0.0941442 0.00164295 0.00120594)
(0.0877935 0.0015469 0.00103563)
(0.0913247 0.00148164 0.00117405)
(0.0931591 0.00150181 0.00109931)
(0.086543 0.00143453 0.000976704)
(0.0903304 0.00137118 0.00110719)
(0.0922501 0.0013698 0.00101965)
(0.0853764 0.00132401 0.000940874)
(0.0893916 0.00125961 0.00106436)
(0.0914153 0.00124874 0.000966703)
(0.0842737 0.00121744 0.000925192)
(0.0884971 0.00115034 0.0010421)
(0.0906436 0.00113863 0.000936942)
(0.0832169 0.00111078 0.00092606)
(0.0876295 0.00104514 0.00103654)
(0.0899219 0.00103533 0.000925922)
(0.0821902 0.000996413 0.000941948)
(0.0867724 0.00094167 0.00104649)
(0.0892384 0.000931194 0.000931368)
(0.0811783 0.000863298 0.000974948)
(0.0859078 0.000831487 0.00107349)
(0.0885823 0.00081731 0.00095519)
(0.0801605 0.000694655 0.00103177)
(0.0850115 0.000698544 0.00112302)
(0.0879413 0.00068182 0.00100378)
(0.0791069 0.000446067 0.00112059)
(0.0840429 0.00052683 0.00120947)
(0.0872975 0.000505558 0.00108723)
(0.0779433 2.86556e-07 0.0012339)
(0.0829188 0.000277545 0.00135577)
(0.0866138 0.000243159 0.0012194)
(0.076481 -0.00059001 0.00187513)
(0.0815262 -0.000108089 0.00157022)
(0.0858356 -0.000199975 0.00140408)
(0.0798464 -0.000315094 0.00264929)
(0.0850146 -0.000640518 0.00224581)
(0.0996493 0.0006503 0.00093143)
(0.0994625 0.000129392 0.000192522)
(0.0997993 0.000375123 0.000741368)
(0.0990854 0.00127891 0.00182777)
(0.0992625 0.000636932 0.00137065)
(0.0998409 0.00115037 0.00181425)
(0.098449 0.00154078 0.0021032)
(0.0989128 0.000973521 0.00200366)
(0.0999046 0.00153649 0.00209025)
(0.0977071 0.001547 0.00198914)
(0.0982947 0.00105022 0.0020508)
(0.099767 0.00163173 0.00202327)
(0.0969383 0.00148048 0.0017764)
(0.0976568 0.00100785 0.00189988)
(0.0995088 0.00160973 0.00189613)
(0.0962058 0.00142808 0.0015825)
(0.0970636 0.00096078 0.00169872)
(0.0991983 0.00154792 0.00175236)
(0.0955188 0.00139421 0.00143562)
(0.0965037 0.000934539 0.00152126)
(0.0988525 0.00147533 0.00162682)
(0.0948666 0.00135561 0.00132978)
(0.0959894 0.000919018 0.00138004)
(0.0985071 0.00139416 0.0015166)
(0.0942274 0.00129684 0.00126032)
(0.0955183 0.000906239 0.00128019)
(0.0981711 0.00130167 0.00142221)
(0.0935928 0.0012155 0.0012169)
(0.0950593 0.000875826 0.00122001)
(0.0978203 0.00119803 0.00134737)
(0.0929633 0.001121 0.00119189)
(0.0945966 0.000821594 0.00119018)
(0.0974756 0.00109279 0.00129732)
(0.0923328 0.00102443 0.00118274)
(0.0941269 0.000759631 0.00118179)
(0.0971361 0.000991701 0.00126832)
(0.0916901 0.000932332 0.00118877)
(0.0936412 0.000702017 0.00118763)
(0.0967937 0.000896772 0.00125772)
(0.0910184 0.000844882 0.00121279)
(0.0931231 0.000653045 0.00120748)
(0.0964398 0.000808298 0.00126694)
(0.0902907 0.000756897 0.00126198)
(0.0925538 0.000616024 0.00124786)
(0.0960605 0.000722168 0.00130095)
(0.0894614 0.00066318 0.00135229)
(0.0919066 0.000593771 0.00131759)
(0.095634 0.000632231 0.00137112)
(0.0884522 0.000559008 0.00151507)
(0.091136 0.000599982 0.00143269)
(0.0951241 0.000535565 0.00150165)
(0.0871325 0.000449343 0.00178632)
(0.0901543 0.000637544 0.00162701)
(0.0944654 0.00042834 0.0017347)
(0.0852631 0.000634269 0.00247574)
(0.0888424 0.000772875 0.00192351)
(0.093579 0.00032141 0.00211303)
(0.0874637 0.00139081 0.00268881)
(0.0926886 0.000600754 0.00315239)
(0.0996725 0.00015411 0.000629531)
(0.0993802 1.91432e-08 5.89587e-05)
(0.0997132 0.000103944 0.000687961)
(0.0991591 0.000353455 0.00154431)
(0.0992677 9.06552e-08 0.00120005)
(0.0998376 0.000341725 0.00162234)
(0.0986635 0.000458055 0.00194754)
(0.0989804 2.10412e-07 0.00188853)
(0.099963 0.000485638 0.00199145)
(0.0982121 0.000481381 0.00196068)
(0.0984746 3.78795e-07 0.00200651)
(0.0999917 0.000539922 0.00199671)
(0.0977759 0.000472564 0.00182488)
(0.0979955 6.53886e-07 0.00191471)
(0.100009 0.000546919 0.00191121)
(0.0973621 0.000459842 0.00164127)
(0.0975708 1.14775e-06 0.00173476)
(0.100007 0.000534402 0.00180456)
(0.0969935 0.000448716 0.00146832)
(0.0971809 2.03268e-06 0.0015473)
(0.0999805 0.000513029 0.00168321)
(0.0966723 0.000441154 0.00133003)
(0.0968309 3.48929e-06 0.00138857)
(0.0999378 0.000487666 0.00157304)
(0.0963905 0.000435439 0.00123615)
(0.0965304 5.9465e-06 0.00127007)
(0.0998966 0.000465605 0.0014821)
(0.0961223 0.000425108 0.00118841)
(0.0962751 1.00142e-05 0.00119961)
(0.0998623 0.000444914 0.00141963)
(0.0958393 0.000408273 0.00117586)
(0.0959995 1.67412e-05 0.00117263)
(0.0998058 0.000420398 0.00138157)
(0.0955269 0.000390148 0.00118322)
(0.0957034 2.78576e-05 0.00117135)
(0.099732 0.000394509 0.00135791)
(0.0951749 0.000377591 0.00120324)
(0.095384 4.63667e-05 0.00118204)
(0.0996374 0.00037284 0.00134991)
(0.0947695 0.000378932 0.00123949)
(0.0950271 7.70431e-05 0.00120211)
(0.0995083 0.000359862 0.00136187)
(0.0942928 0.000404096 0.00129996)
(0.0946201 0.000126492 0.00123783)
(0.0993341 0.000361786 0.00139834)
(0.0937174 0.000469268 0.00139258)
(0.0941496 0.000208401 0.00129423)
(0.0991044 0.000386305 0.00146406)
(0.0930006 0.000586251 0.00153435)
(0.0935961 0.00034833 0.00137663)
(0.0987972 0.000447834 0.0015739)
(0.0920761 0.000802642 0.00174352)
(0.0929217 0.00056832 0.00149769)
(0.098377 0.000550347 0.00175092)
(0.0908619 0.00135082 0.00210345)
(0.0920679 0.000946027 0.00166597)
(0.0978053 0.000749067 0.00200873)
(0.0912902 0.00171436 0.00195694)
(0.0974523 0.00125622 0.00243561)
(0.0996725 -0.000154 0.000629482)
(0.0994625 -0.000129352 0.000192492)
(0.0997132 -0.000103898 0.000687957)
(0.0991591 -0.000353166 0.00154428)
(0.0992625 -0.000636786 0.00137063)
(0.0998377 -0.000341543 0.00162232)
(0.0986637 -0.000457511 0.0019475)
(0.0989129 -0.000973249 0.00200358)
(0.0999631 -0.000485282 0.00199145)
(0.0982124 -0.000480431 0.00196055)
(0.0982952 -0.00104976 0.00205065)
(0.0999919 -0.000539293 0.00199667)
(0.0977767 -0.000470883 0.00182459)
(0.0976577 -0.00100698 0.00189961)
(0.100009 -0.000545786 0.001911)
(0.0973636 -0.000456833 0.00164079)
(0.0970655 -0.000959135 0.00169826)
(0.100008 -0.000532382 0.00180411)
(0.0969962 -0.000443452 0.00146754)
(0.096507 -0.000931541 0.00152065)
(0.0999823 -0.000509531 0.00168254)
(0.0966768 -0.000432146 0.00132861)
(0.0959952 -0.00091383 0.00137899)
(0.099941 -0.000481735 0.00157194)
(0.0963983 -0.000420218 0.00123353)
(0.0955283 -0.000897263 0.00127803)
(0.0999019 -0.000455489 0.00148019)
(0.0961355 -0.000399636 0.00118383)
(0.0950763 -0.000860966 0.00121563)
(0.099871 -0.000427658 0.00141639)
(0.0958619 -0.000365991 0.00116813)
(0.0946255 -0.000797347 0.00118216)
(0.0998204 -0.000391335 0.00137624)
(0.0955659 -0.000320205 0.00117017)
(0.094176 -0.000720248 0.00116745)
(0.0997564 -0.000346337 0.00134886)
(0.0952419 -0.000261851 0.00118091)
(0.0937244 -0.000637223 0.00116362)
(0.0996792 -0.000294406 0.00133402)
(0.0948839 -0.000188505 0.00120044)
(0.0932641 -0.000545499 0.00116715)
(0.0995801 -0.000232635 0.00133405)
(0.0944858 -9.11721e-05 0.0012321)
(0.0927911 -0.000439033 0.00117687)
(0.0994548 -0.000155768 0.00135016)
(0.0940384 5.08628e-05 0.00127827)
(0.0923033 -0.000297752 0.00119054)
(0.0993009 -5.27582e-05 0.00138138)
(0.0935326 0.000267212 0.00133996)
(0.0917993 -9.85365e-05 0.00120551)
(0.0991123 9.45625e-05 0.0014314)
(0.0929498 0.000598771 0.00142013)
(0.0912743 0.000195362 0.00121944)
(0.0988779 0.00030988 0.00150242)
(0.0923076 0.00112072 0.00151946)
(0.0907102 0.000603899 0.00124599)
(0.0985827 0.000625811 0.0015961)
(0.0900782 0.00121236 0.00124622)
(0.098371 0.00109112 0.00171492)
(0.0996493 -0.00065026 0.000931428)
(0.099473 -0.000349754 0.000307061)
(0.0997993 -0.000375115 0.000741369)
(0.0990855 -0.00127882 0.0018277)
(0.0990504 -0.0015768 0.00172047)
(0.0998409 -0.00115034 0.00181424)
(0.0984494 -0.00154061 0.00210304)
(0.0983578 -0.00213111 0.00216884)
(0.0999049 -0.00153642 0.00209015)
(0.097708 -0.00154661 0.00198886)
(0.0971935 -0.00203581 0.00200234)
(0.0997676 -0.00163156 0.00202294)
(0.0969402 -0.00147964 0.00177597)
(0.0959057 -0.00185562 0.00175424)
(0.09951 -0.00160936 0.00189552)
(0.0962093 -0.0014265 0.00158193)
(0.0946729 -0.00173265 0.00154245)
(0.0992006 -0.00154718 0.00175143)
(0.095525 -0.0013915 0.00143478)
(0.0934839 -0.00165254 0.00138612)
(0.0988566 -0.00147395 0.00162548)
(0.0948772 -0.00135095 0.00132808)
(0.0923719 -0.00157646 0.00126495)
(0.0985142 -0.00139181 0.00151444)
(0.0942458 -0.00128909 0.00125656)
(0.0913383 -0.00148073 0.00117094)
(0.098183 -0.00129765 0.0014186)
(0.0936242 -0.00120324 0.00120936)
(0.0903535 -0.0013698 0.00110144)
(0.0978404 -0.0011913 0.00134113)
(0.0930166 -0.00110175 0.00117775)
(0.0894306 -0.00125761 0.00105444)
(0.0975094 -0.00108203 0.00128637)
(0.0924226 -0.000993205 0.00115823)
(0.0885631 -0.00114746 0.00102434)
(0.0971935 -0.000974696 0.00124889)
(0.0918408 -0.000880187 0.00114798)
(0.0877404 -0.00103998 0.00100639)
(0.0968903 -0.000870019 0.00122386)
(0.0912707 -0.000758484 0.00114259)
(0.086958 -0.000931611 0.000995763)
(0.096599 -0.000764105 0.00120819)
(0.0907132 -0.000612144 0.0011357)
(0.0862176 -0.000813399 0.000985438)
(0.096321 -0.000648473 0.00119761)
(0.090172 -0.000416432 0.00111998)
(0.0855313 -0.00066251 0.000963196)
(0.0960588 -0.000506548 0.00118619)
(0.0896524 -0.000135462 0.00108902)
(0.0849251 -0.000450268 0.000915642)
(0.0958135 -0.000319497 0.00116692)
(0.0891561 0.000279645 0.00104724)
(0.0844348 -0.000129814 0.000804758)
(0.0955864 -5.55873e-05 0.00113428)
(0.0886346 0.000899058 0.000964887)
(0.0841175 0.000396004 0.000630196)
(0.0953781 0.00031784 0.00109579)
(0.0834175 0.00144398 0.000164237)
(0.0951304 0.00085001 0.00101947)
(0.0993753 -0.00118214 0.00107255)
(0.0996871 -0.000439235 0.00034548)
(0.0997475 -0.000610989 0.000779876)
(0.0984949 -0.00229612 0.00203187)
(0.0978162 -0.00273282 0.00228226)
(0.0995971 -0.00201834 0.00200285)
(0.0971414 -0.00247658 0.00204852)
(0.095496 -0.00300177 0.00230306)
(0.0992973 -0.00246162 0.00210234)
(0.0954398 -0.00224713 0.00176724)
(0.0926193 -0.00229947 0.00183866)
(0.0984885 -0.00237464 0.00190246)
(0.0937514 -0.0020207 0.00152222)
(0.0897676 -0.00189212 0.00153552)
(0.0974227 -0.00218113 0.00168847)
(0.0921394 -0.00186454 0.0013442)
(0.0872327 -0.00165683 0.00129446)
(0.0963103 -0.00198512 0.00150793)
(0.0906038 -0.00175413 0.00121436)
(0.0850078 -0.00149261 0.00107685)
(0.0952059 -0.0018022 0.00134209)
(0.0891554 -0.00165631 0.00111285)
(0.083063 -0.00137251 0.000912801)
(0.0941504 -0.00164552 0.00120268)
(0.087811 -0.00155157 0.00103059)
(0.0813284 -0.0012801 0.00080084)
(0.0931698 -0.00150621 0.00109397)
(0.0865728 -0.0014423 0.000968623)
(0.079753 -0.00119658 0.00072507)
(0.0922684 -0.00137731 0.00101077)
(0.0854266 -0.00133676 0.000927359)
(0.0783093 -0.00111636 0.000676581)
(0.0914462 -0.00126097 0.000951882)
(0.084358 -0.00123776 0.000901773)
(0.0769769 -0.00103914 0.000645728)
(0.090696 -0.00115869 0.000911597)
(0.0833576 -0.00114207 0.000885772)
(0.0757393 -0.0009661 0.000625673)
(0.0900083 -0.00106783 0.000882902)
(0.0824246 -0.00104327 0.000872481)
(0.0745871 -0.00089748 0.000612748)
(0.0893794 -0.000983258 0.00085939)
(0.0815704 -0.000930978 0.000850716)
(0.0735192 -0.000832406 0.000599755)
(0.088812 -0.000898236 0.00083389)
(0.0808294 -0.000785972 0.000804599)
(0.0725561 -0.000764871 0.000564898)
(0.0883177 -0.000800504 0.000791127)
(0.080259 -0.00056865 0.000691265)
(0.0717551 -0.000667223 0.000491608)
(0.0879207 -0.000668494 0.00070666)
(0.0799183 -0.000154742 0.000462861)
(0.071233 -0.000448861 0.00027213)
(0.0876465 -0.00046229 0.000521106)
(0.0799079 0.000836315 -8.21112e-05)
(0.0713198 -2.06808e-06 -0.000100686)
(0.0875315 -6.31319e-05 0.000207706)
(0.0697573 0.00142083 -0.001011)
(0.0871208 0.000901142 -0.000508545)
(0.0984572 -0.00247648 0.00172987)
(0.0973536 -0.00106248 -0.00148428)
(0.100049 -0.00105639 0.000750962)
(0.0958348 -0.00314813 0.00243262)
(0.0930872 -0.00326904 0.00253344)
(0.0982936 -0.00280928 0.00216143)
(0.09145 -0.00223046 0.00186923)
(0.0848641 -0.00163594 0.00179229)
(0.096304 -0.00244277 0.00199774)
(0.0875953 -0.0016749 0.00150535)
(0.0786282 -0.00107369 0.00122126)
(0.0936669 -0.00198092 0.00172686)
(0.0841478 -0.00144054 0.00127547)
(0.0740532 -0.000785712 0.00086494)
(0.0909047 -0.00172007 0.00149767)
(0.0811881 -0.00126623 0.00102841)
(0.0704427 -0.000651123 0.000669015)
(0.0884345 -0.00145508 0.00121144)
(0.0787019 -0.00111161 0.000793439)
(0.0674921 -0.000547958 0.00050796)
(0.0863051 -0.00118439 0.000908176)
(0.076558 -0.00099458 0.000624371)
(0.0650517 -0.000470984 0.0003865)
(0.084481 -0.000984575 0.00069001)
(0.0746534 -0.000909294 0.00051686)
(0.0629676 -0.000418774 0.000306305)
(0.082881 -0.000847872 0.000547442)
(0.0729277 -0.000838147 0.000450121)
(0.0611345 -0.000378637 0.000252441)
(0.0814494 -0.00074906 0.000453317)
(0.0713455 -0.000771221 0.000407865)
(0.0594936 -0.000344565 0.000214887)
(0.0801545 -0.000670366 0.000387272)
(0.069886 -0.000709567 0.000380234)
(0.0580115 -0.000315961 0.000187265)
(0.0789708 -0.000604135 0.000337671)
(0.0685337 -0.000658939 0.000363386)
(0.0566626 -0.000295947 0.000165557)
(0.0778803 -0.000552832 0.000300366)
(0.0672786 -0.000621129 0.000351948)
(0.0554262 -0.000286405 0.000146946)
(0.0768761 -0.000516594 0.000270841)
(0.0661236 -0.000591283 0.000325991)
(0.0542948 -0.000286645 0.000125955)
(0.0759568 -0.000493063 0.000236961)
(0.0651083 -0.000556007 0.000264247)
(0.0532837 -0.000295256 9.77429e-05)
(0.0751348 -0.00047792 0.000173129)
(0.0643264 -0.00047353 0.000101934)
(0.0524416 -0.000325027 2.82065e-05)
(0.0744467 -0.000455742 5.80963e-05)
(0.0640878 -0.000338821 -0.000197249)
(0.0519076 -0.000367122 -0.000129468)
(0.0739739 -0.000373993 -0.000209257)
(0.0650181 -7.19921e-05 -0.000673062)
(0.0522081 -0.000387435 -0.00037281)
(0.0739352 -0.000133988 -0.000832605)
(0.0505828 0.000808887 -0.00204677)
(0.0725511 0.000955292 -0.00290359)
(0.0993441 0.00341899 -0.00341903)
(0.0973536 0.00148427 0.00106247)
(0.0834792 -0.00197594 0.00197581)
(0.0930872 -0.00253353 0.00326892)
(0.0745172 -0.00195886 0.00195859)
(0.0848641 -0.00179247 0.00163572)
(0.0685478 -0.00115935 0.00115882)
(0.0786281 -0.00122162 0.00107329)
(0.0642361 -0.000697461 0.000696544)
(0.074053 -0.000865549 0.000784891)
(0.0607567 -0.00049575 0.000493925)
(0.0704424 -0.000670047 0.0006498)
(0.0579374 -0.000376556 0.000373133)
(0.0674915 -0.000510041 0.000545273)
(0.0556142 -0.000290871 0.000285154)
(0.0650505 -0.000389981 0.00046631)
(0.0536251 -0.000231732 0.000222359)
(0.0629655 -0.000311978 0.000410879)
(0.0518806 -0.000191018 0.000175322)
(0.0611308 -0.000261757 0.000365336)
(0.0503316 -0.0001642 0.000137952)
(0.0594867 -0.000231478 0.000322004)
(0.048946 -0.000147683 0.000105249)
(0.0579992 -0.000215196 0.000278452)
(0.0476947 -0.000139163 7.25421e-05)
(0.0566409 -0.000207972 0.000234964)
(0.0465578 -0.00013838 3.64734e-05)
(0.0553896 -0.000207043 0.000187432)
(0.0455372 -0.000147304 2.03436e-06)
(0.0542348 -0.000212224 0.000126767)
(0.0446495 -0.000172471 -5.59965e-05)
(0.0531837 -0.000225077 4.76399e-05)
(0.0439494 -0.000211255 -0.000181571)
(0.0522667 -0.000261653 -7.51936e-05)
(0.0436967 -0.000222205 -0.000392662)
(0.0515803 -0.000284661 -0.000306439)
(0.0445265 0.000696381 -0.0017417)
(0.0515582 -0.000192158 -0.000778717)
(0.0502871 0.00159012 -0.00361045)
(0.0984572 0.00172987 0.00247648)
(0.100049 0.000750962 0.00105639)
(0.0996871 0.00034548 0.000439237)
(0.0958348 0.00243262 0.00314813)
(0.0982936 0.00216143 0.00280928)
(0.0978162 0.00228226 0.00273282)
(0.09145 0.00186922 0.00223047)
(0.096304 0.00199773 0.00244277)
(0.095496 0.00230305 0.00300177)
(0.0875953 0.00150535 0.0016749)
(0.0936669 0.00172685 0.00198093)
(0.0926193 0.00183866 0.00229947)
(0.0841478 0.00127546 0.00144055)
(0.0909047 0.00149766 0.00172008)
(0.0897676 0.00153551 0.00189213)
(0.0811881 0.0010284 0.00126625)
(0.0884345 0.00121143 0.0014551)
(0.0872327 0.00129445 0.00165684)
(0.0787019 0.000793427 0.00111163)
(0.0863051 0.000908164 0.00118441)
(0.0850078 0.00107684 0.00149262)
(0.076558 0.000624354 0.000994604)
(0.0844811 0.000689994 0.000984597)
(0.0830631 0.000912785 0.00137252)
(0.0746535 0.000516837 0.000909323)
(0.082881 0.000547421 0.0008479)
(0.0813284 0.000800818 0.00128012)
(0.0729277 0.000450086 0.000838184)
(0.0814494 0.00045329 0.000749097)
(0.0797531 0.00072504 0.0011966)
(0.0713456 0.000407816 0.000771266)
(0.0801545 0.000387235 0.000670414)
(0.0783094 0.000676538 0.00111638)
(0.0698861 0.000380172 0.000709626)
(0.0789708 0.00033763 0.000604202)
(0.076977 0.000645667 0.00103917)
(0.0685339 0.000363324 0.00065903)
(0.0778804 0.000300335 0.000552934)
(0.0757394 0.00062559 0.000966124)
(0.0672788 0.000351857 0.000621269)
(0.0768763 0.000270776 0.000516699)
(0.0745873 0.000612669 0.000897556)
(0.0661238 0.000325831 0.00059147)
(0.075957 0.000236812 0.000493199)
(0.0735195 0.000599635 0.000832543)
(0.0651087 0.000264002 0.000556203)
(0.075135 0.000172938 0.000478153)
(0.0725565 0.000564693 0.000765009)
(0.064327 0.000101537 0.000473756)
(0.074447 5.78201e-05 0.000456019)
(0.0717557 0.000491289 0.000667318)
(0.0640892 -0.000197864 0.000339155)
(0.0739746 -0.000209743 0.000374362)
(0.0712341 0.000271574 0.000448897)
(0.0650211 -0.000674206 7.25275e-05)
(0.0739365 -0.000833405 0.000134608)
(0.0713219 -0.000101604 1.83624e-06)
(0.0725518 -0.00290479 -0.000953837)
(0.0697594 -0.00101266 -0.00142154)
(0.10008 0.00135174 0.00135183)
(0.100186 0.000798741 0.000804976)
(0.100186 0.000804937 0.00079878)
(0.100264 0.0022172 0.00221746)
(0.10019 0.00231179 0.0020716)
(0.10019 0.00207143 0.00231195)
(0.0993828 0.00243555 0.00243605)
(0.100306 0.00263358 0.00245336)
(0.100306 0.00245294 0.0026339)
(0.0979839 0.00230992 0.00231073)
(0.0998048 0.00256017 0.00245642)
(0.099805 0.00245571 0.00256075)
(0.0964948 0.0020056 0.00200698)
(0.0988624 0.00236408 0.00228165)
(0.0988628 0.00228057 0.002365)
(0.0950723 0.00159595 0.00159827)
(0.0978402 0.00204841 0.00196913)
(0.0978409 0.00196747 0.00205003)
(0.0937749 0.00122458 0.00122843)
(0.0968603 0.0016902 0.0016063)
(0.0968615 0.00160364 0.00169282)
(0.092617 0.000959145 0.000965686)
(0.0959576 0.00140288 0.00132432)
(0.0959596 0.00131978 0.00140717)
(0.0915928 0.000772754 0.000783998)
(0.0951448 0.00118857 0.00112343)
(0.0951483 0.00111568 0.00119597)
(0.0906864 0.000636451 0.000656361)
(0.0944203 0.00102642 0.000980011)
(0.0944265 0.00096684 0.00103915)
(0.0898777 0.000531341 0.000565168)
(0.093779 0.000899191 0.000878122)
(0.0937897 0.000855046 0.000920973)
(0.0891473 0.000448304 0.000501675)
(0.0932064 0.000795449 0.000807465)
(0.0932243 0.000769378 0.000831176)
(0.0884846 0.000379118 0.000460166)
(0.0926907 0.000706813 0.000761614)
(0.0927193 0.000701367 0.000763393)
(0.0878897 0.000309836 0.000435093)
(0.0922292 0.000622177 0.000734432)
(0.0922739 0.000640649 0.000710986)
(0.0873666 0.00022039 0.000424032)
(0.0918211 0.000528192 0.000724155)
(0.0918904 0.000574517 0.000668922)
(0.0869167 8.73688e-05 0.000422654)
(0.0914645 0.000406467 0.000732431)
(0.0915708 0.000483985 0.000631152)
(0.086547 -0.000131391 0.000412894)
(0.0911547 0.000235544 0.000756536)
(0.0913138 0.000344195 0.00058604)
(0.0861892 -0.000539455 0.000313503)
(0.0908736 -2.11308e-05 0.000785792)
(0.0911015 0.000105973 0.000510606)
(0.0855252 -0.00140089 -0.000177515)
(0.0905305 -0.000403927 0.000760085)
(0.0908332 -0.000310069 0.00035348)
(0.0903639 -0.00096236 0.00048864)
(0.0906468 -0.00111415 -8.22567e-05)
(0.100171 0.00136867 0.0014165)
(0.100118 0.000577402 0.00081133)
(0.100102 0.000699749 0.000700727)
(0.100759 0.00219488 0.00214928)
(0.100478 0.00158286 0.00185886)
(0.100477 0.00182251 0.0018648)
(0.100996 0.00247688 0.00238833)
(0.101004 0.00205878 0.00224274)
(0.101024 0.00234673 0.00238325)
(0.100837 0.00247609 0.00238969)
(0.101292 0.00220351 0.00235251)
(0.101337 0.00250584 0.00254421)
(0.100457 0.00231127 0.00222555)
(0.101308 0.00216739 0.00232273)
(0.101408 0.0024503 0.00247302)
(0.099966 0.00205608 0.00196921)
(0.101155 0.00201082 0.00217955)
(0.101301 0.00226416 0.00227144)
(0.0994406 0.00178968 0.00170163)
(0.100924 0.00179374 0.00196965)
(0.101097 0.00200827 0.00200025)
(0.0989287 0.0015617 0.0014865)
(0.100661 0.00158357 0.0017677)
(0.100852 0.00176882 0.00176053)
(0.0984565 0.00137488 0.00132636)
(0.100402 0.00139511 0.00159358)
(0.100603 0.00156652 0.00156857)
(0.0980341 0.00121945 0.00120915)
(0.100162 0.00122832 0.00145084)
(0.100372 0.00139753 0.00141762)
(0.0976608 0.00108806 0.00112743)
(0.0999482 0.00108644 0.00134907)
(0.100172 0.00125583 0.00130143)
(0.0973325 0.000973287 0.00107423)
(0.0997602 0.00096528 0.0012813)
(0.100005 0.00113519 0.00121492)
(0.0970454 0.000866103 0.00104336)
(0.0995947 0.000857661 0.00124031)
(0.0998692 0.00102887 0.00115296)
(0.0967945 0.000756468 0.00103275)
(0.0994487 0.000755969 0.0012226)
(0.0997652 0.000928093 0.00111143)
(0.096574 0.000633667 0.00104518)
(0.0993165 0.000650327 0.00122977)
(0.0996901 0.00082377 0.00108918)
(0.0963755 0.000481877 0.00108449)
(0.0991898 0.000530942 0.00126794)
(0.0996393 0.00070499 0.00108707)
(0.0961896 0.000279526 0.00115487)
(0.0990583 0.000384647 0.00134599)
(0.0996055 0.000555355 0.00110496)
(0.095995 4.08259e-06 0.00125676)
(0.0989092 0.000197296 0.00147889)
(0.0995744 0.000357608 0.00114036)
(0.0957415 -0.000323178 0.00141462)
(0.0987305 -4.59675e-05 0.00167225)
(0.0995265 9.62955e-05 0.00117995)
(0.0988311 -0.000278373 0.00195162)
(0.0996838 -0.00017196 0.00126634)
(0.100242 0.000820194 0.00125616)
(0.10009 0.000294361 0.000735369)
(0.100071 0.000415682 0.000602806)
(0.100828 0.00139062 0.00193941)
(0.100491 0.000792062 0.00168406)
(0.100492 0.00112445 0.00158708)
(0.101392 0.0016636 0.00218246)
(0.101086 0.00107787 0.00208348)
(0.101128 0.0015409 0.00209427)
(0.101815 0.00176137 0.0022616)
(0.101664 0.00120459 0.00217921)
(0.101767 0.00173285 0.00229454)
(0.102079 0.00175569 0.00226265)
(0.102121 0.00124018 0.00222237)
(0.10229 0.0017901 0.00236778)
(0.102213 0.00166866 0.00217762)
(0.10245 0.00120267 0.00221063)
(0.10271 0.00174412 0.00232267)
(0.102262 0.00153444 0.00204284)
(0.102678 0.00111965 0.00212704)
(0.103035 0.00162659 0.00220317)
(0.102271 0.00138309 0.00188734)
(0.102838 0.00101943 0.00200647)
(0.103283 0.00148007 0.00205125)
(0.102265 0.00123158 0.00173367)
(0.102961 0.000920082 0.00187158)
(0.103487 0.00132842 0.00189286)
(0.102255 0.00109394 0.00160869)
(0.103061 0.000828004 0.00174624)
(0.103661 0.00118629 0.00175015)
(0.102243 0.000975909 0.00152305)
(0.103149 0.000746438 0.00164717)
(0.103817 0.00106254 0.00164027)
(0.102233 0.000872562 0.00146929)
(0.103233 0.000674932 0.0015733)
(0.103963 0.000955915 0.00155966)
(0.102221 0.000778261 0.00144296)
(0.10331 0.000611096 0.00152927)
(0.104102 0.000860447 0.00150506)
(0.102204 0.000688238 0.0014448)
(0.103375 0.000554514 0.00151619)
(0.104235 0.000772417 0.00147568)
(0.102174 0.000596796 0.0014804)
(0.103423 0.000504257 0.00153211)
(0.104363 0.000687503 0.00147379)
(0.102121 0.000498782 0.00156155)
(0.103451 0.000460225 0.00158101)
(0.104478 0.000601397 0.00150535)
(0.102036 0.000389839 0.00170871)
(0.103446 0.000421882 0.00167996)
(0.104578 0.00050897 0.00157996)
(0.101915 0.000267044 0.00194343)
(0.1034 0.000390743 0.00184821)
(0.10466 0.000407409 0.00171021)
(0.101766 0.00017315 0.00227373)
(0.103321 0.000368534 0.00209754)
(0.104733 0.000295972 0.00189916)
(0.103541 0.000409256 0.00241715)
(0.105026 0.00023174 0.00213158)
(0.100243 0.000267501 0.00116244)
(0.100087 3.351e-08 0.000707034)
(0.100064 0.000135851 0.000537356)
(0.100782 0.000465928 0.00182629)
(0.100477 9.58613e-08 0.00161784)
(0.100463 0.000371012 0.00142421)
(0.101401 0.000575854 0.00207627)
(0.101066 1.65112e-07 0.00203473)
(0.101089 0.000525391 0.00193369)
(0.101987 0.000623492 0.00213422)
(0.101694 3.05615e-07 0.00211777)
(0.101797 0.000606261 0.00212881)
(0.102506 0.000632146 0.0021656)
(0.102269 5.71385e-07 0.00215046)
(0.102489 0.00063997 0.00221141)
(0.102934 0.000612035 0.00215791)
(0.102742 1.00404e-06 0.00218026)
(0.103119 0.000635281 0.0022423)
(0.103276 0.00057406 0.0020907)
(0.103124 1.65942e-06 0.00213478)
(0.103686 0.000602736 0.00219788)
(0.103552 0.000529975 0.00199208)
(0.103427 2.72487e-06 0.00204537)
(0.104184 0.000557794 0.00210768)
(0.103784 0.000488325 0.00188614)
(0.103679 4.59132e-06 0.00193687)
(0.104619 0.00051165 0.00199575)