/*--------------------------------*- C++ -*----------------------------------*\
| =========                 |                                                 |
| \\      /  F ield         | OpenFOAM: The Open Source CFD Toolbox           |
|  \\    /   O peration     | Version:  2212                                  |
|   \\  /    A nd           | Website:  www.openfoam.com                      |
|    \\/     M anipulation  |                                                 |
\*---------------------------------------------------------------------------*/
FoamFile
{
    version     2.0;
    format      ascii;
    arch        "LSB;label=32;scalar=64";
    class       volVectorField;
    location    "2.85";
    object      U;
}
// * * * * * * * * * * * * * * * * * * * * * * * * * * * * * * * * * * * * * //

dimensions      [0 1 -1 0 0 0 0];

internalField   nonuniform List<vector> 
682
(
(0.0804473 -0.000156045 -0.00149942)
(0.0795895 -0.000231881 -0.00145159)
(0.078743 -0.000281089 -0.00140347)
(0.0779106 -0.000315302 -0.00135674)
(0.0770959 -0.00034003 -0.00131261)
(0.0763006 -0.000358406 -0.0012717)
(0.0755254 -0.000371278 -0.0012339)
(0.0747699 -0.000378877 -0.00119881)
(0.0740346 -0.000381614 -0.00116579)
(0.0733178 -0.000380437 -0.00113478)
(0.0726193 -0.000375819 -0.00110643)
(0.076748 -0.000220084 -0.00153529)
(0.0757492 -0.000260387 -0.00144327)
(0.0748106 -0.000288688 -0.00136244)
(0.0739236 -0.000307236 -0.00129254)
(0.0730864 -0.00031752 -0.0012298)
(0.072294 -0.000320841 -0.00117432)
(0.0715403 -0.000318671 -0.00112556)
(0.0708214 -0.00031345 -0.00108268)
(0.0701334 -0.000305799 -0.00104412)
(0.0694714 -0.000297002 -0.00100813)
(0.0688353 -0.000286158 -0.000976619)
(0.0686907 -0.000218222 -0.00126811)
(0.0677424 -0.000212409 -0.00116761)
(0.0668778 -0.000199487 -0.00107491)
(0.0660839 -0.000183468 -0.000998045)
(0.0653461 -0.000169319 -0.000932478)
(0.0646624 -0.000158023 -0.000876675)
(0.0640153 -0.000147611 -0.000829724)
(0.0634049 -0.000137615 -0.000790424)
(0.0628201 -0.00012855 -0.000755547)
(0.0622559 -0.00012261 -0.000719923)
(0.0617219 -0.000116533 -0.000690447)
(0.0583085 -6.96166e-05 -0.000856688)
(0.0575175 -4.68071e-05 -0.000784708)
(0.0567899 -3.57404e-05 -0.000668915)
(0.0561189 -2.58807e-05 -0.000561237)
(0.0555075 -1.37718e-05 -0.000497526)
(0.0549088 -3.54615e-06 -0.000459896)
(0.0543697 3.61528e-06 -0.000433553)
(0.0538228 9.76288e-06 -0.000410912)
(0.0533244 1.61907e-05 -0.000393844)
(0.0528217 2.06071e-05 -0.000376942)
(0.0523529 2.10722e-05 -0.000357994)
(0.0519 1.99843e-05 -0.000338896)
(0.0440214 8.62726e-06 -0.000268763)
(0.0434566 5.89641e-06 -0.000230727)
(0.0429014 -1.41386e-06 -0.00019691)
(0.0423678 -8.91306e-06 -0.000170174)
(0.0418529 -1.46423e-05 -0.000148753)
(0.041359 -1.68938e-05 -0.000133918)
(0.0408792 -1.91989e-05 -0.000121335)
(0.0404162 -2.12904e-05 -0.000109711)
(0.0399703 -2.15442e-05 -0.000100825)
(0.039537 -2.14012e-05 -9.21942e-05)
(0.0391146 -1.94514e-05 -8.7418e-05)
(0.0387272 -1.59054e-05 -8.49035e-05)
(0.0283543 2.46935e-05 -3.60022e-05)
(0.0279681 2.23931e-05 -4.30439e-05)
(0.0275863 1.58584e-05 -4.74385e-05)
(0.027223 8.82759e-06 -4.97387e-05)
(0.0268727 3.39647e-06 -4.93867e-05)
(0.0265358 2.75317e-08 -4.85012e-05)
(0.0262062 -2.09115e-06 -4.75392e-05)
(0.0258884 -3.89139e-06 -4.64036e-05)
(0.0255804 -5.50398e-06 -4.53304e-05)
(0.0252799 -6.82268e-06 -4.43552e-05)
(0.0249808 -6.15065e-06 -4.41287e-05)
(0.024699 -5.65521e-06 -4.23579e-05)
(0.105154 -1.6501e-05 -0.00166596)
(0.105103 -0.000103538 -0.00161842)
(0.105043 -0.000178951 -0.00157537)
(0.104975 -0.000242933 -0.0015328)
(0.104903 -0.000296511 -0.00148738)
(0.104827 -0.000340627 -0.00144374)
(0.10475 -0.000376429 -0.00140259)
(0.104674 -0.000405223 -0.00136336)
(0.104599 -0.000428065 -0.00132582)
(0.104525 -0.00044572 -0.00129025)
(0.104452 -0.000460142 -0.00125227)
(0.103276 -0.000159408 -0.00174838)
(0.103087 -0.000222723 -0.0016557)
(0.102915 -0.000273123 -0.00156906)
(0.102761 -0.000313397 -0.00148894)
(0.102625 -0.000345551 -0.00141627)
(0.102503 -0.000368342 -0.00135441)
(0.102399 -0.000383932 -0.00129946)
(0.102309 -0.000391945 -0.00124903)
(0.10223 -0.000396299 -0.00120353)
(0.102161 -0.00039715 -0.0011627)
(0.1021 -0.000394941 -0.00112215)
(0.098568 -0.000276781 -0.00144)
(0.0983448 -0.000280408 -0.00133919)
(0.0981594 -0.00027839 -0.00124947)
(0.0980017 -0.000272274 -0.00117031)
(0.097872 -0.000262355 -0.00110366)
(0.0977554 -0.000249438 -0.00104724)
(0.0976626 -0.000234931 -0.00100064)
(0.0975752 -0.000220929 -0.000961384)
(0.0975033 -0.000208463 -0.000924381)
(0.0974352 -0.000195476 -0.000896287)
(0.0973748 -0.000184017 -0.000857118)
(0.0906598 -0.000183748 -0.000954893)
(0.0904112 -0.000136769 -0.000888196)
(0.0901963 -9.23314e-05 -0.000834384)
(0.0900029 -4.99427e-05 -0.000799086)
(0.0898195 -1.69939e-05 -0.000761542)
(0.089656 1.23112e-05 -0.000739982)
(0.0894849 3.4959e-05 -0.000716865)
(0.0893285 5.25211e-05 -0.000691302)
(0.0891557 6.73068e-05 -0.000668869)
(0.0890034 7.87834e-05 -0.00064427)
(0.0888295 9.30658e-05 -0.000638043)
(0.088667 0.000102873 -0.000622995)
(0.0757377 -2.13829e-05 -0.000278025)
(0.075385 1.88824e-05 -0.000264041)
(0.0750059 5.32902e-05 -0.000266999)
(0.0746311 8.1371e-05 -0.000277281)
(0.0742405 9.76683e-05 -0.000279509)
(0.0738502 0.000106069 -0.000275208)
(0.073463 0.000109371 -0.000266186)
(0.0730695 0.000110718 -0.00025551)
(0.0726764 0.000108573 -0.000241519)
(0.0722856 0.000106875 -0.000230337)
(0.0718803 0.000115523 -0.000242089)
(0.0714791 0.00012011 -0.000247059)
(0.0464292 0.000189485 -0.000112645)
(0.0459336 0.000204694 -0.000138482)
(0.0454362 0.00020799 -0.000151746)
(0.0449615 0.000206702 -0.000158454)
(0.0444918 0.00020339 -0.000163194)
(0.0440419 0.000200131 -0.00016741)
(0.0435945 0.00019619 -0.00017023)
(0.0431616 0.000191238 -0.000172891)
(0.0427294 0.000185792 -0.000177484)
(0.0422974 0.000179826 -0.000183165)
(0.0418585 0.000171903 -0.000183959)
(0.0414455 0.000158778 -0.000180436)
(0.114572 -0.000150575 -0.00150754)
(0.114861 -0.000194659 -0.0014737)
(0.115143 -0.000233875 -0.00144049)
(0.115417 -0.00026817 -0.00140781)
(0.115685 -0.000298284 -0.00137568)
(0.115948 -0.000324333 -0.00134453)
(0.116206 -0.00034669 -0.00131465)
(0.11646 -0.000365554 -0.00128621)
(0.11671 -0.000381382 -0.00125897)
(0.116957 -0.000394458 -0.0012334)
(0.117202 -0.000405397 -0.00120771)
(0.113441 -0.0001228 -0.00165273)
(0.113661 -0.000150047 -0.00157934)
(0.113883 -0.000173301 -0.00151202)
(0.114107 -0.000190869 -0.00145009)
(0.114335 -0.0002033 -0.00139434)
(0.114566 -0.0002126 -0.0013443)
(0.114801 -0.00021988 -0.00129929)
(0.115039 -0.000224502 -0.00125886)
(0.115279 -0.000226668 -0.00122235)
(0.115522 -0.000226349 -0.00119042)
(0.115765 -0.000224496 -0.00116025)
(0.110147 -7.80993e-05 -0.00145408)
(0.110339 -6.33939e-05 -0.00136978)
(0.110542 -4.54388e-05 -0.00129691)
(0.110754 -2.56256e-05 -0.00123346)
(0.110974 -4.72184e-06 -0.00118001)
(0.111199 1.50632e-05 -0.00113461)
(0.111429 3.23467e-05 -0.00109413)
(0.111664 4.77473e-05 -0.00105886)
(0.111899 6.18857e-05 -0.00102783)
(0.112138 7.60534e-05 -0.00100395)
(0.112372 8.91281e-05 -0.000980622)
(0.103865 0.000140504 -0.00110244)
(0.104035 0.00019874 -0.00103241)
(0.104221 0.000252773 -0.000975084)
(0.104406 0.000301904 -0.000929286)
(0.104593 0.000345284 -0.000894157)
(0.104774 0.000382363 -0.000866978)
(0.10495 0.000411304 -0.000841247)
(0.105123 0.000432353 -0.000813021)
(0.105295 0.000451776 -0.00079447)
(0.105457 0.00046756 -0.000779667)
(0.105618 0.000483678 -0.000777868)
(0.10576 0.000493847 -0.000773817)
(0.0921572 0.000393516 -0.00051488)
(0.0921788 0.000456522 -0.000495942)
(0.0921914 0.000498952 -0.000472222)
(0.0921683 0.000530002 -0.000452413)
(0.0921372 0.000550093 -0.000434499)
(0.0920755 0.000565023 -0.000421896)
(0.0920038 0.000576507 -0.000412539)
(0.091906 0.000585709 -0.0004078)
(0.091792 0.000592776 -0.00040627)
(0.0916708 0.000596829 -0.000407707)
(0.0915332 0.000597968 -0.000412093)
(0.0913836 0.000590505 -0.000413604)
(0.063375 0.000630442 -0.000313432)
(0.0628969 0.00066067 -0.000322415)
(0.0623657 0.000668596 -0.00031535)
(0.0618472 0.000666789 -0.000304987)
(0.0612909 0.000664345 -0.000299825)
(0.0607516 0.000660521 -0.000298011)
(0.0601818 0.00065442 -0.000298299)
(0.0596303 0.000645174 -0.00029995)
(0.059051 0.00063529 -0.000306752)
(0.0584899 0.000625394 -0.000316565)
(0.0579024 0.000589645 -0.000302466)
(0.0573579 0.000528055 -0.000271605)
(0.119238 -0.000204594 -0.000991953)
(0.119674 -0.000214343 -0.000970031)
(0.120099 -0.000223242 -0.000948763)
(0.120515 -0.000231087 -0.000928323)
(0.120924 -0.00023787 -0.000908713)
(0.121326 -0.000243577 -0.000889945)
(0.12172 -0.000248274 -0.000872003)
(0.122109 -0.000252022 -0.0008549)
(0.122493 -0.000254928 -0.000838608)
(0.122871 -0.000257192 -0.000823437)
(0.123245 -0.000258806 -0.000808423)
(0.118376 3.58738e-05 -0.00113688)
(0.11878 3.15681e-05 -0.0010897)
(0.119178 2.93181e-05 -0.00104702)
(0.119571 2.87516e-05 -0.00100844)
(0.11996 2.9518e-05 -0.000973709)
(0.120344 3.11538e-05 -0.000942458)
(0.120724 3.3215e-05 -0.000914183)
(0.121101 3.57169e-05 -0.000888746)
(0.121473 3.86104e-05 -0.000866035)
(0.121843 4.20105e-05 -0.000846472)
(0.122209 4.54067e-05 -0.000828786)
(0.115667 0.000272006 -0.00100397)
(0.116045 0.000292282 -0.000953815)
(0.116419 0.000312448 -0.000911138)
(0.11679 0.00033194 -0.000875072)
(0.117156 0.000350225 -0.000844936)
(0.117518 0.000366662 -0.000819327)
(0.117876 0.000380661 -0.00079684)
(0.118229 0.000392968 -0.000777869)
(0.118576 0.000403557 -0.000762051)
(0.11892 0.00041307 -0.000750559)
(0.119258 0.000421035 -0.000740957)
(0.11013 0.00059281 -0.000702973)
(0.110475 0.000644941 -0.000672588)
(0.110811 0.000690622 -0.000651318)
(0.111137 0.00072978 -0.000636617)
(0.111451 0.000762981 -0.000626514)
(0.111752 0.000790426 -0.000621)
(0.112042 0.000812508 -0.000618863)
(0.112319 0.000829086 -0.000617137)
(0.112589 0.000842089 -0.000617187)
(0.112842 0.000850785 -0.000617641)
(0.113092 0.000858083 -0.000623288)
(0.113322 0.00086255 -0.000630855)
(0.100094 0.000838661 -0.000218791)
(0.10025 0.000892179 -0.00023142)
(0.100378 0.000932064 -0.000248363)
(0.100468 0.000960049 -0.000269055)
(0.100534 0.000979889 -0.000292262)
(0.100565 0.000992358 -0.000313522)
(0.100575 0.00100236 -0.000333148)
(0.100556 0.00100397 -0.000349302)
(0.100526 0.00100821 -0.000368709)
(0.100467 0.00100563 -0.000383844)
(0.100405 0.000996803 -0.000395639)
(0.100319 0.000976757 -0.000399938)
(0.0743877 0.000930249 -0.000171445)
(0.0738439 0.000966865 -0.000208464)
(0.0732476 0.000984747 -0.000240116)
(0.0726122 0.000991223 -0.000263905)
(0.0719457 0.000990376 -0.000284345)
(0.071262 0.000984603 -0.000301878)
(0.0705605 0.000975333 -0.000315609)
(0.0698584 0.000962131 -0.000326503)
(0.0691406 0.000945363 -0.000334548)
(0.0684449 0.000928812 -0.000341626)
(0.0677349 0.000908438 -0.000344492)
(0.0670637 0.000883487 -0.000345224)
(0.120837 0.000257101 -0.000623017)
(0.12132 0.000254622 -0.000601241)
(0.121792 0.000253312 -0.000582316)
(0.122255 0.000252849 -0.000565926)
(0.12271 0.000252889 -0.000551674)
(0.123156 0.000253156 -0.000539208)
(0.123595 0.000253448 -0.000528206)
(0.124028 0.000253686 -0.000518507)
(0.124453 0.000253795 -0.000510035)
(0.124873 0.000253863 -0.000502943)
(0.125288 0.00025372 -0.000496706)
(0.118394 0.000655329 -0.000560609)
(0.118835 0.000661652 -0.000548737)
(0.119267 0.00066714 -0.00053967)
(0.119689 0.000671718 -0.000532915)
(0.120102 0.000675247 -0.000528022)
(0.120507 0.000677588 -0.000524434)
(0.120905 0.000678656 -0.000521608)
(0.121295 0.000678517 -0.000519613)
(0.121678 0.000676905 -0.000518561)
(0.122054 0.000674214 -0.000518762)
(0.122424 0.000670346 -0.000519457)
(0.113279 0.00109212 -0.000330834)
(0.113647 0.00111227 -0.000349502)
(0.113999 0.00112755 -0.000370579)
(0.114336 0.00113817 -0.000392593)
(0.11466 0.00114471 -0.000414566)
(0.11497 0.00114763 -0.000435796)
(0.115269 0.0011474 -0.000455508)
(0.115556 0.00114447 -0.000472963)
(0.115832 0.00113929 -0.000489121)
(0.116098 0.00113097 -0.000503727)
(0.116357 0.0011203 -0.000517239)
(0.116607 0.00110732 -0.000529227)
(0.104097 0.0013018 8.976e-06)
(0.104215 0.00131991 -6.08588e-05)
(0.104302 0.00132899 -0.000126689)
(0.104361 0.00133071 -0.000186583)
(0.104394 0.00132745 -0.000240347)
(0.104405 0.00131977 -0.000288158)
(0.104397 0.00130722 -0.000329611)
(0.10437 0.00129102 -0.000364923)
(0.104331 0.00127314 -0.000395025)
(0.104278 0.00125106 -0.000418386)
(0.10422 0.00122482 -0.000434589)
(0.104151 0.00119758 -0.000445834)
(0.080229 0.0012475 -0.000131804)
(0.0795876 0.00125821 -0.000205519)
(0.0789047 0.00125782 -0.000265191)
(0.0781909 0.00124869 -0.000305378)
(0.0774574 0.00123337 -0.00033586)
(0.076713 0.00121408 -0.000359607)
(0.0759634 0.00119222 -0.000377667)
(0.0752144 0.00116872 -0.000391591)
(0.0744679 0.00114473 -0.000400328)
(0.0737292 0.00112241 -0.000404394)
(0.0729955 0.00110068 -0.000402578)
(0.0722703 0.00107851 -0.000394876)
(0.121598 0.000487991 -0.000150127)
(0.122098 0.000476885 -0.000147847)
(0.122587 0.000466342 -0.000145664)
(0.123065 0.000456499 -0.00014359)
(0.123534 0.000447397 -0.000141645)
(0.123994 0.000439003 -0.00013982)
(0.124446 0.000431256 -0.000138104)
(0.124891 0.000424115 -0.000136503)
(0.12533 0.000417564 -0.000135028)
(0.125762 0.000411691 -0.000133725)
(0.126188 0.000406106 -0.000132506)
(0.119237 0.000991542 -0.00020254)
(0.119672 0.000969424 -0.000212442)
(0.120098 0.000947934 -0.000221607)
(0.120514 0.000927285 -0.000229786)
(0.120922 0.000907504 -0.000236933)
(0.121324 0.000888613 -0.000242992)
(0.121718 0.000870589 -0.000247976)
(0.122107 0.00085343 -0.000251999)
(0.12249 0.000837119 -0.000255102)
(0.122868 0.000821913 -0.00025749)
(0.123241 0.000806856 -0.000259179)
(0.114271 0.00153892 -0.000100867)
(0.11457 0.00150741 -0.000147861)
(0.11486 0.00147321 -0.000192061)
(0.115141 0.00143961 -0.000231517)
(0.115415 0.00140657 -0.000266179)
(0.115683 0.00137412 -0.000296707)
(0.115945 0.00134269 -0.000323156)
(0.116203 0.00131256 -0.000345745)
(0.116456 0.00128388 -0.00036491)
(0.116706 0.00125647 -0.000380775)
(0.116954 0.00123069 -0.000393701)
(0.117198 0.00120493 -0.000404322)
(0.105193 0.00171257 8.32776e-05)
(0.105153 0.00166689 -1.40983e-05)
(0.105101 0.0016184 -0.000100721)
(0.105041 0.00157456 -0.000175951)
(0.104973 0.00153147 -0.000240039)
(0.104901 0.0014856 -0.000293934)
(0.104825 0.00144164 -0.000338565)
(0.104749 0.00140029 -0.000374714)
(0.104673 0.00136082 -0.00040402)
(0.104598 0.00132315 -0.0004271)
(0.104525 0.00128755 -0.000444794)
(0.104454 0.00124974 -0.000458888)
(0.0813116 0.00154501 -7.10608e-05)
(0.0804462 0.00149913 -0.000154857)
(0.0795885 0.00145075 -0.000229007)
(0.0787424 0.00140222 -0.000277797)
(0.0779107 0.00135506 -0.00031231)
(0.0770973 0.00131056 -0.000337537)
(0.0763036 0.00126935 -0.000356348)
(0.0755303 0.00123137 -0.000369749)
(0.0747769 0.00119608 -0.000377767)
(0.0740438 0.00116285 -0.000381064)
(0.0733293 0.00113168 -0.000380519)
(0.0726335 0.00110335 -0.000376497)
(0.120837 0.000622249 0.000257667)
(0.121321 0.000600422 0.000255168)
(0.121793 0.000581446 0.000253793)
(0.122256 0.000564983 0.000253216)
(0.12271 0.000550641 0.000253104)
(0.123157 0.000538077 0.000253201)
(0.123596 0.000526985 0.000253321)
(0.124028 0.00051718 0.000253375)
(0.124454 0.000508624 0.0002533)
(0.124874 0.000501488 0.000253207)
(0.125289 0.000495212 0.000252915)
(0.118376 0.00113672 3.70615e-05)
(0.11878 0.00108935 3.27161e-05)
(0.119178 0.00104643 3.03697e-05)
(0.119571 0.0010076 2.96493e-05)
(0.119959 0.000972636 3.02221e-05)
(0.120343 0.000941193 3.16662e-05)
(0.120723 0.000912801 3.35782e-05)
(0.121099 0.000887213 3.58667e-05)
(0.121472 0.000864469 3.86296e-05)
(0.121841 0.000844965 4.20032e-05)
(0.122207 0.000827328 4.54089e-05)
(0.113221 0.00173281 -8.24676e-05)
(0.11344 0.00165255 -0.000120982)
(0.11366 0.00157886 -0.000148154)
(0.113881 0.00151126 -0.000171433)
(0.114105 0.00144906 -0.000189152)
(0.114332 0.00139299 -0.000201846)
(0.114563 0.00134262 -0.000211339)
(0.114798 0.00129736 -0.000218679)
(0.115036 0.00125653 -0.000223519)
(0.115276 0.00121985 -0.000225569)
(0.115518 0.00118778 -0.000224846)
(0.115761 0.00115762 -0.000222557)
(0.103481 0.00184834 -7.95701e-05)
(0.103274 0.00174885 -0.000157352)
(0.103084 0.0016553 -0.000220236)
(0.102912 0.0015682 -0.000270321)
(0.102759 0.00148797 -0.000310322)
(0.102622 0.00141507 -0.000342495)
(0.102501 0.00135288 -0.000365903)
(0.102397 0.00129773 -0.00038194)
(0.102307 0.00124694 -0.000390139)
(0.102229 0.00120111 -0.000394672)
(0.10216 0.0011598 -0.000395547)
(0.102099 0.00111899 -0.00039318)
(0.077813 0.00163585 -0.000152307)
(0.0767471 0.0015343 -0.000218491)
(0.0757489 0.00144201 -0.000257914)
(0.0748109 0.00136102 -0.000285896)
(0.0739249 0.00129077 -0.000304607)
(0.0730889 0.00122791 -0.000315083)
(0.0722979 0.00117238 -0.000318696)
(0.0715458 0.0011235 -0.000316893)
(0.0708288 0.00108056 -0.000311956)
(0.0701425 0.00104165 -0.00030475)
(0.0694829 0.00100538 -0.000296393)
(0.0688484 0.000973526 -0.000286002)
(0.118396 0.000560255 0.00065596)
(0.118837 0.000548326 0.000662219)
(0.119269 0.000539195 0.000667678)
(0.119691 0.000532334 0.000672206)
(0.120105 0.000527309 0.000675666)
(0.12051 0.000523596 0.000677924)
(0.120908 0.000520691 0.000678898)
(0.121298 0.000518521 0.000678618)
(0.121681 0.000517387 0.000676806)
(0.122058 0.000517661 0.000673959)
(0.122429 0.00051848 0.000669944)
(0.115668 0.00100395 0.000272871)
(0.116046 0.000953513 0.000293001)
(0.116421 0.00091061 0.000313202)
(0.116791 0.000874271 0.000332687)
(0.117157 0.000843814 0.000350941)
(0.117519 0.00081799 0.000367349)
(0.117877 0.000795556 0.00038141)
(0.11823 0.000776247 0.000393481)
(0.118578 0.000760519 0.000403886)
(0.118921 0.000749454 0.000413455)
(0.119259 0.000740384 0.000421616)
(0.109967 0.00155331 -8.55458e-05)
(0.110147 0.00145417 -7.66364e-05)
(0.110338 0.00136929 -6.21833e-05)
(0.110541 0.00129624 -4.41797e-05)
(0.110752 0.00123264 -2.41652e-05)
(0.110973 0.00117877 -3.50907e-06)
(0.111197 0.00113281 1.61971e-05)
(0.111429 0.00109238 3.35911e-05)
(0.111661 0.00105597 4.87725e-05)
(0.111899 0.00102521 6.29712e-05)
(0.112133 0.00100138 7.78502e-05)
(0.112371 0.000978592 9.14685e-05)
(0.0988322 0.00155409 -0.000262945)
(0.0985655 0.00144101 -0.000274611)
(0.0983402 0.00133898 -0.00027804)
(0.0981563 0.00124886 -0.00027584)
(0.0979969 0.00117016 -0.000269306)
(0.0978673 0.00110338 -0.000259521)
(0.0977508 0.00104651 -0.000246841)
(0.0976581 0.000999442 -0.000232789)
(0.0975714 0.000959205 -0.000218866)
(0.0974999 0.000922095 -0.000206792)
(0.0974322 0.000892542 -0.000194177)
(0.0973725 0.000854972 -0.000182662)
(0.0697437 0.00137522 -0.000212652)
(0.0686933 0.00126738 -0.000216343)
(0.0677462 0.00116699 -0.000209926)
(0.066881 0.00107408 -0.000196879)
(0.0660888 0.000996185 -0.000181315)
(0.0653517 0.000931043 -0.00016692)
(0.0646692 0.000875776 -0.000155522)
(0.0640227 0.000828929 -0.000145437)
(0.0634145 0.000789566 -0.000135678)
(0.0628296 0.000754066 -0.000127144)
(0.0622696 0.000717677 -0.000122001)
(0.0617349 0.000687123 -0.000116581)
(0.113651 0.000349256 0.00111377)
(0.114003 0.000370276 0.00112899)
(0.114341 0.000392364 0.00113961)
(0.114665 0.000414336 0.00114615)
(0.114976 0.000435499 0.0011491)
(0.115274 0.000455142 0.00114886)
(0.115562 0.000472632 0.00114587)
(0.115839 0.000488488 0.00114062)
(0.116105 0.000502861 0.00113199)
(0.116364 0.000516586 0.00112104)
(0.116614 0.00052896 0.00110775)
(0.11048 0.000672546 0.000646269)
(0.110816 0.000650787 0.000691829)
(0.111143 0.000635909 0.000731125)
(0.111456 0.000625801 0.000764379)
(0.111759 0.00061994 0.000792047)
(0.112048 0.00061753 0.000814178)
(0.112327 0.000616039 0.000830981)
(0.112595 0.000615656 0.000843659)
(0.112851 0.000615827 0.000851934)
(0.113097 0.000622006 0.000858802)
(0.11333 0.000630405 0.000863435)
(0.103864 0.00110239 0.000142245)
(0.104041 0.00103262 0.000200294)
(0.104221 0.000974252 0.000253953)
(0.104413 0.000929118 0.000303412)
(0.104593 0.000892178 0.000346252)
(0.104781 0.000864456 0.000383256)
(0.104952 0.000838684 0.000412601)
(0.105132 0.000813507 0.000435173)
(0.105296 0.000788833 0.000451971)
(0.105467 0.000778126 0.000469703)
(0.105617 0.000776638 0.000485954)
(0.105766 0.000773368 0.000496716)
(0.090656 0.000952486 -0.000183353)
(0.0904095 0.000888813 -0.000134796)
(0.0901914 0.000832951 -9.03911e-05)
(0.0900004 0.000798454 -4.7478e-05)
(0.0898144 0.000764874 -1.32158e-05)
(0.0896483 0.000738694 1.45621e-05)
(0.0894798 0.000714627 3.70714e-05)
(0.0893206 0.000689373 5.47177e-05)
(0.0891551 0.000665406 6.90994e-05)
(0.0889945 0.000641155 8.05987e-05)
(0.0888341 0.000634914 9.50545e-05)
(0.0886622 0.000620552 0.000104781)
(0.0583155 0.000855178 -6.94718e-05)
(0.0575184 0.000784964 -4.53338e-05)
(0.0567986 0.000669736 -3.35077e-05)
(0.0561177 0.000561773 -2.31364e-05)
(0.0555158 0.000497577 -1.08548e-05)
(0.0549146 0.000459914 -6.19815e-07)
(0.0543772 0.000433475 6.16552e-06)
(0.0538285 0.000411006 1.19554e-05)
(0.0533336 0.000393176 1.80066e-05)
(0.0528281 0.000376382 2.23071e-05)
(0.0523653 0.000356953 2.1971e-05)
(0.05191 0.000337534 2.01796e-05)
(0.10422 5.95628e-05 0.0013213)
(0.104306 0.000125877 0.00133128)
(0.104365 0.000186227 0.00133347)
(0.104398 0.000240412 0.00133026)
(0.104409 0.000288391 0.00132258)
(0.1044 0.000329856 0.00130989)
(0.104374 0.000364964 0.00129349)
(0.104335 0.000394844 0.00127551)
(0.104282 0.000417561 0.00125305)
(0.104223 0.000433554 0.00122662)
(0.104155 0.000444596 0.00119885)
(0.100259 0.000229065 0.000892584)
(0.100383 0.000246988 0.000933585)
(0.100479 0.000268378 0.000962916)
(0.100539 0.000291734 0.000982619)
(0.100576 0.000313555 0.000996033)
(0.100581 0.000332575 0.00100526)
(0.100567 0.000348834 0.00100762)
(0.100531 0.000367816 0.00101132)
(0.100477 0.000380132 0.00100589)
(0.100411 0.000391831 0.000997192)
(0.100326 0.000396279 0.00097762)
(0.0921551 0.00051366 0.000394736)
(0.0921893 0.000493002 0.000456981)
(0.0921893 0.000469124 0.000499576)
(0.09218 0.000449387 0.000531016)
(0.0921383 0.000433783 0.00055288)
(0.0920855 0.000419073 0.000566513)
(0.0920064 0.000411667 0.000579242)
(0.0919144 0.000406211 0.000588237)
(0.0917978 0.000405115 0.000595701)
(0.0916755 0.000403295 0.000597968)
(0.091541 0.000410316 0.000601)
(0.0913863 0.000410931 0.000593782)
(0.0757441 0.000278811 -1.93565e-05)
(0.0753711 0.000263208 2.09958e-05)
(0.0750108 0.000265925 5.60758e-05)
(0.0746134 0.000273764 8.29086e-05)
(0.0742434 0.000276958 9.97792e-05)
(0.0738367 0.000271107 0.000107019)
(0.073464 0.000263894 0.00011132)
(0.0730557 0.000253653 0.000112739)
(0.0726778 0.000239638 0.000110893)
(0.0722729 0.000226494 0.000108673)
(0.0718843 0.000239691 0.000118764)
(0.071474 0.000245447 0.000124144)
(0.0440269 0.000268658 9.03499e-06)
(0.0434507 0.000230889 7.9476e-06)
(0.0429095 0.000196725 1.45451e-06)
(0.0423654 0.000169759 -5.72064e-06)
(0.04186 0.000149049 -1.09918e-05)
(0.0413579 0.000133547 -1.38842e-05)
(0.0408847 0.000120733 -1.69557e-05)
(0.0404164 0.000109206 -1.94194e-05)
(0.0399766 0.000100059 -1.99567e-05)
(0.0395397 9.16273e-05 -1.94903e-05)
(0.0391218 8.72375e-05 -1.7725e-05)
(0.0387325 8.48681e-05 -1.45435e-05)
(0.0795819 0.000204012 0.00126121)
(0.0788979 0.000265407 0.00126162)
(0.0781829 0.000306134 0.00125262)
(0.0774481 0.000336892 0.00123708)
(0.0767016 0.000360587 0.00121748)
(0.0759499 0.000378455 0.00119526)
(0.0751986 0.000391912 0.0011715)
(0.0744498 0.000400383 0.0011475)
(0.0737089 0.00040449 0.00112539)
(0.0729726 0.00040202 0.00110373)
(0.0722454 0.000393485 0.0010817)
(0.0738392 0.000206776 0.00096904)
(0.0732431 0.000240787 0.000988372)
(0.0726046 0.000265468 0.000995378)
(0.0719381 0.000285685 0.000994276)
(0.0712502 0.000303214 0.000988261)
(0.0705498 0.000316157 0.000978445)
(0.0698426 0.00032605 0.000964796)
(0.0691273 0.000333353 0.00094789)
(0.0684267 0.000340119 0.000931789)
(0.067716 0.000340932 0.000910603)
(0.0670434 0.000339921 0.000884955)
(0.0633841 0.000309106 0.000629073)
(0.062877 0.000319199 0.0006618)
(0.0623721 0.000314378 0.000671413)
(0.061823 0.000306079 0.000670743)
(0.0612906 0.000301164 0.00066774)
(0.0607247 0.000299504 0.000663572)
(0.0601753 0.000299076 0.000656809)
(0.0596016 0.000299785 0.000647423)
(0.0590424 0.00030528 0.000636925)
(0.0584622 0.000313741 0.000627281)
(0.0578932 0.00029686 0.000589804)
(0.0573385 0.000264432 0.000527847)
(0.0464314 0.00011123 0.000189648)
(0.0459235 0.000135308 0.000205654)
(0.0454417 0.00014874 0.000209397)
(0.0449543 0.000156605 0.00020832)
(0.0444943 0.000162321 0.000205157)
(0.044033 0.000166678 0.000201181)
(0.0435925 0.000169879 0.000197134)
(0.0431512 0.000172371 0.000192339)
(0.0427257 0.000176535 0.000187066)
(0.0422883 0.000181265 0.000181399)
(0.041855 0.000181982 0.00017424)
(0.0414396 0.000178034 0.000161361)
(0.0283554 3.55386e-05 2.50532e-05)
(0.0279649 4.19808e-05 2.32294e-05)
(0.0275907 4.6345e-05 1.68909e-05)
(0.0272226 4.88207e-05 9.74535e-06)
(0.0268765 4.88525e-05 4.19144e-06)
(0.0265343 4.78201e-05 5.10575e-07)
(0.0262081 4.70972e-05 -1.65167e-06)
(0.0258869 4.59623e-05 -3.4282e-06)
(0.0255817 4.47841e-05 -4.94053e-06)
(0.0252797 4.35552e-05 -6.05673e-06)
(0.0249834 4.34436e-05 -5.1492e-06)
(0.0247003 4.16867e-05 -4.65359e-06)
)
;

boundaryField
{
    inlet
    {
        type            fixedValue;
        value           nonuniform List<vector> 0();
    }
    ami1
    {
        type            cyclicAMI;
        value           nonuniform List<vector> 0();
    }
    walls
    {
        type            noSlip;
    }
    ami2
    {
        type            cyclicAMI;
        value           nonuniform List<vector> 0();
    }
    outlet
    {
        type            zeroGradient;
    }
    procBoundary9to0
    {
        type            processor;
        value           nonuniform List<vector> 
40
(
(0.0813137 -7.09648e-05 -0.00154516)
(0.077815 -0.0001533 -0.0016365)
(0.0697422 -0.000214054 -0.00137572)
(0.0697422 -0.000214054 -0.00137572)
(0.0591872 -0.000105198 -0.000907544)
(0.0446514 4.32205e-06 -0.000311413)
(0.0287559 2.34057e-05 -3.25256e-05)
(0.105193 8.12921e-05 -0.00171132)
(0.103482 -8.10732e-05 -0.00184783)
(0.0988349 -0.000264316 -0.00155462)
(0.0988349 -0.000264316 -0.00155462)
(0.0909469 -0.000226683 -0.00104954)
(0.0761307 -4.79949e-05 -0.000355156)
(0.0469637 0.000158869 -7.86069e-05)
(0.114272 -0.000103404 -0.0015385)
(0.113221 -8.40468e-05 -0.00173276)
(0.109967 -8.71366e-05 -0.00155347)
(0.109967 -8.71366e-05 -0.00155347)
(0.103695 8.18956e-05 -0.00119227)
(0.0920918 0.00032415 -0.000552374)
(0.06388 0.00057269 -0.000286264)
(0.118791 -0.000194748 -0.00101382)
(0.117964 4.29666e-05 -0.00118825)
(0.115284 0.000252836 -0.00106236)
(0.115284 0.000252836 -0.00106236)
(0.109774 0.000535795 -0.00074606)
(0.0998929 0.000774212 -0.000217113)
(0.0748766 0.000867922 -0.000126479)
(0.120343 0.000260118 -0.000645912)
(0.117941 0.000648535 -0.00057576)
(0.117941 0.000648535 -0.00057576)
(0.112896 0.00106679 -0.000316525)
(0.103943 0.00127615 7.76554e-05)
(0.0808211 0.00122344 -5.15253e-05)
(0.121086 0.000499352 -0.000152463)
(0.118791 0.00101358 -0.000192739)
(0.118791 0.00101358 -0.000192739)
(0.113957 0.00156809 -5.28277e-05)
(0.105215 0.00175336 0.000189628)
(0.0821756 0.00158406 3.32912e-05)
)
;
    }
    procBoundary9to1
    {
        type            processor;
        value           nonuniform List<vector> 
30
(
(0.120343 0.000645378 0.00026076)
(0.117964 0.00118812 4.40801e-05)
(0.117964 0.00118812 4.40801e-05)
(0.113 0.00181788 -3.71624e-05)
(0.103704 0.0019548 1.4649e-05)
(0.0789509 0.00174457 -6.77616e-05)
(0.117943 0.000575355 0.000649236)
(0.115286 0.00106235 0.000253892)
(0.115286 0.00106235 0.000253892)
(0.109799 0.00166452 -8.61162e-05)
(0.0991477 0.00168731 -0.000240334)
(0.0709186 0.00149882 -0.000199733)
(0.113283 0.000330478 0.0010934)
(0.110134 0.000703144 0.000594258)
(0.110134 0.000703144 0.000594258)
(0.1037 0.0011928 8.3579e-05)
(0.0909447 0.00104812 -0.000226678)
(0.0591898 0.000906259 -0.000105283)
(0.1041 -9.71169e-06 0.00130357)
(0.100097 0.000218103 0.000840366)
(0.100097 0.000218103 0.000840366)
(0.092103 0.000560476 0.000331407)
(0.0761215 0.000357001 -4.6232e-05)
(0.0446456 0.000311459 3.95668e-06)
(0.0802259 0.000129793 0.0012497)
(0.0743871 0.000167378 0.000930569)
(0.0743871 0.000167378 0.000930569)
(0.0638622 0.000281523 0.000569802)
(0.0469525 7.95713e-05 0.000159123)
(0.0287524 3.29036e-05 2.35852e-05)
)
;
    }
    procBoundary9to7
    {
        type            processor;
        value           nonuniform List<vector> 
59
(
(0.0719341 -0.000368048 -0.00107694)
(0.0682171 -0.000275203 -0.000943518)
(0.0611813 -0.000109482 -0.000662617)
(0.0514504 2.0146e-05 -0.000322432)
(0.0383204 -1.34875e-05 -8.28694e-05)
(0.024418 -6.43081e-06 -4.08792e-05)
(0.104384 -0.000468165 -0.00121222)
(0.102049 -0.000390557 -0.0010854)
(0.0973275 -0.000170079 -0.000834212)
(0.0884837 0.000113449 -0.000614307)
(0.0710547 0.00012285 -0.00024991)
(0.0410122 0.000142764 -0.000174677)
(0.117444 -0.000413958 -0.00118244)
(0.11601 -0.000220699 -0.0011331)
(0.112612 0.000102759 -0.000964975)
(0.105907 0.000499937 -0.000768918)
(0.0912119 0.000579393 -0.00041419)
(0.0567994 0.000476493 -0.000251766)
(0.123615 -0.000259976 -0.000794096)
(0.122572 4.86421e-05 -0.000813438)
(0.119591 0.000427259 -0.000733537)
(0.113549 0.000859071 -0.000632484)
(0.100236 0.000955306 -0.000402965)
(0.0663841 0.00085588 -0.000344364)
(0.125697 0.000253489 -0.00049147)
(0.122788 0.000665965 -0.000520632)
(0.116848 0.0010932 -0.000540235)
(0.104078 0.00117659 -0.000458712)
(0.0715536 0.00105458 -0.000382589)
(0.126609 0.000400986 -0.000131446)
(0.12361 0.000792359 -0.000260438)
(0.11744 0.00117939 -0.000412654)
(0.104385 0.00120972 -0.000466512)
(0.0719513 0.00107408 -0.000368703)
(0.125698 0.000489905 0.000252545)
(0.12257 0.000811883 4.85699e-05)
(0.116006 0.00113015 -0.000218595)
(0.102048 0.00108219 -0.000388787)
(0.0682327 0.000940875 -0.000274866)
(0.122794 0.000519721 0.000665499)
(0.119593 0.000733189 0.000428034)