/*--------------------------------*- C++ -*----------------------------------*\
| =========                 |                                                 |
| \\      /  F ield         | OpenFOAM: The Open Source CFD Toolbox           |
|  \\    /   O peration     | Version:  2212                                  |
|   \\  /    A nd           | Website:  www.openfoam.com                      |
|    \\/     M anipulation  |                                                 |
\*---------------------------------------------------------------------------*/
FoamFile
{
    version     2.0;
    format      ascii;
    arch        "LSB;label=32;scalar=64";
    class       volScalarField;
    location    "1.95";
    object      epsilon;
}
// * * * * * * * * * * * * * * * * * * * * * * * * * * * * * * * * * * * * * //

dimensions      [0 2 -3 0 0 0 0];

internalField   nonuniform List<scalar> 
6840
(
90.5034
12.1248
4.38869
2.46658
1.63315
1.18306
0.902004
0.72065
0.594567
0.502474
0.432634
0.379221
0.336213
0.299718
0.269942
0.245771
0.225989
0.20992
0.198985
0.187667
58.5856
14.5696
6.08946
3.33294
2.08216
1.40266
0.998639
0.740269
0.565883
0.443896
0.355981
0.290871
0.241328
0.202862
0.172912
0.149541
0.130916
0.115837
0.103877
0.0948056
45.0226
13.4729
5.73074
3.07322
1.86022
1.22698
0.873561
0.649761
0.49699
0.389448
0.311249
0.252924
0.20891
0.17512
0.148688
0.127694
0.110841
0.0971566
0.0859995
0.0773065
38.7028
13.0541
5.74336
3.08733
1.88066
1.22749
0.869466
0.645372
0.492577
0.384762
0.306999
0.249013
0.204936
0.170934
0.14433
0.123229
0.106282
0.0925024
0.0812507
0.07296
36.0571
12.8529
5.76645
3.10212
1.89476
1.22669
0.866503
0.643989
0.492258
0.383977
0.305816
0.247947
0.203961
0.170008
0.143425
0.122328
0.105385
0.0916324
0.0804744
0.0724913
36.0571
12.8529
5.76645
3.10212
1.89476
1.2267
0.866512
0.644
0.492273
0.383995
0.305842
0.247982
0.204007
0.17007
0.143509
0.122447
0.105548
0.0918511
0.0807193
0.0723429
38.7028
13.0541
5.74336
3.08734
1.88067
1.22751
0.869487
0.645398
0.49261
0.384805
0.307061
0.249094
0.205045
0.171083
0.144535
0.123521
0.106697
0.0930908
0.0820199
0.0732289
45.0226
13.4729
5.73075
3.07323
1.86023
1.227
0.87358
0.649785
0.497023
0.389502
0.311318
0.253015
0.209033
0.175289
0.148935
0.128055
0.111373
0.0979488
0.0871599
0.0789415
58.5856
14.5696
6.08946
3.33295
2.08217
1.40266
0.998644
0.740276
0.565892
0.443915
0.356009
0.290915
0.241398
0.202998
0.17311
0.149854
0.13145
0.116813
0.105757
0.0981859
90.5034
12.1248
4.38869
2.46658
1.63315
1.18306
0.902004
0.72065
0.594567
0.502474
0.432635
0.37922
0.336216
0.299713
0.269945
0.245773
0.225991
0.209921
0.198985
0.187683
58.5856
14.5696
6.08946
3.33295
2.08217
1.40266
0.998644
0.740276
0.565892
0.443915
0.35601
0.290916
0.241397
0.203002
0.173109
0.149853
0.13145
0.116815
0.105761
0.0981904
16.5373
9.49238
5.0127
2.8606
1.75746
1.14759
0.786927
0.562044
0.41536
0.315937
0.246319
0.196203
0.159193
0.131212
0.109725
0.0931167
0.0800351
0.0695543
0.0603109
0.0549371
13.6679
8.73671
5.07741
3.05388
1.92223
1.26609
0.869289
0.618631
0.453959
0.342034
0.26365
0.207311
0.165901
0.134846
0.111145
0.092683
0.0781567
0.0666216
0.0571491
0.0497571
12.9054
8.33993
5.07879
3.15547
2.02775
1.35121
0.933541
0.666464
0.489552
0.368603
0.283614
0.222399
0.177342
0.143544
0.117765
0.0977869
0.0820983
0.069628
0.0595916
0.051388
12.6882
8.1544
5.07113
3.20039
2.0794
1.39506
0.967837
0.692729
0.509646
0.384027
0.295517
0.231664
0.184612
0.149284
0.122313
0.101415
0.0849998
0.0719481
0.0614568
0.0529569
12.6882
8.1544
5.07113
3.20039
2.0794
1.39506
0.967835
0.692726
0.509644
0.384024
0.295513
0.231659
0.184606
0.149274
0.122297
0.101399
0.0849819
0.0719269
0.0614319
0.0529215
12.9054
8.33993
5.07879
3.15547
2.02775
1.3512
0.933538
0.666459
0.489548
0.368598
0.283607
0.22239
0.177328
0.14352
0.117735
0.0977553
0.0820614
0.0695838
0.0595351
0.0512274
13.6679
8.73671
5.0774
3.05388
1.92223
1.26609
0.869287
0.618628
0.453956
0.34203
0.263645
0.207305
0.165892
0.134831
0.11112
0.0926576
0.078128
0.0665896
0.0570959
0.049761
16.5373
9.49238
5.0127
2.8606
1.75746
1.14759
0.786927
0.562044
0.41536
0.315937
0.246319
0.196203
0.159193
0.131216
0.109721
0.093116
0.0800359
0.0695556
0.0603134
0.0549435
58.5856
14.5696
6.08946
3.33294
2.08216
1.40266
0.998639
0.74027
0.565883
0.443896
0.355981
0.290872
0.241328
0.202861
0.172912
0.149542
0.130918
0.115841
0.103881
0.0948142
45.0226
13.4729
5.73075
3.07323
1.86023
1.227
0.87358
0.649786
0.497023
0.389502
0.311318
0.253016
0.209034
0.17529
0.148934
0.128055
0.111374
0.0979507
0.087163
0.0789483
13.6679
8.73671
5.0774
3.05388
1.92223
1.26609
0.869287
0.618628
0.453956
0.34203
0.263645
0.207304
0.165892
0.134832
0.111118
0.0926563
0.0781259
0.0665859
0.0570972
0.0497584
11.8601
7.76395
4.99734
3.24076
2.14419
1.45499
1.0141
0.725633
0.532153
0.399146
0.305541
0.238216
0.188818
0.151907
0.123866
0.102227
0.0853069
0.0719136
0.0611639
0.0525595
11.6229
7.60535
5.0103
3.34209
2.26848
1.57142
1.11236
0.804589
0.594205
0.447519
0.343212
0.267636
0.211902
0.170124
0.13833
0.113789
0.0946039
0.079429
0.0672916
0.0574975
11.5726
7.56718
5.02065
3.38345
2.32103
1.62326
1.15829
0.843158
0.625693
0.472852
0.363488
0.283858
0.224911
0.180595
0.146797
0.120673
0.100232
0.0840527
0.0711094
0.0606322
11.5726
7.56718
5.02065
3.38344
2.32103
1.62326
1.15828
0.843155
0.625691
0.47285
0.363485
0.283854
0.224906
0.180587
0.146785
0.120662
0.100219
0.084038
0.0710954
0.0606409
11.6229
7.60535
5.0103
3.34209
2.26848
1.57142
1.11236
0.804586
0.594202
0.447514
0.343207
0.267629
0.211893
0.17011
0.138312
0.11377
0.0945824
0.0794047
0.0672673
0.0575065
11.8601
7.76395
4.99734
3.24076
2.14419
1.45499
1.0141
0.725633
0.532153
0.399146
0.305542
0.238217
0.18882
0.151908
0.123864
0.102227
0.085308
0.0719154
0.0611668
0.052566
13.6679
8.73671
5.07741
3.05388
1.92223
1.26609
0.869289
0.618631
0.453959
0.342034
0.26365
0.207311
0.165902
0.134851
0.11114
0.0926809
0.0781559
0.0666214
0.0571491
0.0497606
45.0226
13.4729
5.73074
3.07322
1.86022
1.22698
0.873561
0.649761
0.49699
0.389448
0.31125
0.252924
0.208911
0.175121
0.148687
0.127694
0.110842
0.0971578
0.0860018
0.0773122
38.7028
13.0541
5.74337
3.08734
1.88067
1.22751
0.869487
0.645398
0.49261
0.384805
0.307061
0.249094
0.205046
0.171082
0.144534
0.123521
0.106698
0.0930924
0.0820226
0.0732337
12.9054
8.33993
5.07879
3.15547
2.02775
1.3512
0.933539
0.666459
0.489548
0.368598
0.283607
0.22239
0.177329
0.143525
0.117731
0.0977531
0.0820598
0.069582
0.0595336
0.0512251
11.6229
7.60535
5.0103
3.34209
2.26848
1.57142
1.11236
0.804586
0.594202
0.447514
0.343207
0.267629
0.211893
0.170111
0.138311
0.113769
0.0945812
0.0794031
0.0672652
0.0575039
11.4933
7.5119
5.02843
3.434
2.3892
1.6928
1.22111
0.896486
0.669455
0.50812
0.391654
0.306283
0.242781
0.194884
0.158277
0.129949
0.107772
0.0902203
0.0761807
0.0647747
11.4757
7.50136
5.04297
3.47002
2.43665
1.74299
1.26863
0.938712
0.705583
0.538335
0.416593
0.326727
0.259498
0.208556
0.169484
0.139166
0.115386
0.0965394
0.0814431
0.0691292
11.4757
7.50136
5.04297
3.47002
2.43665
1.74299
1.26863
0.938711
0.705582
0.538334
0.416592
0.326726
0.259496
0.208554
0.169481
0.139163
0.115382
0.0965354
0.0814382
0.0691235
11.4933
7.5119
5.02843
3.434
2.3892
1.6928
1.22111
0.896486
0.669455
0.508121
0.391654
0.306283
0.242782
0.194885
0.158276
0.129948
0.107772
0.090221
0.0761817
0.0647762
11.6229
7.60535
5.0103
3.34209
2.26848
1.57142
1.11236
0.804589
0.594205
0.447519
0.343213
0.267636
0.211903
0.170125
0.138328
0.113788
0.0946041
0.0794296
0.0672927
0.0574993
12.9054
8.33993
5.07879
3.15547
2.02775
1.35121
0.933541
0.666464
0.489552
0.368603
0.283614
0.222399
0.177342
0.143547
0.117762
0.0977853
0.0820974
0.0696273
0.0595909
0.0513865
38.7028
13.0541
5.74336
3.08733
1.88066
1.22749
0.869466
0.645372
0.492577
0.384762
0.307
0.249013
0.204938
0.170936
0.144327
0.123228
0.10628
0.0925017
0.0812512
0.0729625
36.0571
12.8529
5.76645
3.10212
1.89476
1.2267
0.866512
0.644
0.492273
0.383996
0.305842
0.247982
0.204007
0.17007
0.143509
0.122447
0.105549
0.0918523
0.080721
0.072346
12.6882
8.1544
5.07113
3.20039
2.0794
1.39506
0.967836
0.692726
0.509644
0.384024
0.295514
0.231659
0.184606
0.149276
0.122297
0.101399
0.084982
0.0719271
0.0614322
0.0529214
11.5726
7.56718
5.02065
3.38344
2.32103
1.62326
1.15828
0.843155
0.625691
0.47285
0.363485
0.283854
0.224906
0.180588
0.146785
0.120661
0.100219
0.0840378
0.0710951
0.0606414
11.4757
7.50136
5.04297
3.47002
2.43665
1.74299
1.26863
0.938711
0.705582
0.538334
0.416591
0.326726
0.259496
0.208554
0.16948
0.139163
0.115382
0.0965352
0.0814382
0.0691249
11.4647
7.49683
5.0577
3.50272
2.48038
1.79068
1.31522
0.981304
0.742923
0.570208
0.443348
0.348965
0.277885
0.223733
0.182016
0.149538
0.123999
0.103719
0.0874401
0.0740666
11.4647
7.49683
5.0577
3.50272
2.48038
1.79068
1.31522
0.981304
0.742923
0.570208
0.443348
0.348965
0.277885
0.223733
0.182016
0.149538
0.123999
0.10372
0.0874402
0.0740658
11.4757
7.50136
5.04297
3.47002
2.43665
1.74299
1.26863
0.938712
0.705583
0.538335
0.416593
0.326727
0.259498
0.208557
0.169483
0.139166
0.115386
0.0965392
0.0814431
0.0691298
11.5726
7.56718
5.02065
3.38345
2.32103
1.62326
1.15829
0.843158
0.625693
0.472852
0.363488
0.283858
0.224911
0.180595
0.146797
0.120673
0.100232
0.0840522
0.0711088
0.0606318
12.6882
8.1544
5.07113
3.20039
2.0794
1.39506
0.967837
0.692729
0.509646
0.384027
0.295516
0.231663
0.184611
0.149283
0.122315
0.101416
0.085
0.0719479
0.0614565
0.0529564
36.0571
12.8529
5.76645
3.10212
1.89476
1.22669
0.866503
0.643989
0.492259
0.383977
0.305816
0.247948
0.203963
0.170011
0.143422
0.122326
0.105383
0.0916307
0.0804732
0.0724906
36.0571
12.8529
5.76645
3.10212
1.89476
1.22669
0.866503
0.643989
0.492259
0.383977
0.305816
0.247947
0.203961
0.170008
0.143425
0.122328
0.105385
0.0916325
0.0804744
0.0724919
12.6882
8.1544
5.07113
3.20039
2.0794
1.39506
0.967837
0.692729
0.509646
0.384027
0.295517
0.231664
0.184612
0.149285
0.122313
0.101416
0.0850011
0.07195
0.0614593
0.0529598
11.5726
7.56718
5.02065
3.38345
2.32103
1.62326
1.15829
0.843158
0.625693
0.472853
0.363488
0.283858
0.224912
0.180596
0.146796
0.120674
0.100233
0.084054
0.0711111
0.0606349
11.4757
7.50136
5.04297
3.47002
2.43665
1.74299
1.26863
0.938712
0.705583
0.538335
0.416593
0.326727
0.259498
0.208556
0.169484
0.139166
0.115386
0.0965398
0.0814437
0.0691314
11.4647
7.49683
5.0577
3.50272
2.48038
1.79068
1.31522
0.981304
0.742923
0.570208
0.443348
0.348965
0.277885
0.223732
0.182016
0.149538
0.123999
0.103719
0.0874403
0.0740666
11.4647
7.49683
5.0577
3.50272
2.48038
1.79068
1.31522
0.981304
0.742923
0.570208
0.443348
0.348965
0.277885
0.223733
0.182016
0.149538
0.123999
0.103719
0.0874401
0.0740656
11.4757
7.50136
5.04297
3.47002
2.43665
1.74299
1.26863
0.938711
0.705582
0.538334
0.416591
0.326726
0.259496
0.208554
0.16948
0.139162
0.115382
0.0965346
0.0814375
0.0691236
11.5726
7.56718
5.02065
3.38344
2.32103
1.62326
1.15828
0.843155
0.625691
0.472849
0.363484
0.283853
0.224904
0.180586
0.146787
0.120662
0.100218
0.0840366
0.0710936
0.0606397
12.6882
8.1544
5.07113
3.20039
2.07939
1.39506
0.967835
0.692726
0.509644
0.384024
0.295513
0.231659
0.184604
0.149271
0.122303
0.101402
0.084983
0.0719274
0.0614321
0.0529214
36.0571
12.8529
5.76645
3.10212
1.89476
1.2267
0.866512
0.644
0.492273
0.383995
0.305842
0.247982
0.204008
0.170072
0.143508
0.122445
0.105547
0.0918498
0.0807181
0.0723412
38.7028
13.0541
5.74336
3.08733
1.88066
1.22749
0.869467
0.645372
0.492577
0.384762
0.306999
0.249013
0.204936
0.170934
0.14433
0.123229
0.106281
0.0925015
0.0812495
0.072957
12.9054
8.33993
5.07879
3.15547
2.02775
1.35121
0.933541
0.666464
0.489552
0.368603
0.283614
0.2224
0.177342
0.143545
0.117765
0.0977877
0.0820997
0.0696299
0.0595938
0.0513904
11.6229
7.60535
5.0103
3.34209
2.26848
1.57142
1.11236
0.804589
0.594205
0.447519
0.343213
0.267636
0.211902
0.170124
0.13833
0.113789
0.0946051
0.0794306
0.0672936
0.0575011
11.4933
7.5119
5.02843
3.434
2.3892
1.6928
1.22111
0.896486
0.669455
0.508121
0.391654
0.306283
0.242781
0.194884
0.158278
0.129949
0.107772
0.0902206
0.0761812
0.0647755
11.4757
7.50136
5.04297
3.47002
2.43665
1.74299
1.26863
0.938711
0.705582
0.538334
0.416591
0.326726
0.259496
0.208554
0.169481
0.139163
0.115382
0.0965346
0.0814374
0.0691227
11.4757
7.50136
5.04297
3.47002
2.43665
1.74299
1.26863
0.938712
0.705583
0.538335
0.416592
0.326727
0.259498
0.208556
0.169484
0.139166
0.115386
0.096539
0.0814427
0.0691294
11.4933
7.5119
5.02843
3.434
2.3892
1.6928
1.22111
0.896485
0.669454
0.50812
0.391654
0.306283
0.242782
0.194885
0.158276
0.129948
0.107771
0.0902203
0.076181
0.0647755
11.6229
7.60535
5.0103
3.34209
2.26848
1.57142
1.11236
0.804586
0.594202
0.447514
0.343207
0.267628
0.211892
0.17011
0.138312
0.113769
0.0945813
0.0794033
0.0672656
0.0575047
12.9054
8.33993
5.07879
3.15547
2.02775
1.3512
0.933537
0.66646
0.489548
0.368598
0.283607
0.22239
0.177328
0.14352
0.117736
0.0977558
0.0820617
0.069584
0.0595352
0.0512275
38.7028
13.0541
5.74336
3.08734
1.88067
1.22751
0.869487
0.645398
0.49261
0.384805
0.307061
0.249093
0.205045
0.171082
0.144534
0.12352
0.106696
0.0930905
0.0820199
0.0732294
45.0226
13.4729
5.73074
3.07322
1.86022
1.22698
0.873561
0.649761
0.496991
0.389448
0.311249
0.252924
0.20891
0.17512
0.148688
0.127694
0.11084
0.097155
0.0859978
0.0772999
13.6679
8.73671
5.07741
3.05388
1.92223
1.26609
0.869289
0.618631
0.453959
0.342034
0.26365
0.207311
0.165901
0.134846
0.111145
0.0926836
0.0781576
0.0666235
0.0571453
0.0497607
11.8601
7.76395
4.99734
3.24076
2.14419
1.45499
1.0141
0.725633
0.532153
0.399146
0.305541
0.238216
0.188818
0.151907
0.123866
0.102228
0.0853074
0.071914
0.0611645
0.0525635
11.6229
7.60535
5.0103
3.34209
2.26848
1.57142
1.11236
0.804586
0.594202
0.447514
0.343207
0.267628
0.211892
0.17011
0.138311
0.113769
0.0945808
0.0794023
0.0672644
0.0575017
11.5726
7.56718
5.02065
3.38344
2.32103
1.62326
1.15828
0.843155
0.625691
0.472849
0.363484
0.283853
0.224905
0.180587
0.146785
0.120661
0.100217
0.0840361
0.071093
0.060638
11.5726
7.56718
5.02065
3.38345
2.32103
1.62326
1.15829
0.843158
0.625693
0.472852
0.363488
0.283858
0.224911
0.180596
0.146796
0.120673
0.100232
0.0840525
0.0711094
0.060633
11.6229
7.60535
5.0103
3.34209
2.26848
1.57142
1.11236
0.804589
0.594205
0.447519
0.343213
0.267636
0.211903
0.170125
0.138328
0.113788
0.0946043
0.07943
0.0672931
0.0574993
11.8601
7.76395
4.99734
3.24076
2.14419
1.45499
1.0141
0.725632
0.532153
0.399146
0.305541
0.238217
0.188819
0.151908
0.123864
0.102227
0.0853073
0.0719146
0.0611646
0.0525605
13.6679
8.73671
5.0774
3.05388
1.92223
1.26609
0.869287
0.618628
0.453956
0.34203
0.263645
0.207305
0.165892
0.134831
0.11112
0.0926575
0.0781277
0.066589
0.057095
0.0497612
45.0226
13.4729
5.73075
3.07323
1.86023
1.227
0.87358
0.649786
0.497023
0.389502
0.311318
0.253015
0.209033
0.175289
0.148935
0.128055
0.111373
0.0979494
0.0871614
0.078945
58.5856
14.5696
6.08946
3.33294
2.08216
1.40266
0.99864
0.74027
0.565883
0.443896
0.355982
0.290872
0.241328
0.202862
0.172911
0.14954
0.130914
0.115833
0.103871
0.094796
16.5373
9.49238
5.0127
2.8606
1.75746
1.14759
0.786927
0.562044
0.41536
0.315937
0.246318
0.196203
0.159192
0.131211
0.109724
0.0931158
0.0800339
0.0695525
0.0603089
0.0549388
13.6679
8.73671
5.0774
3.05388
1.92223
1.26609
0.869287
0.618628
0.453956
0.34203
0.263645
0.207304
0.165891
0.134831
0.111118
0.0926555
0.0781248
0.0665846
0.0570958
0.049756
12.9054
8.33993
5.07879
3.15547
2.02775
1.3512
0.933538
0.666458
0.489547
0.368598
0.283607
0.222389
0.177329
0.143525
0.117731
0.0977525
0.0820591
0.0695813
0.0595328
0.0512241
12.6882
8.1544
5.07113
3.20039
2.07939
1.39506
0.967835
0.692726
0.509644
0.384024
0.295513
0.231659
0.184606
0.149276
0.122296
0.101399
0.0849817
0.071927
0.061432
0.0529211
12.6882
8.1544
5.07113
3.20039
2.0794
1.39506
0.967837
0.692729
0.509646
0.384027
0.295517
0.231664
0.184612
0.149286
0.122313
0.101415
0.085001
0.0719499
0.0614593
0.0529595
12.9054
8.33993
5.07879
3.15547
2.02775
1.35121
0.933542
0.666463
0.489552
0.368603
0.283614
0.222399
0.177343
0.143547
0.117762
0.0977863
0.082099
0.0696294
0.0595933
0.0513893
13.6679
8.73671
5.07741
3.05388
1.92223
1.26609
0.869289
0.61863
0.453959
0.342034
0.26365
0.207311
0.165902
0.134851
0.11114
0.0926812
0.0781564
0.0666227
0.0571446
0.04976
16.5373
9.49238
5.0127
2.8606
1.75746
1.14759
0.786927
0.562044
0.415359
0.315937
0.246318
0.196203
0.159193
0.131215
0.10972
0.0931152
0.0800348
0.0695541
0.0603116
0.0549441
58.5856
14.5696
6.08946
3.33295
2.08217
1.40266
0.998644
0.740276
0.565892
0.443915
0.356009
0.290915
0.241398
0.202998
0.17311
0.149854
0.13145
0.116813
0.105756
0.0981848
90.5034
12.1248
4.38869
2.46658
1.63315
1.18306
0.902004
0.72065
0.594567
0.502474
0.432634
0.379222
0.336213
0.299718
0.269942
0.245769
0.225987
0.209915
0.198975
0.187657
58.5856
14.5696
6.08946
3.33295
2.08217
1.40266
0.998644
0.740276
0.565892
0.443915
0.35601
0.290916
0.241397
0.203002
0.173108
0.149852
0.131449
0.116813
0.105757
0.0981841
45.0226
13.4729
5.73075
3.07323
1.86023
1.227
0.87358
0.649786
0.497023
0.389503
0.311318
0.253016
0.209034
0.175291
0.148934
0.128055
0.111374
0.0979508
0.0871625
0.0789439
38.7028
13.0541
5.74337
3.08734
1.88067
1.22751
0.869487
0.645398
0.492611
0.384806
0.307061
0.249094
0.205046
0.171083
0.144534
0.123521
0.106698
0.0930929
0.0820226
0.0732265
36.0571
12.8529
5.76645
3.10212
1.89476
1.2267
0.866512
0.644
0.492273
0.383996
0.305843
0.247982
0.204007
0.17007
0.14351
0.122448
0.105549
0.0918528
0.0807215
0.0723458
36.0571
12.8529
5.76645
3.10212
1.89476
1.22669
0.866504
0.643988
0.492258
0.383976
0.305816
0.247948
0.203961
0.170009
0.143426
0.122329
0.105385
0.0916325
0.0804743
0.0724911
38.7028
13.0541
5.74336
3.08733
1.88066
1.22749
0.869467
0.645372
0.492577
0.384762
0.306999
0.249013
0.204938
0.170937
0.144328
0.123228
0.10628
0.0925006
0.0812489
0.0729555
45.0226
13.4729
5.73074
3.07322
1.86022
1.22698
0.873561
0.649761
0.49699
0.389448
0.311249
0.252924
0.208911
0.17512
0.148686
0.127693
0.11084
0.0971547
0.0859976
0.0773017
58.5856
14.5696
6.08946
3.33294
2.08216
1.40266
0.998639
0.74027
0.565883
0.443896
0.355981
0.290871
0.241328
0.20286
0.172911
0.14954
0.130914
0.115834
0.103872
0.0947997
90.5034
12.1248
4.38869
2.46658
1.63315
1.18306
0.902004
0.72065
0.594567
0.502474
0.432635
0.379219
0.336216
0.299712
0.269944
0.245771
0.225988
0.209916
0.198975
0.18766
0.303051
0.251222
0.21288
0.190473
0.176873
0.167963
0.160879
0.154298
0.148437
0.142881
0.138168
0.133831
0.129734
0.125777
0.122206
0.118797
0.115695
0.112702
0.109936
0.107337
0.10481
0.102442
0.100186
0.0981192
0.0961719
0.0942927
0.0924921
0.0907213
0.0890178
0.0873648
0.0858228
0.0843064
0.0828217
0.0813359
0.0798447
0.0786134
0.0773889
0.0761478
0.0750774
0.0731725
0.130781
0.110054
0.0952506
0.0849725
0.0777505
0.0723322
0.0679245
0.0641722
0.060914
0.0578617
0.0553744
0.0531075
0.0510419
0.0491129
0.0473589
0.0457233
0.0442616
0.0429123
0.0416718
0.0405235
0.0394311
0.0384038
0.0374511
0.0365761
0.0357733
0.0350172
0.0342916
0.0335894
0.0329132
0.0322542
0.0316246
0.0310186
0.0304377
0.0298755
0.0293179
0.0287889
0.0282976
0.0278185
0.0273665
0.0268453
0.098229
0.0834212
0.0722017
0.0646594
0.0590032
0.0542374
0.0502784
0.0469741
0.0441692
0.0417718
0.0396644
0.0377951
0.0361559
0.0345999
0.0331811
0.031917
0.030789
0.0297702
0.0288103
0.0279163
0.0270804
0.0262495
0.0254742
0.0247804
0.0241529
0.0235705
0.0230085
0.0224675
0.021952
0.0214561
0.0209815
0.0205208
0.020084
0.0196665
0.0192634
0.018885
0.0185139
0.018153
0.0178061
0.0174526
0.0802739
0.0702329
0.062422
0.0562457
0.0512426
0.0470662
0.0434857
0.0404015
0.0377264
0.0353911
0.0333485
0.0315423
0.0299306
0.028494
0.0272072
0.0260536
0.0250035
0.0240761
0.0231269
0.022261
0.0214963
0.020783
0.0201063
0.0194772
0.0188935
0.0183542
0.01785
0.0173756
0.0169315
0.0165076
0.0161007
0.0157078
0.015332
0.0149899
0.0146538
0.014341
0.0140327
0.0137417
0.0134629
0.0131828
0.0700086
0.0626664
0.0564622
0.0512128
0.0467502
0.0429493
0.0396839
0.0368553
0.0343761
0.0321931
0.0302619
0.0285474
0.0270248
0.0256457
0.0244132
0.0233017
0.0222896
0.0213629
0.02052
0.0197371
0.0190621
0.0183514
0.0176898
0.0170912
0.0165477
0.0160403
0.0155742
0.0151356
0.0147304
0.014346
0.013979
0.0136265
0.0132907
0.0129816
0.01267
0.0123824
0.0121039
0.0118436
0.011599
0.0113681
0.0663479
0.0592778
0.0534211
0.0484843
0.0442978
0.0407326
0.0376765
0.0350317
0.0327058
0.030643
0.0288057
0.027166
0.0257057
0.0243679
0.0231619
0.0220713
0.0210822
0.0201898
0.0193777
0.0186329
0.0179518
0.0173229
0.0167559
0.016215
0.0156621
0.0151452
0.0146809
0.0142595
0.0138808
0.0135192
0.0131855
0.0128695
0.0125311
0.0122521
0.0119149
0.0116661
0.0113889
0.0111541
0.0109231
0.0107027
0.0704222
0.0607198
0.053869
0.0485178
0.0441929
0.0406201
0.0376068
0.0350082
0.0327209
0.0306933
0.0288852
0.0272665
0.0258166
0.0244934
0.0232974
0.0222134
0.0212292
0.0203364
0.0195278
0.0187965
0.0181287
0.0175146
0.0169371
0.0164117
0.0158576
0.0153535
0.0149045
0.0144915
0.0141149
0.0137458
0.0134034
0.0130783
0.0127347
0.0124495
0.0121499
0.0118895
0.011623
0.0113718
0.0111259
0.0108889
0.0757135
0.0638855
0.05619
0.0505792
0.0462109
0.0426587
0.0396447
0.0370259
0.0347177
0.032663
0.0308228
0.029171
0.027684
0.0263309
0.0251057
0.0239949
0.022989
0.0220798
0.0212504
0.0204934
0.0198081
0.0191638
0.0185286
0.0179411
0.0174208
0.0169254
0.0164699
0.0160369
0.015615
0.0151987
0.014817
0.0144687
0.0141515
0.0138391
0.0135353
0.0132339
0.0129282
0.0126407
0.0123616
0.0120902
0.0827066
0.0706981
0.0619973
0.0564009
0.0520212
0.0483914
0.045307
0.0426214
0.040243
0.0381014
0.0361776
0.0344867
0.0329483
0.0315225
0.030232
0.0290203
0.0278137
0.0267878
0.025845
0.0249945
0.0241926
0.0234568
0.0227654
0.0221001
0.0215044
0.0209316
0.0204053
0.0199076
0.0194476
0.0190078
0.0185937
0.0181948
0.0178191
0.0174553
0.0171018
0.0167336
0.0163658
0.0160286
0.0157102
0.0153814
0.106785
0.0932941
0.0828655
0.0755349
0.0701315
0.0661944
0.0628629
0.0597367
0.0569791
0.0543181
0.0520743
0.0501022
0.0482731
0.0462881
0.0445356
0.04293
0.0414305
0.0400568
0.0387824
0.0376166
0.0365223
0.0355158
0.0346052
0.0337671
0.0329995
0.0322664
0.0315724
0.0309102
0.030286
0.0296783
0.0291046
0.0285576
0.0280348
0.0275229
0.0270224
0.0264936
0.0260221
0.0255711
0.0251673
0.0246844
0.302942
0.251144
0.21274
0.19039
0.176545
0.167315
0.160094
0.153573
0.147795
0.142422
0.137818
0.133626
0.129667
0.125781
0.122192
0.118825
0.115705
0.11273
0.109962
0.107346
0.104839
0.10244
0.100212
0.0981242
0.0961972
0.0942972
0.0924954
0.0907149
0.0890052
0.0873521
0.0858135
0.0843025
0.082828
0.0813605
0.0799322
0.0785673
0.0773261
0.0760533
0.0749583
0.0729545
0.106787
0.0934031
0.0829643
0.0755663
0.0704107
0.0666467
0.06337
0.0601271
0.0573312
0.0545815
0.0522967
0.0502043
0.0483154
0.046291
0.0445523
0.0429078
0.0414291
0.0400413
0.0387751
0.0376118
0.0365142
0.0355117
0.0345989
0.0337633
0.0329942
0.0322645
0.0315744
0.0309159
0.0302955
0.0296891
0.0291167
0.0285694
0.0280454
0.0275245
0.0269928
0.0264902
0.0260502
0.0256216
0.0252281
0.0247625
0.055855
0.0498469
0.0437505
0.0394298
0.0354843
0.0330086
0.0307319
0.0287976
0.0270403
0.0254284
0.0240245
0.0229004
0.0216076
0.020745
0.0197103
0.0189289
0.0180711
0.017385
0.0166981
0.0161065
0.0155286
0.0149493
0.014501
0.0139959
0.0136168
0.0132536
0.0128717
0.0125186
0.012139
0.01177
0.0115187
0.0111972
0.0108669
0.0105333
0.0103224
0.0100389
0.00969661
0.00940645
0.00915311
0.0088807
0.0483356
0.041635
0.0363526
0.0317692
0.0287807
0.0262375
0.0240612
0.0221926
0.0205896
0.0192035
0.01793
0.0169327
0.0156455
0.0150116
0.014029
0.0134968
0.0126948
0.0122495
0.0116127
0.0112053
0.010766
0.0102666
0.00994785
0.00951125
0.00926905
0.00893767
0.00863376
0.00840998
0.0080789
0.00790579
0.00773269
0.00754498
0.00723997
0.00707429
0.00685952
0.00682729
0.00662444
0.00641386
0.00612833
0.00590086
0.0465311
0.0404272
0.0353781
0.03117
0.0275185
0.0246088
0.0224598
0.0205678
0.0189169
0.0174735
0.0162031
0.0150798
0.0140533
0.0131872
0.0124008
0.0116983
0.0110733
0.0105049
0.0100226
0.00948341
0.00913903
0.00861038
0.00832031
0.00791552
0.00770903
0.00735521
0.00717471
0.00686389
0.00666232
0.00645799
0.00632611
0.00619556
0.00593336
0.00581795
0.00561726
0.00563204
0.00547659
0.00533384
0.00506431
0.00492272
0.0467448
0.0405367
0.0355137
0.0313635
0.0278476
0.0247374
0.0221831
0.0200605
0.0183852
0.0169053
0.0156007
0.0144442
0.013398
0.0125054
0.011705
0.0109875
0.0103442
0.00976594
0.00924529
0.00877324
0.00834924
0.00796306
0.00761878
0.00731678
0.00700358
0.00674446
0.00645683
0.00623431
0.00602098
0.00582898
0.00566431
0.00555045
0.00533834
0.00522953
0.00504375
0.00506158
0.00491981
0.00479533
0.00455683
0.00441734
0.0468213
0.0406945
0.0356615
0.0314647
0.0279378
0.0248401
0.0221649
0.0198986
0.0181428
0.0166678
0.0153551
0.0141856
0.013129
0.0122192
0.0114052
0.0106781
0.010028
0.00944565
0.00892276
0.00845227
0.00802841
0.00764682
0.00731197
0.00702139
0.00671786
0.0064446
0.00617924
0.0059546
0.00574246
0.00556056
0.00541497
0.00527224
0.00511493
0.00499139
0.0048046
0.00481674
0.00468679
0.00450188
0.00439504
0.00414307
0.0465099
0.0407017
0.0356164
0.0313201
0.0277161
0.0245457
0.0218286
0.019651
0.0180013
0.0165321
0.0152277
0.0140727
0.0130394
0.0121424
0.0113416
0.0106261
0.00998698
0.0094136
0.00889868
0.00843466
0.00801623
0.00763838
0.00730504
0.00702523
0.00672316
0.0064778
0.00616381
0.00597594
0.00570343
0.0055649
0.00542146
0.00528211
0.00506874
0.00494592
0.00475125
0.00478478
0.00464411
0.00445657
0.00434441
0.00407074
0.0457556
0.0409824
0.0355441
0.0310483
0.0272839
0.0240496
0.0217197
0.01986
0.0182263
0.0167945
0.0155386
0.0144285
0.0134395
0.012579
0.011804
0.0111038
0.0104773
0.00990053
0.00938902
0.00891908
0.00850036
0.00812021
0.00774611
0.00751847
0.0070925
0.00689172
0.00654773
0.00638832
0.00606564
0.00595188
0.00579856
0.00565048
0.00536076
0.00523206
0.00501376
0.00486355
0.00492014
0.00473352
0.00457443
0.00423302
0.046472
0.0419901
0.0362861
0.0314167
0.0280827
0.0255443
0.0233659
0.0214883
0.0198545
0.0184266
0.0171797
0.0160573
0.0150893
0.0142279
0.013445
0.012669
0.01212
0.0113437
0.0109285
0.0103053
0.00996606
0.00943201
0.00913019
0.00869849
0.00839211
0.00817817
0.00780275
0.00761772
0.00727942
0.0071018
0.00691603
0.00673175
0.00640659
0.00625386
0.00600636
0.00583232
0.00582722
0.00557305
0.00537161
0.00502895
0.0558803
0.0497814
0.0437312
0.039346
0.0360042
0.0331804
0.0309056
0.0289137
0.0271412
0.0254885
0.0241185
0.022809
0.0216844
0.0207627
0.0197645
0.0189276
0.0181071
0.0173959
0.0167128
0.0161227
0.0155229
0.0149728
0.014496
0.0140174
0.0135958
0.0132763
0.0128772
0.0125306
0.0121491
0.0117738
0.0115226
0.0112
0.0108673
0.0105678
0.0102978
0.00999936
0.00983413
0.0095184
0.00915919
0.00884291
0.130767
0.11002
0.0951685
0.0849026
0.0775293
0.0719771
0.067548
0.0638359
0.0605858
0.0576152
0.0551732
0.0529778
0.0509849
0.0490947
0.0473509
0.0457315
0.0442722
0.042921
0.041689
0.0405294
0.0394473
0.0384137
0.0374643
0.0365839
0.0357818
0.0350248
0.0342965
0.0335933
0.0329161
0.0322571
0.0316289
0.0310251
0.0304468
0.0298881
0.0293494
0.0288024
0.0283012
0.0278129
0.0273509
0.0268123
0.0827307
0.0707801
0.0620628
0.0564506
0.0521323
0.0485318
0.0454511
0.0427518
0.040358
0.0381941
0.0362509
0.0345155
0.0329652
0.0315196
0.0302352
0.0289915
0.0278167
0.0267674
0.0258435
0.0249907
0.0241865
0.0234553
0.0227546
0.0220995
0.0215
0.0209317
0.0204074
0.0199125
0.0194549
0.0190175
0.018606
0.0182096
0.0178357
0.0174729
0.0171163
0.016741
0.0163745
0.0160475
0.0157447
0.0154297
0.0464551
0.0419604
0.0363015
0.0312943
0.0280373
0.0255191
0.0233455
0.0214746
0.0198459
0.0184246
0.0171827
0.0161165
0.0150493
0.0142717
0.0133748
0.0127982
0.0119334
0.0114802
0.0107876
0.0103735
0.0099566
0.00945376
0.00914664
0.0086751
0.00842956
0.00814839
0.00781132
0.00761982
0.00727922
0.00709895
0.00690999
0.00672746
0.00640365
0.0062519
0.0060351
0.00597082
0.00573511
0.00548198
0.00523379
0.00504527
0.0452535
0.0394686
0.0344189
0.0300792
0.02655
0.0236421
0.0212142
0.0191692
0.0174283
0.015933
0.0146322
0.0135087
0.0124683
0.0116033
0.0108077
0.0101179
0.00942291
0.00881429
0.00833098
0.00793955
0.00754278
0.00714563
0.0068193
0.00648114
0.00616522
0.00594
0.00565343
0.00549024
0.00520387
0.00510757
0.00499039
0.00485478
0.0046087
0.00449568
0.00431381
0.00434415
0.00421434
0.00410065
0.00385196
0.00371814
0.0476439
0.0413071
0.0360076
0.0315685
0.0278257
0.0246744
0.0220338
0.0197877
0.0178642
0.016206
0.0147681
0.0135133
0.0124072
0.0114393
0.0105805
0.00981732
0.00913422
0.00851546
0.00796928
0.0074795
0.00704329
0.00664674
0.00620955
0.00592452
0.00567433
0.00542357
0.00522578
0.00493258
0.00474476
0.00457372
0.00446096
0.00434374
0.00418465
0.00407684
0.00390096
0.00392919
0.00381327
0.00370531
0.00355235
0.00342161
0.0498793
0.0431252
0.037551
0.0329048
0.0289979
0.0256839
0.0228654
0.0204595
0.0184112
0.0166492
0.0151211
0.0137878
0.0126228
0.0115971
0.0106908
0.00988689
0.00917127
0.00853125
0.00795809
0.00744332
0.00698025
0.00656743
0.00616589
0.00585511
0.0055412
0.00522043
0.00497014
0.0047835
0.00461312
0.00448656
0.00433687
0.00419679
0.0040632
0.0039529
0.00381135
0.00382998
0.00370974
0.00359054
0.00347437
0.00336105
0.0507644
0.0438968
0.0382024
0.0334496
0.0294544
0.0260683
0.0231789
0.020705
0.0185954
0.0167887
0.0152274
0.0138673
0.0126811
0.0116372
0.0107155
0.00989883
0.00917234
0.00852317
0.00794219
0.0074219
0.00695374
0.00653671
0.00613808
0.00582907
0.00551285
0.00521518
0.00496316
0.00470984
0.00450897
0.00443873
0.00429627
0.00415904
0.00402544
0.00391094
0.00378945
0.00380502
0.00368462
0.00356463
0.00344762
0.00332997
0.0499336
0.0432651
0.0376641
0.0329572
0.0289913
0.02563
0.022773
0.0203442
0.0182801
0.0165084
0.0149789
0.0136502
0.0124915
0.0114752
0.0105772
0.00978141
0.00907301
0.00843995
0.00787335
0.00736609
0.0069078
0.00649969
0.00610719
0.00579808
0.00548411
0.00520553
0.00492282
0.00471426
0.00454016
0.00444955
0.0043033
0.00416429