/*--------------------------------*- C++ -*----------------------------------*\
| =========                 |                                                 |
| \\      /  F ield         | OpenFOAM: The Open Source CFD Toolbox           |
|  \\    /   O peration     | Version:  2212                                  |
|   \\  /    A nd           | Website:  www.openfoam.com                      |
|    \\/     M anipulation  |                                                 |
\*---------------------------------------------------------------------------*/
FoamFile
{
    version     2.0;
    format      ascii;
    arch        "LSB;label=32;scalar=64";
    class       volScalarField;
    location    "1.95";
    object      k;
}
// * * * * * * * * * * * * * * * * * * * * * * * * * * * * * * * * * * * * * //

dimensions      [0 2 -2 0 0 0 0];

internalField   nonuniform List<scalar> 
6840
(
0.213564
0.055916
0.0283994
0.0193412
0.0146927
0.011851
0.00989065
0.00851599
0.00749124
0.00669622
0.00606042
0.00555077
0.00512278
0.00474514
0.00442557
0.00415756
0.00393193
0.00374446
0.00361644
0.00348355
0.264759
0.104702
0.0585298
0.039163
0.0286198
0.0219934
0.017536
0.0143632
0.0120081
0.0102136
0.00881611
0.00770538
0.00680352
0.00605987
0.00544773
0.00494522
0.00452584
0.00417188
0.00388118
0.00365435
0.283364
0.126774
0.0717019
0.0473281
0.0338662
0.0256615
0.0204606
0.0167968
0.0140482
0.0119405
0.0102832
0.00895464
0.00788302
0.00700823
0.00628393
0.00567751
0.00516624
0.00473174
0.00436254
0.00406708
0.292299
0.141633
0.0819301
0.0541653
0.038923
0.0292873
0.023272
0.0190783
0.0159336
0.0135143
0.0116258
0.0101114
0.00887983
0.00786815
0.00702881
0.00632565
0.00573112
0.00522374
0.00478961
0.00445148
0.295943
0.148782
0.0871941
0.0576749
0.0415193
0.0310722
0.0246449
0.0202209
0.0169048
0.0143246
0.0123079
0.0107016
0.00939515
0.0083211
0.00742918
0.00668129
0.0060488
0.00550988
0.0050523
0.00471197
0.295943
0.148782
0.0871941
0.0576749
0.0415194
0.0310723
0.0246451
0.0202211
0.0169051
0.0143251
0.0123087
0.0107027
0.00939666
0.00832326
0.00743231
0.00668595
0.00605559
0.00551949
0.00506392
0.00470938
0.292299
0.141633
0.0819302
0.0541654
0.0389231
0.0292875
0.0232724
0.0190788
0.0159344
0.0135153
0.0116274
0.0101137
0.00888316
0.00787301
0.00703591
0.00633632
0.00574714
0.00524769
0.0048233
0.0044736
0.283364
0.126774
0.071702
0.0473282
0.0338663
0.0256617
0.0204609
0.0167972
0.0140489
0.0119417
0.0102848
0.0089569
0.00788628
0.00701301
0.00629128
0.00568878
0.0051836
0.00475871
0.00440353
0.00412516
0.264759
0.104702
0.0585298
0.039163
0.0286199
0.0219934
0.017536
0.0143633
0.0120083
0.0102139
0.0088166
0.00770619
0.00680489
0.00606269
0.00545208
0.00495237
0.00453851
0.004196
0.00392896
0.00374321
0.213564
0.055916
0.0283994
0.0193412
0.0146927
0.011851
0.00989065
0.00851599
0.00749124
0.00669622
0.00606043
0.00555075
0.00512282
0.00474508
0.0044256
0.00415758
0.00393194
0.00374447
0.00361642
0.00348371
0.264759
0.104702
0.0585298
0.039163
0.0286199
0.0219934
0.017536
0.0143633
0.0120083
0.0102139
0.0088166
0.00770619
0.00680488
0.00606278
0.00545206
0.00495234
0.00453851
0.00419605
0.00392906
0.00374336
0.311746
0.197541
0.130357
0.0911456
0.0668021
0.050811
0.0397943
0.031912
0.0260941
0.0216871
0.0182764
0.0155883
0.0134407
0.0116979
0.0102665
0.00907885
0.00808377
0.00724166
0.00653852
0.00590867
0.31754
0.217754
0.151085
0.108549
0.0807153
0.0618723
0.0486769
0.0391412
0.0320578
0.0266704
0.0224885
0.0191851
0.0165358
0.0143824
0.0126112
0.01114
0.00990631
0.00886179
0.00797276
0.00720078
0.319723
0.227073
0.162232
0.118772
0.0893609
0.0689925
0.0545302
0.0439839
0.036099
0.0300737
0.0253807
0.0216632
0.0186749
0.0162415
0.0142369
0.0125679
0.0111652
0.00997563
0.00895694
0.00805331
0.320484
0.23086
0.167176
0.123531
0.0935158
0.0724824
0.0574405
0.046421
0.0381535
0.0318169
0.0268704
0.0229461
0.0197873
0.0172121
0.0150888
0.0133198
0.0118326
0.0105712
0.00949218
0.00855904
0.320484
0.23086
0.167176
0.123531
0.0935159
0.0724826
0.0574408
0.0464215
0.0381541
0.0318177
0.0268716
0.0229477
0.0197895
0.0172153
0.0150933
0.0133262
0.0118416
0.0105838
0.00950977
0.00858947
0.319723
0.227073
0.162232
0.118772
0.0893611
0.0689929
0.0545308
0.0439847
0.0361002
0.0300754
0.0253831
0.0216666
0.0186798
0.0162484
0.0142465
0.0125819
0.0111854
0.0100045
0.00899839
0.00814211
0.31754
0.217754
0.151085
0.108549
0.0807156
0.0618726
0.0486774
0.0391418
0.0320588
0.0266717
0.0224904
0.0191878
0.0165397
0.014388
0.0126192
0.0111517
0.00992352
0.00888724
0.00800969
0.00727029
0.311746
0.197541
0.130357
0.0911456
0.0668021
0.050811
0.0397943
0.031912
0.0260941
0.0216871
0.0182764
0.0155883
0.0134407
0.0116978
0.0102666
0.0090789
0.0080838
0.00724167
0.00653853
0.00590869
0.264759
0.104702
0.0585298
0.039163
0.0286198
0.0219934
0.017536
0.0143632
0.0120081
0.0102136
0.0088161
0.00770538
0.00680353
0.00605983
0.00544775
0.00494525
0.00452589
0.00417196
0.00388128
0.00365458
0.283364
0.126774
0.071702
0.0473282
0.0338663
0.0256617
0.0204609
0.0167972
0.0140489
0.0119417
0.0102848
0.00895692
0.00788631
0.00701303
0.00629125
0.00568877
0.00518362
0.00475878
0.00440363
0.00412537
0.31754
0.217754
0.151085
0.108549
0.0807156
0.0618726
0.0486774
0.0391418
0.0320588
0.0266717
0.0224904
0.0191878
0.0165398
0.014388
0.0126192
0.0111516
0.00992356
0.00888736
0.00800981
0.00726996
0.322005
0.239026
0.177588
0.133616
0.102323
0.0798668
0.0635104
0.0513819
0.0422214
0.0351791
0.0296753
0.0253088
0.0217974
0.0189387
0.0165855
0.014629
0.0129878
0.0115992
0.010414
0.00938661
0.323293
0.245617
0.187499
0.144536
0.112864
0.0894037
0.0718631
0.0585862
0.0483992
0.0404738
0.0342241
0.0292324
0.025198
0.0219012
0.0191798
0.0169122
0.0150064
0.0133909
0.0120063
0.0107856
0.323714
0.247819
0.191099
0.14881
0.117249
0.0935707
0.0756573
0.0619605
0.0513626
0.0430611
0.036479
0.0311991
0.0269172
0.0234089
0.020507
0.0180852
0.0160472
0.0143175
0.0128321
0.0115111
0.323714
0.247819
0.191099
0.14881
0.117249
0.0935708
0.0756574
0.0619607
0.0513629
0.0430615
0.0364796
0.0312
0.0269184
0.0234104
0.0205091
0.0180881
0.0160513
0.0143234
0.0128426
0.0115433
0.323293
0.245617
0.187499
0.144537
0.112864
0.0894039
0.0718633
0.0585866
0.0483997
0.0404745
0.0342251
0.0292338
0.0251999
0.0219038
0.0191834
0.0169174
0.0150137
0.0134011
0.0120226
0.0108235
0.322005
0.239026
0.177588
0.133616
0.102323
0.0798668
0.0635104
0.0513819
0.0422214
0.0351791
0.0296753
0.0253088
0.0217973
0.0189386
0.0165855
0.014629
0.0129878
0.0115992
0.0104141
0.0093867
0.31754
0.217754
0.151085
0.108549
0.0807153
0.0618723
0.0486769
0.0391412
0.0320578
0.0266704
0.0224885
0.0191851
0.0165359
0.0143824
0.0126112
0.01114
0.00990636
0.00886185
0.00797286
0.00720085
0.283364
0.126774
0.0717019
0.0473281
0.0338662
0.0256615
0.0204606
0.0167968
0.0140482
0.0119405
0.0102832
0.00895464
0.00788304
0.00700824
0.00628391
0.00567751
0.00516625
0.00473178
0.00436263
0.00406725
0.292299
0.141633
0.0819302
0.0541654
0.0389231
0.0292875
0.0232724
0.0190788
0.0159344
0.0135153
0.0116274
0.0101137
0.00888318
0.007873
0.00703589
0.00633633
0.00574717
0.00524776
0.00482341
0.0044738
0.319723
0.227073
0.162232
0.118772
0.0893612
0.0689929
0.0545308
0.0439847
0.0361002
0.0300754
0.0253831
0.0216667
0.0186798
0.0162483
0.0142465
0.0125819
0.0111854
0.0100047
0.0089986
0.00814226
0.323293
0.245617
0.187499
0.144537
0.112864
0.0894039
0.0718633
0.0585866
0.0483997
0.0404745
0.0342251
0.0292338
0.0251999
0.0219038
0.0191834
0.0169174
0.0150137
0.0134012
0.0120226
0.0108236
0.324288
0.250862
0.19613
0.154888
0.123591
0.09968
0.0812741
0.0669838
0.0557848
0.0469224
0.0398396
0.0341237
0.0294674
0.02564
0.0224669
0.019815
0.0175812
0.0156844
0.0140564
0.0126272
0.32459
0.252403
0.19891
0.158543
0.12769
0.103871
0.0853201
0.0707499
0.05921
0.0499927
0.0425684
0.0365383
0.0316005
0.0275248
0.024135
0.0212947
0.0188975
0.0168579
0.0151015
0.0135415
0.32459
0.252403
0.19891
0.158543
0.12769
0.103871
0.0853201
0.07075
0.0592101
0.0499928
0.0425686
0.0365386
0.0316007
0.0275252
0.0241355
0.0212954
0.0188985
0.0168596
0.0151053
0.0135557
0.324288
0.250862
0.19613
0.154888
0.123591
0.09968
0.0812741
0.0669838
0.0557848
0.0469224
0.0398396
0.0341237
0.0294674
0.02564
0.0224669
0.019815
0.0175812
0.0156844
0.0140565
0.0126273
0.323293
0.245617
0.187499
0.144536
0.112864
0.0894037
0.0718631
0.0585862
0.0483992
0.0404738
0.034224
0.0292324
0.025198
0.0219012
0.0191797
0.0169122
0.0150064
0.0133909
0.0120064
0.0107857
0.319723
0.227073
0.162232
0.118772
0.0893609
0.0689925
0.0545302
0.0439839
0.036099
0.0300737
0.0253807
0.0216632
0.018675
0.0162416
0.0142368
0.0125678
0.0111652
0.00997566
0.00895697
0.00805382
0.292299
0.141633
0.0819301
0.0541653
0.038923
0.0292873
0.023272
0.0190783
0.0159336
0.0135143
0.0116258
0.0101114
0.00887987
0.00786821
0.00702873
0.00632559
0.00573109
0.00522372
0.00478962
0.00445162
0.295943
0.148782
0.0871941
0.0576749
0.0415194
0.0310723
0.0246451
0.0202211
0.0169051
0.0143251
0.0123087
0.0107027
0.00939667
0.00832327
0.00743232
0.00668597
0.00605562
0.00551954
0.005064
0.00470952
0.320484
0.23086
0.167176
0.123531
0.0935159
0.0724826
0.0574408
0.0464215
0.0381541
0.0318177
0.0268716
0.0229477
0.0197896
0.0172153
0.0150933
0.0133263
0.0118417
0.0105839
0.00950994
0.00858972
0.323714
0.247819
0.191099
0.14881
0.117249
0.0935708
0.0756574
0.0619607
0.0513629
0.0430615
0.0364796
0.0312
0.0269184
0.0234105
0.0205091
0.0180882
0.0160513
0.0143235
0.0128427
0.0115434
0.32459
0.252403
0.19891
0.158543
0.12769
0.103871
0.0853201
0.07075
0.0592101
0.0499929
0.0425686
0.0365386
0.0316008
0.0275252
0.0241355
0.0212955
0.0188985
0.0168596
0.0151053
0.0135556
0.324844
0.253685
0.20131
0.161836
0.131535
0.107943
0.0893702
0.0746127
0.0627922
0.0532537
0.0455016
0.0391577
0.0339306
0.0295947
0.0259743
0.0229315
0.0203572
0.0181619
0.0162655
0.0145695
0.324844
0.253685
0.20131
0.161836
0.131535
0.107943
0.0893702
0.0746127
0.0627922
0.0532537
0.0455016
0.0391576
0.0339306
0.0295947
0.0259743
0.0229315
0.0203571
0.0181619
0.0162654
0.0145696
0.32459
0.252403
0.19891
0.158543
0.12769
0.103871
0.0853201
0.0707499
0.05921
0.0499927
0.0425684
0.0365383
0.0316004
0.0275248
0.024135
0.0212947
0.0188975
0.0168579
0.0151015
0.0135417
0.323714
0.247819
0.191099
0.14881
0.117249
0.0935707
0.0756573
0.0619605
0.0513626
0.0430611
0.036479
0.0311992
0.0269173
0.0234089
0.0205069
0.0180852
0.0160472
0.0143176
0.0128322
0.0115114
0.320484
0.23086
0.167176
0.123531
0.0935158
0.0724824
0.0574405
0.0464211
0.0381535
0.0318169
0.0268704
0.0229461
0.0197874
0.0172123
0.0150887
0.0133197
0.0118325
0.0105712
0.00949231
0.00855941
0.295943
0.148782
0.0871941
0.0576749
0.0415193
0.0310722
0.0246449
0.0202209
0.0169048
0.0143246
0.0123079
0.0107016
0.00939521
0.00832118
0.00742907
0.0066812
0.00604872
0.00550982
0.00505225
0.00471199
0.295943
0.148782
0.0871941
0.0576749
0.0415193
0.0310722
0.0246449
0.0202209
0.0169048
0.0143246
0.0123079
0.0107016
0.00939515
0.00832109
0.00742918
0.00668129
0.0060488
0.00550988
0.00505229
0.00471199
0.320484
0.23086
0.167176
0.123531
0.0935158
0.0724824
0.0574405
0.0464211
0.0381535
0.0318169
0.0268704
0.0229461
0.0197873
0.0172121
0.0150888
0.0133198
0.0118326
0.0105712
0.00949224
0.00855918
0.323714
0.247819
0.191099
0.14881
0.117249
0.0935707
0.0756573
0.0619605
0.0513626
0.0430611
0.036479
0.0311992
0.0269172
0.0234089
0.020507
0.0180852
0.0160472
0.0143176
0.0128322
0.0115112
0.32459
0.252403
0.19891
0.158543
0.12769
0.103871
0.0853201
0.0707499
0.05921
0.0499927
0.0425684
0.0365383
0.0316005
0.0275248
0.024135
0.0212947
0.0188975
0.0168579
0.0151015
0.0135414
0.324844
0.253685
0.20131
0.161836
0.131535
0.107943
0.0893702
0.0746127
0.0627922
0.0532537
0.0455016
0.0391577
0.0339306
0.0295947
0.0259743
0.0229315
0.0203571
0.0181619
0.0162654
0.0145695
0.324844
0.253685
0.20131
0.161836
0.131535
0.107943
0.0893702
0.0746127
0.0627922
0.0532537
0.0455016
0.0391576
0.0339306
0.0295947
0.0259743
0.0229315
0.0203571
0.0181619
0.0162654
0.0145696
0.32459
0.252403
0.19891
0.158543
0.12769
0.103871
0.0853201
0.07075
0.0592101
0.0499928
0.0425686
0.0365386
0.0316007
0.0275252
0.0241355
0.0212955
0.0188985
0.0168596
0.0151053
0.0135557
0.323714
0.247819
0.191099
0.14881
0.117249
0.0935708
0.0756574
0.0619607
0.0513629
0.0430615
0.0364796
0.0312
0.0269184
0.0234105
0.0205091
0.0180881
0.0160513
0.0143235
0.0128427
0.0115434
0.320484
0.23086
0.167176
0.123531
0.0935159
0.0724826
0.0574408
0.0464215
0.0381541
0.0318177
0.0268716
0.0229477
0.0197896
0.0172154
0.0150932
0.0133262
0.0118415
0.0105838
0.00950985
0.00858955
0.295943
0.148782
0.0871941
0.0576749
0.0415194
0.0310723
0.0246451
0.0202211
0.0169051
0.0143251
0.0123087
0.0107027
0.00939669
0.00832332
0.00743226
0.00668589
0.00605553
0.00551943
0.00506387
0.0047093
0.292299
0.141633
0.0819301
0.0541653
0.038923
0.0292873
0.023272
0.0190783
0.0159336
0.0135143
0.0116258
0.0101114
0.00887982
0.00786815
0.0070288
0.00632564
0.0057311
0.00522371
0.00478955
0.00445134
0.319723
0.227073
0.162232
0.118772
0.0893609
0.0689925
0.0545302
0.0439839
0.036099
0.0300737
0.0253807
0.0216632
0.0186749
0.0162415
0.0142369
0.0125678
0.0111651
0.00997555
0.00895683
0.00805312
0.323293
0.245617
0.187499
0.144536
0.112864
0.0894038
0.0718631
0.0585862
0.0483992
0.0404738
0.0342241
0.0292324
0.0251979
0.0219012
0.0191797
0.0169122
0.0150064
0.0133908
0.0120062
0.0107854
0.324288
0.250862
0.19613
0.154888
0.123591
0.09968
0.0812741
0.0669838
0.0557848
0.0469224
0.0398396
0.0341237
0.0294674
0.02564
0.0224669
0.0198149
0.0175811
0.0156843
0.0140563
0.012627
0.32459
0.252403
0.19891
0.158543
0.12769
0.103871
0.0853201
0.07075
0.0592101
0.0499928
0.0425686
0.0365386
0.0316008
0.0275252
0.0241355
0.0212955
0.0188985
0.0168595
0.0151052
0.0135556
0.32459
0.252403
0.19891
0.158543
0.12769
0.103871
0.0853201
0.0707499
0.05921
0.0499927
0.0425684
0.0365383
0.0316005
0.0275248
0.024135
0.0212947
0.0188975
0.0168579
0.0151015
0.0135417
0.324288
0.250862
0.19613
0.154888
0.123591
0.09968
0.0812741
0.0669838
0.0557848
0.0469224
0.0398396
0.0341237
0.0294674
0.02564
0.022467
0.019815
0.0175812
0.0156844
0.0140565
0.0126272
0.323293
0.245617
0.187499
0.144537
0.112864
0.0894039
0.0718633
0.0585866
0.0483997
0.0404745
0.0342251
0.0292338
0.0251999
0.0219038
0.0191835
0.0169174
0.0150137
0.0134012
0.0120226
0.0108235
0.319723
0.227073
0.162232
0.118772
0.0893611
0.0689929
0.0545308
0.0439847
0.0361002
0.0300754
0.0253831
0.0216666
0.0186798
0.0162484
0.0142465
0.0125818
0.0111853
0.0100045
0.00899842
0.00814195
0.292299
0.141633
0.0819302
0.0541654
0.0389231
0.0292875
0.0232724
0.0190788
0.0159344
0.0135153
0.0116274
0.0101137
0.00888316
0.007873
0.0070359
0.0063363
0.00574712
0.00524768
0.00482329
0.00447361
0.283364
0.126774
0.0717019
0.0473281
0.0338662
0.0256615
0.0204606
0.0167968
0.0140482
0.0119405
0.0102832
0.00895464
0.00788302
0.00700822
0.00628392
0.00567749
0.0051662
0.00473168
0.00436248
0.00406684
0.31754
0.217754
0.151085
0.108549
0.0807154
0.0618723
0.0486769
0.0391412
0.0320578
0.0266704
0.0224885
0.0191851
0.0165358
0.0143824
0.0126112
0.0111399
0.00990621
0.00886159
0.00797253
0.00720026
0.322005
0.239026
0.177588
0.133616
0.102323
0.0798668
0.0635104
0.0513819
0.0422214
0.0351791
0.0296753
0.0253088
0.0217973
0.0189386
0.0165854
0.014629
0.0129877
0.011599
0.0104138
0.00938621
0.323293
0.245617
0.187499
0.144537
0.112864
0.0894039
0.0718633
0.0585866
0.0483997
0.0404745
0.0342251
0.0292338
0.0251999
0.0219038
0.0191834
0.0169174
0.0150137
0.0134011
0.0120225
0.0108235
0.323714
0.247819
0.191099
0.14881
0.117249
0.0935708
0.0756574
0.0619607
0.0513629
0.0430615
0.0364796
0.0312
0.0269184
0.0234105
0.0205091
0.0180882
0.0160513
0.0143235
0.0128427
0.0115435
0.323714
0.247819
0.191099
0.14881
0.117249
0.0935707
0.0756573
0.0619605
0.0513626
0.0430611
0.036479
0.0311992
0.0269172
0.0234089
0.020507
0.0180852
0.0160473
0.0143177
0.0128323
0.0115114
0.323293
0.245617
0.187499
0.144536
0.112864
0.0894037
0.0718631
0.0585862
0.0483992
0.0404738
0.0342241
0.0292324
0.025198
0.0219012
0.0191797
0.0169122
0.0150065
0.0133909
0.0120064
0.0107856
0.322005
0.239026
0.177588
0.133616
0.102323
0.0798668
0.0635104
0.0513819
0.0422214
0.0351791
0.0296753
0.0253088
0.0217973
0.0189386
0.0165855
0.0146291
0.0129878
0.0115991
0.0104139
0.00938648
0.31754
0.217754
0.151085
0.108549
0.0807156
0.0618726
0.0486774
0.0391418
0.0320588
0.0266717
0.0224904
0.0191878
0.0165397
0.014388
0.0126192
0.0111517
0.00992351
0.00888723
0.00800968
0.00726966
0.283364
0.126774
0.071702
0.0473282
0.0338663
0.0256617
0.0204609
0.0167972
0.0140489
0.0119417
0.0102848
0.0089569
0.00788628
0.007013
0.00629128
0.00568878
0.00518361
0.00475873
0.00440358
0.00412525
0.264759
0.104702
0.0585298
0.039163
0.0286198
0.0219934
0.017536
0.0143632
0.0120081
0.0102136
0.00881611
0.00770538
0.00680353
0.00605987
0.00544773
0.0049452
0.00452579
0.00417179
0.00388104
0.00365412
0.311746
0.197541
0.130357
0.0911456
0.0668021
0.050811
0.0397943
0.031912
0.0260941
0.0216871
0.0182764
0.0155883
0.0134407
0.0116978
0.0102665
0.00907879
0.00808367
0.0072415
0.0065383
0.00590827
0.31754
0.217754
0.151085
0.108549
0.0807156
0.0618726
0.0486774
0.0391418
0.0320588
0.0266717
0.0224904
0.0191878
0.0165398
0.014388
0.0126191
0.0111516
0.00992349
0.00888726
0.00800965
0.00726964
0.319723
0.227073
0.162232
0.118772
0.0893612
0.0689929
0.0545308
0.0439847
0.0361002
0.0300754
0.0253831
0.0216667
0.0186798
0.0162484
0.0142465
0.0125819
0.0111854
0.0100047
0.00899859
0.0081423
0.320484
0.23086
0.167176
0.123531
0.0935159
0.0724826
0.0574408
0.0464215
0.0381541
0.0318177
0.0268716
0.0229477
0.0197896
0.0172153
0.0150933
0.0133263
0.0118417
0.0105839
0.00951004
0.00858982
0.320484
0.23086
0.167176
0.123531
0.0935158
0.0724824
0.0574405
0.046421
0.0381535
0.0318169
0.0268704
0.0229461
0.0197873
0.0172122
0.0150889
0.0133199
0.0118326
0.0105713
0.00949237
0.00855925
0.319723
0.227073
0.162232
0.118772
0.0893609
0.0689925
0.0545302
0.0439839
0.036099
0.0300737
0.0253807
0.0216632
0.018675
0.0162416
0.0142368
0.0125678
0.0111652
0.00997561
0.00895685
0.00805322
0.31754
0.217754
0.151085
0.108549
0.0807154
0.0618723
0.0486769
0.0391412
0.0320578
0.0266704
0.0224885
0.0191851
0.0165359
0.0143824
0.0126112
0.0111399
0.00990628
0.00886169
0.00797269
0.00720055
0.311746
0.197541
0.130357
0.0911456
0.0668021
0.050811
0.0397943
0.031912
0.0260941
0.0216871
0.0182764
0.0155883
0.0134407
0.0116978
0.0102665
0.00907887
0.00808374
0.00724156
0.00653843
0.00590837
0.264759
0.104702
0.0585298
0.039163
0.0286199
0.0219934
0.017536
0.0143633
0.0120083
0.0102139
0.0088166
0.00770619
0.00680489
0.00606269
0.00545208
0.00495236
0.0045385
0.004196
0.00392895
0.00374321
0.213564
0.055916
0.0283994
0.0193412
0.0146927
0.0118511
0.00989065
0.008516
0.00749124
0.00669622
0.00606042
0.00555078
0.00512278
0.00474514
0.00442556
0.00415755
0.0039319
0.00374441
0.00361632
0.00348343
0.264759
0.104702
0.0585298
0.039163
0.0286199
0.0219934
0.017536
0.0143633
0.0120083
0.0102139
0.00881661
0.0077062
0.00680488
0.00606278
0.00545205
0.00495232
0.00453848
0.00419601
0.00392898
0.00374322
0.283364
0.126774
0.071702
0.0473282
0.0338663
0.0256617
0.0204609
0.0167972
0.0140489
0.0119417
0.0102848
0.00895693
0.00788632
0.00701304
0.00629125
0.00568877
0.00518363
0.00475878
0.00440362
0.00412514
0.292299
0.141633
0.0819302
0.0541654
0.0389231
0.0292875
0.0232724
0.0190788
0.0159344
0.0135154
0.0116274
0.0101137
0.00888319
0.00787301
0.0070359
0.00633634
0.00574719
0.00524778
0.00482341
0.00447347
0.295943
0.148782
0.0871941
0.0576749
0.0415194
0.0310723
0.0246451
0.0202211
0.0169051
0.0143251
0.0123087
0.0107027
0.00939668
0.00832328
0.00743234
0.00668599
0.00605564
0.00551956
0.00506402
0.00470949
0.295943
0.148782
0.0871941
0.0576749
0.0415193
0.0310722
0.024645
0.0202209
0.0169048
0.0143246
0.0123079
0.0107016
0.00939516
0.00832111
0.0074292
0.00668131
0.00604881
0.00550988
0.00505228
0.00471194
0.292299
0.141633
0.0819301
0.0541653
0.038923
0.0292873
0.023272
0.0190783
0.0159336
0.0135143
0.0116258
0.0101114
0.00887986
0.00786821
0.00702874
0.00632559
0.00573107
0.00522367
0.00478952
0.0044513
0.283364
0.126774
0.0717019
0.0473281
0.0338662
0.0256615
0.0204606
0.0167968
0.0140482
0.0119405
0.0102832
0.00895464
0.00788303
0.00700823
0.00628389
0.00567747
0.00516619
0.00473168
0.00436249
0.00406692
0.264759
0.104702
0.0585298
0.039163
0.0286198
0.0219934
0.017536
0.0143632
0.0120081
0.0102136
0.0088161
0.00770538
0.00680352
0.00605981
0.00544772
0.00494521
0.00452581
0.00417182
0.00388106
0.00365421
0.213564
0.055916
0.0283994
0.0193412
0.0146927
0.0118511
0.00989064
0.008516
0.00749124
0.00669622
0.00606043
0.00555075
0.00512282
0.00474507
0.00442559
0.00415757
0.00393192
0.00374442
0.00361632
0.00348345
0.004298
0.00377544
0.00336035
0.00310993
0.00295291
0.00285024
0.00276861
0.00269257
0.00262414
0.00255856
0.00250255
0.00245028
0.0024002
0.00235097
0.00230606
0.00226282
0.00222306
0.00218444
0.00214843
0.00211435
0.00208098
0.00204943
0.00201914
0.00199124
0.00196478
0.00193909
0.00191436
0.00188989
0.00186625
0.00184322
0.00182159
0.00180025
0.00177929
0.00175824
0.00173712
0.00171945
0.0017019
0.00168404
0.00166858
0.00164059
0.00404176
0.00359951
0.00326284
0.00301562
0.00283849
0.0027034
0.00259178
0.00249534
0.00241022
0.002329
0.00226228
0.00220056
0.0021437
0.00208917
0.00203896
0.00199156
0.00194871
0.00190874
0.00187166
0.00183702
0.00180382
0.00177229
0.0017428
0.00171553
0.00169031
0.0016664
0.00164331
0.00162082
0.00159903
0.00157769
0.00155716
0.0015373
0.00151818
0.00149959
0.00148112
0.00146347
0.001447
0.00143089
0.0014156
0.00139784
0.00427645
0.00383171
0.00348327
0.00322575
0.00303355
0.00286825
0.00272638
0.00260523
0.00250043
0.00240919
0.00232756
0.00225378
0.00218861
0.00212496
0.0020664
0.00201348
0.00196568
0.00192201
0.00188043
0.0018413
0.00180434
0.00176725
0.0017323
0.00170075
0.00167195
0.00164497
0.00161874
0.00159328
0.00156884
0.00154517
0.00152233
0.00149997
0.00147873
0.00145819
0.00143835
0.00141954
0.00140105
0.0013829
0.00136529
0.00134732
0.00429582
0.00392932
0.0036329
0.00338947
0.00318513
0.00300972
0.00285519
0.00271868
0.00259745
0.0024893
0.0023927
0.00230561
0.00222664
0.00215477
0.00208932
0.00202978
0.00197485
0.00192572
0.00187476
0.00182768
0.00178564
0.00174598
0.0017079
0.00167216
0.00163861
0.00160731
0.00157777
0.00154971
0.0015232
0.00149771
0.00147313
0.00144867
0.00142625
0.0014042
0.00138403
0.00136363
0.0013447
0.00132596
0.00130818
0.00129009
0.00421439
0.00392032
0.00366019
0.00343136
0.00323014
0.0030534
0.00289723
0.00275839
0.00263371
0.00252138
0.00241983
0.00232785
0.00224468
0.00216777
0.00209778
0.00203373
0.00197451
0.00191949
0.00186875
0.00182099
0.00177939
0.00173496
0.00169303
0.00165468
0.00161944
0.00158619
0.00155534
0.00152601
0.00149866
0.0014725
0.00144737
0.00142266
0.00139991
0.0013771
0.00135631
0.00133497
0.00131541
0.0012965
0.00127872
0.00126184
0.00419382
0.0038834
0.00362008
0.00339208
0.0031933
0.00301947
0.00286664
0.00273117
0.00260927
0.00249875
0.00239824
0.00230674
0.00222373
0.0021462
0.00207508
0.00200967
0.00194935
0.00189405
0.00184305
0.00179565
0.00175172
0.00171064
0.00167312
0.00163701
0.0015996
0.0015642
0.00153205
0.00150259
0.00147586
0.00145013
0.00142624
0.00140284
0.00138041
0.00135496
0.00133629
0.00131357
0.00129499
0.00127666
0.00125895
0.00124209
0.00428702
0.00386088
0.0035584
0.00331576
0.00311421
0.00294334
0.0027957
0.00266542
0.0025482
0.00244212
0.00234563
0.0022576
0.00217734
0.00210263
0.0020339
0.00197055
0.00191208
0.00185821
0.00180868
0.00176333
0.00172135
0.0016823
0.00164512
0.00161097
0.00157448
0.00154088
0.00151065
0.00148259
0.00145678
0.00143128
0.00140751
0.00138388
0.00136197
0.00133841
0.00131941
0.00129984
0.00128071
0.00126235
0.00124428
0.00122681
0.00414797
0.00369029
0.00338582
0.00315713
0.00297169
0.00281666
0.00268201
0.00256255
0.00245517
0.00235776
0.00226889
0.00218777
0.00211346
0.00204441
0.00198079
0.00192214
0.00186814
0.00181867
0.00177288
0.00173056
0.00169172
0.0016549
0.00161806
0.00158362
0.0015528
0.00152317
0.00149568
0.00146933
0.00144346
0.0014177
0.00139389
0.00137205
0.00135204
0.00133218
0.00131281
0.00129349
0.00127384
0.00125515
0.00123692
0.00121909
0.003749
0.00341671
0.00313924
0.00294244
0.00278561
0.00265286
0.00253832
0.00243712
0.00234602
0.00226278
0.00218671
0.00211907
0.00205637
0.00199709
0.00194242
0.00189044
0.00183778
0.00179231
0.00174999
0.00171136
0.00167451
0.00164034
0.00160791
0.00157634
0.00154782
0.00152016
0.00149455
0.00147013
0.00144741
0.00142556
0.00140485
0.00138479
0.00136581
0.00134735
0.00132933
0.0013105
0.00129164
0.00127422
0.00125767
0.00124041
0.0035472
0.00322828
0.00297056
0.00278541
0.00264671
0.00254312
0.00245628
0.00237534
0.00230182
0.00223073
0.00216956
0.00211614
0.00206495
0.00200812
0.00195711
0.00190983
0.00186508
0.00182357
0.00178462
0.00174859
0.00171445
0.00168269
0.00165369
0.00162678
0.00160198
0.00157815
0.00155543
0.00153363
0.00151295
0.00149275
0.00147356
0.00145518
0.00143757
0.00142027
0.0014033
0.00138541
0.00136928
0.00135383
0.00133999
0.00132322
0.00429698
0.0037747
0.00335888
0.00310907
0.00295015
0.00284335
0.00275944
0.00268378
0.0026157
0.00255246
0.0024974
0.00244733
0.00239884
0.00235055
0.00230557
0.00226295
0.00222307
0.00218474
0.00214874
0.00211445
0.00208136
0.0020494
0.0020195
0.00199131
0.00196513
0.00193916
0.0019144
0.0018898
0.00186605
0.001843
0.0018214
0.00180013
0.00177929
0.00175847
0.00173816
0.00171873
0.00170089
0.00168255
0.00166673
0.00163725
0.00354719
0.00323084
0.00297324
0.00278689
0.00265134
0.00255376
0.0024698
0.00238602
0.00231243
0.00223845
0.00217681
0.00211956
0.00206684
0.00200884
0.00195811
0.00190957
0.00186529
0.00182324
0.00178447
0.00174848
0.0017142
0.00168257
0.00165349
0.00162667
0.00160181
0.00157808
0.0015555
0.00153382
0.00151327
0.00149314
0.00147401
0.00145564
0.00143801
0.00142043
0.00140249
0.00138541
0.00137036
0.00135571
0.00134223
0.00132608
0.0042576
0.00396593
0.00366077
0.00340783
0.00320903
0.00301076
0.00282961
0.00265951
0.00250538
0.00234509
0.00222301
0.00209659
0.00198345
0.00186774
0.00177159
0.0016749
0.0015949
0.00151728
0.00144939
0.00138749
0.00132452
0.00126719
0.00121669
0.00117777
0.00114005
0.00110344
0.00106987
0.0010378
0.00100977
0.000983649
0.000957515
0.000932821
0.000911363
0.00089147
0.000868938
0.000850105
0.000834537
0.000820458
0.000808649
0.0008006
0.00565005
0.00516423
0.00472735
0.00437449
0.00405441
0.0037747
0.00352477
0.00329984
0.0030961
0.00291152
0.00274361
0.00258484
0.00245085
0.00231753
0.00220235
0.00208967
0.00199276
0.00189942
0.00181679
0.00173872
0.00166314
0.00159722
0.00153095
0.00147357
0.00141647
0.00136416
0.00131676
0.00126929
0.00122936
0.0011894
0.00115042
0.00111057
0.00107795
0.00104508
0.00101514
0.000982326
0.000950742
0.000921494
0.000892301
0.000863456
0.00674014
0.00609636
0.00554588
0.00507534
0.00467408
0.00432739
0.00401981
0.00374612
0.00350127
0.0032812
0.00308266
0.00290232
0.00273983
0.00259073
0.00245476
0.00233041
0.00221636
0.00211252
0.00201537
0.00192827
0.00184486
0.00177096
0.00169805
0.00163371
0.0015707
0.00151532
0.00146091
0.00141199
0.00136481
0.00132008
0.00127649
0.00123216
0.00119403
0.00115531
0.00112052
0.00108322
0.00104692
0.00101046
0.000978651
0.000938517
0.00734079
0.00662444
0.006019
0.00550028
0.00505144
0.00466247
0.0043222
0.00402205
0.00375299
0.00351124
0.00329335
0.00309676
0.00291802
0.00275612
0.00260865
0.00247409
0.002351
0.00223823
0.00213462
0.00203894
0.00195206
0.00186371
0.00178198
0.00171339
0.0016522
0.00159343
0.00153945
0.00148508
0.00143349
0.00138471
0.00133927
0.00129404
0.00125284
0.00121098
0.00117256
0.00113193
0.00109196
0.00105253
0.00101675
0.000972038
0.0074444
0.00676719
0.00617437
0.00565494
0.00519866
0.0047985
0.00444741
0.00413847
0.00386223
0.00361314
0.00338817
0.00318527
0.00300025
0.00283317
0.00268093
0.00254194
0.00241473
0.0022981
0.00219091
0.00209205
0.00200103
0.00191599
0.00183775
0.00175689
0.00168065
0.0016147
0.00155979
0.00150838
0.00145967
0.00141255
0.0013672
0.00132428
0.00127884
0.00123232
0.00119066
0.00114702
0.00110361
0.00106434
0.00102451
0.0009778
0.00730212
0.00664103
0.00605895
0.00554999
0.00510493
0.00471704
0.00437881
0.00408074
0.00381269
0.003571
0.00335264
0.00315534
0.00297526
0.00281163
0.00266199
0.00252496
0.00239909
0.00228335
0.00217666
0.0020781
0.00198702
0.00190188
0.00182412
0.00174729
0.00167353
0.001611
0.00155105
0.00149222
0.00144024
0.00138806
0.00133848
0.00128885
0.00124417
0.0011991
0.0011585
0.00111518
0.00107184
0.00103194
0.00099078
0.00094241
0.0068544
0.0062105
0.00564047
0.00515622
0.00474529
0.00439617
0.00409063
0.00381824
0.0035735
0.0033526
0.00315202
0.00297036
0.00280425
0.00265065
0.0025092
0.00237933
0.00225901
0.00214865
0.00204628
0.00195181
0.00186404
0.00178144
0.00170656
0.00163037
0.00156501
0.00149955
0.00144233
0.00138404
0.00133406
0.00128305
0.0012337
0.0011834
0.00114109
0.00109818
0.00106036
0.00102186
0.000978693
0.0009371
0.000898269
0.00085538
0.00604742
0.00536057
0.00483561
0.00443189
0.00409865
0.0038116
0.00355804
0.00333008
0.00312204
0.00293209
0.00275647
0.00260067
0.00245207
0.00231345
0.00218446
0.00206826
0.00195522
0.00185916
0.00176353
0.0016811
0.00159931
0.00152656
0.00145711
0.00139274
0.00133702
0.00128016
0.00123239
0.00118302
0.00114232
0.00110121
0.00106191
0.00102153
0.00098995
0.000957618
0.000929481
0.000895506
0.000858678
0.000830505
0.000804152
0.000784283
0.00425606
0.00396375
0.00365859
0.0034037
0.00317832
0.00297933
0.00279835
0.00263247
0.00247569
0.00232625
0.00220076
0.00209113
0.00197733
0.00186449
0.00176698
0.00167466
0.00159294
0.0015172
0.00144929
0.00138702
0.00132573
0.00126688
0.00121756
0.00117745
0.00114078
0.00110331
0.00106958
0.00103715
0.00100885
0.000982707
0.00095655
0.000931886
0.000910558
0.000890556
0.000871748
0.000853349
0.000830502
0.000813499
0.000801743
0.0007951
0.00404149
0.00359898
0.00326097
0.00301463
0.00283378
0.00269502
0.00258226
0.00248638
0.00240057