/*--------------------------------*- C++ -*----------------------------------*\
| =========                 |                                                 |
| \\      /  F ield         | OpenFOAM: The Open Source CFD Toolbox           |
|  \\    /   O peration     | Version:  2212                                  |
|   \\  /    A nd           | Website:  www.openfoam.com                      |
|    \\/     M anipulation  |                                                 |
\*---------------------------------------------------------------------------*/
FoamFile
{
    version     2.0;
    format      ascii;
    arch        "LSB;label=32;scalar=64";
    class       volScalarField;
    location    "1.95";
    object      nut;
}
// * * * * * * * * * * * * * * * * * * * * * * * * * * * * * * * * * * * * * //

dimensions      [0 2 -1 0 0 0 0];

internalField   nonuniform List<scalar> 
6840
(
4.5356e-05
2.3208e-05
1.65396e-05
1.36493e-05
1.18966e-05
1.06844e-05
9.76076e-06
9.0571e-06
8.49472e-06
8.03135e-06
7.64059e-06
7.31235e-06
7.0249e-06
6.76127e-06
6.52994e-06
6.32979e-06
6.15695e-06
6.01129e-06
5.91541e-06
5.81967e-06
0.000107685
6.77183e-05
5.06311e-05
4.14159e-05
3.54048e-05
3.10366e-05
2.77137e-05
2.50816e-05
2.29333e-05
2.11504e-05
1.96503e-05
1.83708e-05
1.72624e-05
1.62917e-05
1.54472e-05
1.47181e-05
1.40815e-05
1.35225e-05
1.30512e-05
1.26774e-05
0.000160509
0.00010736
8.07408e-05
6.55975e-05
5.54895e-05
4.83024e-05
4.31307e-05
3.90787e-05
3.57386e-05
3.29486e-05
3.05766e-05
2.8533e-05
2.67712e-05
2.5242e-05
2.39017e-05
2.27189e-05
2.16715e-05
2.07401e-05
1.99171e-05
1.92572e-05
0.000198681
0.0001383
0.000105187
8.55268e-05
7.25011e-05
6.28899e-05
5.60607e-05
5.07587e-05
4.63871e-05
4.27204e-05
3.96231e-05
3.69521e-05
3.46284e-05
3.25956e-05
3.0807e-05
2.92239e-05
2.7814e-05
2.65493e-05
2.54106e-05
2.44437e-05
0.000218609
0.000155003
0.000118661
9.65068e-05
8.18822e-05
7.08354e-05
6.30853e-05
5.71431e-05
5.22477e-05
4.80954e-05
4.45812e-05
4.15701e-05
3.89496e-05
3.6655e-05
3.46337e-05
3.28425e-05
3.12466e-05
2.9818e-05
2.85471e-05
2.75652e-05
0.000218609
0.000155003
0.000118661
9.65069e-05
8.18823e-05
7.08355e-05
6.30855e-05
5.71435e-05
5.22484e-05
4.80963e-05
4.45828e-05
4.15725e-05
3.89534e-05
3.66608e-05
3.46427e-05
3.28565e-05
3.12683e-05
2.98508e-05
2.85917e-05
2.75914e-05
0.000198681
0.0001383
0.000105187
8.55269e-05
7.25013e-05
6.28902e-05
5.60612e-05
5.07595e-05
4.63884e-05
4.27224e-05
3.96263e-05
3.69571e-05
3.46361e-05
3.26075e-05
3.08256e-05
2.92534e-05
2.78608e-05
2.66239e-05
2.55277e-05
2.45966e-05
0.000160509
0.00010736
8.07409e-05
6.55976e-05
5.54896e-05
4.83026e-05
4.31311e-05
3.90793e-05
3.57396e-05
3.29505e-05
3.05793e-05
2.85372e-05
2.67776e-05
2.5252e-05
2.39179e-05
2.27448e-05
2.17133e-05
2.08076e-05
2.00229e-05
1.94008e-05
0.000107685
6.77183e-05
5.06311e-05
4.14159e-05
3.54048e-05
3.10367e-05
2.77137e-05
2.50816e-05
2.29335e-05
2.11508e-05
1.96509e-05
1.8372e-05
1.72644e-05
1.6296e-05
1.54542e-05
1.47299e-05
1.41028e-05
1.35651e-05
1.31368e-05
1.28434e-05
4.5356e-05
2.3208e-05
1.65396e-05
1.36493e-05
1.18966e-05
1.06844e-05
9.76075e-06
9.0571e-06
8.49472e-06
8.03134e-06
7.6406e-06
7.31233e-06
7.02494e-06
6.7612e-06
6.52997e-06
6.3298e-06
6.15696e-06
6.01127e-06
5.91536e-06
5.81971e-06
0.000107685
6.77183e-05
5.06311e-05
4.14159e-05
3.54048e-05
3.10367e-05
2.77137e-05
2.50816e-05
2.29335e-05
2.11508e-05
1.96509e-05
1.8372e-05
1.72644e-05
1.62962e-05
1.54541e-05
1.47299e-05
1.41029e-05
1.35652e-05
1.3137e-05
1.28439e-05
0.000528907
0.000369984
0.000305097
0.000261371
0.000228527
0.000202475
0.000181113
0.000163072
0.000147537
0.000133982
0.000122047
0.000111464
0.000102133
9.38599e-05
8.6454e-05
7.96667e-05
7.34834e-05
6.7857e-05
6.37979e-05
5.71948e-05
0.000663952
0.000488458
0.000404618
0.000347247
0.000305034
0.000272126
0.000245315
0.000222884
0.000203748
0.000187168
0.000172637
0.000159789
0.000148335
0.00013806
0.000128785
0.000120506
0.000113006
0.000106089
0.000100104
9.37878e-05
0.00071288
0.000556432
0.000466396
0.000402354
0.000354424
0.000317047
0.00028667
0.000261248
0.000239571
0.000220829
0.000204419
0.000189913
0.00017699
0.000165391
0.000154901
0.000145373
0.00013666
0.000128629
0.000121165
0.000113587
0.000728543
0.000588231
0.000496001
0.000429131
0.000378508
0.000338932
0.000306815
0.000279968
0.000257065
0.000237244
0.000219892
0.000204551
0.000190878
0.000178606
0.000167524
0.000157448
0.000148246
0.000139788
0.000131948
0.0001245
0.000728543
0.000588231
0.000496002
0.000429131
0.000378509
0.000338935
0.000306819
0.000279974
0.000257074
0.000237258
0.000219913
0.000204583
0.000190927
0.000178684
0.000167646
0.000157625
0.000148503
0.000140163
0.000132492
0.000125471
0.00071288
0.000556432
0.000466397
0.000402355
0.000354426
0.000317052
0.000286677
0.00026126
0.000239589
0.000220857
0.000204463
0.000189981
0.000177096
0.000165558
0.000155151
0.000145744
0.000137216
0.000129458
0.000122405
0.00011647
0.000663952
0.000488458
0.000404619
0.000347248
0.000305036
0.000272129
0.00024532
0.000222892
0.000203762
0.000187189
0.00017267
0.00015984
0.000148413
0.000138182
0.000128978
0.000120793
0.00011344
0.000106751
0.000101128
9.55999e-05
0.000528907
0.000369984
0.000305097
0.000261371
0.000228528
0.000202475
0.000181113
0.000163072
0.000147537
0.000133982
0.000122047
0.000111464
0.000102132
9.38562e-05
8.64576e-05
7.96682e-05
7.34833e-05
6.78559e-05
6.37954e-05
5.71885e-05
0.000107685
6.77183e-05
5.06311e-05
4.14159e-05
3.54048e-05
3.10366e-05
2.77137e-05
2.50815e-05
2.29333e-05
2.11504e-05
1.96503e-05
1.83708e-05
1.72625e-05
1.62916e-05
1.54472e-05
1.47182e-05
1.40816e-05
1.35226e-05
1.30513e-05
1.26778e-05
0.000160509
0.00010736
8.07409e-05
6.55976e-05
5.54896e-05
4.83026e-05
4.31311e-05
3.90793e-05
3.57396e-05
3.29505e-05
3.05794e-05
2.85372e-05
2.67777e-05
2.5252e-05
2.39179e-05
2.27449e-05
2.17133e-05
2.08078e-05
2.00232e-05
1.94011e-05
0.000663952
0.000488458
0.000404619
0.000347248
0.000305036
0.000272129
0.00024532
0.000222892
0.000203762
0.000187189
0.00017267
0.00015984
0.000148415
0.000138182
0.000128979
0.000120794
0.000113444
0.000106759
0.000101128
9.55962e-05
0.000786827
0.000662293
0.000567974
0.000495805
0.000439463
0.000394562
0.000357974
0.00032745
0.000301488
0.000279048
0.000259395
0.000241999
0.000226468
0.000212502
0.00019987
0.000188411
0.000177962
0.000168378
0.000159583
0.000150872
0.000809324
0.000713905
0.000631504
0.000562573
0.000505376
0.000457784
0.000417839
0.000383936
0.000354799
0.000329442
0.000307144
0.000287361
0.000269674
0.000253754
0.000239338
0.000226228
0.000214234
0.00020318
0.000192797
0.000182087
0.000814958
0.000730426
0.000654634
0.000589043
0.000533067
0.000485438
0.000444762
0.000409792
0.000379468
0.000352928
0.000329486
0.000308622
0.000289929
0.000273085
0.000257828
0.000243936
0.000231225
0.000219497
0.000208406
0.000196687
0.000814958
0.000730426
0.000654634
0.000589044
0.000533067
0.000485439
0.000444765
0.000409796
0.000379474
0.000352937
0.000329501
0.000308643
0.00028996
0.000273132
0.0002579
0.000244039
0.000231373
0.000219716
0.000208788
0.000197758
0.000809324
0.000713906
0.000631505
0.000562574
0.000505378
0.000457787
0.000417843
0.000383943
0.000354809
0.000329457
0.000307167
0.000287396
0.000269726
0.000253835
0.000239462
0.000226404
0.00021449
0.000203554
0.000193389
0.00018334
0.000786827
0.000662293
0.000567974
0.000495805
0.000439463
0.000394562
0.000357973
0.00032745
0.000301488
0.000279048
0.000259395
0.000241998
0.000226465
0.000212499
0.000199873
0.000188412
0.00017796
0.000168373
0.000159576
0.000150856
0.000663952
0.000488458
0.000404618
0.000347247
0.000305034
0.000272126
0.000245315
0.000222884
0.000203748
0.000187168
0.000172637
0.000159789
0.000148335
0.000138055
0.000128791
0.000120509
0.000113008
0.000106091
0.000100106
9.3783e-05
0.000160509
0.00010736
8.07408e-05
6.55975e-05
5.54895e-05
4.83024e-05
4.31307e-05
3.90787e-05
3.57386e-05
3.29486e-05
3.05766e-05
2.85331e-05
2.67713e-05
2.5242e-05
2.39017e-05
2.2719e-05
2.16716e-05
2.07403e-05
1.99174e-05
1.92574e-05
0.000198681
0.0001383
0.000105187
8.55269e-05
7.25013e-05
6.28902e-05
5.60612e-05
5.07595e-05
4.63884e-05
4.27224e-05
3.96264e-05
3.69571e-05
3.46361e-05
3.26075e-05
3.08256e-05
2.92534e-05
2.78609e-05
2.66241e-05
2.55281e-05
2.45972e-05
0.00071288
0.000556432
0.000466397
0.000402355
0.000354426
0.000317052
0.000286677
0.00026126
0.000239589
0.000220858
0.000204463
0.000189982
0.000177096
0.000165551
0.000155156
0.000145748
0.00013722
0.000129465
0.000122414
0.000116479
0.000809324
0.000713906
0.000631505
0.000562574
0.000505378
0.000457787
0.000417843
0.000383943
0.000354809
0.000329457
0.000307168
0.000287397
0.000269727
0.000253834
0.000239463
0.000226406
0.000214494
0.00020356
0.000193397
0.000183352
0.000823497
0.000753987
0.000688491
0.000628748
0.000575387
0.000528266
0.000486846
0.000450442
0.000418363
0.000389974
0.000364728
0.000342163
0.000321894
0.000303601
0.00028702
0.000271931
0.000258127
0.000245399
0.000233426
0.000221538
0.000826292
0.000764347
0.000706102
0.000651937
0.000602231
0.000557104
0.000516428
0.000479913
0.000447182
0.000417834
0.000391477
0.000367752
0.000346334
0.000326939
0.00030932
0.00029326
0.000278546
0.000264939
0.000252017
0.000238736
0.000826292
0.000764347
0.000706102
0.000651937
0.000602231
0.000557104
0.000516429
0.000479914
0.000447184
0.000417836
0.000391481
0.000367758
0.000346342
0.000326951
0.000309339
0.000293287
0.000278585
0.000265002
0.000252158
0.000239255
0.000823497
0.000753987
0.000688491
0.000628748
0.000575387
0.000528266
0.000486846
0.000450442
0.000418363
0.000389974
0.000364728
0.000342162
0.000321892
0.000303599
0.000287021
0.00027193
0.000258126
0.000245397
0.000233424
0.000221538
0.000809324
0.000713905
0.000631504
0.000562573
0.000505376
0.000457784
0.000417839
0.000383936
0.000354799
0.000329442
0.000307144
0.000287361
0.000269673
0.000253751
0.000239341
0.000226229
0.000214234
0.000203179
0.000192796
0.000182088
0.00071288
0.000556432
0.000466396
0.000402354
0.000354424
0.000317047
0.00028667
0.000261248
0.000239571
0.00022083
0.000204419
0.000189914
0.000176992
0.000165389
0.000154903
0.000145374
0.000136661
0.000128631
0.000121167
0.000113605
0.000198681
0.0001383
0.000105187
8.55268e-05
7.25011e-05
6.28899e-05
5.60607e-05
5.07587e-05
4.63872e-05
4.27205e-05
3.96231e-05
3.69522e-05
3.46285e-05
3.25957e-05
3.08069e-05
2.92238e-05
2.7814e-05
2.65493e-05
2.54106e-05
2.44444e-05
0.000218609
0.000155003
0.000118661
9.65069e-05
8.18823e-05
7.08355e-05
6.30856e-05
5.71435e-05
5.22484e-05
4.80964e-05
4.45829e-05
4.15726e-05
3.89534e-05
3.66608e-05
3.46428e-05
3.28566e-05
3.12684e-05
2.98509e-05
2.85919e-05
2.75918e-05
0.000728543
0.000588231
0.000496002
0.000429131
0.000378509
0.000338935
0.000306819
0.000279974
0.000257074
0.000237258
0.000219913
0.000204584
0.000190928
0.000178683
0.000167647
0.000157626
0.000148505
0.000140165
0.000132496
0.000125478
0.000814958
0.000730426
0.000654634
0.000589044
0.000533068
0.000485439
0.000444765
0.000409796
0.000379474
0.000352938
0.000329501
0.000308643
0.000289961
0.000273133
0.000257902
0.000244041
0.000231375
0.000219719
0.000208792
0.00019776
0.000826292
0.000764347
0.000706102
0.000651937
0.000602231
0.000557104
0.000516429
0.000479914
0.000447184
0.000417837
0.000391482
0.000367758
0.000346343
0.000326953
0.00030934
0.000293288
0.000278587
0.000265003
0.000252158
0.000239246
0.000828382
0.0007726
0.000721138
0.000672961
0.000627782
0.000585621
0.000546548
0.000510581
0.000477651
0.000447618
0.000420292
0.000395452
0.000372871
0.000352323
0.000333595
0.000316487
0.000300786
0.000286224
0.000272311
0.000257935
0.000828382
0.0007726
0.000721138
0.000672961
0.000627782
0.000585621
0.000546548
0.000510581
0.000477651
0.000447618
0.000420292
0.000395452
0.000372871
0.000352322
0.000333594
0.000316487
0.000300786
0.000286223
0.00027231
0.00025794
0.000826292
0.000764347
0.000706102
0.000651937
0.000602231
0.000557104
0.000516428
0.000479913
0.000447182
0.000417834
0.000391477
0.000367751
0.000346333
0.000326938
0.000309322
0.000293261
0.000278547
0.000264939
0.000252016
0.000238737
0.000814958
0.000730426
0.000654634
0.000589043
0.000533067
0.000485438
0.000444762
0.000409792
0.000379468
0.000352928
0.000329487
0.000308622
0.000289931
0.000273086
0.000257826
0.000243936
0.000231226
0.0002195
0.000208412
0.000196696
0.000728543
0.000588231
0.000496001
0.000429131
0.000378508
0.000338933
0.000306815
0.000279968
0.000257065
0.000237244
0.000219893
0.000204552
0.000190881
0.000178611
0.000167519
0.000157445
0.000148244
0.000139789
0.000131953
0.000124512
0.000218609
0.000155003
0.000118661
9.65068e-05
8.18822e-05
7.08354e-05
6.30853e-05
5.71431e-05
5.22478e-05
4.80954e-05
4.45812e-05
4.15701e-05
3.89498e-05
3.66552e-05
3.46335e-05
3.28422e-05
3.12464e-05
2.98178e-05
2.8547e-05
2.75657e-05
0.000218609
0.000155003
0.000118661
9.65068e-05
8.18822e-05
7.08354e-05
6.30853e-05
5.71431e-05
5.22478e-05
4.80954e-05
4.45812e-05
4.15701e-05
3.89496e-05
3.6655e-05
3.46338e-05
3.28425e-05
3.12466e-05
2.9818e-05
2.8547e-05
2.75652e-05
0.000728543
0.000588231
0.000496001
0.000429131
0.000378508
0.000338933
0.000306815
0.000279968
0.000257065
0.000237244
0.000219892
0.000204551
0.000190877
0.000178605
0.000167525
0.000157447
0.000148244
0.000139785
0.000131945
0.000124497
0.000814958
0.000730426
0.000654634
0.000589043
0.000533067
0.000485438
0.000444762
0.000409792
0.000379468
0.000352928
0.000329486
0.000308621
0.000289928
0.000273085
0.000257828
0.000243936
0.000231224
0.000219495
0.000208405
0.00019668
0.000826292
0.000764347
0.000706102
0.000651937
0.000602231
0.000557104
0.000516428
0.000479913
0.000447182
0.000417834
0.000391477
0.000367751
0.000346334
0.000326939
0.00030932
0.00029326
0.000278546
0.000264938
0.000252015
0.000238725
0.000828382
0.0007726
0.000721138
0.000672961
0.000627782
0.000585621
0.000546548
0.000510581
0.000477651
0.000447618
0.000420292
0.000395452
0.000372871
0.000352323
0.000333594
0.000316487
0.000300786
0.000286224
0.000272309
0.000257934
0.000828382
0.0007726
0.000721138
0.000672961
0.000627782
0.000585621
0.000546548
0.000510581
0.000477651
0.000447618
0.000420292
0.000395452
0.000372871
0.000352323
0.000333594
0.000316487
0.000300786
0.000286224
0.000272309
0.000257941
0.000826292
0.000764347
0.000706102
0.000651937
0.000602231
0.000557104
0.000516429
0.000479914
0.000447184
0.000417837
0.000391481
0.000367758
0.000346342
0.000326952
0.000309341
0.000293288
0.000278587
0.000265004
0.000252159
0.000239255
0.000814958
0.000730426
0.000654634
0.000589044
0.000533067
0.000485439
0.000444765
0.000409796
0.000379474
0.000352938
0.000329501
0.000308644
0.000289963
0.000273136
0.000257898
0.000244039
0.000231376
0.000219722
0.000208797
0.000197768
0.000728543
0.000588231
0.000496002
0.000429131
0.000378509
0.000338935
0.000306819
0.000279974
0.000257074
0.000237258
0.000219913
0.000204584
0.000190931
0.000178691
0.000167638
0.000157619
0.0001485
0.000140161
0.000132493
0.000125473
0.000218609
0.000155003
0.000118661
9.65069e-05
8.18823e-05
7.08355e-05
6.30855e-05
5.71435e-05
5.22484e-05
4.80963e-05
4.45828e-05
4.15726e-05
3.89535e-05
3.6661e-05
3.46425e-05
3.28564e-05
3.12681e-05
2.98506e-05
2.85915e-05
2.75911e-05
0.000198681
0.0001383
0.000105187
8.55268e-05
7.25011e-05
6.28899e-05
5.60607e-05
5.07587e-05
4.63872e-05
4.27205e-05
3.96231e-05
3.69521e-05
3.46284e-05
3.25956e-05
3.0807e-05
2.92239e-05
2.7814e-05
2.65492e-05
2.54104e-05
2.44432e-05
0.00071288
0.000556432
0.000466396
0.000402354
0.000354424
0.000317047
0.00028667
0.000261248
0.000239571
0.00022083
0.000204419
0.000189913
0.00017699
0.00016539
0.000154901
0.000145372
0.000136656
0.000128624
0.000121157
0.000113576
0.000809324
0.000713905
0.000631504
0.000562573
0.000505376
0.000457784
0.000417839
0.000383936
0.000354799
0.000329442
0.000307144
0.000287361
0.000269673
0.000253752
0.000239337
0.000226226
0.00021423
0.000203174
0.000192789
0.000182069
0.000823497
0.000753987
0.000688491
0.000628748
0.000575387
0.000528266
0.000486846
0.000450442
0.000418363
0.000389974
0.000364728
0.000342162
0.000321893
0.000303601
0.000287019
0.000271929
0.000258125
0.000245396
0.00023342
0.000221529
0.000826292
0.000764347
0.000706102
0.000651937
0.000602231
0.000557104
0.000516429
0.000479914
0.000447184
0.000417837
0.000391482
0.000367758
0.000346343
0.000326953
0.00030934
0.000293287
0.000278587
0.000265003
0.000252157
0.000239253
0.000826292
0.000764347
0.000706102
0.000651937
0.000602231
0.000557104
0.000516428
0.000479913
0.000447182
0.000417834
0.000391477
0.000367752
0.000346334
0.000326939
0.000309321
0.00029326
0.000278547
0.00026494
0.000252019
0.000238739
0.000823497
0.000753987
0.000688491
0.000628748
0.000575387
0.000528266
0.000486846
0.000450442
0.000418363
0.000389974
0.000364728
0.000342162
0.000321892
0.000303599
0.000287022
0.000271932
0.000258128
0.000245399
0.000233426
0.000221537
0.000809324
0.000713906
0.000631505
0.000562574
0.000505378
0.000457787
0.000417843
0.000383943
0.000354809
0.000329457
0.000307168
0.000287396
0.000269727
0.000253835
0.000239462
0.000226406
0.000214493
0.000203558
0.000193394
0.000183348
0.00071288
0.000556432
0.000466397
0.000402355
0.000354426
0.000317052
0.000286678
0.00026126
0.000239589
0.000220857
0.000204463
0.000189981
0.000177096
0.000165557
0.00015515
0.000145743
0.000137215
0.000129457
0.000122405
0.000116465
0.000198681
0.0001383
0.000105187
8.55269e-05
7.25013e-05
6.28902e-05
5.60613e-05
5.07595e-05
4.63884e-05
4.27224e-05
3.96264e-05
3.69571e-05
3.46361e-05
3.26075e-05
3.08256e-05
2.92533e-05
2.78608e-05
2.66239e-05
2.55277e-05
2.45965e-05
0.000160509
0.00010736
8.07408e-05
6.55975e-05
5.54895e-05
4.83024e-05
4.31308e-05
3.90787e-05
3.57386e-05
3.29486e-05
3.05766e-05
2.8533e-05
2.67712e-05
2.5242e-05
2.39017e-05
2.27189e-05
2.16714e-05
2.074e-05
1.99169e-05
1.92565e-05
0.000663952
0.000488458
0.000404618
0.000347247
0.000305034
0.000272126
0.000245315
0.000222884
0.000203748
0.000187168
0.000172638
0.000159789
0.000148335
0.00013806
0.000128785
0.000120504
0.000113002
0.000106081
0.000100105
9.37675e-05
0.000786827
0.000662293
0.000567974
0.000495805
0.000439463
0.000394562
0.000357974
0.00032745
0.000301488
0.000279048
0.000259395
0.000241999
0.000226468
0.000212502
0.000199868
0.000188409
0.000177958
0.000168372
0.000159572
0.000150848
0.000809324
0.000713906
0.000631505
0.000562574
0.000505378
0.000457787
0.000417843
0.000383943
0.000354809
0.000329457
0.000307168
0.000287397
0.000269728
0.000253835
0.000239462
0.000226406
0.000214493
0.000203559
0.000193395
0.000183358
0.000814958
0.000730426
0.000654634
0.000589044
0.000533068
0.000485439
0.000444765
0.000409796
0.000379474
0.000352938
0.000329501
0.000308644
0.000289962
0.000273135
0.000257902
0.000244042
0.000231378
0.000219723
0.000208799
0.000197776
0.000814958
0.000730426
0.000654634
0.000589043
0.000533067
0.000485438
0.000444762
0.000409792
0.000379468
0.000352928
0.000329487
0.000308622
0.000289929
0.000273086
0.000257829
0.000243938
0.000231228
0.000219501
0.000208414
0.000196693
0.000809324
0.000713905
0.000631504
0.000562573
0.000505376
0.000457784
0.000417839
0.000383936
0.000354799
0.000329442
0.000307144
0.000287361
0.000269673
0.000253752
0.000239342
0.000226229
0.000214234
0.000203179
0.000192795
0.000182084
0.000786827
0.000662293
0.000567974
0.000495805
0.000439463
0.000394561
0.000357974
0.000327451
0.000301489
0.000279048
0.000259395
0.000241999
0.000226466
0.000212499
0.000199874
0.000188413
0.000177961
0.000168374
0.000159578
0.000150865
0.000663952
0.000488458
0.000404619
0.000347248
0.000305036
0.000272129
0.00024532
0.000222892
0.000203762
0.000187189
0.00017267
0.00015984
0.000148413
0.000138182
0.000128978
0.000120793
0.00011344
0.000106751
0.000101129
9.55829e-05
0.000160509
0.00010736
8.07409e-05
6.55976e-05
5.54896e-05
4.83026e-05
4.31311e-05
3.90793e-05
3.57396e-05
3.29505e-05
3.05794e-05
2.85372e-05
2.67777e-05
2.5252e-05
2.39179e-05
2.27449e-05
2.17133e-05
2.08076e-05
2.0023e-05
1.94007e-05
0.000107685
6.77183e-05
5.06311e-05
4.14159e-05
3.54048e-05
3.10366e-05
2.77137e-05
2.50816e-05
2.29333e-05
2.11504e-05
1.96503e-05
1.83709e-05
1.72624e-05
1.62918e-05
1.54472e-05
1.47181e-05
1.40814e-05
1.35224e-05
1.3051e-05
1.26771e-05
0.000528907
0.000369984
0.000305097
0.000261371
0.000228528
0.000202475
0.000181113
0.000163072
0.000147538
0.000133982
0.000122047
0.000111464
0.000102133
9.38604e-05
8.64537e-05
7.96664e-05
7.34828e-05
6.78557e-05
6.37956e-05
5.71853e-05
0.000663952
0.000488458
0.000404619
0.000347248
0.000305036
0.000272129
0.00024532
0.000222893
0.000203762
0.000187189
0.000172671
0.000159841
0.000148415
0.000138182
0.000128979
0.000120794
0.000113444
0.000106759
0.000101127
9.55923e-05
0.00071288
0.000556432
0.000466397
0.000402355
0.000354426
0.000317052
0.000286677
0.00026126
0.000239589
0.000220858
0.000204463
0.000189982
0.000177096
0.000165552
0.000155157
0.000145749
0.000137221
0.000129466
0.000122415
0.000116483
0.000728543
0.000588231
0.000496002
0.000429132
0.00037851
0.000338935
0.000306819
0.000279975
0.000257074
0.000237258
0.000219913
0.000204584
0.000190928
0.000178683
0.000167648
0.000157627
0.000148506
0.000140167
0.000132499
0.000125482
0.000728543
0.000588231
0.000496001
0.000429131
0.000378508
0.000338933
0.000306815
0.000279968
0.000257065
0.000237244
0.000219892
0.000204551
0.000190878
0.000178606
0.000167526
0.000157449
0.000148245
0.000139788
0.000131948
0.0001245
0.00071288
0.000556432
0.000466396
0.000402354
0.000354424
0.000317047
0.00028667
0.000261248
0.000239571
0.00022083
0.000204419
0.000189913
0.000176991
0.00016539
0.000154903
0.000145373
0.000136658
0.000128626
0.000121159
0.000113582
0.000663952
0.000488458
0.000404618
0.000347247
0.000305034
0.000272126
0.000245315
0.000222884
0.000203748
0.000187168
0.000172638
0.000159789
0.000148335
0.000138055
0.00012879
0.000120508
0.000113005
0.000106085
0.00010011
9.37764e-05
0.000528907
0.000369984
0.000305097
0.000261371
0.000228528
0.000202475
0.000181113
0.000163072
0.000147537
0.000133982
0.000122047
0.000111464
0.000102132
9.38561e-05
8.64577e-05
7.96683e-05
7.34833e-05
6.78554e-05
6.37953e-05
5.71818e-05
0.000107685
6.77183e-05
5.06311e-05
4.14159e-05
3.54048e-05
3.10367e-05
2.77137e-05
2.50817e-05
2.29335e-05
2.11508e-05
1.96509e-05
1.8372e-05
1.72644e-05
1.6296e-05
1.54542e-05
1.47299e-05
1.41028e-05
1.35651e-05
1.31368e-05
1.28436e-05
4.5356e-05
2.3208e-05
1.65396e-05
1.36493e-05
1.18966e-05
1.06844e-05
9.76076e-06
9.0571e-06
8.49472e-06
8.03135e-06
7.64059e-06
7.31235e-06
7.02491e-06
6.76127e-06
6.52994e-06
6.32978e-06
6.15694e-06
6.01126e-06
5.91533e-06
5.81959e-06
0.000107685
6.77183e-05
5.06311e-05
4.14159e-05
3.54048e-05
3.10367e-05
2.77137e-05
2.50816e-05
2.29335e-05
2.11508e-05
1.96509e-05
1.8372e-05
1.72644e-05
1.62962e-05
1.54541e-05
1.47299e-05
1.41029e-05
1.35652e-05
1.31369e-05
1.28438e-05
0.000160509
0.00010736
8.07409e-05
6.55976e-05
5.54896e-05
4.83026e-05
4.31311e-05
3.90793e-05
3.57396e-05
3.29505e-05
3.05794e-05
2.85373e-05
2.67777e-05
2.5252e-05
2.39179e-05
2.27449e-05
2.17134e-05
2.08078e-05
2.00231e-05
1.94e-05
0.000198681
0.0001383
0.000105187
8.55269e-05
7.25013e-05
6.28902e-05
5.60613e-05
5.07595e-05
4.63885e-05
4.27224e-05
3.96264e-05
3.69571e-05
3.46361e-05
3.26075e-05
3.08256e-05
2.92535e-05
2.7861e-05
2.66242e-05
2.5528e-05
2.4596e-05
0.000218609
0.000155003
0.000118661
9.65069e-05
8.18823e-05
7.08355e-05
6.30856e-05
5.71435e-05
5.22484e-05
4.80964e-05
4.45829e-05
4.15726e-05
3.89534e-05
3.66608e-05
3.46428e-05
3.28567e-05
3.12684e-05
2.9851e-05
2.85919e-05
2.75916e-05
0.000218609
0.000155003
0.000118661
9.65068e-05
8.18822e-05
7.08354e-05
6.30853e-05
5.71431e-05
5.22478e-05
4.80954e-05
4.45812e-05
4.15701e-05
3.89496e-05
3.6655e-05
3.46338e-05
3.28425e-05
3.12466e-05
2.98179e-05
2.8547e-05
2.7565e-05
0.000198681
0.0001383
0.000105187
8.55268e-05
7.25011e-05
6.28899e-05
5.60607e-05
5.07587e-05
4.63872e-05
4.27205e-05
3.96231e-05
3.69521e-05
3.46285e-05
3.25957e-05
3.08069e-05
2.92238e-05
2.78139e-05
2.65491e-05
2.54102e-05
2.44432e-05
0.000160509
0.00010736
8.07408e-05
6.55975e-05
5.54895e-05
4.83024e-05
4.31307e-05
3.90787e-05
3.57386e-05
3.29486e-05
3.05766e-05
2.8533e-05
2.67712e-05
2.52419e-05
2.39017e-05
2.27189e-05
2.16715e-05
2.074e-05
1.9917e-05
1.92568e-05
0.000107685
6.77183e-05
5.06311e-05
4.14159e-05
3.54048e-05
3.10366e-05
2.77137e-05
2.50816e-05
2.29333e-05
2.11504e-05
1.96503e-05
1.83708e-05
1.72625e-05
1.62916e-05
1.54472e-05
1.47182e-05
1.40815e-05
1.35225e-05
1.3051e-05
1.26772e-05
4.5356e-05
2.3208e-05
1.65396e-05
1.36493e-05
1.18966e-05
1.06844e-05
9.76075e-06
9.0571e-06
8.49472e-06
8.03135e-06
7.6406e-06
7.31233e-06
7.02495e-06
6.76121e-06
6.52997e-06
6.3298e-06
6.15695e-06
6.01125e-06
5.91532e-06
5.81956e-06
5.48605e-06
5.10646e-06
4.77393e-06
4.56994e-06
4.43691e-06
4.35302e-06
4.28812e-06
4.22878e-06
4.17519e-06
4.12343e-06
4.07945e-06
4.03753e-06
3.99654e-06
3.95489e-06
3.91645e-06
3.87913e-06
3.84444e-06
3.81058e-06
3.77873e-06
3.7484e-06
3.71856e-06
3.69002e-06
3.66242e-06
3.63694e-06
3.61261e-06
3.58891e-06
3.56601e-06
3.5433e-06
3.52132e-06
3.49994e-06
3.47969e-06
3.45979e-06
3.44026e-06
3.42071e-06
3.40137e-06
3.38472e-06
3.36845e-06
3.35188e-06
3.33754e-06
3.31049e-06
1.12419e-05
1.05956e-05
1.00593e-05
9.63201e-06
9.32637e-06
9.09348e-06
8.90049e-06
8.73284e-06
8.58297e-06
8.43707e-06
8.31817e-06
8.20641e-06
8.10293e-06
7.99825e-06
7.90055e-06
7.80714e-06
7.72163e-06
7.64106e-06
7.56576e-06
7.49489e-06
7.42663e-06
7.36102e-06
7.29914e-06
7.24171e-06
7.18813e-06
7.13708e-06
7.08754e-06
7.03899e-06
6.99171e-06
6.94546e-06
6.90059e-06
6.85708e-06
6.8152e-06
6.77439e-06
6.73427e-06
6.69551e-06
6.6593e-06
6.62399e-06
6.59032e-06
6.55071e-06
1.6756e-05
1.58399e-05
1.51241e-05
1.44835e-05
1.40368e-05
1.36514e-05
1.33056e-05
1.3004e-05
1.27395e-05
1.25055e-05
1.22926e-05
1.20957e-05
1.19235e-05
1.17454e-05
1.15819e-05
1.14318e-05
1.12946e-05
1.11679e-05
1.10461e-05
1.09304e-05
1.08199e-05
1.07082e-05
1.0602e-05
1.05055e-05
1.04164e-05
1.03322e-05
1.02496e-05
1.01689e-05
1.00908e-05
1.00148e-05
9.94079e-06
9.8677e-06
9.79867e-06
9.73064e-06
9.66582e-06
9.60328e-06
9.54224e-06
9.48154e-06
9.42155e-06
9.36108e-06
2.06899e-05
1.97851e-05
1.90288e-05
1.8383e-05
1.78183e-05
1.73215e-05
1.6872e-05
1.64649e-05
1.6095e-05
1.5758e-05
1.54504e-05
1.51677e-05
1.49083e-05
1.46653e-05
1.444e-05
1.42322e-05
1.40381e-05
1.38626e-05
1.36778e-05
1.35051e-05
1.33496e-05
1.32012e-05
1.30568e-05
1.29203e-05
1.27904e-05
1.2668e-05
1.25513e-05
1.24395e-05
1.23328e-05
1.22296e-05
1.21305e-05
1.20245e-05
1.19409e-05
1.18387e-05
1.17647e-05
1.16696e-05
1.15972e-05
1.1515e-05
1.14403e-05
1.13625e-05
2.28329e-05
2.20724e-05
2.13546e-05
2.06917e-05
2.00863e-05
1.95368e-05
1.90368e-05
1.85804e-05
1.81603e-05
1.77728e-05
1.74148e-05
1.70839e-05
1.67799e-05
1.64913e-05
1.62233e-05
1.5975e-05
1.5742e-05
1.55222e-05
1.53168e-05
1.51208e-05
1.4949e-05
1.47623e-05
1.45831e-05
1.44178e-05
1.42638e-05
1.4117e-05
1.39793e-05
1.38471e-05
1.37225e-05
1.36025e-05
1.34872e-05
1.33678e-05
1.32708e-05
1.31476e-05
1.30673e-05
1.29534e-05
1.28658e-05
1.27733e-05
1.26875e-05
1.26056e-05
2.38581e-05
2.28968e-05
2.20783e-05
2.13586e-05
2.07176e-05
2.01447e-05
1.963e-05
1.91637e-05
1.8735e-05
1.83382e-05
1.79701e-05
1.76284e-05
1.73132e-05
1.70123e-05
1.67317e-05
1.64688e-05
1.62221e-05
1.59916e-05
1.57767e-05
1.55741e-05
1.53837e-05
1.52033e-05
1.50359e-05
1.4874e-05
1.47033e-05
1.45396e-05
1.43893e-05
1.42502e-05
1.41227e-05
1.39993e-05
1.38845e-05
1.37626e-05
1.36858e-05
1.34861e-05
1.34883e-05
1.33113e-05
1.32524e-05
1.31509e-05
1.30591e-05
1.29735e-05
2.34879e-05
2.20945e-05
2.11551e-05
2.03942e-05
1.97508e-05
1.91948e-05
1.8705e-05
1.82643e-05
1.78601e-05
1.74877e-05
1.7143e-05
1.68231e-05
1.65271e-05
1.6245e-05
1.59807e-05
1.57326e-05
1.54996e-05
1.52813e-05
1.50769e-05
1.48878e-05
1.47101e-05
1.45428e-05
1.43813e-05
1.42319e-05
1.40696e-05
1.39179e-05
1.37802e-05
1.36513e-05
1.35317e-05
1.34129e-05
1.33024e-05
1.31791e-05
1.31097e-05
1.29499e-05
1.28951e-05
1.27896e-05
1.27006e-05
1.26117e-05
1.25241e-05
1.24398e-05
2.04522e-05
1.91849e-05
1.83617e-05
1.7736e-05
1.71991e-05
1.6738e-05
1.63297e-05
1.59617e-05
1.56263e-05
1.53174e-05
1.50313e-05
1.4767e-05
1.45212e-05
1.42861e-05
1.40652e-05
1.38577e-05
1.36629e-05
1.3482e-05
1.33118e-05
1.31522e-05
1.30034e-05
1.28619e-05
1.27172e-05
1.25804e-05
1.24567e-05
1.23367e-05
1.22244e-05
1.2116e-05
1.20091e-05
1.19015e-05
1.18015e-05
1.17098e-05
1.16257e-05
1.15415e-05
1.14598e-05
1.13785e-05
1.12962e-05
1.12166e-05
1.11392e-05
1.10632e-05
1.52944e-05
1.48611e-05
1.4306e-05
1.38157e-05
1.34246e-05
1.30889e-05
1.27988e-05
1.2542e-05
1.23088e-05
1.20945e-05
1.18956e-05
1.17188e-05
1.15508e-05
1.13873e-05
1.12321e-05
1.10832e-05
1.09288e-05
1.07927e-05
1.06644e-05
1.05459e-05
1.04313e-05
1.03239e-05
1.02209e-05
1.01192e-05
1.00267e-05
9.93621e-06
9.85185e-06
9.77095e-06
9.69527e-06
9.62241e-06
9.55298e-06
9.48561e-06
9.42191e-06
9.35999e-06
9.29963e-06
9.23699e-06
9.17471e-06
9.11662e-06
9.06135e-06
9.00284e-06
1.06048e-05
1.00538e-05
9.58398e-06
9.24428e-06
8.98962e-06
8.79338e-06
8.63784e-06
8.50069e-06
8.3689e-06
8.24506e-06
8.13506e-06
8.04402e-06
7.94981e-06
7.84063e-06
7.74047e-06
7.64664e-06
7.55641e-06
7.47156e-06
7.39096e-06
7.31544e-06
7.24324e-06
7.17516e-06
7.11228e-06
7.05357e-06
6.99926e-06
6.94684e-06
6.89665e-06
6.84827e-06
6.80221e-06
6.75737e-06
6.71451e-06
6.67355e-06
6.63442e-06
6.59611e-06
6.55873e-06
6.52017e-06
6.48458e-06
6.45095e-06
6.42107e-06
6.38387e-06
5.48542e-06
5.10604e-06
4.7729e-06
4.56939e-06
4.43685e-06
4.34878e-06
4.28066e-06
4.22106e-06
4.16639e-06
4.11701e-06
4.07301e-06
4.03401e-06
3.99404e-06
3.95337e-06
3.9152e-06
3.87869e-06
3.84414e-06
3.81067e-06
3.77894e-06
3.74846e-06
3.71892e-06
3.69001e-06
3.66277e-06
3.63702e-06
3.61295e-06
3.58898e-06
3.56605e-06
3.54318e-06
3.52107e-06
3.49961e-06
3.47935e-06
3.45946e-06
3.44001e-06
3.42059e-06
3.40172e-06
3.38387e-06
3.36722e-06
3.35014e-06
3.33544e-06
3.30691e-06
1.06046e-05
1.0058e-05
9.5898e-06