/*--------------------------------*- C++ -*----------------------------------*\
| =========                 |                                                 |
| \\      /  F ield         | OpenFOAM: The Open Source CFD Toolbox           |
|  \\    /   O peration     | Version:  2212                                  |
|   \\  /    A nd           | Website:  www.openfoam.com                      |
|    \\/     M anipulation  |                                                 |
\*---------------------------------------------------------------------------*/
FoamFile
{
    version     2.0;
    format      ascii;
    arch        "LSB;label=32;scalar=64";
    class       volScalarField;
    location    "1.95";
    object      p;
}
// * * * * * * * * * * * * * * * * * * * * * * * * * * * * * * * * * * * * * //

dimensions      [0 2 -2 0 0 0 0];

internalField   nonuniform List<scalar> 
6840
(
0.0178955
0.0107811
0.00848966
0.00795183
0.00767747
0.00745527
0.00726864
0.00710221
0.00694104
0.00678158
0.00662388
0.00646776
0.0063121
0.00615574
0.00599817
0.0058392
0.00567863
0.00551027
0.00529953
0.00490987
0.0107167
0.0099829
0.00889001
0.00822405
0.00782148
0.00754779
0.00733668
0.00715057
0.00697634
0.00680931
0.006647
0.00648781
0.00633046
0.00617464
0.00602087
0.00587005
0.00572036
0.0055676
0.00540582
0.00521228
0.0103685
0.009517
0.00875274
0.00819362
0.0078175
0.00754956
0.00733401
0.00714128
0.00696316
0.00679517
0.00663257
0.00647334
0.00631729
0.00616479
0.00601632
0.00587269
0.00573591
0.00560895
0.00550278
0.00543922
0.00995923
0.0091965
0.00857775
0.00812644
0.0077825
0.00751354
0.00729403
0.00710542
0.00693788
0.00678093
0.00662604
0.006472
0.0063199
0.00617098
0.00602677
0.00588995
0.00576527
0.00565957
0.00558685
0.0055776
0.00982499
0.00908381
0.00849564
0.00808753
0.00776559
0.00749887
0.00727736
0.00708674
0.00691601
0.00675934
0.00660952
0.00645975
0.00630938
0.00616046
0.00601492
0.00587479
0.00574273
0.00562166
0.00551355
0.00542948
0.00982497
0.00908378
0.0084956
0.00808746
0.00776549
0.00749873
0.00727712
0.00708634
0.00691535
0.00675827
0.00660777
0.00645687
0.00630465
0.00615273
0.0060024
0.00585456
0.00571024
0.00557057
0.00543521
0.00530865
0.00995916
0.00919643
0.00857766
0.00812631
0.00778231
0.00751321
0.00729347
0.00710446
0.00693628
0.00677829
0.00662171
0.00646495
0.00630847
0.00615243
0.00599641
0.00583977
0.00568196
0.00552327
0.0053667
0.00521171
0.0103684
0.00951693
0.00875266
0.0081935
0.00781731
0.00754921
0.00733343
0.00714031
0.00696156
0.00679249
0.00662811
0.00646603
0.00630542
0.00614541
0.00598441
0.00581974
0.00564736
0.00546123
0.00525549
0.0050151
0.0107167
0.00998287
0.00888997
0.00822399
0.00782138
0.00754762
0.00733639
0.00715006
0.00697548
0.00680786
0.00664463
0.00648391
0.00632387
0.00616324
0.00600123
0.00583697
0.00566563
0.00547339
0.00522073
0.00481269
0.0178955
0.0107811
0.00848966
0.00795183
0.00767747
0.00745526
0.00726863
0.0071022
0.00694104
0.00678158
0.00662389
0.00646777
0.00631211
0.00615574
0.00599818
0.00583921
0.00567863
0.00551024
0.00529945
0.00490974
0.0107167
0.00998287
0.00888997
0.00822399
0.00782137
0.00754761
0.00733638
0.00715005
0.00697547
0.00680785
0.00664462
0.00648389
0.00632385
0.00616322
0.00600121
0.00583694
0.00566559
0.00547335
0.00522066
0.00481249
0.0100002
0.00996845
0.00924023
0.00852973
0.00808339
0.00776746
0.00750858
0.00728094
0.00707639
0.00688806
0.00671041
0.00653967
0.00637285
0.00620807
0.00604446
0.00588074
0.0057153
0.00554598
0.00538561
0.00527777
0.00907472
0.00920092
0.00889806
0.00848186
0.00811475
0.00779617
0.00751773
0.00727748
0.00706522
0.00687117
0.00668858
0.00651433
0.00634668
0.00618427
0.00602618
0.00587175
0.00572106
0.00557483
0.00543839
0.00532685
0.00865637
0.00869989
0.00853435
0.00827145
0.00799113
0.00771986
0.00746899
0.00724282
0.00704014
0.00685431
0.00667865
0.00650998
0.00634685
0.00618881
0.00603639
0.00589049
0.0057523
0.00562418
0.00551054
0.00541747
0.00844036
0.0084622
0.00833501
0.00811753
0.00788514
0.00765603
0.0074333
0.00722026
0.00701968
0.00683272
0.00665698
0.00648917
0.00632783
0.00617193
0.00602053
0.00587402
0.00573376
0.00560128
0.00547841
0.00536407
0.00844032
0.00846215
0.00833494
0.00811741
0.00788497
0.00765579
0.00743294
0.00721973
0.00701888
0.00683142
0.00665478
0.00648552
0.00632206
0.00616296
0.00600679
0.00585358
0.0057038
0.00555772
0.00541629
0.0052775
0.00865627
0.00869978
0.0085342
0.00827125
0.00799085
0.00771946
0.00746837
0.00724186
0.00703855
0.00685147
0.00667362
0.00650178
0.00633457
0.00617056
0.00600822
0.00584652
0.00568483
0.00552355
0.00536482
0.00520495
0.00907466
0.00920085
0.00889796
0.00848174
0.00811458
0.00779591
0.00751728
0.0072767
0.00706389
0.00686897
0.0066851
0.00650889
0.00633811
0.00617057
0.00600433
0.0058375
0.0056687
0.00549789
0.00533062
0.00517084
0.0100002
0.00996845
0.00924023
0.00852973
0.00808339
0.00776746
0.00750858
0.00728094
0.00707639
0.00688806
0.00671041
0.00653967
0.00637285
0.00620806
0.00604445
0.00588073
0.00571527
0.00554592
0.0053855
0.00527762
0.0107167
0.00998289
0.00889
0.00822404
0.00782147
0.00754778
0.00733667
0.00715056
0.00697633
0.0068093
0.00664699
0.0064878
0.00633046
0.00617462
0.00602084
0.00587001
0.0057203
0.00556749
0.00540561
0.00521186
0.0103684
0.00951693
0.00875265
0.0081935
0.0078173
0.0075492
0.00733342
0.0071403
0.00696155
0.00679248
0.0066281
0.00646601
0.0063054
0.00614539
0.00598439
0.0058197
0.0056473
0.00546113
0.00525531
0.00501476
0.00907466
0.00920085
0.00889796
0.00848174
0.00811458
0.00779591
0.00751728
0.0072767
0.00706389
0.00686896
0.0066851
0.00650889
0.00633811
0.00617056
0.00600432
0.00583749
0.0056687
0.00549788
0.00533062
0.00517079
0.0085052
0.00860618
0.00849463
0.00826917
0.00801343
0.00775504
0.00749667
0.00725511
0.0070373
0.00683715
0.00664969
0.00647178
0.00630085
0.00613483
0.00597241
0.00581255
0.00565453
0.00549913
0.00534985
0.00520407
0.00813724
0.00820531
0.00815295
0.00800602
0.00782121
0.00761614
0.00740555
0.00719881
0.00699794
0.00680594
0.00662408
0.00645051
0.00628333
0.0061214
0.00596405
0.00581023
0.0056597
0.00551366
0.00537251
0.005227
0.00795415
0.00801859
0.00798913
0.00786432
0.00770536
0.00753173
0.00734548
0.00715753
0.00697152
0.00678833
0.00660957
0.00643628
0.00626888
0.00610695
0.00595023
0.00579846
0.00565074
0.00550743
0.00537069
0.0052326
0.00795412
0.00801856
0.00798909
0.00786423
0.00770519
0.00753149
0.00734518
0.00715712
0.00697092
0.00678741
0.00660815
0.00643415
0.00626581
0.0061024
0.00594335
0.00578854
0.00563717
0.00548849
0.00534369
0.0051966
0.00813718
0.00820524
0.00815286
0.00800587
0.00782098
0.00761585
0.00740517
0.00719823
0.00699706
0.00680454
0.00662178
0.00644693
0.00627799
0.00611345
0.00595223
0.00579338
0.00563603
0.00547989
0.0053261
0.0051678
0.0085052
0.00860618
0.00849462
0.00826916
0.00801342
0.00775503
0.00749667
0.00725511
0.0070373
0.00683715
0.00664969
0.00647178
0.00630085
0.00613484
0.00597241
0.00581255
0.00565452
0.0054991
0.00534979
0.00520395
0.00907471
0.00920091
0.00889805
0.00848185
0.00811474
0.00779616
0.00751772
0.00727747
0.00706522
0.00687117
0.00668858
0.00651432
0.00634667
0.00618426
0.00602617
0.00587172
0.005721
0.00557474
0.00543826
0.0053267
0.0103685
0.00951699
0.00875273
0.00819361
0.00781749
0.00754954
0.007334
0.00714127
0.00696315
0.00679516
0.00663256
0.00647333
0.00631728
0.00616477
0.00601628
0.00587264
0.00573582
0.00560881
0.00550253
0.00543877
0.00995915
0.00919642
0.00857765
0.00812631
0.0077823
0.00751321
0.00729347
0.00710445
0.00693628
0.00677828
0.0066217
0.00646494
0.00630846
0.00615242
0.00599639
0.00583974
0.00568192
0.0055232
0.0053666
0.0052116
0.00865627
0.00869978
0.0085342
0.00827125
0.00799084
0.00771946
0.00746837
0.00724186
0.00703855
0.00685147
0.00667361
0.00650178
0.00633457
0.00617055
0.00600822
0.00584652
0.00568483
0.00552356
0.00536487
0.00520511
0.00813718
0.00820524
0.00815285
0.00800587
0.00782098
0.00761584
0.00740516
0.00719823
0.00699706
0.00680454
0.00662178
0.00644693
0.00627798
0.00611345
0.00595224
0.0057934
0.00563606
0.00547994
0.0053262
0.00516798
0.00783931
0.00789845
0.00788652
0.00779113
0.00765152
0.00748603
0.00730585
0.00712139
0.00693743
0.00675709
0.006582
0.006412
0.00624647
0.00608478
0.00592632
0.00577032
0.00561602
0.00546271
0.0053103
0.00515163
0.0076882
0.00775109
0.00775485
0.00768121
0.00756108
0.00741469
0.0072518
0.00708037
0.00690622
0.00673265
0.00656152
0.00639373
0.00622957
0.00606897
0.0059117
0.00575723
0.00560474
0.00545399
0.00530621
0.00515311
0.00768818
0.00775107
0.00775483
0.00768117
0.00756104
0.00741463
0.00725169
0.00708022
0.006906
0.00673236
0.00656111
0.00639313
0.0062287
0.00606763
0.00590959
0.00575415
0.00560051
0.00544811
0.00529739
0.00514184
0.00783931
0.00789845
0.00788652
0.00779113
0.00765151
0.00748603
0.00730585
0.00712139
0.00693743
0.00675709
0.006582
0.006412
0.00624647
0.00608478
0.00592632
0.00577033
0.00561603
0.00546273
0.00531032
0.00515166
0.00813724
0.0082053
0.00815294
0.00800602
0.00782121
0.00761613
0.00740555
0.0071988
0.00699793
0.00680594
0.00662408
0.00645051
0.00628333
0.0061214
0.00596406
0.00581025
0.00565974
0.00551373
0.00537263
0.00522724
0.00865637
0.00869988
0.00853434
0.00827144
0.00799112
0.00771986
0.00746898
0.00724282
0.00704013
0.0068543
0.00667864
0.00650998
0.00634684
0.0061888
0.00603638
0.00589047
0.00575229
0.00562416
0.00551055
0.00541757
0.00995922
0.00919649
0.00857774
0.00812643
0.00778249
0.00751353
0.00729402
0.00710541
0.00693787
0.00678092
0.00662603
0.00647199
0.00631989
0.00617096
0.00602675
0.00588991
0.0057652
0.00565945
0.00558665
0.0055773
0.00982496
0.00908378
0.00849559
0.00808746
0.00776549
0.00749872
0.00727711
0.00708634
0.00691534
0.00675826
0.00660776
0.00645687
0.00630464
0.00615273
0.00600239
0.00585455
0.00571021
0.00557053
0.00543516
0.0053086
0.00844031
0.00846214
0.00833494
0.00811741
0.00788497
0.00765579
0.00743293
0.00721972
0.00701888
0.00683142
0.00665477
0.00648551
0.00632205
0.00616296
0.00600679
0.00585357
0.00570378
0.0055577
0.00541628
0.0052775
0.00795412
0.00801855
0.00798908
0.00786422
0.00770518
0.00753148
0.00734517
0.00715712
0.00697092
0.00678741
0.00660815
0.00643415
0.00626581
0.0061024
0.00594335
0.00578854
0.00563717
0.00548849
0.0053437
0.00519663
0.00768818
0.00775107
0.00775483
0.00768117
0.00756104
0.00741462
0.00725169
0.00708021
0.006906
0.00673235
0.00656111
0.00639313
0.00622869
0.00606763
0.00590959
0.00575415
0.00560051
0.0054481
0.00529738
0.00514183
0.00754537
0.00761489
0.00763701
0.00758446
0.00748319
0.00735224
0.00720229
0.00704126
0.0068747
0.00670629
0.00653841
0.00637246
0.00620918
0.00604882
0.00589134
0.0057364
0.00558329
0.00543191
0.00528331
0.00512897
0.00754537
0.00761489
0.00763701
0.00758446
0.00748319
0.00735224
0.00720229
0.00704126
0.0068747
0.0067063
0.00653841
0.00637246
0.00620918
0.00604882
0.00589134
0.0057364
0.0055833
0.00543192
0.00528333
0.00512901
0.00768819
0.00775109
0.00775485
0.0076812
0.00756108
0.00741469
0.0072518
0.00708037
0.00690621
0.00673265
0.00656152
0.00639373
0.00622957
0.00606898
0.00591171
0.00575724
0.00560477
0.00545403
0.00530628
0.00515323
0.00795415
0.00801858
0.00798913
0.00786432
0.00770536
0.00753172
0.00734548
0.00715753
0.00697152
0.00678833
0.00660957
0.00643628
0.00626889
0.00610696
0.00595025
0.0057985
0.0056508
0.00550752
0.00537084
0.00523288
0.00844036
0.00846219
0.008335
0.00811752
0.00788513
0.00765602
0.00743329
0.00722026
0.00701967
0.00683271
0.00665697
0.00648916
0.00632782
0.00617192
0.00602052
0.00587402
0.00573377
0.0056013
0.00547848
0.00536423
0.00982498
0.0090838
0.00849563
0.00808752
0.00776558
0.00749886
0.00727735
0.00708673
0.006916
0.00675933
0.00660951
0.00645975
0.00630937
0.00616045
0.0060149
0.00587476
0.00574267
0.00562157
0.00551341
0.00542928
0.00982498
0.0090838
0.00849563
0.00808752
0.00776558
0.00749887
0.00727735
0.00708673
0.006916
0.00675934
0.00660952
0.00645976
0.00630938
0.00616046
0.00601492
0.00587479
0.00574272
0.00562164
0.00551352
0.00542944
0.00844036
0.00846219
0.008335
0.00811752
0.00788513
0.00765602
0.00743329
0.00722026
0.00701967
0.00683272
0.00665698
0.00648917
0.00632783
0.00617193
0.00602053
0.00587401
0.00573375
0.00560126
0.00547838
0.00536401
0.00795415
0.00801858
0.00798912
0.00786432
0.00770535
0.00753172
0.00734548
0.00715753
0.00697152
0.00678833
0.00660957
0.00643627
0.00626888
0.00610695
0.00595023
0.00579845
0.00565072
0.00550741
0.00537066
0.00523256
0.00768819
0.00775109
0.00775485
0.0076812
0.00756108
0.00741469
0.0072518
0.00708037
0.00690621
0.00673265
0.00656152
0.00639373
0.00622956
0.00606897
0.0059117
0.00575722
0.00560473
0.00545397
0.0053062
0.0051531
0.00754537
0.00761489
0.00763701
0.00758446
0.00748319
0.00735224
0.00720229
0.00704125
0.0068747
0.00670629
0.00653841
0.00637246
0.00620917
0.00604882
0.00589134
0.00573639
0.00558329
0.0054319
0.0052833
0.00512897
0.00754537
0.00761489
0.00763701
0.00758446
0.00748319
0.00735224
0.00720229
0.00704125
0.0068747
0.00670629
0.00653841
0.00637246
0.00620918
0.00604882
0.00589134
0.0057364
0.0055833
0.00543192
0.00528333
0.00512901
0.00768818
0.00775107
0.00775483
0.00768117
0.00756104
0.00741462
0.00725169
0.00708021
0.006906
0.00673235
0.00656111
0.00639313
0.0062287
0.00606764
0.0059096
0.00575417
0.00560054
0.00544815
0.00529745
0.00514193
0.00795412
0.00801855
0.00798908
0.00786422
0.00770518
0.00753148
0.00734517
0.00715712
0.00697092
0.00678741
0.00660815
0.00643416
0.00626581
0.0061024
0.00594336
0.00578857
0.00563722
0.00548857
0.00534382
0.0051968
0.00844031
0.00846214
0.00833493
0.00811741
0.00788497
0.00765578
0.00743293
0.00721972
0.00701888
0.00683141
0.00665477
0.00648551
0.00632205
0.00616296
0.00600679
0.00585358
0.0057038
0.00555774
0.00541634
0.00527761
0.00982496
0.00908377
0.00849559
0.00808746
0.00776548
0.00749872
0.00727711
0.00708633
0.00691534
0.00675826
0.00660776
0.00645687
0.00630464
0.00615272
0.00600239
0.00585454
0.00571019
0.0055705
0.00543509
0.00530847
0.00995922
0.0091965
0.00857774
0.00812644
0.0077825
0.00751353
0.00729402
0.00710541
0.00693788
0.00678092
0.00662604
0.006472
0.0063199
0.00617098
0.00602677
0.00588995
0.00576527
0.00565956
0.00558683
0.00557757
0.00865637
0.00869988
0.00853434
0.00827144
0.00799112
0.00771986
0.00746898
0.00724282
0.00704014
0.00685431
0.00667865
0.00650998
0.00634685
0.00618881
0.00603639
0.00589048
0.0057523
0.00562416
0.0055105
0.00541738
0.00813724
0.0082053
0.00815294
0.00800602
0.00782121
0.00761613
0.00740555
0.0071988
0.00699793
0.00680594
0.00662408
0.00645051
0.00628333
0.0061214
0.00596404
0.00581022
0.00565968
0.00551363
0.00537246
0.00522692
0.00783931
0.00789845
0.00788652
0.00779113
0.00765151
0.00748603
0.00730585
0.00712139
0.00693743
0.00675709
0.006582
0.006412
0.00624647
0.00608477
0.00592631
0.00577032
0.00561601
0.0054627
0.00531029
0.00515162
0.00768818
0.00775107
0.00775483
0.00768117
0.00756104
0.00741462
0.00725169
0.00708021
0.006906
0.00673235
0.0065611
0.00639313
0.00622869
0.00606763
0.00590959
0.00575415
0.00560051
0.00544811
0.00529739
0.00514185
0.00768819
0.00775109
0.00775485
0.0076812
0.00756108
0.00741469
0.0072518
0.00708037
0.00690621
0.00673265
0.00656152
0.00639373
0.00622957
0.00606897
0.0059117
0.00575723
0.00560475
0.005454
0.00530624
0.00515316
0.00783931
0.00789845
0.00788652
0.00779113
0.00765151
0.00748603
0.00730585
0.00712139
0.00693743
0.00675709
0.006582
0.006412
0.00624647
0.00608478
0.00592632
0.00577033
0.00561604
0.00546274
0.00531034
0.0051517
0.00813717
0.00820524
0.00815285
0.00800587
0.00782098
0.00761584
0.00740516
0.00719823
0.00699706
0.00680454
0.00662178
0.00644693
0.00627799
0.00611346
0.00595225
0.00579341
0.00563607
0.00547996
0.00532623
0.00516803
0.00865627
0.00869978
0.0085342
0.00827125
0.00799084
0.00771946
0.00746837
0.00724186
0.00703855
0.00685147
0.00667361
0.00650178
0.00633457
0.00617056
0.00600823
0.00584653
0.00568485
0.00552358
0.00536491
0.00520516
0.00995915
0.00919642
0.00857765
0.00812631
0.0077823
0.00751321
0.00729347
0.00710446
0.00693628
0.00677828
0.0066217
0.00646494
0.00630847
0.00615242
0.0059964
0.00583975
0.00568193
0.00552321
0.00536661
0.00521158
0.0103685
0.00951699
0.00875273
0.00819361
0.0078175
0.00754955
0.00733401
0.00714128
0.00696316
0.00679517
0.00663257
0.00647334
0.0063173
0.0061648
0.00601633
0.0058727
0.00573592
0.00560896
0.00550278
0.00543921
0.00907471
0.00920091
0.00889805
0.00848185
0.00811474
0.00779616
0.00751772
0.00727747
0.00706522
0.00687117
0.00668858
0.00651433
0.00634669
0.00618427
0.00602619
0.00587175
0.00572106
0.00557483
0.00543838
0.00532681
0.00850519
0.00860617
0.00849462
0.00826916
0.00801342
0.00775503
0.00749666
0.0072551
0.0070373
0.00683715
0.00664969
0.00647178
0.00630085
0.00613483
0.00597241
0.00581255
0.00565452
0.00549911
0.00534981
0.005204
0.00813717
0.00820524
0.00815285
0.00800586
0.00782098
0.00761584
0.00740516
0.00719823
0.00699705
0.00680453
0.00662177
0.00644692
0.00627798
0.00611345
0.00595223
0.00579339
0.00563604
0.00547991
0.00532616
0.00516791
0.00795411
0.00801855
0.00798908
0.00786422
0.00770518
0.00753148
0.00734517
0.00715711
0.00697092
0.0067874
0.00660815
0.00643415
0.00626581
0.0061024
0.00594335
0.00578854
0.00563717
0.0054885
0.00534372
0.00519666
0.00795415
0.00801858
0.00798912
0.00786431
0.00770535
0.00753172
0.00734547
0.00715752
0.00697151
0.00678833
0.00660956
0.00643627
0.00626888
0.00610695
0.00595023
0.00579846
0.00565074
0.00550744
0.00537072
0.00523268
0.00813724
0.0082053
0.00815294
0.00800602
0.00782121
0.00761613
0.00740555
0.0071988
0.00699793
0.00680594
0.00662408
0.00645051
0.00628333
0.0061214
0.00596405
0.00581023
0.00565971
0.00551367
0.00537253
0.00522706
0.0085052
0.00860618
0.00849462
0.00826916
0.00801342
0.00775503
0.00749667
0.00725511
0.0070373
0.00683715
0.00664969
0.00647178
0.00630085
0.00613484
0.00597242
0.00581255
0.00565453
0.00549912
0.00534984
0.00520405
0.00907466
0.00920085
0.00889796
0.00848174
0.00811458
0.00779591
0.00751728
0.0072767
0.00706389
0.00686897
0.0066851
0.00650889
0.00633811
0.00617057
0.00600434
0.0058375
0.0056687
0.00549789
0.00533062
0.0051708
0.0103684
0.00951693
0.00875265
0.0081935
0.00781731
0.0075492
0.00733342
0.0071403
0.00696156
0.00679249
0.00662811
0.00646602
0.00630541
0.0061454
0.0059844
0.00581972
0.00564732
0.00546116
0.00525535
0.00501482
0.0107167
0.00998289
0.00889
0.00822404
0.00782147
0.00754778
0.00733668
0.00715056
0.00697633
0.0068093
0.006647
0.00648781
0.00633047
0.00617465
0.00602088
0.00587006
0.00572038
0.00556763
0.00540585
0.0052123
0.0100001
0.00996844
0.00924022
0.00852973
0.00808338
0.00776745
0.00750857
0.00728093
0.00707639
0.00688806
0.00671041
0.00653967
0.00637285
0.00620808
0.00604447
0.00588075
0.00571532
0.005546
0.00538563
0.00527779
0.00907466
0.00920085
0.00889796
0.00848173
0.00811457
0.0077959
0.00751727
0.0072767
0.00706388
0.00686896
0.0066851
0.00650889
0.00633811
0.00617057
0.00600433
0.0058375
0.0056687
0.00549789
0.00533062
0.00517077
0.00865626
0.00869977
0.00853419
0.00827124
0.00799084
0.00771945
0.00746836
0.00724185
0.00703854
0.00685146
0.00667361
0.00650177
0.00633456
0.00617055
0.00600822
0.00584652
0.00568483
0.00552355
0.00536485
0.00520506
0.00844031
0.00846214
0.00833493
0.0081174
0.00788496
0.00765578
0.00743293
0.00721972
0.00701887
0.00683141
0.00665477
0.00648551
0.00632205
0.00616295
0.00600678
0.00585356
0.00570378
0.0055577
0.00541628
0.0052775
0.00844036
0.00846219
0.008335
0.00811752
0.00788513
0.00765602
0.00743329
0.00722026
0.00701967
0.00683271
0.00665697
0.00648916
0.00632782
0.00617192
0.00602052
0.005874
0.00573374
0.00560126
0.00547839
0.00536408
0.00865637
0.00869988
0.00853434
0.00827145
0.00799112
0.00771986
0.00746898
0.00724282
0.00704014
0.0068543
0.00667864
0.00650998
0.00634684
0.0061888
0.00603638
0.00589047
0.00575228
0.00562414
0.00551049
0.00541743
0.00907471
0.00920091
0.00889805
0.00848186
0.00811474
0.00779616
0.00751772
0.00727747
0.00706522
0.00687117
0.00668858
0.00651433
0.00634668
0.00618426
0.00602618
0.00587173
0.00572102
0.00557477
0.00543829
0.00532672
0.0100002
0.00996845
0.00924023
0.00852973
0.00808339
0.00776746
0.00750858
0.00728094
0.00707639
0.00688807
0.00671041
0.00653968
0.00637286
0.00620807
0.00604446
0.00588074
0.00571529
0.00554594
0.00538554
0.00527767
0.0107167
0.00998287
0.00888997
0.00822399
0.00782138
0.00754762
0.00733639
0.00715006
0.00697547
0.00680785
0.00664463
0.00648391
0.00632387
0.00616324
0.00600122
0.00583696
0.00566561
0.00547335
0.00522068
0.00481255
0.0178955
0.0107811
0.00848966
0.00795183
0.00767746
0.00745526
0.00726863
0.0071022
0.00694104
0.00678158
0.00662388
0.00646776
0.00631211
0.00615576
0.0059982
0.00583923
0.00567866
0.0055103
0.00529957
0.00490993
0.0107167
0.00998286
0.00888996
0.00822398
0.00782137
0.00754761
0.00733638
0.00715005
0.00697547
0.00680785
0.00664462
0.0064839
0.00632386
0.00616324
0.00600123
0.00583696
0.00566562
0.00547338
0.00522072
0.00481258
0.0103684
0.00951692
0.00875265
0.00819349
0.0078173
0.0075492
0.00733342
0.0071403
0.00696155
0.00679248
0.0066281
0.00646602
0.00630541
0.0061454
0.0059844
0.00581971
0.00564732
0.00546116
0.00525536
0.00501484
0.00995915
0.00919642
0.00857764
0.0081263
0.00778229
0.0075132
0.00729346
0.00710445
0.00693627
0.00677828
0.00662169
0.00646494
0.00630846
0.00615241
0.00599639
0.00583974
0.00568193
0.00552322
0.00536664
0.00521165
0.00982496
0.00908377
0.00849559
0.00808745
0.00776548
0.00749872
0.00727711
0.00708633
0.00691534
0.00675826
0.00660776
0.00645686
0.00630463
0.00615271
0.00600238
0.00585454
0.0057102
0.00557052
0.00543514
0.00530857
0.00982498
0.0090838
0.00849563
0.00808752
0.00776558
0.00749886
0.00727735
0.00708673
0.006916
0.00675933
0.00660951
0.00645975
0.00630937
0.00616044
0.0060149
0.00587477
0.00574269
0.0056216
0.00551347
0.00542936
0.00995922
0.0091965
0.00857774
0.00812644
0.0077825
0.00751353
0.00729402
0.00710541
0.00693788
0.00678092
0.00662603
0.00647199
0.00631989
0.00617096
0.00602675
0.00588992
0.00576523
0.00565949
0.00558673
0.00557741
0.0103685
0.00951699
0.00875273
0.00819362
0.0078175
0.00754955
0.00733401
0.00714128
0.00696316
0.00679516
0.00663257
0.00647333
0.00631729
0.00616478
0.0060163
0.00587266
0.00573586
0.00560886
0.00550263
0.00543899
0.0107167
0.0099829
0.00889001
0.00822405
0.00782148
0.00754779
0.00733668
0.00715056
0.00697633
0.00680931
0.006647
0.00648781
0.00633047
0.00617464
0.00602085
0.00587003
0.00572033
0.00556754
0.00540571
0.00521208
0.0178955
0.0107811
0.00848966
0.00795183
0.00767747
0.00745527
0.00726864
0.00710221
0.00694104
0.00678158
0.00662389
0.00646777
0.00631212
0.00615575
0.00599818
0.00583921
0.00567863
0.00551024
0.00529948
0.0049098
0.00552391
0.00494136
0.00457708
0.00443444
0.00431481
0.00418819
0.00406018
0.00393146
0.00380039
0.00366728
0.00353394
0.00340109
0.00326961
0.00313915
0.00300906
0.00287956
0.00275033
0.00262271
0.00249618
0.00237151
0.00224744
0.00212444
0.00200278
0.0018824
0.00176356
0.00164512
0.0015276
0.00141092
0.00129531
0.00118144
0.00106806
0.000953949
0.000840314
0.000728364
0.00061736
0.000505816
0.000393037
0.000279448
0.000168404
5.1063e-05
0.00563176
0.00502876
0.0045852
0.00440017
0.00427761
0.00415496
0.00403013
0.00390489
0.00377728
0.00364678
0.0035155
0.00338424
0.00325395
0.00312421
0.00299418
0.00286459
0.00273565
0.00260843
0.00248244
0.00235813
0.00223458
0.00211244
0.00199214
0.00187325
0.00175526
0.00163722
0.0015199
0.00140341
0.00128809
0.0011746
0.00106176
0.000948278
0.000835153
0.000723581
0.000612873
0.000501542
0.000389155
0.000276413
0.00016551
5.0281e-05
0.00545853
0.00507543
0.00472558
0.00450923
0.00434758
0.0041968
0.00405103
0.00391032
0.00377417
0.00364042
0.00350776
0.00337498
0.00324369
0.00311364
0.00298396
0.00285504
0.00272698
0.00260032
0.00247468
0.00235049
0.00222676
0.00210449
0.00198405
0.00186516
0.00174719
0.0016293
0.00151244
0.00139639
0.00128173
0.0011689
0.00105681
0.000944107
0.0008317
0.000720634
0.000610537
0.000500098
0.000388262
0.000275908
0.000165599
5.04541e-05
0.00527436
0.00502859
0.00477014
0.00456393
0.00439195
0.00423453
0.00408489
0.0039408
0.00380096
0.00366387
0.00352839
0.00339399
0.0032611
0.00312953
0.00299888
0.00286924
0.00274066
0.00261328
0.00248681
0.00236158
0.00223705
0.0021132
0.0019901
0.00186834
0.00174838
0.00162977
0.0015124
0.00139612
0.00128146
0.00116802
0.00105527
0.000942061
0.000829543
0.000718612
0.000608921
0.000499021
0.000387539
0.000275301
0.000165331
5.01683e-05
0.00511872
0.00494651
0.00475654
0.0045774
0.0044122
0.00425563
0.00410495
0.00395927
0.00381735
0.00367789
0.00354025
0.00340428
0.00327003
0.00313743
0.00300614
0.00287606
0.00274718
0.00261951
0.002493
0.0023677
0.00224369
0.00212073
0.00199836
0.00187662
0.0017561
0.00163696
0.0015194
0.00140343
0.00128847
0.00117406
0.00105986
0.000945756
0.000832838
0.000721337
0.000611012
0.000500437
0.000388376
0.000275991
0.000165972
5.03421e-05
0.00500889
0.00488939
0.00473824
0.00457585
0.00441681
0.00426291
0.00411384
0.00396935
0.00382794
0.0036882
0.00355
0.00341347
0.00327865
0.00314534
0.00301336
0.0028827
0.00275339
0.00262536
0.0024986
0.00237308
0.00224885
0.00212585
0.00200414
0.00188326
0.0017627
0.00164276
0.00152435
0.00140781
0.00129277
0.00117887
0.00106546
0.000952422
0.000840124
0.000728389
0.000617384
0.000505957
0.000392858
0.000279818
0.000168656
5.11955e-05
0.00495276
0.0048717
0.00473087
0.00457181
0.00441637
0.00426548
0.0041182
0.00397459
0.00383367
0.00369386
0.00355541
0.00341862
0.00328346
0.00314967
0.00301704
0.0028858
0.00275611
0.00262787
0.00250097
0.0023754
0.00225116
0.00212815
0.00200651
0.00188566
0.0017651
0.00164508
0.00152687
0.00141048
0.00129565
0.00118228
0.00106897
0.000955346
0.000842467
0.000731063
0.000621041
0.000510653
0.000397921
0.000284227
0.000171491
5.2657e-05
0.00497971
0.00488368
0.004728
0.00456318
0.00440963
0.0042622
0.00411756
0.00397487
0.00383384
0.00369419
0.0035559
0.00341912
0.00328392
0.00314975
0.00301611
0.00288386
0.00275364
0.00262531
0.00249859
0.00237328
0.00224932
0.00212648
0.0020052
0.00188445
0.00176482
0.00164689
0.00153033
0.00141451
0.0012998
0.00118664
0.00107313
0.00095872
0.000845341
0.000733942
0.000623345
0.000513417
0.00040145
0.000286797
0.000172525
5.34028e-05
0.00510053
0.00493633
0.0047213
0.0045435
0.00439166
0.00424497
0.00410084
0.00395955
0.00382013
0.00368212
0.00354535
0.00341006
0.00327646
0.00314416
0.00301334
0.00288419
0.00275509
0.00262705
0.00250062
0.00237527
0.00225109
0.00212788
0.00200618
0.00188541
0.0017666
0.00164902
0.00153238
0.00141622
0.00130083
0.00118707
0.00107329
0.000958524
0.000844661
0.000732658
0.000621637
0.000511615
0.000399247
0.000284203
0.000170004
5.239e-05
0.00538967
0.00495614
0.00465333
0.00450853
0.00437908
0.0042394
0.00409971
0.00396138
0.00382378
0.00368696
0.0035508
0.00341648
0.00328456
0.00315345
0.00302352
0.00289493
0.00276593
0.0026376
0.00251073
0.00238518
0.00226081
0.00213721
0.00201444
0.0018927
0.00177288
0.00165417
0.0015362
0.00141915
0.0013031
0.00118884
0.00107492
0.000960076
0.000845835
0.000733304
0.000621861
0.000511473
0.000399289
0.000284288
0.000170142
5.24029e-05
0.00552423
0.00494195
0.00457828
0.00443642
0.00431604
0.00418754
0.0040596
0.0039311
0.00379929
0.00366602
0.00353236
0.00339998
0.00326959
0.00313929
0.003009
0.00287966
0.00275063
0.00262277
0.00249645
0.00237143
0.00224758
0.00212477
0.00200326
0.00188291
0.00176387
0.00164558
0.00152789
0.00141116
0.00129549
0.00118161
0.00106824
0.000954078
0.000840411
0.000728318
0.000617194
0.000506999
0.000395181
0.000280797
0.000168899
5.07249e-05
0.00538927
0.00495545
0.00465214
0.00450593
0.00437679
0.00423959
0.00410086
0.00396268
0.00382523
0.00368835
0.00355253
0.00341764
0.00328457
0.00315324
0.00302358
0.00289475
0.00276554
0.00263746
0.00251039
0.00238523
0.00226063
0.00213683
0.00201386
0.00189208
0.00177238
0.00165354
0.00153575
0.00141874
0.00130279
0.00118856
0.00107465
0.000959901
0.000845732
0.000733434
0.000622109
0.000510079
0.00039656
0.000282288
0.000169396
5.26225e-05
0.00528067
0.00495467
0.00467553
0.00449952
0.00435838
0.00421785
0.00407951
0.00394421
0.0038104
0.00367691
0.00354404
0.00341096
0.00327942
0.00314912
0.00301944
0.00288991
0.00276096
0.00263354
0.00250717
0.00238271
0.00225829
0.00213513
0.00201323
0.00189236
0.00177305
0.0016539
0.00153594
0.00141878
0.00130287
0.00118887
0.00107505
0.000960071
0.000845766
0.000733385
0.000622492
0.000511235
0.000397693
0.000283219
0.000171012
5.34921e-05
0.00521434
0.00498337
0.00475977
0.00456605
0.004396
0.0042367
0.00408574
0.00394089
0.00380027
0.00366296
0.00352752
0.00339341
0.00326068
0.00312956
0.00300002
0.00287141
0.00274387
0.00261749
0.0024923
0.00236773
0.00224379
0.0021208
0.00199912
0.00187866
0.00175955
0.00164159
0.00152462
0.00140857
0.00129396
0.00118035
0.00106679
0.000952823
0.000839691
0.000727608
0.000616819
0.0005063
0.000394343
0.000281442
0.000170678
5.38135e-05
0.00513135
0.00495509
0.00477453
0.00459344
0.00442391
0.0042637
0.00410982
0.00396155
0.00381798
0.00367819
0.00354093
0.00340593
0.00327231
0.00314007
0.00300946
0.00288005
0.00275179
0.00262448
0.00249843
0.00237321
0.00224935
0.00212601
0.00200359
0.00188269
0.00176294
0.00164457
0.00152692
0.00141045
0.00129509
0.00117996
0.00106499
0.000950875
0.000837913
0.000725529
0.000613982
0.000502651
0.000391005
0.000279443
0.000169214
5.37499e-05
0.00506958
0.00490112
0.00474096
0.00457803
0.00441882
0.00426499
0.00411513
0.0039688
0.00382587
0.00368604
0.00354869
0.00341338
0.00327942
0.00314684
0.0030158
0.00288601
0.00275733
0.00262975
0.0025034
0.00237805
0.00225366
0.00213006
0.00200769
0.0018867
0.0017667
0.00164805
0.00153072
0.00141434
0.00129865
0.00118321
0.00106791
0.000953723
0.00084057
0.00072767
0.00061478
0.000501517
0.000388638
0.000277147
0.000167112
5.36744e-05
0.00498482
0.00483228
0.00469605
0.00454873
0.00439911
0.00425316
0.00411003
0.00396848
0.00382854
0.00369059
0.00355432
0.00341939
0.00328553
0.00315276
0.00302125
0.00289094
0.00276183
0.00263389
0.00250709
0.00238138
0.00225669
0.00213297
0.00201039
0.00188904
0.00176889