/*--------------------------------*- C++ -*----------------------------------*\
| =========                 |                                                 |
| \\      /  F ield         | OpenFOAM: The Open Source CFD Toolbox           |
|  \\    /   O peration     | Version:  2212                                  |
|   \\  /    A nd           | Website:  www.openfoam.com                      |
|    \\/     M anipulation  |                                                 |
\*---------------------------------------------------------------------------*/
FoamFile
{
    version     2.0;
    format      ascii;
    arch        "LSB;label=32;scalar=64";
    class       surfaceScalarField;
    location    "1.95";
    object      phi;
}
// * * * * * * * * * * * * * * * * * * * * * * * * * * * * * * * * * * * * * //

dimensions      [0 3 -1 0 0 0 0];

oriented        oriented;

internalField   nonuniform List<scalar> 
19019
(
3.32249e-07
1.0968e-09
1.09688e-09
2.7919e-07
2.65293e-08
2.65298e-08
2.49217e-07
1.49861e-08
1.49869e-08
2.29253e-07
9.98154e-09
9.98287e-09
2.14833e-07
7.2088e-09
7.21172e-09
2.03195e-07
5.81642e-09
5.82087e-09
1.93765e-07
4.71056e-09
4.71937e-09
1.85994e-07
3.87797e-09
3.8936e-09
1.79338e-07
3.3142e-09
3.34115e-09
1.735e-07
2.89639e-09
2.94252e-09
1.68311e-07
2.55636e-09
2.63215e-09
1.63663e-07
2.26149e-09
2.38664e-09
1.59457e-07
1.99664e-09
2.20883e-09
1.55624e-07
1.7309e-09
2.102e-09
1.52155e-07
1.41383e-09
2.05543e-09
1.49088e-07
1.01876e-09
2.04811e-09
1.46565e-07
4.51791e-10
2.07103e-09
1.45309e-07
-6.82334e-10
1.93836e-09
1.47021e-07
-3.63977e-09
1.9275e-09
-2.20425e-08
-8.80943e-09
6.3138e-07
3.58749e-09
7.40295e-09
6.14563e-07
2.26454e-08
2.07009e-08
5.86444e-07
2.43755e-08
1.87301e-08
5.61722e-07
1.88541e-08
1.58489e-08
5.39611e-07
1.55678e-08
1.37518e-08
5.20627e-07
1.35074e-08
1.12936e-08
5.04674e-07
1.19467e-08
8.71612e-09
4.9091e-07
1.07911e-08
6.85145e-09
4.78669e-07
9.93256e-09
5.62238e-09
4.67555e-07
9.21182e-09
4.79826e-09
4.57324e-07
8.56844e-09
4.21936e-09
4.47816e-07
7.97714e-09
3.79215e-09
4.38898e-07
7.4242e-09
3.49093e-09
4.30449e-07
6.88982e-09
3.28916e-09
4.22364e-07
6.33655e-09
3.16254e-09
4.14661e-07
5.65624e-09
3.06505e-09
4.07415e-07
4.72749e-09
2.97011e-09
4.00944e-07
3.18616e-09
2.60266e-09
3.96754e-07
-6.20325e-11
6.11736e-10
-4.57853e-09
-6.93465e-09
8.90374e-07
2.85261e-09
6.33243e-09
8.82485e-07
1.34086e-08
1.71264e-08
8.70356e-07
1.78675e-08
1.86372e-08
8.55105e-07
1.69556e-08
1.71493e-08
8.39969e-07
1.53407e-08
1.53633e-08
8.25511e-07
1.41709e-08
1.37937e-08
8.11728e-07
1.33813e-08
1.23486e-08
7.98709e-07
1.26779e-08
1.11321e-08
7.86596e-07
1.18912e-08
1.01548e-08
7.75387e-07
1.10487e-08
9.37265e-09
7.64924e-07
1.0244e-08
8.78691e-09
7.55028e-07
9.49901e-09
8.37428e-09
7.45526e-07
8.82666e-09
8.09891e-09
7.36261e-07
8.22342e-09
7.93217e-09
7.27066e-07
7.66237e-09
7.86882e-09
7.17685e-07
7.09443e-09
7.94204e-09
7.07745e-07
6.46775e-09
8.19968e-09
6.96512e-07
5.72417e-09
8.69494e-09
6.8247e-07
4.60124e-09
9.37909e-09
7.32858e-09
1.54209e-08
1.07432e-06
1.06505e-09
5.56891e-09
1.06824e-06
5.58744e-09
1.39004e-08
1.06138e-06
8.46578e-09
1.62625e-08
1.05338e-06
9.04278e-09
1.59106e-08
1.04509e-06
8.62299e-09
1.50048e-08
1.03719e-06
8.12954e-09
1.39371e-08
1.02979e-06
7.80221e-09
1.29826e-08
1.02277e-06
7.58057e-09
1.21236e-08
1.01588e-06
7.41343e-09
1.13596e-08
1.00906e-06
7.15791e-09
1.07161e-08
1.0023e-06
6.76449e-09
1.02398e-08
9.95545e-07
6.34225e-09
9.9093e-09
9.88691e-07
5.97496e-09
9.7055e-09
9.81584e-07
5.69869e-09
9.6318e-09
9.73993e-07
5.54772e-09
9.70544e-09
9.65533e-07
5.57868e-09
9.97627e-09
9.55546e-07
5.88643e-09
1.05674e-08
9.42938e-07
6.68554e-09
1.16466e-08
9.25935e-07
8.27413e-09
1.33303e-08
1.32805e-08
1.77322e-08
1.16914e-06
1.46302e-13
4.90663e-09
1.16312e-06
6.8666e-13
1.16088e-08
1.15731e-06
1.56255e-12
1.4276e-08
1.15202e-06
2.77309e-12
1.43344e-08
1.1469e-06
4.73375e-12
1.37318e-08
1.14205e-06
8.20695e-12
1.29716e-08
1.13774e-06
1.43453e-11
1.21038e-08
1.13398e-06
2.43822e-11
1.13126e-08
1.13069e-06
4.11939e-11
1.0657e-08
1.12758e-06
6.8858e-11
1.02007e-08
1.12432e-06
1.14233e-10
9.91188e-09
1.12076e-06
1.88629e-10
9.7176e-09
1.1168e-06
3.11185e-10
9.62321e-09
1.11234e-06
5.12639e-10
9.64832e-09
1.10724e-06
8.32435e-10
9.80825e-09
1.10135e-06
1.34592e-09
1.01217e-08
1.09443e-06
2.17052e-09
1.06372e-08
1.08619e-06
3.48966e-09
1.1443e-08
1.07647e-06
5.47471e-09
1.2512e-08
9.17886e-09
1.40661e-08
1.16914e-06
-1.06473e-09
4.90658e-09
1.16312e-06
-5.58633e-09
1.16086e-08
1.15731e-06
-8.46368e-09
1.42758e-08
1.15202e-06
-9.03922e-09
1.43338e-08
1.14691e-06
-8.61638e-09
1.37299e-08
1.14207e-06
-8.11738e-09
1.29679e-08
1.13777e-06
-7.78054e-09
1.2098e-08
1.13403e-06
-7.54335e-09
1.13031e-08
1.13078e-06
-7.3491e-09
1.06407e-08
1.12773e-06
-7.05087e-09
1.01732e-08
1.12456e-06
-6.5894e-09
9.86691e-09
1.12117e-06
-6.05672e-09
9.64243e-09
1.11749e-06
-5.50468e-09
9.49467e-09
1.11349e-06
-4.91642e-09
9.43066e-09
1.10912e-06
-4.25258e-09
9.44753e-09
1.10436e-06
-3.41592e-09
9.52495e-09
1.09914e-06
-2.26002e-09
9.65291e-09
1.09338e-06
-5.94616e-10
9.8432e-09
1.08709e-06
1.68827e-09
1.00796e-08
4.95163e-09
1.0358e-08
1.07432e-06
-2.85264e-09
5.5689e-09
1.06824e-06
-1.34087e-08
1.39003e-08
1.06138e-06
-1.78675e-08
1.62617e-08
1.05339e-06
-1.69555e-08
1.59082e-08
1.04511e-06
-1.534e-08
1.50003e-08
1.03723e-06
-1.41687e-08
1.39302e-08
1.02986e-06
-1.33769e-08
1.29723e-08
1.02288e-06
-1.26708e-08
1.21068e-08
1.01608e-06
-1.18787e-08
1.13315e-08
1.00938e-06
-1.10277e-08
1.0668e-08
1.00285e-06
-1.02101e-08
1.0157e-08
9.96467e-07
-9.44222e-09
9.76599e-09
9.90227e-07
-8.72495e-09
9.46028e-09
9.84132e-07
-8.03403e-09
9.21269e-09
9.78208e-07
-7.30847e-09
8.98041e-09
9.72493e-07
-6.4075e-09
8.70658e-09
9.6704e-07
-5.11682e-09
8.30965e-09
9.61818e-07
-3.07674e-09
7.70442e-09
9.56664e-07
-4.76433e-11
6.88978e-09
6.88618e-09
5.56807e-09
8.90375e-07
-3.58763e-09
6.33233e-09
8.82486e-07
-2.26461e-08
1.71257e-08
8.7036e-07
-2.43764e-08
1.86356e-08
8.55113e-07
-1.88557e-08
1.71465e-08
8.39985e-07
-1.55712e-08
1.53592e-08
8.25542e-07
-1.35131e-08
1.37882e-08
8.11782e-07
-1.19565e-08
1.23396e-08
7.98802e-07
-1.08072e-08
1.11162e-08
7.86754e-07
-9.95959e-09
1.0129e-08
7.75654e-07
-9.25794e-09
9.33042e-09
7.65375e-07
-8.6472e-09
8.71609e-09
7.55786e-07
-8.10489e-09
8.25151e-09
7.46798e-07
-7.62323e-09
7.88553e-09
7.38397e-07
-7.19883e-09
7.56599e-09
7.30677e-07
-6.82152e-09
7.23304e-09
7.23904e-07
-6.41028e-09
6.77569e-09
7.1859e-07
-5.7982e-09
5.99518e-09
7.15238e-07
-4.22112e-09
4.49668e-09
7.14499e-07
-1.23817e-09
1.92835e-09
8.26665e-09
-4.222e-09
6.3138e-07
-1.09686e-09
7.40285e-09
6.14563e-07
-2.65298e-08
2.07003e-08
5.86445e-07
-1.49868e-08
1.87292e-08
5.61725e-07
-9.98279e-09
1.58471e-08
5.39616e-07
-7.21162e-09
1.37493e-08
5.20635e-07
-5.82077e-09
1.12887e-08
5.04689e-07
-4.71924e-09
8.70822e-09
4.90937e-07
-3.89346e-09
6.83865e-09
4.78718e-07
-3.34098e-09
5.60092e-09
4.67641e-07
-2.94232e-09
4.76143e-09
4.57477e-07
-2.63194e-09
4.14867e-09
4.48088e-07
-2.3864e-09
3.66984e-09
4.39374e-07
-2.20854e-09
3.29978e-09
4.31262e-07
-2.10167e-09
3.0144e-09
4.23745e-07
-2.05495e-09
2.75049e-09
4.17059e-07
-2.04727e-09
2.32309e-09
4.11738e-07
-2.06986e-09
1.59248e-09
4.09565e-07
-1.93603e-09
-1.12939e-10
4.14208e-07
-1.92217e-09
-3.95896e-09
8.82695e-09
-1.86196e-08
3.32249e-07
1.09682e-09
2.7919e-07
2.65294e-08
2.49217e-07
1.49861e-08
2.29253e-07
9.98162e-09
2.14832e-07
7.20889e-09
2.03195e-07
5.81652e-09
1.93765e-07
4.71069e-09
1.85994e-07
3.87812e-09
1.79338e-07
3.31437e-09
1.73499e-07
2.8966e-09
1.68311e-07
2.55659e-09
1.63663e-07
2.26174e-09
1.59457e-07
1.99689e-09
1.55624e-07
1.73128e-09
1.52155e-07
1.41438e-09
1.49088e-07
1.01934e-09
1.46566e-07
4.52738e-10
1.4531e-07
-6.80643e-10
1.47025e-07
-3.63755e-09
-2.20435e-08
6.3138e-07
7.40285e-09
3.58765e-09
6.14563e-07
2.07003e-08
2.26462e-08
5.86445e-07
1.87292e-08
2.43765e-08
5.61725e-07
1.58471e-08
1.88558e-08
5.39616e-07
1.37493e-08
1.55713e-08
5.20635e-07
1.12887e-08
1.35132e-08
5.0469e-07
8.70819e-09
1.19566e-08
4.90937e-07
6.83861e-09
1.08073e-08
4.78718e-07
5.60088e-09
9.95976e-09
4.67641e-07
4.76139e-09
9.25813e-09
4.57477e-07
4.14862e-09
8.6474e-09
4.48089e-07
3.66983e-09
8.10508e-09
4.39374e-07
3.29991e-09
7.62342e-09
4.31262e-07
3.01438e-09
7.19934e-09
4.23745e-07
2.75018e-09
6.82238e-09
4.17059e-07
2.32279e-09
6.4113e-09
4.11738e-07
1.59208e-09
5.79946e-09
4.09567e-07
-1.13563e-10
4.22321e-09
4.14212e-07
-3.95886e-09
1.24154e-09
-1.86155e-08
-8.25524e-09
9.23616e-07
7.03383e-09
7.03403e-09
9.25317e-07
1.98498e-08
1.98506e-08
9.17181e-07
2.27968e-08
2.27981e-08
9.04271e-07
2.23022e-08
2.23047e-08
8.90526e-07
2.06206e-08
2.06247e-08
8.77397e-07
1.78522e-08
1.78598e-08
8.65419e-07
1.4695e-08
1.47074e-08
8.54726e-07
1.21812e-08
1.22011e-08
8.45263e-07
1.03261e-08
1.03605e-08
8.3688e-07
8.94138e-09
9.00113e-09
8.29389e-07
7.8787e-09
7.98051e-09
8.22601e-07
7.04117e-09
7.20865e-09
8.16403e-07
6.36089e-09
6.62809e-09
8.10774e-07
5.7551e-09
6.17792e-09
8.05734e-07
5.14083e-09
5.81169e-09
8.01253e-07
4.40118e-09
5.46731e-09
7.97323e-07
3.426e-09
5.0662e-09
7.93385e-07
1.99402e-09
4.43263e-09
7.87219e-07
-3.0318e-10
3.12229e-09
-4.03424e-09
-5.7929e-10
1.1589e-06
5.28139e-09
6.10289e-09
1.16569e-06
1.3999e-08
1.6184e-08
1.16844e-06
1.79787e-08
2.07089e-08
1.1666e-06
1.91801e-08
2.21085e-08
1.1622e-06
1.88778e-08
2.15109e-08
1.15652e-06
1.75474e-08
1.97771e-08
1.15044e-06
1.56882e-08
1.7437e-08
1.14451e-06
1.38912e-08
1.53494e-08
1.13904e-06
1.22912e-08
1.36627e-08
1.13414e-06
1.08938e-08
1.23226e-08
1.12979e-06
9.73664e-09
1.1275e-08
1.12595e-06
8.78266e-09
1.04752e-08
1.12255e-06
7.97789e-09
9.87949e-09
1.11952e-06
7.27125e-09
9.44947e-09
1.11675e-06
6.60808e-09
9.16899e-09
1.1141e-06
5.94394e-09
9.05089e-09
1.11139e-06
5.22566e-09
9.10279e-09
1.10834e-06
4.41655e-09
9.32488e-09
1.10441e-06
3.40456e-09
9.60027e-09
2.67627e-09
1.03199e-08
1.32762e-06
2.71853e-09
4.9314e-09
1.33539e-06
7.12174e-09
1.30099e-08
1.34286e-06
9.55507e-09
1.72177e-08
1.34847e-06
1.05808e-08
1.89034e-08
1.35196e-06
1.088e-08
1.95081e-08
1.35373e-06
1.05882e-08
1.91255e-08
1.35438e-06
9.90397e-09
1.81163e-08
1.3545e-06
9.06561e-09
1.68356e-08
1.35442e-06
8.22574e-09
1.55005e-08
1.35429e-06
7.45012e-09
1.42913e-08
1.35415e-06
6.77689e-09
1.33443e-08
1.354e-06
6.20273e-09
1.26304e-08
1.35385e-06
5.71808e-09
1.2118e-08
1.35363e-06
5.32577e-09
1.17959e-08
1.35324e-06
5.02931e-09
1.16735e-08
1.35253e-06
4.84357e-09
1.17885e-08
1.35133e-06
4.7924e-09
1.22047e-08
1.3495e-06
4.95036e-09
1.29449e-08
1.34685e-06
5.35731e-09
1.40257e-08
6.26312e-09
1.54029e-08
1.41518e-06
2.68218e-13
4.19312e-09
1.42279e-06
7.666e-13
1.11166e-08
1.43152e-06
1.31814e-12
1.50998e-08
1.4398e-06
2.40244e-12
1.66314e-08
1.44713e-06
4.42002e-12
1.72792e-08
1.45317e-06
7.66921e-12
1.75155e-08
1.458e-06
1.25679e-11
1.71613e-08
1.46191e-06
2.04885e-11
1.64487e-08
1.46519e-06
3.42301e-11
1.55658e-08
1.46809e-06
5.90542e-11
1.4691e-08
1.47079e-06
1.00874e-10
1.38898e-08
1.47333e-06
1.6794e-10
1.32096e-08
1.47567e-06
2.68629e-10
1.27327e-08
1.47774e-06
4.23566e-10
1.24785e-08
1.4795e-06
6.68066e-10
1.24093e-08
1.48093e-06
1.04363e-09
1.24986e-08
1.48197e-06
1.60572e-09
1.27835e-08
1.48261e-06
2.4286e-09
1.33211e-08
1.48284e-06
3.58317e-09
1.40574e-08
5.07939e-09
1.4913e-08
1.41518e-06
-2.71822e-09
4.19297e-09
1.42279e-06
-7.12089e-09
1.11162e-08
1.43152e-06
-9.55353e-09
1.50992e-08
1.43981e-06
-1.05779e-08
1.66301e-08
1.44714e-06
-1.08746e-08
1.72761e-08
1.45318e-06
-1.0579e-08
1.75102e-08
1.45803e-06
-9.88871e-09
1.71529e-08
1.46196e-06
-9.04029e-09
1.64357e-08
1.46527e-06
-8.1831e-09
1.55459e-08
1.46822e-06
-7.37268e-09
1.46586e-08
1.47099e-06
-6.64083e-09
1.38353e-08
1.47366e-06
-5.9778e-09
1.31156e-08
1.47623e-06
-5.37258e-09
1.25723e-08
1.47866e-06
-4.79122e-09
1.22136e-08
1.48095e-06
-4.16677e-09
1.19881e-08
1.48312e-06
-3.44868e-09
1.18512e-08
1.48515e-06
-2.56599e-09
1.17922e-08
1.48705e-06
-1.44561e-09
1.18156e-08
1.48883e-06
-1.42737e-11
1.18958e-08
1.83101e-09
1.19916e-08
1.32763e-06
-5.28153e-09
4.93111e-09
1.33539e-06
-1.39993e-08
1.3009e-08
1.34287e-06
-1.79791e-08
1.72158e-08
1.34848e-06
-1.91806e-08
1.88991e-08
1.35198e-06
-1.88786e-08
1.95004e-08
1.35377e-06
-1.75492e-08
1.91137e-08
1.35444e-06
-1.56904e-08
1.80981e-08
1.3546e-06
-1.38928e-08
1.68067e-08
1.35458e-06
-1.22946e-08
1.5456e-08
1.35456e-06
-1.09003e-08
1.42184e-08
1.35461e-06
-9.74823e-09
1.32188e-08
1.35478e-06
-8.80562e-09
1.24205e-08
1.35511e-06
-8.01989e-09
1.17748e-08
1.35563e-06
-7.3362e-09
1.12377e-08
1.35637e-06
-6.69064e-09
1.07629e-08
1.35735e-06
-6.01671e-09
1.02989e-08
1.35852e-06
-5.21923e-09
9.79013e-09
1.35979e-06
-4.1921e-09
9.18215e-09
1.36098e-06
-2.76578e-09
8.44951e-09
-2.63699e-10
7.50255e-09
1.1589e-06
-7.03402e-09
6.10254e-09
1.1657e-06
-1.98506e-08
1.61827e-08
1.16844e-06
-2.27981e-08
2.07061e-08
1.16661e-06
-2.23046e-08
2.21039e-08
1.16221e-06
-2.06246e-08
2.15041e-08
1.15654e-06
-1.78597e-08
1.97675e-08
1.15048e-06
-1.47073e-08
1.74212e-08
1.14458e-06
-1.2201e-08
1.5322e-08
1.13916e-06
-1.03605e-08
1.36161e-08
1.13435e-06
-9.00101e-09
1.22453e-08
1.13015e-06
-7.98034e-09
1.11474e-08
1.12653e-06
-7.2084e-09
1.02665e-08
1.12349e-06
-6.62767e-09
9.53759e-09
1.12101e-06
-6.17765e-09
8.89172e-09
1.1191e-06
-5.81128e-09
8.26322e-09
1.11775e-06
-5.4661e-09
7.56708e-09
1.11692e-06
-5.06386e-09
6.674e-09
1.1162e-06
-4.42861e-09
5.45714e-09
1.11468e-06
-3.11404e-09
3.79517e-09
6.09113e-10
1.4327e-09
9.23616e-07
-7.40295e-09
7.03383e-09
9.25317e-07
-2.07008e-08
1.98499e-08
9.17181e-07
-1.87301e-08
2.27968e-08
9.04271e-07
-1.58489e-08
2.23022e-08
8.90526e-07
-1.37518e-08
2.06207e-08
8.77397e-07
-1.12936e-08
1.78523e-08
8.65419e-07
-8.71611e-09
1.46951e-08
8.54726e-07
-6.85145e-09
1.21813e-08
8.45263e-07
-5.62238e-09
1.03263e-08
8.3688e-07
-4.79826e-09
8.94154e-09
8.29389e-07
-4.21935e-09
7.87885e-09
8.22601e-07
-3.7921e-09
7.04126e-09
8.16403e-07
-3.49074e-09
6.36074e-09
8.10774e-07
-3.28911e-09
5.75534e-09
8.05734e-07
-3.16247e-09
5.14132e-09
8.01254e-07
-3.06435e-09
4.40103e-09
7.97326e-07
-2.96852e-09
3.42516e-09
7.93393e-07
-2.60003e-09
1.99187e-09
7.87233e-07
-6.05279e-10
-3.08438e-10
6.95631e-09
-4.04531e-09
6.3138e-07
3.58751e-09
6.14563e-07
2.26455e-08
5.86444e-07
2.43756e-08
5.61722e-07
1.88542e-08
5.39611e-07
1.55679e-08
5.20627e-07
1.35075e-08
5.04674e-07
1.19469e-08
4.9091e-07
1.07912e-08
4.78669e-07
9.93273e-09
4.67555e-07
9.21201e-09
4.57324e-07
8.56865e-09
4.47816e-07
7.97738e-09
4.38898e-07
7.4244e-09
4.3045e-07
6.8898e-09
4.22366e-07
6.33638e-09
4.14665e-07
5.65616e-09
4.07422e-07
4.72728e-09
4.00955e-07
3.18534e-09
3.96778e-07
-6.53706e-11
-4.58506e-09
8.90375e-07
6.33232e-09
2.85265e-09
8.82486e-07
1.71257e-08
1.34087e-08
8.7036e-07
1.86356e-08
1.78676e-08
8.55113e-07
1.71465e-08
1.69556e-08
8.39986e-07
1.53592e-08
1.53401e-08
8.25542e-07
1.37881e-08
1.41688e-08
8.11782e-07
1.23396e-08
1.33771e-08
7.98802e-07
1.11162e-08
1.2671e-08
7.86754e-07
1.01289e-08
1.18788e-08
7.75654e-07
9.33032e-09
1.10278e-08
7.65375e-07
8.71597e-09
1.02103e-08
7.55787e-07
8.25134e-09
9.44242e-09
7.468e-07
7.8852e-09
8.72517e-09
7.38399e-07
7.56561e-09
8.03439e-09
7.3068e-07
7.2326e-09
7.30888e-09
7.23909e-07
6.77472e-09
6.40764e-09
7.18598e-07
5.99345e-09
5.11637e-09
7.15253e-07
4.49351e-09
3.07512e-09
7.14526e-07
1.92428e-09
4.38808e-11
-4.21505e-09
-6.896e-09
1.1589e-06
6.10253e-09
5.28154e-09
1.1657e-06
1.61827e-08
1.39993e-08
1.16844e-06
2.07061e-08
1.79791e-08
1.16661e-06
2.21039e-08
1.91806e-08
1.16221e-06
2.1504e-08
1.88786e-08
1.15654e-06
1.97674e-08
1.75493e-08
1.15048e-06
1.74211e-08
1.56905e-08
1.14458e-06
1.53218e-08
1.38929e-08
1.13916e-06
1.36159e-08
1.22947e-08
1.13435e-06
1.22452e-08
1.09004e-08
1.13015e-06
1.11472e-08
9.74839e-09
1.12653e-06
1.02664e-08
8.80583e-09
1.12349e-06
9.5373e-09
8.02008e-09
1.12101e-06
8.89125e-09
7.33643e-09
1.1191e-06
8.26277e-09
6.69104e-09
1.11776e-06
7.56676e-09
6.01727e-09
1.11692e-06
6.67394e-09
5.22006e-09
1.1162e-06
5.45763e-09
4.19317e-09
1.11468e-06
3.79849e-09
2.76867e-09
1.4565e-09
2.83167e-10
1.37712e-06
4.57731e-09
4.57764e-09
1.38565e-06
1.19172e-08
1.19181e-08
1.39417e-06
1.64471e-08
1.64488e-08
1.40126e-06
1.85607e-08
1.85635e-08
1.40641e-06
1.89296e-08
1.89343e-08
1.40951e-06
1.82205e-08
1.82276e-08
1.41093e-06
1.67129e-08
1.67246e-08
1.4115e-06
1.50377e-08
1.50561e-08
1.41177e-06
1.349e-08
1.35199e-08
1.412e-06
1.2146e-08
1.21939e-08
1.41236e-06
1.09952e-08
1.1072e-08
1.41294e-06
1.00179e-08
1.01412e-08
1.4138e-06
9.17998e-09
9.37925e-09
1.41494e-06
8.43954e-09
8.75895e-09
1.41636e-06
7.75694e-09
8.25659e-09
1.41802e-06
7.0958e-09
7.86099e-09
1.41984e-06
6.39961e-09
7.55387e-09
1.42169e-06
5.62278e-09
7.31034e-09
1.4233e-06
4.73783e-09
7.05374e-09
3.91399e-09
6.68837e-09
1.53312e-06
2.36629e-09
3.64972e-09
1.54218e-06
6.23955e-09
9.63507e-09
1.55327e-06
8.87468e-09
1.3694e-08
1.56445e-06
1.03495e-08
1.59407e-08
1.57506e-06
1.09034e-08
1.69183e-08
1.58469e-06
1.07603e-08
1.69554e-08
1.59298e-06
1.01525e-08
1.63915e-08
1.60004e-06
9.34575e-09
1.54694e-08
1.60616e-06
8.48304e-09
1.43801e-08
1.61162e-06
7.67648e-09
1.33054e-08
1.61664e-06
6.97377e-09
1.2345e-08
1.62138e-06
6.37627e-09
1.15323e-08
1.62593e-06
5.86516e-09
1.08789e-08
1.63036e-06
5.42547e-09
1.03861e-08
1.63469e-06
5.04635e-09
1.00547e-08
1.63896e-06
4.72567e-09
9.88873e-09
1.6432e-06
4.46154e-09
9.90434e-09
1.64743e-06
4.23447e-09
1.00971e-08
1.65177e-06
4.01708e-09
1.04092e-08
3.8348e-09
1.0648e-08
1.61424e-06
1.90012e-13
3.09309e-09
1.62332e-06
4.57544e-13
8.27476e-09
1.63533e-06
8.01799e-13
1.19585e-08
1.6482e-06
1.41719e-12
1.41168e-08
1.66117e-06
2.50678e-12
1.5204e-08
1.67386e-06
4.09798e-12
1.55883e-08
1.68573e-06
6.72886e-12
1.54371e-08
1.69654e-06
1.07484e-11
1.49684e-08
1.70627e-06
1.76902e-11
1.42994e-08
1.71508e-06
2.96079e-11
1.3533e-08
1.72313e-06
4.88608e-11
1.27606e-08
1.73059e-06
7.82289e-11
1.20522e-08
1.73761e-06
1.2082e-10
1.14594e-08
1.74432e-06
1.84234e-10
1.10104e-08
1.75077e-06
2.82801e-10
1.07163e-08
1.75698e-06
4.30761e-10
1.05813e-08
1.76298e-06
6.48294e-10
1.06044e-08
1.7688e-06
9.46293e-10
1.07886e-08
1.77445e-06
1.34131e-09
1.10793e-08
1.81159e-09
1.13326e-08
1.61424e-06
-2.36616e-09
3.09291e-09
1.62332e-06
-6.23925e-09
8.27424e-09
1.63534e-06
-8.87413e-09
1.19575e-08
1.6482e-06
-1.03485e-08
1.41149e-08
1.66118e-06
-1.09019e-08
1.52005e-08
1.67387e-06
-1.07581e-08
1.55829e-08
1.68575e-06
-1.01487e-08
1.54292e-08
1.69658e-06
-9.33928e-09
1.49567e-08
1.70633e-06
-8.47204e-09
1.42814e-08
1.71517e-06
-7.65604e-09
1.35043e-08
1.72328e-06
-6.93699e-09
1.27142e-08
1.73081e-06
-6.31516e-09
1.19768e-08
1.73794e-06
-5.77232e-09
1.1338e-08
1.74481e-06
-5.28784e-09
1.08175e-08
1.7515e-06
-4.83391e-09
1.04148e-08
1.75804e-06
-4.39411e-09
1.01304e-08
1.76448e-06
-3.93846e-09
9.94763e-09
1.77083e-06
-3.43992e-09
9.85031e-09
1.77711e-06
-2.85011e-09
9.8054e-09
-2.13055e-09
9.75543e-09
1.53312e-06
-4.57763e-09
3.6493e-09
1.54218e-06
-1.19181e-08
9.63391e-09
1.55328e-06
-1.64488e-08
1.36918e-08
1.56445e-06
-1.85635e-08
1.59367e-08
1.57508e-06
-1.89342e-08
1.69117e-08
1.58471e-06
-1.82276e-08
1.69451e-08
1.59301e-06
-1.67246e-08
1.63758e-08
1.60009e-06
-1.50561e-08
1.54441e-08
1.60625e-06
-1.35199e-08
1.4341e-08
1.61177e-06
-1.21938e-08
1.32443e-08
1.61687e-06
-1.10719e-08
1.2247e-08
1.62174e-06
-1.0141e-08
1.13749e-08
1.6265e-06
-9.37902e-09
1.06237e-08
1.63124e-06
-8.7588e-09
9.976e-09
1.63601e-06
-8.25636e-09
9.41058e-09
1.64088e-06
-7.86034e-09
8.89951e-09
1.64587e-06
-7.55266e-09
8.41471e-09
1.651e-06
-7.30834e-09
7.91681e-09
1.65625e-06
-7.04983e-09
7.4006e-09
-6.67964e-09
6.90964e-09
1.37712e-06
-6.10288e-09
4.57732e-09
1.38565e-06
-1.6184e-08
1.19172e-08
1.39417e-06
-2.07089e-08
1.64471e-08
1.40126e-06
-2.21085e-08
1.85608e-08
1.40641e-06
-2.15109e-08
1.89297e-08
1.40951e-06
-1.97771e-08
1.82206e-08
1.41093e-06
-1.7437e-08
1.67131e-08
1.4115e-06
-1.53493e-08
1.50379e-08
1.41177e-06
-1.36626e-08
1.34902e-08
1.412e-06
-1.23225e-08
1.21462e-08
1.41236e-06
-1.12749e-08
1.09954e-08
1.41294e-06
-1.04749e-08
1.0018e-08
1.4138e-06
-9.87903e-09
9.18011e-09
1.41494e-06
-9.44912e-09
8.4397e-09
1.41636e-06
-9.16843e-09
7.75685e-09
1.41802e-06
-9.04934e-09
7.09501e-09
1.41984e-06
-9.09986e-09
6.39778e-09
1.42169e-06
-9.3198e-09
5.61902e-09
1.4233e-06
-9.59201e-09
4.73041e-09
-1.03101e-08
3.89944e-09
1.1589e-06
-6.33242e-09
5.2814e-09
1.16569e-06
-1.71264e-08
1.39991e-08
1.16844e-06
-1.86372e-08
1.79788e-08
1.1666e-06
-1.71493e-08
1.91802e-08
1.1622e-06
-1.53633e-08
1.88779e-08
1.15652e-06
-1.37937e-08
1.75475e-08
1.15044e-06
-1.23485e-08
1.56884e-08
1.14451e-06
-1.1132e-08
1.38914e-08
1.13904e-06
-1.01547e-08
1.22914e-08
1.13414e-06
-9.37259e-09
1.0894e-08
1.12979e-06
-8.78683e-09
9.73683e-09
1.12595e-06
-8.37416e-09
8.78279e-09
1.12255e-06
-8.09868e-09
7.97781e-09
1.11952e-06
-7.93176e-09
7.27118e-09
1.11675e-06
-7.86807e-09
6.60787e-09
1.1141e-06
-7.9406e-09
5.94294e-09
1.1114e-06
-8.19695e-09
5.22335e-09
1.10835e-06
-8.68949e-09
4.41183e-09
1.10442e-06
-9.36874e-09
3.39636e-09
-1.54096e-08
2.66643e-09
8.90374e-07
2.85262e-09
8.82485e-07
1.34087e-08
8.70356e-07
1.78676e-08
8.55105e-07
1.69557e-08
8.39969e-07
1.53409e-08
8.25511e-07
1.4171e-08
8.11728e-07
1.33815e-08
7.98709e-07
1.26781e-08
7.86596e-07
1.18914e-08
7.75387e-07
1.10489e-08
7.64924e-07
1.02442e-08
7.55028e-07
9.49919e-09
7.45527e-07
8.82674e-09
7.36262e-07
8.22311e-09
7.27069e-07
7.66159e-09
7.17691e-07
7.09322e-09
7.07756e-07
6.46559e-09
6.96532e-07
5.72008e-09
6.82504e-07
4.59396e-09
7.31772e-09
1.07432e-06
5.5689e-09
1.06474e-09
1.06824e-06
1.39003e-08
5.58636e-09
1.06138e-06
1.62617e-08
8.46373e-09
1.05339e-06
1.59082e-08
9.03928e-09
1.04511e-06
1.50003e-08
8.61645e-09
1.03723e-06
1.39301e-08
8.11746e-09
1.02986e-06
1.29722e-08
7.78063e-09
1.02288e-06
1.21067e-08
7.54347e-09
1.01608e-06
1.13314e-08
7.34922e-09
1.00938e-06
1.06679e-08
7.051e-09
1.00285e-06
1.01568e-08
6.58956e-09
9.96469e-07
9.76574e-09
6.05691e-09
9.90229e-07
9.45987e-09
5.50491e-09
9.84135e-07
9.21214e-09
4.91661e-09
9.78212e-07
8.97959e-09
4.25269e-09
9.72498e-07
8.70511e-09
3.41581e-09
9.67048e-07
8.30715e-09
2.25938e-09
9.6183e-07
7.70027e-09
5.92992e-10
9.56682e-07
6.88351e-09
-1.69129e-09
5.56238e-09
-4.95777e-09
1.32763e-06
4.9311e-09
2.71823e-09
1.33539e-06
1.3009e-08
7.12091e-09
1.34287e-06
1.72158e-08
9.55355e-09
1.34848e-06
1.8899e-08
1.0578e-08
1.35198e-06
1.95003e-08
1.08747e-08
1.35377e-06
1.91136e-08
1.0579e-08
1.35445e-06
1.8098e-08
9.88875e-09
1.3546e-06
1.68065e-08
9.04033e-09
1.35458e-06
1.54558e-08
8.18315e-09
1.35456e-06
1.42182e-08
7.37274e-09
1.35461e-06
1.32185e-08
6.64091e-09
1.35478e-06
1.24202e-08
5.97789e-09
1.35511e-06
1.17743e-08
5.37266e-09
1.35563e-06
1.12372e-08
4.79142e-09
1.35638e-06
1.07623e-08
4.16716e-09
1.35735e-06
1.0298e-08
3.44911e-09
1.35852e-06
9.78907e-09
2.56657e-09
1.35979e-06
9.18104e-09
1.44658e-09
1.36097e-06
8.44985e-09
1.68856e-11
7.51212e-09
-1.82106e-09
1.53312e-06
3.64929e-09
2.36617e-09
1.54218e-06
9.63387e-09
6.23926e-09
1.55328e-06
1.36918e-08
8.87413e-09
1.56445e-06
1.59366e-08
1.03484e-08
1.57508e-06
1.69116e-08
1.09019e-08
1.58471e-06
1.69449e-08
1.07581e-08
1.59301e-06
1.63756e-08
1.01487e-08
1.60009e-06
1.54439e-08
9.33926e-09
1.60625e-06
1.43407e-08
8.47203e-09
1.61177e-06
1.3244e-08
7.65603e-09
1.61687e-06
1.22467e-08
6.93699e-09
1.62175e-06
1.13746e-08
6.3152e-09
1.6265e-06
1.06234e-08
5.77239e-09
1.63124e-06
9.97565e-09
5.28796e-09
1.63601e-06
9.41039e-09
4.83415e-09
1.64088e-06
8.89964e-09
4.39453e-09
1.64586e-06
8.41537e-09
3.93921e-09
1.651e-06
7.91849e-09
3.44131e-09
1.65624e-06
7.40486e-09
2.85298e-09
6.92018e-09
2.13705e-09
1.68027e-06
1.89113e-09
1.8913e-09
1.68934e-06
5.09955e-09
5.10007e-09
1.7018e-06
7.46459e-09
7.46555e-09
1.71578e-06
8.94659e-09
8.94816e-09
1.73022e-06
9.69372e-09
9.69625e-09
1.74439e-06
9.86181e-09
9.86585e-09
1.75784e-06
9.65341e-09
9.65958e-09
1.77035e-06
9.20065e-09
9.2099e-09
1.78182e-06
8.61552e-09
8.6291e-09
1.79237e-06
7.99128e-09
8.01144e-09
1.80215e-06
7.392e-09
7.42288e-09
1.81131e-06
6.84873e-09
6.89759e-09
1.81999e-06
6.37006e-09
6.44924e-09
1.82832e-06
5.95254e-09
6.08048e-09
1.83641e-06
5.58741e-09
5.78761e-09
1.84437e-06
5.2664e-09
5.56026e-09
1.85232e-06
4.98361e-09
5.39038e-09
1.86036e-06
4.70847e-09
5.26292e-09
1.86861e-06
4.42451e-09
5.1369e-09
4.15904e-09
4.92947e-09
1.7569e-06
2.97261e-14
1.61343e-09
1.76589e-06
2.11712e-14
4.38467e-09
1.77878e-06
5.68048e-15
6.53276e-09
1.79389e-06
-7.45109e-15
7.95264e-09
1.81003e-06
-3.28645e-14
8.75806e-09
1.82639e-06
-8.02546e-14
9.0891e-09
1.84241e-06
-8.91539e-14
9.07689e-09
1.85773e-06
2.10222e-13
8.84267e-09
1.87217e-06
9.68737e-13
8.47185e-09
1.88567e-06
2.26255e-12
8.03108e-09
1.89824e-06
3.99052e-12
7.57254e-09
1.91e-06
5.7947e-12
7.13473e-09
1.92108e-06
6.98049e-12
6.74412e-09
1.93162e-06
7.33481e-12
6.41756e-09
1.94175e-06
8.40685e-12
6.16582e-09
1.95158e-06
1.68828e-11
5.99473e-09
1.96123e-06
3.89241e-11
5.89981e-09
1.97078e-06
8.13858e-11
5.86551e-09
1.98028e-06
1.52243e-10
5.85038e-09
2.51275e-10
5.76053e-09
1.7569e-06
-1.8913e-09
1.6133e-09
1.76589e-06
-5.10007e-09
4.3843e-09
1.77878e-06
-7.46555e-09
6.53205e-09
1.79389e-06
-8.94818e-09
7.95141e-09
1.81003e-06
-9.69628e-09
8.75606e-09
1.8264e-06
-9.86589e-09
9.08602e-09
1.84241e-06
-9.65963e-09
9.07238e-09
1.85774e-06
-9.20996e-09
8.83604e-09
1.87219e-06
-8.62918e-09
8.46192e-09
1.8857e-06
-8.01154e-09
8.01594e-09
1.89829e-06
-7.42299e-09
7.54914e-09
1.91007e-06
-6.8977e-09
7.09831e-09
1.92118e-06
-6.44937e-09
6.68724e-09
1.93175e-06
-6.08067e-09
6.32894e-09
1.94194e-06
-5.78789e-09
6.02908e-09
1.95185e-06
-5.56068e-09
5.79113e-09
1.96162e-06
-5.39102e-09
5.60891e-09
1.97135e-06
-5.26396e-09
5.4646e-09
1.98112e-06
-5.13872e-09
5.32702e-09
-4.93286e-09
5.17728e-09
1.68027e-06
-3.64971e-09
1.89115e-09
1.68934e-06
-9.63506e-09
5.0996e-09
1.7018e-06
-1.3694e-08
7.46466e-09
1.71578e-06
-1.59407e-08
8.94669e-09
1.73022e-06
-1.69183e-08
9.69385e-09
1.74439e-06
-1.69554e-08
9.86198e-09
1.75784e-06
-1.63915e-08
9.65361e-09
1.77035e-06
-1.54694e-08
9.2009e-09
1.78182e-06
-1.43801e-08
8.61581e-09
1.79237e-06
-1.33054e-08
7.99161e-09
1.80215e-06
-1.2345e-08
7.39236e-09
1.81131e-06
-1.15322e-08
6.84911e-09
1.81999e-06
-1.08788e-08
6.37047e-09
1.82832e-06
-1.0386e-08
5.95297e-09
1.83641e-06
-1.00547e-08
5.58777e-09
1.84437e-06
-9.88866e-09
5.26655e-09
1.85231e-06
-9.90427e-09
4.98344e-09
1.86036e-06
-1.00972e-08
4.70793e-09
1.8686e-06
-1.04104e-08
4.42318e-09
-1.06528e-08
4.15677e-09
1.53312e-06
-4.93139e-09
2.36631e-09
1.54218e-06
-1.30099e-08
6.23959e-09
1.55327e-06
-1.72177e-08
8.87474e-09
1.56445e-06
-1.89034e-08
1.03495e-08
1.57506e-06
-1.95081e-08
1.09035e-08
1.58469e-06
-1.91254e-08
1.07605e-08
1.59298e-06
-1.81163e-08
1.01526e-08
1.60004e-06
-1.68355e-08
9.34596e-09
1.60616e-06
-1.55004e-08
8.48327e-09
1.61162e-06
-1.42912e-08
7.67674e-09
1.61664e-06
-1.33441e-08
6.97402e-09
1.62138e-06
-1.26302e-08
6.3765e-09
1.62593e-06
-1.21176e-08
5.86533e-09
1.63036e-06
-1.17953e-08
5.42561e-09
1.63468e-06
-1.16726e-08
5.04634e-09
1.63895e-06
-1.17866e-08
4.72527e-09
1.64319e-06
-1.22017e-08
4.46058e-09
1.64742e-06
-1.29402e-08
4.23275e-09
1.65174e-06
-1.40195e-08
4.01458e-09
-1.53969e-08
3.8327e-09
1.32762e-06
-5.56891e-09
2.71854e-09
1.33539e-06
-1.39004e-08
7.12178e-09
1.34286e-06
-1.62625e-08
9.55513e-09
1.34847e-06
-1.59106e-08
1.05809e-08
1.35196e-06
-1.50048e-08
1.08801e-08
1.35373e-06
-1.39371e-08
1.05883e-08
1.35438e-06
-1.29826e-08
9.90412e-09
1.3545e-06
-1.21236e-08
9.06579e-09
1.35442e-06
-1.13596e-08
8.22594e-09
1.35429e-06
-1.07161e-08
7.45033e-09
1.35415e-06
-1.02397e-08
6.77709e-09
1.354e-06
-9.90913e-09
6.2029e-09
1.35385e-06
-9.70516e-09
5.71812e-09
1.35363e-06
-9.63108e-09
5.32566e-09
1.35324e-06
-9.70411e-09
5.02896e-09
1.35253e-06
-9.97395e-09
4.84277e-09
1.35133e-06
-1.05632e-08
4.79074e-09
1.34949e-06
-1.16392e-08
4.94725e-09
1.34683e-06
-1.33187e-08
5.35274e-09
-1.77129e-08
6.25749e-09
1.07432e-06
1.06506e-09
1.06824e-06
5.58748e-09
1.06138e-06
8.46586e-09
1.05338e-06
9.04289e-09
1.04509e-06
8.62311e-09
1.03719e-06
8.12969e-09
1.02979e-06
7.80238e-09
1.02277e-06
7.58076e-09
1.01588e-06
7.41363e-09
1.00906e-06
7.15811e-09
1.0023e-06
6.76469e-09
9.95546e-07
6.34242e-09
9.88692e-07
5.97504e-09
9.81586e-07
5.69849e-09
9.73996e-07
5.54706e-09
9.65538e-07
5.5775e-09
9.55556e-07
5.88431e-09
9.42955e-07
6.68211e-09
9.25963e-07
8.268e-09
1.32701e-08
1.16914e-06
4.90658e-09
-1.41608e-13
1.16312e-06
1.16086e-08
-6.63478e-13
1.15731e-06
1.42758e-08
-1.5175e-12
1.15202e-06
1.43337e-08
-2.72786e-12
1.14691e-06
1.37298e-08
-4.68338e-12
1.14207e-06
1.29678e-08
-8.14958e-12
1.13777e-06
1.2098e-08
-1.42807e-11
1.13403e-06
1.1303e-08
-2.43118e-11
1.13078e-06
1.06406e-08
-4.112e-11
1.12773e-06
1.0173e-08
-6.87827e-11
1.12456e-06
9.86675e-09
-1.14159e-10
1.12117e-06
9.64223e-09
-1.88559e-10
1.11749e-06
9.4944e-09
-3.11125e-10
1.11349e-06
9.43024e-09
-5.12621e-10
1.10913e-06
9.44689e-09
-8.32507e-10
1.10437e-06
9.52399e-09
-1.34616e-09
1.09914e-06
9.65147e-09
-2.17105e-09
1.09339e-06
9.84104e-09
-3.49057e-09
1.08709e-06
1.00767e-08
-5.47603e-09
1.03553e-08
-9.18065e-09
1.41518e-06
4.19296e-09
-2.61871e-13
1.42279e-06
1.11162e-08
-7.52131e-13
1.43152e-06
1.50991e-08
-1.30939e-12
1.43981e-06
1.663e-08
-2.39833e-12
1.44714e-06
1.7276e-08
-4.41798e-12
1.45318e-06
1.75101e-08
-7.66834e-12
1.45803e-06
1.71527e-08
-1.25687e-11
1.46196e-06
1.64355e-08
-2.04925e-11
1.46527e-06
1.55457e-08
-3.4238e-11
1.46822e-06
1.46584e-08
-5.9069e-11
1.47099e-06
1.3835e-08
-1.00893e-10
1.47366e-06
1.31153e-08
-1.67962e-10
1.47623e-06
1.25718e-08
-2.68649e-10
1.47866e-06
1.22131e-08
-4.23554e-10
1.48095e-06
1.19874e-08
-6.67978e-10
1.48312e-06
1.18503e-08
-1.04345e-09
1.48515e-06
1.17911e-08
-1.60537e-09
1.48705e-06
1.18144e-08
-2.42784e-09
1.48883e-06
1.1895e-08
-3.58139e-09
1.19928e-08
-5.07552e-09
1.61424e-06
3.09289e-09
-1.84007e-13
1.62332e-06
8.2742e-09
-4.5253e-13
1.63534e-06
1.19574e-08
-8.07225e-13
1.6482e-06
1.41148e-08
-1.43312e-12
1.66118e-06