/*--------------------------------*- C++ -*----------------------------------*\
| =========                 |                                                 |
| \\      /  F ield         | OpenFOAM: The Open Source CFD Toolbox           |
|  \\    /   O peration     | Version:  2212                                  |
|   \\  /    A nd           | Website:  www.openfoam.com                      |
|    \\/     M anipulation  |                                                 |
\*---------------------------------------------------------------------------*/
FoamFile
{
    version     2.0;
    format      ascii;
    arch        "LSB;label=32;scalar=64";
    class       volVectorField;
    location    "1.95";
    object      U;
}
// * * * * * * * * * * * * * * * * * * * * * * * * * * * * * * * * * * * * * //

dimensions      [0 1 -1 0 0 0 0];

internalField   nonuniform List<vector> 
6840
(
(0.0956456 -0.00836005 -0.00836005)
(0.0904939 0.00152198 0.00152208)
(0.0790683 0.00242964 0.00242983)
(0.0713011 0.00148755 0.00148793)
(0.0661793 0.000830105 0.000830808)
(0.0623224 0.000563046 0.000564179)
(0.0592205 0.000424963 0.000427394)
(0.0566845 0.000321599 0.000325734)
(0.0545492 0.000249228 0.000255985)
(0.0526966 0.000196344 0.000207439)
(0.0510581 0.000155694 0.000174504)
(0.049596 0.000122537 0.000153764)
(0.0482787 9.15351e-05 0.000141757)
(0.0470794 5.85479e-05 0.000137485)
(0.0459857 1.98992e-05 0.00014143)
(0.045005 -1.17662e-05 0.000158895)
(0.0441656 -9.53839e-05 0.000200546)
(0.0435679 -0.000261912 0.000253811)
(0.0436715 -0.000536912 0.000302291)
(0.0424621 -0.00287901 -0.00130165)
(0.0999088 0.00129699 0.000712568)
(0.0969668 0.00365581 0.0027473)
(0.0935345 0.0026401 0.00211824)
(0.089589 0.00182025 0.00162079)
(0.0858315 0.00152843 0.00139084)
(0.082589 0.00135073 0.00116158)
(0.0798633 0.00117835 0.000897791)
(0.0775637 0.00103887 0.000693238)
(0.0755519 0.000940012 0.000562274)
(0.0737411 0.00086089 0.000482796)
(0.0720839 0.000784975 0.000438416)
(0.0705495 0.000706317 0.00041525)
(0.069116 0.000629093 0.000404504)
(0.0677653 0.000552622 0.000401946)
(0.0664798 0.000465258 0.000408005)
(0.0652516 0.000333057 0.000421878)
(0.0640857 0.000145784 0.000447254)
(0.0629958 -0.000152115 0.000462408)
(0.0621169 -0.000777218 0.000367537)
(0.0607633 -0.00247745 -7.20708e-05)
(0.099413 0.000345221 0.000270235)
(0.0988664 0.002019 0.00187494)
(0.0979213 0.00257308 0.0021891)
(0.0963655 0.00237978 0.00190854)
(0.0946327 0.00211401 0.00162685)
(0.0929711 0.00192663 0.00141881)
(0.0913621 0.00180138 0.00127142)
(0.0898504 0.00170539 0.00116035)
(0.0884485 0.00160483 0.00107034)
(0.087148 0.00149438 0.000998957)
(0.0859399 0.00138373 0.000951161)
(0.0848076 0.00127945 0.000925146)
(0.0837295 0.001181 0.00091656)
(0.0826862 0.00108371 0.000922182)
(0.08166 0.000981426 0.000941534)
(0.0806298 0.00086587 0.000978874)
(0.0795629 0.00072081 0.00104409)
(0.0783845 0.000518097 0.00114633)
(0.0770148 0.0001713 0.00128405)
(0.0755423 0.000152917 0.00265164)
(0.0995405 0.000245042 0.000321901)
(0.0992576 0.00105562 0.00154094)
(0.0988488 0.00150236 0.00211455)
(0.0981245 0.00157948 0.00209177)
(0.0973363 0.00151497 0.00188634)
(0.096584 0.00144674 0.00166616)
(0.0958637 0.00141069 0.00149831)
(0.0951949 0.00137987 0.00137203)
(0.094564 0.00133491 0.00128592)
(0.0939152 0.0012647 0.00123184)
(0.0932803 0.00117613 0.00119727)
(0.0926551 0.00108216 0.001179)
(0.092027 0.00099384 0.00117405)
(0.0913828 0.00091612 0.00118244)
(0.0907053 0.000850077 0.00120662)
(0.0899686 0.000795556 0.00125273)
(0.0891295 0.000753192 0.00133573)
(0.0880941 0.000732066 0.00147955)
(0.0867406 0.000737208 0.00168369)
(0.0853178 0.00112491 0.00224789)
(0.0993802 3.37903e-05 5.90007e-05)
(0.0992677 0.000274462 0.00120007)
(0.0989804 0.000432523 0.00188851)
(0.0984746 0.000483711 0.00200648)
(0.0979955 0.000479248 0.00191468)
(0.0975708 0.000466187 0.00173474)
(0.0971809 0.00045397 0.00154724)
(0.096831 0.000444194 0.00138849)
(0.0965305 0.000439269 0.00127003)
(0.0962754 0.000433493 0.00119961)
(0.0960001 0.000419839 0.00117264)
(0.0957043 0.000401855 0.00117138)
(0.0953853 0.000386867 0.0011822)
(0.0950293 0.00038171 0.00120188)
(0.0946242 0.000394695 0.00123442)
(0.0941591 0.00043705 0.00128586)
(0.093619 0.00052353 0.00136152)
(0.0929821 0.000685024 0.00147081)
(0.0921846 0.000958804 0.00161019)
(0.0914307 0.00161019 0.00180909)
(0.0993801 -3.3752e-05 5.89409e-05)
(0.0992677 -0.000274268 0.00120003)
(0.0989805 -0.000432112 0.00188849)
(0.0984748 -0.000482995 0.00200641)
(0.097996 -0.000478013 0.0019145)
(0.0975719 -0.000464013 0.00173438)
(0.0971828 -0.000450129 0.00154671)
(0.0968342 -0.000437629 0.00138757)
(0.0965361 -0.000428171 0.0012683)
(0.0962847 -0.000414915 0.00119652)
(0.0960157 -0.000389002 0.00116744)
(0.0957306 -0.000351066 0.00116277)
(0.0954297 -0.000303395 0.00116777)
(0.0951042 -0.000244372 0.00117747)
(0.0947484 -0.000171265 0.0011936)
(0.09436 -7.39618e-05 0.0012176)
(0.0939357 6.68412e-05 0.00124874)
(0.0934735 0.000274508 0.00128911)
(0.0929394 0.000569728 0.00134048)
(0.0923641 0.00100347 0.00139734)
(0.0995405 -0.000245026 0.0003219)
(0.0992576 -0.00105554 0.00154094)
(0.0988491 -0.00150221 0.00211443)
(0.0981252 -0.00157922 0.00209157)
(0.0973377 -0.00151438 0.00188602)
(0.0965866 -0.00144557 0.00166568)
(0.0958683 -0.00140861 0.00149773)
(0.0952026 -0.00137642 0.00137104)
(0.0945774 -0.00132885 0.00128379)
(0.093938 -0.00125493 0.00122715)
(0.093319 -0.00116082 0.00118813)
(0.0927203 -0.0010578 0.00116221)
(0.0921361 -0.000953116 0.0011464)
(0.0915643 -0.000846338 0.00113768)
(0.0910061 -0.000731778 0.00112959)
(0.090465 -0.000592221 0.00111539)
(0.0899437 -0.00040274 0.00108536)
(0.0894454 -0.000122802 0.00103264)
(0.0889858 0.000288589 0.000964691)
(0.0884178 0.000909876 0.000833801)
(0.099413 -0.00034524 0.000270227)
(0.0988664 -0.00201909 0.00187486)
(0.0979216 -0.00257327 0.00218887)
(0.0963662 -0.00238011 0.00190814)
(0.0946341 -0.00211452 0.00162629)
(0.0929735 -0.00192747 0.00141802)
(0.0913665 -0.0018026 0.00127011)
(0.0898581 -0.00170734 0.00115813)
(0.0884619 -0.00160807 0.00106677)
(0.0871705 -0.00149974 0.000993088)
(0.085978 -0.00139261 0.000941916)
(0.0848721 -0.0012938 0.000909145)
(0.0838378 -0.00120319 0.000888795)
(0.0828681 -0.00111643 0.000874399)
(0.0819661 -0.00102753 0.000858432)
(0.0811491 -0.000926126 0.000827644)
(0.0804613 -0.000789194 0.000762911)
(0.0799632 -0.000566692 0.000609661)
(0.0797461 -0.000144188 0.000342785)
(0.0789245 0.0010693 -0.00043069)
(0.0999088 -0.00129701 0.000712551)
(0.0969668 -0.00365596 0.0027472)
(0.0935346 -0.00264035 0.00211804)
(0.0895892 -0.00182068 0.00162041)
(0.085832 -0.00152931 0.00139031)
(0.0825899 -0.00135211 0.0011606)
(0.079865 -0.00118088 0.000896145)
(0.0775668 -0.00104322 0.000690602)
(0.0755575 -0.00094746 0.000557894)
(0.0737509 -0.000873683 0.00047542)
(0.0721014 -0.000807007 0.000424184)
(0.0705811 -0.000743039 0.000390568)
(0.0691721 -0.000688405 0.000367372)
(0.0678619 -0.000648574 0.000353041)
(0.0666427 -0.00062555 0.000341043)
(0.0655301 -0.000610546 0.000299049)
(0.0645876 -0.000596593 0.000214842)
(0.0639578 -0.000516348 -1.7584e-05)
(0.0640999 -0.000462617 -0.000319708)
(0.0618537 -8.51876e-05 -0.000998963)
(0.0956456 0.00836005 -0.00836005)
(0.0904939 -0.00152207 0.00152199)
(0.0790683 -0.00242982 0.00242965)
(0.0713011 -0.00148792 0.00148756)
(0.0661793 -0.000830791 0.000830122)
(0.0623224 -0.000564159 0.000563067)
(0.0592205 -0.000427365 0.000424992)
(0.0566845 -0.0003257 0.000321636)
(0.0545492 -0.000255945 0.00024927)
(0.0526966 -0.000207393 0.000196395)
(0.051058 -0.000174449 0.000155756)
(0.049596 -0.000153699 0.000122616)
(0.0482787 -0.000141677 9.16277e-05)
(0.0470794 -0.000137398 5.86778e-05)
(0.0459858 -0.000141318 2.0043e-05)
(0.0450051 -0.0001587 -1.16548e-05)
(0.0441657 -0.000200249 -9.51185e-05)
(0.0435682 -0.000253334 -0.000261533)
(0.043672 -0.000301396 -0.000536164)
(0.0424653 0.00130362 -0.00287875)
(0.0999088 0.000712551 0.00129701)
(0.0969668 0.0027472 0.00365597)
(0.0935346 0.00211804 0.00264036)
(0.0895892 0.00162041 0.0018207)
(0.085832 0.0013903 0.00152933)
(0.0825899 0.00116059 0.00135214)
(0.079865 0.000896133 0.00118092)
(0.0775668 0.000690586 0.00104326)
(0.0755576 0.000557872 0.000947512)
(0.0737509 0.000475392 0.000873745)
(0.0721015 0.000424143 0.000807083)
(0.0705812 0.000390512 0.000743131)
(0.0691722 0.000367303 0.000688521)
(0.067862 0.000352971 0.000648739)
(0.0666426 0.000340924 0.00062578)
(0.0655302 0.000298832 0.000610866)
(0.0645877 0.000214563 0.000597005)
(0.063958 -1.79973e-05 0.000517081)
(0.0641005 -0.000320207 0.000463922)
(0.0618533 -0.000998961 8.71705e-05)
(0.100226 0.000720798 0.000720833)
(0.09996 0.00198269 0.00198284)
(0.0997822 0.00245174 0.0024521)
(0.098788 0.00241943 0.00242006)
(0.0972753 0.0022005 0.00220148)
(0.0957744 0.00181081 0.00181254)
(0.0943921 0.00138124 0.00138406)
(0.0931626 0.0010682 0.00107293)
(0.0920747 0.000850629 0.00085871)
(0.0911111 0.000695788 0.000709746)
(0.0902564 0.000578651 0.000603785)
(0.0894872 0.000486421 0.000528033)
(0.0887841 0.000412913 0.000478121)
(0.0881426 0.000348012 0.000447771)
(0.087565 0.000276884 0.000433981)
(0.0870511 0.000173485 0.000438369)
(0.0865952 1.8263e-05 0.000459283)
(0.0861698 -0.000242848 0.000481404)
(0.0856787 -0.000740593 0.0004008)
(0.0852729 -0.00185298 -0.000155145)
(0.10014 0.000775002 0.000869284)
(0.100454 0.00196237 0.00196371)
(0.100911 0.00242748 0.00233484)
(0.100978 0.00252646 0.00244179)
(0.100693 0.00242601 0.0023375)
(0.100223 0.00219701 0.00211342)
(0.099707 0.00191597 0.0018247)
(0.0991804 0.0016648 0.00157804)
(0.0986833 0.00146104 0.00139409)
(0.0982321 0.00129283 0.00125717)
(0.0978324 0.00115273 0.00115871)
(0.0974794 0.00103416 0.0010922)
(0.0971679 0.000930348 0.00105048)
(0.0968915 0.000831981 0.00102864)
(0.0966432 0.000730236 0.00102713)
(0.096412 0.00061701 0.00105314)
(0.0961837 0.000477117 0.00111309)
(0.095937 0.000292085 0.0012165)
(0.0956382 4.34476e-05 0.00135349)
(0.0956096 -0.000177823 0.00159487)
(0.100093 0.000445934 0.000763219)
(0.100504 0.00119451 0.00174908)
(0.101105 0.00158687 0.00212971)
(0.101634 0.00174057 0.00223512)
(0.101979 0.00178254 0.00228786)
(0.10217 0.00172947 0.00223702)
(0.102251 0.0016089 0.00211752)
(0.102273 0.0014617 0.00196704)
(0.102273 0.00130733 0.00180579)
(0.102263 0.00116061 0.00165848)
(0.10225 0.00103537 0.00155377)
(0.102239 0.000929808 0.00148371)
(0.102228 0.00083725 0.00144057)
(0.102215 0.000755512 0.00142182)
(0.102194 0.000681404 0.00142893)
(0.102156 0.000611132 0.00146812)
(0.102085 0.000542684 0.00155228)
(0.10197 0.000482737 0.00169071)
(0.101805 0.000429039 0.00189551)
(0.101968 0.000429598 0.00216341)
(0.100087 0.000144425 0.000707032)
(0.100477 0.00039061 0.00161783)
(0.101066 0.000541316 0.00203471)
(0.101694 0.00061051 0.00211775)
(0.102269 0.000636658 0.00215045)
(0.102742 0.000627921 0.00218022)
(0.103123 0.000596593 0.00213471)
(0.103427 0.000552211 0.00204523)
(0.103678 0.00050877 0.00193647)
(0.103895 0.000469517 0.00183158)
(0.10409 0.000432112 0.00173493)
(0.104276 0.000398431 0.00165159)
(0.10445 0.000372624 0.00159739)
(0.104607 0.000356791 0.00157574)
(0.104742 0.000352913 0.00157984)
(0.104855 0.000366785 0.0016043)
(0.104943 0.000404924 0.00165528)
(0.105002 0.000476743 0.00174428)
(0.105039 0.000591411 0.00186574)
(0.105303 0.000763048 0.00201344)
(0.100087 -0.000144361 0.000707025)
(0.100477 -0.000390422 0.00161782)
(0.101066 -0.000540989 0.00203471)
(0.101694 -0.000609934 0.00211767)
(0.102269 -0.000635594 0.00215013)
(0.102743 -0.000626053 0.00217963)
(0.103125 -0.000593532 0.00213381)
(0.103429 -0.000547192 0.00204382)
(0.103683 -0.000500268 0.00193435)
(0.103902 -0.000454728 0.00182818)
(0.104101 -0.000406762 0.00172933)
(0.104293 -0.00035637 0.00164181)
(0.10448 -0.000305859 0.00158022)
(0.104657 -0.000252209 0.00154677)
(0.104823 -0.000187926 0.00153316)
(0.104981 -0.000107348 0.00153061)
(0.10513 -3.02503e-06 0.00153822)
(0.105268 0.000133558 0.00155791)
(0.105404 0.000311377 0.00158797)
(0.105654 0.000525152 0.0016228)
(0.100093 -0.000445928 0.000763204)
(0.100504 -0.0011945 0.00174903)
(0.101105 -0.00158683 0.00212955)
(0.101635 -0.00174045 0.00223459)
(0.10198 -0.0017823 0.00228682)
(0.102172 -0.0017291 0.00223553)
(0.102254 -0.00160818 0.00211528)
(0.102279 -0.00146041 0.00196362)
(0.102283 -0.00130528 0.00180066)
(0.102278 -0.00115651 0.00165026)
(0.102276 -0.00102813 0.00153943)
(0.102283 -0.000918218 0.00145936)
(0.102302 -0.000821011 0.00139972)
(0.102334 -0.000730466 0.00135363)
(0.10238 -0.000637281 0.00131504)
(0.102445 -0.000535815 0.001277)
(0.102526 -0.000416226 0.00123118)
(0.10262 -0.000267011 0.0011682)
(0.102727 -7.85657e-05 0.00108489)
(0.10289 0.000169007 0.00095214)
(0.10014 -0.000775039 0.000869237)
(0.100454 -0.00196248 0.00196351)
(0.100911 -0.00242769 0.00233438)
(0.100978 -0.00252689 0.00244102)
(0.100694 -0.00242675 0.00233637)
(0.100225 -0.00219829 0.00211191)
(0.0997095 -0.00191797 0.00182233)
(0.0991848 -0.00166778 0.00157385)
(0.098691 -0.00146612 0.00138693)
(0.0982455 -0.00130172 0.00124523)
(0.0978555 -0.00116727 0.00113868)
(0.0975185 -0.00105841 0.00105898)
(0.0972313 -0.000970299 0.000995391)
(0.0969921 -0.000898055 0.000937962)
(0.0968021 -0.000837277 0.000878298)
(0.0966614 -0.000780005 0.000804412)
(0.0965681 -0.000715778 0.000692465)
(0.096508 -0.000632137 0.000512671)
(0.0964453 -0.000499985 0.000234173)
(0.0964398 -0.000196271 -0.000228519)
(0.100226 -0.000720832 0.000720799)
(0.09996 -0.00198284 0.00198269)
(0.0997822 -0.0024521 0.00245175)
(0.098788 -0.00242005 0.00241944)
(0.0972753 -0.00220147 0.00220052)
(0.0957743 -0.00181253 0.00181083)
(0.0943921 -0.00138404 0.00138127)
(0.0931626 -0.0010729 0.00106823)
(0.0920747 -0.00085868 0.000850668)
(0.0911111 -0.000709707 0.000695837)
(0.0902564 -0.000603731 0.000578712)
(0.0894872 -0.000527955 0.000486486)
(0.0887841 -0.000477995 0.00041296)
(0.0881426 -0.000447684 0.000348145)
(0.087565 -0.000433871 0.0002771)
(0.0870512 -0.000438067 0.000173663)
(0.0865954 -0.000458755 1.84559e-05)
(0.0861703 -0.000480571 -0.000242623)
(0.0856798 -0.000399379 -0.000740542)
(0.085276 0.000158324 -0.00185471)
(0.0999088 -0.000712568 0.00129699)
(0.0969668 -0.00274729 0.00365582)
(0.0935345 -0.00211823 0.00264012)
(0.089589 -0.00162078 0.00182027)
(0.0858315 -0.00139083 0.00152846)
(0.082589 -0.00116158 0.00135076)
(0.0798633 -0.000897781 0.00117839)
(0.0775637 -0.000693226 0.00103891)
(0.0755519 -0.000562261 0.000940067)
(0.0737411 -0.00048278 0.000860958)
(0.0720839 -0.000438394 0.000785057)
(0.0705495 -0.000415221 0.000706414)
(0.0691161 -0.000404469 0.000629199)
(0.0677653 -0.000401894 0.000552741)
(0.06648 -0.000407927 0.000465432)
(0.065252 -0.000421756 0.000333317)
(0.0640864 -0.000447015 0.000146099)
(0.0629971 -0.000462027 -0.000151637)
(0.0621194 -0.000366736 -0.000776736)
(0.0607684 7.40861e-05 -0.00247723)
(0.099413 0.000270227 0.000345242)
(0.0988664 0.00187486 0.0020191)
(0.0979216 0.00218886 0.00257328)
(0.0963662 0.00190814 0.00238012)
(0.0946341 0.00162628 0.00211454)
(0.0929735 0.001418 0.00192749)
(0.0913665 0.00127009 0.00180262)
(0.0898581 0.00115811 0.00170737)
(0.088462 0.00106675 0.00160811)
(0.0871705 0.000993055 0.00149978)
(0.085978 0.000941875 0.00139266)
(0.0848721 0.000909089 0.00129385)
(0.0838379 0.000888713 0.00120324)
(0.0828683 0.0008743 0.00111652)
(0.0819663 0.000858306 0.00102767)
(0.0811495 0.000827432 0.00092629)
(0.080462 0.000762573 0.000789383)
(0.0799645 0.00060907 0.000566882)
(0.0797484 0.000341843 0.000144408)
(0.0789273 -0.000432228 -0.0010689)
(0.10014 0.000869235 0.000775041)
(0.100454 0.00196351 0.00196249)
(0.100911 0.00233437 0.0024277)
(0.100978 0.00244101 0.0025269)
(0.100694 0.00233635 0.00242676)
(0.100225 0.00211189 0.0021983)
(0.0997096 0.00182231 0.00191799)
(0.0991848 0.00157383 0.0016678)
(0.098691 0.0013869 0.00146614)
(0.0982456 0.00124519 0.00130175)
(0.0978556 0.00113863 0.00116731)
(0.0975186 0.00105892 0.00105846)
(0.0972314 0.000995296 0.000970356)
(0.0969922 0.000937837 0.00089813)
(0.0968022 0.000878158 0.000837394)
(0.0966615 0.000804232 0.000780178)
(0.0965682 0.000692232 0.000716054)
(0.096508 0.00051234 0.000632558)
(0.0964454 0.000234021 0.000500851)
(0.0964391 -0.00022513 0.000200225)
(0.10006 0.000641384 0.000641448)
(0.100501 0.00164502 0.00164522)
(0.101149 0.00221237 0.00221276)
(0.101738 0.00243993 0.00244059)
(0.102205 0.00244179 0.00244286)
(0.102501 0.00231321 0.00231486)
(0.102645 0.00209198 0.00209472)
(0.102714 0.00186811 0.00187248)
(0.102739 0.00166947 0.00167661)
(0.102752 0.00150195 0.00151366)
(0.102771 0.00136149 0.00138059)
(0.102804 0.00124301 0.00127395)
(0.102856 0.00114113 0.00119101)
(0.102928 0.00104921 0.0011293)
(0.103022 0.000959793 0.00108733)
(0.103134 0.000864102 0.0010649)
(0.103262 0.000751148 0.00106283)
(0.103396 0.000614274 0.00107842)
(0.103538 0.000446534 0.00109926)
(0.103812 0.000278116 0.00111397)
(0.100046 0.000395725 0.000540295)
(0.10048 0.00104489 0.00138426)
(0.101154 0.00147542 0.00192326)
(0.101913 0.00170537 0.00219307)
(0.102631 0.00178027 0.00229488)
(0.103301 0.0017451 0.00227951)
(0.103893 0.00163459 0.00218751)
(0.104388 0.00149213 0.00205554)
(0.104815 0.00134591 0.00190957)
(0.105191 0.00121121 0.00177277)
(0.10553 0.00109264 0.00165467)
(0.105847 0.000990219 0.00155787)
(0.10615 0.000900455 0.00148388)
(0.106442 0.000819931 0.00143307)
(0.106728 0.000746197 0.00140623)
(0.107008 0.000677505 0.00140592)
(0.107285 0.000610083 0.00143721)
(0.107563 0.000539775 0.0014988)
(0.107851 0.000465947 0.00158533)
(0.108273 0.00040143 0.00167732)
(0.100039 0.000131365 0.0004788)
(0.100448 0.000350582 0.00123487)
(0.101114 0.000505233 0.00174664)
(0.101909 0.000597451 0.00202708)
(0.102728 0.000639023 0.00215252)
(0.103529 0.000638961 0.00218706)
(0.104297 0.000605702 0.00215416)
(0.105007 0.000561153 0.00208065)
(0.105642 0.000513229 0.00198268)
(0.106215 0.000467099 0.00187661)
(0.106736 0.000425874 0.00177455)
(0.107215 0.000390627 0.00168467)
(0.107662 0.000361371 0.00161339)
(0.108086 0.000337966 0.00156423)
(0.108495 0.000320474 0.00153705)
(0.108889 0.000310936 0.00153096)
(0.109265 0.000311537 0.00154715)
(0.109631 0.000320951 0.00158802)
(0.109999 0.000338211 0.00164583)
(0.110485 0.000364421 0.00170661)
(0.100039 -0.000131323 0.000478779)
(0.100448 -0.000350475 0.00123481)
(0.101114 -0.000505044 0.00174652)
(0.101909 -0.000597133 0.00202686)
(0.102729 -0.000638483 0.0021521)
(0.10353 -0.00063808 0.00218638)
(0.104299 -0.000604211 0.00215311)
(0.105009 -0.000558728 0.00207907)
(0.105645 -0.000509205 0.00198024)
(0.106219 -0.000460328 0.0018727)
(0.106743 -0.000414628 0.00176808)
(0.107226 -0.000372541 0.00167383)
(0.107679 -0.000333334 0.00159533)
(0.108111 -0.000295222 0.00153478)
(0.108531 -0.00025506 0.00149043)
(0.108942 -0.000211293 0.00146095)
(0.109344 -0.000160702 0.00144371)
(0.109739 -0.000100209 0.00143784)
(0.110141 -2.69948e-05 0.00143866)
(0.110623 5.37035e-05 0.00144055)
(0.100046 -0.000395744 0.00054024)
(0.10048 -0.00104495 0.00138409)
(0.101154 -0.00147552 0.00192294)
(0.101913 -0.00170551 0.00219248)
(0.102632 -0.00178052 0.00229389)
(0.103302 -0.00174553 0.00227792)
(0.103894 -0.00163532 0.00218503)
(0.104391 -0.00149327 0.00205149)
(0.104819 -0.00134775 0.00190328)
(0.105198 -0.00121383 0.0017629)
(0.105542 -0.00109642 0.0016387)
(0.105866 -0.000996008 0.00153193)
(0.106179 -0.000910289 0.00144129)
(0.106488 -0.000836359 0.00136376)
(0.106798 -0.000771072 0.00129581)
(0.107112 -0.000713255 0.00123212)
(0.107433 -0.000659529 0.00116781)
(0.107763 -0.000606323 0.00109898)
(0.108114 -0.00054594 0.00102427)
(0.10854 -0.000468443 0.000952806)
(0.10006 -0.000641446 0.000641386)
(0.100501 -0.00164522 0.00164503)
(0.101149 -0.00221275 0.00221238)
(0.101738 -0.00244058 0.00243994)
(0.102205 -0.00244285 0.00244181)
(0.102501 -0.00231486 0.00231323)
(0.102645 -0.00209471 0.002092)
(0.102714 -0.00187247 0.00186814)
(0.102739 -0.00167659 0.0016695)
(0.102752 -0.00151364 0.00150198)
(0.102771 -0.00138056 0.00136152)
(0.102804 -0.00127391 0.00124305)
(0.102855 -0.00119095 0.00114116)
(0.102928 -0.00112925 0.00104926)
(0.103022 -0.00108725 0.000959838)
(0.103134 -0.00106474 0.000864088)
(0.103262 -0.00106256 0.000751034)
(0.103396 -0.00107801 0.00061393)
(0.103538 -0.00109858 0.000445688)
(0.103811 -0.00111275 0.000275946)
(0.10014 -0.000869282 0.000775004)
(0.100454 -0.00196371 0.00196238)
(0.100911 -0.00233483 0.00242749)
(0.100978 -0.00244178 0.00252647)
(0.100693 -0.00233749 0.00242602)
(0.100223 -0.00211341 0.00219703)
(0.099707 -0.00182469 0.001916)
(0.0991803 -0.00157803 0.00166483)
(0.0986833 -0.00139407 0.00146107)
(0.0982321 -0.00125714 0.00129287)
(0.0978324 -0.00115867 0.00115278)
(0.0974794 -0.00109215 0.0010342)
(0.0971679 -0.0010504 0.00093037)
(0.0968916 -0.00102856 0.000832032)
(0.0966433 -0.00102703 0.000730295)
(0.0964121 -0.00105289 0.000616991)
(0.096184 -0.00111263 0.000476989)
(0.0959374 -0.00121569 0.000291743)
(0.0956388 -0.00135222 4.26979e-05)
(0.0956103 -0.00159374 -0.000178595)
(0.099413 -0.000270234 0.000345223)
(0.0988664 -0.00187494 0.00201901)
(0.0979213 -0.00218909 0.0025731)
(0.0963655 -0.00190853 0.0023798)
(0.0946327 -0.00162684 0.00211403)
(0.0929711 -0.0014188 0.00192666)
(0.0913621 -0.00127141 0.00180141)
(0.0898504 -0.00116033 0.00170542)
(0.0884485 -0.00107032 0.00160487)
(0.087148 -0.000998934 0.00149443)
(0.08594 -0.000951134 0.00138378)
(0.0848076 -0.000925114 0.00127951)
(0.0837295 -0.000916521 0.00118106)
(0.0826863 -0.000922098 0.00108374)
(0.0816603 -0.000941384 0.000981416)
(0.0806303 -0.000978654 0.000865847)
(0.0795637 -0.00104373 0.000720763)
(0.0783861 -0.00114563 0.000517891)
(0.0770178 -0.00128274 0.000170808)
(0.0755471 -0.00265052 0.000152367)
(0.0995405 0.0003219 0.000245028)
(0.0992576 0.00154094 0.00105555)
(0.0988491 0.00211442 0.00150222)
(0.0981252 0.00209157 0.00157923)
(0.0973377 0.00188602 0.0015144)
(0.0965866 0.00166567 0.00144558)
(0.0958683 0.00149771 0.00140863)
(0.0952027 0.00137102 0.00137645)
(0.0945775 0.00128378 0.00132888)
(0.0939381 0.00122713 0.00125496)
(0.093319 0.0011881 0.00116085)
(0.0927204 0.00116217 0.00105784)
(0.0921362 0.00114634 0.000953166)
(0.0915644 0.00113759 0.000846403)
(0.0910064 0.00112945 0.000731845)
(0.0904655 0.00111516 0.000592255)
(0.0899443 0.00108499 0.000402699)
(0.0894463 0.00103202 0.000122614)
(0.0889873 0.000963724 -0.000289098)
(0.0884195 0.000832307 -0.000911158)
(0.100093 0.000763203 0.00044593)
(0.100504 0.00174903 0.0011945)
(0.101105 0.00212955 0.00158683)
(0.101635 0.00223458 0.00174045)
(0.10198 0.00228681 0.00178231)
(0.102172 0.00223552 0.0017291)
(0.102254 0.00211526 0.00160819)
(0.102279 0.00196359 0.00146042)
(0.102283 0.00180063 0.00130529)
(0.102278 0.00165023 0.00115653)
(0.102276 0.00153939 0.00102815)
(0.102283 0.00145931 0.000918246)
(0.102302 0.00139963 0.00082104)
(0.102334 0.00135353 0.000730517)
(0.102381 0.00131493 0.00063736)
(0.102445 0.00127682 0.0005359)
(0.102526 0.0012309 0.000416329)
(0.10262 0.00116779 0.000267146)
(0.102726 0.00108445 7.88738e-05)
(0.102889 0.0009528 -0.000167585)
(0.100046 0.000540238 0.000395745)
(0.10048 0.00138408 0.00104495)
(0.101154 0.00192293 0.00147553)
(0.101913 0.00219247 0.00170551)
(0.102632 0.00229388 0.00178052)
(0.103302 0.0022779 0.00174554)
(0.103894 0.00218501 0.00163532)
(0.104391 0.00205146 0.00149328)
(0.104819 0.00190325 0.00134775)
(0.105198 0.00176287 0.00121383)
(0.105542 0.00163866 0.00109643)
(0.105866 0.00153189 0.000996025)
(0.106179 0.00144124 0.000910311)
(0.106488 0.0013637 0.000836383)
(0.106798 0.00129576 0.000771106)
(0.107112 0.00123208 0.000713309)
(0.107433 0.00116782 0.000659616)
(0.107763 0.00109911 0.000606468)
(0.108114 0.00102476 0.000546248)
(0.10854 0.000954359 0.00046924)
(0.100036 0.000323142 0.000323186)
(0.100429 0.000868673 0.000868797)
(0.10108 0.00126239 0.00126262)
(0.101891 0.00150435 0.00150474)
(0.102756 0.00162152 0.00162214)
(0.103616 0.00164263 0.00164359)
(0.104446 0.00160446 0.0016059)
(0.105224 0.00152598 0.00152822)
(0.105938 0.00142618 0.00142965)
(0.106593 0.00132084 0.00132626)
(0.107197 0.00122024 0.00122879)
(0.10776 0.00112911 0.00114263)
(0.10829 0.00104858 0.00106993)
(0.108795 0.000977899 0.00101135)
(0.109284 0.000915624 0.000966961)
(0.109761 0.000860254 0.000936463)
(0.110233 0.000810189 0.000919468)
(0.110708 0.000759567 0.000915497)
(0.1112 0.000708282 0.000917232)
(0.111755 0.000662257 0.000907748)
(0.100031 0.000107089 0.00028141)
(0.100395 0.000293078 0.000768714)
(0.101024 0.000434136 0.00113322)
(0.101844 0.00052632 0.00136946)
(0.102751 0.00057649 0.00150184)
(0.103689 0.000591945 0.00155482)
(0.104618 0.00058263 0.00155006)
(0.105516 0.000558169 0.00150948)
(0.106367 0.000524798 0.00144638)
(0.107164 0.000488049 0.00137112)
(0.107906 0.000452163 0.00129252)
(0.108599 0.000419444 0.00121744)
(0.109248 0.000390716 0.00115076)
(0.109862 0.000365877 0.00109558)
(0.11045 0.000344364 0.00105416)
(0.111018 0.000325778 0.00102817)
(0.111571 0.000310336 0.00101716)
(0.112117 0.000297565 0.00101922)
(0.11267 0.000286645 0.0010275)
(0.113281 0.000277799 0.00102434)
(0.100031 -0.000107088 0.00028139)
(0.100395 -0.000293082 0.000768655)
(0.101024 -0.000434148 0.00113311)
(0.101844 -0.000526341 0.00136925)
(0.102751 -0.000576526 0.00150149)
(0.103689 -0.000592012 0.00155428)
(0.104618 -0.000582731 0.00154929)
(0.105516 -0.00055824 0.00150835)
(0.106368 -0.000524749 0.00144466)
(0.107165 -0.000487783 0.00136844)
(0.107908 -0.000451621 0.00128832)
(0.108602 -0.000418673 0.00121084)
(0.109253 -0.000389976 0.00114047)
(0.109869 -0.000365571 0.00107963)
(0.110459 -0.000344648 0.00102961)
(0.111031 -0.00032528 0.000991473)
(0.11159 -0.000306285 0.000964342)
(0.112144 -0.000285891 0.000945555)
(0.112707 -0.000262558 0.00093048)
(0.113316 -0.000234347 0.000913426)
(0.100036 -0.000323184 0.000323144)
(0.100429 -0.000868796 0.000868679)
(0.10108 -0.00126262 0.0012624)
(0.101891 -0.00150474 0.00150436)
(0.102756 -0.00162214 0.00162154)
(0.103616 -0.00164359 0.00164265)
(0.104446 -0.0016059 0.00160448)
(0.105224 -0.00152822 0.001526)
(0.105938 -0.00142966 0.00142621)
(0.106593 -0.00132626 0.00132088)
(0.107197 -0.00122879 0.00122028)
(0.10776 -0.00114263 0.00112916)
(0.10829 -0.00106994 0.00104862)
(0.108795 -0.00101136 0.000977935)
(0.109283 -0.000966993 0.000915637)
(0.10976 -0.000936519 0.000860215)
(0.110233 -0.000919567 0.000810077)
(0.110707 -0.000915663 0.000759356)
(0.1112 -0.000917555 0.000707852)
(0.111754 -0.000908374 0.000661461)
(0.100046 -0.000540294 0.000395727)
(0.10048 -0.00138425 0.0010449)
(0.101154 -0.00192326 0.00147543)
(0.101913 -0.00219306 0.00170538)
(0.102631 -0.00229487 0.00178028)
(0.103301 -0.00227951 0.00174512)
(0.103893 -0.00218751 0.00163461)
(0.104388 -0.00205553 0.00149216)
(0.104815 -0.00190956 0.00134594)
(0.105191 -0.00177276 0.00121124)
(0.10553 -0.00165466 0.00109267)
(0.105847 -0.00155785 0.000990246)
(0.10615 -0.00148385 0.000900475)
(0.106442 -0.00143303 0.000819943)
(0.106728 -0.00140617 0.000746173)
(0.107008 -0.00140582 0.000677401)
(0.107285 -0.00143705 0.000609865)
(0.107562 -0.00149862 0.000539359)
(0.107849 -0.00158519 0.000465275)
(0.10827 -0.00167764 0.000400624)
(0.100093 -0.000763218 0.000445936)
(0.100504 -0.00174908 0.00119452)
(0.101105 -0.00212971 0.00158688)
(0.101634 -0.00223512 0.00174059)
(0.101979 -0.00228785 0.00178256)
(0.10217 -0.00223702 0.00172949)
(0.102251 -0.00211751 0.00160893)
(0.102273 -0.00196702 0.00146173)
(0.102273 -0.00180577 0.00130736)
(0.102263 -0.00165847 0.00116064)
(0.10225 -0.00155375 0.00103541)
(0.102239 -0.00148368 0.000929838)
(0.102228 -0.0014405 0.000837262)
(0.102215 -0.00142171 0.000755507)
(0.102194 -0.00142875 0.000681377)
(0.102156 -0.0014678 0.000611047)
(0.102085 -0.00155174 0.000542464)
(0.10197 -0.00168983 0.000482256)
(0.101805 -0.00189424 0.000428282)
(0.101966 -0.00216176 0.000428623)
(0.0995405 -0.000321901 0.000245043)
(0.0992576 -0.00154094 0.00105562)
(0.0988488 -0.00211454 0.00150237)
(0.0981245 -0.00209177 0.00157949)
(0.0973363 -0.00188633 0.00151499)
(0.096584 -0.00166615 0.00144676)
(0.0958637 -0.0014983 0.00141072)
(0.0951949 -0.00137202 0.00137991)
(0.094564 -0.0012859 0.00133494)
(0.0939152 -0.00123182 0.00126474)
(0.0932804 -0.00119724 0.00117617)
(0.0926552 -0.00117897 0.0010822)
(0.0920271 -0.001174 0.000993866)
(0.0913829 -0.00118234 0.0009161)
(0.0907056 -0.00120644 0.000849996)
(0.089969 -0.00125243 0.000795415)
(0.0891301 -0.00133519 0.000752912)
(0.0880953 -0.00147861 0.000731607)
(0.0867425 -0.00168226 0.000736454)
(0.0853215 -0.00224621 0.00112363)
(0.0993801 5.89409e-05 3.37533e-05)
(0.0992677 0.00120003 0.000274272)
(0.0989805 0.00188848 0.000432119)
(0.0984749 0.0020064 0.000483003)
(0.097996 0.00191449 0.000478022)
(0.0975719 0.00173437 0.000464024)
(0.0971829 0.0015467 0.000450141)
(0.0968343 0.00138756 0.000437643)
(0.0965361 0.00126829 0.000428186)
(0.0962847 0.0011965 0.000414932)
(0.0960158 0.00116742 0.000389021)
(0.0957307 0.00116275 0.000351088)
(0.0954298 0.00116774 0.000303421)
(0.0951044 0.00117742 0.000244393)
(0.0947486 0.00119352 0.000171277)
(0.0943603 0.00121747 7.39527e-05)
(0.0939361 0.00124854 -6.68957e-05)
(0.0934741 0.0012888 -0.00027464)
(0.0929401 0.00134003 -0.000569959)
(0.0923649 0.0013968 -0.00100392)
(0.100087 0.000707024 0.000144362)
(0.100477 0.00161781 0.000390424)
(0.101066 0.00203471 0.000540991)
(0.101694 0.00211766 0.000609936)
(0.102269 0.00215012 0.000635596)
(0.102743 0.00217962 0.000626056)
(0.103125 0.00213379 0.000593535)
(0.103429 0.0020438 0.000547195)
(0.103683 0.00193433 0.000500272)
(0.103902 0.00182815 0.000454731)
(0.104101 0.0017293 0.000406768)
(0.104293 0.00164177 0.000356378)
(0.10448 0.00158016 0.00030587)
(0.104657 0.0015467 0.000252228)
(0.104823 0.00153306 0.000187962)
(0.104981 0.00153047 0.0001074)
(0.10513 0.00153803 3.10588e-06)
(0.105268 0.00155766 -0.000133413)
(0.105404 0.00158769 -0.000311054)
(0.105654 0.00162269 -0.00052443)
(0.100039 0.000478777 0.000131324)
(0.100448 0.0012348 0.000350476)