/*--------------------------------*- C++ -*----------------------------------*\
| =========                 |                                                 |
| \\      /  F ield         | OpenFOAM: The Open Source CFD Toolbox           |
|  \\    /   O peration     | Version:  2212                                  |
|   \\  /    A nd           | Website:  www.openfoam.com                      |
|    \\/     M anipulation  |                                                 |
\*---------------------------------------------------------------------------*/
FoamFile
{
    version     2.0;
    format      ascii;
    arch        "LSB;label=32;scalar=64";
    class       surfaceVectorField;
    location    "1.95";
    object      Uf;
}
// * * * * * * * * * * * * * * * * * * * * * * * * * * * * * * * * * * * * * //

dimensions      [0 1 -1 0 0 0 0];

internalField   nonuniform List<vector> 
19019
(
(0.0993441 -0.00341904 -0.00341899)
(0.0973536 0.00106247 -0.00148427)
(0.0973536 -0.00148428 0.00106248)
(0.0834792 0.00197581 0.00197595)
(0.0930872 0.00326892 0.00253353)
(0.0930872 0.00253344 0.00326906)
(0.0745171 0.0019586 0.00195888)
(0.084864 0.00163571 0.00179246)
(0.0848641 0.00179229 0.00163596)
(0.0685477 0.00115883 0.00115937)
(0.078628 0.00107329 0.00122162)
(0.0786281 0.00122126 0.00107374)
(0.0642359 0.000696576 0.000697493)
(0.0740528 0.00078491 0.000865532)
(0.074053 0.000864942 0.000785776)
(0.0607563 0.000494005 0.000495786)
(0.070442 0.000649845 0.000670011)
(0.0704424 0.000669016 0.000651223)
(0.0579367 0.000373281 0.000376564)
(0.0674909 0.000545352 0.000509964)
(0.0674915 0.000507986 0.000548082)
(0.055613 0.000285414 0.00029086)
(0.0650495 0.000466476 0.000389816)
(0.0650508 0.000386547 0.000471181)
(0.053623 0.000222786 0.000231712)
(0.0629637 0.000411176 0.000311698)
(0.062966 0.00030639 0.000419098)
(0.0518771 0.000176019 0.000190972)
(0.0611279 0.000365827 0.000261291)
(0.0611318 0.000252573 0.000379168)
(0.0503257 0.000139115 0.000164134)
(0.0594818 0.000322853 0.00023066)
(0.0594889 0.000215124 0.000345482)
(0.0489359 0.000107036 0.000147761)
(0.0579908 0.000279889 0.000213863)
(0.0580035 0.000187688 0.000317558)
(0.0476785 7.50415e-05 0.000139621)
(0.0566269 0.000236961 0.000206208)
(0.0566494 0.000165697 0.000298573)
(0.0465324 3.92236e-05 0.000139457)
(0.055367 0.000190242 0.000204775)
(0.0554057 0.000146397 0.00029072)
(0.045495 4.0665e-06 0.000150162)
(0.0541965 0.000131054 0.000208971)
(0.0542617 0.000124863 0.000294952)
(0.0445779 -5.35751e-05 0.00017972)
(0.0531166 5.3063e-05 0.000221468)
(0.0532282 9.56004e-05 0.00031072)
(0.0438236 -0.000178648 0.000227178)
(0.0521464 -6.97066e-05 0.000257985)
(0.0523475 2.63666e-05 0.000355225)
(0.0434479 -0.000399412 0.000278051)
(0.0513515 -0.000293317 0.000293385)
(0.051737 -0.000127884 0.000421501)
(0.0439599 -0.00170796 -0.000499682)
(0.0510615 -0.000789701 0.000237094)
(0.0518562 -0.000345377 0.000546481)
(0.0497943 -0.00328076 -0.00113737)
(0.050231 -0.00194759 -0.000439877)
(0.0984572 0.0024764 0.00172993)
(0.0996871 0.000439214 0.000345489)
(0.100049 0.00105637 0.000750987)
(0.0958348 0.00314796 0.00243277)
(0.0978161 0.00273271 0.00228234)
(0.0982936 0.00280915 0.00216158)
(0.0914498 0.00223018 0.00186951)
(0.0954958 0.00300159 0.00230325)
(0.0963039 0.0024425 0.00199801)
(0.0875948 0.00167434 0.00150581)
(0.0926188 0.00229916 0.00183904)
(0.0936666 0.00198046 0.00172737)
(0.0841468 0.00143958 0.00127621)
(0.0897665 0.00189154 0.00153604)
(0.0909042 0.00171925 0.00149845)
(0.0811864 0.00126454 0.00102969)
(0.0872308 0.00165588 0.00129526)
(0.0884336 0.00145371 0.00121282)
(0.0786988 0.00110861 0.000795514)
(0.0850044 0.00149097 0.00107818)
(0.0863034 0.00118198 0.000910479)
(0.0765523 0.00098944 0.000627756)
(0.0830571 0.00136981 0.000914986)
(0.0844782 0.00098052 0.000693829)
(0.0746435 0.000900451 0.000522535)
(0.081318 0.00127561 0.000804458)
(0.0828759 0.000840934 0.000553918)
(0.0729104 0.000822933 0.000460606)
(0.0797353 0.00118891 0.000731115)
(0.0814407 0.000737106 0.000464458)
(0.071315 0.000745646 0.000426833)
(0.0782789 0.001103 0.000687377)
(0.0801392 0.000649359 0.000407918)
(0.0698323 0.000667705 0.000409877)
(0.0769243 0.00101722 0.000664632)
(0.0789439 0.000569449 0.000372642)
(0.0684415 0.000590858 0.000403225)
(0.0756497 0.000932227 0.000655527)
(0.0778342 0.000497985 0.000354201)
(0.0671241 0.00050894 0.000404976)
(0.0744364 0.000846246 0.000656548)
(0.0767978 0.000431149 0.000349918)
(0.0658633 0.000399158 0.000414942)
(0.0732669 0.00075284 0.000668796)
(0.0758261 0.000356859 0.000360992)
(0.0646621 0.000239421 0.000434566)
(0.0721272 0.00063351 0.000695288)
(0.0749146 0.000246551 0.000392112)
(0.0635322 -3.16551e-06 0.000454831)
(0.0710056 0.000467485 0.000739408)
(0.0740634 8.60336e-05 0.000445006)
(0.0625231 -0.000464667 0.000414973)
(0.0698761 0.00020114 0.000789188)
(0.073268 -0.000180438 0.00049879)
(0.0618697 -0.00162733 0.000147733)
(0.0687778 -0.000319564 0.000790461)
(0.0725611 -0.000746337 0.000416709)
(0.067371 -0.00119792 0.00118624)
(0.0716276 -0.00222923 -0.00017608)
(0.0993753 0.00118211 0.00107259)
(0.099473 0.000349757 0.000307062)
(0.0997475 0.000610967 0.000779894)
(0.0984947 0.00229604 0.00203202)
(0.0990504 0.00157682 0.0017205)
(0.099597 0.00201827 0.00200297)
(0.0971409 0.00247643 0.00204882)
(0.0983576 0.00213115 0.00216899)
(0.0992971 0.00246148 0.00210263)
(0.0954388 0.00224689 0.00176769)
(0.0971929 0.00203588 0.00200261)
(0.0984879 0.00237437 0.00190298)
(0.0937494 0.00202032 0.00152283)
(0.0959044 0.00185587 0.00175463)
(0.0974214 0.00218069 0.00168922)
(0.0921359 0.00186401 0.00134512)
(0.0946704 0.00173322 0.00154299)
(0.0963081 0.00198438 0.00150895)
(0.0905975 0.00175339 0.00121588)
(0.0934795 0.00165366 0.00138688)
(0.0952019 0.00180114 0.0013437)
(0.0891445 0.00165511 0.00111535)
(0.0923642 0.0015783 0.00126623)
(0.0941435 0.00164397 0.00120544)
(0.0877925 0.0015496 0.00103465)
(0.091325 0.00148387 0.0011732)
(0.093158 0.00150356 0.00109847)
(0.0865414 0.00143906 0.000975059)
(0.090331 0.00137494 0.00110573)
(0.0922482 0.00137272 0.00101823)
(0.0853737 0.00133159 0.000938153)
(0.0893925 0.00126587 0.00106202)
(0.0914121 0.00125352 0.00096431)
(0.0842691 0.00123023 0.000920853)
(0.0884987 0.00116084 0.00103829)
(0.0906384 0.00114653 0.000933004)
(0.0832087 0.00113236 0.000919371)
(0.0876323 0.00106278 0.00103035)
(0.089913 0.0010487 0.000919794)
(0.0821745 0.00103257 0.000931858)
(0.0867767 0.000971574 0.00103652)
(0.0892227 0.000953653 0.0009222)
(0.0811483 0.000923648 0.000960204)
(0.0859145 0.000883088 0.00105735)
(0.0885544 0.000854379 0.000941464)
(0.0801013 0.00079334 0.00101148)
(0.0850224 0.000789 0.00109707)
(0.0878918 0.000743165 0.000984843)
(0.0789919 0.000619453 0.00109521)
(0.0840626 0.000678756 0.00116738)
(0.0872108 0.0006052 0.00106388)
(0.0777382 0.000344699 0.00121519)
(0.0829515 0.00053991 0.00128395)
(0.0864611 0.000418294 0.00119306)
(0.0761709 0.000162109 0.00196785)
(0.0815894 0.000333432 0.0014468)
(0.0855842 0.000131047 0.00137995)
(0.0801403 0.00049942 0.0024349)
(0.0847761 4.51746e-05 0.00231836)
(0.0996493 0.00065033 0.000931423)
(0.0994625 0.000129402 0.000192527)
(0.0997993 0.000375134 0.000741362)
(0.0990854 0.00127899 0.00182775)
(0.0992625 0.000636974 0.00137065)
(0.0998409 0.00115042 0.00181423)
(0.098449 0.00154092 0.00210316)
(0.0989128 0.000973601 0.00200363)
(0.0999046 0.00153658 0.00209022)
(0.0977072 0.00154722 0.00198906)
(0.0982948 0.00105035 0.00205073)
(0.099767 0.00163188 0.0020232)
(0.0969385 0.00148085 0.00177625)
(0.097657 0.00100807 0.00189976)
(0.0995089 0.00160999 0.00189598)
(0.0962061 0.00142871 0.00158223)
(0.097064 0.000961134 0.00169851)
(0.0991984 0.00154835 0.00175211)
(0.0955194 0.00139528 0.00143517)
(0.0965044 0.000935122 0.00152092)
(0.0988527 0.00147606 0.00162639)
(0.0948677 0.00135739 0.00132898)
(0.0959907 0.00091997 0.00137948)
(0.0985075 0.00139537 0.00151591)
(0.0942293 0.0012998 0.00125888)
(0.0955205 0.000907806 0.00127918)
(0.0981719 0.00130367 0.00142102)
(0.0935962 0.00122042 0.00121455)
(0.0950632 0.000878471 0.00121826)
(0.0978218 0.00120139 0.00134534)
(0.0929692 0.00112915 0.00118813)
(0.0946032 0.000826 0.00118735)
(0.0974782 0.00109837 0.00129395)
(0.0923428 0.001038 0.00117652)
(0.0941383 0.000767019 0.00117712)
(0.0971405 0.00100088 0.00126269)
(0.0917071 0.00095498 0.00117824)
(0.0936605 0.000714363 0.00117985)
(0.096801 0.000912004 0.00124829)
(0.0910479 0.000883099 0.00119453)
(0.0931565 0.000673363 0.00119389)
(0.0964522 0.00083358 0.00125093)
(0.0903438 0.000822817 0.00122968)
(0.0926115 0.00064853 0.00122246)
(0.0960821 0.000764797 0.00127323)
(0.089559 0.000774374 0.00129423)
(0.0920069 0.000647201 0.00127187)
(0.0956721 0.000704018 0.00132267)
(0.0886327 0.000742629 0.00140764)
(0.0913132 0.000681638 0.00135294)
(0.0951926 0.000651282 0.00141704)
(0.0874633 0.000734637 0.00158162)
(0.0904717 0.000780336 0.00148357)
(0.094588 0.000615503 0.00157909)
(0.0858861 0.000931057 0.00196579)
(0.0893886 0.000985715 0.00166429)
(0.0937908 0.000600141 0.00182505)
(0.0882911 0.0016522 0.00206829)
(0.0931099 0.000835601 0.0024214)
(0.0996725 0.000154126 0.000629537)
(0.0993802 2.05595e-08 5.89708e-05)
(0.0997132 0.00010395 0.000687956)
(0.0991591 0.000353493 0.00154429)
(0.0992677 9.64951e-08 0.00120005)
(0.0998376 0.000341751 0.00162233)
(0.0986636 0.000458117 0.0019475)
(0.0989804 2.19582e-07 0.0018885)
(0.099963 0.000485685 0.00199142)
(0.0982123 0.00048148 0.00196058)
(0.0984747 3.89698e-07 0.00200644)
(0.0999918 0.000539996 0.00199665)
(0.0977763 0.000472717 0.00182471)
(0.0979958 6.65226e-07 0.00191459)
(0.100009 0.000547035 0.00191106)
(0.0973628 0.000460078 0.00164099)
(0.0975713 1.15331e-06 0.00173456)
(0.100008 0.000534582 0.00180427)
(0.0969949 0.000449082 0.00146787)
(0.0971819 2.01592e-06 0.00154697)
(0.0999812 0.000513307 0.00168275)
(0.0966747 0.000441731 0.00132926)
(0.0968326 3.42638e-06 0.00138803)
(0.0999391 0.000488095 0.00157229)
(0.0963946 0.000436381 0.00123482)
(0.0965333 5.78891e-06 0.00126916)
(0.0998988 0.000466268 0.00148081)
(0.0961294 0.000426666 0.00118612)
(0.09628 9.6765e-06 0.00119806)
(0.0998662 0.000446013 0.00141742)
(0.0958513 0.000410847 0.00117201)
(0.0960079 1.60529e-05 0.00117004)
(0.0998126 0.000422297 0.00137791)
(0.0955475 0.000394361 0.00117679)
(0.0957174 2.65077e-05 0.00116707)
(0.0997435 0.000397687 0.00135181)
(0.0952099 0.000384288 0.00119204)
(0.0954075 4.37302e-05 0.00117499)
(0.0996571 0.000378022 0.00133956)
(0.0948295 0.000388203 0.00121815)
(0.0950667 7.20403e-05 0.00118967)
(0.0995428 0.000368052 0.00134367)
(0.0943953 0.000415873 0.00126014)
(0.0946863 0.000116981 0.00121401)
(0.0993922 0.000373268 0.00136599)
(0.0938933 0.00048029 0.00132369)
(0.0942595 0.00018914 0.00125173)
(0.0991995 0.000402421 0.00140869)
(0.0933032 0.000604277 0.00141617)
(0.0937773 0.00030502 0.00130513)
(0.0989556 0.000466416 0.00147801)
(0.0926001 0.000821914 0.0015405)
(0.0932278 0.000490396 0.00137996)
(0.0986464 0.000586071 0.00158527)
(0.0917721 0.0012845 0.00170964)
(0.092562 0.000769351 0.00147534)
(0.0982421 0.000785378 0.00172531)
(0.0918974 0.00128989 0.00160321)
(0.0979678 0.00121187 0.00192129)
(0.0996725 -0.00015401 0.000629485)
(0.0994625 -0.00012936 0.000192496)
(0.0997132 -0.000103902 0.000687952)
(0.0991591 -0.00035319 0.00154426)
(0.0992626 -0.000636819 0.00137062)
(0.0998377 -0.00034156 0.00162231)
(0.0986638 -0.000457553 0.00194745)
(0.098913 -0.000973311 0.00200355)
(0.0999631 -0.000485314 0.00199142)
(0.0982126 -0.000480504 0.00196046)
(0.0982953 -0.00104986 0.0020506)
(0.0999921 -0.000539347 0.0019966)
(0.0977771 -0.000471013 0.00182444)
(0.0976579 -0.00100716 0.00189951)
(0.10001 -0.000545883 0.00191086)
(0.0973643 -0.000457071 0.00164054)
(0.0970658 -0.000959451 0.00169809)
(0.100009 -0.000532555 0.00180386)
(0.0969974 -0.000443879 0.00146714)
(0.0965077 -0.000932099 0.00152035)
(0.099983 -0.000509839 0.00168214)
(0.096679 -0.0004329 0.00132794)
(0.0959963 -0.000914781 0.0013785)
(0.0999421 -0.000482266 0.00157127)
(0.0964019 -0.000421543 0.00123241)
(0.0955301 -0.000898868 0.0012772)
(0.0999039 -0.000456402 0.00147906)
(0.0961416 -0.000401959 0.00118198)
(0.0950795 -0.000863682 0.00121426)
(0.0998743 -0.000429236 0.00141447)
(0.0958719 -0.000370034 0.00116511)
(0.0946307 -0.000801905 0.00117998)
(0.099826 -0.000394079 0.00137313)
(0.0955823 -0.000327231 0.00116527)
(0.0941845 -0.000727845 0.00116409)
(0.0997657 -0.000351074 0.00134378)
(0.0952687 -0.000273883 0.00117262)
(0.0937381 -0.000649853 0.00115828)
(0.0996946 -0.000302521 0.0013256)
(0.0949275 -0.000207819 0.00118553)
(0.0932861 -0.000566002 0.00115848)
(0.0996057 -0.000246292 0.00131968)
(0.0945556 -0.000122614 0.0012056)
(0.0928264 -0.000470984 0.0011621)
(0.0994959 -0.000177572 0.00132589)
(0.0941495 -3.56033e-06 0.00123317)
(0.0923596 -0.000351261 0.0011664)
(0.099365 -8.8397e-05 0.0013418)
(0.0937043 0.000170675 0.00126892)
(0.0918854 -0.000186561 0.00116625)
(0.0992108 3.49416e-05 0.00136677)
(0.0932134 0.000422118 0.00131479)
(0.0914047 5.00057e-05 0.00115976)
(0.0990316 0.000208779 0.00140336)
(0.0926769 0.000786597 0.00136891)
(0.0909089 0.000374576 0.00115338)
(0.0988131 0.000448371 0.00145013)
(0.0903373 0.000835938 0.00112179)
(0.0986268 0.000777827 0.00150785)
(0.0996493 -0.000650285 0.000931419)
(0.099473 -0.000349762 0.000307058)
(0.0997993 -0.000375125 0.000741362)
(0.0990855 -0.00127888 0.00182768)
(0.0990504 -0.00157684 0.00172045)
(0.0998409 -0.00115038 0.00181422)
(0.0984494 -0.00154072 0.002103)
(0.0983578 -0.00213119 0.00216882)
(0.0999049 -0.00153649 0.00209011)
(0.0977081 -0.0015468 0.0019888)
(0.0971935 -0.00203595 0.00200231)
(0.0997676 -0.00163169 0.00202289)
(0.0969404 -0.00147998 0.00177585)
(0.0959057 -0.00185586 0.00175419)
(0.0995101 -0.00160958 0.00189541)
(0.0962096 -0.00142709 0.0015817)
(0.0946729 -0.00173305 0.00154232)
(0.0992007 -0.00154757 0.00175124)
(0.0955254 -0.00139252 0.00143438)
(0.0934839 -0.00165324 0.00138589)
(0.0988568 -0.00147463 0.00162515)
(0.0948781 -0.00135264 0.00132742)
(0.0923719 -0.00157766 0.00126457)
(0.0985144 -0.00139294 0.00151388)
(0.0942472 -0.00129189 0.00125547)
(0.0913384 -0.00148271 0.0011703)
(0.0981835 -0.00129952 0.00141766)
(0.0936265 -0.00120787 0.00120764)
(0.0903537 -0.00137311 0.00110039)
(0.0978412 -0.00119437 0.00133958)
(0.0930202 -0.00110931 0.00117517)
(0.0894309 -0.00126308 0.00105275)
(0.0975108 -0.00108709 0.00128389)
(0.0924284 -0.00100546 0.0011543)
(0.0885635 -0.0011564 0.00102177)
(0.0971957 -0.000982945 0.00124502)
(0.0918496 -0.000899727 0.00114204)
(0.0877409 -0.00105443 0.00100241)
(0.0968938 -0.000883288 0.00121772)
(0.0912842 -0.000789058 0.00113364)
(0.0869584 -0.000954731 0.00098983)
(0.0966044 -0.000785298 0.00119853)
(0.0907347 -0.000661999 0.00112249)
(0.0862181 -0.000850025 0.000976663)
(0.0963292 -0.000681812 0.00118249)
(0.0902046 -0.000497481 0.00110038)
(0.0855309 -0.000722119 0.000951601)
(0.0960717 -0.000561137 0.00116336)
(0.0896988 -0.000262771 0.001059)
(0.0849214 -0.000542948 0.000898944)
(0.0958323 -0.000405453 0.00113237)
(0.0892144 8.28937e-05 0.000998663)
(0.0844232 -0.000266826 0.000786525)
(0.0956109 -0.000187863 0.00108175)
(0.0887364 0.000599233 0.000899246)
(0.0840921 0.0001421 0.000615242)
(0.0954165 0.000117639 0.00101577)
(0.0833897 0.00105997 0.000148149)
(0.0951907 0.000561336 0.000899906)
(0.0993753 -0.00118217 0.00107254)
(0.0996871 -0.00043924 0.000345479)
(0.0997475 -0.000610996 0.000779871)
(0.0984949 -0.00229618 0.00203186)
(0.0978161 -0.00273285 0.00228226)
(0.0995971 -0.00201837 0.00200284)
(0.0971414 -0.00247669 0.0020485)
(0.095496 -0.00300182 0.00230305)
(0.0992973 -0.00246169 0.00210232)
(0.0954397 -0.00224731 0.00176722)
(0.0926192 -0.00229956 0.00183866)
(0.0984884 -0.00237476 0.00190244)
(0.0937513 -0.00202099 0.00152215)
(0.0897674 -0.00189229 0.00153551)
(0.0974225 -0.00218131 0.00168842)
(0.0921392 -0.00186503 0.00134406)
(0.0872324 -0.00165712 0.0012944)
(0.0963101 -0.00198541 0.00150781)
(0.0906035 -0.00175497 0.00121412)
(0.0850073 -0.00149308 0.00107675)
(0.0952055 -0.00180271 0.00134188)
(0.0891548 -0.00165771 0.00111245)
(0.0830622 -0.00137331 0.000912627)
(0.0941497 -0.00164641 0.00120233)
(0.0878101 -0.00155391 0.00102993)
(0.0813271 -0.00128147 0.000800552)
(0.0931687 -0.00150768 0.00109338)
(0.0865712 -0.00144618 0.000967502)
(0.0797508 -0.00119885 0.000724597)
(0.0922666 -0.00137977 0.0010098)
(0.0854239 -0.00134321 0.00092553)
(0.0783056 -0.00112016 0.000675769)
(0.0914433 -0.00126504 0.000950253)
(0.0843537 -0.00124849 0.00089897)
(0.0769706 -0.00104557 0.000644472)
(0.0906912 -0.0011654 0.000908961)
(0.0833506 -0.00115981 0.000881597)
(0.0757291 -0.000976732 0.000623285)
(0.0900007 -0.00107886 0.000878772)
(0.082413 -0.00107198 0.000866416)
(0.0745712 -0.000914593 0.000608405)
(0.0893672 -0.00100123 0.000853013)
(0.0815513 -0.000976827 0.000843038)
(0.0734938 -0.000859899 0.000593765)
(0.0887927 -0.000927366 0.000824135)
(0.0807954 -0.00085766 0.000795277)
(0.0725134 -0.000808225 0.000557548)
(0.088287 -0.000847619 0.000778158)
(0.0802023 -0.000677943 0.000686286)
(0.0716847 -0.000739708 0.000482212)
(0.0878727 -0.000743743 0.000690331)
(0.0798281 -0.00035544 0.000476223)
(0.0711138 -0.000568509 0.000274472)
(0.0875762 -0.000581115 0.000511021)
(0.0797457 0.000462554 -4.39524e-05)
(0.0710953 -0.000222502 -6.17948e-05)
(0.0874301 -0.000283601 0.000209153)
(0.069486 0.000952175 -0.000949043)
(0.086984 0.000529604 -0.000484458)
(0.0984572 -0.00247649 0.00172988)
(0.0973536 -0.00106248 -0.00148428)
(0.100049 -0.00105639 0.000750961)
(0.0958348 -0.00314816 0.00243262)
(0.0930872 -0.00326905 0.00253344)
(0.0982936 -0.00280929 0.00216143)
(0.09145 -0.00223051 0.00186923)
(0.0848641 -0.00163595 0.0017923)
(0.0963039 -0.00244279 0.00199773)
(0.0875952 -0.001675 0.00150536)
(0.0786281 -0.00107372 0.00122127)
(0.0936667 -0.00198097 0.00172686)
(0.0841475 -0.00144071 0.00127545)
(0.074053 -0.000785753 0.000864953)
(0.0909044 -0.00172014 0.00149767)
(0.0811876 -0.0012665 0.00102837)
(0.0704424 -0.000651196 0.00066903)
(0.0884341 -0.00145518 0.0012114)
(0.0787011 -0.00111205 0.000793374)
(0.0674915 -0.000548048 0.000508006)
(0.0863044 -0.00118454 0.00090811)
(0.0765566 -0.00099534 0.000624248)
(0.0650508 -0.000471139 0.000386574)
(0.0844799 -0.000984866 0.000689904)
(0.0746511 -0.000910571 0.000516657)
(0.062966 -0.000419049 0.000306422)
(0.082879 -0.000848377 0.000547272)
(0.0729237 -0.000840345 0.000449802)
(0.0611318 -0.00037911 0.000252612)
(0.0814461 -0.00074991 0.000453038)
(0.0713387 -0.000775023 0.000407376)
(0.0594889 -0.000345414 0.000215176)
(0.0801489 -0.000671887 0.000386871)
(0.0698747 -0.000715722 0.00037897)
(0.0580034 -0.000317478 0.000187755)
(0.0789615 -0.000606789 0.000336922)
(0.0685158 -0.00066849 0.000360206)
(0.0566494 -0.000298474 0.000165777)
(0.0778655 -0.000557059 0.000298073)
(0.0672509 -0.000637062 0.000347042)
(0.0554057 -0.000290599 0.000146501)
(0.0768516 -0.000523459 0.000266094)
(0.0660786 -0.000618048 0.000320046)
(0.0542617 -0.000294789 0.000124995)
(0.0759168 -0.000505756 0.000230831)
(0.065036 -0.000603569 0.000256946)
(0.0532282 -0.000310478 9.5756e-05)
(0.0750697 -0.000500231 0.000163878)
(0.0642062 -0.00055647 9.86291e-05)
(0.0523475 -0.000354864 2.66267e-05)
(0.0743429 -0.000500413 4.53314e-05)
(0.0638675 -0.000489482 -0.000168646)
(0.0517371 -0.000420871 -0.00012752)
(0.0738039 -0.000459458 -0.000213781)
(0.0645914 -0.000273902 -0.000659336)
(0.0518563 -0.000545219 -0.000344847)
(0.0736655 -0.0003191 -0.000777706)
(0.050233 0.000442785 -0.00194798)
(0.072236 0.000610377 -0.00275953)
(0.0993441 0.00341899 -0.00341903)
(0.0973536 0.00148427 0.00106247)
(0.0834792 -0.00197594 0.00197582)
(0.0930872 -0.00253352 0.00326893)
(0.0745171 -0.00195887 0.0019586)
(0.084864 -0.00179246 0.00163573)
(0.0685477 -0.00115936 0.00115884)
(0.078628 -0.00122161 0.00107331)
(0.0642359 -0.000697475 0.000696594)
(0.0740528 -0.000865521 0.000784933)
(0.0607563 -0.000495762 0.000494029)
(0.070442 -0.000669997 0.000649871)
(0.0579367 -0.000376532 0.000373314)
(0.0674909 -0.000509944 0.000545386)
(0.055613 -0.000290822 0.000285453)
(0.0650495 -0.000389791 0.000466516)
(0.053623 -0.000231669 0.000222833)
(0.0629637 -0.000311668 0.000411224)
(0.0518771 -0.000190921 0.000176076)
(0.0611278 -0.000261256 0.000365883)
(0.0503257 -0.000164074 0.000139186)
(0.0594818 -0.000230616 0.00032292)
(0.0489359 -0.000147688 0.000107122)
(0.0579908 -0.000213807 0.000279966)
(0.0476785 -0.000139537 7.51528e-05)
(0.056627 -0.000206138 0.000237046)
(0.0465324 -0.000139358 3.93604e-05)
(0.055367 -0.000204696 0.000190357)
(0.045495 -0.000150009 4.19408e-06)
(0.0541966 -0.000208873 0.00013121)
(0.0445781 -0.000179475 -5.33866e-05)
(0.0531168 -0.000221315 5.32557e-05)
(0.0438238 -0.000226792 -0.000178326)
(0.0521468 -0.000257731 -6.9389e-05)
(0.0434484 -0.000277365 -0.000398848)
(0.0513522 -0.000293007 -0.000292794)
(0.0439612 0.000501111 -0.00170746)
(0.0510628 -0.000236348 -0.000788868)
(0.0497982 0.00113904 -0.00327997)
(0.0984572 0.00172987 0.00247649)
(0.100049 0.00075096 0.0010564)
(0.0996871 0.000345479 0.000439243)
(0.0958348 0.00243262 0.00314817)
(0.0982936 0.00216142 0.00280929)
(0.0978161 0.00228225 0.00273286)
(0.09145 0.00186922 0.00223053)
(0.0963039 0.00199773 0.0024428)
(0.095496 0.00230304 0.00300183)
(0.0875952 0.00150535 0.00167502)
(0.0936667 0.00172685 0.00198098)
(0.0926192 0.00183866 0.00229958)
(0.0841475 0.00127545 0.00144074)
(0.0909045 0.00149766 0.00172016)
(0.0897674 0.0015355 0.00189231)
(0.0811876 0.00102836 0.00126653)
(0.0884341 0.00121138 0.00145521)
(0.0872324 0.00129439 0.00165714)
(0.0787011 0.000793359 0.00111209)
(0.0863044 0.000908093 0.00118457)
(0.0850073 0.00107674 0.00149311)
(0.0765566 0.000624229 0.000995387)
(0.0844799 0.000689883 0.000984902)
(0.0830623 0.000912606 0.00137335)
(0.0746511 0.000516632 0.000910629)
(0.0828791 0.000547247 0.000848421)
(0.0813271 0.000800526 0.00128151)
(0.0729237 0.000449767 0.000840414)
(0.0814461 0.000453008 0.000749965)
(0.0797508 0.000724563 0.00119889)
(0.0713388 0.000407327 0.000775107)
(0.080149 0.000386833 0.000671958)
(0.0783057 0.000675723 0.00112021)
(0.0698748 0.000378908 0.000715826)
(0.0789616 0.000336881 0.000606883)
(0.0769707 0.000644409 0.00104563)
(0.0685158 0.000360137 0.00066863)
(0.0778655 0.000298039 0.00055719)
(0.0757292 0.000623201 0.000976795)
(0.0672509 0.000346948 0.00063726)
(0.0768517 0.000266029 0.000523604)
(0.0745713 0.000608316 0.000914709)
(0.0660787 0.000319878 0.000618323)
(0.0759168 0.000230701 0.000505946)
(0.0734939 0.00059364 0.000860086)
(0.065036 0.000256697 0.000603935)
(0.0750697 0.000163695 0.00050055)
(0.0725136 0.000557332 0.000808472)
(0.0642063 9.82829e-05 0.000557043)
(0.0743429 4.50721e-05 0.000500869)
(0.0716851 0.00048191 0.000740028)
(0.0638677 -0.000169102 0.000490502)
(0.0738037 -0.000214198 0.000460199)
(0.0711145 0.000273992 0.000569032)
(0.064592 -0.000659584 0.000275546)
(0.0736654 -0.000778227 0.000320362)
(0.0710967 -6.24948e-05 0.000223315)
(0.0722345 -0.00275975 -0.000608286)
(0.0694871 -0.00094945 -0.000950188)
(0.10008 0.00135174 0.00135184)
(0.100186 0.000798746 0.000804977)
(0.100186 0.000804937 0.000798787)
(0.100264 0.00221722 0.00221747)
(0.100189 0.00231181 0.0020716)
(0.10019 0.00207143 0.00231197)
(0.0993827 0.00243559 0.00243608)
(0.100306 0.00263363 0.00245336)
(0.100306 0.00245296 0.00263394)
(0.0979837 0.00230997 0.00231077)
(0.0998047 0.00256025 0.00245643)
(0.0998049 0.00245574 0.00256081)
(0.0964944 0.00200566 0.00200701)
(0.0988622 0.0023642 0.00228165)
(0.0988626 0.0022806 0.0023651)
(0.0950718 0.00159603 0.0015983)
(0.0978398 0.00204859 0.0019691)
(0.0978405 0.00196747 0.00205017)
(0.0937739 0.00122472 0.00122849)
(0.0968596 0.00169051 0.00160623)
(0.0968608 0.00160365 0.00169307)
(0.0926153 0.000959415 0.000965818)
(0.0959565 0.00140341 0.00132423)
(0.0959585 0.00131982 0.0014076)
(0.0915899 0.000773209 0.000784228)
(0.0951429 0.00118948 0.00112327)
(0.0951465 0.00111575 0.0011967)
(0.0906815 0.00063722 0.000656766)
(0.0944172 0.00102792 0.000979745)
(0.0944234 0.000966945 0.00104037)
(0.0898698 0.000532536 0.000565909)
(0.0937737 0.000901603 0.00087769)
(0.0937845 0.000855241 0.000922999)
(0.0891343 0.000449667 0.000503077)
(0.0931977 0.000799283 0.000806848)
(0.0932159 0.0007696 0.000834572)
(0.0884627 0.000380462 0.000462946)
(0.0926764 0.000712785 0.000761053)
(0.0927059 0.000701327 0.000769172)
(0.0878527 0.000312448 0.000440876)
(0.0922044 0.00063167 0.000734456)
(0.0922512 0.00064029 0.000720797)
(0.0873066 0.000225184 0.000436175)
(0.0917797 0.000544153 0.000725742)
(0.0918535 0.000574714 0.000686033)
(0.0868211 9.5874e-05 0.000448826)
(0.0913971 0.00043194 0.000738943)
(0.0915129 0.000484896 0.000661464)
(0.0863952 -0.000112292 0.000470344)
(0.0910469 0.000278223 0.000776361)
(0.0912254 0.00034941 0.00064175)
(0.0859686 -0.000491721 0.000441102)
(0.0907044 5.11883e-05 0.000835862)
(0.0909695 0.000125602 0.000613437)
(0.0853004 -0.00129679 0.000122827)
(0.0903026 -0.000294421 0.000866802)
(0.0906774 -0.000263227 0.000533528)
(0.0900719 -0.000803453 0.000735721)
(0.0904571 -0.00103819 0.000214512)
(0.100171 0.00136869 0.0014165)
(0.100118 0.000577413 0.000811325)
(0.100102 0.000699756 0.000700729)
(0.100758 0.00219493 0.00214928)
(0.100478 0.0015829 0.00185885)
(0.100477 0.00182254 0.00186481)
(0.100996 0.00247697 0.00238831)
(0.101004 0.00205886 0.00224272)
(0.101024 0.0023468 0.00238327)
(0.100837 0.00247623 0.00238964)
(0.101292 0.00220365 0.00235246)
(0.101337 0.00250596 0.00254423)
(0.100456 0.00231151 0.00222546)
(0.101308 0.00216761 0.00232263)
(0.101408 0.00245046 0.00247303)
(0.0999655 0.00205649 0.00196906)
(0.101155 0.00201118 0.00217936)
(0.1013 0.0022644 0.00227144)
(0.0994398 0.00179039 0.00170137)
(0.100924 0.00179434 0.00196935)
(0.101096 0.0020087 0.00200025)
(0.0989275 0.00156292 0.00148607)
(0.10066 0.0015846 0.00176721)
(0.100851 0.00176952 0.00176051)
(0.0984544 0.00137694 0.00132563)
(0.100401 0.00139686 0.00159276)
(0.100601 0.0015677 0.00156852)
(0.0980307 0.00122278 0.00120794)
(0.100161 0.00123125 0.00144949)
(0.10037 0.00139948 0.00141754)
(0.097655 0.00109345 0.00112545)
(0.0999462 0.00109126 0.00134677)
(0.100168 0.00125893 0.00130131)
(0.0973229 0.000982255 0.00107134)
(0.0997568 0.000973078 0.00127752)
(0.0999975 0.0011402 0.00121483)
(0.0970292 0.000881165 0.00103956)
(0.0995889 0.000870633 0.0012344)
(0.0998577 0.00103724 0.0011533)
(0.096767 0.000781109 0.00102789)
(0.0994386 0.000777618 0.00121357)
(0.0997464 0.000942006 0.00111303)
(0.0965278 0.000673623 0.00104014)
(0.0992992 0.000686432 0.0012157)
(0.0996598 0.000846299 0.00109342)
(0.0962986 0.000547064 0.00108312)
(0.0991602 0.000589819 0.00124731)
(0.0995912 0.000741643 0.00109792)
(0.096065 0.000384601 0.0011648)
(0.0990072 0.000478792 0.00131789)
(0.0995311 0.000614819 0.0011302)
(0.0958012 0.000167767 0.001285)
(0.0988236 0.000346647 0.00143681)
(0.0994647 0.000452723 0.00119288)
(0.0954616 -6.71876e-05 0.00147418)
(0.0985889 0.000178075 0.00160387)
(0.0993745 0.000241872 0.00127256)
(0.0986517 3.36644e-05 0.00185268)
(0.0994886 4.63052e-05 0.00141031)
(0.100242 0.000820224 0.00125615)
(0.10009 0.000294374 0.000735364)
(0.100071 0.000415696 0.000602804)
(0.100828 0.00139069 0.00193939)
(0.100491 0.0007921 0.00168405)
(0.100492 0.00112449 0.00158707)
(0.101392 0.00166372 0.00218242)
(0.101086 0.00107794 0.00208345)
(0.101128 0.00154098 0.00209426)
(0.101815 0.00176156 0.00226149)
(0.101664 0.00120471 0.00217916)
(0.101767 0.00173299 0.00229451)
(0.102079 0.00175601 0.00226244)
(0.102121 0.00124038 0.0022222)
(0.10229 0.00179034 0.00236769)
(0.102213 0.00166919 0.00217727)
(0.10245 0.00120298 0.00221033)
(0.10271 0.0017445 0.0023225)
(0.102262 0.0015353 0.00204228)
(0.102678 0.00112015 0.00212655)
(0.103035 0.0016272 0.00220289)
(0.102271 0.00138452 0.00188641)
(0.102838 0.00102022 0.00200568)
(0.103283 0.00148104 0.00205076)
(0.102265 0.00123397 0.00173214)
(0.102961 0.000921355 0.00187024)
(0.103487 0.00133001 0.00189203)
(0.102255 0.00109799 0.00160613)
(0.103062 0.000830156 0.00174396)
(0.103661 0.00118891 0.00174877)
(0.102244 0.000982591 0.00151874)
(0.103152 0.000750214 0.00164339)
(0.103816 0.00106689 0.0016379)
(0.102233 0.000883529 0.00146214)
(0.103237 0.000681233 0.00156695)
(0.103962 0.0009629 0.00155573)
(0.102222 0.000796381 0.00143119)
(0.103316 0.000621624 0.00151841)
(0.1041 0.000871769 0.00149866)
(0.102205 0.000718458 0.00142537)
(0.103387 0.000571725 0.0014982)
(0.104233 0.000790719 0.00146553)
(0.102176 0.000646268 0.00144852)
(0.103442 0.000532211 0.00150385)
(0.104359 0.000716965 0.00145795)
(0.102122 0.000576908 0.0015102)
(0.103478 0.000504986 0.00153599)
(0.104472 0.00064778 0.00148115)
(0.102031 0.00051271 0.00162149)
(0.103485 0.000492359 0.00160421)
(0.104568 0.000580272 0.00154394)
(0.101893 0.000455888 0.00179311)
(0.103455 0.000503243 0.00171897)
(0.10464 0.00051578 0.00164914)
(0.101693 0.000429319 0.00202946)
(0.103389 0.000542576 0.00188387)
(0.104692 0.000452667 0.00179916)
(0.103601 0.000643645 0.00209434)
(0.104978 0.000422321 0.0019845)
(0.100243 0.000267518 0.00116243)
(0.100087 3.48564e-08 0.000707028)
(0.100064 0.00013586 0.000537353)
(0.100782 0.000465963 0.00182627)
(0.100477 9.9624e-08 0.00161782)
(0.100463 0.000371036 0.0014242)
(0.101401 0.000575913 0.00207623)
(0.101066 1.71299e-07 0.00203471)
(0.101089 0.000525435 0.00193367)
(0.101987 0.000623584 0.0021341)
(0.101694 3.1221e-07 0.00211771)
(0.101797 0.000606332 0.00212876)
(0.102506 0.00063229 0.00216534)
(0.102269 5.74406e-07 0.00215029)
(0.102489 0.000640079 0.00221128)
(0.102934 0.000612257 0.00215747)
(0.102742 9.96657e-07 0.00217993)
(0.103119 0.000635452 0.00224204)
(0.103276 0.000574402 0.00208997)
(0.103124 1.63327e-06 0.00213426)
(0.103686 0.000603002 0.00219745)
(0.103553 0.00053049 0.00199085)
(0.103428 2.6626e-06 0.00204452)
(0.104184 0.000558208 0.00210695)
(0.103786 0.000489143 0.00188402)
(0.10368 4.4484e-06 0.00193541)
(0.10462 0.000512278 0.00199448)
(0.103991 0.000450815 0.00178325)