/*--------------------------------*- C++ -*----------------------------------*\
| =========                 |                                                 |
| \\      /  F ield         | OpenFOAM: The Open Source CFD Toolbox           |
|  \\    /   O peration     | Version:  2212                                  |
|   \\  /    A nd           | Website:  www.openfoam.com                      |
|    \\/     M anipulation  |                                                 |
\*---------------------------------------------------------------------------*/
FoamFile
{
    version     2.0;
    format      ascii;
    arch        "LSB;label=32;scalar=64";
    class       surfaceScalarField;
    location    "1.95";
    object      phi;
}
// * * * * * * * * * * * * * * * * * * * * * * * * * * * * * * * * * * * * * //

dimensions      [0 3 -1 0 0 0 0];

oriented        oriented;

internalField   nonuniform List<scalar> 
1755
(
5.78714e-08
-3.40864e-08
3.46981e-08
5.72917e-08
-3.4118e-08
3.46976e-08
5.67125e-08
-3.41409e-08
3.47201e-08
5.61251e-08
-3.4159e-08
3.47463e-08
-3.41814e-08
3.47567e-08
1.88063e-07
-6.42358e-08
3.19988e-08
1.86285e-07
-6.43066e-08
3.19664e-08
1.84534e-07
-6.43856e-08
3.19956e-08
1.82795e-07
-6.44668e-08
3.2047e-08
-6.45341e-08
3.20597e-08
3.67571e-07
-8.90239e-08
2.84224e-08
3.64019e-07
-8.91051e-08
2.83509e-08
3.6055e-07
-8.92355e-08
2.83186e-08
3.57157e-07
-8.93515e-08
2.82773e-08
-8.94364e-08
2.8231e-08
5.23204e-07
-1.0713e-07
2.35198e-08
5.18002e-07
-1.07173e-07
2.32702e-08
5.13031e-07
-1.07262e-07
2.29971e-08
5.08222e-07
-1.07339e-07
2.27963e-08
5.03487e-07
-1.07378e-07
2.26768e-08
-1.07406e-07
2.25775e-08
6.28202e-07
-1.17145e-07
1.64422e-08
6.21942e-07
-1.17211e-07
1.62975e-08
6.15808e-07
-1.17282e-07
1.61547e-08
6.0977e-07
-1.17338e-07
1.60357e-08
6.03791e-07
-1.17367e-07
1.59688e-08
-1.17388e-07
1.58178e-08
6.57501e-07
-1.18199e-07
7.14183e-09
6.51517e-07
-1.18241e-07
7.01352e-09
6.45575e-07
-1.18244e-07
6.90354e-09
6.39647e-07
-1.18222e-07
6.81333e-09
6.33743e-07
-1.18201e-07
6.73822e-09
6.27939e-07
-1.18197e-07
6.61291e-09
-1.18217e-07
6.06513e-07
-1.09574e-07
-3.4936e-09
6.01451e-07
-1.09552e-07
-3.62716e-09
5.96419e-07
-1.09495e-07
-3.71642e-09
5.91422e-07
-1.09417e-07
-3.80756e-09
5.8651e-07
-1.09322e-07
-3.96687e-09
5.81729e-07
-1.09212e-07
-4.20521e-09
-1.09175e-07
4.9102e-07
-9.16076e-08
-1.40942e-08
4.87189e-07
-9.15395e-08
-1.41818e-08
4.83372e-07
-9.14804e-08
-1.41976e-08
4.79556e-07
-9.1417e-08
-1.41849e-08
4.75732e-07
-9.13451e-08
-1.41528e-08
4.71885e-07
-9.12865e-08
-1.40786e-08
-9.12375e-08
-1.4095e-08
3.36735e-07
-6.61998e-08
-2.25025e-08
3.33904e-07
-6.61518e-08
-2.25569e-08
3.31099e-07
-6.61361e-08
-2.25391e-08
3.2831e-07
-6.61199e-08
-2.25088e-08
3.25549e-07
-6.60859e-08
-2.24975e-08
3.22792e-07
-6.60476e-08
-2.24821e-08
-2.25781e-08
1.7678e-07
-3.46885e-08
-2.98962e-08
1.75243e-07
-3.46878e-08
-2.99269e-08
1.73706e-07
-3.47122e-08
-2.98869e-08
1.72153e-07
-3.474e-08
-2.98271e-08
1.70617e-07
-3.47547e-08
-2.97957e-08
-3.47605e-08
-2.9779e-08
5.78641e-08
-3.4076e-08
5.7286e-08
-3.41096e-08
5.67085e-08
-3.41348e-08
5.6124e-08
-3.41556e-08
5.55495e-08
-3.41803e-08
-3.42077e-08
1.76833e-07
-2.9908e-08
6.62135e-08
1.75296e-07
-2.99363e-08
6.61702e-08
1.7376e-07
-2.9897e-08
6.61531e-08
1.72204e-07
-2.98308e-08
6.61333e-08
1.70662e-07
-2.98061e-08
6.61051e-08
6.60513e-08
4.81488e-07
-5.54762e-08
6.07704e-08
4.78315e-07
-5.55167e-08
6.07191e-08
4.75153e-07
-5.54804e-08
6.07414e-08
4.71985e-07
-5.54125e-08
6.07962e-08
-5.53772e-08
6.08151e-08
7.9772e-07
-7.73297e-08
5.29139e-08
7.95008e-07
-7.73157e-08
5.28622e-08
7.92185e-07
-7.72374e-08
5.28987e-08
7.89258e-07
-7.71591e-08
5.29507e-08
7.86225e-07
-7.7107e-08
5.29939e-08
-7.71052e-08
5.29629e-08
1.02582e-06
-9.32489e-08
4.13079e-08
1.02384e-06
-9.32552e-08
4.11887e-08
1.02168e-06
-9.32283e-08
4.1147e-08
1.01939e-06
-9.31972e-08
4.1126e-08
1.01701e-06
-9.31665e-08
4.11124e-08
-9.31513e-08
4.10078e-08
1.16021e-06
-1.01905e-07
2.6664e-08
1.1586e-06
-1.01931e-07
2.65738e-08
1.15696e-06
-1.01948e-07
2.65179e-08
1.1553e-06
-1.01963e-07
2.64653e-08
1.15367e-06
-1.01976e-07
2.64088e-08
-1.02002e-07
2.62362e-08
1.19662e-06
-1.03035e-07
9.36094e-09
1.1955e-06
-1.03071e-07
9.2752e-09
1.19437e-06
-1.03137e-07
9.21738e-09
1.19328e-06
-1.03203e-07
9.14712e-09
1.19221e-06
-1.03259e-07
9.09655e-09
-1.03308e-07
8.92451e-09
1.1393e-06
-9.66209e-08
-9.29761e-09
1.13865e-06
-9.6676e-08
-9.37952e-09
1.13797e-06
-9.67867e-08
-9.38034e-09
1.13724e-06
-9.69083e-08
-9.37118e-09
1.13642e-06
-9.70372e-08
-9.36841e-09
-9.7184e-08
-9.47386e-09
9.97533e-07
-8.27281e-08
-2.70156e-08
9.96447e-07
-8.27246e-08
-2.70474e-08
9.9521e-07
-8.27972e-08
-2.69499e-08
9.93816e-07
-8.28797e-08
-2.68202e-08
9.9227e-07
-8.29415e-08
-2.67019e-08
9.90621e-07
-8.30278e-08
-2.65865e-08
-8.29491e-08
7.73619e-07
-6.07491e-08
-4.20406e-08
7.71075e-07
-6.06931e-08
-4.20444e-08
7.68409e-07
-6.07204e-08
-4.19505e-08
7.65635e-07
-6.07702e-08
-4.1844e-08
7.62749e-07
-6.07998e-08
-4.17536e-08
7.59768e-07
-6.08326e-08
-4.16963e-08
-6.07347e-08
4.81433e-07
-3.1989e-08
-5.54396e-08
4.78253e-07
-3.19558e-08
-5.5484e-08
4.75083e-07
-3.19873e-08
-5.54503e-08
4.71918e-07
-3.20356e-08
-5.53962e-08
4.68747e-07
-3.20548e-08
-5.53702e-08
4.65551e-07
-3.20598e-08
-5.53557e-08
-5.54178e-08
1.88064e-07
-6.42187e-08
1.86293e-07
-6.42947e-08
1.8455e-07
-6.43784e-08
1.8282e-07
-6.44617e-08
1.81133e-07
-6.45478e-08
-6.46309e-08
3.36866e-07
-2.25152e-08
9.16097e-08
3.34051e-07
-2.25628e-08
9.1548e-08
3.31263e-07
-2.25465e-08
9.1488e-08
3.28488e-07
-2.2514e-08
9.14224e-08
3.25724e-07
-2.24918e-08
9.13606e-08
3.22988e-07
-2.25263e-08
9.1313e-08
9.12113e-08
7.73776e-07
-4.20649e-08
8.27586e-08
7.71241e-07
-4.20658e-08
8.27574e-08
7.68594e-07
-4.19758e-08
8.28171e-08
7.65854e-07
-4.18669e-08
8.28898e-08
7.63023e-07
-4.17806e-08
8.29347e-08
-4.17945e-08
8.29435e-08
1.13073e-06
-5.99423e-08
7.01489e-08
1.13121e-06
-5.98785e-08
7.01942e-08
1.13152e-06
-5.97182e-08
7.03253e-08
1.1317e-06
-5.95531e-08
7.04601e-08
1.13176e-06
-5.94152e-08
7.05676e-08
-5.93885e-08
7.05721e-08
1.37392e-06
-7.35541e-08
5.27283e-08
1.376e-06
-7.35044e-08
5.27306e-08
1.37804e-06
-7.34107e-08
5.27968e-08
1.38004e-06
-7.32996e-08
5.28776e-08
1.38197e-06
-7.31837e-08
5.29489e-08
-7.31339e-08
5.29034e-08
1.51537e-06
-8.1553e-08
3.16827e-08
1.5183e-06
-8.15365e-08
3.1685e-08
1.52122e-06
-8.15158e-08
3.17027e-08
1.52415e-06
-8.1492e-08
3.17239e-08
1.52711e-06
-8.14745e-08
3.17356e-08
-8.14727e-08
3.16399e-08
1.55702e-06
-8.36556e-08
8.03961e-09
1.56044e-06
-8.36999e-08
8.02565e-09
1.56387e-06
-8.37731e-08
8.0355e-09
1.56734e-06
-8.38654e-08
8.05084e-09
1.57088e-06
-8.3955e-08
8.04438e-09
-8.40029e-08
7.92429e-09
1.50397e-06
-8.00296e-08
-1.64889e-08
1.50749e-06
-8.01125e-08
-1.64921e-08
1.51104e-06
-8.02553e-08
-1.6446e-08
1.51461e-06
-8.04187e-08
-1.63865e-08
1.51822e-06
-8.05744e-08
-1.63565e-08
-8.06674e-08
1.36247e-06
-7.01301e-08
-3.97371e-08
1.36519e-06
-7.01777e-08
-3.97084e-08
1.36788e-06
-7.03188e-08
-3.95727e-08
1.37051e-06
-7.04629e-08
-3.94038e-08
1.37307e-06
-7.05833e-08
-3.92567e-08
-7.06058e-08
-3.92257e-08
1.1307e-06
-5.29078e-08
-5.99051e-08
1.13118e-06
-5.28565e-08
-5.98426e-08
1.13149e-06
-5.28993e-08
-5.9683e-08
1.13165e-06
-5.29525e-08
-5.95162e-08
1.13168e-06
-5.29934e-08
-5.9374e-08
-5.30011e-08
-5.93149e-08
7.97738e-07
-2.84123e-08
-7.72898e-08
7.95014e-07
-2.83392e-08
-7.72778e-08
7.92174e-07
-2.8308e-08
-7.72013e-08
7.89216e-07
-2.82667e-08
-7.71242e-08
7.86141e-07
-2.8201e-08
-7.70872e-08
7.82978e-07
-2.81376e-08
-7.70563e-08
3.67635e-07
-8.90095e-08
3.64096e-07
-8.90949e-08
3.60638e-07
-8.9229e-08
3.57256e-07
-8.93465e-08
3.53957e-07
-8.94496e-08
-8.95341e-08
4.91288e-07
-1.41111e-08
1.09571e-07
4.87485e-07
-1.41941e-08
1.09545e-07
4.83704e-07
-1.42202e-08
1.09489e-07
4.79931e-07
-1.42146e-08
1.0941e-07
4.76145e-07
-1.41724e-08
1.09319e-07
4.72333e-07
-1.41036e-08
1.09229e-07
-1.41565e-08
9.97718e-07
-2.70352e-08
9.66356e-08
9.96644e-07
-2.70551e-08
9.66926e-08
9.95407e-07
-2.69662e-08
9.68001e-08
9.94013e-07
-2.68463e-08
9.69159e-08
9.92487e-07
-2.67338e-08
9.70219e-08
9.90864e-07
-2.66759e-08
9.71393e-08
1.36241e-06
-3.97416e-08
8.00644e-08
1.3651e-06
-3.97048e-08
8.01513e-08
1.36776e-06
-3.95884e-08
8.02841e-08
1.37039e-06
-3.94406e-08
8.04319e-08
1.37295e-06
-3.92999e-08
8.057e-08
-3.93099e-08
1.60882e-06
-5.00922e-08
5.84814e-08
1.61338e-06
-5.00569e-08
5.85277e-08
1.61795e-06
-4.99755e-08
5.86143e-08
1.62252e-06
-4.98609e-08
5.87244e-08
1.62711e-06
-4.97622e-08
5.88178e-08
-4.97759e-08
1.75371e-06
-5.68525e-08
3.3052e-08
1.7591e-06
-5.6833e-08
3.30705e-08
1.76452e-06
-5.68063e-08
3.31147e-08
1.76998e-06
-5.6772e-08
3.31795e-08
1.77547e-06
-5.67419e-08
3.32245e-08
-5.6747e-08
1.79972e-06
-5.96577e-08
5.15041e-09
1.80544e-06
-5.96792e-08
5.14899e-09
1.81121e-06
-5.97187e-08
5.17994e-09
1.81703e-06
-5.97654e-08
5.22913e-09
1.82288e-06
-5.97854e-08
5.23071e-09
1.75009e-06
-5.84569e-08
-2.32483e-08
1.75566e-06
-5.84974e-08
-2.32437e-08
1.76128e-06
-5.85847e-08
-2.31958e-08
1.76695e-06
-5.8694e-08
-2.31294e-08
-5.87634e-08
-2.3121e-08
1.60883e-06
-5.27261e-08
-5.00772e-08
1.61339e-06
-5.27253e-08
-5.00404e-08
1.61796e-06
-5.27884e-08
-4.99462e-08
1.62255e-06
-5.28668e-08
-4.98196e-08
1.62716e-06
-5.2907e-08
-4.97222e-08
-5.28371e-08
1.37391e-06
-4.13047e-08
-7.35186e-08
1.376e-06
-4.11857e-08
-7.34655e-08
1.37804e-06
-4.11457e-08
-7.33666e-08
1.38004e-06
-4.11337e-08
-7.32494e-08
1.38199e-06
-4.10913e-08
-7.31456e-08
-4.0965e-08
1.02589e-06
-2.35081e-08
-9.32122e-08
1.02391e-06
-2.32631e-08
-9.32157e-08
1.02174e-06
-2.29896e-08
-9.31873e-08
1.01942e-06
-2.27913e-08
-9.31501e-08
1.01703e-06
-2.26448e-08
-9.31406e-08
-2.25216e-08
5.23419e-07
-1.07114e-07
5.18216e-07
-1.07155e-07
5.13239e-07
-1.07242e-07
5.0842e-07
-1.07319e-07
5.03693e-07
-1.07367e-07
-1.07375e-07
6.0691e-07
-3.52049e-09
1.18187e-07
6.01894e-07
-3.66171e-09
1.18223e-07
5.96909e-07
-3.75907e-09
1.18233e-07
5.91947e-07
-3.85494e-09
1.18227e-07
5.87071e-07
-4.01221e-09
1.18207e-07
-4.23452e-09
1.18204e-07
1.13945e-06
-9.32224e-09
1.03047e-07
1.13878e-06
-9.39372e-09
1.0309e-07
1.13807e-06
-9.39699e-09
1.03153e-07
1.13731e-06
-9.39449e-09
1.0321e-07
1.13649e-06
-9.44002e-09
1.03276e-07
1.0333e-07
1.50387e-06
-1.64925e-08
8.3703e-08
1.50737e-06
-1.64996e-08
8.37524e-08
1.5109e-06
-1.64597e-08
8.38186e-08
1.51446e-06
-1.64176e-08
8.38912e-08
-1.64669e-08
1.75003e-06
-2.32579e-08
5.97003e-08
1.7556e-06
-2.32569e-08
5.97193e-08
1.76121e-06
-2.32139e-08
5.97582e-08
1.76687e-06
-2.31676e-08
5.98119e-08
-2.31943e-08
1.89619e-06
-2.84858e-08
3.18519e-08
1.90263e-06
-2.84856e-08
3.1857e-08
1.90913e-06
-2.8473e-08
3.18758e-08
1.91569e-06
-2.84593e-08
3.19119e-08
-2.84685e-08
1.94443e-06
-3.18181e-08
1.77534e-09
1.95115e-06
-3.18258e-08
1.77441e-09
1.95791e-06
-3.18441e-08
1.78664e-09
1.96474e-06
-3.18643e-08
1.80645e-09
-3.18609e-08
1.80351e-09
1.89619e-06
-3.30301e-08
-2.84732e-08
1.90264e-06
-3.30453e-08
-2.84725e-08
1.90915e-06
-3.30896e-08
-2.84579e-08
1.91573e-06
-3.31372e-08
-2.84352e-08
-3.31137e-08
-2.84322e-08
1.75363e-06
-3.16672e-08
-5.6836e-08
1.75903e-06
-3.16691e-08
-5.68153e-08
1.76446e-06
-3.16888e-08
-5.67824e-08
1.76994e-06
-3.1696e-08
-5.67432e-08
-3.16084e-08
-5.67222e-08
1.51531e-06
-2.66381e-08
-8.15283e-08
1.51824e-06
-2.6553e-08
-8.15087e-08
1.52117e-06
-2.65103e-08
-8.14808e-08
1.52415e-06
-2.64658e-08
-8.14523e-08
-2.63013e-08
-8.14352e-08
1.16028e-06
-1.64205e-08
-1.01873e-07
1.15869e-06
-1.62838e-08
-1.01893e-07
1.15704e-06
-1.61479e-08
-1.01902e-07
1.15537e-06
-1.60345e-08
-1.0191e-07
-1.59168e-08
-1.01926e-07
6.28516e-07
-1.17104e-07
6.22242e-07
-1.17165e-07
6.1609e-07
-1.17237e-07
6.10024e-07
-1.17288e-07
6.04051e-07
-1.17311e-07
6.58026e-07
7.09438e-09
1.17149e-07
6.52059e-07
6.96064e-09
1.1723e-07
6.46145e-07
6.83392e-09
1.17312e-07
6.4027e-07
6.74021e-09
1.17363e-07
6.34446e-07
6.65496e-09
1.17376e-07
6.55758e-09
1.19671e-06
9.31031e-09
1.01941e-07
1.19556e-06
9.23327e-09
1.01963e-07
1.19439e-06
9.16286e-09
1.0199e-07
1.19323e-06
9.08318e-09
1.02026e-07
1.19211e-06
1.02062e-07
1.55693e-06
7.99979e-09
8.16064e-08
1.56033e-06
7.99553e-09
8.15897e-08
1.56374e-06
8.00123e-09
8.15665e-08
7.93011e-09
8.15471e-08
1.79959e-06
5.11913e-09
5.68887e-08
1.80533e-06
5.11884e-09
5.68575e-08
1.81112e-06
5.14638e-09
5.68213e-08
5.11542e-09
5.67872e-08
1.94435e-06
1.74702e-09
2.85147e-08
1.95108e-06
1.74955e-09
2.84952e-08
1.95787e-06
1.75904e-09
2.84716e-08
1.73978e-09
2.84486e-08
1.9928e-06
-1.75496e-09
-1.7298e-09
1.99981e-06
-1.75141e-09
-1.73542e-09
2.00687e-06
-1.76111e-09
-1.75131e-09
2.01396e-06
-1.77651e-09
-1.76606e-09
-1.76853e-09
-1.74837e-09
1.94441e-06
-5.13291e-09
-3.18026e-08
1.95112e-06
-5.12769e-09
-3.18119e-08
1.95789e-06
-5.15655e-09
-3.1832e-08
1.96472e-06
-5.18318e-09
-3.18531e-08
-5.12959e-09
-3.1846e-08
1.79965e-06
-8.02425e-09
-5.96383e-08
1.80538e-06
-8.00955e-09
-5.96608e-08
1.81116e-06
-8.01946e-09
-5.96994e-08
1.817e-06
-8.02077e-09
-5.97419e-08
-7.91337e-09
-5.97527e-08
1.55698e-06
-9.34403e-09
-8.36327e-08
1.5604e-06
-9.25915e-09
-8.36786e-08
1.56384e-06
-9.19978e-09
-8.37477e-08
1.56736e-06
-9.15576e-09
-8.38287e-08
-8.98744e-09
-8.38818e-08
1.19669e-06
-7.12472e-09
-1.03003e-07
1.19557e-06
-6.99861e-09
-1.03036e-07
1.19445e-06
-6.88806e-09
-1.03095e-07
1.19336e-06
-6.81539e-09
-1.03159e-07
-6.69274e-09
-1.03177e-07
6.57808e-07
-1.18152e-07
6.51828e-07
-1.18184e-07
6.45886e-07
-1.18183e-07
6.3995e-07
-1.18168e-07
-1.18148e-07
6.35166e-07
1.65386e-08
1.07143e-07
6.2876e-07
1.63978e-08
1.07157e-07
6.22507e-07
1.62605e-08
1.07222e-07
6.16383e-07
1.61091e-08
1.07328e-07
6.10346e-07
1.59895e-08
1.0741e-07
1.58864e-08
1.07438e-07
1.16188e-06
2.67046e-08
9.32919e-08
1.16032e-06
2.6609e-08
9.32883e-08
1.15871e-06
2.65482e-08
9.32821e-08
1.15705e-06
2.64856e-08
9.32774e-08
1.15538e-06
2.64237e-08
9.32631e-08
2.62692e-08
9.32896e-08
1.51235e-06
3.16524e-08
7.36603e-08
1.51531e-06
3.16489e-08
7.36139e-08
1.51825e-06
3.1661e-08
7.35378e-08
1.52118e-06
3.16779e-08
7.34413e-08
1.52414e-06
3.16786e-08
7.33301e-08
3.15848e-08
7.32775e-08
1.74819e-06
3.30093e-08
5.01681e-08
1.75357e-06
3.30229e-08
5.01356e-08
1.75897e-06
3.30549e-08
5.00696e-08
1.76439e-06
3.31047e-08
4.99689e-08
1.76986e-06
3.31373e-08
4.98609e-08
3.30896e-08
4.984e-08
1.88966e-06
2.32919e-08
1.89609e-06
3.18166e-08
2.32874e-08
1.90254e-06
3.18453e-08
2.32587e-08
1.90903e-06
3.18749e-08
2.32083e-08
1.91557e-06
3.1892e-08
2.31551e-08
3.18775e-08
2.31798e-08
1.94435e-06
2.84856e-08
-5.10269e-09
1.95107e-06
2.84964e-08
-5.10587e-09
1.95784e-06
2.84918e-08
-5.1348e-09
1.96465e-06
2.84786e-08
-5.16523e-09
2.84872e-08
-5.11323e-09
1.89618e-06
2.3261e-08
-3.30027e-08
1.90262e-06
2.32614e-08
-3.30171e-08
1.90912e-06
2.32211e-08
-3.30629e-08
1.91569e-06
2.31711e-08
-3.31092e-08
2.32018e-08
-3.30757e-08
1.7501e-06
1.64995e-08
-5.84279e-08
1.75567e-06
1.65006e-08
-5.84694e-08
1.7613e-06
1.64564e-08
-5.85578e-08
1.76698e-06
1.64037e-08
-5.86622e-08
1.64693e-08
-5.86766e-08
1.50398e-06
9.3046e-09
-7.99956e-08
1.5075e-06
9.37814e-09
-8.00834e-08
1.51106e-06
9.37578e-09
-8.02244e-08
1.51468e-06
9.34744e-09
-8.03964e-08
9.47995e-09
-8.04821e-08
1.13937e-06
3.50764e-09
-9.6591e-08
1.13872e-06
3.63775e-09
-9.66463e-08
1.13803e-06
3.72502e-09
-9.67524e-08
1.13731e-06
3.78971e-09
-9.68856e-08
3.99913e-09
-9.69461e-08
6.06745e-07
-1.09543e-07
6.01712e-07
-1.09513e-07
5.96703e-07
-1.09449e-07
5.91693e-07
-1.09368e-07
-1.09274e-07
5.28951e-07
2.35985e-08
8.90309e-08
5.23578e-07
2.34827e-08
8.90467e-08
5.18398e-07
2.32573e-08
8.91455e-08
5.13455e-07
2.29789e-08
8.92912e-08
5.08663e-07
2.27925e-08
8.94096e-08
2.2625e-08
8.95078e-08
1.02788e-06
4.13315e-08
7.73923e-08
1.026e-06
4.12522e-08
7.73996e-08
1.024e-06
4.1187e-08
7.73531e-08
1.02182e-06
4.11421e-08
7.72879e-08
1.01952e-06
4.11435e-08
7.72144e-08
4.10205e-08
7.72182e-08
1.37178e-06
5.26691e-08
6.00518e-08
1.37395e-06
5.26785e-08
6.00178e-08
1.37606e-06
5.27273e-08
5.9887e-08
1.3781e-06
5.27965e-08
5.97422e-08
1.38009e-06
5.28822e-08
5.96026e-08
5.28482e-08
5.9545e-08
1.6042e-06
5.83946e-08
3.98168e-08
1.60877e-06
5.84422e-08
3.98035e-08
1.61334e-06
5.85139e-08
3.97169e-08
1.6179e-06
5.86125e-08
3.95911e-08
1.62248e-06
5.8717e-08
3.94475e-08
5.87312e-08
3.94234e-08
1.74445e-06
1.65235e-08
1.74998e-06
5.96623e-08
1.65325e-08
1.75554e-06
5.9704e-08
1.65155e-08
1.76113e-06
5.97532e-08
1.64743e-08
1.76678e-06
5.98029e-08
1.64233e-08
5.98187e-08
1.64839e-08
1.79959e-06
5.68526e-08
-7.96443e-09
1.8053e-06
5.68487e-08
-7.95819e-09
1.81106e-06
5.68295e-08
-7.97361e-09
1.81687e-06
5.68034e-08
-7.97795e-09
5.68025e-08
-7.86935e-09
1.75364e-06
5.00932e-08
-3.16219e-08
1.75903e-06
5.00636e-08
-3.16201e-08
1.76446e-06
4.99783e-08
-3.16389e-08
1.76993e-06
4.98676e-08
-3.16461e-08
4.98454e-08
-3.15517e-08
1.60887e-06
3.97523e-08
-5.26867e-08
1.61343e-06
3.97186e-08
-5.26853e-08
1.61801e-06
3.95877e-08
-5.27469e-08
1.62264e-06
3.94118e-08
-5.28309e-08
3.93902e-08
-5.27874e-08
1.36249e-06
2.70255e-08
-7.00853e-08
1.36522e-06
2.70476e-08
-7.01412e-08
1.36791e-06
2.69512e-08
-7.02765e-08
1.37058e-06
2.67846e-08
-7.0442e-08
2.67943e-08
-7.04682e-08
9.97622e-07
1.41002e-08
-8.27042e-08
9.96542e-07
1.41829e-08
-8.27014e-08
9.95304e-07
1.42002e-08
-8.27637e-08
9.93909e-07
1.41658e-08
-8.28712e-08
1.41884e-08
-8.28593e-08
4.91184e-07
-9.15919e-08
4.87374e-07
-9.15194e-08
4.83578e-07
-9.14537e-08
4.79758e-07
-9.13824e-08
-9.1286e-08
3.71425e-07
2.84676e-08
6.42062e-08
3.67829e-07
2.83834e-08
6.4259e-08
3.64295e-07
2.83518e-08
6.43272e-08
3.60852e-07
2.83166e-08
6.44181e-08
3.57481e-07
2.82717e-08
6.45087e-08
2.81913e-08
6.45986e-08
8.00534e-07
5.29159e-08
5.54782e-08
7.97934e-07
5.2841e-08
5.55421e-08
7.95236e-07
5.28587e-08
5.55442e-08
7.92429e-07
5.28972e-08
5.55138e-08
7.895e-07
5.29545e-08
5.54607e-08
5.29472e-08
5.54668e-08
1.13012e-06
7.00528e-08
4.21506e-08
1.13074e-06
7.00858e-08
4.21605e-08
1.13119e-06
7.02061e-08
4.20824e-08
1.1315e-06
7.03402e-08
4.1994e-08
1.13168e-06
7.04694e-08
4.19056e-08
7.05118e-08
4.18765e-08
1.35961e-06
7.99376e-08
2.70585e-08
1.36238e-06
8.00168e-08
2.7105e-08
1.36511e-06
8.01435e-08
2.70505e-08
1.36778e-06
8.02898e-08
2.69663e-08
1.3704e-06
8.04462e-08
2.68562e-08
8.05403e-08
2.68469e-08
1.50037e-06
9.28005e-09
1.50389e-06
8.36614e-08
9.36083e-09
1.50742e-06
8.37225e-08
9.41327e-09
1.51096e-06
8.38014e-08
9.419e-09
1.51453e-06
8.38901e-08
9.40386e-09
8.39525e-08
9.53873e-09
1.55697e-06
8.15418e-08
-9.25803e-09
1.56038e-06
8.15371e-08
-9.17994e-09
1.56381e-06
8.15297e-08
-9.13919e-09
1.56729e-06
8.15139e-08
-9.08161e-09
8.15107e-08
-8.89767e-09
1.51533e-06
7.35359e-08
-2.65843e-08
1.51825e-06
7.34884e-08
-2.64927e-08
1.52118e-06
7.3402e-08
-2.64433e-08
1.52415e-06
7.32896e-08
-2.63906e-08
7.32401e-08
-2.62147e-08
1.37394e-06
5.99299e-08
-4.12651e-08
1.37602e-06
5.98612e-08
-4.11455e-08
1.37806e-06
5.97082e-08
-4.10928e-08
1.38009e-06
5.95247e-08
-4.10895e-08
5.94789e-08
-4.09588e-08
1.13071e-06
4.20563e-08
-5.28604e-08
1.1312e-06
4.20565e-08
-5.28296e-08
1.13152e-06
4.19679e-08
-5.28545e-08
1.1317e-06
4.18203e-08
-5.29216e-08
4.18152e-08
-5.28927e-08
7.73748e-07
2.25072e-08
-6.0729e-08
7.71219e-07
2.25575e-08
-6.06733e-08
7.68571e-07
2.25454e-08
-6.06939e-08
7.65789e-07
2.2494e-08
-6.0763e-08
2.2539e-08
-6.07318e-08
3.36872e-07
-6.61934e-08
3.34051e-07
-6.61418e-08
3.31263e-07
-6.61203e-08
3.28479e-07
-6.61037e-08
-6.60399e-08
1.9003e-07
3.20072e-08
3.40776e-08
1.88214e-07
3.19678e-08
3.41065e-08
1.86429e-07
3.19811e-08
3.41312e-08
1.84673e-07
3.20176e-08
3.41566e-08
1.82949e-07
3.20512e-08
3.41817e-08
3.20426e-08
3.42146e-08
4.84888e-07
6.07605e-08
2.99076e-08
4.81736e-07
6.07159e-08
2.99455e-08
4.786e-07
6.07331e-08
2.99288e-08
4.75476e-07
6.07662e-08
2.98888e-08
4.72334e-07
6.08038e-08
2.98504e-08
6.07962e-08
2.98549e-08
7.7639e-07
8.26731e-08
2.25098e-08
7.74009e-07
8.2696e-08
2.25611e-08
7.71501e-07
8.27674e-08
2.25563e-08
7.68878e-07
8.28421e-08
2.25407e-08
7.66138e-07
8.29127e-08
8.29311e-08
9.98759e-07
9.65483e-08
1.40373e-08
9.97801e-07
9.66061e-08
1.41528e-08
9.96709e-07
9.67042e-08
1.42055e-08
9.95476e-07
9.6812e-08
1.42293e-08
9.94108e-07
9.692e-08
1.4217e-08
9.69989e-08
1.14007e-06
3.38134e-09
1.13946e-06
1.03021e-07
3.55279e-09
1.13881e-06
1.03069e-07
3.69528e-09
1.13811e-06
1.03136e-07
3.79367e-09
1.13739e-06
1.03203e-07
3.84088e-09
1.03226e-07
1.19679e-06
1.01897e-07
-7.0647e-09
1.19569e-06
1.01921e-07
-6.92679e-09
1.19457e-06
1.01937e-07
-6.82116e-09
1.19346e-06
1.01951e-07
-6.7211e-09
1.01977e-07
-6.60609e-09
1.16039e-06
9.32295e-08
-1.63753e-08
1.15881e-06
9.32314e-08
-1.62291e-08
1.15718e-06
9.32083e-08
-1.6085e-08
1.15553e-06
9.31698e-08
-1.59566e-08
9.31859e-08
-1.58287e-08
1.02596e-06
7.73068e-08
-2.3485e-08
1.024e-06
7.72786e-08
-2.32373e-08
1.02186e-06
7.72135e-08
-2.29555e-08
1.01958e-06
7.71266e-08
-2.27596e-08
7.71232e-08
-2.25699e-08
7.97845e-07
5.5455e-08
-2.83903e-08
7.95138e-07
5.54831e-08
-2.83274e-08
7.92327e-07
5.54557e-08
-2.82857e-08
7.89393e-07
5.53876e-08
-2.82484e-08
5.53912e-08
-2.81508e-08
4.81597e-07
2.99014e-08
-3.19779e-08
4.78434e-07
2.99233e-08
-3.19504e-08
4.75283e-07
2.9888e-08
-3.19759e-08
4.72117e-07
2.98198e-08
-3.20288e-08
2.98212e-08
-3.20179e-08
1.76858e-07
-3.46829e-08
1.75321e-07
-3.46813e-08
1.73791e-07
-3.47023e-08
1.72236e-07
-3.47294e-08
-3.47301e-08
5.8525e-08
3.47043e-08
5.79296e-08
3.47018e-08
5.73417e-08
3.47191e-08
5.67541e-08
3.47441e-08
5.61734e-08
3.47624e-08
3.4766e-08
1.78558e-07
6.6259e-08
1.76989e-07
6.62163e-08
1.75439e-07
6.61977e-08
1.7389e-07
6.61826e-08
1.72351e-07
3.39961e-07
9.16823e-08
3.37123e-07
9.16154e-08
3.34325e-07
9.15524e-08
9.14933e-08
4.95393e-07
1.09566e-07
4.91607e-07
1.09554e-07
4.87853e-07
1.09513e-07
4.84115e-07
1.09461e-07
1.09417e-07
6.12266e-07
6.07216e-07
1.18157e-07
6.02249e-07
1.18175e-07
5.97318e-07
1.18185e-07
1.18186e-07
6.58228e-07
1.17128e-07
6.52302e-07
1.17173e-07
6.4643e-07
1.17236e-07
6.406e-07
1.17296e-07
1.17329e-07
6.28862e-07
1.07128e-07
6.22643e-07
1.07163e-07
6.16552e-07
1.07242e-07
6.10572e-07
1.07319e-07
1.07358e-07
5.23664e-07
8.90028e-08
5.18498e-07
8.90917e-08
5.13565e-07
8.92199e-08
5.08791e-07
8.93327e-08
8.9436e-08
3.67808e-07
6.42142e-08
3.6429e-07
6.4283e-08
3.60856e-07
6.43682e-08
3.57489e-07
6.44509e-08
6.45431e-08
1.88156e-07
3.40733e-08
1.86386e-07
3.41026e-08
1.84651e-07
3.41269e-08
1.82927e-07
3.41462e-08
3.41767e-08
5.78936e-08
5.7315e-08
5.67395e-08
5.61564e-08
)
;

boundaryField
{
    inlet
    {
        type            calculated;
        value           nonuniform List<scalar> 0();
    }
    ami1
    {
        type            cyclicAMI;
        value           nonuniform List<scalar> 0();
    }
    walls
    {
        type            calculated;
        value           nonuniform List<scalar> 
250
(
2.90979e-14
2.43942e-14
1.84387e-14
1.28555e-14
6.40674e-15
1.19166e-21
-6.40674e-15
-1.28555e-14
-1.84387e-14
-2.43942e-14
-2.90979e-14
2.90979e-14
2.43942e-14
1.84387e-14
1.28555e-14
6.40674e-15
1.41577e-21
-6.40674e-15
-1.28555e-14
-1.84387e-14
-2.43942e-14
-2.90979e-14
2.90979e-14
2.43942e-14
1.84387e-14
1.28555e-14
6.40674e-15
1.19217e-21
-6.40674e-15
-1.28555e-14
-1.84387e-14
-2.43942e-14
-2.90979e-14
2.90979e-14
2.43942e-14
1.84387e-14
1.28555e-14
6.40674e-15
1.19217e-21
-6.40674e-15
-1.28555e-14
-1.84387e-14
-2.43942e-14
-2.90979e-14
2.90979e-14
2.43942e-14
1.84387e-14
1.28555e-14
6.40674e-15
1.19217e-21
-6.40674e-15
-1.28555e-14
-1.84387e-14
-2.43942e-14
-2.90979e-14
1.28555e-14
6.40674e-15
1.19217e-21
-6.40674e-15
-1.28555e-14
-1.84387e-14
-2.43942e-14
-2.90979e-14
1.1914e-21
-6.40674e-15
-1.28555e-14
-1.84387e-14
2.90979e-14
2.43942e-14
1.84387e-14
1.28555e-14
6.40674e-15
1.19166e-21
-6.40674e-15
-1.28555e-14
-1.84387e-14
-2.43942e-14
-2.90979e-14
2.90979e-14
2.43942e-14
1.84387e-14
1.28555e-14
6.40674e-15
1.41577e-21
-6.40674e-15
-1.28555e-14
-1.84387e-14
-2.43942e-14
-2.90979e-14
2.90979e-14
2.43942e-14
1.84387e-14
1.28555e-14
6.40674e-15
1.19217e-21
-6.40674e-15
-1.28555e-14
-1.84387e-14
-2.43942e-14
-2.90979e-14
2.90979e-14
2.43942e-14
1.84387e-14
1.28555e-14
6.40674e-15
1.19217e-21
-6.40674e-15
-1.28555e-14
-1.84387e-14
-2.43942e-14
-2.90979e-14
2.90979e-14
2.43942e-14
1.84387e-14
1.28555e-14
6.40674e-15
1.19217e-21
-6.40674e-15
-1.28555e-14
-1.84387e-14
-2.43942e-14
-2.90979e-14
2.90979e-14
2.43942e-14
1.84387e-14
1.28555e-14
6.40674e-15
-2.90979e-14
-2.43942e-14
-1.84387e-14
-1.28555e-14
-6.40674e-15
-2.90979e-14
-2.43942e-14
-1.84387e-14
-1.28555e-14
-6.40674e-15
1.21586e-21
6.40674e-15
1.28555e-14
1.84387e-14
2.43942e-14
2.90979e-14
-2.90979e-14
-2.43942e-14
-1.84387e-14
-1.28555e-14
-6.40674e-15
1.46127e-21
6.40674e-15
1.28555e-14
1.84387e-14
2.43942e-14
2.90979e-14
-2.90979e-14
-2.43942e-14
-1.84387e-14
-1.28555e-14
-6.40674e-15
1.21621e-21
6.40674e-15
1.28555e-14
1.84387e-14
2.43942e-14
2.90979e-14
-2.90979e-14
-2.43942e-14
-1.28555e-14
-6.40674e-15
1.21621e-21
6.40674e-15
1.28555e-14
1.84387e-14
2.43942e-14
2.90979e-14
-2.90979e-14
-2.43942e-14
1.21621e-21
6.40674e-15
1.28555e-14
1.84387e-14
2.43942e-14
2.90979e-14
6.40674e-15
1.28555e-14
1.84387e-14
2.43942e-14
2.90979e-14
-2.90979e-14
-2.43942e-14
-1.84387e-14
-1.28555e-14
-6.40674e-15
1.21586e-21
6.40674e-15
1.28555e-14
1.84387e-14
2.43942e-14
2.90979e-14
-2.90979e-14
-2.43942e-14
-1.84387e-14
-1.28555e-14
-6.40674e-15
1.46127e-21
6.40674e-15
1.28555e-14
1.84387e-14
2.43942e-14
2.90979e-14
-2.90979e-14
-2.43942e-14
-1.84387e-14
-1.28555e-14
-6.40674e-15
1.21621e-21
6.40674e-15
1.28555e-14
1.84387e-14
2.43942e-14
2.90979e-14
-2.90979e-14
-2.43942e-14
-1.84387e-14
-1.28555e-14
-6.40674e-15
1.21621e-21
6.40674e-15
1.28555e-14
1.84387e-14
2.43942e-14
2.90979e-14
-2.90979e-14
-2.43942e-14
-1.84387e-14
-1.28555e-14
-6.40674e-15
1.21621e-21
6.40674e-15
1.28555e-14
1.84387e-14
2.43942e-14
2.90979e-14
-2.43942e-14
-1.84387e-14
-1.28555e-14
-6.40674e-15
1.21621e-21
-1.84387e-14
-1.28555e-14
)
;
    }
    ami2
    {
        type            cyclicAMI;
        value           nonuniform List<scalar> 0();
    }
    outlet
    {
        type            calculated;
        value           nonuniform List<scalar> 0();
    }
    procBoundary5to6
    {
        type            processor;
        value           nonuniform List<scalar> 
177
(
5.55497e-08
-3.47504e-08
1.81088e-07
3.53829e-07
8.95009e-08
-2.81572e-08
4.98814e-07
5.97955e-07
1.17427e-07
6.2234e-07
6.3891e-09
5.77075e-07
-4.38851e-09
4.68043e-07
3.20119e-07
-6.59863e-08
1.69109e-07
2.98539e-08
5.49966e-08
1.69197e-07
-2.98361e-08
-6.59523e-08
4.68801e-07
5.5393e-08
-6.07818e-08
7.83131e-07
1.01463e-06
1.1521e-06
1.1912e-06
1.13556e-06
9.72092e-08
9.88956e-07
-2.66901e-08
7.5678e-07
-4.18048e-08
4.62373e-07
-3.19929e-08
1.79496e-07
3.20383e-07
-2.26535e-08
7.60129e-07
-8.28921e-08
1.13175e-06
1.38382e-06
1.53005e-06
1.57441e-06
1.52183e-06
-1.64239e-08
1.37565e-06
1.1317e-06
5.28743e-08
7.7983e-07
-2.80445e-08
-7.70998e-08
3.50723e-07
4.68507e-07
1.09194e-07
9.89214e-07
-2.68039e-08
9.71887e-08
1.3755e-06
8.06614e-08
1.63167e-06
5.88117e-08
1.78091e-06
3.31704e-08
1.8287e-06
-5.97846e-08
5.143e-09
1.77269e-06
5.87465e-08
1.63175e-06
-4.97257e-08
1.3839e-06
-7.30932e-08
1.01464e-06
-9.31163e-08
4.99013e-07
5.8233e-07
1.13563e-06
-9.56384e-09
1.5181e-06
8.39639e-08
1.77257e-06
5.9846e-08
1.92226e-06
3.19286e-08
1.97156e-06
1.92229e-06
1.77544e-06
1.52713e-06
1.15377e-06
1.57577e-08
5.98235e-07
-1.17317e-07
6.28692e-07
1.17401e-07
8.99464e-09
1.19108e-06
8.84179e-09
1.02072e-07
1.56724e-06
-8.15452e-08
1.81696e-06
-5.67921e-08
1.96471e-06
-1.70704e-09
-2.8462e-08
2.02099e-06
1.97149e-06
1.82281e-06
1.57088e-06
1.19232e-06
6.34094e-07
6.04398e-07
1.15377e-06
1.52709e-06
1.77531e-06
1.92206e-06
1.9714e-06
1.9222e-06
1.77264e-06
1.51827e-06
1.13656e-06
5.86818e-07
5.03967e-07
1.0172e-06
1.382e-06
1.62701e-06
1.77238e-06
1.82265e-06
1.77536e-06
1.6272e-06
1.37316e-06
9.92428e-07
4.75959e-07
3.54199e-07
7.86495e-07
1.13178e-06
1.37295e-06
1.51807e-06
1.57076e-06
1.52708e-06
1.38202e-06
1.13179e-06
7.62938e-07
3.25772e-07
1.8129e-07
4.69192e-07
2.25363e-08
7.63317e-07
2.25633e-08
9.92665e-07
1.42221e-08
1.13667e-06
4.0376e-09
1.19242e-06
1.15394e-06
1.01725e-06
7.86383e-07
4.68973e-07
1.70748e-07
5.5622e-08
6.61512e-08
1.70867e-07
6.61048e-08
3.31555e-07
-9.14382e-08
4.80353e-07
5.9239e-07
-1.18184e-07
6.34849e-07
6.04714e-07
5.04143e-07
3.54231e-07
1.81276e-07
5.5603e-08
)
;
    }
    procBoundary5to7
    {
        type            processor;
        value           nonuniform List<scalar> 
131
(
-5.84831e-08
-1.89913e-07
-3.71206e-07
-5.28618e-07
-6.34629e-07
-6.63589e-07
-6.11645e-07
-4.94892e-07
-3.3964e-07
-1.78395e-07
-5.84766e-08
-1.7844e-07
-4.84691e-07
-8.00359e-07
-1.02769e-06
-1.16177e-06
-1.19771e-06
-1.13991e-06
-9.98504e-07
-7.76059e-07
-4.8465e-07
-1.89911e-07
-3.39747e-07
-7.76215e-07
-1.13008e-06
-1.37173e-06
-1.51239e-06
-1.5536e-06
-1.5004e-06
-1.35965e-06
-1.13006e-06
-8.00383e-07
-3.71256e-07
-4.95138e-07
-9.98671e-07
-1.35962e-06
-1.60422e-06
-1.74832e-06
-1.79403e-06
-1.74453e-06
-1.60422e-06
-1.37172e-06
-1.02776e-06
-5.28823e-07
-6.12005e-07
-1.14006e-06
-1.50034e-06
-1.74449e-06
-1.88976e-06
-1.93773e-06
-1.88976e-06
-1.74823e-06
-1.51233e-06
-1.16183e-06
-6.34947e-07
-6.64082e-07
-1.17107e-07
-1.19782e-06
-1.0191e-07
-1.55352e-06
-8.16134e-08
-1.7939e-06
-5.69125e-08
-1.93764e-06
-2.85234e-08
-1.9858e-06
-1.9377e-06
-1.79396e-06
-1.55355e-06
-1.19778e-06
-6.63885e-07
-6.41741e-07
-1.16343e-06
-1.50935e-06
-1.7428e-06
-1.88321e-06
3.17981e-08
-1.93765e-06
-1.88976e-06
-1.74455e-06
-1.50042e-06
-1.13998e-06
-6.11846e-07
-5.34437e-07
-1.02971e-06
-1.36951e-06
-1.59958e-06
-1.73891e-06
5.96283e-08
-1.79392e-06
-1.74826e-06
-1.60427e-06
-1.35967e-06
-9.98584e-07
-4.95035e-07
-3.75068e-07
-8.03068e-07
-1.12936e-06
-1.35674e-06
-1.4968e-06
8.36179e-08
-1.55356e-06
-1.51236e-06
-1.37175e-06
-1.13006e-06
-7.76174e-07
-3.39763e-07
-1.91908e-07
-4.88071e-07
-7.78662e-07
-9.99613e-07
-1.14062e-06
1.03001e-07
-1.19786e-06
-1.16193e-06
-1.02782e-06
-8.00463e-07