/*--------------------------------*- C++ -*----------------------------------*\
| =========                 |                                                 |
| \\      /  F ield         | OpenFOAM: The Open Source CFD Toolbox           |
|  \\    /   O peration     | Version:  2212                                  |
|   \\  /    A nd           | Website:  www.openfoam.com                      |
|    \\/     M anipulation  |                                                 |
\*---------------------------------------------------------------------------*/
FoamFile
{
    version     2.0;
    format      ascii;
    arch        "LSB;label=32;scalar=64";
    class       surfaceScalarField;
    location    "0.65";
    object      phi;
}
// * * * * * * * * * * * * * * * * * * * * * * * * * * * * * * * * * * * * * //

dimensions      [0 3 -1 0 0 0 0];

oriented        oriented;

internalField   nonuniform List<scalar> 
1795
(
1.86005e-07
3.87961e-09
3.88749e-09
1.79357e-07
3.3168e-09
3.33066e-09
1.73531e-07
2.90103e-09
2.92508e-09
1.68363e-07
2.56433e-09
2.60367e-09
1.63749e-07
2.27473e-09
2.33944e-09
1.59599e-07
2.01823e-09
2.13122e-09
1.76893e-09
1.97968e-09
4.90944e-07
1.07812e-08
6.84863e-09
4.78728e-07
9.91544e-09
5.61731e-09
4.67655e-07
9.18347e-09
4.78997e-09
4.57493e-07
8.52216e-09
4.20493e-09
4.481e-07
7.89991e-09
3.76712e-09
4.39377e-07
7.29417e-09
3.4471e-09
6.67257e-09
3.20983e-09
7.98744e-07
1.2654e-08
1.11314e-08
7.86656e-07
1.18505e-08
1.01529e-08
7.7549e-07
1.09802e-08
9.36915e-09
7.65102e-07
1.01304e-08
8.78055e-09
7.55332e-07
9.3098e-09
8.36e-09
7.4605e-07
8.50985e-09
8.06626e-09
7.69125e-09
7.85903e-09
1.02276e-06
7.5552e-09
1.21285e-08
1.01587e-06
7.37058e-09
1.13658e-08
1.00904e-06
7.08573e-09
1.07251e-08
1.00228e-06
6.64525e-09
1.02505e-08
9.95518e-07
6.14502e-09
9.9227e-09
9.88655e-07
5.6472e-09
9.72504e-09
5.15783e-09
9.66173e-09
1.13391e-06
1.55903e-11
1.13242e-08
1.13058e-06
2.7012e-11
1.0675e-08
1.12739e-06
4.6015e-11
1.0229e-08
1.124e-06
7.76955e-11
9.95589e-09
1.12023e-06
1.3038e-10
9.78882e-09
1.11591e-06
2.18572e-10
9.7467e-09
3.66778e-10
9.8757e-09
1.13395e-06
-7.53218e-09
1.13171e-08
1.13064e-06
-7.32998e-09
1.06626e-08
1.1275e-06
-7.01792e-09
1.02078e-08
1.12419e-06
-6.53403e-09
9.92046e-09
1.12056e-06
-5.96442e-09
9.72853e-09
1.11649e-06
-5.35155e-09
9.64028e-09
9.68389e-09
1.02283e-06
-1.26506e-08
1.21167e-08
1.016e-06
-1.18445e-08
1.13459e-08
1.00926e-06
-1.09704e-08
1.06902e-08
1.00265e-06
-1.01155e-08
1.019e-08
9.96159e-07
-9.28721e-09
9.81643e-09
-8.4743e-09
9.54133e-09
7.98801e-07
-1.07907e-08
1.11202e-08
7.86753e-07
-9.9316e-09
1.01348e-08
7.75655e-07
-9.21135e-09
9.33921e-09
7.6538e-07
-8.57022e-09
8.7301e-09
7.55797e-07
-7.97784e-09
8.2732e-09
-7.416e-09
7.9197e-09
4.90959e-07
-3.88743e-09
6.84008e-09
4.78755e-07
-3.33058e-09
5.60288e-09
4.67703e-07
-2.92499e-09
4.76509e-09
4.5758e-07
-2.60356e-09
4.15667e-09
4.48257e-07
-2.33932e-09
3.68391e-09
-2.1311e-09
3.32689e-09
1.86005e-07
3.87965e-09
1.79357e-07
3.31684e-09
1.73531e-07
2.90108e-09
1.68363e-07
2.56438e-09
1.63749e-07
2.27475e-09
2.01822e-09
4.90959e-07
6.8401e-09
1.07908e-08
4.78755e-07
5.60291e-09
9.93175e-09
4.67703e-07
4.76514e-09
9.21154e-09
4.57579e-07
4.15674e-09
8.57047e-09
4.48257e-07
3.68405e-09
7.97815e-09
4.39644e-07
3.32711e-09
7.41637e-09
3.06774e-09
6.87108e-09
8.54772e-07
1.21742e-08
1.21871e-08
8.45342e-07
1.0314e-08
1.03367e-08
8.37013e-07
8.92223e-09
8.96182e-09
8.29608e-07
7.84942e-09
7.91658e-09
8.22958e-07
6.99555e-09
7.10566e-09
8.16984e-07
6.28739e-09
6.46149e-09
5.63735e-09
5.91018e-09
1.14457e-06
1.38705e-08
1.53396e-08
1.13913e-06
1.22563e-08
1.36459e-08
1.13429e-06
1.08366e-08
1.22941e-08
1.13005e-06
9.6444e-09
1.12277e-08
1.12637e-06
8.63739e-09
1.03964e-08
1.12324e-06
7.74192e-09
9.74484e-09
6.87818e-09
9.21669e-09
1.35452e-06
9.04341e-09
1.68343e-08
1.35445e-06
8.18938e-09
1.54979e-08
1.35434e-06
7.38893e-09
1.42859e-08
1.35423e-06
6.67017e-09
1.33328e-08
1.35415e-06
6.03028e-09
1.261e-08
1.35409e-06
5.44577e-09
1.20842e-08
4.88805e-09
1.17386e-08
1.46187e-06
1.3762e-11
1.64591e-08
1.46513e-06
2.34164e-11
1.5582e-08
1.46799e-06
4.08388e-11
1.47169e-08
1.47062e-06
6.98465e-11
1.39294e-08
1.47304e-06
1.18077e-10
1.3277e-08
1.47519e-06
1.9166e-10
1.28554e-08
3.02742e-10
1.26809e-08
1.46191e-06
-9.02718e-09
1.64492e-08
1.46519e-06
-8.16171e-09
1.55668e-08
1.46809e-06
-7.33881e-09
1.46917e-08
1.47077e-06
-6.58352e-09
1.38865e-08
1.4733e-06
-5.88518e-09
1.32008e-08
1.47564e-06
-5.22472e-09
1.27209e-08
1.24592e-08
1.35459e-06
-1.38722e-08
1.68134e-08
1.35457e-06
-1.22602e-08
1.54657e-08
1.35453e-06
-1.08444e-08
1.42336e-08
1.35455e-06
-9.65821e-09
1.32426e-08
1.35469e-06
-8.66355e-09
1.24583e-08
-7.79636e-09
1.18357e-08
1.14461e-06
-1.21869e-08
1.53205e-08
1.13921e-06
-1.03365e-08
1.36135e-08
1.13442e-06
-8.96157e-09
1.22407e-08
1.13027e-06
-7.91624e-09
1.11396e-08
1.12673e-06
-7.10517e-09
1.0254e-08
-6.46075e-09
9.51702e-09
8.54773e-07
-6.8486e-09
1.21741e-08
8.45342e-07
-5.61727e-09
1.03139e-08
8.37014e-07
-4.78992e-09
8.92215e-09
8.29609e-07
-4.20486e-09
7.84929e-09
8.2296e-07
-3.76698e-09
6.9953e-09
-3.44685e-09
6.28694e-09
4.90944e-07
1.07812e-08
4.78728e-07
9.91543e-09
4.67656e-07
9.18344e-09
4.57493e-07
8.52211e-09
4.48101e-07
7.89981e-09
7.29401e-09
7.98801e-07
1.11202e-08
1.26508e-08
7.86753e-07
1.01348e-08
1.18448e-08
7.75655e-07
9.33924e-09
1.09708e-08
7.65379e-07
8.73015e-09
1.0116e-08
7.55796e-07
8.27328e-09
9.28785e-09
7.46817e-07
7.91982e-09
8.47514e-09
7.61964e-09
7.63578e-09
1.14461e-06
1.53206e-08
1.38724e-08
1.13921e-06
1.36135e-08
1.22605e-08
1.13442e-06
1.22407e-08
1.08449e-08
1.13027e-06
1.11397e-08
9.65878e-09
1.12673e-06
1.02542e-08
8.66436e-09
1.1238e-06
9.51744e-09
7.79747e-09
8.85835e-09
6.98459e-09
1.41156e-06
1.50243e-08
1.5038e-08
1.41186e-06
1.3468e-08
1.34904e-08
1.41213e-06
1.21104e-08
1.21464e-08
1.41257e-06
1.0938e-08
1.09961e-08
1.41327e-06
9.92722e-09
1.00203e-08
1.41431e-06
9.03654e-09
9.18661e-09
8.21315e-09
8.45263e-09
1.60007e-06
9.32834e-09
1.54594e-08
1.60622e-06
8.45524e-09
1.43638e-08
1.6117e-06
7.63202e-09
1.32791e-08
1.61677e-06
6.90259e-09
1.23037e-08
1.62157e-06
6.26529e-09
1.14672e-08
1.62622e-06
5.69503e-09
1.07761e-08
5.1615e-09
1.02271e-08
1.69653e-06
7.42952e-12
1.49688e-08
1.70626e-06
1.23493e-11
1.42998e-08
1.71505e-06
2.07546e-11
1.35335e-08
1.72309e-06
3.422e-11
1.27616e-08
1.73052e-06
5.48395e-11
1.20557e-08
1.73751e-06
8.44024e-11
1.14705e-08
1.27888e-10
1.10416e-08
1.69656e-06
-9.32467e-09
1.49597e-08
1.7063e-06
-8.44899e-09
1.42856e-08
1.71512e-06
-7.62008e-09
1.35108e-08
1.7232e-06
-6.88075e-09
1.27246e-08
1.73069e-06
-6.22794e-09
1.1995e-08
1.73776e-06
-5.63783e-09
1.13717e-08
1.08834e-08
1.60011e-06
-1.50378e-08
1.54403e-08
1.60628e-06
-1.34901e-08
1.43343e-08
1.61181e-06
-1.2146e-08
1.3233e-08
1.61694e-06
-1.09955e-08
1.22291e-08
1.62184e-06
-1.00195e-08
1.13472e-08
-9.18555e-09
1.05817e-08
1.41156e-06
-1.53395e-08
1.50242e-08
1.41186e-06
-1.36457e-08
1.34679e-08
1.41214e-06
-1.22938e-08
1.21103e-08
1.41257e-06
-1.12273e-08
1.09378e-08
1.41327e-06
-1.03959e-08
9.92683e-09
-9.74411e-09
9.03598e-09
1.14457e-06
-1.11314e-08
1.38705e-08
1.13913e-06
-1.01529e-08
1.22562e-08
1.13429e-06
-9.36906e-09
1.08365e-08
1.13005e-06
-8.78043e-09
9.64418e-09
1.12637e-06
-8.35982e-09
8.63702e-09
-8.06601e-09
7.74133e-09
7.98745e-07
1.26539e-08
7.86657e-07
1.18504e-08
7.75491e-07
1.09801e-08
7.65103e-07
1.01302e-08
7.55333e-07
9.30954e-09
8.50947e-09
1.02283e-06
1.21167e-08
7.5324e-09
1.016e-06
1.13459e-08
7.3303e-09
1.00926e-06
1.06903e-08
7.01836e-09
1.00265e-06
1.01901e-08
6.53464e-09
9.96158e-07
9.81657e-09
5.96524e-09
9.89739e-07
9.54154e-09
5.35268e-09
9.34638e-09
4.66931e-09
1.35459e-06
1.68134e-08
9.02749e-09
1.35456e-06
1.54658e-08
8.16213e-09
1.35453e-06
1.42337e-08
7.33937e-09
1.35455e-06
1.32427e-08
6.58427e-09
1.35468e-06
1.24586e-08
5.88619e-09
1.35496e-06
1.18361e-08
5.2261e-09
1.13358e-08
4.55184e-09
1.60011e-06
1.54403e-08
9.32499e-09
1.60628e-06
1.43344e-08
8.44941e-09
1.61181e-06
1.32331e-08
7.62065e-09
1.61694e-06
1.22293e-08
6.8815e-09
1.62184e-06
1.13475e-08
6.22894e-09
1.62664e-06
1.05821e-08
5.63914e-09
9.91465e-09
5.07969e-09
1.77036e-06
9.19186e-09
9.19975e-09
1.78184e-06
8.60168e-09
8.6133e-09
1.7924e-06
7.96965e-09
7.98693e-09
1.80219e-06
7.35869e-09
7.3852e-09
1.81137e-06
6.79814e-09
6.84004e-09
1.82007e-06
6.29427e-09
6.36203e-09
5.84017e-09
5.94932e-09
1.85772e-06
-2.49261e-13
8.83869e-09
1.87216e-06
9.28527e-14
8.46574e-09
1.88564e-06
6.66538e-13
8.02166e-09
1.8982e-06
1.20212e-12
7.55831e-09
1.90994e-06
1.13253e-12
7.11404e-09
1.92099e-06
-5.37361e-13
6.71586e-09
-4.17504e-12
6.3832e-09
1.85773e-06
-9.19946e-09
8.83316e-09
1.87217e-06
-8.61292e-09
8.45745e-09
1.88566e-06
-7.98642e-09
8.00911e-09
1.89823e-06
-7.38454e-09
7.53908e-09
1.90998e-06
-6.83918e-09
7.08435e-09
1.92105e-06
-6.36094e-09
6.66987e-09
6.312e-09
1.77036e-06
-1.54592e-08
9.19182e-09
1.78185e-06
-1.43636e-08
8.60161e-09
1.7924e-06
-1.32788e-08
7.96954e-09
1.80219e-06
-1.23032e-08
7.3585e-09
1.81137e-06
-1.14665e-08
6.79785e-09
-1.07752e-08
6.29387e-09
1.60007e-06
-1.68342e-08
9.32826e-09
1.60622e-06
-1.54977e-08
8.45512e-09
1.6117e-06
-1.42857e-08
7.63184e-09
1.61677e-06
-1.33325e-08
6.90231e-09
1.62157e-06
-1.26096e-08
6.26488e-09
-1.20835e-08
5.69445e-09
1.35452e-06
-1.21284e-08
9.04332e-09
1.35445e-06
-1.13657e-08
8.18924e-09
1.35434e-06
-1.0725e-08
7.38873e-09
1.35423e-06
-1.02503e-08
6.66987e-09
1.35415e-06
-9.92249e-09
6.02983e-09
-9.72474e-09
5.44511e-09
1.02276e-06
7.55514e-09
1.01587e-06
7.37048e-09
1.00904e-06
7.08557e-09
1.00228e-06
6.64502e-09
9.95519e-07
6.14469e-09
5.64671e-09
1.13395e-06
1.13171e-08
-1.5373e-11
1.13064e-06
1.06627e-08
-2.67036e-11
1.1275e-06
1.02078e-08
-4.5584e-11
1.12419e-06
9.92054e-09
-7.71001e-11
1.12056e-06
9.72865e-09
-1.29561e-10
1.11649e-06
9.64045e-09
-2.17454e-10
9.68411e-09
-3.65254e-10
1.46191e-06
1.64492e-08
-1.34278e-11
1.46519e-06
1.55669e-08
-2.29656e-11
1.46809e-06
1.46918e-08
-4.02353e-11
1.47077e-06
1.38866e-08
-6.90385e-11
1.4733e-06
1.3201e-08
-1.1699e-10
1.47564e-06
1.27211e-08
-1.90197e-10
1.24595e-08
-3.00791e-10
1.69656e-06
1.49597e-08
-7.07044e-12
1.7063e-06
1.42856e-08
-1.1873e-11
1.71512e-06
1.35108e-08
-2.01267e-11
1.7232e-06
1.27246e-08
-3.33931e-11
1.73069e-06
1.19951e-08
-5.37495e-11
1.73776e-06
1.13719e-08
-8.29754e-11
1.08836e-08
-1.2605e-10
1.85773e-06
8.83314e-09
5.70854e-13
1.87217e-06
8.45743e-09
3.35136e-13
1.88566e-06
8.0091e-09
-9.33525e-14
1.89823e-06
7.5391e-09
-4.48798e-13
1.90998e-06
7.0844e-09
-1.62392e-13
1.92105e-06
6.66997e-09
1.70723e-12
6.31215e-09
5.63294e-12
1.94051e-06
-1.42624e-12
1.68579e-12
1.95743e-06
-2.06055e-12
2.39632e-12
1.97346e-06
-3.01683e-12
3.44595e-12
1.98856e-06
-4.52123e-12
5.06598e-12
2.00276e-06
-6.93517e-12
7.62216e-12
2.01614e-06
-1.07812e-11
1.16333e-11
-1.66452e-11
1.76749e-11
1.94051e-06
-8.83846e-09
-1.37937e-12
1.95743e-06
-8.46543e-09
-2.0149e-12
1.97346e-06
-8.02127e-09
-2.97775e-12
1.98856e-06
-7.55781e-09
-4.49606e-12
2.00276e-06
-7.11339e-09
-6.93206e-12
2.01614e-06
-6.71507e-09
-1.08034e-11
-1.66853e-11
1.85772e-06
-1.49686e-08
-2.79358e-13
1.87216e-06
-1.42996e-08
3.96214e-14
1.88564e-06
-1.35332e-08
5.73404e-13
1.8982e-06
-1.27611e-08
1.05873e-12
1.90994e-06
-1.20551e-08
9.13362e-13
-1.14698e-08
-8.30838e-13
1.69653e-06
-1.6459e-08
7.34869e-12
1.70626e-06
-1.55819e-08
1.22298e-11
1.71505e-06
-1.47167e-08
2.05797e-11
1.72309e-06
-1.39291e-08
3.39659e-11
1.73052e-06
-1.32766e-08
5.44725e-11
-1.28549e-08
8.38871e-11
1.46187e-06
-1.13241e-08
1.366e-11
1.46513e-06
-1.06749e-08
2.32675e-11
1.46799e-06
-1.02289e-08
4.06238e-11
1.47062e-06
-9.95576e-09
6.95359e-11
1.47304e-06
-9.78865e-09
1.17629e-10
-9.74646e-09
1.91018e-10
1.13391e-06
1.55153e-11
1.13058e-06
2.68938e-11
1.12739e-06
4.58351e-11
1.124e-06
7.74311e-11
1.12023e-06
1.29998e-10
2.18027e-10
1.13391e-06
1.13241e-08
-7.555e-09
1.13058e-06
1.06749e-08
-7.3703e-09
1.12739e-06
1.0229e-08
-7.08533e-09
1.124e-06
9.95583e-09
-6.6447e-09
1.12023e-06
9.78876e-09
-6.14428e-09
1.11591e-06
9.74662e-09
-5.64619e-09
9.87556e-09
-5.15645e-09
1.46187e-06
1.6459e-08
-9.04312e-09
1.46513e-06
1.5582e-08
-8.18898e-09
1.46799e-06
1.47169e-08
-7.3884e-09
1.47062e-06
1.39293e-08
-6.66945e-09
1.47304e-06
1.32769e-08
-6.02932e-09
1.47519e-06
1.28553e-08
-5.44448e-09
1.26807e-08
-4.88632e-09
1.69653e-06
1.49687e-08
-9.328e-09
1.70626e-06
1.42997e-08
-8.45479e-09
1.71505e-06
1.35333e-08
-7.63143e-09
1.72309e-06
1.27614e-08
-6.90181e-09
1.73052e-06
1.20555e-08
-6.26427e-09
1.73752e-06
1.14703e-08
-5.6937e-09
1.10413e-08
-5.15976e-09
1.85772e-06
8.83857e-09
-9.19154e-09
1.87216e-06
8.46559e-09
-8.60127e-09
1.88564e-06
8.0215e-09
-7.96911e-09
1.8982e-06
7.55812e-09
-7.35799e-09
1.90994e-06
7.11381e-09
-6.79724e-09
1.92099e-06
6.71558e-09
-6.29313e-09
6.38284e-09
-5.83872e-09
1.94051e-06
1.54589e-12
-8.83288e-09
1.95743e-06
2.23255e-12
-8.4571e-09
1.97346e-06
3.25708e-12
-8.00868e-09
1.98856e-06
4.85026e-12
-7.53856e-09
2.00276e-06
7.3751e-12
-7.08373e-09
2.01614e-06
1.13421e-11
-6.66913e-09
1.73153e-11
-6.3111e-09
1.94051e-06
-8.83302e-09
-8.83841e-09
1.95743e-06
-8.45726e-09
-8.46538e-09
1.97346e-06
-8.00886e-09
-8.02122e-09
1.98856e-06
-7.53876e-09
-7.55777e-09
2.00276e-06
-7.08394e-09
-7.11337e-09
2.01614e-06
-6.66938e-09
-6.71504e-09
-6.38221e-09
1.85773e-06
-1.49596e-08
-9.19948e-09
1.87217e-06
-1.42855e-08
-8.61295e-09
1.88566e-06
-1.35106e-08
-7.98648e-09
1.89823e-06
-1.27243e-08
-7.38463e-09
1.90998e-06
-1.19946e-08
-6.83931e-09
-1.13713e-08
-6.36113e-09
1.69656e-06
-1.64491e-08
-9.32474e-09
1.7063e-06
-1.55667e-08
-8.44909e-09
1.71512e-06
-1.46916e-08
-7.62023e-09
1.7232e-06
-1.38864e-08
-6.88096e-09
1.73069e-06
-1.32006e-08
-6.22822e-09
-1.27206e-08
-5.63822e-09
1.46191e-06
-1.13171e-08
-9.02728e-09
1.46519e-06
-1.06626e-08
-8.16184e-09
1.46809e-06
-1.02077e-08
-7.339e-09
1.47077e-06
-9.92039e-09
-6.58379e-09
1.4733e-06
-9.72844e-09
-5.88554e-09
-9.64016e-09
-5.22524e-09
1.13395e-06
-7.53226e-09
1.13064e-06
-7.3301e-09
1.1275e-06
-7.0181e-09
1.12419e-06
-6.5343e-09
1.12056e-06
-5.96481e-09
-5.35212e-09
1.02276e-06
1.21284e-08
-1.26538e-08
1.01587e-06
1.13657e-08
-1.18503e-08
1.00904e-06
1.0725e-08
-1.09799e-08
1.00228e-06
1.02504e-08
-1.013e-08
9.95519e-07
9.92259e-09
-9.30925e-09
9.88657e-07
9.72489e-09
-8.50911e-09
9.6615e-09
-7.69026e-09
1.35452e-06
1.68342e-08
-1.38703e-08
1.35445e-06
1.54978e-08
-1.2256e-08
1.35434e-06
1.42858e-08
-1.08362e-08
1.35423e-06
1.33326e-08
-9.64386e-09
1.35415e-06
1.26098e-08
-8.63668e-09
1.35409e-06
1.20838e-08
-7.74096e-09
1.17381e-08
-6.87688e-09
1.60007e-06
1.54593e-08
-1.5024e-08
1.60622e-06
1.43637e-08
-1.34676e-08
1.6117e-06
1.32789e-08
-1.211e-08
1.61677e-06
1.23034e-08
-1.09374e-08
1.62157e-06
1.14668e-08
-9.92642e-09
1.62622e-06
1.07756e-08
-9.03548e-09
1.02264e-08
-8.21174e-09
1.77036e-06
9.19956e-09
-1.54401e-08
1.78185e-06
8.61306e-09
-1.4334e-08
1.7924e-06
7.98662e-09
-1.32326e-08
1.80219e-06
7.38482e-09
-1.22288e-08
1.81137e-06
6.83955e-09
-1.13468e-08
1.82007e-06
6.3614e-09
-1.05812e-08
5.94849e-09
-9.9134e-09
1.85773e-06
3.59957e-13
-1.49595e-08
1.87217e-06
6.7193e-14
-1.42853e-08
1.88566e-06
-4.19622e-13
-1.35104e-08
1.89823e-06
-8.68432e-13
-1.27242e-08
1.90998e-06
-6.67712e-13
-1.19945e-08
1.92105e-06
1.10111e-12
-1.13711e-08
4.85399e-12
-1.08826e-08
1.8424e-06
-9.64772e-09
-1.54372e-08
1.85772e-06
-9.19175e-09
-1.49686e-08
1.87216e-06
-8.60152e-09
-1.42995e-08
1.88564e-06
-7.96941e-09
-1.35331e-08
1.8982e-06
-7.35834e-09
-1.27611e-08
1.90994e-06
-6.79765e-09
-1.20551e-08
1.92099e-06
-6.29362e-09
-1.14698e-08
-1.10407e-08
1.75785e-06
-1.63733e-08
-1.63851e-08
1.77036e-06
-1.54402e-08
-1.54592e-08
1.78185e-06
-1.43342e-08
-1.43636e-08
1.7924e-06
-1.32329e-08
-1.32788e-08
1.80219e-06
-1.2229e-08
-1.23033e-08
1.81137e-06
-1.13471e-08
-1.14666e-08
-1.05815e-08
-1.07753e-08
1.59302e-06
-1.81027e-08
-1.67134e-08
1.60011e-06
-1.68133e-08
-1.50378e-08
1.60628e-06
-1.54657e-08
-1.34902e-08
1.61181e-06
-1.42335e-08
-1.21461e-08
1.61694e-06
-1.32425e-08
-1.09957e-08
1.62184e-06
-1.24582e-08
-1.00197e-08
-1.18355e-08
-9.1858e-09
1.35444e-06
-1.29788e-08
-1.56784e-08
1.35459e-06
-1.21167e-08
-1.38722e-08
1.35457e-06
-1.13458e-08
-1.22603e-08
1.35453e-06
-1.06902e-08
-1.08446e-08
1.35455e-06
-1.019e-08
-9.6584e-09
1.35469e-06
-9.81637e-09
-8.66381e-09
-9.54125e-09
-7.79672e-09
1.02983e-06
-1.3365e-08
1.02283e-06
-1.26506e-08
1.016e-06
-1.18446e-08
1.00926e-06
-1.09706e-08
1.00265e-06
-1.01157e-08
9.96159e-07
-9.2875e-09
-8.4747e-09
7.98745e-07
1.11314e-08
-1.07811e-08
7.86657e-07
1.01529e-08
-9.91532e-09
7.75491e-07
9.36909e-09
-9.18332e-09
7.65103e-07
8.78048e-09
-8.52196e-09
7.55333e-07
8.35991e-09
-7.89965e-09
7.46051e-07
8.06613e-09
-7.29383e-09
7.8588e-09
-6.67212e-09
1.14457e-06
1.53395e-08
-1.2174e-08
1.13913e-06
1.36457e-08
-1.03138e-08
1.13429e-06
1.22939e-08
-8.92197e-09
1.13005e-06
1.12275e-08
-7.84909e-09
1.12637e-06
1.03961e-08
-6.99512e-09
1.12324e-06
9.7444e-09
-6.28683e-09
9.21603e-09
-5.63659e-09
1.41156e-06
1.50378e-08
-1.53204e-08
1.41186e-06
1.34902e-08
-1.36133e-08
1.41214e-06
1.21462e-08
-1.22405e-08
1.41257e-06
1.09957e-08
-1.11394e-08
1.41327e-06
1.00198e-08
-1.02537e-08
1.41431e-06
9.18591e-09
-9.51678e-09
8.45163e-09
-8.85745e-09
1.60011e-06
9.32476e-09
-1.68132e-08
1.60628e-06
8.44912e-09
-1.54655e-08
1.61181e-06
7.62027e-09
-1.42334e-08
1.61694e-06
6.88102e-09
-1.32423e-08
1.62184e-06
6.22831e-09
-1.24581e-08
1.62664e-06
5.63831e-09
-1.18354e-08
5.07855e-09
-1.13349e-08
1.69656e-06
-7.32716e-12
-1.6449e-08
1.7063e-06
-1.21979e-11
-1.55667e-08
1.71512e-06
-2.05355e-11
-1.46915e-08
1.7232e-06
-3.39065e-11
-1.38863e-08
1.73069e-06
-5.43989e-11
-1.32005e-08
1.73776e-06
-8.38137e-11
-1.27206e-08
-1.27165e-10
-1.24587e-08
1.68572e-06
-1.01415e-08
-1.71684e-08
1.69653e-06
-9.32824e-09
-1.6459e-08
1.70626e-06
-8.45509e-09
-1.55818e-08
1.71505e-06
-7.6318e-09
-1.47167e-08
1.72309e-06
-6.90227e-09
-1.39291e-08
1.73052e-06
-6.26482e-09
-1.32766e-08
1.73752e-06
-5.69439e-09
-1.28549e-08
-1.26802e-08
1.593e-06
-1.67048e-08
-1.81159e-08
1.60007e-06
-1.50242e-08
-1.68342e-08
1.60622e-06
-1.34679e-08
-1.54978e-08
1.6117e-06
-1.21102e-08
-1.42857e-08
1.61677e-06
-1.09378e-08
-1.33325e-08
1.62157e-06
-9.92678e-09
-1.26096e-08
-9.03592e-09
-1.20836e-08
1.41096e-06
-1.74205e-08
-1.74314e-08
1.41156e-06
-1.53206e-08
-1.53395e-08
1.41186e-06
-1.36135e-08
-1.36457e-08
1.41214e-06
-1.22406e-08
-1.22939e-08
1.41257e-06
-1.11396e-08
-1.12274e-08
1.41327e-06
-1.02539e-08
-1.0396e-08
-9.51694e-09
-9.74424e-09
1.1505e-06
-1.23422e-08
-1.46994e-08
1.14461e-06
-1.11202e-08
-1.2187e-08
1.13921e-06
-1.01348e-08
-1.03366e-08
1.13442e-06
-9.3392e-09
-8.96166e-09
1.13027e-06
-8.73008e-09
-7.91635e-09
1.12673e-06
-8.27316e-09
-7.1053e-09
-7.91964e-09
-6.46091e-09
8.11781e-07
-1.19467e-08
7.98801e-07
-1.07907e-08
7.86753e-07
-9.93164e-09
7.75655e-07
-9.21142e-09
7.65379e-07
-8.57031e-09
7.55797e-07
-7.97797e-09
-7.41618e-09
4.90944e-07
6.84859e-09
-3.87957e-09
4.78728e-07
5.61726e-09
-3.31676e-09
4.67656e-07
4.78991e-09
-2.90099e-09
4.57493e-07
4.20485e-09
-2.56429e-09
4.48101e-07
3.767e-09
-2.27469e-09
4.39379e-07
3.44695e-09
-2.01819e-09
3.20964e-09
-1.7689e-09
8.54773e-07
1.2187e-08
-6.84003e-09
8.45342e-07
1.03366e-08
-5.60282e-09
8.37014e-07
8.96165e-09
-4.76502e-09
8.2961e-07
7.91635e-09
-4.15658e-09
8.2296e-07
7.10536e-09
-3.68386e-09
8.16986e-07
6.46107e-09
-3.32692e-09
5.90959e-09
-3.06754e-09
1.14461e-06
1.38722e-08
-1.11201e-08
1.13921e-06
1.22603e-08
-1.01347e-08
1.13442e-06
1.08446e-08
-9.33912e-09
1.13027e-06
9.65841e-09
-8.72999e-09
1.12673e-06
8.66385e-09
-8.27308e-09
1.1238e-06
7.79678e-09
-7.91955e-09
6.98361e-09
-7.61927e-09
1.35459e-06
9.02728e-09
-1.21166e-08
1.35457e-06
8.16185e-09
-1.13458e-08
1.35453e-06
7.339e-09
-1.06901e-08
1.35455e-06
6.58379e-09
-1.01899e-08
1.35469e-06
5.88555e-09
-9.81631e-09
1.35496e-06
5.22523e-09
-9.5412e-09
4.55064e-09
-9.34592e-09
1.46191e-06
-1.36574e-11
-1.1317e-08
1.46519e-06
-2.32674e-11
-1.06626e-08
1.46809e-06
-4.06297e-11
-1.02077e-08
1.47077e-06
-6.95507e-11
-9.92036e-09
1.4733e-06
-1.17658e-10
-9.72842e-09
1.47564e-06
-1.91075e-10
-9.64015e-09
-3.01976e-10
-9.68371e-09
1.45798e-06
-9.8906e-09
-1.21113e-08
1.46187e-06
-9.04333e-09
-1.13241e-08
1.46513e-06
-8.18925e-09
-1.06749e-08
1.46799e-06
-7.38874e-09
-1.02289e-08
1.47062e-06
-6.66989e-09
-9.95575e-09
1.47304e-06
-6.02988e-09
-9.78866e-09
1.47519e-06
-5.44517e-09
-9.74647e-09
-9.87534e-09
1.3544e-06
-1.56765e-08
-1.29861e-08
1.35452e-06
-1.38705e-08
-1.21284e-08
1.35445e-06
-1.22562e-08
-1.13657e-08
1.35434e-06
-1.08365e-08
-1.0725e-08
1.35423e-06
-9.64419e-09
-1.02503e-08
1.35415e-06
-8.63705e-09
-9.92252e-09
-7.74136e-09
-9.72478e-09
1.15047e-06
-1.46914e-08
-1.23485e-08
1.14457e-06
-1.21741e-08
-1.11314e-08
1.13913e-06
-1.03139e-08
-1.01529e-08
1.13429e-06
-8.92216e-09
-9.36909e-09
1.13005e-06
-7.8493e-09
-8.78047e-09
1.12637e-06
-6.9953e-09
-8.35986e-09
-6.28694e-09
-8.06606e-09
8.65445e-07
-8.70955e-09
-8.71471e-09
8.54773e-07
-6.84011e-09
-6.84861e-09
8.45342e-07
-5.60291e-09
-5.61728e-09
8.37013e-07
-4.76513e-09
-4.78993e-09
8.29609e-07
-4.15669e-09
-4.20487e-09
8.22959e-07
-3.68394e-09
-3.76699e-09
-3.32691e-09
-3.44685e-09
5.04702e-07
-4.71582e-09
4.90959e-07
-3.88746e-09
4.78755e-07
-3.33062e-09
4.67703e-07
-2.92503e-09
4.5758e-07
-2.60361e-09
4.48257e-07
-2.33937e-09
-2.13116e-09
1.86005e-07
3.8875e-09
1.79358e-07
3.33066e-09
1.73531e-07
2.92506e-09
1.68363e-07
2.60362e-09
1.63749e-07
2.33936e-09
1.596e-07
2.13113e-09
1.97957e-09
4.90959e-07
1.07908e-08
4.78755e-07
9.93172e-09
4.67703e-07
9.21148e-09
4.5758e-07
8.57035e-09
4.48258e-07
7.97796e-09
4.39646e-07
7.41609e-09
6.87068e-09
7.98801e-07
1.26507e-08
7.86754e-07
1.18447e-08
7.75655e-07
1.09706e-08
7.6538e-07
1.01157e-08
7.55797e-07
9.28747e-09
7.46819e-07
8.4746e-09
7.63501e-09
1.02283e-06
7.53231e-09
1.016e-06
7.33014e-09
1.00926e-06
7.01812e-09
1.00265e-06
6.5343e-09
9.9616e-07
5.96476e-09
9.89741e-07
5.352e-09
4.66837e-09
1.13395e-06
-1.54829e-11
1.13064e-06
-2.68716e-11
1.1275e-06
-4.58327e-11
1.12419e-06
-7.7457e-11
1.12056e-06
-1.30067e-10
1.11649e-06
-2.18162e-10
-3.66207e-10
1.1377e-06
-7.78706e-09
1.13391e-06
-7.55512e-09
1.13058e-06
-7.37047e-09
1.12739e-06
-7.08557e-09
1.124e-06
-6.64504e-09
1.12023e-06
-6.14476e-09
1.11591e-06
-5.64684e-09
1.02979e-06
-1.33673e-08
1.02276e-06
-1.26539e-08
1.01587e-06
-1.18504e-08
1.00904e-06
-1.09801e-08
1.00228e-06
-1.01303e-08
9.95519e-07
-9.30961e-09
-8.50959e-09
8.11749e-07
-1.1941e-08
7.98745e-07
-1.07812e-08
7.86657e-07
-9.91543e-09
7.75491e-07
-9.18345e-09
7.65102e-07
-8.52213e-09
7.55333e-07
-7.89985e-09
-7.2941e-09
5.04694e-07
-4.71156e-09
4.90944e-07
-3.87964e-09
4.78728e-07
-3.31683e-09
4.67656e-07
-2.90107e-09
4.57493e-07
-2.56437e-09
4.48101e-07
-2.27476e-09
-2.01823e-09
1.93772e-07
1.86005e-07
1.79357e-07
1.73531e-07
1.68363e-07
1.63749e-07
)
;

boundaryField
{
    inlet
    {
        type            calculated;
        value           nonuniform List<scalar> 0();
    }
    ami1
    {
        type            cyclicAMI;
        value           nonuniform List<scalar> 0();
    }
    walls
    {
        type            calculated;
        value           uniform 0;
    }
    ami2
    {
        type            cyclicAMI;
        value           nonuniform List<scalar> 0();
    }
    outlet
    {
        type            calculated;
        value           nonuniform List<scalar> 0();
    }
    procBoundary3to2
    {
        type            processor;
        value           nonuniform List<scalar> 
110
(
1.55851e-07
4.31263e-07
7.37172e-07
9.81527e-07
1.11083e-06
1.11184e-06
-4.66776e-09
9.8974e-07
7.46819e-07
4.39646e-07
1.596e-07
4.31685e-07
8.11714e-07
1.12064e-06
1.354e-06
1.47697e-06
1.47772e-06
-4.55003e-09
1.35496e-06
1.1238e-06
8.16986e-07
4.39379e-07
7.38433e-07
1.12148e-06
1.41572e-06
1.63078e-06
1.74419e-06
1.74454e-06
-5.07805e-09
1.62664e-06
1.41431e-06
1.12324e-06
7.46051e-07
9.8336e-07
1.35541e-06
1.63143e-06
1.82842e-06
1.93149e-06
1.93156e-06
-5.94801e-09
1.82007e-06
1.62622e-06
1.35409e-06
9.88657e-07
1.11184e-06
1.47772e-06
1.74454e-06
1.93156e-06
2.02884e-06
2.02884e-06
-6.38227e-09
1.92099e-06
1.73752e-06
1.47519e-06
1.11591e-06
1.11083e-06
1.47697e-06
1.74419e-06
1.93149e-06
2.02884e-06
2.02884e-06
-6.31145e-09
1.92105e-06
1.73776e-06
1.47564e-06
1.11649e-06
9.81529e-07
1.354e-06
1.63079e-06
1.82842e-06
1.93156e-06
1.93149e-06
-5.8394e-09
1.82007e-06
1.62664e-06
1.35496e-06
9.8974e-07
7.37174e-07
1.12064e-06
1.41572e-06
1.63144e-06
1.74454e-06
1.74419e-06
-5.16072e-09
1.62622e-06
1.41431e-06
1.1238e-06
7.46819e-07
4.31265e-07
8.11717e-07
1.12149e-06
1.35541e-06
1.47772e-06
1.47697e-06
-4.88729e-09
1.35409e-06
1.12324e-06
8.16985e-07
4.39645e-07
1.55851e-07
4.31687e-07
7.38436e-07
9.83362e-07
1.11184e-06
1.11083e-06
-5.15725e-09
9.88657e-07
7.46051e-07
4.39378e-07
1.596e-07
)
;
    }
    procBoundary3to4
    {
        type            processor;
        value           nonuniform List<scalar> 
109
(
-1.93772e-07
-5.04694e-07
-8.11749e-07
-1.02979e-06
-1.1377e-06
-1.13772e-06
-1.02983e-06
-8.11781e-07
-5.04702e-07
-1.93772e-07
-5.04702e-07
-8.65445e-07
-1.15047e-06
-1.3544e-06
-1.45798e-06
-1.458e-06
-1.35444e-06
-1.1505e-06
-8.65445e-07
-5.04694e-07
-8.11781e-07
-1.1505e-06
-1.41096e-06
-1.593e-06
-1.68572e-06
-1.68574e-06
-1.59302e-06
-1.41096e-06
-1.15047e-06
-8.11749e-07
-1.02983e-06
-1.35444e-06
-1.59302e-06
-1.75785e-06
-1.8424e-06
-1.84241e-06
-1.75785e-06
-1.593e-06
-1.3544e-06
-1.02979e-06
-1.13772e-06
-1.458e-06
-1.68574e-06
-1.84241e-06
-1.92284e-06
-1.92284e-06
-1.8424e-06
-1.68572e-06
-1.45798e-06
-1.1377e-06
-1.1377e-06
-1.45798e-06
-1.68572e-06
-1.8424e-06
-1.92284e-06
-1.92284e-06
9.07401e-09
-1.84241e-06
9.65284e-09
-1.68574e-06
1.01395e-08
-1.458e-06
9.88107e-09
-1.13772e-06
7.77406e-09
-1.02979e-06
-1.3544e-06
-1.593e-06
-1.75785e-06
-1.84241e-06
-3.98073e-13
-1.82639e-06
-1.7444e-06
-1.58472e-06
-1.35376e-06
-1.03722e-06
-8.11749e-07
-1.15047e-06
-1.41096e-06
-1.59302e-06
-1.68574e-06
4.56289e-12
-1.67385e-06
-1.58471e-06
-1.40952e-06
-1.15655e-06
-8.25542e-07
-5.04694e-07
-8.65445e-07
-1.1505e-06
-1.35444e-06
-1.458e-06
8.22495e-12
-1.45315e-06
-1.35374e-06
-1.15654e-06
-8.77412e-07
-5.20643e-07
-1.93772e-07
-5.04702e-07
-8.11781e-07
-1.02983e-06
-1.13772e-06
8.8167e-12
-1.14203e-06
-1.03719e-06
-8.25524e-07
-5.20638e-07
-2.03199e-07
)
;
    }
}


// ************************************************************************* //
