/*--------------------------------*- C++ -*----------------------------------*\
| =========                 |                                                 |
| \\      /  F ield         | OpenFOAM: The Open Source CFD Toolbox           |
|  \\    /   O peration     | Version:  2212                                  |
|   \\  /    A nd           | Website:  www.openfoam.com                      |
|    \\/     M anipulation  |                                                 |
\*---------------------------------------------------------------------------*/
FoamFile
{
    version     2.0;
    format      ascii;
    arch        "LSB;label=32;scalar=64";
    class       volScalarField;
    location    "1.75";
    object      p;
}
// * * * * * * * * * * * * * * * * * * * * * * * * * * * * * * * * * * * * * //

dimensions      [0 2 -2 0 0 0 0];

internalField   nonuniform List<scalar> 
680
(
0.00709681
0.00693573
0.00677643
0.006619
0.00646339
0.00630882
0.00615423
0.00714506
0.00697084
0.00680384
0.00664162
0.00648261
0.00632568
0.00617048
0.00713554
0.00695729
0.00678908
0.00662613
0.00646634
0.00630939
0.0061555
0.00709948
0.00693167
0.00677428
0.0066187
0.00646355
0.00630964
0.00615776
0.00708079
0.00690978
0.00675268
0.00660214
0.00645123
0.00629902
0.00614722
0.00708056
0.00690941
0.00675208
0.00660119
0.0064497
0.00629657
0.00614333
0.00709892
0.00693075
0.00677278
0.00661627
0.00645963
0.00630335
0.00713496
0.00695634
0.0067875
0.00662351
0.00646205
0.00630239
0.00714473
0.00697029
0.00680291
0.00664009
0.00648008
0.00632145
0.00709682
0.00693574
0.00677644
0.00661901
0.0064634
0.00630883
0.00714472
0.00697028
0.0068029
0.00664008
0.00648007
0.00632144
0.00616315
0.00727558
0.00707115
0.00688302
0.00670569
0.00653561
0.00637006
0.00620742
0.00727189
0.00705959
0.0068655
0.00668291
0.00650875
0.00634128
0.00617922
0.00723697
0.00703409
0.00684786
0.00667156
0.00650207
0.00633788
0.00617817
0.00721431
0.0070135
0.00682615
0.00664975
0.00648086
0.00631782
0.0061596
0.00721403
0.00701307
0.00682546
0.00664861
0.00647902
0.00631491
0.0061551
0.00723642
0.00703319
0.00684631
0.00666891
0.00649775
0.00633105
0.00727145
0.00705884
0.00686425
0.00668092
0.00650554
0.00633611
0.00727559
0.00707116
0.00688303
0.0067057
0.00653562
0.00637007
0.00714507
0.00697085
0.00680385
0.00664163
0.00648262
0.00632568
0.00713495
0.00695633
0.00678749
0.00662351
0.00646205
0.00630239
0.00614405
0.00727144
0.00705883
0.00686425
0.00668091
0.00650554
0.00633611
0.00617082
0.00724973
0.00703204
0.00683209
0.00664497
0.00646764
0.0062977
0.0061332
0.00719314
0.00699225
0.00680021
0.00661825
0.00644459
0.00627732
0.00611517
0.00715168
0.00696557
0.00678222
0.00660325
0.00642969
0.00626193
0.00609933
0.00715148
0.00696526
0.00678174
0.00660251
0.00642855
0.00626022
0.00609683
0.00719283
0.00699176
0.00679943
0.00661698
0.00644259
0.00627425
0.00724974
0.00703205
0.0068321
0.00664498
0.00646765
0.00629771
0.0072719
0.0070596
0.00686551
0.00668293
0.00650877
0.00634129
0.00713555
0.0069573
0.00678909
0.00662614
0.00646635
0.00630941
0.00709892
0.00693075
0.00677278
0.00661627
0.00645963
0.00630336
0.00614773
0.00723642
0.00703319
0.00684631
0.00666891
0.00649775
0.00633106
0.00616782
0.00719283
0.00699176
0.00679942
0.00661697
0.00644259
0.00627425
0.00611055
0.00711589
0.00693198
0.00675172
0.00657675
0.00640694
0.0062417
0.00608044
0.00707472
0.00690055
0.00672699
0.00655589
0.00638815
0.00622406
0.00606354
0.00707465
0.00690046
0.00672685
0.00655569
0.00638787
0.00622366
0.00606296
0.0071159
0.00693199
0.00675173
0.00657676
0.00640695
0.00624171
0.00719316
0.00699226
0.00680023
0.00661827
0.00644462
0.00627735
0.00723698
0.0070341
0.00684788
0.00667158
0.00650209
0.00633791
0.00709949
0.00693168
0.0067743
0.00661872
0.00646357
0.00630967
0.00708056
0.00690942
0.00675209
0.0066012
0.00644971
0.00629659
0.00614335
0.00721403
0.00701308
0.00682546
0.00664862
0.00647903
0.00631493
0.00615511
0.00715148
0.00696526
0.00678175
0.00660251
0.00642856
0.00626023
0.00609684
0.00707465
0.00690046
0.00672685
0.00655569
0.00638786
0.00622366
0.00606296
0.00703569
0.00686916
0.0067008
0.006533
0.00636717
0.00620408
0.00604401
0.0070357
0.00686916
0.0067008
0.006533
0.00636718
0.00620409
0.00604401
0.00707473
0.00690056
0.006727
0.0065559
0.00638816
0.00622408
0.0071517
0.00696559
0.00678224
0.00660328
0.00642972
0.00626196
0.00721433
0.00701352
0.00682617
0.00664977
0.00648089
0.00631786
0.0070808
0.0069098
0.0067527
0.00660217
0.00645126
0.00629905
0.0070808
0.0069098
0.00675269
0.00660216
0.00645125
0.00629905
0.00614725
0.00721432
0.00701351
0.00682616
0.00664977
0.00648088
0.00631785
0.00615963
0.00715169
0.00696558
0.00678224
0.00660327
0.00642971
0.00626195
0.00609935
0.00707472
0.00690056
0.006727
0.0065559
0.00638815
0.00622407
0.00606355
0.0070357
0.00686916
0.0067008
0.006533
0.00636718
0.00620409
0.00604401
0.0070357
0.00686916
0.0067008
0.006533
0.00636718
0.00620409
0.00604401
0.00707466
0.00690047
0.00672686
0.0065557
0.00638787
0.00622367
0.00715149
0.00696527
0.00678176
0.00660253
0.00642857
0.00626025
0.00721404
0.00701309
0.00682548
0.00664863
0.00647905
0.00631494
0.00708058
0.00690943
0.0067521
0.00660121
0.00644972
0.0062966
0.00709949
0.00693168
0.0067743
0.00661872
0.00646358
0.00630967
0.0061578
0.00723698
0.0070341
0.00684788
0.00667158
0.0065021
0.00633791
0.00617821
0.00719315
0.00699226
0.00680022
0.00661827
0.00644461
0.00627734
0.0061152
0.0071159
0.00693199
0.00675173
0.00657676
0.00640695
0.00624171
0.00608045
0.00707466
0.00690046
0.00672686
0.0065557
0.00638787
0.00622366
0.00606296
0.00724618
0.00707473
0.00690056
0.006727
0.0065559
0.00638815
0.00622407
0.00606355
0.00730034
0.0071159
0.00693199
0.00675174
0.00657677
0.00640695
0.00624171
0.00739973
0.00719284
0.00699177
0.00679943
0.00661699
0.00644261
0.00627427
0.00746291
0.00723643
0.0070332
0.00684633
0.00666893
0.00649777
0.00633108
0.00728795
0.00709893
0.00693076
0.0067728
0.00661628
0.00645965
0.00630337
0.00713555
0.0069573
0.00678909
0.00662615
0.00646636
0.00630943
0.00615554
0.0072719
0.0070596
0.00686551
0.00668294
0.00650878
0.00634131
0.00617926
0.00724974
0.00703205
0.0068321
0.00664498
0.00646766
0.00629772
0.00613322
0.00719283
0.00699176
0.00679943
0.00661698
0.0064426
0.00627426
0.00611056
0.00715148
0.00696526
0.00678175
0.00660252
0.00642856
0.00626023
0.00609684
0.00733971
0.00715169
0.00696558
0.00678223
0.00660326
0.0064297
0.00626194
0.00609934
0.00739994
0.00719315
0.00699226
0.00680022
0.00661826
0.00644461
0.00627733
0.00749124
0.00724974
0.00703205
0.0068321
0.00664498
0.00646765
0.00629771
0.00751192
0.00727146
0.00705885
0.00686426
0.00668093
0.00650555
0.00633613
0.00732801
0.00713497
0.00695634
0.0067875
0.00662352
0.00646206
0.0063024
0.00714507
0.00697085
0.00680386
0.00664164
0.00648263
0.00632571
0.00617052
0.00727559
0.00707116
0.00688304
0.00670571
0.00653563
0.00637009
0.00620746
0.00727145
0.00705884
0.00686426
0.00668093
0.00650556
0.00633613
0.00617085
0.00723642
0.0070332
0.00684632
0.00666892
0.00649776
0.00633107
0.00616784
0.00721403
0.00701308
0.00682546
0.00664862
0.00647903
0.00631492
0.00615511
0.00742749
0.00721432
0.00701351
0.00682616
0.00664976
0.00648087
0.00631783
0.00615961
0.00746326
0.00723698
0.0070341
0.00684787
0.00667157
0.00650208
0.00633789
0.00751218
0.0072719
0.0070596
0.00686551
0.00668293
0.00650876
0.00634128
0.00750317
0.0072756
0.00707117
0.00688303
0.0067057
0.00653562
0.00637008
0.00733098
0.00714474
0.00697029
0.00680291
0.00664009
0.00648009
0.00632145
0.00709682
0.00693575
0.00677644
0.00661902
0.00646341
0.00630885
0.00615427
0.00714473
0.00697029
0.00680292
0.0066401
0.0064801
0.00632147
0.00616319
0.00713496
0.00695634
0.0067875
0.00662352
0.00646206
0.00630241
0.00614407
0.00709892
0.00693075
0.00677279
0.00661628
0.00645964
0.00630336
0.00614774
0.00708056
0.00690942
0.00675209
0.00660119
0.0064497
0.00629658
0.00614334
0.00727158
0.0070808
0.00690979
0.00675269
0.00660215
0.00645124
0.00629903
0.00614722
0.00728828
0.00709949
0.00693168
0.00677429
0.00661871
0.00646356
0.00630965
0.00732837
0.00713555
0.0069573
0.00678909
0.00662614
0.00646635
0.0063094
0.00733118
0.00714507
0.00697085
0.00680385
0.00664163
0.00648262
0.00632568
0.00726319
0.00709682
0.00693574
0.00677644
0.00661901
0.0064634
0.00630883
)
;

boundaryField
{
    inlet
    {
        type            zeroGradient;
    }
    ami1
    {
        type            cyclicAMI;
        value           nonuniform List<scalar> 0();
    }
    walls
    {
        type            zeroGradient;
    }
    ami2
    {
        type            cyclicAMI;
        value           nonuniform List<scalar> 0();
    }
    outlet
    {
        type            fixedValue;
        value           nonuniform List<scalar> 0();
    }
    procBoundary3to2
    {
        type            processor;
        value           nonuniform List<scalar> 
110
(
0.00599961
0.0060174
0.00600498
0.00600855
0.00599711
0.00599102
0.00614772
0.00614772
0.00614404
0.00616315
0.00615422
0.00600491
0.00604718
0.0060218
0.00602303
0.00600547
0.00599852
0.00616781
0.00616781
0.00617082
0.00620741
0.00617047
0.00598616
0.00600818
0.00597288
0.00595745
0.00594135
0.00593764
0.00611055
0.00611055
0.00613321
0.00617923
0.00615551
0.00599256
0.0060073
0.00595052
0.00592258
0.00590631
0.00590546
0.00608045
0.00608045
0.0061152
0.00617821
0.00615779
0.00599104
0.00599854
0.00593766
0.00590546
0.00588695
0.00588696
0.00606356
0.00606356
0.00609937
0.00615964
0.00614725
0.00599714
0.0060055
0.00594138
0.00590632
0.00588696
0.00588696
0.00606297
0.00606297
0.00609686
0.00615513
0.00614337
0.00600859
0.00602307
0.00595748
0.0059226
0.00590547
0.00590632
0.00608045
0.00608045
0.00611057
0.00616785
0.00614775
0.00600502
0.00602184
0.00597291
0.00595054
0.00593766
0.00594136
0.00611518
0.00611518
0.00613321
0.00617084
0.00614406
0.00601744
0.00604723
0.00600821
0.00600731
0.00599853
0.00600547
0.00617818
0.00617818
0.00617923
0.00620743
0.00616316
0.00599965
0.00600496
0.00598619
0.00599257
0.00599103
0.00599711
0.00615777
0.00615777
0.0061555
0.00617048
0.00615423
)
;
    }
    procBoundary3to4
    {
        type            processor;
        value           nonuniform List<scalar> 
109
(
0.00726318
0.00733117
0.00732836
0.00728827
0.00727157
0.00727143
0.00728793
0.00732801
0.00733098
0.00726319
0.00733097
0.00750315
0.00751217
0.00746325
0.00742748
0.0074273
0.0074629
0.00751191
0.00750316
0.00733118
0.007328
0.00751191
0.00749122
0.00739992
0.0073397
0.00733956
0.00739972
0.00749123
0.00751218
0.00732837
0.00728793
0.0074629
0.00739972
0.00730033
0.00724618
0.00724613
0.00730034
0.00739993
0.00746327
0.00728828
0.00727144
0.0074273
0.00733956
0.00724613
0.00719672
0.00719672
0.00724619
0.00733971
0.0074275
0.00727159
0.00727158
0.00742749
0.00733971
0.00724618
0.00719672
0.00719672
0.00719672
0.00724614
0.00724614
0.00733957
0.00733957
0.00742731
0.00742731
0.00727145
0.00727145
0.00728827
0.00746326
0.00739993
0.00730034
0.00724614
0.00724614
0.00740911
0.00748051
0.0076104
0.00771399
0.00750769
0.00732836
0.00751218
0.00749123
0.00739972
0.00733956
0.00733956
0.00752602
0.00761054
0.00774957
0.00779048
0.00754375
0.00733117
0.00750316
0.00751191
0.0074629
0.0074273
0.0074273
0.00765031
0.00771422
0.00779064
0.00776201
0.00754217
0.00726319
0.00733097
0.007328
0.00728793
0.00727144
0.00727144
0.00749319
0.00750788
0.00754397
0.00754229
0.0074498
)
;
    }
}


// ************************************************************************* //
