/*--------------------------------*- C++ -*----------------------------------*\
| =========                 |                                                 |
| \\      /  F ield         | OpenFOAM: The Open Source CFD Toolbox           |
|  \\    /   O peration     | Version:  2212                                  |
|   \\  /    A nd           | Website:  www.openfoam.com                      |
|    \\/     M anipulation  |                                                 |
\*---------------------------------------------------------------------------*/
FoamFile
{
    version     2.0;
    format      ascii;
    arch        "LSB;label=32;scalar=64";
    class       surfaceScalarField;
    location    "1.75";
    object      phi;
}
// * * * * * * * * * * * * * * * * * * * * * * * * * * * * * * * * * * * * * //

dimensions      [0 3 -1 0 0 0 0];

oriented        oriented;

internalField   nonuniform List<scalar> 
1795
(
1.85989e-07
3.88247e-09
3.89087e-09
1.79331e-07
3.32207e-09
3.33649e-09
1.73486e-07
2.91012e-09
2.93465e-09
1.68286e-07
2.57951e-09
2.62008e-09
1.63617e-07
2.30122e-09
2.3686e-09
1.5938e-07
2.06204e-09
2.17483e-09
1.83896e-09
2.04033e-09
4.9091e-07
1.07997e-08
6.84672e-09
4.7867e-07
9.9474e-09
5.61455e-09
4.67558e-07
9.23746e-09
4.78522e-09
4.57329e-07
8.61291e-09
4.19566e-09
4.47825e-07
8.05361e-09
3.75165e-09
4.38916e-07
7.54895e-09
3.42141e-09
7.09233e-09
3.17435e-09
7.98734e-07
1.2684e-08
1.11241e-08
7.86638e-07
1.19013e-08
1.01421e-08
7.75458e-07
1.10659e-08
9.35218e-09
7.65044e-07
1.02736e-08
8.75316e-09
7.55231e-07
9.54901e-09
8.31769e-09
7.45862e-07
8.90873e-09
8.0091e-09
8.3587e-09
7.78974e-09
1.02281e-06
7.57665e-09
1.21127e-08
1.01597e-06
7.40574e-09
1.13417e-08
1.0092e-06
7.14531e-09
1.06868e-08
1.00254e-06
6.74493e-09
1.0191e-08
9.95949e-07
6.31158e-09
9.82783e-09
9.89362e-07
5.92383e-09
9.57174e-09
5.60747e-09
9.40914e-09
1.13403e-06
1.11754e-11
1.13014e-08
1.13078e-06
1.8521e-11
1.06386e-08
1.12772e-06
3.05255e-11
1.01706e-08
1.12455e-06
5.00559e-11
9.86458e-09
1.12114e-06
8.17681e-11
9.64198e-09
1.11743e-06
1.33216e-10
9.49922e-09
2.16353e-10
9.44147e-09
1.13405e-06
-7.55967e-09
1.12978e-08
1.13081e-06
-7.3771e-09
1.06324e-08
1.12778e-06
-7.09814e-09
1.01605e-08
1.12465e-06
-6.66809e-09
9.84857e-09
1.1213e-06
-6.18592e-09
9.61582e-09
1.1177e-06
-5.71787e-09
9.45537e-09
9.36865e-09
1.02286e-06
-1.26807e-08
1.2106e-08
1.01605e-06
-1.18956e-08
1.13307e-08
1.00934e-06
-1.10564e-08
1.06684e-08
1.00277e-06
-1.02578e-08
1.01592e-08
9.96333e-07
-9.5218e-09
9.77526e-09
-8.85983e-09
9.48359e-09
7.98776e-07
-1.08076e-08
1.1118e-08
7.86709e-07
-9.96053e-09
1.01321e-08
7.75576e-07
-9.25968e-09
9.33594e-09
7.65243e-07
-8.65042e-09
8.72599e-09
7.55564e-07
-8.11475e-09
8.27137e-09
-7.64534e-09
7.92989e-09
4.90924e-07
-3.89089e-09
6.84139e-09
4.78694e-07
-3.33651e-09
5.60569e-09
4.67599e-07
-2.93468e-09
4.77016e-09
4.57401e-07
-2.62013e-09
4.16753e-09
4.47952e-07
-2.36868e-09
3.70333e-09
-2.17488e-09
3.34047e-09
1.85989e-07
3.88245e-09
1.79331e-07
3.32205e-09
1.73486e-07
2.9101e-09
1.68286e-07
2.57948e-09
1.63617e-07
2.30116e-09
2.06194e-09
4.90924e-07
6.84141e-09
1.08075e-08
4.78694e-07
5.60571e-09
9.96045e-09
4.67599e-07
4.77018e-09
9.25957e-09
4.57401e-07
4.16757e-09
8.65026e-09
4.47952e-07
3.70343e-09
8.11452e-09
4.39141e-07
3.34072e-09
7.64503e-09
3.06741e-09
7.2449e-09
8.54714e-07
1.21884e-08
1.21969e-08
8.45243e-07
1.03387e-08
1.03534e-08
8.36846e-07
8.96335e-09
8.98871e-09
8.29334e-07
7.91601e-09
7.95921e-09
8.2251e-07
7.10387e-09
7.17549e-09
8.16229e-07
6.46273e-09
6.5803e-09
5.92714e-09
6.1172e-09
1.14452e-06
1.38965e-08
1.53393e-08
1.13905e-06
1.23012e-08
1.36457e-08
1.13416e-06
1.09118e-08
1.2295e-08
1.12983e-06
9.76759e-09
1.12307e-08
1.12601e-06
8.83626e-09
1.04059e-08
1.12264e-06
8.07258e-09
9.77529e-09
7.4332e-09
9.29501e-09
1.35453e-06
9.06288e-09
1.68191e-08
1.35448e-06
8.22131e-09
1.54755e-08
1.35438e-06
7.4413e-09
1.42514e-08
1.3543e-06
6.76141e-09
1.32779e-08
1.35426e-06
6.18013e-09
1.2523e-08
1.35427e-06
5.69158e-09
1.19475e-08
5.289e-09
1.15267e-08
1.46194e-06
9.09058e-12
1.64333e-08
1.46525e-06
1.49773e-11
1.55416e-08
1.46818e-06
2.53705e-11
1.46519e-08
1.47094e-06
4.27704e-11
1.38272e-08
1.47358e-06
7.04955e-11
1.31065e-08
1.4761e-06
1.1426e-10
1.25602e-08
1.81273e-10
1.2202e-08
1.46196e-06
-9.05146e-09
1.64283e-08
1.46528e-06
-8.20234e-09
1.55338e-08
1.46823e-06
-7.40755e-09
1.46394e-08
1.47102e-06
-6.70293e-09
1.38065e-08
1.47372e-06
-6.08396e-09
1.30716e-08
1.47632e-06
-5.53643e-09
1.25009e-08
1.21037e-08
1.35457e-06
-1.38972e-08
1.6808e-08
1.35455e-06
-1.23024e-08
1.54581e-08
1.3545e-06
-1.09139e-08
1.42229e-08
1.3545e-06
-9.77095e-09
1.32294e-08
1.35459e-06
-8.84311e-09
1.2442e-08
-8.08473e-09
1.18137e-08
1.14455e-06
-1.2197e-08
1.53283e-08
1.13911e-06
-1.03535e-08
1.36269e-08
1.13425e-06
-8.9889e-09
1.22638e-08
1.12999e-06
-7.95944e-09
1.11792e-08
1.12627e-06
-7.17572e-09
1.03209e-08
-6.5805e-09
9.63527e-09
8.54714e-07
-6.8468e-09
1.21884e-08
8.45243e-07
-5.61466e-09
1.03387e-08
8.36846e-07
-4.78537e-09
8.9633e-09
8.29334e-07
-4.19585e-09
7.91592e-09
8.2251e-07
-3.75183e-09
7.10367e-09
-3.42154e-09
6.46224e-09
4.9091e-07
1.07997e-08
4.7867e-07
9.9473e-09
4.67558e-07
9.23735e-09
4.57329e-07
8.61277e-09
4.47824e-07
8.05342e-09
7.54871e-09
7.98776e-07
1.1118e-08
1.26806e-08
7.86709e-07
1.01321e-08
1.18954e-08
7.75576e-07
9.33595e-09
1.10562e-08
7.65243e-07
8.726e-09
1.02576e-08
7.55565e-07
8.27137e-09
9.52149e-09
7.4642e-07
7.92978e-09
8.85946e-09
7.65656e-09
8.26702e-09
1.14455e-06
1.53283e-08
1.3897e-08
1.13911e-06
1.3627e-08
1.23022e-08
1.13425e-06
1.22639e-08
1.09137e-08
1.12999e-06
1.11793e-08
9.77065e-09
1.12627e-06
1.0321e-08
8.84275e-09
1.12306e-06
9.63543e-09
8.08419e-09
9.06534e-09
7.45825e-09
1.41149e-06
1.50454e-08
1.50523e-08
1.41174e-06
1.35027e-08
1.3514e-08
1.41195e-06
1.2167e-08
1.21852e-08
1.41227e-06
1.10302e-08
1.10595e-08
1.4128e-06
1.00769e-08
1.01244e-08
1.41357e-06
9.28097e-09
9.35796e-09
8.60971e-09
8.73471e-09
1.60004e-06
9.34783e-09
1.54567e-08
1.60617e-06
8.48644e-09
1.43609e-08
1.61163e-06
7.68131e-09
1.3276e-08
1.61666e-06
6.98053e-09
1.22987e-08
1.62142e-06
6.38712e-09
1.14595e-08
1.626e-06
5.8851e-09
1.07644e-08
5.4613e-09
1.02087e-08
1.69656e-06
4.82497e-12
1.49554e-08
1.7063e-06
7.87316e-12
1.42795e-08
1.71512e-06
1.29916e-11
1.35018e-08
1.72319e-06
2.12409e-11
1.27114e-08
1.73068e-06
3.40483e-11
1.19742e-08
1.73773e-06
5.33599e-11
1.13361e-08
8.18831e-11
1.08186e-08
1.69657e-06
-9.34435e-09
1.49509e-08
1.70632e-06
-8.48065e-09
1.42725e-08
1.71516e-06
-7.67102e-09
1.34907e-08
1.72325e-06
-6.96258e-09
1.26933e-08
1.73077e-06
-6.35759e-09
1.19449e-08
1.73788e-06
-5.83847e-09
1.12888e-08
1.07433e-08
1.60007e-06
-1.50525e-08
1.54472e-08
1.60621e-06
-1.35143e-08
1.43459e-08
1.6117e-06
-1.21855e-08
1.32524e-08
1.61676e-06
-1.10599e-08
1.22609e-08
1.62157e-06
-1.01248e-08
1.13985e-08
-9.35858e-09
1.06659e-08
1.41149e-06
-1.53394e-08
1.50454e-08
1.41174e-06
-1.36459e-08
1.35026e-08
1.41195e-06
-1.22952e-08
1.21669e-08
1.41227e-06
-1.1231e-08
1.10301e-08
1.4128e-06
-1.04062e-08
1.00766e-08
-9.77556e-09
9.28061e-09
1.14452e-06
-1.11242e-08
1.38965e-08
1.13905e-06
-1.01422e-08
1.23012e-08
1.13416e-06
-9.35234e-09
1.09117e-08
1.12983e-06
-8.75335e-09
9.76743e-09
1.12601e-06
-8.31792e-09
8.83599e-09
-8.00932e-09
8.07205e-09
7.98734e-07
1.26839e-08
7.86638e-07
1.19011e-08
7.75458e-07
1.10657e-08
7.65044e-07
1.02734e-08
7.5523e-07
9.54869e-09
8.90828e-09
1.02286e-06
1.2106e-08
7.55956e-09
1.01605e-06
1.13307e-08
7.37695e-09
1.00934e-06
1.06684e-08
7.09793e-09
1.00277e-06
1.01592e-08
6.66782e-09
9.96333e-07
9.7752e-09
6.18557e-09
9.89992e-07
9.48339e-09
5.71744e-09
9.25964e-09
5.26768e-09
1.35457e-06
1.6808e-08
9.05128e-09
1.35455e-06
1.54581e-08
8.2021e-09
1.3545e-06
1.4223e-08
7.40724e-09
1.3545e-06
1.32294e-08
6.70254e-09
1.35459e-06
1.2442e-08
6.08347e-09
1.35481e-06
1.18136e-08
5.53578e-09
1.13086e-08
5.04605e-09
1.60007e-06
1.54472e-08
9.34409e-09
1.60621e-06
1.4346e-08
8.48032e-09
1.6117e-06
1.32524e-08
7.67061e-09
1.61676e-06
1.2261e-08
6.96207e-09
1.62157e-06
1.13986e-08
6.35697e-09
1.62624e-06
1.06661e-08
5.8377e-09
1.00497e-08
5.38927e-09
1.77033e-06
9.20283e-09
9.20556e-09
1.7818e-06
8.61868e-09
8.62279e-09
1.79233e-06
7.9959e-09
8.00213e-09
1.80208e-06
7.39904e-09
7.40874e-09
1.8112e-06
6.86011e-09
6.87565e-09
1.81983e-06
6.38957e-09
6.41489e-09
5.98589e-09
6.02732e-09
1.85772e-06
4.39283e-13
8.83552e-09
1.87216e-06
8.7298e-13
8.46118e-09
1.88564e-06
1.57232e-12
8.01506e-09
1.8982e-06
2.57932e-12
7.54836e-09
1.90993e-06
3.89251e-12
7.09812e-09
1.92096e-06
5.42857e-12
6.68854e-09
7.08551e-12
6.33308e-09
1.85773e-06
-9.20587e-09
8.83327e-09
1.87217e-06
-8.62318e-09
8.45773e-09
1.88565e-06
-8.00263e-09
8.00972e-09
1.89822e-06
-7.40935e-09
7.54005e-09
1.90996e-06
-6.8764e-09
7.08514e-09
1.921e-06
-6.41582e-09
6.66829e-09
6.30162e-09
1.77033e-06
-1.5457e-08
9.20281e-09
1.7818e-06
-1.43612e-08
8.61865e-09
1.79233e-06
-1.32764e-08
7.99585e-09
1.80208e-06
-1.22991e-08
7.39896e-09
1.8112e-06
-1.14601e-08
6.85999e-09
-1.07652e-08
6.38941e-09
1.60004e-06
-1.68193e-08
9.34779e-09
1.60617e-06
-1.54757e-08
8.48638e-09
1.61163e-06
-1.42517e-08
7.68122e-09
1.61666e-06
-1.32782e-08
6.98039e-09
1.62142e-06
-1.25234e-08
6.38692e-09
-1.19479e-08
5.88482e-09
1.35453e-06
-1.21128e-08
9.06281e-09
1.35448e-06
-1.13418e-08
8.22123e-09
1.35438e-06
-1.0687e-08
7.44118e-09
1.3543e-06
-1.01911e-08
6.76122e-09
1.35426e-06
-9.82804e-09
6.17986e-09
-9.57192e-09
5.69117e-09
1.02281e-06
7.5765e-09
1.01597e-06
7.40556e-09
1.0092e-06
7.14508e-09
1.00254e-06
6.74463e-09
9.95949e-07
6.31121e-09
5.92332e-09
1.13405e-06
1.12978e-08
-1.12781e-11
1.13081e-06
1.06325e-08
-1.86681e-11
1.12778e-06
1.01605e-08
-3.07314e-11
1.12465e-06
9.84856e-09
-5.03388e-11
1.1213e-06
9.61577e-09
-8.21501e-11
1.1177e-06
9.45526e-09
-1.33726e-10
9.36835e-09
-2.17053e-10
1.46196e-06
1.64283e-08
-9.28444e-12
1.46528e-06
1.55339e-08
-1.52407e-11
1.46823e-06
1.46394e-08
-2.57187e-11
1.47102e-06
1.38065e-08
-4.32182e-11
1.47372e-06
1.30716e-08
-7.10641e-11
1.47632e-06
1.25009e-08
-1.14973e-10
1.21037e-08
-1.82139e-10
1.69657e-06
1.49509e-08
-5.09327e-12
1.70632e-06
1.42725e-08
-8.22264e-12
1.71516e-06
1.34907e-08
-1.34372e-11
1.72325e-06
1.26934e-08
-2.17967e-11
1.73077e-06
1.1945e-08
-3.47268e-11
1.73788e-06
1.1289e-08
-5.41714e-11
1.07436e-08
-8.28341e-11
1.85773e-06
8.83329e-09
-7.59067e-13
1.87217e-06
8.45776e-09
-1.28033e-12
1.88565e-06
8.00977e-09
-2.08413e-12
1.89822e-06
7.54012e-09
-3.21221e-12
1.90996e-06
7.08525e-09
-4.66198e-12
1.921e-06
6.66845e-09
-6.35375e-12
6.30185e-09
-8.19785e-12
1.9405e-06
-6.22624e-13
2.90881e-13
1.95742e-06
-8.77189e-13
4.59572e-13
1.97345e-06
-1.254e-12
7.34302e-13
1.98854e-06
-1.82797e-12
1.1915e-12
2.00272e-06
-2.71822e-12
1.95209e-12
2.01608e-06
-4.11248e-12
3.19937e-12
-6.28277e-12
5.18808e-12
1.9405e-06
-8.83586e-09
-6.02081e-13
1.95742e-06
-8.4616e-09
-8.58414e-13
1.97345e-06
-8.01559e-09
-1.23852e-12
1.98854e-06
-7.54901e-09
-1.82094e-12
2.00272e-06
-7.09892e-09
-2.72865e-12
2.01608e-06
-6.68953e-09
-4.14939e-12
-6.33841e-12
1.85772e-06
-1.49556e-08
4.52817e-13
1.87216e-06
-1.42798e-08
8.85082e-13
1.88564e-06
-1.35023e-08
1.58136e-12
1.8982e-06
-1.27119e-08
2.58254e-12
1.90993e-06
-1.19749e-08
3.88335e-12
-1.1337e-08
5.40332e-12
1.69656e-06
-1.64335e-08
4.80869e-12
1.7063e-06
-1.55418e-08
7.84656e-12
1.71512e-06
-1.46522e-08
1.29486e-11
1.72319e-06
-1.38275e-08
2.11771e-11
1.73068e-06
-1.31069e-08
3.39577e-11
-1.25608e-08
5.32413e-11
1.46194e-06
-1.13015e-08
9.02111e-12
1.46524e-06
-1.06386e-08
1.4885e-11
1.46818e-06
-1.01707e-08
2.52431e-11
1.47094e-06
-9.86473e-09
4.25911e-11
1.47358e-06
-9.64216e-09
7.02503e-11
-9.49941e-09
1.13928e-10
1.13403e-06
1.10367e-11
1.13078e-06
1.83449e-11
1.12772e-06
3.03046e-11
1.12455e-06
4.97755e-11
1.12114e-06
8.14129e-11
1.3276e-10
1.13403e-06
1.13015e-08
-7.57674e-09
1.13078e-06
1.06386e-08
-7.40587e-09
1.12772e-06
1.01706e-08
-7.1455e-09
1.12455e-06
9.86466e-09
-6.74519e-09
1.12114e-06
9.64208e-09
-6.31195e-09
1.11743e-06
9.49933e-09
-5.92434e-09
9.44157e-09
-5.60818e-09
1.46194e-06
1.64333e-08
-9.06304e-09
1.46524e-06
1.55417e-08
-8.22154e-09
1.46818e-06
1.4652e-08
-7.44161e-09
1.47094e-06
1.38273e-08
-6.76181e-09
1.47358e-06
1.31066e-08
-6.18065e-09
1.4761e-06
1.25604e-08
-5.69225e-09
1.22022e-08
-5.28988e-09
1.69656e-06
1.49554e-08
-9.34805e-09
1.7063e-06
1.42795e-08
-8.48674e-09
1.71512e-06
1.3502e-08
-7.6817e-09
1.72319e-06
1.27115e-08
-6.98102e-09
1.73068e-06
1.19744e-08
-6.38775e-09
1.73773e-06
1.13363e-08
-5.88587e-09
1.0819e-08
-5.46223e-09
1.85772e-06
8.83555e-09
-9.2031e-09
1.87216e-06
8.46123e-09
-8.61902e-09
1.88564e-06
8.01514e-09
-7.99633e-09
1.8982e-06
7.54847e-09
-7.39958e-09
1.90993e-06
7.09829e-09
-6.86079e-09
1.92096e-06
6.68877e-09
-6.39039e-09
6.33337e-09
-5.98688e-09
1.9405e-06
2.88836e-13
-8.83356e-09
1.95742e-06
4.66064e-13
-8.4581e-09
1.97345e-06
7.5353e-13
-8.0102e-09
1.98854e-06
1.23223e-12
-7.54064e-09
2.00272e-06
2.02879e-12
-7.08588e-09
2.01608e-06
3.32301e-12
-6.66921e-09
5.35077e-12
-6.30275e-09
1.9405e-06
-8.8336e-09
-8.83581e-09
1.95742e-06
-8.45815e-09
-8.46154e-09
1.97345e-06
-8.01024e-09
-8.01551e-09
1.98854e-06
-7.54069e-09
-7.54892e-09
2.00272e-06
-7.08592e-09
-7.09881e-09
2.01608e-06
-6.66923e-09
-6.68939e-09
-6.33411e-09
1.85773e-06
-1.49512e-08
-9.20583e-09
1.87216e-06
-1.42728e-08
-8.62313e-09
1.88565e-06
-1.34911e-08
-8.00256e-09
1.89821e-06
-1.26939e-08
-7.40926e-09
1.90995e-06
-1.19456e-08
-6.8763e-09
-1.12898e-08
-6.41569e-09
1.69657e-06
-1.64284e-08
-9.34434e-09
1.70632e-06
-1.55341e-08
-8.48064e-09
1.71516e-06
-1.46396e-08
-7.67101e-09
1.72325e-06
-1.38068e-08
-6.96256e-09
1.73077e-06
-1.30721e-08
-6.35757e-09
-1.25016e-08
-5.83844e-09
1.46196e-06
-1.12979e-08
-9.05151e-09
1.46528e-06
-1.06325e-08
-8.20241e-09
1.46823e-06
-1.01606e-08
-7.40765e-09
1.47102e-06
-9.84873e-09
-6.70307e-09
1.47372e-06
-9.61601e-09
-6.08413e-09
-9.45564e-09
-5.53665e-09
1.13405e-06
-7.55978e-09
1.13081e-06
-7.37725e-09
1.12778e-06
-7.09831e-09
1.12465e-06
-6.66831e-09
1.1213e-06
-6.1862e-09
-5.71822e-09
1.02281e-06
1.21127e-08
-1.26841e-08
1.01597e-06
1.13418e-08
-1.19014e-08
1.0092e-06
1.06869e-08
-1.1066e-08
1.00254e-06
1.01911e-08
-1.02738e-08
9.95948e-07
9.82798e-09
-9.54927e-09
9.89361e-07
9.57194e-09
-8.90911e-09
9.40943e-09
-8.35928e-09
1.35453e-06
1.68192e-08
-1.38966e-08
1.35448e-06
1.54756e-08
-1.23014e-08
1.35438e-06
1.42516e-08
-1.0912e-08
1.3543e-06
1.3278e-08
-9.76789e-09
1.35426e-06
1.25233e-08
-8.83668e-09
1.35427e-06
1.19477e-08
-8.07312e-09
1.15271e-08
-7.43394e-09
1.60004e-06
1.54568e-08
-1.50455e-08
1.60617e-06
1.4361e-08
-1.35029e-08
1.61163e-06
1.32761e-08
-1.21673e-08
1.61666e-06
1.22988e-08
-1.10306e-08
1.62142e-06
1.14598e-08
-1.00774e-08
1.62599e-06
1.07648e-08
-9.28161e-09
1.02091e-08
-8.61052e-09
1.77033e-06
9.20562e-09
-1.54474e-08
1.7818e-06
8.62288e-09
-1.43462e-08
1.79233e-06
8.00226e-09
-1.32528e-08
1.80208e-06
7.40892e-09
-1.22614e-08
1.8112e-06
6.87591e-09
-1.13991e-08
1.81983e-06
6.41523e-09
-1.06667e-08
6.02774e-09
-1.00505e-08
1.85773e-06
-7.28859e-13
-1.49511e-08
1.87216e-06
-1.22882e-12
-1.42728e-08
1.88565e-06
-2.00257e-12
-1.3491e-08
1.89822e-06
-3.08736e-12
-1.26938e-08
1.90996e-06
-4.4748e-12
-1.19455e-08
1.921e-06
-6.09221e-12
-1.12895e-08
-7.87268e-12
-1.07442e-08
1.8424e-06
-9.65511e-09
-1.54285e-08
1.85772e-06
-9.20311e-09
-1.49556e-08
1.87216e-06
-8.61903e-09
-1.42798e-08
1.88564e-06
-7.99632e-09
-1.35022e-08
1.8982e-06
-7.39954e-09
-1.27118e-08
1.90993e-06
-6.8607e-09
-1.19746e-08
1.92096e-06
-6.39025e-09
-1.13367e-08
-1.08194e-08
1.75783e-06
-1.63779e-08
-1.63838e-08
1.77033e-06
-1.54474e-08
-1.5457e-08
1.7818e-06
-1.43462e-08
-1.43612e-08
1.79233e-06
-1.32528e-08
-1.32763e-08
1.80208e-06
-1.22614e-08
-1.2299e-08
1.8112e-06
-1.13991e-08
-1.146e-08
-1.06668e-08
-1.07649e-08
1.593e-06
-1.8099e-08
-1.67223e-08
1.60007e-06
-1.68081e-08
-1.50525e-08
1.60621e-06
-1.54583e-08
-1.35142e-08
1.6117e-06
-1.42232e-08
-1.21855e-08
1.61676e-06
-1.32297e-08
-1.10599e-08
1.62157e-06
-1.24425e-08
-1.01247e-08
-1.18143e-08
-9.3584e-09
1.35443e-06
-1.29718e-08
-1.56926e-08
1.35457e-06
-1.21061e-08
-1.38972e-08
1.35455e-06
-1.13309e-08
-1.23024e-08
1.3545e-06
-1.06685e-08
-1.0914e-08
1.3545e-06
-1.01594e-08
-9.77099e-09
1.35459e-06
-9.77549e-09
-8.84313e-09
-9.48387e-09
-8.08471e-09
1.02985e-06
-1.33827e-08
1.02286e-06
-1.26807e-08
1.01605e-06
-1.18957e-08
1.00934e-06
-1.10565e-08
1.00277e-06
-1.02579e-08
9.96331e-07
-9.52193e-09
-8.85999e-09
7.98734e-07
1.11241e-08
-1.07998e-08
7.86638e-07
1.01421e-08
-9.94743e-09
7.75457e-07
9.35223e-09
-9.2375e-09
7.65043e-07
8.75323e-09
-8.61297e-09
7.5523e-07
8.3178e-09
-8.05371e-09
7.45861e-07
8.00925e-09
-7.54912e-09
7.79e-09
-7.09265e-09
1.14452e-06
1.53393e-08
-1.21885e-08
1.13905e-06
1.36457e-08
-1.03388e-08
1.13416e-06
1.22951e-08
-8.96349e-09
1.12983e-06
1.12309e-08
-7.91621e-09
1.12601e-06
1.04061e-08
-7.10415e-09
1.12264e-06
9.7756e-09
-6.46311e-09
9.29543e-09
-5.92762e-09
1.41149e-06
1.50524e-08
-1.53284e-08
1.41174e-06
1.35141e-08
-1.36271e-08
1.41195e-06
1.21853e-08
-1.2264e-08
1.41227e-06
1.10598e-08
-1.11795e-08
1.41279e-06
1.01247e-08
-1.03214e-08
1.41357e-06
9.35837e-09
-9.63588e-09
8.73524e-09
-9.06595e-09
1.60007e-06
9.34416e-09
-1.68081e-08
1.60621e-06
8.48044e-09
-1.54583e-08
1.6117e-06
7.67078e-09
-1.42231e-08
1.61676e-06
6.96232e-09
-1.32296e-08
1.62157e-06
6.35732e-09
-1.24423e-08
1.62624e-06
5.83816e-09
-1.18141e-08
5.38986e-09
-1.13092e-08
1.69657e-06
-5.03806e-12
-1.64284e-08
1.70632e-06
-8.13046e-12
-1.5534e-08
1.71516e-06
-1.3293e-11
-1.46395e-08
1.72325e-06
-2.15817e-11
-1.38067e-08
1.73077e-06
-3.44209e-11
-1.30718e-08
1.73787e-06
-5.37604e-11
-1.25011e-08
-8.23285e-11
-1.2104e-08
1.68574e-06
-1.0154e-08
-1.71515e-08
1.69656e-06
-9.34805e-09
-1.64335e-08
1.7063e-06
-8.48671e-09
-1.55418e-08
1.71512e-06
-7.68163e-09
-1.46521e-08
1.72319e-06
-6.9809e-09
-1.38274e-08
1.73068e-06
-6.38754e-09
-1.31067e-08
1.73773e-06
-5.88558e-09
-1.25605e-08
-1.22021e-08
1.59298e-06
-1.67179e-08
-1.81061e-08
1.60004e-06
-1.50456e-08
-1.68193e-08
1.60617e-06
-1.35029e-08
-1.54757e-08
1.61163e-06
-1.21672e-08
-1.42517e-08
1.61666e-06
-1.10305e-08
-1.32781e-08
1.62142e-06
-1.00772e-08
-1.25233e-08
-9.28142e-09
-1.19476e-08
1.41092e-06
-1.7425e-08
-1.74315e-08
1.41149e-06
-1.53284e-08
-1.53395e-08
1.41174e-06
-1.36271e-08
-1.36459e-08
1.41195e-06
-1.22641e-08
-1.22952e-08
1.41227e-06
-1.11795e-08
-1.12309e-08
1.41279e-06
-1.03213e-08
-1.04061e-08
-9.63586e-09
-9.7754e-09
1.15046e-06
-1.23405e-08
-1.47049e-08
1.14455e-06
-1.1118e-08
-1.21971e-08
1.13911e-06
-1.01322e-08
-1.03535e-08
1.13425e-06
-9.33604e-09
-8.9889e-09
1.12999e-06
-8.72612e-09
-7.9594e-09
1.12627e-06
-8.27156e-09
-7.17565e-09
-7.93014e-09
-6.58036e-09
8.11767e-07
-1.19566e-08
7.98775e-07
-1.08076e-08
7.86708e-07
-9.96056e-09
7.75575e-07
-9.2597e-09
7.65242e-07
-8.65042e-09
7.55563e-07
-8.11474e-09
-7.64535e-09
4.9091e-07
6.84673e-09
-3.88247e-09
4.7867e-07
5.61458e-09
-3.32207e-09
4.67557e-07
4.78527e-09
-2.91012e-09
4.57328e-07
4.19574e-09
-2.57953e-09
4.47824e-07
3.75178e-09
-2.30126e-09
4.38915e-07
3.42159e-09
-2.06212e-09
3.17456e-09
-1.83908e-09
8.54714e-07
1.2197e-08
-6.84141e-09
8.45242e-07
1.03534e-08
-5.60572e-09
8.36845e-07
8.98882e-09
-4.77022e-09
8.29333e-07
7.95936e-09
-4.16764e-09
8.22509e-07
7.17571e-09
-3.70354e-09
8.16228e-07
6.5806e-09
-3.34089e-09
6.11758e-09
-3.06758e-09
1.14455e-06
1.38971e-08
-1.1118e-08
1.13911e-06
1.23023e-08
-1.01321e-08
1.13425e-06
1.09138e-08
-9.336e-09
1.12999e-06
9.77087e-09
-8.72608e-09
1.12627e-06
8.84306e-09
-8.27149e-09
1.12306e-06
8.08462e-09
-7.92996e-09
7.45882e-09
-7.65686e-09
1.35457e-06
9.05136e-09
-1.21061e-08
1.35455e-06
8.20223e-09
-1.13308e-08
1.3545e-06
7.40743e-09
-1.06685e-08
1.3545e-06
6.70283e-09
-1.01593e-08
1.35459e-06
6.08387e-09
-9.77535e-09
1.35481e-06
5.53634e-09
-9.48361e-09
5.04681e-09
-9.25997e-09
1.46196e-06
-9.2057e-12
-1.12979e-08
1.46528e-06
-1.51187e-11
-1.06325e-08
1.46823e-06
-2.55338e-11
-1.01606e-08
1.47102e-06
-4.29451e-11
-9.84863e-09
1.47372e-06
-7.06734e-11
-9.61586e-09
1.47632e-06
-1.1443e-10
-9.45538e-09
-1.81412e-10
-9.36852e-09
1.45802e-06
-9.90249e-09
-1.20969e-08
1.46194e-06
-9.063e-09
-1.13015e-08
1.46524e-06
-8.22147e-09
-1.06386e-08
1.46818e-06
-7.44149e-09
-1.01707e-08
1.47094e-06
-6.76163e-09
-9.86468e-09
1.47358e-06
-6.18038e-09
-9.64207e-09
1.4761e-06
-5.69186e-09
-9.49926e-09
-9.44141e-09
1.3544e-06
-1.56918e-08
-1.29758e-08
1.35453e-06
-1.38967e-08
-1.21128e-08
1.35448e-06
-1.23014e-08
-1.13418e-08
1.35438e-06
-1.0912e-08
-1.0687e-08
1.3543e-06
-9.76781e-09
-1.01911e-08
1.35426e-06
-8.83651e-09
-9.82799e-09
-8.07277e-09
-9.57186e-09
1.15044e-06
-1.46996e-08
-1.2344e-08
1.14452e-06
-1.21885e-08
-1.11242e-08
1.13905e-06
-1.03388e-08
-1.01422e-08
1.13416e-06
-8.96349e-09
-9.35232e-09
1.12983e-06
-7.9162e-09
-8.75331e-09
1.12601e-06
-7.10405e-09
-8.31786e-09
-6.46275e-09
-8.00924e-09
8.65411e-07
-8.71011e-09
-8.71345e-09
8.54714e-07
-6.84145e-09
-6.84679e-09
8.45242e-07
-5.60576e-09
-5.61463e-09
8.36845e-07
-4.77026e-09
-4.78531e-09
8.29333e-07
-4.16767e-09
-4.19576e-09
8.22509e-07
-3.70353e-09
-3.75171e-09
-3.34072e-09
-3.42135e-09
5.04682e-07
-4.71794e-09
4.90924e-07
-3.89092e-09
4.78694e-07
-3.33654e-09
4.67599e-07
-2.9347e-09
4.57401e-07
-2.62014e-09
4.47951e-07
-2.36866e-09
-2.17484e-09
1.85989e-07
3.89088e-09
1.79331e-07
3.33651e-09
1.73486e-07
2.93467e-09
1.68286e-07
2.62011e-09
1.63616e-07
2.36865e-09
1.59379e-07
2.17491e-09
2.04042e-09
4.90924e-07
1.08076e-08
4.78694e-07
9.96051e-09
4.67599e-07
9.25965e-09
4.57401e-07
8.65037e-09
4.47951e-07
8.11467e-09
4.3914e-07
7.64524e-09
7.24522e-09
7.98776e-07
1.26807e-08
7.86708e-07
1.18956e-08
7.75576e-07
1.10563e-08
7.65242e-07
1.02578e-08
7.55564e-07
9.52176e-09
7.46419e-07
8.85983e-09
8.26754e-09
1.02286e-06
7.55969e-09
1.01605e-06
7.37711e-09
1.00934e-06
7.09813e-09
1.00277e-06
6.66808e-09
9.96332e-07
6.18592e-09
9.8999e-07
5.71793e-09
5.26836e-09
1.13405e-06
-1.11408e-11
1.13081e-06
-1.85002e-11
1.12778e-06
-3.05189e-11
1.12465e-06
-5.00654e-11
1.1213e-06
-8.17865e-11
1.1177e-06
-1.33235e-10
-2.16355e-10
1.13776e-06
-7.80011e-09
1.13403e-06
-7.57661e-09
1.13078e-06
-7.40573e-09
1.12772e-06
-7.14532e-09
1.12455e-06
-6.74497e-09
1.12114e-06
-6.31167e-09
1.11743e-06
-5.92397e-09
1.02982e-06
-1.33846e-08
1.02281e-06
-1.2684e-08
1.01597e-06
-1.19013e-08
1.0092e-06
-1.10659e-08
1.00254e-06
-1.02737e-08
9.95948e-07
-9.54914e-09
-8.90895e-09
8.11742e-07
-1.19518e-08
7.98734e-07
-1.07997e-08
7.86638e-07
-9.94739e-09
7.75457e-07
-9.23748e-09
7.65043e-07
-8.61298e-09
7.5523e-07
-8.05374e-09
-7.54919e-09
5.04674e-07
-4.7131e-09
4.9091e-07
-3.88244e-09
4.7867e-07
-3.32204e-09
4.67557e-07
-2.91011e-09
4.57328e-07
-2.57952e-09
4.47824e-07
-2.30125e-09
-2.06208e-09
1.93763e-07
1.85989e-07
1.79331e-07
1.73486e-07
1.68286e-07
1.63616e-07
)
;

boundaryField
{
    inlet
    {
        type            calculated;
        value           nonuniform List<scalar> 0();
    }
    ami1
    {
        type            cyclicAMI;
        value           nonuniform List<scalar> 0();
    }
    walls
    {
        type            calculated;
        value           uniform 0;
    }
    ami2
    {
        type            cyclicAMI;
        value           nonuniform List<scalar> 0();
    }
    outlet
    {
        type            calculated;
        value           nonuniform List<scalar> 0();
    }
    procBoundary3to2
    {
        type            processor;
        value           nonuniform List<scalar> 
110
(
1.555e-07
4.30489e-07
7.36806e-07
9.82704e-07
1.11338e-06
1.11382e-06
-5.26827e-09
9.89991e-07
7.4642e-07
4.39141e-07
1.5938e-07
4.30869e-07
8.10426e-07
1.11963e-06
1.35429e-06
1.47844e-06
1.47882e-06
-5.04678e-09
1.35481e-06
1.12306e-06
8.16229e-07
4.38916e-07
7.37742e-07
1.12031e-06
1.41458e-06
1.63046e-06
1.7445e-06
1.74471e-06
-5.39022e-09
1.62624e-06
1.41357e-06
1.12264e-06
7.45862e-07
9.83731e-07
1.35517e-06
1.63085e-06
1.82807e-06
1.93143e-06
1.93147e-06
-6.0285e-09
1.81983e-06
1.62599e-06
1.35427e-06
9.89362e-07
1.11382e-06
1.47882e-06
1.74471e-06
1.93147e-06
2.02872e-06
2.02872e-06
-6.33431e-09
1.92096e-06
1.73773e-06
1.4761e-06
1.11743e-06
1.11338e-06
1.47844e-06
1.7445e-06
1.93143e-06
2.02872e-06
2.02872e-06
-6.30279e-09
1.921e-06
1.73787e-06
1.47632e-06
1.1177e-06
9.82703e-07
1.35429e-06
1.63046e-06
1.82807e-06
1.93147e-06
1.93143e-06
-5.98673e-09
1.81983e-06
1.62624e-06
1.35481e-06
9.89989e-07
7.36804e-07
1.11962e-06
1.41458e-06
1.63084e-06
1.74471e-06
1.7445e-06
-5.46192e-09
1.62599e-06
1.41357e-06
1.12306e-06
7.46418e-07
4.30487e-07
8.10424e-07
1.12031e-06
1.35517e-06
1.47882e-06
1.47844e-06
-5.28939e-09
1.35427e-06
1.12264e-06
8.16228e-07
4.3914e-07
1.555e-07
4.30868e-07
7.3774e-07
9.8373e-07
1.11382e-06
1.11338e-06
-5.60759e-09
9.89362e-07
7.45861e-07
4.38915e-07
1.59379e-07
)
;
    }
    procBoundary3to4
    {
        type            processor;
        value           nonuniform List<scalar> 
109
(
-1.93763e-07
-5.04674e-07
-8.11743e-07
-1.02982e-06
-1.13776e-06
-1.13778e-06
-1.02985e-06
-8.11767e-07
-5.04682e-07
-1.93763e-07
-5.04682e-07
-8.65412e-07
-1.15044e-06
-1.3544e-06
-1.45802e-06
-1.45803e-06
-1.35443e-06
-1.15046e-06
-8.65412e-07
-5.04674e-07
-8.11767e-07
-1.15046e-06
-1.41092e-06
-1.59298e-06
-1.68574e-06
-1.68575e-06
-1.593e-06
-1.41092e-06
-1.15044e-06
-8.11743e-07
-1.02985e-06
-1.35443e-06
-1.593e-06
-1.75783e-06
-1.8424e-06
-1.8424e-06
-1.75783e-06
-1.59298e-06
-1.3544e-06
-1.02982e-06
-1.13778e-06
-1.45803e-06
-1.68575e-06
-1.8424e-06
-1.92284e-06
-1.92284e-06
-1.8424e-06
-1.68574e-06
-1.45802e-06
-1.13776e-06
-1.13776e-06
-1.45802e-06
-1.68574e-06
-1.8424e-06
-1.92284e-06
-1.92284e-06
9.07233e-09
-1.8424e-06
9.65689e-09
-1.68575e-06
1.01517e-08
-1.45803e-06
9.89546e-09
-1.13778e-06
7.79011e-09
-1.02982e-06
-1.3544e-06
-1.59298e-06
-1.75783e-06
-1.8424e-06
4.45479e-13
-1.82639e-06
-1.74438e-06
-1.5847e-06
-1.35376e-06
-1.03723e-06
-8.11742e-07
-1.15044e-06
-1.41092e-06
-1.593e-06
-1.68575e-06
3.2081e-12
-1.67386e-06
-1.5847e-06
-1.4095e-06
-1.15653e-06
-8.25533e-07
-5.04674e-07
-8.65411e-07
-1.15046e-06
-1.35443e-06
-1.45803e-06
5.71933e-12
-1.45318e-06
-1.35374e-06
-1.15652e-06
-8.77392e-07
-5.2063e-07
-1.93763e-07
-5.04682e-07
-8.11767e-07
-1.02985e-06
-1.13778e-06
6.69309e-12
-1.14207e-06
-1.03721e-06
-8.25519e-07
-5.20626e-07
-2.03194e-07
)
;
    }
}


// ************************************************************************* //
