/*--------------------------------*- C++ -*----------------------------------*\
| =========                 |                                                 |
| \\      /  F ield         | OpenFOAM: The Open Source CFD Toolbox           |
|  \\    /   O peration     | Version:  2212                                  |
|   \\  /    A nd           | Website:  www.openfoam.com                      |
|    \\/     M anipulation  |                                                 |
\*---------------------------------------------------------------------------*/
FoamFile
{
    version     2.0;
    format      ascii;
    arch        "LSB;label=32;scalar=64";
    class       volScalarField;
    location    "1.15";
    object      k;
}
// * * * * * * * * * * * * * * * * * * * * * * * * * * * * * * * * * * * * * //

dimensions      [0 2 -2 0 0 0 0];

internalField   nonuniform List<scalar> 
678
(
0.00187047
0.00185089
0.0018345
0.00181895
0.00180544
0.00160722
0.00159148
0.00157547
0.00156139
0.00154739
0.00158464
0.00156606
0.00154916
0.00153369
0.00152095
0.0015349
0.00151679
0.00149897
0.00148292
0.00146697
0.00145296
0.00150794
0.00148971
0.00147177
0.00145481
0.00143813
0.00142377
0.00147918
0.00146074
0.00144203
0.00142254
0.00140468
0.00138945
0.00137731
0.00145046
0.00143139
0.00141191
0.00139284
0.00137577
0.00136108
0.00135057
0.00143146
0.00141287
0.0013946
0.00137705
0.0013608
0.00134608
0.00133458
0.00143531
0.00141774
0.00140075
0.0013846
0.00136978
0.00135591
0.00134553
0.00150179
0.0014853
0.0014691
0.00145455
0.00144134
0.00142771
0.00187062
0.00185079
0.00183445
0.00181888
0.00180475
0.00179255
0.00150279
0.00148623
0.00147003
0.00145554
0.00144216
0.00143411
0.000961587
0.000931611
0.000906587
0.00088406
0.000864337
0.00117386
0.00113384
0.00109749
0.00106279
0.00102946
0.000990738
0.00131574
0.00127123
0.00123039
0.00119205
0.00115339
0.00110986
0.00138863
0.0013428
0.00129971
0.00125826
0.00121596
0.00116845
0.00142313
0.00137998
0.00133116
0.00128436
0.00123713
0.00118454
0.00137755
0.00132729
0.00128008
0.00123498
0.00118961
0.00113881
0.0012577
0.00120813
0.00116252
0.00111799
0.00107463
0.00103379
0.000986043
0.00106884
0.00102805
0.000990345
0.000954888
0.000922085
0.000886149
0.000858029
0.000960694
0.000930707
0.000905596
0.000882801
0.000862299
0.000844677
0.000829465
0.00160746
0.00159171
0.00157554
0.00156122
0.00154837
0.00153527
0.00143651
0.00141886
0.0014018
0.00138559
0.00137069
0.00135757
0.0013494
0.00107109
0.0010304
0.000993421
0.000958467
0.000925122
0.000885291
0.00133426
0.00128057
0.00123062
0.0011835
0.00113717
0.00108503
0.00154192
0.001481
0.00142363
0.00136888
0.001316
0.00125782
0.00166874
0.00160337
0.00154206
0.00148287
0.0014258
0.00136408
0.00171966
0.00165289
0.00158977
0.00152882
0.00146967
0.00140603
0.00168473
0.00161792
0.00155493
0.00149421
0.00143538
0.00137292
0.00154903
0.00148638
0.00142655
0.00136988
0.00131476
0.00125401
0.00133361
0.00127977
0.00122958
0.00118244
0.00113618
0.00108449
0.00117383
0.00113372
0.00109741
0.00106226
0.00102977
0.000998739
0.000964989
0.00158513
0.00156642
0.00154932
0.00153358
0.00151936
0.00150781
0.00143236
0.00141396
0.00139578
0.00137822
0.00136194
0.00134732
0.0013368
0.00125912
0.00120991
0.00116502
0.00112042
0.00107732
0.00103598
0.000989306
0.00154955
0.00148718
0.00142754
0.00137095
0.00131568
0.00125465
0.00179386
0.00172229
0.00165461
0.00158981
0.00152852
0.00146339
0.00194523
0.00186862
0.00179588
0.00172664
0.00166125
0.00159342
0.00200003
0.00192164
0.00184706
0.00177625
0.0017092
0.00164163
0.00195174
0.00187494
0.00180178
0.00173275
0.0016618
0.00179381
0.00172221
0.00165448
0.00158991
0.0015285
0.00146517
0.00154291
0.0014818
0.00142416
0.00136953
0.00131651
0.00125933
0.00131733
0.00127264
0.00123147
0.00119304
0.00115432
0.00111126
0.00153564
0.00151742
0.00149949
0.00148314
0.00146699
0.00145286
0.00145146
0.00143262
0.00141318
0.00139394
0.00137671
0.00136103
0.00137893
0.00132886
0.00128246
0.00123718
0.00119124
0.00114043
0.00168532
0.00161868
0.00155569
0.00149477
0.00143028
0.00195291
0.00187606
0.00180277
0.00173364
0.00166306
0.00212171
0.00203885
0.00195969
0.00188536
0.0018106
0.00218033
0.00209538
0.00201422
0.00193823
0.00186083
0.00212112
0.00203831
0.00195919
0.001885
0.00180911
0.00194563
0.00186905
0.00179615
0.00172748
0.0016564
0.00167027
0.00160469
0.00154325
0.00148362
0.00142015
0.00139059
0.00134458
0.00130163
0.00125861
0.00121013
0.00150868
0.00149033
0.00147223
0.00145502
0.00143836
0.00142798
0.00148011
0.00146174
0.00144269
0.00142281
0.00140498
0.00138827
0.00142523
0.00138112
0.00133307
0.00128424
0.00123847
0.0011877
0.00172231
0.00165543
0.00159084
0.00152453
0.00200256
0.00192364
0.00184854
0.00177336
0.00218191
0.00209646
0.00201523
0.00193498
0.00224321
0.00215599
0.00207254
0.00199453
0.00191661
0.00218025
0.00209532
0.00201413
0.00193813
0.0018607
0.00200047
0.00192209
0.00184732
0.00177706
0.00170446
0.00172077
0.00165382
0.00159052
0.00152923
0.00146381
0.00142388
0.0013805
0.00133198
0.00128416
0.00123015
0.00147952
0.00146106
0.00144227
0.00142206
0.00140099
0.00153072
0.0015103
0.00148953
0.00147174
0.00145397
0.00143838
0.00144209
0.00139311
0.00134684
0.00130264
0.00125794
0.00120986
0.00173978
0.00167021
0.00160487
0.00154221
0.00148201
0.0014197
0.00202686
0.00194538
0.00186835
0.00179501
0.0017264
0.0016562
0.00220931
0.00212102
0.00203755
0.00195832
0.00188417
0.00180971
0.00218143
0.00209605
0.00201425
0.00193797
0.00186044
0.00212117
0.00203834
0.00195903
0.00188473
0.00180868
0.00195173
0.00187488
0.00180154
0.0017326
0.00166101
0.00168529
0.00161837
0.00155511
0.00149401
0.00142875
0.00137844
0.00132817
0.00128106
0.00123484
0.00118235
0.00145017
0.00143113
0.00141153
0.00139184
0.00137352
0.00155652
0.00153663
0.00151676
0.00149883
0.00148136
0.00146537
0.00136514
0.0013185
0.00127494
0.00123127
0.00119106
0.00114536
0.00160678
0.00154176
0.00148053
0.00142176
0.00136587
0.00130607
0.00186889
0.00179247
0.0017205
0.0016517
0.00158731
0.00151948
0.00203322
0.00195111
0.00187372
0.00180005
0.00173104
0.00165961
0.0020016
0.00192275
0.00184724
0.00177651
0.00170365
0.0019454
0.00186876
0.00179558
0.00172675
0.00165536
0.00179309
0.0017215
0.00165349
0.00158911
0.00152149
0.00154834
0.00148576
0.00142593
0.00136855
0.0013064
0.00125721
0.00120754
0.00116194
0.00111692
0.00106349
0.00143064
0.00141189
0.00139327
0.00137562
0.00136022
0.00160306
0.00158293
0.00156454
0.00154756
0.00153224
0.00151916
0.00121443
0.00117163
0.00113269
0.00109472
0.00105909
0.00101874
0.00138896
0.00133146
0.00127758
0.00122706
0.00117797
0.00112461
0.0016148
0.00154785
0.00148459
0.00142387
0.00136562
0.00130306
0.00175575
0.00168459
0.0016177
0.00155319
0.00149132
0.00142593
0.00172241
0.00165556
0.00159133
0.001529
0.00146278
0.00166994
0.00160454
0.00154272
0.00148285
0.00141888
0.00154145
0.00148058
0.00142298
0.00136759
0.00130783
0.0013319
0.00127837
0.00122793
0.00117978
0.00112655
0.0010677
0.00102656
0.000989186
0.000953512
0.000911999
0.00143426
0.0014166
0.00139923
0.00138271
0.00136668
0.00162374
0.00160667
0.00158937
0.00157398
0.0015601
0.00154605
0.000990116
0.000957335
0.000929533
0.000904411
0.000882073
0.000861199
0.00111136
0.00106773
0.00102789
0.000989769
0.000954494
0.000914781
0.00130866
0.00125632
0.00120802
0.00116077
0.00111463
0.0010627
0.00143179
0.00137914
0.00132974
0.00128022
0.00123344
0.00118107
0.0014264
0.00138321
0.00133468
0.00128466
0.00122907
0.0013906
0.00134468
0.00130151
0.00125794
0.0012089
0.00131563
0.00127095
0.00123011
0.00119056
0.00114573
0.00117159
0.00113074
0.00109515
0.00105948
0.00101886
0.000959041
0.000928939
0.00090357
0.000880975
0.000859569
0.001501
0.00148434
0.00146784
0.00145316
0.00143822
0.00188818
0.00186714
0.00184966
0.00183289
0.00181781
0.00180469
0.00151908
0.00150115
0.00148363
0.00146764
0.00145465
0.00144085
0.00145322
0.00143407
0.00141551
0.00139749
0.00144938
0.0014293
0.00141044
0.00139205
0.00137772
0.00147165
0.00145042
0.00142995
0.00140975
0.00138872
0.0014805
0.00146113
0.00144123
0.00142091
0.0014027
0.00150799
0.0014897
0.00147136
0.00145388
0.00143679
0.0015343
0.00151603
0.00149819
0.00148136
0.00146439
0.00158367
0.00156478
0.00154754
0.00153183
0.00151836
0.00160626
0.00159041
0.00157407
0.00155976
0.00154528
0.00186955
0.0018492
0.00183262
0.00181706
0.00180357
)
;

boundaryField
{
    inlet
    {
        type            fixedValue;
        value           nonuniform List<scalar> 0();
    }
    ami1
    {
        type            cyclicAMI;
        value           nonuniform List<scalar> 0();
    }
    walls
    {
        type            kqRWallFunction;
        value           nonuniform List<scalar> 
250
(
0.00187047
0.00160722
0.00158464
0.0015349
0.00150794
0.00147918
0.00145046
0.00143146
0.00143531
0.00150179
0.00187062
0.00185089
0.00159148
0.00156606
0.00151679
0.00148971
0.00146074
0.00143139
0.00141287
0.00141774
0.0014853
0.00185079
0.0018345
0.00157547
0.00154916
0.00149897
0.00147177
0.00144203
0.00141191
0.0013946
0.00140075
0.0014691
0.00183445
0.00181895
0.00156139
0.00153369
0.00148292
0.00145481
0.00142254
0.00139284
0.00137705
0.0013846
0.00145455
0.00181888
0.00180544
0.00154739
0.00152095
0.00146697
0.00143813
0.00140468
0.00137577
0.0013608
0.00136978
0.00144134
0.00180475
0.00145296
0.00142377
0.00138945
0.00136108
0.00134608
0.00135591
0.00142771
0.00179255
0.00137731
0.00135057
0.00133458
0.00134553
0.00187062
0.00160746
0.00158513
0.00153564
0.00150868
0.00147952
0.00145017
0.00143064
0.00143426
0.001501
0.00186955
0.00185079
0.00159171
0.00156642
0.00151742
0.00149033
0.00146106
0.00143113
0.00141189
0.0014166
0.00148434
0.0018492
0.00183445
0.00157554
0.00154932
0.00149949
0.00147223
0.00144227
0.00141153
0.00139327
0.00139923
0.00146784
0.00183262
0.00181888
0.00156122
0.00153358
0.00148314
0.00145502
0.00142206
0.00139184
0.00137562
0.00138271
0.00145316
0.00181706
0.00180475
0.00154837
0.00151936
0.00146699
0.00143836
0.00140099
0.00137352
0.00136022
0.00136668
0.00143822
0.00180357
0.00179255
0.00153527
0.00150781
0.00145286
0.00142798
0.00188818
0.00151908
0.00145322
0.00144938
0.00147165
0.00186714
0.00150115
0.00143407
0.0014293
0.00145042
0.0014805
0.00150799
0.0015343
0.00158367
0.00160626
0.00186955
0.00184966
0.00148363
0.00141551
0.00141044
0.00142995
0.00146113
0.0014897
0.00151603
0.00156478
0.00159041
0.0018492
0.00183289
0.00146764
0.00139749
0.00139205
0.00140975
0.00144123
0.00147136
0.00149819
0.00154754
0.00157407
0.00183262
0.00181781
0.00145465
0.00137772
0.00138872
0.00142091
0.00145388
0.00148136
0.00153183
0.00155976
0.00181706
0.00180469
0.00144085
0.0014027
0.00143679
0.00146439
0.00151836
0.00154528
0.00180357
0.00153072
0.00155652
0.00160306
0.00162374
0.00188818
0.00187047
0.00150279
0.00143651
0.00143236
0.00145146
0.00148011
0.0015103
0.00153663
0.00158293
0.00160667
0.00186714
0.00185089
0.00148623
0.00141886
0.00141396
0.00143262
0.00146174
0.00148953
0.00151676
0.00156454
0.00158937
0.00184966
0.0018345
0.00147003
0.0014018
0.00139578
0.00141318
0.00144269
0.00147174
0.00149883
0.00154756
0.00157398
0.00183289
0.00181895
0.00145554
0.00138559
0.00137822
0.00139394
0.00142281
0.00145397
0.00148136
0.00153224
0.0015601
0.00181781
0.00180544
0.00144216
0.00137069
0.00136194
0.00137671
0.00140498
0.00143838
0.00146537
0.00151916
0.00154605
0.00180469
0.00143411
0.00135757
0.00134732
0.00136103
0.00138827
0.0013494
0.0013368
)
;
    }
    ami2
    {
        type            cyclicAMI;
        value           nonuniform List<scalar> 0();
    }
    outlet
    {
        type            zeroGradient;
    }
    procBoundary5to6
    {
        type            processor;
        value           nonuniform List<scalar> 
177
(
0.00179941
0.00179941
0.00154033
0.00151487
0.00151487
0.00151487
0.00144472
0.00141637
0.00141637
0.00137047
0.00115164
0.00134474
0.00110758
0.00132939
0.00133804
0.00142316
0.00142316
0.00142316
0.00178674
0.00142511
0.000847465
0.00142511
0.000847465
0.000847465
0.000847465
0.000966208
0.00108283
0.00113812
0.00115164
0.00110758
0.00110758
0.000961111
0.00121394
0.000838007
0.0010524
0.000815147
0.0015311
0.0015311
0.00134321
0.000860059
0.000860059
0.000860059
0.00105232
0.00121878
0.00132107
0.00136125
0.0013284
0.00160709
0.00121394
0.0010524
0.0010524
0.000942788
0.00150302
0.0010832
0.00150302
0.00133149
0.00135405
0.000964396
0.00121372
0.00110939
0.00121372
0.00138201
0.00141545
0.00160767
0.00154213
0.00175068
0.00158911
0.00160709
0.00179966
0.00160709
0.00160709
0.0014174
0.00160093
0.00121949
0.00137235
0.0010832
0.00117521
0.00144577
0.00135405
0.00110939
0.00138201
0.00138201
0.00147192
0.00160767
0.00171289
0.00175068
0.00186982
0.00179966
0.00174925
0.00160093
0.00137235
0.00117521
0.00117521
0.00142137
0.00139187
0.00138117
0.00142947
0.00147192
0.00115415
0.00141605
0.00117566
0.00147192
0.00147192
0.00171289
0.00171289
0.00186982
0.00186982
0.00186982
0.00185328
0.0017993
0.00164728
0.00141396
0.00119099
0.00139187
0.00142947
0.00117566
0.00137192
0.00160029
0.00174962
0.00179919
0.00174863
0.00160463
0.0013792
0.00114427
0.00136272
0.00145641
0.00111465
0.00126326
0.00146795
0.00160416
0.00164681
0.00159955
0.00146892
0.00125994
0.0010271
0.00135081
0.00151264
0.000991736
0.00108821
0.00125875
0.00137785
0.00141316
0.00137083
0.00126334
0.00108763
0.000878927
0.00135598
0.00153935
0.000843041
0.00138686
0.00088478
0.00137377
0.00102937
0.0013675
0.00114497
0.00137791
0.00118987
0.00117228
0.00111214
0.000989702
0.000840371
0.00142962
0.00179659
0.00138686
0.00143159
0.00137377
0.00138686
0.00138686
0.0013675
0.00137791
0.00137791
0.00139267
0.00142685
0.00145473
0.00151132
0.00153834
0.00179542
)
;
    }
    procBoundary5to7
    {
        type            processor;
        value           nonuniform List<scalar> 
131
(
0.00188565
0.00162087
0.00159945
0.0015515
0.00152474
0.00149528
0.00146747
0.00144897
0.00145176
0.00151681
0.0018857
0.00151751
0.000990727
0.00121457
0.00136104
0.00143467
0.00146539
0.00142707
0.00130661
0.00110982
0.000990083
0.00162098
0.00145273
0.00111196
0.00138731
0.00160248
0.00173309
0.00178537
0.00175025
0.0016105
0.00138656
0.00121508
0.00159995
0.00144973
0.00130846
0.00161156
0.00186427
0.00202066
0.00207716
0.00202731
0.00186407
0.00160337
0.00136313
0.00155228
0.00146788
0.00142864
0.00175143
0.0020285
0.0022033
0.00226407
0.00220275
0.00202097
0.00173452
0.00143719
0.00152549
0.00149591
0.00149591
0.0014676
0.0014676
0.00178833
0.00178833
0.00207977
0.00207977
0.00226584
0.00226584
0.00232918
0.00226399
0.00207754
0.00178656
0.00146658
0.00149558
0.00154907
0.0014913
0.00180887
0.0021071
0.00229607
0.0022655
0.0022655
0.00220277
0.00202725
0.00175073
0.00142796
0.00146722
0.00157419
0.00141283
0.00167216
0.00194413
0.00211369
0.002079
0.002079
0.00202069
0.0018633
0.00160982
0.00130624
0.00144834
0.00161985
0.00126001
0.00144806
0.00168182
0.00182617
0.00178821
0.00178821
0.0017341
0.0016019
0.00138494
0.00110887
0.00145085
0.00163879
0.0010224
0.00115817
0.00136363
0.00148474
0.00146797
0.00146797
0.0014364
0.00136135
0.00121265
0.000988739
0.00151595
0.0019048
0.00153531
0.00147201
0.00147262
0.00149162
0.00149687
0.00149687
0.00152447
0.00155081
0.00159828
0.0016197
0.0018846
)
;
    }
}


// ************************************************************************* //
