/*--------------------------------*- C++ -*----------------------------------*\
| =========                 |                                                 |
| \\      /  F ield         | OpenFOAM: The Open Source CFD Toolbox           |
|  \\    /   O peration     | Version:  2212                                  |
|   \\  /    A nd           | Website:  www.openfoam.com                      |
|    \\/     M anipulation  |                                                 |
\*---------------------------------------------------------------------------*/
FoamFile
{
    version     2.0;
    format      ascii;
    arch        "LSB;label=32;scalar=64";
    class       volScalarField;
    location    "0.65";
    object      k;
}
// * * * * * * * * * * * * * * * * * * * * * * * * * * * * * * * * * * * * * //

dimensions      [0 2 -2 0 0 0 0];

internalField   nonuniform List<scalar> 
6840
(
0.213564
0.055916
0.0283994
0.0193412
0.0146928
0.0118511
0.00989071
0.00851623
0.00749131
0.00669681
0.006061
0.00555183
0.00512452
0.00474875
0.00443151
0.00416695
0.00394687
0.0037683
0.00366683
0.00356045
0.264759
0.104702
0.0585298
0.0391631
0.0286199
0.0219935
0.0175361
0.0143634
0.0120086
0.0102142
0.00881716
0.00770701
0.00680626
0.0060641
0.00545425
0.00495537
0.00454213
0.00420123
0.00393251
0.00374579
0.283364
0.126774
0.071702
0.0473282
0.0338663
0.0256616
0.0204608
0.016797
0.0140486
0.011941
0.010284
0.00895593
0.00788499
0.00701137
0.00628891
0.00568535
0.00517827
0.00475003
0.0043899
0.00410198
0.292299
0.141633
0.0819301
0.0541653
0.038923
0.0292873
0.0232721
0.0190784
0.0159338
0.0135145
0.0116263
0.0101121
0.00888102
0.00786992
0.00703135
0.00632946
0.00573659
0.00523141
0.00480054
0.00447506
0.295943
0.148782
0.0871941
0.0576749
0.0415193
0.0310721
0.0246448
0.0202207
0.0169046
0.0143244
0.0123077
0.0107013
0.00939481
0.00832055
0.00742823
0.00667984
0.00604619
0.00550461
0.00503997
0.00466721
0.295943
0.148782
0.0871941
0.0576749
0.0415193
0.0310721
0.0246449
0.0202208
0.0169048
0.0143247
0.0123082
0.0107021
0.00939594
0.00832227
0.00743089
0.00668398
0.00605266
0.00551478
0.00505728
0.00470928
0.292299
0.141633
0.0819301
0.0541654
0.0389231
0.0292874
0.0232723
0.0190787
0.0159342
0.0135152
0.0116273
0.0101136
0.00888328
0.00787332
0.00703654
0.00633746
0.00574905
0.00525098
0.0048294
0.00449935
0.283364
0.126774
0.071702
0.0473282
0.0338663
0.0256617
0.0204609
0.0167972
0.0140489
0.0119418
0.010285
0.00895735
0.00788707
0.00701444
0.00629368
0.00569272
0.00518982
0.00476837
0.00441913
0.00414395
0.264759
0.104702
0.0585298
0.0391631
0.0286199
0.0219935
0.0175362
0.0143635
0.0120087
0.0102144
0.0088175
0.00770756
0.00680717
0.00606604
0.00545704
0.00495972
0.00454962
0.00421513
0.0039586
0.00378596
0.213564
0.055916
0.0283994
0.0193412
0.0146928
0.0118511
0.00989072
0.00851624
0.00749131
0.00669681
0.006061
0.00555183
0.00512453
0.00474875
0.00443152
0.00416697
0.00394691
0.00376835
0.0036669
0.00356054
0.264759
0.104702
0.0585298
0.0391631
0.0286199
0.0219935
0.0175362
0.0143635
0.0120087
0.0102144
0.00881749
0.00770755
0.00680716
0.00606603
0.00545703
0.0049597
0.00454959
0.00421508
0.00395854
0.00378588
0.311746
0.197541
0.130357
0.0911457
0.0668023
0.0508112
0.0397945
0.0319124
0.0260947
0.0216882
0.018278
0.0155908
0.0134445
0.0117037
0.0102756
0.00909227
0.00810264
0.00727383
0.00658282
0.00590982
0.31754
0.217754
0.151085
0.108549
0.0807155
0.0618725
0.0486772
0.0391416
0.0320585
0.0266715
0.0224902
0.0191877
0.0165398
0.0143885
0.0126202
0.0111534
0.00992588
0.00889053
0.00801395
0.00726276
0.319723
0.227073
0.162232
0.118772
0.0893609
0.0689925
0.0545303
0.0439841
0.0360993
0.0300743
0.0253817
0.0216648
0.0186774
0.0162452
0.0142423
0.0125759
0.0111768
0.00999183
0.0089799
0.0080993
0.320484
0.23086
0.167176
0.123531
0.0935157
0.0724822
0.0574403
0.0464208
0.0381533
0.0318167
0.0268703
0.0229461
0.0197876
0.0172126
0.0150896
0.0133212
0.0118344
0.0105731
0.00949361
0.00855625
0.320484
0.23086
0.167176
0.123531
0.0935158
0.0724824
0.0574405
0.0464211
0.0381537
0.0318172
0.0268711
0.0229473
0.0197893
0.0172152
0.0150933
0.0133266
0.0118423
0.0105847
0.00951052
0.00858641
0.319723
0.227073
0.162232
0.118772
0.0893611
0.0689928
0.0545306
0.0439846
0.0361001
0.0300754
0.0253833
0.0216672
0.0186809
0.0162502
0.0142495
0.0125865
0.0111923
0.0100146
0.00901319
0.00816056
0.31754
0.217754
0.151086
0.108549
0.0807156
0.0618727
0.0486775
0.039142
0.0320591
0.0266723
0.0224914
0.0191895
0.0165424
0.0143921
0.0126255
0.0111611
0.00993726
0.00890781
0.0080413
0.00729871
0.311746
0.197541
0.130357
0.0911457
0.0668023
0.0508112
0.0397946
0.0319124
0.0260947
0.0216882
0.018278
0.0155908
0.0134446
0.0117037
0.0102756
0.0090923
0.00810268
0.0072739
0.00658289
0.0059099
0.264759
0.104702
0.0585298
0.0391631
0.0286199
0.0219935
0.0175361
0.0143634
0.0120086
0.0102142
0.00881717
0.00770701
0.00680627
0.0060641
0.00545425
0.00495539
0.00454216
0.00420129
0.00393257
0.00374586
0.283364
0.126774
0.071702
0.0473282
0.0338663
0.0256617
0.0204609
0.0167972
0.0140489
0.0119418
0.010285
0.00895734
0.00788706
0.00701444
0.00629367
0.00569271
0.00518979
0.00476833
0.00441908
0.0041439
0.31754
0.217754
0.151086
0.108549
0.0807156
0.0618727
0.0486775
0.039142
0.0320591
0.0266723
0.0224914
0.0191895
0.0165424
0.0143921
0.0126255
0.0111611
0.00993723
0.00890776
0.00804125
0.00729868
0.322005
0.239026
0.177588
0.133616
0.102323
0.0798669
0.0635106
0.0513823
0.042222
0.03518
0.0296768
0.0253111
0.0218008
0.018944
0.0165934
0.0146405
0.0130041
0.0116222
0.0104436
0.00939402
0.323293
0.245617
0.187499
0.144537
0.112864
0.0894038
0.0718632
0.0585864
0.0483996
0.0404744
0.0342251
0.0292341
0.0252006
0.0219053
0.019186
0.0169213
0.0150196
0.0134096
0.0120329
0.0108253
0.323714
0.247819
0.191099
0.14881
0.117249
0.0935707
0.0756572
0.0619604
0.0513626
0.0430612
0.0364793
0.0311999
0.0269185
0.0234111
0.0205105
0.0180906
0.0160554
0.0143299
0.0128524
0.011559
0.323714
0.247819
0.191099
0.14881
0.117249
0.0935708
0.0756573
0.0619606
0.0513629
0.0430615
0.0364798
0.0312005
0.0269195
0.0234125
0.0205123
0.0180931
0.0160587
0.0143344
0.0128578
0.0115613
0.323293
0.245617
0.187499
0.144537
0.112864
0.089404
0.0718634
0.0585867
0.0484
0.040475
0.0342259
0.0292352
0.0252022
0.0219074
0.0191889
0.0169254
0.0150253
0.0134177
0.0120451
0.010851
0.322005
0.239026
0.177588
0.133616
0.102323
0.079867
0.0635106
0.0513823
0.042222
0.03518
0.0296768
0.0253111
0.0218009
0.018944
0.0165934
0.0146405
0.0130041
0.0116222
0.0104436
0.00939393
0.31754
0.217754
0.151085
0.108549
0.0807155
0.0618725
0.0486772
0.0391416
0.0320585
0.0266715
0.0224902
0.0191877
0.0165399
0.0143885
0.0126202
0.0111534
0.00992591
0.00889058
0.00801401
0.00726278
0.283364
0.126774
0.071702
0.0473282
0.0338663
0.0256616
0.0204608
0.016797
0.0140486
0.011941
0.010284
0.00895594
0.007885
0.00701137
0.00628891
0.00568536
0.00517829
0.00475006
0.00438995
0.00410204
0.292299
0.141633
0.0819301
0.0541654
0.0389231
0.0292874
0.0232723
0.0190787
0.0159342
0.0135152
0.0116273
0.0101136
0.00888327
0.00787331
0.00703653
0.00633744
0.00574903
0.00525096
0.00482937
0.00449932
0.319723
0.227073
0.162232
0.118772
0.0893611
0.0689928
0.0545306
0.0439846
0.0361001
0.0300754
0.0253833
0.0216671
0.0186808
0.0162502
0.0142495
0.0125865
0.0111923
0.0100146
0.00901317
0.00816055
0.323293
0.245617
0.187499
0.144537
0.112864
0.089404
0.0718634
0.0585867
0.0484
0.040475
0.0342259
0.0292352
0.0252021
0.0219074
0.0191889
0.0169254
0.0150253
0.0134177
0.0120451
0.0108511
0.324288
0.250862
0.19613
0.154888
0.123591
0.0996801
0.0812742
0.066984
0.0557851
0.0469228
0.0398403
0.034125
0.0294695
0.0256434
0.0224721
0.0198225
0.0175921
0.0157
0.0140778
0.0126522
0.32459
0.252403
0.19891
0.158543
0.12769
0.103871
0.0853201
0.07075
0.0592101
0.0499929
0.0425688
0.0365391
0.0316018
0.0275272
0.0241389
0.0213007
0.0189065
0.0168713
0.0151215
0.0135726
0.32459
0.252403
0.19891
0.158543
0.12769
0.103871
0.0853201
0.07075
0.0592101
0.049993
0.042569
0.0365393
0.0316021
0.0275276
0.0241394
0.0213013
0.0189072
0.0168719
0.0151203
0.0135587
0.324288
0.250862
0.19613
0.154888
0.123591
0.0996801
0.0812742
0.066984
0.0557851
0.0469229
0.0398403
0.034125
0.0294696
0.0256434
0.022472
0.0198225
0.0175921
0.0157
0.0140777
0.0126519
0.323293
0.245617
0.187499
0.144537
0.112864
0.0894038
0.0718632
0.0585865
0.0483996
0.0404745
0.0342252
0.0292342
0.0252007
0.0219053
0.0191859
0.0169213
0.0150195
0.0134096
0.0120329
0.010825
0.319723
0.227073
0.162232
0.118772
0.0893609
0.0689925
0.0545303
0.0439841
0.0360993
0.0300743
0.0253817
0.0216648
0.0186774
0.0162452
0.0142423
0.0125759
0.0111768
0.00999185
0.00897992
0.00809926
0.292299
0.141633
0.0819301
0.0541653
0.038923
0.0292873
0.0232721
0.0190784
0.0159338
0.0135145
0.0116263
0.0101121
0.00888103
0.00786992
0.00703135
0.00632947
0.0057366
0.00523144
0.00480056
0.00447508
0.295943
0.148782
0.0871941
0.0576749
0.0415193
0.0310721
0.0246449
0.0202208
0.0169048
0.0143247
0.0123082
0.0107021
0.00939593
0.00832227
0.00743088
0.00668398
0.00605266
0.00551478
0.00505727
0.00470927
0.320484
0.23086
0.167176
0.123531
0.0935158
0.0724824
0.0574405
0.0464211
0.0381537
0.0318172
0.0268711
0.0229473
0.0197893
0.0172152
0.0150933
0.0133266
0.0118423
0.0105847
0.00951052
0.00858639
0.323714
0.247819
0.191099
0.14881
0.117249
0.0935708
0.0756573
0.0619606
0.0513629
0.0430615
0.0364798
0.0312005
0.0269195
0.0234124
0.0205123
0.0180931
0.0160587
0.0143344
0.0128578
0.0115613
0.32459
0.252403
0.19891
0.158543
0.12769
0.103871
0.0853201
0.07075
0.0592101
0.049993
0.042569
0.0365393
0.0316021
0.0275276
0.0241393
0.0213013
0.0189072
0.0168719
0.0151204
0.0135589
0.324844
0.253685
0.20131
0.161836
0.131535
0.107943
0.0893702
0.0746127
0.0627922
0.0532537
0.0455018
0.0391582
0.0339317
0.0295968
0.0259779
0.0229371
0.0203658
0.0181755
0.0162879
0.0146129
0.324844
0.253685
0.20131
0.161836
0.131535
0.107943
0.0893702
0.0746127
0.0627922
0.0532538
0.0455019
0.0391582
0.0339317
0.0295969
0.0259779
0.0229371
0.0203658
0.0181755
0.0162879
0.0146128
0.32459
0.252403
0.19891
0.158543
0.12769
0.103871
0.0853201
0.07075
0.0592101
0.0499929
0.0425689
0.0365391
0.0316019
0.0275273
0.0241388
0.0213006
0.0189064
0.0168713
0.0151215
0.0135724
0.323714
0.247819
0.191099
0.14881
0.117249
0.0935707
0.0756572
0.0619604
0.0513626
0.0430612
0.0364794
0.0311999
0.0269186
0.0234111
0.0205104
0.0180905
0.0160553
0.0143299
0.0128524
0.0115588
0.320484
0.23086
0.167176
0.123531
0.0935157
0.0724822
0.0574403
0.0464208
0.0381533
0.0318167
0.0268703
0.0229462
0.0197876
0.0172126
0.0150895
0.0133212
0.0118344
0.0105732
0.00949361
0.00855619
0.295943
0.148782
0.0871941
0.0576749
0.0415193
0.0310721
0.0246448
0.0202207
0.0169046
0.0143244
0.0123077
0.0107013
0.00939481
0.00832055
0.00742822
0.00667984
0.00604619
0.00550462
0.00503998
0.00466722
0.295943
0.148782
0.0871941
0.0576749
0.0415193
0.0310721
0.0246448
0.0202207
0.0169046
0.0143244
0.0123077
0.0107013
0.00939481
0.00832055
0.00742823
0.00667985
0.00604619
0.00550461
0.00503997
0.00466721
0.320484
0.23086
0.167176
0.123531
0.0935157
0.0724822
0.0574403
0.0464208
0.0381533
0.0318167
0.0268703
0.0229461
0.0197875
0.0172126
0.0150896
0.0133212
0.0118344
0.0105732
0.00949361
0.00855621
0.323714
0.247819
0.191099
0.14881
0.117249
0.0935707
0.0756572
0.0619604
0.0513626
0.0430612
0.0364793
0.0311999
0.0269185
0.0234111
0.0205105
0.0180906
0.0160554
0.0143299
0.0128524
0.0115589
0.32459
0.252403
0.19891
0.158543
0.12769
0.103871
0.0853201
0.07075
0.0592101
0.0499929
0.0425688
0.0365391
0.0316018
0.0275272
0.0241389
0.0213007
0.0189065
0.0168713
0.0151215
0.0135726
0.324844
0.253685
0.20131
0.161836
0.131535
0.107943
0.0893702
0.0746127
0.0627922
0.0532538
0.0455019
0.0391582
0.0339317
0.0295968
0.0259779
0.0229371
0.0203658
0.0181755
0.0162879
0.0146129
0.324844
0.253685
0.20131
0.161836
0.131535
0.107943
0.0893702
0.0746127
0.0627922
0.0532538
0.0455019
0.0391582
0.0339317
0.0295969
0.0259779
0.0229371
0.0203658
0.0181755
0.0162879
0.0146129
0.32459
0.252403
0.19891
0.158543
0.12769
0.103871
0.0853201
0.07075
0.0592101
0.049993
0.042569
0.0365393
0.0316022
0.0275276
0.0241393
0.0213012
0.0189071
0.0168719
0.0151203
0.0135587
0.323714
0.247819
0.191099
0.14881
0.117249
0.0935708
0.0756573
0.0619606
0.0513629
0.0430616
0.0364798
0.0312006
0.0269195
0.0234124
0.0205122
0.018093
0.0160587
0.0143343
0.0128578
0.0115612
0.320484
0.23086
0.167176
0.123531
0.0935158
0.0724824
0.0574405
0.0464211
0.0381537
0.0318172
0.0268711
0.0229473
0.0197893
0.0172152
0.0150932
0.0133266
0.0118423
0.0105847
0.00951051
0.00858637
0.295943
0.148782
0.0871941
0.0576749
0.0415193
0.0310721
0.0246449
0.0202208
0.0169048
0.0143247
0.0123082
0.0107021
0.00939594
0.00832227
0.00743088
0.00668398
0.00605266
0.00551479
0.00505728
0.00470928
0.292299
0.141633
0.0819301
0.0541653
0.038923
0.0292873
0.0232721
0.0190784
0.0159338
0.0135145
0.0116263
0.0101121
0.00888103
0.00786992
0.00703136
0.00632947
0.0057366
0.00523143
0.00480055
0.00447507
0.319723
0.227073
0.162232
0.118772
0.0893609
0.0689925
0.0545303
0.0439841
0.0360993
0.0300743
0.0253817
0.0216648
0.0186774
0.0162452
0.0142423
0.012576
0.0111768
0.00999185
0.00897991
0.00809925
0.323293
0.245617
0.187499
0.144537
0.112864
0.0894038
0.0718632
0.0585865
0.0483996
0.0404745
0.0342251
0.0292341
0.0252007
0.0219053
0.019186
0.0169213
0.0150196
0.0134096
0.0120329
0.0108251
0.324288
0.250862
0.19613
0.154888
0.123591
0.0996801
0.0812742
0.066984
0.0557851
0.0469229
0.0398403
0.034125
0.0294695
0.0256434
0.0224721
0.0198225
0.0175921
0.0157
0.0140777
0.012652
0.32459
0.252403
0.19891
0.158543
0.12769
0.103871
0.0853201
0.07075
0.0592101
0.049993
0.042569
0.0365393
0.0316021
0.0275276
0.0241394
0.0213013
0.0189072
0.0168719
0.0151203
0.0135588
0.32459
0.252403
0.19891
0.158543
0.12769
0.103871
0.0853201
0.07075
0.0592101
0.0499929
0.0425689
0.0365391
0.0316019
0.0275273
0.0241389
0.0213007
0.0189065
0.0168713
0.0151215
0.0135726
0.324288
0.250862
0.19613
0.154888
0.123591
0.0996801
0.0812742
0.066984
0.0557851
0.0469229
0.0398403
0.034125
0.0294696
0.0256434
0.022472
0.0198225
0.0175921
0.0157
0.0140777
0.0126521
0.323293
0.245617
0.187499
0.144537
0.112864
0.089404
0.0718634
0.0585867
0.0484
0.040475
0.0342259
0.0292352
0.0252022
0.0219074
0.0191888
0.0169254
0.0150253
0.0134176
0.0120451
0.010851
0.319723
0.227073
0.162232
0.118772
0.0893611
0.0689928
0.0545306
0.0439846
0.0361001
0.0300754
0.0253833
0.0216672
0.0186809
0.0162502
0.0142495
0.0125864
0.0111923
0.0100146
0.00901317
0.00816054
0.292299
0.141633
0.0819301
0.0541654
0.0389231
0.0292874
0.0232723
0.0190787
0.0159342
0.0135152
0.0116273
0.0101136
0.00888328
0.00787331
0.00703653
0.00633745
0.00574904
0.00525098
0.00482939
0.00449934
0.283364
0.126774
0.071702
0.0473282
0.0338663
0.0256616
0.0204608
0.016797
0.0140486
0.011941
0.010284
0.00895594
0.007885
0.00701138
0.00628892
0.00568536
0.00517828
0.00475005
0.00438993
0.00410202
0.31754
0.217754
0.151085
0.108549
0.0807155
0.0618725
0.0486772
0.0391416
0.0320585
0.0266715
0.0224902
0.0191877
0.0165398
0.0143885
0.0126202
0.0111534
0.00992589
0.00889055
0.00801397
0.00726275
0.322005
0.239026
0.177588
0.133616
0.102323
0.079867
0.0635106
0.0513823
0.042222
0.03518
0.0296768
0.0253111
0.0218009
0.018944
0.0165934
0.0146405
0.0130041
0.0116222
0.0104436
0.00939392
0.323293
0.245617
0.187499
0.144537
0.112864
0.089404
0.0718634
0.0585867
0.0484
0.040475
0.0342259
0.0292352
0.0252022
0.0219074
0.0191889
0.0169255
0.0150253
0.0134177
0.0120451
0.010851
0.323714
0.247819
0.191099
0.14881
0.117249
0.0935708
0.0756573
0.0619606
0.0513629
0.0430616
0.0364798
0.0312005
0.0269195
0.0234125
0.0205123
0.0180931
0.0160587
0.0143344
0.0128578
0.0115612
0.323714
0.247819
0.191099
0.14881
0.117249
0.0935707
0.0756572
0.0619604
0.0513626
0.0430612
0.0364793
0.0311999
0.0269186
0.0234112
0.0205105
0.0180906
0.0160554
0.0143299
0.0128524
0.0115588
0.323293
0.245617
0.187499
0.144537
0.112864
0.0894039
0.0718632
0.0585865
0.0483996
0.0404745
0.0342252
0.0292342
0.0252007
0.0219053
0.0191859
0.0169213
0.0150195
0.0134096
0.0120329
0.0108251
0.322005
0.239026
0.177588
0.133616
0.102323
0.079867
0.0635106
0.0513823
0.042222
0.03518
0.0296768
0.0253111
0.0218009
0.018944
0.0165934
0.0146405
0.0130041
0.0116221
0.0104436
0.00939393
0.31754
0.217754
0.151086
0.108549
0.0807156
0.0618727
0.0486775
0.039142
0.0320591
0.0266723
0.0224914
0.0191895
0.0165424
0.0143921
0.0126254
0.0111611
0.00993723
0.00890777
0.00804127
0.00729869
0.283364
0.126774
0.071702
0.0473282
0.0338663
0.0256617
0.0204609
0.0167972
0.0140489
0.0119418
0.010285
0.00895735
0.00788706
0.00701444
0.00629367
0.00569271
0.00518981
0.00476835
0.00441911
0.00414393
0.264759
0.104702
0.0585298
0.0391631
0.0286199
0.0219935
0.0175361
0.0143634
0.0120086
0.0102142
0.00881717
0.00770701
0.00680627
0.00606411
0.00545426
0.00495539
0.00454215
0.00420127
0.00393256
0.00374585
0.311746
0.197541
0.130357
0.0911457
0.0668023
0.0508112
0.0397946
0.0319124
0.0260947
0.0216882
0.018278
0.0155908
0.0134446
0.0117037
0.0102756
0.0090923
0.00810266
0.00727386
0.00658285
0.00590986
0.31754
0.217754
0.151086
0.108549
0.0807156
0.0618727
0.0486775
0.039142
0.0320591
0.0266723
0.0224914
0.0191895
0.0165424
0.0143921
0.0126255
0.0111611
0.00993725
0.00890779
0.00804127
0.00729868
0.319723
0.227073
0.162232
0.118772
0.0893611
0.0689928
0.0545307
0.0439846
0.0361001
0.0300754
0.0253833
0.0216672
0.0186809
0.0162502
0.0142495
0.0125865
0.0111923
0.0100146
0.00901317
0.00816053
0.320484
0.23086
0.167176
0.123531
0.0935158
0.0724824
0.0574405
0.0464211
0.0381537
0.0318172
0.0268711
0.0229473
0.0197893
0.0172152
0.0150933
0.0133266
0.0118423
0.0105847
0.0095105
0.00858635
0.320484
0.23086
0.167176
0.123531
0.0935157
0.0724822
0.0574403
0.0464208
0.0381533
0.0318167
0.0268703
0.0229462
0.0197876
0.0172126
0.0150896
0.0133212
0.0118344
0.0105731
0.00949358
0.00855617
0.319723
0.227073
0.162232
0.118772
0.0893609
0.0689925
0.0545303
0.0439841
0.0360993
0.0300743
0.0253817
0.0216648
0.0186775
0.0162453
0.0142423
0.0125759
0.0111768
0.00999182
0.00897988
0.00809923
0.31754
0.217754
0.151085
0.108549
0.0807155
0.0618725
0.0486772
0.0391416
0.0320585
0.0266715
0.0224902
0.0191877
0.0165399
0.0143885
0.0126202
0.0111534
0.00992588
0.00889054
0.00801397
0.00726275
0.311746
0.197541
0.130357
0.0911457
0.0668023
0.0508112
0.0397946
0.0319124
0.0260947
0.0216882
0.018278
0.0155908
0.0134446
0.0117037
0.0102756
0.00909228
0.00810266
0.00727388
0.00658288
0.00590988
0.264759
0.104702
0.0585298
0.0391631
0.0286199
0.0219935
0.0175362
0.0143635
0.0120087
0.0102144
0.0088175
0.00770756
0.00680717
0.00606603
0.00545703
0.00495971
0.00454961
0.00421512
0.00395858
0.00378594
0.213564
0.055916
0.0283994
0.0193412
0.0146928
0.0118511
0.00989072
0.00851624
0.00749131
0.00669681
0.006061
0.00555184
0.00512453
0.00474876
0.00443152
0.00416698
0.0039469
0.00376834
0.0036669
0.00356054
0.264759
0.104702
0.0585298
0.0391631
0.0286199
0.0219935
0.0175362
0.0143635
0.0120087
0.0102144
0.0088175
0.00770756
0.00680717
0.00606605
0.00545705
0.00495972
0.00454961
0.00421512
0.00395858
0.00378595
0.283364
0.126774
0.071702
0.0473282
0.0338663
0.0256617
0.0204609
0.0167972
0.0140489
0.0119418
0.010285
0.00895735
0.00788707
0.00701445
0.00629369
0.00569272
0.00518981
0.00476835
0.00441911
0.00414393
0.292299
0.141633
0.0819301
0.0541654
0.0389231
0.0292874
0.0232723
0.0190787
0.0159342
0.0135152
0.0116273
0.0101136
0.00888328
0.00787332
0.00703655
0.00633745
0.00574904
0.00525097
0.00482939
0.00449933
0.295943
0.148782
0.0871941
0.0576749
0.0415193
0.0310721
0.0246449
0.0202208
0.0169048
0.0143247
0.0123082
0.0107021
0.00939594
0.00832228
0.00743089
0.00668398
0.00605266
0.00551478
0.00505727
0.00470926
0.295943
0.148782
0.0871941
0.0576749
0.0415193
0.0310721
0.0246448
0.0202207
0.0169046
0.0143244
0.0123077
0.0107013
0.00939481
0.00832055
0.00742823
0.00667984
0.00604618
0.0055046
0.00503996
0.0046672
0.292299
0.141633
0.0819301
0.0541653
0.038923
0.0292873
0.0232721
0.0190784
0.0159338
0.0135145
0.0116263
0.0101121
0.00888103
0.00786992
0.00703135
0.00632946
0.00573659
0.00523142
0.00480055
0.00447506
0.283364
0.126774
0.071702
0.0473282
0.0338663
0.0256616
0.0204608
0.016797
0.0140486
0.011941
0.010284
0.00895594
0.007885
0.00701137
0.00628891
0.00568535
0.00517828
0.00475005
0.00438993
0.00410202
0.264759
0.104702
0.0585298
0.0391631
0.0286199
0.0219935
0.0175361
0.0143634
0.0120086
0.0102142
0.00881717
0.00770702
0.00680627
0.0060641
0.00545424
0.00495538
0.00454215
0.00420128
0.00393256
0.00374585
0.213564
0.055916
0.0283994
0.0193412
0.0146928
0.0118511
0.00989071
0.00851624
0.00749131
0.00669681
0.006061
0.00555183
0.00512453
0.00474875
0.00443151
0.00416697
0.0039469
0.00376833
0.00366688
0.00356052
0.00491385
0.00419227
0.00358652
0.00323532
0.00303262
0.00291035
0.00282459
0.00276241
0.00271477
0.00267669
0.00264442
0.00261824
0.00259693
0.00257889
0.00256342
0.00255026
0.00253909
0.00253007
0.00252287
0.00251702
0.00251215
0.0025083
0.00250544
0.00250326
0.00250115
0.00249894
0.00249686
0.00249527
0.00249439
0.00249393
0.00249346
0.00249271
0.00249188
0.0024914
0.00249132
0.00249133
0.00249155
0.00249141
0.00249104
0.00249039
0.00422906
0.00371162
0.00331682
0.00303626
0.00285169
0.00272322
0.0026267
0.00254781
0.00248415
0.00243238
0.0023882
0.00235482
0.00232743
0.00230422
0.00228324
0.00226586
0.00225006
0.00223777
0.00222846
0.0022211
0.00221497
0.00221011
0.00220609
0.00220264
0.00219949
0.00219678
0.00219461
0.00219305
0.00219192
0.00219097
0.00219007
0.00218937
0.00218896
0.00218875
0.00218865
0.00218849
0.00218835
0.00218833
0.0021884
0.00218856
0.00420146
0.00377849
0.00345718
0.00319693
0.00302555
0.00288122
0.00276037
0.00266226
0.00258187
0.00251632
0.00246204
0.00241708
0.00237972
0.00234796
0.0023215
0.00229984
0.00228205
0.00226729
0.0022552
0.00224536
0.0022374
0.00223103
0.00222568
0.00222099
0.0022167
0.00221332
0.00221076
0.00220892
0.00220747
0.00220621
0.00220491
0.00220411
0.00220376
0.00220388
0.00220439
0.00220389
0.00220375
0.00220347
0.0022036
0.0022038
0.00407921
0.00379398
0.00354902
0.00334141
0.0031655
0.00301496
0.0028865
0.00277712
0.0026843
0.00260576
0.00253953
0.00248375
0.00243677
0.00239728
0.00236449
0.00233742
0.00231508
0.00229667
0.00228161
0.00226925
0.0022592
0.00225102
0.0022441
0.00223807
0.00223267
0.00222847
0.00222535
0.00222307
0.00222122
0.00221966
0.00221807
0.00221711
0.00221671
0.00221666
0.00221686
0.00221708
0.00221672
0.00221654
0.00221662
0.00221686
0.00417928
0.00387026
0.00361461
0.00340098
0.00322167
0.00307098
0.00294106
0.00282876
0.00273201
0.00264899
0.00257803
0.00251749
0.0024659
0.00242224
0.00238584
0.00235557
0.00233051
0.00230986
0.00229285
0.00227888
0.0022674
0.00225804
0.00225012
0.00224327
0.00223711
0.00223239
0.00222887
0.0022263
0.0022242
0.00222245
0.00222068
0.00221965
0.00221919
0.00221912
0.00221928
0.0022198
0.0022194
0.00221931
0.00221932
0.00221949
0.00441524
0.00396307
0.00365837
0.0034207
0.00322879
0.00307211
0.00294025
0.00282666
0.00272881
0.00264475
0.00257278
0.00251121
0.00245858
0.002414
0.00237673
0.00234581
0.00232025
0.00229919
0.00228186
0.00226762
0.00225593
0.00224634
0.00223817
0.00223104
0.00222477
0.00221995
0.00221635
0.00221368
0.00221147
0.00220959
0.00220775
0.00220666
0.00220618
0.00220609
0.002206
0.00220681
0.00220723
0.00220661
0.0022064
0.00220647
0.0043146
0.00386596
0.00357803
0.00335055
0.00316633
0.00301483
0.00288559
0.00277436
0.00267899
0.00259755
0.00252831
0.00246943
0.00241938
0.00237719
0.00234206
0.00231296
0.00228894
0.00226917
0.00225287
0.00223951
0.00222856
0.00221967
0.00221194
0.00220508
0.00219904
0.00219437
0.00219087
0.00218832
0.00218616
0.00218422
0.00218236
0.00218128
0.00218078
0.0021807
0.00218045
0.00218095
0.00218129
0.00218089
0.00218083
0.00218096
0.00399277
0.00366585
0.003409
0.00320197
0.00303264
0.00288991
0.00276922
0.00266732
0.00258124
0.00250858
0.00244723
0.00239526
0.0023512
0.00231411
0.00228338
0.00225808
0.00223714
0.00221996
0.00220575
0.00219422
0.00218481
0.00217722
0.00217057
0.00216448
0.00215906
0.00215486
0.00215179
0.00214957
0.00214767
0.00214586
0.00214411
0.00214311
0.00214263
0.00214269
0.00214274
0.00214301
0.0021433
0.00214298
0.00214273
0.00214274
0.00378326
0.00347491
0.00322023
0.00301425
0.00285198
0.00272073
0.00261502
0.00252884
0.00245794
0.00239896
0.00234963
0.00230797
0.00227245
0.00224237
0.00221738
0.00219672
0.00217967
0.00216557
0.00215391
0.00214453
0.00213697
0.00213094
0.00212573
0.00212091
0.00211653
0.0021131
0.00211057
0.00210877
0.00210727
0.0021058
0.00210436
0.00210346
0.00210308
0.00210305
0.00210307
0.00210328
0.00210328
0.00210269
0.00210239
0.00210241
0.00404421
0.00357087
0.00316919
0.00289358
0.00271568
0.00259834
0.0025142
0.00244711
0.00239461
0.00235127
0.00231503
0.00228338
0.00225608
0.00223289
0.00221358
0.00219759
0.00218456
0.002173
0.0021637
0.00215585
0.00214947
0.00214446
0.00214026
0.00213653
0.0021331
0.00213013
0.00212773
0.00212599
0.00212477
0.00212366
0.00212254
0.00212164
0.00212112
0.00212089
0.00212085
0.00212104
0.00212049
0.00211995
0.00211963
0.00211961
0.00491388
0.0041923
0.00358661
0.00323535
0.00303269
0.00291054
0.00282493
0.00276288
0.00271532
0.00267713
0.00264503
0.0026189
0.00259728
0.0025791
0.00256352
0.00255034
0.00253928
0.00253037
0.00252329
0.00251753
0.00251273
0.00250893
0.00250613
0.00250399
0.00250188
0.00249964
0.0024975
0.00249583
0.00249492
0.00249445
0.00249388
0.00249306
0.00249222
0.00249169
0.00249157
0.00249195
0.00249194
0.00249132
0.0024906
0.00248965
0.00404417
0.00357081
0.0031691
0.00289355
0.00271552
0.00259802
0.00251362
0.00244641
0.00239383
0.00235056
0.00231412
0.00228264
0.00225587
0.0022329
0.00221359
0.00219755
0.00218444
0.00217276
0.0021633
0.00215532
0.00214886
0.00214379
0.0021396
0.00213594
0.00213252
0.00212956
0.00212719
0.00212552
0.00212432
0.00212328
0.00212224
0.00212141
0.00212093
0.00212067
0.00212073
0.00212047
0.00212016
0.00211997
0.00212006
0.00212018
0.00423285
0.00377946
0.00345831
0.00324536
0.00307824
0.00293393
0.00280483
0.00268876
0.00258531
0.00249597
0.00241517
0.0023476
0.00228934
0.00223727
0.00219471
0.00215864
0.00212887
0.00210461
0.0020847
0.00206854
0.00205565
0.00204561
0.00203667
0.00202786
0.00201899
0.00201216
0.0020076
0.00200496
0.00200289
0.00200003
0.00199671
0.00199491
0.00199466
0.00199505
0.00199455
0.00199363
0.00199314
0.00199307
0.00199385
0.00199527
0.00547213
0.00502492
0.00462714
0.004294
0.00401377
0.00377473
0.00356928
0.003391
0.00323729
0.00310436
0.00299289
0.00289642
0.00281328
0.00274052
0.00268006
0.00262914
0.00258675
0.00255149
0.00252197
0.00249774
0.00247783
0.00246233
0.00244775
0.0024326
0.00241924
0.00240949
0.00240271
0.00239857
0.00239471
0.0023895
0.0023846
0.00238239
0.00238262
0.00238367
0.0023847
0.00238441
0.00238227
0.00238213
0.00238282
0.0023847
0.00682136
0.0061285
0.00557138
0.00511602
0.004743
0.00442527
0.0041512
0.00391476
0.00371131
0.00353645
0.00338725
0.00325961
0.00314944
0.00305587
0.00297794
0.00291279
0.00285818
0.00281323
0.00277522
0.00274417
0.00271816
0.00269751
0.00267808
0.00265866
0.00264279
0.00263107
0.00262288
0.00261774
0.00261198
0.00260595
0.00260055
0.00259819
0.00259834
0.00259939
0.00260002
0.00260011
0.00259791
0.00259814
0.00259885
0.00260076
0.0073388
0.0066796
0.00610244
0.00560468
0.00517895
0.00482188
0.00451442
0.00424595
0.00401303
0.00381216
0.00363992
0.0034922
0.00336424
0.00325628
0.00316582
0.00309039
0.00302781
0.00297612
0.00293294
0.00289692
0.00286701
0.00284242
0.00281958
0.00279766
0.00278063
0.00276797
0.00275907
0.00275274
0.00274656
0.00273962
0.00273435
0.00273198
0.00273208
0.00273271
0.00273422
0.00273484
0.00273302
0.00273296
0.00273335
0.00273454
0.00754215
0.00686714
0.00628374
0.00577951
0.00534388
0.00497337
0.00465791
0.00438056
0.00413843
0.00392896
0.003749
0.00359443
0.00346083
0.00334769
0.00325275
0.00317358
0.00310789
0.00305361
0.00300869
0.00297105
0.00293971
0.00291381
0.00288996
0.00286743
0.0028497
0.00283647
0.00282702
0.0028202
0.00281343
0.0028063
0.002801
0.00279838
0.00279837
0.00279908
0.00280067
0.0028016
0.00279896
0.00279893
0.00279924
0.00280052
0.00739097
0.00672517
0.00614842
0.00565258
0.00522856
0.0048719
0.00456592
0.00429802
0.00406533
0.00386464
0.00369257
0.00354488
0.00341744
0.00330976
0.00321953
0.00314437
0.00308216
0.00303059
0.00298766
0.00295172
0.00292219
0.00289792
0.00287547
0.00285383
0.00283631
0.00282304
0.00281347
0.00280668
0.00280021
0.00279275
0.00278737
0.0027845
0.00278433
0.00278494
0.00278485
0.00278528
0.00278346
0.00278436
0.00278487
0.00278643
0.00682746
0.00617726
0.00563466
0.0051825
0.00481105
0.00449604
0.00422254
0.00398575
0.00378153
0.00360612
0.00345633
0.00332738
0.00321613
0.00312268
0.00304467
0.00297972
0.00292621
0.00288089
0.00284362
0.00281252
0.00278739
0.00276702
0.00274778
0.00272816
0.00271183
0.00269952
0.0026909
0.00268531
0.00267958
0.00267281
0.00266725
0.00266435
0.0026643
0.0026653
0.00266563
0.00266806
0.00266886
0.0026666
0.00266607
0.0026669
0.00564277
0.00511853
0.0046793
0.00434496
0.004067
0.00382782
0.00362051
0.00343967
0.00328233
0.00314618
0.00302961
0.00293043
0.00284326
0.00276938
0.00270718
0.00265625
0.00261339
0.0025778
0.00254815
0.00252385
0.00250399
0.00248843
0.00247354
0.00245736
0.0024432
0.00243275
0.00242598
0.00242192
0.0024177
0.00241207
0.00240679
0.00240419
0.00240437
0.00240535
0.00240605
0.00240665
0.0024059
0.00240332
0.0024036
0.00240523
0.00423286
0.00377947
0.00345842
0.00324522
0.0030784
0.00293466
0.00280598
0.00269013
0.00258702
0.00249709
0.00241783
0.00234926
0.0022888
0.00223605
0.00219401
0.0021585
0.00212916
0.00210526
0.00208566
0.00206974
0.00205706
0.00204711
0.00203801
0.00202885
0.00201996
0.00201313
0.00200857
0.00200586
0.00200358
0.00200057
0.00199727
0.00199527
0.00199493
0.00199538
0.00199565
0.00199553
0.00199425
0.00199265
0.00199269
0.00199405
0.00422905
0.00371161
0.00331682
0.00303624
0.00285175
0.00272341
0.00262702
0.00254821
0.00248465
0.00243279
0.00238885
0.00235531