/*--------------------------------*- C++ -*----------------------------------*\
| =========                 |                                                 |
| \\      /  F ield         | OpenFOAM: The Open Source CFD Toolbox           |
|  \\    /   O peration     | Version:  2212                                  |
|   \\  /    A nd           | Website:  www.openfoam.com                      |
|    \\/     M anipulation  |                                                 |
\*---------------------------------------------------------------------------*/
FoamFile
{
    version     2.0;
    format      ascii;
    arch        "LSB;label=32;scalar=64";
    class       volScalarField;
    location    "0.65";
    object      nut;
}
// * * * * * * * * * * * * * * * * * * * * * * * * * * * * * * * * * * * * * //

dimensions      [0 2 -1 0 0 0 0];

internalField   nonuniform List<scalar> 
6840
(
4.5356e-05
2.3208e-05
1.65396e-05
1.36494e-05
1.18966e-05
1.06844e-05
9.76075e-06
9.05727e-06
8.49476e-06
8.03142e-06
7.64111e-06
7.31264e-06
7.02559e-06
6.76233e-06
6.53196e-06
6.33307e-06
6.16216e-06
6.02001e-06
5.93683e-06
5.85487e-06
0.000107685
6.77183e-05
5.06311e-05
4.14159e-05
3.54049e-05
3.10367e-05
2.77138e-05
2.50817e-05
2.29336e-05
2.11507e-05
1.96506e-05
1.83715e-05
1.72633e-05
1.62934e-05
1.54504e-05
1.4724e-05
1.40928e-05
1.35479e-05
1.31093e-05
1.28058e-05
0.000160509
0.00010736
8.07409e-05
6.55976e-05
5.54896e-05
4.83025e-05
4.3131e-05
3.9079e-05
3.5739e-05
3.29492e-05
3.05773e-05
2.8534e-05
2.67727e-05
2.52442e-05
2.39052e-05
2.27251e-05
2.16829e-05
2.07611e-05
1.99513e-05
1.92706e-05
0.000198681
0.0001383
0.000105187
8.55269e-05
7.25012e-05
6.289e-05
5.60609e-05
5.07589e-05
4.63873e-05
4.27206e-05
3.96231e-05
3.69521e-05
3.46281e-05
3.25949e-05
3.08058e-05
2.92226e-05
2.78132e-05
2.65512e-05
2.54237e-05
2.45334e-05
0.000218609
0.000155003
0.000118661
9.65068e-05
8.18822e-05
7.08353e-05
6.30852e-05
5.71428e-05
5.22473e-05
4.80946e-05
4.45796e-05
4.15676e-05
3.89455e-05
3.66482e-05
3.46226e-05
3.28251e-05
3.12191e-05
2.97734e-05
2.84681e-05
2.73545e-05
0.000218609
0.000155003
0.000118661
9.65068e-05
8.18823e-05
7.08354e-05
6.30853e-05
5.7143e-05
5.22476e-05
4.8095e-05
4.45803e-05
4.15686e-05
3.89472e-05
3.66509e-05
3.46271e-05
3.28325e-05
3.12314e-05
2.97939e-05
2.85052e-05
2.74585e-05
0.000198681
0.0001383
0.000105187
8.55269e-05
7.25012e-05
6.28901e-05
5.6061e-05
5.07591e-05
4.63878e-05
4.27213e-05
3.96243e-05
3.6954e-05
3.46312e-05
3.25999e-05
3.08138e-05
2.92356e-05
2.78346e-05
2.65862e-05
2.54725e-05
2.45035e-05
0.000160509
0.00010736
8.07409e-05
6.55976e-05
5.54896e-05
4.83026e-05
4.31311e-05
3.90792e-05
3.57393e-05
3.29498e-05
3.05783e-05
2.85356e-05
2.67752e-05
2.5248e-05
2.39114e-05
2.27352e-05
2.16994e-05
2.07881e-05
1.99939e-05
1.933e-05
0.000107685
6.77183e-05
5.06311e-05
4.14159e-05
3.54049e-05
3.10367e-05
2.77138e-05
2.50817e-05
2.29336e-05
2.11509e-05
1.96508e-05
1.83719e-05
1.72641e-05
1.62952e-05
1.54531e-05
1.47282e-05
1.41002e-05
1.35614e-05
1.31347e-05
1.28377e-05
4.5356e-05
2.3208e-05
1.65396e-05
1.36494e-05
1.18966e-05
1.06844e-05
9.76075e-06
9.05727e-06
8.49476e-06
8.03142e-06
7.64111e-06
7.31264e-06
7.02559e-06
6.76234e-06
6.53197e-06
6.33308e-06
6.16218e-06
6.02003e-06
5.93687e-06
5.85491e-06
0.000107685
6.77183e-05
5.06311e-05
4.14159e-05
3.54049e-05
3.10367e-05
2.77138e-05
2.50817e-05
2.29336e-05
2.11509e-05
1.96508e-05
1.83719e-05
1.72641e-05
1.62952e-05
1.54531e-05
1.47282e-05
1.41001e-05
1.35614e-05
1.31347e-05
1.28377e-05
0.000528907
0.000369984
0.000305097
0.000261371
0.000228528
0.000202475
0.000181114
0.000163073
0.00014754
0.000133985
0.000122052
0.000111472
0.000102145
9.38779e-05
8.6491e-05
7.9709e-05
7.35408e-05
6.82483e-05
6.38386e-05
5.5114e-05
0.000663952
0.000488458
0.000404619
0.000347248
0.000305035
0.000272127
0.000245318
0.000222888
0.000203755
0.00018718
0.000172656
0.000159818
0.000148381
0.000138132
0.000128904
0.000120697
0.000113285
0.000106592
0.000100801
9.48968e-05
0.00071288
0.000556432
0.000466397
0.000402354
0.000354425
0.000317049
0.000286673
0.000261253
0.000239579
0.000220842
0.000204439
0.000189944
0.000177037
0.000165459
0.000155002
0.000145518
0.000136862
0.000128906
0.000121538
0.000114574
0.000728543
0.000588231
0.000496001
0.000429131
0.000378509
0.000338933
0.000306816
0.00027997
0.000257067
0.000237248
0.000219899
0.000204561
0.000190892
0.00017862
0.000167533
0.000157456
0.000148232
0.000139714
0.000131738
0.000123924
0.000728543
0.000588231
0.000496002
0.000429131
0.000378509
0.000338934
0.000306817
0.000279971
0.00025707
0.000237252
0.000219905
0.000204572
0.00019091
0.00017865
0.000167581
0.000157536
0.000148365
0.000139933
0.000132103
0.000124615
0.00071288
0.000556432
0.000466397
0.000402355
0.000354426
0.00031705
0.000286675
0.000261256
0.000239583
0.000220849
0.000204451
0.000189965
0.000177071
0.000165514
0.000155093
0.000145668
0.000137112
0.000129317
0.000122203
0.000115966
0.000663952
0.000488458
0.000404619
0.000347248
0.000305036
0.000272128
0.000245319
0.000222891
0.000203759
0.000187186
0.000172665
0.000159834
0.000148406
0.000138171
0.000128968
0.000120803
0.000113466
0.00010691
0.0001014
9.47601e-05
0.000528907
0.000369984
0.000305097
0.000261371
0.000228528
0.000202475
0.000181114
0.000163073
0.00014754
0.000133985
0.000122052
0.000111472
0.000102145
9.38773e-05
8.6491e-05
7.97097e-05
7.35416e-05
6.82499e-05
6.38391e-05
5.51147e-05
0.000107685
6.77183e-05
5.06311e-05
4.14159e-05
3.54049e-05
3.10367e-05
2.77138e-05
2.50817e-05
2.29336e-05
2.11507e-05
1.96506e-05
1.83715e-05
1.72633e-05
1.62934e-05
1.54504e-05
1.4724e-05
1.40928e-05
1.3548e-05
1.31094e-05
1.28058e-05
0.000160509
0.00010736
8.07409e-05
6.55976e-05
5.54896e-05
4.83026e-05
4.31311e-05
3.90792e-05
3.57393e-05
3.29498e-05
3.05783e-05
2.85355e-05
2.67752e-05
2.52479e-05
2.39114e-05
2.27352e-05
2.16994e-05
2.07881e-05
1.99939e-05
1.93299e-05
0.000663952
0.000488458
0.000404619
0.000347248
0.000305036
0.000272128
0.000245319
0.000222891
0.000203759
0.000187186
0.000172665
0.000159834
0.000148406
0.000138172
0.000128967
0.000120802
0.000113465
0.000106909
0.000101399
9.47594e-05
0.000786828
0.000662293
0.000567974
0.000495805
0.000439463
0.000394562
0.000357975
0.000327453
0.000301492
0.000279055
0.000259406
0.000242017
0.000226499
0.000212554
0.000199956
0.000188545
0.000178169
0.000168712
0.000159966
0.000150314
0.000809324
0.000713906
0.000631504
0.000562574
0.000505377
0.000457785
0.000417841
0.00038394
0.000354805
0.000329453
0.000307162
0.000287391
0.000269721
0.000253829
0.000239458
0.000226407
0.000214502
0.000203572
0.000193353
0.00018292
0.000814958
0.000730426
0.000654634
0.000589043
0.000533067
0.000485438
0.000444763
0.000409793
0.000379471
0.000352934
0.000329497
0.00030864
0.000289959
0.000273131
0.000257897
0.000244047
0.000231394
0.000219752
0.000208837
0.000197887
0.000814958
0.000730426
0.000654634
0.000589044
0.000533067
0.000485438
0.000444764
0.000409794
0.000379472
0.000352936
0.0003295
0.000308644
0.000289966
0.000273142
0.000257914
0.000244075
0.000231438
0.000219818
0.000208915
0.000197797
0.000809324
0.000713906
0.000631505
0.000562574
0.000505377
0.000457786
0.000417842
0.000383941
0.000354807
0.000329456
0.000307167
0.000287398
0.000269732
0.000253846
0.000239487
0.000226455
0.000214578
0.000203699
0.000193584
0.000183503
0.000786828
0.000662293
0.000567974
0.000495805
0.000439463
0.000394562
0.000357975
0.000327453
0.000301492
0.000279055
0.000259406
0.000242018
0.000226498
0.000212553
0.000199957
0.000188546
0.000178171
0.000168713
0.000159967
0.000150313
0.000663952
0.000488458
0.000404619
0.000347248
0.000305035
0.000272127
0.000245318
0.000222888
0.000203755
0.00018718
0.000172656
0.000159818
0.000148381
0.000138132
0.000128905
0.000120698
0.000113287
0.000106594
0.000100803
9.4898e-05
0.000160509
0.00010736
8.07409e-05
6.55976e-05
5.54896e-05
4.83025e-05
4.3131e-05
3.9079e-05
3.5739e-05
3.29492e-05
3.05773e-05
2.8534e-05
2.67728e-05
2.52442e-05
2.39052e-05
2.27251e-05
2.16829e-05
2.07611e-05
1.99513e-05
1.92706e-05
0.000198681
0.0001383
0.000105187
8.55269e-05
7.25012e-05
6.28901e-05
5.6061e-05
5.07591e-05
4.63878e-05
4.27213e-05
3.96243e-05
3.6954e-05
3.46312e-05
3.25999e-05
3.08138e-05
2.92356e-05
2.78346e-05
2.65862e-05
2.54724e-05
2.45034e-05
0.00071288
0.000556432
0.000466397
0.000402355
0.000354426
0.00031705
0.000286675
0.000261256
0.000239583
0.000220849
0.000204451
0.000189965
0.000177071
0.000165514
0.000155093
0.000145668
0.000137111
0.000129317
0.000122202
0.000115965
0.000809324
0.000713906
0.000631505
0.000562574
0.000505377
0.000457786
0.000417842
0.000383941
0.000354807
0.000329455
0.000307167
0.000287398
0.000269733
0.000253847
0.000239486
0.000226453
0.000214577
0.000203698
0.000193584
0.000183503
0.000823497
0.000753987
0.000688491
0.000628748
0.000575387
0.000528266
0.000486846
0.000450442
0.000418364
0.000389977
0.000364735
0.000342176
0.000321918
0.000303646
0.000287094
0.000272047
0.000258309
0.00024567
0.00023379
0.000221793
0.000826292
0.000764347
0.000706102
0.000651936
0.00060223
0.000557104
0.000516428
0.000479913
0.000447182
0.000417836
0.000391483
0.000367763
0.000346356
0.00032698
0.000309389
0.00029337
0.00027872
0.00026521
0.000252444
0.000239439
0.000826292
0.000764347
0.000706102
0.000651937
0.00060223
0.000557104
0.000516428
0.000479913
0.000447183
0.000417836
0.000391484
0.000367764
0.000346358
0.000326983
0.000309393
0.000293376
0.000278728
0.000265212
0.000252387
0.00023902
0.000823497
0.000753987
0.000688491
0.000628748
0.000575387
0.000528266
0.000486846
0.000450443
0.000418364
0.000389978
0.000364735
0.000342176
0.000321918
0.000303645
0.000287095
0.000272048
0.000258309
0.00024567
0.000233789
0.000221792
0.000809324
0.000713906
0.000631504
0.000562574
0.000505377
0.000457785
0.000417841
0.00038394
0.000354805
0.000329453
0.000307162
0.000287391
0.000269721
0.000253828
0.000239459
0.000226408
0.000214503
0.000203573
0.000193353
0.000182919
0.00071288
0.000556432
0.000466397
0.000402354
0.000354425
0.000317049
0.000286673
0.000261253
0.000239579
0.000220842
0.000204439
0.000189944
0.000177037
0.000165458
0.000155003
0.000145519
0.000136863
0.000128908
0.00012154
0.000114574
0.000198681
0.0001383
0.000105187
8.55269e-05
7.25012e-05
6.289e-05
5.60609e-05
5.07589e-05
4.63874e-05
4.27207e-05
3.96231e-05
3.69521e-05
3.46282e-05
3.2595e-05
3.08058e-05
2.92226e-05
2.78132e-05
2.65513e-05
2.54238e-05
2.45334e-05
0.000218609
0.000155003
0.000118661
9.65068e-05
8.18823e-05
7.08354e-05
6.30853e-05
5.7143e-05
5.22476e-05
4.8095e-05
4.45803e-05
4.15686e-05
3.89472e-05
3.66509e-05
3.46271e-05
3.28325e-05
3.12314e-05
2.97939e-05
2.85052e-05
2.74584e-05
0.000728543
0.000588231
0.000496002
0.000429131
0.000378509
0.000338934
0.000306817
0.000279971
0.00025707
0.000237252
0.000219905
0.000204572
0.00019091
0.00017865
0.000167582
0.000157536
0.000148365
0.000139933
0.000132103
0.000124614
0.000814958
0.000730426
0.000654634
0.000589044
0.000533067
0.000485438
0.000444764
0.000409794
0.000379472
0.000352936
0.0003295
0.000308644
0.000289966
0.000273142
0.000257915
0.000244075
0.000231438
0.000219818
0.000208916
0.000197796
0.000826292
0.000764347
0.000706102
0.000651937
0.00060223
0.000557104
0.000516428
0.000479913
0.000447183
0.000417836
0.000391483
0.000367764
0.000346358
0.000326983
0.000309394
0.000293376
0.000278728
0.000265213
0.000252387
0.00023902
0.000828382
0.0007726
0.000721138
0.00067296
0.000627782
0.00058562
0.000546547
0.000510579
0.00047765
0.000447618
0.000420294
0.000395459
0.000372887
0.000352358
0.000333658
0.000316591
0.000300957
0.000286512
0.000272825
0.000258939
0.000828382
0.0007726
0.000721138
0.00067296
0.000627782
0.00058562
0.000546547
0.000510579
0.00047765
0.000447618
0.000420294
0.000395459
0.000372887
0.000352358
0.000333658
0.000316591
0.000300957
0.000286512
0.000272824
0.000258938
0.000826292
0.000764347
0.000706102
0.000651937
0.00060223
0.000557104
0.000516428
0.000479913
0.000447182
0.000417836
0.000391483
0.000367763
0.000346356
0.00032698
0.000309389
0.00029337
0.00027872
0.00026521
0.000252442
0.000239437
0.000814958
0.000730426
0.000654634
0.000589043
0.000533067
0.000485438
0.000444763
0.000409793
0.000379471
0.000352934
0.000329497
0.00030864
0.000289958
0.00027313
0.000257898
0.000244048
0.000231394
0.000219752
0.000208837
0.000197886
0.000728543
0.000588231
0.000496001
0.000429131
0.000378509
0.000338933
0.000306816
0.00027997
0.000257067
0.000237248
0.000219899
0.000204561
0.000190891
0.00017862
0.000167534
0.000157457
0.000148234
0.000139715
0.00013174
0.000123924
0.000218609
0.000155003
0.000118661
9.65068e-05
8.18822e-05
7.08353e-05
6.30852e-05
5.71428e-05
5.22473e-05
4.80946e-05
4.45796e-05
4.15676e-05
3.89455e-05
3.66482e-05
3.46226e-05
3.2825e-05
3.1219e-05
2.97734e-05
2.84681e-05
2.73544e-05
0.000218609
0.000155003
0.000118661
9.65068e-05
8.18822e-05
7.08353e-05
6.30852e-05
5.71428e-05
5.22473e-05
4.80946e-05
4.45796e-05
4.15676e-05
3.89455e-05
3.66482e-05
3.46226e-05
3.28251e-05
3.12191e-05
2.97734e-05
2.84681e-05
2.73545e-05
0.000728543
0.000588231
0.000496001
0.000429131
0.000378509
0.000338933
0.000306816
0.00027997
0.000257067
0.000237248
0.000219899
0.000204561
0.000190892
0.000178621
0.000167533
0.000157456
0.000148233
0.000139714
0.000131738
0.000123922
0.000814958
0.000730426
0.000654634
0.000589043
0.000533067
0.000485438
0.000444763
0.000409793
0.000379471
0.000352934
0.000329497
0.00030864
0.000289959
0.000273131
0.000257897
0.000244047
0.000231394
0.000219752
0.000208837
0.000197886
0.000826292
0.000764347
0.000706102
0.000651936
0.00060223
0.000557104
0.000516428
0.000479913
0.000447182
0.000417836
0.000391483
0.000367763
0.000346356
0.00032698
0.000309389
0.00029337
0.00027872
0.00026521
0.000252443
0.000239438
0.000828382
0.0007726
0.000721138
0.00067296
0.000627782
0.00058562
0.000546547
0.000510579
0.00047765
0.000447618
0.000420294
0.000395459
0.000372887
0.000352358
0.000333658
0.000316591
0.000300957
0.000286512
0.000272824
0.000258938
0.000828382
0.0007726
0.000721138
0.00067296
0.000627782
0.00058562
0.000546547
0.000510579
0.00047765
0.000447618
0.000420294
0.000395459
0.000372887
0.000352358
0.000333658
0.00031659
0.000300957
0.000286511
0.000272823
0.000258937
0.000826292
0.000764347
0.000706102
0.000651937
0.00060223
0.000557104
0.000516428
0.000479913
0.000447183
0.000417837
0.000391484
0.000367764
0.000346358
0.000326983
0.000309394
0.000293376
0.000278728
0.000265211
0.000252385
0.000239017
0.000814958
0.000730426
0.000654634
0.000589044
0.000533067
0.000485438
0.000444764
0.000409794
0.000379472
0.000352936
0.0003295
0.000308644
0.000289965
0.000273141
0.000257916
0.000244076
0.000231438
0.000219818
0.000208914
0.000197794
0.000728543
0.000588231
0.000496002
0.000429131
0.000378509
0.000338934
0.000306817
0.000279971
0.00025707
0.000237252
0.000219905
0.000204572
0.000190909
0.000178649
0.000167582
0.000157537
0.000148366
0.000139935
0.000132105
0.000124616
0.000218609
0.000155003
0.000118661
9.65068e-05
8.18823e-05
7.08354e-05
6.30853e-05
5.7143e-05
5.22476e-05
4.8095e-05
4.45803e-05
4.15686e-05
3.89472e-05
3.66509e-05
3.4627e-05
3.28325e-05
3.12314e-05
2.97938e-05
2.85051e-05
2.74583e-05
0.000198681
0.0001383
0.000105187
8.55269e-05
7.25012e-05
6.289e-05
5.60609e-05
5.07589e-05
4.63874e-05
4.27207e-05
3.96231e-05
3.69521e-05
3.46281e-05
3.25949e-05
3.08059e-05
2.92226e-05
2.78133e-05
2.65513e-05
2.54238e-05
2.45335e-05
0.00071288
0.000556432
0.000466397
0.000402354
0.000354425
0.000317049
0.000286673
0.000261253
0.000239579
0.000220842
0.000204439
0.000189944
0.000177037
0.000165459
0.000155003
0.000145518
0.000136862
0.000128906
0.000121538
0.000114572
0.000809324
0.000713906
0.000631504
0.000562574
0.000505377
0.000457785
0.000417841
0.00038394
0.000354805
0.000329453
0.000307162
0.000287391
0.000269721
0.000253829
0.000239458
0.000226407
0.000214501
0.000203572
0.000193351
0.000182917
0.000823497
0.000753987
0.000688491
0.000628748
0.000575387
0.000528266
0.000486846
0.000450443
0.000418364
0.000389978
0.000364735
0.000342176
0.000321918
0.000303646
0.000287094
0.000272047
0.000258308
0.000245668
0.000233788
0.00022179
0.000826292
0.000764347
0.000706102
0.000651937
0.00060223
0.000557104
0.000516428
0.000479913
0.000447183
0.000417836
0.000391483
0.000367764
0.000346358
0.000326983
0.000309393
0.000293375
0.000278727
0.000265211
0.000252384
0.000239017
0.000826292
0.000764347
0.000706102
0.000651937
0.00060223
0.000557104
0.000516428
0.000479913
0.000447182
0.000417836
0.000391483
0.000367763
0.000346356
0.00032698
0.000309389
0.000293369
0.000278719
0.000265208
0.00025244
0.000239434
0.000823497
0.000753987
0.000688491
0.000628748
0.000575387
0.000528266
0.000486846
0.000450443
0.000418364
0.000389978
0.000364735
0.000342176
0.000321918
0.000303645
0.000287094
0.000272047
0.000258308
0.000245668
0.000233787
0.000221788
0.000809324
0.000713906
0.000631505
0.000562574
0.000505377
0.000457786
0.000417842
0.000383941
0.000354807
0.000329456
0.000307167
0.000287398
0.000269732
0.000253846
0.000239487
0.000226454
0.000214577
0.000203697
0.000193582
0.000183501
0.00071288
0.000556432
0.000466397
0.000402355
0.000354426
0.00031705
0.000286675
0.000261256
0.000239583
0.000220849
0.000204451
0.000189965
0.000177071
0.000165513
0.000155094
0.000145669
0.000137112
0.000129318
0.000122203
0.000115967
0.000198681
0.0001383
0.000105187
8.55269e-05
7.25012e-05
6.28901e-05
5.6061e-05
5.07591e-05
4.63878e-05
4.27213e-05
3.96243e-05
3.6954e-05
3.46312e-05
3.25999e-05
3.08138e-05
2.92356e-05
2.78346e-05
2.65862e-05
2.54724e-05
2.45033e-05
0.000160509
0.00010736
8.07409e-05
6.55976e-05
5.54896e-05
4.83025e-05
4.3131e-05
3.9079e-05
3.5739e-05
3.29492e-05
3.05773e-05
2.8534e-05
2.67728e-05
2.52442e-05
2.39052e-05
2.27251e-05
2.16829e-05
2.07611e-05
1.99513e-05
1.92706e-05
0.000663952
0.000488458
0.000404619
0.000347248
0.000305035
0.000272127
0.000245318
0.000222888
0.000203755
0.00018718
0.000172656
0.000159818
0.000148381
0.000138133
0.000128904
0.000120697
0.000113285
0.000106592
0.000100802
9.48964e-05
0.000786828
0.000662293
0.000567974
0.000495805
0.000439463
0.000394562
0.000357975
0.000327453
0.000301492
0.000279055
0.000259406
0.000242018
0.000226499
0.000212554
0.000199956
0.000188544
0.000178168
0.000168711
0.000159965
0.000150311
0.000809324
0.000713906
0.000631505
0.000562574
0.000505377
0.000457786
0.000417842
0.000383941
0.000354807
0.000329456
0.000307167
0.000287398
0.000269733
0.000253847
0.000239486
0.000226453
0.000214576
0.000203696
0.000193582
0.000183501
0.000814958
0.000730426
0.000654634
0.000589044
0.000533067
0.000485438
0.000444764
0.000409794
0.000379472
0.000352936
0.0003295
0.000308644
0.000289966
0.000273142
0.000257914
0.000244074
0.000231436
0.000219816
0.000208913
0.000197793
0.000814958
0.000730426
0.000654634
0.000589043
0.000533067
0.000485438
0.000444763
0.000409793
0.000379471
0.000352934
0.000329497
0.00030864
0.000289959
0.000273131
0.000257896
0.000244045
0.000231392
0.000219749
0.000208834
0.000197883
0.000809324
0.000713906
0.000631504
0.000562574
0.000505377
0.000457786
0.000417841
0.00038394
0.000354805
0.000329453
0.000307162
0.000287391
0.000269721
0.000253828
0.000239458
0.000226407
0.000214501
0.000203571
0.00019335
0.000182916
0.000786828
0.000662293
0.000567974
0.000495805
0.000439463
0.000394562
0.000357975
0.000327453
0.000301492
0.000279055
0.000259406
0.000242018
0.000226498
0.000212553
0.000199957
0.000188545
0.000178169
0.000168711
0.000159966
0.000150312
0.000663952
0.000488458
0.000404619
0.000347248
0.000305036
0.000272128
0.000245319
0.000222891
0.000203759
0.000187186
0.000172666
0.000159834
0.000148406
0.000138171
0.000128967
0.000120803
0.000113466
0.00010691
0.000101401
9.47595e-05
0.000160509
0.00010736
8.07409e-05
6.55976e-05
5.54896e-05
4.83026e-05
4.31311e-05
3.90792e-05
3.57393e-05
3.29498e-05
3.05783e-05
2.85356e-05
2.67752e-05
2.5248e-05
2.39114e-05
2.27351e-05
2.16994e-05
2.07881e-05
1.99939e-05
1.93299e-05
0.000107685
6.77183e-05
5.06311e-05
4.14159e-05
3.54049e-05
3.10367e-05
2.77138e-05
2.50817e-05
2.29336e-05
2.11507e-05
1.96506e-05
1.83715e-05
1.72633e-05
1.62934e-05
1.54504e-05
1.4724e-05
1.40928e-05
1.3548e-05
1.31094e-05
1.28058e-05
0.000528907
0.000369984
0.000305097
0.000261371
0.000228528
0.000202475
0.000181114
0.000163074
0.00014754
0.000133985
0.000122052
0.000111472
0.000102145
9.3878e-05
8.64911e-05
7.97092e-05
7.35409e-05
6.82487e-05
6.38387e-05
5.51142e-05
0.000663952
0.000488458
0.000404619
0.000347248
0.000305036
0.000272128
0.000245319
0.000222891
0.000203759
0.000187186
0.000172665
0.000159834
0.000148407
0.000138172
0.000128967
0.000120802
0.000113465
0.000106909
0.0001014
9.47595e-05
0.00071288
0.000556432
0.000466397
0.000402355
0.000354426
0.00031705
0.000286675
0.000261256
0.000239583
0.000220849
0.000204451
0.000189965
0.000177071
0.000165515
0.000155093
0.000145668
0.000137111
0.000129317
0.000122203
0.000115966
0.000728543
0.000588231
0.000496002
0.000429131
0.000378509
0.000338934
0.000306817
0.000279971
0.00025707
0.000237252
0.000219905
0.000204572
0.00019091
0.00017865
0.000167581
0.000157536
0.000148365
0.000139933
0.000132103
0.000124615
0.000728543
0.000588231
0.000496001
0.000429131
0.000378509
0.000338933
0.000306816
0.00027997
0.000257067
0.000237248
0.000219899
0.000204561
0.000190892
0.00017862
0.000167532
0.000157456
0.000148232
0.000139714
0.000131738
0.000123923
0.00071288
0.000556432
0.000466397
0.000402354
0.000354425
0.000317049
0.000286673
0.000261253
0.000239579
0.000220842
0.000204439
0.000189944
0.000177037
0.000165458
0.000155003
0.000145519
0.000136862
0.000128906
0.000121538
0.000114573
0.000663952
0.000488458
0.000404619
0.000347248
0.000305035
0.000272127
0.000245318
0.000222888
0.000203755
0.00018718
0.000172656
0.000159818
0.000148381
0.000138131
0.000128904
0.000120697
0.000113286
0.000106593
0.000100803
9.48976e-05
0.000528907
0.000369984
0.000305097
0.000261371
0.000228528
0.000202475
0.000181114
0.000163074
0.00014754
0.000133985
0.000122052
0.000111472
0.000102145
9.38772e-05
8.64909e-05
7.97096e-05
7.35415e-05
6.82498e-05
6.38393e-05
5.51148e-05
0.000107685
6.77183e-05
5.06311e-05
4.14159e-05
3.54049e-05
3.10367e-05
2.77138e-05
2.50817e-05
2.29336e-05
2.11509e-05
1.96508e-05
1.83719e-05
1.72641e-05
1.62952e-05
1.54531e-05
1.47282e-05
1.41001e-05
1.35614e-05
1.31347e-05
1.28377e-05
4.5356e-05
2.3208e-05
1.65396e-05
1.36494e-05
1.18966e-05
1.06844e-05
9.76075e-06
9.05727e-06
8.49476e-06
8.03143e-06
7.64111e-06
7.31264e-06
7.02559e-06
6.76234e-06
6.53198e-06
6.33308e-06
6.16218e-06
6.02003e-06
5.93687e-06
5.85491e-06
0.000107685
6.77183e-05
5.06311e-05
4.14159e-05
3.54049e-05
3.10367e-05
2.77138e-05
2.50817e-05
2.29336e-05
2.11509e-05
1.96508e-05
1.83719e-05
1.72641e-05
1.62952e-05
1.54531e-05
1.47282e-05
1.41002e-05
1.35614e-05
1.31347e-05
1.28377e-05
0.000160509
0.00010736
8.07409e-05
6.55976e-05
5.54896e-05
4.83026e-05
4.31311e-05
3.90792e-05
3.57393e-05
3.29498e-05
3.05783e-05
2.85356e-05
2.67752e-05
2.5248e-05
2.39115e-05
2.27352e-05
2.16994e-05
2.07881e-05
1.99939e-05
1.933e-05
0.000198681
0.0001383
0.000105187
8.55269e-05
7.25012e-05
6.28901e-05
5.6061e-05
5.07591e-05
4.63878e-05
4.27213e-05
3.96243e-05
3.6954e-05
3.46312e-05
3.25999e-05
3.08139e-05
2.92357e-05
2.78346e-05
2.65862e-05
2.54724e-05
2.45034e-05
0.000218609
0.000155003
0.000118661
9.65068e-05
8.18823e-05
7.08354e-05
6.30853e-05
5.7143e-05
5.22476e-05
4.8095e-05
4.45803e-05
4.15686e-05
3.89472e-05
3.66509e-05
3.46271e-05
3.28325e-05
3.12314e-05
2.97939e-05
2.85052e-05
2.74583e-05
0.000218609
0.000155003
0.000118661
9.65068e-05
8.18822e-05
7.08353e-05
6.30852e-05
5.71428e-05
5.22473e-05
4.80946e-05
4.45796e-05
4.15676e-05
3.89455e-05
3.66482e-05
3.46226e-05
3.28251e-05
3.1219e-05
2.97734e-05
2.84681e-05
2.73544e-05
0.000198681
0.0001383
0.000105187
8.55269e-05
7.25012e-05
6.289e-05
5.60609e-05
5.07589e-05
4.63874e-05
4.27207e-05
3.96231e-05
3.69521e-05
3.46282e-05
3.2595e-05
3.08058e-05
2.92226e-05
2.78132e-05
2.65512e-05
2.54237e-05
2.45334e-05
0.000160509
0.00010736
8.07409e-05
6.55976e-05
5.54896e-05
4.83025e-05
4.3131e-05
3.9079e-05
3.5739e-05
3.29492e-05
3.05773e-05
2.8534e-05
2.67728e-05
2.52442e-05
2.39052e-05
2.27251e-05
2.16829e-05
2.07611e-05
1.99513e-05
1.92706e-05
0.000107685
6.77183e-05
5.06311e-05
4.14159e-05
3.54049e-05
3.10367e-05
2.77138e-05
2.50817e-05
2.29336e-05
2.11507e-05
1.96506e-05
1.83715e-05
1.72633e-05
1.62934e-05
1.54504e-05
1.4724e-05
1.40928e-05
1.3548e-05
1.31094e-05
1.28058e-05
4.5356e-05
2.3208e-05
1.65396e-05
1.36494e-05
1.18966e-05
1.06844e-05
9.76075e-06
9.05727e-06
8.49476e-06
8.03142e-06
7.64111e-06
7.31264e-06
7.02559e-06
6.76233e-06
6.53196e-06
6.33307e-06
6.16217e-06
6.02002e-06
5.93685e-06
5.85488e-06
5.75582e-06
5.29965e-06
4.88506e-06
4.62236e-06
4.45909e-06
4.35903e-06
4.28065e-06
4.2183e-06
4.16938e-06
4.12985e-06
4.09616e-06
4.06866e-06
4.0456e-06
4.02571e-06
4.00764e-06
3.99143e-06
3.97677e-06
3.96489e-06
3.9554e-06
3.94743e-06
3.9406e-06
3.93507e-06
3.93066e-06
3.92711e-06
3.92378e-06
3.92055e-06
3.91752e-06
3.91513e-06
3.91362e-06
3.91264e-06
3.91169e-06
3.91058e-06
3.90952e-06
3.90883e-06
3.90885e-06
3.90858e-06
3.90876e-06
3.90858e-06
3.90816e-06
3.90743e-06
1.1343e-05
1.06206e-05
1.00118e-05
9.54915e-06
9.2288e-06
8.99749e-06
8.81597e-06
8.65992e-06
8.52253e-06
8.40719e-06
8.29509e-06
8.21587e-06
8.15017e-06
8.0974e-06
8.04238e-06
7.99624e-06
7.94693e-06
7.91046e-06
7.88488e-06
7.86355e-06
7.84649e-06
7.83313e-06
7.82229e-06
7.81333e-06
7.80498e-06
7.79731e-06
7.79041e-06
7.78509e-06
7.78125e-06
7.77845e-06
7.77558e-06
7.773e-06
7.77125e-06
7.77034e-06
7.77078e-06
7.77071e-06
7.77019e-06
7.76991e-06
7.76944e-06
7.76895e-06
1.62975e-05
1.55045e-05
1.48671e-05
1.42449e-05
1.38342e-05
1.34768e-05
1.31589e-05
1.28891e-05
1.2656e-05
1.24566e-05
1.22822e-05
1.21344e-05
1.20115e-05
1.19038e-05
1.18117e-05
1.17361e-05
1.16732e-05
1.16186e-05
1.15727e-05
1.15339e-05
1.15014e-05
1.14746e-05
1.14522e-05
1.14333e-05
1.14146e-05
1.13995e-05
1.13871e-05
1.13777e-05
1.13706e-05
1.1365e-05
1.1358e-05
1.13533e-05
1.13506e-05
1.13507e-05
1.1354e-05
1.13514e-05
1.13514e-05
1.13487e-05
1.13488e-05
1.13486e-05
1.99009e-05
1.92351e-05
1.86083e-05
1.8039e-05
1.75327e-05
1.7079e-05
1.66742e-05
1.63134e-05
1.59933e-05
1.57106e-05
1.54624e-05
1.52461e-05
1.50582e-05
1.48941e-05
1.47532e-05
1.46343e-05
1.45341e-05
1.44487e-05
1.4378e-05
1.43178e-05
1.42679e-05
1.42259e-05
1.41913e-05
1.41619e-05
1.41327e-05
1.41094e-05
1.40911e-05
1.40769e-05
1.40663e-05
1.40583e-05
1.40475e-05
1.404e-05
1.4036e-05
1.40343e-05
1.40365e-05
1.40398e-05
1.40373e-05
1.4035e-05
1.40338e-05
1.40333e-05
2.29161e-05
2.1931e-05
2.11211e-05
2.04327e-05
1.98323e-05
1.93188e-05
1.88632e-05
1.84529e-05
1.80838e-05
1.77536e-05
1.74602e-05
1.72013e-05
1.69741e-05
1.67732e-05
1.66002e-05
1.64517e-05
1.63254e-05
1.62189e-05
1.61293e-05
1.60543e-05
1.59907e-05
1.5938e-05
1.58945e-05
1.58578e-05
1.58201e-05
1.57903e-05
1.57668e-05
1.5749e-05
1.57355e-05
1.57254e-05
1.57118e-05
1.57026e-05
1.56974e-05
1.56953e-05
1.56973e-05
1.57041e-05
1.57006e-05
1.56988e-05
1.56968e-05
1.56957e-05
2.42697e-05
2.29558e-05
2.20149e-05
2.12472e-05
2.05904e-05
2.00297e-05
1.95508e-05
1.91184e-05
1.87289e-05
1.83793e-05
1.80678e-05
1.77922e-05
1.75493e-05
1.73351e-05
1.71506e-05
1.69938e-05
1.6861e-05
1.67491e-05
1.66551e-05
1.65757e-05
1.65087e-05
1.64525e-05
1.64058e-05
1.63661e-05
1.63265e-05
1.6295e-05
1.62703e-05
1.62509e-05
1.62364e-05
1.62253e-05
1.62106e-05
1.62007e-05
1.61952e-05
1.61929e-05
1.61929e-05
1.62037e-05
1.62071e-05
1.61998e-05
1.61955e-05
1.61934e-05
2.31567e-05
2.18509e-05
2.09958e-05
2.02798e-05
1.96644e-05
1.91402e-05
1.86784e-05
1.82605e-05
1.7885e-05
1.75499e-05
1.72537e-05
1.69938e-05
1.67664e-05
1.65668e-05
1.63956e-05
1.62502e-05
1.61273e-05
1.60244e-05
1.59373e-05
1.58645e-05
1.58024e-05
1.57516e-05
1.57082e-05
1.56707e-05
1.56339e-05
1.56046e-05
1.55813e-05
1.55638e-05
1.555e-05
1.55389e-05
1.55248e-05
1.55156e-05
1.55101e-05
1.55077e-05
1.55059e-05
1.55132e-05
1.55158e-05
1.55113e-05
1.55093e-05
1.55083e-05
1.97544e-05
1.90142e-05
1.83138e-05
1.77011e-05
1.71788e-05
1.67211e-05
1.63142e-05
1.59549e-05
1.56384e-05
1.53613e-05
1.51188e-05
1.49071e-05
1.47224e-05
1.45604e-05
1.44224e-05
1.43075e-05
1.42092e-05
1.41282e-05
1.40582e-05
1.40007e-05
1.39516e-05
1.39118e-05
1.38775e-05
1.38472e-05
1.38174e-05
1.37937e-05
1.37756e-05
1.37612e-05
1.375e-05
1.37408e-05
1.37294e-05
1.37223e-05
1.37173e-05
1.37161e-05
1.37158e-05
1.37199e-05
1.37236e-05
1.37216e-05
1.37194e-05
1.37172e-05
1.58416e-05
1.50602e-05
1.4408e-05
1.3867e-05
1.3441e-05
1.30801e-05
1.27795e-05
1.25162e-05
1.2293e-05
1.21009e-05
1.19349e-05
1.17911e-05
1.16667e-05
1.15576e-05
1.14656e-05
1.13882e-05
1.13231e-05
1.12677e-05
1.12199e-05
1.11809e-05
1.11487e-05
1.11225e-05
1.11005e-05
1.1081e-05
1.1062e-05
1.10467e-05
1.10343e-05
1.10249e-05
1.10175e-05
1.10114e-05
1.10043e-05
1.09992e-05
1.09962e-05
1.0995e-05
1.09951e-05
1.09983e-05
1.10006e-05
1.0998e-05
1.09953e-05
1.09936e-05
1.12584e-05
1.0556e-05
9.87163e-06
9.37835e-06
9.03405e-06
8.80137e-06
8.62762e-06
8.4588e-06
8.34576e-06
8.24512e-06
8.15756e-06
8.07846e-06
8.00983e-06
7.95044e-06
7.90047e-06
7.85854e-06
7.82436e-06
7.78927e-06
7.76084e-06
7.73489e-06
7.71309e-06
7.69582e-06
7.68128e-06
7.6682e-06
7.65579e-06
7.6448e-06
7.63561e-06
7.62884e-06
7.62432e-06
7.62017e-06
7.61567e-06
7.61169e-06
7.60953e-06
7.60856e-06
7.60839e-06
7.60997e-06
7.60835e-06
7.60643e-06
7.605e-06
7.60508e-06
5.75582e-06
5.29964e-06
4.88507e-06
4.62233e-06
4.45906e-06
4.35911e-06
4.28075e-06
4.21858e-06
4.16975e-06
4.13007e-06
4.0967e-06
4.06912e-06
4.04572e-06
4.02573e-06
4.00754e-06
3.99132e-06
3.97681e-06
3.96508e-06
3.95574e-06
3.9479e-06
3.94116e-06
3.93569e-06
3.93136e-06
3.92786e-06
3.92457e-06
3.92132e-06
3.91823e-06
3.91575e-06
3.91424e-06
3.91325e-06
3.9122e-06
3.91103e-06
3.90994e-06
3.90921e-06
3.90901e-06
3.90931e-06
3.90929e-06
3.90853e-06
3.90775e-06
3.90669e-06
1.12585e-05
1.0556e-05
9.87154e-06
9.3785e-06
9.03425e-06
8.80109e-06