/*--------------------------------*- C++ -*----------------------------------*\
| =========                 |                                                 |
| \\      /  F ield         | OpenFOAM: The Open Source CFD Toolbox           |
|  \\    /   O peration     | Version:  2212                                  |
|   \\  /    A nd           | Website:  www.openfoam.com                      |
|    \\/     M anipulation  |                                                 |
\*---------------------------------------------------------------------------*/
FoamFile
{
    version     2.0;
    format      ascii;
    arch        "LSB;label=32;scalar=64";
    class       volScalarField;
    location    "0.65";
    object      p;
}
// * * * * * * * * * * * * * * * * * * * * * * * * * * * * * * * * * * * * * //

dimensions      [0 2 -2 0 0 0 0];

internalField   nonuniform List<scalar> 
6840
(
0.0179173
0.0108028
0.00851139
0.00797355
0.00769917
0.00747693
0.00729022
0.00712369
0.00696236
0.00680262
0.0066445
0.00648768
0.00633086
0.00617251
0.00601213
0.00584826
0.00567937
0.00549747
0.00524975
0.00476313
0.0107385
0.0100046
0.00891172
0.00824574
0.00784314
0.00756937
0.00735816
0.00717187
0.00699736
0.00682987
0.00666681
0.0065064
0.00634702
0.00618773
0.006028
0.00586683
0.00569958
0.00551719
0.0052893
0.00492916
0.0103902
0.00953872
0.00877445
0.00821531
0.00783916
0.00757117
0.00735555
0.00716269
0.00698436
0.00681599
0.00665274
0.00649244
0.00633464
0.00617911
0.00602529
0.00587228
0.00571879
0.00556476
0.00541649
0.00528857
0.00998098
0.00921825
0.00859949
0.00814818
0.00780424
0.00753528
0.00731579
0.00712718
0.00695966
0.00680271
0.00664781
0.00649377
0.00634163
0.00619263
0.00604834
0.00591157
0.0057864
0.00567796
0.0055986
0.00556507
0.00984678
0.0091056
0.00851743
0.00810934
0.00778743
0.00752078
0.00729937
0.00710893
0.00693849
0.00678232
0.00663332
0.00648491
0.00633674
0.00619146
0.00605244
0.00592402
0.00581242
0.0057259
0.00568191
0.00571043
0.00984678
0.00910559
0.00851742
0.00810931
0.00778739
0.00752071
0.00729926
0.00710873
0.00693815
0.00678174
0.00663233
0.00648322
0.0063339
0.00618671
0.00604429
0.00590948
0.00578697
0.00568272
0.00560871
0.00558359
0.00998095
0.00921822
0.00859945
0.00814813
0.00780416
0.00753515
0.00731554
0.00712673
0.00695888
0.00680139
0.00664562
0.00649014
0.0063357
0.0061829
0.00603196
0.0058833
0.00573793
0.005598
0.00546987
0.00536655
0.0103902
0.0095387
0.00877442
0.00821527
0.00783909
0.00757102
0.0073553
0.00716226
0.00698364
0.00681477
0.00665067
0.00648905
0.00632921
0.00617041
0.00601124
0.00584963
0.00568188
0.00550375
0.00531409
0.0051016
0.0107385
0.0100046
0.00891171
0.00824572
0.0078431
0.00756932
0.00735806
0.00717169
0.00699704
0.0068293
0.00666588
0.00650488
0.00634436
0.00618294
0.00602005
0.00585421
0.00568022
0.00548469
0.00522582
0.00478292
0.0179173
0.0108028
0.00851139
0.00797355
0.00769916
0.00747693
0.00729022
0.00712368
0.00696236
0.00680262
0.0066445
0.00648769
0.00633086
0.00617252
0.00601213
0.00584825
0.00567936
0.00549744
0.00524968
0.00476303
0.0107385
0.0100046
0.00891171
0.00824572
0.00784311
0.00756932
0.00735806
0.00717169
0.00699704
0.0068293
0.00666588
0.00650487
0.00634436
0.00618294
0.00602005
0.00585421
0.00568024
0.00548472
0.00522588
0.00478302
0.0100219
0.00999017
0.00926193
0.00855141
0.00810504
0.00778903
0.00753004
0.00730223
0.00709739
0.00690858
0.00673017
0.00655823
0.00638941
0.00622155
0.00605313
0.00588163
0.0057033
0.00551399
0.00533011
0.00522657
0.00909643
0.00922262
0.00891974
0.00850351
0.00813635
0.00781771
0.00753915
0.00729867
0.00708605
0.00689137
0.0067078
0.00653201
0.00636187
0.00619546
0.00603082
0.00586616
0.00569932
0.00552732
0.00535019
0.00517573
0.0086781
0.00872161
0.00855606
0.00829315
0.00801281
0.00774151
0.0074906
0.00726437
0.0070616
0.00687548
0.00669916
0.00652966
0.00636546
0.00620562
0.00605039
0.00590047
0.00575678
0.00562125
0.00550243
0.0054177
0.00846214
0.00848398
0.0083568
0.00813933
0.00790698
0.00767792
0.00745526
0.00724234
0.00704197
0.00685535
0.00668007
0.00651315
0.00635327
0.00619902
0.00605025
0.00590921
0.00577758
0.00565575
0.00554603
0.00544655
0.00846212
0.00848395
0.00835677
0.00813927
0.00790689
0.00767779
0.00745505
0.00724203
0.00704151
0.00685457
0.00667871
0.00651078
0.00634942
0.00619332
0.00604178
0.005896
0.00575738
0.00562684
0.00550749
0.00539763
0.00867805
0.00872156
0.00855599
0.00829305
0.00801266
0.00774131
0.00749029
0.00726389
0.00706077
0.00687396
0.00669644
0.00652513
0.00635871
0.00619575
0.00603492
0.00587532
0.00571663
0.00555938
0.00540636
0.00525521
0.00909641
0.00922259
0.00891969
0.00850345
0.00813628
0.0078176
0.00753895
0.00729831
0.0070854
0.0068903
0.00670616
0.0065295
0.00635801
0.00618942
0.00602157
0.00585239
0.00568016
0.00550355
0.00532938
0.00517561
0.0100219
0.00999016
0.00926193
0.00855141
0.00810503
0.00778903
0.00753004
0.00730222
0.00709738
0.00690857
0.00673016
0.00655822
0.0063894
0.00622153
0.00605311
0.0058816
0.00570326
0.00551392
0.00533
0.00522637
0.0107385
0.0100046
0.00891171
0.00824573
0.00784313
0.00756937
0.00735815
0.00717187
0.00699736
0.00682986
0.00666681
0.0065064
0.00634703
0.00618773
0.00602799
0.00586681
0.00569955
0.00551714
0.00528922
0.00492903
0.0103902
0.0095387
0.00877442
0.00821527
0.00783909
0.00757103
0.0073553
0.00716226
0.00698364
0.00681477
0.00665067
0.00648905
0.00632921
0.00617042
0.00601125
0.00584965
0.0056819
0.00550379
0.00531414
0.00510167
0.00909641
0.00922259
0.00891969
0.00850346
0.00813629
0.0078176
0.00753895
0.00729831
0.0070854
0.00689031
0.00670617
0.00652951
0.00635803
0.00618944
0.0060216
0.00585243
0.00568021
0.00550361
0.00532947
0.00517575
0.00852693
0.00862791
0.00851635
0.00829085
0.00803508
0.00777664
0.00751818
0.00727644
0.00705836
0.00685778
0.00666968
0.00649079
0.00631834
0.00615002
0.00598422
0.00581964
0.00565557
0.00549376
0.005342
0.00520094
0.00815898
0.00822705
0.00817469
0.00802774
0.00784288
0.00763776
0.00742712
0.00722028
0.00701923
0.00682692
0.00664453
0.00647022
0.00630199
0.00613858
0.00597927
0.00582329
0.00566989
0.00551903
0.00537199
0.00522267
0.00797595
0.00804038
0.00801093
0.00788612
0.00772718
0.00755357
0.00736735
0.00717946
0.0069935
0.00681035
0.00663157
0.00645821
0.00629069
0.00612914
0.00597372
0.00582376
0.00567715
0.00553206
0.00538774
0.00523358
0.00797593
0.00804037
0.00801091
0.00788606
0.00772705
0.0075534
0.00736717
0.0071792
0.00699312
0.00680977
0.00663069
0.00645692
0.00628888
0.00612645
0.00596967
0.005818
0.00566952
0.0055231
0.0053803
0.00523301
0.00815895
0.00822701
0.00817463
0.00802764
0.00784274
0.00763759
0.0074269
0.00721996
0.00701873
0.00682611
0.0066432
0.00646811
0.0062988
0.00613377
0.00597187
0.00581203
0.00565318
0.00549503
0.00533906
0.00517948
0.00852693
0.00862791
0.00851634
0.00829085
0.00803507
0.00777664
0.00751817
0.00727644
0.00705835
0.00685777
0.00666966
0.00649078
0.00631832
0.00615
0.0059842
0.00581961
0.00565552
0.0054937
0.00534191
0.00520081
0.00909642
0.00922261
0.00891973
0.0085035
0.00813635
0.00781771
0.00753914
0.00729866
0.00708604
0.00689136
0.00670779
0.006532
0.00636185
0.00619545
0.0060308
0.00586613
0.00569928
0.00552725
0.00535008
0.00517555
0.0103902
0.00953872
0.00877444
0.0082153
0.00783916
0.00757116
0.00735554
0.00716269
0.00698435
0.00681598
0.00665273
0.00649244
0.00633464
0.0061791
0.00602528
0.00587227
0.00571877
0.00556472
0.00541643
0.00528847
0.00998095
0.00921822
0.00859946
0.00814813
0.00780416
0.00753515
0.00731554
0.00712673
0.00695888
0.0068014
0.00664562
0.00649015
0.00633571
0.00618291
0.00603198
0.00588332
0.00573794
0.00559802
0.00546989
0.00536657
0.00867805
0.00872156
0.00855599
0.00829305
0.00801267
0.00774131
0.0074903
0.00726389
0.00706077
0.00687397
0.00669645
0.00652514
0.00635873
0.00619577
0.00603494
0.00587534
0.00571666
0.00555942
0.00540642
0.00525528
0.00815895
0.00822702
0.00817464
0.00802764
0.00784274
0.00763759
0.00742691
0.00721996
0.00701873
0.00682612
0.00664321
0.00646812
0.00629881
0.00613378
0.00597188
0.00581205
0.00565321
0.00549507
0.0053391
0.00517953
0.00786107
0.00792021
0.00790828
0.00781289
0.00767326
0.00750776
0.00732754
0.00714304
0.006959
0.00677855
0.0066033
0.00643307
0.00626721
0.00610513
0.00594622
0.00578969
0.00563456
0.00548043
0.00532794
0.00516829
0.00770998
0.00777288
0.00777664
0.00770299
0.00758289
0.00743652
0.00727366
0.00710226
0.00692814
0.00675461
0.00658351
0.00641574
0.00625163
0.0060912
0.00593427
0.00578014
0.00562767
0.00547661
0.005328
0.00517183
0.00770997
0.00777286
0.00777662
0.00770297
0.00758286
0.00743647
0.00727358
0.00710216
0.00692801
0.00675443
0.00658328
0.00641545
0.00625124
0.00609065
0.00593352
0.0057793
0.00562701
0.00547664
0.00532995
0.00517741
0.00786107
0.00792021
0.00790828
0.00781288
0.00767326
0.00750776
0.00732754
0.00714303
0.006959
0.00677855
0.0066033
0.00643306
0.0062672
0.00610512
0.00594621
0.00578967
0.00563454
0.00548041
0.00532793
0.0051683
0.00815898
0.00822704
0.00817468
0.00802773
0.00784288
0.00763775
0.00742711
0.00722027
0.00701922
0.00682691
0.00664452
0.00647021
0.00630197
0.00613857
0.00597926
0.00582327
0.00566986
0.00551899
0.00537196
0.00522264
0.00867809
0.0087216
0.00855605
0.00829315
0.0080128
0.0077415
0.00749059
0.00726436
0.00706159
0.00687547
0.00669915
0.00652965
0.00636545
0.00620561
0.00605037
0.00590045
0.00575675
0.00562121
0.00550236
0.0054176
0.00998097
0.00921824
0.00859948
0.00814818
0.00780424
0.00753528
0.00731578
0.00712718
0.00695966
0.0068027
0.0066478
0.00649376
0.00634163
0.00619263
0.00604834
0.00591156
0.00578639
0.00567794
0.00559856
0.00556502
0.00984678
0.00910559
0.00851742
0.00810931
0.00778739
0.00752072
0.00729926
0.00710873
0.00693815
0.00678174
0.00663233
0.00648322
0.0063339
0.00618672
0.0060443
0.00590948
0.00578697
0.00568272
0.0056087
0.00558357
0.00846212
0.00848395
0.00835677
0.00813927
0.00790689
0.00767779
0.00745505
0.00724204
0.00704151
0.00685457
0.00667872
0.00651079
0.00634943
0.00619333
0.00604178
0.00589601
0.00575739
0.00562684
0.00550749
0.00539764
0.00797593
0.00804037
0.00801091
0.00788606
0.00772706
0.0075534
0.00736717
0.0071792
0.00699312
0.00680977
0.00663069
0.00645692
0.00628889
0.00612646
0.00596968
0.005818
0.00566952
0.00552311
0.00538031
0.00523303
0.00770997
0.00777286
0.00777662
0.00770297
0.00758286
0.00743648
0.00727358
0.00710216
0.00692801
0.00675443
0.00658328
0.00641545
0.00625125
0.00609065
0.00593352
0.0057793
0.00562702
0.00547664
0.00532996
0.00517741
0.00756718
0.0076367
0.00765882
0.00760628
0.00750503
0.0073741
0.00722419
0.00706322
0.00689672
0.0067284
0.00656063
0.00639482
0.00623173
0.00607166
0.00591456
0.0057598
0.0056063
0.00545346
0.00530161
0.00514102
0.00756718
0.00763669
0.00765882
0.00760628
0.00750503
0.0073741
0.00722419
0.00706322
0.00689672
0.0067284
0.00656062
0.00639481
0.00623172
0.00607166
0.00591456
0.0057598
0.0056063
0.00545346
0.00530161
0.00514103
0.00770998
0.00777287
0.00777663
0.00770299
0.00758288
0.00743652
0.00727365
0.00710226
0.00692814
0.00675461
0.00658351
0.00641574
0.00625162
0.00609119
0.00593426
0.00578013
0.00562766
0.00547661
0.00532801
0.00517185
0.00797594
0.00804038
0.00801092
0.00788612
0.00772717
0.00755356
0.00736735
0.00717945
0.0069935
0.00681035
0.00663156
0.0064582
0.00629069
0.00612913
0.00597372
0.00582375
0.00567714
0.00553205
0.00538774
0.0052336
0.00846214
0.00848397
0.00835679
0.00813933
0.00790698
0.00767791
0.00745525
0.00724234
0.00704196
0.00685534
0.00668006
0.00651314
0.00635326
0.00619901
0.00605024
0.00590921
0.00577757
0.00565574
0.00554601
0.00544653
0.00984677
0.00910559
0.00851743
0.00810933
0.00778743
0.00752078
0.00729936
0.00710892
0.00693849
0.00678232
0.00663332
0.0064849
0.00633674
0.00619146
0.00605244
0.00592402
0.00581242
0.0057259
0.00568191
0.00571043
0.00984678
0.0091056
0.00851743
0.00810934
0.00778743
0.00752078
0.00729937
0.00710893
0.00693849
0.00678232
0.00663332
0.0064849
0.00633674
0.00619145
0.00605242
0.005924
0.00581239
0.00572586
0.00568186
0.00571037
0.00846214
0.00848398
0.0083568
0.00813933
0.00790698
0.00767792
0.00745525
0.00724234
0.00704197
0.00685534
0.00668007
0.00651314
0.00635326
0.006199
0.00605023
0.00590919
0.00577755
0.00565571
0.00554598
0.00544649
0.00797595
0.00804038
0.00801093
0.00788612
0.00772717
0.00755356
0.00736735
0.00717946
0.0069935
0.00681035
0.00663156
0.0064582
0.00629068
0.00612913
0.00597371
0.00582374
0.00567713
0.00553203
0.00538772
0.00523358
0.00770998
0.00777287
0.00777663
0.00770299
0.00758288
0.00743652
0.00727365
0.00710226
0.00692814
0.0067546
0.00658351
0.00641574
0.00625162
0.00609119
0.00593426
0.00578013
0.00562766
0.0054766
0.005328
0.00517184
0.00756718
0.00763669
0.00765882
0.00760627
0.00750503
0.0073741
0.00722419
0.00706321
0.00689672
0.0067284
0.00656062
0.00639481
0.00623172
0.00607165
0.00591456
0.0057598
0.00560629
0.00545345
0.00530161
0.00514103
0.00756718
0.00763669
0.00765882
0.00760627
0.00750503
0.0073741
0.00722419
0.00706321
0.00689672
0.0067284
0.00656062
0.00639481
0.00623172
0.00607165
0.00591456
0.0057598
0.00560629
0.00545345
0.00530161
0.00514103
0.00770996
0.00777286
0.00777661
0.00770297
0.00758285
0.00743647
0.00727358
0.00710215
0.006928
0.00675443
0.00658328
0.00641544
0.00625124
0.00609064
0.00593351
0.00577929
0.00562701
0.00547664
0.00532995
0.00517742
0.00797592
0.00804036
0.0080109
0.00788605
0.00772705
0.0075534
0.00736716
0.0071792
0.00699311
0.00680976
0.00663068
0.00645691
0.00628888
0.00612645
0.00596967
0.005818
0.00566952
0.00552311
0.00538031
0.00523303
0.00846211
0.00848395
0.00835676
0.00813926
0.00790688
0.00767778
0.00745504
0.00724203
0.0070415
0.00685456
0.00667871
0.00651078
0.00634942
0.00619332
0.00604178
0.005896
0.00575739
0.00562685
0.00550751
0.00539766
0.00984677
0.00910558
0.00851741
0.0081093
0.00778738
0.00752071
0.00729925
0.00710873
0.00693815
0.00678173
0.00663233
0.00648322
0.0063339
0.00618671
0.0060443
0.00590948
0.00578698
0.00568274
0.00560874
0.00558362
0.00998098
0.00921825
0.00859949
0.00814818
0.00780424
0.00753528
0.00731578
0.00712718
0.00695966
0.0068027
0.0066478
0.00649375
0.00634161
0.00619261
0.00604831
0.00591152
0.00578635
0.00567789
0.00559851
0.00556496
0.0086781
0.0087216
0.00855605
0.00829315
0.0080128
0.00774151
0.00749059
0.00726436
0.00706159
0.00687547
0.00669914
0.00652964
0.00636543
0.00620559
0.00605035
0.00590042
0.00575671
0.00562116
0.00550231
0.00541755
0.00815898
0.00822704
0.00817468
0.00802773
0.00784288
0.00763775
0.00742711
0.00722027
0.00701922
0.0068269
0.00664451
0.0064702
0.00630196
0.00613855
0.00597924
0.00582324
0.00566983
0.00551896
0.00537193
0.00522261
0.00786106
0.00792021
0.00790827
0.00781288
0.00767325
0.00750775
0.00732753
0.00714302
0.00695899
0.00677854
0.00660329
0.00643306
0.00626719
0.0061051
0.00594619
0.00578966
0.00563452
0.0054804
0.00532791
0.00516829
0.00770996
0.00777285
0.00777661
0.00770296
0.00758285
0.00743646
0.00727357
0.00710215
0.00692799
0.00675442
0.00658327
0.00641544
0.00625123
0.00609063
0.0059335
0.00577929
0.005627
0.00547663
0.00532995
0.00517741
0.00770997
0.00777286
0.00777663
0.00770298
0.00758288
0.00743651
0.00727365
0.00710225
0.00692813
0.0067546
0.0065835
0.00641573
0.00625162
0.00609118
0.00593425
0.00578013
0.00562765
0.0054766
0.005328
0.00517184
0.00786106
0.0079202
0.00790827
0.00781288
0.00767325
0.00750775
0.00732753
0.00714302
0.00695899
0.00677854
0.00660329
0.00643306
0.0062672
0.00610511
0.0059462
0.00578967
0.00563454
0.00548041
0.00532792
0.00516829
0.00815894
0.00822701
0.00817463
0.00802763
0.00784273
0.00763758
0.0074269
0.00721995
0.00701872
0.00682611
0.0066432
0.00646811
0.00629879
0.00613376
0.00597187
0.00581203
0.00565319
0.00549505
0.00533907
0.0051795
0.00867804
0.00872155
0.00855598
0.00829304
0.00801266
0.0077413
0.00749029
0.00726388
0.00706076
0.00687396
0.00669644
0.00652513
0.00635871
0.00619575
0.00603492
0.00587532
0.00571664
0.00555941
0.0054064
0.00525526
0.00998094
0.00921821
0.00859945
0.00814812
0.00780416
0.00753514
0.00731553
0.00712672
0.00695887
0.00680139
0.00664561
0.00649014
0.0063357
0.0061829
0.00603196
0.00588331
0.00573794
0.00559803
0.00546991
0.0053666
0.0103902
0.00953872
0.00877444
0.0082153
0.00783916
0.00757116
0.00735554
0.00716268
0.00698435
0.00681597
0.00665272
0.00649242
0.00633461
0.00617907
0.00602525
0.00587222
0.00571872
0.00556466
0.00541637
0.0052884
0.00909642
0.00922261
0.00891973
0.0085035
0.00813635
0.0078177
0.00753914
0.00729866
0.00708603
0.00689135
0.00670778
0.00653198
0.00636183
0.00619542
0.00603077
0.00586609
0.00569923
0.0055272
0.00535003
0.0051755
0.00852692
0.0086279
0.00851633
0.00829084
0.00803506
0.00777663
0.00751816
0.00727643
0.00705834
0.00685776
0.00666965
0.00649076
0.0063183
0.00614998
0.00598416
0.00581957
0.00565549
0.00549366
0.00534187
0.00520077
0.00815893
0.008227
0.00817462
0.00802763
0.00784273
0.00763757
0.00742689
0.00721994
0.00701871
0.0068261
0.00664318
0.00646809
0.00629878
0.00613375
0.00597184
0.005812
0.00565316
0.00549501
0.00533904
0.00517947
0.00797591
0.00804035
0.00801089
0.00788604
0.00772704
0.00755339
0.00736715
0.00717918
0.0069931
0.00680975
0.00663067
0.0064569
0.00628886
0.00612644
0.00596965
0.00581798
0.0056695
0.00552309
0.00538028
0.005233
0.00797593
0.00804037
0.00801091
0.0078861
0.00772716
0.00755355
0.00736734
0.00717944
0.00699349
0.00681034
0.00663155
0.00645819
0.00629067
0.00612912
0.0059737
0.00582373
0.00567713
0.00553203
0.00538772
0.00523358
0.00815897
0.00822703
0.00817467
0.00802772
0.00784287
0.00763775
0.00742711
0.00722026
0.00701921
0.0068269
0.00664451
0.0064702
0.00630196
0.00613856
0.00597925
0.00582326
0.00566985
0.00551899
0.00537195
0.00522264
0.00852692
0.0086279
0.00851633
0.00829084
0.00803506
0.00777663
0.00751817
0.00727643
0.00705835
0.00685776
0.00666966
0.00649077
0.00631832
0.00615
0.00598419
0.00581961
0.00565553
0.00549371
0.00534194
0.00520085
0.0090964
0.00922258
0.00891968
0.00850344
0.00813627
0.00781759
0.00753894
0.0072983
0.00708539
0.0068903
0.00670615
0.0065295
0.00635801
0.00618942
0.00602158
0.0058524
0.00568018
0.00550358
0.00532943
0.00517568
0.0103902
0.00953869
0.00877441
0.00821526
0.00783908
0.00757102
0.00735529
0.00716225
0.00698363
0.00681476
0.00665066
0.00648905
0.0063292
0.0061704
0.00601123
0.00584963
0.00568189
0.00550377
0.00531413
0.00510166
0.0107385
0.0100046
0.00891171
0.00824573
0.00784313
0.00756936
0.00735815
0.00717186
0.00699735
0.00682985
0.00666679
0.00650637
0.00634699
0.00618769
0.00602795
0.00586677
0.0056995
0.00551708
0.00528916
0.00492897
0.0100219
0.00999015
0.00926192
0.0085514
0.00810502
0.00778902
0.00753002
0.00730221
0.00709737
0.00690856
0.00673014
0.0065582
0.00638937
0.0062215
0.00605308
0.00588155
0.00570321
0.00551387
0.00532994
0.00522631
0.00909639
0.00922257
0.00891967
0.00850344
0.00813627
0.00781758
0.00753893
0.00729829
0.00708538
0.00689028
0.00670614
0.00652948
0.00635799
0.00618939
0.00602154
0.00585236
0.00568012
0.00550351
0.00532934
0.00517556
0.00867803
0.00872154
0.00855597
0.00829303
0.00801264
0.00774129
0.00749027
0.00726387
0.00706074
0.00687394
0.00669642
0.00652511
0.00635869
0.00619573
0.00603489
0.00587529
0.0057166
0.00555935
0.00540633
0.00525517
0.0084621
0.00848393
0.00835675
0.00813925
0.00790687
0.00767777
0.00745503
0.00724201
0.00704149
0.00685455
0.00667869
0.00651076
0.0063494
0.0061933
0.00604176
0.00589598
0.00575736
0.00562681
0.00550745
0.0053976
0.00846213
0.00848396
0.00835678
0.00813931
0.00790696
0.0076779
0.00745524
0.00724232
0.00704195
0.00685533
0.00668005
0.00651313
0.00635325
0.00619899
0.00605022
0.00590918
0.00577754
0.00565571
0.00554598
0.0054465
0.00867808
0.00872159
0.00855604
0.00829313
0.00801279
0.00774149
0.00749058
0.00726435
0.00706158
0.00687546
0.00669914
0.00652964
0.00636544
0.00620559
0.00605036
0.00590044
0.00575674
0.00562119
0.00550235
0.00541759
0.00909641
0.0092226
0.00891972
0.00850349
0.00813634
0.0078177
0.00753913
0.00729866
0.00708603
0.00689135
0.00670779
0.00653199
0.00636185
0.00619544
0.0060308
0.00586613
0.00569928
0.00552725
0.0053501
0.00517559
0.0100219
0.00999015
0.00926192
0.0085514
0.00810502
0.00778902
0.00753003
0.00730222
0.00709738
0.00690857
0.00673016
0.00655821
0.0063894
0.00622153
0.00605311
0.0058816
0.00570326
0.00551394
0.00533004
0.00522645
0.0107385
0.0100046
0.0089117
0.00824571
0.0078431
0.00756931
0.00735805
0.00717168
0.00699703
0.0068293
0.00666588
0.00650487
0.00634435
0.00618293
0.00602004
0.0058542
0.00568022
0.0054847
0.00522585
0.00478299
0.0179172
0.0108028
0.00851138
0.00797354
0.00769915
0.00747692
0.00729021
0.00712367
0.00696234
0.0068026
0.00664447
0.00648765
0.00633082
0.00617247
0.00601209
0.0058482
0.0056793
0.00549738
0.00524962
0.00476297
0.0107385
0.0100046
0.00891169
0.00824571
0.00784309
0.0075693
0.00735804
0.00717167
0.00699702
0.00682928
0.00666585
0.00650484
0.00634432
0.0061829
0.00602001
0.00585416
0.00568017
0.00548464
0.00522576
0.00478286
0.0103902
0.00953868
0.0087744
0.00821525
0.00783907
0.007571
0.00735527
0.00716223
0.00698361
0.00681474
0.00665064
0.00648902
0.00632917
0.00617038
0.00601121
0.00584959
0.00568184
0.00550371
0.00531405
0.00510155
0.00998093
0.0092182
0.00859943
0.00814811
0.00780414
0.00753512
0.00731551
0.00712671
0.00695885
0.00680137
0.00664559
0.00649012
0.00633568
0.00618288
0.00603194
0.00588328
0.0057379
0.00559797
0.00546983
0.00536651
0.00984675
0.00910557
0.0085174
0.00810929
0.00778737
0.00752069
0.00729924
0.00710871
0.00693813
0.00678172
0.00663231
0.0064832
0.00633388
0.0061867
0.00604428
0.00590946
0.00578695
0.00568269
0.00560867
0.00558354
0.00984676
0.00910558
0.00851741
0.00810932
0.00778741
0.00752076
0.00729935
0.00710891
0.00693848
0.0067823
0.0066333
0.00648489
0.00633673
0.00619144
0.00605242
0.00592399
0.00581239
0.00572586
0.00568187
0.00571037
0.00998096
0.00921823
0.00859947
0.00814817
0.00780423
0.00753527
0.00731577
0.00712717
0.00695965
0.00680269
0.00664779
0.00649375
0.00634162
0.00619262
0.00604832
0.00591154
0.00578637
0.00567791
0.00559854
0.00556499
0.0103902
0.00953871
0.00877443
0.00821529
0.00783915
0.00757115
0.00735554
0.00716268
0.00698435
0.00681597
0.00665272
0.00649243
0.00633463
0.00617909
0.00602527
0.00587226
0.00571876
0.00556471
0.00541642
0.00528847
0.0107385
0.0100046
0.0089117
0.00824572
0.00784312
0.00756936
0.00735815
0.00717186
0.00699735
0.00682986
0.0066668
0.00650639
0.00634702
0.00618772
0.00602798
0.00586681
0.00569955
0.00551714
0.00528924
0.00492907
0.0179172
0.0108028
0.00851138
0.00797354
0.00769916
0.00747692
0.00729021
0.00712368
0.00696235
0.00680262
0.00664449
0.00648768
0.00633086
0.00617251
0.00601212
0.00584825
0.00567936
0.00549744
0.00524971
0.00476308
0.00568374
0.00498591
0.00450598
0.00437622
0.0042736
0.00415043
0.00402615
0.00390142
0.003775
0.00364754
0.00352028
0.00339398
0.00326878
0.00314371
0.00301895
0.00289511
0.0027726
0.00265121
0.00253066
0.00241088
0.0022918
0.00217361
0.00205586
0.00193747
0.00181819
0.00169879
0.0015801
0.00146258
0.00134574
0.00122829
0.00111003
0.000991805
0.00087441
0.000758109
0.00064194
0.000524941
0.00040744
0.000289954
0.000173213
5.73871e-05
0.00576785
0.00506972
0.00456249
0.00437204
0.00425283
0.00413025
0.00400811
0.00388656
0.00376312
0.00363804
0.0035126
0.00338778
0.00326379
0.0031397
0.00301572
0.00289251
0.00277056
0.00264958
0.00252933
0.00240976
0.00229083
0.00217278
0.00205511
0.00193671
0.00181746
0.0016981
0.00157947
0.00146208
0.00134532
0.00122789
0.00110966
0.000991475
0.000874164
0.000757972
0.00064183
0.000524873
0.0004074
0.000289996
0.000173281
5.74892e-05
0.00549869
0.00508973
0.00472115
0.00449887
0.00433479
0.00418192
0.00403875
0.00390502
0.00377494
0.00364636
0.00351888
0.0033924
0.00326678
0.00314143
0.00301684
0.00289315
0.00277101
0.00264985
0.00252945
0.0024098
0.0022908
0.00217268
0.00205483
0.00193615
0.00181674
0.00169749
0.00157906
0.00146187
0.00134522
0.00122766
0.00110927
0.000991151
0.000873979
0.00075783
0.000641854
0.000524972
0.00040736
0.000289937
0.000173339
5.76088e-05
0.00522979
0.00501369
0.00476927
0.00456345
0.00438991
0.00423163
0.00408176
0.00393894
0.00380104
0.0036665
0.0035345
0.00340455
0.00327591
0.00314843
0.00302231
0.00289766
0.00277466
0.00265269
0.00253174
0.00241171
0.0022924
0.00217404
0.00205586
0.00193671
0.00181684
0.00169747
0.00157921
0.00146212
0.00134539
0.0012277
0.00110919
0.000991138
0.000874152
0.000758116
0.000642136
0.000525071
0.000407264
0.00028986
0.000173335
5.7623e-05
0.00501894
0.00491578
0.00475655
0.00458206
0.00441523
0.00425827
0.00410829
0.00396245
0.00382041
0.00368219
0.00354725
0.00341489
0.00328412
0.00315472
0.00302715
0.00290147
0.00277747
0.00265492
0.00253361
0.00241331
0.0022938
0.00217515
0.00205673
0.00193716
0.00181696
0.00169762
0.00157946
0.00146238
0.00134558
0.0012277
0.00110912
0.000991187
0.000874235
0.000758164
0.000642171
0.000525031
0.000407192
0.00028986
0.000173374
5.76303e-05
0.00491105
0.00485694
0.00474041
0.00458252
0.00441982
0.00426469
0.00411602
0.00397055
0.00382793
0.00368878
0.00355294
0.00341972
0.00328818
0.00315807
0.00302992
0.00290378
0.00277937
0.00265649
0.00253492
0.00241444
0.00229486
0.00217616
0.00205764
0.0019379
0.0018175
0.00169804
0.00157988
0.0014628
0.00134594
0.00122793
0.00110921
0.000991239
0.000874328
0.000758303
0.000642309
0.000525082
0.000407138
0.000289778
0.000173325
5.76084e-05
0.00494108
0.00487387
0.00474645
0.00458102
0.00441621
0.00426168
0.0041138
0.00396934
0.00382774
0.00368932
0.00355391
0.00342094
0.00328943
0.00315925
0.00303097
0.00290471
0.00278021
0.00265729
0.00253567
0.00241514
0.00229549
0.00217686
0.00205854
0.00193887
0.00181841
0.00169873
0.00158031
0.00146321
0.00134644
0.00122837
0.00110948
0.000991332
0.000874399
0.000758428
0.00064247
0.000525218
0.000407186
0.000289688
0.000173185
5.75391e-05
0.00506208
0.00494155
0.00474488
0.00455702
0.0043939
0.00424423
0.00409925
0.00395759
0.0038189
0.00368278
0.0035492
0.00341757
0.0032869
0.0031572
0.00302914
0.00290334
0.00277926
0.00265661
0.00253515
0.00241463
0.00229515
0.0021767
0.00205869
0.0019393
0.00181892
0.00169903
0.00158047
0.00146334
0.0013466
0.00122868
0.00110978
0.000991348
0.000874131
0.000757897
0.00064185
0.000525316
0.000407906
0.000290238
0.000173321
5.75015e-05
0.00536028
0.00503555
0.0047087
0.00449787
0.00434555
0.004205
0.00406772
0.0039334
0.00380013
0.00366791
0.00353735
0.00340795
0.00327943
0.00315141
0.00302445
0.00289953
0.00277617
0.00265411
0.00253309
0.00241297
0.00229374
0.00217561
0.00205796
0.0019391
0.00181898
0.00169909
0.00158031
0.00146301
0.00134643
0.0012288
0.00111004
0.000991521
0.000874032
0.00075765
0.000641743
0.000525371
0.000408017
0.000290325
0.00017321
5.73424e-05
0.00565761
0.0050427
0.00459864
0.00443263
0.00431132
0.00417787
0.00404604
0.0039168
0.00378739
0.0036576
0.00352873
0.00340125
0.0032744
0.00314763
0.00302169
0.00289737
0.00277451
0.0026528
0.00253204
0.0024121
0.00229297
0.00217489
0.00205731
0.00193878
0.0018191
0.00169931
0.00158042
0.00146281
0.00134613
0.00122884
0.0011104
0.000991853
0.000874215
0.0007577
0.00064174
0.000525455
0.000408184
0.000290488
0.000173327
5.7333e-05
0.00568373
0.00498591
0.00450597
0.00437613
0.00427352
0.00415041
0.00402621
0.00390151
0.00377518
0.00364767
0.00352059
0.00339457
0.00326896
0.00314329
0.00301829
0.00289464
0.0027723
0.00265099
0.00253055
0.00241088
0.00229193
0.00217387
0.00205631
0.00193791
0.00181844
0.00169885
0.00158007
0.00146249
0.00134581
0.00122858
0.00111027
0.000991868
0.000874322
0.000757809
0.000641783
0.000525324
0.000407928
0.000290252
0.00017324
5.73042e-05
0.00565765
0.00504276
0.00459871
0.00443277
0.00431148
0.00417798
0.00404605
0.00391673
0.00378721
0.00365743
0.00352824
0.00340036
0.00327382
0.00314763
0.00302202
0.00289753
0.00277452
0.00265276
0.00253193
0.00241194
0.00229271
0.00217449
0.00205674
0.00193828
0.00181893
0.00169945
0.00158069
0.00146318
0.00134628
0.00122871
0.0011104
0.000992119
0.000874696
0.000758421
0.00064214
0.00052497
0.000407342
0.00028982
0.000173038
5.72942e-05
0.00547665
0.00504894
0.00469196
0.00447743
0.00432042
0.0041742
0.00403547
0.0039039
0.0037745
0.00364616
0.00351869
0.00339245
0.00326735
0.00314235
0.00301799
0.00289443
0.00277224
0.00265106
0.00253059
0.00241085
0.00229177
0.00217373
0.00205615
0.00193767
0.00181831
0.00169897
0.00158025
0.00146289
0.00134622
0.0012286
0.00111012
0.00099178
0.00087434
0.000758171
0.00064235
0.00052535
0.000407442
0.000289747
0.000173
5.73486e-05
0.00525705
0.00500233
0.00476149
0.00455001
0.00437119
0.00420997
0.00405936
0.00391773
0.00378197
0.00364951
0.0035196
0.00339209
0.00326558
0.00313972
0.0030151
0.002892
0.00277022
0.00264916
0.00252886
0.00240927
0.00229031
0.00217213
0.00205432
0.00193577
0.00181639
0.00169741
0.00157936
0.00146226
0.00134544
0.00122775
0.0011094
0.000991464
0.000874365
0.000758094
0.000642066
0.000525077
0.000407353
0.00029003
0.000173514
5.76767e-05
0.00511526
0.00493542
0.00475067
0.00456108
0.00438793
0.00422845
0.00407703
0.0039317
0.00379228
0.00365712
0.00352518
0.00339587
0.00326822
0.0031419
0.00301709
0.00289396
0.00277165
0.00265021
0.00252963
0.00240971
0.00229048
0.00217178
0.00205331
0.00193449
0.00181546
0.00169699
0.00157917
0.00146178
0.00134458
0.00122701
0.00110925
0.000991882
0.000874971
0.00075837
0.000641851
0.000524796
0.000407468
0.000290534
0.000174049
5.7886e-05
0.00497937
0.00482082
0.00467988
0.00452291
0.00436626
0.00421619
0.00407113
0.00393026
0.00379319
0.00365918
0.00352752
0.00339803
0.00327049
0.00314431
0.00301934
0.00289556
0.00277276
0.00265124
0.00253067
0.00241062
0.00229114
0.002172
0.00205297
0.001934
0.00181533
0.00169714
0.00157939
0.00146186
0.00134432
0.0012267
0.00110922
0.000992078
0.000875225
0.000758466
0.000641643
0.000524602
0.000407568
0.000290829
0.000174362
5.80386e-05
0.00485634
0.00471675
0.00461687
0.00448578
0.00434278
0.00420202
0.00406397
0.00392767
0.00379294
0.00366016
0.00352916
0.00339994
0.00327248
0.00314626
0.00302113
0.0028971
0.00277415
0.00265233
0.00253159
0.00241157
0.002292
0.00217275
0.00205357
0.00193451
0.00181576
0.00169748
0.00157966