/*--------------------------------*- C++ -*----------------------------------*\
| =========                 |                                                 |
| \\      /  F ield         | OpenFOAM: The Open Source CFD Toolbox           |
|  \\    /   O peration     | Version:  2212                                  |
|   \\  /    A nd           | Website:  www.openfoam.com                      |
|    \\/     M anipulation  |                                                 |
\*---------------------------------------------------------------------------*/
FoamFile
{
    version     2.0;
    format      ascii;
    arch        "LSB;label=32;scalar=64";
    class       surfaceScalarField;
    location    "0.65";
    object      phi;
}
// * * * * * * * * * * * * * * * * * * * * * * * * * * * * * * * * * * * * * //

dimensions      [0 3 -1 0 0 0 0];

oriented        oriented;

internalField   nonuniform List<scalar> 
19019
(
3.3225e-07
1.09684e-09
1.09681e-09
2.79191e-07
2.65294e-08
2.65295e-08
2.49218e-07
1.49862e-08
1.49864e-08
2.29254e-07
9.98162e-09
9.98203e-09
2.14835e-07
7.20913e-09
7.21042e-09
2.03199e-07
5.81671e-09
5.81869e-09
1.93772e-07
4.71154e-09
4.71584e-09
1.86005e-07
3.87961e-09
3.88749e-09
1.79357e-07
3.3168e-09
3.33066e-09
1.73531e-07
2.90103e-09
2.92508e-09
1.68363e-07
2.56433e-09
2.60367e-09
1.63749e-07
2.27473e-09
2.33944e-09
1.59599e-07
2.01823e-09
2.13122e-09
1.55851e-07
1.76893e-09
1.97968e-09
1.52526e-07
1.48283e-09
1.84166e-09
1.49681e-07
1.14293e-09
1.702e-09
1.47514e-07
6.66316e-10
1.50035e-09
1.47203e-07
-4.79197e-10
7.90289e-10
1.5105e-07
-3.01342e-09
-8.34316e-10
-2.6592e-08
-1.53445e-08
6.3138e-07
3.58744e-09
7.40291e-09
6.14564e-07
2.26451e-08
2.07006e-08
5.86445e-07
2.43749e-08
1.87298e-08
5.61726e-07
1.8853e-08
1.5848e-08
5.39618e-07
1.55659e-08
1.37507e-08
5.20638e-07
1.3504e-08
1.12928e-08
5.04694e-07
1.1941e-08
8.71472e-09
4.90944e-07
1.07812e-08
6.84863e-09
4.78728e-07
9.91544e-09
5.61731e-09
4.67655e-07
9.18347e-09
4.78997e-09
4.57493e-07
8.52216e-09
4.20493e-09
4.481e-07
7.89991e-09
3.76712e-09
4.39377e-07
7.29417e-09
3.4471e-09
4.31263e-07
6.67257e-09
3.20983e-09
4.23746e-07
5.97745e-09
3.02271e-09
4.16999e-07
5.07763e-09
2.81231e-09
4.11396e-07
3.78433e-09
2.48412e-09
4.08423e-07
1.16906e-09
1.32516e-09
4.12453e-07
-4.3181e-09
-2.72562e-09
-2.19384e-08
-2.1271e-08
8.90375e-07
2.85247e-09
6.33238e-09
8.82486e-07
1.34079e-08
1.71262e-08
8.70358e-07
1.7866e-08
1.86369e-08
8.55109e-07
1.69528e-08
1.71488e-08
8.39976e-07
1.5336e-08
1.53628e-08
8.25523e-07
1.41629e-08
1.37937e-08
8.11749e-07
1.33673e-08
1.23485e-08
7.98744e-07
1.2654e-08
1.11314e-08
7.86656e-07
1.18505e-08
1.01529e-08
7.7549e-07
1.09802e-08
9.36915e-09
7.65102e-07
1.01304e-08
8.78055e-09
7.55332e-07
9.3098e-09
8.36e-09
7.4605e-07
8.50985e-09
8.06626e-09
7.37172e-07
7.69125e-09
7.85903e-09
7.2866e-07
6.76571e-09
7.72261e-09
7.20509e-07
5.59311e-09
7.63548e-09
7.12721e-07
4.01609e-09
7.5561e-09
7.05052e-07
1.47764e-09
7.36025e-09
6.96501e-07
-2.80334e-09
7.03677e-09
-6.97659e-09
6.63568e-09
1.07432e-06
1.06478e-09
5.56889e-09
1.06824e-06
5.58646e-09
1.39003e-08
1.06138e-06
8.46395e-09
1.62625e-08
1.05338e-06
9.03975e-09
1.59109e-08
1.04509e-06
8.61791e-09
1.5006e-08
1.03719e-06
8.12077e-09
1.39393e-08
1.02979e-06
7.78712e-09
1.29861e-08
1.02276e-06
7.5552e-09
1.21285e-08
1.01587e-06
7.37058e-09
1.13658e-08
1.00904e-06
7.08573e-09
1.07251e-08
1.00228e-06
6.64525e-09
1.02505e-08
9.95518e-07
6.14502e-09
9.9227e-09
9.88655e-07
5.6472e-09
9.72504e-09
9.81527e-07
5.15783e-09
9.66173e-09
9.73877e-07
4.66118e-09
9.7538e-09
9.65319e-07
4.09715e-09
1.00543e-08
9.55155e-07
3.49047e-09
1.06888e-08
9.42324e-07
2.50334e-09
1.18052e-08
9.25428e-07
9.67989e-10
1.31244e-08
5.85605e-10
1.95366e-08
1.16914e-06
6.34866e-14
4.9066e-09
1.16312e-06
3.29733e-13
1.16087e-08
1.15731e-06
8.31873e-13
1.42762e-08
1.15201e-06
1.54135e-12
1.43353e-08
1.14689e-06
2.71799e-12
1.37346e-08
1.14203e-06
4.88873e-12
1.29767e-08
1.1377e-06
8.90356e-12
1.21114e-08
1.13391e-06
1.55903e-11
1.13242e-08
1.13058e-06
2.7012e-11
1.0675e-08
1.12739e-06
4.6015e-11
1.0229e-08
1.124e-06
7.76955e-11
9.95589e-09
1.12023e-06
1.3038e-10
9.78882e-09
1.11591e-06
2.18572e-10
9.7467e-09
1.11083e-06
3.66778e-10
9.8757e-09
1.10465e-06
6.13927e-10
1.02234e-08
1.09684e-06
1.02782e-09
1.08787e-08
1.08651e-06
1.76077e-09
1.20581e-08
1.072e-06
2.92779e-09
1.40897e-08
1.05064e-06
4.99608e-09
1.73289e-08
9.70885e-09
2.49007e-08
1.16914e-06
-1.06463e-09
4.90658e-09
1.16312e-06
-5.5859e-09
1.16087e-08
1.15731e-06
-8.4629e-09
1.42762e-08
1.15201e-06
-9.03794e-09
1.4335e-08
1.1469e-06
-8.61432e-09
1.37333e-08
1.14204e-06
-8.11372e-09
1.2974e-08
1.13772e-06
-7.77401e-09
1.21071e-08
1.13395e-06
-7.53218e-09
1.13171e-08
1.13064e-06
-7.32998e-09
1.06626e-08
1.1275e-06
-7.01792e-09
1.02078e-08
1.12419e-06
-6.53403e-09
9.92046e-09
1.12056e-06
-5.96442e-09
9.72853e-09
1.11649e-06
-5.35155e-09
9.64028e-09
1.11184e-06
-4.66776e-09
9.68389e-09
1.10642e-06
-3.86006e-09
9.8866e-09
1.0999e-06
-2.74315e-09
1.02923e-08
1.09176e-06
-1.12484e-09
1.10308e-08
1.08111e-06
1.32608e-09
1.22533e-08
1.06695e-06
5.09655e-09
1.4052e-08
1.16026e-08
1.68505e-08
1.07432e-06
-2.8525e-09
5.56891e-09
1.06824e-06
-1.3408e-08
1.39004e-08
1.06138e-06
-1.78661e-08
1.62621e-08
1.05338e-06
-1.6953e-08
1.59093e-08
1.0451e-06
-1.53358e-08
1.50028e-08
1.03722e-06
-1.41618e-08
1.39344e-08
1.02983e-06
-1.3365e-08
1.29788e-08
1.02283e-06
-1.26506e-08
1.21167e-08
1.016e-06
-1.18445e-08
1.13459e-08
1.00926e-06
-1.09704e-08
1.06902e-08
1.00265e-06
-1.01155e-08
1.019e-08
9.96159e-07
-9.28721e-09
9.81643e-09
9.8974e-07
-8.4743e-09
9.54133e-09
9.83361e-07
-7.63459e-09
9.34608e-09
9.76974e-07
-6.67992e-09
9.20674e-09
9.70549e-07
-5.40098e-09
9.08275e-09
9.64049e-07
-3.57375e-09
8.94908e-09
9.57237e-07
-6.73791e-10
8.81186e-09
9.49464e-07
4.14598e-09
8.72281e-09
1.3211e-08
8.56683e-09
8.90375e-07
-3.58749e-09
6.33232e-09
8.82486e-07
-2.26454e-08
1.71257e-08
8.7036e-07
-2.43754e-08
1.86357e-08
8.55114e-07
-1.88538e-08
1.71468e-08
8.39986e-07
-1.55678e-08
1.53599e-08
8.25542e-07
-1.35073e-08
1.37898e-08
8.11781e-07
-1.19467e-08
1.23421e-08
7.98801e-07
-1.07907e-08
1.11202e-08
7.86753e-07
-9.9316e-09
1.01348e-08
7.75655e-07
-9.21135e-09
9.33921e-09
7.6538e-07
-8.57022e-09
8.7301e-09
7.55797e-07
-7.97784e-09
8.2732e-09
7.46819e-07
-7.416e-09
7.9197e-09
7.38435e-07
-6.87054e-09
7.6195e-09
7.30736e-07
-6.29553e-09
7.31468e-09
7.24038e-07
-5.59106e-09
6.88798e-09
7.18806e-07
-4.50016e-09
6.15849e-09
7.15478e-07
-1.99366e-09
4.64722e-09
7.14568e-07
3.02525e-09
2.0315e-09
1.68926e-08
-4.30266e-09
6.3138e-07
-1.0968e-09
7.40285e-09
6.14564e-07
-2.65295e-08
2.07003e-08
5.86446e-07
-1.49864e-08
1.87292e-08
5.61727e-07
-9.98201e-09
1.58468e-08
5.39621e-07
-7.21039e-09
1.37491e-08
5.20643e-07
-5.81865e-09
1.12895e-08
5.04702e-07
-4.71579e-09
8.70952e-09
4.90959e-07
-3.88743e-09
6.84008e-09
4.78755e-07
-3.33058e-09
5.60288e-09
4.67703e-07
-2.92499e-09
4.76509e-09
4.5758e-07
-2.60356e-09
4.15667e-09
4.48257e-07
-2.33932e-09
3.68391e-09
4.39646e-07
-2.1311e-09
3.32689e-09
4.31687e-07
-1.97953e-09
3.06749e-09
4.2442e-07
-1.84146e-09
2.81225e-09
4.18086e-07
-1.70164e-09
2.44497e-09
4.13317e-07
-1.4998e-09
1.7684e-09
4.12205e-07
-7.89353e-10
-9.25323e-11
4.1945e-07
8.35464e-10
-5.0551e-09
1.53489e-08
-2.16871e-08
3.3225e-07
1.09685e-09
2.79191e-07
2.65294e-08
2.49218e-07
1.49862e-08
2.29254e-07
9.98163e-09
2.14835e-07
7.20916e-09
2.03199e-07
5.81673e-09
1.93772e-07
4.71157e-09
1.86005e-07
3.87965e-09
1.79357e-07
3.31684e-09
1.73531e-07
2.90108e-09
1.68363e-07
2.56438e-09
1.63749e-07
2.27475e-09
1.596e-07
2.01822e-09
1.55851e-07
1.76893e-09
1.52527e-07
1.48291e-09
1.49682e-07
1.14303e-09
1.47516e-07
6.66414e-10
1.47206e-07
-4.79128e-10
1.51054e-07
-3.01328e-09
-2.65931e-08
6.3138e-07
7.40285e-09
3.5875e-09
6.14564e-07
2.07003e-08
2.26455e-08
5.86446e-07
1.87292e-08
2.43754e-08
5.61727e-07
1.58468e-08
1.88538e-08
5.39621e-07
1.37491e-08
1.55678e-08
5.20643e-07
1.12895e-08
1.35073e-08
5.04702e-07
8.70954e-09
1.19468e-08
4.90959e-07
6.8401e-09
1.07908e-08
4.78755e-07
5.60291e-09
9.93175e-09
4.67703e-07
4.76514e-09
9.21154e-09
4.57579e-07
4.15674e-09
8.57047e-09
4.48257e-07
3.68405e-09
7.97815e-09
4.39644e-07
3.32711e-09
7.41637e-09
4.31685e-07
3.06774e-09
6.87108e-09
4.24418e-07
2.81236e-09
6.29644e-09
4.18082e-07
2.44505e-09
5.59245e-09
4.13312e-07
1.76852e-09
4.50199e-09
4.12198e-07
-9.22602e-11
1.99644e-09
4.1944e-07
-5.05523e-09
-3.02123e-09
-2.16839e-08
-1.68863e-08
9.23617e-07
7.03373e-09
7.03383e-09
9.25318e-07
1.98494e-08
1.98498e-08
9.17184e-07
2.27961e-08
2.27969e-08
9.04275e-07
2.2301e-08
2.23025e-08
8.90535e-07
2.0619e-08
2.06216e-08
8.77411e-07
1.78503e-08
1.78552e-08
8.65445e-07
1.46914e-08
1.46995e-08
8.54772e-07
1.21742e-08
1.21871e-08
8.45342e-07
1.0314e-08
1.03367e-08
8.37013e-07
8.92223e-09
8.96182e-09
8.29608e-07
7.84942e-09
7.91658e-09
8.22958e-07
6.99555e-09
7.10566e-09
8.16984e-07
6.28739e-09
6.46149e-09
8.11714e-07
5.63735e-09
5.91018e-09
8.0724e-07
4.93891e-09
5.36974e-09
8.03672e-07
4.08171e-09
4.74333e-09
8.01163e-07
2.88998e-09
3.87198e-09
7.99101e-07
9.40964e-10
2.35335e-09
7.9418e-07
-2.22675e-09
-6.3324e-10
-7.40804e-09
-5.85979e-09
1.1589e-06
5.28117e-09
6.10266e-09
1.1657e-06
1.39982e-08
1.61833e-08
1.16844e-06
1.79771e-08
2.07075e-08
1.16661e-06
1.91776e-08
2.21064e-08
1.16221e-06
1.8874e-08
2.15084e-08
1.15654e-06
1.75409e-08
1.97739e-08
1.15047e-06
1.56766e-08
1.74315e-08
1.14457e-06
1.38705e-08
1.53396e-08
1.13913e-06
1.22563e-08
1.36459e-08
1.13429e-06
1.08366e-08
1.22941e-08
1.13005e-06
9.6444e-09
1.12277e-08
1.12637e-06
8.63739e-09
1.03964e-08
1.12324e-06
7.74192e-09
9.74484e-09
1.12064e-06
6.87818e-09
9.21669e-09
1.11857e-06
5.96294e-09
8.77155e-09
1.11703e-06
4.89615e-09
8.35719e-09
1.11605e-06
3.53057e-09
7.89793e-09
1.11548e-06
1.62931e-09
7.24167e-09
1.11524e-06
-1.10351e-09
6.15461e-09
-4.91982e-09
4.76357e-09
1.32762e-06
2.71819e-09
4.93125e-09
1.33539e-06
7.12074e-09
1.30095e-08
1.34286e-06
9.55325e-09
1.72171e-08
1.34847e-06
1.05779e-08
1.89028e-08
1.35197e-06
1.08753e-08
1.9508e-08
1.35374e-06
1.05803e-08
1.91254e-08
1.3544e-06
9.89065e-09
1.8116e-08
1.35452e-06
9.04341e-09
1.68343e-08
1.35445e-06
8.18938e-09
1.54979e-08
1.35434e-06
7.38893e-09
1.42859e-08
1.35423e-06
6.67017e-09
1.33328e-08
1.35415e-06
6.03028e-09
1.261e-08
1.35409e-06
5.44577e-09
1.20842e-08
1.354e-06
4.88805e-09
1.17386e-08
1.35381e-06
4.32759e-09
1.15769e-08
1.3534e-06
3.73885e-09
1.16271e-08
1.35258e-06
3.08364e-09
1.19553e-08
1.35105e-06
2.32809e-09
1.26372e-08
1.34785e-06
1.52154e-09
1.3701e-08
1.30936e-09
1.55749e-08
1.41518e-06
1.44204e-13
4.19306e-09
1.42279e-06
4.25086e-13
1.11166e-08
1.43152e-06
7.35425e-13
1.50999e-08
1.4398e-06
1.40988e-12
1.66322e-08
1.44712e-06
2.72886e-12
1.72818e-08
1.45315e-06
4.92804e-12
1.75206e-08
1.45798e-06
8.29983e-12
1.71685e-08
1.46187e-06
1.3762e-11
1.64591e-08
1.46513e-06
2.34164e-11
1.5582e-08
1.46799e-06
4.08388e-11
1.47169e-08
1.47062e-06
6.98465e-11
1.39294e-08
1.47304e-06
1.18077e-10
1.3277e-08
1.47519e-06
1.9166e-10
1.28554e-08
1.47697e-06
3.02742e-10
1.26809e-08
1.47832e-06
4.80693e-10
1.27157e-08
1.47916e-06
7.55155e-10
1.30232e-08
1.47939e-06
1.17408e-09
1.37397e-08
1.479e-06
1.80242e-09
1.50025e-08
1.47834e-06
2.69787e-09
1.68118e-08
3.9135e-09
1.87812e-08
1.41518e-06
-2.71803e-09
4.19299e-09
1.42279e-06
-7.12029e-09
1.11164e-08
1.43152e-06
-9.55245e-09
1.50996e-08
1.4398e-06
-1.05764e-08
1.66313e-08
1.44713e-06
-1.08721e-08
1.72797e-08
1.45317e-06
-1.05747e-08
1.75168e-08
1.458e-06
-9.881e-09
1.71622e-08
1.46191e-06
-9.02718e-09
1.64492e-08
1.46519e-06
-8.16171e-09
1.55668e-08
1.46809e-06
-7.33881e-09
1.46917e-08
1.47077e-06
-6.58352e-09
1.38865e-08
1.4733e-06
-5.88518e-09
1.32008e-08
1.47564e-06
-5.22472e-09
1.27209e-08
1.47772e-06
-4.55003e-09
1.24592e-08
1.47949e-06
-3.77992e-09
1.23734e-08
1.48092e-06
-2.84564e-09
1.24675e-08
1.48194e-06
-1.63618e-09
1.28167e-08
1.48253e-06
-4.12543e-11
1.35087e-08
1.48267e-06
2.11991e-09
1.44846e-08
4.76887e-09
1.54154e-08
1.32763e-06
-5.28126e-09
4.93109e-09
1.33539e-06
-1.39984e-08
1.3009e-08
1.34287e-06
-1.79774e-08
1.72159e-08
1.34848e-06
-1.9178e-08
1.88998e-08
1.35198e-06
-1.88747e-08
1.95025e-08
1.35376e-06
-1.75424e-08
1.91169e-08
1.35444e-06
-1.56783e-08
1.81027e-08
1.35459e-06
-1.38722e-08
1.68134e-08
1.35457e-06
-1.22602e-08
1.54657e-08
1.35453e-06
-1.08444e-08
1.42336e-08
1.35455e-06
-9.65821e-09
1.32426e-08
1.35469e-06
-8.66355e-09
1.24583e-08
1.35496e-06
-7.79636e-09
1.18357e-08
1.35541e-06
-6.98321e-09
1.13353e-08
1.35605e-06
-6.13008e-09
1.09176e-08
1.35688e-06
-5.13842e-09
1.05438e-08
1.35786e-06
-3.85491e-09
1.01811e-08
1.35891e-06
-2.08224e-09
9.80633e-09
1.35995e-06
3.88287e-10
9.41982e-09
3.87597e-09
9.0667e-09
1.1589e-06
-7.03383e-09
6.10245e-09
1.1657e-06
-1.98498e-08
1.61824e-08
1.16845e-06
-2.27969e-08
2.07055e-08
1.16661e-06
-2.23025e-08
2.21031e-08
1.16222e-06
-2.06215e-08
2.15036e-08
1.15655e-06
-1.78551e-08
1.97673e-08
1.1505e-06
-1.46994e-08
1.74205e-08
1.14461e-06
-1.21869e-08
1.53205e-08
1.13921e-06
-1.03365e-08
1.36135e-08
1.13442e-06
-8.96157e-09
1.22407e-08
1.13027e-06
-7.91624e-09
1.11396e-08
1.12673e-06
-7.10517e-09
1.0254e-08
1.1238e-06
-6.46075e-09
9.51702e-09
1.12149e-06
-5.90934e-09
8.85791e-09
1.11983e-06
-5.36888e-09
8.2065e-09
1.11887e-06
-4.74211e-09
7.46035e-09
1.11857e-06
-3.87023e-09
6.4661e-09
1.11848e-06
-2.35073e-09
5.00692e-09
1.11737e-06
6.37085e-10
2.88974e-09
5.86746e-09
2.38899e-10
9.23617e-07
-7.40291e-09
7.03373e-09
9.25318e-07
-2.07006e-08
1.98494e-08
9.17184e-07
-1.87298e-08
2.27961e-08
9.04276e-07
-1.5848e-08
2.2301e-08
8.90535e-07
-1.37507e-08
2.0619e-08
8.77412e-07
-1.12927e-08
1.78503e-08
8.65445e-07
-8.7147e-09
1.46914e-08
8.54773e-07
-6.8486e-09
1.21741e-08
8.45342e-07
-5.61727e-09
1.03139e-08
8.37014e-07
-4.78992e-09
8.92215e-09
8.29609e-07
-4.20486e-09
7.84929e-09
8.2296e-07
-3.76698e-09
6.9953e-09
8.16986e-07
-3.44685e-09
6.28694e-09
8.11717e-07
-3.2096e-09
5.63685e-09
8.07244e-07
-3.02261e-09
4.93853e-09
8.03678e-07
-2.81218e-09
4.08117e-09
8.01171e-07
-2.4839e-09
2.88909e-09
7.99113e-07
-1.32477e-09
9.39398e-10
7.94198e-07
2.72589e-09
-2.22902e-09
2.12738e-08
-7.41368e-09
6.3138e-07
3.58745e-09
6.14564e-07
2.26451e-08
5.86445e-07
2.4375e-08
5.61726e-07
1.8853e-08
5.39618e-07
1.55659e-08
5.20638e-07
1.3504e-08
5.04694e-07
1.1941e-08
4.90944e-07
1.07812e-08
4.78728e-07
9.91543e-09
4.67656e-07
9.18344e-09
4.57493e-07
8.52211e-09
4.48101e-07
7.89981e-09
4.39379e-07
7.29401e-09
4.31266e-07
6.67228e-09
4.23749e-07
5.97697e-09
4.17003e-07
5.07692e-09
4.11402e-07
3.78316e-09
4.08431e-07
1.16745e-09
4.12464e-07
-4.32049e-09
-2.19425e-08
8.90375e-07
6.33232e-09
2.8525e-09
8.82486e-07
1.71257e-08
1.3408e-08
8.7036e-07
1.86357e-08
1.78661e-08
8.55114e-07
1.71468e-08
1.6953e-08
8.39986e-07
1.53599e-08
1.53359e-08
8.25542e-07
1.37898e-08
1.41619e-08
8.11781e-07
1.23422e-08
1.33651e-08
7.98801e-07
1.11202e-08
1.26508e-08
7.86753e-07
1.01348e-08
1.18448e-08
7.75655e-07
9.33924e-09
1.09708e-08
7.65379e-07
8.73015e-09
1.0116e-08
7.55796e-07
8.27328e-09
9.28785e-09
7.46817e-07
7.91982e-09
8.47514e-09
7.38433e-07
7.61964e-09
7.63578e-09
7.30733e-07
7.31497e-09
6.68167e-09
7.24034e-07
6.88849e-09
5.40338e-09
7.188e-07
6.15919e-09
3.5768e-09
7.1547e-07
4.64825e-09
6.77704e-10
7.14556e-07
2.0328e-09
-4.14021e-09
-4.30138e-09
-1.32042e-08
1.1589e-06
6.10245e-09
5.28126e-09
1.1657e-06
1.61824e-08
1.39984e-08
1.16845e-06
2.07055e-08
1.79774e-08
1.16661e-06
2.21031e-08
1.9178e-08
1.16222e-06
2.15036e-08
1.88748e-08
1.15655e-06
1.97673e-08
1.75425e-08
1.1505e-06
1.74205e-08
1.56785e-08
1.14461e-06
1.53206e-08
1.38724e-08
1.13921e-06
1.36135e-08
1.22605e-08
1.13442e-06
1.22407e-08
1.08449e-08
1.13027e-06
1.11397e-08
9.65878e-09
1.12673e-06
1.02542e-08
8.66436e-09
1.1238e-06
9.51744e-09
7.79747e-09
1.12148e-06
8.85835e-09
6.98459e-09
1.11983e-06
8.20699e-09
6.13179e-09
1.11886e-06
7.46114e-09
5.14076e-09
1.11857e-06
6.46738e-09
3.85812e-09
1.11847e-06
5.00888e-09
2.08664e-09
1.11736e-06
2.89257e-09
-3.81707e-10
2.42598e-10
-3.86802e-09
1.37712e-06
4.57709e-09
4.5773e-09
1.38565e-06
1.19164e-08
1.19171e-08
1.39417e-06
1.64457e-08
1.64469e-08
1.40126e-06
1.85583e-08
1.85603e-08
1.40642e-06
1.89263e-08
1.89297e-08
1.40952e-06
1.82156e-08
1.82209e-08
1.41096e-06
1.67048e-08
1.67136e-08
1.41156e-06
1.50243e-08
1.5038e-08
1.41186e-06
1.3468e-08
1.34904e-08
1.41213e-06
1.21104e-08
1.21464e-08
1.41257e-06
1.0938e-08
1.09961e-08
1.41327e-06
9.92722e-09
1.00203e-08
1.41431e-06
9.03654e-09
9.18661e-09
1.41572e-06
8.21315e-09
8.45263e-09
1.41751e-06
7.40819e-09
7.77821e-09
1.41966e-06
6.55561e-09
7.11571e-09
1.42203e-06
5.58104e-09
6.40984e-09
1.42426e-06
4.41453e-09
5.60775e-09
1.42553e-06
3.06327e-09
4.71739e-09
1.88266e-09
4.08079e-09
1.53312e-06
2.36596e-09
3.64951e-09
1.54218e-06
6.23865e-09
9.63448e-09
1.55327e-06
8.87308e-09
1.3693e-08
1.56445e-06
1.03468e-08
1.5939e-08
1.57507e-06
1.0899e-08
1.69155e-08
1.58471e-06
1.07534e-08
1.69512e-08
1.593e-06
1.01416e-08
1.63852e-08
1.60007e-06
9.32834e-09
1.54594e-08
1.60622e-06
8.45524e-09
1.43638e-08
1.6117e-06
7.63202e-09
1.32791e-08
1.61677e-06
6.90259e-09
1.23037e-08
1.62157e-06
6.26529e-09
1.14672e-08
1.62622e-06
5.69503e-09
1.07761e-08
1.63078e-06
5.1615e-09
1.02271e-08
1.63531e-06
4.64659e-09
9.81292e-09
1.63983e-06
4.13355e-09
9.53351e-09
1.64436e-06
3.60455e-09
9.3979e-09
1.64896e-06
3.04172e-09
9.41201e-09
1.65373e-06
2.46184e-09
9.53222e-09
1.97615e-09
9.69994e-09
1.61424e-06
1.14361e-13
3.09306e-09
1.62332e-06
2.76554e-13
8.27469e-09
1.63533e-06
4.95007e-13
1.19584e-08
1.64819e-06
9.0909e-13
1.41167e-08
1.66117e-06
1.67142e-12
1.52039e-08
1.67385e-06
2.75669e-12
1.55884e-08
1.68572e-06
4.63132e-12
1.54373e-08
1.69653e-06
7.42952e-12
1.49688e-08
1.70626e-06
1.23493e-11
1.42998e-08
1.71505e-06
2.07546e-11
1.35335e-08
1.72309e-06
3.422e-11
1.27616e-08
1.73052e-06
5.48395e-11
1.20557e-08
1.73751e-06
8.44024e-11
1.14705e-08
1.74419e-06
1.27888e-10
1.10416e-08
1.75057e-06
1.93329e-10
1.07908e-08
1.7567e-06
2.96561e-10
1.07307e-08
1.76271e-06
4.48215e-10
1.0881e-08
1.76886e-06
6.50538e-10
1.12446e-08
1.7755e-06
8.91493e-10
1.17386e-08
1.1548e-09
1.21855e-08
1.61424e-06
-2.36588e-09
3.09295e-09
1.62332e-06
-6.23848e-09
8.27435e-09
1.63533e-06
-8.87278e-09
1.19577e-08
1.6482e-06
-1.03462e-08
1.41153e-08
1.66118e-06
-1.08982e-08
1.52013e-08
1.67386e-06
-1.07523e-08
1.55842e-08
1.68574e-06
-1.01395e-08
1.54313e-08
1.69656e-06
-9.32467e-09
1.49597e-08
1.7063e-06
-8.44899e-09
1.42856e-08
1.71512e-06
-7.62008e-09
1.35108e-08
1.7232e-06
-6.88075e-09
1.27246e-08
1.73069e-06
-6.22794e-09
1.1995e-08
1.73776e-06
-5.63783e-09
1.13717e-08
1.74454e-06
-5.07805e-09
1.08834e-08
1.75108e-06
-4.51636e-09
1.0544e-08
1.75741e-06
-3.91655e-09
1.03533e-08
1.76361e-06
-3.24151e-09
1.03102e-08
1.76981e-06
-2.45056e-09
1.04044e-08
1.77613e-06
-1.52213e-09
1.05768e-08
-5.23248e-10
1.06965e-08
1.53312e-06
-4.57729e-09
3.64924e-09
1.54218e-06
-1.1917e-08
9.63367e-09
1.55328e-06
-1.64469e-08
1.36914e-08
1.56445e-06
-1.85602e-08
1.5936e-08
1.57508e-06
-1.89296e-08
1.69106e-08
1.58472e-06
-1.82208e-08
1.69434e-08
1.59302e-06
-1.67134e-08
1.63733e-08
1.60011e-06
-1.50378e-08
1.54403e-08
1.60628e-06
-1.34901e-08
1.43343e-08
1.61181e-06
-1.2146e-08
1.3233e-08
1.61694e-06
-1.09955e-08
1.22291e-08
1.62184e-06
-1.00195e-08
1.13472e-08
1.62664e-06
-9.18555e-09
1.05817e-08
1.63144e-06
-8.45135e-09
9.91414e-09
1.63629e-06
-7.77664e-09
9.31913e-09
1.64127e-06
-7.11358e-09
8.7657e-09
1.64639e-06
-6.40694e-09
8.22553e-09
1.65167e-06
-5.60386e-09
7.67597e-09
1.65717e-06
-4.71239e-09
7.11575e-09
-4.07516e-09
6.66342e-09
1.37712e-06
-6.10265e-09
4.57709e-09
1.38565e-06
-1.61833e-08
1.19164e-08
1.39417e-06
-2.07075e-08
1.64457e-08
1.40126e-06
-2.21063e-08
1.85583e-08
1.40642e-06
-2.15083e-08
1.89263e-08
1.40952e-06
-1.97739e-08
1.82156e-08
1.41096e-06
-1.74314e-08
1.67048e-08
1.41156e-06
-1.53395e-08
1.50242e-08
1.41186e-06
-1.36457e-08
1.34679e-08
1.41214e-06
-1.22938e-08
1.21103e-08
1.41257e-06
-1.12273e-08
1.09378e-08
1.41327e-06
-1.03959e-08
9.92683e-09
1.41431e-06
-9.74411e-09
9.03598e-09
1.41572e-06
-9.21588e-09
8.21249e-09
1.41752e-06
-8.77059e-09
7.40735e-09
1.41966e-06
-8.35582e-09
6.55432e-09
1.42204e-06
-7.89594e-09
5.57907e-09
1.42427e-06
-7.23884e-09
4.4116e-09
1.42554e-06
-6.15081e-09
3.0592e-09
-4.75931e-09
1.8778e-09
1.1589e-06
-6.33238e-09
5.28117e-09
1.1657e-06
-1.71262e-08
1.39982e-08
1.16844e-06
-1.86369e-08
1.79771e-08
1.16661e-06
-1.71488e-08
1.91776e-08
1.16221e-06
-1.53628e-08
1.8874e-08
1.15654e-06
-1.37937e-08
1.75409e-08
1.15047e-06
-1.23485e-08
1.56765e-08
1.14457e-06
-1.11314e-08
1.38705e-08
1.13913e-06
-1.01529e-08
1.22562e-08
1.13429e-06
-9.36906e-09
1.08365e-08
1.13005e-06
-8.78043e-09
9.64418e-09
1.12637e-06
-8.35982e-09
8.63702e-09
1.12324e-06
-8.06601e-09
7.74133e-09
1.12064e-06
-7.85874e-09
6.87748e-09
1.11857e-06
-7.72219e-09
5.96211e-09
1.11704e-06
-7.63482e-09
4.89489e-09
1.11606e-06
-7.55512e-09
3.52861e-09
1.11549e-06
-7.35896e-09
1.62637e-09
1.11525e-06
-7.03512e-09
-1.10842e-09
-6.63417e-09
-4.92557e-09
8.90375e-07
2.85248e-09
8.82486e-07
1.34079e-08
8.70358e-07
1.7866e-08
8.55109e-07
1.69528e-08
8.39976e-07
1.5336e-08
8.25524e-07
1.41629e-08
8.11749e-07
1.33673e-08
7.98745e-07
1.26539e-08
7.86657e-07
1.18504e-08
7.75491e-07
1.09801e-08
7.65103e-07
1.01302e-08
7.55333e-07
9.30954e-09
7.46051e-07
8.50947e-09
7.37174e-07
7.69063e-09
7.28664e-07
6.76475e-09
7.20515e-07
5.59173e-09
7.12729e-07
4.014e-09
7.05062e-07
1.47493e-09
6.96514e-07
-2.80748e-09
-6.98254e-09
1.07432e-06
5.5689e-09
1.06463e-09
1.06824e-06
1.39004e-08
5.58592e-09
1.06138e-06
1.62621e-08
8.46292e-09
1.05338e-06
1.59093e-08
9.03798e-09
1.0451e-06
1.50028e-08
8.61438e-09
1.03722e-06
1.39344e-08
8.11382e-09
1.02983e-06
1.29788e-08
7.77417e-09
1.02283e-06
1.21167e-08
7.5324e-09
1.016e-06
1.13459e-08
7.3303e-09
1.00926e-06
1.06903e-08
7.01836e-09
1.00265e-06
1.01901e-08
6.53464e-09
9.96158e-07
9.81657e-09
5.96524e-09
9.89739e-07
9.54154e-09
5.35268e-09
9.8336e-07
9.34638e-09
4.66931e-09
9.76972e-07
9.20717e-09
3.86221e-09
9.70546e-07
9.08334e-09
2.74598e-09
9.64045e-07
8.94981e-09
1.1285e-09
9.57231e-07
8.81267e-09
-1.32142e-09
9.49458e-07
8.72367e-09
-5.09061e-09
8.56781e-09
-1.15948e-08
1.32763e-06
4.93109e-09
2.71803e-09
1.33539e-06
1.3009e-08
7.12031e-09
1.34287e-06
1.72159e-08
9.55248e-09
1.34848e-06
1.88998e-08
1.05764e-08
1.35198e-06
1.95025e-08
1.08722e-08
1.35376e-06
1.91169e-08
1.05748e-08
1.35444e-06
1.81028e-08
9.88122e-09
1.35459e-06
1.68134e-08
9.02749e-09
1.35456e-06
1.54658e-08
8.16213e-09
1.35453e-06
1.42337e-08
7.33937e-09
1.35455e-06
1.32427e-08
6.58427e-09
1.35468e-06
1.24586e-08
5.88619e-09
1.35496e-06
1.18361e-08
5.2261e-09
1.35541e-06
1.13358e-08
4.55184e-09
1.35604e-06
1.09182e-08
3.78227e-09
1.35687e-06
1.05445e-08
2.84874e-09
1.35786e-06
1.01822e-08
1.64025e-09
1.35891e-06
9.80786e-09
4.65461e-11
1.35994e-06
9.42192e-09
-2.1131e-09
9.06938e-09
-4.7605e-09
1.53312e-06
3.64924e-09
2.36589e-09
1.54218e-06
9.63367e-09
6.23851e-09
1.55328e-06
1.36914e-08
8.87283e-09
1.56445e-06
1.5936e-08
1.03463e-08
1.57508e-06
1.69106e-08
1.08983e-08
1.58472e-06
1.69434e-08
1.07524e-08
1.59302e-06
1.63734e-08
1.01397e-08
1.60011e-06
1.54403e-08
9.32499e-09
1.60628e-06
1.43344e-08
8.44941e-09
1.61181e-06
1.32331e-08
7.62065e-09
1.61694e-06
1.22293e-08
6.8815e-09
1.62184e-06
1.13475e-08
6.22894e-09
1.62664e-06
1.05821e-08
5.63914e-09
1.63143e-06
9.91465e-09
5.07969e-09
1.63629e-06
9.31979e-09
4.51843e-09
1.64127e-06
8.76666e-09
3.91921e-09
1.64639e-06
8.22693e-09
3.2449e-09
1.65167e-06
7.67795e-09
2.45478e-09
1.65716e-06
7.11835e-09
1.52711e-09
6.6665e-09
5.2837e-10
1.68027e-06
1.89096e-09
1.89109e-09
1.68934e-06
5.09912e-09
5.09951e-09
1.7018e-06
7.4638e-09
7.46456e-09
1.71578e-06
8.94522e-09
8.9465e-09
1.73022e-06
9.69136e-09
9.69348e-09
1.7444e-06
9.85817e-09
9.86158e-09
1.75785e-06
9.6478e-09
9.65305e-09
1.77036e-06
9.19186e-09
9.19975e-09
1.78184e-06
8.60168e-09
8.6133e-09
1.7924e-06
7.96965e-09
7.98693e-09
1.80219e-06
7.35869e-09
7.3852e-09
1.81137e-06
6.79814e-09
6.84004e-09
1.82007e-06
6.29427e-09
6.36203e-09
1.82842e-06
5.84017e-09
5.94932e-09
1.83654e-06
5.42198e-09
5.59056e-09
1.84454e-06
5.02887e-09
5.27448e-09
1.85252e-06
4.65106e-09
4.9933e-09
1.86059e-06
4.27691e-09
4.73705e-09
1.86887e-06
3.90591e-09
4.47011e-09
3.62178e-09
4.17859e-09
1.7569e-06
2.30329e-14
1.61331e-09
1.76589e-06
1.50792e-14
4.38438e-09
1.77878e-06
-6.23552e-15
6.53227e-09
1.79389e-06
-3.44192e-14
7.95185e-09
1.81003e-06
-9.07285e-14
8.75686e-09
1.82639e-06
-1.99008e-13
9.08731e-09
1.8424e-06
-3.29924e-13
9.07423e-09
1.85772e-06
-2.49261e-13
8.83869e-09
1.87216e-06
9.28527e-14
8.46574e-09
1.88564e-06
6.66538e-13
8.02166e-09
1.8982e-06
1.20212e-12
7.55831e-09
1.90994e-06
1.13253e-12
7.11404e-09
1.92099e-06
-5.37361e-13
6.71586e-09
1.93149e-06
-4.17504e-12
6.3832e-09
1.94158e-06
-8.1129e-12
6.13292e-09
1.95137e-06
-8.16634e-12
5.97165e-09
1.96101e-06
-3.37368e-12
5.89823e-09
1.97063e-06
2.01281e-12
5.90019e-09
1.98032e-06
9.82297e-12
5.94571e-09
4.57837e-11
5.95548e-09
1.7569e-06
-1.89107e-09
1.61321e-09
1.76589e-06
-5.09948e-09
4.38409e-09
1.77878e-06
-7.46452e-09
6.53169e-09
1.79389e-06
-8.94643e-09
7.95083e-09
1.81003e-06
-9.69336e-09
8.75518e-09
1.82639e-06
-9.86142e-09
9.08473e-09
1.84241e-06
-9.65283e-09
9.07049e-09
1.85773e-06
-9.19946e-09
8.83316e-09
1.87217e-06
-8.61292e-09
8.45745e-09
1.88566e-06
-7.98642e-09
8.00911e-09
1.89823e-06
-7.38454e-09
7.53908e-09
1.90998e-06
-6.83918e-09
7.08435e-09
1.92105e-06
-6.36094e-09
6.66987e-09
1.93156e-06
-5.94801e-09
6.312e-09
1.94166e-06
-5.58899e-09
6.02369e-09
1.95147e-06
-5.27255e-09
5.81133e-09
1.96109e-06
-4.99097e-09
5.67358e-09
1.97063e-06
-4.73437e-09
5.60103e-09
1.98011e-06
-4.46734e-09
5.57537e-09
-4.17632e-09
5.5303e-09
1.68027e-06
-3.6495e-09
1.89097e-09
1.68934e-06
-9.63446e-09
5.09912e-09
1.7018e-06
-1.3693e-08
7.4638e-09
1.71578e-06
-1.59389e-08
8.94521e-09
1.73022e-06
-1.69154e-08
9.69135e-09
1.7444e-06
-1.69511e-08
9.85815e-09
1.75785e-06
-1.63851e-08
9.64777e-09
1.77036e-06
-1.54592e-08
9.19182e-09
1.78185e-06
-1.43636e-08
8.60161e-09
1.7924e-06
-1.32788e-08
7.96954e-09
1.80219e-06
-1.23032e-08
7.3585e-09
1.81137e-06
-1.14665e-08
6.79785e-09
1.82007e-06
-1.07752e-08
6.29387e-09
1.82842e-06
-1.0226e-08
5.83966e-09
1.83654e-06
-9.81162e-09
5.42133e-09
1.84454e-06
-9.53182e-09
5.02796e-09
1.85252e-06
-9.39571e-09
4.64982e-09
1.8606e-06
-9.40922e-09
4.27528e-09
1.86887e-06
-9.52898e-09
3.90398e-09
-9.697e-09
3.61989e-09
1.53312e-06
-4.93125e-09
2.36596e-09
1.54218e-06
-1.30095e-08
6.23865e-09
1.55327e-06
-1.72171e-08
8.87307e-09
1.56445e-06
-1.89027e-08
1.03467e-08
1.57507e-06
-1.95079e-08
1.0899e-08
1.58471e-06
-1.91254e-08
1.07534e-08
1.593e-06
-1.81159e-08
1.01415e-08
1.60007e-06
-1.68342e-08
9.32826e-09
1.60622e-06
-1.54977e-08
8.45512e-09
1.6117e-06
-1.42857e-08
7.63184e-09
1.61677e-06
-1.33325e-08
6.90231e-09
1.62157e-06
-1.26096e-08
6.26488e-09
1.62622e-06
-1.20835e-08
5.69445e-09
1.63079e-06
-1.17379e-08
5.16075e-09
1.63531e-06
-1.1576e-08
4.64559e-09
1.63983e-06
-1.16258e-08
4.13213e-09
1.64436e-06
-1.19535e-08
3.60254e-09
1.64896e-06
-1.26348e-08
3.03895e-09
1.65373e-06
-1.36977e-08
2.45829e-09
-1.55713e-08
1.97228e-09
1.32762e-06
-5.56889e-09
2.71819e-09
1.33539e-06
-1.39003e-08
7.12073e-09
1.34286e-06
-1.62625e-08
9.55325e-09
1.34847e-06
-1.59108e-08
1.05779e-08
1.35197e-06
-1.50059e-08
1.08753e-08
1.35374e-06
-1.39393e-08
1.05803e-08
1.3544e-06
-1.29861e-08
9.8906e-09
1.35452e-06
-1.21284e-08
9.04332e-09
1.35445e-06
-1.13657e-08
8.18924e-09
1.35434e-06
-1.0725e-08
7.38873e-09
1.35423e-06
-1.02503e-08
6.66987e-09
1.35415e-06
-9.92249e-09
6.02983e-09
1.35409e-06
-9.72474e-09
5.44511e-09
1.354e-06
-9.66133e-09
4.88719e-09
1.35382e-06
-9.75325e-09
4.32644e-09
1.3534e-06
-1.00535e-08
3.73719e-09
1.35258e-06
-1.06878e-08
3.08124e-09
1.35106e-06
-1.18039e-08
2.32467e-09
1.34785e-06
-1.31228e-08
1.51673e-09
-1.95343e-08
1.30331e-09
1.07432e-06
1.06479e-09
1.06824e-06
5.58646e-09
1.06138e-06
8.46396e-09
1.05338e-06
9.03975e-09
1.04509e-06
8.6179e-09
1.03719e-06
8.12075e-09
1.02979e-06
7.78709e-09
1.02276e-06
7.55514e-09
1.01587e-06
7.37048e-09
1.00904e-06
7.08557e-09
1.00228e-06
6.64502e-09
9.95519e-07
6.14469e-09
9.88657e-07
5.64671e-09
9.81529e-07
5.15707e-09
9.73881e-07
4.66003e-09
9.65323e-07
4.09551e-09
9.55161e-07
3.48807e-09
9.42332e-07
2.50014e-09
9.25438e-07
9.63674e-10
5.79993e-10
1.16914e-06
4.90658e-09
-5.93473e-14
1.16312e-06
1.16087e-08
-3.14351e-13
1.15731e-06
1.42762e-08
-8.11977e-13
1.15201e-06
1.4335e-08
-1.50926e-12
1.1469e-06
1.37333e-08
-2.65897e-12
1.14204e-06
1.2974e-08
-4.7919e-12
1.13772e-06
1.21072e-08
-8.75481e-12
1.13395e-06
1.13171e-08
-1.5373e-11
1.13064e-06
1.06627e-08
-2.67036e-11
1.1275e-06
1.02078e-08
-4.5584e-11
1.12419e-06
9.92054e-09
-7.71001e-11
1.12056e-06
9.72865e-09
-1.29561e-10
1.11649e-06
9.64045e-09
-2.17454e-10
1.11184e-06
9.68411e-09
-3.65254e-10
1.10642e-06
9.88682e-09
-6.11858e-10
1.0999e-06
1.02925e-08
-1.02507e-09
1.09176e-06
1.10309e-08
-1.75705e-09
1.08111e-06
1.22533e-08
-2.92299e-09
1.06695e-06
1.40519e-08
-4.99004e-09
1.68506e-08
-9.70104e-09
1.41518e-06
4.19298e-09
-1.34251e-13
1.42279e-06
1.11164e-08
-4.00373e-13
1.43152e-06
1.50996e-08
-6.94878e-13
1.4398e-06
1.66313e-08
-1.33921e-12
1.44713e-06
1.72796e-08
-2.6145e-12
1.45317e-06
1.75168e-08
-4.75607e-12
1.458e-06
1.71621e-08
-8.05624e-12
1.46191e-06
1.64492e-08
-1.34278e-11
1.46519e-06
1.55669e-08
-2.29656e-11
1.46809e-06
1.46918e-08
-4.02353e-11
1.47077e-06
1.38866e-08
-6.90385e-11
1.4733e-06
1.3201e-08
-1.1699e-10
1.47564e-06
1.27211e-08
-1.90197e-10
1.47772e-06
1.24595e-08
-3.00791e-10
1.47949e-06
1.23736e-08
-4.78131e-10
1.48092e-06
1.24677e-08
-7.51815e-10
1.48194e-06
1.28169e-08
-1.16973e-09
1.48253e-06
1.35089e-08
-1.7968e-09
1.48267e-06
1.44848e-08
-2.69076e-09
1.5416e-08
-3.90498e-09
1.61424e-06
3.09295e-09
-9.89834e-14
1.62332e-06
8.27434e-09
-2.42078e-13
1.63533e-06
1.19577e-08
-4.39471e-13
1.6482e-06
1.41153e-08
-8.19948e-13
1.66118e-06