/*--------------------------------*- C++ -*----------------------------------*\
| =========                 |                                                 |
| \\      /  F ield         | OpenFOAM: The Open Source CFD Toolbox           |
|  \\    /   O peration     | Version:  2212                                  |
|   \\  /    A nd           | Website:  www.openfoam.com                      |
|    \\/     M anipulation  |                                                 |
\*---------------------------------------------------------------------------*/
FoamFile
{
    version     2.0;
    format      ascii;
    arch        "LSB;label=32;scalar=64";
    class       volVectorField;
    location    "0.65";
    object      U;
}
// * * * * * * * * * * * * * * * * * * * * * * * * * * * * * * * * * * * * * //

dimensions      [0 1 -1 0 0 0 0];

internalField   nonuniform List<vector> 
6840
(
(0.0956456 -0.00836005 -0.00836005)
(0.0904939 0.00152199 0.00152204)
(0.0790684 0.00242964 0.00242974)
(0.0713014 0.0014876 0.00148782)
(0.0661799 0.000830222 0.000830674)
(0.0623234 0.000563107 0.000563851)
(0.0592221 0.000425174 0.000426912)
(0.056687 0.000321924 0.000324993)
(0.0545535 0.000249717 0.000254756)
(0.0527038 0.00019718 0.000205417)
(0.0510701 0.000157128 0.000171079)
(0.0496157 0.000125022 0.000148096)
(0.0483113 9.59082e-05 0.000132209)
(0.0471319 6.65782e-05 0.000121623)
(0.0460717 3.08474e-05 0.000116039)
(0.0451437 8.50837e-06 0.000116149)
(0.0443876 -4.81506e-05 0.000129334)
(0.0439611 -0.000195855 0.000114576)
(0.0445134 -0.000401126 1.92948e-05)
(0.0429166 -0.0027738 -0.00187721)
(0.0999088 0.00129699 0.000712567)
(0.0969669 0.0036558 0.00274729)
(0.0935346 0.0026401 0.00211823)
(0.0895894 0.00182019 0.00162073)
(0.0858323 0.00152829 0.00139082)
(0.0825904 0.00135046 0.00116164)
(0.0798657 0.00117806 0.00089777)
(0.0775676 0.00103834 0.000693298)
(0.0755588 0.000939091 0.000562312)
(0.0737529 0.000859427 0.000482812)
(0.0721038 0.000782722 0.000438298)
(0.0705832 0.000702739 0.000414603)
(0.0691727 0.000623345 0.000402556)
(0.0678613 0.00054391 0.000397168)
(0.0666438 0.000451196 0.000402706)
(0.0655291 0.000313577 0.000411865)
(0.0645534 0.000120928 0.000419808)
(0.063855 -0.000229821 0.000353081)
(0.0638216 -0.00094205 0.00010899)
(0.0626968 -0.00369645 -0.00173656)
(0.099413 0.000345206 0.000270233)
(0.0988664 0.00201891 0.00187494)
(0.0979214 0.0025729 0.00218911)
(0.0963659 0.00237945 0.00190856)
(0.0946334 0.00211344 0.00162692)
(0.0929721 0.0019257 0.00141909)
(0.0913638 0.00179967 0.00127192)
(0.0898533 0.00170245 0.00116109)
(0.0884536 0.00159988 0.00107143)
(0.0871566 0.00148614 0.00100057)
(0.0859548 0.00137003 0.000953631)
(0.0848332 0.00125664 0.000928365)
(0.0837733 0.00114293 0.00092052)
(0.0827622 0.00102027 0.000926237)
(0.0817926 0.000876846 0.000944227)
(0.0808632 0.000696802 0.00097567)
(0.0799688 0.000448657 0.00102015)
(0.079103 1.15165e-05 0.00107498)
(0.0782258 -0.000768676 0.00115768)
(0.0768539 -0.00217397 0.00132783)
(0.0995405 0.000245014 0.000321899)
(0.0992576 0.00105548 0.00154094)
(0.0988489 0.00150207 0.00211459)
(0.0981246 0.00157897 0.00209188)
(0.0973364 0.00151411 0.0018866)
(0.0965839 0.0014452 0.00166665)
(0.0958635 0.00140802 0.00149922)
(0.0951943 0.0013754 0.00137347)
(0.0945631 0.00132735 0.00128802)
(0.0939138 0.00125208 0.00123495)
(0.0932785 0.00115572 0.00120088)
(0.0926529 0.00104884 0.00118372)
(0.0920242 0.000938644 0.00118163)
(0.0913786 0.000824438 0.00119462)
(0.0906979 0.000696445 0.00122678)
(0.0899553 0.000538123 0.00128639)
(0.0891061 0.000338018 0.00139009)
(0.0880462 1.81445e-05 0.00157031)
(0.0867118 -0.000497478 0.00175651)
(0.0853934 -0.000944667 0.003181)
(0.0993802 3.37701e-05 5.89512e-05)
(0.0992677 0.00027436 0.00120005)
(0.0989803 0.000432322 0.00188856)
(0.0984744 0.000483372 0.00200665)
(0.0979949 0.000478686 0.00191502)
(0.0975695 0.000465249 0.00173528)
(0.0971785 0.000452379 0.0015481)
(0.0968267 0.000441551 0.00138986)
(0.0965232 0.000434898 0.00127219)
(0.096263 0.000426232 0.00120302)
(0.0959793 0.000407855 0.00117811)
(0.0956699 0.000382108 0.00118022)
(0.0953279 0.000354281 0.00119701)
(0.0949313 0.000328669 0.00122937)
(0.0944578 0.000312026 0.00128902)
(0.0938723 0.000302541 0.00138645)
(0.0931194 0.000313857 0.00154838)
(0.0920837 0.000325204 0.00182045)
(0.090603 0.000385395 0.00224629)
(0.0889352 0.000617502 0.00325411)
(0.0993801 -3.37506e-05 5.89219e-05)
(0.0992677 -0.000274262 0.00120003)
(0.0989803 -0.000432101 0.00188856)
(0.0984745 -0.000482977 0.00200661)
(0.0979952 -0.000477984 0.0019149)
(0.0975702 -0.00046396 0.001735)
(0.0971798 -0.000449996 0.0015477)
(0.0968289 -0.000437356 0.00138917)
(0.0965271 -0.000427656 0.00127086)
(0.0962697 -0.000413943 0.00120056)
(0.0959911 -0.000387204 0.00117383)
(0.0956903 -0.000347731 0.00117294)
(0.0953639 -0.000297125 0.00118441)
(0.0949955 -0.00023312 0.00120636)
(0.0945703 -0.000153087 0.00124612)
(0.0940672 -3.97409e-05 0.00131312)
(0.0934549 0.000132916 0.00142566)
(0.092661 0.000409506 0.00159937)
(0.0916177 0.000852537 0.00184627)
(0.0907443 0.00175739 0.00230382)
(0.0995405 -0.000245008 0.0003219)
(0.0992576 -0.00105545 0.00154095)
(0.098849 -0.00150201 0.00211452)
(0.098125 -0.00157887 0.00209175)
(0.0973372 -0.00151381 0.00188637)
(0.0965855 -0.00144453 0.00166631)
(0.0958663 -0.00140679 0.00149881)
(0.0951993 -0.00137336 0.00137279)
(0.0945719 -0.00132371 0.00128644)
(0.0939291 -0.00124628 0.0012313)
(0.0933047 -0.00114672 0.00119396)
(0.0926977 -0.00103508 0.00117062)
(0.0921003 -0.000916727 0.0011593)
(0.0915079 -0.000789036 0.00115757)
(0.0909164 -0.000642695 0.00116189)
(0.0903214 -0.000443231 0.0011682)
(0.0897209 -0.000160617 0.00117549)
(0.0891028 0.000262928 0.00119357)
(0.0884363 0.000915077 0.00123983)
(0.0877146 0.00197388 0.00126288)
(0.099413 -0.000345217 0.000270229)
(0.0988664 -0.00201897 0.00187488)
(0.0979216 -0.00257302 0.00218894)
(0.0963662 -0.00237967 0.00190827)
(0.0946342 -0.00211379 0.00162651)
(0.0929735 -0.00192627 0.0014185)
(0.0913664 -0.00180053 0.00127095)
(0.089858 -0.00170387 0.00115946)
(0.0884618 -0.00160231 0.00106881)
(0.0871704 -0.00149021 0.000996229)
(0.0859781 -0.00137688 0.000946811)
(0.0848727 -0.00126794 0.000916516)
(0.0838392 -0.00116098 0.000899974)
(0.0828709 -0.00104823 0.000891388)
(0.08197 -0.000919197 0.000884257)
(0.0811577 -0.000756266 0.000864682)
(0.0804768 -0.000532979 0.000819664)
(0.0799816 -0.000135633 0.000683716)
(0.0797698 0.000579427 0.000448137)
(0.0790418 0.00227166 -0.000311268)
(0.0999088 -0.001297 0.000712553)
(0.0969669 -0.00365588 0.00274722)
(0.0935347 -0.00264021 0.00211809)
(0.0895895 -0.0018204 0.00162046)
(0.0858326 -0.00152878 0.00139042)
(0.0825909 -0.00135123 0.00116093)
(0.0798665 -0.00117946 0.000896608)
(0.0775693 -0.00104074 0.000691404)
(0.0755619 -0.000943268 0.000559133)
(0.0737583 -0.000866716 0.000477434)
(0.0721137 -0.000795386 0.000427899)
(0.0706014 -0.000723885 0.000396542)
(0.069205 -0.000657276 0.000377315)
(0.0679133 -0.000599772 0.000370277)
(0.0667256 -0.000545444 0.000365339)
(0.0656599 -0.000484889 0.000339017)
(0.0647786 -0.000385644 0.000277781)
(0.0642727 -0.000164719 5.68363e-05)
(0.0647051 0.000231656 -0.000319031)
(0.0626727 0.000863655 -0.00104756)
(0.0956456 0.00836005 -0.00836005)
(0.0904939 -0.00152204 0.00152199)
(0.0790684 -0.00242974 0.00242964)
(0.0713014 -0.00148782 0.00148761)
(0.0661799 -0.000830667 0.000830228)
(0.0623234 -0.000563842 0.000563115)
(0.0592221 -0.000426895 0.000425191)
(0.056687 -0.00032497 0.000321948)
(0.0545535 -0.000254728 0.000249746)
(0.0527038 -0.000205386 0.000197214)
(0.0510701 -0.000171043 0.000157171)
(0.0496158 -0.000148053 0.000125073)
(0.0483114 -0.000132158 9.59682e-05)
(0.0471321 -0.000121569 6.66517e-05)
(0.046072 -0.00011599 3.09332e-05)
(0.0451442 -0.000116087 8.56963e-06)
(0.0443882 -0.000129219 -4.80702e-05)
(0.0439619 -0.000114431 -0.000195771)
(0.0445144 -1.91715e-05 -0.000401027)
(0.042918 0.00187766 -0.00277408)
(0.0999088 0.000712553 0.001297)
(0.0969669 0.00274722 0.00365588)
(0.0935347 0.00211809 0.00264022)
(0.0895895 0.00162046 0.0018204)
(0.0858326 0.00139042 0.00152879)
(0.0825909 0.00116093 0.00135124)
(0.0798665 0.000896604 0.00117948)
(0.0775693 0.000691398 0.00104077)
(0.0755618 0.000559125 0.000943296)
(0.0737582 0.000477422 0.000866752)
(0.0721136 0.000427878 0.000795435)
(0.0706013 0.000396515 0.000723949)
(0.0692048 0.000377273 0.000657352)
(0.067913 0.000370235 0.000599872)
(0.0667253 0.000365291 0.000545575)
(0.0656593 0.000338954 0.000485075)
(0.0647779 0.000277694 0.000385903)
(0.0642717 5.67351e-05 0.000165073)
(0.0647037 -0.000319208 -0.000231134)
(0.0626711 -0.00104733 -0.000862745)
(0.100226 0.000720795 0.000720814)
(0.0999601 0.00198267 0.00198277)
(0.0997824 0.00245174 0.00245196)
(0.0987884 0.0024194 0.0024198)
(0.097276 0.00220049 0.00220112)
(0.0957755 0.00181099 0.00181211)
(0.0943942 0.00138154 0.00138337)
(0.0931663 0.00106849 0.00107159)
(0.0920811 0.000851057 0.000856407)
(0.091122 0.000696644 0.000705913)
(0.0902746 0.000580468 0.00059724)
(0.0895171 0.000489781 0.000517219)
(0.0888322 0.000419224 0.000460162)
(0.0882215 0.000359598 0.000418141)
(0.0876921 0.000291614 0.00038486)
(0.0872545 0.000203233 0.000354686)
(0.0869203 6.95427e-05 0.00031813)
(0.0866698 -0.00018445 0.000215986)
(0.0863484 -0.000740688 -0.00015169)
(0.0863703 -0.00217474 -0.00124247)
(0.10014 0.000774982 0.00086927)
(0.100454 0.0019623 0.00196366)
(0.100911 0.00242733 0.00233475)
(0.100978 0.00252622 0.00244168)
(0.100694 0.00242566 0.00233742)
(0.100224 0.00219638 0.00211342)
(0.099709 0.00191479 0.00182469)
(0.0991839 0.00166269 0.00157793)
(0.0986893 0.00145748 0.00139378)
(0.0982421 0.00128709 0.00125651)
(0.0978495 0.00114379 0.00115744)
(0.0975076 0.00102003 0.00108975)
(0.0972136 0.000907034 0.00104528)
(0.0969663 0.000793603 0.00101732)
(0.0967643 0.000669549 0.00100492)
(0.0966087 0.000517978 0.00100646)
(0.0965004 0.000314933 0.00101921)
(0.0964341 2.28296e-05 0.00103654)
(0.0963884 -0.000397689 0.0010453)
(0.0964934 -0.0009414 0.00101727)
(0.100093 0.000445893 0.000763216)
(0.100504 0.00119438 0.00174908)
(0.101105 0.00158661 0.00212972)
(0.101634 0.00174015 0.00223519)
(0.101979 0.00178183 0.00228812)
(0.102171 0.00172825 0.00223749)
(0.102251 0.0016068 0.0021182)
(0.102275 0.00145814 0.00196799)
(0.102275 0.00130149 0.00180718)
(0.102266 0.00115098 0.0016606)
(0.102255 0.00101912 0.00155683)
(0.102248 0.000904235 0.00148827)
(0.102242 0.000796825 0.00144763)
(0.102237 0.000689102 0.00143301)
(0.102228 0.000572485 0.0014467)
(0.102208 0.000438453 0.00149519)
(0.102164 0.000272022 0.00159382)
(0.102074 5.08589e-05 0.00176049)
(0.101918 -0.000242327 0.00199935)
(0.102079 -0.000508394 0.00237082)
(0.100087 0.000144389 0.00070703)
(0.100477 0.000390503 0.00161784)
(0.101065 0.000541126 0.00203474)
(0.101694 0.000610202 0.00211788)
(0.102268 0.000636144 0.00215098)
(0.102741 0.000627079 0.00218126)
(0.103122 0.000595196 0.00213617)
(0.103425 0.000549938 0.00204732)
(0.103675 0.000505056 0.00193969)
(0.10389 0.000463276 0.00183664)
(0.104081 0.00042127 0.00174242)
(0.104261 0.000380663 0.00166377)
(0.104425 0.000344597 0.0016191)
(0.104563 0.000312314 0.00161262)
(0.104674 0.000283414 0.00163687)
(0.104755 0.000259278 0.00170341)
(0.104794 0.000240601 0.00183734)
(0.104785 0.000229962 0.00206825)
(0.104746 0.000236373 0.00241171)
(0.105001 0.0002876 0.00280952)
(0.100087 -0.000144354 0.000707027)
(0.100477 -0.000390397 0.00161783)
(0.101066 -0.000540942 0.00203476)
(0.101694 -0.000609867 0.00211784)
(0.102269 -0.000635491 0.00215077)
(0.102742 -0.000625881 0.00218083)
(0.103123 -0.000593183 0.00213546)
(0.103427 -0.000546579 0.00204622)
(0.103678 -0.000499254 0.00193802)
(0.103895 -0.000453112 0.0018339)
(0.10409 -0.000403904 0.00173789)
(0.104274 -0.000351547 0.00165565)
(0.104448 -0.000297864 0.0016042)
(0.104604 -0.000238524 0.001587)
(0.10474 -0.000165526 0.00159686)
(0.104855 -7.35773e-05 0.00163487)
(0.104943 4.91692e-05 0.00171557)
(0.104997 0.000219031 0.00185929)
(0.105033 0.000449227 0.00206368)
(0.105338 0.000745461 0.00227536)
(0.100093 -0.000445891 0.00076321)
(0.100504 -0.00119438 0.00174906)
(0.101105 -0.0015866 0.00212962)
(0.101635 -0.00174009 0.00223482)
(0.101979 -0.00178171 0.00228738)
(0.102172 -0.00172807 0.00223639)
(0.102254 -0.0016064 0.00211654)
(0.102279 -0.00145742 0.00196547)
(0.102282 -0.00130042 0.00180342)
(0.102276 -0.00114882 0.00165458)
(0.102273 -0.0010155 0.00154626)
(0.102278 -0.000898236 0.00147017)
(0.102293 -0.000789556 0.00141707)
(0.10232 -0.000680248 0.00138177)
(0.10236 -0.000558072 0.00136063)
(0.102416 -0.000412191 0.00135052)
(0.102484 -0.000225729 0.00134902)
(0.102561 2.15188e-05 0.00135577)
(0.10265 0.000343202 0.00137524)
(0.102864 0.000702656 0.00141304)
(0.10014 -0.000775003 0.000869242)
(0.100454 -0.00196236 0.00196353)
(0.100911 -0.00242746 0.00233442)
(0.100979 -0.0025265 0.00244114)
(0.100694 -0.00242615 0.00233663)
(0.100225 -0.00219724 0.00211236)
(0.0997106 -0.00191614 0.00182304)
(0.0991867 -0.00166473 0.00157501)
(0.0986942 -0.00146104 0.00138875)
(0.0982506 -0.00129337 0.00124813)
(0.0978639 -0.00115399 0.00114333)
(0.097532 -0.00103731 0.00106653)
(0.0972523 -0.000936751 0.0010076)
(0.097025 -0.000844845 0.000957536)
(0.0968527 -0.000751116 0.000909586)
(0.0967389 -0.000642106 0.000851205)
(0.0966849 -0.000496201 0.000758846)
(0.0966748 -0.000285158 0.000600373)
(0.0966493 3.29236e-05 0.000341775)
(0.0967622 0.000526988 -8.12317e-05)
(0.100226 -0.000720813 0.000720795)
(0.0999601 -0.00198277 0.00198267)
(0.0997824 -0.00245196 0.00245174)
(0.0987884 -0.00241979 0.0024194)
(0.097276 -0.00220111 0.00220049)
(0.0957755 -0.0018121 0.00181099)
(0.0943942 -0.00138336 0.00138154)
(0.0931663 -0.00107157 0.0010685)
(0.0920811 -0.000856382 0.000851067)
(0.091122 -0.00070588 0.000696657)
(0.0902747 -0.000597194 0.000580484)
(0.0895172 -0.000517154 0.000489792)
(0.0888324 -0.000460062 0.000419223)
(0.0882218 -0.00041804 0.0003596)
(0.0876925 -0.00038478 0.000291666)
(0.0872551 -0.00035458 0.000203297)
(0.086921 -0.000317981 6.95955e-05)
(0.0866709 -0.000215754 -0.000184431)
(0.0863499 0.000151997 -0.000740665)
(0.0863733 0.00124375 -0.00217585)
(0.0999088 -0.000712567 0.00129699)
(0.0969669 -0.00274729 0.0036558)
(0.0935346 -0.00211823 0.0026401)
(0.0895894 -0.00162073 0.00182019)
(0.0858323 -0.00139081 0.0015283)
(0.0825904 -0.00116164 0.00135046)
(0.0798657 -0.000897765 0.00117807)
(0.0775676 -0.000693292 0.00103835)
(0.0755588 -0.000562304 0.000939103)
(0.073753 -0.000482804 0.000859444)
(0.0721039 -0.000438287 0.00078274)
(0.0705833 -0.000414586 0.000702756)
(0.0691729 -0.00040253 0.000623364)
(0.0678616 -0.000397144 0.000543924)
(0.0666442 -0.000402685 0.000451215)
(0.0655297 -0.00041185 0.000313606)
(0.0645542 -0.000419796 0.000120929)
(0.0638561 -0.000353074 -0.000229856)
(0.063823 -0.000109002 -0.000942146)
(0.0626988 0.00173658 -0.00369676)
(0.099413 0.000270228 0.000345218)
(0.0988664 0.00187488 0.00201897)
(0.0979216 0.00218894 0.00257302)
(0.0963662 0.00190827 0.00237968)
(0.0946342 0.00162651 0.0021138)
(0.0929735 0.0014185 0.00192629)
(0.0913664 0.00127095 0.00180055)
(0.089858 0.00115945 0.0017039)
(0.0884618 0.0010688 0.00160234)
(0.0871704 0.000996213 0.00149026)
(0.0859781 0.00094679 0.00137694)
(0.0848726 0.000916489 0.00126802)
(0.0838391 0.000899937 0.00116108)
(0.0828707 0.000891347 0.00104838)
(0.0819697 0.000884235 0.000919418)
(0.0811573 0.000864682 0.000756576)
(0.0804762 0.000819667 0.00053336)
(0.0799808 0.000683719 0.000136269)
(0.0797687 0.000448115 -0.000578568)
(0.0790405 -0.000311317 -0.00227082)
(0.10014 0.000869242 0.000775004)
(0.100454 0.00196353 0.00196236)
(0.100911 0.00233442 0.00242746)
(0.100978 0.00244114 0.00252651)
(0.100694 0.00233662 0.00242616)
(0.100225 0.00211236 0.00219726)
(0.0997106 0.00182304 0.00191616)
(0.0991866 0.001575 0.00166475)
(0.0986941 0.00138875 0.00146108)
(0.0982506 0.00124812 0.00129343)
(0.0978638 0.00114332 0.00115406)
(0.0975319 0.00106652 0.00103741)
(0.0972522 0.0010076 0.000936881)
(0.0970248 0.000957522 0.000845005)
(0.0968525 0.000909558 0.000751315)
(0.0967385 0.000851193 0.000642382)
(0.0966844 0.000758864 0.000496582)
(0.0966741 0.000600424 0.000285686)
(0.0966483 0.000341875 -3.21705e-05)
(0.0967609 -8.1049e-05 -0.000526)
(0.10006 0.000641369 0.000641409)
(0.100502 0.00164497 0.0016451)
(0.101149 0.00221225 0.00221252)
(0.101738 0.00243973 0.0024402)
(0.102205 0.0024416 0.00244235)
(0.102502 0.00231299 0.00231417)
(0.102647 0.00209157 0.00209353)
(0.102716 0.00186739 0.00187051)
(0.102744 0.00166824 0.00167335)
(0.10276 0.00149994 0.0015083)
(0.102783 0.00135828 0.00137188)
(0.102823 0.00123787 0.00125982)
(0.102885 0.0011328 0.00116794)
(0.102974 0.00103575 0.00109155)
(0.10309 0.000938191 0.0010255)
(0.103234 0.000829473 0.000963844)
(0.1034 0.000696844 0.000899065)
(0.103572 0.000524738 0.000819739)
(0.103733 0.000304919 0.00071412)
(0.104035 0.000106413 0.000645667)
(0.100046 0.000395685 0.000540274)
(0.10048 0.00104477 0.0013842)
(0.101154 0.00147521 0.00192317)
(0.101913 0.001705 0.00219294)
(0.102632 0.00177966 0.00229472)
(0.103301 0.00174415 0.00227925)
(0.103894 0.00163308 0.00218711)
(0.10439 0.00148973 0.00205487)
(0.104817 0.00134208 0.00190843)
(0.105195 0.00120505 0.00177088)
(0.105537 0.0010827 0.00165175)
(0.105857 0.000974591 0.00155314)
(0.106165 0.000876279 0.00147599)
(0.106465 0.000782456 0.00142023)
(0.106762 0.000690057 0.00138535)
(0.107057 0.000593289 0.00137328)
(0.107351 0.00048628 0.00138832)
(0.107648 0.000364037 0.00143487)
(0.107961 0.000230048 0.00150982)
(0.108414 0.00010313 0.0016117)
(0.100039 0.000131333 0.000478798)
(0.100448 0.000350495 0.00123488)
(0.101114 0.000505078 0.00174667)
(0.101909 0.000597189 0.00202715)
(0.102728 0.000638614 0.00215267)
(0.103529 0.000638302 0.00218733)
(0.104297 0.000604646 0.00215457)
(0.105006 0.000559459 0.00208128)
(0.105641 0.000510537 0.00198364)
(0.106213 0.000462812 0.00187814)
(0.106733 0.000419067 0.00177711)
(0.107211 0.000380032 0.00168921)
(0.107656 0.000345117 0.00162167)
(0.10808 0.000312849 0.00157833)
(0.108486 0.00028243 0.00156021)
(0.108873 0.00025524 0.00156999)
(0.109247 0.00023069 0.00161541)
(0.109619 0.000207274 0.00170356)
(0.110022 0.000186612 0.00182524)
(0.11054 0.000176893 0.00195548)
(0.100039 -0.000131307 0.000478785)
(0.100448 -0.000350429 0.00123483)
(0.101114 -0.00050496 0.00174659)
(0.101909 -0.000596989 0.002027)
(0.102728 -0.000638262 0.00215236)
(0.103529 -0.000637718 0.00218682)
(0.104298 -0.000603619 0.00215378)
(0.105008 -0.000557787 0.00208007)
(0.105643 -0.00050774 0.00198175)
(0.106217 -0.000458079 0.00187508)
(0.106739 -0.000411187 0.00177195)
(0.10722 -0.000367297 0.00168038)
(0.107669 -0.000325361 0.00160667)
(0.108098 -0.000282913 0.00155392)
(0.108512 -0.00023721 0.00152224)
(0.108911 -0.000185357 0.00151119)
(0.109297 -0.000123685 0.00152384)
(0.109678 -4.87273e-05 0.00156315)
(0.110078 3.90749e-05 0.00162106)
(0.110584 0.000132514 0.00167637)
(0.100046 -0.000395698 0.00054024)
(0.10048 -0.00104482 0.00138409)
(0.101154 -0.00147528 0.00192295)
(0.101913 -0.0017051 0.00219252)
(0.102632 -0.00177986 0.002294)
(0.103302 -0.0017445 0.00227808)
(0.103895 -0.00163369 0.00218527)
(0.104392 -0.00149069 0.00205186)
(0.104821 -0.00134364 0.00190378)
(0.1052 -0.00120737 0.00176358)
(0.105546 -0.00108622 0.00163982)
(0.105871 -0.000980006 0.00153377)
(0.106186 -0.000885317 0.00144426)
(0.106499 -0.00079742 0.00136868)
(0.106813 -0.000712281 0.00130323)
(0.107134 -0.000624883 0.00124335)
(0.107463 -0.000529378 0.00118554)
(0.107802 -0.000419954 0.00112731)
(0.108162 -0.000296564 0.00106796)
(0.108614 -0.000168666 0.0010218)
(0.10006 -0.000641408 0.00064137)
(0.100502 -0.0016451 0.00164497)
(0.101149 -0.00221252 0.00221225)
(0.101738 -0.00244019 0.00243973)
(0.102205 -0.00244235 0.0024416)
(0.102502 -0.00231415 0.00231299)
(0.102647 -0.00209351 0.00209157)
(0.102716 -0.00187048 0.00186739)
(0.102744 -0.00167332 0.00166824)
(0.10276 -0.00150826 0.00149993)
(0.102783 -0.00137182 0.00135826)
(0.102823 -0.00125973 0.00123784)
(0.102885 -0.00116782 0.00113276)
(0.102974 -0.00109141 0.0010357)
(0.10309 -0.00102533 0.000938127)
(0.103234 -0.000963614 0.000829365)
(0.1034 -0.000898746 0.000696668)
(0.103572 -0.000819302 0.00052446)
(0.103733 -0.000713553 0.000304518)
(0.104036 -0.000645034 0.000105921)
(0.10014 -0.000869269 0.000774983)
(0.100454 -0.00196366 0.0019623)
(0.100911 -0.00233475 0.00242733)
(0.100978 -0.00244168 0.00252622)
(0.100694 -0.00233742 0.00242566)
(0.100224 -0.00211341 0.00219638)
(0.099709 -0.00182468 0.00191479)
(0.0991839 -0.00157792 0.00166269)
(0.0986894 -0.00139376 0.00145748)
(0.0982422 -0.00125649 0.00128708)
(0.0978495 -0.00115741 0.00114378)
(0.0975078 -0.0010897 0.00102001)
(0.0972137 -0.00104521 0.000906986)
(0.0969666 -0.00101724 0.000793551)
(0.0967646 -0.00100484 0.000669489)
(0.0966091 -0.00100634 0.000517875)
(0.096501 -0.00101905 0.000314756)
(0.0964349 -0.00103631 2.25419e-05)
(0.0963895 -0.00104501 -0.00039815)
(0.0964949 -0.00101702 -0.000941989)
(0.099413 -0.000270233 0.000345207)
(0.0988664 -0.00187494 0.00201891)
(0.0979214 -0.00218911 0.00257291)
(0.0963659 -0.00190855 0.00237946)
(0.0946334 -0.00162692 0.00211345)
(0.0929721 -0.00141909 0.00192571)
(0.0913638 -0.00127192 0.00179968)
(0.0898533 -0.00116108 0.00170246)
(0.0884536 -0.00107142 0.00159988)
(0.0871567 -0.00100056 0.00148614)
(0.0859549 -0.000953619 0.00137003)
(0.0848333 -0.00092835 0.00125664)
(0.0837735 -0.000920505 0.00114291)
(0.0827624 -0.000926212 0.00102024)
(0.081793 -0.000944182 0.000876768)
(0.0808637 -0.000975601 0.000696671)
(0.0799695 -0.00102006 0.000448418)
(0.079104 -0.00107487 1.11614e-05)
(0.0782271 -0.00115757 -0.000769189)
(0.0768555 -0.00132773 -0.00217473)
(0.0995405 0.0003219 0.000245009)
(0.0992576 0.00154095 0.00105545)
(0.098849 0.00211452 0.00150202)
(0.098125 0.00209175 0.00157888)
(0.0973372 0.00188637 0.00151382)
(0.0965855 0.0016663 0.00144455)
(0.0958663 0.00149881 0.00140681)
(0.0951993 0.00137279 0.00137339)
(0.0945719 0.00128644 0.00132376)
(0.0939291 0.00123129 0.00124634)
(0.0933046 0.00119395 0.00114682)
(0.0926976 0.00117062 0.0010352)
(0.0921002 0.0011593 0.000916889)
(0.0915078 0.00115758 0.000789258)
(0.0909162 0.00116191 0.000643012)
(0.0903211 0.00116824 0.00044365)
(0.0897206 0.00117553 0.000161156)
(0.0891023 0.00119359 -0.000262244)
(0.0884357 0.00123982 -0.000914213)
(0.0877139 0.00126283 -0.00197273)
(0.100093 0.00076321 0.000445892)
(0.100504 0.00174906 0.00119438)
(0.101105 0.00212962 0.0015866)
(0.101635 0.00223482 0.0017401)
(0.101979 0.00228738 0.00178173)
(0.102172 0.00223639 0.00172809)
(0.102254 0.00211654 0.00160643)
(0.102279 0.00196547 0.00145746)
(0.102282 0.00180342 0.00130047)
(0.102276 0.00165458 0.00114889)
(0.102272 0.00154626 0.00101559)
(0.102278 0.00147018 0.000898363)
(0.102293 0.00141709 0.000789727)
(0.10232 0.00138178 0.000680471)
(0.10236 0.00136064 0.000558359)
(0.102415 0.00135054 0.000412572)
(0.102484 0.00134906 0.000226232)
(0.102561 0.00135583 -2.08534e-05)
(0.10265 0.00137532 -0.000342338)
(0.102864 0.00141316 -0.00070154)
(0.100046 0.000540239 0.0003957)
(0.10048 0.00138409 0.00104482)
(0.101154 0.00192295 0.00147529)
(0.101913 0.00219252 0.00170511)
(0.102632 0.002294 0.00177987)
(0.103302 0.00227808 0.00174452)
(0.103895 0.00218527 0.00163372)
(0.104392 0.00205186 0.00149072)
(0.104821 0.00190378 0.00134369)
(0.1052 0.00176359 0.00120744)
(0.105546 0.00163983 0.0010863)
(0.105871 0.0015338 0.00098012)
(0.106186 0.0014443 0.000885466)
(0.106499 0.00136873 0.000797604)
(0.106813 0.00130329 0.000712511)
(0.107134 0.00124343 0.000625184)
(0.107463 0.00118568 0.000529772)
(0.107801 0.0011275 0.00042046)
(0.108162 0.00106823 0.000297183)
(0.108614 0.00102215 0.000169344)
(0.100036 0.000323127 0.000323156)
(0.100429 0.000868626 0.000868714)
(0.10108 0.0012623 0.00126247)
(0.101891 0.00150419 0.00150448)
(0.102756 0.00162122 0.0016217)
(0.103616 0.00164218 0.00164293)
(0.104446 0.00160379 0.00160491)
(0.105224 0.00152492 0.00152669)
(0.105939 0.0014245 0.00142724)
(0.106595 0.00131817 0.00132245)
(0.107199 0.00121605 0.00122281)
(0.107763 0.00112264 0.00113335)
(0.108294 0.00103877 0.00105572)
(0.108801 0.000963273 0.000989905)
(0.10929 0.000894178 0.000935272)
(0.109769 0.000829078 0.000890969)
(0.110244 0.000765562 0.000856085)
(0.11072 0.000701493 0.000828779)
(0.111217 0.00063759 0.000804548)
(0.111787 0.000588037 0.000781447)
(0.100031 0.000107074 0.000281399)
(0.100395 0.000293036 0.000768684)
(0.101024 0.000434059 0.00113317)
(0.101843 0.000526188 0.00136937)
(0.102751 0.000576275 0.00150169)
(0.103688 0.000591608 0.00155458)
(0.104617 0.000582107 0.00154972)
(0.105515 0.00055735 0.00150898)
(0.106366 0.000523519 0.0014456)
(0.107163 0.000486069 0.0013699)
(0.107904 0.000449135 0.00129066)
(0.108596 0.000414877 0.00121471)
(0.109243 0.000383901 0.00114707)
(0.109856 0.000355714 0.00109151)
(0.110442 0.000328994 0.00105166)
(0.111007 0.000303485 0.001029)
(0.111558 0.000279076 0.00102314)
(0.112105 0.000255425 0.00103087)
(0.112667 0.000232521 0.00104574)
(0.113293 0.000216877 0.00105643)
(0.100031 -0.000107073 0.000281386)
(0.100395 -0.000293039 0.000768641)
(0.101024 -0.00043407 0.00113308)
(0.101844 -0.000526209 0.0013692)
(0.102751 -0.000576315 0.0015014)
(0.103689 -0.000591687 0.00155415)
(0.104618 -0.000582239 0.00154911)
(0.105516 -0.000557488 0.00150807)
(0.106367 -0.00052361 0.00144422)
(0.107164 -0.000486071 0.00136774)
(0.107906 -0.000449069 0.00128727)
(0.108598 -0.000414897 0.00120939)
(0.109246 -0.000384405 0.00113877)
(0.10986 -0.000357261 0.00107858)
(0.110446 -0.000331711 0.0010315)
(0.111012 -0.000306323 0.000998655)
(0.111564 -0.000280567 0.000979205)
(0.112108 -0.000254884 0.00097029)
(0.112663 -0.000227483 0.000967892)
(0.113282 -0.000198267 0.000964567)
(0.100036 -0.000323155 0.000323127)
(0.100429 -0.000868711 0.000868626)
(0.10108 -0.00126246 0.0012623)
(0.101891 -0.00150447 0.00150419)
(0.102756 -0.00162169 0.00162122)
(0.103616 -0.00164291 0.00164218)
(0.104446 -0.00160489 0.00160378)
(0.105224 -0.00152666 0.00152492)
(0.105939 -0.0014272 0.00142449)
(0.106595 -0.00132239 0.00131816)
(0.107199 -0.00122274 0.00121603)
(0.107763 -0.00113325 0.00112261)
(0.108294 -0.0010556 0.00103872)
(0.108801 -0.00098976 0.000963215)
(0.10929 -0.000935098 0.000894101)
(0.10977 -0.000890753 0.000828968)
(0.110244 -0.000855817 0.000765403)
(0.11072 -0.00082846 0.000701271)
(0.111217 -0.000804202 0.000637308)
(0.111787 -0.000781153 0.000587732)
(0.100046 -0.000540273 0.000395686)
(0.10048 -0.0013842 0.00104477)
(0.101154 -0.00192317 0.00147521)
(0.101913 -0.00219293 0.001705)
(0.102632 -0.00229471 0.00177965)
(0.103301 -0.00227924 0.00174414)
(0.103894 -0.00218709 0.00163308)
(0.10439 -0.00205485 0.00148972)
(0.104817 -0.0019084 0.00134207)
(0.105195 -0.00177084 0.00120504)
(0.105537 -0.0016517 0.00108267)
(0.105857 -0.00155307 0.000974547)
(0.106165 -0.0014759 0.000876214)
(0.106465 -0.00142012 0.000782373)
(0.106762 -0.00138521 0.000689946)
(0.107057 -0.00137309 0.000593125)
(0.107351 -0.00138807 0.000486034)
(0.107648 -0.00143454 0.00036368)
(0.107961 -0.00150942 0.000229566)
(0.108414 -0.00161132 0.000102577)
(0.100093 -0.000763216 0.000445893)
(0.100504 -0.00174908 0.00119438)
(0.101105 -0.00212972 0.00158661)
(0.101634 -0.00223519 0.00174015)
(0.101979 -0.00228812 0.00178183)
(0.102171 -0.00223748 0.00172825)
(0.102251 -0.00211819 0.00160679)
(0.102275 -0.00196798 0.00145813)
(0.102275 -0.00180716 0.00130148)
(0.102266 -0.00166057 0.00115096)
(0.102255 -0.0015568 0.00101909)
(0.102248 -0.00148823 0.000904186)
(0.102242 -0.00144757 0.000796751)
(0.102237 -0.00143294 0.000689006)
(0.102229 -0.00144662 0.000572358)
(0.102208 -0.00149508 0.000438263)
(0.102164 -0.00159367 0.000271735)
(0.102074 -0.00176028 5.04339e-05)
(0.101919 -0.00199906 -0.000242936)
(0.102079 -0.00237054 -0.00050919)
(0.0995405 -0.000321899 0.000245015)
(0.0992576 -0.00154094 0.00105548)
(0.0988489 -0.00211459 0.00150207)
(0.0981246 -0.00209188 0.00157897)
(0.0973364 -0.00188659 0.00151411)
(0.0965839 -0.00166665 0.0014452)
(0.0958635 -0.00149921 0.00140801)
(0.0951944 -0.00137346 0.00137539)
(0.0945632 -0.00128801 0.00132734)
(0.0939139 -0.00123494 0.00125207)
(0.0932786 -0.00120086 0.0011557)
(0.092653 -0.0011837 0.0010488)
(0.0920243 -0.0011816 0.000938583)
(0.0913788 -0.00119458 0.000824341)
(0.0906982 -0.00122671 0.000696295)
(0.0899556 -0.0012863 0.000537908)
(0.0891066 -0.00138999 0.000337697)
(0.0880468 -0.0015702 1.77105e-05)
(0.0867126 -0.00175638 -0.000498066)
(0.0853944 -0.00318069 -0.000945519)
(0.0993801 5.89226e-05 3.37511e-05)
(0.0992677 0.00120003 0.000274264)
(0.0989803 0.00188856 0.000432104)
(0.0984745 0.00200661 0.000482982)
(0.0979952 0.0019149 0.000477992)
(0.0975702 0.001735 0.000463974)
(0.0971798 0.0015477 0.000450017)
(0.0968289 0.00138918 0.000437387)
(0.0965271 0.00127086 0.000427699)
(0.0962697 0.00120057 0.000414003)
(0.0959911 0.00117384 0.000387287)
(0.0956903 0.00117295 0.000347844)
(0.0953639 0.00118443 0.000297279)
(0.0949955 0.00120638 0.000233329)
(0.0945703 0.00124613 0.000153368)
(0.0940672 0.00131313 4.01133e-05)
(0.0934549 0.00142566 -0.000132419)
(0.092661 0.00159935 -0.000408861)
(0.0916176 0.00184623 -0.000851709)
(0.0907443 0.00230379 -0.00175625)
(0.100087 0.000707027 0.000144355)
(0.100477 0.00161783 0.0003904)
(0.101066 0.00203476 0.000540947)
(0.101694 0.00211784 0.000609877)
(0.102269 0.00215076 0.000635506)
(0.102742 0.00218083 0.000625904)
(0.103123 0.00213546 0.000593215)
(0.103427 0.00204622 0.000546622)
(0.103678 0.00193802 0.000499312)
(0.103895 0.0018339 0.00045319)
(0.10409 0.00173789 0.000404008)
(0.104274 0.00165566 0.000351687)
(0.104448 0.00160422 0.000298053)
(0.104604 0.00158702 0.000238776)
(0.10474 0.00159688 0.000165856)
(0.104855 0.00163488 7.40064e-05)
(0.104943 0.00171556 -4.86123e-05)
(0.104997 0.00185926 -0.000218315)
(0.105033 0.00206364 -0.000448322)
(0.105338 0.00227536 -0.000744369)
(0.100039 0.000478785 0.000131309)