/*--------------------------------*- C++ -*----------------------------------*\
| =========                 |                                                 |
| \\      /  F ield         | OpenFOAM: The Open Source CFD Toolbox           |
|  \\    /   O peration     | Version:  2212                                  |
|   \\  /    A nd           | Website:  www.openfoam.com                      |
|    \\/     M anipulation  |                                                 |
\*---------------------------------------------------------------------------*/
FoamFile
{
    version     2.0;
    format      ascii;
    arch        "LSB;label=32;scalar=64";
    class       surfaceVectorField;
    location    "0.65";
    object      Uf;
}
// * * * * * * * * * * * * * * * * * * * * * * * * * * * * * * * * * * * * * //

dimensions      [0 1 -1 0 0 0 0];

internalField   nonuniform List<vector> 
19019
(
(0.0993441 -0.00341903 -0.003419)
(0.0973536 0.00106247 -0.00148427)
(0.0973536 -0.00148428 0.00106247)
(0.0834792 0.00197582 0.00197589)
(0.0930873 0.00326894 0.00253351)
(0.0930873 0.00253345 0.003269)
(0.0745173 0.00195862 0.00195878)
(0.0848642 0.00163575 0.00179243)
(0.0848642 0.00179232 0.00163586)
(0.0685481 0.00115891 0.00115925)
(0.0786283 0.00107334 0.00122156)
(0.0786283 0.00122131 0.00107355)
(0.0642366 0.000696665 0.000697263)
(0.0740534 0.000784998 0.000865484)
(0.0740535 0.000865059 0.000785477)
(0.0607575 0.00049414 0.000495382)
(0.0704431 0.00064994 0.000669938)
(0.0704433 0.000669215 0.000650716)
(0.0579387 0.000373549 0.000375952)
(0.0674927 0.000545615 0.000509814)
(0.067493 0.000508323 0.000547254)
(0.0556163 0.00028582 0.000289874)
(0.0650526 0.000466874 0.000389638)
(0.0650533 0.000387088 0.00046977)
(0.0536287 0.000223448 0.000230086)
(0.062969 0.000411819 0.000311395)
(0.0629702 0.000307221 0.000416735)
(0.0518866 0.000177154 0.000188248)
(0.0611369 0.000366949 0.000260789)
(0.061139 0.000253942 0.000375249)
(0.0503413 0.000141075 0.000159587)
(0.059497 0.000324821 0.000229732)
(0.0595009 0.000217588 0.000338947)
(0.0489617 0.000110465 0.000140152)
(0.0580161 0.000283262 0.000212142)
(0.0580234 0.000191741 0.000306747)
(0.0477209 8.12432e-05 0.000126916)
(0.0566692 0.000242754 0.0002029)
(0.056682 0.000172513 0.000280707)
(0.0466 4.87128e-05 0.000118831)
(0.0554369 0.000200626 0.000198642)
(0.0554576 0.000158279 0.000261896)
(0.0456059 1.96779e-05 0.000116094)
(0.0543137 0.000148049 0.000201006)
(0.0543464 0.000141001 0.00024728)
(0.0447552 -1.98211e-05 0.000122742)
(0.0533109 8.36423e-05 0.000207145)
(0.0533631 0.000122786 0.000232918)
(0.0441073 -0.000122003 0.000121955)
(0.0524668 -1.3041e-05 0.000226667)
(0.0525568 7.72928e-05 0.000223382)
(0.0440142 -0.000298491 6.69352e-05)
(0.0519314 -0.000208655 0.000210602)
(0.0520983 -6.77304e-05 0.000180949)
(0.0451646 -0.00158746 -0.000928959)
(0.052249 -0.00058326 7.54111e-05)
(0.0526024 -0.000304456 2.83736e-05)
(0.0508413 -0.00355565 -0.00206141)
(0.050831 -0.00210825 -0.00151558)
(0.0984572 0.0024764 0.00172993)
(0.0996871 0.000439207 0.000345487)
(0.100049 0.00105637 0.000750979)
(0.0958349 0.00314795 0.00243276)
(0.0978162 0.00273266 0.00228233)
(0.0982937 0.00280913 0.00216154)
(0.0914501 0.00223014 0.00186948)
(0.095496 0.0030015 0.00230326)
(0.0963041 0.0024425 0.00199795)
(0.0875954 0.00167424 0.00150578)
(0.0926191 0.00229899 0.00183902)
(0.093667 0.00198042 0.00172724)
(0.0841479 0.00143937 0.00127623)
(0.0897673 0.00189122 0.00153606)
(0.0909049 0.00171918 0.00149831)
(0.0811882 0.00126426 0.00102971)
(0.087232 0.00165527 0.0012954)
(0.0884349 0.00145366 0.00121271)
(0.0787018 0.0011082 0.000795534)
(0.0850065 0.00148998 0.00107837)
(0.0863057 0.00118199 0.000910249)
(0.0765576 0.000988717 0.000627805)
(0.0830605 0.0013681 0.000915309)
(0.084482 0.000980418 0.000693415)
(0.0746527 0.000899259 0.000522562)
(0.0813241 0.0012727 0.000804889)
(0.0828826 0.000840725 0.000553185)
(0.072926 0.000821075 0.000460555)
(0.0797457 0.00118413 0.000731733)
(0.081452 0.000736862 0.000463217)
(0.0713413 0.00074273 0.000426451)
(0.0782966 0.00109525 0.000688264)
(0.0801583 0.000649204 0.000405644)
(0.0698766 0.000663042 0.00040858)
(0.0769543 0.00100451 0.000665504)
(0.0789759 0.000569417 0.000368596)
(0.0685163 0.000583628 0.000399862)
(0.0757006 0.00091125 0.000655916)
(0.0778871 0.000498342 0.000346943)
(0.0672511 0.000497553 0.000399937)
(0.0745235 0.000811948 0.000655281)
(0.0768863 0.000432447 0.000336502)
(0.0660788 0.000382387 0.000407285)
(0.0734169 0.000696312 0.000666288)
(0.0759738 0.000356497 0.000338471)
(0.0650266 0.000217253 0.000415837)
(0.072385 0.000544049 0.000687105)
(0.0751593 0.000249141 0.000350028)
(0.064153 -5.44465e-05 0.000386445)
(0.0714456 0.000327304 0.000711665)
(0.0744679 9.32187e-05 0.000363145)
(0.0636893 -0.000585936 0.000231036)
(0.0706724 -8.34124e-05 0.000690924)
(0.073968 -0.000205465 0.000302288)
(0.0643177 -0.00231925 -0.000813784)
(0.0702617 -0.000910805 0.000559735)
(0.073807 -0.000878945 -6.80332e-05)
(0.0690264 -0.00332281 -0.000486749)
(0.0731904 -0.00325462 -0.00206451)
(0.0993753 0.00118206 0.00107258)
(0.099473 0.000349737 0.00030706)
(0.0997475 0.000610952 0.000779891)
(0.0984948 0.00229591 0.00203203)
(0.0990504 0.00157671 0.00172049)
(0.0995971 0.00201819 0.00200296)
(0.0971412 0.00247618 0.00204884)
(0.0983577 0.00213092 0.00216902)
(0.0992972 0.00246132 0.00210263)
(0.0954393 0.00224645 0.00176774)
(0.0971931 0.00203545 0.00200267)
(0.0984882 0.00237409 0.00190298)
(0.0937503 0.00201957 0.00152301)
(0.0959048 0.00185513 0.00175478)
(0.0974221 0.00218024 0.00168928)
(0.0921372 0.00186269 0.00134551)
(0.0946709 0.00173195 0.00154335)
(0.0963092 0.00198361 0.00150917)
(0.0905998 0.00175106 0.00121651)
(0.0934802 0.00165141 0.00138755)
(0.0952038 0.00179972 0.0013441)
(0.0891484 0.00165117 0.00111626)
(0.0923655 0.0015745 0.00126726)
(0.0941467 0.00164149 0.00120606)
(0.0877992 0.00154301 0.001036)
(0.0913273 0.00147745 0.0011747)
(0.0931635 0.00149939 0.00109941)
(0.086553 0.00142809 0.000977102)
(0.0903349 0.00136422 0.00110795)
(0.0922575 0.00136589 0.00101969)
(0.0853935 0.00131334 0.000940998)
(0.0893995 0.00124829 0.00106485)
(0.091428 0.00124244 0.000966565)
(0.084303 0.00119979 0.000924443)
(0.0885112 0.00113182 0.0010419)
(0.0906652 0.00112844 0.000936101)
(0.0832671 0.0010816 0.000923379)
(0.0876541 0.00101442 0.00103547)
(0.0899577 0.0010186 0.000923603)
(0.0822762 0.000948559 0.000935232)
(0.086815 0.000890765 0.0010434)
(0.0892981 0.000903632 0.000925674)
(0.0813263 0.000786824 0.000959948)
(0.0859813 0.000747563 0.00106635)
(0.0886817 0.000772991 0.000943002)
(0.0804165 0.00057273 0.000997911)
(0.0851397 0.000563201 0.00110752)
(0.0881084 0.000610776 0.000976958)
(0.0795473 0.000230087 0.00104756)
(0.0842666 0.000312614 0.00117379)
(0.0875757 0.000389862 0.00102914)
(0.0786913 -0.00037858 0.00111633)
(0.0833095 -9.11947e-05 0.0012823)
(0.0870778 3.02904e-05 0.00110399)
(0.0777369 -0.00147132 0.00124276)
(0.0822172 -0.000758973 0.00141077)
(0.0865832 -0.000562702 0.00122736)
(0.0808705 -0.00157222 0.00220519)
(0.0858909 -0.00153042 0.00144787)
(0.0996493 0.000650248 0.000931419)
(0.0994625 0.000129368 0.000192501)
(0.0997993 0.000375102 0.000741364)
(0.0990854 0.00127878 0.00182776)
(0.0992625 0.000636836 0.00137063)
(0.0998409 0.00115029 0.00181424)
(0.0984491 0.00154052 0.00210324)
(0.0989128 0.000973335 0.00200367)
(0.0999047 0.00153631 0.00209026)
(0.0977072 0.00154654 0.00198924)
(0.0982947 0.0010499 0.00205087)
(0.0997672 0.00163142 0.00202332)
(0.0969385 0.00147966 0.00177662)
(0.0976567 0.00100731 0.00190006)
(0.099509 0.0016092 0.00189629)
(0.096206 0.00142661 0.00158293)
(0.0970633 0.000959826 0.00169902)
(0.0991986 0.00154698 0.00175266)
(0.095519 0.00139171 0.00143634)
(0.0965031 0.000932871 0.0015218)
(0.098853 0.00147367 0.00162731)
(0.094867 0.00135138 0.00133074)
(0.0959883 0.000916195 0.00138087)
(0.0985078 0.00139134 0.00151729)
(0.0942282 0.00128972 0.00126149)
(0.0955165 0.000901457 0.00128127)
(0.0981724 0.00129696 0.00142304)
(0.0935947 0.0012039 0.00121792)
(0.0950565 0.000867815 0.00122145)
(0.0978224 0.00119026 0.00134852)
(0.0929671 0.00110228 0.0011923)
(0.0945922 0.0008085 0.00119172)
(0.0974794 0.00108012 0.00129858)
(0.0923403 0.000993742 0.00118267)
(0.0941204 0.000738161 0.0011836)
(0.0971433 0.000971568 0.0012696)
(0.0917038 0.000881541 0.00118812)
(0.0936311 0.000666418 0.00119051)
(0.0968061 0.000864324 0.0012592)
(0.0910425 0.000760442 0.0012107)
(0.0931067 0.000594095 0.00121278)
(0.0964602 0.000754736 0.00126861)
(0.090333 0.000617284 0.00125659)
(0.0925268 0.000518062 0.00125805)
(0.0960941 0.000633809 0.00130241)
(0.0895392 0.000438071 0.00133824)
(0.0918605 0.000428672 0.00133566)
(0.0956896 0.000489149 0.00137036)
(0.0885964 0.000178081 0.0014802)
(0.0910582 0.000326942 0.00146716)
(0.0952172 0.000308363 0.0014927)
(0.0874063 -0.000239667 0.00166341)
(0.0900101 0.000160253 0.00169114)
(0.0946111 4.02588e-05 0.00169948)
(0.0858391 -0.000721073 0.00246876)
(0.0886045 -9.34639e-05 0.00199179)
(0.0938284 -0.000363101 0.0019585)
(0.0871162 -0.000288841 0.00320448)
(0.0932021 -0.000716217 0.00294513)
(0.0996725 0.000154065 0.000629499)
(0.0993801 8.92166e-09 5.89365e-05)
(0.0997132 0.000103924 0.000687953)
(0.099159 0.000353341 0.0015443)
(0.0992677 4.63368e-08 0.00120004)
(0.0998376 0.000341647 0.00162232)
(0.0986634 0.000457847 0.00194761)
(0.0989803 1.16902e-07 0.00188856)
(0.0999629 0.000485489 0.00199146)
(0.0982119 0.000481029 0.00196084)
(0.0984744 2.16604e-07 0.00200663)
(0.0999916 0.000539671 0.0019968)
(0.0977754 0.000471968 0.00182515)
(0.0979951 3.81954e-07 0.00191496)
(0.100009 0.000546495 0.00191148)
(0.097361 0.000458814 0.00164169)
(0.0975699 6.87005e-07 0.00173514)
(0.100007 0.000533689 0.00180504)
(0.0969916 0.000446965 0.00146898)
(0.0971791 1.2512e-06 0.0015479)
(0.0999794 0.000511809 0.00168391)
(0.096669 0.000438224 0.00133103)
(0.0968278 2.19088e-06 0.00138952)
(0.099936 0.00048563 0.00157407)
(0.0963849 0.000430565 0.00123761)
(0.0965251 3.79595e-06 0.00127153)
(0.0998935 0.000462213 0.00148358)
(0.096113 0.000417043 0.00119056)
(0.0962664 6.4664e-06 0.00120179)
(0.0998572 0.000439244 0.00142181)
(0.0958242 0.000394981 0.00117916)
(0.0959852 1.09184e-05 0.00117597)
(0.0997973 0.000410875 0.00138477)
(0.0955024 0.000368194 0.00118862)
(0.0956801 1.83221e-05 0.00117658)
(0.0997181 0.000378911 0.00136293)
(0.0951343 0.000341475 0.00121319)
(0.0953459 3.07155e-05 0.00119071)
(0.0996148 0.000347645 0.00135872)
(0.0947008 0.000320347 0.0012592)
(0.0949634 5.15427e-05 0.00121787)
(0.0994702 0.000319211 0.00137854)
(0.0941743 0.000307283 0.00133773)
(0.0945141 8.62741e-05 0.00126757)
(0.0992721 0.000297205 0.00142892)
(0.0935085 0.000308199 0.00146741)
(0.0939698 0.000144437 0.00134978)
(0.0990009 0.00028141 0.00152246)
(0.092628 0.000319531 0.00168441)
(0.0932871 0.000247438 0.00148702)
(0.0986212 0.000279601 0.00168931)
(0.0913906 0.0003553 0.00203337)
(0.0923723 0.000411437 0.00170991)
(0.0980691 0.000282505 0.0019764)
(0.0895698 0.000501449 0.0027502)
(0.0911103 0.000702091 0.00204628)
(0.0972678 0.000321185 0.00243223)
(0.0898398 0.00136437 0.00277896)
(0.0965061 0.000487048 0.00349357)
(0.0996725 -0.000154006 0.000629474)
(0.0994625 -0.000129348 0.000192486)
(0.0997132 -0.000103898 0.000687952)
(0.099159 -0.000353181 0.00154429)
(0.0992625 -0.000636758 0.00137062)
(0.0998376 -0.000341545 0.00162232)
(0.0986635 -0.000457539 0.00194758)
(0.0989129 -0.00097319 0.00200363)
(0.099963 -0.000485286 0.00199147)
(0.0982121 -0.00048048 0.00196076)
(0.098295 -0.00104966 0.00205078)
(0.0999917 -0.000539306 0.00199678)
(0.0977759 -0.000470972 0.00182495)
(0.0976573 -0.00100682 0.00189988)
(0.100009 -0.000545818 0.00191135)
(0.0973619 -0.000456978 0.00164135)
(0.0970645 -0.000958858 0.00169871)
(0.100007 -0.000532445 0.00180473)
(0.0969933 -0.000443676 0.00146844)
(0.0965052 -0.000931049 0.00152139)
(0.0999806 -0.000509604 0.00168344)
(0.0966719 -0.000432506 0.00133002)
(0.0959919 -0.000912994 0.00138017)
(0.0999381 -0.000481834 0.00157328)
(0.0963901 -0.000420799 0.00123571)
(0.0955229 -0.000895843 0.00127979)
(0.099897 -0.000455655 0.0014822)
(0.0961221 -0.000400573 0.00118719)
(0.0950676 -0.000858514 0.00121833)
(0.0998631 -0.000427968 0.00141943)
(0.09584 -0.000367467 0.00117338)
(0.0946113 -0.000793313 0.00118603)
(0.0998074 -0.000391798 0.00138082)
(0.0955302 -0.000322428 0.00117868)
(0.0941533 -0.000713628 0.00117325)
(0.0997353 -0.000347065 0.00135618)
(0.0951832 -0.000265122 0.00119538)
(0.0936877 -0.000626347 0.00117279)
(0.0996448 -0.000295487 0.00134657)
(0.0947869 -0.000193103 0.00122624)
(0.0932043 -0.000527793 0.00118237)
(0.0995236 -0.000234019 0.00135616)
(0.0943254 -9.64138e-05 0.00127962)
(0.0926937 -0.000410238 0.00120352)
(0.0993627 -0.000157705 0.00138908)
(0.0937695 4.65875e-05 0.00136939)
(0.0921434 -0.000246992 0.00123869)
(0.099151 -5.49852e-05 0.00145216)
(0.0930751 0.000271211 0.00151251)
(0.0915372 -9.69727e-06 0.00129623)
(0.0988684 9.33085e-05 0.00156483)
(0.092167 0.000631021 0.00172282)
(0.0908335 0.000350348 0.00138908)
(0.0984743 0.000318167 0.00175021)
(0.0909605 0.00130496 0.00207504)
(0.0899837 0.000904307 0.00153252)
(0.0979395 0.000658317 0.00202347)
(0.0891883 0.00185905 0.00177031)
(0.0976214 0.00127145 0.00245331)
(0.0996493 -0.000650229 0.000931423)
(0.099473 -0.000349741 0.000307059)
(0.0997993 -0.000375098 0.000741367)
(0.0990855 -0.00127873 0.00182773)
(0.0990504 -0.00157673 0.00172047)
(0.0998409 -0.00115027 0.00181424)
(0.0984493 -0.00154044 0.00210313)
(0.0983578 -0.00213096 0.0021689)
(0.0999048 -0.00153628 0.0020902)
(0.0977078 -0.00154634 0.00198906)
(0.0971935 -0.00203553 0.00200245)
(0.0997675 -0.00163135 0.0020231)
(0.0969396 -0.00147917 0.00177634)
(0.0959055 -0.00185518 0.00175446)
(0.0995097 -0.001609 0.00189587)
(0.0962081 -0.00142566 0.00158256)
(0.0946725 -0.0017319 0.00154287)
(0.0992 -0.00154654 0.00175202)
(0.0955229 -0.00139007 0.0014358)
(0.093483 -0.00165123 0.00138683)
(0.0988556 -0.00147284 0.00162639)
(0.0948737 -0.00134853 0.00132962)
(0.0923703 -0.00157428 0.00126608)
(0.0985123 -0.00138994 0.00151582)
(0.0942401 -0.00128499 0.00125887)
(0.0913358 -0.00147708 0.00117258)
(0.0981801 -0.00129454 0.00142058)
(0.0936151 -0.0011965 0.00121263)
(0.0903494 -0.00136373 0.00110395)
(0.0978355 -0.00118623 0.00134416)
(0.0930021 -0.0010909 0.00118229)
(0.0894242 -0.00124774 0.00105799)
(0.0975016 -0.0010738 0.00129091)
(0.0923998 -0.000975904 0.00116496)
(0.0885532 -0.00113147 0.0010295)
(0.0971812 -0.000961735 0.0012559)
(0.0918044 -0.000852882 0.00115844)
(0.0877249 -0.00101428 0.00101424)
(0.0968706 -0.00084962 0.00123514)
(0.0912127 -0.000715866 0.00115973)
(0.0869333 -0.000890923 0.00100801)
(0.0965678 -0.000732082 0.00122683)
(0.0906203 -0.000542963 0.00116505)
(0.086178 -0.000749619 0.00100526)
(0.096272 -0.000598751 0.00122928)
(0.0900243 -0.000301924 0.00117185)
(0.0854679 -0.000561681 0.000995964)
(0.0959814 -0.000426505 0.00124054)
(0.0894214 5.11555e-05 0.00118453)
(0.0848248 -0.000295768 0.000971978)
(0.0956942 -0.000191815 0.00126099)
(0.0887895 0.000589002 0.0012167)
(0.0842718 0.000119746 0.000907059)
(0.0954012 0.000145078 0.00129823)
(0.0880686 0.00144448 0.00125135)
(0.0838461 0.00081117 0.000802602)
(0.0950884 0.000636362 0.0013686)
(0.0831211 0.00207218 0.000443549)
(0.0948046 0.00135611 0.001468)
(0.0993753 -0.00118209 0.00107256)
(0.0996871 -0.000439218 0.000345478)
(0.0997475 -0.000610968 0.000779878)
(0.0984949 -0.00229599 0.00203191)
(0.0978162 -0.00273274 0.00228227)
(0.0995971 -0.00201825 0.00200288)
(0.0971414 -0.00247635 0.0020486)
(0.0954961 -0.00300163 0.00230311)
(0.0992974 -0.00246145 0.00210241)
(0.0954398 -0.00224673 0.00176739)
(0.0926194 -0.00229922 0.00183875)
(0.0984885 -0.00237435 0.0019026)
(0.0937514 -0.00202003 0.00152251)
(0.0897678 -0.00189168 0.00153567)
(0.0974228 -0.00218066 0.00168871)
(0.0921392 -0.0018634 0.00134473)
(0.087233 -0.00165604 0.00129478)
(0.0963104 -0.00198431 0.00150837)
(0.0906034 -0.0017522 0.00121521)
(0.0850081 -0.00149129 0.00107735)
(0.0952059 -0.0018008 0.00134282)
(0.0891547 -0.00165309 0.00111413)
(0.0830636 -0.00137028 0.000913619)
(0.0941505 -0.0016432 0.00120386)
(0.08781 -0.00154626 0.00103252)
(0.0813294 -0.00127639 0.000802076)
(0.0931702 -0.00150238 0.0010958)
(0.0865713 -0.00143354 0.00097152)
(0.0797549 -0.00119045 0.000727001)
(0.0922689 -0.00137103 0.00101367)
(0.0854245 -0.00132241 0.000931663)
(0.0783125 -0.00110624 0.000679832)
(0.0914473 -0.00125086 0.000956492)
(0.084355 -0.00121446 0.000908245)
(0.0769821 -0.00102274 0.000650806)
(0.0906978 -0.00114246 0.000918906)
(0.0833529 -0.0011046 0.000895681)
(0.075748 -0.000939595 0.000633368)
(0.0900111 -0.00104188 0.000894682)
(0.0824172 -0.000983715 0.000887823)
(0.0746008 -0.000855548 0.000624915)
(0.0893838 -0.000942003 0.000878311)
(0.0815579 -0.000837732 0.00087447)
(0.0735414 -0.000766049 0.000618303)
(0.0888182 -0.000832589 0.000864013)
(0.0808103 -0.000644622 0.000842173)
(0.072589 -0.000662005 0.000595893)
(0.0883273 -0.000697964 0.000838612)
(0.0802264 -0.000334306 0.00075169)
(0.0717973 -0.000508289 0.000542295)
(0.0879348 -0.000513241 0.000781989)
(0.079855 0.000221897 0.000565927)
(0.0712962 -0.000182514 0.000349179)
(0.0876628 -0.000203859 0.000643383)
(0.0797533 0.00142554 6.84345e-05)
(0.0714405 0.00047969 -1.22804e-05)
(0.0875368 0.000327094 0.000402171)
(0.0699914 0.00230017 -0.00103447)
(0.0871957 0.00147378 -0.000222345)
(0.0984572 -0.00247644 0.00172989)
(0.0973536 -0.00106247 -0.00148428)
(0.100049 -0.00105638 0.000750965)
(0.0958349 -0.00314804 0.00243266)
(0.0930873 -0.003269 0.00253345)
(0.0982937 -0.00280922 0.00216145)
(0.0914502 -0.0022303 0.00186928)
(0.0848642 -0.00163586 0.00179232)
(0.0963041 -0.00244266 0.00199778)
(0.0875955 -0.00167459 0.00150544)
(0.0786283 -0.00107355 0.00122131)
(0.0936671 -0.00198072 0.00172692)
(0.0841483 -0.00144001 0.00127568)
(0.0740535 -0.000785469 0.000865063)
(0.0909051 -0.00171973 0.00149781)
(0.0811888 -0.00126534 0.00102877)
(0.0704433 -0.000650706 0.000669221)
(0.0884352 -0.00145456 0.00121179)
(0.0787031 -0.0011101 0.000794006)
(0.0674931 -0.000547238 0.000508335)
(0.0863062 -0.00118355 0.000908741)
(0.0765599 -0.000992006 0.000625269)
(0.0650533 -0.000469749 0.000387106)
(0.0844829 -0.000983081 0.000690895)
(0.0746569 -0.000904992 0.000518284)
(0.0629703 -0.000416708 0.000307243)
(0.0828843 -0.00084534 0.000548881)
(0.0729335 -0.000831051 0.000452667)
(0.0611391 -0.000375217 0.000253969)
(0.0814551 -0.000744868 0.000455777)
(0.0713549 -0.000759636 0.000412221)
(0.059501 -0.000338908 0.000217623)
(0.0801639 -0.000663394 0.000391781)
(0.0699011 -0.000690581 0.000386929)
(0.0580235 -0.0003067 0.000191785)
(0.0789862 -0.000592802 0.000345156)
(0.0685582 -0.000628524 0.000373796)
(0.0566822 -0.000280653 0.00017257)
(0.0779051 -0.000534243 0.000312177)
(0.0673171 -0.000572608 0.000367808)
(0.0554579 -0.000261831 0.000158344)
(0.0769153 -0.000487142 0.000290152)
(0.066184 -0.000515167 0.000352178)
(0.0543467 -0.000247202 0.000141074)
(0.0760195 -0.000445977 0.000266278)
(0.0651962 -0.000435267 0.000308399)
(0.0533636 -0.000232815 0.000122852)
(0.0752323 -0.000404031 0.000224567)
(0.0644525 -0.000275181 0.000167309)
(0.0525574 -0.000223228 7.73871e-05)
(0.0745936 -0.000337619 0.000143115)
(0.0642792 3.34685e-05 -0.000131097)
(0.0520992 -0.000180726 -6.7636e-05)
(0.0742011 -0.000171276 -8.78706e-05)
(0.0654089 0.000547656 -0.000683297)
(0.0526036 -2.80916e-05 -0.000304325)
(0.0742995 0.000279284 -0.000700877)
(0.0508325 0.0015162 -0.00210851)
(0.0731784 0.00158322 -0.00284305)
(0.0993441 0.003419 -0.00341903)
(0.0973536 0.00148427 0.00106247)
(0.0834792 -0.00197589 0.00197582)
(0.0930873 -0.00253351 0.00326894)
(0.0745173 -0.00195878 0.00195862)
(0.0848642 -0.00179243 0.00163576)
(0.0685481 -0.00115924 0.00115892)
(0.0786283 -0.00122155 0.00107334)
(0.0642366 -0.000697255 0.000696672)
(0.0740534 -0.000865479 0.000785005)
(0.0607575 -0.000495369 0.000494153)
(0.0704431 -0.000669932 0.000649948)
(0.0579387 -0.000375932 0.00037357)
(0.0674927 -0.000509801 0.000545628)
(0.0556163 -0.000289849 0.000285847)
(0.0650526 -0.00038962 0.00046689)
(0.0536287 -0.000230057 0.00022348)
(0.062969 -0.000311374 0.000411839)
(0.0518867 -0.000188214 0.000177193)
(0.0611369 -0.000260765 0.000366972)
(0.0503414 -0.000159548 0.000141122)
(0.0594971 -0.000229702 0.000324847)
(0.0489618 -0.000140106 0.000110521)
(0.0580162 -0.000212103 0.000283288)
(0.0477211 -0.000126863 8.131e-05)
(0.0566694 -0.000202849 0.000242782)
(0.0466003 -0.000118779 4.87925e-05)
(0.0554372 -0.000198589 0.000200657)
(0.0456063 -0.000116038 1.97514e-05)
(0.0543141 -0.000200958 0.000148091)
(0.0447557 -0.000122653 -1.97503e-05)
(0.0533114 -0.000207099 8.36872e-05)
(0.044108 -0.000121825 -0.000121921)
(0.0524675 -0.000226599 -1.29834e-05)
(0.0440152 -6.68011e-05 -0.000298399)
(0.0519323 -0.000210524 -0.000208598)
(0.045166 0.000929243 -0.00158755)
(0.0522502 -7.53607e-05 -0.000583207)
(0.050843 0.00206158 -0.00355575)
(0.0984572 0.00172989 0.00247644)
(0.100049 0.000750965 0.00105638)
(0.0996871 0.000345478 0.000439219)
(0.0958349 0.00243266 0.00314805)
(0.0982937 0.00216145 0.00280922)
(0.0978162 0.00228227 0.00273274)
(0.0914502 0.00186928 0.00223031)
(0.0963041 0.00199778 0.00244267)
(0.0954961 0.0023031 0.00300163)
(0.0875955 0.00150544 0.0016746)
(0.0936671 0.00172692 0.00198072)
(0.0926194 0.00183875 0.00229922)
(0.0841483 0.00127567 0.00144002)
(0.0909051 0.00149781 0.00171973)
(0.0897678 0.00153567 0.00189169)
(0.0811888 0.00102877 0.00126536)
(0.0884352 0.00121179 0.00145458)
(0.087233 0.00129478 0.00165605)
(0.0787031 0.000794001 0.00111012)
(0.0863061 0.000908737 0.00118357)
(0.0850081 0.00107735 0.0014913)
(0.0765599 0.000625261 0.00099203)
(0.0844829 0.00069089 0.000983102)
(0.0830636 0.000913611 0.0013703)
(0.0746568 0.000518273 0.000905024)
(0.0828843 0.000548875 0.000845368)
(0.0813294 0.000802064 0.00127642)
(0.0729334 0.00045265 0.000831094)
(0.081455 0.000455769 0.000744905)
(0.0797548 0.000726985 0.00119048)
(0.0713548 0.000412197 0.000759692)
(0.0801638 0.000391771 0.000663445)
(0.0783124 0.000679808 0.00110629)
(0.069901 0.000386894 0.000690651)
(0.078986 0.000345149 0.000592872)
(0.076982 0.000650775 0.00102281)
(0.068558 0.000373754 0.000628612)
(0.0779049 0.000312172 0.000534337)
(0.0757478 0.000633323 0.000939671)
(0.0673168 0.000367763 0.000572723)
(0.0769151 0.000290146 0.000487251)
(0.0746006 0.000624868 0.000855654)
(0.0661836 0.000352123 0.000515325)
(0.0760192 0.000266246 0.000446093)
(0.0735411 0.000618264 0.00076621)
(0.0651956 0.000308324 0.000435489)
(0.0752318 0.000224516 0.000404186)
(0.0725885 0.000595856 0.000662242)
(0.0644517 0.000167215 0.000275488)
(0.0745929 0.000143044 0.00033783)
(0.0717966 0.000542247 0.000508601)
(0.064278 -0.000131236 -3.30306e-05)
(0.0742 -8.79512e-05 0.000171569)
(0.0712953 0.000349119 0.000182982)
(0.0654073 -0.000683268 -0.00054694)
(0.0742981 -0.000701065 -0.000278891)
(0.0714393 -1.23842e-05 -0.000479006)
(0.0731761 -0.0028429 -0.00158235)
(0.0699899 -0.00103433 -0.00229922)
(0.10008 0.00135173 0.00135179)
(0.100186 0.000798736 0.00080496)
(0.100186 0.000804938 0.000798758)
(0.100264 0.0022172 0.00221736)
(0.10019 0.00231177 0.00207154)
(0.10019 0.00207143 0.00231186)
(0.099383 0.00243557 0.00243588)
(0.100307 0.00263356 0.00245325)
(0.100307 0.00245298 0.00263375)
(0.0979843 0.00230994 0.00231046)
(0.0998051 0.00256013 0.00245624)
(0.0998052 0.00245578 0.00256049)
(0.0964954 0.00200574 0.00200661)
(0.0988628 0.00236403 0.00228141)
(0.0988631 0.00228071 0.00236461)
(0.0950734 0.00159626 0.00159774)
(0.097841 0.00204839 0.00196886)
(0.0978414 0.00196778 0.00204941)
(0.0937767 0.00122501 0.00122748)
(0.0968617 0.0016901 0.00160585)
(0.0968624 0.00160412 0.00169178)
(0.0926203 0.000959774 0.000964)
(0.0959601 0.0014026 0.00132347)
(0.0959613 0.00132048 0.00140535)
(0.0915984 0.00077385 0.00078116)
(0.0951491 0.0011881 0.0011219)
(0.0951513 0.00111677 0.00119291)
(0.0906959 0.000638556 0.000651577)
(0.0944276 0.00102579 0.000977407)
(0.0944316 0.000968665 0.00103411)
(0.0898936 0.000535124 0.00055723)
(0.0937914 0.000898487 0.000873614)
(0.0937981 0.000858227 0.000912768)
(0.089173 0.000454502 0.000488691)
(0.0932269 0.000794589 0.000799937)
(0.0932381 0.000774644 0.000818022)
(0.0885256 0.000389411 0.000439152)
(0.0927234 0.000705473 0.000749055)
(0.0927413 0.000709921 0.000742276)
(0.0879546 0.000325606 0.000401501)
(0.0922815 0.000620471 0.000713445)
(0.0923086 0.000654803 0.000677371)
(0.0874698 0.000247424 0.000369773)
(0.0919041 0.000525027 0.000689447)
(0.091945 0.000595859 0.000615162)
(0.0870832 0.000136388 0.000336408)
(0.0915974 0.000404115 0.000673075)
(0.0916577 0.000520455 0.000545099)
(0.0868113 -5.74535e-05 0.000267058)
(0.0913681 0.000233763 0.000658124)
(0.0914535 0.000403993 0.000450978)
(0.0865879 -0.000462569 3.21479e-05)
(0.0912031 -3.83915e-05 0.000611312)
(0.0913145 0.000191838 0.000289588)
(0.0860547 -0.00145771 -0.00069708)
(0.0910097 -0.000453525 0.000440929)
(0.0911303 -0.000218902 -2.96786e-05)
(0.0910701 -0.00107392 -4.10028e-05)
(0.0911943 -0.00109677 -0.000542523)
(0.100171 0.00136864 0.00141647)
(0.100118 0.000577383 0.000811317)
(0.100102 0.000699738 0.000700701)
(0.100759 0.00219481 0.00214921)
(0.100478 0.00158279 0.00185882)
(0.100477 0.00182247 0.00186471)
(0.100996 0.00247677 0.00238822)
(0.101004 0.00205865 0.00224268)
(0.101024 0.00234666 0.0023831)
(0.100838 0.00247594 0.00238955)
(0.101292 0.00220331 0.00235244)
(0.101338 0.00250573 0.00254398)
(0.100457 0.00231102 0.00222542)
(0.101309 0.00216708 0.00232272)
(0.101409 0.00245019 0.00247274)
(0.0999671 0.00205558 0.00196905)
(0.101156 0.00201026 0.00217958)
(0.101302 0.00226397 0.00227109)
(0.0994426 0.00178874 0.00170131)
(0.100925 0.00179269 0.00196966)
(0.101098 0.00200787 0.00199965)
(0.0989322 0.00156008 0.00148586)
(0.100663 0.00158169 0.00176759)
(0.100855 0.00176805 0.00175946)
(0.0984624 0.00137228 0.00132515)
(0.100405 0.00139199 0.00159322)
(0.100607 0.00156522 0.00156669)
(0.0980441 0.00121544 0.00120698)
(0.100167 0.00122331 0.00145009)
(0.100379 0.00139545 0.00141441)
(0.0976774 0.00108191 0.00112359)
(0.0999572 0.0010785 0.00134752)
(0.100183 0.0012526 0.00129605)
(0.0973595 0.000963534 0.00106752)
(0.0997757 0.00095304 0.00127834)
(0.100021 0.00113015 0.00120597)
(0.0970887 0.000850319 0.0010313)
(0.0996195 0.000838232 0.0012349)
(0.0998959 0.0010207 0.00113805)
(0.0968641 0.000731576 0.00101112)
(0.0994881 0.000723958 0.00121268)
(0.0998074 0.000914857 0.00108639)
(0.0966849 0.000593763 0.00100569)
(0.0993787 0.000598778 0.00121192)
(0.099756 0.000803075 0.00104732)
(0.0965521 0.000416455 0.00101283)
(0.0992878 0.000448622 0.00123468)
(0.099742 0.000671271 0.00101645)
(0.0964672 0.000168881 0.00102787)
(0.0992103 0.00025232 0.00128658)
(0.0997633 0.000500459 0.000987144)
(0.0964179 -0.00018743 0.00104092)
(0.0991326 -2.33874e-05 0.00137221)
(0.0998097 0.000262202 0.000944107)
(0.0963971 -0.000669544 0.00103129)
(0.0990343 -0.000417797 0.00148481)
(0.0998618 -7.09616e-05 0.000860628)
(0.0991658 -0.00096523 0.0016234)
(0.10006 -0.00046453 0.000747311)
(0.100242 0.000820135 0.00125615)
(0.10009 0.000294329 0.000735361)
(0.100071 0.000415656 0.000602789)
(0.100828 0.00139049 0.0019394)
(0.100491 0.000791968 0.00168405)
(0.100492 0.00112436 0.00158703)
(0.101392 0.00166338 0.00218246)
(0.101086 0.0010777 0.00208347)
(0.101128 0.00154074 0.00209421)
(0.101816 0.00176099 0.00226166)
(0.101664 0.00120432 0.00217926)
(0.101767 0.00173259 0.00229448)
(0.10208 0.00175504 0.00226281)
(0.102121 0.00123972 0.0022226)
(0.10229 0.00178967 0.00236775)
(0.102214 0.00166752 0.00217785)
(0.10245 0.00120188 0.00221107)
(0.102711 0.00174341 0.00232262)
(0.102263 0.00153247 0.0020431)
(0.102678 0.0011183 0.0021276)
(0.103036 0.00162538 0.00220305)
(0.102272 0.00137981 0.00188759)
(0.102838 0.00101717 0.00200718)
(0.103285 0.00147803 0.00205095)
(0.102267 0.00122623 0.00173389)
(0.102961 0.000916372 0.00187251)
(0.103489 0.00132513 0.00189226)
(0.102259 0.00108505 0.00160871)
(0.103061 0.000821796 0.00174748)
(0.103664 0.00118094 0.00174899)
(0.102251 0.000961677 0.00152255)
(0.103149 0.000735721 0.00164854)
(0.103822 0.00105363 0.00163793)
(0.102245 0.00085053 0.00146795)
(0.103234 0.000657828 0.0015751)
(0.103971 0.00094203 0.00155546)
(0.10224 0.000742964 0.00144032)
(0.103311 0.000584567 0.00153241)
(0.104115 0.000839033 0.00149799)
(0.102233 0.000630794 0.00143985)
(0.103376 0.00051208 0.00152163)
(0.104256 0.00073799 0.0014641)
(0.102219 0.000505469 0.00147094)
(0.103426 0.000436685 0.00154034)
(0.104393 0.000632975 0.00145494)
(0.102188 0.000355238 0.00154451)
(0.103456 0.000354249 0.00159748)
(0.104523 0.000516796 0.00147504)
(0.102126 0.00016144 0.00167716)
(0.103452 0.000258004 0.00171321)
(0.104641 0.000378809 0.0015344)
(0.10201 -9.57339e-05 0.00187992)
(0.103402 0.000141425 0.00191148)
(0.104735 0.000204977 0.0016446)
(0.101768 -0.000375361 0.00218508)
(0.103303 1.00889e-05 0.00220287)
(0.104804 -1.16228e-05 0.00181018)
(0.10351 -5.13975e-05 0.00259149)
(0.105103 -0.00020807 0.00208038)
(0.100243 0.000267446 0.00116243)
(0.100087 1.87401e-08 0.000707028)
(0.100064 0.000135826 0.000537347)
(0.100782 0.000465814 0.00182629)
(0.100477 5.52423e-08 0.00161784)
(0.100463 0.000370939 0.0014242)
(0.101401 0.000575664 0.00207631)
(0.101065 9.55726e-08 0.00203475)
(0.101089 0.000525261 0.00193369)
(0.101987 0.000623173 0.00213443)
(0.101694 1.83221e-07 0.00211786)
(0.101797 0.000606046 0.00212886)
(0.102506 0.000631611 0.00216612)
(0.102268 3.5463e-07 0.00215087)
(0.102489 0.000639616 0.00221163)
(0.102933 0.000611137 0.00215871)
(0.102741 6.40427e-07 0.00218105)
(0.103119 0.000634698 0.00224272)
(0.103275 0.000572567 0.00209175)
(0.103123 1.07861e-06 0.00213581)
(0.103685 0.000601769 0.00219842)
(0.103551 0.000527497 0.00199351)
(0.103426 1.78845e-06 0.00204677)
(0.104183 0.000556215 0.00210838)
(0.103782 0.000484166 0.00188816)
(0.103677 3.0431e-06 0.00193885)
(0.104618 0.000509058 0.0019967)