/*--------------------------------*- C++ -*----------------------------------*\
| =========                 |                                                 |
| \\      /  F ield         | OpenFOAM: The Open Source CFD Toolbox           |
|  \\    /   O peration     | Version:  2212                                  |
|   \\  /    A nd           | Website:  www.openfoam.com                      |
|    \\/     M anipulation  |                                                 |
\*---------------------------------------------------------------------------*/
FoamFile
{
    version     2.0;
    format      ascii;
    arch        "LSB;label=32;scalar=64";
    class       volScalarField;
    location    "0.95";
    object      p;
}
// * * * * * * * * * * * * * * * * * * * * * * * * * * * * * * * * * * * * * //

dimensions      [0 2 -2 0 0 0 0];

internalField   nonuniform List<scalar> 
680
(
0.017781
0.0106666
0.00837514
0.00783731
0.00756293
0.00734069
0.00715398
0.0106022
0.00986835
0.00877545
0.00810946
0.00770683
0.00743302
0.00722174
0.0102539
0.00940242
0.00863814
0.00807898
0.00770279
0.0074347
0.00721894
0.00984467
0.00908194
0.00846316
0.00801183
0.00766785
0.0073988
0.00717915
0.00971049
0.00896931
0.00838113
0.00797301
0.00765108
0.00738438
0.00716288
0.00971051
0.00896933
0.00838116
0.00797306
0.00765115
0.00738449
0.00716306
0.00984472
0.00908199
0.00846324
0.00801193
0.00766799
0.00739904
0.00717955
0.010254
0.00940247
0.0086382
0.00807907
0.00770293
0.00743495
0.00721936
0.0106022
0.00986838
0.00877548
0.00810951
0.00770691
0.00743316
0.00722197
0.017781
0.0106666
0.00837514
0.00783731
0.00756293
0.00734069
0.00715398
0.0106022
0.00986838
0.00877548
0.00810951
0.00770691
0.00743316
0.00722197
0.00988562
0.00985391
0.00912568
0.00841516
0.00796878
0.00765277
0.00739379
0.00896014
0.00908632
0.00878341
0.00836717
0.00799999
0.0076813
0.00740264
0.00854177
0.00858527
0.00841969
0.00815674
0.00787634
0.00760498
0.00735394
0.00832584
0.00834767
0.00822047
0.00800296
0.00777056
0.00754144
0.00731869
0.00832587
0.0083477
0.00822052
0.00800304
0.00777067
0.0075416
0.00731893
0.00854184
0.00858535
0.00841979
0.00815688
0.00787654
0.00760526
0.00735438
0.00896018
0.00908636
0.00878348
0.00836725
0.00800011
0.00768148
0.00740294
0.00988562
0.00985391
0.00912568
0.00841516
0.00796878
0.00765277
0.00739379
0.0106022
0.00986835
0.00877545
0.00810946
0.00770683
0.00743303
0.00722174
0.010254
0.00940247
0.0086382
0.00807907
0.00770293
0.00743495
0.00721936
0.00896018
0.00908636
0.00878348
0.00836725
0.00800011
0.00768148
0.00740294
0.00839067
0.00849164
0.00838008
0.00815459
0.00789882
0.0076404
0.00738196
0.00802268
0.00809075
0.00803836
0.00789137
0.00770647
0.00750133
0.00729065
0.00783966
0.0079041
0.00787463
0.00774979
0.00759079
0.00741715
0.00723093
0.00783969
0.00790412
0.00787467
0.00774985
0.0075909
0.0074173
0.00723113
0.00802273
0.00809079
0.00803842
0.00789146
0.00770662
0.00750152
0.00729092
0.00839067
0.00849164
0.00838008
0.00815459
0.00789881
0.0076404
0.00738196
0.00896014
0.00908631
0.00878341
0.00836717
0.00799999
0.0076813
0.00740264
0.0102539
0.00940242
0.00863814
0.00807898
0.00770279
0.0074347
0.00721894
0.00984472
0.00908199
0.00846323
0.00801193
0.00766799
0.00739904
0.00717955
0.00854184
0.00858535
0.00841979
0.00815688
0.00787654
0.00760526
0.00735438
0.00802273
0.00809079
0.00803842
0.00789146
0.00770662
0.00750152
0.00729092
0.00772481
0.00778395
0.00777202
0.00767662
0.00753701
0.00737152
0.00719133
0.00757372
0.00763661
0.00764036
0.00756672
0.00744661
0.00730024
0.00713738
0.00757373
0.00763662
0.00764038
0.00756674
0.00744664
0.00730028
0.00713744
0.00772481
0.00778395
0.00777202
0.00767662
0.00753701
0.00737152
0.00719133
0.00802268
0.00809074
0.00803836
0.00789136
0.00770647
0.00750133
0.00729065
0.00854177
0.00858527
0.00841969
0.00815674
0.00787634
0.00760498
0.00735394
0.00984467
0.00908194
0.00846316
0.00801183
0.00766784
0.0073988
0.00717914
0.00971051
0.00896933
0.00838116
0.00797306
0.00765115
0.00738449
0.00716306
0.00832587
0.0083477
0.00822052
0.00800304
0.00777067
0.0075416
0.00731893
0.00783969
0.00790412
0.00787466
0.00774985
0.0075909
0.0074173
0.00723112
0.00757373
0.00763662
0.00764038
0.00756674
0.00744664
0.00730028
0.00713744
0.00743094
0.00750045
0.00752257
0.00747003
0.00736879
0.00723787
0.00708797
0.00743093
0.00750045
0.00752257
0.00747003
0.00736879
0.00723787
0.00708797
0.00757372
0.00763661
0.00764036
0.00756672
0.00744661
0.00730024
0.00713738
0.00783966
0.0079041
0.00787463
0.00774979
0.00759079
0.00741715
0.00723093
0.00832584
0.00834766
0.00822047
0.00800296
0.00777055
0.00754143
0.00731868
0.00971049
0.0089693
0.00838113
0.00797301
0.00765108
0.00738438
0.00716288
0.0097105
0.00896931
0.00838113
0.00797302
0.00765108
0.00738438
0.00716288
0.00832584
0.00834767
0.00822047
0.00800296
0.00777056
0.00754144
0.00731868
0.00783966
0.0079041
0.00787463
0.00774979
0.00759079
0.00741715
0.00723093
0.00757372
0.00763661
0.00764036
0.00756672
0.00744661
0.00730024
0.00713738
0.00743093
0.00750045
0.00752257
0.00747003
0.00736879
0.00723787
0.00708797
0.00743093
0.00750045
0.00752257
0.00747003
0.00736879
0.00723787
0.00708797
0.00757373
0.00763662
0.00764038
0.00756674
0.00744663
0.00730028
0.00713744
0.00783968
0.00790412
0.00787466
0.00774985
0.0075909
0.0074173
0.00723112
0.00832587
0.0083477
0.00822051
0.00800304
0.00777067
0.00754159
0.00731893
0.00971051
0.00896932
0.00838116
0.00797306
0.00765115
0.00738448
0.00716306
0.00984467
0.00908194
0.00846317
0.00801183
0.00766785
0.0073988
0.00717915
0.00854177
0.00858528
0.00841969
0.00815675
0.00787634
0.00760498
0.00735394
0.00802268
0.00809075
0.00803836
0.00789137
0.00770647
0.00750133
0.00729065
0.00772481
0.00778395
0.00777202
0.00767662
0.00753701
0.00737152
0.00719133
0.00757373
0.00763662
0.00764038
0.00756674
0.00744664
0.00730028
0.00713744
0.00757372
0.00763661
0.00764036
0.00756672
0.00744661
0.00730024
0.00772481
0.00778395
0.00777201
0.00767662
0.007537
0.00737152
0.00802272
0.00809079
0.00803842
0.00789146
0.00770662
0.00750152
0.00854184
0.00858534
0.00841979
0.00815688
0.00787653
0.00760526
0.00984472
0.00908199
0.00846323
0.00801193
0.00766799
0.00739904
0.0102539
0.00940242
0.00863814
0.00807898
0.00770279
0.0074347
0.00721895
0.00896014
0.00908632
0.00878342
0.00836717
0.00799999
0.0076813
0.00740264
0.00839067
0.00849164
0.00838008
0.00815459
0.00789882
0.0076404
0.00738196
0.00802272
0.00809079
0.00803842
0.00789146
0.00770662
0.00750152
0.00729092
0.00783969
0.00790412
0.00787466
0.00774985
0.0075909
0.0074173
0.00723113
0.00783966
0.0079041
0.00787463
0.00774979
0.00759079
0.00741715
0.00802268
0.00809074
0.00803836
0.00789136
0.00770647
0.00750133
0.00839067
0.00849164
0.00838007
0.00815458
0.00789881
0.00764039
0.00896017
0.00908636
0.00878347
0.00836725
0.0080001
0.00768148
0.010254
0.00940247
0.0086382
0.00807907
0.00770293
0.00743495
0.0106022
0.00986836
0.00877545
0.00810946
0.00770683
0.00743303
0.00722175
0.00988562
0.00985391
0.00912568
0.00841516
0.00796878
0.00765277
0.00739379
0.00896017
0.00908636
0.00878348
0.00836725
0.00800011
0.00768148
0.00740294
0.00854184
0.00858535
0.00841979
0.00815688
0.00787654
0.00760526
0.00735438
0.00832587
0.0083477
0.00822051
0.00800304
0.00777067
0.0075416
0.00731893
0.00832583
0.00834766
0.00822047
0.00800296
0.00777055
0.00754143
0.00854177
0.00858527
0.00841969
0.00815674
0.00787634
0.00760498
0.00896013
0.00908631
0.00878341
0.00836717
0.00799999
0.0076813
0.00988561
0.00985391
0.00912567
0.00841515
0.00796877
0.00765277
0.0106022
0.00986837
0.00877547
0.0081095
0.00770691
0.00743316
0.017781
0.0106666
0.00837514
0.00783731
0.00756293
0.00734069
0.00715398
0.0106022
0.00986838
0.00877548
0.00810951
0.00770691
0.00743316
0.00722197
0.010254
0.00940247
0.0086382
0.00807907
0.00770293
0.00743495
0.00721936
0.00984472
0.00908199
0.00846323
0.00801193
0.00766799
0.00739904
0.00717955
0.00971051
0.00896932
0.00838116
0.00797306
0.00765115
0.00738449
0.00716306
0.00971049
0.0089693
0.00838113
0.00797301
0.00765108
0.00738438
0.00984467
0.00908193
0.00846316
0.00801183
0.00766784
0.00739879
0.0102539
0.00940242
0.00863813
0.00807897
0.00770278
0.00743469
0.0106022
0.00986835
0.00877544
0.00810945
0.00770683
0.00743302
0.017781
0.0106666
0.00837513
0.0078373
0.00756292
0.00734068
)
;

boundaryField
{
    inlet
    {
        type            zeroGradient;
    }
    ami1
    {
        type            cyclicAMI;
        value           nonuniform List<scalar> 0();
    }
    walls
    {
        type            zeroGradient;
    }
    ami2
    {
        type            cyclicAMI;
        value           nonuniform List<scalar> 0();
    }
    outlet
    {
        type            fixedValue;
        value           nonuniform List<scalar> 0();
    }
    procBoundary4to3
    {
        type            processor;
        value           nonuniform List<scalar> 
109
(
0.00698745
0.00703535
0.00702586
0.00699029
0.0069723
0.0069726
0.00699098
0.00702655
0.00703573
0.00698745
0.00703573
0.007166
0.007162
0.00712751
0.00710564
0.00710602
0.0071282
0.00716251
0.00716601
0.00703535
0.00702654
0.00716251
0.00714026
0.00708372
0.007043
0.00704327
0.00708413
0.00714026
0.007162
0.00702586
0.00699097
0.0071282
0.00708412
0.00700685
0.00696599
0.00696608
0.00700685
0.00708372
0.00712751
0.00699028
0.00697259
0.00710602
0.00704327
0.00696608
0.00692701
0.00692701
0.00696599
0.00704299
0.00710564
0.0069723
0.0069723
0.00710564
0.00704299
0.00696599
0.00692701
0.00692701
0.00713738
0.00696608
0.00719133
0.00704327
0.00729092
0.00710602
0.00735438
0.00697259
0.00717955
0.00699029
0.00712751
0.00708372
0.00700685
0.00696608
0.00713738
0.00713738
0.00719133
0.00729092
0.00735438
0.00717955
0.00702587
0.007162
0.00714026
0.00708413
0.00704327
0.00723093
0.00723093
0.00729065
0.00738196
0.00740294
0.00721936
0.00703536
0.00716601
0.00716251
0.0071282
0.00710602
0.00731868
0.00731868
0.00735394
0.00740264
0.00739379
0.00722197
0.00698745
0.00703573
0.00702655
0.00699098
0.0069726
0.00716288
0.00716288
0.00717914
0.00721894
0.00722174
0.00715398
)
;
    }
}


// ************************************************************************* //
