/*--------------------------------*- C++ -*----------------------------------*\
| =========                 |                                                 |
| \\      /  F ield         | OpenFOAM: The Open Source CFD Toolbox           |
|  \\    /   O peration     | Version:  2212                                  |
|   \\  /    A nd           | Website:  www.openfoam.com                      |
|    \\/     M anipulation  |                                                 |
\*---------------------------------------------------------------------------*/
FoamFile
{
    version     2.0;
    format      ascii;
    arch        "LSB;label=32;scalar=64";
    class       volScalarField;
    location    "2.3";
    object      epsilon;
}
// * * * * * * * * * * * * * * * * * * * * * * * * * * * * * * * * * * * * * //

dimensions      [0 2 -3 0 0 0 0];

internalField   nonuniform List<scalar> 
680
(
0.720675
0.594604
0.502527
0.432711
0.379334
0.336389
0.300016
0.740292
0.565913
0.443935
0.356033
0.290944
0.241434
0.203011
0.649775
0.497008
0.38947
0.311278
0.252962
0.208961
0.175188
0.645375
0.49258
0.384766
0.307002
0.249016
0.204938
0.17093
0.643978
0.492244
0.383956
0.305784
0.247905
0.2039
0.16992
0.643984
0.492251
0.383966
0.3058
0.247926
0.203931
0.169966
0.645389
0.492598
0.384788
0.307036
0.249061
0.205003
0.649787
0.497024
0.389499
0.311314
0.25301
0.209028
0.740296
0.565917
0.443945
0.356048
0.290968
0.24147
0.720674
0.594604
0.502526
0.432711
0.379332
0.33639
0.740296
0.565917
0.443945
0.356049
0.290969
0.241472
0.203087
0.562048
0.415366
0.315946
0.24633
0.19622
0.159216
0.131245
0.618629
0.453957
0.342031
0.263647
0.207307
0.165897
0.134839
0.666457
0.489543
0.368592
0.2836
0.222382
0.177321
0.14352
0.692723
0.509637
0.384016
0.295503
0.231647
0.184592
0.149262
0.692726
0.509643
0.384023
0.295512
0.231657
0.184604
0.149273
0.666464
0.489554
0.368606
0.283618
0.222403
0.177345
0.618633
0.453965
0.342042
0.26366
0.207324
0.165916
0.562047
0.415366
0.315946
0.24633
0.19622
0.159216
0.740292
0.565912
0.443934
0.356032
0.290943
0.241433
0.649787
0.497024
0.389499
0.311314
0.25301
0.209027
0.175285
0.618634
0.453965
0.342042
0.26366
0.207324
0.165917
0.134864
0.725634
0.532156
0.399149
0.305546
0.238222
0.188824
0.151913
0.804587
0.594203
0.447515
0.343208
0.26763
0.211895
0.170116
0.843156
0.62569
0.472848
0.363482
0.283851
0.224903
0.180587
0.843156
0.625692
0.472851
0.363486
0.283855
0.224908
0.180589
0.804588
0.594206
0.44752
0.343214
0.267637
0.211901
0.725634
0.532155
0.399149
0.305546
0.238222
0.188824
0.618629
0.453957
0.342031
0.263647
0.207308
0.165898
0.649774
0.497008
0.38947
0.311278
0.252961
0.208959
0.645389
0.492598
0.384788
0.307036
0.24906
0.205001
0.171024
0.666464
0.489554
0.368606
0.283618
0.222404
0.177348
0.143549
0.804589
0.594206
0.44752
0.343214
0.267637
0.211903
0.170122
0.896487
0.669456
0.508122
0.391656
0.306285
0.242784
0.194886
0.938712
0.705583
0.538335
0.416593
0.326728
0.259498
0.208556
0.938712
0.705584
0.538336
0.416594
0.326728
0.259499
0.208557
0.896486
0.669456
0.508122
0.391656
0.306285
0.242784
0.804587
0.594203
0.447515
0.343208
0.267631
0.211897
0.666457
0.489543
0.368592
0.283601
0.222383
0.177323
0.645375
0.49258
0.384766
0.307002
0.249015
0.204936
0.643984
0.492252
0.383967
0.3058
0.247926
0.20393
0.169965
0.692726
0.509643
0.384023
0.295512
0.231658
0.184605
0.149276
0.843157
0.625692
0.472851
0.363486
0.283856
0.224909
0.180591
0.938712
0.705584
0.538336
0.416594
0.326729
0.259499
0.208557
0.981305
0.742925
0.57021
0.44335
0.348968
0.277888
0.223735
0.981305
0.742924
0.57021
0.44335
0.348968
0.277888
0.223735
0.938712
0.705583
0.538335
0.416593
0.326728
0.259499
0.843156
0.62569
0.472848
0.363483
0.283852
0.224905
0.692723
0.509637
0.384016
0.295503
0.231647
0.184593
0.643978
0.492244
0.383956
0.305784
0.247905
0.203901
0.643978
0.492244
0.383956
0.305785
0.247905
0.2039
0.16992
0.692723
0.509638
0.384016
0.295504
0.231648
0.184592
0.149263
0.843156
0.62569
0.472848
0.363483
0.283852
0.224904
0.180587
0.938712
0.705584
0.538335
0.416593
0.326728
0.259498
0.208556
0.981305
0.742925
0.57021
0.44335
0.348968
0.277888
0.223735
0.981305
0.742924
0.57021
0.44335
0.348968
0.277888
0.223735
0.938712
0.705584
0.538336
0.416594
0.326728
0.259499
0.843156
0.625692
0.472851
0.363486
0.283855
0.224907
0.692726
0.509643
0.384023
0.295511
0.231657
0.184603
0.643984
0.492252
0.383967
0.3058
0.247926
0.203933
0.645375
0.492581
0.384766
0.307003
0.249016
0.204938
0.17093
0.666457
0.489543
0.368592
0.2836
0.222382
0.177321
0.14352
0.804587
0.594203
0.447515
0.343208
0.26763
0.211895
0.170115
0.896487
0.669456
0.508122
0.391656
0.306285
0.242783
0.194886
0.938712
0.705584
0.538336
0.416594
0.326728
0.259499
0.208557
1.26863
0.938712
0.705583
0.538335
0.416593
0.326728
0.259499
0.208557
1.22111
0.896487
0.669456
0.508122
0.391656
0.306285
0.242784
1.11236
0.804589
0.594206
0.44752
0.343214
0.267637
0.211901
0.933542
0.666465
0.489554
0.368606
0.283618
0.222403
0.177345
0.869481
0.645389
0.492598
0.384788
0.307036
0.249061
0.205003
0.649775
0.497008
0.389471
0.311279
0.252963
0.208962
0.175189
0.618629
0.453957
0.342031
0.263646
0.207307
0.165896
0.134838
0.725634
0.532155
0.399149
0.305545
0.238221
0.188823
0.151912
0.804588
0.594206
0.447519
0.343213
0.267637
0.211902
0.170121
0.843156
0.625692
0.472851
0.363486
0.283856
0.224908
0.180591
1.15828
0.843155
0.62569
0.472848
0.363483
0.283852
0.224904
0.180588
1.11236
0.804587
0.594202
0.447515
0.343208
0.267631
0.211897
1.0141
0.725634
0.532155
0.399149
0.305545
0.238221
0.188824
0.869291
0.618635
0.453965
0.342042
0.26366
0.207324
0.165916
0.873582
0.649787
0.497024
0.389498
0.311314
0.25301
0.209028
0.740293
0.565913
0.443935
0.356034
0.290945
0.241435
0.203013
0.562048
0.415366
0.315946
0.24633
0.196219
0.159215
0.131244
0.618633
0.453965
0.342042
0.26366
0.207324
0.165917
0.134863
0.666464
0.489554
0.368606
0.283618
0.222404
0.177348
0.143549
0.692726
0.509643
0.384023
0.295512
0.231658
0.184605
0.149277
0.967832
0.692722
0.509637
0.384016
0.295504
0.231648
0.184593
0.149264
0.933536
0.666456
0.489543
0.368592
0.2836
0.222382
0.177323
0.869287
0.618628
0.453957
0.342031
0.263646
0.207307
0.165896
0.78693
0.562048
0.415366
0.315946
0.24633
0.19622
0.159216
0.99866
0.740296
0.565917
0.443945
0.356049
0.290969
0.241471
0.720675
0.594604
0.502527
0.432712
0.379335
0.33639
0.300018
0.740296
0.565918
0.443946
0.35605
0.29097
0.241473
0.20309
0.649788
0.497025
0.389499
0.311315
0.253011
0.209028
0.175286
0.645389
0.492598
0.384788
0.307036
0.249061
0.205001
0.171024
0.643984
0.492252
0.383967
0.3058
0.247926
0.20393
0.169965
0.866496
0.643978
0.492244
0.383956
0.305785
0.247905
0.2039
0.169919
0.86947
0.645376
0.492581
0.384766
0.307003
0.249016
0.204936
0.873573
0.649775
0.497009
0.389471
0.311279
0.252962
0.20896
0.998657
0.740293
0.565913
0.443935
0.356034
0.290944
0.241435
0.902022
0.720675
0.594605
0.502527
0.432712
0.379333
0.336393
)
;

boundaryField
{
    inlet
    {
        type            fixedValue;
        value           nonuniform List<scalar> 0();
    }
    ami1
    {
        type            cyclicAMI;
        value           nonuniform List<scalar> 0();
    }
    walls
    {
        type            epsilonWallFunction;
        blending        stepwise;
        value           nonuniform List<scalar> 
271
(
0.869481
0.873582
0.99866
0.902022
0.720674
0.740292
0.649774
0.645375
0.643978
0.643984
0.645389
0.649787
0.740296
0.720675
0.594604
0.565912
0.497008
0.49258
0.492244
0.492252
0.492598
0.497024
0.565917
0.594605
0.502526
0.443934
0.38947
0.384766
0.383956
0.383967
0.384788
0.389498
0.443945
0.502527
0.432711
0.356032
0.311278
0.307002
0.305784
0.3058
0.307036
0.311314
0.356049
0.432712
0.379332
0.290943
0.252961
0.249015
0.247905
0.247926
0.249061
0.25301
0.290969
0.379333
0.33639
0.241433
0.208959
0.204936
0.203901
0.203933
0.205003
0.209028
0.241471
0.336393
0.720675
0.740292
0.649775
0.645375
0.643978
0.643984
0.645389
0.649787
0.740296
0.720674
0.594604
0.565913
0.497008
0.49258
0.492244
0.492251
0.492598
0.497024
0.565917
0.594604
0.502527
0.443935
0.38947
0.384766
0.383956
0.383966
0.384788
0.389499
0.443945
0.502526
0.432711
0.356033
0.311278
0.307002
0.305784
0.3058
0.307036
0.311314
0.356048
0.432711
0.379334
0.290944
0.252962
0.249016
0.247905
0.247926
0.249061
0.25301
0.290968
0.379332
0.336389
0.241434
0.208961
0.204938
0.2039
0.203931
0.205003
0.209028
0.24147
0.33639
0.300016
0.203011
0.175188
0.17093
0.16992
0.169966
0.720675
0.740296
0.649787
0.645389
0.643984
0.643978
0.645375
0.649775
0.740293
0.720675
0.594604
0.565917
0.497024
0.492598
0.492252
0.492244
0.492581
0.497008
0.565913
0.594604
0.502527
0.443945
0.389499
0.384788
0.383967
0.383956
0.384766
0.389471
0.443935
0.502527
0.432711
0.356049
0.311314
0.307036
0.3058
0.305785
0.307003
0.311279
0.356034
0.432712
0.379334
0.290969
0.25301
0.24906
0.247926
0.247905
0.249016
0.252963
0.290945
0.379335
0.336389
0.241472
0.209027
0.205001
0.20393
0.2039
0.204938
0.208962
0.241435
0.33639
0.300016
0.203087
0.175285
0.171024
0.169965
0.16992
0.17093
0.175189
0.203013
0.300018
0.866496
0.86947
0.873573
0.998657
0.902022
0.720675
0.740296
0.649788
0.645389
0.643984
0.643978
0.645376
0.649775
0.740293
0.720675
0.594604
0.565918
0.497025
0.492598
0.492252
0.492244
0.492581
0.497009
0.565913
0.594605
0.502527
0.443946
0.389499
0.384788
0.383967
0.383956
0.384766
0.389471
0.443935
0.502527
0.432712
0.35605
0.311315
0.307036
0.3058
0.305785
0.307003
0.311279
0.356034
0.432712
0.379335
0.29097
0.253011
0.249061
0.247926
0.247905
0.249016
0.252962
0.290944
0.379333
0.33639
0.241473
0.209028
0.205001
0.20393
0.2039
0.204936
0.20896
0.241435
0.336393
0.300018
0.20309
0.175286
0.171024
0.169965
0.169919
)
;
    }
    ami2
    {
        type            cyclicAMI;
        value           nonuniform List<scalar> 0();
    }
    outlet
    {
        type            zeroGradient;
    }
    procBoundary3to2
    {
        type            processor;
        value           nonuniform List<scalar> 
110
(
0.270414
0.173131
0.148783
0.144315
0.143294
0.143364
0.171028
0.171028
0.175288
0.203088
0.300011
0.173239
0.109752
0.111132
0.11774
0.122295
0.122305
0.143543
0.143543
0.134855
0.131236
0.203007
0.148932
0.111149
0.123869
0.13832
0.146789
0.14679
0.17012
0.17012
0.151911
0.134841
0.175185
0.144458
0.117759
0.138323
0.158279
0.169484
0.169483
0.194886
0.194886
0.170117
0.143526
0.170927
0.143363
0.122305
0.14679
0.169483
0.182018
0.182018
0.208556
0.208556
0.180589
0.149268
0.16992
0.143294
0.122295
0.146789
0.169484
0.182018
0.182018
0.208556
0.208556
0.18059
0.149276
0.169968
0.144315
0.11774
0.138321
0.158279
0.169483
0.169483
0.194886
0.194886
0.17012
0.143542
0.171028
0.148784
0.111132
0.123869
0.138322
0.14679
0.146789
0.170118
0.170118
0.151912
0.134855
0.175288
0.173132
0.109752
0.111149
0.117758
0.122305
0.122295
0.143527
0.143527
0.134841
0.131236
0.20309
0.270416
0.173241
0.148934
0.144459
0.143363
0.143294
0.170927
0.170927
0.175186
0.203009
0.300014
)
;
    }
    procBoundary3to4
    {
        type            processor;
        value           nonuniform List<scalar> 
109
(
0.902023
0.998658
0.873574
0.869471
0.866496
0.8665
0.86948
0.873582
0.99866
0.902023
0.99866
0.786931
0.869288
0.933536
0.967831
0.967834
0.933542
0.869292
0.786931
0.998657
0.873582
0.869292
1.0141
1.11236
1.15828
1.15828
1.11236
1.0141
0.869288
0.873573
0.86948
0.933542
1.11236
1.22111
1.26863
1.26863
1.22111
1.11236
0.933536
0.869471
0.866501
0.967834
1.15828
1.26863
1.31522
1.31522
1.26863
1.15828
0.967831
0.866496
0.866496
0.967831
1.15828
1.26863
1.31522
1.31522
1.31522
1.26863
1.26863
1.15828
1.15828
0.967834
0.967834
0.866501
0.866501
0.869471
0.933535
1.11236
1.22111
1.26863
1.26863
1.74299
1.6928
1.57142
1.35121
1.2275
0.873574
0.869287
1.0141
1.11236
1.15828
1.15828
1.62326
1.57142
1.45499
1.2661
1.227
0.998658
0.786931
0.869292
0.933542
0.967835
0.967835
1.39506
1.3512
1.26609
1.14759
1.40268
0.902023
0.998661
0.873582
0.86948
0.8665
0.8665
1.22669
1.2275
1.22699
1.40267
1.18308
)
;
    }
}


// ************************************************************************* //
