/*--------------------------------*- C++ -*----------------------------------*\
| =========                 |                                                 |
| \\      /  F ield         | OpenFOAM: The Open Source CFD Toolbox           |
|  \\    /   O peration     | Version:  2212                                  |
|   \\  /    A nd           | Website:  www.openfoam.com                      |
|    \\/     M anipulation  |                                                 |
\*---------------------------------------------------------------------------*/
FoamFile
{
    version     2.0;
    format      ascii;
    arch        "LSB;label=32;scalar=64";
    class       volScalarField;
    location    "2.3";
    object      k;
}
// * * * * * * * * * * * * * * * * * * * * * * * * * * * * * * * * * * * * * //

dimensions      [0 2 -2 0 0 0 0];

internalField   nonuniform List<scalar> 
680
(
0.00851619
0.00749154
0.00669668
0.00606112
0.00555184
0.00512452
0.00474817
0.0143635
0.0120086
0.0102142
0.00881702
0.00770674
0.00680563
0.00606306
0.016797
0.0140486
0.011941
0.010284
0.00895572
0.00788457
0.00701043
0.0190784
0.0159338
0.0135145
0.011626
0.0101116
0.00888017
0.00786845
0.0202207
0.0169045
0.0143242
0.0123072
0.0107005
0.00939346
0.00831844
0.0202208
0.0169046
0.0143244
0.0123075
0.010701
0.00939423
0.00831972
0.0190786
0.0159341
0.0135149
0.0116267
0.0101126
0.00888172
0.0167972
0.0140489
0.0119415
0.0102846
0.00895664
0.00788596
0.0143635
0.0120086
0.0102144
0.00881722
0.00770708
0.00680617
0.00851618
0.00749154
0.00669667
0.00606112
0.00555181
0.00512453
0.0143635
0.0120086
0.0102144
0.00881724
0.00770709
0.00680621
0.00606432
0.0319124
0.0260947
0.0216879
0.0182774
0.0155897
0.0134426
0.0117004
0.0391416
0.0320585
0.0266713
0.0224897
0.0191867
0.0165381
0.0143854
0.043984
0.0360992
0.0300739
0.025381
0.0216635
0.0186753
0.0162417
0.0464207
0.038153
0.0318161
0.0268693
0.0229444
0.0197847
0.0172082
0.0464209
0.0381533
0.0318165
0.0268699
0.0229452
0.0197859
0.0172101
0.0439844
0.0360997
0.0300747
0.025382
0.0216651
0.0186776
0.0391419
0.0320589
0.0266718
0.0224905
0.0191878
0.0165397
0.0319124
0.0260946
0.0216879
0.0182774
0.0155896
0.0134425
0.0143635
0.0120086
0.0102142
0.008817
0.00770672
0.00680561
0.0167972
0.0140489
0.0119415
0.0102846
0.00895665
0.00788593
0.00701257
0.0391419
0.0320589
0.0266719
0.0224905
0.0191879
0.0165397
0.0143879
0.0513822
0.0422218
0.0351797
0.0296761
0.0253099
0.0217989
0.0189407
0.0585864
0.0483994
0.0404741
0.0342245
0.0292331
0.0251988
0.0219022
0.0619603
0.0513624
0.0430608
0.0364786
0.0311986
0.0269165
0.0234078
0.0619604
0.0513626
0.043061
0.0364789
0.0311991
0.0269171
0.0234088
0.0585866
0.0483997
0.0404745
0.0342251
0.0292338
0.0251999
0.0513822
0.0422218
0.0351797
0.0296761
0.0253099
0.0217988
0.0391416
0.0320585
0.0266713
0.0224897
0.0191867
0.0165379
0.016797
0.0140486
0.011941
0.0102839
0.0089557
0.0078845
0.0190786
0.0159341
0.0135149
0.0116267
0.0101126
0.00888166
0.00787087
0.0439844
0.0360998
0.0300747
0.0253821
0.0216651
0.0186776
0.0162452
0.0585866
0.0483997
0.0404745
0.0342251
0.0292338
0.0251999
0.0219038
0.0669839
0.0557849
0.0469225
0.0398397
0.034124
0.0294678
0.0256406
0.0707498
0.0592099
0.0499926
0.0425683
0.0365382
0.0316003
0.0275247
0.0707499
0.0592099
0.0499927
0.0425684
0.0365383
0.0316005
0.027525
0.0669838
0.0557849
0.0469225
0.0398397
0.034124
0.0294678
0.0585864
0.0483994
0.0404741
0.0342245
0.029233
0.0251987
0.043984
0.0360992
0.0300739
0.025381
0.0216635
0.0186752
0.0190784
0.0159338
0.0135145
0.011626
0.0101116
0.00888012
0.0202208
0.0169046
0.0143244
0.0123075
0.010701
0.00939422
0.00831967
0.0464209
0.0381533
0.0318165
0.0268699
0.0229452
0.0197859
0.01721
0.0619605
0.0513626
0.043061
0.0364789
0.0311991
0.0269171
0.0234088
0.0707499
0.0592099
0.0499927
0.0425684
0.0365383
0.0316005
0.027525
0.0746126
0.0627921
0.0532535
0.0455015
0.0391575
0.0339305
0.0295948
0.0746126
0.0627921
0.0532535
0.0455015
0.0391575
0.0339305
0.0295948
0.0707498
0.0592099
0.0499926
0.0425683
0.0365382
0.0316003
0.0619603
0.0513624
0.0430608
0.0364786
0.0311986
0.0269164
0.0464207
0.038153
0.0318161
0.0268693
0.0229444
0.0197847
0.0202207
0.0169045
0.0143242
0.0123072
0.0107005
0.00939346
0.0202207
0.0169045
0.0143242
0.0123072
0.0107005
0.00939345
0.00831843
0.0464207
0.038153
0.0318161
0.0268693
0.0229444
0.0197847
0.0172081
0.0619603
0.0513624
0.0430608
0.0364786
0.0311986
0.0269165
0.0234078
0.0707499
0.0592099
0.0499926
0.0425683
0.0365382
0.0316003
0.0275247
0.0746126
0.0627921
0.0532535
0.0455015
0.0391575
0.0339305
0.0295948
0.0746126
0.0627921
0.0532535
0.0455015
0.0391575
0.0339305
0.0295948
0.0707499
0.0592099
0.0499927
0.0425684
0.0365383
0.0316005
0.0619605
0.0513626
0.043061
0.0364789
0.0311991
0.0269172
0.0464209
0.0381533
0.0318165
0.0268699
0.0229452
0.019786
0.0202208
0.0169046
0.0143244
0.0123075
0.010701
0.00939428
0.0190784
0.0159338
0.0135145
0.011626
0.0101116
0.00888017
0.00786846
0.0439841
0.0360992
0.0300739
0.025381
0.0216635
0.0186753
0.0162417
0.0585864
0.0483994
0.0404741
0.0342245
0.0292331
0.0251988
0.0219022
0.0669839
0.0557849
0.0469225
0.0398397
0.034124
0.0294678
0.0256406
0.0707499
0.0592099
0.0499927
0.0425684
0.0365383
0.0316005
0.027525
0.08532
0.0707499
0.0592099
0.0499926
0.0425683
0.0365382
0.0316003
0.0275247
0.0812742
0.0669839
0.0557849
0.0469225
0.0398397
0.034124
0.0294678
0.0718633
0.0585866
0.0483997
0.0404745
0.0342251
0.0292338
0.0251999
0.0545306
0.0439844
0.0360997
0.0300747
0.0253821
0.0216651
0.0186777
0.0232723
0.0190786
0.0159341
0.0135149
0.0116267
0.0101126
0.00888172
0.0167971
0.0140486
0.0119411
0.010284
0.00895574
0.00788458
0.00701045
0.0391417
0.0320585
0.0266713
0.0224897
0.0191867
0.0165381
0.0143855
0.0513822
0.0422219
0.0351797
0.0296761
0.0253099
0.0217989
0.0189407
0.0585866
0.0483997
0.0404745
0.0342251
0.0292338
0.0251999
0.0219038
0.0619605
0.0513626
0.043061
0.0364789
0.0311991
0.0269171
0.0234088
0.0756572
0.0619603
0.0513624
0.0430608
0.0364786
0.0311986
0.0269165
0.0234078
0.0718632
0.0585864
0.0483995
0.0404741
0.0342245
0.029233
0.0251987
0.0635106
0.0513822
0.0422218
0.0351797
0.0296761
0.0253099
0.0217988
0.0486775
0.0391419
0.0320589
0.0266718
0.0224905
0.0191879
0.0165398
0.020461
0.0167972
0.0140489
0.0119415
0.0102846
0.00895664
0.00788596
0.0143635
0.0120086
0.0102142
0.00881703
0.00770675
0.00680565
0.00606309
0.0319124
0.0260947
0.0216879
0.0182774
0.0155897
0.0134427
0.0117005
0.039142
0.0320589
0.0266719
0.0224905
0.0191879
0.0165398
0.014388
0.0439845
0.0360998
0.0300747
0.0253821
0.0216651
0.0186776
0.0162453
0.0464209
0.0381533
0.0318165
0.0268699
0.0229452
0.0197859
0.01721
0.0574403
0.0464207
0.038153
0.0318162
0.0268693
0.0229444
0.0197847
0.0172081
0.0545303
0.0439841
0.0360992
0.0300739
0.025381
0.0216635
0.0186752
0.0486773
0.0391417
0.0320585
0.0266713
0.0224897
0.0191867
0.016538
0.0397946
0.0319124
0.0260947
0.0216879
0.0182774
0.0155897
0.0134426
0.0175362
0.0143635
0.0120086
0.0102144
0.00881724
0.0077071
0.0068062
0.00851619
0.00749154
0.00669668
0.00606113
0.00555184
0.00512453
0.00474819
0.0143635
0.0120086
0.0102144
0.00881725
0.00770712
0.00680624
0.00606437
0.0167972
0.0140489
0.0119415
0.0102846
0.00895667
0.00788596
0.0070126
0.0190786
0.0159341
0.0135149
0.0116267
0.0101126
0.00888167
0.00787088
0.0202208
0.0169046
0.0143244
0.0123075
0.010701
0.00939421
0.00831966
0.0246448
0.0202207
0.0169045
0.0143242
0.0123072
0.0107005
0.00939344
0.0083184
0.0232721
0.0190784
0.0159338
0.0135145
0.011626
0.0101116
0.00888013
0.0204608
0.0167971
0.0140486
0.0119411
0.010284
0.00895573
0.00788454
0.0175362
0.0143635
0.0120086
0.0102142
0.00881702
0.00770674
0.00680565
0.00989078
0.00851619
0.00749155
0.00669668
0.00606113
0.00555182
0.00512455
)
;

boundaryField
{
    inlet
    {
        type            fixedValue;
        value           nonuniform List<scalar> 0();
    }
    ami1
    {
        type            cyclicAMI;
        value           nonuniform List<scalar> 0();
    }
    walls
    {
        type            kqRWallFunction;
        value           nonuniform List<scalar> 
271
(
0.0232723
0.020461
0.0175362
0.00989078
0.00851618
0.0143635
0.016797
0.0190784
0.0202207
0.0202208
0.0190786
0.0167972
0.0143635
0.00851619
0.00749154
0.0120086
0.0140486
0.0159338
0.0169045
0.0169046
0.0159341
0.0140489
0.0120086
0.00749155
0.00669667
0.0102142
0.011941
0.0135145
0.0143242
0.0143244
0.0135149
0.0119415
0.0102144
0.00669668
0.00606112
0.008817
0.0102839
0.011626
0.0123072
0.0123075
0.0116267
0.0102846
0.00881724
0.00606113
0.00555181
0.00770672
0.0089557
0.0101116
0.0107005
0.010701
0.0101126
0.00895664
0.0077071
0.00555182
0.00512453
0.00680561
0.0078845
0.00888012
0.00939346
0.00939428
0.00888172
0.00788596
0.0068062
0.00512455
0.00851619
0.0143635
0.016797
0.0190784
0.0202207
0.0202208
0.0190786
0.0167972
0.0143635
0.00851618
0.00749154
0.0120086
0.0140486
0.0159338
0.0169045
0.0169046
0.0159341
0.0140489
0.0120086
0.00749154
0.00669668
0.0102142
0.011941
0.0135145
0.0143242
0.0143244
0.0135149
0.0119415
0.0102144
0.00669667
0.00606112
0.00881702
0.010284
0.011626
0.0123072
0.0123075
0.0116267
0.0102846
0.00881722
0.00606112
0.00555184
0.00770674
0.00895572
0.0101116
0.0107005
0.010701
0.0101126
0.00895664
0.00770708
0.00555181
0.00512452
0.00680563
0.00788457
0.00888017
0.00939346
0.00939423
0.00888172
0.00788596
0.00680617
0.00512453
0.00474817
0.00606306
0.00701043
0.00786845
0.00831844
0.00831972
0.00851619
0.0143635
0.0167972
0.0190786
0.0202208
0.0202207
0.0190784
0.0167971
0.0143635
0.00851619
0.00749154
0.0120086
0.0140489
0.0159341
0.0169046
0.0169045
0.0159338
0.0140486
0.0120086
0.00749154
0.00669668
0.0102144
0.0119415
0.0135149
0.0143244
0.0143242
0.0135145
0.0119411
0.0102142
0.00669668
0.00606112
0.00881724
0.0102846
0.0116267
0.0123075
0.0123072
0.011626
0.010284
0.00881703
0.00606113
0.00555184
0.00770709
0.00895665
0.0101126
0.010701
0.0107005
0.0101116
0.00895574
0.00770675
0.00555184
0.00512452
0.00680621
0.00788593
0.00888166
0.00939422
0.00939345
0.00888017
0.00788458
0.00680565
0.00512453
0.00474817
0.00606432
0.00701257
0.00787087
0.00831967
0.00831843
0.00786846
0.00701045
0.00606309
0.00474819
0.0246448
0.0232721
0.0204608
0.0175362
0.00989078
0.00851619
0.0143635
0.0167972
0.0190786
0.0202208
0.0202207
0.0190784
0.0167971
0.0143635
0.00851619
0.00749154
0.0120086
0.0140489
0.0159341
0.0169046
0.0169045
0.0159338
0.0140486
0.0120086
0.00749155
0.00669668
0.0102144
0.0119415
0.0135149
0.0143244
0.0143242
0.0135145
0.0119411
0.0102142
0.00669668
0.00606113
0.00881725
0.0102846
0.0116267
0.0123075
0.0123072
0.011626
0.010284
0.00881702
0.00606113
0.00555184
0.00770712
0.00895667
0.0101126
0.010701
0.0107005
0.0101116
0.00895573
0.00770674
0.00555182
0.00512453
0.00680624
0.00788596
0.00888167
0.00939421
0.00939344
0.00888013
0.00788454
0.00680565
0.00512455
0.00474819
0.00606437
0.0070126
0.00787088
0.00831966
0.0083184
)
;
    }
    ami2
    {
        type            cyclicAMI;
        value           nonuniform List<scalar> 0();
    }
    outlet
    {
        type            zeroGradient;
    }
    procBoundary3to2
    {
        type            processor;
        value           nonuniform List<scalar> 
110
(
0.00443058
0.00545264
0.00628717
0.00702896
0.00742499
0.00742703
0.00787098
0.00787098
0.00701264
0.00606435
0.00474813
0.00545455
0.0102706
0.0126152
0.0142367
0.0150828
0.0150857
0.0162454
0.0162454
0.0143881
0.0117004
0.00606298
0.0062907
0.0126193
0.0165882
0.0191811
0.0205054
0.0205068
0.0219038
0.0219038
0.0189406
0.0143852
0.00701033
0.00703293
0.0142422
0.0191834
0.0224677
0.024135
0.0241353
0.0256406
0.0256406
0.0219021
0.0162415
0.00786835
0.00742701
0.0150856
0.0205068
0.0241353
0.0259746
0.0259746
0.0275247
0.0275247
0.0234078
0.0172081
0.00831842
0.00742498
0.0150828
0.0205054
0.024135
0.0259746
0.0259746
0.027525
0.027525
0.0234088
0.0172101
0.00831975
0.00702897
0.0142367
0.0191811
0.0224677
0.0241353
0.024135
0.0256406
0.0256406
0.0219038
0.0162454
0.00787098
0.00628719
0.0126153
0.0165883
0.0191835
0.0205068
0.0205054
0.0219022
0.0219022
0.0189407
0.0143881
0.00701265
0.00545267
0.0102706
0.0126193
0.0142423
0.0150857
0.0150828
0.0162416
0.0162416
0.0143853
0.0117004
0.00606437
0.0044306
0.0054546
0.00629074
0.00703295
0.00742701
0.00742496
0.00786836
0.00786836
0.00701036
0.00606303
0.00474816
)
;
    }
    procBoundary3to4
    {
        type            processor;
        value           nonuniform List<scalar> 
109
(
0.00989078
0.0175362
0.0204608
0.0232722
0.0246448
0.0246449
0.0232723
0.0204609
0.0175362
0.00989078
0.0175362
0.0397946
0.0486773
0.0545303
0.0574403
0.0574404
0.0545306
0.0486775
0.0397946
0.0175362
0.0204609
0.0486775
0.0635106
0.0718632
0.0756572
0.0756572
0.0718633
0.0635106
0.0486773
0.0204608
0.0232723
0.0545306
0.0718633
0.0812742
0.08532
0.08532
0.0812742
0.0718632
0.0545303
0.0232722
0.0246449
0.0574405
0.0756572
0.0853201
0.0893701
0.0893701
0.08532
0.0756571
0.0574403
0.0246448
0.0246448
0.0574403
0.0756572
0.08532
0.0893701
0.0893701
0.0893701
0.08532
0.08532
0.0756572
0.0756572
0.0574405
0.0574405
0.0246449
0.0246449
0.0232722
0.0545303
0.0718632
0.0812742
0.0853201
0.0853201
0.103871
0.09968
0.0894039
0.0689928
0.0292874
0.0204609
0.0486773
0.0635106
0.0718633
0.0756572
0.0756572
0.0935706
0.0894038
0.079867
0.0618727
0.0256617
0.0175362
0.0397946
0.0486775
0.0545306
0.0574404
0.0574404
0.0724823
0.0689926
0.0618726
0.0508112
0.0219936
0.00989078
0.0175362
0.020461
0.0232723
0.0246449
0.0246449
0.0310721
0.0292873
0.0256617
0.0219936
0.0118511
)
;
    }
}


// ************************************************************************* //
