/*--------------------------------*- C++ -*----------------------------------*\
| =========                 |                                                 |
| \\      /  F ield         | OpenFOAM: The Open Source CFD Toolbox           |
|  \\    /   O peration     | Version:  2212                                  |
|   \\  /    A nd           | Website:  www.openfoam.com                      |
|    \\/     M anipulation  |                                                 |
\*---------------------------------------------------------------------------*/
FoamFile
{
    version     2.0;
    format      ascii;
    arch        "LSB;label=32;scalar=64";
    class       volScalarField;
    location    "2.7";
    object      k;
}
// * * * * * * * * * * * * * * * * * * * * * * * * * * * * * * * * * * * * * //

dimensions      [0 2 -2 0 0 0 0];

internalField   nonuniform List<scalar> 
678
(
0.00183662
0.00181667
0.0017977
0.00177918
0.00176088
0.0015743
0.00155599
0.00153805
0.00152067
0.00150394
0.00154835
0.0015272
0.00150691
0.00148751
0.00146887
0.00150343
0.00148015
0.00145752
0.00143648
0.00141621
0.00139766
0.00147956
0.00145574
0.00143256
0.00141124
0.00139041
0.00137121
0.00145595
0.00143309
0.00141146
0.00139056
0.00136795
0.00135003
0.00133053
0.0014331
0.00141104
0.00139016
0.00136982
0.00134918
0.00133169
0.00131497
0.00141544
0.00139493
0.00137637
0.00135821
0.00134037
0.00132326
0.00130673
0.00142036
0.00140229
0.00138503
0.00136829
0.00135201
0.00133636
0.00132122
0.00148514
0.0014684
0.00145204
0.00143623
0.00142079
0.00140554
0.00183926
0.0018192
0.00180022
0.00178159
0.00176324
0.00174539
0.00148262
0.00146597
0.00144968
0.00143383
0.00141856
0.00140382
0.000955492
0.000934765
0.000914106
0.000893569
0.000873618
0.00118499
0.00115132
0.0011179
0.00108767
0.00105637
0.00102831
0.00133075
0.00128925
0.0012497
0.00121394
0.00117771
0.0011459
0.00139977
0.001356
0.0013141
0.00127604
0.00123739
0.00120228
0.00142718
0.00138396
0.00134412
0.00130419
0.00126191
0.00122238
0.00139419
0.00134969
0.00130678
0.0012649
0.00122427
0.00118644
0.00127495
0.00123414
0.00119337
0.00115381
0.00111442
0.00108075
0.00104621
0.00108008
0.00104935
0.00101855
0.000988526
0.000957997
0.000931775
0.000905372
0.000960032
0.000938919
0.000918006
0.00089739
0.000877258
0.00085826
0.00083967
0.00157627
0.00155791
0.00153994
0.00152257
0.00150576
0.00148943
0.00141783
0.00139983
0.00138265
0.00136597
0.00134976
0.00133418
0.00131936
0.00107413
0.00104362
0.00101323
0.000983624
0.000953107
0.000926464
0.0013399
0.00129222
0.00124619
0.00120349
0.00116022
0.00112237
0.00154526
0.00148705
0.00143195
0.00137983
0.00132857
0.00128253
0.0016689
0.00160514
0.00154465
0.00148731
0.00143197
0.0013807
0.0017182
0.00165282
0.00159067
0.00153147
0.00147428
0.00142061
0.00168491
0.00162028
0.00155881
0.0015001
0.00144358
0.0013901
0.00155126
0.00149255
0.00143569
0.00138195
0.00132894
0.00128108
0.00134325
0.00129562
0.00124929
0.00120653
0.00116325
0.00112535
0.00118851
0.00115455
0.00112123
0.00109073
0.00105963
0.0010324
0.00100417
0.00154988
0.00152875
0.00150848
0.00148906
0.00147043
0.00145276
0.00141324
0.00139272
0.00137426
0.00135608
0.00133833
0.00132126
0.00130483
0.00127109
0.00122839
0.00118754
0.00114823
0.00110937
0.00107519
0.0010406
0.00154905
0.00148983
0.00143335
0.00137948
0.00132669
0.00127861
0.0017839
0.00171407
0.00164771
0.00158438
0.00152386
0.0014665
0.00193101
0.00185514
0.00178312
0.00171445
0.00164908
0.00158681
0.0019845
0.00190659
0.00183267
0.00176208
0.00169531
0.001631
0.00193785
0.0018618
0.0017896
0.00172058
0.00165581
0.00178543
0.00171559
0.00164931
0.00158595
0.00152578
0.00146787
0.0015477
0.00148944
0.00143457
0.00138246
0.00133182
0.00128511
0.00133337
0.00129217
0.00125331
0.00121731
0.00118153
0.00114911
0.00150476
0.00148174
0.00145923
0.00143827
0.00141792
0.00139934
0.00143147
0.00140931
0.00138887
0.00136709
0.0013483
0.00132989
0.00139191
0.00134621
0.00130297
0.00126102
0.00122108
0.00118215
0.00168393
0.00161912
0.00155755
0.00149867
0.00144296
0.00193754
0.0018615
0.00178919
0.00172041
0.00165521
0.00210099
0.0020179
0.00193914
0.00186436
0.00179356
0.00215852
0.002073
0.00199206
0.00191511
0.00184277
0.0021013
0.00201823
0.00193952
0.00186457
0.00179423
0.00193235
0.00185651
0.00178456
0.00171585
0.00165144
0.00167118
0.00160752
0.00154736
0.00148976
0.00143611
0.00140208
0.0013588
0.00131812
0.00127925
0.00124157
0.00148065
0.0014572
0.00143417
0.00141271
0.00139213
0.00137254
0.00145504
0.00143217
0.00141058
0.00138943
0.00136718
0.00134891
0.00142674
0.00138324
0.00134334
0.00130276
0.00126045
0.00121937
0.00171842
0.0016529
0.00159048
0.00153191
0.00198515
0.00190719
0.00183301
0.00176347
0.00215889
0.00207331
0.00199224
0.00191612
0.00221969
0.00213156
0.00204816
0.00196914
0.0018946
0.00215897
0.00207347
0.00199252
0.00191556
0.00184333
0.00198576
0.00190789
0.00183399
0.00176348
0.00169737
0.00172027
0.001655
0.00159308
0.00153379
0.00147807
0.00142939
0.00138637
0.00134671
0.0013073
0.00126573
0.00145689
0.00143411
0.00141271
0.00139187
0.00136956
0.00150387
0.00147923
0.0014554
0.001433
0.00141052
0.00139041
0.00144804
0.00140071
0.00135667
0.00131562
0.00127559
0.00123855
0.00173723
0.0016699
0.00160613
0.00154567
0.0014879
0.00143368
0.00201226
0.00193205
0.00185621
0.00178415
0.00171577
0.00165075
0.00218968
0.00210158
0.00201843
0.00193963
0.00186493
0.00179424
0.00215896
0.00207336
0.00199235
0.00191542
0.00184322
0.00210159
0.00201851
0.0019398
0.00186489
0.00179463
0.00193877
0.00186278
0.00179065
0.00172176
0.00165722
0.00168657
0.00162211
0.00156094
0.00150216
0.00144713
0.00139593
0.00135194
0.00130934
0.00126806
0.0012275
0.00143388
0.00141186
0.00139137
0.00137082
0.00135051
0.0015275
0.00150361
0.00148043
0.00145824
0.00143645
0.00141683
0.00137592
0.00133121
0.00129081
0.00125117
0.00121434
0.00117969
0.00160877
0.00154662
0.00148866
0.00143386
0.00138041
0.00133209
0.0018591
0.0017854
0.0017156
0.00164939
0.00158595
0.00152679
0.00201857
0.00193821
0.00186218
0.00179004
0.00172126
0.00165682
0.00198515
0.00190722
0.00183335
0.00176295
0.001697
0.00193208
0.00185628
0.0017844
0.00171581
0.00165161
0.00178582
0.00171611
0.00165001
0.00158663
0.00152753
0.0015526
0.00149405
0.00143747
0.00138353
0.00133302
0.0012768
0.00123604
0.0011956
0.00115677
0.00111715
0.00141611
0.00139566
0.00137717
0.00135917
0.00134157
0.00157104
0.00154916
0.00152802
0.00150769
0.00148814
0.00146958
0.00122643
0.00118871
0.00115367
0.00112085
0.00108862
0.0010583
0.00139591
0.0013436
0.00129483
0.00124969
0.00120462
0.00116467
0.00161451
0.00155133
0.00149166
0.00143557
0.00138057
0.00133096
0.00175291
0.00168482
0.00162018
0.0015588
0.00149994
0.00144509
0.00171857
0.00165321
0.00159128
0.00153204
0.00147651
0.00167015
0.00160654
0.00154645
0.00148895
0.00143551
0.0015473
0.00148927
0.00143461
0.0013823
0.00133377
0.00134405
0.00129652
0.00125065
0.00120742
0.00116644
0.00108128
0.00105059
0.00102003
0.000990307
0.000959646
0.00142089
0.00140285
0.00138566
0.00136908
0.00135296
0.00159443
0.00157563
0.00155713
0.00153914
0.00152162
0.00150484
0.000982354
0.000959692
0.00093762
0.00091591
0.000894897
0.000874992
0.00111628
0.00108062
0.00104707
0.00101557
0.000984126
0.000955427
0.00131999
0.00127321
0.00123029
0.00118897
0.00114912
0.00111226
0.00144186
0.00139312
0.00134732
0.00130373
0.00126218
0.00122223
0.0014265
0.00138353
0.00134348
0.00130392
0.00126237
0.00140044
0.00135701
0.00131617
0.00127741
0.00123979
0.00133256
0.00129133
0.00125268
0.00121659
0.00118169
0.00118868
0.00115425
0.00112232
0.00109078
0.00106007
0.000960314
0.000939161
0.000918516
0.000897813
0.000878104
0.00148555
0.00146883
0.00145257
0.00143683
0.00142165
0.00185847
0.00183799
0.00181844
0.0017991
0.00178045
0.00176189
0.00150149
0.00148416
0.00146728
0.0014509
0.00143507
0.00141963
0.00143817
0.00141898
0.00140078
0.00138343
0.00143654
0.00141374
0.00139313
0.00137457
0.00135675
0.0014553
0.00143167
0.00140956
0.00138877
0.00136832
0.00145525
0.00143236
0.00141102
0.00138943
0.00136913
0.00147939
0.00145625
0.0014328
0.00141179
0.00139118
0.00150395
0.00148116
0.00145868
0.00143784
0.00141757
0.00154964
0.00152861
0.00150841
0.00148907
0.00147059
0.00157627
0.001558
0.00154014
0.00152284
0.00150627
0.0018396
0.00181969
0.00180077
0.0017825
0.00176429
)
;

boundaryField
{
    inlet
    {
        type            fixedValue;
        value           nonuniform List<scalar> 0();
    }
    ami1
    {
        type            cyclicAMI;
        value           nonuniform List<scalar> 0();
    }
    walls
    {
        type            kqRWallFunction;
        value           nonuniform List<scalar> 
250
(
0.00183662
0.0015743
0.00154835
0.00150343
0.00147956
0.00145595
0.0014331
0.00141544
0.00142036
0.00148514
0.00183926
0.00181667
0.00155599
0.0015272
0.00148015
0.00145574
0.00143309
0.00141104
0.00139493
0.00140229
0.0014684
0.0018192
0.0017977
0.00153805
0.00150691
0.00145752
0.00143256
0.00141146
0.00139016
0.00137637
0.00138503
0.00145204
0.00180022
0.00177918
0.00152067
0.00148751
0.00143648
0.00141124
0.00139056
0.00136982
0.00135821
0.00136829
0.00143623
0.00178159
0.00176088
0.00150394
0.00146887
0.00141621
0.00139041
0.00136795
0.00134918
0.00134037
0.00135201
0.00142079
0.00176324
0.00139766
0.00137121
0.00135003
0.00133169
0.00132326
0.00133636
0.00140554
0.00174539
0.00133053
0.00131497
0.00130673
0.00132122
0.00183926
0.00157627
0.00154988
0.00150476
0.00148065
0.00145689
0.00143388
0.00141611
0.00142089
0.00148555
0.0018396
0.0018192
0.00155791
0.00152875
0.00148174
0.0014572
0.00143411
0.00141186
0.00139566
0.00140285
0.00146883
0.00181969
0.00180022
0.00153994
0.00150848
0.00145923
0.00143417
0.00141271
0.00139137
0.00137717
0.00138566
0.00145257
0.00180077
0.00178159
0.00152257
0.00148906
0.00143827
0.00141271
0.00139187
0.00137082
0.00135917
0.00136908
0.00143683
0.0017825
0.00176324
0.00150576
0.00147043
0.00141792
0.00139213
0.00136956
0.00135051
0.00134157
0.00135296
0.00142165
0.00176429
0.00174539
0.00148943
0.00145276
0.00139934
0.00137254
0.00185847
0.00150149
0.00143817
0.00143654
0.0014553
0.00183799
0.00148416
0.00141898
0.00141374
0.00143167
0.00145525
0.00147939
0.00150395
0.00154964
0.00157627
0.0018396
0.00181844
0.00146728
0.00140078
0.00139313
0.00140956
0.00143236
0.00145625
0.00148116
0.00152861
0.001558
0.00181969
0.0017991
0.0014509
0.00138343
0.00137457
0.00138877
0.00141102
0.0014328
0.00145868
0.00150841
0.00154014
0.00180077
0.00178045
0.00143507
0.00135675
0.00136832
0.00138943
0.00141179
0.00143784
0.00148907
0.00152284
0.0017825
0.00176189
0.00141963
0.00136913
0.00139118
0.00141757
0.00147059
0.00150627
0.00176429
0.00150387
0.0015275
0.00157104
0.00159443
0.00185847
0.00183662
0.00148262
0.00141783
0.00141324
0.00143147
0.00145504
0.00147923
0.00150361
0.00154916
0.00157563
0.00183799
0.00181667
0.00146597
0.00139983
0.00139272
0.00140931
0.00143217
0.0014554
0.00148043
0.00152802
0.00155713
0.00181844
0.0017977
0.00144968
0.00138265
0.00137426
0.00138887
0.00141058
0.001433
0.00145824
0.00150769
0.00153914
0.0017991
0.00177918
0.00143383
0.00136597
0.00135608
0.00136709
0.00138943
0.00141052
0.00143645
0.00148814
0.00152162
0.00178045
0.00176088
0.00141856
0.00134976
0.00133833
0.0013483
0.00136718
0.00139041
0.00141683
0.00146958
0.00150484
0.00176189
0.00140382
0.00133418
0.00132126
0.00132989
0.00134891
0.00131936
0.00130483
)
;
    }
    ami2
    {
        type            cyclicAMI;
        value           nonuniform List<scalar> 0();
    }
    outlet
    {
        type            zeroGradient;
    }
    procBoundary5to6
    {
        type            processor;
        value           nonuniform List<scalar> 
177
(
0.0017437
0.0017437
0.00148774
0.0014512
0.0014512
0.0014512
0.0013795
0.00135234
0.00135234
0.00131425
0.00118308
0.00129904
0.00114966
0.00129087
0.00130641
0.00139088
0.00139088
0.00139088
0.00172809
0.00138937
0.000854286
0.00138937
0.000854286
0.000854286
0.000854286
0.00100257
0.00111418
0.00116682
0.00118308
0.00114966
0.00114966
0.00101371
0.00123245
0.000878916
0.00108693
0.000821196
0.00147379
0.00147379
0.00130474
0.000901182
0.000901182
0.000901182
0.00108365
0.00123587
0.00132903
0.00136639
0.00133583
0.00159068
0.00123245
0.00108693
0.00108693
0.000978453
0.00143585
0.00111692
0.00143585
0.00128912
0.00131405
0.00100865
0.0012296
0.00114523
0.0012296
0.00138706
0.00140869
0.00158966
0.00152435
0.00172291
0.00156672
0.00159068
0.0017707
0.00159068
0.00159068
0.00140974
0.00158674
0.00123792
0.00138192
0.00111692
0.00120516
0.0013812
0.00131405
0.00114523
0.00138706
0.00138706
0.00147273
0.00158966
0.0016939
0.00172291
0.00184092
0.0017707
0.00172411
0.00158674
0.00138192
0.00120516
0.00120516
0.00135415
0.00135243
0.00132946
0.00137069
0.00147273
0.00118127
0.00141711
0.00120097
0.00147273
0.00147273
0.0016939
0.0016939
0.00184092
0.00184092
0.00184092
0.00182059
0.00177146
0.00163119
0.0014218
0.00122492
0.00135243
0.00137069
0.00120097
0.00137917
0.00158565
0.00172383
0.00177136
0.00172465
0.00159247
0.00139181
0.00119003
0.00133361
0.00139761
0.00114677
0.00128296
0.0014672
0.00159218
0.00163097
0.00158717
0.00146766
0.00128244
0.00108412
0.00132497
0.00145194
0.00103073
0.00112384
0.00128044
0.00139007
0.00142041
0.00138154
0.00128465
0.00112663
0.000933439
0.00133778
0.00148864
0.000855213
0.00136719
0.000927622
0.00135106
0.00107729
0.00133958
0.00118441
0.00134783
0.00122173
0.00120363
0.00114908
0.00103329
0.000859142
0.0014071
0.00174499
0.00136719
0.00140478
0.00135106
0.00136719
0.00136719
0.00133958
0.00134783
0.00134783
0.00134826
0.0013716
0.00139918
0.00145311
0.00149029
0.00174742
)
;
    }
    procBoundary5to7
    {
        type            processor;
        value           nonuniform List<scalar> 
131
(
0.00185612
0.00159309
0.00157002
0.0015269
0.00150381
0.0014797
0.00145615
0.00143818
0.0014394
0.00150228
0.0018588
0.00149967
0.000981132
0.00122361
0.00137367
0.00144663
0.00147231
0.00144343
0.00132272
0.00111849
0.000985552
0.00159507
0.00143678
0.00111316
0.00139299
0.00160708
0.001737
0.00178714
0.0017533
0.00161517
0.00139626
0.00122708
0.00157154
0.00143566
0.00131791
0.00161281
0.00185793
0.00201151
0.00206715
0.00201836
0.00185937
0.00160949
0.00137624
0.00152817
0.00145426
0.00144066
0.00175226
0.00201802
0.0021894
0.00224958
0.00218969
0.00201277
0.00173917
0.0014499
0.0015049
0.00147861
0.00147861
0.00147143
0.00147143
0.00178739
0.00178739
0.00206775
0.00206775
0.00224995
0.00224995
0.00231358
0.00225002
0.00206835
0.00178907
0.00147431
0.00148055
0.00152972
0.0014973
0.00180852
0.0020975
0.00228356
0.00225005
0.00225005
0.00218999
0.00201927
0.00175487
0.00144507
0.00145683
0.0015522
0.00142062
0.00167396
0.00193732
0.00210394
0.00206786
0.00206786
0.00201251
0.00185978
0.00161653
0.00132435
0.00143885
0.00159344
0.00126477
0.00144996
0.00168132
0.00182422
0.00178757
0.00178757
0.00173805
0.0016092
0.00139709
0.00111966
0.00143995
0.00161355
0.00100908
0.00115391
0.00136843
0.00149252
0.00147188
0.00147188
0.00144825
0.00137526
0.00122697
0.000985826
0.00150268
0.00187841
0.00151912
0.00145825
0.00146094
0.00147957
0.001479
0.001479
0.00150355
0.00152731
0.00157123
0.00159504
0.00185914
)
;
    }
}


// ************************************************************************* //
