/*--------------------------------*- C++ -*----------------------------------*\
| =========                 |                                                 |
| \\      /  F ield         | OpenFOAM: The Open Source CFD Toolbox           |
|  \\    /   O peration     | Version:  2212                                  |
|   \\  /    A nd           | Website:  www.openfoam.com                      |
|    \\/     M anipulation  |                                                 |
\*---------------------------------------------------------------------------*/
FoamFile
{
    version     2.0;
    format      ascii;
    arch        "LSB;label=32;scalar=64";
    class       volScalarField;
    location    "2";
    object      p;
}
// * * * * * * * * * * * * * * * * * * * * * * * * * * * * * * * * * * * * * //

dimensions      [0 2 -2 0 0 0 0];

internalField   nonuniform List<scalar> 
680
(
0.0071147
0.0069535
0.00679397
0.00663618
0.00647988
0.00632391
0.00616705
0.00716306
0.00698878
0.00682168
0.00665925
0.00649986
0.00634217
0.00618579
0.00715382
0.00697569
0.00680766
0.00664502
0.0064857
0.00632953
0.00617678
0.00711803
0.00695053
0.00679363
0.00663884
0.00648496
0.00633312
0.00618463
0.0070994
0.00692874
0.0067722
0.00662258
0.00647315
0.00632332
0.00617528
0.007099
0.00692808
0.0067711
0.00662078
0.00647016
0.00631838
0.00616716
0.00711708
0.00694893
0.00679099
0.00663449
0.00647787
0.0063216
0.00715286
0.00697411
0.00680503
0.00664063
0.00647852
0.00631789
0.00716257
0.00698795
0.00682028
0.00665697
0.00649611
0.00633581
0.0071147
0.0069535
0.00679398
0.00663618
0.00647989
0.00632393
0.00716256
0.00698794
0.00682027
0.00665695
0.00649609
0.00633579
0.00617477
0.0072934
0.0070888
0.00690038
0.00672258
0.00655159
0.00638432
0.00621888
0.00728996
0.00707766
0.00688353
0.0067008
0.00652632
0.0063583
0.00619528
0.00725539
0.00705273
0.00686691
0.00669125
0.0065226
0.00635947
0.00620141
0.00723291
0.00703238
0.00684552
0.00666994
0.00650242
0.00634157
0.00618628
0.00723236
0.00703156
0.00684418
0.00666766
0.00649862
0.00633551
0.00617683
0.00725443
0.00705112
0.00686405
0.0066862
0.00651439
0.0063472
0.0072892
0.00707634
0.00688136
0.0066974
0.00652103
0.00635001
0.0072934
0.0070888
0.00690038
0.00672258
0.0065516
0.00638433
0.00716305
0.00698877
0.00682167
0.00665925
0.00649986
0.00634217
0.00715285
0.0069741
0.00680502
0.00664061
0.0064785
0.00631787
0.0061578
0.0072892
0.00707634
0.00688135
0.00669739
0.00652103
0.00635
0.00618209
0.00726758
0.00704973
0.0068495
0.00666191
0.00648381
0.00631257
0.00614613
0.00721134
0.00701045
0.00681842
0.0066365
0.00646285
0.00629555
0.00613346
0.00717015
0.00698416
0.006801
0.00662225
0.00644898
0.00628162
0.00611984
0.00716973
0.00698354
0.00680004
0.00662079
0.00644679
0.00627843
0.00611507
0.00721076
0.00700957
0.00681701
0.00663419
0.00645925
0.00629018
0.00726758
0.00704973
0.0068495
0.00666191
0.00648381
0.00631258
0.00728996
0.00707766
0.00688352
0.0067008
0.00652632
0.0063583
0.00715381
0.00697568
0.00680766
0.00664501
0.00648569
0.00632952
0.00711707
0.00694892
0.00679098
0.00663448
0.00647786
0.00632158
0.00616585
0.00725442
0.00705112
0.00686404
0.00668619
0.00651437
0.00634719
0.00618315
0.00721076
0.00700956
0.006817
0.00663418
0.00645925
0.00629017
0.00612545
0.00713393
0.00694995
0.00676959
0.00659446
0.00642441
0.00625881
0.00609705
0.00709296
0.00691881
0.00674525
0.00657413
0.00640632
0.00624217
0.0060816
0.0070928
0.00691859
0.00674494
0.00657369
0.0064057
0.00624125
0.00608019
0.00713393
0.00694995
0.00676959
0.00659446
0.00642441
0.00625881
0.00721134
0.00701045
0.00681842
0.0066365
0.00646285
0.00629555
0.00725538
0.00705272
0.0068669
0.00669124
0.00652259
0.00635946
0.00711802
0.00695052
0.00679362
0.00663882
0.00648494
0.0063331
0.00709899
0.00692807
0.00677109
0.00662076
0.00647015
0.00631837
0.00616714
0.00723235
0.00703155
0.00684417
0.00666765
0.0064986
0.0063355
0.00617681
0.00716972
0.00698353
0.00680003
0.00662078
0.00644677
0.00627842
0.00611506
0.0070928
0.00691858
0.00674493
0.00657368
0.00640569
0.00624124
0.00608018
0.00705384
0.00688728
0.00671888
0.00655098
0.00638502
0.00622172
0.00606134
0.00705384
0.00688728
0.00671888
0.00655099
0.00638502
0.00622172
0.00606134
0.00709296
0.00691881
0.00674525
0.00657412
0.00640632
0.00624216
0.00717014
0.00698415
0.00680099
0.00662225
0.00644898
0.00628161
0.0072329
0.00703237
0.00684551
0.00666993
0.00650241
0.00634156
0.00709939
0.00692873
0.00677219
0.00662257
0.00647313
0.00632331
0.00709939
0.00692873
0.00677219
0.00662257
0.00647314
0.00632331
0.00617526
0.0072329
0.00703236
0.00684551
0.00666993
0.00650241
0.00634156
0.00618626
0.00717014
0.00698415
0.00680098
0.00662224
0.00644897
0.0062816
0.00611983
0.00709296
0.00691881
0.00674524
0.00657412
0.00640632
0.00624215
0.00608159
0.00705384
0.00688728
0.00671887
0.00655098
0.00638502
0.00622171
0.00606133
0.00705384
0.00688728
0.00671887
0.00655098
0.00638502
0.00622172
0.00606133
0.0070928
0.00691858
0.00674493
0.00657368
0.00640569
0.00624125
0.00716972
0.00698353
0.00680003
0.00662078
0.00644678
0.00627842
0.00723235
0.00703155
0.00684417
0.00666765
0.0064986
0.0063355
0.00709899
0.00692806
0.00677109
0.00662076
0.00647015
0.00631836
0.00711802
0.00695052
0.00679362
0.00663882
0.00648494
0.0063331
0.00618462
0.00725538
0.00705271
0.00686689
0.00669124
0.00652258
0.00635945
0.0062014
0.00721133
0.00701044
0.00681841
0.00663649
0.00646284
0.00629553
0.00613344
0.00713392
0.00694994
0.00676958
0.00659445
0.0064244
0.0062588
0.00609703
0.00709279
0.00691858
0.00674493
0.00657367
0.00640569
0.00624124
0.00608018
0.00726438
0.00709295
0.0069188
0.00674524
0.00657412
0.00640632
0.00624216
0.00608159
0.0073184
0.00713392
0.00694995
0.00676958
0.00659445
0.0064244
0.00625881
0.0074177
0.00721076
0.00700956
0.006817
0.00663418
0.00645925
0.00629017
0.00748093
0.00725442
0.00705111
0.00686404
0.00668619
0.00651437
0.00634719
0.00730606
0.00711707
0.00694892
0.00679098
0.00663448
0.00647785
0.00632158
0.00715381
0.00697567
0.00680765
0.00664501
0.00648569
0.00632952
0.00617676
0.00728995
0.00707765
0.00688351
0.00670079
0.00652631
0.00635829
0.00619526
0.00726757
0.00704971
0.00684948
0.00666189
0.00648379
0.00631256
0.00614611
0.00721075
0.00700955
0.00681699
0.00663417
0.00645924
0.00629016
0.00612544
0.00716971
0.00698352
0.00680002
0.00662077
0.00644677
0.00627841
0.00611505
0.00735807
0.00717014
0.00698414
0.00680098
0.00662224
0.00644897
0.0062816
0.00611983
0.00741809
0.00721133
0.00701044
0.00681841
0.00663649
0.00646284
0.00629554
0.00750917
0.00726758
0.00704972
0.00684949
0.0066619
0.0064838
0.00631257
0.0075298
0.00728919
0.00707633
0.00688135
0.00669739
0.00652102
0.00635
0.00734597
0.00715285
0.00697409
0.00680502
0.00664061
0.00647851
0.00631787
0.00716304
0.00698876
0.00682166
0.00665924
0.00649985
0.00634216
0.00618578
0.00729339
0.00708879
0.00690036
0.00672257
0.00655158
0.00638431
0.00621887
0.00728918
0.00707632
0.00688134
0.00669738
0.00652101
0.00634999
0.00618208
0.00725441
0.0070511
0.00686403
0.00668618
0.00651436
0.00634717
0.00618314
0.00723234
0.00703154
0.00684415
0.00666764
0.00649859
0.00633548
0.0061768
0.00744589
0.00723289
0.00703236
0.0068455
0.00666992
0.0065024
0.00634155
0.00618625
0.00748153
0.00725538
0.00705271
0.00686689
0.00669123
0.00652258
0.00635945
0.00753023
0.00728995
0.00707765
0.00688352
0.00670079
0.00652631
0.00635829
0.00752107
0.0072934
0.00708879
0.00690037
0.00672257
0.00655159
0.00638432
0.00734891
0.00716256
0.00698794
0.00682026
0.00665695
0.00649609
0.0063358
0.00711469
0.00695348
0.00679396
0.00663616
0.00647987
0.0063239
0.00616705
0.00716255
0.00698793
0.00682025
0.00665694
0.00649608
0.00633578
0.00617476
0.00715284
0.00697408
0.006805
0.0066406
0.00647849
0.00631786
0.00615779
0.00711706
0.00694891
0.00679097
0.00663447
0.00647784
0.00632157
0.00616584
0.00709898
0.00692805
0.00677108
0.00662075
0.00647014
0.00631835
0.00616713
0.00728997
0.00709938
0.00692872
0.00677218
0.00662256
0.00647312
0.0063233
0.00617525
0.00730661
0.00711801
0.00695051
0.00679361
0.00663882
0.00648494
0.00633309
0.00734655
0.00715381
0.00697567
0.00680765
0.00664501
0.00648569
0.00632952
0.00734919
0.00716305
0.00698877
0.00682167
0.00665924
0.00649985
0.00634217
0.00728115
0.00711469
0.00695349
0.00679397
0.00663617
0.00647988
0.00632391
)
;

boundaryField
{
    inlet
    {
        type            zeroGradient;
    }
    ami1
    {
        type            cyclicAMI;
        value           nonuniform List<scalar> 0();
    }
    walls
    {
        type            zeroGradient;
    }
    ami2
    {
        type            cyclicAMI;
        value           nonuniform List<scalar> 0();
    }
    outlet
    {
        type            fixedValue;
        value           nonuniform List<scalar> 0();
    }
    procBoundary3to2
    {
        type            processor;
        value           nonuniform List<scalar> 
110
(
0.00600881
0.00603111
0.00602778
0.00604121
0.00603122
0.00601792
0.00616588
0.00616588
0.00615783
0.00617479
0.00616706
0.00601229
0.00605426
0.00603615
0.00604897
0.00603555
0.00602119
0.00618317
0.00618317
0.00618211
0.00621888
0.00618578
0.00599667
0.0060153
0.00598312
0.00597591
0.00596348
0.0059562
0.00612546
0.00612546
0.00614613
0.00619527
0.00617676
0.00601026
0.00602078
0.00596398
0.0059385
0.00592438
0.00592219
0.00609705
0.00609705
0.00613346
0.00620141
0.00618461
0.0060179
0.00602117
0.00595619
0.00592218
0.00590382
0.00590382
0.0060816
0.0060816
0.00611984
0.00618626
0.00617526
0.00603121
0.00603554
0.00596346
0.00592437
0.00590382
0.00590382
0.00608018
0.00608018
0.00611506
0.00617681
0.00616714
0.00604119
0.00604895
0.00597588
0.00593848
0.00592218
0.00592437
0.00609704
0.00609704
0.00612545
0.00618316
0.00616585
0.00602776
0.00603613
0.0059831
0.00596396
0.00595618
0.00596346
0.00613345
0.00613345
0.00614612
0.00618209
0.0061578
0.0060311
0.00605425
0.00601529
0.00602076
0.00602115
0.00603552
0.00620139
0.00620139
0.00619527
0.00621887
0.00617477
0.00600881
0.00601229
0.00599666
0.00601025
0.00601788
0.00603119
0.0061846
0.0061846
0.00617675
0.00618577
0.00616705
)
;
    }
    procBoundary3to4
    {
        type            processor;
        value           nonuniform List<scalar> 
109
(
0.00728116
0.0073492
0.00734656
0.00730662
0.00728998
0.00728975
0.00730607
0.00734598
0.00734892
0.00728116
0.00734891
0.00752108
0.00753024
0.00748155
0.00744591
0.00744555
0.00748094
0.0075298
0.00752108
0.00734919
0.00734598
0.0075298
0.00750918
0.0074181
0.00735809
0.00735777
0.00741771
0.00750918
0.00753023
0.00734655
0.00730606
0.00748093
0.0074177
0.0073184
0.00726439
0.00726428
0.0073184
0.00741809
0.00748154
0.00730661
0.00728974
0.00744554
0.00735776
0.00726427
0.00721487
0.00721487
0.00726439
0.00735808
0.0074459
0.00728997
0.00728997
0.0074459
0.00735808
0.00726438
0.00721487
0.00721487
0.00721487
0.00726427
0.00726427
0.00735776
0.00735776
0.00744554
0.00744554
0.00728973
0.00728973
0.00730661
0.00748153
0.00741808
0.00731839
0.00726426
0.00726426
0.00742727
0.00749859
0.00762839
0.00773202
0.00752579
0.00734655
0.00753022
0.00750917
0.00741769
0.00735776
0.00735776
0.00754431
0.00762868
0.00776756
0.00780844
0.00756176
0.00734918
0.00752106
0.00752979
0.00748092
0.00744553
0.00744553
0.00766861
0.00773241
0.00780869
0.00777998
0.00756015
0.00728115
0.0073489
0.00734596
0.00730605
0.00728973
0.00728973
0.00751146
0.0075261
0.0075621
0.00756032
0.0074678
)
;
    }
}


// ************************************************************************* //
