/*--------------------------------*- C++ -*----------------------------------*\
| =========                 |                                                 |
| \\      /  F ield         | OpenFOAM: The Open Source CFD Toolbox           |
|  \\    /   O peration     | Version:  2212                                  |
|   \\  /    A nd           | Website:  www.openfoam.com                      |
|    \\/     M anipulation  |                                                 |
\*---------------------------------------------------------------------------*/
FoamFile
{
    version     2.0;
    format      ascii;
    arch        "LSB;label=32;scalar=64";
    class       surfaceScalarField;
    location    "2";
    object      phi;
}
// * * * * * * * * * * * * * * * * * * * * * * * * * * * * * * * * * * * * * //

dimensions      [0 3 -1 0 0 0 0];

oriented        oriented;

internalField   nonuniform List<scalar> 
1795
(
1.85996e-07
3.87756e-09
3.89322e-09
1.79342e-07
3.31347e-09
3.3405e-09
1.73505e-07
2.8952e-09
2.94142e-09
1.68321e-07
2.55438e-09
2.63011e-09
1.6368e-07
2.2581e-09
2.38289e-09
1.59485e-07
1.99145e-09
2.20368e-09
1.72264e-09
2.0946e-09
4.90914e-07
1.07887e-08
6.85174e-09
4.78676e-07
9.92844e-09
5.62281e-09
4.67568e-07
9.20493e-09
4.79892e-09
4.57345e-07
8.55688e-09
4.22035e-09
4.47852e-07
7.95754e-09
3.79381e-09
4.38957e-07
7.39189e-09
3.49395e-09
6.83641e-09
3.29237e-09
7.98711e-07
1.26741e-08
1.1133e-08
7.86598e-07
1.18848e-08
1.01562e-08
7.7539e-07
1.10379e-08
9.37511e-09
7.6493e-07
1.0226e-08
8.79121e-09
7.55037e-07
9.46865e-09
8.3814e-09
7.45544e-07
8.77543e-09
8.10925e-09
8.13606e-09
7.94638e-09
1.02276e-06
7.57808e-09
1.21255e-08
1.01587e-06
7.40941e-09
1.13629e-08
1.00904e-06
7.15116e-09
1.07218e-08
1.00226e-06
6.75324e-09
1.02493e-08
9.95479e-07
6.32339e-09
9.92529e-09
9.88578e-07
5.94373e-09
9.73254e-09
5.64872e-09
9.67883e-09
1.13397e-06
2.51851e-11
1.13152e-08
1.13067e-06
4.27415e-11
1.06615e-08
1.12754e-06
7.17192e-11
1.02084e-08
1.12425e-06
1.19451e-10
9.92467e-09
1.12064e-06
1.98002e-10
9.73883e-09
1.11659e-06
3.28121e-10
9.65908e-09
5.43367e-10
9.71142e-09
1.13402e-06
-7.53994e-09
1.13052e-08
1.13076e-06
-7.34331e-09
1.06442e-08
1.12769e-06
-7.0411e-09
1.01791e-08
1.12451e-06
-6.57301e-09
9.87657e-09
1.12108e-06
-6.02946e-09
9.65803e-09
1.11735e-06
-5.45934e-09
9.51999e-09
9.47338e-09
1.02287e-06
-1.26673e-08
1.21078e-08
1.01607e-06
-1.18727e-08
1.13333e-08
1.00938e-06
-1.10177e-08
1.0671e-08
1.00284e-06
-1.01935e-08
1.01616e-08
9.96448e-07
-9.4149e-09
9.7726e-09
-8.68045e-09
9.47043e-09
7.98805e-07
-1.08052e-08
1.11164e-08
7.8676e-07
-9.95618e-09
1.01293e-08
7.75663e-07
-9.25223e-09
9.33079e-09
7.65391e-07
-8.63757e-09
8.71673e-09
7.55812e-07
-8.08824e-09
8.25226e-09
-7.59578e-09
7.88568e-09
4.90942e-07
-3.8931e-09
6.83847e-09
4.78725e-07
-3.34035e-09
5.60057e-09
4.67653e-07
-2.94124e-09
4.76078e-09
4.57499e-07
-2.62992e-09
4.14709e-09
4.48126e-07
-2.38268e-09
3.6673e-09
-2.2034e-09
3.2996e-09
1.85996e-07
3.87769e-09
1.79342e-07
3.31363e-09
1.73505e-07
2.89539e-09
1.68321e-07
2.5546e-09
1.6368e-07
2.25834e-09
1.9917e-09
4.90942e-07
6.83842e-09
1.08053e-08
4.78725e-07
5.60051e-09
9.95633e-09
4.67654e-07
4.76071e-09
9.25239e-09
4.57499e-07
4.147e-09
8.63774e-09
4.48126e-07
3.66723e-09
8.08838e-09
4.39434e-07
3.29968e-09
7.5959e-09
3.01702e-09
7.15497e-09
8.54734e-07
1.21794e-08
1.21999e-08
8.45276e-07
1.03229e-08
1.03586e-08
8.36902e-07
8.93608e-09
8.99787e-09
8.29424e-07
7.87009e-09
7.97501e-09
8.22658e-07
7.0273e-09
7.19935e-09
8.16501e-07
6.33883e-09
6.61217e-09
5.71887e-09
6.15019e-09
1.14452e-06
1.3888e-08
1.53493e-08
1.13905e-06
1.22856e-08
1.36627e-08
1.13415e-06
1.08843e-08
1.23227e-08
1.12982e-06
9.721e-09
1.1275e-08
1.12599e-06
8.75717e-09
1.04747e-08
1.12263e-06
7.93495e-09
9.87637e-09
7.19909e-09
9.44005e-09
1.3545e-06
9.06333e-09
1.68374e-08
1.35442e-06
8.22216e-09
1.55035e-08
1.35428e-06
7.44407e-09
1.42964e-08
1.35414e-06
6.76622e-09
1.3353e-08
1.35399e-06
6.18479e-09
1.26451e-08
1.35383e-06
5.68755e-09
1.21419e-08
5.27611e-09
1.1834e-08
1.4619e-06
2.12444e-11
1.64516e-08
1.46518e-06
3.56515e-11
1.55708e-08
1.46807e-06
6.15646e-11
1.46998e-08
1.47075e-06
1.05064e-10
1.39047e-08
1.47326e-06
1.75292e-10
1.32357e-08
1.47555e-06
2.81168e-10
1.27786e-08
4.44848e-10
1.25527e-08
1.46195e-06
-9.03736e-09
1.64378e-08
1.46526e-06
-8.17826e-09
1.55497e-08
1.4682e-06
-7.36465e-09
1.46652e-08
1.47096e-06
-6.62732e-09
1.38465e-08
1.47362e-06
-5.95505e-09
1.31348e-08
1.47615e-06
-5.3358e-09
1.26053e-08
1.2266e-08
1.3546e-06
-1.38899e-08
1.6807e-08
1.35459e-06
-1.22898e-08
1.54567e-08
1.35457e-06
-1.08925e-08
1.42199e-08
1.35462e-06
-9.73526e-09
1.32212e-08
1.35479e-06
-8.78441e-09
1.24245e-08
-7.98597e-09
1.17811e-08
1.14459e-06
-1.21999e-08
1.53208e-08
1.13917e-06
-1.03585e-08
1.36143e-08
1.13437e-06
-8.99773e-09
1.22425e-08
1.13018e-06
-7.97482e-09
1.11427e-08
1.12659e-06
-7.19908e-09
1.02589e-08
-6.61173e-09
9.52438e-09
8.54734e-07
-6.85171e-09
1.21795e-08
8.45276e-07
-5.62278e-09
1.03231e-08
8.36901e-07
-4.79888e-09
8.93628e-09
8.29424e-07
-4.2203e-09
7.87031e-09
8.22658e-07
-3.79371e-09
7.02747e-09
-3.49369e-09
6.33879e-09
4.90914e-07
1.07888e-08
4.78676e-07
9.92864e-09
4.67568e-07
9.20517e-09
4.57345e-07
8.55716e-09
4.47852e-07
7.95789e-09
7.39225e-09
7.98806e-07
1.11163e-08
1.26674e-08
7.8676e-07
1.01292e-08
1.18728e-08
7.75664e-07
9.33067e-09
1.10178e-08
7.65392e-07
8.71657e-09
1.01937e-08
7.55813e-07
8.25203e-09
9.41505e-09
7.46843e-07
7.88525e-09
8.68061e-09
7.56396e-09
7.9621e-09
1.14459e-06
1.53207e-08
1.389e-08
1.13917e-06
1.36141e-08
1.22899e-08
1.13437e-06
1.22422e-08
1.08926e-08
1.13018e-06
1.11424e-08
9.73543e-09
1.12659e-06
1.02586e-08
8.78462e-09
1.12358e-06
9.52393e-09
7.98613e-09
8.86851e-09
7.28127e-09
1.41151e-06
1.5035e-08
1.50544e-08
1.41179e-06
1.34855e-08
1.35171e-08
1.41202e-06
1.21389e-08
1.21894e-08
1.41239e-06
1.09838e-08
1.10648e-08
1.413e-06
9.99964e-09
1.01295e-08
1.41389e-06
9.15064e-09
9.36004e-09
8.39287e-09
8.72728e-09
1.60004e-06
9.34329e-09
1.54697e-08
1.60617e-06
8.47915e-09
1.43807e-08
1.61163e-06
7.67037e-09
1.33065e-08
1.61665e-06
6.9642e-09
1.2347e-08
1.6214e-06
6.36151e-09
1.15359e-08
1.62597e-06
5.84239e-09
1.08848e-08
5.3899e-09
1.03953e-08
1.69654e-06
1.11273e-11
1.497e-08
1.70627e-06
1.83504e-11
1.43021e-08
1.71507e-06
3.07259e-11
1.35376e-08
1.72312e-06
5.06678e-11
1.27683e-08
1.73057e-06
8.11186e-11
1.20654e-08
1.73758e-06
1.25271e-10
1.14815e-08
1.9142e-10
1.10469e-08
1.69658e-06
-9.3369e-09
1.49576e-08
1.70633e-06
-8.46827e-09
1.42829e-08
1.71517e-06
-7.65008e-09
1.3507e-08
1.72328e-06
-6.92764e-09
1.27188e-08
1.73081e-06
-6.3006e-09
1.19849e-08
1.73794e-06
-5.74996e-09
1.13515e-08
1.08398e-08
1.6001e-06
-1.50543e-08
1.54431e-08
1.60626e-06
-1.3517e-08
1.43394e-08
1.61178e-06
-1.21893e-08
1.3242e-08
1.61689e-06
-1.10646e-08
1.22436e-08
1.62178e-06
-1.01292e-08
1.13698e-08
-9.35978e-09
1.06156e-08
1.41151e-06
-1.53493e-08
1.50352e-08
1.41179e-06
-1.36626e-08
1.34858e-08
1.41202e-06
-1.23225e-08
1.21392e-08
1.41239e-06
-1.12748e-08
1.09841e-08
1.413e-06
-1.04744e-08
9.99995e-09
-9.8759e-09
9.15098e-09
1.14452e-06
-1.11329e-08
1.38882e-08
1.13905e-06
-1.01562e-08
1.22858e-08
1.13415e-06
-9.37503e-09
1.08846e-08
1.12982e-06
-8.7911e-09
9.72129e-09
1.12599e-06
-8.38125e-09
8.75743e-09
-8.109e-09
7.93507e-09
7.98711e-07
1.26743e-08
7.86598e-07
1.18851e-08
7.7539e-07
1.10382e-08
7.6493e-07
1.02263e-08
7.55038e-07
9.469e-09
8.77573e-09
1.02287e-06
1.21077e-08
7.54001e-09
1.01607e-06
1.13332e-08
7.34339e-09
1.00938e-06
1.06708e-08
7.0412e-09
1.00284e-06
1.01614e-08
6.57313e-09
9.96449e-07
9.77232e-09
6.0296e-09
9.90201e-07
9.46997e-09
5.45951e-09
9.22735e-09
4.84244e-09
1.3546e-06
1.68068e-08
9.03741e-09
1.35459e-06
1.54565e-08
8.17832e-09
1.35457e-06
1.42196e-08
7.36472e-09
1.35462e-06
1.32209e-08
6.62742e-09
1.35479e-06
1.24241e-08
5.95516e-09
1.35513e-06
1.17804e-08
5.33589e-09
1.1246e-08
4.7313e-09
1.6001e-06
1.54428e-08
9.33692e-09
1.60626e-06
1.43391e-08
8.46829e-09
1.61178e-06
1.32417e-08
7.65012e-09
1.6169e-06
1.22432e-08
6.9277e-09
1.62178e-06
1.13693e-08
6.30069e-09
1.62655e-06
1.06151e-08
5.75008e-09
9.96284e-09
5.25317e-09
1.77035e-06
9.19917e-09
9.20923e-09
1.78183e-06
8.61335e-09
8.62811e-09
1.79238e-06
7.98811e-09
8.01002e-09
1.80216e-06
7.38735e-09
7.42092e-09
1.81133e-06
6.8419e-09
6.89493e-09
1.82002e-06
6.35988e-09
6.44566e-09
5.93727e-09
6.07544e-09
1.85773e-06
9.65945e-14
8.84314e-09
1.87217e-06
8.32467e-13
8.47266e-09
1.88566e-06
2.10612e-12
8.03247e-09
1.89824e-06
3.75506e-12
7.57487e-09
1.91e-06
5.35724e-12
7.13865e-09
1.92109e-06
6.10919e-12
6.75073e-09
5.73739e-12
6.42894e-09
1.85774e-06
-9.20925e-09
8.83598e-09
1.87219e-06
-8.62814e-09
8.46195e-09
1.8857e-06
-8.01005e-09
8.01615e-09
1.89829e-06
-7.42095e-09
7.54967e-09
1.91008e-06
-6.89496e-09
7.09942e-09
1.92119e-06
-6.44568e-09
6.68947e-09
6.33339e-09
1.77035e-06
-1.54697e-08
9.19948e-09
1.78183e-06
-1.43806e-08
8.61371e-09
1.79238e-06
-1.33064e-08
7.98853e-09
1.80216e-06
-1.23469e-08
7.38784e-09
1.81133e-06
-1.15357e-08
6.84244e-09
-1.08847e-08
6.36049e-09
1.60004e-06
-1.68373e-08
9.34355e-09
1.60617e-06
-1.55035e-08
8.47946e-09
1.61163e-06
-1.42963e-08
7.67073e-09
1.61665e-06
-1.33528e-08
6.96459e-09
1.6214e-06
-1.26448e-08
6.36192e-09
-1.21415e-08
5.8428e-09
1.3545e-06
-1.21255e-08
9.06357e-09
1.35442e-06
-1.13629e-08
8.22244e-09
1.35428e-06
-1.07217e-08
7.44439e-09
1.35413e-06
-1.02491e-08
6.76657e-09
1.35399e-06
-9.92509e-09
6.18515e-09
-9.73219e-09
5.68784e-09
1.02276e-06
7.57833e-09
1.01587e-06
7.4097e-09
1.00904e-06
7.15149e-09
1.00226e-06
6.75359e-09
9.95479e-07
6.32376e-09
5.94407e-09
1.13402e-06
1.13051e-08
-2.51571e-11
1.13076e-06
1.06441e-08
-4.27118e-11
1.1277e-06
1.0179e-08
-7.16897e-11
1.12451e-06
9.87639e-09
-1.19425e-10
1.12108e-06
9.6578e-09
-1.97981e-10
1.11735e-06
9.51968e-09
-3.28114e-10
9.47293e-09
-5.43408e-10
1.46195e-06
1.64376e-08
-2.12333e-11
1.46526e-06
1.55494e-08
-3.56424e-11
1.4682e-06
1.46649e-08
-6.15605e-11
1.47096e-06
1.38461e-08
-1.05062e-10
1.47362e-06
1.31344e-08
-1.7529e-10
1.47615e-06
1.26048e-08
-2.81168e-10
1.22653e-08
-4.44823e-10
1.69658e-06
1.49573e-08
-1.1142e-11
1.70633e-06
1.42825e-08
-1.83729e-11
1.71517e-06
1.35066e-08
-3.07553e-11
1.72328e-06
1.27184e-08
-5.0699e-11
1.73081e-06
1.19843e-08
-8.11392e-11
1.73794e-06
1.13509e-08
-1.25262e-10
1.0839e-08
-1.91353e-10
1.85774e-06
8.83564e-09
-1.43348e-13
1.87219e-06
8.46154e-09
-8.9939e-13
1.8857e-06
8.01566e-09
-2.18906e-12
1.89829e-06
7.54909e-09
-3.85544e-12
1.91008e-06
7.09874e-09
-5.47051e-12
1.92119e-06
6.68868e-09
-6.23112e-12
6.33248e-09
-5.87887e-12
1.94053e-06
-2.01962e-12
1.93722e-12
1.95746e-06
-2.86546e-12
2.75731e-12
1.97351e-06
-4.13626e-12
3.99496e-12
1.98864e-06
-6.1314e-12
5.94974e-12
2.00287e-06
-9.32963e-12
9.10069e-12
2.01631e-06
-1.44409e-11
1.41532e-11
-2.23425e-11
2.19677e-11
1.94053e-06
-8.8432e-09
-1.6461e-12
1.95746e-06
-8.47275e-09
-2.41319e-12
1.97351e-06
-8.03258e-09
-3.59146e-12
1.98864e-06
-7.57502e-09
-5.47807e-12
2.00287e-06
-7.13884e-09
-8.54818e-12
2.01631e-06
-6.75099e-09
-1.35058e-11
-2.12064e-11
1.85773e-06
-1.497e-08
4.20468e-13
1.87217e-06
-1.43021e-08
1.236e-12
1.88566e-06
-1.35376e-08
2.57647e-12
1.89824e-06
-1.27684e-08
4.30942e-12
1.91e-06
-1.20654e-08
6.00825e-12
-1.14815e-08
6.87932e-12
1.69654e-06
-1.64515e-08
1.14032e-11
1.70627e-06
-1.55708e-08
1.86785e-11
1.71507e-06
-1.46997e-08
3.11105e-11
1.72312e-06
-1.39046e-08
5.11145e-11
1.73057e-06
-1.32356e-08
8.16295e-11
-1.27783e-08
1.25853e-10
1.4619e-06
-1.13152e-08
2.14959e-11
1.46518e-06
-1.06615e-08
3.59445e-11
1.46807e-06
-1.02083e-08
6.18991e-11
1.47075e-06
-9.92453e-09
1.05439e-10
1.47326e-06
-9.73864e-09
1.75694e-10
-9.65876e-09
2.81574e-10
1.13397e-06
2.54437e-11
1.13067e-06
4.30338e-11
1.12754e-06
7.20421e-11
1.12425e-06
1.19798e-10
1.12064e-06
1.98362e-10
3.28476e-10
1.13397e-06
1.13151e-08
-7.57809e-09
1.13067e-06
1.06614e-08
-7.40943e-09
1.12754e-06
1.02083e-08
-7.15119e-09
1.12425e-06
9.92451e-09
-6.75329e-09
1.12064e-06
9.73865e-09
-6.32347e-09
1.1166e-06
9.65888e-09
-5.94385e-09
9.71119e-09
-5.64892e-09
1.4619e-06
1.64514e-08
-9.06335e-09
1.46518e-06
1.55706e-08
-8.22219e-09
1.46807e-06
1.46995e-08
-7.44411e-09
1.47075e-06
1.39043e-08
-6.76627e-09
1.47326e-06
1.32353e-08
-6.18487e-09
1.47555e-06
1.27781e-08
-5.68766e-09
1.25522e-08
-5.27627e-09
1.69654e-06
1.49697e-08
-9.34332e-09
1.70627e-06
1.43017e-08
-8.4792e-09
1.71507e-06
1.35371e-08
-7.67044e-09
1.72312e-06
1.27678e-08
-6.96428e-09
1.73057e-06
1.20648e-08
-6.3616e-09
1.73759e-06
1.14807e-08
-5.84249e-09
1.10461e-08
-5.38998e-09
1.85773e-06
8.84277e-09
-9.19922e-09
1.87217e-06
8.47222e-09
-8.61341e-09
1.88566e-06
8.03194e-09
-7.98819e-09
1.89824e-06
7.57424e-09
-7.38745e-09
1.91001e-06
7.13789e-09
-6.84202e-09
1.92109e-06
6.74982e-09
-6.36002e-09
6.42784e-09
-5.93741e-09
1.94053e-06
1.53536e-12
-8.8357e-09
1.95746e-06
2.26935e-12
-8.46162e-09
1.97351e-06
3.40504e-12
-8.01576e-09
1.98864e-06
5.23896e-12
-7.54922e-09
2.00287e-06
8.24536e-12
-7.09891e-09
2.01631e-06
1.31188e-11
-6.68888e-09
2.06938e-11
-6.33273e-09
1.94053e-06
-8.83609e-09
-8.84284e-09
1.95746e-06
-8.4621e-09
-8.47231e-09
1.97351e-06
-8.01634e-09
-8.03205e-09
1.98864e-06
-7.54992e-09
-7.57438e-09
2.00287e-06
-7.09975e-09
-7.13805e-09
2.01631e-06
-6.6899e-09
-6.75002e-09
-6.42809e-09
1.85774e-06
-1.49576e-08
-9.20895e-09
1.87219e-06
-1.4283e-08
-8.62777e-09
1.8857e-06
-1.35071e-08
-8.00961e-09
1.89829e-06
-1.2719e-08
-7.42041e-09
1.91008e-06
-1.19851e-08
-6.89431e-09
-1.13518e-08
-6.44488e-09
1.69658e-06
-1.64378e-08
-9.33666e-09
1.70633e-06
-1.55497e-08
-8.46797e-09
1.71517e-06
-1.46652e-08
-7.64973e-09
1.72328e-06
-1.38465e-08
-6.92722e-09
1.73081e-06
-1.31348e-08
-6.30009e-09
-1.26052e-08
-5.74934e-09
1.46195e-06
-1.13052e-08
-9.03713e-09
1.46526e-06
-1.06442e-08
-8.178e-09
1.4682e-06
-1.01791e-08
-7.36436e-09
1.47096e-06
-9.87649e-09
-6.62699e-09
1.47362e-06
-9.65791e-09
-5.95467e-09
-9.5198e-09
-5.33536e-09
1.13402e-06
-7.53969e-09
1.13076e-06
-7.34304e-09
1.12769e-06
-7.0408e-09
1.12451e-06
-6.57269e-09
1.12108e-06
-6.02914e-09
-5.45902e-09
1.02276e-06
1.21254e-08
-1.26741e-08
1.01587e-06
1.13628e-08
-1.18849e-08
1.00904e-06
1.07216e-08
-1.1038e-08
1.00226e-06
1.02491e-08
-1.0226e-08
9.9548e-07
9.92514e-09
-9.46876e-09
9.8858e-07
9.7324e-09
-8.77561e-09
9.67873e-09
-8.13636e-09
1.3545e-06
1.68372e-08
-1.3888e-08
1.35442e-06
1.55033e-08
-1.22856e-08
1.35428e-06
1.42961e-08
-1.08844e-08
1.35414e-06
1.33527e-08
-9.7211e-09
1.35399e-06
1.26447e-08
-8.7573e-09
1.35383e-06
1.21415e-08
-7.93513e-09
1.18336e-08
-7.19935e-09
1.60004e-06
1.54694e-08
-1.5035e-08
1.60617e-06
1.43803e-08
-1.34856e-08
1.61163e-06
1.3306e-08
-1.2139e-08
1.61665e-06
1.23465e-08
-1.09839e-08
1.6214e-06
1.15353e-08
-9.99975e-09
1.62597e-06
1.08841e-08
-9.15079e-09
1.03944e-08
-8.39306e-09
1.77035e-06
9.20887e-09
-1.54428e-08
1.78183e-06
8.62768e-09
-1.43391e-08
1.79238e-06
8.00949e-09
-1.32417e-08
1.80216e-06
7.42028e-09
-1.22432e-08
1.81133e-06
6.89416e-09
-1.13694e-08
1.82002e-06
6.44472e-09
-1.06152e-08
6.07427e-09
-9.96292e-09
1.85774e-06
-5.47139e-13
-1.49573e-08
1.87219e-06
-1.40192e-12
-1.42826e-08
1.8857e-06
-2.7885e-12
-1.35066e-08
1.89829e-06
-4.57713e-12
-1.27184e-08
1.91008e-06
-6.34195e-12
-1.19843e-08
1.92119e-06
-7.30038e-12
-1.13509e-08
-7.26554e-12
-1.0839e-08
1.84241e-06
-9.65277e-09
-1.54378e-08
1.85773e-06
-9.19962e-09
-1.49697e-08
1.87217e-06
-8.6139e-09
-1.43018e-08
1.88566e-06
-7.98878e-09
-1.35372e-08
1.89824e-06
-7.38816e-09
-1.27679e-08
1.91e-06
-6.84286e-09
-1.20648e-08
1.92109e-06
-6.36103e-09
-1.14807e-08
-1.1046e-08
1.75785e-06
-1.63751e-08
-1.63914e-08
1.77035e-06
-1.54432e-08
-1.54695e-08
1.78183e-06
-1.43396e-08
-1.43803e-08
1.79238e-06
-1.32422e-08
-1.3306e-08
1.80216e-06
-1.22438e-08
-1.23465e-08
1.81133e-06
-1.13701e-08
-1.15352e-08
-1.06161e-08
-1.0884e-08
1.59302e-06
-1.80983e-08
-1.67233e-08
1.6001e-06
-1.68071e-08
-1.50542e-08
1.60626e-06
-1.54568e-08
-1.35168e-08
1.61178e-06
-1.422e-08
-1.2189e-08
1.61689e-06
-1.32213e-08
-1.10643e-08
1.62178e-06
-1.24247e-08
-1.01288e-08
-1.17812e-08
-9.35924e-09
1.35445e-06
-1.29729e-08
-1.56886e-08
1.3546e-06
-1.21079e-08
-1.38898e-08
1.35459e-06
-1.13334e-08
-1.22896e-08
1.35457e-06
-1.0671e-08
-1.08922e-08
1.35462e-06
-1.01616e-08
-9.73498e-09
1.35479e-06
-9.7726e-09
-8.78408e-09
-9.47037e-09
-7.98554e-09
1.02985e-06
-1.33746e-08
1.02287e-06
-1.26671e-08
1.01607e-06
-1.18725e-08
1.00938e-06
-1.10174e-08
1.00284e-06
-1.01932e-08
9.96448e-07
-9.41458e-09
-8.68009e-09
7.98711e-07
1.11329e-08
-1.07887e-08
7.86599e-07
1.01561e-08
-9.92848e-09
7.75391e-07
9.37499e-09
-9.20498e-09
7.64931e-07
8.79107e-09
-8.55695e-09
7.55038e-07
8.38126e-09
-7.95764e-09
7.45545e-07
8.10912e-09
-7.39204e-09
7.94631e-09
-6.83667e-09
1.14452e-06
1.53492e-08
-1.21794e-08
1.13905e-06
1.36625e-08
-1.03229e-08
1.13415e-06
1.23224e-08
-8.93613e-09
1.12982e-06
1.12747e-08
-7.87018e-09
1.126e-06
1.04743e-08
-7.02742e-09
1.12263e-06
9.87603e-09
-6.339e-09
9.43969e-09
-5.71908e-09
1.41151e-06
1.50541e-08
-1.53207e-08
1.41179e-06
1.35168e-08
-1.36141e-08
1.41202e-06
1.2189e-08
-1.22423e-08
1.41239e-06
1.10644e-08
-1.11425e-08
1.413e-06
1.0129e-08
-1.02588e-08
1.41389e-06
9.35944e-09
-9.52409e-09
8.72655e-09
-8.86874e-09
1.6001e-06
9.33659e-09
-1.68068e-08
1.60626e-06
8.46789e-09
-1.54564e-08
1.61178e-06
7.64964e-09
-1.42196e-08
1.6169e-06
6.92712e-09
-1.32209e-08
1.62178e-06
6.3e-09
-1.24241e-08
1.62655e-06
5.74924e-09
-1.17805e-08
5.2521e-09
-1.1246e-08
1.69658e-06
-1.15198e-11
-1.64375e-08
1.70633e-06
-1.88328e-11
-1.55494e-08
1.71517e-06
-3.13116e-11
-1.46649e-08
1.72328e-06
-5.13689e-11
-1.38461e-08
1.73081e-06
-8.19446e-11
-1.31343e-08
1.73794e-06
-1.26241e-10
-1.26046e-08
-1.92582e-10
-1.22651e-08
1.68572e-06
-1.01512e-08
-1.71628e-08
1.69654e-06
-9.34371e-09
-1.64513e-08
1.70627e-06
-8.47967e-09
-1.55705e-08
1.71507e-06
-7.671e-09
-1.46994e-08
1.72312e-06
-6.96494e-09
-1.39042e-08
1.73057e-06
-6.36238e-09
-1.32351e-08
1.73758e-06
-5.84343e-09
-1.27778e-08
-1.25518e-08
1.59298e-06
-1.67115e-08
-1.81173e-08
1.60004e-06
-1.50353e-08
-1.68372e-08
1.60617e-06
-1.3486e-08
-1.55033e-08
1.61163e-06
-1.21394e-08
-1.4296e-08
1.61665e-06
-1.09844e-08
-1.33526e-08
1.6214e-06
-1.00004e-08
-1.26445e-08
-9.15159e-09
-1.21411e-08
1.41093e-06
-1.74206e-08
-1.74368e-08
1.41151e-06
-1.5321e-08
-1.53492e-08
1.41179e-06
-1.36144e-08
-1.36625e-08
1.41202e-06
-1.22426e-08
-1.23223e-08
1.41239e-06
-1.11429e-08
-1.12746e-08
1.413e-06
-1.02592e-08
-1.04741e-08
-9.52473e-09
-9.87559e-09
1.15048e-06
-1.23398e-08
-1.47066e-08
1.14459e-06
-1.11164e-08
-1.21998e-08
1.13917e-06
-1.01293e-08
-1.03584e-08
1.13437e-06
-9.33088e-09
-8.99757e-09
1.13018e-06
-8.71683e-09
-7.97462e-09
1.12659e-06
-8.25238e-09
-7.19885e-09
-7.8858e-09
-6.61143e-09
8.11784e-07
-1.19552e-08
7.98805e-07
-1.08051e-08
7.8676e-07
-9.95604e-09
7.75663e-07
-9.25206e-09
7.65391e-07
-8.63737e-09
7.55812e-07
-8.08801e-09
-7.59553e-09
4.90914e-07
6.85168e-09
-3.87761e-09
4.78677e-07
5.62274e-09
-3.31353e-09
4.67568e-07
4.79885e-09
-2.89527e-09
4.57345e-07
4.22027e-09
-2.55446e-09
4.47852e-07
3.79373e-09
-2.25821e-09
4.38958e-07
3.49387e-09
-1.99158e-09
3.29227e-09
-1.72282e-09
8.54734e-07
1.21998e-08
-6.83841e-09
8.45276e-07
1.03584e-08
-5.60051e-09
8.36902e-07
8.99766e-09
-4.76072e-09
8.29424e-07
7.97477e-09
-4.14703e-09
8.22659e-07
7.1991e-09
-3.66729e-09
8.16501e-07
6.61191e-09
-3.29976e-09
6.14989e-09
-3.01711e-09
1.14459e-06
1.38898e-08
-1.11163e-08
1.13917e-06
1.22897e-08
-1.01292e-08
1.13437e-06
1.08923e-08
-9.33065e-09
1.13018e-06
9.73504e-09
-8.71657e-09
1.12659e-06
8.78419e-09
-8.25206e-09
1.12358e-06
7.98564e-09
-7.88533e-09
7.28071e-09
-7.56411e-09
1.3546e-06
9.03711e-09
-1.21077e-08
1.35459e-06
8.17795e-09
-1.13332e-08
1.35457e-06
7.36428e-09
-1.06707e-08
1.35462e-06
6.62691e-09
-1.01613e-08
1.35479e-06
5.95456e-09
-9.77226e-09
1.35513e-06
5.33519e-09
-9.46992e-09
4.73047e-09
-9.22734e-09
1.46195e-06
-2.15742e-11
-1.1305e-08
1.46526e-06
-3.60583e-11
-1.0644e-08
1.4682e-06
-6.20626e-11
-1.01789e-08
1.47096e-06
-1.05664e-10
-9.87627e-09
1.47362e-06
-1.76004e-10
-9.65766e-09
1.47615e-06
-2.82009e-10
-9.5195e-09
-4.45836e-10
-9.47269e-09
1.458e-06
-9.90281e-09
-1.21052e-08
1.4619e-06
-9.06369e-09
-1.13151e-08
1.46518e-06
-8.22259e-09
-1.06614e-08
1.46807e-06
-7.44461e-09
-1.02082e-08
1.47075e-06
-6.76687e-09
-9.92441e-09
1.47326e-06
-6.18557e-09
-9.73851e-09
1.47555e-06
-5.68848e-09
-9.65865e-09
-9.71082e-09
1.35438e-06
-1.56866e-08
-1.29837e-08
1.3545e-06
-1.38883e-08
-1.21254e-08
1.35442e-06
-1.2286e-08
-1.13628e-08
1.35428e-06
-1.08848e-08
-1.07216e-08
1.35414e-06
-9.72161e-09
-1.0249e-08
1.35399e-06
-8.75787e-09
-9.925e-09
-7.93573e-09
-9.73217e-09
1.15044e-06
-1.46941e-08
-1.23491e-08
1.14452e-06
-1.21796e-08
-1.11329e-08
1.13905e-06
-1.03232e-08
-1.01561e-08
1.13415e-06
-8.93648e-09
-9.37494e-09
1.12982e-06
-7.87057e-09
-8.79099e-09
1.126e-06
-7.02782e-09
-8.38112e-09
-6.33923e-09
-8.10891e-09
8.65423e-07
-8.70822e-09
-8.71627e-09
8.54734e-07
-6.83855e-09
-6.85168e-09
8.45276e-07
-5.60066e-09
-5.62272e-09
8.36901e-07
-4.76089e-09
-4.79881e-09
8.29424e-07
-4.14725e-09
-4.2202e-09
8.22658e-07
-3.6675e-09
-3.79358e-09
-3.29979e-09
-3.49352e-09
5.04692e-07
-4.719e-09
4.90942e-07
-3.89306e-09
4.78725e-07
-3.34031e-09
4.67654e-07
-2.94119e-09
4.57499e-07
-2.62986e-09
4.48126e-07
-2.3826e-09
-2.20329e-09
1.85996e-07
3.89314e-09
1.79342e-07
3.3404e-09
1.73505e-07
2.9413e-09
1.68321e-07
2.62999e-09
1.6368e-07
2.38276e-09
1.59485e-07
2.20354e-09
2.09445e-09
4.90942e-07
1.08052e-08
4.78726e-07
9.95615e-09
4.67654e-07
9.25218e-09
4.575e-07
8.6375e-09
4.48127e-07
8.08812e-09
4.39435e-07
7.59563e-09
7.1547e-09
7.98806e-07
1.26672e-08
7.8676e-07
1.18726e-08
7.75664e-07
1.10175e-08
7.65392e-07
1.01933e-08
7.55814e-07
9.41461e-09
7.46844e-07
8.68012e-09
7.96158e-09
1.02288e-06
7.53976e-09
1.01607e-06
7.34307e-09
1.00938e-06
7.04081e-09
1.00284e-06
6.57265e-09
9.9645e-07
6.02905e-09
9.90201e-07
5.45888e-09
4.84174e-09
1.13402e-06
-2.54173e-11
1.13076e-06
-4.30427e-11
1.1277e-06
-7.21006e-11
1.12451e-06
-1.19926e-10
1.12108e-06
-1.98578e-10
1.11735e-06
-3.28806e-10
-5.44194e-10
1.13773e-06
-7.80087e-09
1.13397e-06
-7.57835e-09
1.13067e-06
-7.40976e-09
1.12754e-06
-7.15161e-09
1.12425e-06
-6.7538e-09
1.12064e-06
-6.32409e-09
1.1166e-06
-5.94459e-09
1.02979e-06
-1.33794e-08
1.02276e-06
-1.26744e-08
1.01587e-06
-1.18852e-08
1.00904e-06
-1.10384e-08
1.00226e-06
-1.02265e-08
9.9548e-07
-9.46936e-09
-8.77631e-09
8.11729e-07
-1.19455e-08
7.98711e-07
-1.07889e-08
7.86598e-07
-9.9287e-09
7.7539e-07
-9.20526e-09
7.6493e-07
-8.55732e-09
7.55038e-07
-7.95813e-09
-7.39262e-09
5.04677e-07
-4.71044e-09
4.90914e-07
-3.8777e-09
4.78676e-07
-3.31365e-09
4.67568e-07
-2.89542e-09
4.57345e-07
-2.55465e-09
4.47852e-07
-2.25844e-09
-1.99182e-09
1.93767e-07
1.85996e-07
1.79342e-07
1.73505e-07
1.68321e-07
1.6368e-07
)
;

boundaryField
{
    inlet
    {
        type            calculated;
        value           nonuniform List<scalar> 0();
    }
    ami1
    {
        type            cyclicAMI;
        value           nonuniform List<scalar> 0();
    }
    walls
    {
        type            calculated;
        value           uniform 0;
    }
    ami2
    {
        type            cyclicAMI;
        value           nonuniform List<scalar> 0();
    }
    outlet
    {
        type            calculated;
        value           nonuniform List<scalar> 0();
    }
    procBoundary3to2
    {
        type            processor;
        value           nonuniform List<scalar> 
110
(
1.55667e-07
4.30551e-07
7.36298e-07
9.81387e-07
1.11199e-06
1.11326e-06
-4.84231e-09
9.90199e-07
7.46841e-07
4.39434e-07
1.59485e-07
4.31357e-07
8.10941e-07
1.11966e-06
1.35359e-06
1.47754e-06
1.47853e-06
-4.73111e-09
1.35513e-06
1.12357e-06
8.16501e-07
4.38957e-07
7.38472e-07
1.12114e-06
1.41507e-06
1.63041e-06
1.74429e-06
1.74481e-06
-5.25297e-09
1.62655e-06
1.41389e-06
1.12263e-06
7.45545e-07
9.84093e-07
1.35567e-06
1.63131e-06
1.82837e-06
1.93164e-06
1.93178e-06
-6.07549e-09
1.82002e-06
1.62596e-06
1.35383e-06
9.88579e-07
1.11326e-06
1.47853e-06
1.74481e-06
1.93178e-06
2.02908e-06
2.02907e-06
-6.4293e-09
1.92109e-06
1.73758e-06
1.47555e-06
1.1166e-06
1.11199e-06
1.47754e-06
1.74429e-06
1.93164e-06
2.02908e-06
2.02907e-06
-6.33399e-09
1.92119e-06
1.73794e-06
1.47615e-06
1.11735e-06
9.81388e-07
1.3536e-06
1.63041e-06
1.82837e-06
1.93178e-06
1.93164e-06
-5.93869e-09
1.82002e-06
1.62655e-06
1.35513e-06
9.90199e-07
7.36299e-07
1.11966e-06
1.41508e-06
1.63131e-06
1.74481e-06
1.74429e-06
-5.39118e-09
1.62597e-06
1.41389e-06
1.12357e-06
7.46842e-07
4.30552e-07
8.10942e-07
1.12114e-06
1.35567e-06
1.47854e-06
1.47754e-06
-5.27729e-09
1.35383e-06
1.12263e-06
8.16501e-07
4.39434e-07
1.55668e-07
4.31358e-07
7.38473e-07
9.84094e-07
1.11326e-06
1.11199e-06
-5.64972e-09
9.8858e-07
7.45545e-07
4.38957e-07
1.59485e-07
)
;
    }
    procBoundary3to4
    {
        type            processor;
        value           nonuniform List<scalar> 
109
(
-1.93767e-07
-5.04677e-07
-8.11729e-07
-1.02979e-06
-1.13773e-06
-1.13776e-06
-1.02985e-06
-8.11784e-07
-5.04692e-07
-1.93767e-07
-5.04692e-07
-8.65423e-07
-1.15044e-06
-1.35438e-06
-1.45799e-06
-1.45803e-06
-1.35445e-06
-1.15048e-06
-8.65423e-07
-5.04677e-07
-8.11784e-07
-1.15048e-06
-1.41093e-06
-1.59298e-06
-1.68572e-06
-1.68575e-06
-1.59302e-06
-1.41093e-06
-1.15044e-06
-8.11729e-07
-1.02986e-06
-1.35445e-06
-1.59302e-06
-1.75785e-06
-1.84241e-06
-1.84241e-06
-1.75785e-06
-1.59298e-06
-1.35438e-06
-1.02979e-06
-1.13776e-06
-1.45803e-06
-1.68575e-06
-1.84241e-06
-1.92285e-06
-1.92285e-06
-1.8424e-06
-1.68572e-06
-1.45799e-06
-1.13773e-06
-1.13773e-06
-1.458e-06
-1.68572e-06
-1.84241e-06
-1.92285e-06
-1.92285e-06
9.0769e-09
-1.84241e-06
9.65889e-09
-1.68575e-06
1.0147e-08
-1.45803e-06
9.88676e-09
-1.13776e-06
7.77834e-09
-1.02979e-06
-1.35438e-06
-1.59298e-06
-1.75785e-06
-1.84241e-06
1.83114e-13
-1.82639e-06
-1.74439e-06
-1.58472e-06
-1.35377e-06
-1.03723e-06
-8.11729e-07
-1.15044e-06
-1.41093e-06
-1.59302e-06
-1.68575e-06
7.27349e-12
-1.67385e-06
-1.58469e-06
-1.40951e-06
-1.15655e-06
-8.25543e-07
-5.04677e-07
-8.65423e-07
-1.15048e-06
-1.35445e-06
-1.45803e-06
1.32507e-11
-1.45316e-06
-1.35373e-06
-1.15652e-06
-8.77399e-07
-5.20636e-07
-1.93767e-07
-5.04692e-07
-8.11784e-07
-1.02986e-06
-1.13776e-06
1.49266e-11
-1.14205e-06
-1.03719e-06
-8.25512e-07
-5.20628e-07
-2.03196e-07
)
;
    }
}


// ************************************************************************* //
