/*--------------------------------*- C++ -*----------------------------------*\
| =========                 |                                                 |
| \\      /  F ield         | OpenFOAM: The Open Source CFD Toolbox           |
|  \\    /   O peration     | Version:  2212                                  |
|   \\  /    A nd           | Website:  www.openfoam.com                      |
|    \\/     M anipulation  |                                                 |
\*---------------------------------------------------------------------------*/
FoamFile
{
    version     2.0;
    format      ascii;
    arch        "LSB;label=32;scalar=64";
    class       volVectorField;
    location    "2";
    object      U;
}
// * * * * * * * * * * * * * * * * * * * * * * * * * * * * * * * * * * * * * //

dimensions      [0 1 -1 0 0 0 0];

internalField   nonuniform List<vector> 
680
(
(0.056685 0.000321439 0.000325806)
(0.05455 0.000248964 0.000256096)
(0.0526979 0.000195924 0.00020761)
(0.0510603 0.000155 0.000174793)
(0.0495998 0.000121373 0.000154196)
(0.048285 8.97769e-05 0.000142259)
(0.0470895 5.59602e-05 0.000138112)
(0.0775642 0.00103858 0.000693379)
(0.0755528 0.000939518 0.00056251)
(0.0737426 0.000860058 0.000483185)
(0.0720863 0.000783536 0.000439104)
(0.0705537 0.000703882 0.000416388)
(0.069123 0.000625462 0.00040605)
(0.0677772 0.000546887 0.000404049)
(0.0898505 0.00170479 0.00116059)
(0.0884487 0.00160381 0.00107075)
(0.0871483 0.00149268 0.000999631)
(0.0859404 0.00138088 0.000952295)
(0.0848084 0.00127464 0.000927011)
(0.0837309 0.00117283 0.000919537)
(0.0826891 0.00106989 0.000926825)
(0.0951944 0.00137928 0.00137232)
(0.0945631 0.00133392 0.00128646)
(0.0939136 0.00126305 0.0012328)
(0.0932776 0.0011734 0.00119879)
(0.0926505 0.00107762 0.00118152)
(0.0920192 0.000986307 0.00117825)
(0.0913692 0.000903616 0.00118968)
(0.0968301 0.000444063 0.00138878)
(0.096529 0.000439072 0.00127053)
(0.0962728 0.000433174 0.00120047)
(0.0959955 0.000419321 0.00117411)
(0.0956966 0.000401016 0.00117382)
(0.0953722 0.000385545 0.00118627)
(0.0950068 0.000379832 0.00120912)
(0.0968335 -0.00043729 0.0013878)
(0.0965348 -0.000427579 0.00126869)
(0.0962826 -0.000413887 0.00119716)
(0.0960122 -0.000387223 0.0011685)
(0.0957249 -0.000348017 0.00116448)
(0.0954204 -0.00029815 0.0011705)
(0.0950892 -0.000235408 0.0011821)
(0.0952024 -0.00137578 0.00137127)
(0.0945771 -0.00132778 0.00128417)
(0.0939375 -0.00125315 0.00122775)
(0.093318 -0.00115789 0.00118906)
(0.0927188 -0.00105307 0.0011635)
(0.0921339 -0.00094545 0.00114841)
(0.0898584 -0.00170687 0.00115825)
(0.0884624 -0.00160728 0.00106697)
(0.0871713 -0.00149841 0.00099341)
(0.0859793 -0.0013904 0.000942494)
(0.0848743 -0.00129009 0.000910023)
(0.0838414 -0.00119693 0.000890065)
(0.0775673 -0.001043 0.000690612)
(0.0755584 -0.000947088 0.00055791)
(0.0737524 -0.00087306 0.000475444)
(0.072104 -0.000805906 0.000424176)
(0.0705856 -0.000741123 0.000390523)
(0.0691794 -0.000685472 0.000367859)
(0.0566849 -0.000325772 0.000321473)
(0.05455 -0.000256057 0.000249005)
(0.0526979 -0.000207564 0.000195974)
(0.0510602 -0.000174738 0.000155061)
(0.0495998 -0.000154132 0.000121453)
(0.048285 -0.000142178 8.98713e-05)
(0.0775673 0.000690596 0.00104304)
(0.0755585 0.000557889 0.00094713)
(0.0737524 0.000475416 0.000873111)
(0.0721041 0.000424134 0.000805968)
(0.0705857 0.000390466 0.000741199)
(0.0691795 0.000367791 0.00068557)
(0.0678735 0.000354426 0.000644157)
(0.0931632 0.00106805 0.00107294)
(0.0920758 0.000850367 0.000858737)
(0.0911129 0.000695351 0.000709789)
(0.0902594 0.000577883 0.000603857)
(0.0894919 0.000485252 0.000528096)
(0.0887918 0.000411581 0.000478078)
(0.0881563 0.000346184 0.000447329)
(0.0991807 0.00166434 0.00157826)
(0.098684 0.00146024 0.00139446)
(0.0982331 0.00129149 0.00125778)
(0.0978342 0.00115058 0.00115971)
(0.0974824 0.00103063 0.00109381)
(0.0971731 0.000924355 0.0010528)
(0.0969007 0.000821959 0.00103184)
(0.102273 0.00146121 0.00196743)
(0.102273 0.00130651 0.00180643)
(0.102262 0.00115922 0.00165953)
(0.10225 0.00103302 0.00155556)
(0.102238 0.000925971 0.0014867)
(0.102226 0.000830827 0.00144553)
(0.102213 0.000744908 0.00143007)
(0.103426 0.000552079 0.00204569)
(0.103678 0.000508591 0.00193725)
(0.103894 0.00046923 0.00183293)
(0.104088 0.00043157 0.00173714)
(0.104272 0.000397495 0.00165532)
(0.104444 0.000371066 0.00160391)
(0.104596 0.000354342 0.00158658)
(0.103429 -0.000546882 0.00204419)
(0.103682 -0.000499749 0.00193498)
(0.103901 -0.000453849 0.00182927)
(0.1041 -0.000405262 0.00173112)
(0.104291 -0.000353806 0.00164476)
(0.104476 -0.000301612 0.0015852)
(0.10465 -0.000245198 0.00155482)
(0.102279 -0.00145992 0.00196382)
(0.102283 -0.00130448 0.00180101)
(0.102278 -0.00115521 0.00165084)
(0.102276 -0.00102598 0.00154038)
(0.102284 -0.000914659 0.00146087)
(0.102303 -0.000815372 0.00140208)
(0.0991853 -0.00166746 0.00157388)
(0.0986918 -0.00146558 0.00138699)
(0.0982469 -0.00130082 0.00124532)
(0.0978577 -0.00116577 0.00113882)
(0.0975221 -0.00105597 0.00105921)
(0.097237 -0.000966311 0.000995589)
(0.0931632 -0.00107292 0.00106808)
(0.0920757 -0.000858706 0.000850404)
(0.0911129 -0.000709749 0.000695398)
(0.0902594 -0.000603803 0.000577943)
(0.0894919 -0.000528018 0.000485317)
(0.0887918 -0.00047795 0.000411627)
(0.0775642 -0.000693365 0.00103862)
(0.0755528 -0.000562494 0.000939567)
(0.0737426 -0.000483165 0.00086012)
(0.0720863 -0.000439079 0.000783613)
(0.0705537 -0.000416354 0.000703976)
(0.0691231 -0.000406011 0.000625565)
(0.0898585 0.00115823 0.00170689)
(0.0884625 0.00106695 0.00160731)
(0.0871714 0.000993378 0.00149845)
(0.0859794 0.000942453 0.00139044)
(0.0848744 0.000909965 0.00129013)
(0.0838416 0.000889979 0.00119697)
(0.0828744 0.000876061 0.00110608)
(0.0991853 0.00157386 0.00166748)
(0.0986918 0.00138695 0.0014656)
(0.0982469 0.00124528 0.00130085)
(0.0978578 0.00113877 0.00116581)
(0.0975222 0.00105914 0.00105602)
(0.0972371 0.000995482 0.000966365)
(0.0970013 0.000937988 0.000891598)
(0.102714 0.00186783 0.0018724)
(0.10274 0.00166901 0.00167648)
(0.102754 0.00150122 0.00151345)
(0.102773 0.00136033 0.00138024)
(0.102807 0.00124115 0.00127334)
(0.102861 0.0011381 0.00118985)
(0.102936 0.00104429 0.00112707)
(0.104388 0.00149171 0.00205572)
(0.104815 0.00134523 0.00190986)
(0.105191 0.00121012 0.00177326)
(0.105531 0.0010909 0.00165554)
(0.105848 0.00098746 0.00155932)
(0.106151 0.000896106 0.00148621)
(0.106445 0.000813172 0.00143664)
(0.105007 0.000560986 0.00208093)
(0.105642 0.000512973 0.00198316)
(0.106214 0.000466707 0.00187745)
(0.106735 0.000425272 0.00177603)
(0.107214 0.000389713 0.00168726)
(0.107661 0.000359977 0.00161784)
(0.108085 0.000335812 0.00157138)
(0.105009 -0.000558483 0.00207926)
(0.105645 -0.000508812 0.00198057)
(0.106219 -0.000459702 0.00187329)
(0.106743 -0.000413642 0.00176912)
(0.107226 -0.000371006 0.00167563)
(0.107679 -0.000330981 0.00159839)
(0.108111 -0.000291583 0.00153966)
(0.104391 -0.00149295 0.00205145)
(0.10482 -0.00134723 0.00190324)
(0.105199 -0.001213 0.00176287)
(0.105543 -0.00109511 0.00163868)
(0.105868 -0.000993925 0.00153196)
(0.106182 -0.000907033 0.00144131)
(0.102714 -0.00187238 0.00186786)
(0.10274 -0.00167646 0.00166905)
(0.102754 -0.00151343 0.00150126)
(0.102773 -0.00138021 0.00136037)
(0.102807 -0.00127329 0.0012412)
(0.102861 -0.00118979 0.00113816)
(0.0991807 -0.00157824 0.00166437)
(0.0986839 -0.00139444 0.00146027)
(0.0982331 -0.00125775 0.00129154)
(0.0978342 -0.00115967 0.00115063)
(0.0974824 -0.00109375 0.00103068)
(0.0971731 -0.00105271 0.000924398)
(0.0898505 -0.00116058 0.00170483)
(0.0884487 -0.00107073 0.00160386)
(0.0871483 -0.000999604 0.00149273)
(0.0859404 -0.000952264 0.00138095)
(0.0848084 -0.000926975 0.00127472)
(0.083731 -0.000919493 0.00117292)
(0.0952025 0.00137125 0.0013758)
(0.0945771 0.00128416 0.0013278)
(0.0939375 0.00122772 0.00125318)
(0.0933181 0.00118903 0.00115792)
(0.0927189 0.00116346 0.0010531)
(0.092134 0.00114835 0.000945493)
(0.0915613 0.0011405 0.000834232)
(0.102279 0.00196379 0.00145993)
(0.102283 0.00180098 0.0013045)
(0.102279 0.00165081 0.00115523)
(0.102277 0.00154033 0.00102601)
(0.102284 0.0014608 0.000914689)
(0.102304 0.00140198 0.0008154)
(0.102336 0.00135716 0.00072136)
(0.104391 0.00205142 0.00149295)
(0.10482 0.0019032 0.00134724)
(0.105199 0.00176283 0.00121301)
(0.105543 0.00163863 0.00109512)
(0.105868 0.0015319 0.00099395)
(0.106182 0.00144124 0.000907063)
(0.106492 0.00136366 0.000831276)
(0.105224 0.00152577 0.00152816)
(0.105938 0.00142587 0.00142957)
(0.106594 0.00132038 0.00132614)
(0.107198 0.00121954 0.00122863)
(0.107761 0.00112806 0.00114242)
(0.108291 0.00104697 0.00106965)
(0.108798 0.000975488 0.00101096)
(0.105516 0.000558054 0.00150957)
(0.106367 0.000524635 0.00144654)
(0.107164 0.000487818 0.00137139)
(0.107906 0.000451835 0.00129298)
(0.108599 0.000418968 0.0012182)
(0.109248 0.000390007 0.00115202)
(0.109863 0.000364788 0.00109775)
(0.105516 -0.00055816 0.00150837)
(0.106368 -0.000524627 0.00144471)
(0.107165 -0.000487605 0.00136854)
(0.107908 -0.00045137 0.00128849)
(0.108602 -0.000418331 0.00121115)
(0.109253 -0.000389511 0.00114102)
(0.10987 -0.000364898 0.00108065)
(0.105224 -0.00152816 0.0015258)
(0.105938 -0.00142957 0.00142591)
(0.106594 -0.00132614 0.00132043)
(0.107198 -0.00122863 0.0012196)
(0.107761 -0.00114242 0.00112812)
(0.108291 -0.00106965 0.00104704)
(0.104388 -0.00205571 0.00149174)
(0.104815 -0.00190985 0.00134527)
(0.105191 -0.00177324 0.00121017)
(0.105531 -0.00165552 0.00109094)
(0.105848 -0.00155929 0.00098751)
(0.106151 -0.00148617 0.000896155)
(0.102273 -0.00196741 0.00146124)
(0.102273 -0.00180641 0.00130655)
(0.102262 -0.00165951 0.00115927)
(0.10225 -0.00155552 0.00103308)
(0.102238 -0.00148666 0.000926024)
(0.102226 -0.00144545 0.000830869)
(0.0951944 -0.00137231 0.00137932)
(0.0945631 -0.00128645 0.00133397)
(0.0939136 -0.00123278 0.0012631)
(0.0932777 -0.00119876 0.00117346)
(0.0926506 -0.00118149 0.00107768)
(0.0920192 -0.0011782 0.000986369)
(0.0968336 0.00138779 0.000437298)
(0.0965349 0.00126867 0.000427588)
(0.0962827 0.00119714 0.000413898)
(0.0960123 0.00116848 0.000387235)
(0.095725 0.00116446 0.000348032)
(0.0954206 0.00117047 0.000298169)
(0.0950894 0.00118205 0.000235421)
(0.103429 0.00204416 0.000546888)
(0.103682 0.00193496 0.000499754)
(0.103901 0.00182923 0.000453855)
(0.1041 0.00173108 0.000405269)
(0.104291 0.00164472 0.000353817)
(0.104476 0.00158513 0.000301625)
(0.10465 0.00155474 0.000245217)
(0.105009 0.00207923 0.000558484)
(0.105645 0.00198054 0.000508813)
(0.106219 0.00187325 0.000459703)
(0.106743 0.00176907 0.000413645)
(0.107226 0.00167557 0.000371012)
(0.107679 0.00159832 0.000330993)
(0.108111 0.00153957 0.000291605)
(0.105516 0.00150833 0.000558156)
(0.106368 0.00144466 0.000524622)
(0.107165 0.00136848 0.000487598)
(0.107909 0.00128843 0.000451362)
(0.108602 0.00121108 0.000418323)
(0.109253 0.00114094 0.000389503)
(0.10987 0.00108056 0.000364889)
(0.105677 0.000545926 0.00054643)
(0.106627 0.000523607 0.000524324)
(0.10753 0.000496389 0.000497428)
(0.108383 0.000467628 0.000469172)
(0.109186 0.000439646 0.000441996)
(0.109941 0.000413886 0.000417528)
(0.110656 0.000391091 0.000396752)
(0.105677 -0.000546439 0.000545968)
(0.106627 -0.000524337 0.000523658)
(0.10753 -0.000497445 0.00049645)
(0.108383 -0.000469193 0.000467702)
(0.109186 -0.000442023 0.000439732)
(0.109941 -0.000417562 0.000413988)
(0.110656 -0.000396797 0.000391211)
(0.105516 -0.00150958 0.000558093)
(0.106367 -0.00144655 0.00052468)
(0.107164 -0.0013714 0.000487871)
(0.107906 -0.00129299 0.000451897)
(0.108599 -0.00121822 0.000419039)
(0.109248 -0.00115205 0.000390087)
(0.105007 -0.00208093 0.00056102)
(0.105642 -0.00198316 0.000513014)
(0.106214 -0.00187745 0.000466755)
(0.106735 -0.00177602 0.000425326)
(0.107214 -0.00168725 0.000389772)
(0.107661 -0.00161782 0.00036004)
(0.103426 -0.00204568 0.000552113)
(0.103678 -0.00193724 0.00050863)
(0.103894 -0.00183291 0.000469275)
(0.104088 -0.00173711 0.000431621)
(0.104272 -0.0016553 0.00039755)
(0.104444 -0.00160385 0.000371119)
(0.0968301 -0.00138877 0.000444099)
(0.096529 -0.00127052 0.000439114)
(0.0962728 -0.00120046 0.000433221)
(0.0959956 -0.00117409 0.000419373)
(0.0956966 -0.00117379 0.00040107)
(0.0953722 -0.00118623 0.0003856)
(0.0968301 0.00138877 -0.000444062)
(0.0965291 0.00127051 -0.000439072)
(0.0962728 0.00120045 -0.000433176)
(0.0959956 0.00117409 -0.000419325)
(0.0956967 0.0011738 -0.000401023)
(0.0953723 0.00118625 -0.000385558)
(0.095007 0.00120909 -0.000379855)
(0.103426 0.00204566 -0.000552081)
(0.103678 0.00193722 -0.000508594)
(0.103894 0.00183289 -0.000469234)
(0.104088 0.0017371 -0.000431576)
(0.104272 0.00165528 -0.000397503)
(0.104444 0.00160386 -0.000371077)
(0.104596 0.00158652 -0.000354355)
(0.105007 0.0020809 -0.00056099)
(0.105642 0.00198313 -0.00051298)
(0.106214 0.00187741 -0.000466716)
(0.106735 0.00177597 -0.000425282)
(0.107214 0.00168719 -0.000389723)
(0.107661 0.00161776 -0.000359986)
(0.108085 0.00157129 -0.000335817)
(0.105516 0.00150953 -0.000558061)
(0.106367 0.00144649 -0.000524644)
(0.107164 0.00137133 -0.00048783)
(0.107906 0.00129291 -0.000451849)
(0.108599 0.00121812 -0.000418986)
(0.109248 0.00115192 -0.000390026)
(0.109863 0.00109764 -0.000364808)
(0.105677 0.000546384 -0.000545935)
(0.106627 0.000524269 -0.000523619)
(0.10753 0.000497361 -0.000496405)
(0.108383 0.000469092 -0.000467649)
(0.109186 0.000441899 -0.000439672)
(0.109941 0.000417411 -0.000413918)
(0.110656 0.000396609 -0.000391131)
(0.105677 -0.000545983 -0.000546395)
(0.106627 -0.000523677 -0.000524283)
(0.10753 -0.000496475 -0.00049738)
(0.108383 -0.000467734 -0.000469115)
(0.109186 -0.000439773 -0.000441928)
(0.109941 -0.000414041 -0.000417447)
(0.110656 -0.000391283 -0.000396656)
(0.105516 -0.00150838 -0.000558121)
(0.106368 -0.00144473 -0.000524581)
(0.107165 -0.00136856 -0.000487549)
(0.107908 -0.00128852 -0.000451303)
(0.108602 -0.00121119 -0.000418251)
(0.109253 -0.00114107 -0.000389415)
(0.105009 -0.00207927 -0.00055845)
(0.105645 -0.00198058 -0.000508772)
(0.106219 -0.0018733 -0.000459655)
(0.106743 -0.00176913 -0.000413588)
(0.107226 -0.00167564 -0.000370942)
(0.107679 -0.00159841 -0.000330905)
(0.103429 -0.00204419 -0.000546851)
(0.103682 -0.00193498 -0.000499712)
(0.103901 -0.00182926 -0.000453808)
(0.1041 -0.00173111 -0.000405216)
(0.104291 -0.00164476 -0.000353758)
(0.104476 -0.00158518 -0.00030156)
(0.0968335 -0.0013878 -0.000437255)
(0.0965348 -0.00126868 -0.000427541)
(0.0962826 -0.00119715 -0.000413845)
(0.0960123 -0.00116849 -0.000387178)
(0.0957249 -0.00116446 -0.000347972)
(0.0954205 -0.00117047 -0.000298108)
(0.0951945 0.00137231 -0.00137928)
(0.0945632 0.00128645 -0.00133393)
(0.0939137 0.00123278 -0.00126306)
(0.0932777 0.00119877 -0.00117342)
(0.0926506 0.0011815 -0.00107764)
(0.0920193 0.00117823 -0.000986342)
(0.0913693 0.00118966 -0.000903666)
(0.102273 0.0019674 -0.00146121)
(0.102273 0.0018064 -0.00130652)
(0.102262 0.0016595 -0.00115924)
(0.10225 0.00155552 -0.00103304)
(0.102238 0.00148666 -0.000925994)
(0.102226 0.00144548 -0.000830858)
(0.102213 0.00143002 -0.000744949)
(0.104388 0.00205569 -0.00149171)
(0.104815 0.00190982 -0.00134524)
(0.105191 0.00177322 -0.00121013)
(0.105531 0.00165549 -0.00109091)
(0.105848 0.00155926 -0.000987481)
(0.106151 0.00148614 -0.000896131)
(0.106445 0.00143656 -0.0008132)
(0.105224 0.00152812 -0.00152578)
(0.105938 0.00142952 -0.00142588)
(0.106594 0.00132609 -0.00132039)
(0.107198 0.00122856 -0.00121956)
(0.107761 0.00114234 -0.00112808)
(0.108292 0.00106955 -0.001047)
(0.108798 0.00101083 -0.00097551)
(0.105516 0.00055811 -0.00150834)
(0.106368 0.000524566 -0.00144467)
(0.107165 0.00048753 -0.00136849)
(0.107909 0.00045128 -0.00128844)
(0.108602 0.000418223 -0.00121109)
(0.109253 0.000389381 -0.00114095)
(0.10987 0.000364737 -0.00108058)
(0.104618 -0.000582597 -0.00155008)
(0.105516 -0.00055811 -0.00150954)
(0.106367 -0.000524704 -0.0014465)
(0.107164 -0.000487902 -0.00137134)
(0.107906 -0.000451935 -0.00129292)
(0.108599 -0.000419088 -0.00121813)
(0.109248 -0.00039015 -0.00115193)
(0.109863 -0.000364963 -0.00109765)
(0.104446 -0.00160436 -0.00160582)
(0.105224 -0.00152582 -0.00152812)
(0.105938 -0.00142594 -0.00142953)
(0.106594 -0.00132046 -0.00132609)
(0.107198 -0.00121964 -0.00122857)
(0.107761 -0.00112817 -0.00114234)
(0.108291 -0.00104711 -0.00106955)
(0.103895 -0.00218501 -0.00163509)
(0.104391 -0.00205147 -0.00149292)
(0.10482 -0.00190326 -0.00134719)
(0.105199 -0.0017629 -0.00121295)
(0.105543 -0.00163871 -0.00109506)
(0.105868 -0.001532 -0.000993862)
(0.106182 -0.00144136 -0.000906954)
(0.102254 -0.0021154 -0.00160786)
(0.102279 -0.00196383 -0.00145989)
(0.102283 -0.00180102 -0.00130445)
(0.102278 -0.00165085 -0.00115517)
(0.102276 -0.00154039 -0.00102594)
(0.102284 -0.00146088 -0.000914611)
(0.102303 -0.00140208 -0.000815313)
(0.0958682 -0.00149786 -0.0014082)
(0.0952024 -0.00137127 -0.00137574)
(0.0945771 -0.00128418 -0.00132774)
(0.0939375 -0.00122775 -0.00125311)
(0.093318 -0.00118906 -0.00115785)
(0.0927188 -0.0011635 -0.00105302)
(0.0921339 -0.00114839 -0.000945406)
(0.0898505 0.00116058 -0.0017048)
(0.0884488 0.00107073 -0.00160383)
(0.0871483 0.000999606 -0.0014927)
(0.0859405 0.000952268 -0.0013809)
(0.0848085 0.000926983 -0.00127467)
(0.083731 0.000919509 -0.00117287)
(0.0826892 0.000926804 -0.00106995)
(0.0991808 0.00157823 -0.00166435)
(0.098684 0.00139443 -0.00146025)
(0.0982332 0.00125774 -0.00129151)
(0.0978342 0.00115967 -0.0011506)
(0.0974825 0.00109377 -0.00103066)
(0.0971732 0.00105275 -0.000924393)
(0.0969008 0.00103179 -0.000822011)
(0.102714 0.00187237 -0.00186784)
(0.10274 0.00167644 -0.00166902)
(0.102754 0.00151341 -0.00150124)
(0.102773 0.00138019 -0.00136035)
(0.102807 0.00127328 -0.00124118)
(0.102861 0.00118978 -0.00113814)
(0.102936 0.00112699 -0.00104433)
(0.104391 0.00149292 -0.00205143)
(0.10482 0.00134719 -0.00190321)
(0.105199 0.00121295 -0.00176284)
(0.105543 0.00109506 -0.00163864)
(0.105868 0.000993871 -0.00153191)
(0.106182 0.000906968 -0.00144125)
(0.106492 0.000831158 -0.00136368)
(0.105009 0.00055844 -0.00207923)
(0.105645 0.000508758 -0.00198054)
(0.106219 0.000459637 -0.00187325)
(0.106743 0.000413566 -0.00176906)
(0.107226 0.000370917 -0.00167556)
(0.107679 0.000330876 -0.00159831)
(0.108111 0.000291458 -0.00153956)
(0.104297 -0.00060564 -0.0021543)
(0.105007 -0.000561039 -0.0020809)
(0.105642 -0.000513038 -0.00198312)
(0.106214 -0.000466787 -0.0018774)
(0.106735 -0.000425367 -0.00177596)
(0.107214 -0.000389825 -0.00168717)
(0.107661 -0.000360108 -0.00161774)
(0.108085 -0.00033597 -0.00157125)
(0.103893 -0.00163436 -0.00218758)
(0.104388 -0.00149176 -0.00205569)
(0.104815 -0.0013453 -0.00190981)
(0.105191 -0.0012102 -0.0017732)
(0.105531 -0.001091 -0.00165547)
(0.105848 -0.000987578 -0.00155923)
(0.106151 -0.000896248 -0.00148609)
(0.102645 -0.00209184 -0.00209464)
(0.102714 -0.00186788 -0.00187236)
(0.10274 -0.00166908 -0.00167644)
(0.102754 -0.0015013 -0.00151339)
(0.102773 -0.00136042 -0.00138016)
(0.102807 -0.00124126 -0.00127323)
(0.102861 -0.00113824 -0.00118972)
(0.0997098 -0.00182237 -0.00191777)
(0.0991853 -0.0015739 -0.00166744)
(0.0986918 -0.00138701 -0.00146555)
(0.0982469 -0.00124534 -0.00130079)
(0.0978577 -0.00113884 -0.00116573)
(0.0975221 -0.00105924 -0.00105592)
(0.097237 -0.000995624 -0.000966256)
(0.0913667 -0.00127019 -0.00180229)
(0.0898584 -0.00115826 -0.00170684)
(0.0884624 -0.00106698 -0.00160725)
(0.0871713 -0.000993422 -0.00149838)
(0.0859793 -0.000942504 -0.00139036)
(0.0848743 -0.00091003 -0.00129005)
(0.0838415 -0.000890068 -0.00119688)
(0.0775642 0.000693363 -0.0010386)
(0.0755528 0.000562492 -0.00093954)
(0.0737427 0.000483164 -0.000860085)
(0.0720864 0.00043908 -0.000783569)
(0.0705538 0.000416363 -0.000703923)
(0.0691231 0.000406028 -0.000625511)
(0.0677773 0.000404031 -0.000546947)
(0.0931632 0.00107292 -0.00106806)
(0.0920758 0.000858707 -0.000850385)
(0.0911129 0.000709754 -0.000695375)
(0.0902594 0.000603818 -0.000577916)
(0.089492 0.000528054 -0.000485294)
(0.0887919 0.000478034 -0.000411632)
(0.0881564 0.000447275 -0.000346238)
(0.0991853 0.00166745 -0.00157387)
(0.0986919 0.00146557 -0.00138697)
(0.0982469 0.00130081 -0.0012453)
(0.0978578 0.00116576 -0.00113879)
(0.0975222 0.00105596 -0.00105917)
(0.0972372 0.000966304 -0.000995524)
(0.0970014 0.00089153 -0.000938043)
(0.102279 0.0014599 -0.00196379)
(0.102283 0.00130445 -0.00180098)
(0.102279 0.00115517 -0.00165081)
(0.102277 0.00102594 -0.00154034)
(0.102284 0.000914616 -0.00146081)
(0.102304 0.000815315 -0.00140199)
(0.102336 0.000721261 -0.00135718)
(0.103429 0.000546844 -0.00204416)
(0.103682 0.000499702 -0.00193495)
(0.103901 0.000453792 -0.00182922)
(0.1041 0.000405195 -0.00173107)
(0.104291 0.00035373 -0.0016447)
(0.104476 0.000301523 -0.00158511)
(0.10465 0.000245094 -0.00155471)
(0.103123 -0.000596542 -0.00213497)
(0.103426 -0.000552127 -0.00204566)
(0.103678 -0.000508649 -0.00193721)
(0.103894 -0.000469301 -0.00183288)
(0.104088 -0.000431657 -0.00173708)
(0.104272 -0.0003976 -0.00165525)
(0.104444 -0.000371191 -0.00160381)
(0.104596 -0.000354495 -0.00158645)
(0.102251 -0.00160864 -0.00211774)
(0.102273 -0.00146126 -0.0019674)
(0.102273 -0.00130658 -0.00180639)
(0.102262 -0.0011593 -0.00165948)
(0.10225 -0.00103312 -0.00155549)
(0.102238 -0.00092609 -0.00148662)
(0.102226 -0.000830967 -0.00144542)
(0.0997072 -0.00191574 -0.00182481)
(0.0991807 -0.00166439 -0.00157823)
(0.098684 -0.0014603 -0.00139442)
(0.0982332 -0.00129157 -0.00125772)
(0.0978342 -0.00115067 -0.00115964)
(0.0974825 -0.00103074 -0.00109372)
(0.0971731 -0.000924487 -0.00105267)
(0.0943924 -0.00138121 -0.00138405)
(0.0931632 -0.0010681 -0.00107291)
(0.0920758 -0.00085043 -0.00085869)
(0.0911129 -0.000695428 -0.000709727)
(0.0902594 -0.000577982 -0.000603775)
(0.0894919 -0.000485367 -0.000527986)
(0.0887918 -0.000411677 -0.000477908)
(0.0798654 -0.000896156 -0.00118075)
(0.0775673 -0.000690629 -0.00104298)
(0.0755584 -0.000557929 -0.000947066)
(0.0737524 -0.000475464 -0.000873035)
(0.072104 -0.000424199 -0.000805879)
(0.0705856 -0.000390548 -0.000741096)
(0.0691794 -0.000367879 -0.00068544)
(0.056685 0.000325783 -0.000321458)
(0.05455 0.00025607 -0.000248988)
(0.0526979 0.000207581 -0.000195951)
(0.0510603 0.000174762 -0.000155032)
(0.0495999 0.000154164 -0.000121413)
(0.0482851 0.000142228 -8.98253e-05)
(0.0470895 0.000138083 -5.60174e-05)
(0.0775674 0.00104301 -0.000690604)
(0.0755585 0.000947096 -0.0005579)
(0.0737525 0.000873071 -0.00047543)
(0.0721041 0.000805923 -0.000424154)
(0.0705858 0.000741151 -0.000390493)
(0.0691795 0.000685519 -0.000367824)
(0.0678736 0.000644104 -0.000354466)
(0.0898585 0.00170686 -0.00115824)
(0.0884625 0.00160727 -0.00106695)
(0.0871714 0.0014984 -0.00099339)
(0.0859795 0.00139039 -0.000942467)
(0.0848745 0.00129007 -0.000909984)
(0.0838417 0.0011969 -0.000890005)
(0.0828745 0.00110602 -0.000876101)
(0.0952025 0.00137576 -0.00137125)
(0.0945772 0.00132775 -0.00128415)
(0.0939376 0.00125312 -0.00122772)
(0.0933181 0.00115785 -0.00118903)
(0.092719 0.00105302 -0.00116347)
(0.0921341 0.000945403 -0.00114835)
(0.0915614 0.000834133 -0.00114052)
(0.0968336 0.000437262 -0.00138779)
(0.0965349 0.000427543 -0.00126867)
(0.0962827 0.000413841 -0.00119713)
(0.0960124 0.000387167 -0.00116847)
(0.0957251 0.000347951 -0.00116444)
(0.0954207 0.000298077 -0.00117044)
(0.0950895 0.000235318 -0.00118203)
(0.0971805 -0.000453907 -0.0015474)
(0.0968301 -0.000444098 -0.00138877)
(0.0965291 -0.000439118 -0.00127051)
(0.0962728 -0.000433233 -0.00120045)
(0.0959956 -0.000419396 -0.00117408)
(0.0956967 -0.000401109 -0.00117379)
(0.0953724 -0.00038566 -0.00118622)
(0.0950071 -0.000379972 -0.00120905)
(0.0958635 -0.00141037 -0.00149847)
(0.0951944 -0.00137932 -0.0013723)
(0.0945632 -0.00133398 -0.00128644)
(0.0939137 -0.00126313 -0.00123277)
(0.0932777 -0.0011735 -0.00119875)
(0.0926506 -0.00107774 -0.00118147)
(0.0920193 -0.000986459 -0.00117819)
(0.0913622 -0.00180107 -0.00127155)
(0.0898505 -0.00170484 -0.00116057)
(0.0884487 -0.00160387 -0.00107072)
(0.0871483 -0.00149275 -0.000999593)
(0.0859405 -0.00138098 -0.000952249)
(0.0848085 -0.00127477 -0.000926957)
(0.083731 -0.00117299 -0.000919477)
(0.0798637 -0.00117822 -0.000897851)
(0.0775642 -0.00103863 -0.00069336)
(0.0755528 -0.00093958 -0.000562485)
(0.0737426 -0.000860138 -0.000483152)
(0.0720864 -0.00078364 -0.00043906)
(0.0705537 -0.000704013 -0.000416331)
(0.0691231 -0.000625611 -0.000405987)
(0.0592208 -0.000424903 -0.000427391)
(0.056685 -0.000321482 -0.000325765)
(0.05455 -0.000249016 -0.000256047)
(0.0526979 -0.000195987 -0.000207553)
(0.0510603 -0.000155078 -0.000174725)
(0.0495998 -0.000121475 -0.000154118)
(0.048285 -8.98956e-05 -0.000142164)
)
;

boundaryField
{
    inlet
    {
        type            fixedValue;
        value           nonuniform List<vector> 0();
    }
    ami1
    {
        type            cyclicAMI;
        value           nonuniform List<vector> 0();
    }
    walls
    {
        type            noSlip;
    }
    ami2
    {
        type            cyclicAMI;
        value           nonuniform List<vector> 0();
    }
    outlet
    {
        type            zeroGradient;
    }
    procBoundary3to2
    {
        type            processor;
        value           nonuniform List<vector> 
110
(
(0.0460019 1.6809e-05 0.000142178)
(0.0665008 0.000454414 0.000411227)
(0.0816662 0.000958184 0.000948765)
(0.0906811 0.000828982 0.0012195)
(0.0945858 0.000393329 0.00124879)
(0.0947242 -0.000157618 0.00120244)
(0.0915611 -0.000834177 0.00114059)
(0.0915611 -0.000834177 0.00114059)
(0.0828742 -0.001106 0.000876164)
(0.0678733 -0.000644011 0.000354492)
(0.0470894 -0.000138026 5.60966e-05)
(0.0666611 0.000342346 0.000617524)
(0.0875882 0.000273083 0.000432375)
(0.0966589 0.000714049 0.00103175)
(0.102191 0.000663597 0.00144284)
(0.104724 0.000349029 0.00159628)
(0.104812 -0.000176379 0.00154536)
(0.102336 -0.000721311 0.00135727)
(0.102336 -0.000721311 0.00135727)
(0.0970012 -0.000891527 0.000938131)
(0.0881563 -0.000447252 0.000346329)
(0.0677772 -0.000403994 0.00054701)
(0.0819764 0.000860611 0.00101072)
(0.0968163 0.000878416 0.000826368)
(0.103034 0.000951874 0.00108298)
(0.106732 0.000736209 0.00141149)
(0.108493 0.000317139 0.00154773)
(0.108531 -0.00024941 0.00149772)
(0.106492 -0.000831243 0.00136375)
(0.106492 -0.000831243 0.00136375)
(0.102936 -0.00112702 0.00104439)
(0.0969007 -0.00103177 0.000822052)
(0.0826892 -0.000926737 0.00106996)
(0.0910015 0.00113376 0.000712891)
(0.102383 0.00132048 0.000622488)
(0.106804 0.0012954 0.000763342)
(0.109287 0.000912064 0.000966412)
(0.110452 0.000342663 0.00105799)
(0.110461 -0.000343512 0.00103154)
(0.108798 -0.00101096 0.000975557)
(0.108798 -0.00101096 0.000975557)
(0.106445 -0.0014366 0.000813224)
(0.102213 -0.00142996 0.000744948)
(0.0913693 -0.00118958 0.00090364)
(0.0947245 0.00120236 0.00015762)
(0.104812 0.00154525 0.000176413)
(0.108532 0.00149761 0.000249448)
(0.110461 0.00103144 0.0003435)
(0.111338 0.000371558 0.000380174)
(0.111338 -0.00038024 0.000371702)
(0.109863 -0.00109779 0.000364879)
(0.109863 -0.00109779 0.000364879)
(0.108085 -0.00157134 0.000335881)
(0.104596 -0.00158645 0.000354387)
(0.095007 -0.00120904 0.000379875)
(0.094586 0.00124876 -0.000393368)
(0.104724 0.00159621 -0.000349039)
(0.108493 0.00154762 -0.000317134)
(0.110452 0.00105784 -0.000342683)
(0.111338 0.000379997 -0.00037161)
(0.111338 -0.000371804 -0.00038006)
(0.10987 -0.00108072 -0.00036478)
(0.10987 -0.00108072 -0.00036478)
(0.108111 -0.00153966 -0.000291489)
(0.10465 -0.00155473 -0.000245134)
(0.0950893 -0.00118205 -0.000235374)
(0.0906813 0.00121949 -0.000829057)
(0.102191 0.00144279 -0.000663646)
(0.106732 0.00141139 -0.000736238)
(0.109287 0.000966251 -0.000912086)
(0.110461 0.000343308 -0.00103146)
(0.110452 -0.000342882 -0.00105786)
(0.108798 -0.000975659 -0.00101083)
(0.108798 -0.000975659 -0.00101083)
(0.106492 -0.0013638 -0.000831144)
(0.102336 -0.00135725 -0.000721236)
(0.0915612 -0.00114056 -0.000834124)
(0.0816663 0.000948754 -0.000958269)
(0.096659 0.0010317 -0.000714112)
(0.103034 0.00108289 -0.000951927)
(0.106804 0.000763193 -0.00129543)
(0.108532 0.000249261 -0.0014976)
(0.108493 -0.000317329 -0.00154757)
(0.106445 -0.000813352 -0.00143651)
(0.106445 -0.000813352 -0.00143651)
(0.102936 -0.00104449 -0.00112693)
(0.0970012 -0.000938165 -0.00089146)
(0.0828743 -0.000876156 -0.00110596)
(0.0665009 0.000411212 -0.000454496)
(0.0875883 0.000432316 -0.000273152)
(0.0968164 0.000826298 -0.000878495)
(0.102383 0.000622375 -0.00132051)
(0.104812 0.000176263 -0.00154522)
(0.104724 -0.00034921 -0.00159612)
(0.102213 -0.000745089 -0.00142994)
(0.102213 -0.000745089 -0.00142994)
(0.0969007 -0.000822176 -0.00103173)
(0.0881563 -0.000346385 -0.000447204)
(0.0678733 -0.000354502 -0.000643976)
(0.046002 0.00014215 -1.68555e-05)
(0.0666612 0.000617473 -0.000342408)
(0.0819765 0.00101066 -0.000860669)
(0.0910016 0.000712785 -0.00113379)
(0.0947246 0.000157494 -0.00120232)
(0.0945861 -0.000393495 -0.00124868)
(0.0913694 -0.000903785 -0.00118959)
(0.0913694 -0.000903785 -0.00118959)
(0.0826892 -0.00107008 -0.000926728)
(0.0677772 -0.000547065 -0.00040397)
(0.0470894 -5.6123e-05 -0.000138015)
)
;
    }
    procBoundary3to4
    {
        type            processor;
        value           nonuniform List<vector> 
109
(
(0.0592208 0.00042487 0.000427425)
(0.0798637 0.00117819 0.000897867)
(0.0913621 0.00180103 0.00127157)
(0.0958635 0.00141033 0.00149848)
(0.0971804 0.000453879 0.00154742)
(0.0971824 -0.000449937 0.00154684)
(0.0958681 -0.00140823 0.00149786)
(0.0913667 -0.00180232 0.00127018)
(0.0798653 -0.00118076 0.000896141)
(0.0592208 -0.000427398 0.000424897)
(0.0798654 0.000896129 0.00118079)
(0.0943924 0.00138116 0.00138408)
(0.0997072 0.0019157 0.00182483)
(0.102251 0.0016086 0.00211776)
(0.103123 0.000596503 0.00213499)
(0.103125 -0.000593346 0.00213403)
(0.102254 -0.00160788 0.0021154)
(0.0997098 -0.00191779 0.00182235)
(0.0943924 -0.00138406 0.00138119)