/*--------------------------------*- C++ -*----------------------------------*\
| =========                 |                                                 |
| \\      /  F ield         | OpenFOAM: The Open Source CFD Toolbox           |
|  \\    /   O peration     | Version:  2212                                  |
|   \\  /    A nd           | Website:  www.openfoam.com                      |
|    \\/     M anipulation  |                                                 |
\*---------------------------------------------------------------------------*/
FoamFile
{
    version     2.0;
    format      ascii;
    arch        "LSB;label=32;scalar=64";
    class       volScalarField;
    location    "0.7";
    object      k;
}
// * * * * * * * * * * * * * * * * * * * * * * * * * * * * * * * * * * * * * //

dimensions      [0 2 -2 0 0 0 0];

internalField   nonuniform List<scalar> 
693
(
0.00238999
0.00238662
0.00238333
0.00238019
0.00237758
0.00237582
0.00208737
0.00208296
0.00207904
0.00207569
0.00207301
0.002071
0.00209806
0.00209195
0.00208692
0.00208284
0.00207971
0.00207724
0.00210081
0.0020933
0.00208726
0.00208237
0.00207856
0.00207548
0.0020983
0.00208979
0.00208273
0.00207712
0.00207272
0.00206917
0.00208158
0.00207287
0.00206575
0.00206004
0.00205553
0.00205186
0.00205395
0.00204559
0.00203875
0.00203327
0.00202897
0.00202541
0.00201684
0.00200931
0.00200318
0.00199833
0.00199458
0.0019914
0.00198597
0.00197975
0.00197466
0.0019706
0.0019675
0.00196487
0.00200949
0.00200506
0.0020011
0.00199767
0.00199493
0.00199279
0.00239065
0.0023873
0.00238398
0.00238077
0.00237812
0.00237637
0.00200907
0.00200466
0.00200071
0.0019973
0.00199458
0.00199256
0.00180288
0.00179166
0.0017818
0.00177458
0.00176972
0.00176616
0.00216672
0.00214804
0.0021335
0.00212231
0.00211568
0.00211023
0.00236858
0.00234647
0.00232958
0.00231628
0.00230749
0.00229851
0.00249066
0.0024675
0.00244918
0.00243491
0.0024241
0.00241426
0.00255224
0.00252819
0.00250911
0.00249412
0.00248261
0.0024721
0.00253902
0.00251529
0.00249649
0.0024817
0.00247055
0.0024601
0.00242069
0.00239878
0.00238174
0.00236825
0.00235941
0.00235002
0.00216702
0.00214786
0.00213296
0.00212218
0.00211535
0.00210796
0.00180359
0.00179241
0.00178259
0.00177546
0.00177064
0.00176602
0.00208812
0.00208377
0.00207989
0.00207654
0.00207385
0.00207178
0.00198615
0.00198014
0.00197517
0.00197111
0.00196799
0.00196547
0.00216761
0.00214972
0.00213539
0.002124
0.00211684
0.00210997
0.0025971
0.00257102
0.00255021
0.0025344
0.00252208
0.00251122
0.00290169
0.00287075
0.00284556
0.0028254
0.00280945
0.0027945
0.00308603
0.00305155
0.00302315
0.00300006
0.00298134
0.00296446
0.00316023
0.00312445
0.00309494
0.00307086
0.00305123
0.00303365
0.00311493
0.00308072
0.00305245
0.00302944
0.00301074
0.00299382
0.00293012
0.00289932
0.00287411
0.00285435
0.00283845
0.0028233
0.00259699
0.00257096
0.00255016
0.0025343
0.00252218
0.00251052
0.00216888
0.00215157
0.00213689
0.00212552
0.00211849
0.00211168
0.0020993
0.00209341
0.00208841
0.0020843
0.00208109
0.00207849
0.00201746
0.0020101
0.00200411
0.00199932
0.0019956
0.00199246
0.00242419
0.00240219
0.00238531
0.00237181
0.0023627
0.00235346
0.00293144
0.00290091
0.00287607
0.00285631
0.00284046
0.00282558
0.00330247
0.00326474
0.00323389
0.00320865
0.00318772
0.00316868
0.00352926
0.00348643
0.0034509
0.00342146
0.00339718
0.00337661
0.00361104
0.00356615
0.00352887
0.00349797
0.00347246
0.00345115
0.00353745
0.00349509
0.00345986
0.00343061
0.00340644
0.00338591
0.00330175
0.00326382
0.00323285
0.00320754
0.0031866
0.00316746
0.00290364
0.00287244
0.00284705
0.00282657
0.00281074
0.00279552
0.00237412
0.0023522
0.00233482
0.00232111
0.00231177
0.00230271
0.00210259
0.00209527
0.00208924
0.00208428
0.00208036
0.00207712
0.00205502
0.00204682
0.0020401
0.0020347
0.00203042
0.00202682
0.00254433
0.00252042
0.00250149
0.00248652
0.00247541
0.00246461
0.00311741
0.00308349
0.00305552
0.00303269
0.00301408
0.00299722
0.00353788
0.00349589
0.00346104
0.00343213
0.00340815
0.00338802
0.0037939
0.00374664
0.00370685
0.00367341
0.00364558
0.0036233
0.00388385
0.00383366
0.00379143
0.00375601
0.00372658
0.0037029
0.0037946
0.00374652
0.00370623
0.00367249
0.00364455
0.0036215
0.0035271
0.00348462
0.00344943
0.00342032
0.00339628
0.00337577
0.00308836
0.00305368
0.00302516
0.00300198
0.00298309
0.00296603
0.00249974
0.00247554
0.00245623
0.00244106
0.0024294
0.00241897
0.00210035
0.00209207
0.00208505
0.00207935
0.0020748
0.00207105
0.00208325
0.00207473
0.0020677
0.00206201
0.00205743
0.0020536
0.00256058
0.00253608
0.00251648
0.00250092
0.0024886
0.00247622
0.00316344
0.00312815
0.00309898
0.00307504
0.00305511
0.00303741
0.00360901
0.00356545
0.00352902
0.0034989
0.00347384
0.00345434
0.00388061
0.00383161
0.00379036
0.00375569
0.00372695
0.00370571
0.00397448
0.00392282
0.00387919
0.00384247
0.003812
0.0037882
0.00388189
0.0038319
0.00378988
0.00375465
0.00372538
0.0037016
0.00360743
0.00356329
0.00352667
0.0034963
0.00347114
0.00344995
0.00316167
0.00312575
0.0030962
0.00307212
0.0030524
0.00303473
0.00256007
0.00253516
0.00251528
0.00249954
0.00248738
0.00247637
0.00208345
0.0020749
0.00206778
0.00206199
0.00205735
0.00205349
0.00210014
0.00209179
0.00208492
0.00207932
0.00207475
0.00249967
0.00247613
0.00245726
0.00244227
0.00242944
0.00308972
0.00305563
0.00302746
0.00300427
0.00298377
0.00352811
0.003486
0.00345113
0.00342227
0.00339773
0.00379268
0.00374544
0.00370588
0.00367277
0.00364537
0.00388132
0.00383164
0.00378987
0.00375485
0.0037259
0.00370438
0.00379355
0.00374533
0.00370496
0.00367127
0.00364334
0.00362052
0.00353573
0.00349308
0.00345783
0.00342876
0.00340466
0.00338373
0.00311509
0.00308053
0.0030522
0.00302922
0.00301066
0.0029938
0.00254202
0.00251824
0.00249941
0.00248444
0.00247347
0.00246292
0.00205505
0.00204683
0.00204003
0.00203453
0.00203019
0.00202654
0.0020958
0.00208957
0.00208446
0.00208024
0.00235142
0.00233409
0.00232155
0.0023102
0.00290478
0.00287392
0.00284877
0.00282862
0.00281028
0.00330294
0.00326514
0.00323444
0.00320923
0.00318688
0.00353746
0.00349513
0.00346013
0.00343119
0.00340652
0.00360875
0.00356433
0.00352749
0.00349694
0.00347168
0.00345171
0.00352731
0.00348401
0.00344835
0.0034191
0.00339506
0.00337489
0.00329996
0.00326158
0.00323048
0.0032053
0.00318453
0.00316567
0.00292915
0.00289807
0.00287291
0.00285312
0.00283748
0.00282262
0.00242211
0.00240026
0.00238345
0.0023701
0.00236119
0.00235175
0.00201753
0.00201015
0.00200407
0.00199922
0.00199544
0.0019922
0.00209355
0.00208841
0.00208425
0.00208078
0.00214941
0.00213482
0.00212519
0.00211645
0.0025984
0.00257254
0.00255199
0.00253661
0.00252259
0.0029327
0.00290187
0.00287691
0.00285725
0.00283913
0.00311724
0.00308289
0.00305468
0.00303155
0.00301113
0.00316121
0.00312529
0.00309581
0.00307179
0.00305197
0.00303424
0.00308543
0.00305054
0.00302214
0.00299925
0.00298083
0.00296423
0.00290044
0.00286898
0.00284363
0.00282344
0.00280808
0.00279346
0.0025954
0.00256916
0.00254836
0.00253262
0.00252105
0.00250989
0.00216773
0.00214888
0.00213432
0.00212364
0.00211667
0.00210924
0.00198637
0.00198032
0.00197527
0.00197121
0.00196808
0.00196543
0.00208389
0.00208003
0.0020767
0.002074
0.00179215
0.00178313
0.00177612
0.0017715
0.0021681
0.00214966
0.00213624
0.00212664
0.00211764
0.00242674
0.00240468
0.00238756
0.00237456
0.00236267
0.00254547
0.0025215
0.00250242
0.00248742
0.00247429
0.00255764
0.0025332
0.00251382
0.00249857
0.00248669
0.00247408
0.00249283
0.00246983
0.00245171
0.00243758
0.00242701
0.00241689
0.00237027
0.0023484
0.00233138
0.00231815
0.00230946
0.00230087
0.00216745
0.00215028
0.00213557
0.00212459
0.00211755
0.00211098
0.00180411
0.00179316
0.00178377
0.00177657
0.00177133
0.00176584
0.00200967
0.00200531
0.0020014
0.00199798
0.00199521
0.00199299
0.0023874
0.00238397
0.00238084
0.00237844
0.00200539
0.00200143
0.00199805
0.00199538
0.00198674
0.00198075
0.00197579
0.0019718
0.00196842
0.00201841
0.00201112
0.00200505
0.00200014
0.00199593
0.0020556
0.00204744
0.00204065
0.00203511
0.00203046
0.0020829
0.00207436
0.0020673
0.00206159
0.00205698
0.00205314
0.00209905
0.00209066
0.0020837
0.00207816
0.00207381
0.00207022
0.0021014
0.002094
0.00208798
0.00208314
0.00207937
0.00207629
0.00209859
0.00209265
0.00208764
0.00208358
0.00208045
0.00207795
0.00208798
0.00208362
0.00207975
0.00207641
0.00207373
0.00207162
0.00239071
0.00238742
0.00238412
0.00238092
0.00237825
0.0023765
)
;

boundaryField
{
    inlet
    {
        type            fixedValue;
        value           nonuniform List<scalar> 0();
    }
    ami1
    {
        type            cyclicAMI;
        value           nonuniform List<scalar> 0();
    }
    walls
    {
        type            kqRWallFunction;
        value           nonuniform List<scalar> 
248
(
0.00238999
0.00208737
0.00209806
0.00210081
0.0020983
0.00208158
0.00205395
0.00201684
0.00198597
0.00200949
0.00239065
0.00238662
0.00208296
0.00209195
0.0020933
0.00208979
0.00207287
0.00204559
0.00200931
0.00197975
0.00200506
0.0023873
0.00238333
0.00207904
0.00208692
0.00208726
0.00208273
0.00206575
0.00203875
0.00200318
0.00197466
0.0020011
0.00238398
0.00238019
0.00207569
0.00208284
0.00208237
0.00207712
0.00206004
0.00203327
0.00199833
0.0019706
0.00199767
0.00238077
0.00237758
0.00207301
0.00207971
0.00207856
0.00207272
0.00205553
0.00202897
0.00199458
0.0019675
0.00199493
0.00237812
0.00237582
0.002071
0.00207724
0.00207548
0.00206917
0.00205186
0.00202541
0.0019914
0.00196487
0.00199279
0.00237637
0.00239065
0.00208812
0.0020993
0.00210259
0.00210035
0.00208345
0.00205505
0.00201753
0.00198637
0.00200967
0.00239071
0.0023873
0.00208377
0.00209341
0.00209527
0.00209207
0.0020749
0.00204683
0.00201015
0.00198032
0.00200531
0.00238742
0.00238398
0.00207989
0.00208841
0.00208924
0.00208505
0.00206778
0.00204003
0.00200407
0.00197527
0.0020014
0.00238412
0.00238077
0.00207654
0.0020843
0.00208428
0.00207935
0.00206199
0.00203453
0.00199922
0.00197121
0.00199798
0.00238092
0.00237812
0.00207385
0.00208109
0.00208036
0.0020748
0.00205735
0.00203019
0.00199544
0.00196808
0.00199521
0.00237825
0.00237637
0.00207178
0.00207849
0.00207712
0.00207105
0.00205349
0.00202654
0.0019922
0.00196543
0.00199299
0.0023765
0.00198674
0.00201841
0.0020556
0.0020829
0.00209905
0.0021014
0.00209859
0.00208798
0.00239071
0.0023874
0.00200539
0.00198075
0.00201112
0.00204744
0.00207436
0.00209066
0.002094
0.00209265
0.00208362
0.00238742
0.00238397
0.00200143
0.00197579
0.00200505
0.00204065
0.0020673
0.0020837
0.00208798
0.00208764
0.00207975
0.00238412
0.00238084
0.00199805
0.0019718
0.00200014
0.00203511
0.00206159
0.00207816
0.00208314
0.00208358
0.00207641
0.00238092
0.00237844
0.00199538
0.00196842
0.00199593
0.00203046
0.00205698
0.00207381
0.00207937
0.00208045
0.00207373
0.00237825
0.00205314
0.00207022
0.00207629
0.00207795
0.00207162
0.0023765
0.00238999
0.00200907
0.00198615
0.00201746
0.00205502
0.00208325
0.00210014
0.00238662
0.00200466
0.00198014
0.0020101
0.00204682
0.00207473
0.00209179
0.0020958
0.00209355
0.00208389
0.0023874
0.00238333
0.00200071
0.00197517
0.00200411
0.0020401
0.0020677
0.00208492
0.00208957
0.00208841
0.00208003
0.00238397
0.00238019
0.0019973
0.00197111
0.00199932
0.0020347
0.00206201
0.00207932
0.00208446
0.00208425
0.0020767
0.00238084
0.00237758
0.00199458
0.00196799
0.0019956
0.00203042
0.00205743
0.00207475
0.00208024
0.00208078
0.002074
0.00237844
0.00237582
0.00199256
0.00196547
0.00199246
0.00202682
0.0020536
)
;
    }
    ami2
    {
        type            cyclicAMI;
        value           nonuniform List<scalar> 0();
    }
    outlet
    {
        type            zeroGradient;
    }
    procBoundary7to5
    {
        type            processor;
        value           nonuniform List<scalar> 
131
(
0.00237465
0.0020692
0.00207501
0.00207282
0.00206618
0.00204871
0.00202227
0.00198845
0.00196232
0.00199071
0.00237517
0.00199058
0.00175847
0.00209949
0.002287
0.00240176
0.00245917
0.00244721
0.00233743
0.00209651
0.00175793
0.00206984
0.00196307
0.00209865
0.00249748
0.00277923
0.0029486
0.00301764
0.00297804
0.00280801
0.00249655
0.00210052
0.00207608
0.00198952
0.00234069
0.00281045
0.00315206
0.00335918
0.0034335
0.00336847
0.00315066
0.00277985
0.00228995
0.00207419
0.00202357
0.00245116
0.00298157
0.00337116
0.00360586
0.00368512
0.00360352
0.00335826
0.00294976
0.00240552
0.00206771
0.00205019
0.00207089
0.00246239
0.00241438
0.0030221
0.00296519
0.00343859
0.00337776
0.003689
0.00362478
0.00377098
0.00368398
0.00343233
0.00301828
0.00246258
0.00205003
0.00207089
0.00241438
0.00296519
0.00337776
0.00362478
0.00362478
0.00368745
0.00360333
0.00336653
0.0029776
0.00244924
0.00202315
0.00207659
0.00229582
0.00279191
0.00316712
0.00338625
0.00338625
0.0034354
0.00335794
0.00314892
0.00280683
0.00233866
0.00198908
0.0020776
0.00210332
0.00250523
0.00282047
0.00299219
0.00299219
0.00301899
0.00294849
0.00277783
0.00249545
0.0020975
0.00196281
0.0020713
0.00176159
0.00210375
0.00234727
0.00245845
0.00245845
0.00246061
0.00240394
0.00228875
0.00210014
0.00175783
0.00199087
0.00237656
0.00199251
0.00196514
0.001992
0.00202628
0.00202628
0.00204966
0.00206698
0.00207348
0.00207565
0.00206971
0.00237529
)
;
    }
    procBoundary7to8
    {
        type            processor;
        value           nonuniform List<scalar> 
68
(
0.00239363
0.00209232
0.00210469
0.00210912
0.00210767
0.0020141
0.00181779
0.00218903
0.00239654
0.00252096
0.00199278
0.00219169
0.00262954
0.00293939
0.00312667
0.00202571
0.00245234
0.0029688
0.00334596
0.00357619
0.00206424
0.00257442
0.00315822
0.00358549
0.0038457
0.00393654
0.00209279
0.00259081
0.00320563
0.00365809
0.00393433
0.00402934
0.00210934
0.00210266
0.00252907
0.0023745
0.00313069
0.00357587
0.00384485
0.00393457
0.00210266
0.0023745
0.0023745
0.0029423
0.00334673
0.00358518
0.00365733
0.00209933
0.00217065
0.00217065
0.0026305
0.00297024
0.00315825
0.00320333
0.00208833
0.00180713
0.00180713
0.00219291
0.00245486
0.00257549
0.00258855
0.00239073
0.00201004
0.00201004
0.00199357
0.00202669
0.00206491
0.00209268
)
;
    }
    procBoundary7to9
    {
        type            processor;
        value           nonuniform List<scalar> 
59
(
0.0020913
0.00206332
0.00202522
0.00199281
0.00201463
0.00239429
0.00258317
0.0025694
0.00244868
0.00219149
0.00181912
0.00209317
0.00320193
0.00315568
0.00296722
0.00262947
0.00219244
0.00210597
0.00365892
0.0035846
0.00334533
0.00294137
0.00240125
0.00211084
0.00384595
0.00357465
0.00312964
0.00252953
0.00210972
0.00393483
0.00365645
0.00320422
0.00259085
0.00209316
0.00384482
0.00358331
0.00315626
0.00257251
0.00206446
0.00357414
0.0033437
0.00296664
0.00245033
0.00202595
0.00312629
0.00293846
0.00262827
0.00219244
0.00199319
0.00252329
0.00239812
0.00219124
0.00181957
0.00201475
0.00210851
0.00210978
0.0021053
0.00209294
0.00239429
)
;
    }
}


// ************************************************************************* //
