/*--------------------------------*- C++ -*----------------------------------*\
| =========                 |                                                 |
| \\      /  F ield         | OpenFOAM: The Open Source CFD Toolbox           |
|  \\    /   O peration     | Version:  2212                                  |
|   \\  /    A nd           | Website:  www.openfoam.com                      |
|    \\/     M anipulation  |                                                 |
\*---------------------------------------------------------------------------*/
FoamFile
{
    version     2.0;
    format      ascii;
    arch        "LSB;label=32;scalar=64";
    class       volScalarField;
    location    "0.7";
    object      nut;
}
// * * * * * * * * * * * * * * * * * * * * * * * * * * * * * * * * * * * * * //

dimensions      [0 2 -1 0 0 0 0];

internalField   nonuniform List<scalar> 
693
(
3.85281e-06
3.84837e-06
3.84421e-06
3.8402e-06
3.8367e-06
3.8341e-06
7.68771e-06
7.67534e-06
7.66414e-06
7.6542e-06
7.64582e-06
7.63941e-06
1.11997e-05
1.11746e-05
1.11534e-05
1.11355e-05
1.11214e-05
1.11102e-05
1.3837e-05
1.37996e-05
1.37693e-05
1.37434e-05
1.37223e-05
1.37048e-05
1.54712e-05
1.5424e-05
1.53823e-05
1.53477e-05
1.53196e-05
1.52967e-05
1.59493e-05
1.58989e-05
1.58559e-05
1.58199e-05
1.57902e-05
1.57659e-05
1.52596e-05
1.52126e-05
1.51729e-05
1.51395e-05
1.51123e-05
1.50895e-05
1.34841e-05
1.3446e-05
1.3414e-05
1.33876e-05
1.33661e-05
1.33478e-05
1.08268e-05
1.08007e-05
1.07788e-05
1.07607e-05
1.07462e-05
1.07336e-05
7.50766e-06
7.49558e-06
7.48459e-06
7.4748e-06
7.46642e-06
7.45923e-06
3.85324e-06
3.84883e-06
3.84465e-06
3.84063e-06
3.83714e-06
3.83456e-06
7.50722e-06
7.49521e-06
7.48423e-06
7.47439e-06
7.46593e-06
7.45953e-06
1.35432e-05
1.35847e-05
1.3472e-05
1.34348e-05
1.34122e-05
1.34332e-05
2.87789e-05
2.85686e-05
2.83961e-05
2.82405e-05
2.83923e-05
2.83e-05
4.07289e-05
4.04887e-05
4.04455e-05
4.02006e-05
4.04097e-05
3.98019e-05
4.83723e-05
4.84637e-05
4.83943e-05
4.8362e-05
4.82287e-05
4.76791e-05
5.22436e-05
5.23571e-05
5.23096e-05
5.2217e-05
5.21163e-05
5.14759e-05
5.06154e-05
5.06854e-05
5.05937e-05
5.05168e-05
5.03751e-05
4.97334e-05
4.28465e-05
4.28397e-05
4.28428e-05
4.26222e-05
4.28868e-05
4.21655e-05
2.94487e-05
2.92922e-05
2.91451e-05
2.9124e-05
2.9167e-05
2.87553e-05
1.35391e-05
1.35916e-05
1.34833e-05
1.34528e-05
1.3436e-05
1.33452e-05
7.689e-06
7.67683e-06
7.66578e-06
7.65596e-06
7.64762e-06
7.64083e-06
1.08273e-05
1.08023e-05
1.07811e-05
1.07631e-05
1.07486e-05
1.0736e-05
2.94667e-05
2.95226e-05
2.93865e-05
2.91955e-05
2.92608e-05
2.88706e-05
5.62162e-05
5.58387e-05
5.56138e-05
5.59591e-05
5.56357e-05
5.50792e-05
7.58453e-05
7.58179e-05
7.57833e-05
7.58352e-05
7.57636e-05
7.42918e-05
8.7582e-05
8.76613e-05
8.7594e-05
8.7466e-05
8.71807e-05
8.56666e-05
9.22768e-05
9.23398e-05
9.22629e-05
9.21229e-05
9.17647e-05
9.01477e-05
8.94555e-05
8.94317e-05
8.92664e-05
8.90789e-05
8.87825e-05
8.71757e-05
7.73827e-05
7.7267e-05
7.70915e-05
7.75379e-05
7.73419e-05
7.56823e-05
5.56997e-05
5.56098e-05
5.55027e-05
5.58164e-05
5.56484e-05
5.46305e-05
2.86856e-05
2.88286e-05
2.85466e-05
2.8381e-05
2.84648e-05
2.81078e-05
1.1203e-05
1.1179e-05
1.11582e-05
1.11404e-05
1.11259e-05
1.11138e-05
1.34877e-05
1.345e-05
1.34184e-05
1.33922e-05
1.33709e-05
1.33529e-05
4.33956e-05
4.31881e-05
4.31664e-05
4.29139e-05
4.311e-05
4.24094e-05
7.75317e-05
7.75128e-05
7.74951e-05
7.77005e-05
7.75762e-05
7.60487e-05
0.000102468
0.000101936
0.000102798
0.000103216
0.000102978
0.000100255
0.000116607
0.000115905
0.000116798
0.000117218
0.000117222
0.000115475
0.000121261
0.000120537
0.000121536
0.000122031
0.000122031
0.000120211
0.000117452
0.000116682
0.000117473
0.00011783
0.000117774
0.000115993
0.00010256
0.000101985
0.000102786
0.000103146
0.00010286
0.000100089
7.61173e-05
7.60513e-05
7.59721e-05
7.57651e-05
7.60916e-05
7.43688e-05
4.09827e-05
4.07906e-05
4.06293e-05
4.04195e-05
4.05961e-05
3.999e-05
1.38435e-05
1.38071e-05
1.3777e-05
1.3751e-05
1.37295e-05
1.37117e-05
1.52652e-05
1.52187e-05
1.51793e-05
1.51463e-05
1.51192e-05
1.50966e-05
5.13822e-05
5.11872e-05
5.10092e-05
5.08425e-05
5.08779e-05
5.00877e-05
8.99353e-05
8.99695e-05
8.98452e-05
8.96632e-05
8.93916e-05
8.77278e-05
0.000117994
0.000117278
0.000118033
0.000118421
0.00011826
0.00011643
0.000133279
0.000132447
0.000133416
0.000133886
0.000133687
0.000131635
0.000137586
0.0001368
0.000138023
0.000138643
0.000138416
0.000135509
0.000132843
0.00013202
0.000133075
0.000133596
0.000133643
0.000130667
0.000117195
0.000116455
0.000117235
0.000117612
0.000117528
0.000115694
8.84562e-05
8.84142e-05
8.82279e-05
8.80313e-05
8.75824e-05
8.59994e-05
4.93735e-05
4.91194e-05
4.89027e-05
4.87614e-05
4.85636e-05
4.79777e-05
1.54801e-05
1.54339e-05
1.53924e-05
1.53576e-05
1.5329e-05
1.53054e-05
1.5957e-05
1.59073e-05
1.58648e-05
1.5829e-05
1.57994e-05
1.57745e-05
5.32975e-05
5.30621e-05
5.28611e-05
5.26765e-05
5.24383e-05
5.15656e-05
9.33838e-05
9.33744e-05
9.31735e-05
9.2904e-05
9.22893e-05
9.02484e-05
0.000122821
0.000122056
0.000122389
0.000122902
0.000122431
0.000119987
0.000138734
0.000137851
0.000138824
0.000139266
0.000138634
0.000135769
0.000143312
0.000142438
0.000143596
0.000144171
0.000143782
0.000140483
0.000137946
0.000137093
0.000138214
0.000138787
0.00013854
0.000135165
0.000122145
0.000121367
0.000122214
0.000122612
0.000122411
0.00012048
9.31936e-05
9.31571e-05
9.2976e-05
9.27487e-05
9.22532e-05
9.05557e-05
5.32471e-05
5.3029e-05
5.28366e-05
5.2651e-05
5.24829e-05
5.18105e-05
1.59575e-05
1.59078e-05
1.58649e-05
1.58286e-05
1.57985e-05
1.57735e-05
1.54789e-05
1.54314e-05
1.53909e-05
1.53572e-05
1.53293e-05
4.92876e-05
4.91245e-05
4.8925e-05
4.87101e-05
4.81146e-05
8.86287e-05
8.86274e-05
8.84192e-05
8.79924e-05
8.64152e-05
0.000117676
0.000116931
0.000117706
0.000117969
0.00011612
0.000133767
0.000132946
0.000133892
0.000134196
0.000131393
0.000138249
0.000137418
0.000138516
0.000139036
0.000138601
0.000135775
0.000132852
0.000132044
0.000133139
0.00013372
0.000133416
0.000130229
0.000117627
0.000116899
0.000117724
0.000118158
0.000117809
0.000114836
8.97386e-05
8.97429e-05
8.95896e-05
8.94067e-05
8.91513e-05
8.74243e-05
5.08065e-05
5.0905e-05
5.08391e-05
5.06967e-05
5.0777e-05
5.00312e-05
1.52636e-05
1.52174e-05
1.51779e-05
1.51447e-05
1.51173e-05
1.50945e-05
1.3808e-05
1.37775e-05
1.37515e-05
1.37298e-05
4.0071e-05
4.02139e-05
4.03812e-05
3.99311e-05
7.61536e-05
7.61126e-05
7.60156e-05
7.60311e-05
7.46714e-05
0.000102885
0.000102367
0.000103262
0.000103512
0.000101477
0.000118054
0.000117372
0.000118219
0.000118541
0.000116528
0.000121986
0.000121313
0.000122282
0.000122633
0.000122322
0.000119873
0.000116621
0.00011596
0.000116947
0.000117526
0.000117451
0.000115666
0.000102337
0.000101816
0.000102696
0.00010321
0.000102917
0.000100195
7.73932e-05
7.73354e-05
7.72392e-05
7.75277e-05
7.75015e-05
7.58455e-05
4.29202e-05
4.29465e-05
4.30154e-05
4.28161e-05
4.30516e-05
4.2352e-05
1.34863e-05
1.34488e-05
1.34171e-05
1.33908e-05
1.33693e-05
1.33509e-05
1.11776e-05
1.11566e-05
1.11394e-05
1.11251e-05
2.80814e-05
2.81632e-05
2.83e-05
2.80541e-05
5.56565e-05
5.5599e-05
5.55541e-05
5.59506e-05
5.5212e-05
7.76882e-05
7.76608e-05
7.76398e-05
7.80277e-05
7.65545e-05
8.99552e-05
9.00133e-05
8.98947e-05
8.94726e-05
8.79092e-05
9.28197e-05
9.29025e-05
9.2828e-05
9.26502e-05
9.21261e-05
9.01204e-05
8.76749e-05
8.78141e-05
8.78005e-05
8.77197e-05
8.75046e-05
8.59601e-05
7.58691e-05
7.58203e-05
7.57482e-05
7.56719e-05
7.60598e-05
7.44015e-05
5.56608e-05
5.55549e-05
5.55161e-05
5.58072e-05
5.58566e-05
5.48757e-05
2.94605e-05
2.93584e-05
2.92744e-05
2.9244e-05
2.92598e-05
2.88847e-05
1.08279e-05
1.08023e-05
1.07808e-05
1.07628e-05
1.07482e-05
1.07353e-05
7.67617e-06
7.66535e-06
7.65586e-06
7.64841e-06
1.33975e-05
1.34862e-05
1.34249e-05
1.35461e-05
2.91933e-05
2.92156e-05
2.93211e-05
2.93889e-05
2.90286e-05
4.34889e-05
4.33355e-05
4.32831e-05
4.31896e-05
4.26186e-05
5.14791e-05
5.13352e-05
5.1173e-05
5.09858e-05
5.0335e-05
5.30978e-05
5.29474e-05
5.28096e-05
5.2655e-05
5.25593e-05
5.15787e-05
4.85406e-05
4.86814e-05
4.86622e-05
4.86215e-05
4.86065e-05
4.79999e-05
4.08613e-05
4.06879e-05
4.05881e-05
4.03835e-05
4.05981e-05
4.00225e-05
2.864e-05
2.88143e-05
2.85524e-05
2.84587e-05
2.84686e-05
2.81306e-05
1.35536e-05
1.36005e-05
1.35429e-05
1.35029e-05
1.34565e-05
1.33233e-05
7.50821e-06
7.49644e-06
7.48588e-06
7.47599e-06
7.46729e-06
7.45933e-06
3.84887e-06
3.84457e-06
3.84067e-06
3.83747e-06
7.49519e-06
7.48454e-06
7.47514e-06
7.46823e-06
1.08286e-05
1.08029e-05
1.07821e-05
1.07651e-05
1.07502e-05
1.34913e-05
1.34537e-05
1.3422e-05
1.33958e-05
1.33731e-05
1.52686e-05
1.52222e-05
1.51825e-05
1.5149e-05
1.51208e-05
1.59565e-05
1.59066e-05
1.58638e-05
1.58278e-05
1.57978e-05
1.57725e-05
1.54746e-05
1.5428e-05
1.53867e-05
1.53525e-05
1.53246e-05
1.53016e-05
1.38393e-05
1.38024e-05
1.37722e-05
1.37464e-05
1.37253e-05
1.3708e-05
1.12007e-05
1.11767e-05
1.11558e-05
1.1138e-05
1.11237e-05
1.11118e-05
7.68871e-06
7.67671e-06
7.66583e-06
7.65588e-06
7.64745e-06
7.64011e-06
3.85351e-06
3.84916e-06
3.84495e-06
3.84083e-06
3.83723e-06
3.83447e-06
)
;

boundaryField
{
    inlet
    {
        type            calculated;
        value           nonuniform List<scalar> 0();
    }
    ami1
    {
        type            cyclicAMI;
        value           nonuniform List<scalar> 0();
    }
    walls
    {
        type            nutkWallFunction;
        blending        stepwise;
        value           uniform 0;
    }
    ami2
    {
        type            cyclicAMI;
        value           nonuniform List<scalar> 0();
    }
    outlet
    {
        type            calculated;
        value           nonuniform List<scalar> 0();
    }
    procBoundary7to5
    {
        type            processor;
        value           nonuniform List<scalar> 
131
(
3.83207e-06
7.6326e-06
1.10989e-05
1.36889e-05
1.52766e-05
1.57442e-05
1.50689e-05
1.33302e-05
1.07204e-05
7.4508e-06
3.83248e-06
7.45153e-06
1.30349e-05
2.73655e-05
3.85242e-05
4.61822e-05
4.98221e-05
4.81464e-05
4.07663e-05
2.78338e-05
1.29609e-05
7.63351e-06
1.0723e-05
2.7917e-05
5.29875e-05
7.16867e-05
8.27923e-05
8.71426e-05
8.42497e-05
7.30058e-05
5.2728e-05
2.72325e-05
1.11016e-05
1.3335e-05
4.09366e-05
7.33723e-05
9.65842e-05
0.000110636
0.000115278
0.000111146
9.63882e-05
7.16551e-05
3.86211e-05
1.36946e-05
1.50754e-05
4.83334e-05
8.46915e-05
0.000111521
0.000126455
0.000130905
0.000125597
0.000110765
8.29973e-05
4.63612e-05
1.52838e-05
1.57519e-05
1.53047e-05
4.99184e-05
4.64121e-05
8.7425e-05
8.32168e-05
0.000115925
0.00011111
0.000131436
0.000126057
0.000136058
0.000130882
0.000115438
8.73941e-05
5.00214e-05
1.57506e-05
1.53047e-05
4.64121e-05
8.32168e-05
0.00011111
0.000126057
0.000126057
0.000131459
0.000126001
0.000110639
8.43915e-05
4.82714e-05
1.50728e-05
1.37096e-05
3.86357e-05
7.18911e-05
9.73068e-05
0.000111555
0.000111555
0.000115874
0.000110753
9.64752e-05
7.30211e-05
4.08368e-05
1.33326e-05
1.11108e-05
2.71898e-05
5.28399e-05
7.34352e-05
8.46466e-05
8.46466e-05
8.74479e-05
8.29548e-05
7.15936e-05
5.27094e-05
2.78747e-05
1.07219e-05
7.63956e-06
1.30833e-05
2.79858e-05
4.10533e-05
4.84888e-05
4.84888e-05
4.99264e-05
4.63324e-05
3.86191e-05
2.72296e-05
1.29718e-05
7.45067e-06
3.83467e-06
7.45827e-06
1.07344e-05
1.33512e-05
1.50948e-05
1.50948e-05
1.57493e-05
1.52804e-05
1.36915e-05
1.11001e-05
7.63278e-06
3.83234e-06
)
;
    }
    procBoundary7to8
    {
        type            processor;
        value           nonuniform List<scalar> 
68
(
3.85777e-06
7.70247e-06
1.12272e-05
1.38787e-05
1.55235e-05
7.52276e-06
1.40345e-05
2.9984e-05
4.29351e-05
5.03169e-05
1.08566e-05
3.11054e-05
5.97097e-05
7.96752e-05
9.14254e-05
1.35303e-05
4.59262e-05
8.14635e-05
0.000106981
0.000121605
1.5317e-05
5.42678e-05
9.43549e-05
0.0001235
0.000139138
0.000142673
1.60119e-05
5.59139e-05
9.8e-05
0.000128443
0.000144761
0.000149036
1.55299e-05
1.38423e-05
5.19348e-05
4.13395e-05
9.30002e-05
0.000123244
0.000139738
0.000143943
1.38423e-05
4.13395e-05
4.13395e-05
8.0003e-05
0.000107509
0.000123628
0.000127385
1.12023e-05
2.90956e-05
2.90956e-05
5.8399e-05
8.16623e-05
9.44189e-05
9.72132e-05
7.6898e-06
1.39148e-05
1.39148e-05
3.08257e-05
4.61119e-05
5.43729e-05
5.56083e-05
3.85333e-06
7.50987e-06
7.50987e-06
1.08587e-05
1.35341e-05
1.53205e-05
1.60125e-05
)
;
    }
    procBoundary7to9
    {
        type            processor;
        value           nonuniform List<scalar> 
59
(
1.60056e-05
1.53124e-05
1.3527e-05
1.08563e-05
7.52361e-06
3.85825e-06
5.42119e-05
5.28826e-05
4.47737e-05
3.09933e-05
1.40565e-05
7.70408e-06
9.63544e-05
9.36699e-05
8.06296e-05
5.85969e-05
3.0189e-05
1.12308e-05
0.000125998
0.000122816
0.000107019
7.98247e-05
4.30493e-05
1.38844e-05
0.000138151
0.000122617
9.27746e-05
5.19788e-05
1.55315e-05
0.000143327
0.000127801
9.78211e-05
5.58713e-05
1.6013e-05
0.000138074
0.000123105
9.40685e-05
5.31767e-05
1.53164e-05
0.000121439
0.000106876
8.06945e-05
4.49212e-05
1.35294e-05
9.14449e-05
7.95801e-05
5.85976e-05
3.10854e-05
1.08576e-05
5.04585e-05
4.30048e-05
3.02033e-05
1.40913e-05
7.52408e-06
1.55268e-05
1.38808e-05
1.12289e-05
7.70367e-06
3.85839e-06
)
;
    }
}


// ************************************************************************* //
