/*--------------------------------*- C++ -*----------------------------------*\
| =========                 |                                                 |
| \\      /  F ield         | OpenFOAM: The Open Source CFD Toolbox           |
|  \\    /   O peration     | Version:  2212                                  |
|   \\  /    A nd           | Website:  www.openfoam.com                      |
|    \\/     M anipulation  |                                                 |
\*---------------------------------------------------------------------------*/
FoamFile
{
    version     2.0;
    format      ascii;
    arch        "LSB;label=32;scalar=64";
    class       volScalarField;
    location    "2.9";
    object      epsilon;
}
// * * * * * * * * * * * * * * * * * * * * * * * * * * * * * * * * * * * * * //

dimensions      [0 2 -3 0 0 0 0];

internalField   nonuniform List<scalar> 
690
(
0.126018
0.122512
0.119309
0.116198
0.11337
0.110632
0.108098
0.105682
0.103308
0.101068
0.0989932
0.0492743
0.0476558
0.0461138
0.0446497
0.0433344
0.0421086
0.0409774
0.0399285
0.0389081
0.0379442
0.0370609
0.0349437
0.0337157
0.0324273
0.0312529
0.0302162
0.0292634
0.028392
0.0275687
0.0267807
0.0259907
0.0252652
0.0290756
0.0277791
0.0266114
0.0255451
0.0245706
0.0236868
0.0228663
0.0220393
0.0212838
0.0206144
0.0199761
0.026537
0.0252213
0.0240322
0.0229563
0.0219924
0.0211098
0.0202978
0.0195551
0.0188705
0.0182591
0.0176258
0.0469351
0.045016
0.0433834
0.0418414
0.0404743
0.0391892
0.0380183
0.0369271
0.0359008
0.0349541
0.0340966
0.0212734
0.0200695
0.0190316
0.0182186
0.0174132
0.0167311
0.0160967
0.0155047
0.0149521
0.0144852
0.0140002
0.0156171
0.014906
0.0139072
0.0133658
0.0125746
0.0121318
0.0115047
0.011109
0.0106589
0.0101599
0.00983912
0.0140749
0.0131665
0.0123668
0.0116679
0.0110339
0.010462
0.00996852
0.00944578
0.00910083
0.00857151
0.00828001
0.0134108
0.0124933
0.0116822
0.0109604
0.0103149
0.00973552
0.0092137
0.00874056
0.00831351
0.00792402
0.00757258
0.0321018
0.0307192
0.0294876
0.0282296
0.0271614
0.0261848
0.0253223
0.0245025
0.0237536
0.0230455
0.0223977
0.0150329
0.0141597
0.0132074
0.0126282
0.011766
0.0113215
0.0106304
0.0102574
0.00975003
0.00929277
0.00897425
0.0124974
0.0115932
0.0107897
0.0100657
0.00938613
0.00879974
0.00829976
0.00789617
0.00749718
0.00709346
0.00676873
0.0124146
0.0114365
0.0105719
0.00980223
0.00911688
0.00849811
0.00794752
0.00745429
0.00701385
0.00660424
0.00621797
0.0126245
0.0115948
0.0106843
0.00987618
0.00915673
0.00851352
0.00793674
0.00741824
0.00695021
0.00653124
0.00613759
0.0271719
0.0258186
0.024608
0.0235186
0.0225463
0.0216666
0.0208705
0.0201426
0.0194979
0.018856
0.0182545
0.0134681
0.0125795
0.0117903
0.0110864
0.010449
0.0098765
0.00935872
0.0088912
0.00846127
0.00806069
0.00773155
0.0122649
0.0112971
0.0104426
0.00968146
0.009002
0.00838796
0.00784014
0.00735285
0.00691369
0.00651503
0.00614767
0.0128491
0.0117658
0.0108093
0.00996161
0.00920824
0.0085344
0.00793126
0.00738911
0.00690034
0.00646119
0.00605304
0.0134929
0.0123235
0.0112914
0.0103774
0.00956555
0.00884174
0.00819452
0.00761417
0.00709207
0.00662365
0.00619154
0.0255862
0.0242249
0.0230096
0.0219209
0.0209439
0.0200646
0.0192727
0.0185608
0.0179194
0.017324
0.0167688
0.0130556
0.0121468
0.0113418
0.0106246
0.00998261
0.00940621
0.00888687
0.00841799
0.00799378
0.00760895
0.00726307
0.012505
0.0114821
0.0105796
0.00977914
0.00906721
0.0084304
0.00785892
0.0073454
0.00688205
0.00646463
0.00607796
0.0134794
0.0123094
0.0112773
0.010363
0.00954989
0.00882457
0.00817577
0.00759458
0.00707207
0.00660246
0.00617106
0.0143619
0.0130887
0.0119654
0.0109711
0.0100882
0.00930181
0.00859916
0.00796967
0.00740413
0.00689533
0.00643009
0.014692
0.0133826
0.0122276
0.0112056
0.0102983
0.00949052
0.00876911
0.0081231
0.00754303
0.00702165
0.00654511
0.0255378
0.0241832
0.0229647
0.0218667
0.0208756
0.019984
0.0191842
0.0184573
0.0177952
0.0171924
0.0166314
0.0131292
0.0122073
0.0113877
0.010658
0.010006
0.00942136
0.0088959
0.00842218
0.00799415
0.00760667
0.00725863
0.0126854
0.0116379
0.0107119
0.00989052
0.00915867
0.00850472
0.00791913
0.00739331
0.00691949
0.0064941
0.00610035
0.0137364
0.0125353
0.0114756
0.0105373
0.00970372
0.00896071
0.00829641
0.00770087
0.00716537
0.00668396
0.00624261
0.0146923
0.0133822
0.0122263
0.0112034
0.0102951
0.00948623
0.00876368
0.00811644
0.00753504
0.00701209
0.00653509
0.0150553
0.0137067
0.012517
0.0114641
0.0105295
0.00969733
0.00895422
0.00828879
0.00769131
0.00715405
0.00666442
0.026534
0.0252186
0.0240295
0.0229538
0.0219896
0.0211065
0.0202942
0.0195511
0.0188664
0.018253
0.0176186
0.0134083
0.0124919
0.0116808
0.0109588
0.0103124
0.00973262
0.00920999
0.00873648
0.00830995
0.00791874
0.00756761
0.0126247
0.011595
0.0106841
0.00987527
0.00915488
0.00851073
0.00793286
0.0074134
0.00694434
0.00652348
0.00613071
0.0134936
0.0123235
0.0112907
0.010376
0.00956316
0.00883826
0.00818987
0.00760828
0.00708494
0.00661497
0.0061825
0.0143628
0.013089
0.0119653
0.0109706
0.0100873
0.00930043
0.00859729
0.00796727
0.00740112
0.00689161
0.00642599
0.0146928
0.0133827
0.012227
0.0112044
0.0102965
0.00948808
0.00876598
0.00811919
0.00753828
0.00701589
0.00653895
0.0290698
0.0277739
0.0266063
0.0255402
0.0245655
0.0236838
0.0228597
0.0220325
0.0212771
0.0206081
0.0199672
0.0193766
0.0140715
0.0131719
0.0123688
0.0116747
0.0110329
0.0104703
0.00996057
0.00945558
0.00910266
0.0085775
0.00830973
0.00787464
0.0124127
0.0114363
0.0105722
0.00980351
0.00911716
0.00849912
0.00794613
0.00745316
0.00701176
0.00660296
0.00621569
0.0128472
0.0117645
0.0108084
0.00996083
0.00920753
0.00853327
0.00792966
0.00738698
0.00689784
0.00645849
0.00604999
0.0134774
0.0123077
0.011276
0.010362
0.00954914
0.00882394
0.00817513
0.00759391
0.0070714
0.00660176
0.00617021
0.0137341
0.0125335
0.0114745
0.0105371
0.00970438
0.00896216
0.00829862
0.00770382
0.00716906
0.00668853
0.0062471
0.0349337
0.0336996
0.0324122
0.0312385
0.0302031
0.0292504
0.0283802
0.0275539
0.0267655
0.0259769
0.025247
0.0246062
0.0156061
0.0149186
0.0139229
0.0133897
0.0125945
0.0121578
0.0115198
0.0111411
0.0106269
0.010236
0.00989068
0.00945723
0.0124889
0.0115953
0.0107908
0.0100781
0.00939261
0.00881197
0.00830426
0.00790703
0.00749798
0.00710682
0.00677931
0.0122614
0.011295
0.010442
0.00968166
0.00900286
0.00838884
0.0078408
0.0073535
0.00691389
0.00651596
0.006149
0.0125026
0.01148
0.010578
0.00977798
0.00906636
0.00842979
0.00785847
0.00734502
0.00688171
0.0064645
0.00607783
0.0126836
0.011636
0.0107105
0.00988977
0.00915862
0.00850512
0.00791999
0.00739461
0.00692113
0.00649656
0.00610256
0.0492713
0.0476432
0.0460957
0.0446315
0.0433165
0.0420884
0.040959
0.039907
0.0388891
0.0379327
0.0370446
0.0362343
0.0212668
0.0200797
0.019071
0.018241
0.0174528
0.0167654
0.0161369
0.0155446
0.0149881
0.0145083
0.0140998
0.0136577
0.0150027
0.0141523
0.0132015
0.0126251
0.0117664
0.0113234
0.0106366
0.0102589
0.00976808
0.00929847
0.00898272
0.0134623
0.0125738
0.0117842
0.0110808
0.0104439
0.00987263
0.00935582
0.00888937
0.00845993
0.00806008
0.00772463
0.0130548
0.0121448
0.0113389
0.0106213
0.00997937
0.00940323
0.00888435
0.00841578
0.00799172
0.00760705
0.00726107
0.0131309
0.0122076
0.0113872
0.0106572
0.010005
0.00942055
0.00889519
0.00842176
0.00799404
0.0076069
0.0072596
0.12601
0.1225
0.11929
0.116183
0.113351
0.110611
0.108081
0.105658
0.103288
0.101078
0.0989921
0.0970439
0.0469596
0.0450324
0.0433965
0.0418557
0.0404867
0.0391996
0.0380292
0.0369382
0.03591
0.0349657
0.0341106
0.0333076
0.0321387
0.0307454
0.0295104
0.0282513
0.0271824
0.0262056
0.0253421
0.0245249
0.0237751
0.0230688
0.022419
0.0271886
0.0258316
0.024619
0.0235291
0.0225568
0.0216777
0.0208823
0.0201556
0.019512
0.018871
0.01827
0.0255899
0.0242269
0.0230108
0.0219219
0.020945
0.020066
0.0192748
0.0185636
0.0179231
0.0173285
0.016771
0.0255408
0.0241834
0.0229632
0.0218641
0.0208725
0.0199809
0.0191812
0.0184547
0.0177932
0.0171913
0.0166288
)
;

boundaryField
{
    inlet
    {
        type            fixedValue;
        value           nonuniform List<scalar> 0();
    }
    ami1
    {
        type            cyclicAMI;
        value           nonuniform List<scalar> 0();
    }
    walls
    {
        type            epsilonWallFunction;
        blending        stepwise;
        value           nonuniform List<scalar> 
248
(
0.126018
0.0492743
0.0349437
0.0290756
0.026537
0.122512
0.0476558
0.0337157
0.0277791
0.0252213
0.119309
0.0461138
0.0324273
0.0266114
0.0240322
0.116198
0.0446497
0.0312529
0.0255451
0.0229563
0.11337
0.0433344
0.0302162
0.0245706
0.0219924
0.110632
0.0421086
0.0292634
0.0236868
0.0211098
0.108098
0.0409774
0.028392
0.0228663
0.0202978
0.105682
0.0399285
0.0275687
0.0220393
0.0195551
0.103308
0.0389081
0.0267807
0.0212838
0.0188705
0.101068
0.0379442
0.0259907
0.0206144
0.0182591
0.0989932
0.0370609
0.0252652
0.0199761
0.0176258
0.12601
0.0469596
0.0321387
0.0271886
0.0255899
0.0255408
0.1225
0.0450324
0.0307454
0.0258316
0.0242269
0.0241834
0.11929
0.0433965
0.0295104
0.024619
0.0230108
0.0229632
0.116183
0.0418557
0.0282513
0.0235291
0.0219219
0.0218641
0.113351
0.0404867
0.0271824
0.0225568
0.020945
0.0208725
0.110611
0.0391996
0.0262056
0.0216777
0.020066
0.0199809
0.108081
0.0380292
0.0253421
0.0208823
0.0192748
0.0191812
0.105658
0.0369382
0.0245249
0.0201556
0.0185636
0.0184547
0.103288
0.03591
0.0237751
0.019512
0.0179231
0.0177932
0.101078
0.0349657
0.0230688
0.018871
0.0173285
0.0171913
0.0989921
0.0341106
0.022419
0.01827
0.016771
0.0166288
0.0970439
0.0333076
0.126018
0.0469351
0.0321018
0.0271719
0.0255862
0.0255378
0.026534
0.0290698
0.0349337
0.0492713
0.12601
0.122512
0.045016
0.0307192
0.0258186
0.0242249
0.0241832
0.0252186
0.0277739
0.0336996
0.0476432
0.1225
0.119309
0.0433834
0.0294876
0.024608
0.0230096
0.0229647
0.0240295
0.0266063
0.0324122
0.0460957
0.11929
0.116198
0.0418414
0.0282296
0.0235186
0.0219209
0.0218667
0.0229538
0.0255402
0.0312385
0.0446315
0.116183
0.11337
0.0404743
0.0271614
0.0225463
0.0209439
0.0208756
0.0219896
0.0245655
0.0302031
0.0433165
0.113351
0.110632
0.0391892
0.0261848
0.0216666
0.0200646
0.019984
0.0211065
0.0236838
0.0292504
0.0420884
0.110611
0.108098
0.0380183
0.0253223
0.0208705
0.0192727
0.0191842
0.0202942
0.0228597
0.0283802
0.040959
0.108081
0.105682
0.0369271
0.0245025
0.0201426
0.0185608
0.0184573
0.0195511
0.0220325
0.0275539
0.039907
0.105658
0.103308
0.0359008
0.0237536
0.0194979
0.0179194
0.0177952
0.0188664
0.0212771
0.0267655
0.0388891
0.103288
0.101068
0.0349541
0.0230455
0.018856
0.017324
0.0171924
0.018253
0.0206081
0.0259769
0.0379327
0.101078
0.0989932
0.0340966
0.0223977
0.0182545
0.0167688
0.0166314
0.0176186
0.0199672
0.025247
0.0370446
0.0989921
0.0193766
0.0246062
0.0362343
0.0970439
)
;
    }
    ami2
    {
        type            cyclicAMI;
        value           nonuniform List<scalar> 0();
    }
    outlet
    {
        type            zeroGradient;
    }
    procBoundary8to0
    {
        type            processor;
        value           nonuniform List<scalar> 
29
(
0.129665
0.0510169
0.0363661
0.0305561
0.0280414
0.0487038
0.0218951
0.0166888
0.0150388
0.0144132
0.0336207
0.015945
0.0134695
0.0135141
0.0137986
0.0287095
0.0144198
0.0133466
0.0140825
0.0148285
0.0271461
0.0140596
0.0136658
0.0148139
0.0158133
0.0161834
0.0151058
0.0161841
0.0165898
)
;
    }
    procBoundary8to1
    {
        type            processor;
        value           nonuniform List<scalar> 
33
(
0.027086
0.0141528
0.0138791
0.028037
0.0144127
0.0137979
0.0148284
0.0158136
0.0161838
0.0305539
0.0150398
0.0135145
0.0140824
0.0148131
0.0151048
0.0363703
0.0167013
0.0134745
0.0133485
0.0136675
0.0138804
0.0510531
0.0219014
0.0159273
0.0144121
0.0140577
0.0141504
0.129718
0.0487714
0.0336836
0.0287413
0.0271545
0.0270925
)
;
    }
    procBoundary8to7
    {
        type            processor;
        value           nonuniform List<scalar> 
68
(
0.0969084
0.0362167
0.0246191
0.0193827
0.0170493
0.0332447
0.0138457
0.00946188
0.00786707
0.0072583
0.0217515
0.00862087
0.00640248
0.00582026
0.00579597
0.0176972
0.00736617
0.00583081
0.0056964
0.00581898
0.0162709
0.0069568
0.00574687
0.00579731
0.00602783
0.00613381
0.0161531
0.00694952
0.00576026
0.0058601
0.00612156
0.0062409
0.0170424
0.0170424
0.00726412
0.00726412
0.0057851
0.00580691
0.0060222
0.00612654
0.0188257
0.00770327
0.00582095
0.00582095
0.00569153
0.00579631
0.00586675
0.0240303
0.00927195
0.00640488
0.00640488
0.00582801
0.0057462
0.00576415
0.0354591
0.0135016
0.00864151
0.00864151
0.00737329
0.00695537
0.00695092
0.0950811
0.0325137
0.0217678
0.0217678
0.0177125
0.0162788
0.0161519
)
;
    }
    procBoundary8to9
    {
        type            processor;
        value           nonuniform List<scalar> 
132
(
0.0255492
0.024191
0.0229703
0.0218711
0.0208796
0.0199879
0.0191882
0.0184617
0.0178
0.017198
0.016638
0.0131308
0.0122087
0.0113894
0.0106603
0.0100088
0.00942487
0.00889994
0.00842687
0.00799933
0.0076125
0.00726538
0.0126847
0.0116371
0.0107118
0.0098913
0.00916051
0.00850753
0.00792294
0.00739825
0.00692547
0.00650176
0.00610774
0.0137356
0.0125352
0.0114764
0.0105392
0.00970693
0.0089653
0.00830246
0.0077085
0.00717468
0.0066953
0.00625433
0.0137356
0.0125352
0.0114764
0.0105392
0.00970693
0.0089653
0.00830246
0.0077085
0.00717468
0.0066953
0.00625433
0.0143621
0.0130893
0.0119664
0.0109725
0.01009
0.00930394
0.0086017
0.00797264
0.00740757
0.0068993
0.00643417
0.0146925
0.013383
0.0122277
0.0112053
0.0102976
0.0094894
0.00876755
0.00812106
0.0075405
0.00701851
0.00654187
0.0143629
0.0130898
0.0119667
0.0109727
0.0100901
0.00930399
0.00860168
0.00797255
0.00740743
0.00689912
0.00643387
0.0134907
0.0123219
0.0112903
0.0103768
0.0095651
0.00884133
0.00819407
0.00761364
0.00709149
0.00662293
0.00619047
0.0126208
0.0115924
0.010683
0.00987553
0.00915628
0.00851288
0.00793601
0.00741723
0.00694892
0.00653024
0.00613526
0.0134092
0.0124928
0.0116825
0.0109606
0.0103149
0.009735
0.00921259
0.0087405
0.00831141
0.00792842
0.00756373
0.0265307
0.0252133
0.0240232
0.0229473
0.0219831
0.0211001
0.020288
0.0195458
0.0188609
0.0182494
0.0176157
)
;
    }
}


// ************************************************************************* //
