/*--------------------------------*- C++ -*----------------------------------*\
| =========                 |                                                 |
| \\      /  F ield         | OpenFOAM: The Open Source CFD Toolbox           |
|  \\    /   O peration     | Version:  2212                                  |
|   \\  /    A nd           | Website:  www.openfoam.com                      |
|    \\/     M anipulation  |                                                 |
\*---------------------------------------------------------------------------*/
FoamFile
{
    version     2.0;
    format      ascii;
    arch        "LSB;label=32;scalar=64";
    class       surfaceVectorField;
    location    "2.9";
    object      Uf;
}
// * * * * * * * * * * * * * * * * * * * * * * * * * * * * * * * * * * * * * //

dimensions      [0 1 -1 0 0 0 0];

internalField   nonuniform List<vector> 
1815
(
(0.0278486 -4.13585e-05 -2.11442e-05)
(0.0352352 -5.49927e-05 -9.43314e-05)
(0.0342326 -9.67231e-05 -1.16097e-05)
(0.0274784 -4.68902e-05 -1.31993e-05)
(0.0348125 -7.65552e-05 -9.60039e-05)
(0.0337936 -8.20748e-05 9.68922e-07)
(0.0271187 -4.88713e-05 -5.2801e-06)
(0.0344071 -9.12118e-05 -9.18852e-05)
(0.0333703 -6.99707e-05 1.32193e-05)
(0.0267711 -4.87024e-05 -6.837e-07)
(0.0339985 -9.86643e-05 -8.78565e-05)
(0.0329455 -6.09776e-05 1.99512e-05)
(0.0264338 -4.77244e-05 1.69907e-06)
(0.0336129 -0.000102979 -8.57207e-05)
(0.0325463 -5.43673e-05 2.44525e-05)
(0.0261093 -4.66415e-05 3.25135e-06)
(0.0332324 -0.000105064 -8.35995e-05)
(0.0321531 -4.81775e-05 2.79937e-05)
(0.0257943 -4.55701e-05 4.72497e-06)
(0.0328655 -0.000106932 -8.15928e-05)
(0.0317773 -4.33803e-05 3.06466e-05)
(0.0254904 -4.46265e-05 6.18266e-06)
(0.0325096 -0.000108188 -7.84432e-05)
(0.0314158 -3.84337e-05 3.28246e-05)
(0.0251893 -4.44867e-05 6.76304e-06)
(0.0321528 -0.000110347 -7.58221e-05)
(0.0310596 -3.57096e-05 3.35917e-05)
(0.0248905 -4.39275e-05 6.76643e-06)
(0.031795 -0.000110153 -7.23265e-05)
(0.0307072 -3.51781e-05 3.26161e-05)
(0.031451 -0.000105036 -6.58884e-05)
(0.0303731 -3.5533e-05 2.99946e-05)
(0.045804 -0.000134925 -0.000216589)
(0.0536035 -0.000248033 -0.000436188)
(0.0590161 -0.000135983 -9.56845e-05)
(0.0453112 -0.000150275 -0.000218572)
(0.053085 -0.000255616 -0.000446205)
(0.0585741 -0.000143979 -0.00010493)
(0.044831 -0.000157638 -0.000214764)
(0.0525864 -0.000251414 -0.000442531)
(0.0581559 -0.000150028 -0.000108964)
(0.0443641 -0.000161004 -0.000210265)
(0.0520644 -0.000244831 -0.000435612)
(0.0577126 -0.000152646 -0.000110206)
(0.0439083 -0.00016276 -0.000206065)
(0.051566 -0.000238654 -0.00042888)
(0.0572983 -0.000154056 -0.000111054)
(0.0434649 -0.000164452 -0.000201682)
(0.0510579 -0.000234582 -0.00042177)
(0.0568694 -0.000150806 -0.000109183)
(0.0430283 -0.000167258 -0.000196585)
(0.0505631 -0.000233048 -0.000413664)
(0.0564591 -0.000149687 -0.000108107)
(0.0425973 -0.000173097 -0.000191606)
(0.0500688 -0.000236132 -0.000405308)
(0.0560445 -0.00014579 -0.000103565)
(0.0421594 -0.000179596 -0.000186048)
(0.0495655 -0.000246175 -0.000398249)
(0.055627 -0.000145764 -0.000101132)
(0.0417197 -0.000181479 -0.000176077)
(0.0490679 -0.000243938 -0.000378251)
(0.0552112 -0.000153715 -0.000102044)
(0.0485799 -0.000232735 -0.000343727)
(0.0547924 -0.000159597 -0.000100829)
(0.0627423 -0.000297138 -0.000704304)
(0.0681584 -0.000188407 -0.000845351)
(0.0763932 -0.000336324 -0.000572144)
(0.0622029 -0.000298279 -0.000711661)
(0.067581 -0.000208923 -0.000863699)
(0.0761083 -0.000328789 -0.000592751)
(0.0616509 -0.000291165 -0.00070684)
(0.0669936 -0.000219664 -0.00086508)
(0.0758134 -0.00031526 -0.000599522)
(0.0610915 -0.000283981 -0.000698983)
(0.06637 -0.000226419 -0.000860034)
(0.0754946 -0.000301844 -0.00060117)
(0.0605259 -0.000279269 -0.000690152)
(0.065747 -0.000232174 -0.000851628)
(0.0751703 -0.000291966 -0.000600664)
(0.0599562 -0.000277416 -0.000679605)
(0.065105 -0.000238566 -0.000841266)
(0.0748279 -0.000284658 -0.000597473)
(0.059383 -0.00027982 -0.000668157)
(0.0644648 -0.000244211 -0.000826957)
(0.0744785 -0.000282732 -0.000593952)
(0.0588076 -0.000287113 -0.000657024)
(0.0638227 -0.00025305 -0.000812532)
(0.0741182 -0.000283059 -0.000588624)
(0.0582298 -0.000286451 -0.000633354)
(0.0631712 -0.000261385 -0.000796973)
(0.0737452 -0.000292089 -0.000587044)
(0.0576595 -0.00026858 -0.000584499)
(0.0625417 -0.000261788 -0.000766548)
(0.073378 -0.000292088 -0.000571663)
(0.0619137 -0.000256122 -0.00072079)
(0.0729997 -0.000284588 -0.000541356)
(0.07371 -0.000180916 -0.00102879)
(0.0768089 -0.000169079 -0.00116403)
(0.0863236 -0.000151753 -0.000960856)
(0.0730745 -0.000213078 -0.00104151)
(0.0761454 -0.000216878 -0.00117312)
(0.0860521 -0.000177038 -0.000984805)
(0.0724049 -0.000237555 -0.001043)
(0.0754504 -0.000251194 -0.00117116)
(0.0857445 -0.0002005 -0.000997176)
(0.0717114 -0.000255441 -0.00103743)
(0.07473 -0.000274733 -0.00116204)
(0.0854091 -0.000221333 -0.00100269)
(0.0710014 -0.000269967 -0.00102729)
(0.0739949 -0.00029274 -0.0011477)
(0.0850484 -0.000240156 -0.00100268)
(0.0702817 -0.00028123 -0.00101278)
(0.0732523 -0.000307474 -0.00113001)
(0.0846711 -0.000256037 -0.000997829)
(0.0695579 -0.000290276 -0.000994965)
(0.0725054 -0.000317463 -0.00110847)
(0.0842767 -0.000270122 -0.000989709)
(0.0688366 -0.000297127 -0.000975469)
(0.0717653 -0.000325545 -0.00108597)
(0.0838759 -0.000282083 -0.000978096)
(0.068124 -0.000299546 -0.00095298)
(0.0710244 -0.000327225 -0.00106314)
(0.0834647 -0.000291948 -0.000965146)
(0.0674248 -0.000299095 -0.000926609)
(0.0703018 -0.000320389 -0.00103864)
(0.0830561 -0.000297895 -0.000947008)
(0.0695837 -0.000309741 -0.00101205)
(0.0826458 -0.000300752 -0.000923113)
(0.079447 -0.00017743 -0.00132079)
(0.0913937 -6.5404e-05 -0.00131744)
(0.0787192 -0.000230984 -0.0013143)
(0.0910503 -0.000128305 -0.00131784)
(0.0779688 -0.000268167 -0.00130095)
(0.0906805 -0.000178555 -0.0013113)
(0.0772054 -0.00029523 -0.00128234)
(0.0902905 -0.000219508 -0.00130001)
(0.0764354 -0.000315859 -0.00125985)
(0.0898852 -0.000253874 -0.00128444)
(0.075665 -0.000331304 -0.0012346)
(0.0894695 -0.000282686 -0.00126518)
(0.0748981 -0.000342297 -0.00120792)
(0.0890477 -0.000306301 -0.00124277)
(0.0741384 -0.000348577 -0.00118157)
(0.0886218 -0.000325306 -0.00121942)
(0.0733871 -0.000348945 -0.00115598)
(0.0881962 -0.000338563 -0.0011947)
(0.0726442 -0.000343296 -0.00113034)
(0.0877698 -0.000345488 -0.00116827)
(0.0873459 -0.000347498 -0.00114196)
(0.0432746 -0.000201659 -2.12871e-05)
(0.0576188 -0.000164633 -1.53259e-05)
(0.0497935 -0.000503508 -5.51758e-05)
(0.0427382 -0.000174457 -1.65476e-05)
(0.0571542 -0.00016444 -3.06686e-05)
(0.0491694 -0.000448563 -6.41618e-05)
(0.0422201 -0.000152433 -1.19403e-05)
(0.056711 -0.000168776 -4.21002e-05)
(0.0485951 -0.000384258 -6.52145e-05)
(0.0417158 -0.000136313 -7.89333e-06)
(0.056245 -0.000168996 -4.90446e-05)
(0.0480225 -0.000341862 -6.78755e-05)
(0.0412258 -0.000123247 -2.86647e-06)
(0.0558119 -0.0001665 -5.18606e-05)
(0.0475025 -0.000314513 -6.69138e-05)
(0.0407552 -0.000111817 1.87419e-06)
(0.0553653 -0.000158371 -5.1029e-05)
(0.0469809 -0.000293807 -6.48047e-05)
(0.0402998 -0.000101749 5.20141e-06)
(0.0549425 -0.000152085 -5.06794e-05)
(0.0464952 -0.000277351 -6.32251e-05)
(0.0398618 -9.41232e-05 6.15378e-06)
(0.05452 -0.000141441 -4.84713e-05)
(0.046019 -0.000263502 -6.35067e-05)
(0.0394326 -8.92174e-05 6.05532e-06)
(0.0541035 -0.000134598 -4.75047e-05)
(0.0455581 -0.000254852 -6.67841e-05)
(0.0390141 -8.60734e-05 5.27232e-06)
(0.0536951 -0.000134553 -5.04469e-05)
(0.0451103 -0.0002434 -6.44126e-05)
(0.0532902 -0.000134665 -5.37153e-05)
(0.0446817 -0.000233245 -6.20199e-05)
(0.0751634 -0.000218641 -4.45505e-05)
(0.0831071 -0.000376457 -0.000250394)
(0.0822465 -0.000540992 -2.23311e-05)
(0.0748007 -0.000229829 -7.5423e-05)
(0.0829167 -0.000368875 -0.000288194)
(0.0819575 -0.000529722 -6.5498e-05)
(0.0744298 -0.000239371 -9.74908e-05)
(0.0827207 -0.000363069 -0.000316462)
(0.0816839 -0.000520038 -0.000101586)
(0.0740526 -0.000244152 -0.000111121)
(0.0824986 -0.000354869 -0.000332773)
(0.0813989 -0.000511651 -0.000127817)
(0.07367 -0.00024246 -0.000118509)
(0.0822776 -0.000348812 -0.000344085)
(0.0811262 -0.000502696 -0.000146062)
(0.0732849 -0.000236762 -0.000122412)
(0.0820325 -0.000339111 -0.000349281)
(0.0808423 -0.000486883 -0.000157207)
(0.0728957 -0.000228223 -0.000123309)
(0.0817866 -0.000334588 -0.000355727)
(0.0805663 -0.000474556 -0.000166167)
(0.0725062 -0.000215412 -0.00012041)
(0.081524 -0.000325855 -0.000355186)
(0.0802815 -0.000454563 -0.000170598)
(0.0721166 -0.000213622 -0.000122482)
(0.0812559 -0.000322168 -0.000356922)
(0.0799976 -0.000440417 -0.000173649)
(0.0717182 -0.000222722 -0.000129486)
(0.0809889 -0.000333093 -0.000363163)
(0.0797188 -0.00043719 -0.000180874)
(0.0806954 -0.000343669 -0.00036483)
(0.0794208 -0.000433588 -0.000186409)
(0.0921168 -0.000425309 -0.000520804)
(0.0960101 -0.000283262 -0.000714023)
(0.0976668 -0.00071604 -0.000432999)
(0.0921186 -0.000410705 -0.00055728)
(0.0960769 -0.000286186 -0.000755595)
(0.0977697 -0.000683544 -0.000481339)
(0.0920985 -0.000395104 -0.000580596)
(0.0961073 -0.000290342 -0.000784122)
(0.09785 -0.000655112 -0.000519699)
(0.0920574 -0.000380749 -0.000595098)
(0.0961239 -0.000293778 -0.000801289)
(0.0979323 -0.000629759 -0.000547459)
(0.0919956 -0.000369599 -0.00060464)
(0.0961079 -0.000300188 -0.000813204)
(0.0979895 -0.000610604 -0.000569963)
(0.0919137 -0.000363726 -0.000612895)
(0.0960763 -0.000305208 -0.000819139)
(0.098044 -0.000593607 -0.00058685)
(0.0918123 -0.000360152 -0.000618292)
(0.0960173 -0.000315761 -0.000826508)
(0.0980768 -0.00058159 -0.000602051)
(0.0916972 -0.000361168 -0.000622914)
(0.0959415 -0.000320193 -0.000825495)
(0.0981043 -0.000568454 -0.000610499)
(0.091568 -0.000369725 -0.00062903)
(0.0958516 -0.000331256 -0.000829022)
(0.0981191 -0.000566291 -0.000620437)
(0.0914251 -0.000377771 -0.00062911)
(0.0957456 -0.000342012 -0.000827487)
(0.098125 -0.000567124 -0.000627052)
(0.0956234 -0.000348306 -0.000816917)
(0.0981152 -0.000568726 -0.000627796)
(0.100357 -0.000174546 -0.000968812)
(0.102267 -9.05401e-05 -0.00115971)
(0.105126 -0.000394924 -0.000879258)
(0.10046 -0.000194568 -0.00100239)
(0.102363 -0.000131531 -0.00118455)
(0.10535 -0.000395801 -0.000921698)
(0.100533 -0.000216503 -0.00102481)
(0.102428 -0.000170304 -0.00119895)
(0.105551 -0.00040018 -0.000953703)
(0.100577 -0.000239732 -0.00103948)
(0.10247 -0.000206648 -0.0012059)
(0.105735 -0.000407434 -0.000976911)
(0.100595 -0.000261263 -0.0010478)
(0.102485 -0.000240619 -0.00120767)
(0.105896 -0.000417006 -0.000994512)
(0.100589 -0.00028161 -0.00105276)
(0.10248 -0.000269931 -0.00120385)
(0.106039 -0.000426016 -0.0010065)
(0.100561 -0.000299931 -0.00105354)
(0.102454 -0.000297715 -0.00119813)
(0.106165 -0.000436977 -0.00101679)
(0.100513 -0.000316242 -0.00105106)
(0.10241 -0.000319835 -0.00118704)
(0.106272 -0.000444748 -0.00102001)
(0.100449 -0.000331819 -0.00104637)
(0.102355 -0.000340914 -0.00117456)
(0.106369 -0.000454743 -0.00102284)
(0.10037 -0.000342747 -0.00103352)
(0.102282 -0.000356664 -0.00115638)
(0.106446 -0.00046463 -0.00102117)
(0.102204 -0.000366268 -0.00113347)
(0.106517 -0.000472554 -0.00101315)
(0.104378 -3.34134e-05 -0.00138781)
(0.108813 -0.000153974 -0.00132692)
(0.104436 -9.48368e-05 -0.00139264)
(0.109018 -0.000197272 -0.0013387)
(0.10447 -0.000150583 -0.00139073)
(0.109202 -0.000238207 -0.0013436)
(0.104481 -0.000200407 -0.00138398)
(0.109368 -0.000275733 -0.00134332)
(0.104472 -0.000244476 -0.00137289)
(0.109517 -0.000309995 -0.00133912)
(0.104446 -0.000282977 -0.0013577)
(0.109651 -0.000340559 -0.00133113)
(0.104406 -0.000315963 -0.00133949)
(0.109771 -0.000367734 -0.00132009)
(0.104353 -0.000343051 -0.00131789)
(0.109878 -0.000391164 -0.00130648)
(0.10429 -0.000363681 -0.00129144)
(0.109977 -0.000411097 -0.00128926)
(0.104221 -0.000378893 -0.00126269)
(0.110065 -0.000426921 -0.00126796)
(0.110149 -0.000439966 -0.00124561)
(0.0572179 -0.000743455 -9.17217e-06)
(0.0726046 -0.000767172 4.85101e-05)
(0.0628037 -0.00100642 9.95588e-05)
(0.056524 -0.00063771 -1.8702e-05)
(0.0721211 -0.000705785 1.88363e-05)
(0.0619706 -0.000914871 8.26228e-05)
(0.055889 -0.00054343 -2.60406e-05)
(0.0716875 -0.000635909 -3.31537e-06)
(0.0612236 -0.000815011 6.51581e-05)
(0.0552942 -0.000485843 -3.38197e-05)
(0.0712721 -0.000590736 -2.55462e-05)
(0.0605132 -0.000740234 5.03046e-05)
(0.0547289 -0.000450081 -3.91612e-05)
(0.070893 -0.000559514 -4.23488e-05)
(0.0598718 -0.00068518 4.14983e-05)
(0.0541882 -0.000424295 -4.31715e-05)
(0.0705171 -0.000532942 -5.45733e-05)
(0.0592477 -0.000642614 3.527e-05)
(0.0536682 -0.000403833 -4.72091e-05)
(0.0701639 -0.000511217 -6.49818e-05)
(0.0586711 -0.000607294 3.01099e-05)
(0.0531678 -0.00038766 -5.18433e-05)
(0.069813 -0.000488937 -7.28742e-05)
(0.058109 -0.000579132 2.33902e-05)
(0.052684 -0.000372424 -5.43533e-05)
(0.0694745 -0.000476011 -8.21164e-05)
(0.0575732 -0.000554008 1.90457e-05)
(0.0522145 -0.000356711 -5.41632e-05)
(0.0691471 -0.000460094 -8.72353e-05)
(0.0570594 -0.000530199 1.59616e-05)
(0.0688195 -0.000446326 -9.11618e-05)
(0.0565569 -0.000509995 1.19439e-05)
(0.0901528 -0.000828562 7.62024e-05)
(0.0966853 -0.00096221 -7.13897e-05)
(0.0941616 -0.00111912 0.000180836)
(0.0899648 -0.00078907 3.26783e-05)
(0.0966758 -0.000910391 -0.000119715)
(0.0939584 -0.00105436 0.000156478)
(0.0897904 -0.000756312 -5.52694e-06)
(0.0966678 -0.000861673 -0.000162211)
(0.0937743 -0.000992064 0.000134906)
(0.0896256 -0.000732294 -3.81611e-05)
(0.0966781 -0.000828338 -0.000200633)
(0.0936209 -0.00094173 0.00011313)
(0.0894669 -0.000708689 -6.32313e-05)
(0.0966765 -0.000803145 -0.000232266)
(0.0934701 -0.000899252 9.26408e-05)
(0.0893103 -0.000686598 -8.31388e-05)
(0.0966867 -0.000778715 -0.000256422)
(0.0933406 -0.000860169 7.45085e-05)
(0.0891532 -0.000662671 -9.82848e-05)
(0.0966852 -0.000758287 -0.000275957)
(0.0932102 -0.000828865 5.60878e-05)
(0.0889969 -0.000641663 -0.000111337)
(0.0966874 -0.000733547 -0.000290025)
(0.0930904 -0.000794823 4.2647e-05)
(0.0888369 -0.000627404 -0.000123941)
(0.0966842 -0.00072025 -0.000305576)
(0.0929724 -0.000771699 2.87718e-05)
(0.0886762 -0.000612138 -0.000133886)
(0.0966766 -0.000709739 -0.000318185)
(0.0928585 -0.000748491 1.57816e-05)
(0.0966616 -0.000701714 -0.000328853)
(0.0927443 -0.000727342 4.46039e-06)
(0.103979 -0.000957203 -0.000288787)
(0.10703 -0.000785063 -0.000483005)
(0.106837 -0.00119396 -0.00010785)
(0.104176 -0.000907132 -0.000336172)
(0.107295 -0.000748237 -0.000528843)
(0.107037 -0.00112749 -0.000141297)
(0.104372 -0.00086705 -0.000379038)
(0.107552 -0.00071899 -0.00056955)
(0.107238 -0.00107027 -0.00017352)
(0.104564 -0.000836284 -0.000416693)
(0.10781 -0.000697255 -0.000605141)
(0.107448 -0.00102313 -0.000204573)
(0.104752 -0.000810459 -0.000447742)
(0.108053 -0.000681181 -0.000635222)
(0.107653 -0.000984232 -0.000233088)
(0.104934 -0.000785926 -0.000471775)
(0.108293 -0.000667126 -0.000659037)
(0.107864 -0.000949854 -0.000256857)
(0.105114 -0.000763106 -0.000490448)
(0.108521 -0.000654263 -0.000677307)
(0.108069 -0.000918389 -0.000276506)
(0.105286 -0.000747019 -0.000507214)
(0.108743 -0.000642427 -0.000691408)
(0.108277 -0.00089017 -0.000292165)
(0.105452 -0.000738604 -0.000522937)
(0.108957 -0.000638253 -0.000704253)
(0.108482 -0.000870432 -0.000309301)
(0.105612 -0.000735164 -0.000536479)
(0.109159 -0.000637427 -0.000714988)
(0.108681 -0.000855534 -0.000324831)
(0.109355 -0.000640432 -0.000724193)
(0.108879 -0.000843516 -0.000337778)
(0.110589 -0.000600624 -0.000736497)
(0.112008 -0.000455976 -0.000942079)
(0.112922 -0.000778865 -0.000514508)
(0.110924 -0.000583289 -0.000775568)
(0.112353 -0.000455187 -0.000969914)
(0.113284 -0.000745298 -0.000545519)
(0.111247 -0.00057141 -0.000808816)
(0.112685 -0.000458244 -0.000992629)
(0.113638 -0.000718178 -0.000573631)
(0.111559 -0.000564013 -0.000836569)
(0.113005 -0.000463517 -0.00101048)
(0.113984 -0.000696407 -0.000598593)
(0.111859 -0.000560158 -0.000859132)
(0.113313 -0.000470655 -0.00102405)
(0.114322 -0.000679541 -0.00062028)
(0.112147 -0.000558736 -0.000876942)
(0.113609 -0.000478377 -0.0010335)
(0.114652 -0.000666079 -0.000638101)
(0.112424 -0.000558339 -0.00089039)
(0.113894 -0.000486529 -0.00103948)
(0.114974 -0.000655391 -0.000652685)
(0.112688 -0.000559425 -0.000900282)
(0.114167 -0.000494345 -0.00104178)
(0.115286 -0.00064613 -0.000664027)
(0.112942 -0.000563668 -0.000907803)
(0.114431 -0.000504151 -0.00104112)
(0.115592 -0.000640426 -0.000673996)
(0.113185 -0.000571207 -0.000913788)
(0.114683 -0.000515276 -0.00103838)
(0.115887 -0.000638162 -0.00068245)
(0.114928 -0.000526819 -0.00103425)
(0.116177 -0.000638626 -0.000689577)
(0.113841 -0.000301335 -0.00118555)
(0.115946 -0.000399346 -0.00093713)
(0.114183 -0.000322057 -0.00119638)
(0.116342 -0.000404332 -0.000946345)
(0.114512 -0.000343294 -0.00120308)
(0.116726 -0.000411098 -0.000953085)
(0.114829 -0.000364203 -0.00120615)
(0.117099 -0.000418857 -0.00095748)
(0.115133 -0.000384136 -0.00120601)
(0.117461 -0.000427127 -0.000959648)
(0.115426 -0.000402684 -0.00120305)
(0.117813 -0.000435337 -0.000959687)
(0.115707 -0.000419744 -0.00119742)
(0.118156 -0.000443247 -0.000957696)
(0.115979 -0.000435625 -0.00118893)
(0.118489 -0.000450822 -0.000953433)
(0.116243 -0.000450655 -0.0011779)
(0.118814 -0.000458425 -0.000946735)
(0.116497 -0.000464649 -0.00116483)
(0.119132 -0.000466134 -0.000938486)
(0.119443 -0.000473587 -0.000929174)
(0.0682772 -0.00124055 0.000147805)
(0.0826627 -0.0013102 0.00018684)
(0.0726661 -0.0014277 0.000153093)
(0.0673687 -0.00114723 0.000137743)
(0.0820575 -0.00121897 0.000184408)
(0.0716831 -0.00133412 0.000172435)
(0.0665351 -0.00106026 0.000124818)
(0.081513 -0.00113168 0.00017727)
(0.0707758 -0.00124504 0.000184719)
(0.0657681 -0.0009841 0.000113477)
(0.08102 -0.00105427 0.000167882)
(0.0699289 -0.00116638 0.00018919)
(0.0650568 -0.000919511 0.000105114)
(0.0805672 -0.000987734 0.000158516)
(0.0691384 -0.00109808 0.000189127)
(0.0643908 -0.000865326 9.79739e-05)
(0.0801514 -0.000932332 0.000149003)
(0.0683943 -0.00103983 0.000186336)
(0.0637616 -0.000820645 9.00505e-05)
(0.0797633 -0.000885613 0.000138364)
(0.067692 -0.000989482 0.000181042)
(0.0631627 -0.000782952 8.1976e-05)
(0.0793996 -0.000847558 0.000126986)
(0.0670235 -0.000947039 0.00017386)
(0.0625884 -0.000748878 7.5318e-05)
(0.0790537 -0.0008139 0.000116865)
(0.0663845 -0.000909194 0.000165908)
(0.0620349 -0.00071878 6.91395e-05)
(0.0787244 -0.000783125 0.000107958)
(0.0657721 -0.000875089 0.000157597)
(0.0784077 -0.000757494 9.89312e-05)
(0.0651791 -0.000845474 0.000149019)
(0.0983534 -0.00138949 0.000231598)
(0.103974 -0.001484 0.000133974)
(0.100811 -0.00159897 0.000177479)
(0.0981578 -0.00129886 0.000232619)
(0.103959 -0.00139437 0.000129811)
(0.100609 -0.00150848 0.000208357)
(0.0979923 -0.00121646 0.000229484)
(0.103965 -0.00131279 0.000121866)
(0.10043 -0.00142302 0.00023175)
(0.097853 -0.00114486 0.000222203)
(0.103994 -0.00124183 0.000110355)
(0.100279 -0.00134524 0.000247478)
(0.0977349 -0.00108412 0.00021142)
(0.104033 -0.0011818 9.60564e-05)
(0.100143 -0.00127741 0.000256838)
(0.0976329 -0.00103307 0.000197901)
(0.104088 -0.00113088 8.05896e-05)
(0.100027 -0.00121924 0.000261226)
(0.0975452 -0.000989724 0.000183279)
(0.10415 -0.00108761 6.46207e-05)
(0.0999242 -0.00116802 0.000260808)
(0.097467 -0.000952602 0.000169388)
(0.104223 -0.00104907 4.98595e-05)
(0.0998372 -0.00112218 0.000257383)
(0.0973979 -0.000918922 0.00015652)
(0.104299 -0.00101616 3.56917e-05)
(0.0997598 -0.00108222 0.000251528)
(0.0973367 -0.000888019 0.000144236)
(0.10438 -0.000985717 2.19768e-05)
(0.0996902 -0.00104453 0.000245414)
(0.104467 -0.00095808 9.0655e-06)
(0.0996315 -0.00100954 0.00023837)
(0.110121 -0.00139623 1.37175e-05)
(0.112716 -0.00119697 -0.000151711)
(0.111671 -0.00154939 4.66689e-05)
(0.110329 -0.00132013 2.68316e-07)
(0.113007 -0.0011318 -0.00016629)
(0.111884 -0.00147308 5.42129e-05)
(0.110545 -0.00125372 -1.64048e-05)
(0.113301 -0.0010752 -0.000182826)
(0.112103 -0.0014045 5.7532e-05)
(0.110768 -0.00119651 -3.53338e-05)
(0.113597 -0.0010262 -0.000200713)
(0.112327 -0.00134373 5.64646e-05)
(0.110998 -0.00114757 -5.46443e-05)
(0.113894 -0.000984476 -0.000218955)
(0.112555 -0.00129003 5.24683e-05)
(0.111232 -0.00110514 -7.2742e-05)
(0.114192 -0.000948549 -0.000236043)
(0.112788 -0.00124244 4.7621e-05)
(0.111471 -0.00106755 -8.88645e-05)
(0.11449 -0.00091709 -0.000251409)
(0.113025 -0.00120005 4.26159e-05)
(0.11171 -0.00103464 -0.000103842)
(0.114787 -0.000889447 -0.000264608)
(0.113265 -0.00116203 3.7166e-05)
(0.111952 -0.00100688 -0.000118804)
(0.115082 -0.000866597 -0.000277212)
(0.113508 -0.00112887 3.0242e-05)
(0.112194 -0.000982307 -0.000133026)
(0.115375 -0.000847885 -0.000289459)
(0.113751 -0.00109997 2.22745e-05)
(0.115667 -0.000831027 -0.000300281)
(0.113995 -0.00107238 1.39681e-05)
(0.115779 -0.000944398 -0.000339147)
(0.116948 -0.000750481 -0.000514035)
(0.116929 -0.0010494 -0.000208928)
(0.116162 -0.000899622 -0.000356961)
(0.117362 -0.000720518 -0.000525322)
(0.117326 -0.00100254 -0.000215487)
(0.116541 -0.000861225 -0.000374759)
(0.11777 -0.000695163 -0.000536494)
(0.117718 -0.000960817 -0.000223404)
(0.116916 -0.000828677 -0.000391875)
(0.118171 -0.000673816 -0.000547066)
(0.118105 -0.000924089 -0.000231812)
(0.117286 -0.00080114 -0.000407715)
(0.118565 -0.000656141 -0.000556709)
(0.118488 -0.000892024 -0.000240343)
(0.117652 -0.000777586 -0.000421832)
(0.118953 -0.000641413 -0.000564991)
(0.118866 -0.000863862 -0.000248514)
(0.118013 -0.00075733 -0.000434051)
(0.119335 -0.000629023 -0.000571757)
(0.11924 -0.000838921 -0.000255999)
(0.118368 -0.000740437 -0.000444716)
(0.119711 -0.000618766 -0.00057683)
(0.119609 -0.000816892 -0.000262734)
(0.118718 -0.000727226 -0.000454421)
(0.12008 -0.000611001 -0.000580588)
(0.119974 -0.000798109 -0.00026895)
(0.119064 -0.000716952 -0.000463054)
(0.120444 -0.000605863 -0.000583444)
(0.120334 -0.000782713 -0.000275111)
(0.120802 -0.000602008 -0.000585127)
(0.120691 -0.000769294 -0.000280809)
(0.118582 -0.000515384 -0.000707582)
(0.119556 -0.000563471 -0.000501798)
(0.119022 -0.000505385 -0.000711998)
(0.120022 -0.00054778 -0.000502843)
(0.119453 -0.000497653 -0.000715685)
(0.120478 -0.000534431 -0.000504048)
(0.119874 -0.000491811 -0.000718495)
(0.120925 -0.000523145 -0.000505186)
(0.120288 -0.000487491 -0.0007203)
(0.121363 -0.000513668 -0.000506077)
(0.120693 -0.000484319 -0.000720982)
(0.121792 -0.000505665 -0.000506547)
(0.12109 -0.000482163 -0.000720384)
(0.122214 -0.000498868 -0.000506463)
(0.12148 -0.000481061 -0.000718366)
(0.122629 -0.000493251 -0.000505689)
(0.121863 -0.000481059 -0.00071514)
(0.123037 -0.000488801 -0.000504156)
(0.12224 -0.000481863 -0.000710937)
(0.123438 -0.000485597 -0.000502181)
(0.123834 -0.000482982 -0.000499559)
(0.0763584 -0.00153601 0.000168115)
(0.0893468 -0.00162079 0.000123126)
(0.078733 -0.00157089 0.000118855)
(0.075372 -0.00145056 0.000202876)
(0.0887191 -0.00153561 0.000173532)
(0.0777781 -0.00150176 0.000172885)
(0.074445 -0.00137278 0.000227581)
(0.0881331 -0.00145621 0.00021269)
(0.076863 -0.00143614 0.00021534)
(0.073571 -0.00130247 0.00024363)
(0.0875846 -0.00138268 0.000242588)
(0.0759847 -0.00137472 0.000242624)
(0.0727448 -0.00123974 0.000251676)
(0.0870698 -0.00131642 0.000263784)
(0.0751416 -0.00131789 0.000260881)
(0.0719607 -0.00118426 0.000253431)
(0.0865863 -0.0012584 0.000277447)
(0.074332 -0.00126629 0.000272827)
(0.0712145 -0.00113527 0.000250782)
(0.0861316 -0.00120612 0.000284856)
(0.0735538 -0.00121953 0.000279377)
(0.0705027 -0.00109184 0.000245297)
(0.0857032 -0.00115909 0.000286926)
(0.0728048 -0.00117758 0.00028145)
(0.0698209 -0.00105293 0.000237701)
(0.0852973 -0.0011167 0.000285231)
(0.0720829 -0.00113941 0.000279821)
(0.0691651 -0.00101851 0.000228407)
(0.0849105 -0.00107885 0.000280977)
(0.0713854 -0.00110438 0.000275297)
(0.084542 -0.00104396 0.000274693)
(0.0707108 -0.00107324 0.000268793)
(0.103195 -0.00173126 0.000140822)
(0.108135 -0.00177304 9.85603e-05)
(0.10427 -0.00174748 3.28706e-05)
(0.103011 -0.00164593 0.000195896)
(0.108142 -0.0016921 0.000142903)
(0.104141 -0.00168162 0.000105201)
(0.102845 -0.0015647 0.000240538)
(0.10816 -0.00161551 0.000179404)
(0.104016 -0.00161841 0.000167286)
(0.102696 -0.00148988 0.000275954)
(0.108187 -0.00154438 0.000208124)
(0.103898 -0.00155697 0.000219264)
(0.102563 -0.00142381 0.000303236)
(0.108224 -0.00148022 0.000230239)
(0.103786 -0.00149804 0.000262015)
(0.102446 -0.00136472 0.000322989)
(0.108271 -0.00142317 0.000246982)
(0.103681 -0.00144458 0.000296519)
(0.102345 -0.00131036 0.000335435)
(0.108328 -0.00137101 0.000258823)
(0.103584 -0.00139476 0.000323479)
(0.102256 -0.00126099 0.000341517)
(0.108395 -0.0013236 0.000265695)
(0.103495 -0.00134832 0.000342886)
(0.102179 -0.00121655 0.000343296)
(0.108469 -0.00128128 0.000268368)
(0.103413 -0.00130542 0.000356251)
(0.102112 -0.00117473 0.000342073)
(0.108548 -0.00124278 0.000268225)
(0.103337 -0.00126581 0.000365284)
(0.108634 -0.00120523 0.000265796)
(0.103267 -0.00122532 0.000370653)
(0.113506 -0.0016336 8.20282e-05)
(0.115788 -0.00139832 -8.13924e-06)
(0.113988 -0.00161244 8.06519e-05)
(0.113731 -0.00156501 0.000107058)
(0.116102 -0.00133939 8.15315e-06)
(0.114244 -0.0015602 0.000115197)
(0.113957 -0.00150204 0.000127092)
(0.116414 -0.00128487 2.11176e-05)
(0.114496 -0.00151027 0.000145608)
(0.114187 -0.00144465 0.000142068)
(0.116725 -0.0012354 3.05293e-05)
(0.114747 -0.00146355 0.000171335)
(0.114419 -0.00139217 0.000153341)
(0.117034 -0.00119031 3.69968e-05)
(0.114995 -0.00141948 0.000192728)
(0.114655 -0.00134453 0.000162057)
(0.117343 -0.00114938 4.16257e-05)
(0.115243 -0.00137829 0.000210803)
(0.114894 -0.00130154 0.000168365)
(0.117652 -0.00111225 4.47991e-05)
(0.115491 -0.00134007 0.000226104)
(0.115136 -0.00126295 0.000171953)
(0.117961 -0.0010787 4.65082e-05)
(0.115738 -0.00130474 0.000238677)
(0.115379 -0.00122832 0.000172897)
(0.118269 -0.00104881 4.6607e-05)
(0.115984 -0.00127231 0.000248345)
(0.115625 -0.00119601 0.000171808)
(0.118576 -0.00102225 4.53377e-05)
(0.11623 -0.00124254 0.000255328)
(0.118883 -0.000997039 4.31265e-05)
(0.116476 -0.00121322 0.000260037)
(0.118526 -0.00111118 -8.24408e-05)
(0.119537 -0.00087599 -0.000186484)
(0.118763 -0.00107724 3.71285e-05)
(0.118933 -0.0010674 -7.87472e-05)
(0.119985 -0.000843018 -0.000182646)
(0.119187 -0.00104351 4.41878e-05)
(0.119333 -0.0010273 -7.68652e-05)
(0.120425 -0.000812831 -0.000180424)
(0.119603 -0.00101171 4.99288e-05)
(0.119729 -0.000990976 -7.63234e-05)
(0.120857 -0.000785607 -0.000179316)
(0.120012 -0.000982162 5.45364e-05)
(0.12012 -0.000958158 -7.67996e-05)
(0.121282 -0.000761159 -0.000179039)
(0.120415 -0.000954781 5.81057e-05)
(0.120507 -0.000928449 -7.79543e-05)
(0.121702 -0.000739214 -0.000179284)
(0.120811 -0.000929431 6.07784e-05)
(0.120889 -0.000901546 -7.95422e-05)
(0.122115 -0.000719484 -0.000179804)
(0.121202 -0.000905933 6.27316e-05)
(0.121268 -0.000877417 -8.14158e-05)
(0.122523 -0.000701779 -0.00018045)
(0.121589 -0.000884197 6.41027e-05)
(0.121643 -0.000856187 -8.35766e-05)
(0.122926 -0.000686127 -0.000181146)
(0.12197 -0.000864279 6.50052e-05)
(0.122015 -0.000837265 -8.59755e-05)
(0.123325 -0.000672649 -0.000181995)
(0.122348 -0.00084636 6.54197e-05)
(0.123719 -0.000660358 -0.00018283)
(0.122721 -0.000829337 6.54493e-05)
(0.121037 -0.000597356 -0.000290568)
(0.121174 -0.000367386 -0.000395905)
(0.121174 -0.000554636 -8.3575e-05)
(0.12152 -0.000578157 -0.000288273)
(0.12167 -0.00035634 -0.000389041)
(0.12167 -0.000539012 -8.32348e-05)
(0.121992 -0.000561102 -0.000286861)
(0.122155 -0.000346398 -0.000382908)
(0.122155 -0.00052469 -8.3375e-05)
(0.122456 -0.000546031 -0.000286029)
(0.122631 -0.000337479 -0.000377444)
(0.122631 -0.000511695 -8.38024e-05)
(0.122911 -0.000532715 -0.000285519)
(0.123097 -0.000329499 -0.000372528)
(0.123097 -0.000499947 -8.43605e-05)
(0.123358 -0.000520923 -0.000285131)
(0.123555 -0.000322352 -0.000368042)
(0.123554 -0.00048933 -8.49396e-05)
(0.123798 -0.000510482 -0.000284715)
(0.124005 -0.000315942 -0.000363879)
(0.124004 -0.00047973 -8.5455e-05)
(0.124231 -0.00050131 -0.000284185)
(0.124447 -0.000310209 -0.00035996)
(0.124447 -0.000471071 -8.58519e-05)
(0.124658 -0.000493421 -0.000283568)
(0.124883 -0.00030515 -0.000356248)
(0.124883 -0.000463332 -8.61089e-05)
(0.125079 -0.000486564 -0.000282847)
(0.125313 -0.000300834 -0.000352834)
(0.125313 -0.000456569 -8.62676e-05)
(0.125737 -0.000296954 -0.000349447)
(0.125737 -0.000450302 -8.62809e-05)
(0.121811 -0.000127099 -0.000494716)
(0.121921 -6.48722e-05 -0.000251156)
(0.12231 -0.000125231 -0.000484008)
(0.122435 -6.39536e-05 -0.00024555)
(0.122798 -0.000123345 -0.000473815)
(0.122938 -6.3023e-05 -0.000240239)
(0.123276 -0.000121463 -0.000464249)
(0.12343 -6.2075e-05 -0.000235276)
(0.123745 -0.000119616 -0.000455335)
(0.123912 -6.11221e-05 -0.000230662)
(0.124206 -0.000117834 -0.000447047)
(0.124385 -6.0178e-05 -0.000226369)
(0.124659 -0.000116142 -0.000439349)
(0.12485 -5.9264e-05 -0.000222364)
(0.125104 -0.000114568 -0.000432212)
(0.125306 -5.83966e-05 -0.000218626)
(0.125543 -0.000113146 -0.000425663)
(0.125756 -5.75947e-05 -0.000215141)
(0.125976 -0.000111854 -0.000419549)
(0.126199 -5.6879e-05 -0.000211962)
(0.126636 -5.6208e-05 -0.000208899)
(0.0801956 -0.00153691 0.000122242)
(0.0923017 -0.00159148 1.75012e-05)
(0.0802141 -0.00144188 0.000113399)
(0.0793131 -0.00148803 0.00018424)
(0.0918018 -0.00154584 9.16401e-05)
(0.0794122 -0.00141681 0.00017807)
(0.0784471 -0.00143868 0.000230882)
(0.0913064 -0.0015004 0.000156403)
(0.0786049 -0.00138689 0.000229684)
(0.0775996 -0.00139056 0.000261926)
(0.0908177 -0.00145483 0.000205535)
(0.0777972 -0.00135428 0.000263699)
(0.0767738 -0.00134494 0.000284605)
(0.0903379 -0.0014088 0.000244734)
(0.0769946 -0.0013202 0.000289326)
(0.07597 -0.00130229 0.00030124)
(0.0898687 -0.0013651 0.000276309)
(0.0762014 -0.00128604 0.000308363)
(0.0751883 -0.00126272 0.000312534)
(0.0894111 -0.00132417 0.00030113)