/*--------------------------------*- C++ -*----------------------------------*\
| =========                 |                                                 |
| \\      /  F ield         | OpenFOAM: The Open Source CFD Toolbox           |
|  \\    /   O peration     | Version:  2212                                  |
|   \\  /    A nd           | Website:  www.openfoam.com                      |
|    \\/     M anipulation  |                                                 |
\*---------------------------------------------------------------------------*/
FoamFile
{
    version     2.0;
    format      ascii;
    arch        "LSB;label=32;scalar=64";
    class       volScalarField;
    location    "2";
    object      epsilon;
}
// * * * * * * * * * * * * * * * * * * * * * * * * * * * * * * * * * * * * * //

dimensions      [0 2 -3 0 0 0 0];

internalField   nonuniform List<scalar> 
689
(
0.177752
0.168251
0.160945
0.154337
0.148483
0.142986
0.13835
0.13408
0.0779787
0.0724041
0.0679362
0.064171
0.0609031
0.0578627
0.0554053
0.0531712
0.0648215
0.0590609
0.0542958
0.0503106
0.0469852
0.0441759
0.0417831
0.0396816
0.037808
0.0800438
0.070068
0.0622966
0.056157
0.051159
0.0469955
0.0434264
0.0403534
0.0376886
0.0353633
0.0333285
0.031529
0.0690173
0.0620206
0.0560126
0.0508791
0.0464938
0.0427479
0.0395239
0.036728
0.0342753
0.0321137
0.0302
0.0285006
0.0667831
0.0593182
0.0532936
0.0482994
0.0441006
0.0405449
0.0375082
0.0348863
0.0325832
0.030542
0.0287247
0.0271033
0.071766
0.0610726
0.0538992
0.0484459
0.0440781
0.040492
0.037481
0.0348928
0.0326194
0.030609
0.0288193
0.0272198
0.076786
0.0637928
0.0560314
0.0504933
0.046097
0.0425218
0.0394998
0.0368872
0.0345961
0.0325643
0.0307497
0.0291277
0.0797337
0.0703814
0.0623007
0.0564331
0.0519113
0.0481959
0.0450832
0.0424098
0.0400576
0.037959
0.0360774
0.110785
0.0957758
0.0840348
0.0759254
0.0701877
0.0659395
0.0625038
0.0594831
0.0567292
0.0541707
0.051973
0.319237
0.261246
0.21748
0.192697
0.177577
0.167703
0.160155
0.153577
0.147717
0.142433
0.137862
0.0703267
0.0662985
0.0630275
0.0598848
0.0571439
0.0544701
0.0522627
0.0502561
0.0354843
0.0330086
0.0307319
0.0287976
0.0270403
0.0254284
0.0240245
0.0229004
0.0317692
0.0287807
0.0262375
0.0240612
0.0221926
0.0205896
0.0192035
0.01793
0.0169327
0.0465311
0.0404272
0.0353781
0.03117
0.0275185
0.0246088
0.0224598
0.0205678
0.0189169
0.0174735
0.0162031
0.0150798
0.0467448
0.0405367
0.0355137
0.0313635
0.0278476
0.0247374
0.0221831
0.0200605
0.0183852
0.0169053
0.0156007
0.0144442
0.0468213
0.0406945
0.0356615
0.0314647
0.0279378
0.0248401
0.0221649
0.0198986
0.0181428
0.0166678
0.0153551
0.0141856
0.0465099
0.0407017
0.0356164
0.0313201
0.0277161
0.0245457
0.0218286
0.019651
0.0180013
0.0165321
0.0152277
0.0140727
0.0457556
0.0409824
0.0355441
0.0310483
0.0272839
0.0240496
0.0217197
0.01986
0.0182263
0.0167945
0.0155386
0.0144285
0.046472
0.0419901
0.0362861
0.0314167
0.0280827
0.0255443
0.0233659
0.0214883
0.0198545
0.0184266
0.0171797
0.0558803
0.0497814
0.0437312
0.039346
0.0360042
0.0331804
0.0309056
0.0289137
0.0271412
0.0254885
0.0241185
0.13369
0.112184
0.096585
0.0855612
0.0778197
0.0720972
0.067576
0.063826
0.0605197
0.0575862
0.0551287
0.0564563
0.0519968
0.0483202
0.0452229
0.0425425
0.0401858
0.0380682
0.0361693
0.0344759
0.0312943
0.0280373
0.0255191
0.0233455
0.0214746
0.0198459
0.0184246
0.0171827
0.0161165
0.0300792
0.02655
0.0236421
0.0212142
0.0191692
0.0174283
0.015933
0.0146322
0.0135087
0.0476439
0.0413071
0.0360076
0.0315685
0.0278257
0.0246744
0.0220338
0.0197877
0.0178642
0.016206
0.0147681
0.0135133
0.0498793
0.0431252
0.037551
0.0329048
0.0289979
0.0256839
0.0228654
0.0204595
0.0184112
0.0166492
0.0151211
0.0137878
0.0507644
0.0438968
0.0382024
0.0334496
0.0294544
0.0260683
0.0231789
0.020705
0.0185954
0.0167887
0.0152274
0.0138673
0.0499336
0.0432651
0.0376641
0.0329572
0.0289913
0.02563
0.022773
0.0203442
0.0182801
0.0165084
0.0149789
0.0136502
0.0475586
0.0413364
0.0360092
0.0314926
0.0276912
0.0244893
0.021808
0.0195524
0.0176362
0.015995
0.0145757
0.0133338
0.045273
0.0394471
0.0344275
0.0301041
0.0265588
0.0236442
0.0212164
0.0191718
0.0174307
0.0159349
0.0146371
0.0482683
0.0416064
0.0363958
0.0319209
0.0288711
0.0263013
0.0241151
0.0222382
0.020627
0.0192411
0.0179158
0.0991904
0.0840607
0.0728965
0.0649204
0.0590676
0.054217
0.0501887
0.0468508
0.044054
0.041664
0.0395788
0.0505457
0.0461366
0.0425596
0.0395361
0.0369205
0.0346247
0.0325883
0.030769
0.0291365
0.0311477
0.0272876
0.024047
0.0217268
0.0198646
0.0182297
0.0167978
0.015542
0.0144379
0.031494
0.0276891
0.0244883
0.0218095
0.0195553
0.0176396
0.0159986
0.0145787
0.0133408
0.0520933
0.0450349
0.0391752
0.0342705
0.030139
0.0266415
0.0236694
0.021138
0.0189697
0.0171024
0.0154859
0.0140787
0.0558
0.0481754
0.0418526
0.0365752
0.0321395
0.0283877
0.0251971
0.0224691
0.0201243
0.0181017
0.0163504
0.0148264
0.0571722
0.0493425
0.0428446
0.0374225
0.0328691
0.0290202
0.0257468
0.0229475
0.0205422
0.0184666
0.016668
0.0151031
0.0557791
0.0481598
0.0418472
0.0365723
0.0321344
0.0283782
0.0251823
0.0224507
0.0201062
0.0180845
0.0163332
0.0148093
0.0520747
0.045018
0.0391698
0.0342685
0.0301378
0.0266402
0.0236676
0.0211358
0.0189674
0.0171002
0.0154839
0.014077
0.0476048
0.0412958
0.0360093
0.0315638
0.0278186
0.0246688
0.0220279
0.0197822
0.0178596
0.0162022
0.0147651
0.0465547
0.04042
0.0354027
0.0311742
0.0275266
0.0246257
0.0224759
0.0205811
0.0189278
0.0174822
0.0162033
0.0800572
0.0700776
0.0622985
0.0561419
0.0511231
0.046953
0.0433805
0.0403078
0.0376464
0.0353269
0.0333005
0.0484307
0.0440716
0.0404935
0.0374848
0.0348969
0.0326248
0.030614
0.028823
0.0272215
0.0313023
0.0276825
0.0245012
0.0218159
0.0196537
0.0180012
0.016531
0.0152273
0.0140739
0.0329432
0.0289778
0.0256196
0.022768
0.0203433
0.0182813
0.0165108
0.0149819
0.0136541
0.0557892
0.0481781
0.0418559
0.0365738
0.0321328
0.028376
0.0251808
0.0224503
0.0201067
0.0180856
0.0163347
0.014811
0.0602376
0.051985
0.0451331
0.0394099
0.0345997
0.0305323
0.0270733
0.0241155
0.0215734
0.0193784
0.0174746
0.0158168
0.0618382
0.0533613
0.0463211
0.0404392
0.0354952
0.0313148
0.0277597
0.0247198
0.0221069
0.0198504
0.0178928
0.0161881
0.0602342
0.0519766
0.0451258
0.0394049
0.0345967
0.0305306
0.0270723
0.0241148
0.0215729
0.0193779
0.0174742
0.0158167
0.0558002
0.0481593
0.0418379
0.0365646
0.0321322
0.0283825
0.0251937
0.0224665
0.0201221
0.0180997
0.0163489
0.0148269
0.0498856
0.0431
0.0375285
0.032887
0.0289831
0.0256713
0.0228578
0.0204527
0.0184033
0.0166417
0.0151141
0.0467446
0.0405369
0.035515
0.0313627
0.0278441
0.0247342
0.0221818
0.0200599
0.0183844
0.0169042
0.0155941
0.0690117
0.0620158
0.0560111
0.0508787
0.0464934
0.0427474
0.039523
0.0367274
0.0342755
0.0321155
0.0302075
0.0571601
0.0493295
0.0428349
0.0374161
0.0328653
0.0290187
0.025747
0.0229487
0.020544
0.018469
0.016671
0.0151069
0.0618482
0.0533668
0.0463248
0.040442
0.0354976
0.031317
0.0277618
0.0247218
0.0221089
0.0198524
0.0178949
0.0161903
0.063515
0.0548118
0.0475822
0.0415389
0.0364568
0.0321582
0.0285018
0.025375
0.0226873
0.0203657
0.0183515
0.0165972
0.0618482
0.0533695
0.0463245
0.04044
0.0354951
0.0313147
0.0277599
0.0247203
0.0221078
0.0198515
0.0178942
0.0161899
0.0571692
0.0493257
0.042827
0.0374082
0.0328586
0.0290128
0.0257421
0.0229445
0.0205404
0.0184655
0.0166676
0.0151052
0.0507713
0.0438541
0.038159
0.0334146
0.0294274
0.0260475
0.0231655
0.0206947
0.0185863
0.0167797
0.0152192
0.0468764
0.0407041
0.035658
0.0314551
0.0279231
0.0248244
0.0221588
0.0198879
0.0181318
0.0166587
0.015344
0.0667167
0.0592893
0.0532848
0.0483033
0.0441135
0.0405636
0.0375292
0.0349083
0.0326052
0.0305634
0.0287499
)
;

boundaryField
{
    inlet
    {
        type            fixedValue;
        value           nonuniform List<scalar> 0();
    }
    ami1
    {
        type            cyclicAMI;
        value           nonuniform List<scalar> 0();
    }
    walls
    {
        type            epsilonWallFunction;
        blending        stepwise;
        value           nonuniform List<scalar> 
227
(
0.0800438
0.0690173
0.0667831
0.071766
0.076786
0.0797337
0.110785
0.319237
0.070068
0.0620206
0.0593182
0.0610726
0.0637928
0.0703814
0.0957758
0.261246
0.0622966
0.0560126
0.0532936
0.0538992
0.0560314
0.0623007
0.0840348
0.21748
0.0648215
0.056157
0.0508791
0.0482994
0.0484459
0.0504933
0.0564331
0.0759254
0.192697
0.177752
0.0779787
0.0590609
0.051159
0.0464938
0.0441006
0.0440781
0.046097
0.0519113
0.0701877
0.177577
0.168251
0.0724041
0.0542958
0.0469955
0.0427479
0.0405449
0.040492
0.0425218
0.0481959
0.0659395
0.167703
0.160945
0.0679362
0.0503106
0.0434264
0.0395239
0.0375082
0.037481
0.0394998
0.0450832
0.0625038
0.160155
0.154337
0.064171
0.0469852
0.0403534
0.036728
0.0348863
0.0348928
0.0368872
0.0424098
0.0594831
0.153577
0.148483
0.0609031
0.0441759
0.0376886
0.0342753
0.0325832
0.0326194
0.0345961
0.0400576
0.0567292
0.147717
0.142986
0.0578627
0.0417831
0.0353633
0.0321137
0.030542
0.030609
0.0325643
0.037959
0.0541707
0.142433
0.13835
0.0554053
0.0396816
0.0333285
0.0302
0.0287247
0.0288193
0.0307497
0.0360774
0.051973
0.137862
0.13408
0.0531712
0.037808
0.031529
0.0285006
0.0271033
0.0272198
0.0291277
0.319237
0.13369
0.0991904
0.0800572
0.0690117
0.0667167
0.261246
0.112184
0.0840607
0.0700776
0.0620158
0.0592893
0.21748
0.096585
0.0728965
0.0622985
0.0560111
0.0532848
0.192697
0.0855612
0.0649204
0.0561419
0.0508787
0.0483033
0.177577
0.0778197
0.0590676
0.0511231
0.0464934
0.0441135
0.167703
0.0720972
0.054217
0.046953
0.0427474
0.0405636
0.160155
0.067576
0.0501887
0.0433805
0.039523
0.0375292
0.153577
0.063826
0.0468508
0.0403078
0.0367274
0.0349083
0.147717
0.0605197
0.044054
0.0376464
0.0342755
0.0326052
0.142433
0.0575862
0.041664
0.0353269
0.0321155
0.0305634
0.137862
0.0551287
0.0395788
0.0333005
0.0302075
0.0287499
0.0564563
0.0505457
0.0484307
0.177752
0.0703267
0.0519968
0.0461366
0.0440716
0.168251
0.0662985
0.0483202
0.0425596
0.0404935
0.160945
0.0630275
0.0452229
0.0395361
0.0374848
0.154337
0.0598848
0.0425425
0.0369205
0.0348969
0.148483
0.0571439
0.0401858
0.0346247
0.0326248
0.142986
0.0544701
0.0380682
0.0325883
0.030614
0.13835
0.0522627
0.0361693
0.030769
0.028823
0.13408
0.0502561
0.0344759
0.0291365
0.0272215
)
;
    }
    ami2
    {
        type            cyclicAMI;
        value           nonuniform List<scalar> 
48
(
0.0762819
0.0712654
0.070807
0.0756917
0.087189
0.0932366
0.0979173
0.197689
0.0526227
0.0503127
0.0491527
0.0488014
0.0487763
0.0504255
0.0647978
0.1031
0.0516328
0.0542228
0.054523
0.053494
0.0514771
0.0484619
0.0564011
0.0857869
0.056091
0.0603263
0.0622048
0.0604629
0.056082
0.0516143
0.0526353
0.0762903
0.0604682
0.0653092
0.0672355
0.0653073
0.0603262
0.0542255
0.0503121
0.071262
0.0621988
0.0672406
0.0687906
0.0672407
0.0622028
0.0545251
0.0491785
0.0707721
)
;
    }
    outlet
    {
        type            zeroGradient;
    }
    procBoundary0to1
    {
        type            processor;
        value           nonuniform List<scalar> 
138
(
0.0538749
0.0483031
0.044104
0.0405506
0.0375154
0.0348948
0.0325925
0.030551
0.0287326
0.0271096
0.0356327
0.031432
0.0279055
0.0248132
0.0221514
0.0198849
0.0181296
0.0166578
0.0153485
0.0141824
0.0499594
0.0432631
0.0376505
0.0376505
0.0334386
0.0294451
0.0260615
0.0231748
0.0207024
0.0185941
0.0167886
0.0152287
0.0138698
0.0507813
0.0438853
0.038191
0.0334386
0.0294451
0.0260615
0.0231748
0.0207024
0.0185941
0.0167886
0.0152287
0.0138698
0.0558213
0.0481802
0.0418554
0.0365782
0.0321427
0.0283906
0.0251997
0.0224715
0.0201266
0.0181041
0.0163531
0.0148296
0.0602509
0.0519952
0.0451405
0.0394157
0.0346046
0.0305365
0.0270769
0.0241187
0.0215763
0.0193811
0.0174772
0.0158195
0.0618456
0.0533745
0.0463318
0.0404471
0.0355011
0.0313195
0.0277637
0.0247233
0.0221101
0.0198533
0.0178956
0.0161909
0.0602513
0.0519873
0.0451333
0.0394106
0.0346012
0.0305343
0.0270754
0.0241176
0.0215754
0.0193802
0.0174764
0.0158189
0.0557917
0.0481709
0.0418509
0.0365713
0.0321316
0.0283752
0.0251799
0.0224493
0.0201054
0.0180842
0.0163334
0.0148113
0.0498959
0.0432549
0.0376527
0.032944
0.0289783
0.0256181
0.0227642
0.0203382
0.0182743
0.0165027
0.0149736
0.0464532
0.0406433
0.0355742
0.0312918
0.0276917
0.024528
0.0218196
0.0196445
0.0179933
0.0165243
0.0152192
0.0717602
0.061083
0.0539118
0.0484579
0.0440902
0.0405035
0.0374906
0.0349003
0.0326254
0.0306146
0.0288293
)
;
    }
    procBoundary0to2
    {
        type            processor;
        value           nonuniform List<scalar> 
28
(
0.192801
0.0855852
0.0855852
0.0992129
0.0840898
0.0730269
0.0730269
0.0760028
0.0760028
0.0394298
0.0394298
0.0394298
0.0483356
0.041635
0.0363526
0.0363526
0.0623916
0.0363015
0.0452535
0.0394686
0.0344189
0.0344189
0.0560529
0.0354394
0.047528
0.041294
0.0359738
0.0359738
)
;
    }
    procBoundary0to8
    {
        type            processor;
        value           nonuniform List<scalar> 
29
(
0.130023
0.0511509
0.0361923
0.02993
0.0269943
0.0484289
0.0216076
0.0156455
0.0140533
0.013398
0.0329778
0.0150493
0.0124683
0.0124072
0.0126228
0.0276771
0.0134383
0.0122439
0.01285
0.0135029
0.0257913
0.0130412
0.0124931
0.0134853
0.0143755
0.0147081
0.0137476
0.0147079
0.0150724
)
;
    }
    procBoundary0to9
    {
        type            processor;
        value           nonuniform List<scalar> 
40
(
0.0256609
0.02579
0.0276697
0.0344373
0.0344373
0.050115
0.133807
0.013129
0.0130394
0.0134395
0.0160573
0.0160573
0.022809
0.0530147
0.0126811
0.0124915
0.0122451
0.0134836
0.0134836
0.0169468
0.037735
0.0137458
0.0134849
0.0128515
0.0135052
0.0135052
0.0150492
0.0315193
0.014377
0.0135042
0.0137875
0.0137875
0.0144108
0.0285253
0.0147092
0.0137478
0.0138682
0.0138682
0.014154
0.0271444
)
;
    }
}


// ************************************************************************* //
