/*--------------------------------*- C++ -*----------------------------------*\
| =========                 |                                                 |
| \\      /  F ield         | OpenFOAM: The Open Source CFD Toolbox           |
|  \\    /   O peration     | Version:  2212                                  |
|   \\  /    A nd           | Website:  www.openfoam.com                      |
|    \\/     M anipulation  |                                                 |
\*---------------------------------------------------------------------------*/
FoamFile
{
    version     2.0;
    format      ascii;
    arch        "LSB;label=32;scalar=64";
    class       volScalarField;
    location    "2";
    object      k;
}
// * * * * * * * * * * * * * * * * * * * * * * * * * * * * * * * * * * * * * //

dimensions      [0 2 -2 0 0 0 0];

internalField   nonuniform List<scalar> 
689
(
0.00296543
0.00285469
0.00276928
0.0026924
0.0026234
0.00255876
0.00250344
0.00245215
0.00284413
0.00270485
0.0025914
0.00249436
0.00240826
0.00232794
0.00226177
0.00220096
0.00323054
0.00303492
0.00286894
0.00272646
0.00260466
0.00249963
0.00240862
0.00232736
0.00225347
0.00427859
0.00391942
0.00362496
0.00338339
0.00317996
0.00300523
0.00285129
0.00271535
0.00259468
0.00248703
0.00239089
0.00230424
0.00417625
0.00389276
0.00363967
0.00341535
0.0032173
0.00304293
0.00288861
0.00275129
0.00262789
0.00251663
0.002416
0.00232485
0.00422132
0.00389016
0.00361647
0.00338432
0.00318415
0.00301028
0.00285808
0.00272352
0.00260262
0.0024931
0.00239355
0.00230299
0.00431787
0.00387088
0.00355578
0.00331064
0.00310807
0.00293688
0.00278936
0.00265949
0.00254281
0.00243745
0.00234179
0.0022547
0.00418605
0.0036831
0.00337675
0.00315235
0.00296692
0.0028111
0.0026759
0.00255635
0.00244939
0.00235273
0.00226485
0.00218501
0.00368428
0.00340274
0.00314821
0.00294581
0.00278373
0.00264751
0.00253115
0.0024296
0.00233877
0.00225671
0.00218202
0.00363351
0.00329003
0.00300505
0.00279931
0.00265126
0.00253983
0.00244858
0.00236911
0.00229458
0.00222619
0.00216595
0.00444323
0.00387274
0.00341074
0.00313561
0.00296382
0.00284928
0.00276058
0.00268372
0.0026141
0.0025518
0.00249698
0.00265554
0.00254759
0.00246084
0.00237946
0.00230589
0.00223474
0.00217458
0.00211949
0.00318321
0.00298331
0.00280402
0.00263799
0.00248383
0.00233168
0.0022114
0.00209185
0.00435163
0.00403344
0.00375542
0.00350806
0.00328543
0.00308426
0.00290192
0.00273647
0.00257925
0.00673215
0.0060872
0.00553765
0.00506795
0.00466713
0.00432081
0.00401367
0.00374058
0.0034965
0.00327722
0.00307963
0.00290014
0.00733626
0.00662459
0.00602041
0.00550168
0.00505245
0.00466309
0.00432251
0.00402232
0.00375343
0.0035118
0.00329415
0.00309777
0.00745449
0.00677493
0.00618013
0.00565931
0.00520212
0.0048014
0.00444997
0.00414081
0.00386444
0.0036153
0.00339034
0.00318742
0.00733924
0.00665831
0.00606732
0.00555413
0.00510696
0.00471791
0.00437899
0.00408051
0.00381226
0.00357061
0.0033525
0.00315544
0.00679597
0.00618875
0.00563025
0.00514972
0.0047393
0.00438951
0.00408319
0.00381043
0.00356569
0.00334547
0.00314588
0.00296576
0.00604955
0.00535733
0.00482708
0.00441832
0.0040814
0.00379195
0.00353735
0.00331016
0.00310244
0.00291574
0.00274246
0.00423501
0.0039542
0.00364827
0.00338706
0.00315796
0.00295714
0.00277567
0.00261249
0.00245339
0.00231172
0.0021855
0.00409698
0.00364012
0.00329188
0.00303036
0.00284103
0.00269803
0.0025828
0.0024857
0.00239811
0.00232051
0.00225358
0.00294687
0.00278689
0.00265192
0.00253621
0.00243463
0.00234386
0.0022612
0.00218599
0.00211775
0.00442485
0.00408939
0.00380115
0.00354767
0.0033203
0.00311434
0.00292571
0.0027535
0.00259209
0.00570071
0.00525992
0.0048727
0.00452947
0.00422241
0.00394588
0.00369497
0.00346709
0.0032575
0.00873795
0.00797086
0.00729005
0.0066881
0.00615644
0.0056865
0.00526953
0.00489751
0.00456388
0.00426341
0.00399179
0.0037451
0.00968607
0.00878615
0.00800826
0.00732925
0.00673264
0.00620594
0.00573932
0.00532441
0.00495394
0.00462135
0.00432153
0.00405031
0.00995615
0.0090529
0.00825854
0.00755945
0.00694288
0.00639752
0.00591391
0.00548398
0.00510055
0.00475696
0.00444763
0.00416805
0.00967609
0.00881124
0.00804348
0.00736552
0.00676737
0.00623885
0.00577087
0.00535531
0.00498475
0.00465254
0.00435329
0.00408273
0.00898441
0.00811707
0.00738152
0.0067494
0.00620114
0.00572189
0.00530036
0.0049266
0.00459271
0.00429263
0.00402144
0.00377631
0.00743415
0.00678343
0.00620396
0.00569733
0.00525574
0.00486793
0.00452428
0.00421706
0.00394039
0.00368985
0.00346132
0.00561202
0.00513802
0.00470645
0.00434063
0.00402219
0.00374348
0.00349607
0.00327361
0.00307373
0.00289169
0.00272684
0.00429253
0.00384508
0.00350083
0.0032333
0.00303552
0.00286681
0.00272258
0.00260004
0.0024954
0.00240399
0.00232298
0.00315525
0.00296904
0.00281303
0.00267773
0.00255807
0.00245089
0.00235402
0.00226591
0.00218547
0.00515324
0.00474121
0.00439105
0.00408447
0.00381148
0.00356683
0.00334641
0.00314711
0.00296519
0.00675049
0.00620193
0.00572249
0.00530083
0.00492694
0.00459299
0.00429281
0.0040217
0.00377554
0.0103582
0.00944015
0.00862849
0.00791082
0.00727547
0.00671201
0.00621112
0.00576433
0.00536431
0.00500481
0.00468053
0.00438693
0.0113773
0.0103586
0.00945952
0.00866586
0.00796381
0.00734111
0.00678718
0.0062929
0.00585048
0.00545313
0.00509505
0.00477121
0.0118384
0.0107352
0.00978024
0.00894671
0.0082143
0.0075672
0.00699285
0.00648105
0.00602336
0.00561262
0.00524272
0.00490835
0.0114657
0.0104105
0.00949317
0.00868975
0.00798227
0.00735645
0.0068007
0.00630539
0.00586237
0.00546469
0.00510642
0.00478255
0.0103586
0.00944099
0.00862934
0.0079115
0.00727606
0.00671257
0.00621166
0.00576486
0.00536484
0.00500533
0.00468101
0.00438775
0.0087389
0.00797187
0.00729043
0.00668786
0.00615571
0.00568538
0.00526814
0.00489592
0.00456223
0.0042618
0.00399011
0.00673102
0.0060854
0.00553506
0.00506545
0.00466432
0.00431751
0.00401001
0.00373681
0.00349284
0.00327386
0.00307613
0.0042789
0.00391976
0.00362508
0.00338295
0.00317874
0.00300367
0.00284949
0.00271345
0.00259279
0.00248531
0.00238951
0.00331086
0.00310825
0.00293725
0.00278974
0.0026598
0.00254316
0.00243777
0.00234203
0.00225479
0.00555057
0.00510519
0.00471729
0.0043786
0.00407988
0.00381145
0.00356965
0.00335152
0.00315419
0.00736724
0.00676813
0.00623894
0.00577048
0.00535453
0.00498367
0.00465125
0.0043519
0.0040812
0.0114671
0.0104121
0.00949425
0.00869021
0.0079822
0.00735597
0.00679991
0.00630437
0.0058612
0.00546343
0.00510514
0.00478125
0.0125109
0.0113786
0.0103848
0.00950997
0.00873711
0.00805191
0.00744232
0.00689814
0.00641077
0.0059729
0.00557824
0.0052213
0.0129123
0.0117319
0.0107017
0.00979748
0.00899978
0.00829305
0.00766443
0.00710328
0.00660066
0.00614902
0.00574192
0.00537364
0.0125106
0.0113786
0.0103851
0.00951042
0.00873773
0.00805267
0.00744316
0.00689903
0.00641168
0.00597379
0.0055791
0.00522209
0.0113772
0.0103582
0.00945949
0.00866617
0.00796433
0.00734174
0.00678784
0.00629356
0.0058511
0.00545372
0.00509559
0.00477168
0.00968639
0.00878666
0.00800882
0.00732972
0.00673297
0.00620615
0.00573941
0.00532439
0.00495387
0.00462128
0.00432149
0.00733616
0.00662516
0.00602093
0.00550198
0.00505256
0.00466306
0.00432232
0.00402205
0.00375317
0.0035116
0.0032942
0.00417602
0.00389251
0.00363955
0.00341532
0.00321731
0.00304295
0.00288862
0.0027513
0.00262791
0.00251672
0.0024164
0.0118398
0.0107367
0.00978139
0.00894732
0.00821436
0.00756677
0.00699204
0.00647995
0.00602207
0.00561123
0.00524129
0.00490695
0.0129126
0.0117318
0.0107014
0.00979693
0.00899905
0.00829217
0.00766345
0.00710224
0.00659959
0.00614797
0.00574091
0.00537273
0.0132359
0.012052
0.0110068
0.0100833
0.00926572
0.0085398
0.00789327
0.00731563
0.00679792
0.00633252
0.00591287
0.00553314
0.0129124
0.011732
0.0107018
0.0097975
0.00899979
0.00829304
0.00766442
0.00710326
0.00660064
0.00614899
0.00574189
0.00537362
0.0118381
0.0107357
0.00978096
0.00894745
0.00821495
0.00756772
0.00699325
0.00648134
0.00602357
0.00561276
0.00524281
0.00490826
0.00995758
0.00905388
0.00825949
0.00756037
0.0069437
0.00639821
0.00591446
0.00548438
0.00510084
0.00475719
0.00444783
0.00745226
0.00677278
0.00617879
0.00565879
0.00520224
0.00480196
0.00445065
0.00414158
0.00386529
0.00361615
0.00339148
0.00421929
0.00388902
0.00361614
0.00338454
0.00318478
0.00301119
0.00285912
0.00272462
0.00260373
0.00249421
0.00239492
)
;

boundaryField
{
    inlet
    {
        type            fixedValue;
        value           nonuniform List<scalar> 0();
    }
    ami1
    {
        type            cyclicAMI;
        value           nonuniform List<scalar> 0();
    }
    walls
    {
        type            kqRWallFunction;
        value           nonuniform List<scalar> 
227
(
0.00427859
0.00417625
0.00422132
0.00431787
0.00418605
0.00368428
0.00363351
0.00444323
0.00391942
0.00389276
0.00389016
0.00387088
0.0036831
0.00340274
0.00329003
0.00387274
0.00362496
0.00363967
0.00361647
0.00355578
0.00337675
0.00314821
0.00300505
0.00341074
0.00323054
0.00338339
0.00341535
0.00338432
0.00331064
0.00315235
0.00294581
0.00279931
0.00313561
0.00296543
0.00284413
0.00303492
0.00317996
0.0032173
0.00318415
0.00310807
0.00296692
0.00278373
0.00265126
0.00296382
0.00285469
0.00270485
0.00286894
0.00300523
0.00304293
0.00301028
0.00293688
0.0028111
0.00264751
0.00253983
0.00284928
0.00276928
0.0025914
0.00272646
0.00285129
0.00288861
0.00285808
0.00278936
0.0026759
0.00253115
0.00244858
0.00276058
0.0026924
0.00249436
0.00260466
0.00271535
0.00275129
0.00272352
0.00265949
0.00255635
0.0024296
0.00236911
0.00268372
0.0026234
0.00240826
0.00249963
0.00259468
0.00262789
0.00260262
0.00254281
0.00244939
0.00233877
0.00229458
0.0026141
0.00255876
0.00232794
0.00240862
0.00248703
0.00251663
0.0024931
0.00243745
0.00235273
0.00225671
0.00222619
0.0025518
0.00250344
0.00226177
0.00232736
0.00239089
0.002416
0.00239355
0.00234179
0.00226485
0.00218202
0.00216595
0.00249698
0.00245215
0.00220096
0.00225347
0.00230424
0.00232485
0.00230299
0.0022547
0.00218501
0.00444323
0.00409698
0.00429253
0.0042789
0.00417602
0.00421929
0.00387274
0.00364012
0.00384508
0.00391976
0.00389251
0.00388902
0.00341074
0.00329188
0.00350083
0.00362508
0.00363955
0.00361614
0.00313561
0.00303036
0.0032333
0.00338295
0.00341532
0.00338454
0.00296382
0.00284103
0.00303552
0.00317874
0.00321731
0.00318478
0.00284928
0.00269803
0.00286681
0.00300367
0.00304295
0.00301119
0.00276058
0.0025828
0.00272258
0.00284949
0.00288862
0.00285912
0.00268372
0.0024857
0.00260004
0.00271345
0.0027513
0.00272462
0.0026141
0.00239811
0.0024954
0.00259279
0.00262791
0.00260373
0.0025518
0.00232051
0.00240399
0.00248531
0.00251672
0.00249421
0.00249698
0.00225358
0.00232298
0.00238951
0.0024164
0.00239492
0.00294687
0.00315525
0.00331086
0.00296543
0.00265554
0.00278689
0.00296904
0.00310825
0.00285469
0.00254759
0.00265192
0.00281303
0.00293725
0.00276928
0.00246084
0.00253621
0.00267773
0.00278974
0.0026924
0.00237946
0.00243463
0.00255807
0.0026598
0.0026234
0.00230589
0.00234386
0.00245089
0.00254316
0.00255876
0.00223474
0.0022612
0.00235402
0.00243777
0.00250344
0.00217458
0.00218599
0.00226591
0.00234203
0.00245215
0.00211949
0.00211775
0.00218547
0.00225479
)
;
    }
    ami2
    {
        type            cyclicAMI;
        value           nonuniform List<scalar> 
48
(
0.00448394
0.00432768
0.00442056
0.00457871
0.00449989
0.00381171
0.00376869
0.00431349
0.00707756
0.00774152
0.00783603
0.0077316
0.00710263
0.00643539
0.004319
0.00429948
0.00916405
0.0102148
0.0104686
0.0101552
0.00951174
0.00779507
0.00584265
0.00449855
0.0108747
0.0119524
0.0124836
0.0120794
0.0108749
0.00916451
0.00707702
0.00448417
0.0120801
0.0131575
0.0135951
0.0131573
0.0119524
0.010215
0.00774161
0.0043276
0.0124843
0.0135953
0.0139049
0.0135951
0.0124834
0.0104694
0.00783507
0.00441953
)
;
    }
    outlet
    {
        type            zeroGradient;
    }
    procBoundary0to1
    {
        type            processor;
        value           nonuniform List<scalar> 
138
(
0.00355517
0.00338469
0.00318451
0.0030107
0.00285852
0.00272398
0.0026031
0.00249357
0.00239397
0.00230332
0.00606592
0.00565916
0.00520178
0.00480107
0.00444956
0.00414035
0.00386399
0.00361483
0.00338984
0.0031868
0.00967578
0.00881119
0.00804388
0.00804388
0.00755901
0.00694239
0.00639687
0.00591308
0.00548297
0.0050994
0.00475571
0.00444634
0.00416673
0.00995667
0.00905234
0.00825785
0.00755901
0.00694239
0.00639687
0.00591308
0.00548297
0.0050994
0.00475571
0.00444634
0.00416673
0.0113776
0.0103583
0.00945902
0.00866516
0.0079629
0.00734003
0.00678596
0.0062916
0.00584915
0.00545182
0.00509379
0.00477006
0.0125097
0.0113773
0.0103835
0.00950866
0.00873582
0.00805065
0.00744109
0.00689696
0.00640965
0.00597185
0.00557728
0.00522045
0.0129116
0.011731
0.0107007
0.00979637
0.00899863
0.00829188
0.00766328
0.00710217
0.00659961
0.00614804
0.00574102
0.00537285
0.0125096
0.0113776
0.0103841
0.00950944
0.00873675
0.0080517
0.00744223
0.00689816
0.00641088
0.00597307
0.00557847
0.00522156
0.0114659
0.0104108
0.00949329
0.00868967
0.007982
0.00735605
0.00680022
0.00630488
0.00586186
0.00546422
0.00510601
0.00478215
0.00967709
0.00881205
0.0080441
0.0073659
0.00676749
0.00623875
0.00577058
0.00535487
0.00498425
0.00465204
0.00435283
0.00733944
0.00665777
0.00606691
0.00555401
0.00510704
0.00471805
0.00437901
0.00408036
0.00381205
0.00357039
0.00335233
0.00431748
0.00387136
0.00355643
0.00331123
0.00310865
0.00293743
0.00278981
0.00265983
0.00254307
0.00243769
0.00234227
)
;
    }
    procBoundary0to2
    {
        type            processor;
        value           nonuniform List<scalar> 
28
(
0.00313713
0.00303093
0.00303093
0.00429351
0.00384599
0.00350521
0.00350521
0.00280133
0.00280133
0.00339035
0.00339035
0.00339035
0.00561266
0.00513961
0.00470803
0.00470803
0.00315145
0.00482887
0.00743612
0.00678428
0.00620471
0.00620471
0.0033778
0.00563162
0.00898473
0.00811809
0.00738267
0.00738267
)
;
    }
    procBoundary0to8
    {
        type            processor;
        value           nonuniform List<scalar> 
29
(
0.00240298
0.00214567
0.00218923
0.00222605
0.00224262
0.00206887
0.00198438
0.00244854
0.00273903
0.00291961
0.00205697
0.00245271
0.00307002
0.00352187
0.00380365
0.00211253
0.00280259
0.00355321
0.00412071
0.00447685
0.00217555
0.00297567
0.00383565
0.00448718
0.00489683
0.00503848
0.00460326
0.005038
0.00518759
)
;
    }
    procBoundary0to9
    {
        type            processor;
        value           nonuniform List<scalar> 
40
(
0.00222095
0.0021755
0.00211209
0.00211606
0.00211606
0.00211497
0.00244845
0.00300288
0.00297662
0.00280241
0.00259177
0.00259177
0.00208428
0.00219631
0.00391359
0.0038369
0.00355354
0.00325749
0.00325749
0.00257602
0.00225052
0.00460418
0.00448827
0.0041213
0.00374539
0.00374539
0.00289966
0.0023039
0.00489736
0.00447736
0.00405009
0.00405009
0.00309805
0.00232629
0.00503855
0.00460429
0.00416738
0.00416738
0.00318784
0.0023053
)
;
    }
}


// ************************************************************************* //
