/*--------------------------------*- C++ -*----------------------------------*\
| =========                 |                                                 |
| \\      /  F ield         | OpenFOAM: The Open Source CFD Toolbox           |
|  \\    /   O peration     | Version:  2212                                  |
|   \\  /    A nd           | Website:  www.openfoam.com                      |
|    \\/     M anipulation  |                                                 |
\*---------------------------------------------------------------------------*/
FoamFile
{
    version     2.0;
    format      ascii;
    arch        "LSB;label=32;scalar=64";
    class       volScalarField;
    location    "2";
    object      nut;
}
// * * * * * * * * * * * * * * * * * * * * * * * * * * * * * * * * * * * * * //

dimensions      [0 2 -1 0 0 0 0];

internalField   nonuniform List<scalar> 
689
(
4.45249e-06
4.35915e-06
4.28841e-06
4.22719e-06
4.17152e-06
4.12105e-06
4.07696e-06
4.0362e-06
9.33609e-06
9.09421e-06
8.89635e-06
8.7261e-06
8.57057e-06
8.4292e-06
8.30978e-06
8.19954e-06
1.44902e-05
1.40358e-05
1.36433e-05
1.32979e-05
1.29952e-05
1.27294e-05
1.24962e-05
1.22852e-05
1.20882e-05
2.05834e-05
1.97318e-05
1.89839e-05
1.83461e-05
1.77895e-05
1.72959e-05
1.68489e-05
1.64443e-05
1.60768e-05
1.57416e-05
1.54364e-05
1.51562e-05
2.27435e-05
2.19898e-05
2.12853e-05
2.06335e-05
2.00369e-05
1.94945e-05
1.90003e-05
1.85489e-05
1.81332e-05
1.77497e-05
1.73952e-05
1.70678e-05
2.40145e-05
2.29609e-05
2.2087e-05
2.13424e-05
2.06912e-05
2.0115e-05
1.96004e-05
1.9136e-05
1.87098e-05
1.83157e-05
1.79504e-05
1.76118e-05
2.3381e-05
2.20808e-05
2.11121e-05
2.03615e-05
1.97243e-05
1.91711e-05
1.86828e-05
1.82433e-05
1.78399e-05
1.74689e-05
1.7126e-05
1.68087e-05
2.05385e-05
1.91381e-05
1.8315e-05
1.77124e-05
1.71863e-05
1.67256e-05
1.6315e-05
1.59444e-05
1.56074e-05
1.52983e-05
1.50134e-05
1.47517e-05
1.53217e-05
1.48062e-05
1.43179e-05
1.38394e-05
1.34349e-05
1.3089e-05
1.27898e-05
1.25269e-05
1.22895e-05
1.20748e-05
1.18775e-05
1.07254e-05
1.01715e-05
9.67132e-06
9.28876e-06
9.01336e-06
8.80452e-06
8.63309e-06
8.49222e-06
8.353e-06
8.23384e-06
8.12382e-06
5.56579e-06
5.16689e-06
4.81415e-06
4.59211e-06
4.45205e-06
4.35683e-06
4.28255e-06
4.22074e-06
4.16351e-06
4.11456e-06
4.0703e-06
9.02463e-06
8.81044e-06
8.64725e-06
8.50907e-06
8.3743e-06
8.25164e-06
8.14333e-06
8.04483e-06
2.57003e-05
2.42669e-05
2.30258e-05
2.17486e-05
2.05341e-05
1.92425e-05
1.83198e-05
1.71973e-05
5.36463e-05
5.08736e-05
4.83768e-05
4.60319e-05
4.37742e-05
4.1581e-05
3.94668e-05
3.75877e-05
3.53593e-05
8.76611e-05
8.24904e-05
7.80116e-05
7.41602e-05
7.1239e-05
6.82782e-05
6.45535e-05
6.12254e-05
5.81648e-05
5.53189e-05
5.26794e-05
5.01977e-05
0.000103624
9.74344e-05
9.18539e-05
8.68577e-05
8.2501e-05
7.91107e-05
7.58042e-05
7.2586e-05
6.89653e-05
6.56567e-05
6.26014e-05
5.97927e-05
0.000106816
0.000101512
9.63913e-05
9.16106e-05
8.71788e-05
8.35268e-05
8.04064e-05
7.75514e-05
7.40819e-05
7.05753e-05
6.73717e-05
6.44576e-05
0.000104232
9.80299e-05
9.30221e-05
8.86443e-05
8.46906e-05
8.16142e-05
7.90613e-05
7.62582e-05
7.26614e-05
6.94064e-05
6.64274e-05
6.36774e-05
9.0845e-05
8.41106e-05
8.02657e-05
7.68728e-05
7.40908e-05
7.21053e-05
6.90858e-05
6.57979e-05
6.27814e-05
5.99778e-05
5.7321e-05
5.48649e-05
7.08758e-05
6.15165e-05
5.77925e-05
5.59237e-05
5.33853e-05
5.06609e-05
4.81967e-05
4.5892e-05
4.36306e-05
4.15236e-05
3.9401e-05
2.88863e-05
2.82678e-05
2.7392e-05
2.62415e-05
2.49289e-05
2.37194e-05
2.24357e-05
2.12446e-05
1.99595e-05
1.88699e-05
1.78235e-05
1.12998e-05
1.06302e-05
1.00977e-05
9.65949e-06
9.33477e-06
9.08692e-06
8.8845e-06
8.71248e-06
8.55235e-06
8.41573e-06
8.29108e-06
1.38437e-05
1.34433e-05
1.30989e-05
1.28013e-05
1.25396e-05
1.23036e-05
1.20881e-05
1.18904e-05
1.17078e-05
5.63087e-05
5.36815e-05
5.09573e-05
4.85205e-05
4.62032e-05
4.39847e-05
4.18125e-05
3.97118e-05
3.75209e-05
9.72377e-05
9.37854e-05
9.03846e-05
8.70384e-05
8.37065e-05
8.04033e-05
7.71199e-05
7.39375e-05
7.06965e-05
0.000144229
0.000138429
0.000132834
0.000127525
0.00012259
0.000117947
0.000113422
0.000109093
0.000104936
0.000100944
9.71078e-05
9.3413e-05
0.000169285
0.000161105
0.000153709
0.000146928
0.000140685
0.000134957
0.000129654
0.000124707
0.000119967
0.000115448
0.000111156
0.000107084
0.000175738
0.00016803
0.000160679
0.000153756
0.000147289
0.000141303
0.0001358
0.000130725
0.000125913
0.000121307
0.000116916
0.00011275
0.000168752
0.000161502
0.000154598
0.000148149
0.000142172
0.00013668
0.000131615
0.000126874
0.000122335
0.000118009
0.000113867
0.000109902
0.000152754
0.000143453
0.000136182
0.000130186
0.000124981
0.000120322
0.000115941
0.000111722
0.00010764
0.000103682
9.98568e-05
9.62555e-05
0.000109867
0.000104985
0.000100618
9.70422e-05
9.36057e-05
9.02e-05
8.68298e-05
8.34832e-05
8.01691e-05
7.68973e-05
7.36666e-05
5.87243e-05
5.7105e-05
5.47746e-05
5.31218e-05
5.04317e-05
4.79532e-05
4.56155e-05
4.33705e-05
4.12229e-05
3.91124e-05
3.73531e-05
1.67186e-05
1.58292e-05
1.51314e-05
1.44928e-05
1.40398e-05
1.36429e-05
1.32922e-05
1.29863e-05
1.27215e-05
1.24838e-05
1.22708e-05
1.77266e-05
1.7196e-05
1.67337e-05
1.63223e-05
1.59514e-05
1.56137e-05
1.53038e-05
1.50181e-05
1.47535e-05
7.67321e-05
7.41405e-05
7.21635e-05
6.91065e-05
6.58186e-05
6.28099e-05
5.99997e-05
5.73537e-05
5.48079e-05
0.000130222
0.000125022
0.000120352
0.000115954
0.000111721
0.000107633
0.000103668
9.98492e-05
9.61651e-05
0.000185367
0.000178095
0.000171041
0.000164348
0.000158065
0.000152191
0.000146688
0.000141474
0.000136525
0.000131814
0.00012732
0.000123027
0.00020878
0.000200455
0.000192424
0.00018479
0.000177601
0.000170858
0.000164539
0.00015862
0.000153075
0.000147848
0.000142893
0.000138186
0.000220618
0.000210203
0.00020093
0.000192503
0.000184755
0.000177588
0.000170933
0.00016474
0.000158954
0.000153527
0.000148413
0.000143565
0.000212117
0.000202537
0.00019382
0.000185825
0.000178454
0.000171631
0.000165293
0.000159381
0.000153836
0.000148616
0.000143683
0.000139004
0.000185445
0.000178193
0.000171099
0.000164386
0.000158097
0.000152224
0.000146725
0.000141515
0.000136568
0.000131858
0.000127363
0.000123088
0.00014438
0.000138502
0.000132841
0.000127534
0.000122593
0.000117927
0.000113392
0.000109053
0.000104888
0.000100891
9.70452e-05
8.75871e-05
8.24566e-05
7.78845e-05
7.40771e-05
7.11324e-05
6.81271e-05
6.43897e-05
6.10627e-05
5.80098e-05
5.51781e-05
5.25592e-05
2.05829e-05
1.97325e-05
1.89846e-05
1.83462e-05
1.77883e-05
1.72936e-05
1.68454e-05
1.64398e-05
1.60714e-05
1.57361e-05
1.54315e-05
2.03705e-05
1.97295e-05
1.91752e-05
1.86859e-05
1.82454e-05
1.7842e-05
1.74706e-05
1.71272e-05
1.68091e-05
8.85813e-05
8.47346e-05
8.1741e-05
7.90933e-05
7.62241e-05
7.26308e-05
6.93737e-05
6.63899e-05
6.36216e-05
0.000148282
0.00014227
0.000136739
0.000131626
0.000126842
0.000122274
0.000117927
0.000113771
0.000109788
0.000212128
0.000202522
0.000193824
0.000185837
0.000178459
0.000171621
0.000165264
0.000159332
0.000153771
0.000148539
0.000143598
0.000138912
0.000233858
0.000224152
0.000215053
0.000206536
0.000198566
0.000191109
0.000184127
0.000177587
0.000171453
0.00016569
0.000160262
0.000155125
0.000242655
0.00023214
0.000222522
0.000213633
0.00020537
0.000197661
0.000190453
0.000183703
0.000177374
0.00017143
0.000165836
0.00016054
0.000233859
0.000224188
0.000215098
0.000206582
0.000198612
0.000191155
0.000184175
0.000177637
0.000171505
0.000165743
0.000160315
0.000155173
0.000208774
0.000200506
0.00019249
0.000184857
0.000177665
0.000170919
0.000164594
0.000158672
0.000153125
0.000147896
0.000142937
0.000138208
0.000169274
0.000161218
0.000153822
0.000147025
0.000140771
0.000135033
0.0001297
0.000124747
0.000120015
0.000115496
0.000111206
0.000103621
9.74505e-05
9.18665e-05
8.68694e-05
8.2515e-05
7.91201e-05
7.58018e-05
7.25785e-05
6.8959e-05
6.56537e-05
6.26299e-05
2.27429e-05
2.19886e-05
2.12845e-05
2.06333e-05
2.00371e-05
1.9495e-05
1.90009e-05
1.85493e-05
1.81334e-05
1.77499e-05
1.73967e-05
0.000220718
0.00021032
0.000201023
0.000192562
0.000184779
0.000177577
0.000170893
0.000164675
0.000158873
0.000153432
0.000148305
0.000143447
0.000242627
0.000232114
0.000222491
0.000213594
0.000205323
0.000197605
0.00019039
0.000183634
0.0001773
0.000171353
0.000165758
0.000160464
0.000248243
0.0002385
0.000229148
0.00022029
0.000211945
0.000204102
0.000196736
0.000189819
0.000183321
0.000177213
0.000171462
0.000166016
0.000242621
0.000232109
0.000222508
0.00021363
0.000205371
0.000197662
0.000190451
0.000183697
0.000177365
0.000171418
0.000165822
0.000160521
0.000220619
0.000210294
0.000201043
0.000192608
0.000184843
0.000177658
0.000170985
0.000164776
0.000158979
0.000153544
0.000148422
0.000143539
0.000175765
0.00016823
0.000160899
0.000153955
0.000147459
0.000141447
0.000135904
0.000130809
0.000125989
0.000121383
0.00011699
0.000106626
0.000101423
9.63592e-05
9.16216e-05
8.72285e-05
8.35991e-05
8.04531e-05
7.7622e-05
7.41595e-05
7.06471e-05
6.74654e-05
2.40152e-05
2.29587e-05
2.20866e-05
2.13434e-05
2.06933e-05
2.01179e-05
1.96036e-05
1.91394e-05
1.87132e-05
1.83192e-05
1.7955e-05
)
;

boundaryField
{
    inlet
    {
        type            calculated;
        value           nonuniform List<scalar> 0();
    }
    ami1
    {
        type            cyclicAMI;
        value           nonuniform List<scalar> 0();
    }
    walls
    {
        type            nutkWallFunction;
        blending        stepwise;
        value           uniform 0;
    }
    ami2
    {
        type            cyclicAMI;
        value           nonuniform List<scalar> 
48
(
2.39415e-05
2.3676e-05
2.74086e-05
3.02933e-05
2.73935e-05
1.63229e-05
1.36228e-05
1.31946e-05
9.17995e-05
0.000109354
0.000112647
0.000110942
9.46687e-05
7.77125e-05
2.69039e-05
1.82385e-05
0.000146997
0.000173709
0.000181012
0.00017366
0.000158583
0.000112938
6.08833e-05
2.21195e-05
0.000189874
0.000213313
0.000225678
0.000217353
0.000189912
0.000147069
9.17617e-05
2.39414e-05
0.00021736
0.000238765
0.000247631
0.000238766
0.000213311
0.000173709
0.000109358
2.36763e-05
0.000225729
0.000247617
0.000253167
0.000247612
0.000225679
0.000181032
0.000112561
2.741e-05
)
;
    }
    outlet
    {
        type            calculated;
        value           nonuniform List<scalar> 0();
    }
    procBoundary0to1
    {
        type            processor;
        value           nonuniform List<scalar> 
138
(
2.11143e-05
2.13455e-05
2.06942e-05
2.01177e-05
1.96026e-05
1.91378e-05
1.87114e-05
1.83173e-05
1.79517e-05
1.76128e-05
9.29368e-05
9.17012e-05
8.72685e-05
8.36057e-05
8.04405e-05
7.7588e-05
7.41186e-05
7.05991e-05
6.73808e-05
6.44473e-05
0.000168654
0.000161508
0.000154669
0.000154669
0.000153789
0.000147315
0.000141312
0.000135786
0.000130693
0.000125865
0.000121244
0.000116838
0.000112658
0.000175698
0.000168052
0.0001607
0.000153789
0.000147315
0.000141312
0.000135786
0.000130693
0.000125865
0.000121244
0.000116838
0.000112658
0.000208709
0.000200424
0.00019239
0.000184745
0.000177543
0.00017079
0.000164463
0.000158538
0.000152988
0.000147757
0.000142799
0.00013809
0.00023376
0.000224056
0.000214963
0.000206449
0.00019848
0.000191023
0.000184042
0.000177502
0.000171369
0.000165608
0.000160183
0.000155048
0.000242601
0.00023205
0.000222429
0.000213543
0.000205283
0.000197576
0.000190368
0.000183619
0.000177291
0.000171349
0.000165758
0.000160466
0.000233758
0.000224104
0.000215022
0.000206509
0.000198542
0.000191087
0.000184109
0.000177572
0.000171443
0.000165683
0.000160258
0.00015512
0.000212073
0.000202501
0.000193808
0.000185827
0.000178457
0.00017163
0.000165285
0.000159365
0.000153816
0.000148594
0.000143658
0.000138962
0.000168915
0.00016157
0.000154668
0.000148224
0.000142241
0.000136738
0.000131653
0.00012689
0.000122349
0.000118025
0.000113883
0.000104364
9.81547e-05
9.31199e-05
8.87206e-05
8.4768e-05
8.16783e-05
7.90945e-05
7.62778e-05
7.26856e-05
6.94306e-05
6.64578e-05
2.33787e-05
2.20826e-05
2.11148e-05
2.03637e-05
1.97262e-05
1.91728e-05
1.8684e-05
1.8244e-05
1.78404e-05
1.74691e-05
1.7127e-05
)
;
    }
    procBoundary0to2
    {
        type            processor;
        value           nonuniform List<scalar> 
28
(
4.59407e-06
9.66041e-06
9.66041e-06
1.67224e-05
1.58312e-05
1.51422e-05
1.51422e-05
9.29269e-06
9.29269e-06
2.62365e-05
2.62365e-05
2.62365e-05
5.86561e-05
5.71011e-05
5.48763e-05
5.48763e-05
1.43264e-05
5.7811e-05
0.000109972
0.000104954
0.000100667
0.000100667
1.83194e-05
8.05421e-05
0.000152863
0.000143636
0.000136359
0.000136359
)
;
    }
    procBoundary0to8
    {
        type            processor;
        value           nonuniform List<scalar> 
29
(
3.99687e-06
8.10058e-06
1.19181e-05
1.49007e-05
1.67681e-05
7.95436e-06
1.64016e-05
3.44879e-05
4.80458e-05
5.72601e-05
1.15472e-05
3.59766e-05
6.80327e-05
8.99739e-05
0.000103154
1.4512e-05
5.26039e-05
9.28036e-05
0.000118928
0.000133586
1.65161e-05
6.11074e-05
0.000105986
0.000134378
0.000150123
0.00015534
0.000138723
0.000155313
0.000160691
)
;
    }
    procBoundary0to9
    {
        type            processor;
        value           nonuniform List<scalar> 
40
(
1.73001e-05
1.65162e-05
1.45099e-05
1.17022e-05
1.17022e-05
8.03311e-06
4.03224e-06
6.18142e-05
6.1155e-05
5.25922e-05
3.76498e-05
3.76498e-05
1.71415e-05
8.18903e-06
0.000108701
0.000106069
9.28117e-05
7.08277e-05
7.08277e-05
3.52414e-05
1.20799e-05
0.000138796
0.000134447
0.000118948
9.34834e-05
9.34834e-05
5.02832e-05
1.51564e-05
0.00015014
0.000133603
0.000107074
0.000107074
5.9942e-05
1.70741e-05
0.000155333
0.000138782
0.000112707
0.000112707
6.46183e-05
1.76205e-05
)
;
    }
}


// ************************************************************************* //
