/*--------------------------------*- C++ -*----------------------------------*\
| =========                 |                                                 |
| \\      /  F ield         | OpenFOAM: The Open Source CFD Toolbox           |
|  \\    /   O peration     | Version:  2212                                  |
|   \\  /    A nd           | Website:  www.openfoam.com                      |
|    \\/     M anipulation  |                                                 |
\*---------------------------------------------------------------------------*/
FoamFile
{
    version     2.0;
    format      ascii;
    arch        "LSB;label=32;scalar=64";
    class       volScalarField;
    location    "2";
    object      p;
}
// * * * * * * * * * * * * * * * * * * * * * * * * * * * * * * * * * * * * * //

dimensions      [0 2 -2 0 0 0 0];

internalField   nonuniform List<scalar> 
689
(
0.00431118
0.00418445
0.00405694
0.00392881
0.0037978
0.00366486
0.00353197
0.00339954
0.00427458
0.00415117
0.00402684
0.00390238
0.00377508
0.003645
0.00351419
0.00338322
0.00451291
0.00434961
0.00419713
0.00405083
0.00391036
0.00377449
0.00364085
0.00350857
0.00337608
0.00528173
0.00503786
0.00477843
0.00457043
0.00439698
0.00423836
0.00408783
0.00394319
0.00380302
0.00366555
0.00352998
0.00339563
0.00512203
0.00495489
0.00476608
0.00458592
0.00441941
0.00426173
0.00411
0.00396355
0.00382106
0.00368116
0.00354312
0.00340705
0.00500964
0.00489969
0.00474953
0.00458552
0.0044247
0.00426947
0.00411908
0.00397351
0.00383153
0.00369148
0.00355303
0.00341635
0.00492143
0.0048597
0.00473527
0.00457801
0.00442181
0.0042706
0.00412268
0.00397828
0.0038368
0.00369679
0.00355819
0.00342123
0.00500327
0.0049049
0.00474157
0.00457024
0.00441437
0.0042661
0.00412081
0.00397757
0.00383607
0.00369611
0.00355773
0.00342098
0.00513546
0.00495633
0.00472714
0.00454453
0.00439206
0.00424529
0.00410122
0.0039601
0.00382052
0.00368225
0.00354541
0.0054413
0.00497546
0.00465118
0.00450405
0.00437543
0.00423621
0.00409674
0.00395881
0.00382134
0.00368455
0.00354864
0.00555779
0.00495025
0.00457075
0.00443129
0.00431223
0.00418417
0.00405669
0.00392865
0.00379694
0.0036638
0.00353041
0.00437337
0.00423615
0.00409753
0.00395977
0.00382254
0.00368577
0.00355037
0.00341604
0.00435608
0.00421401
0.00407544
0.00394052
0.00380723
0.00367432
0.00354198
0.00340926
0.00457032
0.00439764
0.00423689
0.00408548
0.00394067
0.00380022
0.00366302
0.00352798
0.00339428
0.00514022
0.00496167
0.0047795
0.0045965
0.00442576
0.00426515
0.00411077
0.0039622
0.00381842
0.00367851
0.00354144
0.00340689
0.00506629
0.00489819
0.00473945
0.00457645
0.00441727
0.00426391
0.00411453
0.00396846
0.00382576
0.00368618
0.00354907
0.00341407
0.00497198
0.00482099
0.00468948
0.00454425
0.0043956
0.00425036
0.0041077
0.00396665
0.00382741
0.00369007
0.00355423
0.00341971
0.00489952
0.00475915
0.00465323
0.00452251
0.00438106
0.00424107
0.0041022
0.00396401
0.00382675
0.00369043
0.00355504
0.00342056
0.00490135
0.00475818
0.00465455
0.00452018
0.00437701
0.00423648
0.00409769
0.00395964
0.0038222
0.00368556
0.00355006
0.00341545
0.00515211
0.00493894
0.00472192
0.00453588
0.0043768
0.00422849
0.00408563
0.00394613
0.00380887
0.00367314
0.00353887
0.00533114
0.00498153
0.0046864
0.0045016
0.0043562
0.00421342
0.00407444
0.00393954
0.00380636
0.00367345
0.00354101
0.00567462
0.0050419
0.00458439
0.00439971
0.00427585
0.00415046
0.00402613
0.00390198
0.0037742
0.00364399
0.00351283
0.00454382
0.00439207
0.00424606
0.0041021
0.00396079
0.0038212
0.00368299
0.00354643
0.00341088
0.00453711
0.00437829
0.00422932
0.00408628
0.00394678
0.00380928
0.00367336
0.00353868
0.00340483
0.004561
0.00438962
0.00422895
0.00407599
0.00392855
0.00378529
0.00364537
0.00350783
0.00337329
0.00503929
0.00486267
0.00471556
0.00455344
0.00438936
0.00423123
0.00407896
0.00393134
0.00378743
0.00364683
0.00350886
0.00337351
0.00499828
0.00482901
0.00468407
0.00453087
0.00437533
0.0042236
0.00407557
0.00392957
0.00378579
0.00364536
0.00350797
0.0033726
0.00493678
0.00478088
0.00465086
0.0045078
0.0043593
0.0042132
0.00406935
0.00392651
0.00378511
0.00364619
0.00350962
0.00337488
0.00490577
0.00475308
0.00463683
0.00450055
0.00435504
0.00421104
0.00406839
0.00392617
0.00378545
0.00364706
0.00351073
0.00337593
0.00498916
0.00481614
0.004676
0.00452485
0.00437053
0.00422027
0.00407295
0.00392842
0.00378675
0.00364761
0.00351062
0.00337524
0.00511782
0.00491659
0.00473841
0.00455887
0.00438805
0.00422822
0.00407554
0.00392818
0.00378519
0.00364572
0.0035088
0.0052356
0.00499814
0.0047678
0.00456891
0.00439596
0.00423586
0.00408457
0.00393986
0.00379973
0.00366281
0.00352818
0.00547792
0.0050863
0.00473199
0.0045142
0.00435001
0.00419609
0.00404904
0.00390863
0.00377324
0.00363989
0.00350776
0.00457002
0.00441423
0.00426634
0.00412133
0.00397812
0.00383663
0.00369667
0.00355829
0.00342124
0.00452041
0.00437728
0.00423676
0.00409808
0.00396015
0.00382265
0.00368589
0.00355011
0.00341547
0.0045253
0.00437111
0.0042207
0.00407327
0.00392871
0.00378691
0.00364756
0.00351023
0.00337493
0.0049502
0.00478418
0.00465262
0.00450739
0.00435591
0.00420682
0.00406106
0.0039176
0.00377639
0.00363735
0.00350026
0.00336495
0.00492527
0.00476458
0.00463419
0.00449136
0.00434265
0.00419584
0.00405167
0.00390922
0.00376837
0.00362964
0.00349292
0.00335791
0.00493443
0.00476829
0.00462758
0.00448261
0.00433505
0.00418971
0.0040468
0.00390547
0.00376559
0.00362759
0.00349141
0.0033568
0.00493006
0.00476522
0.00462817
0.00448474
0.00433754
0.00419233
0.00404943
0.00390802
0.00376818
0.00363014
0.00349382
0.00335899
0.00494985
0.00478377
0.00465225
0.00450701
0.00435552
0.00420648
0.00406081
0.00391742
0.00377632
0.00363742
0.0035005
0.00336516
0.00503893
0.00486214
0.00471475
0.00455251
0.00438857
0.00423067
0.00407857
0.00393105
0.00378733
0.003647
0.00350941
0.00514009
0.00496143
0.00477897
0.0045958
0.00442529
0.00426496
0.00411051
0.0039618
0.00381801
0.00367825
0.00354136
0.00528192
0.00503819
0.0047789
0.00457096
0.00439725
0.00423805
0.004087
0.00394224
0.00380214
0.0036647
0.00352914
0.00457766
0.00442157
0.00427066
0.00412303
0.00397864
0.0038371
0.00369704
0.00355838
0.00342127
0.00452239
0.00438114
0.00424122
0.00410237
0.00396421
0.00382698
0.00369063
0.00355514
0.00342059
0.00450094
0.00435542
0.00421126
0.00406844
0.00392619
0.00378547
0.00364703
0.00351061
0.00337579
0.00493015
0.00476545
0.00462842
0.00448495
0.00433771
0.00419244
0.00404947
0.00390803
0.00376816
0.00363009
0.00349372
0.0033589
0.00490856
0.00474656
0.00461224
0.00447071
0.00432508
0.00418084
0.00403858
0.00389772
0.00375822
0.00362032
0.00348405
0.0033493
0.00490609
0.00474317
0.00460688
0.00446512
0.00431991
0.00417602
0.00403411
0.00389366
0.00375459
0.00361705
0.00348109
0.00334659
0.00490852
0.00474649
0.00461214
0.0044706
0.00432497
0.00418075
0.00403852
0.00389769
0.00375822
0.00362035
0.0034841
0.00334936
0.00492513
0.00476439
0.00463395
0.00449108
0.00434237
0.00419557
0.00405145
0.00390906
0.00376828
0.00362963
0.00349298
0.00335799
0.00499805
0.00482871
0.00468368
0.00453043
0.00437489
0.00422319
0.00407524
0.00392931
0.00378566
0.00364538
0.00350816
0.00506616
0.00489804
0.00473928
0.00457624
0.00441701
0.00426359
0.00411415
0.00396805
0.00382539
0.00368593
0.00354898
0.00512213
0.004955
0.0047662
0.00458597
0.0044193
0.00426139
0.00410947
0.00396292
0.00382041
0.00368054
0.00354258
0.00493437
0.00476827
0.00462756
0.00448258
0.00433499
0.00418963
0.00404672
0.0039054
0.00376554
0.00362754
0.00349137
0.00335679
0.00490607
0.00474314
0.00460685
0.00446508
0.00431987
0.00417598
0.00403408
0.00389364
0.00375458
0.00361705
0.00348109
0.00334661
0.00488366
0.00472541
0.00459579
0.00445709
0.00431338
0.00417035
0.00402894
0.00388884
0.00375006
0.00361278
0.00347704
0.00334275
0.00490605
0.00474312
0.00460681
0.00446505
0.00431985
0.00417595
0.00403406
0.00389362
0.00375456
0.00361704
0.00348108
0.0033466
0.00493436
0.00476821
0.00462746
0.00448246
0.00433487
0.00418953
0.00404664
0.00390535
0.00376551
0.00362754
0.00349137
0.00335678
0.00493658
0.0047807
0.00465069
0.0045076
0.00435908
0.00421295
0.00406913
0.00392635
0.00378502
0.00364616
0.00350965
0.00497182
0.00482082
0.00468932
0.00454405
0.00439536
0.00425008
0.00410741
0.00396637
0.00382717
0.00368989
0.00355415
0.00500968
0.00489962
0.0047494
0.00458534
0.00442446
0.00426916
0.00411869
0.00397305
0.00383107
0.00369105
0.00355267
)
;

boundaryField
{
    inlet
    {
        type            zeroGradient;
    }
    ami1
    {
        type            cyclicAMI;
        value           nonuniform List<scalar> 0();
    }
    walls
    {
        type            zeroGradient;
    }
    ami2
    {
        type            cyclicAMI;
        value           nonuniform List<scalar> 
48
(
0.00530961
0.00517782
0.00504322
0.00495011
0.00503982
0.00514135
0.00538097
0.0055256
0.00525565
0.00517282
0.00509032
0.00504653
0.0050884
0.00524933
0.0054438
0.00563485
0.00519028
0.00511832
0.00506071
0.00505086
0.00511942
0.00526368
0.00536292
0.00547479
0.00509245
0.00505997
0.00504861
0.00504845
0.0050922
0.00519002
0.00525555
0.00530974
0.00504849
0.00503275
0.00502447
0.0050327
0.00505985
0.00511813
0.0051727
0.0051779
0.00504855
0.00502445
0.00501064
0.00502442
0.00504854
0.00506054
0.00509019
0.00504324
)
;
    }
    outlet
    {
        type            fixedValue;
        value           nonuniform List<scalar> 0();
    }
    procBoundary0to1
    {
        type            processor;
        value           nonuniform List<scalar> 
138
(
0.00473481
0.00458542
0.00442464
0.00426946
0.0041191
0.00397349
0.0038315
0.00369143
0.00355297
0.00341623
0.00465307
0.00454426
0.00439562
0.00425034
0.00410763
0.00396656
0.00382734
0.00368999
0.00355412
0.00341956
0.00490583
0.00475357
0.00463729
0.00463729
0.00450787
0.00435933
0.00421315
0.00406926
0.00392643
0.00378505
0.0036461
0.00350951
0.00337476
0.00493672
0.00478097
0.00465096
0.00450787
0.00435933
0.00421315
0.00406926
0.00392643
0.00378505
0.0036461
0.00350951
0.00337476
0.00492503
0.00476427
0.00463391
0.0044911
0.0043424
0.00419561
0.00405148
0.00390907
0.00376828
0.00362961
0.00349295
0.003358
0.00490846
0.00474642
0.00461208
0.00447054
0.00432492
0.0041807
0.00403847
0.00389765
0.00375819
0.00362033
0.0034841
0.00334939
0.00490603
0.00474309
0.00460678
0.00446502
0.00431982
0.00417594
0.00403404
0.00389362
0.00375457
0.00361705
0.0034811
0.00334662
0.00490846
0.00474642
0.00461207
0.00447054
0.00432492
0.00418071
0.00403848
0.00389766
0.00375821
0.00362033
0.00348409
0.00334934
0.00492993
0.00476503
0.00462801
0.00448461
0.00433743
0.00419223
0.00404934
0.00390795
0.00376814
0.00363012
0.00349381
0.00335896
0.0049056
0.00475281
0.00463658
0.00450033
0.00435482
0.00421082
0.00406819
0.00392604
0.00378539
0.00364707
0.00351082
0.00489945
0.00475906
0.00465308
0.00452229
0.00438079
0.00424079
0.00410192
0.00396375
0.00382653
0.00369026
0.00355498
0.0049213
0.00485963
0.00473523
0.00457793
0.00442167
0.0042704
0.00412242
0.00397795
0.00383645
0.00369645
0.00355789
)
;
    }
    procBoundary0to2
    {
        type            processor;
        value           nonuniform List<scalar> 
28
(
0.00442974
0.00439761
0.00439761
0.00547774
0.00508584
0.00473096
0.00473096
0.00450181
0.00450181
0.00450066
0.00450066
0.00450066
0.00523561
0.00499823
0.00476817
0.00476817
0.00472647
0.00472211
0.00511823
0.0049173
0.00473993
0.00473993
0.00474128
0.00465452
0.00498974
0.00481686
0.00467644
0.00467644
)
;
    }
    procBoundary0to8
    {
        type            processor;
        value           nonuniform List<scalar> 
29
(
0.00326868
0.00325338
0.00324499
0.00326275
0.00327282
0.00328368
0.0032781
0.00326164
0.00327343
0.00328049
0.00327705
0.00327182
0.00323959
0.00323967
0.00323885
0.00328574
0.00328144
0.00324075
0.00323119
0.00322442
0.00328581
0.00328683
0.00324209
0.00322545
0.00321601
0.00321352
0.00322365
0.00321357
0.00320989
)
;
    }
    procBoundary0to9
    {
        type            processor;
        value           nonuniform List<scalar> 
40
(
0.00328151
0.00328597
0.00328588
0.00341047
0.00341047
0.00341474
0.00339835
0.00328627
0.00328687
0.00328142
0.00340533
0.00340533
0.00340902
0.00338233
0.00324151
0.0032422
0.00324087
0.00337395
0.00337395
0.00339481
0.003376
0.00322363
0.00322552
0.00323131
0.00337389
0.00337389
0.00340671
0.00339516
0.00321607
0.00322451
0.00337273
0.00337273
0.00341394
0.00340677
0.00321355
0.00322365
0.00337485
0.00337485
0.00341959
0.00341619
)
;
    }
}


// ************************************************************************* //
