/*--------------------------------*- C++ -*----------------------------------*\
| =========                 |                                                 |
| \\      /  F ield         | OpenFOAM: The Open Source CFD Toolbox           |
|  \\    /   O peration     | Version:  2212                                  |
|   \\  /    A nd           | Website:  www.openfoam.com                      |
|    \\/     M anipulation  |                                                 |
\*---------------------------------------------------------------------------*/
FoamFile
{
    version     2.0;
    format      ascii;
    arch        "LSB;label=32;scalar=64";
    class       surfaceScalarField;
    location    "2";
    object      phi;
}
// * * * * * * * * * * * * * * * * * * * * * * * * * * * * * * * * * * * * * //

dimensions      [0 3 -1 0 0 0 0];

oriented        oriented;

internalField   nonuniform List<scalar> 
1812
(
8.28003e-08
-3.05452e-08
3.35193e-08
8.07643e-08
-3.15423e-08
3.3578e-08
7.91079e-08
-3.2179e-08
3.38352e-08
7.76208e-08
-3.26404e-08
3.41273e-08
7.62324e-08
-3.29363e-08
3.43244e-08
7.49351e-08
-3.31189e-08
3.44159e-08
7.37299e-08
-3.3243e-08
3.4448e-08
-3.33335e-08
3.44799e-08
2.61362e-07
-5.89001e-08
3.78215e-08
2.54529e-07
-6.04565e-08
3.57473e-08
2.49124e-07
-6.12834e-08
3.451e-08
2.44533e-07
-6.17459e-08
3.36956e-08
2.40416e-07
-6.19927e-08
3.31737e-08
2.36651e-07
-6.2206e-08
3.28518e-08
2.33186e-07
-6.24021e-08
3.26245e-08
-6.25379e-08
3.24685e-08
5.21034e-07
-7.67161e-08
4.05036e-08
5.04537e-07
-8.01075e-08
3.77037e-08
4.90982e-07
-8.25448e-08
3.56439e-08
4.79899e-07
-8.42746e-08
3.40737e-08
4.70735e-07
-8.54916e-08
3.29097e-08
4.62977e-07
-8.6316e-08
3.20819e-08
4.56204e-07
-8.6922e-08
3.14886e-08
4.50139e-07
-8.73802e-08
3.10437e-08
-8.7715e-08
3.07511e-08
7.55346e-07
-9.28178e-08
3.1242e-08
7.4426e-07
-9.07516e-08
3.40371e-08
7.31421e-07
-9.25375e-08
3.3282e-08
7.18127e-07
-9.53034e-08
3.18818e-08
7.05258e-07
-9.78568e-08
3.0618e-08
6.93225e-07
-9.99746e-08
2.94634e-08
6.82159e-07
-1.01658e-07
2.84496e-08
6.72031e-07
-1.02975e-07
2.76115e-08
6.62753e-07
-1.03995e-07
2.69579e-08
6.54173e-07
-1.04784e-07
2.64425e-08
6.46154e-07
-1.05389e-07
2.60282e-08
-1.05812e-07
2.5729e-08
8.23694e-07
-1.07268e-07
1.57512e-08
8.21748e-07
-1.06294e-07
1.74885e-08
8.18333e-07
-1.07224e-07
1.81015e-08
8.13601e-07
-1.0881e-07
1.82378e-08
8.07892e-07
-1.1041e-07
1.82627e-08
8.01543e-07
-1.11872e-07
1.82468e-08
7.94806e-07
-1.13098e-07
1.81774e-08
7.87849e-07
-1.14082e-07
1.80643e-08
7.80741e-07
-1.14875e-07
1.79874e-08
7.73549e-07
-1.15531e-07
1.79388e-08
7.66273e-07
-1.1602e-07
1.79073e-08
-1.16377e-07
1.79009e-08
8.07339e-07
-1.12079e-07
4.73742e-11
8.11602e-07
-1.12475e-07
1.91889e-09
8.14638e-07
-1.13423e-07
3.16285e-09
8.15929e-07
-1.1419e-07
4.08993e-09
8.15541e-07
-1.14897e-07
4.87508e-09
8.13701e-07
-1.15581e-07
5.5486e-09
8.10645e-07
-1.16181e-07
6.13914e-09
8.06597e-07
-1.16717e-07
6.68287e-09
8.01722e-07
-1.17145e-07
7.14438e-09
7.96163e-07
-1.17515e-07
7.54372e-09
7.90067e-07
-1.17789e-07
7.86427e-09
-1.17988e-07
8.11914e-09
7.2289e-07
-1.08597e-07
-1.38121e-08
7.32434e-07
-1.10553e-07
-1.14668e-08
7.39271e-07
-1.10756e-07
-9.50494e-09
7.43175e-07
-1.10187e-07
-7.90614e-09
7.44664e-07
-1.09762e-07
-6.62413e-09
7.44177e-07
-1.09575e-07
-5.51855e-09
7.421e-07
-1.09507e-07
-4.59735e-09
7.38748e-07
-1.09557e-07
-3.80727e-09
7.34414e-07
-1.09636e-07
-3.1749e-09
7.29309e-07
-1.09732e-07
-2.67715e-09
7.23632e-07
-1.09831e-07
-2.2818e-09
-1.09919e-07
-1.97796e-09
6.00621e-07
-9.49827e-08
-2.36161e-08
6.08942e-07
-9.94393e-08
-1.94347e-08
6.12909e-07
-9.74594e-08
-1.7263e-08
6.13461e-07
-9.48773e-08
-1.58632e-08
6.11973e-07
-9.35465e-08
-1.47274e-08
6.09065e-07
-9.28463e-08
-1.38215e-08
6.05141e-07
-9.24268e-08
-1.31561e-08
6.00536e-07
-9.22591e-08
-1.26935e-08
5.95497e-07
-9.22204e-08
-1.23773e-08
5.90138e-07
-9.22301e-08
-1.21432e-08
5.84541e-07
-9.22512e-08
-1.19829e-08
-1.18642e-08
4.47222e-07
-8.71969e-08
-2.31282e-08
4.49624e-07
-8.2079e-08
-1.9762e-08
4.45202e-07
-7.2978e-08
-2.00599e-08
4.39222e-07
-6.82846e-08
-2.06129e-08
4.33344e-07
-6.69267e-08
-2.07423e-08
4.27784e-07
-6.649e-08
-2.07963e-08
4.22611e-07
-6.64141e-08
-2.084e-08
4.17773e-07
-6.65187e-08
-2.09028e-08
4.13142e-07
-6.66392e-08
-2.09503e-08
4.08631e-07
-6.66918e-08
-2.10274e-08
-6.66921e-08
-2.11193e-08
2.92212e-07
-5.86322e-08
-7.36856e-09
2.67636e-07
-4.64183e-08
-1.10851e-08
2.52264e-07
-3.74921e-08
-2.01142e-08
2.43777e-07
-3.41949e-08
-2.56021e-08
2.38082e-07
-3.34999e-08
-2.77321e-08
2.33739e-07
-3.35706e-08
-2.85766e-08
2.30103e-07
-3.38573e-08
-2.89211e-08
2.26817e-07
-3.41582e-08
-2.90749e-08
2.23725e-07
-3.4331e-08
-2.92166e-08
2.20805e-07
-3.44071e-08
-2.9365e-08
-3.44458e-08
-2.94922e-08
1.22232e-07
-1.65089e-08
1.00276e-07
-2.44622e-08
9.06553e-08
-2.78718e-08
8.57178e-08
-2.92575e-08
8.27066e-08
-3.04887e-08
8.06148e-08
-3.14789e-08
7.89269e-08
-3.21695e-08
7.74357e-08
-3.26671e-08
7.60585e-08
-3.29539e-08
7.47867e-08
-3.31354e-08
-3.32651e-08
2.38514e-07
-2.7709e-08
6.6767e-08
2.34259e-07
-2.85729e-08
6.64061e-08
2.3065e-07
-2.8938e-08
6.63823e-08
2.27354e-07
-2.90956e-08
6.65184e-08
2.2422e-07
-2.92237e-08
6.66823e-08
2.21223e-07
-2.93525e-08
6.67646e-08
2.18383e-07
-2.94983e-08
6.67866e-08
-2.9601e-08
6.68259e-08
5.69043e-07
-4.91622e-08
6.77331e-08
5.62094e-07
-5.11671e-08
6.52903e-08
5.56467e-07
-5.24677e-08
6.3667e-08
5.51754e-07
-5.32765e-08
6.25896e-08
5.47663e-07
-5.38037e-08
6.18437e-08
5.43943e-07
-5.41319e-08
6.13514e-08
5.40459e-07
-5.43902e-08
6.10002e-08
-5.45705e-08
6.0738e-08
8.62469e-07
-6.53541e-08
6.41815e-08
8.57012e-07
-6.78965e-08
6.18949e-08
8.51542e-07
-6.99855e-08
5.99326e-08
8.46587e-07
-7.16982e-08
5.8259e-08
8.42315e-07
-7.3024e-08
5.69301e-08
8.38715e-07
-7.40213e-08
5.58988e-08
8.35705e-07
-7.47699e-08
5.51374e-08
8.33198e-07
-7.53865e-08
5.45469e-08
-7.58113e-08
5.41753e-08
1.05727e-06
-8.24822e-08
4.67372e-08
1.06274e-06
-8.09296e-08
4.90662e-08
1.06515e-06
-8.10949e-08
4.95271e-08
1.06502e-06
-8.22696e-08
4.89238e-08
1.06349e-06
-8.37581e-08
4.80068e-08
1.06133e-06
-8.53154e-08
4.69617e-08
1.05895e-06
-8.6812e-08
4.59411e-08
1.05664e-06
-8.81281e-08
4.50252e-08
1.05452e-06
-8.92166e-08
4.4275e-08
1.05265e-06
-9.01298e-08
4.36715e-08
1.05101e-06
-9.08992e-08
4.31763e-08
-9.1501e-08
4.283e-08
1.16715e-06
-9.56023e-08
2.67804e-08
1.1702e-06
-9.43586e-08
2.78665e-08
1.17292e-06
-9.41533e-08
2.84468e-08
1.17492e-06
-9.4634e-08
2.85939e-08
1.1763e-06
-9.54434e-08
2.85695e-08
1.17718e-06
-9.63971e-08
2.84541e-08
1.17766e-06
-9.73834e-08
2.82681e-08
1.17787e-06
-9.83158e-08
2.80391e-08
1.17791e-06
-9.91145e-08
2.78472e-08
1.17782e-06
-9.98061e-08
2.7702e-08
1.17764e-06
-1.00391e-07
2.75853e-08
-1.00861e-07
2.75099e-08
1.18311e-06
-1.01901e-07
5.88379e-09
1.18557e-06
-1.01046e-07
6.14006e-09
1.18891e-06
-1.00964e-07
6.63839e-09
1.1924e-06
-1.01143e-07
7.10302e-09
1.19568e-06
-1.01388e-07
7.5479e-09
1.19851e-06
-1.01673e-07
7.98937e-09
1.20082e-06
-1.01951e-07
8.39953e-09
1.20265e-06
-1.022e-07
8.73896e-09
1.20409e-06
-1.02415e-07
9.00145e-09
1.2052e-06
-1.02613e-07
9.23736e-09
1.20601e-06
-1.02786e-07
9.45666e-09
-1.02928e-07
9.65374e-09
1.11756e-06
-1.00612e-07
-1.40687e-08
1.12042e-06
-1.01379e-07
-1.39994e-08
1.12471e-06
-1.01508e-07
-1.32461e-08
1.129e-06
-1.00868e-07
-1.24702e-08
1.13278e-06
-1.00063e-07
-1.17321e-08
1.13591e-06
-9.9302e-08
-1.10156e-08
1.13835e-06
-9.86031e-08
-1.03929e-08
1.14026e-06
-9.80123e-08
-9.9e-09
1.14172e-06
-9.75557e-08
-9.49914e-09
1.1428e-06
-9.72218e-08
-9.14482e-09
1.14355e-06
-9.69793e-08
-8.83666e-09
-9.6808e-08
-8.58259e-09
9.90965e-07
-9.50402e-08
-2.9873e-08
9.95718e-07
-9.64353e-08
-2.91316e-08
9.99425e-07
-9.44067e-08
-2.80713e-08
1.00173e-06
-9.15612e-08
-2.74763e-08
1.00315e-06
-8.91509e-08
-2.70566e-08
1.004e-06
-8.72414e-08
-2.67394e-08
1.00453e-06
-8.57429e-08
-2.65439e-08
1.00484e-06
-8.46164e-08
-2.63951e-08
1.00497e-06
-8.38013e-08
-2.62638e-08
1.00497e-06
-8.32093e-08
-2.61595e-08
1.00489e-06
-8.27953e-08
-2.608e-08
-2.60214e-08
8.26742e-07
-8.04248e-08
-3.54555e-08
8.26104e-07
-8.08058e-08
-3.47536e-08
8.23588e-07
-7.61689e-08
-3.57812e-08
8.19891e-07
-7.11831e-08
-3.72939e-08
8.16239e-07
-6.76666e-08
-3.8575e-08
8.13002e-07
-6.5273e-08
-3.95279e-08
8.10252e-07
-6.36543e-08
-4.0179e-08
8.07936e-07
-6.2572e-08
-4.0631e-08
8.05974e-07
-6.18386e-08
-4.09515e-08
8.04264e-07
-6.13317e-08
-4.11945e-08
-6.1016e-08
-4.13601e-08
5.96834e-07
-6.24109e-08
-3.5001e-08
5.95696e-07
-5.53128e-08
-3.54406e-08
5.87006e-07
-4.65634e-08
-4.1029e-08
5.77509e-07
-4.11501e-08
-4.61381e-08
5.69215e-07
-3.7857e-08
-4.92487e-08
5.62322e-07
-3.57926e-08
-5.11633e-08
5.56688e-07
-3.4504e-08
-5.24376e-08
5.51956e-07
-3.36565e-08
-5.32584e-08
5.47842e-07
-3.31513e-08
-5.37903e-08
5.44108e-07
-3.28265e-08
-5.41367e-08
-3.26116e-08
-5.43686e-08
3.43482e-07
-3.94904e-08
3.07706e-07
-4.39984e-08
2.84898e-07
-5.16278e-08
2.7059e-07
-5.60996e-08
2.60954e-07
-5.87097e-08
2.54009e-07
-6.03269e-08
2.4858e-07
-6.12436e-08
2.44008e-07
-6.17524e-08
2.39929e-07
-6.20255e-08
2.36233e-07
-6.22668e-08
-6.25016e-08
4.39431e-07
-2.07352e-08
9.4782e-08
4.3363e-07
-2.088e-08
9.34472e-08
4.28142e-07
-2.08792e-08
9.27736e-08
4.23006e-07
-2.0876e-08
9.23938e-08
4.1817e-07
-2.09052e-08
9.22591e-08
4.13516e-07
-2.09238e-08
9.22598e-08
4.08949e-07
-2.09735e-08
9.2305e-08
4.04427e-07
-2.10543e-08
9.23632e-08
-2.1107e-08
9.24182e-08
8.19704e-07
-3.72977e-08
9.15723e-08
8.15945e-07
-3.85683e-08
8.91802e-08
8.12602e-07
-3.95168e-08
8.72709e-08
8.09788e-07
-4.01674e-08
8.57727e-08
8.07439e-07
-4.06155e-08
8.46486e-08
8.05469e-07
-4.09395e-08
8.38294e-08
8.03787e-07
-4.11784e-08
8.32385e-08
8.02317e-07
-4.13825e-08
8.27986e-08
-4.15284e-08
8.25026e-08
1.10324e-06
-5.28065e-08
7.84981e-08
1.10352e-06
-5.40395e-08
7.7085e-08
1.10343e-06
-5.5185e-08
7.5688e-08
1.10328e-06
-5.61632e-08
7.44101e-08
1.10327e-06
-5.6988e-08
7.33093e-08
1.10351e-06
-5.76677e-08
7.23821e-08
1.10406e-06
-5.82124e-08
7.16301e-08
1.10485e-06
-5.86591e-08
7.10271e-08
-5.90075e-08
7.05859e-08
1.29047e-06
-6.70674e-08
5.77278e-08
1.29619e-06
-6.6466e-08
5.85349e-08
1.30154e-06
-6.63811e-08
5.88521e-08
1.30588e-06
-6.68296e-08
5.86024e-08
1.30938e-06
-6.75544e-08
5.80301e-08
1.31225e-06
-6.83953e-08
5.72938e-08
1.31473e-06
-6.92366e-08
5.65413e-08
1.317e-06
-7.00331e-08
5.57969e-08
1.31923e-06
-7.07398e-08
5.51231e-08
1.32149e-06
-7.13445e-08
5.45394e-08
1.32383e-06
-7.18667e-08
5.40434e-08
-7.23055e-08
5.36434e-08
1.40701e-06
-7.80767e-08
3.3192e-08
1.41225e-06
-7.75297e-08
3.36865e-08
1.41778e-06
-7.74144e-08
3.39525e-08
1.42311e-06
-7.75729e-08
3.40029e-08
1.42812e-06
-7.79056e-08
3.39124e-08
1.43279e-06
-7.8341e-08
3.37336e-08
1.43714e-06
-7.88277e-08
3.35066e-08
1.44123e-06
-7.93214e-08
3.32403e-08
1.44515e-06
-7.97736e-08
3.29604e-08
1.44895e-06
-8.01651e-08
3.27254e-08
1.45264e-06
-8.05034e-08
3.25256e-08
-8.07892e-08
3.23567e-08
1.43592e-06
-8.42516e-08
7.26956e-09
1.44119e-06
-8.39402e-08
7.28524e-09
1.44681e-06
-8.38906e-08
7.49293e-09
1.45252e-06
-8.38705e-08
7.68565e-09
1.45817e-06
-8.38499e-08
7.84988e-09
1.46365e-06
-8.38379e-08
8.00334e-09
1.46891e-06
-8.38265e-08
8.13797e-09
1.4739e-06
-8.38122e-08
8.2366e-09
1.47863e-06
-8.37985e-08
8.29745e-09
1.48315e-06
-8.37894e-08
8.34471e-09
1.4875e-06
-8.37794e-08
8.38708e-09
-8.37633e-08
8.42292e-09
1.3853e-06
-8.51385e-08
-1.72619e-08
1.39028e-06
-8.53845e-08
-1.75328e-08
1.39572e-06
-8.52136e-08
-1.7368e-08
1.40125e-06
-8.47496e-08
-1.71212e-08
1.40667e-06
-8.41302e-08
-1.68689e-08
1.41189e-06
-8.34511e-08
-1.66198e-08
1.41685e-06
-8.27739e-08
-1.64032e-08
1.42153e-06
-8.21555e-08
-1.6237e-08
1.42596e-06
-8.1618e-08
-1.61113e-08
1.43019e-06
-8.11594e-08
-1.60101e-08
1.43428e-06
-8.07761e-08
-1.59282e-08
-8.04598e-08
-1.58684e-08
1.27206e-06
-7.89063e-08
-3.71856e-08
1.27479e-06
-7.98888e-08
-3.73572e-08
1.27856e-06
-7.96091e-08
-3.74426e-08
1.28232e-06
-7.84477e-08
-3.75466e-08
1.28586e-06
-7.7031e-08
-3.76904e-08
1.28917e-06
-7.56446e-08
-3.78603e-08
1.29228e-06
-7.43758e-08
-3.80541e-08
1.29526e-06
-7.3279e-08
-3.82509e-08
1.29817e-06
-7.23578e-08
-3.8432e-08
1.30106e-06
-7.16144e-08
-3.85917e-08
1.30396e-06
-7.10365e-08
-3.87251e-08
-3.88394e-08
1.09514e-06
-6.47142e-08
-5.20436e-08
1.09932e-06
-6.75488e-08
-5.1268e-08
1.10223e-06
-6.65791e-08
-5.17203e-08
1.10349e-06
-6.41558e-08
-5.28468e-08
1.10385e-06
-6.18808e-08
-5.40849e-08
1.10385e-06
-5.99545e-08
-5.52203e-08
1.10377e-06
-5.82834e-08
-5.6186e-08
1.1038e-06
-5.69361e-08
-5.70066e-08
1.10405e-06
-5.58848e-08
-5.768e-08
1.10458e-06
-5.51141e-08
-5.82164e-08
-5.45366e-08
-5.86361e-08
8.61884e-07
-4.72963e-08
-6.16409e-08
8.67793e-07
-4.84797e-08
-6.04184e-08
8.67018e-07
-4.43837e-08
-6.245e-08
8.62734e-07
-4.06181e-08
-6.53907e-08
8.57382e-07
-3.78517e-08
-6.79258e-08
8.52001e-07
-3.57565e-08
-6.9981e-08
8.47086e-07
-3.41197e-08
-7.16857e-08
8.42824e-07
-3.29093e-08
-7.30233e-08
8.39224e-07
-3.20434e-08
-7.40316e-08
8.36181e-07
-3.14261e-08
-7.47819e-08
-3.09655e-08
-7.53829e-08
5.89586e-07
-6.89023e-08
5.64878e-07
-6.77706e-08
5.40893e-07
-7.20264e-08
5.20772e-07
-7.65965e-08
5.04188e-07
-7.99769e-08
4.90569e-07
-8.2465e-08
4.79475e-07
-8.42687e-08
4.7034e-07
-8.55264e-08
4.62638e-07
-8.63677e-08
4.55937e-07
-8.69917e-08
-8.74605e-08
6.1356e-07
-1.59293e-08
1.10167e-07
6.12075e-07
-1.4795e-08
1.09727e-07
6.09185e-07
-1.38817e-08
1.09545e-07
6.05284e-07
-1.32026e-08
1.09498e-07
6.00689e-07
-1.2713e-08
1.09567e-07
5.95645e-07
-1.23707e-08
1.09674e-07
5.90266e-07
-1.21089e-08
1.09793e-07
5.84645e-07
-1.19242e-08
1.09909e-07
-1.17997e-08
1.09997e-07
1.00165e-06
-2.75233e-08
1.00878e-07
1.00303e-06
-2.70837e-08
1.00088e-07
1.00384e-06
-2.67565e-08
9.9333e-08
1.00432e-06
-2.6552e-08
9.86375e-08
1.0046e-06
-2.6391e-08
9.80524e-08
1.00471e-06
-2.62505e-08
9.75985e-08
1.00471e-06
-2.61379e-08
9.72646e-08
1.00464e-06
-2.60627e-08
9.70119e-08
-2.60026e-08
9.68341e-08
1.28219e-06
-3.7547e-08
8.4782e-08
1.2857e-06
-3.76814e-08
8.41743e-08
1.28898e-06
-3.78474e-08
8.3499e-08
1.29205e-06
-3.80407e-08
8.28212e-08
1.29501e-06
-3.82365e-08
8.21997e-08
1.29791e-06
-3.84187e-08
8.16555e-08
1.30079e-06
-3.85823e-08
8.11869e-08
1.3037e-06
-3.87269e-08
8.07876e-08
-3.88456e-08
8.04613e-08
1.46425e-06
-4.69859e-08
6.18711e-08
1.47044e-06
-4.69792e-08
6.19649e-08
1.47675e-06
-4.69978e-08
6.20942e-08
1.48287e-06
-4.71004e-08
6.2037e-08
1.4887e-06
-4.72883e-08
6.18026e-08
1.49423e-06
-4.75351e-08
6.1454e-08
1.4995e-06
-4.78144e-08
6.10486e-08
1.50454e-06
-4.81102e-08
6.06241e-08
1.50944e-06
-4.84049e-08
6.02118e-08
1.51424e-06
-4.86757e-08
5.98295e-08
1.51899e-06
-4.89173e-08
5.94865e-08
-4.91264e-08
5.91898e-08
1.58144e-06
-5.53977e-08
3.47035e-08
1.5887e-06
-5.53525e-08
3.48046e-08
1.59597e-06
-5.52561e-08
3.49392e-08
1.60313e-06
-5.5234e-08
3.49734e-08
1.61013e-06
-5.52915e-08
3.49132e-08
1.61694e-06
-5.54039e-08
3.47915e-08
1.62356e-06
-5.5552e-08
3.46289e-08
1.62998e-06
-5.57224e-08
3.44373e-08
1.6362e-06
-5.5903e-08
3.4231e-08
1.64229e-06
-5.60686e-08
3.40303e-08
1.64827e-06
-5.62154e-08
3.38454e-08
-5.63437e-08
3.36803e-08
1.6201e-06
-6.05523e-08
5.93014e-09
1.62665e-06
-6.04918e-08
5.87849e-09
1.6335e-06
-6.04911e-08
5.87566e-09
1.64055e-06
-6.048e-08
5.88745e-09
1.64765e-06
-6.04429e-08
5.89671e-09
1.65474e-06
-6.03849e-08
5.89331e-09
1.66176e-06
-6.03115e-08
5.87782e-09
1.66866e-06
-6.02299e-08
5.84738e-09
1.6754e-06
-6.01473e-08
5.80277e-09
1.68199e-06
-6.0066e-08
5.75206e-09
1.68845e-06
-5.99873e-08
5.70098e-09
-5.99127e-08
5.6504e-09
1.57795e-06
-6.18594e-08
-2.20549e-08
1.58415e-06
-6.19478e-08
-2.22805e-08
1.59073e-06
-6.20707e-08
-2.23667e-08
1.5975e-06
-6.20059e-08
-2.23675e-08
1.60431e-06
-6.17653e-08
-2.23554e-08
1.61107e-06
-6.14141e-08
-2.23487e-08
1.61772e-06
-6.10095e-08
-2.23549e-08
1.62422e-06
-6.05875e-08
-2.23796e-08
1.63056e-06
-6.018e-08
-2.24205e-08
1.63676e-06
-5.98053e-08
-2.24702e-08
1.64284e-06
-5.94726e-08
-2.25234e-08
-5.91838e-08
-2.25797e-08
1.46429e-06
-5.77252e-08
-4.69866e-08
1.47049e-06
-5.85262e-08
-4.69838e-08
1.47682e-06
-5.88331e-08
-4.70059e-08
1.48295e-06
-5.85743e-08
-4.71126e-08
1.4888e-06
-5.79992e-08
-4.73042e-08
1.49434e-06
-5.72645e-08
-4.75525e-08
1.49963e-06
-5.65161e-08
-4.7831e-08
1.50469e-06
-5.57717e-08
-4.81249e-08
1.50959e-06
-5.50996e-08
-4.84162e-08
1.51439e-06
-5.45202e-08
-4.86812e-08
1.51915e-06
-5.40346e-08
-4.89143e-08
-4.91174e-08
1.29052e-06
-4.67446e-08
-6.70669e-08
1.29628e-06
-4.90753e-08
-6.6472e-08
1.30166e-06
-4.95379e-08
-6.63985e-08
1.30603e-06
-4.89364e-08
-6.68589e-08
1.30956e-06
-4.80204e-08
-6.75893e-08
1.31248e-06
-4.69759e-08
-6.84277e-08
1.31499e-06
-4.59499e-08
-6.92623e-08
1.31728e-06
-4.50205e-08
-7.00538e-08
1.31952e-06
-4.42577e-08
-7.07543e-08
1.32178e-06
-4.36449e-08
-7.13508e-08
-4.31529e-08
-7.18588e-08
1.05731e-06
-3.12559e-08
-8.24772e-08
1.06281e-06
-3.40677e-08
-8.09254e-08
1.06526e-06
-3.33415e-08
-8.10961e-08
1.06517e-06
-3.19664e-08
-8.22758e-08
1.06369e-06
-3.06981e-08
-8.37664e-08
1.06157e-06
-2.95142e-08
-8.5322e-08
1.05922e-06
-2.84693e-08
-8.68198e-08
1.05693e-06
-2.76068e-08
-8.81413e-08
1.0548e-06
-2.69328e-08
-8.92343e-08
1.05292e-06
-2.63984e-08
-9.01483e-08
-2.59744e-08
-9.0909e-08
7.5532e-07
-9.28064e-08
7.44209e-07
-9.07279e-08
7.31338e-07
-9.24969e-08
7.18021e-07
-9.52455e-08
7.05139e-07
-9.7793e-08
6.93091e-07
-9.99303e-08
6.82001e-07
-1.01648e-07
6.71861e-07
-1.02994e-07
6.62593e-07
-1.04032e-07
6.54038e-07
-1.04835e-07
-1.05446e-07
7.43177e-07
-7.91945e-09
7.44679e-07
-6.64549e-09
7.44203e-07
-5.54542e-09
7.42138e-07
-4.62525e-09
7.3879e-07
-3.82794e-09
7.34457e-07
-3.1805e-09
7.29349e-07
-2.66859e-09
7.2367e-07
-2.26043e-09
-1.95028e-09
1.12901e-06
-1.24747e-08
1.13278e-06
-1.17377e-08
1.13589e-06
-1.10254e-08
1.13833e-06
-1.04069e-08
1.14022e-06
-9.90918e-09
1.14168e-06
-9.49869e-09
1.14275e-06
-9.13645e-09
1.14349e-06
-8.82421e-09
-8.56735e-09
1.40123e-06
-1.71188e-08
1.40664e-06
-1.68667e-08
1.41185e-06
-1.66184e-08
1.4168e-06
-1.64026e-08
1.42147e-06
-1.62353e-08
1.4259e-06
-1.61077e-08
1.43013e-06
-1.60057e-08
1.43422e-06
-1.59253e-08
-1.58664e-08
1.57793e-06
-2.20567e-08
6.05656e-08
1.58414e-06
-2.22797e-08
6.0512e-08
1.59071e-06
-2.23637e-08
6.0518e-08
1.59748e-06
-2.23635e-08
6.05126e-08
1.60429e-06
-2.23508e-08
6.04801e-08
1.61104e-06
-2.2344e-08
6.04244e-08
1.61769e-06
-2.23506e-08
6.03511e-08
1.62419e-06
-2.2376e-08
6.02675e-08
1.63053e-06
-2.24178e-08
6.01808e-08
1.63673e-06
-2.24692e-08
6.00932e-08
1.64281e-06
-2.25251e-08
6.00063e-08
-2.25839e-08
5.99231e-08
1.69255e-06
-2.78998e-08
3.25951e-08
1.70046e-06
-2.79124e-08
3.25257e-08
1.70841e-06
-2.79071e-08
3.25343e-08
1.71639e-06
-2.79104e-08
3.25441e-08
1.72434e-06
-2.79233e-08
3.25315e-08
1.73223e-06
-2.79416e-08
3.24987e-08
1.74003e-06
-2.79671e-08
3.24486e-08
1.74771e-06
-2.80003e-08
3.23853e-08
1.75524e-06
-2.80396e-08
3.23139e-08
1.76265e-06
-2.80813e-08
3.22396e-08
1.76992e-06
-2.81231e-08
3.21669e-08
-2.81639e-08
3.20981e-08
1.73107e-06
-3.25845e-08
2.26651e-09
1.73928e-06
-3.25115e-08
2.26726e-09
1.74752e-06
-3.25155e-08
2.24197e-09
1.7558e-06
-3.25207e-08
2.22079e-09
1.76407e-06
-3.25042e-08
2.20647e-09
1.7723e-06
-3.24687e-08
2.18611e-09
1.78047e-06
-3.24176e-08
2.16187e-09
1.78854e-06
-3.23549e-08
2.13395e-09
1.79649e-06
-3.22859e-08
2.10262e-09
1.8043e-06
-3.22156e-08
2.06953e-09
1.81199e-06
-3.21481e-08
2.0364e-09
-3.20852e-08
2.00369e-09
1.69256e-06
-3.46951e-08
-2.78989e-08
1.70048e-06
-3.47932e-08
-2.79118e-08
1.70842e-06
-3.49235e-08
-2.79072e-08
1.7164e-06
-3.49528e-08
-2.79113e-08
1.72435e-06
-3.48885e-08
-2.79249e-08
1.73224e-06
-3.4764e-08
-2.79436e-08
1.74004e-06
-3.46003e-08
-2.7969e-08
1.74772e-06
-3.44091e-08
-2.80017e-08
1.75526e-06
-3.42051e-08
-2.804e-08
1.76266e-06
-3.40083e-08
-2.80801e-08
1.76994e-06
-3.38284e-08
-2.81195e-08
-3.36681e-08
-2.8158e-08
1.58147e-06
-3.31896e-08
-5.53989e-08
1.58873e-06
-3.3683e-08
-5.53553e-08
1.59601e-06
-3.39453e-08
-5.52611e-08
1.60317e-06
-3.39916e-08
-5.52416e-08
1.61018e-06
-3.38978e-08
-5.53013e-08
1.617e-06
-3.37163e-08
-5.5415e-08
1.62361e-06
-3.34874e-08
-5.55632e-08
1.63003e-06
-3.32196e-08
-5.57326e-08
1.63626e-06
-3.29394e-08
-5.59109e-08
1.64235e-06
-3.27057e-08
-5.60728e-08
1.64833e-06
-3.25085e-08
-5.62144e-08
-5.63375e-08
1.40704e-06
-2.67851e-08
-7.80792e-08
1.4123e-06
-2.78757e-08
-7.75357e-08
1.41784e-06
-2.84583e-08
-7.74253e-08
1.42318e-06
-2.86066e-08
-7.75888e-08
1.4282e-06
-2.8581e-08
-7.79246e-08
1.43288e-06
-2.84609e-08
-7.836e-08
1.43724e-06
-2.82678e-08
-7.88451e-08
1.44134e-06
-2.80305e-08
-7.93364e-08
1.44526e-06
-2.78304e-08
-7.97853e-08
1.44905e-06
-2.76781e-08
-8.01722e-08
-2.75621e-08
-8.05037e-08
1.16718e-06
-1.57602e-08
-9.56017e-08
1.17024e-06
-1.7505e-08
-9.43598e-08
1.17297e-06
-1.81255e-08
-9.41571e-08
1.175e-06
-1.82671e-08
-9.46399e-08
1.17639e-06
-1.82915e-08
-9.5451e-08
1.17728e-06
-1.82678e-08
-9.64053e-08
1.17777e-06
-1.81871e-08
-9.73926e-08
1.17799e-06
-1.8062e-08
-9.83273e-08
1.17803e-06
-1.79725e-08
-9.9128e-08
1.17793e-06
-1.79112e-08
-9.98205e-08
-1.78741e-08
-1.00402e-07
8.23692e-07
-1.07262e-07
8.2174e-07
-1.06281e-07
8.18324e-07
-1.07206e-07
8.136e-07
-1.08789e-07
8.07906e-07
-1.1039e-07
8.01568e-07
-1.1186e-07
7.94831e-07
-1.13098e-07
7.8787e-07
-1.14095e-07
7.80762e-07
-1.14897e-07
7.73575e-07
-1.1556e-07
-1.16051e-07
1.62011e-06
5.92633e-09
1.62666e-06
5.87436e-09
1.63351e-06
5.87078e-09
1.64056e-06
5.88177e-09
1.64767e-06
5.89055e-09
1.65476e-06
5.88685e-09
1.66178e-06
5.8713e-09
1.66868e-06
5.84111e-09
1.67542e-06
5.79687e-09
1.68202e-06
5.7463e-09
1.68848e-06
5.6951e-09
5.64477e-09
1.73107e-06
2.26344e-09
1.73928e-06
2.26306e-09
1.74753e-06
2.23618e-09
1.7558e-06
2.21346e-09
1.76408e-06
2.19811e-09
1.77231e-06
2.17695e-09
1.78048e-06
2.15224e-09
1.78855e-06
2.12421e-09
1.7965e-06
2.09303e-09
1.80432e-06
2.06021e-09
1.81201e-06
2.02742e-09
1.99542e-09
1.76777e-06
-2.25891e-09
1.77681e-06
-2.25772e-09
1.78574e-06
-2.22929e-09
1.79458e-06
-2.20506e-09
1.80335e-06
-2.18867e-09
1.81204e-06
-2.16678e-09
1.82063e-06
-2.14179e-09
1.82911e-06
-2.11405e-09
1.83746e-06
-2.08384e-09
1.84568e-06
-2.05266e-09
1.85378e-06
-2.02199e-09
-1.99213e-09
1.73108e-06
-5.92405e-09
1.73929e-06
-5.87093e-09
1.74753e-06
-5.86498e-09
1.75581e-06
-5.87343e-09
1.76408e-06
-5.88001e-09
1.77231e-06
-5.87455e-09
1.78048e-06
-5.85794e-09
1.78855e-06
-5.82754e-09
1.79649e-06
-5.78409e-09
1.80431e-06
-5.73537e-09
1.812e-06
-5.68648e-09
-5.63853e-09
1.62012e-06
-7.26832e-09
1.62667e-06
-7.28491e-09
1.63352e-06
-7.4903e-09
1.64057e-06
-7.67962e-09
1.64767e-06
-7.84039e-09
1.65477e-06
-7.99034e-09
1.66179e-06
-8.12216e-09
1.66868e-06
-8.21938e-09
1.67542e-06
-8.2799e-09
1.68202e-06
-8.32782e-09
1.68848e-06
-8.37022e-09
1.43595e-06
-5.88652e-09
1.44122e-06
-6.15054e-09
1.44685e-06
-6.65062e-09
1.45257e-06
-7.11405e-09
1.45821e-06
-7.55583e-09
1.4637e-06
-7.99117e-09
1.46896e-06
-8.39495e-09
1.47395e-06
-8.72926e-09
1.47868e-06
-8.98614e-09
1.4832e-06
-9.21858e-09
-9.43762e-09
1.18314e-06
-5.15666e-11
1.18562e-06
-1.93e-09
1.18896e-06
-3.17786e-09
1.19246e-06
-4.10555e-09
1.19574e-06
-4.88926e-09
1.19858e-06
-5.55861e-09
1.20089e-06
-6.14325e-09
1.20271e-06
-6.68072e-09
1.20415e-06
-7.13407e-09
1.20526e-06
-7.52667e-09
-7.84275e-09
8.0734e-07
8.11607e-07
8.14655e-07
8.15961e-07
8.15589e-07
8.13762e-07
8.10715e-07
8.06671e-07
8.01798e-07
7.96239e-07
)
;

boundaryField
{
    inlet
    {
        type            calculated;
        value           nonuniform List<scalar> 0();
    }
    ami1
    {
        type            cyclicAMI;
        value           nonuniform List<scalar> 0();
    }
    walls
    {
        type            calculated;
        value           nonuniform List<scalar> 
227
(
1.28555e-14
6.40674e-15
-8.26664e-22
-6.40674e-15
-1.28555e-14
-1.84387e-14
-2.43942e-14
-2.90979e-14
1.28555e-14
6.40674e-15
-7.76257e-22
-6.40674e-15
-1.28555e-14
-1.84387e-14
-2.43942e-14
-2.90979e-14
1.28555e-14
6.40674e-15
-8.2899e-22
-6.40674e-15
-1.28555e-14
-1.84387e-14
-2.43942e-14
-2.90979e-14
1.84387e-14
1.28555e-14
6.40674e-15
-8.27956e-22
-6.40674e-15
-1.28555e-14
-1.84387e-14
-2.43942e-14
-2.90979e-14
2.90979e-14
2.43942e-14
1.84387e-14
1.28555e-14
6.40674e-15
-8.27956e-22
-6.40674e-15
-1.28555e-14
-1.84387e-14
-2.43942e-14
-2.90979e-14
2.90979e-14
2.43942e-14
1.84387e-14
1.28555e-14
6.40674e-15
-7.76516e-22
-6.40674e-15
-1.28555e-14
-1.84387e-14
-2.43942e-14
-2.90979e-14
2.90979e-14
2.43942e-14
1.84387e-14
1.28555e-14
6.40674e-15
-8.27698e-22
-6.40674e-15
-1.28555e-14
-1.84387e-14
-2.43942e-14
-2.90979e-14
2.90979e-14
2.43942e-14
1.84387e-14
1.28555e-14
6.40674e-15
-8.27698e-22
-6.40674e-15
-1.28555e-14
-1.84387e-14
-2.43942e-14
-2.90979e-14
2.90979e-14
2.43942e-14
1.84387e-14
1.28555e-14
6.40674e-15
-8.28473e-22
-6.40674e-15
-1.28555e-14
-1.84387e-14
-2.43942e-14
-2.90979e-14
2.90979e-14
2.43942e-14
1.84387e-14
1.28555e-14
6.40674e-15
-7.76257e-22
-6.40674e-15
-1.28555e-14
-1.84387e-14
-2.43942e-14
-2.90979e-14
2.90979e-14
2.43942e-14
1.84387e-14
1.28555e-14
6.40674e-15
-8.28215e-22
-6.40674e-15
-1.28555e-14
-1.84387e-14
-2.43942e-14
-2.90979e-14
2.90979e-14
2.43942e-14
1.84387e-14
1.28555e-14
6.40674e-15
-8.28215e-22
-6.40674e-15
-1.28555e-14
2.90979e-14
2.43942e-14
1.84387e-14
1.28555e-14
6.40674e-15
-8.26664e-22
2.90979e-14
2.43942e-14
1.84387e-14
1.28555e-14
6.40674e-15
-7.76257e-22
2.90979e-14
2.43942e-14
1.84387e-14
1.28555e-14
6.40674e-15
-8.2899e-22
2.90979e-14
2.43942e-14
1.84387e-14
1.28555e-14
6.40674e-15
-8.27956e-22
2.90979e-14
2.43942e-14
1.84387e-14
1.28555e-14
6.40674e-15
-8.27956e-22
2.90979e-14
2.43942e-14
1.84387e-14
1.28555e-14
6.40674e-15
-7.76516e-22
2.90979e-14
2.43942e-14
1.84387e-14
1.28555e-14
6.40674e-15
-8.27698e-22
2.90979e-14
2.43942e-14
1.84387e-14
1.28555e-14
6.40674e-15
-8.27698e-22
2.90979e-14
2.43942e-14
1.84387e-14
1.28555e-14
6.40674e-15
-8.28473e-22
2.90979e-14
2.43942e-14
1.84387e-14
1.28555e-14
6.40674e-15
-7.76257e-22
2.90979e-14
2.43942e-14
1.84387e-14
1.28555e-14
6.40674e-15
-8.28215e-22
-1.84387e-14
-1.28555e-14
-6.40674e-15
-2.90979e-14
-2.43942e-14
-1.84387e-14
-1.28555e-14
-6.40674e-15
-2.90979e-14
-2.43942e-14
-1.84387e-14
-1.28555e-14
-6.40674e-15
-2.90979e-14
-2.43942e-14
-1.84387e-14
-1.28555e-14
-6.40674e-15
-2.90979e-14
-2.43942e-14
-1.84387e-14
-1.28555e-14
-6.40674e-15
-2.90979e-14
-2.43942e-14
-1.84387e-14
-1.28555e-14
-6.40674e-15
-2.90979e-14
-2.43942e-14
-1.84387e-14
-1.28555e-14
-6.40674e-15
-2.90979e-14
-2.43942e-14
-1.84387e-14
-1.28555e-14
-6.40674e-15
-2.90979e-14
-2.43942e-14
-1.84387e-14
-1.28555e-14
-6.40674e-15
)
;
    }
    ami2
    {
        type            cyclicAMI;
        value           nonuniform List<scalar> 
48
(
-7.62683e-07
-8.24995e-07
-8.02576e-07
-7.12561e-07
-5.90619e-07
-4.31881e-07
-3.13409e-07
-1.64355e-07
-1.05194e-06
-1.16506e-06
-1.18264e-06
-1.11859e-06
-9.9028e-07
-8.29031e-07
-5.87215e-07
-3.82911e-07
-1.28644e-06
-1.40241e-06
-1.43113e-06
-1.38122e-06
-1.27098e-06
-1.09275e-06
-8.52661e-07
-6.0747e-07
-1.45859e-06
-1.57454e-06
-1.61361e-06
-1.57185e-06
-1.45862e-06
-1.28648e-06
-1.05196e-06
-7.62671e-07
-1.57184e-06
-1.6846e-06
-1.72272e-06
-1.68461e-06
-1.57456e-06
-1.40244e-06
-1.16508e-06
-8.24996e-07
-1.61362e-06
-1.72272e-06
-1.75872e-06
-1.72273e-06
-1.61362e-06
-1.43116e-06
-1.18267e-06
-8.02577e-07
)
;
    }
    outlet
    {
        type            calculated;
        value           nonuniform List<scalar> 0();
    }
    procBoundary0to1
    {
        type            processor;
        value           nonuniform List<scalar> 
138
(
-7.39252e-07
1.14162e-07
1.14871e-07
1.15566e-07
1.16188e-07
1.16744e-07
1.17187e-07
1.1757e-07
1.17848e-07
1.18044e-07
-1.12473e-06
1.01156e-07
1.0141e-07
1.01701e-07
1.01984e-07
1.0224e-07
1.02462e-07
1.02661e-07
1.02831e-07
1.02966e-07
1.72678e-08
1.75307e-08
-1.39571e-06
1.73644e-08
8.3908e-08
8.38929e-08
8.38828e-08
8.38704e-08
8.38543e-08
8.38374e-08
8.38223e-08
8.38028e-08
8.3777e-08
-7.26486e-09
-7.28293e-09
-7.49123e-09
-7.68385e-09
-7.84758e-09
-8.00029e-09
-8.13441e-09
-8.23328e-09
-8.29459e-09
-8.34175e-09
-8.38352e-09
-8.41899e-09
5.54104e-08
5.53733e-08
5.52843e-08
5.52682e-08
5.53299e-08
5.54444e-08
5.55923e-08
5.57603e-08
5.59365e-08
5.60959e-08
5.62347e-08
5.63539e-08
2.79094e-08
2.79262e-08
2.79259e-08
2.79342e-08
2.79514e-08
2.79727e-08
2.79994e-08
2.80321e-08
2.80691e-08
2.81068e-08
2.81431e-08
2.81777e-08
-2.25722e-09
-2.25487e-09
-2.2249e-09
-2.19903e-09
-2.1813e-09
-2.15827e-09
-2.13241e-09
-2.10408e-09
-2.07354e-09
-2.04226e-09
-2.01175e-09
-1.98238e-09
-3.25835e-08
-3.251e-08
-3.25142e-08
-3.252e-08
-3.25044e-08
-3.24696e-08
-3.24188e-08
-3.2356e-08
-3.22862e-08
-3.22145e-08
-3.21451e-08
-3.20797e-08
-6.05519e-08
-6.04898e-08
-6.04897e-08
-6.0481e-08
-6.04468e-08
-6.03912e-08
-6.03193e-08
-6.02382e-08
-6.0155e-08
-6.00718e-08
-5.99901e-08
-5.99111e-08
-8.42554e-08
-8.3941e-08
-8.38912e-08
-8.38729e-08
-8.38546e-08
-8.38442e-08
-8.38339e-08
-8.38204e-08
-8.38069e-08
-8.3797e-08
-8.37849e-08
-1.01909e-07
-1.01056e-07
-1.00973e-07
-1.01151e-07
-1.01394e-07
-1.01676e-07
-1.01953e-07
-1.02203e-07
-1.0242e-07
-1.02619e-07
-1.02794e-07
-1.12077e-07
-1.12478e-07
-1.13431e-07
-1.14199e-07
-1.14907e-07
-1.15592e-07
-1.16194e-07
-1.16732e-07
-1.17157e-07
-1.17528e-07
-1.17797e-07
)
;
    }
    procBoundary0to2
    {
        type            processor;
        value           nonuniform List<scalar> 
28
(
-8.57747e-08
-2.70829e-07
5.62301e-08
6.89128e-08
6.78011e-08
-5.41051e-07
7.20952e-08
-2.44054e-07
-6.81392e-08
-5.77501e-07
4.60853e-08
-7.12091e-08
6.16542e-08
6.04335e-08
-8.66878e-07
6.24444e-08
-4.45339e-07
-8.23504e-07
5.20528e-08
5.12767e-08
-1.10204e-06
5.17069e-08
-6.13016e-07
-9.99357e-07
3.71863e-08
3.73568e-08
-1.27845e-06
3.74467e-08
)
;
    }
    procBoundary0to8
    {
        type            processor;
        value           nonuniform List<scalar> 
29
(
7.25832e-08
2.29921e-07
4.44565e-07
6.38522e-07
7.58937e-07
2.15638e-07
5.37159e-07
8.31014e-07
1.0496e-06
1.17739e-06
3.99941e-07
8.00973e-07
1.10592e-06
1.32632e-06