/*--------------------------------*- C++ -*----------------------------------*\
| =========                 |                                                 |
| \\      /  F ield         | OpenFOAM: The Open Source CFD Toolbox           |
|  \\    /   O peration     | Version:  2212                                  |
|   \\  /    A nd           | Website:  www.openfoam.com                      |
|    \\/     M anipulation  |                                                 |
\*---------------------------------------------------------------------------*/
FoamFile
{
    version     2.0;
    format      ascii;
    arch        "LSB;label=32;scalar=64";
    class       volVectorField;
    location    "2";
    object      U;
}
// * * * * * * * * * * * * * * * * * * * * * * * * * * * * * * * * * * * * * //

dimensions      [0 1 -1 0 0 0 0];

internalField   nonuniform List<vector> 
689
(
(0.0332211 -3.8239e-05 8.47322e-06)
(0.0323104 -3.56472e-05 4.51882e-05)
(0.0316235 -3.38703e-05 6.94819e-05)
(0.0310041 -3.05169e-05 8.88158e-05)
(0.03044 -2.11211e-05 9.80348e-05)
(0.0299028 -1.31626e-05 9.98164e-05)
(0.029416 -9.5454e-06 9.86397e-05)
(0.0289475 -8.18571e-06 9.65776e-05)
(0.0544647 -0.00135832 0.000182584)
(0.0528484 -0.00100049 0.000110713)
(0.0516524 -0.000772565 9.07544e-05)
(0.0506413 -0.000609299 9.46405e-05)
(0.0497594 -0.000515063 0.000112997)
(0.048943 -0.000461151 0.000126093)
(0.0482186 -0.000425263 0.000130099)
(0.0475181 -0.000401422 0.000130902)
(0.0771791 -0.00250785 0.000530044)
(0.074443 -0.00199853 0.000210098)
(0.0722585 -0.00164878 4.20757e-05)
(0.0704865 -0.00141543 -3.87545e-05)
(0.0690393 -0.00125242 -7.11428e-05)
(0.0678267 -0.00113697 -8.08979e-05)
(0.066779 -0.00105061 -9.35576e-05)
(0.0658597 -0.000988291 -0.000109176)
(0.0650044 -0.000939804 -0.000121501)
(0.0900247 -0.00232043 0.00182748)
(0.088943 -0.00294566 0.0017583)
(0.0876954 -0.00278738 0.00140256)
(0.0861461 -0.002461 0.00101311)
(0.0845463 -0.00216989 0.000661838)
(0.0830486 -0.00192424 0.000377173)
(0.0816728 -0.00172 0.000156224)
(0.0804168 -0.00155482 -1.23549e-05)
(0.0792676 -0.00142707 -0.00013837)
(0.0782095 -0.00132919 -0.000234072)
(0.0772282 -0.00125493 -0.000308019)
(0.0763008 -0.00120079 -0.000352364)
(0.0878148 -0.00124637 0.00158709)
(0.0876505 -0.00160349 0.00161643)
(0.0874114 -0.00168502 0.00135129)
(0.0870001 -0.00164055 0.00102325)
(0.0864321 -0.00156952 0.000707698)
(0.0857767 -0.00150088 0.000422458)
(0.0850722 -0.0014387 0.000190211)
(0.0843426 -0.00138319 1.03325e-05)
(0.0835894 -0.0013394 -0.000134803)
(0.0828256 -0.00130931 -0.0002527)
(0.082054 -0.00128912 -0.000346174)
(0.0812751 -0.00127659 -0.000419412)
(0.0829234 6.00379e-05 0.00136117)
(0.083328 -0.000298146 0.00126349)
(0.0837206 -0.00052782 0.000999296)
(0.0839787 -0.000669045 0.000717459)
(0.0840307 -0.000766351 0.000459931)
(0.083908 -0.000838532 0.000233028)
(0.0836501 -0.000899584 4.16544e-05)
(0.0832827 -0.00096326 -0.000120259)
(0.0828175 -0.00102261 -0.000253421)
(0.0822746 -0.00107228 -0.000369797)
(0.0816713 -0.00111121 -0.000452642)
(0.0810198 -0.00114055 -0.000510525)
(0.0766537 0.00137506 0.000702185)
(0.0775897 0.00098757 0.000518268)
(0.0784233 0.00053961 0.000290448)
(0.0790497 0.000186476 0.000138433)
(0.0793454 -9.21814e-05 1.40509e-05)
(0.0793825 -0.000315346 -0.00010194)
(0.0792361 -0.000496658 -0.000207348)
(0.0789428 -0.000653009 -0.000312346)
(0.0785243 -0.000777451 -0.000394259)
(0.078014 -0.000867331 -0.000457392)
(0.0774353 -0.00093153 -0.000507574)
(0.0768048 -0.000976144 -0.000545915)
(0.0709458 0.00261197 0.000442455)
(0.0718812 0.00193782 -0.000301929)
(0.0726226 0.0012341 -0.000506163)
(0.0729329 0.000679217 -0.000469017)
(0.0728535 0.000241051 -0.000426401)
(0.0725695 -9.74416e-05 -0.000408891)
(0.0721511 -0.000361263 -0.000404945)
(0.0716351 -0.000537586 -0.000413681)
(0.0710568 -0.000643946 -0.000429512)
(0.0704369 -0.000714987 -0.000447565)
(0.0697833 -0.000761504 -0.000463896)
(0.0691071 -0.000792356 -0.000479086)
(0.0644038 0.00233601 -0.00136931)
(0.0652656 0.00173873 -0.00177062)
(0.0651326 0.00109368 -0.00115659)
(0.0643528 0.000552653 -0.000695982)
(0.0634252 0.000151113 -0.000509784)
(0.0625722 -0.0001211 -0.000423003)
(0.0617975 -0.000299876 -0.000376223)
(0.0610738 -0.000397007 -0.000359422)
(0.0603874 -0.000458698 -0.000356109)
(0.0597261 -0.000490387 -0.000355337)
(0.0590744 -0.000502954 -0.000352606)
(0.0612444 0.000256759 -0.00440268)
(0.0565091 -3.29545e-05 -0.00340327)
(0.0532525 0.00018879 -0.00135791)
(0.0508452 0.000222613 -0.000128067)
(0.0493424 0.000114864 0.000183278)
(0.0483724 -4.47842e-06 0.000224658)
(0.0475897 -9.36708e-05 0.000189289)
(0.0468891 -0.000150179 0.000129315)
(0.0462365 -0.000175898 8.15358e-05)
(0.0456197 -0.00018233 5.79394e-05)
(0.0450338 -0.00017934 4.89481e-05)
(0.0531095 -0.000778007 -0.00395197)
(0.0418766 9.44612e-05 -0.0013587)
(0.0374707 0.000128345 -0.000191242)
(0.0347251 5.11676e-05 -2.09681e-05)
(0.0331903 -9.94356e-06 -3.63781e-05)
(0.0322622 -4.73164e-05 -3.66404e-05)
(0.0315561 -7.18651e-05 -3.58664e-05)
(0.0309301 -9.07026e-05 -3.15148e-05)
(0.0303647 -9.89355e-05 -2.14988e-05)
(0.029842 -0.000100083 -1.36575e-05)
(0.029357 -9.88252e-05 -1.06825e-05)
(0.0494317 0.000189971 -0.000120277)
(0.048472 0.000224191 2.45749e-06)
(0.047702 0.000190737 9.21588e-05)
(0.0469986 0.0001329 0.000148273)
(0.0463486 7.99124e-05 0.000175578)
(0.0457083 5.21874e-05 0.000182827)
(0.0451222 4.32818e-05 0.000179256)
(0.0445378 3.40755e-05 0.00017423)
(0.0813913 -0.00141117 0.000193123)
(0.0802912 -0.000978297 0.000134814)
(0.0794191 -0.000719034 0.000122764)
(0.0786985 -0.000559485 0.000131002)
(0.0780782 -0.00044867 0.00014176)
(0.0775321 -0.000380602 0.000153862)
(0.0770246 -0.000332742 0.000161946)
(0.0765335 -0.000294471 0.000164658)
(0.0972575 -0.00286493 0.000533645)
(0.0966442 -0.00239423 0.000334225)
(0.0960089 -0.00202387 0.000206396)
(0.095415 -0.00171701 0.000122501)
(0.0948943 -0.00148247 7.23911e-05)
(0.094452 -0.00131107 4.57652e-05)
(0.0940856 -0.00119065 3.00859e-05)
(0.0937744 -0.0010961 1.50467e-05)
(0.0935207 -0.00104504 5.02804e-06)
(0.102175 -0.00251459 0.00110864)
(0.102785 -0.00291042 0.00107323)
(0.103133 -0.00290197 0.000939774)
(0.103232 -0.00271313 0.0007684)
(0.103136 -0.00248557 0.000588984)
(0.102939 -0.00224841 0.000415759)
(0.10271 -0.00202565 0.00026046)
(0.10248 -0.00183846 0.000129773)
(0.102262 -0.00169032 2.02247e-05)
(0.102069 -0.00157257 -7.09276e-05)
(0.101898 -0.00147523 -0.000147625)
(0.101754 -0.00140931 -0.000212339)
(0.103942 -0.00172085 0.000757515)
(0.104219 -0.00196095 0.000854856)
(0.104454 -0.00204778 0.000838641)
(0.104667 -0.00203072 0.000742726)
(0.104822 -0.00197315 0.000602686)
(0.104919 -0.00189722 0.000444162)
(0.104976 -0.00180968 0.000286378)
(0.105004 -0.00171889 0.000142136)
(0.105015 -0.00164652 1.68761e-05)
(0.105012 -0.00158544 -9.38578e-05)
(0.104998 -0.00153495 -0.00018957)
(0.104979 -0.00149822 -0.000269532)
(0.102646 -0.000879415 0.000364381)
(0.10282 -0.00104264 0.000475625)
(0.103026 -0.00114709 0.000462769)
(0.103327 -0.00120035 0.000383423)
(0.103638 -0.00123467 0.000274822)
(0.103908 -0.00126206 0.000153336)
(0.10413 -0.00128301 3.14676e-05)
(0.104307 -0.00129414 -7.96746e-05)
(0.104448 -0.00129778 -0.000173035)
(0.104558 -0.00130364 -0.000253885)
(0.104641 -0.00131389 -0.000323774)
(0.104698 -0.00132697 -0.000381913)
(0.0996453 7.1825e-05 -0.00031549)
(0.0998124 -8.35184e-05 -0.00028658)
(0.100064 -0.000246841 -0.000332359)
(0.100449 -0.000384823 -0.000370388)
(0.100833 -0.000518422 -0.000401172)
(0.101146 -0.000647842 -0.000429994)
(0.10139 -0.000759381 -0.000449154)
(0.101581 -0.000846011 -0.000455906)
(0.10173 -0.000915945 -0.00045991)
(0.101842 -0.000978669 -0.000469107)
(0.101922 -0.00103426 -0.000481242)
(0.101976 -0.00108108 -0.000492668)
(0.0959464 0.00062076 -0.00127163)
(0.0963905 0.000525477 -0.00155421)
(0.096671 0.000338004 -0.00154545)
(0.0969435 0.000131152 -0.00138186)
(0.0971358 -7.97198e-05 -0.00120844)
(0.0972408 -0.000263318 -0.00104598)
(0.0973023 -0.000405182 -0.000894531)
(0.0973412 -0.000519361 -0.000773532)
(0.097361 -0.000612341 -0.000685505)
(0.0973665 -0.00068501 -0.000621236)
(0.0973628 -0.000739814 -0.000573275)
(0.0973498 -0.000780422 -0.000539752)
(0.0929389 0.000201934 -0.00279405)
(0.0928794 0.000202996 -0.00292712)
(0.0927525 0.000122692 -0.00254333)
(0.0923901 2.96779e-05 -0.00203885)
(0.091946 -5.56964e-05 -0.0016065)
(0.0915474 -0.000139156 -0.00127461)
(0.0912117 -0.000219068 -0.00103333)
(0.0909277 -0.000287047 -0.000859957)
(0.0906897 -0.00034129 -0.000735986)
(0.0904856 -0.000380118 -0.00064447)
(0.0903068 -0.000406842 -0.000582069)
(0.0842184 -0.00110026 -0.00483006)
(0.0849203 -0.000949934 -0.00451442)
(0.0841942 -0.000584833 -0.0031962)
(0.0827757 -0.000311648 -0.00207567)
(0.0814099 -0.000179599 -0.0013846)
(0.0803212 -0.000131712 -0.000972812)
(0.0794535 -0.000124833 -0.000720298)
(0.0787278 -0.000133506 -0.000560821)
(0.0781069 -0.000145497 -0.000452346)
(0.077554 -0.000156591 -0.000381037)
(0.0770469 -0.000168436 -0.00034088)
(0.0716605 -0.00122913 -0.00337986)
(0.0652926 -0.000994356 -0.00338246)
(0.0607176 -0.00058406 -0.00257339)
(0.0569221 -0.000336981 -0.00189907)
(0.0543832 -0.000190831 -0.00138839)
(0.0527508 -0.000118081 -0.00102102)
(0.0515427 -9.36858e-05 -0.000769153)
(0.0505318 -9.56638e-05 -0.000593832)
(0.049649 -0.000113603 -0.000505017)
(0.0488551 -0.00012419 -0.000452894)
(0.0481314 -0.000124458 -0.000415034)
(0.0643782 -0.000669389 -0.000565365)
(0.0634634 -0.000478628 -0.000166523)
(0.0626197 -0.000401224 0.000108696)
(0.0618526 -0.000366753 0.000291907)
(0.0611318 -0.00035956 0.000393783)
(0.0604453 -0.000364969 0.000458558)
(0.0597767 -0.000370724 0.000493001)
(0.0591205 -0.00037489 0.000508165)
(0.0584565 -0.000380951 0.000514061)
(0.092378 -0.00203651 -3.3646e-05)
(0.0919165 -0.00160503 5.03464e-05)
(0.0915076 -0.00127674 0.000135685)
(0.0911622 -0.00103729 0.000216808)
(0.0908736 -0.000864606 0.0002858)
(0.0906316 -0.000739958 0.00034034)
(0.0904307 -0.000649225 0.000380062)
(0.0902536 -0.000581208 0.00040295)
(0.090099 -0.000537151 0.000420107)
(0.10376 -0.00251579 0.000325859)
(0.103822 -0.00224348 0.000272135)
(0.103824 -0.00198595 0.000243279)
(0.103805 -0.00176043 0.000235733)
(0.103793 -0.00157486 0.000239707)
(0.103803 -0.00142313 0.000248885)
(0.10384 -0.00130401 0.000259134)
(0.103902 -0.00121092 0.000266459)
(0.103995 -0.00114406 0.000270882)
(0.107742 -0.00222519 0.000625329)
(0.10822 -0.0024252 0.000593793)
(0.108634 -0.00247638 0.000532238)
(0.109036 -0.0024081 0.000455247)
(0.109368 -0.00228195 0.000373727)
(0.109631 -0.00212853 0.000295175)
(0.109851 -0.00197902 0.000224262)
(0.110044 -0.00183421 0.000162684)
(0.11023 -0.00170716 0.000109261)
(0.110417 -0.00160006 6.40763e-05)
(0.110608 -0.00151059 2.5493e-05)
(0.11081 -0.00143853 -8.69534e-06)
(0.109804 -0.00168584 0.000334237)
(0.110215 -0.00181308 0.000352671)
(0.110608 -0.00187503 0.000341407)
(0.111029 -0.00187786 0.000304505)
(0.111441 -0.00184664 0.000247426)
(0.111821 -0.00179577 0.000178983)
(0.112173 -0.00173534 0.000104554)
(0.112499 -0.00167038 3.16011e-05)
(0.112811 -0.00160697 -3.33605e-05)
(0.113114 -0.00155551 -9.12063e-05)
(0.113405 -0.00151125 -0.000142481)
(0.113691 -0.00147437 -0.000186235)
(0.109633 -0.0010747 -0.000153695)
(0.110036 -0.00111501 -7.77018e-05)
(0.110408 -0.00115361 -7.23469e-05)
(0.110838 -0.00118278 -9.72353e-05)
(0.111282 -0.00120563 -0.000136106)
(0.111711 -0.00122488 -0.000182932)
(0.112122 -0.00124077 -0.000232384)
(0.112513 -0.00125216 -0.000279639)
(0.112884 -0.00125894 -0.00032092)
(0.113238 -0.00126429 -0.000357473)
(0.113576 -0.00126936 -0.00038897)
(0.113902 -0.00127423 -0.000415039)
(0.108152 -0.00047088 -0.000847161)
(0.108537 -0.000433616 -0.00082146)
(0.10888 -0.000463718 -0.000816969)
(0.109303 -0.000523437 -0.000811121)
(0.109744 -0.000594187 -0.00080041)
(0.110165 -0.000668397 -0.000786233)
(0.110561 -0.000739527 -0.000768426)
(0.110937 -0.000803001 -0.000748905)
(0.111293 -0.000857431 -0.00073007)
(0.111631 -0.000903611 -0.000712803)
(0.111956 -0.000942482 -0.000697051)
(0.11227 -0.000974509 -0.000682309)
(0.106313 -0.000160201 -0.00173675)
(0.106514 -8.31424e-05 -0.0018023)
(0.106759 -0.000110574 -0.00179224)
(0.107074 -0.00017449 -0.00171036)
(0.10739 -0.000249941 -0.00159408)
(0.107677 -0.000327501 -0.00146737)
(0.107943 -0.000400346 -0.00134262)
(0.108197 -0.00046437 -0.00122879)
(0.108442 -0.000519035 -0.00113033)
(0.108683 -0.000564419 -0.00104753)
(0.108925 -0.000602038 -0.000979891)
(0.109169 -0.000631534 -0.000925485)
(0.102881 -0.000408002 -0.00263831)
(0.103291 -0.000457969 -0.00284888)
(0.103601 -0.000403095 -0.00275737)
(0.103781 -0.000325343 -0.00251038)
(0.10385 -0.000270498 -0.00223599)
(0.103859 -0.000241777 -0.00197995)
(0.103848 -0.000235208 -0.00175627)
(0.103842 -0.000239428 -0.0015712)
(0.103854 -0.000249 -0.00142006)
(0.10389 -0.000259498 -0.00130135)
(0.103951 -0.000269173 -0.00121281)
(0.0963722 -0.00135688 -0.00338354)
(0.097392 -0.00117139 -0.00381277)
(0.0976298 -0.000830483 -0.00342979)
(0.0972778 -0.000529224 -0.00286208)
(0.0966831 -0.000330452 -0.00239834)
(0.0960563 -0.000205524 -0.00203546)
(0.0954697 -0.000123703 -0.00172734)
(0.094951 -7.32709e-05 -0.00148687)
(0.0945105 -4.61754e-05 -0.00130936)
(0.094141 -3.05563e-05 -0.00118661)
(0.0938266 -1.62543e-05 -0.00109271)
(0.0865856 -0.00212351 -0.00359351)
(0.0835562 -0.00175106 -0.0038896)
(0.0803613 -0.00108867 -0.00321145)
(0.0771487 -0.000535766 -0.00253676)
(0.0743953 -0.000219058 -0.0020333)
(0.0722006 -4.81049e-05 -0.00167372)
(0.070424 3.6368e-05 -0.00142477)
(0.0689797 7.08106e-05 -0.00125287)
(0.0677735 8.29391e-05 -0.00112956)
(0.0667336 9.80366e-05 -0.00103711)
(0.065825 0.000116206 -0.000969613)
(0.0729431 -0.00046141 -0.000684097)
(0.0728657 -0.000415499 -0.000249394)
(0.0725832 -0.00039945 8.76825e-05)
(0.0721666 -0.000399603 0.000351086)
(0.0716528 -0.0004128 0.000531881)
(0.0710753 -0.000434578 0.000640929)
(0.0704536 -0.000458314 0.000715132)
(0.069798 -0.000480099 0.000765658)
(0.0691163 -0.000495793 0.000798495)
(0.0969365 -0.00137825 -0.000142654)
(0.0971258 -0.0012099 7.02006e-05)
(0.097227 -0.00104882 0.000255195)
(0.097284 -0.0008982 0.000398687)
(0.0973193 -0.000778393 0.000515109)
(0.0973361 -0.000691051 0.000610391)
(0.0973409 -0.000627504 0.000685466)
(0.0973368 -0.000577937 0.000741609)
(0.0973278 -0.000543373 0.000783775)
(0.107064 -0.00171468 0.000169603)
(0.107378 -0.0016004 0.000245676)
(0.107662 -0.00147398 0.000324244)
(0.107925 -0.00134892 0.000397849)
(0.108176 -0.00123464 0.000462826)
(0.10842 -0.00113521 0.000518354)
(0.108661 -0.00105092 0.000564509)
(0.108902 -0.000980424 0.000602197)
(0.109148 -0.000924669 0.000631942)
(0.110622 -0.00169754 0.000345665)
(0.111095 -0.00172933 0.000341816)
(0.11152 -0.00174064 0.000329144)
(0.111983 -0.00171189 0.000317979)
(0.112444 -0.00165196 0.000311463)
(0.112875 -0.00157262 0.000308513)
(0.113283 -0.00148455 0.000306748)
(0.113671 -0.00139525 0.000305069)
(0.114047 -0.00131049 0.000303295)
(0.114413 -0.00123367 0.000301318)
(0.114774 -0.00116624 0.000299292)
(0.115132 -0.00110964 0.000297448)
(0.112705 -0.00134403 0.000142838)
(0.11323 -0.00137052 0.000122248)
(0.113705 -0.00138878 0.000114563)
(0.114214 -0.00138918 0.000109676)
(0.114726 -0.00137221 0.000101113)
(0.115222 -0.00134237 8.84081e-05)
(0.115701 -0.00130381 7.2711e-05)
(0.116166 -0.00125932 5.5315e-05)
(0.116616 -0.00121226 3.68629e-05)
(0.117056 -0.00116815 2.04838e-05)
(0.117486 -0.00112871 5.82216e-06)
(0.117909 -0.00109422 -7.36194e-06)
(0.113286 -0.000910945 -0.000326655)
(0.113754 -0.000904751 -0.000313098)
(0.114198 -0.000914164 -0.000307248)
(0.11468 -0.000924126 -0.000306604)
(0.115181 -0.00092962 -0.000310084)
(0.115681 -0.000931612 -0.000316588)
(0.116176 -0.000930456 -0.000324434)
(0.116664 -0.000925809 -0.000332145)
(0.117142 -0.000918317 -0.000338985)
(0.117608 -0.00090987 -0.000344702)
(0.118065 -0.000901753 -0.000349271)
(0.118513 -0.000894179 -0.000352615)
(0.112474 -0.000529271 -0.000939772)
(0.112925 -0.00050071 -0.000915905)
(0.113352 -0.000498304 -0.000917757)
(0.113823 -0.000507747 -0.000919416)
(0.114315 -0.000522301 -0.000911564)
(0.114802 -0.000539723 -0.000895198)
(0.115281 -0.000557156 -0.000872489)
(0.115751 -0.000572254 -0.000845587)
(0.116209 -0.000584546 -0.000817072)
(0.116657 -0.000594743 -0.000788965)
(0.117095 -0.000603305 -0.000762402)
(0.117525 -0.000609959 -0.000737709)
(0.110625 -0.000346318 -0.00169655)
(0.111098 -0.000342231 -0.00172733)
(0.111524 -0.000329656 -0.00173737)
(0.111989 -0.000318461 -0.00170725)
(0.112451 -0.00031165 -0.00164639)
(0.112884 -0.000308545 -0.00156684)
(0.113292 -0.000306796 -0.00147908)
(0.113682 -0.000305155 -0.00139023)
(0.114058 -0.000303515 -0.00130626)
(0.114424 -0.000301822 -0.00123072)
(0.114785 -0.000300383 -0.00116517)
(0.115143 -0.000298907 -0.00110971)
(0.107746 -0.000625529 -0.00222573)
(0.108225 -0.000593176 -0.00242483)
(0.108643 -0.000530103 -0.00247431)
(0.109047 -0.000451322 -0.00240419)
(0.109381 -0.00036902 -0.00227753)
(0.109648 -0.000291033 -0.00212469)
(0.109871 -0.00022122 -0.00197614)
(0.110067 -0.000160741 -0.00183102)
(0.110254 -0.000108566 -0.00170391)
(0.110441 -6.48543e-05 -0.00159714)
(0.110632 -2.83227e-05 -0.00150932)
(0.102177 -0.00110893 -0.0025163)
(0.102789 -0.00107295 -0.00291321)
(0.10314 -0.000938133 -0.00290624)
(0.103244 -0.000764169 -0.00271851)
(0.103153 -0.000582979 -0.00249033)
(0.102961 -0.000410334 -0.00225221)
(0.102735 -0.000256287 -0.00202758)
(0.102507 -0.000126698 -0.00183795)
(0.10229 -1.84022e-05 -0.00168747)
(0.102097 7.12381e-05 -0.00156779)
(0.101925 0.000145935 -0.00147143)
(0.0900225 -0.00182823 -0.0023226)
(0.0889388 -0.00175961 -0.00295132)
(0.0876877 -0.00140485 -0.00279941)
(0.0861349 -0.00101641 -0.0024789)
(0.0845323 -0.000665323 -0.00218815)
(0.0830332 -0.00037845 -0.00193634)
(0.0816553 -0.000153854 -0.00172475)
(0.0803972 1.73696e-05 -0.00155354)
(0.0792476 0.000143997 -0.00142143)
(0.0781915 0.000239783 -0.00132)
(0.077213 0.00031166 -0.00124307)
(0.0790486 0.000142027 -0.000188813)
(0.0793464 1.81322e-05 8.84835e-05)
(0.0793854 -9.8501e-05 0.000310487)
(0.0792396 -0.000206063 0.000490976)
(0.0789468 -0.000313972 0.00064737)
(0.0785289 -0.000399252 0.000773281)
(0.0780185 -0.000465246 0.000864724)
(0.0774395 -0.000517685 0.000930777)
(0.0768084 -0.000556249 0.000976836)
(0.100451 -0.000373279 0.000383272)
(0.100834 -0.000404726 0.000515768)
(0.101145 -0.00043339 0.000643553)
(0.101388 -0.000452242 0.000753601)
(0.101578 -0.000460028 0.000840578)
(0.101726 -0.000465434 0.000912062)
(0.101838 -0.000475333 0.000976355)
(0.101917 -0.000487095 0.00103342)
(0.101971 -0.000497841 0.00108148)
(0.109302 -0.000815324 0.000520517)
(0.109742 -0.000805268 0.000590778)
(0.110162 -0.00079147 0.000664893)
(0.110558 -0.00077377 0.000736192)
(0.110933 -0.000754224 0.000800151)
(0.111288 -0.000735067 0.000855376)
(0.111626 -0.000717018 0.000902469)
(0.11195 -0.000699832 0.000942154)
(0.112265 -0.000683902 0.000974875)
(0.112473 -0.000941208 0.000528016)
(0.112924 -0.000918259 0.000499634)
(0.11335 -0.000920989 0.000497233)
(0.113822 -0.000923443 0.000506502)
(0.114313 -0.000916256 0.000520897)
(0.1148 -0.000900218 0.000538148)
(0.115279 -0.000877489 0.000555449)
(0.115748 -0.000850324 0.000570582)
(0.116207 -0.00082126 0.000583065)
(0.116654 -0.000792248 0.000593495)
(0.117092 -0.000764433 0.000602238)
(0.117523 -0.000738603 0.000609074)
(0.114379 -0.000806835 0.00024766)
(0.114925 -0.000790951 0.000241181)
(0.115428 -0.000791785 0.000235176)
(0.115962 -0.000792284 0.000231552)
(0.116506 -0.000786854 0.000229781)
(0.117044 -0.00077634 0.000229278)
(0.117576 -0.000761638 0.000229099)
(0.1181 -0.000743556 0.000228607)
(0.118615 -0.000723358 0.000227617)
(0.119121 -0.000702681 0.000226243)
(0.119618 -0.000682614 0.000224518)
(0.120107 -0.000663668 0.000222413)
(0.114944 -0.000504207 -0.000237781)
(0.115506 -0.000511448 -0.000233441)
(0.116024 -0.00051321 -0.000231822)
(0.116568 -0.000511113 -0.000229885)
(0.117122 -0.000508707 -0.000228327)
(0.117674 -0.000504447 -0.000226148)
(0.11822 -0.000499002 -0.000223552)
(0.11876 -0.000492567 -0.000220582)
(0.119293 -0.00048537 -0.000217308)
(0.119818 -0.000477947 -0.000213937)
(0.120334 -0.000470668 -0.000210612)
(0.120841 -0.000463581 -0.000207354)
(0.11438 -0.00024833 -0.000805629)
(0.114926 -0.000241879 -0.000789304)
(0.115429 -0.000235961 -0.000789578)
(0.115963 -0.000232503 -0.000789491)
(0.116507 -0.000230876 -0.000783552)
(0.117045 -0.000230504 -0.000772705)
(0.117577 -0.000230426 -0.000757893)
(0.118101 -0.000229976 -0.00073992)
(0.118616 -0.000228984 -0.000720068)
(0.119122 -0.000227606 -0.000699971)
(0.119619 -0.000225902 -0.000680665)
(0.120107 -0.000223791 -0.000662499)
(0.112707 -0.000143001 -0.00134319)
(0.113233 -0.00012222 -0.00136919)
(0.113707 -0.00011442 -0.00138676)
(0.114216 -0.000109425 -0.0013864)
(0.114729 -0.000100772 -0.00136879)
(0.115225 -8.80973e-05 -0.00133861)
(0.115705 -7.25314e-05 -0.00129995)
(0.11617 -5.53262e-05 -0.00125558)
(0.11662 -3.71438e-05 -0.00120893)
(0.11706 -2.11468e-05 -0.00116552)
(0.11749 -7.00773e-06 -0.00112701)
(0.117914 5.68246e-06 -0.00109326)
(0.109806 -0.000333936 -0.00168603)
(0.110218 -0.000351683 -0.00181314)
(0.110612 -0.000339493 -0.00187435)
(0.111035 -0.000301743 -0.00187636)
(0.111447 -0.000244373 -0.00184458)
(0.111828 -0.000176332 -0.00179332)
(0.11218 -0.000102488 -0.00173263)
(0.112507 -3.03036e-05 -0.00166741)
(0.11282 3.37947e-05 -0.00160385)
(0.113122 9.07127e-05 -0.00155248)
(0.113414 0.00014077 -0.00150861)
(0.103944 -0.000757439 -0.00172194)
(0.104222 -0.000854137 -0.00196292)
(0.104458 -0.000836858 -0.00205029)
(0.104672 -0.000740001 -0.00203364)
(0.104829 -0.000599764 -0.00197609)
(0.104928 -0.000441801 -0.00189948)
(0.104986 -0.000284588 -0.00181055)
(0.105015 -0.00014064 -0.00171805)
(0.105025 -1.5741e-05 -0.00164393)
(0.105022 9.4419e-05 -0.00158123)
(0.105008 0.00018962 -0.00153122)
(0.0878147 -0.00158782 -0.00124787)
(0.08765 -0.00161784 -0.00160655)
(0.0874104 -0.00135335 -0.00168983)
(0.0869992 -0.00102581 -0.00164666)
(0.0864325 -0.000710425 -0.0015757)
(0.0857789 -0.000424264 -0.0015054)
(0.085075 -0.000190216 -0.00144076)
(0.0843451 -8.5582e-06 -0.00138266)
(0.0835916 0.00013757 -0.00133635)
(0.082828 0.000255904 -0.00130395)
(0.0820568 0.000349713 -0.00128191)
(0.113286 -0.000328066 0.000909734)
(0.113755 -0.000315377 0.000903174)
(0.114198 -0.000310332 0.000912195)
(0.114681 -0.000310355 0.000921825)
(0.115182 -0.000314333 0.000927075)
(0.115682 -0.000321096 0.000928932)
(0.116177 -0.000328944 0.000927783)
(0.116665 -0.000336444 0.000923293)
(0.117143 -0.000342841 0.000916065)
(0.11761 -0.000347844 0.000907938)
(0.118067 -0.000351455 0.000900181)
(0.118515 -0.000353772 0.000893055)
(0.114945 -0.000238851 0.000503215)
(0.115507 -0.000234944 0.000510153)
(0.116024 -0.000233787 0.000511494)
(0.116569 -0.000232315 0.000508993)
(0.117123 -0.000231178 0.000506292)
(0.117674 -0.00022928 0.000501824)
(0.11822 -0.000226795 0.000496291)
(0.118761 -0.000223757 0.000489901)
(0.119294 -0.00022023 0.000482862)
(0.119819 -0.000216419 0.00047568)
(0.120335 -0.000212504 0.000468703)
(0.120843 -0.000208587 0.000462004)
(0.115398 -7.3059e-07 1.62374e-08)
(0.116002 -9.45559e-07 -3.23069e-08)
(0.116554 -1.2271e-06 -8.00246e-08)
(0.117129 -1.53612e-06 -1.31433e-07)
(0.117709 -1.77562e-06 -1.7892e-07)
(0.118282 -1.94408e-06 -2.21789e-07)
(0.118847 -2.03149e-06 -2.59339e-07)
(0.119406 -2.03177e-06 -2.93772e-07)
(0.119956 -1.94737e-06 -3.2996e-07)
(0.120499 -1.78909e-06 -3.72242e-07)
(0.121033 -1.57499e-06 -4.15506e-07)
(0.121559 -1.3227e-06 -4.46572e-07)
(0.114945 0.000237258 -0.000503382)
(0.115507 0.000232779 -0.000510429)
(0.116024 0.000230989 -0.000511774)
(0.116569 0.000228941 -0.00050928)
(0.117123 0.00022735 -0.000506615)
(0.117674 0.000225143 -0.000502157)
(0.11822 0.000222525 -0.00049662)
(0.118761 0.000219542 -0.00049023)
(0.119294 0.000216251 -0.000483218)
(0.119818 0.000212834 -0.000476104)
(0.120334 0.00020942 -0.000469216)
(0.120842 0.000206053 -0.000462582)
(0.113287 0.000326447 -0.000910287)
(0.113755 0.000312818 -0.000903977)
(0.114199 0.000306948 -0.000913031)
(0.114682 0.00030637 -0.000922506)
(0.115183 0.000309937 -0.000927508)
(0.115683 0.000316493 -0.000929103)
(0.116178 0.000324344 -0.000927716)
(0.116665 0.000332026 -0.00092305)
(0.117143 0.000338775 -0.00091575)
(0.11761 0.000344298 -0.000907685)
(0.118067 0.000348536 -0.00090004)
(0.118515 0.000351459 -0.000892948)
(0.109635 0.000154417 -0.00107489)
(0.110038 7.86502e-05 -0.00111543)
(0.110411 7.33424e-05 -0.00115362)
(0.110841 9.82952e-05 -0.00118218)
(0.111285 0.000137171 -0.00120442)
(0.111714 0.000183832 -0.00122308)
(0.112125 0.000233041 -0.00123847)
(0.112517 0.000280064 -0.00124953)
(0.112888 0.000321077 -0.00125614)
(0.113241 0.000357258 -0.00126152)
(0.11358 0.000388092 -0.00126655)
(0.102648 -0.00036385 -0.000879568)
(0.102824 -0.000473872 -0.00104429)
(0.10303 -0.000460488 -0.00114932)
(0.103332 -0.000381029 -0.0012027)
(0.103643 -0.000272584 -0.00123674)
(0.103914 -0.000151646 -0.00126313)
(0.104136 -3.02728e-05 -0.00128291)
(0.104313 8.0614e-05 -0.00129302)
(0.104453 0.000173562 -0.00129544)
(0.104564 0.000254124 -0.00130053)
(0.104646 0.000324016 -0.00131095)
(0.0829229 -0.0013616 5.93242e-05)
(0.0833281 -0.00126397 -0.000299505)
(0.0837217 -0.000999514 -0.000529788)
(0.0839811 -0.000717739 -0.000671125)
(0.0840348 -0.000460041 -0.000768227)
(0.0839138 -0.00023241 -0.000839902)
(0.0836568 -4.00348e-05 -0.000899996)
(0.0832902 0.000122529 -0.000962543)
(0.0828253 0.000255632 -0.0010206)
(0.0822824 0.000372072 -0.00106895)
(0.0816789 0.000453846 -0.00110689)
)
;

boundaryField
{
    inlet
    {
        type            fixedValue;
        value           nonuniform List<vector> 0();
    }
    ami1
    {
        type            cyclicAMI;
        value           nonuniform List<vector> 0();
    }
    walls
    {
        type            noSlip;
    }
    ami2
    {
        type            cyclicAMI;
        value           nonuniform List<vector> 
48
(
(0.0908985 -0.00186883 0.00152532)
(0.0880206 -0.00104986 0.00134578)
(0.0828235 0.000127892 0.00122993)
(0.0759808 0.00112212 0.000488439)
(0.0702571 0.00231925 0.000507176)
(0.0631329 0.0024752 -0.000508716)
(0.0653805 0.000862133 -0.00288351)
(0.0657147 -0.000403797 -0.00327929)
(0.101766 -0.00219584 0.00100649)
(0.103793 -0.0015887 0.000654712)
(0.10253 -0.000846899 0.000270347)
(0.0995154 6.76654e-05 -0.000369152)
(0.0955286 0.000612611 -0.00108792)
(0.0931506 0.000238422 -0.00231264)
(0.0831119 -0.00079597 -0.00370439)
(0.0789767 -0.0011989 -0.00288708)
(0.107397 -0.0021201 0.000608659)
(0.109535 -0.00163097 0.000293083)
(0.109334 -0.00107875 -0.000224201)
(0.107809 -0.000522621 -0.000873826)
(0.106184 -0.00022514 -0.00166867)
(0.102629 -0.000371601 -0.00247124)
(0.0955406 -0.00123895 -0.0027995)
(0.0888938 -0.00189671 -0.00275925)
(0.110245 -0.00169513 0.000349789)
(0.112316 -0.00133511 0.00014457)
(0.112987 -0.00091996 -0.000336048)
(0.112172 -0.000555774 -0.000951257)
(0.110248 -0.000350501 -0.00169441)
(0.1074 -0.000609002 -0.00212061)
(0.101767 -0.00100681 -0.00219714)
(0.0908973 -0.00152586 -0.00187044)
(0.112171 -0.000952408 0.00055461)
(0.114002 -0.000833971 0.000256946)
(0.114578 -0.000499678 -0.00024673)
(0.114003 -0.000257575 -0.000832953)
(0.112318 -0.000144818 -0.00133443)
(0.109537 -0.000292945 -0.00163105)
(0.103794 -0.000654712 -0.00158942)
(0.0880208 -0.00134634 -0.00105096)
(0.112987 -0.00033713 0.000918911)
(0.114579 -0.000247628 0.00049883)
(0.114985 -6.42209e-07 3.51248e-08)
(0.114579 0.000246275 -0.000498915)
(0.112988 0.000335856 -0.000919341)
(0.109336 0.000224741 -0.00107882)
(0.102532 -0.000269991 -0.000846972)
(0.0828238 -0.00123015 0.000127375)
)
;
    }
    outlet
    {
        type            zeroGradient;
    }
    procBoundary0to1
    {
        type            processor;
        value           nonuniform List<vector> 
138
(
(0.0784207 0.000294724 -0.000541498)
(0.0839793 0.00072276 0.000669947)
(0.0840323 0.000464986 0.000766265)
(0.0839106 0.000236136 0.000837051)
(0.0836532 4.1527e-05 0.000896323)
(0.0832866 -0.000123483 0.000958779)
(0.0828219 -0.000259049 0.00101773)
(0.082279 -0.00037734 0.00106752)
(0.0816757 -0.000460613 0.00110715)
(0.0810242 -0.000518314 0.00113752)
(0.100067 -0.000335627 0.000247008)
(0.10333 0.000382009 0.00120048)
(0.103641 0.00027264 0.00123396)
(0.103911 0.000150424 0.00126005)
(0.104133 2.77565e-05 0.00127992)
(0.10431 -8.4464e-05 0.00129055)
(0.10445 -0.000178711 0.00129391)
(0.104561 -0.000260019 0.00129972)
(0.104643 -0.000329692 0.00131026)
(0.1047 -0.00038704 0.00132376)
(0.108153 -0.000848532 0.00046892)
(0.108537 -0.000824505 0.000431875)
(0.10888 -0.000820715 0.000461532)
(0.10888 -0.000820715 0.000461532)
(0.110839 -0.00010187 0.0011805)
(0.111283 -0.000141269 0.00120302)
(0.111713 -0.000188238 0.00122208)
(0.112124 -0.000237547 0.00123794)
(0.112515 -0.000284587 0.00124943)
(0.112887 -0.000325557 0.00125644)
(0.11324 -0.000361473 0.00126211)
(0.113578 -0.000391961 0.00126758)
(0.113904 -0.00041686 0.00127293)
(0.109634 -0.000154767 0.00107336)
(0.110037 -8.03399e-05 0.00111349)
(0.11041 -7.61725e-05 0.0011517)
(0.110839 -0.00010187 0.0011805)
(0.111283 -0.000141269 0.00120302)
(0.111713 -0.000188238 0.00122208)
(0.112124 -0.000237547 0.00123794)
(0.112515 -0.000284587 0.00124943)
(0.112887 -0.000325557 0.00125644)
(0.11324 -0.000361473 0.00126211)
(0.113578 -0.000391961 0.00126758)
(0.113904 -0.00041686 0.00127293)
(0.112707 0.000141703 0.00134271)
(0.113233 0.00012019 0.00136834)
(0.113708 0.000111706 0.0013859)
(0.114217 0.000106124 0.00138583)
(0.11473 9.69967e-05 0.00136865)
(0.115226 8.3983e-05 0.00133888)
(0.115706 6.82624e-05 0.00130057)
(0.116171 5.11201e-05 0.00125642)
(0.116622 3.3197e-05 0.00120978)
(0.117062 1.75516e-05 0.00116613)
(0.117493 3.84595e-06 0.00112724)
(0.117916 -8.25978e-06 0.00109339)
(0.11438 0.000247119 0.000805435)