/*--------------------------------*- C++ -*----------------------------------*\
| =========                 |                                                 |
| \\      /  F ield         | OpenFOAM: The Open Source CFD Toolbox           |
|  \\    /   O peration     | Version:  2212                                  |
|   \\  /    A nd           | Website:  www.openfoam.com                      |
|    \\/     M anipulation  |                                                 |
\*---------------------------------------------------------------------------*/
FoamFile
{
    version     2.0;
    format      ascii;
    arch        "LSB;label=32;scalar=64";
    class       surfaceScalarField;
    location    "1.05";
    object      phi;
}
// * * * * * * * * * * * * * * * * * * * * * * * * * * * * * * * * * * * * * //

dimensions      [0 3 -1 0 0 0 0];

oriented        oriented;

internalField   nonuniform List<scalar> 
1795
(
1.86003e-07
3.89124e-09
3.87681e-09
1.79354e-07
3.33712e-09
3.31226e-09
1.73524e-07
2.93612e-09
2.89377e-09
1.68351e-07
2.62116e-09
2.55197e-09
1.63729e-07
2.36787e-09
2.25383e-09
1.59563e-07
2.18232e-09
1.98355e-09
2.06482e-09
1.70804e-09
4.90958e-07
1.07976e-08
6.83804e-09
4.78751e-07
9.94333e-09
5.60004e-09
4.67696e-07
9.23139e-09
4.76048e-09
4.57567e-07
8.60309e-09
4.14689e-09
4.48235e-07
8.03104e-09
3.66868e-09
4.39601e-07
7.50476e-09
3.31176e-09
7.01468e-09
3.04068e-09
7.98813e-07
1.26561e-08
1.11177e-08
7.8677e-07
1.18542e-08
1.0132e-08
7.75678e-07
1.09867e-08
9.33633e-09
7.65411e-07
1.0142e-08
8.7286e-09
7.55837e-07
9.33037e-09
8.27466e-09
7.46872e-07
8.54484e-09
7.92483e-09
7.74834e-09
7.62805e-09
1.02286e-06
7.53209e-09
1.21124e-08
1.01604e-06
7.33067e-09
1.13419e-08
1.00932e-06
7.01941e-09
1.06873e-08
1.00274e-06
6.53622e-09
1.01897e-08
9.9628e-07
5.96676e-09
9.82045e-09
9.89919e-07
5.35416e-09
9.55148e-09
4.67581e-09
9.36228e-09
1.13398e-06
-2.30708e-11
1.13123e-08
1.13069e-06
-3.90136e-11
1.06578e-08
1.12757e-06
-6.54304e-11
1.02042e-08
1.1243e-06
-1.09244e-10
9.92005e-09
1.12072e-06
-1.81671e-10
9.73218e-09
1.11672e-06
-3.01845e-10
9.65033e-09
-5.056e-10
9.70221e-09
1.13393e-06
-7.56611e-09
1.1321e-08
1.13061e-06
-7.38877e-09
1.06726e-08
1.12743e-06
-7.11535e-09
1.02291e-08
1.12405e-06
-6.69297e-09
9.9604e-09
1.1203e-06
-6.22228e-09
9.79969e-09
1.116e-06
-5.77527e-09
9.77047e-09
9.92376e-09
1.02276e-06
-1.26616e-08
1.21273e-08
1.01586e-06
-1.18633e-08
1.13667e-08
1.00902e-06
-1.10013e-08
1.07301e-08
1.00223e-06
-1.0165e-08
1.02636e-08
9.95422e-07
-9.36721e-09
9.94998e-09
-8.60702e-09
9.7779e-09
7.98731e-07
-1.07827e-08
1.11316e-08
7.86631e-07
-9.91833e-09
1.01546e-08
7.75445e-07
-9.18902e-09
9.37379e-09
7.6502e-07
-8.53161e-09
8.79215e-09
7.55184e-07
-7.91587e-09
8.38447e-09
-7.32211e-09
8.1117e-09
4.90933e-07
-3.87687e-09
6.84938e-09
4.78708e-07
-3.31233e-09
5.61896e-09
4.6762e-07
-2.89385e-09
4.79276e-09
4.57432e-07
-2.55205e-09
4.20811e-09
4.47998e-07
-2.25391e-09
3.77291e-09
-1.98361e-09
3.45901e-09
1.86003e-07
3.89118e-09
1.79354e-07
3.33705e-09
1.73524e-07
2.93604e-09
1.68351e-07
2.62108e-09
1.63729e-07
2.36779e-09
2.1822e-09
4.90933e-07
6.8494e-09
1.07827e-08
4.78708e-07
5.61898e-09
9.91824e-09
4.6762e-07
4.79278e-09
9.18892e-09
4.57432e-07
4.20813e-09
8.5315e-09
4.47998e-07
3.77293e-09
7.91575e-09
4.392e-07
3.45906e-09
7.32198e-09
3.23179e-09
6.71647e-09
8.54762e-07
1.21912e-08
1.21734e-08
8.45324e-07
1.03438e-08
1.03131e-08
8.36983e-07
8.97376e-09
8.92111e-09
8.29554e-07
7.93612e-09
7.84784e-09
8.22862e-07
7.13865e-09
6.99505e-09
8.16824e-07
6.51774e-09
6.29036e-09
6.00146e-09
5.64064e-09
1.14461e-06
1.38776e-08
1.53178e-08
1.13921e-06
1.22694e-08
1.36105e-08
1.13442e-06
1.08594e-08
1.22382e-08
1.13026e-06
9.68234e-09
1.11395e-08
1.12671e-06
8.70255e-09
1.02586e-08
1.12377e-06
7.85937e-09
9.52859e-09
7.08015e-09
8.87976e-09
1.3546e-06
9.02858e-09
1.68096e-08
1.35458e-06
8.16446e-09
1.54625e-08
1.35455e-06
7.34349e-09
1.42323e-08
1.35459e-06
6.59105e-09
1.32461e-08
1.35474e-06
5.89611e-09
1.24706e-08
1.35505e-06
5.24112e-09
1.18613e-08
4.57195e-09
1.13773e-08
1.46193e-06
-1.9729e-11
1.64438e-08
1.46522e-06
-3.30088e-11
1.55624e-08
1.46814e-06
-5.62377e-11
1.46911e-08
1.47085e-06
-9.45077e-11
1.38953e-08
1.47341e-06
-1.57471e-10
1.32258e-08
1.47578e-06
-2.53815e-10
1.277e-08
-4.01316e-10
1.25333e-08
1.46188e-06
-9.05243e-09
1.6456e-08
1.46515e-06
-8.2044e-09
1.55814e-08
1.46801e-06
-7.41336e-09
1.47226e-08
1.47064e-06
-6.70955e-09
1.39477e-08
1.47305e-06
-6.09134e-09
1.3317e-08
1.47518e-06
-5.54238e-09
1.29273e-08
1.27867e-08
1.3545e-06
-1.38757e-08
1.68356e-08
1.35443e-06
-1.22648e-08
1.55028e-08
1.3543e-06
-1.08506e-08
1.42979e-08
1.35416e-06
-9.66763e-09
1.33583e-08
1.35404e-06
-8.67568e-09
1.26584e-08
-7.80446e-09
1.2169e-08
1.14455e-06
-1.21735e-08
1.5342e-08
1.1391e-06
-1.03131e-08
1.36515e-08
1.13424e-06
-8.92117e-09
1.23059e-08
1.12996e-06
-7.84792e-09
1.12509e-08
1.12622e-06
-6.99513e-09
1.04396e-08
-6.29037e-09
9.82025e-09
8.54762e-07
-6.83804e-09
1.21912e-08
8.45324e-07
-5.60004e-09
1.03438e-08
8.36983e-07
-4.76048e-09
8.97369e-09
8.29554e-07
-4.1469e-09
7.93604e-09
8.22862e-07
-3.66869e-09
7.13856e-09
-3.31171e-09
6.51761e-09
4.90958e-07
1.07975e-08
4.78751e-07
9.94327e-09
4.67696e-07
9.23131e-09
4.57567e-07
8.60301e-09
4.48235e-07
8.03095e-09
7.50468e-09
7.98731e-07
1.11316e-08
1.26614e-08
7.86631e-07
1.01546e-08
1.18631e-08
7.75445e-07
9.37383e-09
1.10012e-08
7.6502e-07
8.79219e-09
1.01648e-08
7.55184e-07
8.38451e-09
9.36702e-09
7.45787e-07
8.11174e-09
8.60681e-09
7.9434e-09
7.85706e-09
1.14455e-06
1.53421e-08
1.38756e-08
1.1391e-06
1.36516e-08
1.22648e-08
1.13424e-06
1.23059e-08
1.08505e-08
1.12996e-06
1.1251e-08
9.66751e-09
1.12622e-06
1.04396e-08
8.67556e-09
1.123e-06
9.82035e-09
7.80434e-09
9.34608e-09
6.97977e-09
1.41154e-06
1.50419e-08
1.50255e-08
1.41183e-06
1.34978e-08
1.34711e-08
1.4121e-06
1.216e-08
1.21171e-08
1.41252e-06
1.10204e-08
1.09514e-08
1.4132e-06
1.00623e-08
9.95173e-09
1.41422e-06
9.25647e-09
9.0786e-09
8.565e-09
8.28237e-09
1.60011e-06
9.32602e-09
1.544e-08
1.60628e-06
8.45153e-09
1.43359e-08
1.61181e-06
7.62493e-09
1.32385e-08
1.61694e-06
6.88999e-09
1.22418e-08
1.62186e-06
6.24506e-09
1.13718e-08
1.62668e-06
5.66786e-09
1.06242e-08
5.12589e-09
9.98159e-09
1.69656e-06
-1.06822e-11
1.49587e-08
1.7063e-06
-1.74197e-11
1.42866e-08
1.71513e-06
-2.85919e-11
1.3516e-08
1.72322e-06
-4.62371e-11
1.27377e-08
1.73075e-06
-7.32279e-11
1.20215e-08
1.73788e-06
-1.12348e-10
1.14184e-08
-1.69405e-10
1.09568e-08
1.69652e-06
-9.33284e-09
1.49697e-08
1.70624e-06
-8.46275e-09
1.43038e-08
1.71504e-06
-7.64465e-09
1.35435e-08
1.72308e-06
-6.92389e-09
1.27823e-08
1.73053e-06
-6.30056e-09
1.20939e-08
1.73756e-06
-5.75198e-09
1.15349e-08
1.11399e-08
1.60005e-06
-1.50256e-08
1.54628e-08
1.60619e-06
-1.34712e-08
1.43713e-08
1.61167e-06
-1.21172e-08
1.32941e-08
1.61672e-06
-1.09515e-08
1.23314e-08
1.62152e-06
-9.95186e-09
1.15156e-08
-9.07877e-09
1.08562e-08
1.41154e-06
-1.53178e-08
1.50419e-08
1.41183e-06
-1.36106e-08
1.34977e-08
1.4121e-06
-1.22383e-08
1.216e-08
1.41252e-06
-1.11395e-08
1.10204e-08
1.4132e-06
-1.02587e-08
1.00623e-08
-9.52874e-09
9.25641e-09
1.14461e-06
-1.11177e-08
1.38776e-08
1.1392e-06
-1.0132e-08
1.22694e-08
1.13442e-06
-9.33635e-09
1.08593e-08
1.13026e-06
-8.72864e-09
9.68225e-09
1.12671e-06
-8.27471e-09
8.70246e-09
-7.92493e-09
7.85928e-09
7.98813e-07
1.2656e-08
7.8677e-07
1.18541e-08
7.75678e-07
1.09866e-08
7.65411e-07
1.01419e-08
7.55837e-07
9.33024e-09
8.5447e-09
1.02276e-06
1.21273e-08
7.56599e-09
1.01586e-06
1.13667e-08
7.38862e-09
1.00902e-06
1.07302e-08
7.11517e-09
1.00223e-06
1.02636e-08
6.69277e-09
9.95422e-07
9.94999e-09
6.22205e-09
9.88476e-07
9.7779e-09
5.775e-09
9.76029e-09
5.38068e-09
1.3545e-06
1.68356e-08
9.05235e-09
1.35443e-06
1.55028e-08
8.2043e-09
1.3543e-06
1.42979e-08
7.41324e-09
1.35416e-06
1.33584e-08
6.7094e-09
1.35404e-06
1.26584e-08
6.09117e-09
1.35391e-06
1.2169e-08
5.54218e-09
1.18796e-08
5.04177e-09
1.60005e-06
1.54628e-08
9.33279e-09
1.60619e-06
1.43714e-08
8.46269e-09
1.61167e-06
1.32941e-08
7.64456e-09
1.61672e-06
1.23314e-08
6.92378e-09
1.62152e-06
1.15156e-08
6.30043e-09
1.62616e-06
1.08562e-08
5.75182e-09
1.03526e-08
5.24949e-09
1.77035e-06
9.20185e-09
9.19399e-09
1.78184e-06
8.61774e-09
8.606e-09
1.7924e-06
7.99564e-09
7.97788e-09
1.80219e-06
7.40121e-09
7.37356e-09
1.81139e-06
6.86768e-09
6.82356e-09
1.82013e-06
6.40684e-09
6.3353e-09
6.01758e-09
5.90303e-09
1.85773e-06
-6.56615e-13
8.83466e-09
1.87217e-06
-1.43439e-12
8.46101e-09
1.88567e-06
-2.60092e-12
8.01609e-09
1.89826e-06
-3.99625e-12
7.55141e-09
1.91005e-06
-5.25566e-12
7.10471e-09
1.92118e-06
-5.74476e-12
6.70181e-09
-5.57019e-12
6.36028e-09
1.85772e-06
-9.19403e-09
8.84067e-09
1.87215e-06
-8.60606e-09
8.47012e-09
1.88564e-06
-7.97796e-09
8.03004e-09
1.89822e-06
-7.37367e-09
7.57296e-09
1.91e-06
-6.82368e-09
7.13812e-09
1.92111e-06
-6.33545e-09
6.75359e-09
6.44003e-09
1.77035e-06
-1.54401e-08
9.20183e-09
1.78184e-06
-1.4336e-08
8.61772e-09
1.7924e-06
-1.32386e-08
7.99562e-09
1.80219e-06
-1.22419e-08
7.40118e-09
1.81139e-06
-1.1372e-08
6.86766e-09
-1.06244e-08
6.40682e-09
1.60011e-06
-1.68096e-08
9.32598e-09
1.60628e-06
-1.54626e-08
8.45149e-09
1.61181e-06
-1.42324e-08
7.62489e-09
1.61694e-06
-1.32461e-08
6.88995e-09
1.62186e-06
-1.24708e-08
6.24502e-09
-1.18615e-08
5.66782e-09
1.3546e-06
-1.21124e-08
9.02854e-09
1.35458e-06
-1.13419e-08
8.16441e-09
1.35455e-06
-1.06874e-08
7.34344e-09
1.35459e-06
-1.01898e-08
6.59098e-09
1.35474e-06
-9.82051e-09
5.89605e-09
-9.55158e-09
5.24107e-09
1.02286e-06
7.53203e-09
1.01604e-06
7.3306e-09
1.00932e-06
7.01933e-09
1.00274e-06
6.53612e-09
9.96279e-07
5.96666e-09
5.35405e-09
1.13393e-06
1.1321e-08
2.29504e-11
1.13061e-06
1.06726e-08
3.88715e-11
1.12743e-06
1.02291e-08
6.52638e-11
1.12405e-06
9.9604e-09
1.09047e-10
1.12029e-06
9.79968e-09
1.81436e-10
1.116e-06
9.77043e-09
3.01563e-10
9.92368e-09
5.05261e-10
1.46188e-06
1.64561e-08
1.96566e-11
1.46515e-06
1.55814e-08
3.29169e-11
1.46801e-06
1.47226e-08
5.61223e-11
1.47064e-06
1.39477e-08
9.43646e-11
1.47305e-06
1.3317e-08
1.57295e-10
1.47518e-06
1.29273e-08
2.53603e-10
1.27866e-08
4.01043e-10
1.69652e-06
1.49697e-08
1.06329e-11
1.70624e-06
1.43038e-08
1.73538e-11
1.71504e-06
1.35435e-08
2.8507e-11
1.72308e-06
1.27822e-08
4.61315e-11
1.73053e-06
1.20939e-08
7.31012e-11
1.73756e-06
1.15348e-08
1.122e-10
1.11398e-08
1.69238e-10
1.85772e-06
8.84068e-09
6.11484e-13
1.87215e-06
8.47012e-09
1.37356e-12
1.88564e-06
8.03003e-09
2.52138e-12
1.89822e-06
7.57295e-09
3.89645e-12
1.91e-06
7.13809e-09
5.13665e-12
1.92111e-06
6.75355e-09
5.60987e-12
6.43996e-09
5.42703e-12
1.94051e-06
1.39484e-12
-1.44106e-12
1.95744e-06
2.03607e-12
-2.10132e-12
1.97349e-06
3.01754e-12
-3.10614e-12
1.98861e-06
4.5711e-12
-4.6863e-12
2.00286e-06
7.05203e-12
-7.19518e-12
2.01631e-06
1.09381e-11
-1.11088e-11
1.67186e-11
-1.69119e-11
1.94051e-06
-8.83471e-09
1.39379e-12
1.95744e-06
-8.46108e-09
2.04021e-12
1.97349e-06
-8.01617e-09
3.02735e-12
1.98861e-06
-7.55152e-09
4.58646e-12
2.00286e-06
-7.10485e-09
7.07081e-12
2.01631e-06
-6.70198e-09
1.09592e-11
1.67386e-11
1.85773e-06
-1.49588e-08
-6.62515e-13
1.87217e-06
-1.42867e-08
-1.43858e-12
1.88567e-06
-1.35161e-08
-2.60464e-12
1.89826e-06
-1.27378e-08
-4.00265e-12
1.91005e-06
-1.20216e-08
-5.26932e-12
-1.14186e-08
-5.77257e-12
1.69656e-06
-1.64438e-08
-1.06918e-11
1.7063e-06
-1.55624e-08
-1.74279e-11
1.71513e-06
-1.46912e-08
-2.85993e-11
1.72322e-06
-1.38954e-08
-4.62457e-11
1.73075e-06
-1.3226e-08
-7.32405e-11
-1.27702e-08
-1.1237e-10
1.46193e-06
-1.13124e-08
-1.97468e-11
1.46522e-06
-1.06578e-08
-3.30267e-11
1.46814e-06
-1.02042e-08
-5.62544e-11
1.47085e-06
-9.92009e-09
-9.4523e-11
1.47341e-06
-9.73224e-09
-1.57481e-10
-9.65042e-09
-2.53816e-10
1.13398e-06
-2.3107e-11
1.13069e-06
-3.90513e-11
1.12757e-06
-6.54695e-11
1.1243e-06
-1.09281e-10
1.12072e-06
-1.817e-10
-3.01861e-10
1.13398e-06
1.13124e-08
-7.53219e-09
1.13069e-06
1.06578e-08
-7.33079e-09
1.12757e-06
1.02042e-08
-7.01956e-09
1.1243e-06
9.92006e-09
-6.53639e-09
1.12072e-06
9.73219e-09
-5.96698e-09
1.11672e-06
9.65033e-09
-5.35443e-09
9.7022e-09
-4.67614e-09
1.46193e-06
1.64438e-08
-9.02864e-09
1.46522e-06
1.55624e-08
-8.16453e-09
1.46814e-06
1.46911e-08
-7.34358e-09
1.47085e-06
1.38953e-08
-6.59116e-09
1.47341e-06
1.32258e-08
-5.89626e-09
1.47578e-06
1.277e-08
-5.24132e-09
1.25332e-08
-4.57222e-09
1.69656e-06
1.49587e-08
-9.32606e-09
1.7063e-06
1.42866e-08
-8.45158e-09
1.71513e-06
1.3516e-08
-7.625e-09
1.72322e-06
1.27377e-08
-6.8901e-09
1.73075e-06
1.20214e-08
-6.2452e-09
1.73788e-06
1.14183e-08
-5.66803e-09
1.09566e-08
-5.12611e-09
1.85773e-06
8.83466e-09
-9.20189e-09
1.87217e-06
8.461e-09
-8.6178e-09
1.88567e-06
8.01606e-09
-7.99572e-09
1.89826e-06
7.55137e-09
-7.40131e-09
1.91005e-06
7.10463e-09
-6.86782e-09
1.92118e-06
6.7017e-09
-6.40701e-09
6.36012e-09
-6.01779e-09
1.94051e-06
-1.44183e-12
-8.84072e-09
1.95744e-06
-2.11127e-12
-8.47019e-09
1.97349e-06
-3.12853e-12
-8.03013e-09
1.98861e-06
-4.72562e-12
-7.57307e-09
2.00286e-06
-7.25759e-12
-7.13826e-09
2.01631e-06
-1.12033e-11
-6.75376e-09
-1.70484e-11
-6.44024e-09
1.94051e-06
-8.84072e-09
-8.8347e-09
1.95744e-06
-8.47019e-09
-8.46107e-09
1.97349e-06
-8.03014e-09
-8.01616e-09
1.98861e-06
-7.57309e-09
-7.55151e-09
2.00286e-06
-7.1383e-09
-7.10483e-09
2.01631e-06
-6.75382e-09
-6.70197e-09
-6.36048e-09
1.85772e-06
-1.49697e-08
-9.19402e-09
1.87215e-06
-1.43039e-08
-8.60604e-09
1.88564e-06
-1.35436e-08
-7.97795e-09
1.89822e-06
-1.27824e-08
-7.37365e-09
1.91e-06
-1.20941e-08
-6.82368e-09
-1.15351e-08
-6.33546e-09
1.69652e-06
-1.64561e-08
-9.33282e-09
1.70624e-06
-1.55814e-08
-8.46273e-09
1.71504e-06
-1.47226e-08
-7.64462e-09
1.72308e-06
-1.39478e-08
-6.92386e-09
1.73053e-06
-1.33171e-08
-6.30053e-09
-1.29275e-08
-5.75195e-09
1.46188e-06
-1.1321e-08
-9.05242e-09
1.46514e-06
-1.06726e-08
-8.20439e-09
1.46801e-06
-1.02292e-08
-7.41334e-09
1.47064e-06
-9.96044e-09
-6.70951e-09
1.47305e-06
-9.79974e-09
-6.09129e-09
-9.77053e-09
-5.54231e-09
1.13393e-06
-7.56613e-09
1.13061e-06
-7.38878e-09
1.12743e-06
-7.11535e-09
1.12405e-06
-6.69296e-09
1.12029e-06
-6.22225e-09
-5.77521e-09
1.02286e-06
1.21124e-08
-1.26561e-08
1.01604e-06
1.13419e-08
-1.18543e-08
1.00932e-06
1.06873e-08
-1.09868e-08
1.00274e-06
1.01897e-08
-1.01422e-08
9.96279e-07
9.82046e-09
-9.33053e-09
9.89919e-07
9.55149e-09
-8.54504e-09
9.36232e-09
-7.7486e-09
1.3546e-06
1.68096e-08
-1.38777e-08
1.35458e-06
1.54625e-08
-1.22695e-08
1.35455e-06
1.42323e-08
-1.08595e-08
1.35459e-06
1.3246e-08
-9.68242e-09
1.35474e-06
1.24706e-08
-8.70267e-09
1.35505e-06
1.18613e-08
-7.85953e-09
1.13773e-08
-7.08038e-09
1.60011e-06
1.544e-08
-1.5042e-08
1.60628e-06
1.43359e-08
-1.34978e-08
1.61181e-06
1.32385e-08
-1.21601e-08
1.61694e-06
1.22418e-08
-1.10205e-08
1.62186e-06
1.13718e-08
-1.00625e-08
1.62668e-06
1.06241e-08
-9.25664e-09
9.98148e-09
-8.56524e-09
1.77035e-06
9.19399e-09
-1.54629e-08
1.78184e-06
8.60599e-09
-1.43714e-08
1.7924e-06
7.97786e-09
-1.32942e-08
1.80219e-06
7.37352e-09
-1.23315e-08
1.81139e-06
6.82349e-09
-1.15157e-08
1.82013e-06
6.33519e-09
-1.08564e-08
5.90286e-09
-1.03528e-08
1.85772e-06
6.19159e-13
-1.49697e-08
1.87215e-06
1.37189e-12
-1.43039e-08
1.88564e-06
2.50585e-12
-1.35436e-08
1.89822e-06
3.8605e-12
-1.27824e-08
1.91e-06
5.06979e-12
-1.20941e-08
1.92111e-06
5.49446e-12
-1.1535e-08
5.23668e-12
-1.11401e-08
1.8424e-06
-9.6539e-09
-1.54296e-08
1.85773e-06
-9.20187e-09
-1.49588e-08
1.87217e-06
-8.61779e-09
-1.42867e-08
1.88567e-06
-7.99571e-09
-1.35161e-08
1.89826e-06
-7.40132e-09
-1.27378e-08
1.91005e-06
-6.86785e-09
-1.20216e-08
1.92118e-06
-6.40708e-09
-1.14185e-08
-1.0957e-08
1.75785e-06
-1.63864e-08
-1.63722e-08
1.77035e-06
-1.54628e-08
-1.544e-08
1.78184e-06
-1.43714e-08
-1.4336e-08
1.7924e-06
-1.32942e-08
-1.32385e-08
1.80219e-06
-1.23315e-08
-1.22419e-08
1.81139e-06
-1.15157e-08
-1.13719e-08
-1.08564e-08
-1.06243e-08
1.59299e-06
-1.81154e-08
-1.67051e-08
1.60005e-06
-1.68356e-08
-1.50255e-08
1.60619e-06
-1.55028e-08
-1.34711e-08
1.61167e-06
-1.4298e-08
-1.21172e-08
1.61672e-06
-1.33584e-08
-1.09514e-08
1.62152e-06
-1.26585e-08
-9.95178e-09
-1.21691e-08
-9.07869e-09
1.35439e-06
-1.29845e-08
-1.56793e-08
1.3545e-06
-1.21273e-08
-1.38756e-08
1.35443e-06
-1.13667e-08
-1.22648e-08
1.3543e-06
-1.07302e-08
-1.08506e-08
1.35416e-06
-1.02636e-08
-9.66757e-09
1.35404e-06
-9.95002e-09
-8.67561e-09
-9.77795e-09
-7.80436e-09
1.02979e-06
-1.3372e-08
1.02276e-06
-1.26615e-08
1.01586e-06
-1.18632e-08
1.00902e-06
-1.10013e-08
1.00223e-06
-1.0165e-08
9.95422e-07
-9.36716e-09
-8.60694e-09
7.98813e-07
1.11177e-08
-1.07976e-08
7.8677e-07
1.0132e-08
-9.94338e-09
7.75678e-07
9.33632e-09
-9.23144e-09
7.65411e-07
8.72859e-09
-8.60316e-09
7.55837e-07
8.27465e-09
-8.03112e-09
7.46872e-07
7.92483e-09
-7.50485e-09
7.62807e-09
-7.0148e-09
1.14461e-06
1.53178e-08
-1.21913e-08
1.1392e-06
1.36105e-08
-1.03438e-08
1.13442e-06
1.22382e-08
-8.97378e-09
1.13026e-06
1.11395e-08
-7.93615e-09
1.12671e-06
1.02586e-08
-7.1387e-09
1.12377e-06
9.52859e-09
-6.51782e-09
8.87978e-09
-6.00159e-09
1.41154e-06
1.50255e-08
-1.53421e-08
1.41183e-06
1.34711e-08
-1.36516e-08
1.4121e-06
1.21171e-08
-1.23059e-08
1.41252e-06
1.09514e-08
-1.1251e-08
1.4132e-06
9.95171e-09
-1.04397e-08
1.41422e-06
9.07857e-09
-9.82046e-09
8.28233e-09
-9.34625e-09
1.60005e-06
9.33281e-09
-1.68356e-08
1.60619e-06
8.4627e-09
-1.55028e-08
1.61167e-06
7.64456e-09
-1.4298e-08
1.61672e-06
6.92377e-09
-1.33584e-08
1.62152e-06
6.3004e-09
-1.26585e-08
1.62616e-06
5.75177e-09
-1.21692e-08
5.24941e-09
-1.18799e-08
1.69652e-06
1.06617e-11
-1.64561e-08
1.70624e-06
1.73779e-11
-1.55814e-08
1.71504e-06
2.85231e-11
-1.47226e-08
1.72308e-06
4.61351e-11
-1.39478e-08
1.73053e-06
7.30846e-11
-1.33171e-08
1.73756e-06
1.12151e-10
-1.29275e-08
1.69143e-10
-1.27869e-08
1.68574e-06
-1.01401e-08
-1.71569e-08
1.69656e-06
-9.32602e-09
-1.64438e-08
1.7063e-06
-8.45155e-09
-1.55624e-08
1.71513e-06
-7.62497e-09
-1.46912e-08
1.72322e-06
-6.89007e-09
-1.38954e-08
1.73075e-06
-6.24518e-09
-1.32259e-08
1.73788e-06
-5.66804e-09
-1.27702e-08
-1.25335e-08
1.59302e-06
-1.67155e-08
-1.80991e-08
1.60011e-06
-1.50419e-08
-1.68096e-08
1.60628e-06
-1.34978e-08
-1.54626e-08
1.61181e-06
-1.216e-08
-1.42323e-08
1.61694e-06
-1.10205e-08
-1.32461e-08
1.62186e-06
-1.00624e-08
-1.24707e-08
-9.25659e-09
-1.18615e-08
1.41095e-06
-1.74323e-08
-1.74182e-08
1.41154e-06
-1.53421e-08
-1.53178e-08
1.41183e-06
-1.36516e-08
-1.36105e-08
1.4121e-06
-1.23059e-08
-1.22382e-08
1.41252e-06
-1.1251e-08
-1.11395e-08
1.4132e-06
-1.04397e-08
-1.02586e-08
-9.82036e-09
-9.52865e-09
1.15046e-06
-1.23482e-08
-1.46907e-08
1.14455e-06
-1.11316e-08
-1.21735e-08
1.1391e-06
-1.01546e-08
-1.03131e-08
1.13424e-06
-9.37381e-09
-8.92112e-09
1.12996e-06
-8.79218e-09
-7.84786e-09
1.12622e-06
-8.3845e-09
-6.99506e-09
-8.11173e-09
-6.2903e-09
8.11741e-07
-1.19419e-08
7.98731e-07
-1.07827e-08
7.86631e-07
-9.91831e-09
7.75445e-07
-9.18899e-09
7.6502e-07
-8.53157e-09
7.55184e-07
-7.91582e-09
-7.32205e-09
4.90958e-07
6.83802e-09
-3.89124e-09
4.78751e-07
5.60002e-09
-3.33712e-09
4.67695e-07
4.76046e-09
-2.93611e-09
4.57567e-07
4.14687e-09
-2.62115e-09
4.48235e-07
3.66865e-09
-2.36786e-09
4.39601e-07
3.31172e-09
-2.18229e-09
3.04065e-09
-2.06479e-09
8.54762e-07
1.21735e-08
-6.8494e-09
8.45324e-07
1.03131e-08
-5.61899e-09
8.36982e-07
8.92112e-09
-4.79279e-09
8.29553e-07
7.84785e-09
-4.20814e-09
8.22861e-07
6.99505e-09
-3.77294e-09
8.16824e-07
6.29036e-09
-3.45909e-09
5.64064e-09
-3.23183e-09
1.14455e-06
1.38756e-08
-1.11316e-08
1.1391e-06
1.22648e-08
-1.01546e-08
1.13424e-06
1.08505e-08
-9.37384e-09
1.12996e-06
9.66754e-09
-8.79221e-09
1.12622e-06
8.67558e-09
-8.38454e-09
1.123e-06
7.80436e-09
-8.11179e-09
6.97979e-09
-7.94347e-09
1.3545e-06
9.05239e-09
-1.21273e-08
1.35443e-06
8.20435e-09
-1.13668e-08
1.3543e-06
7.41329e-09
-1.07302e-08
1.35416e-06
6.70946e-09
-1.02636e-08
1.35404e-06
6.09123e-09
-9.95004e-09
1.35391e-06
5.54223e-09
-9.77798e-09
5.04181e-09
-9.76042e-09
1.46188e-06
1.97105e-11
-1.1321e-08
1.46515e-06
3.29746e-11
-1.06726e-08
1.46801e-06
5.61834e-11
-1.02292e-08
1.47064e-06
9.44295e-11
-9.96043e-09
1.47305e-06
1.57361e-10
-9.79974e-09
1.47518e-06
2.53661e-10
-9.77053e-09
4.01094e-10
-9.92385e-09
1.45801e-06
-9.88147e-09
-1.21031e-08
1.46193e-06
-9.02858e-09
-1.13123e-08
1.46522e-06
-8.16448e-09
-1.06578e-08
1.46814e-06
-7.34352e-09
-1.02042e-08
1.47085e-06
-6.5911e-09
-9.92008e-09
1.47341e-06
-5.89619e-09
-9.73223e-09
1.47578e-06
-5.24125e-09
-9.65041e-09
-9.70235e-09
1.35445e-06
-1.56813e-08
-1.29753e-08
1.3546e-06
-1.38776e-08
-1.21124e-08
1.35458e-06
-1.22694e-08
-1.13419e-08
1.35455e-06
-1.08594e-08
-1.06873e-08
1.35459e-06
-9.68235e-09
-1.01897e-08
1.35474e-06
-8.70259e-09
-9.82048e-09
-7.85946e-09
-9.55155e-09
1.1505e-06
-1.47017e-08
-1.23402e-08
1.14461e-06
-1.21912e-08
-1.11177e-08
1.1392e-06
-1.03438e-08
-1.0132e-08
1.13442e-06
-8.97373e-09
-9.33631e-09
1.13026e-06
-7.9361e-09
-8.72859e-09
1.12671e-06
-7.13864e-09
-8.27467e-09
-6.51771e-09
-7.92488e-09
8.65439e-07
-8.71504e-09
-8.70799e-09
8.54762e-07
-6.84937e-09
-6.83801e-09
8.45324e-07
-5.61895e-09
-5.60001e-09
8.36982e-07
-4.79276e-09
-4.76046e-09
8.29553e-07
-4.20811e-09
-4.14688e-09
8.22861e-07
-3.77291e-09
-3.66866e-09
-3.45901e-09
-3.31169e-09
5.04688e-07
-4.70989e-09
4.90933e-07
-3.87683e-09
4.78708e-07
-3.31228e-09
4.6762e-07
-2.8938e-09
4.57432e-07
-2.55199e-09
4.47997e-07
-2.25384e-09
-1.98354e-09
1.86003e-07
3.87682e-09
1.79354e-07
3.31227e-09
1.73524e-07
2.89379e-09
1.68351e-07
2.55199e-09
1.63729e-07
2.25385e-09
1.59563e-07
1.98358e-09
1.70806e-09
4.90933e-07
1.07827e-08
4.78708e-07
9.91828e-09
4.6762e-07
9.18896e-09
4.57432e-07
8.53155e-09
4.47997e-07
7.9158e-09
4.392e-07
7.32203e-09
6.71652e-09
7.98731e-07
1.26615e-08
7.86631e-07
1.18632e-08
7.75445e-07
1.10013e-08
7.6502e-07
1.01649e-08
7.55184e-07
9.36711e-09
7.45787e-07
8.6069e-09
7.85714e-09
1.02276e-06
7.56606e-09
1.01586e-06
7.3887e-09
1.00902e-06
7.11527e-09
1.00223e-06
6.69287e-09
9.95422e-07
6.22216e-09
9.88476e-07
5.77512e-09
5.3808e-09
1.13393e-06
2.30242e-11
1.13061e-06
3.8956e-11
1.12743e-06
6.53608e-11
1.12405e-06
1.0916e-10
1.12029e-06
1.81561e-10
1.116e-06
3.01706e-10
5.05419e-10
1.13774e-06
-7.7738e-09
1.13398e-06
-7.53212e-09
1.13069e-06
-7.33071e-09
1.12757e-06
-7.01947e-09
1.1243e-06
-6.53628e-09
1.12072e-06
-5.96684e-09
1.11672e-06
-5.35426e-09
1.02985e-06
-1.33683e-08
1.02286e-06
-1.26561e-08
1.01604e-06
-1.18542e-08
1.00932e-06
-1.09867e-08
1.00274e-06
-1.01421e-08
9.9628e-07
-9.33041e-09
-8.5449e-09
8.11789e-07
-1.19508e-08
7.98813e-07
-1.07976e-08
7.8677e-07
-9.94334e-09
7.75678e-07
-9.2314e-09
7.65411e-07
-8.60311e-09
7.55837e-07
-8.03106e-09
-7.50479e-09
5.04702e-07
-4.71796e-09
4.90958e-07
-3.89122e-09
4.78751e-07
-3.3371e-09
4.67696e-07
-2.93609e-09
4.57567e-07
-2.62114e-09
4.48235e-07
-2.36784e-09
-2.18226e-09
1.93771e-07
1.86003e-07
1.79354e-07
1.73524e-07
1.68351e-07
1.63729e-07
)
;

boundaryField
{
    inlet
    {
        type            calculated;
        value           nonuniform List<scalar> 0();
    }
    ami1
    {
        type            cyclicAMI;
        value           nonuniform List<scalar> 0();
    }
    walls
    {
        type            calculated;
        value           uniform 0;
    }
    ami2
    {
        type            cyclicAMI;
        value           nonuniform List<scalar> 0();
    }
    outlet
    {
        type            calculated;
        value           nonuniform List<scalar> 0();
    }
    procBoundary3to2
    {
        type            processor;
        value           nonuniform List<scalar> 
110
(
1.5579e-07
4.3161e-07
7.3851e-07
9.83629e-07
1.1122e-06
1.11095e-06
-5.38099e-09
9.88476e-07
7.45787e-07
4.392e-07
1.59563e-07
4.3096e-07
8.11455e-07
1.12144e-06
1.35555e-06
1.47792e-06
1.47696e-06
-5.04207e-09
1.35391e-06
1.123e-06
8.16824e-07
4.39601e-07
7.36703e-07
1.12026e-06
1.4156e-06
1.63152e-06
1.74475e-06
1.74429e-06
-5.24971e-09
1.62616e-06
1.41422e-06
1.12377e-06
7.46872e-07
9.81192e-07
1.35373e-06
1.63072e-06
1.82854e-06
1.9318e-06
1.93171e-06
-5.9032e-09
1.82013e-06
1.62668e-06
1.35505e-06
9.89918e-07
1.11095e-06
1.47696e-06
1.74429e-06
1.93171e-06
2.02911e-06
2.02911e-06
-6.36046e-09
1.92118e-06
1.73788e-06
1.47578e-06
1.11672e-06
1.1122e-06
1.47792e-06
1.74475e-06
1.9318e-06
2.02911e-06
2.02911e-06
-6.44031e-09
1.92111e-06
1.73756e-06
1.47518e-06
1.116e-06
9.83629e-07
1.35555e-06
1.63152e-06
1.82854e-06
1.93171e-06
1.9318e-06
-6.01792e-09
1.82013e-06
1.62616e-06
1.35391e-06
9.88476e-07
7.3851e-07
1.12144e-06
1.4156e-06
1.63072e-06
1.74429e-06
1.74475e-06
-5.12616e-09
1.62668e-06
1.41422e-06
1.123e-06
7.45787e-07
4.3161e-07
8.11454e-07
1.12026e-06
1.35373e-06
1.47696e-06
1.47792e-06
-4.57214e-09
1.35505e-06
1.12377e-06
8.16824e-07
4.392e-07
1.5579e-07
4.3096e-07
7.36703e-07
9.81192e-07
1.11095e-06
1.1122e-06
-4.67595e-09
9.89919e-07
7.46872e-07
4.39601e-07
1.59563e-07
)
;
    }
    procBoundary3to4
    {
        type            processor;
        value           nonuniform List<scalar> 
109
(
-1.93771e-07
-5.04702e-07
-8.11789e-07
-1.02985e-06
-1.13774e-06
-1.13771e-06
-1.02979e-06
-8.11741e-07
-5.04688e-07
-1.93771e-07
-5.04688e-07
-8.65439e-07
-1.1505e-06
-1.35445e-06
-1.45801e-06
-1.45798e-06
-1.35439e-06
-1.15046e-06
-8.65439e-07
-5.04702e-07
-8.11741e-07
-1.15046e-06
-1.41095e-06
-1.59302e-06
-1.68574e-06
-1.68571e-06
-1.59299e-06
-1.41095e-06
-1.1505e-06
-8.11789e-07
-1.02979e-06
-1.35439e-06
-1.59299e-06
-1.75785e-06
-1.8424e-06
-1.84239e-06
-1.75785e-06
-1.59302e-06
-1.35445e-06
-1.02985e-06
-1.13771e-06
-1.45798e-06
-1.68571e-06
-1.84239e-06
-1.92284e-06
-1.92284e-06
-1.8424e-06
-1.68574e-06
-1.45801e-06
-1.13774e-06
-1.13774e-06
-1.45801e-06
-1.68574e-06
-1.8424e-06
-1.92284e-06
-1.92284e-06
9.07088e-09
-1.84239e-06
9.64875e-09
-1.68571e-06
1.01442e-08
-1.45798e-06
9.89588e-09
-1.13771e-06
7.79379e-09
-1.02985e-06
-1.35445e-06
-1.59302e-06
-1.75785e-06
-1.84239e-06
-2.49568e-13
-1.82639e-06
-1.74439e-06
-1.5847e-06
-1.35374e-06
-1.03719e-06
-8.11789e-07
-1.1505e-06
-1.41095e-06
-1.59299e-06
-1.68571e-06
-6.71761e-12
-1.67386e-06
-1.58472e-06
-1.40952e-06
-1.15653e-06
-8.25519e-07
-5.04702e-07
-8.65439e-07
-1.15046e-06
-1.35439e-06
-1.45798e-06
-1.20542e-11
-1.45317e-06
-1.35377e-06
-1.15655e-06
-8.77409e-07
-5.20635e-07
-1.93771e-07
-5.04688e-07
-8.11741e-07
-1.02979e-06
-1.13771e-06
-1.35437e-11
-1.14206e-06
-1.03723e-06
-8.25547e-07
-5.20643e-07
-2.03199e-07
)
;
    }
}


// ************************************************************************* //
