/*--------------------------------*- C++ -*----------------------------------*\
| =========                 |                                                 |
| \\      /  F ield         | OpenFOAM: The Open Source CFD Toolbox           |
|  \\    /   O peration     | Version:  2212                                  |
|   \\  /    A nd           | Website:  www.openfoam.com                      |
|    \\/     M anipulation  |                                                 |
\*---------------------------------------------------------------------------*/
FoamFile
{
    version     2.0;
    format      ascii;
    arch        "LSB;label=32;scalar=64";
    class       volScalarField;
    location    "1.05";
    object      epsilon;
}
// * * * * * * * * * * * * * * * * * * * * * * * * * * * * * * * * * * * * * //

dimensions      [0 2 -3 0 0 0 0];

internalField   nonuniform List<scalar> 
690
(
0.127201
0.123781
0.120592
0.117605
0.114843
0.112294
0.109969
0.107798
0.105786
0.103997
0.102402
0.0496663
0.0480817
0.0465583
0.0451431
0.0438685
0.0427028
0.0416508
0.0406901
0.0397963
0.0390218
0.0383348
0.0352134
0.0339857
0.0327099
0.0315792
0.0305832
0.0296841
0.0288819
0.028151
0.0274215
0.026757
0.0261859
0.0291718
0.0278974
0.0267661
0.0257417
0.0248111
0.0239715
0.0232442
0.0224852
0.0218097
0.021217
0.0206721
0.0264863
0.025228
0.0240947
0.0230715
0.0221454
0.0213161
0.0205625
0.0198798
0.0192674
0.0187175
0.0182181
0.0471077
0.0453264
0.0437506
0.0422826
0.0409535
0.0397333
0.0386334
0.0376234
0.0367108
0.0359233
0.0352112
0.0216368
0.0205787
0.019718
0.0188581
0.0181316
0.0174427
0.0168634
0.0163045
0.0157692
0.0153535
0.0148839
0.0159642
0.0148114
0.0142282
0.0133562
0.0128878
0.0122111
0.011818
0.0113128
0.0108983
0.0105904
0.0101569
0.0140745
0.0131993
0.0124258
0.0117408
0.0111328
0.0106045
0.0100621
0.00970699
0.00916514
0.00889916
0.00848516
0.0134151
0.012529
0.0117411
0.0110392
0.0104133
0.00985448
0.00935411
0.00890816
0.00851006
0.00816012
0.00785319
0.0322839
0.0309292
0.0297578
0.0285554
0.0275194
0.0265974
0.0257745
0.0250209
0.0243277
0.0237085
0.02313
0.015155
0.0141788
0.0135486
0.0126278
0.012152
0.0114294
0.0110171
0.010597
0.0100738
0.00981511
0.00937399
0.0124988
0.0116113
0.0108435
0.0101353
0.0094466
0.00888684
0.00849678
0.00807733
0.00769689
0.00733905
0.00697394
0.012432
0.0114696
0.0106182
0.00986625
0.00918655
0.00858623
0.00805733
0.00759085
0.00716927
0.00671478
0.006423
0.0126605
0.0116434
0.010746
0.00995186
0.00924626
0.0086178
0.0080569
0.00755756
0.00711062
0.00671235
0.00631177
0.0272525
0.0259476
0.0247841
0.0237382
0.0228021
0.0219725
0.0212274
0.0205563
0.0199497
0.0194112
0.0188894
0.0134938
0.0126332
0.0118692
0.011179
0.0105686
0.0100194
0.00953536
0.00911805
0.00868932
0.00837876
0.00800021
0.0122781
0.0113284
0.0104881
0.00974405
0.00907005
0.00847432
0.00795448
0.00749185
0.00707573
0.00670253
0.0063039
0.0128798
0.0118052
0.0108584
0.0100222
0.00927862
0.00861891
0.0080322
0.0075089
0.00703976
0.00661844
0.0062048
0.0135376
0.0123752
0.0113525
0.0104498
0.00965025
0.00894031
0.0083086
0.00774569
0.00724266
0.00679666
0.00636446
0.0255339
0.0242475
0.0230984
0.0220693
0.0211463
0.0203185
0.0195758
0.0189105
0.0183207
0.0177947
0.0173195
0.0130876
0.0122018
0.0114155
0.0107157
0.0100925
0.00953708
0.00904244
0.0086018
0.00820789
0.00786038
0.00756907
0.0125379
0.011527
0.0106356
0.00984692
0.00914529
0.00852207
0.00796776
0.00747286
0.00702988
0.0066384
0.0062438
0.0135215
0.0123574
0.0113328
0.0104274
0.00962423
0.00891024
0.00827492
0.00770918
0.0072038
0.0067551
0.00632217
0.0144083
0.0131397
0.0120236
0.0110385
0.0101661
0.00939168
0.00870256
0.00808832
0.00753967
0.00705111
0.00659056
0.0147422
0.0134395
0.0122935
0.0112824
0.0103875
0.00959352
0.00888748
0.00825857
0.0076974
0.00719803
0.00672983
0.0254066
0.0241266
0.0229781
0.0219472
0.0210232
0.0201933
0.019447
0.018777
0.0181848
0.0176572
0.0171806
0.0131499
0.0122488
0.0114466
0.0107335
0.0100986
0.00953268
0.00902794
0.00857797
0.00817716
0.00782365
0.00752901
0.0127299
0.0116903
0.0107731
0.00996135
0.00924068
0.00859838
0.00802639
0.00751597
0.00705991
0.00665944
0.00625974
0.0137887
0.0125912
0.0115373
0.0106066
0.00978194
0.00904923
0.00839679
0.00781494
0.00729502
0.00683351
0.00639193
0.0147426
0.0134361
0.0122862
0.0112711
0.0103721
0.00957388
0.0088635
0.00823009
0.00766428
0.00715999
0.00668885
0.0151068
0.0137628
0.0125803
0.0115365
0.0106125
0.00979232
0.00906274
0.0084125
0.00783201
0.00731453
0.00683385
0.0264838
0.0252246
0.0240909
0.0230677
0.0221418
0.0213129
0.0205601
0.0198785
0.019267
0.0187165
0.0182271
0.0134115
0.0125219
0.0117308
0.0110254
0.0103967
0.00983487
0.00933208
0.00888508
0.00848239
0.00813513
0.00782451
0.0126618
0.0116414
0.01074
0.00994171
0.00923167
0.00859917
0.00803457
0.00753162
0.0070816
0.00667825
0.00627786
0.0135424
0.0123764
0.0113499
0.010443
0.00963906
0.0089246
0.00828841
0.00772097
0.00721357
0.00676278
0.00632841
0.0144127
0.0131426
0.012025
0.0110381
0.0101639
0.00938755
0.00869646
0.0080802
0.00752935
0.00703847
0.0065766
0.0147445
0.0134393
0.0122909
0.0112773
0.0103799
0.00958319
0.00887435
0.0082425
0.00767826
0.00717562
0.00670538
0.0291698
0.0278945
0.0267623
0.0257374
0.0248068
0.0239675
0.0232405
0.0224845
0.0218125
0.0212175
0.0206927
0.0202109
0.0140747
0.0131942
0.0124236
0.0117328
0.0111314
0.0105899
0.0100594
0.00969833
0.00915818
0.00889313
0.00847197
0.00825891
0.0124321
0.0114688
0.0106163
0.0098625
0.00918148
0.00857663
0.00804753
0.00757936
0.00715719
0.00670326
0.0064055
0.0128813
0.0118063
0.0108585
0.0100212
0.00927587
0.00861447
0.00802627
0.00750125
0.00703119
0.00660851
0.00619304
0.0135208
0.0123572
0.0113331
0.0104281
0.00962514
0.00891119
0.00827566
0.0077097
0.00720411
0.00675482
0.0063216
0.0137834
0.0125893
0.0115389
0.0106114
0.00978977
0.00905983
0.00841006
0.00783078
0.00731328
0.00685425
0.00641383
0.0352138
0.0339833
0.0327062
0.0315748
0.0305788
0.0296796
0.0288787
0.02815
0.027423
0.0267613
0.0261943
0.0257257
0.015966
0.0148115
0.0142287
0.0133544
0.0128879
0.0122073
0.0118208
0.0112897
0.0109386
0.0105719
0.0101716
0.00990114
0.0124993
0.0116101
0.0108462
0.0101331
0.00945154
0.008881
0.00849028
0.0080837
0.00768019
0.00735826
0.00695983
0.012277
0.011328
0.0104871
0.00974347
0.00906911
0.00847254
0.00795191
0.00748938
0.00707255
0.00670124
0.00629866
0.0125334
0.0115237
0.0106332
0.00984541
0.00914458
0.00852178
0.00796772
0.00747289
0.0070303
0.00663867
0.00624518
0.012722
0.0116861
0.0107723
0.00996381
0.009245
0.00860435
0.00803384
0.0075252
0.00707104
0.00667265
0.00627607
0.0496691
0.0480824
0.0465575
0.0451425
0.0438675
0.042702
0.0416513
0.0406918
0.0398016
0.0390281
0.038355
0.0377516
0.0216345
0.020601
0.0197029
0.0188597
0.018125
0.0174441
0.016859
0.0163023
0.0157763
0.0153368
0.0149595
0.0145711
0.0151509
0.0141819
0.0135448
0.0126309
0.0121521
0.0114291
0.0110123
0.0105977
0.010067
0.00981111
0.00936492
0.0134931
0.012632
0.0118675
0.0111769
0.010566
0.0100156
0.00953114
0.00911235
0.00868432
0.00837161
0.00799787
0.0130828
0.0121976
0.0114117
0.0107124
0.0100897
0.00953439
0.00903919
0.00859798
0.00820356
0.00785563
0.00756432
0.0131436
0.0122452
0.0114453
0.0107342
0.010101
0.00953638
0.00903263
0.00858339
0.00818316
0.00782995
0.0075348
0.127212
0.123789
0.120601
0.117615
0.114854
0.112306
0.109983
0.107816
0.105807
0.104031
0.102425
0.100993
0.0471144
0.0453324
0.0437559
0.0422886
0.0409593
0.0397396
0.0386408
0.0376325
0.0367217
0.0359324
0.0352339
0.0345905
0.0322895
0.0309346
0.0297626
0.0285608
0.0275249
0.0266036
0.0257823
0.0250308
0.0243383
0.0237226
0.023144
0.0272552
0.0259505
0.0247877
0.0237428
0.0228076
0.0219786
0.0212347
0.020565
0.0199597
0.0194216
0.0189057
0.0255351
0.0242496
0.0231018
0.0220738
0.0211519
0.0203251
0.0195833
0.0189188
0.0183294
0.0178037
0.0173287
0.0254083
0.0241289
0.0229815
0.0219518
0.0210287
0.0201995
0.0194538
0.018784
0.0181911
0.0176633
0.0171856
)
;

boundaryField
{
    inlet
    {
        type            fixedValue;
        value           nonuniform List<scalar> 0();
    }
    ami1
    {
        type            cyclicAMI;
        value           nonuniform List<scalar> 0();
    }
    walls
    {
        type            epsilonWallFunction;
        blending        stepwise;
        value           nonuniform List<scalar> 
248
(
0.127201
0.0496663
0.0352134
0.0291718
0.0264863
0.123781
0.0480817
0.0339857
0.0278974
0.025228
0.120592
0.0465583
0.0327099
0.0267661
0.0240947
0.117605
0.0451431
0.0315792
0.0257417
0.0230715
0.114843
0.0438685
0.0305832
0.0248111
0.0221454
0.112294
0.0427028
0.0296841
0.0239715
0.0213161
0.109969
0.0416508
0.0288819
0.0232442
0.0205625
0.107798
0.0406901
0.028151
0.0224852
0.0198798
0.105786
0.0397963
0.0274215
0.0218097
0.0192674
0.103997
0.0390218
0.026757
0.021217
0.0187175
0.102402
0.0383348
0.0261859
0.0206721
0.0182181
0.127212
0.0471144
0.0322895
0.0272552
0.0255351
0.0254083
0.123789
0.0453324
0.0309346
0.0259505
0.0242496
0.0241289
0.120601
0.0437559
0.0297626
0.0247877
0.0231018
0.0229815
0.117615
0.0422886
0.0285608
0.0237428
0.0220738
0.0219518
0.114854
0.0409593
0.0275249
0.0228076
0.0211519
0.0210287
0.112306
0.0397396
0.0266036
0.0219786
0.0203251
0.0201995
0.109983
0.0386408
0.0257823
0.0212347
0.0195833
0.0194538
0.107816
0.0376325
0.0250308
0.020565
0.0189188
0.018784
0.105807
0.0367217
0.0243383
0.0199597
0.0183294
0.0181911
0.104031
0.0359324
0.0237226
0.0194216
0.0178037
0.0176633
0.102425
0.0352339
0.023144
0.0189057
0.0173287
0.0171856
0.100993
0.0345905
0.127201
0.0471077
0.0322839
0.0272525
0.0255339
0.0254066
0.0264838
0.0291698
0.0352138
0.0496691
0.127212
0.123781
0.0453264
0.0309292
0.0259476
0.0242475
0.0241266
0.0252246
0.0278945
0.0339833
0.0480824
0.123789
0.120592
0.0437506
0.0297578
0.0247841
0.0230984
0.0229781
0.0240909
0.0267623
0.0327062
0.0465575
0.120601
0.117605
0.0422826
0.0285554
0.0237382
0.0220693
0.0219472
0.0230677
0.0257374
0.0315748
0.0451425
0.117615
0.114843
0.0409535
0.0275194
0.0228021
0.0211463
0.0210232
0.0221418
0.0248068
0.0305788
0.0438675
0.114854
0.112294
0.0397333
0.0265974
0.0219725
0.0203185
0.0201933
0.0213129
0.0239675
0.0296796
0.042702
0.112306
0.109969
0.0386334
0.0257745
0.0212274
0.0195758
0.019447
0.0205601
0.0232405
0.0288787
0.0416513
0.109983
0.107798
0.0376234
0.0250209
0.0205563
0.0189105
0.018777
0.0198785
0.0224845
0.02815
0.0406918
0.107816
0.105786
0.0367108
0.0243277
0.0199497
0.0183207
0.0181848
0.019267
0.0218125
0.027423
0.0398016
0.105807
0.103997
0.0359233
0.0237085
0.0194112
0.0177947
0.0176572
0.0187165
0.0212175
0.0267613
0.0390281
0.104031
0.102402
0.0352112
0.02313
0.0188894
0.0173195
0.0171806
0.0182271
0.0206927
0.0261943
0.038355
0.102425
0.0202109
0.0257257
0.0377516
0.100993
)
;
    }
    ami2
    {
        type            cyclicAMI;
        value           nonuniform List<scalar> 0();
    }
    outlet
    {
        type            zeroGradient;
    }
    procBoundary8to0
    {
        type            processor;
        value           nonuniform List<scalar> 
29
(
0.130847
0.051392
0.0366208
0.0305873
0.0278861
0.0490336
0.022666
0.0166695
0.015026
0.01439
0.0337719
0.0160183
0.0134555
0.0135103
0.0138034
0.0287193
0.0144296
0.0133364
0.0140937
0.0148536
0.0269783
0.0140605
0.013672
0.0148381
0.0158467
0.0162193
0.0151423
0.0162229
0.0166298
)
;
    }
    procBoundary8to1
    {
        type            processor;
        value           nonuniform List<scalar> 
33
(
0.0268349
0.0141419
0.0138968
0.027884
0.0143912
0.0138074
0.0148603
0.0158509
0.0162229
0.0305859
0.015026
0.0135113
0.0140951
0.0148374
0.0151349
0.0366224
0.0166711
0.0134562
0.013336
0.0136678
0.0138869
0.0513982
0.0226688
0.0160202
0.0144284
0.0140551
0.0141327
0.130863
0.0490425
0.0337775
0.0287222
0.0269797
0.0268364
)
;
    }
    procBoundary8to7
    {
        type            processor;
        value           nonuniform List<scalar> 
68
(
0.100929
0.0377361
0.0257029
0.0201792
0.0177371
0.0345681
0.0146813
0.00997597
0.00836251
0.00758017
0.0226068
0.00921083
0.00674837
0.00623948
0.00602367
0.0184115
0.00782288
0.00612231
0.00595946
0.00608051
0.0168915
0.00732515
0.00595818
0.00603363
0.00626922
0.0063958
0.016765
0.00728753
0.00597181
0.00608969
0.00635271
0.00648716
0.0177441
0.0177441
0.00754342
0.00754342
0.00597637
0.00603695
0.00625072
0.00637001
0.0197729
0.00799934
0.00622578
0.00622578
0.00594163
0.00602987
0.00611309
0.0252766
0.00969019
0.00675368
0.00675368
0.00611615
0.00595799
0.00598976
0.0372053
0.0143837
0.00919134
0.00919134
0.00780724
0.00732299
0.00729487
0.0996439
0.033999
0.0226106
0.0226106
0.0184162
0.0168983
0.0167678
)
;
    }
    procBoundary8to9
    {
        type            processor;
        value           nonuniform List<scalar> 
132
(
0.0254074
0.0241281
0.0229798
0.0219487
0.0210242
0.0201932
0.0194455
0.0187743
0.0181809
0.0176509
0.017171
0.0131464
0.0122504
0.0114525
0.0107433
0.0101119
0.00954888
0.00904623
0.00859818
0.00819943
0.00784736
0.00755391
0.0127234
0.011689
0.0107769
0.00997021
0.00925446
0.00861621
0.00804809
0.00754223
0.00708987
0.00669262
0.00629692
0.0137836
0.0125914
0.011543
0.0106178
0.00979884
0.00907185
0.00842523
0.00784929
0.00733521
0.00687981
0.00644128
0.0137836
0.0125914
0.011543
0.0106178
0.00979884
0.00907185
0.00842523
0.00784929
0.00733521
0.00687981
0.00644128
0.0144116
0.0131447
0.0120301
0.0110463
0.0101753
0.0094022
0.00871451
0.00810183
0.0075547
0.0070679
0.00660844
0.0147453
0.0134411
0.0122936
0.0112807
0.0103841
0.00958827
0.00888041
0.00824968
0.00768671
0.00718555
0.00671627
0.0144156
0.0131482
0.0120332
0.011049
0.0101776
0.00940411
0.00871605
0.00810301
0.00755568
0.00706862
0.00660853
0.0135403
0.0123786
0.0113563
0.0104537
0.00965379
0.00894334
0.00831125
0.0077479
0.00724453
0.00679802
0.00636498
0.0126603
0.0116437
0.0107462
0.00995179
0.00924428
0.00861507
0.00805433
0.00755389
0.00710668
0.0067072
0.00630847
0.0134127
0.0125265
0.0117378
0.0110352
0.0104082
0.00984842
0.0093488
0.00890045
0.00850696
0.00814804
0.0078511
0.0264866
0.0252282
0.0240951
0.0230722
0.0221465
0.0213179
0.020565
0.0198834
0.0192709
0.0187221
0.0182235
)
;
    }
}


// ************************************************************************* //
