/*--------------------------------*- C++ -*----------------------------------*\
| =========                 |                                                 |
| \\      /  F ield         | OpenFOAM: The Open Source CFD Toolbox           |
|  \\    /   O peration     | Version:  2212                                  |
|   \\  /    A nd           | Website:  www.openfoam.com                      |
|    \\/     M anipulation  |                                                 |
\*---------------------------------------------------------------------------*/
FoamFile
{
    version     2.0;
    format      ascii;
    arch        "LSB;label=32;scalar=64";
    class       volScalarField;
    location    "1.05";
    object      k;
}
// * * * * * * * * * * * * * * * * * * * * * * * * * * * * * * * * * * * * * //

dimensions      [0 2 -2 0 0 0 0];

internalField   nonuniform List<scalar> 
690
(
0.00236522
0.00232228
0.00228185
0.00224345
0.00220756
0.00217399
0.00214302
0.00211387
0.00208635
0.00206166
0.00203941
0.00210164
0.00205671
0.00201256
0.00197128
0.00193335
0.00189842
0.0018663
0.00183684
0.00180885
0.0017841
0.00176207
0.00214768
0.00209759
0.00204428
0.00199673
0.00195381
0.0019148
0.00187954
0.00184669
0.00181402
0.00178298
0.0017564
0.00218748
0.00212301
0.00206486
0.0020114
0.00196215
0.00191683
0.00187722
0.00183517
0.00179713
0.00176336
0.00173193
0.00221481
0.00214365
0.00207847
0.00201867
0.00196373
0.00191384
0.00186769
0.00182524
0.00178656
0.00175206
0.00171807
0.00202979
0.00197795
0.00193133
0.00188738
0.00184682
0.00180933
0.00177487
0.00174295
0.00171361
0.00168779
0.00166447
0.00190055
0.00180025
0.00170822
0.00162668
0.00155253
0.00148589
0.00142483
0.00136755
0.00130745
0.00126158
0.00122742
0.0024149
0.00229335
0.00217714
0.00207485
0.00197813
0.00189282
0.00181156
0.00173775
0.00166754
0.00160176
0.00154442
0.00274618
0.00259688
0.00246127
0.00233777
0.00222503
0.00212167
0.0020285
0.00194083
0.00186328
0.00179025
0.00172258
0.00293662
0.00277298
0.00262453
0.00248956
0.00236654
0.00225421
0.00215156
0.00205727
0.00197184
0.00188815
0.00180939
0.0020279
0.00197061
0.00191984
0.00186764
0.00182108
0.00177979
0.00174204
0.00170695
0.00167454
0.00164479
0.00161685
0.00236408
0.00223718
0.00211655
0.0020102
0.00190906
0.00182
0.00173439
0.0016552
0.00158299
0.00151383
0.00145558
0.00303336
0.00286164
0.002704
0.00255909
0.00242725
0.0023063
0.0021931
0.00208892
0.00199249
0.00190471
0.00182424
0.00352501
0.00332077
0.00313426
0.00296349
0.00280699
0.00266347
0.00253163
0.00241013
0.00229784
0.00219591
0.00210043
0.00381881
0.00359504
0.00339102
0.00320461
0.00303397
0.00287752
0.00273391
0.00260186
0.00248045
0.00236795
0.00226382
0.00209113
0.00202343
0.00196198
0.00190586
0.00185487
0.00180899
0.0017671
0.00172874
0.0016937
0.00166247
0.00162998
0.00273831
0.00259247
0.00245854
0.00233566
0.00222261
0.00211888
0.00202306
0.00193427
0.00185258
0.00177669
0.00170748
0.00351831
0.00331813
0.00313504
0.00296711
0.00281304
0.00267165
0.00254146
0.00242134
0.00231031
0.0022078
0.00211385
0.00411845
0.00387742
0.00365749
0.00345632
0.00327194
0.00310269
0.00294711
0.00280387
0.00267181
0.00254988
0.00243779
0.00449038
0.00422429
0.00398174
0.00376012
0.00355718
0.00337101
0.00319995
0.00304256
0.00289761
0.0027638
0.00264054
0.00216178
0.00208801
0.00202095
0.00195985
0.00190416
0.00185342
0.00180722
0.00176519
0.00172742
0.00169335
0.00166197
0.00294563
0.00278557
0.00263972
0.00250651
0.00238459
0.00227286
0.00217024
0.00207589
0.00198891
0.00190926
0.00183466
0.00381959
0.00359914
0.00339806
0.00321419
0.00304574
0.00289118
0.00274914
0.00261843
0.00249802
0.00238692
0.00228447
0.00449147
0.00422622
0.00398443
0.0037635
0.00356117
0.00337556
0.00320501
0.00304805
0.00290346
0.00276998
0.0026471
0.00491421
0.00462109
0.00435395
0.00410989
0.00388646
0.0036815
0.00349317
0.00331988
0.00316025
0.00301295
0.00287745
0.00505908
0.00475665
0.00448102
0.00422922
0.00399872
0.00378729
0.00359302
0.00341428
0.00324962
0.0030977
0.00295795
0.00220759
0.00213228
0.00206349
0.00200065
0.00194337
0.0018911
0.00184338
0.00180003
0.00176088
0.00172559
0.00169359
0.00300676
0.00283953
0.0026877
0.00254957
0.00242358
0.00230844
0.00220307
0.00210653
0.00201794
0.00193682
0.00186154
0.00391915
0.00368992
0.00348105
0.0032903
0.00311575
0.00295577
0.00280893
0.00267398
0.00254988
0.00243545
0.00232998
0.00461715
0.00434289
0.00409298
0.00386471
0.00365574
0.00346408
0.00328802
0.00312606
0.00297694
0.00283935
0.00271272
0.00505907
0.00475653
0.0044808
0.00422893
0.00399835
0.00378684
0.00359252
0.00341371
0.003249
0.00309703
0.00295728
0.00521158
0.00489938
0.00461484
0.0043549
0.00411693
0.00389865
0.00369808
0.00351353
0.00334351
0.00318665
0.00304243
0.00221474
0.00214354
0.00207833
0.00201853
0.0019636
0.00191373
0.00186763
0.00182524
0.00178665
0.0017519
0.00171888
0.00293619
0.00277256
0.00262419
0.00248935
0.00236651
0.00225441
0.00215205
0.00205813
0.00197299
0.00189047
0.00181204
0.00381851
0.00359466
0.0033906
0.00320419
0.00303358
0.0028772
0.00273371
0.00260184
0.00248063
0.00236849
0.00226475
0.00449032
0.0042241
0.00398144
0.00375972
0.00355671
0.00337048
0.00319938
0.00304198
0.00289703
0.00276327
0.00264009
0.00491427
0.00462108
0.00435387
0.00410975
0.00388626
0.00368125
0.00349288
0.00331954
0.00315988
0.00301255
0.00287701
0.0050591
0.00475659
0.00448089
0.00422904
0.00399848
0.00378699
0.00359267
0.00341387
0.00324916
0.00309718
0.00295739
0.00218743
0.00212293
0.00206473
0.00201125
0.00196198
0.00191668
0.00187713
0.00183513
0.00179729
0.0017634
0.00173295
0.00170465
0.00274593
0.00259658
0.0024609
0.00233748
0.0022247
0.00212161
0.0020285
0.00194107
0.00186378
0.00179093
0.00172434
0.00166204
0.00352487
0.00332055
0.00313398
0.00296317
0.00280665
0.00266317
0.00253139
0.00241001
0.00229786
0.00219604
0.00210083
0.00411843
0.00387735
0.00365737
0.00345614
0.0032717
0.0031024
0.00294679
0.00280353
0.00267148
0.00254955
0.00243747
0.00449143
0.00422621
0.00398442
0.00376347
0.00356113
0.00337548
0.00320489
0.00304789
0.00290325
0.00276974
0.00264679
0.004617
0.00434288
0.00409306
0.00386485
0.00365592
0.00346428
0.00328822
0.00312623
0.00297706
0.00283941
0.00271266
0.00214772
0.00209754
0.00204416
0.00199659
0.00195366
0.00191465
0.00187942
0.00184669
0.00181405
0.00178318
0.00175676
0.00173448
0.00241495
0.00229327
0.00217695
0.00207463
0.00197781
0.00189257
0.00181126
0.00173801
0.00166706
0.00160212
0.0015445
0.00149086
0.00303358
0.00286179
0.00270402
0.00255907
0.00242704
0.00230615
0.00219302
0.00208876
0.00199266
0.00190451
0.00182436
0.00351848
0.00331828
0.00313516
0.0029672
0.00281307
0.00267163
0.00254141
0.00242128
0.00231026
0.00220772
0.00211379
0.00381954
0.00359919
0.00339815
0.00321431
0.00304585
0.00289128
0.00274921
0.00261847
0.00249802
0.00238686
0.00228432
0.00391899
0.00368994
0.00348118
0.00329049
0.00311597
0.00295599
0.00280912
0.00267412
0.00254992
0.00243536
0.00232962
0.00210174
0.00205672
0.00201256
0.00197128
0.00193334
0.0018984
0.00186631
0.0018369
0.00180897
0.00178427
0.0017626
0.00174305
0.00190094
0.00180009
0.0017086
0.0016269
0.00155277
0.001486
0.00142507
0.0013679
0.00130779
0.00126226
0.00122629
0.00119345
0.00236465
0.00223758
0.00211701
0.0020105
0.0019093
0.00182025
0.00173479
0.0016557
0.0015837
0.00151496
0.00145632
0.00273852
0.00259271
0.00245884
0.00233601
0.00222299
0.00211933
0.00202359
0.00193495
0.00185339
0.0017777
0.00170863
0.00294557
0.00278564
0.00263992
0.00250682
0.00238499
0.00227334
0.0021708
0.00207654
0.00198966
0.0019101
0.00183561
0.00300666
0.00283959
0.00268789
0.00254985
0.0024239
0.00230878
0.0022034
0.00210683
0.00201819
0.00193693
0.0018616
0.00236536
0.00232237
0.00228196
0.00224358
0.00220769
0.00217413
0.00214317
0.00211407
0.00208658
0.00206206
0.00203962
0.00201936
0.00203004
0.0019781
0.0019315
0.00188755
0.00184699
0.0018095
0.00177506
0.0017432
0.00171388
0.00168802
0.00166506
0.00164367
0.00202814
0.00197082
0.00192007
0.00186785
0.00182129
0.00178002
0.00174233
0.00170732
0.00167496
0.00164535
0.00161742
0.00209125
0.00202356
0.00196215
0.00190607
0.00185512
0.00180928
0.00176745
0.00172916
0.00169419
0.00166306
0.00163078
0.00216182
0.00208809
0.0020211
0.00196007
0.00190445
0.00185377
0.00180761
0.00176564
0.0017279
0.00169386
0.00166248
0.00220765
0.00213238
0.00206364
0.00200086
0.00194364
0.00189142
0.00184373
0.00180041
0.00176125
0.00172593
0.00169388
)
;

boundaryField
{
    inlet
    {
        type            fixedValue;
        value           nonuniform List<scalar> 0();
    }
    ami1
    {
        type            cyclicAMI;
        value           nonuniform List<scalar> 0();
    }
    walls
    {
        type            kqRWallFunction;
        value           nonuniform List<scalar> 
248
(
0.00236522
0.00210164
0.00214768
0.00218748
0.00221481
0.00232228
0.00205671
0.00209759
0.00212301
0.00214365
0.00228185
0.00201256
0.00204428
0.00206486
0.00207847
0.00224345
0.00197128
0.00199673
0.0020114
0.00201867
0.00220756
0.00193335
0.00195381
0.00196215
0.00196373
0.00217399
0.00189842
0.0019148
0.00191683
0.00191384
0.00214302
0.0018663
0.00187954
0.00187722
0.00186769
0.00211387
0.00183684
0.00184669
0.00183517
0.00182524
0.00208635
0.00180885
0.00181402
0.00179713
0.00178656
0.00206166
0.0017841
0.00178298
0.00176336
0.00175206
0.00203941
0.00176207
0.0017564
0.00173193
0.00171807
0.00236536
0.00203004
0.00202814
0.00209125
0.00216182
0.00220765
0.00232237
0.0019781
0.00197082
0.00202356
0.00208809
0.00213238
0.00228196
0.0019315
0.00192007
0.00196215
0.0020211
0.00206364
0.00224358
0.00188755
0.00186785
0.00190607
0.00196007
0.00200086
0.00220769
0.00184699
0.00182129
0.00185512
0.00190445
0.00194364
0.00217413
0.0018095
0.00178002
0.00180928
0.00185377
0.00189142
0.00214317
0.00177506
0.00174233
0.00176745
0.00180761
0.00184373
0.00211407
0.0017432
0.00170732
0.00172916
0.00176564
0.00180041
0.00208658
0.00171388
0.00167496
0.00169419
0.0017279
0.00176125
0.00206206
0.00168802
0.00164535
0.00166306
0.00169386
0.00172593
0.00203962
0.00166506
0.00161742
0.00163078
0.00166248
0.00169388
0.00201936
0.00164367
0.00236522
0.00202979
0.0020279
0.00209113
0.00216178
0.00220759
0.00221474
0.00218743
0.00214772
0.00210174
0.00236536
0.00232228
0.00197795
0.00197061
0.00202343
0.00208801
0.00213228
0.00214354
0.00212293
0.00209754
0.00205672
0.00232237
0.00228185
0.00193133
0.00191984
0.00196198
0.00202095
0.00206349
0.00207833
0.00206473
0.00204416
0.00201256
0.00228196
0.00224345
0.00188738
0.00186764
0.00190586
0.00195985
0.00200065
0.00201853
0.00201125
0.00199659
0.00197128
0.00224358
0.00220756
0.00184682
0.00182108
0.00185487
0.00190416
0.00194337
0.0019636
0.00196198
0.00195366
0.00193334
0.00220769
0.00217399
0.00180933
0.00177979
0.00180899
0.00185342
0.0018911
0.00191373
0.00191668
0.00191465
0.0018984
0.00217413
0.00214302
0.00177487
0.00174204
0.0017671
0.00180722
0.00184338
0.00186763
0.00187713
0.00187942
0.00186631
0.00214317
0.00211387
0.00174295
0.00170695
0.00172874
0.00176519
0.00180003
0.00182524
0.00183513
0.00184669
0.0018369
0.00211407
0.00208635
0.00171361
0.00167454
0.0016937
0.00172742
0.00176088
0.00178665
0.00179729
0.00181405
0.00180897
0.00208658
0.00206166
0.00168779
0.00164479
0.00166247
0.00169335
0.00172559
0.0017519
0.0017634
0.00178318
0.00178427
0.00206206
0.00203941
0.00166447
0.00161685
0.00162998
0.00166197
0.00169359
0.00171888
0.00173295
0.00175676
0.0017626
0.00203962
0.00170465
0.00173448
0.00174305
0.00201936
)
;
    }
    ami2
    {
        type            cyclicAMI;
        value           nonuniform List<scalar> 0();
    }
    outlet
    {
        type            zeroGradient;
    }
    procBoundary8to0
    {
        type            processor;
        value           nonuniform List<scalar> 
29
(
0.00241027
0.00215022
0.00220504
0.00225797
0.00229264
0.00208466
0.00201003
0.00255695
0.00291135
0.00311713
0.00209013
0.00250434
0.00322117
0.00374913
0.00406455
0.00216597
0.00289792
0.00373766
0.00438322
0.00478284
0.00224316
0.00312181
0.00406171
0.00478308
0.00523648
0.00539151
0.0049186
0.00539163
0.0055547
)
;
    }
    procBoundary8to1
    {
        type            processor;
        value           nonuniform List<scalar> 
33
(
0.00229014
0.00319107
0.00417093
0.00229257
0.00311699
0.00406452
0.00478295
0.00523655
0.00539159
0.00225794
0.00291127
0.00374915
0.00438326
0.004783
0.00491835
0.00220513
0.00255709
0.00322145
0.00373776
0.00406153
0.00417065
0.00215041
0.00201054
0.00250476
0.00289803
0.00312168
0.00319106
0.00241047
0.00208489
0.00209035
0.00216609
0.00224319
0.00229017
)
;
    }
    procBoundary8to7
    {
        type            processor;
        value           nonuniform List<scalar> 
68
(
0.00201857
0.00174261
0.00173352
0.00170298
0.00168657
0.00164303
0.00119015
0.00148684
0.00165664
0.00174602
0.0015911
0.00139731
0.00174811
0.00201099
0.00216966
0.00160142
0.00163865
0.00202543
0.0023343
0.00252775
0.00163306
0.00176274
0.00219008
0.00253421
0.00275332
0.00283044
0.00166542
0.00178563
0.00223268
0.0025965
0.00282925
0.00291057
0.00168704
0.00168704
0.00174735
0.00174735
0.00217022
0.00252704
0.00275285
0.00282958
0.00167871
0.00160439
0.00201159
0.00201159
0.00233407
0.00253396
0.00259673
0.00171312
0.00143933
0.00174812
0.00174812
0.00202546
0.00219003
0.00223265
0.0017251
0.00115809
0.00139858
0.00139858
0.00163974
0.00176344
0.00178537
0.00200005
0.00162386
0.00159132
0.00159132
0.00160175
0.00163353
0.00166557
)
;
    }
    procBoundary8to9
    {
        type            processor;
        value           nonuniform List<scalar> 
132
(
0.0022076
0.00213231
0.00206353
0.00200067
0.00194336
0.00189103
0.00184323
0.00179982
0.00176058
0.00172518
0.00169303
0.00300677
0.0028397
0.00268789
0.00254969
0.00242354
0.00230817
0.00220251
0.0021056
0.00201661
0.00193488
0.00185914
0.00391901
0.00368999
0.00348123
0.00329053
0.00311596
0.00295592
0.00280895
0.00267382
0.00254946
0.00243474
0.00232881
0.00461704
0.00434297
0.00409321
0.00386504
0.00365616
0.00346456
0.00328853
0.00312657
0.0029774
0.00283975
0.00271298
0.00461704
0.00434297
0.00409321
0.00386504
0.00365616
0.00346456
0.00328853
0.00312657
0.0029774
0.00283975
0.00271298
0.00491417
0.00462107
0.00435393
0.00410987
0.00388642
0.00368144
0.0034931
0.00331978
0.00316013
0.00301279
0.00287723
0.00505911
0.00475661
0.00448092
0.00422906
0.00399848
0.00378698
0.00359265
0.00341384
0.00324911
0.00309711
0.0029573
0.0049143
0.00462117
0.00435399
0.0041099
0.00388642
0.00368142
0.00349304
0.0033197
0.00316
0.00301263
0.002877
0.00449021
0.00422412
0.00398154
0.00375987
0.00355687
0.00337063
0.00319949
0.00304202
0.00289697
0.00276306
0.00263967
0.0038185
0.00359477
0.00339075
0.00320432
0.00303367
0.00287722
0.00273359
0.00260155
0.00248012
0.00236763
0.00226344
0.0029363
0.00277274
0.00262434
0.00248941
0.00236645
0.00225422
0.00215161
0.00205752
0.00197204
0.00188867
0.00181014
0.00221482
0.00214366
0.0020785
0.00201872
0.00196381
0.00191396
0.00186787
0.00182548
0.00178683
0.00175233
0.00171846
)
;
    }
}


// ************************************************************************* //
