/*--------------------------------*- C++ -*----------------------------------*\
| =========                 |                                                 |
| \\      /  F ield         | OpenFOAM: The Open Source CFD Toolbox           |
|  \\    /   O peration     | Version:  2212                                  |
|   \\  /    A nd           | Website:  www.openfoam.com                      |
|    \\/     M anipulation  |                                                 |
\*---------------------------------------------------------------------------*/
FoamFile
{
    version     2.0;
    format      ascii;
    arch        "LSB;label=32;scalar=64";
    class       surfaceVectorField;
    location    "2.4";
    object      Uf;
}
// * * * * * * * * * * * * * * * * * * * * * * * * * * * * * * * * * * * * * //

dimensions      [0 1 -1 0 0 0 0];

internalField   nonuniform List<vector> 
1769
(
(0.0456123 6.24159e-05 6.18124e-05)
(0.0543483 0.000203647 0.000176284)
(0.0543409 0.000172726 0.000187586)
(0.0447613 4.82102e-05 3.39989e-05)
(0.0533629 0.00016947 0.000172023)
(0.0533495 0.000167381 0.000141748)
(0.0440946 7.17354e-06 -2.06026e-05)
(0.0525387 0.000133414 0.000160818)
(0.0525132 0.000165144 7.53575e-05)
(0.0439994 -9.0605e-05 -0.00013786)
(0.0520635 2.67538e-05 8.87289e-05)
(0.0520131 8.01171e-05 -6.83642e-05)
(0.045171 -0.00123891 -0.00130965)
(0.0524391 -0.000191586 -8.32373e-05)
(0.0523581 -0.000110434 -0.0003966)
(0.0510784 -0.00236003 -0.00202433)
(0.0511874 -0.0024094 -0.00292563)
(0.0661737 0.00045675 0.000391514)
(0.0735036 0.000724171 0.000652507)
(0.0760226 0.000400001 0.00029656)
(0.0651704 0.000345937 0.000387902)
(0.0725241 0.000596556 0.000661064)
(0.0752354 0.000331101 0.000280692)
(0.0643919 0.000140278 0.000313732)
(0.0716809 0.000409143 0.000655264)
(0.0745915 0.00022439 0.000245826)
(0.0641393 -0.000267827 9.77421e-05)
(0.0710934 2.93825e-05 0.000551928)
(0.0741919 -6.27408e-06 8.78551e-05)
(0.0651454 -0.00135229 -0.00068343)
(0.0710327 -0.000732689 0.00030596)
(0.0742049 -0.000559658 -0.000405187)
(0.0697603 -0.00299589 -0.000780201)
(0.0734107 -0.00242523 -0.00258103)
(0.0814581 0.000794342 0.00093868)
(0.0860806 0.000726064 0.00105778)
(0.0887654 0.000789095 0.000915224)
(0.0806421 0.000579587 0.00094643)
(0.0853047 0.000530682 0.00108446)
(0.0882414 0.000633141 0.000922206)
(0.0799513 0.000226818 0.000926752)
(0.0845556 0.000247304 0.00111587)
(0.0877988 0.000415339 0.000917111)
(0.079405 -0.000401474 0.00085961)
(0.0838307 -0.00019565 0.00114818)
(0.0874489 4.87259e-05 0.000873457)
(0.0790384 -0.0016563 0.000644281)
(0.0831142 -0.000972587 0.00117249)
(0.0871856 -0.00056406 0.000781681)
(0.0820263 -0.0022037 0.00123094)
(0.0866956 -0.00175567 0.000496817)
(0.0904578 0.000543891 0.00124508)
(0.0925777 0.000434998 0.00126252)
(0.0961776 0.00058949 0.00129183)
(0.0897549 0.000306866 0.0013054)
(0.0919492 0.000290702 0.00133816)
(0.0958275 0.000417319 0.00134353)
(0.0889802 -4.64776e-05 0.00140052)
(0.0912145 7.81546e-05 0.00146095)
(0.0954461 0.00017713 0.00142905)
(0.088073 -0.000601083 0.00154473)
(0.0902953 -0.000232959 0.00165176)
(0.0950056 -0.000170039 0.00156454)
(0.0869422 -0.00141603 0.00185254)
(0.0891203 -0.000766362 0.00188608)
(0.0944549 -0.000692649 0.00176547)
(0.0878752 -0.00142614 0.00271688)
(0.0938842 -0.00135562 0.00218484)
(0.0941796 0.000169843 0.00135847)
(0.0944555 -1.38755e-05 0.0013041)
(0.0992776 0.000206369 0.00144614)
(0.0935241 7.18099e-05 0.0015009)
(0.0938731 -2.48449e-05 0.00141214)
(0.0990143 0.000133853 0.00154731)
(0.0926607 -7.98193e-05 0.00172441)
(0.0931234 -4.54284e-05 0.00159213)
(0.0986468 3.16732e-05 0.00172181)
(0.0914885 -0.000340271 0.00201172)
(0.0920886 -8.81171e-05 0.00187102)
(0.098109 -0.000118376 0.0019986)
(0.0898578 -0.000673845 0.00278535)
(0.0906722 -0.000176083 0.00222368)
(0.0973694 -0.000361155 0.00235869)
(0.0891822 -0.000329115 0.0034551)
(0.0967974 -0.000594507 0.00328901)
(0.0941646 -0.000203372 0.00135777)
(0.092559 -0.000453826 0.00126245)
(0.0992699 -0.000224284 0.00144713)
(0.0934939 -0.000131798 0.00150336)
(0.0919152 -0.000321688 0.00134027)
(0.0990007 -0.000164395 0.00155181)
(0.0925974 -3.07992e-05 0.00173874)
(0.091149 -0.000130445 0.00146888)
(0.0986203 -8.45446e-05 0.00173521)
(0.0913474 0.00012666 0.00208298)
(0.0901705 0.000143103 0.00167814)
(0.0980618 2.4917e-05 0.00203728)
(0.0895361 0.000230273 0.00289342)
(0.0888737 0.000591918 0.00198753)
(0.0972651 0.000189574 0.00247928)
(0.0874948 0.00123937 0.0028129)
(0.0965162 0.000257417 0.00362248)
(0.0910975 -0.000722759 0.00120736)
(0.0868603 -0.000877517 0.00103962)
(0.0965 -0.000732471 0.00126599)
(0.0904243 -0.000557581 0.00124738)
(0.0860541 -0.000728369 0.00105946)
(0.0961593 -0.000598572 0.0012962)
(0.0896945 -0.000328064 0.0013125)
(0.0852577 -0.000532629 0.0010892)
(0.0957964 -0.000431067 0.00135433)
(0.0888703 1.32261e-05 0.00142031)
(0.0844714 -0.000249188 0.00112862)
(0.0953931 -0.000198848 0.00145351)
(0.0878697 0.000536336 0.00160281)
(0.083674 0.000195234 0.00118088)
(0.0949125 0.000136665 0.00161829)
(0.0865588 0.00134703 0.00195841)
(0.082839 0.000956001 0.00125626)
(0.0943124 0.000629956 0.00188246)
(0.0818238 0.00230078 0.00126982)
(0.0938276 0.00133352 0.00232338)
(0.0823373 -0.000951304 0.000928091)
(0.0745645 -0.000822132 0.000648397)
(0.0893403 -0.000913344 0.000914065)
(0.0814225 -0.00078806 0.000943151)
(0.073481 -0.000712142 0.000655612)
(0.0887469 -0.000787433 0.000923437)
(0.0805793 -0.00056778 0.000957471)
(0.0724837 -0.000575725 0.000667304)
(0.0882104 -0.000630009 0.000939511)
(0.0798417 -0.000206771 0.000953861)
(0.0716074 -0.000380106 0.000665378)
(0.0877481 -0.000410902 0.000953054)
(0.0792041 0.000424803 0.000922372)
(0.0709533 2.29923e-05 0.000569037)
(0.0873654 -4.4561e-05 0.000946901)
(0.078635 0.00178118 0.000669048)
(0.070794 0.000831451 0.000325897)
(0.0870605 0.000553612 0.000929619)
(0.0698119 0.00333279 -0.00116943)
(0.0866265 0.00182591 0.000633193)
(0.0672954 -0.000517551 0.00038932)
(0.0554532 -0.000224769 0.000179173)
(0.0769105 -0.000450448 0.000317575)
(0.0661486 -0.000426523 0.00039416)
(0.0543405 -0.000187534 0.000172759)
(0.0760119 -0.000385713 0.000308587)
(0.0651257 -0.000300605 0.000389931)
(0.053349 -0.000141705 0.00016744)
(0.0752162 -0.000307347 0.000302345)
(0.0643036 -6.04681e-05 0.000307655)
(0.0525125 -7.53319e-05 0.000165203)
(0.0745554 -0.000192601 0.000279806)
(0.0639815 0.000440846 5.88664e-05)
(0.0520121 6.84147e-05 8.02029e-05)
(0.0741209 6.51068e-05 0.000140657)
(0.0648586 0.00197013 -0.00116466)
(0.0523569 0.000396658 -0.000110321)
(0.0740912 0.000681807 -0.000327199)
(0.0511858 0.00292597 -0.00240924)
(0.0735607 0.00281123 -0.00259993)
(0.0466061 -8.38519e-05 8.34532e-05)
(0.0554574 -0.000181905 0.000234149)
(0.045612 -6.17516e-05 6.24623e-05)
(0.0543479 -0.000176253 0.000203739)
(0.0447608 -3.39608e-05 4.82721e-05)
(0.0533624 -0.000171994 0.0001696)
(0.0440939 2.06442e-05 7.24564e-06)
(0.052538 -0.000160796 0.00013355)
(0.0439986 0.000137925 -9.05207e-05)
(0.0520626 -8.86852e-05 2.69441e-05)
(0.0451699 0.00130979 -0.00123869)
(0.0524381 8.32983e-05 -0.000191406)
(0.0510766 0.00202441 -0.00235952)
(0.0661492 0.000394084 0.000426498)
(0.0760123 0.000308536 0.000385759)
(0.0734815 0.00065551 0.000712077)
(0.0651264 0.000389843 0.000300575)
(0.0752167 0.000302247 0.000307352)
(0.0724844 0.000667176 0.000575644)
(0.0643046 0.000307545 6.0437e-05)
(0.0745561 0.000279672 0.000192584)
(0.0716082 0.000665211 0.000380002)
(0.0639828 5.87175e-05 -0.000440856)
(0.0741218 0.00014049 -6.51246e-05)
(0.0709544 0.000568802 -2.3099e-05)
(0.0648603 -0.00116471 -0.00196992)
(0.0740923 -0.000327383 -0.000681788)
(0.0707956 0.000325538 -0.000831523)
(0.0735622 -0.00260006 -0.00281109)
(0.0698141 -0.00116971 -0.00333254)
(0.0874903 0.000308667 0.000294933)
(0.0919418 0.000564907 0.000640955)
(0.091938 0.000649718 0.000558954)
(0.0871189 0.000239095 0.000217177)
(0.0916543 0.000468853 0.000592806)
(0.0916492 0.000609122 0.00045921)
(0.0868772 0.00011033 7.75061e-05)
(0.0914561 0.000332722 0.000523199)
(0.0914512 0.000549984 0.000320008)
(0.0866936 -0.000206145 -0.000255442)
(0.0913355 0.000102651 0.000384516)
(0.0913365 0.00042845 9.01381e-05)
(0.0862367 -0.00108827 -0.00114624)
(0.0911597 -0.000289885 7.93143e-05)
(0.0911871 0.000144843 -0.000296254)
(0.0912544 -0.000950781 -0.000636237)
(0.0913039 -0.000580527 -0.000895477)
(0.0967619 0.000629856 0.000951672)
(0.0994441 0.000600949 0.00118384)
(0.0997984 0.00083974 0.00100513)
(0.0966666 0.000467582 0.000916741)
(0.099389 0.000451154 0.00118323)
(0.099806 0.000726525 0.000947659)
(0.096629 0.000238134 0.000858307)
(0.0993632 0.000252977 0.00119031)
(0.0998573 0.000579302 0.000874192)
(0.0966117 -9.90271e-05 0.000755279)
(0.0993541 -2.23309e-05 0.0012004)
(0.0999386 0.000372484 0.000767373)
(0.0965385 -0.000594481 0.000574619)
(0.099321 -0.000411418 0.00120624)
(0.100008 7.42055e-05 0.000608816)
(0.0994395 -0.00092925 0.00121083)
(0.100217 -0.000314666 0.000436197)
(0.102309 0.00046508 0.00144565)
(0.103466 0.000381128 0.00154105)
(0.104449 0.000616685 0.00143431)
(0.102329 0.000288652 0.00149233)
(0.10352 0.000264716 0.0015924)
(0.104611 0.000489419 0.00143607)
(0.102341 5.52871e-05 0.001576)
(0.103552 0.000113291 0.00169203)
(0.104775 0.000331905 0.00146246)
(0.10233 -0.000254263 0.00170805)
(0.103551 -8.62303e-05 0.00185612)
(0.104936 0.000129671 0.00152011)
(0.102261 -0.000610745 0.00192508)
(0.10351 -0.00034567 0.00209219)
(0.105091 -0.000124826 0.00161747)
(0.103699 -0.000618952 0.00242072)
(0.105381 -0.000383068 0.00179966)
(0.104727 0.000172686 0.00169267)
(0.10468 -5.81473e-06 0.00165676)
(0.106513 0.000228545 0.00165038)
(0.104795 9.58749e-05 0.00179928)
(0.104769 -8.91659e-06 0.00173218)
(0.106749 0.00017285 0.0016969)
(0.10482 -4.09913e-06 0.00198264)
(0.104816 -1.33116e-05 0.00187485)
(0.106956 0.000104695 0.00179646)
(0.104793 -0.00013317 0.00225504)
(0.104814 -1.8413e-05 0.00211016)
(0.107134 1.88731e-05 0.00196276)
(0.104688 -0.00027231 0.00260822)
(0.104773 -1.99576e-05 0.00244182)
(0.107297 -8.49741e-05 0.00219166)
(0.105044 1.09763e-05 0.00281859)
(0.107682 -0.000176348 0.00247365)
(0.104723 -0.00018631 0.00169627)
(0.103459 -0.000390684 0.00154471)
(0.106512 -0.000236083 0.00165206)
(0.10479 -0.000116636 0.00180775)
(0.10351 -0.000279304 0.00160031)
(0.106748 -0.000183788 0.00170042)
(0.104817 -2.59569e-05 0.00200237)
(0.103541 -0.000135282 0.00170837)
(0.106957 -0.000119912 0.00180352)
(0.104802 9.42648e-05 0.00229694)
(0.103542 5.46282e-05 0.00188877)
(0.107145 -3.778e-05 0.00197682)
(0.104753 0.000247942 0.00265219)
(0.103524 0.000303424 0.00214729)
(0.107334 6.76523e-05 0.00221539)
(0.103775 0.000598347 0.00241043)
(0.107744 0.000193063 0.00245833)
(0.102281 -0.000611724 0.00143143)
(0.0995242 -0.000727307 0.00119987)
(0.104287 -0.000731682 0.0014552)
(0.102297 -0.000472901 0.00145329)
(0.099435 -0.000602844 0.00119007)
(0.104443 -0.000622053 0.00143846)
(0.102313 -0.000300008 0.00150756)
(0.0993764 -0.000453726 0.00119567)
(0.104604 -0.000497347 0.00144341)
(0.102323 -7.08058e-05 0.00160436)
(0.0993488 -0.000255897 0.00121318)
(0.104767 -0.000343614 0.00147476)
(0.102316 0.000237456 0.00175226)
(0.0993453 2.07855e-05 0.00123967)
(0.104931 -0.000146165 0.00153842)
(0.102274 0.000624918 0.00192226)
(0.0993516 0.000422731 0.00125759)
(0.105106 0.000104994 0.00163495)
(0.0995375 0.00100214 0.00117603)
(0.105449 0.000391602 0.00172384)
(0.0969083 -0.000754513 0.000985314)
(0.0923034 -0.000642278 0.000688859)
(0.099832 -0.000937771 0.00106309)
(0.0967522 -0.000628741 0.000962875)
(0.0919378 -0.000558848 0.000649703)
(0.099794 -0.000838749 0.0010104)
(0.096655 -0.000466134 0.000937293)
(0.0916489 -0.000459214 0.000609239)
(0.0998 -0.000725206 0.000956532)
(0.0966218 -0.000237237 0.000893497)
(0.0914508 -0.000320071 0.000550173)
(0.0998514 -0.000577872 0.000887175)
(0.0966312 9.85492e-05 0.000806136)
(0.091336 -9.02163e-05 0.000428659)
(0.0999395 -0.000373411 0.000782201)
(0.0966546 0.00058486 0.000606958)
(0.0911865 0.000296218 0.000144999)
(0.100038 -8.13833e-05 0.000605009)
(0.0913033 0.000895256 -0.000580173)
(0.100273 0.00027849 0.000324322)
(0.0879683 -0.000355166 0.000363106)
(0.0769163 -0.000310842 0.000459)
(0.0923059 -0.000684015 0.000646057)
(0.0874899 -0.000294818 0.000308679)
(0.0760221 -0.000296481 0.00040008)
(0.0919415 -0.000640899 0.000565034)
(0.0871185 -0.000217126 0.000239181)
(0.0752348 -0.000280633 0.000331236)
(0.0916539 -0.000592779 0.000469036)
(0.0868767 -7.74646e-05 0.000110433)
(0.0745909 -0.00024576 0.000224552)
(0.0914557 -0.000523159 0.00033292)
(0.086693 0.000255519 -0.000206083)
(0.074191 -8.77652e-05 -6.09389e-06)
(0.0913349 -0.00038445 0.000102857)
(0.0862359 0.00114625 -0.0010882)
(0.0742039 0.000405318 -0.000559499)
(0.091159 -7.91905e-05 -0.000289715)
(0.073409 0.00258112 -0.00242483)
(0.0912535 0.000636056 -0.000950385)
(0.0673091 -0.000388184 0.000535838)
(0.0745771 -0.00064717 0.000829265)
(0.0661731 -0.000391527 0.000456952)
(0.0735032 -0.00065255 0.000724457)
(0.0651697 -0.000387885 0.000346158)
(0.0725235 -0.000661082 0.000596864)
(0.064391 -0.000313683 0.000140527)
(0.0716802 -0.00065524 0.000409501)
(0.0641381 -9.76808e-05 -0.000267539)
(0.0710924 -0.000551861 2.98189e-05)
(0.0651439 0.000683382 -0.00135175)
(0.0710316 -0.000305861 -0.000732127)
(0.0697585 0.000780276 -0.00299508)
(0.081423 0.000942995 0.000787949)
(0.0887473 0.000923312 0.000787396)
(0.0860546 0.00105931 0.000728244)
(0.08058 0.000957262 0.000567639)
(0.0882109 0.000939309 0.000629911)
(0.0852583 0.001089 0.000532485)
(0.0798427 0.000953557 0.000206601)
(0.0877487 0.00095276 0.000410745)
(0.0844722 0.00112834 0.000249032)
(0.0792055 0.00092189 -0.000424993)
(0.0873662 0.000946482 4.43666e-05)
(0.0836752 0.00118045 -0.000195417)
(0.078637 0.000668392 -0.00178125)
(0.0870615 0.000929032 -0.000553819)
(0.0828406 0.00125556 -0.000956229)
(0.086628 0.000632369 -0.0018261)
(0.0818261 0.00126901 -0.00230075)
(0.0967525 0.00096279 0.000628749)
(0.0997942 0.00101031 0.000838775)
(0.0994352 0.00119001 0.000602873)
(0.0966553 0.000937074 0.000466043)
(0.0998003 0.000956343 0.000725161)
(0.0993767 0.00119546 0.000453661)
(0.0966222 0.000893203 0.000237091)
(0.0998517 0.000886908 0.000577767)
(0.0993492 0.00121284 0.000255751)
(0.0966316 0.000805834 -9.86971e-05)
(0.0999398 0.000781912 0.000373278)
(0.0993457 0.00123922 -2.09814e-05)
(0.096655 0.000606501 -0.000585118)
(0.100039 0.000604743 8.12348e-05)
(0.0993519 0.00125704 -0.000422985)
(0.100273 0.00032384 -0.000278883)
(0.0995378 0.00117524 -0.0010026)
(0.103188 0.000941246 0.000939844)
(0.104894 0.000831918 0.00116506)
(0.104894 0.00116631 0.000833068)
(0.103359 0.000848058 0.000846937)
(0.105128 0.000738693 0.00110663)
(0.105128 0.0011083 0.000740702)
(0.10355 0.000731937 0.00073392)
(0.105378 0.000631756 0.00104908)
(0.10538 0.00105033 0.000635861)
(0.103736 0.000578531 0.000592617)
(0.10564 0.000504002 0.000988071)
(0.105646 0.000985278 0.000513499)
(0.103852 0.0004081 0.000463409)
(0.105909 0.000355835 0.00092269)
(0.105924 0.000904627 0.000378666)
(0.1063 0.000226353 0.000908703)
(0.106322 0.000832078 0.000281935)
(0.10696 0.000640588 0.00134837)
(0.107638 0.000471953 0.00146643)
(0.108019 0.000800158 0.00114143)
(0.107281 0.000535602 0.00132805)
(0.107993 0.000398025 0.00145845)
(0.10842 0.00072323 0.00109994)
(0.107611 0.000414446 0.00132597)
(0.108345 0.000313838 0.00147728)
(0.108824 0.000641653 0.0010699)
(0.107953 0.000274978 0.00134414)
(0.108701 0.000215141 0.00152734)
(0.109237 0.000551332 0.00105164)
(0.108313 0.000127676 0.00139502)
(0.109079 0.000101496 0.00160532)
(0.109674 0.000451573 0.00104512)
(0.109575 -9.21443e-06 0.0017162)
(0.11021 0.000355451 0.00106599)
(0.108698 0.000228351 0.00158067)
(0.108503 -2.0695e-06 0.00157401)
(0.109454 0.000288269 0.00131679)
(0.109086 0.00018243 0.00161307)
(0.108898 -2.2625e-06 0.00158812)
(0.109936 0.000253084 0.00131418)
(0.109467 0.000130192 0.00168576)
(0.109281 -1.69951e-06 0.00163928)
(0.110406 0.000215435 0.00133836)
(0.10985 7.23775e-05 0.001798)
(0.109665 1.00908e-06 0.00173359)
(0.110873 0.000174253 0.00139099)
(0.110246 1.95393e-05 0.0019388)
(0.110076 9.57621e-06 0.00186199)
(0.111361 0.000131259 0.00146509)
(0.110611 3.11027e-05 0.00200431)
(0.111952 9.743e-05 0.00154616)
(0.1087 -0.000232798 0.00158146)
(0.107638 -0.000476708 0.00146748)
(0.109455 -0.000291697 0.00131646)
(0.109091 -0.000187143 0.00161433)
(0.107995 -0.000404733 0.00146007)
(0.109938 -0.000257206 0.0013134)
(0.10948 -0.000133174 0.00168711)
(0.108351 -0.000323095 0.00147925)
(0.110411 -0.00021966 0.00133639)
(0.10988 -6.81321e-05 0.00179758)
(0.108717 -0.00022734 0.00152796)
(0.110887 -0.000176823 0.00138602)
(0.110311 5.2325e-06 0.0019275)
(0.109115 -0.000116524 0.00159889)
(0.11139 -0.000127636 0.00145243)
(0.109628 -2.02319e-06 0.00167462)
(0.111992 -7.75563e-05 0.00151337)
(0.106645 -0.000739181 0.00138628)
(0.104678 -0.000921289 0.00123005)
(0.107617 -0.000879427 0.0011946)
(0.10696 -0.000645728 0.00135012)
(0.104894 -0.000833097 0.00116646)
(0.108018 -0.000803567 0.00114097)
(0.107283 -0.000543531 0.00133017)
(0.105128 -0.000740763 0.0011085)
(0.10842 -0.000728606 0.00109873)
(0.107618 -0.000426983 0.00132687)
(0.10538 -0.000635959 0.00105058)
(0.108826 -0.000650355 0.00106676)
(0.107972 -0.0002952 0.00133819)
(0.105645 -0.000513647 0.00098556)
(0.109243 -0.000565929 0.0010432)
(0.108356 -0.000157403 0.00135753)
(0.105924 -0.000378908 0.000904927)
(0.109689 -0.000476683 0.00102253)
(0.106322 -0.000282492 0.000832506)
(0.110233 -0.000395957 0.00100012)
(0.103048 -0.00102357 0.00102473)
(0.0998349 -0.00106005 0.00093847)
(0.104679 -0.00122916 0.000920705)
(0.103188 -0.000939867 0.000941406)
(0.0997982 -0.00100516 0.000839933)
(0.104894 -0.00116508 0.00083209)
(0.103358 -0.000846985 0.000848251)
(0.0998057 -0.000947678 0.000726735)
(0.105127 -0.00110666 0.000738897)
(0.10355 -0.000733999 0.000732151)
(0.0998569 -0.000874202 0.000579523)
(0.105378 -0.00104912 0.000631983)
(0.103736 -0.000592744 0.000578751)
(0.0999382 -0.000767385 0.000372717)
(0.10564 -0.000988128 0.000504223)
(0.103852 -0.000463698 0.000408407)
(0.100007 -0.000608837 7.4449e-05)
(0.105909 -0.000922801 0.000356036)
(0.100216 -0.000436547 -0.000314128)
(0.1063 -0.000909064 0.000226682)
(0.096915 -0.000979606 0.000755479)
(0.0893511 -0.000910244 0.000914359)
(0.0995301 -0.00119677 0.000725991)
(0.0967615 -0.000951691 0.000630093)
(0.0887651 -0.000915248 0.000789362)
(0.0994438 -0.00118387 0.000601201)
(0.0966662 -0.000916704 0.000467813)
(0.088241 -0.000922194 0.000633439)
(0.0993886 -0.00118319 0.000451427)
(0.0966285 -0.000858216 0.000238364)
(0.0877983 -0.00091704 0.000415682)
(0.0993627 -0.00119019 0.000253269)
(0.0966111 -0.000755136 -9.87847e-05)
(0.0874483 -0.000873317 4.91311e-05)
(0.0993535 -0.00120019 -2.20315e-05)
(0.0965378 -0.000574673 -0.000594023)
(0.0871849 -0.00078144 -0.000563558)
(0.0993203 -0.00120593 -0.000411117)
(0.0866946 -0.000496718 -0.00175486)
(0.0994386 -0.00121054 -0.000928771)
(0.0823573 -0.000926289 0.000954501)
(0.0868754 -0.00103929 0.000876172)
(0.0814577 -0.000938698 0.000794669)
(0.0860803 -0.00105777 0.000726374)
(0.0806415 -0.000946419 0.000579994)
(0.0853043 -0.00108442 0.000531087)
(0.0799506 -0.000926683 0.000227329)
(0.0845552 -0.00111577 0.00024782)
(0.0794043 -0.000859459 -0.000400817)
(0.0838303 -0.00114795 -0.000195075)
(0.0790375 -0.000644026 -0.00165545)
(0.0831137 -0.00117212 -0.000971752)
(0.082026 -0.00123027 -0.00220267)
(0.0904248 0.00124719 0.000557413)
(0.0961596 0.00129603 0.000598474)
(0.0925593 0.00126228 0.000453671)
(0.0896952 0.00131222 0.000327878)
(0.0957968 0.00135407 0.000430919)
(0.0919157 0.00134003 0.000321507)
(0.0888712 0.00141989 -1.34212e-05)
(0.0953936 0.00145312 0.000198657)
(0.0911497 0.00146851 0.000130252)
(0.087871 0.00160215 -0.000536573)
(0.0949132 0.00161767 -0.000136917)
(0.0901715 0.00167755 -0.000143303)
(0.0865608 0.00195754 -0.0013472)
(0.0943134 0.0018815 -0.000630329)
(0.0888753 0.00198647 -0.000592143)
(0.093829 0.00232216 -0.0013339)
(0.0874966 0.00281251 -0.0012394)
(0.102297 0.00145311 0.000472838)
(0.104443 0.00143832 0.000622017)
(0.103459 0.00154455 0.000390632)
(0.102313 0.00150722 0.000299865)
(0.104604 0.00144316 0.000497248)
(0.103511 0.00160001 0.000279186)
(0.102323 0.00160385 7.05703e-05)
(0.104767 0.00147439 0.000343443)
(0.103541 0.0017079 0.00013509)
(0.102316 0.00175154 -0.000237819)
(0.104931 0.00153793 0.000145903)
(0.103542 0.00188808 -5.49112e-05)
(0.102274 0.00192134 -0.000625467)
(0.105106 0.00163433 -0.000105404)
(0.103524 0.00214634 -0.000303867)
(0.10545 0.00172313 -0.000392282)
(0.103775 0.00240948 -0.000599076)
(0.10696 0.00134992 0.000645659)
(0.108019 0.00114078 0.000803509)
(0.107639 0.00146728 0.000476648)
(0.107283 0.00132991 0.000543409)
(0.10842 0.0010985 0.000728511)
(0.107995 0.00145981 0.000404628)
(0.107619 0.00132655 0.00042679)
(0.108826 0.00106648 0.000650212)
(0.108351 0.00147892 0.000322932)
(0.107972 0.00133781 0.000294893)
(0.109243 0.00104289 0.000565715)
(0.108717 0.00152756 0.000227093)
(0.108357 0.0013571 0.000156856)
(0.10969 0.00102222 0.000476352)
(0.109115 0.00159847 0.000116138)
(0.110233 0.000999825 0.000395411)
(0.109628 0.00167424 1.37287e-06)
(0.109552 0.000891109 0.000894644)
(0.109875 0.000625785 0.000988056)
(0.109875 0.000986069 0.000628876)
(0.110042 0.000839328 0.000845377)
(0.110406 0.000584167 0.000952051)
(0.110407 0.000948617 0.000588786)
(0.110535 0.000790961 0.000801683)
(0.110932 0.000544837 0.000927964)
(0.110934 0.000921884 0.000551798)
(0.111039 0.000743444 0.000763122)
(0.111461 0.000506369 0.000914512)
(0.111465 0.000903405 0.000517271)
(0.111559 0.000698634 0.000735453)
(0.112012 0.000467157 0.000910221)
(0.112019 0.000889351 0.000484982)
(0.112645 0.000432427 0.000917644)
(0.112654 0.000878483 0.000462002)
(0.110745 0.000315604 0.0010478)
(0.110459 -1.3324e-06 0.0010568)
(0.110893 0.000351733 0.000721094)
(0.111314 0.000289255 0.00103761)
(0.111033 -1.54392e-06 0.00103713)
(0.111511 0.000331746 0.000704677)
(0.111878 0.000263477 0.0010446)
(0.111598 -1.52894e-06 0.00103487)
(0.112118 0.000314305 0.000699693)
(0.112444 0.000238216 0.00106643)
(0.112162 -1.07035e-06 0.00104811)
(0.112725 0.00029931 0.000705868)
(0.113017 0.000215522 0.00109828)
(0.112747 3.3841e-07 0.00107266)
(0.11335 0.000285987 0.00072159)
(0.113407 2.94659e-06 0.00110085)
(0.114041 0.000274272 0.00074058)
(0.110746 -0.000318678 0.00104614)
(0.109875 -0.000628957 0.000986286)
(0.110893 -0.000353895 0.000719737)
(0.111317 -0.000292883 0.00103439)
(0.110407 -0.000588896 0.000948871)
(0.111512 -0.000334632 0.000702305)
(0.111884 -0.000267369 0.00103838)
(0.110934 -0.000551952 0.00092217)
(0.11212 -0.000318016 0.000695554)
(0.112455 -0.000241746 0.00105435)
(0.111464 -0.000517489 0.000903704)
(0.112729 -0.000303959 0.000698612)
(0.113037 -0.000217791 0.00107523)
(0.112019 -0.000485293 0.000889631)
(0.113358 -0.000291542 0.000708868)
(0.112653 -0.000462416 0.000878675)
(0.11405 -0.000280159 0.000719977)
(0.109059 -0.000950812 0.000948837)
(0.107617 -0.00119481 0.000877442)
(0.109331 -0.00103686 0.000670938)
(0.109552 -0.000894728 0.000891334)
(0.108019 -0.00114149 0.000800369)
(0.109875 -0.000988124 0.000626026)
(0.110042 -0.000845492 0.000839584)
(0.10842 -0.0011 0.000723463)
(0.110406 -0.000952143 0.000584446)
(0.110535 -0.000801847 0.000791235)
(0.108824 -0.00106997 0.000641905)
(0.110932 -0.000928095 0.000545148)
(0.111039 -0.000763359 0.000743712)
(0.109236 -0.00105174 0.000551582)
(0.11146 -0.000914706 0.0005067)
(0.111559 -0.000735781 0.00069885)
(0.109674 -0.00104528 0.000451797)
(0.112012 -0.000910502 0.000467485)
(0.110209 -0.00106631 0.00035565)
(0.112645 -0.00091799 0.000432688)
(0.106646 -0.00138513 0.000736008)
(0.10429 -0.00145294 0.000728234)
(0.107277 -0.00149655 0.000540678)
(0.10696 -0.00134839 0.000640807)
(0.104448 -0.00143434 0.000616939)
(0.107638 -0.00146645 0.000472212)
(0.107281 -0.00132807 0.000535834)
(0.104611 -0.00143605 0.000489689)
(0.107993 -0.00145846 0.000398306)
(0.107611 -0.00132599 0.000414676)
(0.104775 -0.00146239 0.000332195)
(0.108345 -0.00147727 0.000314139)
(0.107952 -0.00134418 0.000275186)
(0.104935 -0.00151998 0.000129958)
(0.1087 -0.00152733 0.000215437)
(0.108313 -0.0013952 0.000127884)
(0.105091 -0.00161727 -0.000124569)
(0.109078 -0.00160536 0.000101756)
(0.10538 -0.00179937 -0.00038286)
(0.109574 -0.00171639 -9.0086e-06)
(0.102289 -0.00142776 0.000606592)
(0.0965109 -0.00126437 0.000727118)
(0.1034 -0.00152515 0.000477829)
(0.102308 -0.00144562 0.000465379)
(0.0961774 -0.00129178 0.000589793)
(0.103465 -0.00154102 0.000381462)
(0.102328 -0.0014922 0.000288973)
(0.0958272 -0.00134341 0.000417688)
(0.10352 -0.00159228 0.000265088)
(0.102341 -0.00157576 5.56252e-05)
(0.0954458 -0.00142884 0.000177574)
(0.103552 -0.00169178 0.000113703)
(0.102329 -0.00170766 -0.000253937)
(0.0950052 -0.00156416 -0.0001695)
(0.103551 -0.00185571 -8.58051e-05)
(0.10226 -0.00192438 -0.000610498)
(0.0944545 -0.00176486 -0.000692039)
(0.103509 -0.00209156 -0.000345298)
(0.093884 -0.0021837 -0.00135497)
(0.103698 -0.00241968 -0.000618765)
(0.0911165 -0.00120694 0.000714335)
(0.0931363 -0.00121558 0.000542482)
(0.0904576 -0.00124501 0.000544267)
(0.0925775 -0.00126243 0.000435331)
(0.0897546 -0.00130526 0.000307356)
(0.0919491 -0.00133799 0.000291153)
(0.08898 -0.00140026 -4.58369e-05)
(0.0912144 -0.00146066 7.8742e-05)
(0.0880728 -0.00154427 -0.000600265)
(0.0902954 -0.00165127 -0.000232167)
(0.0869423 -0.00185172 -0.00141502)
(0.0891205 -0.00188525 -0.000765426)
(0.0878758 -0.00271573 -0.00142483)
(0.094165 0.00135755 0.000203211)
(0.0992702 0.00144693 0.000224164)
(0.0944559 0.00130393 1.37453e-05)
(0.0934945 0.00150302 0.000131623)
(0.0990011 0.0015515 0.000164242)
(0.0938736 0.00141186 2.46949e-05)
(0.0925982 0.00173819 3.06233e-05)
(0.0986208 0.00173473 8.43632e-05)
(0.0931241 0.00159169 4.52711e-05)
(0.0913486 0.00208199 -0.000126825)
(0.0980624 0.00203649 -2.5133e-05)
(0.0920896 0.00187031 8.79529e-05)
(0.089538 0.00289284 -0.000230423)
(0.0972658 0.00247791 -0.000189841)
(0.0906739 0.00222236 0.000175963)
(0.0965166 0.00362138 -0.000257785)
(0.0891841 0.00345461 0.000329049)
(0.104724 0.00169599 0.000186202)
(0.106512 0.00165184 0.000235999)
(0.10468 0.00165652 5.72144e-06)
(0.104791 0.00180732 0.00011648)
(0.106748 0.0017001 0.000183665)
(0.104769 0.00173181 8.79354e-06)
(0.104817 0.00200172 2.5738e-05)
(0.106957 0.00180307 0.000119737)
(0.104816 0.0018743 1.31546e-05)
(0.104802 0.00229602 -9.4577e-05)
(0.107145 0.0019762 3.75344e-05)
(0.104814 0.00210934 1.8227e-05)
(0.104753 0.00265122 -0.00024839)
(0.107333 0.00221466 -6.8006e-05)
(0.104773 0.0024407 1.97502e-05)
(0.107743 0.00245788 -0.000193573)
(0.105043 0.00281767 -1.11721e-05)
(0.1087 0.0015812 0.0002327)
(0.109455 0.00131623 0.000291612)
(0.108503 0.00157377 1.98524e-06)
(0.109091 0.001614 0.000187001)
(0.109938 0.00131312 0.000257088)
(0.108898 0.00158782 2.15162e-06)
(0.10948 0.00168671 0.000132972)
(0.110412 0.00133606 0.000219494)
(0.109281 0.00163889 1.55551e-06)
(0.10988 0.00179714 6.78445e-05)
(0.110887 0.00138565 0.000176592)
(0.109665 0.00173312 -1.18359e-06)
(0.11031 0.00192713 -5.65236e-06)
(0.11139 0.00145207 0.000127315)
(0.110076 0.00186149 -9.77243e-06)
(0.111991 0.00151316 7.71113e-05)
(0.110611 0.00200394 -3.13035e-05)
(0.110746 0.00104589 0.000318573)
(0.110893 0.000719496 0.00035381)
(0.110459 0.00105657 1.24754e-06)
(0.111317 0.00103411 0.00029274)
(0.111512 0.000702025 0.000334515)
(0.111034 0.00103686 1.43263e-06)
(0.111884 0.00103807 0.000267174)
(0.11212 0.000695237 0.000317853)
(0.111598 0.00103455 1.38563e-06)
(0.112455 0.00105404 0.000241481)
(0.112729 0.000698268 0.000303735)
(0.112162 0.00104777 8.95519e-07)
(0.113037 0.00107498 0.000217446)
(0.113358 0.000708526 0.000291243)
(0.112747 0.00107232 -5.49261e-07)
(0.11405 0.00071968 0.000279799)
(0.113407 0.00110057 -3.18331e-06)
(0.11167 0.000368582 0.000370451)
(0.111339 -7.70952e-07 0.000376031)
(0.111339 0.000375785 6.98888e-07)
(0.112328 0.000357722 0.000360554)
(0.112003 -1.13433e-06 0.000363277)
(0.112003 0.00036299 1.03456e-06)
(0.112981 0.000351329 0.000355627)
(0.112654 -1.66112e-06 0.000355315)
(0.112654 0.000354986 1.52443e-06)
(0.113637 0.000348561 0.00035504)
(0.113306 -2.41455e-06 0.000351992)
(0.113306 0.000351624 2.23133e-06)
(0.114305 0.000346462 0.000355433)
(0.113977 -3.38729e-06 0.000351982)
(0.113977 0.000351585 3.15491e-06)
(0.114701 -4.03383e-06 0.000350279)
(0.114701 0.000349871 3.78612e-06)
(0.11167 -0.000370548 0.000368858)
(0.110893 -0.000721167 0.000351998)
(0.111339 -0.000376097 -4.98736e-07)
(0.112328 -0.000360691 0.000358038)
(0.111511 -0.00070478 0.000332054)
(0.112002 -0.000363373 -8.15119e-07)
(0.11298 -0.000355818 0.00035168)
(0.112118 -0.000699841 0.000314653)
(0.112654 -0.000355455 -1.29247e-06)
(0.113637 -0.000355297 0.000348934)
(0.112724 -0.000706082 0.000299688)
(0.113306 -0.000352195 -1.99998e-06)
(0.114305 -0.000355744 0.000346829)
(0.11335 -0.000721883 0.000286374)
(0.113977 -0.000352263 -2.94237e-06)
(0.114041 -0.000740906 0.000274609)
(0.114701 -0.000350622 -3.59493e-06)
(0.110162 -0.00107605 0.00034275)
(0.108955 -0.00134353 0.00032294)
(0.109866 -0.00109437 -7.60193e-07)
(0.110745 -0.00104787 0.000315901)
(0.109454 -0.00131682 0.000288557)
(0.110459 -0.00105685 -1.02782e-06)
(0.111314 -0.00103772 0.000289594)
(0.109936 -0.00131422 0.000253411)
(0.111033 -0.00103721 -1.18418e-06)
(0.111877 -0.00104476 0.000263852)
(0.110405 -0.00133841 0.0002158)
(0.111598 -0.00103499 -1.10864e-06)
(0.112443 -0.00106667 0.000238608)
(0.110873 -0.00139108 0.000174637)
(0.112162 -0.00104831 -6.01371e-07)
(0.113017 -0.00109858 0.00021588)
(0.111361 -0.00146525 0.000131621)
(0.112746 -0.00107297 8.66605e-07)
(0.111951 -0.00154637 9.76832e-05)
(0.113406 -0.00110125 3.50499e-06)
(0.108296 -0.00158119 0.000270906)
(0.106256 -0.00164193 0.000278283)
(0.108091 -0.00158872 -1.34682e-06)
(0.108698 -0.00158066 0.000228669)
(0.106513 -0.00165035 0.00022888)