/*--------------------------------*- C++ -*----------------------------------*\
| =========                 |                                                 |
| \\      /  F ield         | OpenFOAM: The Open Source CFD Toolbox           |
|  \\    /   O peration     | Version:  2212                                  |
|   \\  /    A nd           | Website:  www.openfoam.com                      |
|    \\/     M anipulation  |                                                 |
\*---------------------------------------------------------------------------*/
FoamFile
{
    version     2.0;
    format      ascii;
    arch        "LSB;label=32;scalar=64";
    class       volVectorField;
    location    "1.45";
    object      U;
}
// * * * * * * * * * * * * * * * * * * * * * * * * * * * * * * * * * * * * * //

dimensions      [0 1 -1 0 0 0 0];

internalField   nonuniform List<vector> 
690
(
(0.0911628 -0.000922354 0.00171713)
(0.0903186 -0.00113078 0.00204444)
(0.0894003 -0.00113141 0.00222511)
(0.104061 -0.000559454 0.00182013)
(0.104318 -0.000626708 0.0020698)
(0.104499 -0.00068305 0.00222305)
(0.109567 -0.000359764 0.00160105)
(0.109913 -0.00036581 0.00174185)
(0.11026 -0.000378255 0.00186083)
(0.0912093 -0.000457126 0.00152821)
(0.0905367 -0.000658153 0.0016501)
(0.0899116 -0.000764567 0.00173677)
(0.0891895 -0.000770993 0.00179241)
(0.0884001 -0.000712099 0.00181792)
(0.0875613 -0.000626 0.00182)
(0.0866881 -0.000537539 0.0018073)
(0.0857856 -0.000450423 0.00178931)
(0.084858 -0.000364032 0.00176898)
(0.08391 -0.000280337 0.00174535)
(0.0829525 -0.000204925 0.00171676)
(0.0819949 -0.000134205 0.00168192)
(0.104926 -0.000236763 0.0016809)
(0.105128 -0.000343634 0.00178853)
(0.105298 -0.000449125 0.00184318)
(0.105448 -0.000527622 0.00187657)
(0.105569 -0.00056488 0.00189973)
(0.105655 -0.000559241 0.00192264)
(0.105701 -0.00052384 0.00193958)
(0.105708 -0.000477982 0.00193744)
(0.105688 -0.000422208 0.00191503)
(0.105647 -0.000353787 0.00188439)
(0.10559 -0.000282208 0.001852)
(0.10552 -0.00021094 0.00181757)
(0.110277 -3.85487e-05 0.00147031)
(0.110686 -8.74698e-05 0.00156281)
(0.111062 -0.000129379 0.00162207)
(0.111461 -0.000162003 0.0016609)
(0.111864 -0.000182356 0.00168832)
(0.112256 -0.000189343 0.00170775)
(0.112634 -0.000184042 0.00171854)
(0.112996 -0.000169193 0.00171898)
(0.113341 -0.000147036 0.00170946)
(0.11367 -0.000119641 0.00169231)
(0.113983 -8.78711e-05 0.00167041)
(0.114284 -5.35529e-05 0.00164573)
(0.0872589 -0.000168075 0.00122511)
(0.0866949 -0.000339958 0.00123929)
(0.0862859 -0.00042886 0.00121492)
(0.0858535 -0.000467567 0.00122074)
(0.0853885 -0.000453864 0.00125472)
(0.0848937 -0.000400343 0.00129719)
(0.0843667 -0.00032804 0.00133595)
(0.0838004 -0.00025326 0.00136855)
(0.0831837 -0.000184678 0.00139594)
(0.0825246 -0.000124525 0.00141714)
(0.0818279 -7.18788e-05 0.00143023)
(0.0810973 -2.32732e-05 0.00143589)
(0.102957 8.35581e-05 0.00127407)
(0.103155 -6.01254e-05 0.00133863)
(0.103328 -0.000162579 0.00134699)
(0.103516 -0.00024226 0.00134473)
(0.103697 -0.000297618 0.0013545)
(0.103868 -0.000324161 0.00137658)
(0.104027 -0.000326129 0.00140709)
(0.10417 -0.000314571 0.00143135)
(0.104302 -0.000291938 0.0014483)
(0.104415 -0.000256413 0.00146629)
(0.104508 -0.000212133 0.00148361)
(0.104581 -0.000163742 0.00149837)
(0.109009 0.000363307 0.00114969)
(0.109404 0.000306234 0.00119248)
(0.10978 0.000266384 0.00121046)
(0.110191 0.00023335 0.00121331)
(0.110614 0.000201775 0.00121682)
(0.111031 0.000172825 0.0012249)
(0.111441 0.000148442 0.00123688)
(0.111842 0.00013103 0.00125074)
(0.112236 0.000122171 0.00126482)
(0.112618 0.0001214 0.00127881)
(0.112989 0.000127042 0.00129236)
(0.113349 0.000137319 0.00130464)
(0.112368 0.000563077 0.000832028)
(0.112852 0.000566067 0.000844417)
(0.113314 0.000564342 0.0008492)
(0.113818 0.000558333 0.000845735)
(0.114338 0.00054741 0.000838927)
(0.114856 0.000532163 0.000831542)
(0.115369 0.000513572 0.000824705)
(0.115874 0.000493275 0.000818788)
(0.116371 0.000473089 0.000814142)
(0.116858 0.000454394 0.000811308)
(0.117334 0.000437928 0.000810394)
(0.117801 0.000423816 0.000810878)
(0.114168 0.000607778 0.00041735)
(0.114711 0.000636297 0.000425491)
(0.115226 0.000652586 0.000428804)
(0.11578 0.000659514 0.000426824)
(0.11635 0.000660848 0.000422094)
(0.116917 0.000657107 0.000415343)
(0.117478 0.000649175 0.000407656)
(0.118034 0.000637826 0.000399851)
(0.118581 0.00062373 0.000392369)
(0.119118 0.000607211 0.000385164)
(0.119644 0.000589115 0.000378409)
(0.12016 0.000570993 0.000372784)
(0.114716 0.000544666 -7.32634e-05)
(0.115284 0.000564345 -7.58921e-05)
(0.115821 0.000576054 -7.64002e-05)
(0.116394 0.00057843 -7.59062e-05)
(0.116983 0.000576809 -7.51891e-05)
(0.117567 0.000575489 -7.47881e-05)
(0.118145 0.00057245 -7.43829e-05)
(0.118718 0.000566648 -7.3727e-05)
(0.119283 0.000558782 -7.28157e-05)
(0.119838 0.000549593 -7.17067e-05)
(0.120383 0.000539688 -7.04858e-05)
(0.120917 0.000529474 -6.91937e-05)
(0.114168 0.000417696 -0.000608029)
(0.114711 0.00042586 -0.000636384)
(0.115226 0.000429223 -0.0006525)
(0.11578 0.000427292 -0.00065933)
(0.11635 0.000422577 -0.000660638)
(0.116917 0.000415805 -0.000656906)
(0.117478 0.000408086 -0.000649026)
(0.118034 0.000400238 -0.000637741)
(0.118581 0.000392721 -0.000623716)
(0.119118 0.000385543 -0.000607357)
(0.119644 0.000378757 -0.000589372)
(0.12016 0.000372975 -0.000571295)
(0.112532 0.000327339 -0.00115936)
(0.113001 0.000320808 -0.00122528)
(0.113447 0.000315961 -0.00127329)
(0.113936 0.000309619 -0.00130354)
(0.114442 0.000299645 -0.00131811)
(0.114944 0.000285973 -0.0013186)
(0.115437 0.000269862 -0.00130621)
(0.11592 0.000253089 -0.00128267)
(0.11639 0.000237259 -0.0012504)
(0.116847 0.000223329 -0.00121263)
(0.117293 0.000211548 -0.00117259)
(0.117729 0.000201998 -0.00113236)
(0.109565 0.000359395 -0.00160194)
(0.109911 0.00036538 -0.00174252)
(0.110257 0.000378632 -0.00186145)
(0.110634 0.000379365 -0.0019411)
(0.111007 0.000361254 -0.00198433)
(0.111351 0.000325514 -0.00199585)
(0.111666 0.000282908 -0.00198396)
(0.111959 0.000237677 -0.00194873)
(0.112231 0.000193131 -0.00189853)
(0.112486 0.000151723 -0.00183906)
(0.112732 0.000113887 -0.00177653)
(0.10406 0.000558895 -0.00182066)
(0.104317 0.000625955 -0.0020702)
(0.104498 0.00068263 -0.00222071)
(0.104607 0.000689992 -0.00228658)
(0.104624 0.000649055 -0.0023081)
(0.104553 0.000575959 -0.0022992)
(0.104419 0.000483378 -0.00226317)
(0.104236 0.000382029 -0.00219863)
(0.104031 0.000287014 -0.00211071)
(0.103816 0.000198132 -0.00202328)
(0.103602 0.000120034 -0.00193948)
(0.091162 0.000923122 -0.00171739)
(0.090317 0.00113184 -0.00204567)
(0.0893988 0.00113135 -0.00222584)
(0.0882767 0.00102899 -0.00226834)
(0.0870243 0.000898986 -0.00224313)
(0.0857112 0.000761278 -0.00218921)
(0.0843762 0.000619113 -0.00212171)
(0.0830476 0.000482754 -0.00204559)
(0.0817413 0.000359624 -0.00196311)
(0.0804805 0.000248034 -0.00187784)
(0.0792754 0.000155727 -0.00179187)
(0.0791404 0.000276741 0.000514488)
(0.0789268 0.000144163 0.000602066)
(0.0787974 5.09672e-06 0.000613464)
(0.0786188 -9.68321e-05 0.000625945)
(0.0783682 -0.000128864 0.000683874)
(0.0780794 -0.000115666 0.000766309)
(0.0777344 -8.41025e-05 0.000851577)
(0.0773284 -5.04262e-05 0.000928366)
(0.0768653 -2.1569e-05 0.000992632)
(0.0763511 2.8609e-06 0.0010442)
(0.075787 2.34574e-05 0.00108169)
(0.0751794 4.61848e-05 0.0011103)
(0.0981264 0.000491276 0.000540284)
(0.0983748 0.000434598 0.000659486)
(0.0986166 0.000336813 0.000708837)
(0.0988641 0.000238556 0.000725664)
(0.0990943 0.000162492 0.000759508)
(0.099308 9.86559e-05 0.000796553)
(0.0995211 4.70218e-05 0.000833222)
(0.0997299 1.43541e-05 0.000877892)
(0.0999256 -1.80108e-06 0.000925776)
(0.100104 -5.01039e-06 0.000972527)
(0.100264 4.32148e-07 0.00101547)
(0.100397 1.03608e-05 0.00105321)
(0.105868 0.000830924 0.00071086)
(0.106173 0.000845039 0.000687657)
(0.106521 0.000857001 0.000680803)
(0.10693 0.000838208 0.000670822)
(0.107348 0.000793934 0.000666434)
(0.107748 0.000735792 0.000671589)
(0.108137 0.000673786 0.000686005)
(0.108519 0.000615589 0.000709644)
(0.108894 0.000565714 0.000740477)
(0.109263 0.000524989 0.000775194)
(0.109627 0.000492869 0.000811333)
(0.109984 0.000466723 0.000846238)
(0.110247 0.0010933 0.000590332)
(0.110626 0.00114426 0.000552729)
(0.111018 0.00119227 0.000532337)
(0.111473 0.00121684 0.000514509)
(0.111948 0.00121535 0.000494927)
(0.112415 0.00119224 0.000475252)
(0.112869 0.001152 0.000458052)
(0.11331 0.00110194 0.000446286)
(0.113741 0.00104766 0.000440847)
(0.114162 0.00099367 0.00044133)
(0.114576 0.000942526 0.000446553)
(0.114984 0.000894817 0.000455081)
(0.112533 0.0011592 0.000327084)
(0.113001 0.00122547 0.000320672)
(0.113447 0.00127367 0.000315888)
(0.113936 0.00130397 0.000309555)
(0.114442 0.00131848 0.000299544)
(0.114944 0.00131885 0.000285806)
(0.115436 0.00130629 0.00026964)
(0.115919 0.00128258 0.000252839)
(0.116389 0.00125021 0.000237009)
(0.116846 0.00121239 0.000223104)
(0.117291 0.0011724 0.000211447)
(0.117727 0.00113206 0.000201972)
(0.113164 0.00105054 -7.63637e-05)
(0.113673 0.00110018 -6.68691e-05)
(0.114151 0.00113012 -5.706e-05)
(0.114662 0.00114515 -4.83905e-05)
(0.115187 0.00115283 -4.16274e-05)
(0.115709 0.0011551 -3.72799e-05)
(0.116225 0.00115243 -3.54623e-05)
(0.116733 0.00114471 -3.60007e-05)
(0.117232 0.00113225 -3.85359e-05)
(0.117718 0.00111644 -4.28134e-05)
(0.118192 0.00109871 -4.86971e-05)
(0.118656 0.00107979 -5.57306e-05)
(0.112368 0.000832377 -0.000563142)
(0.112851 0.000844911 -0.000566013)
(0.113314 0.000849855 -0.000564165)
(0.113817 0.000846474 -0.00055808)
(0.114338 0.000839665 -0.000547158)
(0.114856 0.000832225 -0.000531973)
(0.115368 0.000825324 -0.00051347)
(0.115874 0.000819366 -0.000493252)
(0.11637 0.000814716 -0.000473119)
(0.116857 0.000811909 -0.00045448)
(0.117334 0.000810982 -0.000438027)
(0.117801 0.000811408 -0.000424031)
(0.110247 0.000590815 -0.00109326)
(0.110625 0.000553348 -0.00114394)
(0.111018 0.000533064 -0.00119182)
(0.111473 0.00051519 -0.00121635)
(0.111948 0.000495499 -0.00121492)
(0.112415 0.000475704 -0.001192)
(0.112869 0.000458394 -0.00115197)
(0.113311 0.000446523 -0.00110206)
(0.113742 0.00044108 -0.00104785)
(0.114163 0.000441626 -0.00099393)
(0.114577 0.000446751 -0.000942619)
(0.114986 0.000455337 -0.000895123)
(0.10653 0.000488384 -0.00152542)
(0.106825 0.00045017 -0.0017299)
(0.107147 0.000418788 -0.00188639)
(0.107503 0.000371531 -0.00195891)
(0.107834 0.000313428 -0.00196856)
(0.10812 0.000252589 -0.00193099)
(0.10837 0.000197017 -0.00185991)
(0.108598 0.000162487 -0.00177079)
(0.108817 0.000133907 -0.00167549)
(0.109032 0.000118572 -0.00158248)
(0.109247 0.000112785 -0.00149528)
(0.100214 0.000711808 -0.00182126)
(0.100525 0.000758881 -0.00227642)
(0.100658 0.000694025 -0.0024785)
(0.10063 0.000563861 -0.00248637)
(0.100445 0.000416893 -0.00242852)
(0.100151 0.00027379 -0.00231735)
(0.0998156 0.000146715 -0.00215966)
(0.0994789 4.82992e-05 -0.00199352)
(0.0991574 -2.18064e-05 -0.00184843)
(0.0988617 -7.14655e-05 -0.00171131)
(0.0985949 -9.6147e-05 -0.00158908)
(0.086863 0.00133873 -0.0019038)
(0.0855312 0.00142286 -0.00251606)
(0.0839867 0.00125662 -0.00261686)
(0.0821567 0.00101758 -0.00254394)
(0.0802323 0.000769251 -0.00241827)
(0.0783576 0.000538711 -0.00226274)
(0.0765903 0.000357828 -0.00209779)
(0.0749579 0.000226102 -0.00193429)
(0.0734676 0.000138568 -0.00177848)
(0.0721196 7.73767e-05 -0.00163684)
(0.0709042 4.02819e-05 -0.00150802)
(0.0672274 0.000781134 -0.00048696)
(0.0674282 0.000734856 -0.000233268)
(0.0674572 0.000409446 -8.13496e-05)
(0.0672415 0.000255191 8.08748e-05)
(0.0669241 0.000230986 0.000256704)
(0.066587 0.000234082 0.000405134)
(0.0662227 0.000238152 0.000518942)
(0.0658155 0.000246886 0.000607583)
(0.0653688 0.0002506 0.000672451)
(0.0648932 0.000245627 0.000716359)
(0.0643844 0.000237136 0.000745165)
(0.0638705 0.000237484 0.000770156)
(0.0907287 0.000806468 -0.000122526)
(0.0910274 0.00103813 1.50107e-05)
(0.0912713 0.000974464 8.16502e-05)
(0.0914234 0.000818433 0.000112792)
(0.091534 0.000678449 0.00016065)
(0.0916426 0.000574113 0.000225939)
(0.0917481 0.000497442 0.000296833)
(0.0918497 0.000441193 0.000365487)
(0.0919462 0.000399526 0.00043019)
(0.0920272 0.000365822 0.000486435)
(0.0920954 0.000346042 0.00054054)
(0.0921363 0.000321229 0.00057604)
(0.100722 0.00124558 0.000431739)
(0.101016 0.00150687 0.000387899)
(0.101312 0.00160948 0.000318179)
(0.101622 0.00159196 0.000252498)
(0.101897 0.00151328 0.000205915)
(0.10213 0.00140819 0.000188092)
(0.102341 0.00129379 0.000195132)
(0.102543 0.00118823 0.000219671)
(0.102748 0.00109419 0.000253926)
(0.102957 0.00101448 0.000295182)
(0.103175 0.000948721 0.000340103)
(0.103394 0.000890675 0.00038267)
(0.10653 0.00152541 0.000487958)
(0.106824 0.00173061 0.000450051)
(0.107146 0.00188737 0.000418798)
(0.107501 0.00195969 0.000371489)
(0.107831 0.00196888 0.000313127)
(0.108117 0.00193068 0.000252028)
(0.108367 0.0018591 0.000196393)
(0.108594 0.00176972 0.000161922)
(0.108813 0.00167448 0.000133425)
(0.109027 0.00158139 0.00011801)
(0.109243 0.00149521 0.000112878)
(0.109465 0.00141455 0.000113633)
(0.109565 0.00160193 0.000359486)
(0.10991 0.00174307 0.000365924)
(0.110257 0.00186205 0.000379302)
(0.110633 0.00194148 0.000379884)
(0.111005 0.0019844 0.000361441)
(0.111349 0.00199556 0.000325304)
(0.111664 0.00198337 0.000282462)
(0.111956 0.00194785 0.000237116)
(0.112228 0.00189757 0.000192538)
(0.112482 0.00183812 0.000151184)
(0.112727 0.00177606 0.000113715)
(0.112967 0.00171328 7.95841e-05)
(0.110276 0.00147051 3.86088e-05)
(0.110685 0.00156324 8.78005e-05)
(0.111061 0.00162268 0.000129889)
(0.111459 0.00166143 0.000162559)
(0.111862 0.00168869 0.000182782)
(0.112254 0.00170806 0.000189537)
(0.112631 0.00171881 0.000184025)
(0.112993 0.00171936 0.000169018)
(0.113338 0.00171005 0.000146699)
(0.113666 0.00169309 0.000119163)
(0.113979 0.00167133 8.72776e-05)
(0.11428 0.00164661 5.2829e-05)
(0.109008 0.00114971 -0.000363329)
(0.109403 0.00119261 -0.000306266)
(0.10978 0.00121092 -0.000266531)
(0.110191 0.00121396 -0.000233525)
(0.110613 0.00121747 -0.000201909)
(0.11103 0.00122546 -0.000172875)
(0.111439 0.00123738 -0.000148425)
(0.111841 0.00125126 -0.000130991)
(0.112234 0.00126543 -0.000122138)
(0.112617 0.00127953 -0.000121431)
(0.112988 0.00129313 -0.000127072)
(0.113348 0.00130539 -0.000137586)
(0.105867 0.00071165 -0.000831373)
(0.106172 0.000688874 -0.00084557)
(0.106519 0.000681916 -0.00085728)
(0.106928 0.000671641 -0.000838237)
(0.107346 0.000666959 -0.000793906)
(0.107747 0.000671865 -0.00073577)
(0.108136 0.000686131 -0.00067377)
(0.108518 0.000709724 -0.000615555)
(0.108893 0.000740593 -0.000565668)
(0.109262 0.000775525 -0.000525135)
(0.109626 0.000811543 -0.000492675)
(0.109984 0.000846803 -0.000467256)
(0.100721 0.00043242 -0.00124595)
(0.101017 0.000388967 -0.00150723)
(0.101312 0.000319478 -0.00160994)
(0.101623 0.000253648 -0.00159224)
(0.101898 0.000206817 -0.00151362)
(0.102131 0.00018855 -0.00140847)
(0.102342 0.000195181 -0.00129391)
(0.102545 0.000219568 -0.00118818)
(0.102749 0.000253742 -0.00109407)
(0.102959 0.000295492 -0.0010149)
(0.103175 0.000339447 -0.000947776)
(0.0925982 0.000709095 -0.00175182)
(0.0929867 0.000715673 -0.00238381)
(0.0929976 0.000450243 -0.00244694)
(0.0927096 0.000181249 -0.00223766)
(0.0922854 -4.12854e-06 -0.00197957)
(0.0918599 -0.000111714 -0.00170031)
(0.091468 -0.000156664 -0.00145698)
(0.0911224 -0.000154415 -0.00125655)
(0.0908314 -0.000134859 -0.00110244)
(0.0905815 -0.000104452 -0.000986469)
(0.0903636 -6.78802e-05 -0.000894124)
(0.0771861 0.00142187 -0.00214606)
(0.0747709 0.00138284 -0.00283445)
(0.0721669 0.00101677 -0.00266756)
(0.0694729 0.000605117 -0.00239352)
(0.0670564 0.00036223 -0.00210034)
(0.0650439 0.000219486 -0.00181414)
(0.0634078 0.000135965 -0.00155479)
(0.0620659 0.000103755 -0.00133446)
(0.0609424 9.94595e-05 -0.00114598)
(0.0599694 0.000100697 -0.0010009)
(0.059107 0.000104625 -0.000894544)
(0.052038 0.00123019 -0.000438759)
(0.0514455 0.00114786 -0.000421857)
(0.0510344 0.00041866 -0.000500665)
(0.0504364 7.35952e-05 -0.000400302)
(0.0499745 5.38707e-05 -0.000223991)
(0.0495836 5.03021e-05 -6.37103e-05)
(0.049164 5.01399e-05 4.36391e-05)
(0.0486917 5.99304e-05 0.000114627)
(0.0481804 7.47214e-05 0.000162173)
(0.0476812 8.83065e-05 0.000192293)
(0.0471728 9.98309e-05 0.000212366)
(0.0466815 0.00010981 0.000224877)
(0.0792337 0.00151199 0.000145967)
(0.0794676 0.00198278 0.000154475)
(0.0792404 0.00157984 -0.000149065)
(0.0786633 0.00111546 -0.000300599)
(0.0781097 0.000805453 -0.000297787)
(0.0776736 0.000590239 -0.000257689)
(0.0773145 0.000436074 -0.000198714)
(0.0769938 0.000320925 -0.000141517)
(0.0766973 0.000254937 -8.47571e-05)
(0.0763906 0.000223724 -2.96218e-05)
(0.0760632 0.000203751 1.78392e-05)
(0.0757351 0.000180333 4.5493e-05)
(0.0925996 0.00175249 0.000709428)
(0.0929877 0.00238615 0.00071708)
(0.0929966 0.00244943 0.000451647)
(0.0927067 0.00223923 0.000181884)
(0.0922821 0.00197871 -4.57586e-06)
(0.0918571 0.00169822 -0.000112712)
(0.0914659 0.0014546 -0.00015756)
(0.0911212 0.00125455 -0.000155098)
(0.0908311 0.00110112 -0.000135391)
(0.0905817 0.000984431 -0.000105278)
(0.0903654 0.000896304 -6.7087e-05)
(0.0901729 0.000822874 -3.02725e-05)
(0.100214 0.00182163 0.000711693)
(0.100523 0.00227783 0.000759487)
(0.100654 0.00247955 0.000694859)
(0.100624 0.00248622 0.000564365)
(0.100437 0.00242812 0.000416829)
(0.100143 0.00231576 0.000273058)
(0.0998082 0.00215724 0.000145803)
(0.0994722 0.00199133 4.75306e-05)
(0.0991516 0.00184654 -2.23476e-05)
(0.0988565 0.0017095 -7.19046e-05)
(0.098591 0.00158916 -9.58022e-05)
(0.0983588 0.001482 -0.000108771)
(0.10406 0.00182063 0.00055884)
(0.104316 0.00207018 0.00062632)
(0.104497 0.00222032 0.000683216)
(0.104605 0.00228584 0.000690388)
(0.104621 0.00230736 0.000648893)
(0.104549 0.00229847 0.000575326)
(0.104414 0.00226231 0.000482483)
(0.104232 0.00219733 0.000381103)
(0.104026 0.00210945 0.00028624)
(0.103811 0.0020223 0.000197589)
(0.103598 0.00193877 0.000119922)
(0.103393 0.00185756 5.27833e-05)
(0.104925 0.00168054 0.000236283)
(0.105127 0.00178807 0.000343319)
(0.105297 0.0018422 0.000449107)
(0.105447 0.00187477 0.000527872)
(0.105569 0.00189834 0.000565109)
(0.105654 0.00192204 0.000559276)
(0.1057 0.00193956 0.000523905)
(0.105707 0.00193801 0.000478045)
(0.105686 0.00191608 0.000422228)
(0.105645 0.00188572 0.00035374)
(0.105587 0.0018535 0.000282075)
(0.105517 0.00181908 0.000210631)
(0.102956 0.00127342 -8.36842e-05)
(0.103154 0.00133793 5.99622e-05)
(0.103327 0.00134656 0.00016229)
(0.103514 0.00134443 0.000241929)
(0.103696 0.00135428 0.000297374)
(0.103867 0.00137654 0.000324023)
(0.104026 0.00140738 0.000326074)
(0.10417 0.00143194 0.000314576)
(0.104301 0.00144911 0.000291965)
(0.104415 0.00146723 0.000256325)
(0.104507 0.00148462 0.000212097)
(0.10458 0.00149936 0.000163315)
(0.0981253 0.000540529 -0.000491803)
(0.0983732 0.000660065 -0.000435482)
(0.0986147 0.000709072 -0.0003374)
(0.0988623 0.000725653 -0.000238863)
(0.0990926 0.000759414 -0.000162606)
(0.0993066 0.00079653 -9.86665e-05)
(0.0995199 0.000833375 -4.69755e-05)
(0.0997288 0.000878219 -1.42688e-05)
(0.0999245 0.00092622 1.87598e-06)
(0.100104 0.000973147 4.82046e-06)
(0.100262 0.00101587 -3.02822e-07)
(0.100398 0.00105379 -1.07484e-05)
(0.0907277 -0.000121453 -0.000807895)
(0.0910253 1.71882e-05 -0.00104084)
(0.0912689 8.35057e-05 -0.000977102)
(0.0914207 0.000113975 -0.000820468)
(0.0915313 0.000160922 -0.000679334)
(0.0916401 0.000225569 -0.000573954)
(0.091746 0.000296241 -0.000496656)
(0.091848 0.000365034 -0.000440258)
(0.0919446 0.000429475 -0.000398237)
(0.0920264 0.000487679 -0.000366482)
(0.0920914 0.000537246 -0.00034222)
(0.0792313 0.000146227 -0.00151293)
(0.079463 0.000154278 -0.00198351)
(0.0792336 -0.000149534 -0.00157981)
(0.0786548 -0.000301347 -0.00111557)
(0.0781011 -0.000298356 -0.000805706)
(0.0776652 -0.000258019 -0.000590381)
(0.0773065 -0.000198964 -0.000435783)
(0.0769865 -0.000141738 -0.000320176)
(0.0766912 -8.50097e-05 -0.000253874)
(0.076383 -2.78383e-05 -0.000225342)
(0.0760605 1.57626e-05 -0.000200217)
(0.0600059 0.000608133 -0.00168442)
(0.0565533 0.000794675 -0.00229044)
(0.0536374 0.000478971 -0.00197249)
(0.0511235 0.000216298 -0.00145543)
(0.0493306 4.68984e-05 -0.000935189)
(0.0481427 1.17715e-05 -0.000649636)
(0.0472448 2.87796e-05 -0.000503737)
(0.0464716 5.31175e-05 -0.000413947)
(0.045769 6.40406e-05 -0.000340007)
(0.0451486 6.28641e-05 -0.000279747)
(0.0445824 5.88239e-05 -0.000230429)
(0.0391483 0.00135855 0.000251734)
(0.0355061 0.000802638 -0.000208722)
(0.0337189 0.000276081 -0.000320084)
(0.032409 0.000145135 -0.000226357)
(0.0315844 0.000109544 -0.000126971)
(0.0310425 7.50214e-05 -5.45025e-05)
(0.0305613 5.02824e-05 -7.7846e-06)
(0.0300985 3.66997e-05 1.87024e-05)
(0.0296479 3.11828e-05 2.83323e-05)
(0.0292309 3.10095e-05 3.29144e-05)
(0.0288294 3.24434e-05 3.44883e-05)
(0.0284544 3.3696e-05 3.31068e-05)
(0.0600085 0.00168454 0.000608641)
(0.0565555 0.00229113 0.00079629)
(0.0536389 0.00197251 0.000480959)
(0.0511258 0.00145534 0.000217593)
(0.049334 0.000934453 4.7134e-05)
(0.0481477 0.000648783 1.12673e-05)
(0.0472511 0.000502991 2.78165e-05)
(0.0464794 0.000413413 5.21011e-05)
(0.0457769 0.000339926 6.32368e-05)
(0.0451595 0.000279488 6.24063e-05)
(0.0445847 0.000230729 5.84031e-05)
(0.0440594 0.000193814 5.49207e-05)
(0.0771896 0.00214526 0.00142186)
(0.0747776 0.00283208 0.00138244)
(0.0721773 0.0026646 0.00101611)
(0.0694878 0.00239075 0.000604647)
(0.0670735 0.00209831 0.000361979)
(0.065062 0.001813 0.000219244)
(0.0634259 0.00155438 0.000135639)
(0.0620838 0.00133443 0.000103489)
(0.0609591 0.00114624 9.92711e-05)
(0.0599866 0.00100187 0.000101286)
(0.0591194 0.00089419 0.000103883)
(0.0583349 0.000821654 0.000113817)
(0.086866 0.00190228 0.00133745)
(0.0855369 0.00251156 0.00142054)
(0.0839952 0.00261189 0.00125405)
(0.0821685 0.00253935 0.00101505)
(0.0802471 0.00241477 0.000767428)
(0.0783744 0.00226072 0.000538045)
(0.0766082 0.00209703 0.00035805)
(0.0749767 0.0019343 0.000226829)
(0.0734867 0.0017788 0.000139485)
(0.0721391 0.00163745 7.85557e-05)
(0.0709223 0.00150813 4.07292e-05)
(0.06982 0.00139534 2.20417e-05)
(0.091164 0.00171633 0.000921098)
(0.0903201 0.002043 0.00112868)
(0.0894028 0.00222215 0.00112797)
(0.0882816 0.00226464 0.00102578)
(0.0870302 0.00224002 0.000896424)
(0.0857181 0.00218704 0.000759782)
(0.0843843 0.0021203 0.000618571)
(0.0830566 0.00204476 0.000483005)
(0.081751 0.00196263 0.000360419)
(0.0804911 0.00187759 0.000249221)
(0.0792865 0.00179172 0.00015654)
(0.0781418 0.00170649 8.70358e-05)
(0.0912089 0.00152784 0.000455827)
(0.0905358 0.0016497 0.000656508)
(0.0899102 0.00173656 0.000763013)
(0.0891871 0.00179221 0.000769602)
(0.0883966 0.00181748 0.000710741)
(0.0875571 0.00181933 0.000625064)
(0.0866832 0.00180672 0.000537134)
(0.0857805 0.00178894 0.000450493)
(0.0848532 0.00176884 0.000364497)
(0.0839058 0.00174534 0.000281152)
(0.082949 0.00171686 0.000205845)
(0.0819922 0.00168202 0.000135385)
(0.0872576 0.00122485 0.000167596)
(0.0866931 0.0012389 0.00033963)
(0.0862837 0.00121473 0.000428604)
(0.0858509 0.00122109 0.000467427)
(0.0853855 0.00125547 0.000453659)
(0.0848903 0.00129804 0.000400039)
(0.0843629 0.00133667 0.000327755)
(0.0837963 0.00136914 0.000253063)
(0.0831794 0.00139642 0.000184549)
(0.0825202 0.00141751 0.000124508)
(0.0818236 0.00143056 7.17715e-05)
(0.081093 0.001436 2.3231e-05)
(0.0791393 0.000513898 -0.000276367)
(0.0789263 0.000601108 -0.000143349)
(0.078797 0.000612702 -4.34502e-06)
(0.0786184 0.000625759 9.72861e-05)
(0.0783676 0.000684291 0.000129016)
(0.0780786 0.000767185 0.000115533)
(0.0777331 0.000852693 8.37589e-05)
(0.0773265 0.000929515 4.99849e-05)
(0.076863 0.000993732 2.10085e-05)
(0.0763482 0.00104485 -3.04727e-06)
(0.0757842 0.00108275 -2.46678e-05)
(0.0751751 0.00110977 -4.54505e-05)
(0.0672267 -0.000487396 -0.000781181)
(0.0674289 -0.000233627 -0.000735213)
(0.0674583 -8.13544e-05 -0.000410423)
(0.0672431 8.0975e-05 -0.0002561)
(0.0669259 0.000256963 -0.00023154)
(0.0665885 0.000405677 -0.000234324)
(0.0662236 0.000519728 -0.000238308)
(0.0658157 0.000608467 -0.000247066)
(0.0653688 0.000673437 -0.000250956)
(0.0648908 0.000716316 -0.000244946)
(0.0643878 0.000746419 -0.000238603)
(0.0520375 -0.000438901 -0.00123098)
(0.0514458 -0.000422246 -0.00114933)
(0.0510344 -0.000501187 -0.000420387)
(0.0504354 -0.000400702 -7.5289e-05)
(0.0499729 -0.000224156 -5.46683e-05)
(0.0495816 -6.36432e-05 -5.0476e-05)
(0.0491617 4.39232e-05 -4.98674e-05)
(0.0486886 0.000115052 -5.94841e-05)
(0.0481776 0.000162462 -7.41641e-05)
(0.0476751 0.000192834 -8.79021e-05)
(0.0471755 0.000212131 -9.93219e-05)
(0.0391481 0.000251689 -0.00135868)
(0.0355059 -0.000209405 -0.000803469)
(0.0337188 -0.000320841 -0.000277049)
(0.0324084 -0.000226975 -0.000145685)
(0.0315832 -0.000127261 -0.000109842)
(0.0310401 -5.4484e-05 -7.50786e-05)
(0.0305581 -7.56549e-06 -5.01347e-05)
(0.0300944 1.90014e-05 -3.64797e-05)
(0.0296441 2.86069e-05 -3.09116e-05)
(0.0292243 3.32261e-05 -3.09299e-05)
(0.0288287 3.44381e-05 -3.19799e-05)
)
;

boundaryField
{
    inlet
    {
        type            fixedValue;
        value           nonuniform List<vector> 0();
    }
    ami1
    {
        type            cyclicAMI;
        value           nonuniform List<vector> 0();
    }
    walls
    {
        type            noSlip;
    }
    ami2
    {
        type            cyclicAMI;
        value           nonuniform List<vector> 
61
(
(0.0917368 -0.000793273 0.00157653)
(0.103898 -0.000535361 0.00171413)
(0.10936 -0.000355678 0.00155783)
(0.091673 -0.000342951 0.00143436)
(0.104804 -0.000187537 0.00159816)
(0.110014 -6.03349e-06 0.00143348)
(0.0876253 -4.38517e-05 0.0011494)
(0.102799 0.000168113 0.00121815)
(0.108741 0.000405455 0.00113795)
(0.112044 0.000570972 0.000832016)
(0.113803 0.000603235 0.000416115)
(0.114338 0.000536638 -7.37404e-05)
(0.113803 0.000416457 -0.000603505)
(0.112221 0.00032805 -0.00113966)
(0.109359 0.000355371 -0.00155862)
(0.103897 0.000534959 -0.00171462)
(0.091736 0.000793844 -0.00157665)
(0.0791808 0.000385857 0.000492866)
(0.0979154 0.000540589 0.000532967)
(0.105642 0.000852874 0.000739925)
(0.109994 0.00108975 0.00061281)
(0.112221 0.00113942 0.000327782)
(0.112823 0.00103554 -8.63231e-05)
(0.112044 0.000832351 -0.000571085)
(0.109993 0.000613247 -0.00108985)
(0.106337 0.000514354 -0.00147516)
(0.100003 0.000667219 -0.00165707)
(0.0877676 0.00113699 -0.00165675)
(0.0669672 0.00060611 -0.000487562)
(0.0906059 0.000633203 -0.000181908)
(0.100508 0.00115789 0.00045877)
(0.106337 0.00147497 0.000513899)
(0.109359 0.00155846 0.000355286)
(0.110013 0.00143365 5.94792e-06)
(0.10874 0.00113803 -0.000405546)
(0.105642 0.000740495 -0.000853235)
(0.100507 0.000459338 -0.00115828)
(0.0923429 0.000614945 -0.00145705)
(0.0789218 0.00117758 -0.00171059)
(0.0532482 0.000702301 -0.000593981)
(0.0791233 0.00104607 -3.37655e-05)
(0.0923443 0.00145712 0.00061489)
(0.100003 0.001657 0.00066688)
(0.103897 0.00171444 0.000534688)
(0.104804 0.00159792 0.000187023)
(0.102798 0.0012177 -0.000168304)
(0.0979145 0.000533016 -0.000540921)
(0.090605 -0.000181375 -0.000634045)
(0.0791213 -3.36212e-05 -0.0010467)
(0.0640967 0.000508335 -0.00131053)
(0.0455351 0.000838309 -0.000122881)
(0.0640993 0.00131041 0.000508572)
(0.0789249 0.0017099 0.00117736)
(0.0877701 0.00165568 0.00113593)
(0.0917375 0.00157596 0.000792196)
(0.0916726 0.00143403 0.000341858)
(0.0876242 0.00114924 4.33304e-05)
(0.0791798 0.000492494 -0.000385733)
(0.0669665 -0.000487872 -0.000606202)
(0.0532475 -0.000594132 -0.000702777)
(0.0455344 -0.000123002 -0.00083846)
)
;
    }
    outlet
    {
        type            zeroGradient;
    }
    procBoundary1to0
    {
        type            processor;
        value           nonuniform List<vector> 
138
(
(0.0882811 -0.00102971 0.00226936)
(0.0882811 -0.00102971 0.00226936)
(0.0870301 -0.000900034 0.00224478)
(0.0857187 -0.000762053 0.0021905)
(0.084384 -0.000619165 0.00212235)
(0.083055 -0.000482181 0.00204553)
(0.0817481 -0.000358503 0.00196239)
(0.0804872 -0.00024638 0.00187668)
(0.0792819 -0.000153731 0.00179041)
(0.0781368 -8.45549e-05 0.00170502)
(0.104608 -0.000689236 0.00229056)
(0.104608 -0.000689236 0.00229056)
(0.104624 -0.000647754 0.00231021)
(0.104553 -0.000574794 0.0022997)
(0.10442 -0.000482432 0.00226246)
(0.104238 -0.00038128 0.0021967)
(0.104033 -0.000286512 0.00210853)
(0.103818 -0.000197836 0.00202116)
(0.103605 -0.000120166 0.00193746)
(0.1034 -5.30895e-05 0.00185626)
(0.112534 -0.000327354 0.00115824)
(0.113003 -0.000320821 0.00122421)
(0.110638 -0.000378159 0.00194083)
(0.113449 -0.000315758 0.00127219)
(0.110638 -0.000378159 0.00194083)
(0.111011 -0.000360044 0.00198446)
(0.111355 -0.00032476 0.00199599)
(0.11167 -0.000282638 0.00198384)
(0.111963 -0.0002377 0.00194807)
(0.112234 -0.000193381 0.00189746)
(0.112489 -0.000152198 0.00183782)
(0.112734 -0.000114825 0.00177566)
(0.112974 -8.07071e-05 0.00171287)
(0.113164 7.64064e-05 0.00105)
(0.113674 6.70859e-05 0.00109936)
(0.114151 5.73598e-05 0.00112917)
(0.114663 4.86694e-05 0.00114422)
(0.115188 4.17711e-05 0.00115196)
(0.11571 3.7246e-05 0.00115434)
(0.116226 3.52762e-05 0.00115175)
(0.116735 3.57015e-05 0.00114408)
(0.117233 3.81537e-05 0.00113161)
(0.11772 4.23678e-05 0.00111577)
(0.118195 4.82123e-05 0.00109801)
(0.118658 5.51972e-05 0.00107914)
(0.113164 7.64064e-05 0.00105)
(0.113674 6.70859e-05 0.00109936)
(0.114151 5.73598e-05 0.00112917)
(0.114663 4.86694e-05 0.00114422)
(0.115188 4.17711e-05 0.00115196)
(0.11571 3.7246e-05 0.00115434)
(0.116226 3.52762e-05 0.00115175)
(0.116735 3.57015e-05 0.00114408)
(0.117233 3.81537e-05 0.00113161)
(0.11772 4.23678e-05 0.00111577)
(0.118195 4.82123e-05 0.00109801)
(0.118658 5.51972e-05 0.00107914)
(0.114716 7.30157e-05 0.000544101)
(0.115284 7.57222e-05 0.000563607)
(0.115821 7.62937e-05 0.000575196)
(0.116394 7.5841e-05 0.000577565)
(0.116983 7.5122e-05 0.000575957)