/*--------------------------------*- C++ -*----------------------------------*\
| =========                 |                                                 |
| \\      /  F ield         | OpenFOAM: The Open Source CFD Toolbox           |
|  \\    /   O peration     | Version:  2212                                  |
|   \\  /    A nd           | Website:  www.openfoam.com                      |
|    \\/     M anipulation  |                                                 |
\*---------------------------------------------------------------------------*/
FoamFile
{
    version     2.0;
    format      ascii;
    arch        "LSB;label=32;scalar=64";
    class       volScalarField;
    location    "2.1";
    object      epsilon;
}
// * * * * * * * * * * * * * * * * * * * * * * * * * * * * * * * * * * * * * //

dimensions      [0 2 -3 0 0 0 0];

internalField   nonuniform List<scalar> 
6840
(
90.5034
12.1248
4.38869
2.46659
1.63315
1.18307
0.902012
0.720661
0.594583
0.502498
0.432669
0.379277
0.336301
0.299867
0.270169
0.246139
0.226608
0.211034
0.201457
0.192179
58.5856
14.5696
6.08947
3.33295
2.08217
1.40266
0.998646
0.740277
0.565894
0.443909
0.356
0.290898
0.241368
0.202912
0.172984
0.149664
0.131128
0.116231
0.10477
0.0965541
45.0226
13.4729
5.73075
3.07322
1.86022
1.22698
0.873562
0.649761
0.496991
0.389446
0.311248
0.252923
0.20891
0.17512
0.148688
0.127703
0.110868
0.0972191
0.0861315
0.0776935
38.7028
13.0541
5.74336
3.08733
1.88066
1.22749
0.869463
0.645367
0.492571
0.384754
0.306987
0.248997
0.204914
0.170902
0.144283
0.123163
0.106184
0.0923501
0.080989
0.0722621
36.0571
12.8529
5.76645
3.10211
1.89475
1.22669
0.866497
0.64398
0.492248
0.383962
0.305795
0.24792
0.203923
0.169957
0.143352
0.122224
0.105235
0.0914123
0.0801392
0.0718476
36.0571
12.8529
5.76645
3.10212
1.89476
1.22669
0.866507
0.643994
0.492265
0.383985
0.305827
0.247962
0.203981
0.170036
0.143464
0.122384
0.105461
0.0917347
0.0806002
0.0725967
38.7028
13.0541
5.74336
3.08734
1.88067
1.22751
0.869487
0.645397
0.49261
0.384804
0.307059
0.249092
0.205044
0.171083
0.144535
0.123521
0.106699
0.0931013
0.0820603
0.0735522
45.0226
13.4729
5.73075
3.07323
1.86023
1.227
0.873583
0.64979
0.497028
0.389509
0.311327
0.253028
0.209051
0.175316
0.148972
0.128109
0.111455
0.0980791
0.0873958
0.0794159
58.5856
14.5696
6.08947
3.33295
2.08217
1.40267
0.998651
0.740285
0.565903
0.44393
0.356031
0.290947
0.241443
0.203057
0.173195
0.14998
0.131647
0.117165
0.106444
0.0994595
90.5034
12.1248
4.38869
2.46659
1.63315
1.18307
0.902012
0.72066
0.594583
0.502497
0.432671
0.379273
0.336307
0.299858
0.270171
0.246139
0.226607
0.211031
0.20145
0.192168
58.5856
14.5696
6.08947
3.33295
2.08217
1.40267
0.998651
0.740285
0.565903
0.443931
0.356032
0.290948
0.241443
0.203063
0.173195
0.14998
0.131649
0.117169
0.10645
0.0994655
16.5373
9.49238
5.0127
2.8606
1.75746
1.14759
0.786927
0.562044
0.41536
0.315937
0.246319
0.196203
0.159193
0.131212
0.109725
0.0931167
0.0800351
0.0695543
0.0603109
0.0549371
13.6679
8.73671
5.07741
3.05388
1.92223
1.26609
0.869289
0.618631
0.453959
0.342034
0.26365
0.207311
0.165901
0.134846
0.111145
0.092683
0.0781567
0.0666216
0.0571491
0.0497571
12.9054
8.33993
5.07879
3.15547
2.02775
1.35121
0.933541
0.666464
0.489552
0.368603
0.283614
0.222399
0.177342
0.143544
0.117765
0.0977869
0.0820983
0.069628
0.0595916
0.051388
12.6882
8.1544
5.07113
3.20039
2.0794
1.39506
0.967837
0.692729
0.509646
0.384027
0.295517
0.231664
0.184612
0.149284
0.122313
0.101415
0.0849998
0.0719481
0.0614568
0.0529569
12.6882
8.1544
5.07113
3.20039
2.0794
1.39506
0.967835
0.692726
0.509644
0.384024
0.295513
0.231659
0.184606
0.149274
0.122297
0.101399
0.0849819
0.0719269
0.0614319
0.0529215
12.9054
8.33993
5.07879
3.15547
2.02775
1.3512
0.933538
0.666459
0.489548
0.368598
0.283607
0.22239
0.177328
0.14352
0.117735
0.0977553
0.0820614
0.0695838
0.0595351
0.0512274
13.6679
8.73671
5.0774
3.05388
1.92223
1.26609
0.869287
0.618628
0.453956
0.34203
0.263645
0.207305
0.165892
0.134831
0.11112
0.0926576
0.078128
0.0665896
0.0570959
0.049761
16.5373
9.49238
5.0127
2.8606
1.75746
1.14759
0.786927
0.562044
0.41536
0.315937
0.246319
0.196203
0.159193
0.131216
0.109721
0.093116
0.0800359
0.0695556
0.0603134
0.0549435
58.5856
14.5696
6.08947
3.33295
2.08217
1.40266
0.998646
0.740277
0.565893
0.443909
0.355999
0.290898
0.241368
0.202906
0.172985
0.149666
0.13113
0.116233
0.104771
0.0965558
45.0226
13.4729
5.73075
3.07323
1.86023
1.227
0.873584
0.64979
0.497029
0.38951
0.311328
0.253029
0.209052
0.175317
0.148973
0.12811
0.111457
0.098082
0.0873995
0.0794204
13.6679
8.73671
5.0774
3.05388
1.92223
1.26609
0.869287
0.618628
0.453956
0.34203
0.263645
0.207304
0.165892
0.134832
0.111118
0.0926563
0.0781259
0.0665859
0.0570972
0.0497584
11.8601
7.76395
4.99734
3.24076
2.14419
1.45499
1.0141
0.725633
0.532153
0.399146
0.305541
0.238216
0.188818
0.151907
0.123866
0.102227
0.0853069
0.0719136
0.0611639
0.0525595
11.6229
7.60535
5.0103
3.34209
2.26848
1.57142
1.11236
0.804589
0.594205
0.447519
0.343212
0.267636
0.211902
0.170124
0.13833
0.113789
0.0946039
0.079429
0.0672916
0.0574975
11.5726
7.56718
5.02065
3.38345
2.32103
1.62326
1.15829
0.843158
0.625693
0.472852
0.363488
0.283858
0.224911
0.180595
0.146797
0.120673
0.100232
0.0840527
0.0711094
0.0606322
11.5726
7.56718
5.02065
3.38344
2.32103
1.62326
1.15828
0.843155
0.625691
0.47285
0.363485
0.283854
0.224906
0.180587
0.146785
0.120662
0.100219
0.084038
0.0710954
0.0606409
11.6229
7.60535
5.0103
3.34209
2.26848
1.57142
1.11236
0.804586
0.594202
0.447514
0.343207
0.267629
0.211893
0.17011
0.138312
0.11377
0.0945824
0.0794047
0.0672673
0.0575065
11.8601
7.76395
4.99734
3.24076
2.14419
1.45499
1.0141
0.725633
0.532153
0.399146
0.305542
0.238217
0.18882
0.151908
0.123864
0.102227
0.085308
0.0719154
0.0611668
0.052566
13.6679
8.73671
5.07741
3.05388
1.92223
1.26609
0.869289
0.618631
0.453959
0.342034
0.26365
0.207311
0.165902
0.134851
0.11114
0.0926809
0.0781559
0.0666214
0.0571491
0.0497606
45.0226
13.4729
5.73075
3.07322
1.86022
1.22698
0.873562
0.649761
0.496991
0.389446
0.311248
0.252923
0.208909
0.175119
0.14869
0.127705
0.110869
0.0972211
0.0861344
0.0776972
38.7028
13.0541
5.74337
3.08734
1.88067
1.22751
0.869487
0.645398
0.49261
0.384804
0.30706
0.249092
0.205044
0.171082
0.144536
0.123523
0.106701
0.0931036
0.0820635
0.0735565
12.9054
8.33993
5.07879
3.15547
2.02775
1.3512
0.933539
0.666459
0.489548
0.368598
0.283607
0.22239
0.177329
0.143525
0.117731
0.0977531
0.0820598
0.069582
0.0595336
0.0512251
11.6229
7.60535
5.0103
3.34209
2.26848
1.57142
1.11236
0.804586
0.594202
0.447514
0.343207
0.267629
0.211893
0.170111
0.138311
0.113769
0.0945812
0.0794031
0.0672652
0.0575039
11.4933
7.5119
5.02843
3.434
2.3892
1.6928
1.22111
0.896486
0.669455
0.50812
0.391654
0.306283
0.242781
0.194884
0.158277
0.129949
0.107772
0.0902203
0.0761807
0.0647747
11.4757
7.50136
5.04297
3.47002
2.43665
1.74299
1.26863
0.938712
0.705583
0.538335
0.416593
0.326727
0.259498
0.208556
0.169484
0.139166
0.115386
0.0965394
0.0814431
0.0691292
11.4757
7.50136
5.04297
3.47002
2.43665
1.74299
1.26863
0.938711
0.705582
0.538334
0.416592
0.326726
0.259496
0.208554
0.169481
0.139163
0.115382
0.0965354
0.0814382
0.0691235
11.4933
7.5119
5.02843
3.434
2.3892
1.6928
1.22111
0.896486
0.669455
0.508121
0.391654
0.306283
0.242782
0.194885
0.158276
0.129948
0.107772
0.090221
0.0761817
0.0647762
11.6229
7.60535
5.0103
3.34209
2.26848
1.57142
1.11236
0.804589
0.594205
0.447519
0.343213
0.267636
0.211903
0.170125
0.138328
0.113788
0.0946041
0.0794296
0.0672927
0.0574993
12.9054
8.33993
5.07879
3.15547
2.02775
1.35121
0.933541
0.666464
0.489552
0.368603
0.283614
0.222399
0.177342
0.143547
0.117762
0.0977853
0.0820974
0.0696273
0.0595909
0.0513865
38.7028
13.0541
5.74336
3.08733
1.88066
1.22749
0.869463
0.645367
0.492571
0.384754
0.306987
0.248997
0.204915
0.170903
0.144282
0.123163
0.106184
0.0923506
0.0809903
0.0722659
36.0571
12.8529
5.76645
3.10212
1.89476
1.22669
0.866507
0.643994
0.492265
0.383985
0.305827
0.247963
0.203981
0.170036
0.143464
0.122384
0.105462
0.0917357
0.0806012
0.072599
12.6882
8.1544
5.07113
3.20039
2.0794
1.39506
0.967836
0.692726
0.509644
0.384024
0.295514
0.231659
0.184606
0.149276
0.122297
0.101399
0.084982
0.0719271
0.0614322
0.0529214
11.5726
7.56718
5.02065
3.38344
2.32103
1.62326
1.15828
0.843155
0.625691
0.47285
0.363485
0.283854
0.224906
0.180588
0.146785
0.120661
0.100219
0.0840378
0.0710951
0.0606414
11.4757
7.50136
5.04297
3.47002
2.43665
1.74299
1.26863
0.938711
0.705582
0.538334
0.416591
0.326726
0.259496
0.208554
0.16948
0.139163
0.115382
0.0965352
0.0814382
0.0691249
11.4647
7.49683
5.0577
3.50272
2.48038
1.79068
1.31522
0.981304
0.742923
0.570208
0.443348
0.348965
0.277885
0.223733
0.182016
0.149538
0.123999
0.103719
0.0874401
0.0740666
11.4647
7.49683
5.0577
3.50272
2.48038
1.79068
1.31522
0.981304
0.742923
0.570208
0.443348
0.348965
0.277885
0.223733
0.182016
0.149538
0.123999
0.10372
0.0874402
0.0740658
11.4757
7.50136
5.04297
3.47002
2.43665
1.74299
1.26863
0.938712
0.705583
0.538335
0.416593
0.326727
0.259498
0.208557
0.169483
0.139166
0.115386
0.0965392
0.0814431
0.0691298
11.5726
7.56718
5.02065
3.38345
2.32103
1.62326
1.15829
0.843158
0.625693
0.472852
0.363488
0.283858
0.224911
0.180595
0.146797
0.120673
0.100232
0.0840522
0.0711088
0.0606318
12.6882
8.1544
5.07113
3.20039
2.0794
1.39506
0.967837
0.692729
0.509646
0.384027
0.295516
0.231663
0.184611
0.149283
0.122315
0.101416
0.085
0.0719479
0.0614565
0.0529564
36.0571
12.8529
5.76645
3.10211
1.89475
1.22669
0.866497
0.64398
0.492248
0.383962
0.305795
0.247921
0.203925
0.169959
0.143349
0.122222
0.105233
0.0914109
0.0801386
0.0718476
36.0571
12.8529
5.76645
3.10211
1.89475
1.22669
0.866497
0.64398
0.492248
0.383962
0.305795
0.24792
0.203923
0.169956
0.143352
0.122224
0.105235
0.0914119
0.0801383
0.0718465
12.6882
8.1544
5.07113
3.20039
2.0794
1.39506
0.967837
0.692729
0.509646
0.384027
0.295517
0.231664
0.184612
0.149285
0.122313
0.101416
0.0850011
0.07195
0.0614593
0.0529598
11.5726
7.56718
5.02065
3.38345
2.32103
1.62326
1.15829
0.843158
0.625693
0.472853
0.363488
0.283858
0.224912
0.180596
0.146796
0.120674
0.100233
0.084054
0.0711111
0.0606349
11.4757
7.50136
5.04297
3.47002
2.43665
1.74299
1.26863
0.938712
0.705583
0.538335
0.416593
0.326727
0.259498
0.208556
0.169484
0.139166
0.115386
0.0965398
0.0814437
0.0691314
11.4647
7.49683
5.0577
3.50272
2.48038
1.79068
1.31522
0.981304
0.742923
0.570208
0.443348
0.348965
0.277885
0.223732
0.182016
0.149538
0.123999
0.103719
0.0874403
0.0740666
11.4647
7.49683
5.0577
3.50272
2.48038
1.79068
1.31522
0.981304
0.742923
0.570208
0.443348
0.348965
0.277885
0.223733
0.182016
0.149538
0.123999
0.103719
0.0874401
0.0740656
11.4757
7.50136
5.04297
3.47002
2.43665
1.74299
1.26863
0.938711
0.705582
0.538334
0.416591
0.326726
0.259496
0.208554
0.16948
0.139162
0.115382
0.0965346
0.0814375
0.0691236
11.5726
7.56718
5.02065
3.38344
2.32103
1.62326
1.15828
0.843155
0.625691
0.472849
0.363484
0.283853
0.224904
0.180586
0.146787
0.120662
0.100218
0.0840366
0.0710936
0.0606397
12.6882
8.1544
5.07113
3.20039
2.07939
1.39506
0.967835
0.692726
0.509644
0.384024
0.295513
0.231659
0.184604
0.149271
0.122303
0.101402
0.084983
0.0719274
0.0614321
0.0529214
36.0571
12.8529
5.76645
3.10212
1.89476
1.22669
0.866507
0.643994
0.492265
0.383985
0.305827
0.247963
0.203983
0.170039
0.143461
0.122381
0.105459
0.0917329
0.0805988
0.0725963
38.7028
13.0541
5.74336
3.08733
1.88066
1.22749
0.869463
0.645367
0.492571
0.384754
0.306987
0.248997
0.204914
0.170902
0.144283
0.123163
0.106183
0.0923486
0.0809868
0.0722583
12.9054
8.33993
5.07879
3.15547
2.02775
1.35121
0.933541
0.666464
0.489552
0.368603
0.283614
0.2224
0.177342
0.143545
0.117765
0.0977877
0.0820997
0.0696299
0.0595938
0.0513904
11.6229
7.60535
5.0103
3.34209
2.26848
1.57142
1.11236
0.804589
0.594205
0.447519
0.343213
0.267636
0.211902
0.170124
0.13833
0.113789
0.0946051
0.0794306
0.0672936
0.0575011
11.4933
7.5119
5.02843
3.434
2.3892
1.6928
1.22111
0.896486
0.669455
0.508121
0.391654
0.306283
0.242781
0.194884
0.158278
0.129949
0.107772
0.0902206
0.0761812
0.0647755
11.4757
7.50136
5.04297
3.47002
2.43665
1.74299
1.26863
0.938711
0.705582
0.538334
0.416591
0.326726
0.259496
0.208554
0.169481
0.139163
0.115382
0.0965346
0.0814374
0.0691227
11.4757
7.50136
5.04297
3.47002
2.43665
1.74299
1.26863
0.938712
0.705583
0.538335
0.416592
0.326727
0.259498
0.208556
0.169484
0.139166
0.115386
0.096539
0.0814427
0.0691294
11.4933
7.5119
5.02843
3.434
2.3892
1.6928
1.22111
0.896485
0.669454
0.50812
0.391654
0.306283
0.242782
0.194885
0.158276
0.129948
0.107771
0.0902203
0.076181
0.0647755
11.6229
7.60535
5.0103
3.34209
2.26848
1.57142
1.11236
0.804586
0.594202
0.447514
0.343207
0.267628
0.211892
0.17011
0.138312
0.113769
0.0945813
0.0794033
0.0672656
0.0575047
12.9054
8.33993
5.07879
3.15547
2.02775
1.3512
0.933537
0.66646
0.489548
0.368598
0.283607
0.22239
0.177328
0.14352
0.117736
0.0977558
0.0820617
0.069584
0.0595352
0.0512275
38.7028
13.0541
5.74336
3.08734
1.88067
1.22751
0.869487
0.645398
0.49261
0.384804
0.307059
0.249092
0.205044
0.171083
0.144534
0.123521
0.106698
0.0931007
0.0820597
0.0735513
45.0226
13.4729
5.73075
3.07322
1.86022
1.22698
0.873562
0.649761
0.496991
0.389447
0.311248
0.252923
0.20891
0.17512
0.148688
0.127703
0.110866
0.0972167
0.0861286
0.0776866
13.6679
8.73671
5.07741
3.05388
1.92223
1.26609
0.869289
0.618631
0.453959
0.342034
0.26365
0.207311
0.165901
0.134846
0.111145
0.0926836
0.0781576
0.0666235
0.0571453
0.0497607
11.8601
7.76395
4.99734
3.24076
2.14419
1.45499
1.0141
0.725633
0.532153
0.399146
0.305541
0.238216
0.188818
0.151907
0.123866
0.102228
0.0853074
0.071914
0.0611645
0.0525635
11.6229
7.60535
5.0103
3.34209
2.26848
1.57142
1.11236
0.804586
0.594202
0.447514
0.343207
0.267628
0.211892
0.17011
0.138311
0.113769
0.0945808
0.0794023
0.0672644
0.0575017
11.5726
7.56718
5.02065
3.38344
2.32103
1.62326
1.15828
0.843155
0.625691
0.472849
0.363484
0.283853
0.224905
0.180587
0.146785
0.120661
0.100217
0.0840361
0.071093
0.060638
11.5726
7.56718
5.02065
3.38345
2.32103
1.62326
1.15829
0.843158
0.625693
0.472852
0.363488
0.283858
0.224911
0.180596
0.146796
0.120673
0.100232
0.0840525
0.0711094
0.060633
11.6229
7.60535
5.0103
3.34209
2.26848
1.57142
1.11236
0.804589
0.594205
0.447519
0.343213
0.267636
0.211903
0.170125
0.138328
0.113788
0.0946043
0.07943
0.0672931
0.0574993
11.8601
7.76395
4.99734
3.24076
2.14419
1.45499
1.0141
0.725632
0.532153
0.399146
0.305541
0.238217
0.188819
0.151908
0.123864
0.102227
0.0853073
0.0719146
0.0611646
0.0525605
13.6679
8.73671
5.0774
3.05388
1.92223
1.26609
0.869287
0.618628
0.453956
0.34203
0.263645
0.207305
0.165892
0.134831
0.11112
0.0926575
0.0781277
0.066589
0.057095
0.0497612
45.0226
13.4729
5.73075
3.07323
1.86023
1.227
0.873584
0.64979
0.497029
0.38951
0.311327
0.253028
0.209051
0.175316
0.148972
0.128109
0.111456
0.0980795
0.0873965
0.079416
58.5856
14.5696
6.08947
3.33295
2.08217
1.40266
0.998647
0.740278
0.565894
0.44391
0.356
0.290899
0.241368
0.202912
0.172984
0.149663
0.131126
0.116229
0.104766
0.0965472
16.5373
9.49238
5.0127
2.8606
1.75746
1.14759
0.786927
0.562044
0.41536
0.315937
0.246318
0.196203
0.159192
0.131211
0.109724
0.0931158
0.0800339
0.0695525
0.0603089
0.0549388
13.6679
8.73671
5.0774
3.05388
1.92223
1.26609
0.869287
0.618628
0.453956
0.34203
0.263645
0.207304
0.165891
0.134831
0.111118
0.0926555
0.0781248
0.0665846
0.0570958
0.049756
12.9054
8.33993
5.07879
3.15547
2.02775
1.3512
0.933538
0.666458
0.489547
0.368598
0.283607
0.222389
0.177329
0.143525
0.117731
0.0977525
0.0820591
0.0695813
0.0595328
0.0512241
12.6882
8.1544
5.07113
3.20039
2.07939
1.39506
0.967835
0.692726
0.509644
0.384024
0.295513
0.231659
0.184606
0.149276
0.122296
0.101399
0.0849817
0.071927
0.061432
0.0529211
12.6882
8.1544
5.07113
3.20039
2.0794
1.39506
0.967837
0.692729
0.509646
0.384027
0.295517
0.231664
0.184612
0.149286
0.122313
0.101415
0.085001
0.0719499
0.0614593
0.0529595
12.9054
8.33993
5.07879
3.15547
2.02775
1.35121
0.933542
0.666463
0.489552
0.368603
0.283614
0.222399
0.177343
0.143547
0.117762
0.0977863
0.082099
0.0696294
0.0595933
0.0513893
13.6679
8.73671
5.07741
3.05388
1.92223
1.26609
0.869289
0.61863
0.453959
0.342034
0.26365
0.207311
0.165902
0.134851
0.11114
0.0926812
0.0781564
0.0666227
0.0571446
0.04976
16.5373
9.49238
5.0127
2.8606
1.75746
1.14759
0.786927
0.562044
0.415359
0.315937
0.246318
0.196203
0.159193
0.131215
0.10972
0.0931152
0.0800348
0.0695541
0.0603116
0.0549441
58.5856
14.5696
6.08947
3.33295
2.08217
1.40267
0.998651
0.740286
0.565904
0.443931
0.356032
0.290948
0.241443
0.203057
0.173195
0.149981
0.131649
0.117167
0.106446
0.0994592
90.5034
12.1248
4.38869
2.46659
1.63315
1.18307
0.902012
0.720661
0.594583
0.502499
0.43267
0.379277
0.336302
0.299868
0.270169
0.246139
0.226607
0.211032
0.20145
0.192174
58.5856
14.5696
6.08947
3.33295
2.08217
1.40267
0.998652
0.740285
0.565904
0.443931
0.356033
0.290949
0.241444
0.203064
0.173195
0.14998
0.13165
0.11717
0.106452
0.0994647
45.0226
13.4729
5.73075
3.07323
1.86023
1.227
0.873584
0.64979
0.497029
0.38951
0.311328
0.253029
0.209053
0.175317
0.148973
0.128111
0.111458
0.0980831
0.0874002
0.0794185
38.7028
13.0541
5.74337
3.08734
1.88067
1.22751
0.869487
0.645398
0.49261
0.384805
0.30706
0.249093
0.205045
0.171083
0.144536
0.123523
0.106702
0.0931045
0.0820643
0.0735562
36.0571
12.8529
5.76645
3.10212
1.89476
1.22669
0.866508
0.643994
0.492265
0.383985
0.305828
0.247963
0.203982
0.170037
0.143465
0.122385
0.105462
0.091736
0.0806014
0.0725987
36.0571
12.8529
5.76645
3.10211
1.89475
1.22669
0.866498
0.64398
0.492248
0.383962
0.305795
0.24792
0.203923
0.169957
0.143353
0.122225
0.105235
0.0914116
0.0801381
0.0718452
38.7028
13.0541
5.74336
3.08733
1.88066
1.22749
0.869463
0.645367
0.492571
0.384754
0.306987
0.248997
0.204915
0.170903
0.144282
0.123163
0.106183
0.0923485
0.0809866
0.0722578
45.0226
13.4729
5.73075
3.07322
1.86022
1.22698
0.873561
0.649761
0.496991
0.389447
0.311248
0.252923
0.208909
0.175119
0.148689
0.127704
0.110868
0.0972182
0.0861307
0.0776904
58.5856
14.5696
6.08947
3.33295
2.08217
1.40266
0.998645
0.740278
0.565894
0.44391
0.356
0.290899
0.241368
0.202906
0.172985
0.149665
0.131128
0.11623
0.104767
0.0965485
90.5034
12.1248
4.38869
2.46659
1.63315
1.18307
0.902011
0.720661
0.594584
0.502497
0.432672
0.379273
0.336308
0.299859
0.270172
0.24614
0.226608
0.211031
0.201447
0.192168
0.350051
0.280769
0.2281
0.198325
0.180677
0.169652
0.16132
0.154336
0.148184
0.142783
0.138242
0.134072
0.130189
0.126287
0.122712
0.119296
0.116158
0.113131
0.110321
0.107683
0.10513
0.102718
0.100421
0.0983264
0.096363
0.0944752
0.0926752
0.0909133
0.0892302
0.0876123
0.0861017
0.0846365
0.083217
0.0818192
0.0804639
0.0793042
0.0782033
0.0770982
0.0761558
0.0743615
0.139193
0.115601
0.099066
0.0868838
0.0785147
0.0725741
0.0679048
0.0640578
0.0606473
0.0576786
0.0552577
0.0530495
0.0511416
0.0492549
0.0475202
0.0458862
0.0444146
0.0430487
0.0417924
0.0406283
0.0395255
0.0384848
0.0375189
0.0366347
0.0358271
0.035069
0.0343434
0.0336421
0.032969
0.0323179
0.0316965
0.0311008
0.0305345
0.0299907
0.0294638
0.0289652
0.0285048
0.028063
0.0276489
0.0271629
0.0993634
0.0842815
0.0736869
0.0649233
0.0589872
0.0542421
0.0502358
0.0468842
0.0440773
0.0416744
0.039596
0.0377313
0.0361551
0.0345857
0.0331816
0.0319221
0.0307942
0.0297771
0.0288189
0.0279246
0.0270875
0.0262599
0.0254862
0.0247943
0.0241699
0.02359
0.0230304
0.0224914
0.0219782
0.0214856
0.0210127
0.0205551
0.0201227
0.0197113
0.0193191
0.0189478
0.0185871
0.0182318
0.0178915
0.0175548
0.0779608
0.0689677
0.0615965
0.0556416
0.0507636
0.0466628
0.0431464
0.040118
0.0374916
0.0351986
0.0331936
0.0314228
0.0298625
0.0284431
0.0271638
0.0260165
0.024972
0.0240592
0.023115
0.0222518
0.0214916
0.0207875
0.0201154
0.019491
0.0189106
0.0183744
0.0178725
0.0174002
0.016957
0.0165359
0.0161282
0.015736
0.0153648
0.0150263
0.014697
0.0143927
0.0140928
0.0138104
0.0135402
0.0132703
0.0676669
0.0609134
0.0550991
0.0501325
0.0458855
0.0422525
0.0391199
0.0363985
0.034007
0.0318961
0.0300248
0.0283623
0.0268941
0.025542
0.024325
0.0232369
0.0222444
0.0213323
0.0205016
0.0197297
0.0190625
0.0183754
0.0177129
0.0171162
0.0165752
0.0160694
0.0156048
0.0151666
0.0147611
0.0143775
0.0140091
0.0136558
0.0133249
0.0130172
0.0127122
0.0124322
0.0121618
0.0119092
0.0116714
0.0114482
0.0688538
0.0599103
0.0532997
0.048052
0.0437653
0.0401987
0.0371846
0.0345986
0.0323345
0.0303313
0.0285496
0.0269624
0.0255539
0.0242577
0.0230867
0.0220248
0.0210581
0.0201776
0.0193817
0.0186501
0.0179787
0.0173578
0.0167912
0.0162604
0.0157095
0.0151904
0.0147237
0.0143
0.0139193
0.0135563
0.0132221
0.0129063
0.0125681
0.0122913
0.0119611
0.0117178
0.0114594
0.0112294
0.0110056
0.0107939
0.0723083
0.061183
0.0536628
0.0481698
0.0438027
0.0402297
0.0372368
0.0346699
0.0324188
0.0304324
0.0286697
0.0271004
0.0257042
0.0244216
0.0232605
0.0222052
0.021243
0.0203661
0.0195665
0.0188441
0.0181824
0.0175734
0.0169966
0.0164772
0.0159211
0.0154105
0.0149565
0.0145391
0.01416
0.0137887
0.0134451
0.0131201
0.0127779
0.012497
0.0122041
0.0119545
0.0117026
0.0114619
0.0112289
0.0110061
0.0755671
0.0630224
0.055498
0.0501869
0.0458711
0.0423068
0.0392779
0.03666
0.034374
0.0323598
0.0305725
0.0289883
0.0275752
0.0262733
0.0250911
0.0240141
0.0230286
0.0221395
0.0213221
0.020572
0.0198859
0.0192491
0.0186102
0.0180175
0.0174907
0.0169891
0.0165281
0.0160902
0.0156685
0.0152487
0.0148651
0.0145185
0.0142065
0.0139014
0.0136072
0.0133208
0.0130371
0.0127673
0.0125096
0.0122615
0.0786774
0.0702393
0.0627983
0.05678
0.0520018
0.0480999
0.0448658
0.0421296
0.0397507
0.0376701
0.0358277
0.0342353
0.0328015
0.0314632
0.0302282
0.0290722
0.0279
0.0268872
0.0259517
0.0251051
0.0243006
0.0235626
0.0228669
0.0221927
0.0215878
0.0210065
0.0204736
0.019971
0.0195084
0.0190688
0.0186575
0.0182644
0.0178981
0.0175475
0.017209
0.0168674
0.0165363
0.016231
0.0159464
0.0156498
0.119391
0.101698
0.0875492
0.0777047
0.0709464
0.0661174
0.062326
0.0592113
0.0562774
0.0538157
0.0516832
0.049887
0.0482313
0.0463584
0.0446526
0.0430876
0.0416104
0.0402438
0.03897
0.0377937
0.0366917
0.0356709
0.0347395
0.0338805
0.0331003
0.032359
0.0316598
0.0309957
0.0303725
0.0297723
0.0292089
0.0286767
0.028175
0.0276913
0.0272279
0.0267602
0.0263381
0.0259479
0.0256086
0.0251829
0.349953
0.280733
0.227963
0.198153
0.180527
0.16921
0.16069
0.153684
0.147433
0.142183
0.137634
0.133694
0.129892
0.126071
0.122521
0.119178
0.116058
0.113075
0.110293
0.107652
0.105141
0.10271
0.100449
0.0983353
0.0963942
0.0944853
0.0926835
0.0909096
0.0892166
0.0875919
0.0860801
0.0846139
0.0831964
0.0818022
0.0804731
0.0792394
0.0781038
0.076965
0.0759986
0.074108
0.119372
0.101772
0.0876742
0.0778065
0.0710583
0.0663752
0.0626553
0.059531
0.0566643
0.054128
0.0520178
0.0500959
0.0483996
0.0464805
0.0447721
0.0431594
0.0416848
0.0402861
0.0390024
0.0378193
0.0367017
0.0356746
0.0347359
0.0338768
0.0330941
0.0323555
0.03166
0.0309999
0.0303811
0.0297846
0.0292242
0.028694
0.0281945
0.0277091
0.0272274
0.0267766
0.0263834
0.0260161
0.0256865
0.0252761
0.055855
0.0498469
0.0437505
0.0394298
0.0354843
0.0330086
0.0307319
0.0287976
0.0270403
0.0254284
0.0240245
0.0229004
0.0216076
0.020745
0.0197103
0.0189289
0.0180711
0.017385
0.0166981
0.0161065
0.0155286
0.0149493
0.014501
0.0139959
0.0136168
0.0132536
0.0128717
0.0125186
0.012139
0.01177
0.0115187
0.0111972
0.0108669
0.0105333
0.0103224
0.0100389
0.00969661
0.00940645
0.00915311
0.0088807
0.0483356
0.041635
0.0363526
0.0317692
0.0287807
0.0262375
0.0240612
0.0221926
0.0205896
0.0192035
0.01793
0.0169327
0.0156455
0.0150116
0.014029
0.0134968
0.0126948
0.0122495
0.0116127
0.0112053
0.010766
0.0102666
0.00994785
0.00951125
0.00926905
0.00893767
0.00863376
0.00840998
0.0080789
0.00790579
0.00773269
0.00754498
0.00723997
0.00707429
0.00685952
0.00682729
0.00662444
0.00641386
0.00612833
0.00590086
0.0465311
0.0404272
0.0353781
0.03117
0.0275185
0.0246088
0.0224598
0.0205678
0.0189169
0.0174735
0.0162031
0.0150798
0.0140533
0.0131872
0.0124008
0.0116983
0.0110733
0.0105049
0.0100226
0.00948341
0.00913903
0.00861038
0.00832031
0.00791552
0.00770903
0.00735521
0.00717471
0.00686389
0.00666232
0.00645799
0.00632611
0.00619556
0.00593336
0.00581795
0.00561726
0.00563204
0.00547659
0.00533384
0.00506431
0.00492272
0.0467448
0.0405367
0.0355137
0.0313635
0.0278476
0.0247374
0.0221831
0.0200605
0.0183852
0.0169053
0.0156007
0.0144442
0.013398
0.0125054
0.011705
0.0109875
0.0103442
0.00976594
0.00924529
0.00877324
0.00834924
0.00796306
0.00761878
0.00731678
0.00700358
0.00674446
0.00645683
0.00623431
0.00602098
0.00582898
0.00566431
0.00555045
0.00533834
0.00522953
0.00504375
0.00506158
0.00491981
0.00479533
0.00455683
0.00441734
0.0468213
0.0406945
0.0356615
0.0314647
0.0279378
0.0248401
0.0221649
0.0198986
0.0181428
0.0166678
0.0153551
0.0141856
0.013129
0.0122192
0.0114052
0.0106781
0.010028
0.00944565
0.00892276
0.00845227
0.00802841
0.00764682
0.00731197
0.00702139
0.00671786
0.0064446
0.00617924
0.0059546
0.00574246
0.00556056
0.00541497
0.00527224
0.00511493
0.00499139
0.0048046
0.00481674
0.00468679
0.00450188
0.00439504
0.00414307
0.0465099
0.0407017
0.0356164
0.0313201
0.0277161
0.0245457
0.0218286
0.019651
0.0180013
0.0165321
0.0152277
0.0140727
0.0130394
0.0121424
0.0113416
0.0106261
0.00998698
0.0094136
0.00889868
0.00843466
0.00801623
0.00763838
0.00730504
0.00702523
0.00672316
0.0064778
0.00616381
0.00597594
0.00570343
0.0055649
0.00542146
0.00528211
0.00506874
0.00494592
0.00475125
0.00478478
0.00464411
0.00445657
0.00434441
0.00407074
0.0457556
0.0409824
0.0355441
0.0310483
0.0272839
0.0240496
0.0217197
0.01986
0.0182263
0.0167945
0.0155386
0.0144285
0.0134395
0.012579
0.011804
0.0111038
0.0104773
0.00990053
0.00938902
0.00891908
0.00850036
0.00812021
0.00774611
0.00751847
0.0070925
0.00689172
0.00654773
0.00638832
0.00606564
0.00595188
0.00579856
0.00565048
0.00536076
0.00523206
0.00501376
0.00486355
0.00492014
0.00473352
0.00457443
0.00423302
0.046472
0.0419901
0.0362861
0.0314167
0.0280827
0.0255443
0.0233659
0.0214883
0.0198545
0.0184266
0.0171797
0.0160573
0.0150893
0.0142279
0.013445
0.012669
0.01212
0.0113437
0.0109285
0.0103053
0.00996606
0.00943201
0.00913019
0.00869849
0.00839211
0.00817817
0.00780275
0.00761772
0.00727942
0.0071018
0.00691603
0.00673175
0.00640659
0.00625386
0.00600636
0.00583232
0.00582722
0.00557305
0.00537161
0.00502895
0.0558803
0.0497814
0.0437312
0.039346
0.0360042
0.0331804
0.0309056
0.0289137
0.0271412
0.0254885
0.0241185
0.022809
0.0216844
0.0207627
0.0197645
0.0189276
0.0181071
0.0173959
0.0167128
0.0161227
0.0155229
0.0149728
0.014496
0.0140174
0.0135958
0.0132763
0.0128772
0.0125306
0.0121491
0.0117738
0.0115226
0.0112
0.0108673
0.0105678
0.0102978
0.00999936
0.00983413
0.0095184
0.00915919
0.00884291
0.139183
0.11559
0.0989902
0.0868232
0.0784266
0.0723785
0.0676415
0.0637882
0.0603015
0.0574328
0.0549352
0.0528568
0.0509874
0.0491379
0.0474222
0.0458177
0.0443645
0.043013
0.0417797
0.0406134
0.0395307
0.0384912
0.0375327
0.0366451
0.0358386
0.0350795
0.0343509
0.033648
0.0329728
0.0323195
0.0316978
0.0311023
0.0305361
0.0299937
0.0294773
0.0289679
0.0284976
0.0280459
0.027621
0.027119
0.0786939
0.0703255
0.0629085
0.0568093
0.0520867
0.0482095
0.044987
0.0422513
0.0398734
0.0377831
0.0359331
0.0342852
0.0328651
0.0315093
0.0302701
0.0290944
0.0279343
0.0268932
0.0259708
0.025117
0.0243059
0.0235681
0.0228606
0.022193
0.0215834
0.0210057
0.0204744
0.0199743
0.0195141
0.019077
0.0186687
0.0182787
0.0179152
0.0175669
0.0172297
0.0168833
0.0165539
0.0162577
0.015987
0.0157027
0.0464551
0.0419604
0.0363015
0.0312943
0.0280373
0.0255191
0.0233455
0.0214746
0.0198459
0.0184246
0.0171827
0.0161165
0.0150493
0.0142717
0.0133748
0.0127982
0.0119334
0.0114802
0.0107876
0.0103735
0.0099566
0.00945376
0.00914664
0.0086751
0.00842956
0.00814839
0.00781132
0.00761982
0.00727922
0.00709895
0.00690999
0.00672746
0.00640365
0.0062519
0.0060351
0.00597082
0.00573511
0.00548198
0.00523379
0.00504527
0.0452535
0.0394686
0.0344189
0.0300792
0.02655
0.0236421
0.0212142
0.0191692
0.0174283
0.015933
0.0146322
0.0135087
0.0124683
0.0116033
0.0108077
0.0101179
0.00942291
0.00881429
0.00833098
0.00793955
0.00754278
0.00714563
0.0068193
0.00648114
0.00616522
0.00594
0.00565343
0.00549024
0.00520387
0.00510757
0.00499039
0.00485478
0.0046087
0.00449568
0.00431381
0.00434415
0.00421434
0.00410065
0.00385196
0.00371814
0.0476439
0.0413071
0.0360076
0.0315685
0.0278257
0.0246744
0.0220338
0.0197877
0.0178642
0.016206
0.0147681
0.0135133
0.0124072
0.0114393
0.0105805
0.00981732
0.00913422
0.00851546
0.00796928
0.0074795
0.00704329
0.00664674
0.00620955
0.00592452
0.00567433
0.00542357
0.00522578
0.00493258
0.00474476
0.00457372
0.00446096
0.00434374
0.00418465
0.00407684
0.00390096
0.00392919
0.00381327
0.00370531
0.00355235
0.00342161
0.0498793
0.0431252
0.037551
0.0329048
0.0289979
0.0256839
0.0228654
0.0204595
0.0184112
0.0166492
0.0151211
0.0137878
0.0126228
0.0115971
0.0106908
0.00988689
0.00917127
0.00853125
0.00795809
0.00744332
0.00698025
0.00656743
0.00616589
0.00585511
0.0055412
0.00522043
0.00497014
0.0047835
0.00461312
0.00448656
0.00433687
0.00419679
0.0040632
0.0039529
0.00381135
0.00382998
0.00370974
0.00359054
0.00347437
0.00336105
0.0507644
0.0438968
0.0382024
0.0334496
0.0294544
0.0260683
0.0231789
0.020705
0.0185954
0.0167887
0.0152274
0.0138673
0.0126811
0.0116372
0.0107155
0.00989883
0.00917234
0.00852317
0.00794219
0.0074219
0.00695374
0.00653671
0.00613808
0.00582907
0.00551285
0.00521518
0.00496316
0.00470984
0.00450897
0.00443873
0.00429627
0.00415904
0.00402544
0.00391094
0.00378945
0.00380502
0.00368462
0.00356463
0.00344762
0.00332997
0.0499336
0.0432651
0.0376641
0.0329572
0.0289913
0.02563
0.022773
0.0203442
0.0182801
0.0165084
0.0149789
0.0136502
0.0124915
0.0114752
0.0105772
0.00978141
0.00907301
0.00843995
0.00787335
0.00736609
0.0069078
0.00649969
0.00610719
0.00579808
0.00548411
0.00520553
0.00492282
0.00471426
0.00454016
0.00444955
0.0043033