/*--------------------------------*- C++ -*----------------------------------*\
| =========                 |                                                 |
| \\      /  F ield         | OpenFOAM: The Open Source CFD Toolbox           |
|  \\    /   O peration     | Version:  2212                                  |
|   \\  /    A nd           | Website:  www.openfoam.com                      |
|    \\/     M anipulation  |                                                 |
\*---------------------------------------------------------------------------*/
FoamFile
{
    version     2.0;
    format      ascii;
    arch        "LSB;label=32;scalar=64";
    class       volScalarField;
    location    "2.1";
    object      k;
}
// * * * * * * * * * * * * * * * * * * * * * * * * * * * * * * * * * * * * * //

dimensions      [0 2 -2 0 0 0 0];

internalField   nonuniform List<scalar> 
6840
(
0.213564
0.055916
0.0283994
0.0193412
0.0146928
0.0118511
0.00989071
0.00851609
0.00749138
0.00669645
0.00606077
0.00555134
0.00512371
0.00474677
0.00442814
0.0041618
0.00393911
0.00375732
0.00364542
0.00353328
0.264759
0.104702
0.0585298
0.0391631
0.0286199
0.0219935
0.0175361
0.0143633
0.0120083
0.0102138
0.00881647
0.00770593
0.00680438
0.00606106
0.00544957
0.00494837
0.00453139
0.00418237
0.00390508
0.00370289
0.283364
0.126774
0.0717019
0.0473281
0.0338662
0.0256615
0.0204607
0.0167968
0.0140483
0.0119405
0.0102832
0.00895472
0.00788316
0.00700845
0.00628427
0.00567828
0.00516784
0.0047349
0.00436785
0.00407525
0.292299
0.141633
0.0819301
0.0541653
0.0389229
0.0292872
0.023272
0.0190782
0.0159335
0.0135141
0.0116255
0.010111
0.00887931
0.00786735
0.00702754
0.00632381
0.00572831
0.00521926
0.00478208
0.00443476
0.295943
0.148782
0.0871941
0.0576749
0.0415193
0.0310721
0.0246448
0.0202207
0.0169045
0.0143243
0.0123074
0.0107008
0.00939401
0.00831941
0.00742664
0.00667748
0.00604299
0.00550084
0.00503741
0.00467894
0.295943
0.148782
0.0871941
0.0576749
0.0415194
0.0310722
0.024645
0.020221
0.0169049
0.0143248
0.0123082
0.010702
0.00939578
0.00832203
0.00743057
0.00668334
0.00605179
0.00551409
0.00505781
0.00471741
0.292299
0.141633
0.0819302
0.0541654
0.0389231
0.0292875
0.0232724
0.0190788
0.0159344
0.0135153
0.0116273
0.0101136
0.00888303
0.00787287
0.00703568
0.00633598
0.00574671
0.00524737
0.00482397
0.00448818
0.283364
0.126774
0.071702
0.0473282
0.0338663
0.0256618
0.020461
0.0167973
0.014049
0.0119418
0.010285
0.00895715
0.00788666
0.00701361
0.00629214
0.00569007
0.00518566
0.00476211
0.00440996
0.00413756
0.264759
0.104702
0.0585298
0.0391631
0.0286199
0.0219935
0.0175361
0.0143634
0.0120084
0.0102142
0.00881698
0.00770678
0.00680576
0.00606388
0.00545385
0.00495507
0.0045428
0.0042036
0.00394406
0.00377023
0.213564
0.055916
0.0283994
0.0193412
0.0146928
0.0118511
0.00989071
0.00851608
0.00749138
0.00669643
0.00606078
0.00555129
0.00512377
0.00474667
0.00442815
0.0041618
0.00393909
0.00375726
0.00364532
0.00353314
0.264759
0.104702
0.0585298
0.0391631
0.0286199
0.0219935
0.0175361
0.0143634
0.0120085
0.0102142
0.008817
0.00770679
0.00680577
0.00606399
0.00545386
0.00495506
0.00454284
0.0042037
0.00394422
0.00377037
0.311746
0.197541
0.130357
0.0911457
0.0668022
0.0508111
0.0397944
0.0319121
0.0260943
0.0216874
0.0182768
0.015589
0.0134416
0.0116991
0.0102684
0.00908183
0.00808854
0.0072488
0.00655028
0.00589941
0.31754
0.217754
0.151085
0.108549
0.0807154
0.0618723
0.048677
0.0391412
0.0320579
0.0266705
0.0224887
0.0191853
0.0165361
0.0143828
0.0126117
0.0111409
0.00990802
0.00886476
0.00797769
0.00721408
0.319723
0.227073
0.162232
0.118772
0.0893608
0.0689924
0.0545301
0.0439838
0.0360988
0.0300734
0.0253803
0.0216627
0.0186741
0.0162403
0.014235
0.0125653
0.0111616
0.00997045
0.00895014
0.00806269
0.320484
0.23086
0.167176
0.123531
0.0935157
0.0724823
0.0574403
0.0464208
0.0381531
0.0318163
0.0268697
0.022945
0.0197856
0.0172096
0.0150852
0.0133147
0.0118252
0.0105605
0.00947615
0.00851769
0.320484
0.23086
0.167176
0.123531
0.0935159
0.0724825
0.0574406
0.0464212
0.0381538
0.0318172
0.0268709
0.0229468
0.0197882
0.0172134
0.0150906
0.0133224
0.0118362
0.0105763
0.00949922
0.00857084
0.319723
0.227073
0.162232
0.118772
0.0893611
0.0689929
0.0545307
0.0439847
0.0361002
0.0300753
0.025383
0.0216664
0.0186795
0.0162481
0.0142461
0.0125812
0.0111845
0.0100035
0.00899735
0.00814086
0.31754
0.217754
0.151085
0.108549
0.0807156
0.0618727
0.0486775
0.039142
0.032059
0.026672
0.0224907
0.0191883
0.0165403
0.0143889
0.0126205
0.0111535
0.00992616
0.00889135
0.00801623
0.00727559
0.311746
0.197541
0.130357
0.0911457
0.0668022
0.0508111
0.0397944
0.0319121
0.0260943
0.0216874
0.0182768
0.0155889
0.0134416
0.0116989
0.0102684
0.00908186
0.00808851
0.00724869
0.00655011
0.00589931
0.264759
0.104702
0.0585298
0.0391631
0.0286199
0.0219934
0.0175361
0.0143633
0.0120083
0.0102138
0.00881646
0.00770593
0.00680439
0.00606093
0.00544958
0.00494842
0.00453142
0.00418239
0.00390508
0.00370293
0.283364
0.126774
0.071702
0.0473282
0.0338663
0.0256618
0.020461
0.0167973
0.014049
0.0119418
0.010285
0.00895718
0.00788669
0.00701361
0.00629216
0.00569011
0.00518572
0.00476221
0.00441009
0.00413772
0.31754
0.217754
0.151086
0.108549
0.0807156
0.0618727
0.0486775
0.039142
0.032059
0.026672
0.0224908
0.0191883
0.0165404
0.0143889
0.0126205
0.0111535
0.00992627
0.00889157
0.00801648
0.00727561
0.322005
0.239026
0.177588
0.133616
0.102323
0.0798669
0.0635105
0.051382
0.0422216
0.0351793
0.0296756
0.0253093
0.021798
0.0189395
0.0165867
0.0146307
0.0129901
0.0116023
0.0104173
0.00937648
0.323293
0.245617
0.187499
0.144536
0.112864
0.0894038
0.0718631
0.0585862
0.0483992
0.0404738
0.0342241
0.0292325
0.025198
0.0219012
0.0191798
0.0169123
0.0150065
0.013391
0.012007
0.01079
0.323714
0.247819
0.191099
0.14881
0.117249
0.0935707
0.0756572
0.0619604
0.0513625
0.0430609
0.0364787
0.0311988
0.0269167
0.0234082
0.0205059
0.0180838
0.0160453
0.0143151
0.01283
0.0115172
0.323714
0.247819
0.191099
0.14881
0.117249
0.0935708
0.0756574
0.0619606
0.0513628
0.0430614
0.0364794
0.0311997
0.026918
0.02341
0.0205084
0.0180872
0.01605
0.0143217
0.0128398
0.0115379
0.323293
0.245617
0.187499
0.144537
0.112864
0.089404
0.0718634
0.0585866
0.0483998
0.0404746
0.0342252
0.029234
0.0252002
0.0219042
0.019184
0.0169181
0.0150146
0.0134023
0.0120237
0.0108232
0.322005
0.239026
0.177588
0.133616
0.102323
0.0798669
0.0635105
0.051382
0.0422216
0.0351793
0.0296756
0.0253093
0.0217979
0.0189395
0.0165867
0.0146307
0.0129901
0.0116023
0.0104172
0.00937668
0.31754
0.217754
0.151085
0.108549
0.0807154
0.0618723
0.048677
0.0391412
0.0320579
0.0266705
0.0224887
0.0191853
0.0165361
0.0143827
0.0126117
0.011141
0.00990805
0.00886478
0.00797771
0.00721413
0.283364
0.126774
0.0717019
0.0473281
0.0338662
0.0256615
0.0204607
0.0167968
0.0140483
0.0119405
0.0102832
0.00895472
0.00788315
0.00700842
0.00628431
0.00567833
0.00516789
0.00473496
0.00436795
0.00407538
0.292299
0.141633
0.0819302
0.0541654
0.0389231
0.0292875
0.0232724
0.0190788
0.0159344
0.0135153
0.0116273
0.0101136
0.00888303
0.00787283
0.00703572
0.00633603
0.00574677
0.00524746
0.0048241
0.00448835
0.319723
0.227073
0.162232
0.118772
0.0893612
0.0689929
0.0545308
0.0439847
0.0361002
0.0300753
0.025383
0.0216665
0.0186796
0.016248
0.0142461
0.0125813
0.0111847
0.0100037
0.0089976
0.00814116
0.323293
0.245617
0.187499
0.144537
0.112864
0.089404
0.0718634
0.0585866
0.0483998
0.0404746
0.0342252
0.029234
0.0252002
0.0219042
0.019184
0.0169182
0.0150147
0.0134024
0.0120238
0.0108231
0.324288
0.250862
0.19613
0.154888
0.123591
0.09968
0.0812742
0.0669838
0.0557849
0.0469225
0.0398397
0.0341239
0.0294677
0.0256403
0.0224674
0.0198155
0.0175819
0.0156852
0.0140572
0.0126256
0.32459
0.252403
0.19891
0.158543
0.12769
0.103871
0.0853201
0.0707499
0.05921
0.0499927
0.0425684
0.0365383
0.0316005
0.0275248
0.0241351
0.0212948
0.0188977
0.0168583
0.0151026
0.0135456
0.32459
0.252403
0.19891
0.158543
0.12769
0.103871
0.0853201
0.07075
0.0592101
0.0499928
0.0425686
0.0365386
0.0316008
0.0275253
0.0241357
0.0212956
0.0188987
0.0168597
0.015104
0.0135442
0.324288
0.250862
0.19613
0.154888
0.123591
0.09968
0.0812742
0.0669838
0.0557849
0.0469225
0.0398397
0.0341239
0.0294676
0.0256403
0.0224673
0.0198155
0.0175818
0.0156852
0.0140572
0.0126258
0.323293
0.245617
0.187499
0.144536
0.112864
0.0894038
0.0718631
0.0585862
0.0483992
0.0404738
0.0342241
0.0292325
0.025198
0.0219012
0.0191797
0.0169123
0.0150065
0.013391
0.012007
0.0107901
0.319723
0.227073
0.162232
0.118772
0.0893608
0.0689924
0.0545301
0.0439838
0.0360988
0.0300734
0.0253803
0.0216627
0.0186742
0.0162403
0.014235
0.0125653
0.0111616
0.00997049
0.0089502
0.00806272
0.292299
0.141633
0.0819301
0.0541653
0.0389229
0.0292872
0.023272
0.0190782
0.0159335
0.0135141
0.0116255
0.010111
0.00887934
0.00786737
0.00702753
0.00632381
0.00572832
0.00521929
0.00478213
0.00443493
0.295943
0.148782
0.0871941
0.0576749
0.0415194
0.0310722
0.024645
0.020221
0.0169049
0.0143248
0.0123082
0.0107021
0.00939579
0.00832203
0.00743057
0.00668336
0.00605182
0.00551412
0.00505785
0.0047175
0.320484
0.23086
0.167176
0.123531
0.0935159
0.0724825
0.0574407
0.0464213
0.0381538
0.0318172
0.0268709
0.0229468
0.0197882
0.0172134
0.0150907
0.0133225
0.0118363
0.0105764
0.00949934
0.00857106
0.323714
0.247819
0.191099
0.14881
0.117249
0.0935708
0.0756574
0.0619606
0.0513628
0.0430614
0.0364794
0.0311997
0.026918
0.02341
0.0205085
0.0180873
0.0160501
0.0143217
0.0128399
0.0115378
0.32459
0.252403
0.19891
0.158543
0.12769
0.103871
0.0853201
0.07075
0.0592101
0.0499929
0.0425686
0.0365386
0.0316008
0.0275253
0.0241357
0.0212957
0.0188988
0.0168597
0.015104
0.0135441
0.324844
0.253685
0.20131
0.161836
0.131535
0.107943
0.0893702
0.0746127
0.0627922
0.0532537
0.0455016
0.0391577
0.0339307
0.0295949
0.0259747
0.0229321
0.0203581
0.0181636
0.0162693
0.0145817
0.324844
0.253685
0.20131
0.161836
0.131535
0.107943
0.0893702
0.0746127
0.0627922
0.0532537
0.0455016
0.0391577
0.0339307
0.0295949
0.0259747
0.0229321
0.0203581
0.0181636
0.0162693
0.0145819
0.32459
0.252403
0.19891
0.158543
0.12769
0.103871
0.0853201
0.0707499
0.05921
0.0499927
0.0425684
0.0365383
0.0316005
0.0275248
0.024135
0.0212948
0.0188977
0.0168583
0.0151026
0.0135457
0.323714
0.247819
0.191099
0.14881
0.117249
0.0935707
0.0756572
0.0619604
0.0513625
0.0430609
0.0364787
0.0311988
0.0269167
0.0234082
0.0205059
0.0180838
0.0160453
0.0143152
0.0128301
0.0115174
0.320484
0.23086
0.167176
0.123531
0.0935157
0.0724823
0.0574403
0.0464208
0.0381531
0.0318163
0.0268697
0.022945
0.0197857
0.0172097
0.0150851
0.0133146
0.0118251
0.0105605
0.00947612
0.00851782
0.295943
0.148782
0.0871941
0.0576749
0.0415193
0.0310721
0.0246448
0.0202207
0.0169045
0.0143243
0.0123074
0.0107008
0.00939407
0.00831949
0.00742654
0.00667739
0.00604292
0.00550079
0.00503737
0.00467892
0.295943
0.148782
0.0871941
0.0576749
0.0415193
0.0310721
0.0246448
0.0202207
0.0169045
0.0143243
0.0123074
0.0107008
0.00939401
0.0083194
0.00742665
0.00667748
0.00604298
0.00550082
0.00503737
0.00467887
0.320484
0.23086
0.167176
0.123531
0.0935157
0.0724823
0.0574403
0.0464208
0.0381532
0.0318163
0.0268697
0.022945
0.0197856
0.0172096
0.0150852
0.0133147
0.0118252
0.0105604
0.00947606
0.00851758
0.323714
0.247819
0.191099
0.14881
0.117249
0.0935707
0.0756572
0.0619604
0.0513625
0.0430609
0.0364787
0.0311988
0.0269167
0.0234082
0.0205059
0.0180838
0.0160453
0.0143151
0.01283
0.011517
0.32459
0.252403
0.19891
0.158543
0.12769
0.103871
0.0853201
0.0707499
0.05921
0.0499927
0.0425684
0.0365383
0.0316005
0.0275248
0.0241351
0.0212948
0.0188977
0.0168583
0.0151026
0.0135455
0.324844
0.253685
0.20131
0.161836
0.131535
0.107943
0.0893702
0.0746127
0.0627922
0.0532537
0.0455017
0.0391577
0.0339307
0.0295949
0.0259747
0.0229321
0.0203581
0.0181636
0.0162692
0.0145818
0.324844
0.253685
0.20131
0.161836
0.131535
0.107943
0.0893702
0.0746127
0.0627922
0.0532537
0.0455016
0.0391577
0.0339307
0.0295949
0.0259747
0.0229321
0.0203581
0.0181636
0.0162692
0.0145818
0.32459
0.252403
0.19891
0.158543
0.12769
0.103871
0.0853201
0.07075
0.0592101
0.0499928
0.0425686
0.0365386
0.0316008
0.0275253
0.0241357
0.0212957
0.0188988
0.0168597
0.015104
0.0135442
0.323714
0.247819
0.191099
0.14881
0.117249
0.0935708
0.0756574
0.0619606
0.0513628
0.0430614
0.0364794
0.0311997
0.0269181
0.02341
0.0205084
0.0180872
0.01605
0.0143217
0.0128399
0.011538
0.320484
0.23086
0.167176
0.123531
0.0935159
0.0724825
0.0574407
0.0464212
0.0381538
0.0318172
0.0268709
0.0229468
0.0197883
0.0172135
0.0150905
0.0133223
0.0118361
0.0105763
0.00949929
0.00857101
0.295943
0.148782
0.0871941
0.0576749
0.0415194
0.0310722
0.024645
0.020221
0.0169049
0.0143248
0.0123082
0.0107021
0.00939584
0.00832212
0.00743046
0.00668324
0.0060517
0.00551401
0.00505775
0.00471741
0.292299
0.141633
0.0819301
0.0541653
0.0389229
0.0292872
0.023272
0.0190782
0.0159335
0.0135141
0.0116255
0.010111
0.00887931
0.00786734
0.00702754
0.0063238
0.00572828
0.0052192
0.00478198
0.00443459
0.319723
0.227073
0.162232
0.118772
0.0893609
0.0689924
0.0545301
0.0439838
0.0360989
0.0300735
0.0253803
0.0216627
0.0186741
0.0162403
0.014235
0.0125652
0.0111615
0.0099703
0.00894989
0.0080622
0.323293
0.245617
0.187499
0.144536
0.112864
0.0894038
0.0718631
0.0585862
0.0483992
0.0404738
0.0342241
0.0292325
0.025198
0.0219012
0.0191797
0.0169122
0.0150065
0.0133909
0.0120067
0.0107897
0.324288
0.250862
0.19613
0.154888
0.123591
0.09968
0.0812742
0.0669838
0.0557849
0.0469225
0.0398397
0.0341239
0.0294677
0.0256403
0.0224673
0.0198155
0.0175818
0.0156852
0.0140571
0.0126257
0.32459
0.252403
0.19891
0.158543
0.12769
0.103871
0.0853201
0.07075
0.0592101
0.0499929
0.0425686
0.0365386
0.0316008
0.0275253
0.0241357
0.0212957
0.0188988
0.0168597
0.015104
0.0135442
0.32459
0.252403
0.19891
0.158543
0.12769
0.103871
0.0853201
0.0707499
0.05921
0.0499927
0.0425684
0.0365383
0.0316005
0.0275248
0.0241351
0.0212948
0.0188977
0.0168583
0.0151027
0.0135456
0.324288
0.250862
0.19613
0.154888
0.123591
0.09968
0.0812742
0.0669838
0.0557849
0.0469225
0.0398397
0.0341239
0.0294676
0.0256403
0.0224674
0.0198155
0.0175819
0.0156852
0.0140572
0.0126256
0.323293
0.245617
0.187499
0.144537
0.112864
0.089404
0.0718634
0.0585866
0.0483998
0.0404746
0.0342252
0.029234
0.0252002
0.0219042
0.019184
0.0169182
0.0150147
0.0134024
0.0120238
0.010823
0.319723
0.227073
0.162232
0.118772
0.0893611
0.0689929
0.0545308
0.0439847
0.0361002
0.0300753
0.025383
0.0216665
0.0186796
0.0162481
0.0142461
0.0125812
0.0111845
0.0100036
0.00899743
0.00814089
0.292299
0.141633
0.0819302
0.0541654
0.0389231
0.0292875
0.0232724
0.0190788
0.0159344
0.0135153
0.0116273
0.0101136
0.00888304
0.00787287
0.00703567
0.00633596
0.00574668
0.00524734
0.00482395
0.00448814
0.283364
0.126774
0.071702
0.0473281
0.0338662
0.0256615
0.0204607
0.0167968
0.0140483
0.0119405
0.0102832
0.00895472
0.00788316
0.00700844
0.00628426
0.00567826
0.00516779
0.00473482
0.00436774
0.00407502
0.31754
0.217754
0.151085
0.108549
0.0807154
0.0618723
0.048677
0.0391412
0.0320579
0.0266705
0.0224887
0.0191853
0.0165361
0.0143828
0.0126117
0.0111409
0.00990791
0.00886457
0.00797748
0.00721365
0.322005
0.239026
0.177588
0.133616
0.102323
0.0798669
0.0635105
0.051382
0.0422216
0.0351793
0.0296756
0.0253093
0.021798
0.0189395
0.0165866
0.0146307
0.0129901
0.0116023
0.0104172
0.00937635
0.323293
0.245617
0.187499
0.144537
0.112864
0.089404
0.0718634
0.0585866
0.0483998
0.0404746
0.0342252
0.0292341
0.0252002
0.0219042
0.019184
0.0169181
0.0150147
0.0134024
0.0120239
0.0108233
0.323714
0.247819
0.191099
0.14881
0.117249
0.0935708
0.0756574
0.0619606
0.0513628
0.0430614
0.0364794
0.0311997
0.026918
0.02341
0.0205085
0.0180873
0.0160501
0.0143218
0.01284
0.0115381
0.323714
0.247819
0.191099
0.14881
0.117249
0.0935707
0.0756572
0.0619604
0.0513625
0.0430609
0.0364787
0.0311988
0.0269167
0.0234082
0.020506
0.0180838
0.0160454
0.0143152
0.0128301
0.0115173
0.323293
0.245617
0.187499
0.144536
0.112864
0.0894038
0.0718631
0.0585862
0.0483992
0.0404738
0.0342241
0.0292325
0.025198
0.0219012
0.0191798
0.0169123
0.0150065
0.013391
0.0120069
0.0107899
0.322005
0.239026
0.177588
0.133616
0.102323
0.0798669
0.0635105
0.051382
0.0422216
0.0351793
0.0296756
0.0253093
0.021798
0.0189395
0.0165867
0.0146307
0.0129901
0.0116023
0.0104172
0.00937637
0.31754
0.217754
0.151085
0.108549
0.0807156
0.0618727
0.0486775
0.039142
0.032059
0.026672
0.0224907
0.0191883
0.0165404
0.0143889
0.0126205
0.0111535
0.00992618
0.0088914
0.00801633
0.00727531
0.283364
0.126774
0.071702
0.0473282
0.0338663
0.0256618
0.020461
0.0167973
0.014049
0.0119418
0.010285
0.00895716
0.00788667
0.00701361
0.00629214
0.00569007
0.00518566
0.00476212
0.00440998
0.00413757
0.264759
0.104702
0.0585298
0.0391631
0.0286199
0.0219935
0.0175361
0.0143633
0.0120083
0.0102139
0.00881648
0.00770594
0.00680439
0.00606107
0.00544957
0.00494836
0.00453136
0.00418231
0.00390501
0.00370273
0.311746
0.197541
0.130357
0.0911457
0.0668022
0.0508111
0.0397944
0.0319122
0.0260943
0.0216875
0.0182769
0.015589
0.0134416
0.0116991
0.0102684
0.00908181
0.0080885
0.00724874
0.00655022
0.00589925
0.31754
0.217754
0.151086
0.108549
0.0807157
0.0618727
0.0486775
0.039142
0.032059
0.026672
0.0224908
0.0191883
0.0165404
0.0143889
0.0126205
0.0111535
0.00992628
0.00889158
0.00801652
0.00727568
0.319723
0.227073
0.162232
0.118772
0.0893612
0.0689929
0.0545308
0.0439847
0.0361002
0.0300753
0.025383
0.0216665
0.0186796
0.0162481
0.0142462
0.0125813
0.0111847
0.0100038
0.0089977
0.00814131
0.320484
0.23086
0.167176
0.123531
0.0935159
0.0724825
0.0574407
0.0464213
0.0381538
0.0318172
0.0268709
0.0229468
0.0197882
0.0172134
0.0150907
0.0133225
0.0118363
0.0105764
0.00949945
0.00857116
0.320484
0.23086
0.167176
0.123531
0.0935157
0.0724823
0.0574403
0.0464208
0.0381532
0.0318163
0.0268697
0.022945
0.0197856
0.0172097
0.0150852
0.0133147
0.0118252
0.0105605
0.00947611
0.00851766
0.319723
0.227073
0.162232
0.118772
0.0893609
0.0689924
0.0545301
0.0439838
0.0360989
0.0300735
0.0253803
0.0216627
0.0186742
0.0162403
0.014235
0.0125653
0.0111616
0.0099704
0.00895004
0.00806245
0.31754
0.217754
0.151085
0.108549
0.0807154
0.0618723
0.048677
0.0391412
0.0320579
0.0266705
0.0224887
0.0191853
0.0165361
0.0143827
0.0126117
0.0111409
0.00990802
0.00886468
0.00797762
0.00721381
0.311746
0.197541
0.130357
0.0911457
0.0668022
0.0508111
0.0397944
0.0319122
0.0260943
0.0216875
0.0182768
0.0155889
0.0134416
0.0116989
0.0102685
0.00908188
0.00808853
0.00724871
0.0065502
0.00589913
0.264759
0.104702
0.0585298
0.0391631
0.0286199
0.0219935
0.0175361
0.0143634
0.0120085
0.0102142
0.00881699
0.00770679
0.00680578
0.00606389
0.00545386
0.00495509
0.00454283
0.00420366
0.00394413
0.00377022
0.213564
0.055916
0.0283994
0.0193412
0.0146928
0.0118511
0.00989071
0.00851609
0.00749139
0.00669645
0.00606077
0.00555134
0.00512372
0.00474677
0.00442814
0.0041618
0.0039391
0.00375729
0.00364534
0.00353324
0.264759
0.104702
0.0585298
0.0391631
0.0286199
0.0219935
0.0175361
0.0143634
0.0120085
0.0102142
0.00881701
0.0077068
0.00680579
0.00606401
0.00545387
0.00495508
0.00454287
0.00420375
0.00394427
0.00377039
0.283364
0.126774
0.071702
0.0473282
0.0338664
0.0256618
0.020461
0.0167973
0.014049
0.0119418
0.010285
0.00895719
0.00788671
0.00701364
0.00629218
0.00569014
0.00518576
0.00476225
0.00441013
0.00413773
0.292299
0.141633
0.0819302
0.0541654
0.0389231
0.0292875
0.0232724
0.0190788
0.0159344
0.0135153
0.0116273
0.0101136
0.00888305
0.00787285
0.00703575
0.00633606
0.0057468
0.00524749
0.00482414
0.00448835
0.295943
0.148782
0.0871941
0.0576749
0.0415194
0.0310722
0.024645
0.020221
0.0169049
0.0143248
0.0123082
0.0107021
0.0093958
0.00832204
0.0074306
0.00668338
0.00605183
0.00551413
0.00505786
0.00471749
0.295943
0.148782
0.0871941
0.0576749
0.0415193
0.0310721
0.0246448
0.0202207
0.0169045
0.0143243
0.0123074
0.0107008
0.00939401
0.00831941
0.00742667
0.00667749
0.00604298
0.00550081
0.00503735
0.00467882
0.292299
0.141633
0.0819301
0.0541653
0.0389229
0.0292872
0.023272
0.0190782
0.0159335
0.0135141
0.0116255
0.010111
0.00887932
0.00786737
0.00702753
0.0063238
0.00572828
0.0052192
0.00478198
0.00443459
0.283364
0.126774
0.071702
0.0473281
0.0338662
0.0256615
0.0204606
0.0167968
0.0140483
0.0119405
0.0102832
0.00895472
0.00788315
0.00700841
0.0062843
0.0056783
0.00516784
0.00473487
0.00436783
0.00407516
0.264759
0.104702
0.0585298
0.0391631
0.0286199
0.0219934
0.0175361
0.0143633
0.0120083
0.0102139
0.00881647
0.00770594
0.0068044
0.00606093
0.00544958
0.00494841
0.0045314
0.00418235
0.00390503
0.00370276
0.213564
0.055916
0.0283994
0.0193412
0.0146928
0.0118511
0.0098907
0.00851609
0.00749139
0.00669644
0.00606079
0.0055513
0.00512378
0.00474668
0.00442816
0.00416182
0.00393911
0.00375728
0.0036453
0.00353316
0.004705
0.00405554
0.00351974
0.0031979
0.00299945
0.00287261
0.00277511
0.00269289
0.00261946
0.00255506
0.00250075
0.00245022
0.00240302
0.0023551
0.00231073
0.00226793
0.00222819
0.0021894
0.00215306
0.00211862
0.00208503
0.00205297
0.0020222
0.00199394
0.00196726
0.00194147
0.00191673
0.00189237
0.00186897
0.00184636
0.0018251
0.00180441
0.00178427
0.00176437
0.00174507
0.00172838
0.0017126
0.00169674
0.00168317
0.00165691
0.00419966
0.00371024
0.00334267
0.00306018
0.0028571
0.0027094
0.00259073
0.00249133
0.00240086
0.00232202
0.00225665
0.00219592
0.00214345
0.00209075
0.00204173
0.00199497
0.00195231
0.00191222
0.00187493
0.00183999
0.00180656
0.0017747
0.00174484
0.00171729
0.00169192
0.00166796
0.00164488
0.00162241
0.0016007
0.0015796
0.0015593
0.00153974
0.00152104
0.00150297
0.00148543
0.00146874
0.00145327
0.00143838
0.00142439
0.00140782
0.00428924
0.00384251
0.00351434
0.00323237
0.00302866
0.00286476
0.00272247
0.00259987
0.00249514
0.00240335
0.00232268
0.00224928
0.00218662
0.00212282
0.00206522
0.00201281
0.00196524
0.00192186
0.00188052
0.00184147
0.00180452
0.00176764
0.00173278
0.00170131
0.00167262
0.00164579
0.00161967
0.00159432
0.00157
0.00154648
0.00152371
0.00150151
0.00148044
0.00146017
0.0014408
0.0014223
0.00140428
0.0013863
0.00136905
0.00135194
0.00419044
0.00386901
0.00359263
0.00335895
0.00316083
0.00298862
0.00283695
0.00270298
0.00258403
0.00247788
0.00238309
0.00229791
0.00222166
0.00215092
0.00208611
0.0020271
0.0019726
0.00192449
0.00187393
0.00182706
0.00178521
0.00174615
0.00170838
0.00167291
0.00163956
0.00160845
0.00157904
0.00155113
0.0015247
0.00149937
0.00147471
0.0014504
0.00142807
0.00140635
0.00138646
0.00136659
0.00134813
0.0013299
0.00131267
0.00129524
0.00413595
0.00385259
0.00360224
0.00338199
0.00318843
0.00301835
0.00286784
0.00273382
0.00261323
0.0025044
0.00240588
0.0023166
0.00223638
0.00216104
0.00209204
0.00202936
0.00197142
0.00191735
0.0018674
0.00182042
0.00177905
0.00173655
0.00169456
0.00165631
0.00162124
0.00158812
0.00155738
0.0015281
0.00150075
0.00147465
0.0014493
0.00142483
0.00140206
0.00137956
0.00135902
0.00133826
0.00131916
0.00130084
0.00128354
0.0012672
0.00432246
0.00391657
0.00361725
0.00337328
0.00316847
0.00299353
0.00284193
0.00270874
0.00258946
0.00248162
0.00238372
0.00229481
0.00221449
0.00213923
0.00207009
0.00200638
0.00194746
0.00189293
0.00184302
0.00179652
0.00175327
0.00171281
0.00167535
0.00164006
0.00160287
0.00156736
0.00153508
0.00150547
0.00147862
0.00145279
0.00142885
0.00140545
0.00138307
0.00135772
0.00133923
0.00131738
0.00129952
0.00128175
0.00126464
0.00124845
0.00431531
0.00386436
0.00354327
0.00329763
0.00309523
0.00292457
0.0027777
0.00264857
0.0025327
0.00242821
0.00233363
0.00224784
0.00217019
0.00209764
0.00203087
0.00196924
0.00191218
0.0018594
0.0018106
0.00176587
0.00172442
0.00168583
0.00164881
0.0016152
0.0015787
0.00154473
0.00151421
0.00148587
0.00145991
0.00143426
0.00141038
0.00138679
0.0013649
0.00134151
0.0013229
0.00130409
0.00128588
0.00126827
0.00125113
0.00123468
0.00410048
0.0036497
0.00335742
0.00314013
0.00295784
0.00280261
0.00266703
0.00254693
0.00243968
0.00234328
0.00225614
0.00217759
0.00210644
0.00203988
0.00197854
0.00192183
0.00186915
0.00182101
0.00177615
0.00173442
0.00169574
0.00165951
0.00162264
0.00158807
0.00155696
0.00152703
0.00149925
0.00147261
0.00144679
0.00142081
0.00139682
0.001375
0.00135527
0.0013358
0.00131695
0.0012985
0.00128015
0.00126256
0.0012457
0.00122939
0.00367304
0.00341129
0.00316688
0.00295951
0.00278952
0.00264697
0.00252582
0.00242115
0.00232847
0.00224609
0.0021721
0.00210718
0.00204809
0.00199236
0.0019403
0.00189093
0.00184018
0.00179567
0.00175401
0.00171583
0.0016791
0.00164503
0.00161253
0.00158074
0.00155186
0.00152384
0.00149792
0.00147327
0.00145041
0.00142852
0.0014079
0.00138806
0.00136947
0.00135159
0.00133421
0.00131664
0.00129956
0.00128374
0.00126893
0.00125341
0.00382067
0.00342737
0.00309225
0.00284809
0.00267514
0.00254896
0.00244821
0.00236451
0.00228413
0.00221657
0.00215785
0.00210716
0.00206055
0.0020074
0.00195834
0.00191274
0.00186913
0.00182824
0.00178966
0.00175358
0.00171941
0.00168743
0.00165791
0.00163044
0.00160526
0.00158117
0.00155829
0.0015364
0.00151573
0.00149571
0.0014768
0.00145884
0.00144184
0.00142537
0.00140956
0.00139361
0.00137914
0.00136579
0.00135419
0.00133944
0.00470424
0.0040553
0.00351845
0.00319602
0.00299787
0.00286787
0.00276829
0.00268569
0.00261091
0.00254801
0.00249337
0.0024454
0.00239902
0.00235209
0.00230802
0.00226609
0.00222657
0.00218838
0.00215245
0.00211801
0.00208502
0.00205278
0.00202255
0.00199406
0.0019677
0.00194163
0.00191687
0.00189234
0.0018688
0.00184608
0.0018248
0.00180408
0.00178395
0.00176406
0.00174506
0.00172742
0.00171107
0.0016947
0.00168078
0.00165308
0.00382032
0.00342881
0.00309507
0.00285075
0.00267756
0.00255518
0.0024563
0.00237261
0.00229416
0.00222495
0.00216702
0.00211335
0.00206579
0.00201131
0.00196218
0.00191527
0.00187177
0.00182992
0.00179099
0.00175466
0.00171997
0.0016877
0.00165787
0.00163035
0.00160507
0.00158105
0.00155828
0.00153652
0.00151599
0.00149611
0.00147731
0.00145942
0.00144251
0.00142603
0.00140965
0.00139427
0.0013808
0.00136826
0.00135703
0.00134283
0.00426419
0.00395822
0.00364726
0.00338328
0.00316353
0.00295753
0.00277216
0.0026069
0.00244147
0.00230082
0.0021836
0.00206786
0.00196953
0.0018659
0.00177549
0.00168366
0.00160606
0.00152949
0.00146165
0.00139922
0.00133729
0.00127808
0.00122494
0.00118364
0.00114544
0.00110839
0.00107447
0.00104219
0.00101415
0.000988246
0.000962539
0.000938552
0.00091821
0.000900099
0.000880816
0.000864627
0.000852514
0.000843585
0.000837427
0.000834471
0.00554775
0.00511319
0.00469246
0.00433245
0.00401358
0.00373477
0.00348743
0.00326531
0.00306601
0.00288456
0.00272119
0.00256564
0.00243801
0.00230976
0.00219837
0.00208862
0.00199375
0.00190169
0.00181984
0.00174195
0.00166668
0.00160071
0.00153448
0.00147623
0.00141878
0.00136621
0.00131864
0.001271
0.00123099
0.00119084
0.00115181
0.00111194
0.00107945
0.00104668
0.00101725
0.000985117
0.000955204
0.00092336
0.00089546
0.000873738
0.00676394
0.00609419
0.0055362
0.00506338
0.00466118
0.00431418
0.00400672
0.00373351
0.00348969
0.0032709
0.003074
0.00289515
0.00273538
0.00258838
0.00245408
0.00233101
0.00221785
0.00211461
0.0020178
0.00193077
0.00184731
0.00177335
0.00170066
0.00163575
0.00157262
0.00151712
0.00146262
0.00141341
0.00136618
0.00132119
0.00127755
0.00123318
0.00119504
0.00115632
0.00112161
0.00108447
0.00104864
0.00101234
0.000980964
0.000941964
0.00730766
0.00661505
0.00601882
0.00550312
0.00505482
0.00466547
0.00432459
0.00402398
0.0037548
0.00351303
0.00329542
0.00309899
0.00292144
0.00276017
0.00261314
0.00247886
0.00235592
0.00224315
0.00213942
0.00204352
0.00195639
0.00186839
0.00178616
0.00171681
0.00165531
0.00159628
0.00154206
0.00148699
0.00143548
0.00138647
0.00134101
0.00129567
0.00125436
0.0012124
0.00117396
0.00113339
0.00109367
0.00105458
0.00101955
0.000976013
0.00744605
0.00677904
0.00618801
0.00566737
0.00520927
0.0048074
0.00445493
0.00414494
0.00386796
0.00361836
0.00339316
0.00318991
0.00300597
0.00283927
0.00268738
0.00254865
0.00242158
0.00230491
0.00219758
0.00209848
0.00200716
0.00192183
0.00184334
0.00176271
0.00168576
0.00161897
0.0015637
0.001512
0.00146305
0.00141553
0.00137013
0.00132667
0.00128098
0.00123429
0.0011926
0.00114908
0.00110585
0.00106704
0.00102817
0.000982793
0.00741452
0.00669437
0.00608414
0.00556169
0.0051098
0.00471823
0.00437784
0.00407847
0.00380967
0.00356773
0.00334966
0.0031526
0.00297524
0.00281311
0.00266498
0.00252931
0.00240457
0.0022897
0.00218359
0.00208538
0.00199441
0.00190933
0.00183109
0.00175539
0.00168015
0.00161732
0.00155693
0.00149764
0.00144527
0.00139253
0.0013426
0.0012926
0.00124769
0.00120247
0.00116185
0.00111884
0.00107591
0.00103682
0.000997196
0.000951534
0.00673892
0.00613599
0.00559386
0.00512404
0.00471971
0.00437297
0.00406784
0.00379543
0.00355076
0.00333079
0.00313183
0.00295262
0.00279209
0.00264246
0.00250482
0.00237832
0.00226078
0.00215258
0.00205185
0.00195848
0.0018714
0.0017892
0.00171448
0.00163865
0.00157283
0.00150684
0.00144904
0.00139014
0.00133969
0.00128798
0.00123825
0.00118758
0.00114521
0.00110246
0.00106441
0.00102646
0.000984943
0.000945685
0.000910446
0.000872958
0.00590834
0.00528447
0.00477912
0.00438288
0.00405121
0.0037631
0.00350783
0.00328024
0.00307262
0.00288656
0.00271467
0.00256663
0.00242655
0.00229632
0.00217442
0.00206397
0.00195547
0.0018626
0.00176952
0.00168837
0.00160766
0.0015355
0.00146611
0.00140112
0.00134463
0.001287
0.00123861
0.00118861
0.00114756
0.0011059
0.00106654
0.00102613
0.000995036
0.000963568
0.000935312
0.000903581
0.000872385
0.000847775
0.00082595
0.000811478
0.00426283
0.00395517
0.00364299
0.00337866
0.00314403
0.00293748
0.00275012
0.00258559
0.00241321
0.00228228
0.00215728
0.00205537
0.00195806
0.00185628
0.00176457
0.00167657
0.00159791
0.00152407
0.00145754
0.00139507
0.00133546
0.00127645
0.00122546
0.00118328
0.00114617
0.0011083
0.00107427
0.00104163
0.00101329
0.000987232
0.000961411
0.000937326
0.000916928
0.000898252
0.000881406
0.000866058
0.000847869
0.000835215
0.000829254
0.000827712
0.00419954
0.00371014
0.00334128
0.00305853
0.00285482
0.00270485
0.00258457
0.00248482
0.00239221