/*--------------------------------*- C++ -*----------------------------------*\
| =========                 |                                                 |
| \\      /  F ield         | OpenFOAM: The Open Source CFD Toolbox           |
|  \\    /   O peration     | Version:  2212                                  |
|   \\  /    A nd           | Website:  www.openfoam.com                      |
|    \\/     M anipulation  |                                                 |
\*---------------------------------------------------------------------------*/
FoamFile
{
    version     2.0;
    format      ascii;
    arch        "LSB;label=32;scalar=64";
    class       volScalarField;
    location    "2.1";
    object      p;
}
// * * * * * * * * * * * * * * * * * * * * * * * * * * * * * * * * * * * * * //

dimensions      [0 2 -2 0 0 0 0];

internalField   nonuniform List<scalar> 
6840
(
0.017914
0.0107996
0.00850814
0.0079703
0.00769592
0.00747369
0.007287
0.0071205
0.00695921
0.00679956
0.00664157
0.00648496
0.00632844
0.0061707
0.00601125
0.0058491
0.00568308
0.00550417
0.00526666
0.00480172
0.0107352
0.0100014
0.00890848
0.0082425
0.00783992
0.00756619
0.00735502
0.00716881
0.00699443
0.00682715
0.00666444
0.00650459
0.00634612
0.00618844
0.00603157
0.00587495
0.00571453
0.00554243
0.00533819
0.00503476
0.010387
0.00953548
0.00877121
0.00821209
0.00783596
0.00756799
0.00735242
0.00715965
0.00698145
0.00681332
0.00665048
0.00649084
0.00633411
0.00618034
0.00602941
0.00588112
0.00573565
0.00559445
0.00546742
0.00537595
0.00997773
0.009215
0.00859625
0.00814494
0.00780101
0.00753205
0.00731257
0.00712401
0.00695655
0.00679972
0.00664502
0.00649131
0.00633972
0.00619161
0.00604884
0.00591471
0.00579422
0.00569452
0.00563213
0.00562764
0.00984351
0.00910233
0.00851416
0.00810606
0.00778414
0.00751747
0.00729602
0.00710553
0.00693501
0.00677871
0.0066295
0.00648074
0.006332
0.00618573
0.00604483
0.00591295
0.00579538
0.00569945
0.00563662
0.0056297
0.00984349
0.00910231
0.00851413
0.008106
0.00778406
0.00751734
0.00729581
0.00710516
0.00693439
0.00677768
0.00662779
0.00647787
0.00632719
0.00617771
0.00603135
0.00588989
0.00575592
0.00563151
0.00551983
0.00543242
0.00997767
0.00921494
0.00859617
0.00814483
0.00780084
0.00753177
0.00731209
0.00712316
0.00695512
0.00679735
0.00664112
0.00648492
0.00632931
0.00617458
0.00602053
0.00586684
0.00571346
0.00556128
0.00541387
0.0052779
0.0103869
0.00953542
0.00877115
0.00821199
0.0078358
0.0075677
0.00735192
0.00715881
0.00698008
0.00681103
0.00664667
0.00648463
0.00632412
0.00616425
0.00600337
0.00583902
0.00566701
0.0054819
0.00527933
0.00504292
0.0107352
0.0100014
0.00890845
0.00824246
0.00783984
0.00756605
0.00735478
0.0071684
0.00699373
0.00682598
0.00666254
0.00650148
0.00634084
0.00617929
0.00601617
0.00585026
0.005676
0.00547781
0.00521232
0.00477139
0.017914
0.0107996
0.00850813
0.0079703
0.00769592
0.00747369
0.007287
0.0071205
0.00695921
0.00679957
0.00664158
0.00648498
0.00632847
0.00617073
0.00601128
0.00584915
0.00568314
0.00550424
0.00526673
0.00480179
0.0107352
0.0100014
0.00890844
0.00824246
0.00783983
0.00756605
0.00735478
0.0071684
0.00699373
0.00682597
0.00666252
0.00650146
0.00634081
0.00617926
0.00601614
0.0058502
0.00567592
0.00547771
0.00521215
0.00477101
0.0100186
0.00998692
0.00925869
0.00854817
0.00810181
0.00778583
0.00752688
0.00729913
0.0070944
0.00690579
0.00672769
0.00655621
0.00638811
0.00622144
0.00605492
0.00588637
0.00571287
0.00553154
0.00535802
0.00526358
0.00909319
0.00921938
0.00891651
0.0085003
0.00813316
0.00781454
0.00753604
0.00729569
0.00708326
0.00688892
0.00670585
0.00653083
0.00636193
0.00619748
0.00603592
0.00587577
0.00571583
0.0055552
0.00539603
0.00524826
0.00867486
0.00871837
0.00855282
0.00828992
0.00800959
0.00773832
0.00748744
0.00726128
0.00705862
0.00687276
0.00669698
0.00652818
0.00636488
0.00620649
0.00605351
0.00590687
0.00576761
0.00563753
0.00552233
0.00542938
0.00845888
0.00848071
0.00835352
0.00813605
0.00790369
0.0076746
0.00745193
0.00723899
0.00703857
0.00685191
0.00667664
0.00650969
0.00634969
0.00619539
0.00604637
0.00590463
0.00577233
0.00565138
0.00554665
0.00546019
0.00845884
0.00848066
0.00835346
0.00813595
0.00790353
0.00767438
0.00745159
0.00723848
0.0070378
0.00685063
0.00667446
0.00650599
0.00634371
0.00618609
0.00603213
0.00588264
0.00573842
0.00559984
0.00546937
0.00534556
0.00867477
0.00871828
0.0085527
0.00828975
0.00800934
0.00773796
0.0074869
0.00726042
0.00705717
0.00687018
0.00669245
0.00652082
0.00635388
0.00619014
0.00602815
0.00586677
0.00570543
0.00554461
0.00538661
0.00522665
0.00909315
0.00921933
0.00891643
0.00850019
0.00813302
0.00781433
0.00753567
0.00729503
0.00708212
0.00688705
0.00670295
0.00652636
0.00635498
0.00618654
0.00601893
0.00585006
0.00567833
0.00550386
0.00533354
0.0051783
0.0100186
0.00998692
0.00925868
0.00854817
0.00810181
0.00778583
0.00752688
0.00729913
0.00709441
0.00690579
0.0067277
0.00655622
0.00638813
0.00622146
0.00605495
0.00588641
0.00571293
0.00553163
0.00535814
0.00526389
0.0107352
0.0100014
0.00890847
0.0082425
0.00783991
0.00756618
0.00735501
0.0071688
0.00699442
0.00682715
0.00666445
0.0065046
0.00634614
0.00618845
0.00603157
0.00587497
0.00571455
0.00554244
0.00533816
0.00503464
0.0103869
0.00953542
0.00877114
0.00821199
0.00783579
0.00756769
0.00735191
0.0071588
0.00698007
0.00681102
0.00664665
0.00648461
0.0063241
0.00616422
0.00600333
0.00583896
0.00566694
0.00548182
0.00527922
0.00504276
0.00909314
0.00921933
0.00891643
0.00850019
0.00813302
0.00781433
0.00753566
0.00729502
0.00708211
0.00688704
0.00670294
0.00652634
0.00635496
0.00618652
0.0060189
0.00585002
0.00567829
0.00550381
0.00533348
0.00517821
0.00852368
0.00862465
0.00851309
0.00828761
0.00803185
0.00777343
0.007515
0.00727334
0.00705538
0.00685499
0.00666715
0.00648866
0.00631681
0.00614942
0.00598499
0.00582224
0.0056603
0.00550063
0.00534944
0.00520443
0.00815573
0.0082238
0.00817144
0.0080245
0.00783967
0.00763458
0.00742397
0.00721719
0.00701625
0.00682413
0.00664205
0.00646818
0.00630056
0.00613805
0.00598002
0.00582579
0.00567485
0.00552759
0.00538592
0.00524194
0.00797267
0.00803711
0.00800765
0.00788285
0.0077239
0.0075503
0.00736408
0.00717619
0.00699024
0.00680712
0.0066284
0.00645513
0.00628775
0.00612621
0.00597047
0.00581999
0.00567356
0.00552983
0.00538827
0.00523982
0.00797264
0.00803708
0.00800761
0.00788275
0.00772373
0.00755005
0.00736379
0.00717578
0.00698964
0.00680619
0.00662699
0.00645302
0.00628469
0.00612157
0.00596333
0.00580951
0.00565875
0.00550994
0.00536375
0.00521398
0.00815567
0.00822374
0.00817135
0.00802435
0.00783945
0.0076343
0.00742362
0.00721666
0.00701544
0.00682283
0.00663993
0.00646487
0.00629558
0.00613055
0.00596859
0.00580858
0.00564943
0.0054909
0.00533427
0.00517289
0.00852368
0.00862465
0.00851309
0.00828761
0.00803185
0.00777343
0.007515
0.00727334
0.00705538
0.00685499
0.00666715
0.00648867
0.00631682
0.00614943
0.005985
0.00582224
0.00566028
0.00550058
0.00534929
0.0052041
0.00909319
0.00921938
0.00891651
0.00850029
0.00813315
0.00781454
0.00753604
0.00729568
0.00708326
0.00688892
0.00670586
0.00653084
0.00636194
0.00619749
0.00603594
0.00587578
0.00571584
0.00555519
0.00539601
0.00524824
0.010387
0.00953547
0.00877121
0.00821208
0.00783595
0.00756798
0.00735241
0.00715964
0.00698145
0.00681332
0.00665048
0.00649084
0.00633411
0.00618034
0.0060294
0.00588112
0.00573563
0.0055944
0.0054673
0.0053757
0.00997767
0.00921493
0.00859616
0.00814483
0.00780083
0.00753177
0.00731208
0.00712315
0.00695511
0.00679734
0.00664111
0.00648491
0.00632929
0.00617456
0.0060205
0.00586681
0.00571342
0.00556123
0.00541381
0.00527785
0.00867477
0.00871827
0.00855269
0.00828974
0.00800934
0.00773796
0.00748689
0.00726041
0.00705716
0.00687017
0.00669244
0.00652081
0.00635387
0.00619013
0.00602813
0.00586675
0.0057054
0.00554458
0.0053866
0.00522671
0.00815567
0.00822374
0.00817135
0.00802435
0.00783945
0.0076343
0.00742361
0.00721666
0.00701544
0.00682283
0.00663993
0.00646486
0.00629557
0.00613054
0.00596859
0.00580858
0.00564945
0.00549093
0.00533435
0.00517305
0.00785781
0.00791695
0.00790501
0.00780962
0.00767
0.00750451
0.00732431
0.00713983
0.00695583
0.00677543
0.00660025
0.00643013
0.00626443
0.00610256
0.00594391
0.00578773
0.00563312
0.00547975
0.0053285
0.00517057
0.00770671
0.00776961
0.00777337
0.00769972
0.00757961
0.00743324
0.00727037
0.00709897
0.00692485
0.0067513
0.00658019
0.0064124
0.00624825
0.00608774
0.00593064
0.00577628
0.00562361
0.00547217
0.00532281
0.00516553
0.00770669
0.00776959
0.00777334
0.00769969
0.00757957
0.00743317
0.00727026
0.00709881
0.00692463
0.006751
0.00657978
0.00641182
0.00624743
0.0060865
0.00592881
0.00577385
0.00562076
0.0054693
0.0053209
0.00516689
0.00785781
0.00791695
0.00790501
0.00780962
0.00767
0.00750451
0.00732431
0.00713983
0.00695583
0.00677543
0.00660025
0.00643013
0.00626444
0.00610256
0.00594392
0.00578774
0.00563312
0.00547976
0.00532851
0.00517059
0.00815573
0.00822379
0.00817143
0.0080245
0.00783967
0.00763457
0.00742396
0.00721718
0.00701624
0.00682413
0.00664205
0.00646818
0.00630057
0.00613805
0.00598003
0.0058258
0.00567486
0.00552761
0.00538593
0.00524194
0.00867485
0.00871836
0.00855282
0.00828992
0.00800959
0.00773831
0.00748743
0.00726127
0.00705861
0.00687276
0.00669697
0.00652818
0.00636488
0.0062065
0.00605352
0.00590687
0.00576762
0.00563755
0.00552236
0.00542945
0.00997772
0.00921499
0.00859624
0.00814493
0.007801
0.00753204
0.00731256
0.007124
0.00695655
0.00679971
0.00664502
0.00649131
0.00633971
0.00619161
0.00604883
0.0059147
0.00579419
0.00569447
0.00563204
0.00562747
0.00984349
0.0091023
0.00851412
0.008106
0.00778405
0.00751733
0.0072958
0.00710516
0.00693439
0.00677768
0.00662778
0.00647786
0.00632718
0.00617769
0.00603134
0.00588988
0.0057559
0.00563148
0.00551979
0.00543237
0.00845883
0.00848066
0.00835346
0.00813594
0.00790352
0.00767438
0.00745158
0.00723847
0.0070378
0.00685062
0.00667445
0.00650598
0.0063437
0.00618608
0.00603212
0.00588262
0.00573839
0.00559981
0.00546934
0.00534551
0.00797264
0.00803708
0.00800761
0.00788275
0.00772372
0.00755005
0.00736378
0.00717577
0.00698963
0.00680618
0.00662698
0.00645302
0.00628468
0.00612156
0.00596333
0.0058095
0.00565874
0.00550993
0.00536374
0.00521396
0.00770669
0.00776959
0.00777334
0.00769969
0.00757956
0.00743316
0.00727026
0.00709881
0.00692462
0.006751
0.00657977
0.00641182
0.00624742
0.00608649
0.0059288
0.00577384
0.00562075
0.00546929
0.00532087
0.00516686
0.0075639
0.00763342
0.00765554
0.00760299
0.00750174
0.00737079
0.00722086
0.00705985
0.00689331
0.00672492
0.00655704
0.00639109
0.00622778
0.00606741
0.00590989
0.00575467
0.00560077
0.0054477
0.00529601
0.00513685
0.0075639
0.00763342
0.00765554
0.00760299
0.00750174
0.0073708
0.00722086
0.00705985
0.00689331
0.00672492
0.00655705
0.00639109
0.00622779
0.00606741
0.00590989
0.00575467
0.00560078
0.00544772
0.00529604
0.00513689
0.00770671
0.0077696
0.00777337
0.00769972
0.00757961
0.00743324
0.00727037
0.00709897
0.00692484
0.0067513
0.00658019
0.0064124
0.00624825
0.00608775
0.00593065
0.00577629
0.00562363
0.00547221
0.00532286
0.00516561
0.00797267
0.0080371
0.00800765
0.00788284
0.0077239
0.00755029
0.00736408
0.00717618
0.00699023
0.00680711
0.0066284
0.00645514
0.00628776
0.00612621
0.00597048
0.00582001
0.0056736
0.00552989
0.00538839
0.00524003
0.00845887
0.0084807
0.00835352
0.00813605
0.00790368
0.0076746
0.00745192
0.00723898
0.00703857
0.0068519
0.00667664
0.00650968
0.00634969
0.00619539
0.00604637
0.00590463
0.00577234
0.0056514
0.00554671
0.00546031
0.0098435
0.00910232
0.00851415
0.00810605
0.00778414
0.00751746
0.00729602
0.00710552
0.006935
0.0067787
0.00662949
0.00648073
0.006332
0.00618572
0.00604482
0.00591293
0.00579535
0.00569941
0.00563655
0.00562959
0.0098435
0.00910232
0.00851416
0.00810606
0.00778414
0.00751746
0.00729602
0.00710552
0.006935
0.0067787
0.00662949
0.00648073
0.006332
0.00618572
0.00604482
0.00591294
0.00579537
0.00569944
0.0056366
0.00562966
0.00845887
0.0084807
0.00835352
0.00813605
0.00790368
0.0076746
0.00745192
0.00723898
0.00703856
0.0068519
0.00667663
0.00650968
0.00634968
0.00619538
0.00604636
0.00590461
0.0057723
0.00565134
0.0055466
0.00546012
0.00797267
0.0080371
0.00800765
0.00788284
0.0077239
0.00755029
0.00736408
0.00717618
0.00699023
0.00680711
0.00662839
0.00645513
0.00628774
0.00612619
0.00597045
0.00581998
0.00567354
0.00552979
0.00538823
0.00523977
0.00770671
0.0077696
0.00777336
0.00769972
0.00757961
0.00743323
0.00727037
0.00709897
0.00692484
0.0067513
0.00658019
0.00641239
0.00624824
0.00608773
0.00593063
0.00577626
0.0056236
0.00547215
0.00532279
0.0051655
0.0075639
0.00763341
0.00765554
0.00760299
0.00750173
0.00737079
0.00722086
0.00705985
0.00689331
0.00672492
0.00655704
0.00639108
0.00622778
0.00606741
0.00590989
0.00575466
0.00560077
0.0054477
0.00529601
0.00513685
0.0075639
0.00763341
0.00765554
0.00760299
0.00750174
0.00737079
0.00722086
0.00705985
0.00689331
0.00672492
0.00655704
0.00639109
0.00622779
0.00606741
0.00590989
0.00575467
0.00560078
0.00544771
0.00529603
0.00513688
0.00770669
0.00776959
0.00777334
0.00769969
0.00757956
0.00743317
0.00727026
0.00709881
0.00692462
0.006751
0.00657978
0.00641182
0.00624743
0.0060865
0.00592881
0.00577386
0.00562078
0.00546932
0.00532093
0.00516693
0.00797264
0.00803707
0.00800761
0.00788275
0.00772372
0.00755005
0.00736378
0.00717577
0.00698963
0.00680619
0.00662699
0.00645302
0.00628469
0.00612157
0.00596334
0.00580952
0.00565878
0.00551
0.00536384
0.00521411
0.00845883
0.00848066
0.00835346
0.00813594
0.00790352
0.00767438
0.00745158
0.00723847
0.0070378
0.00685063
0.00667445
0.00650599
0.0063437
0.00618608
0.00603212
0.00588263
0.00573842
0.00559985
0.00546941
0.00534564
0.00984349
0.0091023
0.00851412
0.008106
0.00778405
0.00751733
0.0072958
0.00710516
0.00693439
0.00677768
0.00662778
0.00647786
0.00632718
0.0061777
0.00603134
0.00588987
0.00575589
0.00563146
0.00551976
0.00543229
0.00997772
0.009215
0.00859624
0.00814494
0.007801
0.00753205
0.00731257
0.007124
0.00695655
0.00679971
0.00664502
0.00649131
0.00633971
0.00619161
0.00604883
0.00591471
0.00579422
0.00569451
0.00563212
0.00562762
0.00867485
0.00871836
0.00855282
0.00828992
0.00800959
0.00773831
0.00748743
0.00726127
0.00705861
0.00687275
0.00669697
0.00652817
0.00636487
0.00620649
0.0060535
0.00590686
0.00576759
0.00563751
0.00552228
0.00542928
0.00815573
0.00822379
0.00817143
0.00802449
0.00783967
0.00763457
0.00742396
0.00721718
0.00701624
0.00682412
0.00664204
0.00646817
0.00630055
0.00613803
0.00598
0.00582577
0.00567482
0.00552755
0.00538585
0.00524183
0.0078578
0.00791695
0.00790501
0.00780962
0.00767
0.00750451
0.00732431
0.00713982
0.00695582
0.00677542
0.00660025
0.00643012
0.00626443
0.00610255
0.0059439
0.00578772
0.0056331
0.00547973
0.00532847
0.00517055
0.00770669
0.00776958
0.00777334
0.00769969
0.00757956
0.00743316
0.00727025
0.00709881
0.00692462
0.006751
0.00657977
0.00641182
0.00624742
0.00608649
0.0059288
0.00577384
0.00562076
0.00546929
0.00532089
0.00516688
0.00770671
0.0077696
0.00777336
0.00769972
0.00757961
0.00743323
0.00727037
0.00709897
0.00692484
0.0067513
0.00658019
0.00641239
0.00624825
0.00608774
0.00593064
0.00577628
0.00562361
0.00547218
0.00532282
0.00516555
0.0078578
0.00791695
0.00790501
0.00780962
0.00767
0.00750451
0.00732431
0.00713983
0.00695583
0.00677543
0.00660025
0.00643013
0.00626443
0.00610256
0.00594391
0.00578773
0.00563312
0.00547976
0.00532852
0.00517059
0.00815567
0.00822373
0.00817135
0.00802435
0.00783945
0.0076343
0.00742361
0.00721666
0.00701544
0.00682283
0.00663993
0.00646487
0.00629558
0.00613055
0.00596859
0.00580859
0.00564946
0.00549096
0.00533438
0.00517308
0.00867476
0.00871827
0.00855269
0.00828974
0.00800934
0.00773796
0.00748689
0.00726041
0.00705716
0.00687018
0.00669245
0.00652082
0.00635388
0.00619014
0.00602814
0.00586677
0.00570542
0.00554462
0.00538664
0.00522676
0.00997767
0.00921493
0.00859616
0.00814483
0.00780083
0.00753177
0.00731208
0.00712315
0.00695512
0.00679735
0.00664112
0.00648492
0.0063293
0.00617457
0.00602051
0.00586682
0.00571343
0.00556123
0.00541378
0.00527776
0.010387
0.00953547
0.00877121
0.00821208
0.00783595
0.00756798
0.00735241
0.00715964
0.00698144
0.00681331
0.00665047
0.00649083
0.00633411
0.00618034
0.00602941
0.00588113
0.00573565
0.00559446
0.00546744
0.00537597
0.00909318
0.00921938
0.0089165
0.00850029
0.00813315
0.00781454
0.00753603
0.00729568
0.00708325
0.00688891
0.00670585
0.00653083
0.00636193
0.00619747
0.00603592
0.00587577
0.00571583
0.00555519
0.00539601
0.00524819
0.00852367
0.00862465
0.00851309
0.00828761
0.00803184
0.00777342
0.007515
0.00727334
0.00705538
0.00685498
0.00666714
0.00648866
0.0063168
0.00614941
0.00598498
0.00582223
0.00566028
0.00550061
0.00534939
0.00520433
0.00815567
0.00822373
0.00817134
0.00802435
0.00783945
0.0076343
0.00742361
0.00721665
0.00701543
0.00682282
0.00663992
0.00646486
0.00629557
0.00613054
0.00596858
0.00580857
0.00564943
0.00549091
0.00533431
0.00517297
0.00797263
0.00803707
0.00800761
0.00788275
0.00772372
0.00755004
0.00736378
0.00717577
0.00698963
0.00680618
0.00662698
0.00645302
0.00628468
0.00612156
0.00596333
0.0058095
0.00565875
0.00550995
0.00536376
0.00521401
0.00797267
0.0080371
0.00800764
0.00788284
0.0077239
0.00755029
0.00736408
0.00717618
0.00699023
0.00680711
0.0066284
0.00645513
0.00628775
0.0061262
0.00597047
0.00581999
0.00567356
0.00552983
0.0053883
0.00523989
0.00815573
0.00822379
0.00817143
0.0080245
0.00783967
0.00763457
0.00742396
0.00721718
0.00701624
0.00682412
0.00664205
0.00646818
0.00630056
0.00613805
0.00598002
0.00582579
0.00567484
0.00552758
0.00538591
0.00524191
0.00852367
0.00862465
0.00851309
0.00828761
0.00803185
0.00777343
0.007515
0.00727334
0.00705538
0.00685499
0.00666715
0.00648867
0.00631681
0.00614943
0.005985
0.00582224
0.0056603
0.00550063
0.00534942
0.00520439
0.00909314
0.00921932
0.00891643
0.00850019
0.00813302
0.00781432
0.00753566
0.00729502
0.00708211
0.00688704
0.00670294
0.00652635
0.00635497
0.00618654
0.00601892
0.00585004
0.00567831
0.00550384
0.00533352
0.00517826
0.0103869
0.00953542
0.00877114
0.00821199
0.00783579
0.00756769
0.00735192
0.00715881
0.00698008
0.00681103
0.00664666
0.00648463
0.00632412
0.00616424
0.00600336
0.00583899
0.00566697
0.00548184
0.00527924
0.00504276
0.0107352
0.0100014
0.00890847
0.0082425
0.00783991
0.00756618
0.00735501
0.0071688
0.00699442
0.00682714
0.00666444
0.00650458
0.00634612
0.00618844
0.00603158
0.00587496
0.00571454
0.00554245
0.00533822
0.00503483
0.0100186
0.00998691
0.00925868
0.00854817
0.0081018
0.00778582
0.00752687
0.00729912
0.0070944
0.00690578
0.00672768
0.0065562
0.00638811
0.00622144
0.00605492
0.00588637
0.00571288
0.00553156
0.00535806
0.00526363
0.00909314
0.00921932
0.00891642
0.00850019
0.00813301
0.00781432
0.00753566
0.00729502
0.0070821
0.00688703
0.00670293
0.00652634
0.00635496
0.00618652
0.0060189
0.00585002
0.00567829
0.00550381
0.00533349
0.00517822
0.00867476
0.00871827
0.00855269
0.00828974
0.00800933
0.00773795
0.00748689
0.00726041
0.00705716
0.00687017
0.00669244
0.00652081
0.00635386
0.00619012
0.00602813
0.00586675
0.0057054
0.00554458
0.00538659
0.00522668
0.00845883
0.00848066
0.00835346
0.00813594
0.00790352
0.00767437
0.00745158
0.00723847
0.00703779
0.00685062
0.00667444
0.00650598
0.00634369
0.00618607
0.00603211
0.00588262
0.00573839
0.00559981
0.00546935
0.00534554
0.00845887
0.0084807
0.00835352
0.00813605
0.00790368
0.0076746
0.00745192
0.00723898
0.00703856
0.0068519
0.00667663
0.00650968
0.00634968
0.00619539
0.00604637
0.00590462
0.00577231
0.00565136
0.00554663
0.00546019
0.00867485
0.00871836
0.00855282
0.00828992
0.00800959
0.00773831
0.00748743
0.00726127
0.00705861
0.00687275
0.00669697
0.00652818
0.00636488
0.0062065
0.00605351
0.00590686
0.0057676
0.00563752
0.0055223
0.00542934
0.00909319
0.00921938
0.00891651
0.00850029
0.00813315
0.00781454
0.00753604
0.00729568
0.00708326
0.00688891
0.00670586
0.00653083
0.00636194
0.00619748
0.00603593
0.00587577
0.00571583
0.00555519
0.005396
0.0052482
0.0100186
0.00998691
0.00925868
0.00854817
0.00810181
0.00778583
0.00752687
0.00729913
0.00709441
0.00690579
0.00672769
0.00655622
0.00638813
0.00622146
0.00605493
0.00588639
0.0057129
0.00553158
0.00535807
0.00526366
0.0107352
0.0100014
0.00890844
0.00824246
0.00783983
0.00756605
0.00735478
0.0071684
0.00699373
0.00682597
0.00666254
0.00650148
0.00634084
0.00617928
0.00601616
0.00585023
0.00567596
0.00547775
0.00521221
0.00477111
0.017914
0.0107996
0.00850813
0.00797029
0.00769591
0.00747368
0.007287
0.00712049
0.00695921
0.00679956
0.00664156
0.00648496
0.00632844
0.00617071
0.00601126
0.00584911
0.00568309
0.00550419
0.00526669
0.00480178
0.0107352
0.0100013
0.00890844
0.00824245
0.00783983
0.00756604
0.00735477
0.00716839
0.00699372
0.00682596
0.00666252
0.00650146
0.00634081
0.00617927
0.00601614
0.0058502
0.00567593
0.00547772
0.00521217
0.00477105
0.0103869
0.00953542
0.00877114
0.00821198
0.00783579
0.00756769
0.00735191
0.0071588
0.00698006
0.00681102
0.00664665
0.00648461
0.0063241
0.00616422
0.00600333
0.00583897
0.00566694
0.00548182
0.00527924
0.0050428
0.00997766
0.00921493
0.00859616
0.00814482
0.00780083
0.00753176
0.00731208
0.00712315
0.00695511
0.00679734
0.00664111
0.00648491
0.00632929
0.00617455
0.00602049
0.0058668
0.00571342
0.00556123
0.0054138
0.00527782
0.00984348
0.0091023
0.00851412
0.00810599
0.00778405
0.00751733
0.0072958
0.00710515
0.00693438
0.00677767
0.00662778
0.00647786
0.00632718
0.00617769
0.00603133
0.00588987
0.00575588
0.00563147
0.00551976
0.0054323
0.0098435
0.00910232
0.00851415
0.00810605
0.00778413
0.00751746
0.00729601
0.00710552
0.006935
0.0067787
0.00662949
0.00648073
0.00633199
0.00618572
0.00604481
0.00591294
0.00579536
0.00569942
0.00563656
0.00562959
0.00997772
0.009215
0.00859624
0.00814494
0.007801
0.00753205
0.00731257
0.007124
0.00695655
0.00679971
0.00664502
0.00649131
0.00633971
0.0061916
0.00604883
0.0059147
0.0057942
0.00569449
0.00563206
0.00562753
0.010387
0.00953548
0.00877121
0.00821208
0.00783595
0.00756798
0.00735242
0.00715964
0.00698145
0.00681332
0.00665048
0.00649084
0.00633411
0.00618034
0.0060294
0.00588112
0.00573564
0.00559443
0.00546738
0.00537585
0.0107352
0.0100014
0.00890847
0.0082425
0.00783991
0.00756618
0.00735501
0.00716881
0.00699442
0.00682715
0.00666444
0.0065046
0.00634613
0.00618845
0.00603157
0.00587496
0.00571454
0.00554243
0.00533819
0.00503476
0.017914
0.0107996
0.00850813
0.0079703
0.00769592
0.00747369
0.007287
0.0071205
0.00695921
0.00679957
0.00664158
0.00648498
0.00632846
0.00617072
0.00601127
0.00584913
0.00568311
0.0055042
0.00526669
0.00480178
0.00560069
0.00495919
0.00454352
0.00440456
0.00428946
0.00416313
0.00403669
0.00390976
0.00377929
0.00364662
0.00351478
0.00338318
0.00325325
0.00312504
0.00299703
0.00286912
0.00274129
0.00261479
0.00248916
0.00236516
0.00224167
0.0021192
0.00199787
0.00187761
0.00175881
0.00164045
0.00152304
0.00140645
0.00129089
0.00117705
0.00106368
0.000949571
0.000835942
0.000724019
0.000613147
0.000501822
0.000389376
0.000276366
0.000166014
5.02544e-05
0.00572869
0.00505781
0.00457393
0.00438403
0.00425935
0.00413395
0.00400949
0.00388586
0.00375887
0.003629
0.00349916
0.00336895
0.00323985
0.00311188
0.00298363
0.00285544
0.00272765
0.00260132
0.00247601
0.00235222
0.00222917
0.00210751
0.00198746
0.00186853
0.0017505
0.00163254
0.00151533
0.0013989
0.00128362
0.00117014
0.00105733
0.000943907
0.000830854
0.000719388
0.000608896
0.000497909
0.000385983
0.00027384
0.00016353
4.95991e-05
0.00549421
0.00508835
0.0047245
0.00450448
0.00433937
0.00418367
0.00403585
0.00389629
0.0037616
0.00362861
0.00349672
0.00336475
0.00323437
0.00310536
0.00297661
0.00284841
0.00272091
0.00259471
0.00246947
0.00234559
0.00222209
0.00210004
0.00197974
0.00186078
0.00174273
0.00162486
0.00150804
0.00139202
0.00127738
0.00116451
0.00105248
0.000939928
0.000827686
0.000716848
0.000607056
0.000497041
0.00038587
0.000274251
0.000164379
5.009e-05
0.00525666
0.00502115
0.0047704
0.0045647
0.00438994
0.00422977
0.00407814
0.00393296
0.00379255
0.00365497
0.00351927
0.00338509
0.00325272
0.00312182
0.0029919
0.00286292
0.00273491
0.00260801
0.0024819
0.00235693
0.00223259
0.0021089
0.00198597
0.00186428
0.00174428
0.00162563
0.00150825
0.00139195
0.00127726
0.00116376
0.00105101
0.000937844
0.000825414
0.000714651
0.000605159
0.000495609
0.000384708
0.000273164
0.000163884
4.98081e-05
0.00507415
0.00493251
0.00475741
0.00458055
0.00441388
0.00425537
0.00410285
0.0039555
0.00381237
0.00367231
0.00353428
0.00339826
0.0032643
0.00313209
0.00300116
0.00287138
0.00274278
0.00261533
0.002489
0.00236386
0.00223997
0.00211715
0.00199492
0.00187323
0.00175269
0.0016335
0.00151591
0.0013999
0.0012849
0.0011705
0.00105627
0.000942071
0.000829135
0.00071777
0.000607725
0.000497561
0.000386058
0.000274357
0.000164914
5.01808e-05
0.00496212
0.00488275
0.00474452
0.00458164
0.00441986
0.00426365
0.00411216
0.00396512
0.00382205
0.00368179
0.00354349
0.00340704
0.00327253
0.00313968
0.00300818
0.00287795
0.002749
0.00262128
0.00249477
0.00236947
0.0022454
0.00212253
0.0020009
0.00188007
0.00175954
0.00163956
0.00152104
0.00140439
0.00128927
0.00117529
0.00106183
0.000948778
0.000836544
0.000724942
0.000614201
0.000503022
0.000390297
0.000277877
0.000167277
5.08861e-05
0.004919
0.00485747
0.00473642
0.0045779
0.0044173
0.00426335
0.00411391
0.00396816
0.00382575
0.00368565
0.00354736
0.00341085
0.00327609
0.00314281
0.00301072
0.00288001
0.0027508
0.002623
0.00249649
0.00237122
0.00224721
0.00212439
0.00200283
0.00188205
0.00176162
0.00164156
0.00152317
0.00140663
0.00129174
0.00117831
0.0010649
0.00095122
0.000838322
0.000727026
0.000617183
0.000506948
0.00039456
0.000281519
0.000169589
5.21863e-05
0.00500993
0.00491412
0.00474269
0.00456327
0.00440301
0.00425307
0.0041071
0.00396358
0.00382231
0.0036827
0.00354463
0.00340835
0.00327405
0.00314102
0.00300845
0.00287712
0.0027476
0.00261983
0.00249354
0.0023685
0.00224477
0.00212213
0.00200098
0.0018803
0.00176067
0.00164265
0.00152607
0.00141033
0.00129569
0.00118254
0.00106899
0.000954501
0.000841006
0.000729641
0.000619248
0.000509513
0.000397845
0.000283743
0.000170236
5.27117e-05
0.00524025
0.00499454
0.00471867
0.00452265
0.0043694
0.00422397
0.0040812
0.00394148
0.00380322
0.00366583
0.00352969
0.00339533
0.0032633
0.00313294
0.00300366
0.00287546
0.00274724
0.00262003
0.0024943
0.00236951
0.00224577
0.00212292
0.00200147
0.00188083
0.00176199
0.00164439
0.00152786
0.00141186
0.00129654
0.00118279
0.00106897
0.000954133
0.000840209
0.00072825
0.000617297
0.000507241
0.000395079
0.000280686
0.000167389
5.15568e-05
0.00553558
0.00499615
0.0046225
0.00447229
0.00434649
0.00420895
0.00407144
0.00393604
0.00380022
0.00366427
0.00352958
0.0033964
0.00326641
0.00313806
0.00301036
0.00288328
0.00275567
0.00262859
0.00250279
0.00237806
0.00225435
0.00213141
0.00200917
0.0018877
0.001768
0.0016494
0.00153156
0.00141462
0.00129863
0.0011844
0.00107046
0.000955566
0.000841286
0.000728763
0.000617323
0.000506898
0.000394916
0.000280477
0.000167178
5.13261e-05
0.00560092
0.00495975
0.00454446
0.00440603
0.00429028
0.00416321
0.00403665
0.00390945
0.00377867
0.00364598
0.00351372
0.00338226
0.00325342
0.0031254
0.00299705
0.00286919
0.00274146
0.00261468
0.00248927
0.00236494
0.00224164
0.00211938
0.00199827
0.00187807
0.00175912
0.00164095
0.00152337
0.00140673
0.00129111
0.00117725
0.00106388
0.000949719
0.000836068
0.000724049
0.00061302
0.000502943
0.000391462
0.000277717
0.000166482
4.99028e-05
0.00553524
0.00499544
0.00462148
0.00447031
0.0043449
0.00420909
0.00407212
0.00393662
0.00380095
0.00366498
0.00353075
0.00339742
0.00326631
0.00313763
0.00301029
0.00288314
0.00275545
0.00262869
0.00250269
0.00237833
0.00225442
0.00213126
0.00200873
0.00188717
0.00176755
0.00164879
0.0015311
0.00141421
0.00129832
0.00118411
0.00107018
0.000955386
0.00084116
0.000728804
0.000617499
0.000505562
0.000392256
0.000278518
0.000166484
5.15831e-05
0.00540718
0.00501802
0.00469079
0.00448919
0.00433774
0.00419277
0.00405329
0.00391904
0.00378677
0.00365488
0.00352375
0.00339224
0.0032621
0.00313351
0.00300565
0.0028778
0.00275033
0.00262418
0.00249888
0.0023753
0.00225158
0.00212899
0.00200755
0.00188707
0.001768
0.00164904
0.00153124
0.0014142
0.00129836
0.00118442
0.00107063
0.000955675
0.000841423
0.000729136
0.000618364
0.000507224
0.000394019
0.000280165
0.000168534
5.24736e-05
0.00526531
0.00500896
0.00476711
0.00456019
0.00438298
0.00422028
0.00406784
0.00392322
0.00378374
0.00364771
0.00351357
0.00338109
0.00324969
0.00311938
0.00299053
0.00286263
0.00273573
0.00260996
0.00248535
0.00236134
0.00223783
0.00211512
0.00199369
0.00187355
0.00175468
0.00163689
0.00152005
0.00140411
0.00128963
0.00117615
0.00106272
0.000948943
0.000836067
0.000724336
0.00061396
0.000503914
0.000392562
0.000280395
0.000170323
5.38691e-05
0.00514262
0.00495701
0.00476881
0.0045818
0.00440975
0.00424849
0.0040939
0.00394544
0.00380248
0.00366349
0.00352709
0.00339334
0.00326102
0.00312975
0.00299995
0.00287138
0.0027439
0.00261729
0.00249184
0.00236715
0.00224372
0.00212075
0.00199861
0.00187792
0.00175833
0.00164007
0.0015225
0.00140611
0.00129085
0.00117589
0.00106104
0.000946988
0.000834164
0.000722044
0.000610921
0.000500079
0.000388897
0.000277852
0.000168298
5.35546e-05
0.00503202
0.00486916
0.00471561
0.00455376
0.00439466
0.00424199
0.00409391
0.00394932
0.00380802
0.00366981
0.003534
0.00340011
0.00326756
0.00313622
0.00300619
0.00287735
0.00274957
0.00262274
0.00249701
0.00237218
0.00224826
0.00212503
0.00200296
0.00188218
0.00176231
0.00164372
0.00152644
0.00141014
0.00129452
0.00117915
0.00106388
0.000949738
0.000836716
0.000724138
0.000611887
0.000499324
0.000386944
0.000275835
0.000166298
5.34363e-05
0.00489901
0.00475783
0.00464903
0.00451355
0.00436862
0.00422616
0.00408568
0.00394604
0.00380814
0.0036723
0.00353799
0.00340484
0.00327266
0.00314141
0.00301121
0.00288203
0.00275386
0.00262667
0.00250052
0.00237537
0.00225116
0.00212785
0.00200562
0.00188452
0.00176448
0.0016458