/*--------------------------------*- C++ -*----------------------------------*\
| =========                 |                                                 |
| \\      /  F ield         | OpenFOAM: The Open Source CFD Toolbox           |
|  \\    /   O peration     | Version:  2212                                  |
|   \\  /    A nd           | Website:  www.openfoam.com                      |
|    \\/     M anipulation  |                                                 |
\*---------------------------------------------------------------------------*/
FoamFile
{
    version     2.0;
    format      ascii;
    arch        "LSB;label=32;scalar=64";
    class       surfaceScalarField;
    location    "2.1";
    object      phi;
}
// * * * * * * * * * * * * * * * * * * * * * * * * * * * * * * * * * * * * * //

dimensions      [0 3 -1 0 0 0 0];

oriented        oriented;

internalField   nonuniform List<scalar> 
19019
(
3.3225e-07
1.09681e-09
1.09685e-09
2.7919e-07
2.65293e-08
2.65297e-08
2.49218e-07
1.4986e-08
1.49867e-08
2.29254e-07
9.98143e-09
9.9825e-09
2.14834e-07
7.20866e-09
7.21119e-09
2.03198e-07
5.81614e-09
5.82001e-09
1.9377e-07
4.71029e-09
4.7181e-09
1.86001e-07
3.87751e-09
3.89145e-09
1.7935e-07
3.31342e-09
3.33748e-09
1.73518e-07
2.89532e-09
2.93645e-09
1.68342e-07
2.55472e-09
2.62174e-09
1.63714e-07
2.25873e-09
2.36864e-09
1.5954e-07
1.99317e-09
2.18126e-09
1.55753e-07
1.72615e-09
2.06058e-09
1.52368e-07
1.40548e-09
1.97908e-09
1.49442e-07
1.01487e-09
1.91108e-09
1.47172e-07
4.61966e-10
1.80824e-09
1.46517e-07
-7.64891e-10
1.41977e-09
1.49719e-07
-3.64605e-09
4.43449e-10
-2.63245e-08
-1.1987e-08
6.3138e-07
3.58744e-09
7.40294e-09
6.14564e-07
2.26451e-08
2.07008e-08
5.86445e-07
2.4375e-08
1.873e-08
5.61724e-07
1.88532e-08
1.58485e-08
5.39615e-07
1.55663e-08
1.37514e-08
5.20633e-07
1.35049e-08
1.12935e-08
5.04685e-07
1.19426e-08
8.71602e-09
4.90927e-07
1.07841e-08
6.85115e-09
4.78698e-07
9.92078e-09
5.62181e-09
4.67603e-07
9.19247e-09
4.79733e-09
4.57404e-07
8.53661e-09
4.21727e-09
4.47951e-07
7.92393e-09
3.78833e-09
4.39123e-07
7.33666e-09
3.48447e-09
4.30832e-07
6.74555e-09
3.27124e-09
4.2304e-07
6.08838e-09
3.10862e-09
4.15872e-07
5.24094e-09
2.94212e-09
4.09576e-07
4.064e-09
2.6938e-09
4.05212e-07
1.77957e-09
1.81881e-09
4.06317e-07
-3.22816e-09
-1.52302e-09
-1.65784e-08
-1.66635e-08
8.90375e-07
2.85252e-09
6.33241e-09
8.82485e-07
1.34081e-08
1.71263e-08
8.70357e-07
1.78666e-08
1.86371e-08
8.55107e-07
1.69539e-08
1.71492e-08
8.39972e-07
1.5338e-08
1.53632e-08
8.25516e-07
1.41665e-08
1.3794e-08
8.11736e-07
1.33738e-08
1.23493e-08
7.98722e-07
1.2665e-08
1.11333e-08
7.86616e-07
1.18696e-08
1.01568e-08
7.7542e-07
1.10124e-08
9.37638e-09
7.64979e-07
1.01835e-08
8.79393e-09
7.5512e-07
9.39753e-09
8.38554e-09
7.45688e-07
8.65558e-09
8.1128e-09
7.36558e-07
7.93211e-09
7.94347e-09
7.27618e-07
7.15817e-09
7.87043e-09
7.18741e-07
6.21594e-09
7.90141e-09
7.09751e-07
5.00474e-09
8.04907e-09
7.00078e-07
3.18528e-09
8.26727e-09
6.8805e-07
3.66686e-10
8.43332e-09
6.21642e-11
1.15127e-08
1.07432e-06
1.06492e-09
5.56891e-09
1.06824e-06
5.58696e-09
1.39004e-08
1.06138e-06
8.46487e-09
1.62626e-08
1.05338e-06
9.0413e-09
1.59108e-08
1.04509e-06
8.62059e-09
1.50055e-08
1.03719e-06
8.12557e-09
1.39386e-08
1.02978e-06
7.79561e-09
1.29851e-08
1.02275e-06
7.5697e-09
1.21278e-08
1.01586e-06
7.39552e-09
1.13671e-08
1.00901e-06
7.12771e-09
1.07292e-08
1.00222e-06
6.7141e-09
1.02614e-08
9.95417e-07
6.25772e-09
9.94531e-09
9.88473e-07
5.8334e-09
9.76576e-09
9.81206e-07
5.46571e-09
9.73351e-09
9.73315e-07
5.17109e-09
9.87828e-09
9.64307e-07
4.95202e-09
1.02718e-08
9.53352e-07
4.89056e-09
1.10692e-08
9.39048e-07
4.95297e-09
1.25364e-08
9.1925e-07
5.31313e-09
1.48514e-08
9.36269e-09
2.35814e-08
1.16914e-06
1.24487e-13
4.90663e-09
1.16312e-06
5.89799e-13
1.16088e-08
1.15731e-06
1.38241e-12
1.42761e-08
1.15201e-06
2.50624e-12
1.43348e-08
1.1469e-06
4.3519e-12
1.37331e-08
1.14204e-06
7.686e-12
1.29742e-08
1.13771e-06
1.36984e-11
1.21081e-08
1.13394e-06
2.36306e-11
1.13199e-08
1.13062e-06
4.04433e-11
1.06696e-08
1.12746e-06
6.8354e-11
1.02226e-08
1.12411e-06
1.14678e-10
9.94827e-09
1.1204e-06
1.9151e-10
9.77846e-09
1.11619e-06
3.19949e-10
9.72833e-09
1.11128e-06
5.33188e-10
9.8363e-09
1.10543e-06
8.81407e-10
1.01402e-08
1.09823e-06
1.46294e-09
1.06934e-08
1.08899e-06
2.48245e-09
1.16421e-08
1.07665e-06
4.09184e-09
1.32005e-08
1.05966e-06
6.86142e-09
1.54442e-08
1.28136e-08
1.98395e-08
1.16914e-06
-1.06465e-09
4.90659e-09
1.16312e-06
-5.58601e-09
1.16086e-08
1.15731e-06
-8.46309e-09
1.4276e-08
1.15202e-06
-9.03824e-09
1.43343e-08
1.1469e-06
-8.61473e-09
1.37313e-08
1.14206e-06
-8.11446e-09
1.29704e-08
1.13774e-06
-7.77541e-09
1.21022e-08
1.13399e-06
-7.53462e-09
1.13101e-08
1.13071e-06
-7.33442e-09
1.06527e-08
1.12761e-06
-7.02589e-09
1.01936e-08
1.12438e-06
-6.54722e-09
9.90025e-09
1.12086e-06
-5.9858e-09
9.69695e-09
1.11698e-06
-5.38622e-09
9.58677e-09
1.11264e-06
-4.72522e-09
9.59009e-09
1.10776e-06
-3.95382e-09
9.71512e-09
1.10217e-06
-2.90909e-09
9.9657e-09
1.09568e-06
-1.41549e-09
1.03874e-08
1.08798e-06
7.85114e-10
1.10109e-08
1.07902e-06
3.96728e-09
1.18491e-08
8.91185e-09
1.30056e-08
1.07432e-06
-2.85256e-09
5.56891e-09
1.06824e-06
-1.34083e-08
1.39004e-08
1.06138e-06
-1.78667e-08
1.62618e-08
1.05339e-06
-1.69541e-08
1.59085e-08
1.04511e-06
-1.53376e-08
1.5001e-08
1.03723e-06
-1.41648e-08
1.39316e-08
1.02985e-06
-1.33702e-08
1.29747e-08
1.02286e-06
-1.26594e-08
1.21109e-08
1.01605e-06
-1.18598e-08
1.13385e-08
1.00934e-06
-1.09962e-08
1.06799e-08
1.00277e-06
-1.0158e-08
1.01761e-08
9.96348e-07
-9.35661e-09
9.79603e-09
9.9004e-07
-8.58653e-09
9.50872e-09
9.83837e-07
-7.81287e-09
9.29015e-09
9.77739e-07
-6.95905e-09
9.10403e-09
9.71774e-07
-5.83654e-09
8.89219e-09
9.65994e-07
-4.22789e-09
8.59259e-09
9.60354e-07
-1.71963e-09
8.14495e-09
9.54278e-07
2.45131e-09
7.5918e-09
1.07064e-08
6.63392e-09
8.90375e-07
-3.58756e-09
6.33232e-09
8.82487e-07
-2.26458e-08
1.71257e-08
8.7036e-07
-2.43759e-08
1.86354e-08
8.55115e-07
-1.88547e-08
1.71463e-08
8.39987e-07
-1.55695e-08
1.53591e-08
8.25544e-07
-1.35103e-08
1.37885e-08
8.11786e-07
-1.19519e-08
1.23402e-08
7.98809e-07
-1.07995e-08
1.11174e-08
7.86765e-07
-9.94664e-09
1.0131e-08
7.75671e-07
-9.23652e-09
9.33388e-09
7.65402e-07
-8.61156e-09
8.72234e-09
7.55829e-07
-8.045e-09
8.26189e-09
7.46866e-07
-7.52593e-09
7.90177e-09
7.38508e-07
-7.04522e-09
7.59067e-09
7.30853e-07
-6.57319e-09
7.26965e-09
7.24222e-07
-6.01443e-09
6.80887e-09
7.19127e-07
-5.13918e-09
6.0061e-09
7.16111e-07
-3.0686e-09
4.36482e-09
7.16035e-07
1.02851e-09
1.49858e-09
1.28572e-08
-5.24265e-09
6.3138e-07
-1.09683e-09
7.40285e-09
6.14564e-07
-2.65297e-08
2.07003e-08
5.86445e-07
-1.49866e-08
1.87291e-08
5.61726e-07
-9.98245e-09
1.58468e-08
5.39619e-07
-7.21113e-09
1.37489e-08
5.2064e-07
-5.81995e-09
1.12887e-08
5.04698e-07
-4.71802e-09
8.70833e-09
4.90951e-07
-3.89136e-09
6.83865e-09
4.78741e-07
-3.33738e-09
5.60088e-09
4.67679e-07
-2.93634e-09
4.76148e-09
4.57541e-07
-2.62164e-09
4.14833e-09
4.48195e-07
-2.36853e-09
3.66967e-09
4.39542e-07
-2.18109e-09
3.30791e-09
4.31521e-07
-2.06037e-09
3.03624e-09
4.24158e-07
-1.97878e-09
2.76846e-09
4.17711e-07
-1.91058e-09
2.34288e-09
4.12804e-07
-1.80783e-09
1.57605e-09
4.11481e-07
-1.41892e-09
-3.26317e-10
4.18015e-07
-4.41043e-10
-5.06492e-09
1.19837e-08
-2.0919e-08
3.3225e-07
1.09683e-09
2.7919e-07
2.65293e-08
2.49218e-07
1.49861e-08
2.29254e-07
9.98149e-09
2.14834e-07
7.20873e-09
2.03198e-07
5.81622e-09
1.93769e-07
4.71037e-09
1.86001e-07
3.87762e-09
1.7935e-07
3.31355e-09
1.73518e-07
2.89548e-09
1.68341e-07
2.55491e-09
1.63714e-07
2.25895e-09
1.59539e-07
1.9934e-09
1.55752e-07
1.72662e-09
1.52367e-07
1.40613e-09
1.49441e-07
1.01573e-09
1.4717e-07
4.63046e-10
1.46514e-07
-7.63117e-10
1.49717e-07
-3.6436e-09
-2.63229e-08
6.3138e-07
7.40284e-09
3.58757e-09
6.14564e-07
2.07002e-08
2.26458e-08
5.86445e-07
1.87291e-08
2.43759e-08
5.61726e-07
1.58467e-08
1.88547e-08
5.39619e-07
1.37489e-08
1.55695e-08
5.2064e-07
1.12887e-08
1.35103e-08
5.04698e-07
8.7083e-09
1.1952e-08
4.90952e-07
6.8386e-09
1.07996e-08
4.78741e-07
5.60081e-09
9.9467e-09
4.6768e-07
4.76139e-09
9.23657e-09
4.57542e-07
4.14819e-09
8.61158e-09
4.48196e-07
3.66955e-09
8.04493e-09
4.39544e-07
3.30794e-09
7.52576e-09
4.31523e-07
3.03606e-09
7.04537e-09
4.2416e-07
2.76777e-09
6.57357e-09
4.17715e-07
2.34221e-09
6.01445e-09
4.12809e-07
1.57501e-09
5.13839e-09
4.11491e-07
-3.28231e-10
3.06647e-09
4.18036e-07
-5.06831e-09
-1.03294e-09
-2.09236e-08
-1.28699e-08
9.23616e-07
7.03375e-09
7.03393e-09
9.25318e-07
1.98495e-08
1.98502e-08
9.17183e-07
2.27963e-08
2.27975e-08
9.04274e-07
2.23012e-08
2.23036e-08
8.90531e-07
2.06193e-08
2.06232e-08
8.77405e-07
1.78504e-08
1.78578e-08
8.65433e-07
1.46921e-08
1.47041e-08
8.54752e-07
1.21761e-08
1.21955e-08
8.45306e-07
1.03175e-08
1.03512e-08
8.36951e-07
8.92753e-09
8.98563e-09
8.29505e-07
7.8568e-09
7.95496e-09
8.22789e-07
7.00664e-09
7.1669e-09
8.16716e-07
6.30627e-09
6.55969e-09
8.11291e-07
5.66665e-09
6.06528e-09
8.06561e-07
4.98854e-09
5.61745e-09
8.02566e-07
4.14994e-09
5.12918e-09
7.99397e-07
2.98499e-09
4.45364e-09
7.96361e-07
1.20539e-09
3.32117e-09
7.90142e-07
-1.55125e-09
1.17887e-09
-5.90281e-09
-3.3801e-09
1.1589e-06
5.28124e-09
6.10279e-09
1.1657e-06
1.39985e-08
1.61837e-08
1.16844e-06
1.79777e-08
2.07083e-08
1.16661e-06
1.91785e-08
2.21076e-08
1.1622e-06
1.88754e-08
2.15099e-08
1.15653e-06
1.75435e-08
1.9776e-08
1.15045e-06
1.56818e-08
1.74353e-08
1.14454e-06
1.38803e-08
1.53466e-08
1.13908e-06
1.22726e-08
1.36585e-08
1.1342e-06
1.0863e-08
1.23159e-08
1.1299e-06
9.68647e-09
1.12646e-08
1.12614e-06
8.70219e-09
1.04577e-08
1.12286e-06
7.84415e-09
9.84624e-09
1.12005e-06
7.04519e-09
9.38422e-09
1.11763e-06
6.22926e-09
9.04529e-09
1.11555e-06
5.32236e-09
8.80628e-09
1.11375e-06
4.2146e-09
8.626e-09
1.112e-06
2.7763e-09
8.43733e-09
1.10996e-06
8.46846e-10
8.07666e-09
-1.1555e-09
7.76172e-09
1.32762e-06
2.71836e-09
4.93133e-09
1.33539e-06
7.12122e-09
1.30097e-08
1.34286e-06
9.55413e-09
1.72174e-08
1.34847e-06
1.05793e-08
1.89032e-08
1.35196e-06
1.08777e-08
1.95083e-08
1.35373e-06
1.05844e-08
1.91262e-08
1.35439e-06
9.89797e-09
1.81178e-08
1.3545e-06
9.056e-09
1.68384e-08
1.35442e-06
8.21036e-09
1.55057e-08
1.35429e-06
7.42418e-09
1.43005e-08
1.35415e-06
6.73117e-09
1.33603e-08
1.35401e-06
6.12712e-09
1.26579e-08
1.35386e-06
5.59459e-09
1.21631e-08
1.35365e-06
5.12417e-09
1.18661e-08
1.35328e-06
4.70125e-09
1.17786e-08
1.35261e-06
4.32076e-09
1.19394e-08
1.3515e-06
3.97409e-09
1.24231e-08
1.34983e-06
3.66017e-09
1.33245e-08
1.3474e-06
3.43079e-09
1.46903e-08
3.86066e-09
1.66661e-08
1.41518e-06
2.35703e-13
4.19308e-09
1.42279e-06
6.74949e-13
1.11166e-08
1.43152e-06
1.16486e-12
1.50998e-08
1.4398e-06
2.17795e-12
1.66317e-08
1.44712e-06
4.11202e-12
1.72803e-08
1.45316e-06
7.28036e-12
1.7518e-08
1.45799e-06
1.21021e-11
1.71657e-08
1.46189e-06
1.99605e-11
1.64562e-08
1.46515e-06
3.3784e-11
1.55794e-08
1.46803e-06
5.85707e-11
1.47155e-08
1.47067e-06
9.99742e-11
1.39321e-08
1.47313e-06
1.67549e-10
1.32846e-08
1.47531e-06
2.70886e-10
1.28659e-08
1.47715e-06
4.30353e-10
1.26937e-08
1.47858e-06
6.84941e-10
1.27273e-08
1.47951e-06
1.07984e-09
1.29986e-08
1.47982e-06
1.68354e-09
1.36297e-08
1.47937e-06
2.58742e-09
1.47216e-08
1.47802e-06
3.92155e-09
1.63007e-08
5.77114e-09
1.8184e-08
1.41518e-06
-2.7181e-09
4.19295e-09
1.42279e-06
-7.12052e-09
1.11162e-08
1.43152e-06
-9.55284e-09
1.50992e-08
1.4398e-06
-1.05769e-08
1.66304e-08
1.44713e-06
-1.08729e-08
1.72772e-08
1.45318e-06
-1.05761e-08
1.75127e-08
1.45802e-06
-9.88384e-09
1.7157e-08
1.46194e-06
-9.03226e-09
1.64428e-08
1.46523e-06
-8.16992e-09
1.55587e-08
1.46816e-06
-7.35119e-09
1.46813e-08
1.47089e-06
-6.60446e-09
1.38741e-08
1.47349e-06
-5.91739e-09
1.31831e-08
1.47593e-06
-5.27451e-09
1.2689e-08
1.47818e-06
-4.6293e-09
1.24002e-08
1.48022e-06
-3.90299e-09
1.22663e-08
1.48202e-06
-3.02984e-09
1.22716e-08
1.48355e-06
-1.91239e-09
1.24522e-08
1.48475e-06
-4.41189e-10
1.28425e-08
1.48558e-06
1.50062e-09
1.34424e-08
3.96086e-09
1.41743e-08
1.32763e-06
-5.28139e-09
4.93107e-09
1.33539e-06
-1.39988e-08
1.30089e-08
1.34287e-06
-1.79781e-08
1.72156e-08
1.34848e-06
-1.91792e-08
1.88989e-08
1.35198e-06
-1.88765e-08
1.95006e-08
1.35377e-06
-1.75457e-08
1.91143e-08
1.35445e-06
-1.56845e-08
1.80994e-08
1.3546e-06
-1.38829e-08
1.68092e-08
1.35458e-06
-1.22781e-08
1.54607e-08
1.35456e-06
-1.08734e-08
1.42271e-08
1.3546e-06
-9.70438e-09
1.32342e-08
1.35477e-06
-8.73531e-09
1.24469e-08
1.35509e-06
-7.90849e-09
1.18181e-08
1.35561e-06
-7.15832e-09
1.13054e-08
1.35635e-06
-6.40647e-09
1.08639e-08
1.35733e-06
-5.56215e-09
1.04445e-08
1.35851e-06
-4.49515e-09
9.99696e-09
1.35979e-06
-3.0522e-09
9.47826e-09
1.36107e-06
-1.08124e-09
8.88556e-09
2.08013e-09
8.16848e-09
1.1589e-06
-7.03393e-09
6.10246e-09
1.1657e-06
-1.98502e-08
1.61824e-08
1.16845e-06
-2.27975e-08
2.07055e-08
1.16661e-06
-2.23036e-08
2.2103e-08
1.16222e-06
-2.06232e-08
2.15031e-08
1.15655e-06
-1.78578e-08
1.97665e-08
1.15049e-06
-1.47041e-08
1.74196e-08
1.1446e-06
-1.21955e-08
1.53196e-08
1.13919e-06
-1.03511e-08
1.36126e-08
1.1344e-06
-8.98556e-09
1.22403e-08
1.13023e-06
-7.95487e-09
1.11399e-08
1.12667e-06
-7.16675e-09
1.02556e-08
1.1237e-06
-6.55939e-09
9.51988e-09
1.12134e-06
-6.06532e-09
8.86313e-09
1.1196e-06
-5.61765e-09
8.21746e-09
1.1185e-06
-5.12891e-09
7.47842e-09
1.11797e-06
-4.45321e-09
6.49513e-09
1.11752e-06
-3.32108e-09
5.07807e-09
1.11598e-06
-1.17795e-09
3.1401e-09
3.38925e-09
5.40788e-10
9.23616e-07
-7.40294e-09
7.03376e-09
9.25318e-07
-2.07008e-08
1.98496e-08
9.17183e-07
-1.873e-08
2.27963e-08
9.04273e-07
-1.58485e-08
2.23013e-08
8.90531e-07
-1.37514e-08
2.06193e-08
8.77405e-07
-1.12935e-08
1.78505e-08
8.65433e-07
-8.71601e-09
1.46922e-08
8.54751e-07
-6.85112e-09
1.21763e-08
8.45305e-07
-5.62178e-09
1.03177e-08
8.36951e-07
-4.79731e-09
8.9278e-09
8.29504e-07
-4.21724e-09
7.85711e-09
8.22788e-07
-3.78824e-09
7.00695e-09
8.16715e-07
-3.48419e-09
6.30642e-09
8.11289e-07
-3.27119e-09
5.66759e-09
8.06559e-07
-3.10874e-09
4.99023e-09
8.02563e-07
-2.9418e-09
4.15134e-09
7.99392e-07
-2.69289e-09
2.98662e-09
7.96354e-07
-1.81688e-09
1.20747e-09
7.90132e-07
1.52812e-09
-1.54957e-09
1.66811e-08
-5.90502e-09
6.3138e-07
3.58746e-09
6.14564e-07
2.26452e-08
5.86444e-07
2.43751e-08
5.61724e-07
1.88533e-08
5.39615e-07
1.55664e-08
5.20633e-07
1.3505e-08
5.04685e-07
1.19428e-08
4.90927e-07
1.07843e-08
4.78698e-07
9.92101e-09
4.67603e-07
9.19276e-09
4.57404e-07
8.53698e-09
4.4795e-07
7.92442e-09
4.39122e-07
7.33723e-09
4.30831e-07
6.74606e-09
4.2304e-07
6.08905e-09
4.15871e-07
5.24213e-09
4.09576e-07
4.0658e-09
4.05213e-07
1.78217e-09
4.06324e-07
-3.22597e-09
-1.65772e-08
8.90375e-07
6.33232e-09
2.85256e-09
8.82487e-07
1.71256e-08
1.34083e-08
8.7036e-07
1.86354e-08
1.78667e-08
8.55115e-07
1.71463e-08
1.69541e-08
8.39988e-07
1.53591e-08
1.53376e-08
8.25545e-07
1.37884e-08
1.41648e-08
8.11786e-07
1.23402e-08
1.33702e-08
7.98809e-07
1.11173e-08
1.26595e-08
7.86765e-07
1.01309e-08
1.18598e-08
7.75672e-07
9.33372e-09
1.09962e-08
7.65403e-07
8.72212e-09
1.01579e-08
7.5583e-07
8.26155e-09
9.35651e-09
7.46869e-07
7.90119e-09
8.58636e-09
7.38511e-07
7.59006e-09
7.81275e-09
7.30857e-07
7.26896e-09
6.95884e-09
7.24228e-07
6.8076e-09
5.83582e-09
7.19136e-07
6.004e-09
4.2263e-09
7.16125e-07
4.36115e-09
1.71688e-09
7.16055e-07
1.49341e-09
-2.45648e-09
-5.24208e-09
-1.07161e-08
1.1589e-06
6.10245e-09
5.2814e-09
1.1657e-06
1.61824e-08
1.39988e-08
1.16845e-06
2.07054e-08
1.79781e-08
1.16661e-06
2.2103e-08
1.91792e-08
1.16222e-06
2.1503e-08
1.88765e-08
1.15655e-06
1.97663e-08
1.75457e-08
1.15049e-06
1.74195e-08
1.56845e-08
1.1446e-06
1.53194e-08
1.38829e-08
1.13919e-06
1.36124e-08
1.22782e-08
1.1344e-06
1.224e-08
1.08734e-08
1.13023e-06
1.11396e-08
9.70442e-09
1.12667e-06
1.02551e-08
8.73534e-09
1.1237e-06
9.51917e-09
7.90841e-09
1.12134e-06
8.86203e-09
7.15823e-09
1.1196e-06
8.21611e-09
6.40642e-09
1.1185e-06
7.47684e-09
5.56206e-09
1.11797e-06
6.49318e-09
4.49494e-09
1.11753e-06
5.07515e-09
3.05136e-09
1.11598e-06
3.13776e-09
1.08061e-09
5.55486e-10
-2.07168e-09
1.37712e-06
4.57714e-09
4.57747e-09
1.38565e-06
1.19166e-08
1.19176e-08
1.39417e-06
1.64461e-08
1.64478e-08
1.40126e-06
1.8559e-08
1.85619e-08
1.40641e-06
1.89273e-08
1.89321e-08
1.40952e-06
1.82172e-08
1.82245e-08
1.41094e-06
1.67077e-08
1.67198e-08
1.41153e-06
1.50294e-08
1.50485e-08
1.41182e-06
1.34769e-08
1.35078e-08
1.41207e-06
1.21253e-08
1.21748e-08
1.41247e-06
1.09626e-08
1.10421e-08
1.41313e-06
9.9665e-09
1.00938e-08
1.41409e-06
9.09841e-09
9.30341e-09
1.41539e-06
8.31019e-09
8.63661e-09
1.41703e-06
7.5565e-09
8.0626e-09
1.41898e-06
6.7797e-09
7.55075e-09
1.42113e-06
5.91208e-09
7.06182e-09
1.42317e-06
4.90269e-09
6.56628e-09
1.42459e-06
3.75809e-09
6.03476e-09
2.78981e-09
5.59132e-09
1.53312e-06
2.3661e-09
3.64962e-09
1.54218e-06
6.23903e-09
9.63479e-09
1.55327e-06
8.87377e-09
1.36936e-08
1.56445e-06
1.0348e-08
1.594e-08
1.57506e-06
1.0901e-08
1.69173e-08
1.5847e-06
1.07566e-08
1.69541e-08
1.59299e-06
1.01468e-08
1.639e-08
1.60005e-06
9.33693e-09
1.54677e-08
1.60618e-06
8.46918e-09
1.43778e-08
1.61165e-06
7.65472e-09
1.33024e-08
1.61669e-06
6.93966e-09
1.23418e-08
1.62147e-06
6.32391e-09
1.15288e-08
1.62607e-06
5.78539e-09
1.08742e-08
1.63056e-06
5.30167e-09
1.03786e-08
1.635e-06
4.86017e-09
1.00417e-08
1.63939e-06
4.45376e-09
9.87028e-09
1.64378e-06
4.07292e-09
9.87989e-09
1.6482e-06
3.71851e-09
1.00826e-08
1.65279e-06
3.40951e-09
1.04459e-08
3.24751e-09
1.0863e-08
1.61424e-06
1.68901e-13
3.09307e-09
1.62332e-06
4.01637e-13
8.2747e-09
1.63533e-06
7.12695e-13
1.19584e-08
1.64819e-06
1.29276e-12
1.41168e-08
1.66117e-06
2.34803e-12
1.52042e-08
1.67385e-06
3.88775e-12
1.55891e-08
1.68572e-06
6.48403e-12
1.54388e-08
1.69653e-06
1.04488e-11
1.49717e-08
1.70626e-06
1.73611e-11
1.43054e-08
1.71505e-06
2.91919e-11
1.35438e-08
1.7231e-06
4.82244e-11
1.27798e-08
1.73054e-06
7.74199e-11
1.20859e-08
1.73756e-06
1.20072e-10
1.15172e-08
1.74426e-06
1.84949e-10
1.11078e-08
1.75069e-06
2.84817e-10
1.08752e-08
1.75687e-06
4.37845e-10
1.08318e-08
1.76291e-06
6.61416e-10
1.10009e-08
1.76899e-06
9.72826e-10
1.13879e-08
1.77541e-06
1.37403e-09
1.19161e-08
1.82901e-09
1.23843e-08
1.61424e-06
-2.366e-09
3.09289e-09
1.62332e-06
-6.23881e-09
8.2742e-09
1.63534e-06
-8.87337e-09
1.19574e-08
1.6482e-06
-1.03472e-08
1.41149e-08
1.66118e-06
-1.08999e-08
1.52006e-08
1.67387e-06
-1.0755e-08
1.55834e-08
1.68574e-06
-1.01439e-08
1.54306e-08
1.69657e-06
-9.3316e-09
1.49594e-08
1.70632e-06
-8.45993e-09
1.42863e-08
1.71515e-06
-7.63718e-09
1.35133e-08
1.72325e-06
-6.90776e-09
1.27302e-08
1.73078e-06
-6.27016e-09
1.20047e-08
1.73791e-06
-5.7032e-09
1.13853e-08
1.74477e-06
-5.17897e-09
1.08958e-08
1.75145e-06
-4.66741e-09
1.05425e-08
1.75798e-06
-4.14183e-09
1.0325e-08
1.76442e-06
-3.56848e-09
1.02375e-08
1.77088e-06
-2.91473e-09
1.02678e-08
1.77747e-06
-2.13784e-09
1.03702e-08
-1.2249e-09
1.04794e-08
1.53312e-06
-4.57747e-09
3.64922e-09
1.54218e-06
-1.19176e-08
9.63363e-09
1.55328e-06
-1.64479e-08
1.36913e-08
1.56446e-06
-1.85619e-08
1.59359e-08
1.57508e-06
-1.89321e-08
1.69105e-08
1.58472e-06
-1.82245e-08
1.69435e-08
1.59302e-06
-1.67197e-08
1.63739e-08
1.6001e-06
-1.50485e-08
1.54417e-08
1.60627e-06
-1.35078e-08
1.43376e-08
1.6118e-06
-1.21748e-08
1.32396e-08
1.61693e-06
-1.1042e-08
1.22408e-08
1.62183e-06
-1.00937e-08
1.13663e-08
1.62664e-06
-9.30328e-09
1.0611e-08
1.63145e-06
-8.63666e-09
9.95651e-09
1.63633e-06
-8.06267e-09
9.37751e-09
1.64134e-06
-7.55047e-09
8.84173e-09
1.64651e-06
-7.06105e-09
8.31865e-09
1.65186e-06
-6.56449e-09
7.78096e-09
1.65741e-06
-6.02963e-09
7.22586e-09
-5.57395e-09
6.74118e-09
1.37712e-06
-6.10278e-09
4.57716e-09
1.38565e-06
-1.61837e-08
1.19167e-08
1.39417e-06
-2.07083e-08
1.64461e-08
1.40126e-06
-2.21076e-08
1.85591e-08
1.40641e-06
-2.15099e-08
1.89274e-08
1.40952e-06
-1.9776e-08
1.82173e-08
1.41094e-06
-1.74352e-08
1.67079e-08
1.41153e-06
-1.53466e-08
1.50297e-08
1.41182e-06
-1.36584e-08
1.34772e-08
1.41207e-06
-1.23159e-08
1.21257e-08
1.41247e-06
-1.12644e-08
1.09631e-08
1.41312e-06
-1.04575e-08
9.96707e-09
1.41409e-06
-9.84591e-09
9.09912e-09
1.41539e-06
-9.38429e-09
8.31121e-09
1.41703e-06
-9.04551e-09
7.55763e-09
1.41898e-06
-8.80592e-09
6.78055e-09
1.42113e-06
-8.62511e-09
5.91238e-09
1.42318e-06
-8.43562e-09
4.90183e-09
1.42461e-06
-8.07233e-09
3.75348e-09
-7.74581e-09
2.77271e-09
1.1589e-06
-6.33241e-09
5.28126e-09
1.1657e-06
-1.71263e-08
1.39985e-08
1.16844e-06
-1.86371e-08
1.79778e-08
1.16661e-06
-1.71492e-08
1.91786e-08
1.1622e-06
-1.53632e-08
1.88755e-08
1.15653e-06
-1.3794e-08
1.75437e-08
1.15045e-06
-1.23493e-08
1.5682e-08
1.14454e-06
-1.11332e-08
1.38805e-08
1.13908e-06
-1.01568e-08
1.2273e-08
1.1342e-06
-9.37632e-09
1.08634e-08
1.1299e-06
-8.79387e-09
9.68694e-09
1.12614e-06
-8.38544e-09
8.7027e-09
1.12286e-06
-8.11263e-09
7.84462e-09
1.12004e-06
-7.94327e-09
7.04614e-09
1.11763e-06
-7.87006e-09
6.23054e-09
1.11555e-06
-7.90064e-09
5.32335e-09
1.11374e-06
-8.04761e-09
4.21526e-09
1.112e-06
-8.26418e-09
2.77633e-09
1.10996e-06
-8.42607e-09
8.45101e-10
-1.14969e-08
-1.16212e-09
8.90375e-07
2.85253e-09
8.82485e-07
1.34082e-08
8.70357e-07
1.78666e-08
8.55107e-07
1.6954e-08
8.39972e-07
1.53382e-08
8.25516e-07
1.41667e-08
8.11736e-07
1.3374e-08
7.98721e-07
1.26653e-08
7.86616e-07
1.18699e-08
7.75419e-07
1.10128e-08
7.64978e-07
1.0184e-08
7.55119e-07
9.39814e-09
7.45688e-07
8.65625e-09
7.36558e-07
7.93261e-09
7.27618e-07
7.15858e-09
7.18743e-07
6.2165e-09
7.09756e-07
5.00531e-09
7.00088e-07
3.18548e-09
6.8807e-07
3.65896e-10
6.11927e-11
1.07432e-06
5.56891e-09
1.06465e-09
1.06824e-06
1.39003e-08
5.58602e-09
1.06138e-06
1.62618e-08
8.46309e-09
1.05339e-06
1.59084e-08
9.03823e-09
1.04511e-06
1.5001e-08
8.61471e-09
1.03723e-06
1.39315e-08
8.11444e-09
1.02985e-06
1.29746e-08
7.77538e-09
1.02286e-06
1.21108e-08
7.5346e-09
1.01605e-06
1.13384e-08
7.33437e-09
1.00934e-06
1.06797e-08
7.02583e-09
1.00277e-06
1.01759e-08
6.54714e-09
9.9635e-07
9.79567e-09
5.98569e-09
9.90042e-07
9.50817e-09
5.38608e-09
9.83841e-07
9.28949e-09
4.72496e-09
9.77743e-07
9.10317e-09
3.95338e-09
9.7178e-07
8.89076e-09
2.90834e-09
9.66001e-07
8.59046e-09
1.41423e-09
9.60364e-07
8.14188e-09
-7.87024e-10
9.5429e-07
7.58753e-09
-3.96993e-09
6.62873e-09
-8.91568e-09
1.32763e-06
4.93106e-09
2.7181e-09
1.33539e-06
1.30089e-08
7.12051e-09
1.34287e-06
1.72156e-08
9.55283e-09
1.34848e-06
1.88988e-08
1.05768e-08
1.35198e-06
1.95005e-08
1.08728e-08
1.35377e-06
1.91142e-08
1.0576e-08
1.35445e-06
1.80992e-08
9.88382e-09
1.3546e-06
1.6809e-08
9.03224e-09
1.35458e-06
1.54604e-08
8.1699e-09
1.35456e-06
1.42267e-08
7.35115e-09
1.3546e-06
1.32337e-08
6.60442e-09
1.35477e-06
1.24463e-08
5.91732e-09
1.35509e-06
1.18172e-08
5.27435e-09
1.35561e-06
1.13044e-08
4.62919e-09
1.35635e-06
1.08628e-08
3.90297e-09
1.35733e-06
1.04429e-08
3.02972e-09
1.35851e-06
9.99498e-09
1.91222e-09
1.35979e-06
9.4758e-09
4.41075e-10
1.36107e-06
8.88309e-09
-1.50004e-09
8.1685e-09
-3.95744e-09
1.53312e-06
3.6492e-09
2.366e-09
1.54218e-06
9.63358e-09
6.23881e-09
1.55328e-06
1.36913e-08
8.87336e-09
1.56446e-06
1.59358e-08
1.03472e-08
1.57508e-06
1.69104e-08
1.08999e-08
1.58472e-06
1.69433e-08
1.0755e-08
1.59302e-06
1.63736e-08
1.01438e-08
1.6001e-06
1.54414e-08
9.33159e-09
1.60628e-06
1.43372e-08
8.45992e-09
1.6118e-06
1.32392e-08
7.63716e-09
1.61693e-06
1.22402e-08
6.90775e-09
1.62183e-06
1.13656e-08
6.27016e-09
1.62664e-06
1.06102e-08
5.70321e-09
1.63145e-06
9.95552e-09
5.17901e-09
1.63633e-06
9.37646e-09
4.66755e-09
1.64134e-06
8.84068e-09
4.14218e-09
1.64651e-06
8.31776e-09
3.56924e-09
1.65185e-06
7.78065e-09
2.91626e-09
1.6574e-06
7.22707e-09
2.14094e-09
6.74575e-09
1.2307e-09
1.68027e-06
1.891e-09
1.89119e-09
1.68934e-06
5.09921e-09
5.09979e-09
1.7018e-06
7.464e-09
7.46506e-09
1.71578e-06
8.94564e-09
8.94739e-09
1.73022e-06
9.69222e-09
9.69505e-09
1.74439e-06
9.85962e-09
9.86415e-09
1.75785e-06
9.65025e-09
9.65717e-09
1.77036e-06
9.19604e-09
9.2064e-09
1.78184e-06
8.60878e-09
8.624e-09
1.79239e-06
7.9815e-09
8.00411e-09
1.80219e-06
7.37788e-09
7.41254e-09
1.81137e-06
6.82827e-09
6.88303e-09
1.82008e-06
6.34006e-09
6.42852e-09
1.82846e-06
5.90797e-09
6.05019e-09
1.83662e-06
5.52093e-09
5.74143e-09
1.84466e-06
5.17017e-09
5.4928e-09
1.85271e-06
4.84891e-09
5.29858e-09
1.86088e-06
4.54841e-09
5.14673e-09
1.86928e-06
4.27039e-09
5.00712e-09
4.07615e-09
4.81727e-09
1.7569e-06
2.00908e-14
1.61337e-09
1.76589e-06
-9.47994e-15
4.38453e-09
1.77878e-06
-4.77476e-14
6.53255e-09
1.79389e-06
-9.10252e-14
7.95237e-09
1.81003e-06
-1.62276e-13
8.75776e-09
1.82639e-06
-2.79948e-13
9.08886e-09
1.8424e-06
-3.91093e-13
9.07685e-09
1.85773e-06
-2.0872e-13
8.84301e-09
1.87217e-06
3.70715e-13
8.47286e-09
1.88566e-06
1.37954e-12
8.03324e-09
1.89824e-06
2.57576e-12
7.5767e-09
1.91001e-06
3.40255e-12
7.14241e-09
1.9211e-06
2.84979e-12
6.75817e-09
1.93167e-06
8.29462e-13
6.44358e-09
1.94186e-06
-8.15921e-13
6.2144e-09
1.95178e-06
3.80178e-12
6.07811e-09
1.96157e-06
1.79841e-11
6.03537e-09
1.97139e-06
4.43938e-11
6.07369e-09
1.98135e-06
7.77775e-11
6.15211e-09
1.26884e-10
6.17339e-09
1.7569e-06
-1.89119e-09
1.61323e-09
1.76589e-06
-5.09979e-09
4.38414e-09
1.77878e-06
-7.46508e-09
6.53179e-09
1.79389e-06
-8.94741e-09
7.95103e-09
1.81003e-06
-9.69508e-09
8.7556e-09
1.82639e-06
-9.86417e-09
9.08551e-09
1.84241e-06
-9.65719e-09
9.07192e-09
1.85774e-06
-9.20643e-09
8.83575e-09
1.87219e-06
-8.62404e-09
8.46197e-09
1.88569e-06
-8.00414e-09
8.01664e-09
1.89828e-06
-7.41257e-09
7.55107e-09
1.91007e-06
-6.88306e-09
7.10251e-09
1.92119e-06
-6.42855e-09
6.69577e-09
1.9318e-06
-6.05024e-09
6.34611e-09
1.94201e-06
-5.74149e-09
6.06371e-09
1.95198e-06
-5.49283e-09
5.8548e-09
1.96182e-06
-5.29857e-09
5.7181e-09
1.97163e-06
-5.14672e-09
5.64615e-09
1.98146e-06
-5.00719e-09
5.62197e-09
-4.81779e-09
5.6093e-09
1.68027e-06
-3.64962e-09
1.89103e-09
1.68934e-06
-9.63479e-09
5.09928e-09
1.7018e-06
-1.36936e-08
7.4641e-09
1.71578e-06
-1.594e-08
8.94578e-09
1.73022e-06
-1.69173e-08
9.6924e-09
1.74439e-06
-1.69541e-08
9.85986e-09
1.75785e-06
-1.639e-08
9.65056e-09
1.77036e-06
-1.54677e-08
9.19643e-09
1.78184e-06
-1.43777e-08
8.60926e-09
1.79239e-06
-1.33024e-08
7.98208e-09
1.80218e-06
-1.23418e-08
7.37857e-09
1.81137e-06
-1.15287e-08
6.82908e-09
1.82008e-06
-1.08741e-08
6.34102e-09
1.82846e-06
-1.03786e-08
5.90908e-09
1.83661e-06
-1.00417e-08
5.52216e-09
1.84466e-06
-9.87003e-09
5.17144e-09
1.85271e-06
-9.87937e-09
4.85017e-09
1.86088e-06
-1.00817e-08
4.54948e-09
1.86927e-06
-1.04447e-08
4.27106e-09
-1.08621e-08
4.07618e-09
1.53312e-06
-4.93133e-09
2.36612e-09
1.54218e-06
-1.30097e-08
6.23909e-09
1.55327e-06
-1.72175e-08
8.87386e-09
1.56445e-06
-1.89032e-08
1.03481e-08
1.57506e-06
-1.95083e-08
1.09012e-08
1.5847e-06
-1.91262e-08
1.07569e-08
1.59299e-06
-1.81178e-08
1.01471e-08
1.60005e-06
-1.68384e-08
9.33728e-09
1.60618e-06
-1.55057e-08
8.46961e-09
1.61165e-06
-1.43004e-08
7.65525e-09
1.61669e-06
-1.33602e-08
6.94028e-09
1.62147e-06
-1.26577e-08
6.32462e-09
1.62607e-06
-1.21628e-08
5.78621e-09
1.63056e-06
-1.18658e-08
5.30269e-09
1.635e-06
-1.17781e-08
4.86127e-09
1.63939e-06
-1.19385e-08
4.45469e-09
1.64377e-06
-1.24215e-08
4.07345e-09
1.64819e-06
-1.33219e-08
3.71831e-09
1.65278e-06
-1.46867e-08
3.40797e-09
-1.6664e-08
3.24453e-09
1.32762e-06
-5.56891e-09
2.71838e-09
1.33539e-06
-1.39004e-08
7.12128e-09
1.34286e-06
-1.62626e-08
9.55421e-09
1.34847e-06
-1.59108e-08
1.05795e-08
1.35196e-06
-1.50055e-08
1.08778e-08
1.35373e-06
-1.39386e-08
1.05846e-08
1.35439e-06
-1.29851e-08
9.89823e-09
1.3545e-06
-1.21278e-08
9.05633e-09
1.35442e-06
-1.1367e-08
8.21076e-09
1.35429e-06
-1.07292e-08
7.42468e-09
1.35415e-06
-1.02613e-08
6.73178e-09
1.35401e-06
-9.94517e-09
6.12783e-09
1.35386e-06
-9.76548e-09
5.59535e-09
1.35365e-06
-9.73295e-09
5.12511e-09
1.35328e-06
-9.87729e-09
4.70237e-09
1.35261e-06
-1.02702e-08
4.32184e-09
1.3515e-06
-1.10666e-08
3.97498e-09
1.34982e-06
-1.25318e-08
3.66068e-09
1.34739e-06
-1.48432e-08
3.43057e-09
-2.35728e-08
3.86052e-09
1.07432e-06
1.06493e-09
1.06824e-06
5.58701e-09
1.06138e-06
8.46497e-09
1.05338e-06
9.04143e-09
1.04509e-06
8.62076e-09
1.03719e-06
8.12579e-09
1.02978e-06
7.79588e-09
1.02275e-06
7.57004e-09
1.01586e-06
7.39593e-09
1.00901e-06
7.12821e-09
1.00222e-06
6.7147e-09
9.95417e-07
6.25843e-09
9.88473e-07
5.83419e-09
9.81207e-07
5.46639e-09
9.73316e-07
5.17166e-09
9.6431e-07
4.95266e-09
9.53357e-07
4.89131e-09
9.39058e-07
4.95336e-09
9.19268e-07
5.31251e-09
9.36123e-09
1.16914e-06
4.90658e-09
-1.23222e-13
1.16312e-06
1.16086e-08
-5.91526e-13
1.15731e-06
1.42759e-08
-1.39707e-12
1.15202e-06
1.43342e-08
-2.53465e-12
1.1469e-06
1.37312e-08
-4.39016e-12
1.14206e-06
1.29704e-08
-7.73357e-12
1.13774e-06
1.21021e-08
-1.37564e-11
1.13399e-06
1.131e-08
-2.37031e-11
1.13071e-06
1.06525e-08
-4.05366e-11
1.12762e-06
1.01934e-08
-6.84753e-11
1.12438e-06
9.90002e-09
-1.14837e-10
1.12086e-06
9.69667e-09
-1.91717e-10
1.11698e-06
9.58641e-09
-3.20225e-10
1.11265e-06
9.5896e-09
-5.33578e-10
1.10777e-06
9.71446e-09
-8.81973e-10
1.10218e-06
9.96482e-09
-1.46378e-09
1.09569e-06
1.03863e-08
-2.48361e-09
1.08798e-06
1.10093e-08
-4.09342e-09
1.07903e-06
1.1847e-08
-6.8633e-09
1.30032e-08
-1.28155e-08
1.41518e-06
4.19294e-09
-2.36636e-13
1.42279e-06
1.11162e-08
-6.83306e-13
1.43152e-06
1.50992e-08
-1.18348e-12
1.4398e-06
1.66303e-08
-2.20349e-12
1.44713e-06
1.72771e-08
-4.14345e-12
1.45318e-06
1.75125e-08
-7.31804e-12
1.45802e-06
1.71568e-08
-1.2147e-11
1.46194e-06
1.64425e-08
-2.0015e-11
1.46523e-06
1.55584e-08
-3.38518e-11
1.46816e-06
1.46809e-08
-5.86597e-11
1.47089e-06
1.38737e-08
-1.00092e-10
1.47349e-06
1.31825e-08
-1.67703e-10
1.47593e-06
1.26882e-08
-2.71088e-10
1.47818e-06
1.23993e-08
-4.30588e-10
1.48022e-06
1.22652e-08
-6.85183e-10
1.48202e-06
1.22703e-08
-1.08011e-09
1.48355e-06
1.24506e-08
-1.6838e-09
1.48475e-06
1.28406e-08
-2.58754e-09
1.48558e-06
1.34403e-08
-3.92123e-09
1.41725e-08
-5.76999e-09
1.61424e-06
3.09287e-09
-1.69371e-13
1.62332e-06
8.27414e-09
-4.09492e-13
1.63534e-06
1.19573e-08
-7.29252e-13
1.6482e-06
1.41147e-08
-1.31553e-12