/*--------------------------------*- C++ -*----------------------------------*\
| =========                 |                                                 |
| \\      /  F ield         | OpenFOAM: The Open Source CFD Toolbox           |
|  \\    /   O peration     | Version:  2212                                  |
|   \\  /    A nd           | Website:  www.openfoam.com                      |
|    \\/     M anipulation  |                                                 |
\*---------------------------------------------------------------------------*/
FoamFile
{
    version     2.0;
    format      ascii;
    arch        "LSB;label=32;scalar=64";
    class       volVectorField;
    location    "2.1";
    object      U;
}
// * * * * * * * * * * * * * * * * * * * * * * * * * * * * * * * * * * * * * //

dimensions      [0 1 -1 0 0 0 0];

internalField   nonuniform List<vector> 
6840
(
(0.0956456 -0.00836005 -0.00836005)
(0.0904939 0.00152198 0.00152207)
(0.0790684 0.00242962 0.00242979)
(0.0713013 0.00148754 0.0014879)
(0.0661797 0.000830098 0.000830783)
(0.062323 0.000562975 0.000564088)
(0.0592215 0.000424847 0.000427313)
(0.0566861 0.000321398 0.000325649)
(0.0545518 0.000248896 0.000255833)
(0.0527008 0.000195843 0.000207167)
(0.0510651 0.000154925 0.00017407)
(0.0496078 0.000121297 0.000152964)
(0.0482979 8.99531e-05 0.00014002)
(0.0471095 5.68615e-05 0.000134139)
(0.0460344 1.91768e-05 0.000135511)
(0.0450861 -9.1745e-06 0.000147029)
(0.0443041 -9.00141e-05 0.000177435)
(0.0438217 -0.000252715 0.000206211)
(0.0442245 -0.000493715 0.000158271)
(0.0428608 -0.00288886 -0.0016949)
(0.0999088 0.00129699 0.000712569)
(0.0969669 0.00365579 0.0027473)
(0.0935346 0.00264007 0.00211825)
(0.0895892 0.00182016 0.00162078)
(0.085832 0.00152826 0.00139086)
(0.0825898 0.00135045 0.00116168)
(0.0798646 0.00117797 0.000897899)
(0.0775657 0.00103821 0.000693476)
(0.0755553 0.00093889 0.000562679)
(0.0737468 0.000859046 0.000483471)
(0.0720934 0.000781816 0.000439576)
(0.0705655 0.000701025 0.000417085)
(0.0691427 0.000621132 0.000406792)
(0.0678103 0.000540277 0.000404148)
(0.0665586 0.000441741 0.000410033)
(0.0653918 0.000293745 0.000422384)
(0.0643361 8.93838e-05 0.000442028)
(0.0634688 -0.000261414 0.000411793)
(0.0631314 -0.00100085 0.000214493)
(0.0618213 -0.00356112 -0.00119499)
(0.099413 0.000345209 0.000270234)
(0.0988664 0.00201894 0.00187494)
(0.0979214 0.00257295 0.00218912)
(0.0963657 0.00237955 0.00190857)
(0.094633 0.00211363 0.00162692)
(0.0929715 0.00192603 0.001419)
(0.0913627 0.00180032 0.00127177)
(0.0898514 0.00170358 0.00116093)
(0.0884503 0.00160178 0.00107131)
(0.0871508 0.00148929 0.00100058)
(0.0859446 0.00137527 0.000953955)
(0.0848155 0.00126531 0.000929647)
(0.0837429 0.00115719 0.000923546)
(0.0827105 0.00104374 0.000932504)
(0.081705 0.000914806 0.000956323)
(0.0807135 0.000755619 0.000998478)
(0.0797192 0.000546566 0.00106579)
(0.0786787 0.000185206 0.00116487)
(0.077522 -0.000488808 0.00127585)
(0.0759477 -0.00136796 0.0021)
(0.0995405 0.000245026 0.000321901)
(0.0992576 0.00105554 0.00154095)
(0.0988488 0.0015022 0.00211457)
(0.0981245 0.0015792 0.00209183)
(0.0973363 0.00151452 0.00188648)
(0.0965838 0.00144597 0.00166642)
(0.0958633 0.00140938 0.00149878)
(0.095194 0.00137768 0.00137283)
(0.0945624 0.00133127 0.00128739)
(0.0939122 0.0012586 0.00123441)
(0.0932751 0.00116613 0.00120117)
(0.0926462 0.00106555 0.00118529)
(0.0920118 0.000966083 0.00118458)
(0.0913566 0.000869588 0.00120023)
(0.0906592 0.000770839 0.00123712)
(0.0898871 0.000658931 0.00130564)
(0.0889807 0.000525101 0.00142619)
(0.0878254 0.000358498 0.00163806)
(0.0863034 0.000114659 0.00195339)
(0.0844405 0.00067524 0.00340391)
(0.0993802 3.37814e-05 5.89775e-05)
(0.0992677 0.000274417 0.00120006)
(0.0989804 0.000432439 0.00188854)
(0.0984745 0.000483574 0.00200656)
(0.0979952 0.000479028 0.00191485)
(0.0975701 0.000465837 0.00173504)
(0.0971795 0.000453411 0.00154772)
(0.0968285 0.000443302 0.0013893)
(0.0965261 0.00043782 0.00127143)
(0.0962677 0.000431075 0.00120204)
(0.0959867 0.00041581 0.00117681)
(0.0956814 0.000395169 0.00117838)
(0.0953462 0.000375877 0.00119408)
(0.0949613 0.000364333 0.00122355)
(0.0945078 0.000370113 0.00127662)
(0.093959 0.000400359 0.00136116)
(0.0932733 0.000479244 0.00149076)
(0.092372 0.000596091 0.00169631)
(0.0911356 0.000828498 0.00197432)
(0.0897961 0.00131392 0.0025046)
(0.0993801 -3.37483e-05 5.89249e-05)
(0.0992677 -0.000274249 0.00120003)
(0.0989804 -0.000432075 0.00188852)
(0.0984747 -0.000482932 0.00200649)
(0.0979957 -0.000477902 0.00191467)
(0.0975711 -0.000463814 0.00173466)
(0.0971814 -0.000449761 0.00154716)
(0.0968317 -0.000436973 0.00138834)
(0.0965318 -0.000427007 0.00126961)
(0.0962774 -0.00041284 0.00119874)
(0.0960035 -0.000385321 0.00117113)
(0.0957103 -0.000344588 0.0011688)
(0.0953963 -0.000292003 0.00117774)
(0.0950486 -0.000225245 0.0011951)
(0.094658 -0.000141125 0.00122541)
(0.0942142 -2.23479e-05 0.00127301)
(0.0937057 0.000159571 0.00134333)
(0.0931049 0.00044271 0.00143865)
(0.0923674 0.000889649 0.00156619)
(0.0916733 0.00165331 0.00174381)
(0.0995405 -0.000245014 0.000321901)
(0.0992576 -0.00105549 0.00154095)
(0.098849 -0.00150209 0.00211446)
(0.0981251 -0.00157901 0.00209163)
(0.0973375 -0.00151403 0.00188615)
(0.0965862 -0.00144493 0.00166592)
(0.0958677 -0.0014075 0.00149817)
(0.0952015 -0.00137454 0.0013718)
(0.0945755 -0.00132573 0.00128509)
(0.0939348 -0.00124974 0.00122934)
(0.0933136 -0.00115228 0.00119153)
(0.0927116 -0.00104388 0.00116736)
(0.0921223 -0.00093062 0.00115451)
(0.0915428 -0.000810799 0.00115005)
(0.0909719 -0.000676557 0.00114883)
(0.0904108 -0.000499186 0.00114421)
(0.0898626 -0.000253608 0.00112982)
(0.0893308 0.000110731 0.00110332)
(0.088807 0.000652359 0.00108252)
(0.0881647 0.00147567 0.000983102)
(0.099413 -0.000345228 0.000270227)
(0.0988664 -0.00201903 0.00187486)
(0.0979216 -0.00257314 0.00218888)
(0.0963663 -0.00237989 0.00190816)
(0.0946342 -0.00211416 0.00162634)
(0.0929738 -0.00192689 0.00141817)
(0.0913669 -0.00180159 0.00127041)
(0.0898587 -0.00170564 0.00115865)
(0.0884629 -0.00160524 0.00106763)
(0.087172 -0.00149503 0.000994512)
(0.0859803 -0.00138484 0.000944375)
(0.0848758 -0.00128095 0.000913065)
(0.0838437 -0.00118196 0.000894892)
(0.0828776 -0.00108183 0.000883683)
(0.0819807 -0.000972381 0.000872334)
(0.0811744 -0.00083876 0.000845513)
(0.0805052 -0.000654438 0.000787315)
(0.0800344 -0.000354557 0.000624679)
(0.0798735 0.000257177 0.000333644)
(0.0791379 0.00178354 -0.000483363)
(0.0999088 -0.00129701 0.00071255)
(0.0969669 -0.00365593 0.0027472)
(0.0935346 -0.00264029 0.00211805)
(0.0895894 -0.00182056 0.0016204)
(0.0858324 -0.00152909 0.00139031)
(0.0825906 -0.00135175 0.00116068)
(0.0798661 -0.00118032 0.000896249)
(0.0775685 -0.00104223 0.000690824)
(0.0755603 -0.000945772 0.000558268)
(0.0737555 -0.000870874 0.000476053)
(0.0721091 -0.000802123 0.000425277)
(0.070594 -0.000734719 0.000392345)
(0.0691927 -0.000675217 0.000371431)
(0.0678936 -0.000628145 0.000361353)
(0.0666929 -0.00059075 0.000352365)
(0.0656115 -0.000554367 0.000314295)
(0.0647167 -0.000496662 0.000235805)
(0.064178 -0.000350177 -6.10819e-06)
(0.0645255 -0.000134548 -0.000387917)
(0.0623363 0.000247856 -0.000906323)
(0.0956456 0.00836005 -0.00836005)
(0.0904939 -0.00152206 0.00152198)
(0.0790684 -0.00242979 0.00242962)
(0.0713013 -0.0014879 0.00148755)
(0.0661797 -0.000830772 0.000830107)
(0.062323 -0.000564075 0.000562989)
(0.0592215 -0.000427292 0.000424868)
(0.056686 -0.000325623 0.000321427)
(0.0545518 -0.000255801 0.00024893)
(0.0527008 -0.000207132 0.000195887)
(0.051065 -0.000174026 0.00015498)
(0.0496076 -0.000152914 0.000121369)
(0.0482978 -0.000139955 9.00387e-05)
(0.0471093 -0.000134075 5.69932e-05)
(0.0460342 -0.000135428 1.92948e-05)
(0.0450859 -0.000146867 -8.99107e-06)
(0.0443037 -0.000177212 -8.974e-05)
(0.0438211 -0.000205845 -0.000252352)
(0.0442236 -0.000157656 -0.000493152)
(0.0428573 0.00169464 -0.00288532)
(0.0999088 0.00071255 0.00129701)
(0.0969669 0.0027472 0.00365593)
(0.0935346 0.00211805 0.0026403)
(0.0895894 0.0016204 0.00182057)
(0.0858324 0.0013903 0.0015291)
(0.0825906 0.00116067 0.00135176)
(0.0798661 0.000896241 0.00118034)
(0.0775685 0.00069081 0.00104225)
(0.0755604 0.000558249 0.000945798)
(0.0737556 0.000476027 0.000870904)
(0.0721092 0.000425235 0.000802158)
(0.0705942 0.000392288 0.000734758)
(0.0691929 0.000371366 0.000675271)
(0.0678939 0.000361307 0.000628245)
(0.0666931 0.000352251 0.000590889)
(0.0656119 0.000314119 0.000554522)
(0.0647174 0.000235536 0.000496749)
(0.0641791 -6.55111e-06 0.000350266)
(0.0645279 -0.000388593 0.000134756)
(0.0623389 -0.000908239 -0.000248011)
(0.100226 0.000720794 0.000720826)
(0.0999601 0.00198267 0.00198281)
(0.0997823 0.00245171 0.00245205)
(0.0987883 0.00241936 0.00241997)
(0.0972757 0.00220041 0.00220136)
(0.095775 0.00181075 0.00181243)
(0.0943933 0.00138116 0.0013839)
(0.0931647 0.001068 0.0010726)
(0.0920782 0.000850292 0.000858156)
(0.091117 0.000695281 0.000708818)
(0.0902662 0.000577845 0.000602153)
(0.0895029 0.000485392 0.000525212)
(0.0888093 0.000412531 0.000473141)
(0.0881858 0.000348552 0.000438624)
(0.0876355 0.0002757 0.000416564)
(0.0871625 0.000172588 0.000405673)
(0.0867702 1.45781e-05 0.000394579)
(0.0864387 -0.000260242 0.000352407)
(0.0859958 -0.000801592 0.000125807)
(0.0856755 -0.00199655 -0.000712877)
(0.10014 0.000774986 0.00086928)
(0.100454 0.00196232 0.0019637)
(0.100911 0.00242737 0.00233482)
(0.100978 0.00252627 0.00244178)
(0.100694 0.00242573 0.00233752)
(0.100224 0.00219655 0.00211352)
(0.0997079 0.00191519 0.00182488)
(0.0991819 0.00166346 0.00157835)
(0.098686 0.00145874 0.00139464)
(0.0982365 0.00128906 0.0012581)
(0.0978399 0.00114675 0.00116029)
(0.0974918 0.00102453 0.00109474)
(0.0971885 0.000914162 0.00105382)
(0.0969263 0.000804935 0.00103218)
(0.0967012 0.00068657 0.00103042)
(0.0965083 0.000546229 0.00105116)
(0.0963417 0.000361538 0.0010955)
(0.0961906 0.000105913 0.00116581)
(0.0960265 -0.000247807 0.00125634)
(0.0960896 -0.000660798 0.00138488)
(0.100093 0.00044591 0.000763219)
(0.100504 0.00119444 0.00174908)
(0.101105 0.00158672 0.00212972)
(0.101634 0.00174033 0.00223517)
(0.101979 0.00178215 0.00228802)
(0.10217 0.00172882 0.00223734)
(0.102251 0.00160784 0.00211806)
(0.102273 0.00145995 0.00196793)
(0.102274 0.00130444 0.0018073)
(0.102263 0.00115577 0.00166103)
(0.10225 0.00102714 0.00155808)
(0.10224 0.000916548 0.00149091)
(0.102229 0.000815585 0.00145244)
(0.102216 0.000719501 0.00144121)
(0.102196 0.000621239 0.0014603)
(0.102159 0.000514583 0.00151768)
(0.102094 0.000390748 0.00163015)
(0.101986 0.000239293 0.00182198)
(0.101839 5.70657e-05 0.00211162)
(0.102011 -3.87676e-05 0.00252011)
(0.100087 0.000144409 0.000707031)
(0.100477 0.000390563 0.00161783)
(0.101065 0.000541232 0.00203471)
(0.101694 0.000610377 0.0021178)
(0.102268 0.000636445 0.00215067)
(0.102741 0.000627587 0.00218069)
(0.103123 0.000596069 0.00213548)
(0.103425 0.000551395 0.00204652)
(0.103676 0.000507514 0.00193872)
(0.103892 0.000467426 0.00183553)
(0.104084 0.000428368 0.00174142)
(0.104265 0.000392147 0.00166266)
(0.104432 0.000362537 0.00161692)
(0.104574 0.000340574 0.00160823)
(0.104689 0.000327662 0.00162873)
(0.104776 0.000328193 0.0016827)
(0.104822 0.000346524 0.00179194)
(0.104815 0.000388685 0.00197496)
(0.104762 0.000468161 0.00224031)
(0.105032 0.000615887 0.00256783)
(0.100087 -0.000144353 0.000707025)
(0.100477 -0.000390397 0.00161782)
(0.101066 -0.000540943 0.00203472)
(0.101694 -0.00060986 0.00211773)
(0.102269 -0.000635462 0.00215036)
(0.102742 -0.000625823 0.0021801)
(0.103124 -0.000593138 0.00213454)
(0.103428 -0.000546531 0.00204504)
(0.103681 -0.000499166 0.00193648)
(0.103899 -0.000452874 0.00183187)
(0.104096 -0.000403526 0.00173537)
(0.104284 -0.0003508 0.00165193)
(0.104464 -0.000296459 0.00159763)
(0.10463 -0.000236261 0.00157526)
(0.104781 -0.000161392 0.00157617)
(0.104918 -6.55692e-05 0.00159676)
(0.105037 6.27213e-05 0.00164441)
(0.105132 0.00023845 0.00172639)
(0.105212 0.000478523 0.00184474)
(0.105484 0.000774749 0.00199361)
(0.100093 -0.000445908 0.000763206)
(0.100504 -0.00119443 0.00174904)
(0.101105 -0.0015867 0.00212956)
(0.101635 -0.00174025 0.00223463)
(0.10198 -0.00178197 0.00228698)
(0.102172 -0.00172854 0.00223582)
(0.102254 -0.00160725 0.00211577)
(0.102279 -0.00145887 0.00196444)
(0.102283 -0.00130276 0.00180205)
(0.102278 -0.00115243 0.00165261)
(0.102276 -0.0010214 0.00154338)
(0.102283 -0.000907296 0.00146585)
(0.102301 -0.000803585 0.00141025)
(0.102332 -0.000702134 0.0013705)
(0.102378 -0.000592118 0.00134139)
(0.102443 -0.000464723 0.00131721)
(0.102525 -0.000306298 0.00129121)
(0.102619 -0.000101312 0.0012573)
(0.102729 0.000161979 0.00121711)
(0.102924 0.000483923 0.00115763)
(0.10014 -0.000775023 0.000869236)
(0.100454 -0.00196242 0.0019635)
(0.100911 -0.00242758 0.00233435)
(0.100978 -0.00252671 0.00244101)
(0.100694 -0.00242648 0.00233639)
(0.100225 -0.00219784 0.002112)
(0.0997103 -0.00191719 0.00182252)
(0.0991861 -0.00166647 0.00157418)
(0.0986931 -0.00146393 0.00138752)
(0.098249 -0.00129809 0.00124626)
(0.0978612 -0.00116137 0.00114044)
(0.0975276 -0.00104892 0.00106199)
(0.0972456 -0.00095515 0.00100023)
(0.0970147 -0.000874014 0.000945802)
(0.0968369 -0.000798311 0.000891415)
(0.096714 -0.000715706 0.00082261)
(0.0966438 -0.00060912 0.00071336)
(0.0966109 -0.000456886 0.000526635)
(0.0965595 -0.000231448 0.000242721)
(0.0965889 0.000192525 -0.000228114)
(0.100226 -0.000720825 0.000720794)
(0.0999601 -0.00198281 0.00198267)
(0.0997823 -0.00245205 0.00245171)
(0.0987883 -0.00241996 0.00241937)
(0.0972757 -0.00220135 0.00220042)
(0.095775 -0.00181242 0.00181076)
(0.0943933 -0.00138389 0.00138118)
(0.0931646 -0.00107258 0.00106803)
(0.0920781 -0.000858132 0.000850329)
(0.0911169 -0.000708787 0.000695329)
(0.0902661 -0.00060211 0.000577906)
(0.0895028 -0.000525145 0.000485458)
(0.0888092 -0.000473023 0.000412572)
(0.0881857 -0.000438577 0.000348707)
(0.0876352 -0.000416528 0.000275991)
(0.0871622 -0.000405483 0.000172844)
(0.0867698 -0.000394269 1.48776e-05)
(0.0864381 -0.000351969 -0.000259827)
(0.0859947 -0.000125031 -0.000800978)
(0.0856751 0.000714667 -0.00199581)
(0.0999088 -0.000712569 0.00129699)
(0.0969669 -0.0027473 0.00365579)
(0.0935346 -0.00211825 0.00264008)
(0.0895892 -0.00162078 0.00182018)
(0.085832 -0.00139085 0.00152828)
(0.0825897 -0.00116167 0.00135048)
(0.0798646 -0.00089789 0.001178)
(0.0775657 -0.000693463 0.00103825)
(0.0755553 -0.000562664 0.000938936)
(0.0737468 -0.000483453 0.000859105)
(0.0720933 -0.000439553 0.000781892)
(0.0705654 -0.000417056 0.000701119)
(0.0691426 -0.000406755 0.000621233)
(0.0678101 -0.000404097 0.000540405)
(0.0665585 -0.000409967 0.000441976)
(0.0653917 -0.000422287 0.000294077)
(0.064336 -0.000441851 8.98388e-05)
(0.0634688 -0.000411426 -0.000260755)
(0.0631319 -0.000213639 -0.000999949)
(0.0618233 0.00119725 -0.00355956)
(0.099413 0.000270227 0.000345229)
(0.0988664 0.00187486 0.00201903)
(0.0979217 0.00218887 0.00257314)
(0.0963663 0.00190816 0.0023799)
(0.0946343 0.00162633 0.00211417)
(0.0929738 0.00141816 0.0019269)
(0.0913669 0.0012704 0.0018016)
(0.0898588 0.00115863 0.00170565)
(0.0884629 0.00106761 0.00160525)
(0.0871721 0.000994482 0.00149505)
(0.0859804 0.000944335 0.00138485)
(0.084876 0.000913006 0.00128095)
(0.0838439 0.000894802 0.00118195)
(0.0828779 0.000883583 0.00108184)
(0.0819811 0.000872217 0.000972428)
(0.0811749 0.000845316 0.000838767)
(0.0805061 0.000787001 0.00065436)
(0.0800357 0.00062417 0.000354312)
(0.0798754 0.000332825 -0.000257799)
(0.0791398 -0.000484398 -0.001785)
(0.10014 0.000869234 0.000775024)
(0.100454 0.0019635 0.00196242)
(0.100911 0.00233435 0.00242758)
(0.100978 0.002441 0.00252671)
(0.100694 0.00233638 0.00242648)
(0.100225 0.00211199 0.00219784)
(0.0997103 0.0018225 0.0019172)
(0.0991861 0.00157416 0.00166648)
(0.0986932 0.00138749 0.00146394)
(0.0982491 0.00124621 0.00129811)
(0.0978613 0.00114038 0.00116139)
(0.0975277 0.00106192 0.00104895)
(0.0972458 0.0010001 0.000955174)
(0.0970149 0.000945641 0.000874051)
(0.0968371 0.000891232 0.000798367)
(0.0967142 0.000822371 0.000715779)
(0.0966441 0.000713034 0.000609202)
(0.0966113 0.000526084 0.000456899)
(0.0965599 0.000242046 0.000231555)
(0.0965886 -0.000227101 -0.000190669)
(0.10006 0.000641369 0.000641431)
(0.100502 0.00164497 0.00164517)
(0.101149 0.00221227 0.00221266)
(0.101738 0.00243975 0.00244042)
(0.102205 0.00244158 0.00244266)
(0.102501 0.00231294 0.00231461)
(0.102646 0.00209154 0.0020943)
(0.102715 0.00186743 0.00187182)
(0.102742 0.00166841 0.00167558)
(0.102756 0.0015003 0.00151202)
(0.102778 0.00135895 0.00137799)
(0.102814 0.00123906 0.00126972)
(0.102872 0.0011348 0.00118393)
(0.102954 0.001039 0.00111717)
(0.103061 0.000943283 0.0010662)
(0.103193 0.000837382 0.0010277)
(0.103343 0.000708944 0.000997862)
(0.103499 0.00054635 0.000970836)
(0.103651 0.000344614 0.000935062)
(0.103935 0.000156777 0.000919318)
(0.100046 0.000395699 0.000540287)
(0.10048 0.00104481 0.00138423)
(0.101154 0.00147529 0.00192323)
(0.101913 0.00170515 0.00219302)
(0.102631 0.00177991 0.00229485)
(0.103301 0.00174454 0.0022795)
(0.103893 0.00163372 0.00218756)
(0.104389 0.00149077 0.00205571)
(0.104816 0.00134375 0.00190989)
(0.105192 0.00120777 0.0017734)
(0.105533 0.00108715 0.00165597)
(0.105852 0.000981601 0.00156015)
(0.106157 0.000887033 0.00148751)
(0.106453 0.000799095 0.00143841)
(0.106745 0.00071517 0.00141337)
(0.107033 0.000630945 0.00141522)
(0.107318 0.000541632 0.00144898)
(0.107604 0.000444707 0.00151896)
(0.107908 0.000344478 0.00162327)
(0.108357 0.000267798 0.00175377)
(0.100039 0.000131349 0.000478798)
(0.100448 0.000350538 0.00123487)
(0.101114 0.000505157 0.00174665)
(0.101909 0.000597324 0.00202711)
(0.102728 0.000638832 0.00215261)
(0.103529 0.000638663 0.00218726)
(0.104297 0.000605236 0.00215454)
(0.105006 0.000560414 0.00208133)
(0.105641 0.000512084 0.0019839)
(0.106213 0.00046532 0.00187883)
(0.106734 0.000423112 0.00177856)
(0.107212 0.000386408 0.00169185)
(0.107659 0.000354987 0.00162589)
(0.108083 0.000328173 0.00158441)
(0.108491 0.000305817 0.0015678)
(0.108882 0.000290205 0.00157809)
(0.109259 0.000282384 0.00162223)
(0.109631 0.000283122 0.00170634)
(0.110024 0.000292681 0.00182476)
(0.110547 0.000312092 0.00195038)
(0.100039 -0.000131312 0.000478778)
(0.100448 -0.000350444 0.00123481)
(0.101114 -0.000504988 0.00174653)
(0.101909 -0.000597039 0.00202689)
(0.102729 -0.000638336 0.00215218)
(0.103529 -0.00063784 0.00218655)
(0.104298 -0.000603814 0.00215345)
(0.105008 -0.000558079 0.00207969)
(0.105644 -0.000508171 0.00198135)
(0.106218 -0.000458703 0.0018747)
(0.106741 -0.000412099 0.00177165)
(0.107224 -0.000368627 0.00168011)
(0.107676 -0.000327289 0.00160607)
(0.108109 -0.000285612 0.00155196)
(0.108529 -0.00024051 0.00151685)
(0.108939 -0.000189553 0.00150009)
(0.10934 -0.000129427 0.00150241)
(0.109737 -5.59862e-05 0.00152481)
(0.11015 3.32345e-05 0.00156296)
(0.110656 0.000132882 0.0016063)
(0.100046 -0.00039572 0.000540233)
(0.10048 -0.00104488 0.00138407)
(0.101154 -0.0014754 0.0019229)
(0.101913 -0.0017053 0.00219244)
(0.102632 -0.0017802 0.00229385)
(0.103302 -0.00174504 0.00227789)
(0.103895 -0.00163455 0.00218503)
(0.104392 -0.00149207 0.00205157)
(0.10482 -0.00134584 0.00190348)
(0.1052 -0.00121083 0.00176335)
(0.105545 -0.00109172 0.00163962)
(0.10587 -0.000988662 0.00153363)
(0.106186 -0.000898847 0.00144408)
(0.106499 -0.000818452 0.00136809)
(0.106814 -0.00074404 0.00130169)
(0.107137 -0.000672528 0.00123959)
(0.107469 -0.000599123 0.00117726)
(0.107811 -0.000520349 0.00111107)
(0.108177 -0.000431456 0.00104048)
(0.108628 -0.000329074 0.000976564)
(0.10006 -0.00064143 0.000641371)
(0.100502 -0.00164517 0.00164497)
(0.101149 -0.00221265 0.00221227)
(0.101738 -0.00244042 0.00243976)
(0.102205 -0.00244265 0.0024416)
(0.102501 -0.0023146 0.00231296)
(0.102646 -0.00209429 0.00209157)
(0.102715 -0.00187181 0.00186746)
(0.102741 -0.00167556 0.00166845)
(0.102756 -0.00151201 0.00150036)
(0.102778 -0.00137796 0.00135902)
(0.102814 -0.00126968 0.00123913)
(0.102872 -0.00118389 0.0011349)
(0.102954 -0.00111715 0.00103915)
(0.103061 -0.00106619 0.000943472)
(0.103193 -0.00102763 0.000837566)
(0.103343 -0.000997734 0.000709105)
(0.103499 -0.000970589 0.000546442)
(0.103651 -0.000934376 0.000344268)
(0.103936 -0.000916566 0.000154248)
(0.10014 -0.000869279 0.000774988)
(0.100454 -0.0019637 0.00196232)
(0.100911 -0.00233482 0.00242738)
(0.100978 -0.00244177 0.00252629)
(0.100694 -0.00233752 0.00242575)
(0.100224 -0.00211351 0.00219658)
(0.0997079 -0.00182487 0.00191521)
(0.0991819 -0.00157834 0.00166349)
(0.0986859 -0.00139462 0.00145879)
(0.0982364 -0.00125807 0.00128911)
(0.0978398 -0.00116026 0.00114682)
(0.0974917 -0.00109469 0.00102461)
(0.0971884 -0.00105373 0.000914245)
(0.0969262 -0.00103215 0.000805107)
(0.0967011 -0.00103039 0.00068681)
(0.0965082 -0.00105101 0.000546459)
(0.0963416 -0.00109524 0.000361784)
(0.0961906 -0.00116537 0.00010616)
(0.0960265 -0.00125549 -0.000247764)
(0.09609 -0.00138293 -0.000661598)
(0.099413 -0.000270234 0.000345211)
(0.0988664 -0.00187494 0.00201894)
(0.0979214 -0.00218911 0.00257296)
(0.0963657 -0.00190856 0.00237957)
(0.094633 -0.00162691 0.00211365)
(0.0929715 -0.00141899 0.00192606)
(0.0913627 -0.00127176 0.00180036)
(0.0898514 -0.00116091 0.00170362)
(0.0884502 -0.00107129 0.00160183)
(0.0871508 -0.00100056 0.00148936)
(0.0859446 -0.000953927 0.00137535)
(0.0848154 -0.000929613 0.00126542)
(0.0837429 -0.000923506 0.00115732)
(0.0827104 -0.000932423 0.00104387)
(0.0817051 -0.000956186 0.000914939)
(0.0807136 -0.000998295 0.000755803)
(0.0797196 -0.00106551 0.000546819)
(0.0786795 -0.00116434 0.000185588)
(0.0775237 -0.0012748 -0.000488487)
(0.0759507 -0.00209832 -0.0013677)
(0.0995405 0.000321901 0.000245016)
(0.0992576 0.00154094 0.00105549)
(0.098849 0.00211445 0.0015021)
(0.0981251 0.00209162 0.00157901)
(0.0973376 0.00188614 0.00151403)
(0.0965863 0.00166591 0.00144493)
(0.0958677 0.00149816 0.0014075)
(0.0952016 0.00137179 0.00137454)
(0.0945756 0.00128508 0.00132574)
(0.0939349 0.00122932 0.00124974)
(0.0933137 0.0011915 0.00115228)
(0.0927117 0.00116731 0.00104388)
(0.0921224 0.00115444 0.000930612)
(0.091543 0.00114996 0.000810792)
(0.0909723 0.0011487 0.000676533)
(0.0904112 0.00114402 0.000499108)
(0.0898632 0.00112954 0.000253435)
(0.0893315 0.00110293 -0.000111029)
(0.088808 0.00108199 -0.000652828)
(0.0881658 0.000982312 -0.00147655)
(0.100093 0.000763205 0.000445909)
(0.100504 0.00174904 0.00119443)
(0.101105 0.00212956 0.0015867)
(0.101635 0.00223463 0.00174025)
(0.10198 0.00228697 0.00178197)
(0.102172 0.00223581 0.00172854)
(0.102254 0.00211575 0.00160725)
(0.102279 0.00196442 0.00145888)
(0.102283 0.00180202 0.00130276)
(0.102278 0.00165257 0.00115244)
(0.102276 0.00154333 0.0010214)
(0.102283 0.00146577 0.000907301)
(0.102301 0.00141013 0.000803578)
(0.102332 0.00137038 0.000702142)
(0.102379 0.00134126 0.000592142)
(0.102444 0.001317 0.000464731)
(0.102525 0.00129091 0.000306296)
(0.102619 0.00125688 0.000101297)
(0.102729 0.00121656 -0.000161942)
(0.102924 0.0011572 -0.000483519)
(0.100046 0.000540231 0.000395721)
(0.10048 0.00138406 0.00104488)
(0.101154 0.0019229 0.0014754)
(0.101913 0.00219243 0.0017053)
(0.102632 0.00229384 0.0017802)
(0.103302 0.00227786 0.00174504)
(0.103895 0.002185 0.00163455)
(0.104392 0.00205153 0.00149207)
(0.10482 0.00190344 0.00134584)
(0.1052 0.0017633 0.00121084)
(0.105545 0.00163955 0.00109173)
(0.105871 0.00153354 0.000988676)
(0.106186 0.00144397 0.000898863)
(0.106499 0.00136796 0.000818468)
(0.106815 0.00130154 0.000744066)
(0.107137 0.00123942 0.000672584)
(0.107469 0.00117709 0.000599234)
(0.107811 0.00111093 0.000520566)
(0.108177 0.00104049 0.00043191)
(0.108628 0.000977037 0.00032999)
(0.100036 0.000323127 0.000323171)
(0.100429 0.000868629 0.000868758)
(0.10108 0.00126231 0.00126255)
(0.101891 0.00150422 0.00150463)
(0.102756 0.00162131 0.00162197)
(0.103616 0.00164233 0.00164335)
(0.104446 0.00160404 0.00160557)
(0.105224 0.00152538 0.00152776)
(0.105939 0.0014253 0.001429)
(0.106594 0.00131955 0.0013253)
(0.107199 0.00121832 0.0012274)
(0.107763 0.00112626 0.00114061)
(0.108294 0.00104429 0.00106696)
(0.108802 0.000971433 0.00100698)
(0.109294 0.000905878 0.000960653)
(0.109775 0.000845432 0.000927794)
(0.110253 0.000788016 0.000908134)
(0.110734 0.000731441 0.00090058)
(0.111237 0.000676788 0.000899643)
(0.111819 0.00063586 0.000893238)
(0.100031 0.000107079 0.000281404)
(0.100395 0.000293049 0.000768699)
(0.101024 0.000434086 0.0011332)
(0.101843 0.00052624 0.00136943)
(0.102751 0.000576367 0.00150181)
(0.103688 0.000591761 0.00155481)
(0.104617 0.000582359 0.00155009)
(0.105516 0.000557771 0.00150959)
(0.106367 0.000524223 0.00144663)
(0.107163 0.000487225 0.00137161)
(0.107906 0.000450985 0.00129341)
(0.108598 0.00041775 0.00121902)
(0.109248 0.000388236 0.00115353)
(0.109864 0.000362145 0.00110067)
(0.110454 0.000338588 0.00106375)
(0.111026 0.000317502 0.00104453)
(0.111585 0.000299097 0.00104339)
(0.112142 0.000283388 0.001058)
(0.112716 0.000270128 0.00108025)
(0.113359 0.000262212 0.00109469)
(0.100031 -0.00010708 0.000281384)
(0.100395 -0.000293061 0.000768638)
(0.101024 -0.000434111 0.00113308)
(0.101844 -0.000526281 0.00136921)
(0.102751 -0.000576434 0.00150143)
(0.103689 -0.000591877 0.00155423)
(0.104618 -0.000582534 0.00154927)
(0.105516 -0.000557946 0.00150839)
(0.106368 -0.000524317 0.00144479)
(0.107165 -0.000487168 0.00136873)
(0.107908 -0.000450769 0.00128888)
(0.108602 -0.000417514 0.00121188)
(0.109253 -0.000388381 0.00114235)
(0.10987 -0.000363228 0.00108316)
(0.110462 -0.000340742 0.00103637)
(0.111036 -0.00031928 0.00100314)
(0.111599 -0.000298214 0.000982811)
(0.112156 -0.000276588 0.000973323)
(0.112728 -0.000254377 0.000970416)
(0.113362 -0.000230323 0.000969744)
(0.100036 -0.000323171 0.00032313)
(0.100429 -0.000868758 0.000868636)
(0.10108 -0.00126255 0.00126232)
(0.101891 -0.00150463 0.00150424)
(0.102756 -0.00162197 0.00162133)
(0.103616 -0.00164335 0.00164236)
(0.104446 -0.00160557 0.00160408)
(0.105224 -0.00152776 0.00152542)
(0.105939 -0.00142899 0.00142536)
(0.106594 -0.0013253 0.00131961)
(0.107199 -0.00122739 0.0012184)
(0.107763 -0.0011406 0.00112635)
(0.108294 -0.00106696 0.0010444)
(0.108802 -0.00100698 0.000971556)
(0.109294 -0.000960651 0.000906007)
(0.109775 -0.000927784 0.000845553)
(0.110253 -0.000908113 0.000788113)
(0.110734 -0.000900555 0.000731465)
(0.111237 -0.000899622 0.000676668)
(0.111818 -0.000893263 0.000635499)
(0.100046 -0.000540286 0.000395702)
(0.10048 -0.00138423 0.00104482)
(0.101154 -0.00192323 0.0014753)
(0.101913 -0.00219302 0.00170516)
(0.102631 -0.00229485 0.00177993)
(0.103301 -0.0022795 0.00174457)
(0.103893 -0.00218755 0.00163375)
(0.104389 -0.0020557 0.00149082)
(0.104816 -0.00190988 0.00134381)
(0.105192 -0.00177339 0.00120784)
(0.105533 -0.00165595 0.00108722)
(0.105852 -0.00156012 0.000981687)
(0.106156 -0.00148748 0.000887133)
(0.106453 -0.00143838 0.00079922)
(0.106744 -0.00141333 0.000715299)
(0.107032 -0.00141515 0.000631036)
(0.107318 -0.00144886 0.000541644)
(0.107604 -0.00151878 0.000444576)
(0.107908 -0.00162303 0.000344058)
(0.108356 -0.00175367 0.00026701)
(0.100093 -0.000763218 0.000445913)
(0.100504 -0.00174908 0.00119444)
(0.101105 -0.00212971 0.00158673)
(0.101634 -0.00223517 0.00174035)
(0.101979 -0.00228802 0.00178217)
(0.10217 -0.00223734 0.00172885)
(0.102251 -0.00211805 0.00160787)
(0.102273 -0.00196792 0.00145999)
(0.102274 -0.00180728 0.00130449)
(0.102263 -0.00166101 0.00115583)
(0.10225 -0.00155805 0.00102723)
(0.10224 -0.00149087 0.000916641)
(0.102228 -0.00145237 0.000815682)
(0.102216 -0.00144112 0.000719631)
(0.102196 -0.00146017 0.0006214)
(0.102159 -0.00151746 0.00051473)
(0.102094 -0.0016298 0.000390856)
(0.101985 -0.00182143 0.000239339)
(0.101838 -0.00211083 5.6986e-05)
(0.102009 -0.00251941 -3.88266e-05)
(0.0995405 -0.000321901 0.000245028)
(0.0992576 -0.00154095 0.00105555)
(0.0988488 -0.00211457 0.00150222)
(0.0981245 -0.00209183 0.00157922)
(0.0973363 -0.00188647 0.00151455)
(0.0965838 -0.00166642 0.00144601)
(0.0958633 -0.00149877 0.00140942)
(0.095194 -0.00137282 0.00137773)
(0.0945624 -0.00128737 0.00133133)
(0.0939122 -0.00123439 0.00125868)
(0.0932751 -0.00120115 0.00116622)
(0.0926462 -0.00118526 0.00106566)
(0.0920118 -0.00118453 0.000966208)
(0.0913566 -0.00120013 0.000869695)
(0.0906593 -0.00123695 0.000770936)
(0.0898873 -0.00130539 0.00065905)
(0.0889811 -0.00142579 0.000525249)
(0.0878261 -0.00163738 0.000358618)
(0.0863046 -0.00195213 0.000114617)
(0.0844424 -0.00340363 0.000675201)
(0.0993801 5.89251e-05 3.37486e-05)
(0.0992677 0.00120003 0.000274249)
(0.0989804 0.00188851 0.000432074)
(0.0984747 0.00200649 0.000482929)
(0.0979957 0.00191466 0.000477898)
(0.0975711 0.00173465 0.00046381)
(0.0971814 0.00154715 0.000449756)
(0.0968318 0.00138833 0.000436966)
(0.0965318 0.0012696 0.000426998)
(0.0962775 0.00119872 0.000412828)
(0.0960036 0.00117111 0.000385306)
(0.0957105 0.00116877 0.000344569)
(0.0953964 0.00117771 0.000291978)
(0.0950488 0.00119505 0.000225204)
(0.0946583 0.00122534 0.000141059)
(0.0942146 0.00127291 2.22448e-05)
(0.0937061 0.00134319 -0.000159721)
(0.0931054 0.00143846 -0.000442917)
(0.0923681 0.00156592 -0.000889901)
(0.0916742 0.00174349 -0.0016536)
(0.100087 0.000707024 0.000144353)
(0.100477 0.00161782 0.000390396)
(0.101066 0.00203472 0.000540942)
(0.101694 0.00211772 0.000609858)
(0.102269 0.00215034 0.00063546)
(0.102742 0.00218008 0.00062582)
(0.103124 0.00213452 0.000593135)
(0.103428 0.00204502 0.000546527)
(0.103681 0.00193645 0.000499161)
(0.103899 0.00183183 0.000452867)
(0.104096 0.00173532 0.000403517)
(0.104284 0.00165187 0.000350787)
(0.104464 0.00159754 0.000296442)
(0.10463 0.00157517 0.000236241)
(0.104781 0.00157605 0.000161376)
(0.104918 0.0015966 6.55531e-05)
(0.105037 0.00164421 -6.27325e-05)
(0.105132 0.00172613 -0.000238435)
(0.105212 0.00184443 -0.000478423)
(0.105485 0.00199325 -0.000774469)