/*--------------------------------*- C++ -*----------------------------------*\
| =========                 |                                                 |
| \\      /  F ield         | OpenFOAM: The Open Source CFD Toolbox           |
|  \\    /   O peration     | Version:  2212                                  |
|   \\  /    A nd           | Website:  www.openfoam.com                      |
|    \\/     M anipulation  |                                                 |
\*---------------------------------------------------------------------------*/
FoamFile
{
    version     2.0;
    format      ascii;
    arch        "LSB;label=32;scalar=64";
    class       surfaceVectorField;
    location    "2.1";
    object      Uf;
}
// * * * * * * * * * * * * * * * * * * * * * * * * * * * * * * * * * * * * * //

dimensions      [0 1 -1 0 0 0 0];

internalField   nonuniform List<vector> 
19019
(
(0.0993441 -0.00341904 -0.00341899)
(0.0973536 0.00106247 -0.00148427)
(0.0973536 -0.00148428 0.00106248)
(0.0834792 0.0019758 0.00197593)
(0.0930872 0.00326892 0.00253353)
(0.0930872 0.00253344 0.00326904)
(0.0745172 0.00195858 0.00195885)
(0.0848641 0.00163571 0.00179246)
(0.0848641 0.00179229 0.00163593)
(0.0685479 0.00115882 0.00115934)
(0.0786282 0.00107327 0.00122161)
(0.0786283 0.00122126 0.00107367)
(0.0642363 0.000696536 0.000697436)
(0.0740532 0.000784877 0.000865547)
(0.0740533 0.000864946 0.000785681)
(0.0607571 0.000493911 0.0004957)
(0.0704427 0.000649776 0.000670044)
(0.070443 0.000669029 0.000651061)
(0.057938 0.000373123 0.000376481)
(0.0674919 0.000545261 0.000510035)
(0.0674926 0.000507989 0.000547853)
(0.055615 0.000285147 0.000290741)
(0.0650513 0.000466298 0.00038998)
(0.0650524 0.000386556 0.00047079)
(0.0536264 0.000222369 0.0002315)
(0.0629666 0.000410876 0.000311972)
(0.0629687 0.000306406 0.000418431)
(0.0518827 0.000175384 0.000190619)
(0.0611327 0.000365373 0.00026174)
(0.0611362 0.000252633 0.000378047)
(0.0503349 0.000138111 0.000163517)
(0.0594898 0.000322107 0.000231436)
(0.0594962 0.000215269 0.000343536)
(0.0489513 0.000105625 0.000146492)
(0.0580043 0.000278681 0.000215084)
(0.0580157 0.000187932 0.000314196)
(0.0477031 7.34073e-05 0.00013708)
(0.0566491 0.0002355 0.000207646)
(0.0566692 0.00016682 0.000292985)
(0.0465708 3.80192e-05 0.000134825)
(0.0554031 0.000188584 0.000206161)
(0.0554365 0.000149354 0.000281581)
(0.0455587 5.00118e-06 0.00014127)
(0.0542572 0.000128626 0.00021057)
(0.0543111 0.000129607 0.000278521)
(0.0446838 -4.95943e-05 0.000162232)
(0.0532214 5.19444e-05 0.000222191)
(0.0533096 0.000103576 0.000281544)
(0.044005 -0.000171365 0.000191823)
(0.0523297 -6.63299e-05 0.000255319)
(0.0524825 3.80789e-05 0.000301363)
(0.0438091 -0.000373215 0.000182241)
(0.0516931 -0.000292815 0.000267208)
(0.0519777 -0.000119236 0.000323653)
(0.0447667 -0.00169129 -0.000768314)
(0.0517994 -0.000742454 0.000154208)
(0.0523588 -0.000367125 0.000293602)
(0.0504572 -0.00366571 -0.00179079)
(0.0506645 -0.00201135 -0.000971291)
(0.0984572 0.00247639 0.00172993)
(0.0996871 0.000439206 0.000345488)
(0.100049 0.00105637 0.000750986)
(0.0958348 0.00314793 0.00243277)
(0.0978161 0.00273266 0.00228234)
(0.0982936 0.00280913 0.00216157)
(0.09145 0.00223012 0.00186952)
(0.0954959 0.00300151 0.00230327)
(0.096304 0.00244247 0.001998)
(0.0875951 0.00167421 0.00150582)
(0.092619 0.00229901 0.00183905)
(0.0936668 0.00198039 0.00172734)
(0.0841474 0.00143936 0.00127627)
(0.0897669 0.00189128 0.00153608)
(0.0909046 0.00171913 0.00149844)
(0.0811873 0.00126421 0.00102979)
(0.0872314 0.00165543 0.00129538)
(0.0884343 0.00145355 0.00121287)
(0.0787004 0.00110809 0.000795688)
(0.0850054 0.00149023 0.00107838)
(0.0863047 0.00118177 0.000910553)
(0.076555 0.000988552 0.000628078)
(0.0830587 0.00136855 0.000915343)
(0.0844802 0.000980124 0.000693948)
(0.074648 0.000898968 0.000523075)
(0.0813207 0.00127349 0.000805059)
(0.0828794 0.000840253 0.000554115)
(0.0729179 0.000820431 0.000461523)
(0.0797397 0.00118541 0.000732136)
(0.0814464 0.000736005 0.000464775)
(0.0713275 0.000741421 0.00042833)
(0.0782863 0.00109721 0.000689163)
(0.0801488 0.000647473 0.000408382)
(0.0698533 0.000661079 0.000411939)
(0.0769367 0.00100757 0.000667503)
(0.0789598 0.000566427 0.000373307)
(0.0684766 0.000580704 0.00040547)
(0.0756704 0.000916581 0.000659682)
(0.0778602 0.000494047 0.000354828)
(0.0671838 0.000491009 0.00040709)
(0.0744722 0.000820948 0.000662145)
(0.0768421 0.000425505 0.000349414)
(0.0659687 0.000367743 0.000416208)
(0.0733305 0.000710064 0.000676534)
(0.0759012 0.000344553 0.000357484)
(0.0648509 0.000191564 0.000432206)
(0.0722421 0.000563327 0.000704664)
(0.075042 0.000225621 0.000381083)
(0.0638691 -8.6015e-05 0.00042691)
(0.0712139 0.000358537 0.000746275)
(0.0742803 5.33029e-05 0.000414127)
(0.0631887 -0.000631133 0.000313143)
(0.0702692 -1.53114e-05 0.000766677)
(0.0736506 -0.000253529 0.000402782)
(0.063361 -0.00228099 -0.00049025)
(0.0695655 -0.000784902 0.00068394)
(0.0732664 -0.000924748 0.000146457)
(0.0681372 -0.00273963 0.000215886)
(0.0723951 -0.00304799 -0.0014053)
(0.0993753 0.00118207 0.00107259)
(0.099473 0.000349743 0.000307062)
(0.0997475 0.000610955 0.000779895)
(0.0984947 0.00229594 0.00203203)
(0.0990504 0.00157675 0.0017205)
(0.0995971 0.00201821 0.00200297)
(0.097141 0.00247625 0.00204884)
(0.0983576 0.002131 0.00216901)
(0.0992971 0.00246136 0.00210265)
(0.095439 0.00224659 0.00176774)
(0.097193 0.00203562 0.00200265)
(0.098488 0.00237417 0.00190301)
(0.0937498 0.00201983 0.00152296)
(0.0959045 0.00185544 0.00175472)
(0.0974217 0.00218037 0.0016893)
(0.0921364 0.00186318 0.00134539)
(0.0946705 0.00173251 0.0015432)
(0.0963086 0.00198385 0.00150915)
(0.0905983 0.00175195 0.00121635)
(0.0934796 0.00165244 0.00138728)
(0.0952027 0.00180024 0.00134407)
(0.0891458 0.00165268 0.00111612)
(0.0923644 0.00157622 0.00126689)
(0.0941448 0.00164243 0.00120607)
(0.0877947 0.00154553 0.00103595)
(0.0913251 0.00148037 0.00117436)
(0.0931601 0.00150094 0.00109954)
(0.0865451 0.00143228 0.00097727)
(0.0903311 0.00136906 0.00110772)
(0.0922518 0.00136839 0.00102006)
(0.0853798 0.00132029 0.000941801)
(0.0893926 0.0012561 0.00106519)
(0.0914181 0.00124645 0.000967424)
(0.0842794 0.00121125 0.000926597)
(0.0884987 0.00114451 0.00104338)
(0.0906484 0.0011349 0.000938088)
(0.0832267 0.00110046 0.000928025)
(0.0876323 0.00103534 0.00103858)
(0.0899298 0.00102912 0.000927584)
(0.0822077 0.000979273 0.000944414)
(0.0867772 0.000925099 0.00104952)
(0.0892518 0.000920805 0.000933451)
(0.0812099 0.000835213 0.000977401)
(0.0859167 0.000803163 0.00107774)
(0.0886054 0.000800206 0.000957446)
(0.0802191 0.000651092 0.00103213)
(0.0850283 0.000650725 0.00112855)
(0.0879813 0.000654007 0.0010046)
(0.0792158 0.000365886 0.00111533)
(0.0840754 0.000449814 0.0012143)
(0.0873679 0.000462341 0.00108261)
(0.0781362 -0.000151801 0.00122036)
(0.0829809 0.000144444 0.00135779)
(0.0867367 0.000159815 0.00120349)
(0.0767937 -0.000928385 0.00168792)
(0.0816524 -0.000325056 0.00156542)
(0.0860367 -0.000346314 0.00137564)
(0.0799423 -0.000635258 0.00265793)
(0.0852158 -0.000969549 0.00202227)
(0.0996493 0.000650284 0.000931425)
(0.0994625 0.000129386 0.000192515)
(0.0997993 0.000375116 0.000741365)
(0.0990854 0.00127887 0.00182776)
(0.0992625 0.000636906 0.00137064)
(0.0998409 0.00115034 0.00181424)
(0.098449 0.0015407 0.0021032)
(0.0989128 0.000973469 0.00200365)
(0.0999046 0.00153643 0.00209024)
(0.0977071 0.00154686 0.00198915)
(0.0982947 0.00105013 0.0020508)
(0.0997671 0.00163163 0.00202327)
(0.0969383 0.00148025 0.00177645)
(0.0976568 0.00100771 0.00189991)
(0.0995089 0.00160957 0.00189616)
(0.0962058 0.00142768 0.0015826)
(0.0970635 0.000960537 0.00169879)
(0.0991983 0.00154765 0.00175244)
(0.0955188 0.00139353 0.00143581)
(0.0965035 0.000934126 0.00152139)
(0.0988526 0.00147487 0.00162696)
(0.0948664 0.00135447 0.00133011)
(0.095989 0.000918328 0.00138028)
(0.0985072 0.00139339 0.00151685)
(0.0942271 0.00129494 0.0012609)
(0.0955175 0.000905088 0.0012806)
(0.0981711 0.0013004 0.00142265)
(0.0935922 0.00121237 0.00121779)
(0.0950579 0.000873881 0.00122073)
(0.0978202 0.00119592 0.00134816)
(0.0929622 0.00111584 0.00119323)
(0.0945941 0.000818358 0.00119132)
(0.0974754 0.00108929 0.00129861)
(0.092331 0.00101582 0.00118493)
(0.0941226 0.000754215 0.00118364)
(0.0971359 0.00098601 0.00127042)
(0.0916869 0.000917836 0.0011924)
(0.0936337 0.000692916 0.00119082)
(0.0967932 0.000887389 0.00126118)
(0.0910128 0.000820214 0.00121867)
(0.09311 0.000637918 0.00121321)
(0.0964387 0.000792501 0.00127259)
(0.0902809 0.000714885 0.00127138)
(0.0925312 0.000590726 0.00125805)
(0.0960584 0.000695471 0.00130996)
(0.0894453 0.000592016 0.00136592)
(0.0918677 0.000550607 0.00133467)
(0.0956305 0.000588015 0.00138504)
(0.0884292 0.0004418 0.00153213)
(0.0910687 0.000527237 0.00146044)
(0.0951178 0.000462219 0.00152161)
(0.0871024 0.000236579 0.00179573)
(0.0900369 0.000511695 0.00167077)
(0.0944523 0.000308734 0.00175969)
(0.085266 0.00039495 0.00267865)
(0.0886538 0.000528107 0.00197127)
(0.093574 0.000104883 0.00212882)
(0.0870455 0.0009895 0.0029669)
(0.0926632 0.000400434 0.00334056)
(0.0996725 0.000154099 0.00062952)
(0.0993801 1.74939e-08 5.89512e-05)
(0.0997132 0.000103939 0.000687956)
(0.099159 0.000353428 0.0015443)
(0.0992677 8.28834e-08 0.00120004)
(0.0998376 0.000341705 0.00162233)
(0.0986635 0.000458006 0.00194755)
(0.0989804 1.94268e-07 0.00188853)
(0.099963 0.000485601 0.00199143)
(0.098212 0.000481301 0.00196071)
(0.0984746 3.52197e-07 0.00200653)
(0.0999917 0.000539861 0.00199672)
(0.0977758 0.000472433 0.00182494)
(0.0979954 6.11565e-07 0.00191476)
(0.100009 0.000546819 0.00191126)
(0.0973618 0.000459624 0.00164138)
(0.0975706 1.0801e-06 0.00173485)
(0.100007 0.00053424 0.00180466)
(0.096993 0.000448357 0.00146851)
(0.0971805 1.92501e-06 0.00154744)
(0.0999801 0.000512766 0.00168339)
(0.0966712 0.000440561 0.00133037)
(0.0968301 3.32077e-06 0.00138882)
(0.0999372 0.000487241 0.00157337)
(0.0963887 0.000434448 0.00123674)
(0.0965289 5.68342e-06 0.00127052)
(0.0998955 0.000464914 0.00148268)
(0.096119 0.000423442 0.00118942)
(0.0962725 9.60567e-06 0.00120039)
(0.0998605 0.000443753 0.00142065)
(0.0958335 0.000405489 0.00117759)
(0.0959951 1.61154e-05 0.00117397)
(0.0998026 0.000418408 0.00138327)
(0.095517 0.000385523 0.00118623)
(0.0956959 2.69125e-05 0.00117359)
(0.0997264 0.000391193 0.00136078)
(0.0951577 0.000370105 0.00120882)
(0.0953712 4.49618e-05 0.00118591)
(0.0996277 0.000367456 0.00135501)
(0.0947396 0.000367223 0.00125009)
(0.095005 7.4928e-05 0.00120932)
(0.0994912 0.000351263 0.00137118)
(0.0942409 0.000385236 0.00131889)
(0.0945829 0.000123863 0.00125101)
(0.0993056 0.000348535 0.0014143)
(0.0936267 0.000439802 0.00142596)
(0.0940866 0.000205585 0.00131708)
(0.0990564 0.000365177 0.00149159)
(0.0928395 0.000537668 0.00159353)
(0.0934895 0.000348854 0.00141704)
(0.0987154 0.000416156 0.00162289)
(0.0917875 0.000712295 0.00183532)
(0.0927385 0.000575019 0.00156748)
(0.0982354 0.000498966 0.00183862)
(0.0903389 0.00107121 0.00223946)
(0.0917515 0.000964224 0.00177025)
(0.097557 0.000661319 0.00214681)
(0.0907347 0.00180067 0.00212421)
(0.0969761 0.000996963 0.00274956)
(0.0996725 -0.000153999 0.000629476)
(0.0994625 -0.00012935 0.000192488)
(0.0997132 -0.000103896 0.000687952)
(0.0991591 -0.000353162 0.00154427)
(0.0992625 -0.000636774 0.00137062)
(0.0998377 -0.000341538 0.00162231)
(0.0986636 -0.000457503 0.00194751)
(0.0989129 -0.000973223 0.00200358)
(0.099963 -0.000485274 0.00199144)
(0.0982124 -0.000480417 0.00196058)
(0.0982951 -0.00104971 0.00205066)
(0.0999919 -0.000539279 0.00199668)
(0.0977765 -0.000470858 0.00182466)
(0.0976577 -0.00100691 0.00189966)
(0.100009 -0.000545763 0.00191106)
(0.0973632 -0.000456788 0.00164091)
(0.0970653 -0.000959006 0.00169834)
(0.100008 -0.000532342 0.00180423)
(0.0969955 -0.000443367 0.00146775)
(0.0965067 -0.000931317 0.0015208)
(0.0999819 -0.00050946 0.00168274)
(0.0966757 -0.00043199 0.00132898)
(0.0959945 -0.000913449 0.00137926)
(0.0999403 -0.00048161 0.0015723)
(0.0963962 -0.000419924 0.00123418)
(0.0955271 -0.000896625 0.0012785)
(0.0999007 -0.000455271 0.00148082)
(0.096132 -0.00039908 0.00118493)
(0.0950743 -0.000859868 0.00121645)
(0.099869 -0.00042727 0.00141747)
(0.0958559 -0.000364955 0.00116996)
(0.094622 -0.000795487 0.0011835)
(0.099817 -0.000390614 0.00137803)
(0.0955559 -0.000318296 0.00117327)
(0.0941702 -0.000717098 0.00116961)
(0.0997506 -0.000345029 0.00135183)
(0.095225 -0.000258624 0.00118642)
(0.0937148 -0.000631937 0.0011672)
(0.0996695 -0.000292075 0.0013392)
(0.0948557 -0.000183185 0.00121025)
(0.093248 -0.000537042 0.00117324)
(0.0995636 -0.000228707 0.0013432)
(0.0944397 -8.17363e-05 0.00124921)
(0.0927649 -0.000425499 0.00118717)
(0.0994282 -0.00014926 0.0013653)
(0.0939629 6.86115e-05 0.00130817)
(0.0922608 -0.000274241 0.00120767)
(0.0992584 -4.16656e-05 0.00140672)
(0.0934096 0.000301141 0.00139099)
(0.0917319 -5.83063e-05 0.00123433)
(0.0990453 0.000114497 0.00147505)
(0.0927528 0.00066618 0.00150242)
(0.0911665 0.000259187 0.00126794)
(0.0987726 0.00034635 0.00157612)
(0.0919894 0.00127148 0.001655)
(0.0905388 0.000719095 0.00132344)
(0.0984203 0.000694985 0.00171405)
(0.0898713 0.00142894 0.00136858)
(0.0981816 0.00123672 0.00190774)
(0.0996493 -0.00065025 0.000931424)
(0.099473 -0.00034975 0.000307058)
(0.0997993 -0.00037511 0.000741366)
(0.0990855 -0.00127879 0.0018277)
(0.0990504 -0.00157678 0.00172046)
(0.0998409 -0.00115031 0.00181423)
(0.0984494 -0.00154055 0.00210304)
(0.0983578 -0.00213107 0.00216883)
(0.0999049 -0.00153637 0.00209014)
(0.097708 -0.00154652 0.00198889)
(0.0971936 -0.00203573 0.00200234)
(0.0997676 -0.00163149 0.00202296)
(0.0969402 -0.00147948 0.00177603)
(0.0959058 -0.00185549 0.00175427)
(0.09951 -0.00160924 0.00189557)
(0.0962091 -0.00142621 0.00158204)
(0.0946729 -0.00173243 0.00154251)
(0.0992005 -0.00154698 0.00175154)
(0.0955246 -0.00139102 0.00143499)
(0.0934838 -0.00165215 0.00138625)
(0.0988565 -0.00147361 0.00162566)
(0.0948766 -0.00135014 0.00132845)
(0.0923717 -0.00157581 0.00126519)
(0.0985139 -0.00139124 0.00151477)
(0.0942447 -0.00128774 0.00125722)
(0.091338 -0.00147965 0.00117134)
(0.0981825 -0.00129671 0.00141915)
(0.0936223 -0.00120101 0.00121043)
(0.0903529 -0.001368 0.00110214)
(0.0978394 -0.00118974 0.00134208)
(0.0930133 -0.00109808 0.00117944)
(0.0894296 -0.00125464 0.00105558)
(0.0975078 -0.00107946 0.00128794)
(0.0924173 -0.000987251 0.00116093)
(0.0885614 -0.0011426 0.00102616)
(0.0971908 -0.000970543 0.00125146)
(0.0918322 -0.000870709 0.00115228)
(0.0877376 -0.00103216 0.00100935)
(0.0968859 -0.000863358 0.00122809)
(0.0912569 -0.000743678 0.00114944)
(0.0869533 -0.000919265 0.00100046)
(0.096592 -0.000753489 0.00121512)
(0.0906912 -0.000587872 0.00114652)
(0.0862098 -0.000794126 0.0009929)
(0.0963101 -0.000631935 0.00120881)
(0.0901379 -0.000376397 0.00113702)
(0.0855188 -0.000631653 0.000974519)
(0.096042 -0.000479474 0.00120402)
(0.0896018 -7.14383e-05 0.00111657)
(0.0849065 -0.000402488 0.000933038)
(0.0957885 -0.000276531 0.00119511)
(0.0890786 0.000381545 0.00109292)
(0.084407 -5.44418e-05 0.000830106)
(0.0955494 1.08672e-05 0.0011791)
(0.0885151 0.00106401 0.00103281)
(0.0840754 0.000525976 0.000665777)
(0.0953223 0.000419003 0.0011683)
(0.0833837 0.00164202 0.0002056)
(0.0950719 0.00100075 0.00112841)
(0.0993753 -0.00118213 0.00107255)
(0.0996871 -0.00043923 0.000345477)
(0.0997475 -0.000610982 0.000779873)
(0.0984949 -0.00229608 0.00203187)
(0.0978162 -0.0027328 0.00228226)
(0.0995971 -0.00201831 0.00200285)
(0.0971415 -0.00247651 0.00204852)
(0.0954961 -0.00300173 0.00230305)
(0.0992974 -0.00246157 0.00210233)
(0.0954399 -0.00224703 0.00176725)
(0.0926194 -0.0022994 0.00183867)
(0.0984885 -0.00237456 0.00190247)
(0.0937515 -0.00202052 0.00152226)
(0.0897677 -0.00189201 0.00153553)
(0.0974228 -0.00218101 0.00168849)
(0.0921395 -0.00186424 0.00134429)
(0.0872329 -0.00165664 0.0012945)
(0.0963104 -0.00198491 0.001508)
(0.0906039 -0.00175362 0.00121453)
(0.0850081 -0.00149228 0.00107693)
(0.095206 -0.00180184 0.00134223)
(0.0891555 -0.00165544 0.00111314)
(0.0830634 -0.00137195 0.000912957)
(0.0941506 -0.00164493 0.00120293)
(0.0878113 -0.00155014 0.00103107)
(0.0813291 -0.00127918 0.000801107)
(0.0931702 -0.00150523 0.0010944)
(0.0865731 -0.00143993 0.000969444)
(0.079754 -0.00119505 0.000725529)
(0.092269 -0.0013757 0.00101151)
(0.085427 -0.00133289 0.00092872)
(0.0783109 -0.00111382 0.000677406)
(0.0914472 -0.00125835 0.000953143)
(0.0843585 -0.00123145 0.000903979)
(0.0769794 -0.00103495 0.0006471)
(0.0906974 -0.00115446 0.000913709)
(0.0833582 -0.00113189 0.000889287)
(0.0757432 -0.000959302 0.000628002)
(0.0900105 -0.00106105 0.000886402)
(0.0824254 -0.0010271 0.000878008)
(0.0745929 -0.000886733 0.000616723)
(0.0893827 -0.000972499 0.000865093)
(0.0815709 -0.000905571 0.000858923)
(0.0735281 -0.000815343 0.000605982)
(0.0888167 -0.000881233 0.000843074)
(0.0808308 -0.000746599 0.000816414)
(0.0725697 -0.000738358 0.000574067)
(0.0883248 -0.000773357 0.000804749)
(0.0802622 -0.000504498 0.000705997)
(0.0717758 -0.000625198 0.000505102)
(0.0879312 -0.000625735 0.000726266)
(0.0799256 -4.86903e-05 0.000479161)
(0.0712674 -0.00037921 0.000286522)
(0.087662 -0.000391907 0.000546055)
(0.0799171 0.00102036 -7.48597e-05)
(0.0713876 0.000126027 -9.87729e-05)
(0.0875514 4.73006e-05 0.000240312)
(0.0698483 0.00166594 -0.00100374)
(0.0871678 0.00108393 -0.000477723)
(0.0984572 -0.00247647 0.00172988)
(0.0973536 -0.00106248 -0.00148428)
(0.100049 -0.00105639 0.000750961)
(0.0958349 -0.00314811 0.00243262)
(0.0930872 -0.00326903 0.00253344)
(0.0982936 -0.00280926 0.00216143)
(0.0914501 -0.00223042 0.00186922)
(0.0848641 -0.00163592 0.00179229)
(0.096304 -0.00244274 0.00199774)
(0.0875954 -0.00167482 0.00150535)
(0.0786282 -0.00107366 0.00122126)
(0.093667 -0.00198087 0.00172685)
(0.084148 -0.00144042 0.00127549)
(0.0740533 -0.000785666 0.000864952)
(0.0909048 -0.00171999 0.00149767)
(0.0811885 -0.00126603 0.00102846)
(0.070443 -0.000651044 0.000669038)
(0.0884348 -0.00145497 0.00121149)
(0.0787024 -0.00111128 0.000793537)
(0.0674925 -0.000547831 0.000508004)
(0.0863055 -0.00118422 0.000908265)
(0.0765588 -0.000994 0.000624546)
(0.0650524 -0.000470763 0.000386576)
(0.0844817 -0.000984268 0.000690159)
(0.0746547 -0.000908323 0.000517161)
(0.0629686 -0.000418398 0.000306433)
(0.0828821 -0.000847352 0.000547701)
(0.0729298 -0.000836499 0.000450665)
(0.0611361 -0.000378009 0.000252667)
(0.0814512 -0.000748197 0.000453775)
(0.0713488 -0.000768421 0.000408811)
(0.0594961 -0.00034349 0.000215314)
(0.0801575 -0.000668865 0.000388101)
(0.0698914 -0.000704968 0.000381888)
(0.0580156 -0.00031414 0.000187992)
(0.0789757 -0.00060161 0.0003391)
(0.0685421 -0.000651681 0.000366392)
(0.0566691 -0.000292913 0.000166892)
(0.077888 -0.000548699 0.00030295)
(0.0672913 -0.000609447 0.000356859)
(0.0554363 -0.000281491 0.000149445)
(0.0768884 -0.00050993 0.000275391)
(0.0661431 -0.000572558 0.00033333)
(0.0543109 -0.000278403 0.000129716)
(0.0759759 -0.000481798 0.000243939)
(0.0651378 -0.000525514 0.00027505)
(0.0533093 -0.000281359 0.000103741)
(0.0751642 -0.000459747 0.000184311)
(0.0643725 -0.00042342 0.000114848)
(0.052482 -0.000301148 3.83234e-05)
(0.0744921 -0.000424508 7.49592e-05)
(0.0641661 -0.000242363 -0.000197013)
(0.0519768 -0.000323302 -0.000118897)
(0.0740451 -0.000320837 -0.000189407)
(0.0651851 5.66539e-05 -0.00064712)
(0.0523574 -0.000292901 -0.000366661)
(0.0740421 -2.02005e-05 -0.000829878)
(0.0506614 0.000972057 -0.00200904)
(0.0726816 0.00110655 -0.00292128)
(0.0993441 0.00341899 -0.00341904)
(0.0973536 0.00148427 0.00106247)
(0.0834792 -0.00197592 0.0019758)
(0.0930872 -0.00253352 0.00326892)
(0.0745172 -0.00195884 0.00195859)
(0.0848641 -0.00179246 0.00163572)
(0.0685479 -0.00115933 0.00115883)
(0.0786282 -0.00122161 0.00107329)
(0.0642363 -0.000697424 0.000696548)
(0.0740532 -0.000865539 0.000784893)
(0.0607571 -0.000495684 0.000493928)
(0.0704427 -0.000670034 0.000649796)
(0.0579379 -0.000376458 0.000373147)
(0.0674919 -0.000510019 0.000545286)
(0.055615 -0.000290712 0.000285179)
(0.0650512 -0.000389959 0.000466329)
(0.0536263 -0.000231467 0.000222409)
(0.0629666 -0.000311946 0.000410914)
(0.0518826 -0.000190579 0.000175433)
(0.0611326 -0.000261709 0.000365419)
(0.0503348 -0.00016347 0.000138174)
(0.0594898 -0.000231397 0.000322164)
(0.0489511 -0.000146434 0.000105704)
(0.0580041 -0.000215035 0.00027875)
(0.0477029 -0.000137015 7.3516e-05)
(0.056649 -0.000207583 0.000235578)
(0.0465706 -0.000134751 3.8144e-05)
(0.0554029 -0.000206096 0.000188705)
(0.0455585 -0.000141148 5.15186e-06)
(0.054257 -0.000210493 0.000128789)
(0.0446835 -0.00016204 -4.93655e-05)
(0.0532212 -0.000222051 5.21808e-05)
(0.0440045 -0.000191528 -0.000171046)
(0.0523295 -0.0002551 -6.60087e-05)
(0.0438084 -0.00018175 -0.000372752)
(0.0516927 -0.000266863 -0.000292296)
(0.0447659 0.000768491 -0.00168924)
(0.051799 -0.000153564 -0.00074164)
(0.0504559 0.00179242 -0.00366447)
(0.0984572 0.00172988 0.00247647)
(0.100049 0.00075096 0.00105639)
(0.0996871 0.000345477 0.000439232)
(0.0958349 0.00243262 0.00314812)
(0.0982936 0.00216142 0.00280926)
(0.0978162 0.00228225 0.0027328)
(0.0914501 0.00186922 0.00223043)
(0.096304 0.00199773 0.00244275)
(0.0954961 0.00230305 0.00300173)
(0.0875954 0.00150535 0.00167483)
(0.093667 0.00172684 0.00198088)
(0.0926194 0.00183866 0.00229941)
(0.084148 0.00127549 0.00144043)
(0.0909049 0.00149766 0.00172)
(0.0897677 0.00153553 0.00189202)
(0.0811885 0.00102846 0.00126605)
(0.0884348 0.00121148 0.00145498)
(0.0872329 0.0012945 0.00165665)
(0.0787025 0.000793526 0.0011113)
(0.0863055 0.000908252 0.00118424)
(0.0850081 0.00107692 0.0014923)
(0.0765588 0.00062453 0.000994024)
(0.0844818 0.000690142 0.00098429)
(0.0830635 0.000912942 0.00137197)
(0.0746548 0.000517138 0.000908351)
(0.0828822 0.000547678 0.000847379)
(0.0813291 0.000801086 0.00127919)
(0.0729299 0.000450631 0.000836531)
(0.0814513 0.000453746 0.000748231)
(0.0797541 0.000725499 0.00119507)
(0.0713489 0.000408762 0.000768458)
(0.0801576 0.000388061 0.000668908)
(0.078311 0.000677363 0.00111384)
(0.0698916 0.000381827 0.000705015)
(0.0789758 0.000339054 0.000601668)
(0.0769796 0.000647038 0.00103496)
(0.0685423 0.000366336 0.000651758)
(0.0778882 0.000302915 0.00054879)
(0.0757433 0.000627918 0.000959308)
(0.0672915 0.000356779 0.000609567)
(0.0768886 0.000275325 0.000510018)
(0.0745932 0.000616649 0.000886786)
(0.0661434 0.000333185 0.000572705)
(0.0759762 0.00024378 0.000481906)
(0.0735284 0.000605869 0.000815448)
(0.0651383 0.000274827 0.000525635)
(0.0751646 0.000184125 0.000459928)
(0.0725701 0.000573877 0.000738436)
(0.0643734 0.000114492 0.000423507)
(0.0744926 7.47066e-05 0.000424706)
(0.0717765 0.000504804 0.000625189)
(0.0641678 -0.000197572 0.000242511)
(0.074046 -0.000189823 0.000321086)
(0.0712686 0.000286017 0.000379067)
(0.0651883 -0.000648416 -5.66275e-05)
(0.0740439 -0.000830608 2.06251e-05)
(0.0713897 -9.95999e-05 -0.000126413)
(0.0726832 -0.00292238 -0.00110572)
(0.0698506 -0.0010055 -0.00166729)
(0.10008 0.00135173 0.00135182)
(0.100186 0.000798736 0.000804971)
(0.100186 0.000804934 0.000798774)
(0.100264 0.00221719 0.00221743)
(0.10019 0.00231177 0.00207158)
(0.10019 0.00207141 0.00231192)
(0.0993829 0.00243553 0.00243601)
(0.100306 0.00263356 0.00245333)
(0.100307 0.00245293 0.00263386)
(0.097984 0.00230988 0.00231066)
(0.0998049 0.00256013 0.00245638)
(0.0998051 0.00245569 0.00256067)
(0.096495 0.00200558 0.00200689)
(0.0988625 0.00236402 0.00228159)
(0.0988629 0.00228056 0.00236489)
(0.0950727 0.00159596 0.00159817)
(0.0978404 0.00204834 0.00196908)
(0.0978411 0.00196748 0.00204988)
(0.0937755 0.00122458 0.00122825)
(0.0968607 0.00169008 0.00160622)
(0.0968618 0.00160368 0.00169259)
(0.092618 0.000959148 0.000965379)
(0.0959583 0.00140267 0.0013242)
(0.0959602 0.00131985 0.00140677)
(0.0915945 0.000772787 0.000783487)
(0.095146 0.00118823 0.00112322)
(0.0951493 0.00111582 0.0011953)
(0.0906892 0.000636563 0.000655486)
(0.0944223 0.00102591 0.000979683)
(0.0944282 0.00096711 0.00103805)
(0.0898824 0.000531619 0.000563682)
(0.0937824 0.00089843 0.000877563)
(0.0937924 0.000855559 0.000919163)
(0.0891547 0.000448962 0.000499176)
(0.0932119 0.000794313 0.000806532)
(0.0932286 0.000770323 0.000828244)
(0.0884966 0.000380541 0.000455882)
(0.0926995 0.000705101 0.000759942)
(0.0927261 0.000703116 0.000758631)
(0.0879088 0.000312126 0.000427594)
(0.0922437 0.000619627 0.000731265)
(0.0922849 0.000643788 0.000703279)
(0.0873963 0.000224144 0.000411118)
(0.0918444 0.00052402 0.000718159)
(0.0919075 0.000579461 0.000656196)
(0.0869634 9.35829e-05 0.000400126)
(0.0915015 0.000400294 0.000720994)
(0.0915971 0.000491656 0.000609957)
(0.0866199 -0.000122832 0.000373493)
(0.091214 0.000225683 0.000734424)
(0.0913544 0.000355037 0.000550348)
(0.086291 -0.000530917 0.000239107)
(0.0909662 -3.82072e-05 0.000745054)
(0.0911615 0.000119632 0.00045226)
(0.0856171 -0.00139907 -0.000293535)
(0.0906528 -0.000424954 0.000685153)
(0.0909004 -0.000293281 0.000257362)
(0.0905105 -0.0009739 0.000377132)
(0.0907421 -0.00109147 -0.00018062)
(0.100171 0.00136865 0.00141649)
(0.100118 0.000577393 0.000811323)
(0.100102 0.00069974 0.000700718)
(0.100759 0.00219484 0.00214926)
(0.100478 0.00158283 0.00185884)
(0.100477 0.00182248 0.00186477)
(0.100996 0.00247682 0.0023883)
(0.101004 0.00205872 0.00224272)
(0.101024 0.00234669 0.00238321)
(0.100837 0.002476 0.00238965)
(0.101292 0.00220343 0.00235248)
(0.101337 0.00250578 0.00254414)
(0.100457 0.00231114 0.00222552)
(0.101308 0.00216727 0.00232272)
(0.101408 0.00245022 0.00247295)
(0.0999663 0.00205587 0.0019692)
(0.101155 0.00201062 0.00217956)
(0.101301 0.00226403 0.00227136)
(0.0994411 0.00178932 0.00170162)
(0.100925 0.0017934 0.00196969)
(0.101097 0.00200807 0.00200013)
(0.0989296 0.0015611 0.0014865)
(0.100661 0.00158299 0.00176779)
(0.100853 0.00176849 0.00176034)
(0.0984579 0.0013739 0.00132637)
(0.100402 0.00139414 0.00159374)
(0.100604 0.00156598 0.00156828)
(0.0980366 0.00121791 0.0012092)
(0.100163 0.00122673 0.00145115)
(0.100374 0.00139669 0.00141717)
(0.0976649 0.00108564 0.00112752)
(0.0999501 0.00108388 0.00134961)
(0.100175 0.00125454 0.00130074)
(0.0973392 0.000969346 0.00107428)
(0.0997634 0.00096122 0.0012822)
(0.100009 0.00113318 0.00121381)
(0.0970564 0.000859548 0.001043)
(0.0995999 0.000851014 0.00124167)
(0.0998765 0.00102558 0.00115103)
(0.0968127 0.000745752 0.0010313)
(0.0994572 0.000744719 0.00122441)
(0.099777 0.000922669 0.00110788)
(0.0966039 0.0006164 0.00104079)
(0.0993302 0.000631662 0.00123185)
(0.0997091 0.000814971 0.00108261)
(0.0964244 0.000453884 0.00107333)
(0.0992122 0.000500826 0.00126894)
(0.0996696 0.000690726 0.00107437)
(0.0962682 0.000233726 0.00113066)
(0.0990941 0.000335639 0.00134415)
(0.0996528 0.000532119 0.00108101)
(0.0961177 -7.09469e-05 0.00121108)
(0.0989633 0.000116075 0.00147013)
(0.099647 0.000318914 0.00109733)
(0.0959413 -0.000454302 0.00132061)
(0.0988076 -0.000180674 0.00165141)
(0.0996323 3.23926e-05 0.00110452)
(0.0989225 -0.000500112 0.00190345)
(0.0998001 -0.000282291 0.00112358)
(0.100242 0.000820173 0.00125615)
(0.10009 0.000294351 0.000735363)
(0.100071 0.000415671 0.000602798)
(0.100828 0.00139058 0.0019394)
(0.100491 0.000792033 0.00168405)
(0.100492 0.00112441 0.00158706)
(0.101392 0.00166353 0.00218244)
(0.101086 0.00107781 0.00208346)
(0.101128 0.00154084 0.00209424)
(0.101815 0.00176124 0.00226159)
(0.101664 0.00120451 0.0021792)
(0.101767 0.00173276 0.00229451)
(0.102079 0.00175548 0.00226268)
(0.102121 0.00124005 0.00222239)
(0.10229 0.00178995 0.00236776)
(0.102213 0.00166833 0.0021777)
(0.10245 0.00120245 0.00221072)
(0.10271 0.00174389 0.00232266)
(0.102262 0.00153389 0.00204299)
(0.102678 0.0011193 0.0021272)
(0.103035 0.00162623 0.00220319)
(0.102271 0.00138219 0.00188762)
(0.102838 0.00101886 0.00200676)
(0.103283 0.00147948 0.00205132)
(0.102265 0.0012301 0.00173416)
(0.102961 0.000919169 0.00187211)
(0.103487 0.00132747 0.00189302)
(0.102255 0.00109146 0.00160955)
(0.103061 0.000826464 0.00174717)
(0.103661 0.00118475 0.00175047)
(0.102244 0.000971846 0.00152449)
(0.103149 0.000743735 0.00164873)
(0.103818 0.00105997 0.00164083)
(0.102234 0.000866067 0.00147167)
(0.103232 0.000670501 0.00157596)
(0.103964 0.000951863 0.00156063)
(0.102223 0.000767543 0.00144682)
(0.103308 0.000604031 0.00153389)
(0.104104 0.000854048 0.00150666)
(0.102207 0.00067037 0.00145075)
(0.103371 0.000542977 0.0015238)
(0.104239 0.000761945 0.00147814)
(0.102179 0.000567911 0.00148899)
(0.103417 0.000485601 0.0015435)
(0.104368 0.000670647 0.00147719)
(0.102128 0.000452665 0.00157392)
(0.103441 0.000430708 0.00159915)
(0.104486 0.000574872 0.00150954)
(0.102044 0.000315021 0.00172607)
(0.10343 0.000375505 0.00170995)
(0.104588 0.000467683 0.00158584)
(0.101918 0.00014818 0.0019668)
(0.103371 0.000317996 0.00189739)
(0.104668 0.000342253 0.00171941)
(0.101735 9.14906e-06 0.00231586)
(0.103271 0.00026382 0.00217511)
(0.104737 0.000198691 0.00191638)
(0.103491 0.000288552 0.00254406)
(0.105041 0.000111445 0.00218735)
(0.100243 0.000267486 0.00116243)
(0.100087 3.0631e-08 0.000707028)
(0.100064 0.000135844 0.000537349)
(0.100782 0.000465897 0.00182627)
(0.100477 8.77134e-08 0.00161782)
(0.100463 0.000370991 0.00142419)
(0.101401 0.000575804 0.00207626)
(0.101066 1.5138e-07 0.00203472)
(0.101089 0.000525354 0.00193367)
(0.101987 0.000623411 0.00213424)
(0.101694 2.83037e-07 0.00211776)
(0.101797 0.000606202 0.0021288)
(0.102506 0.000632016 0.00216568)
(0.102269 5.3438e-07 0.00215051)
(0.102489 0.000639877 0.00221143)
(0.102934 0.000611828 0.00215809)
(0.102742 9.46124e-07 0.00218039)
(0.103119 0.000635135 0.00224237)
(0.103276 0.000573732 0.002091)
(0.103123 1.57274e-06 0.00213501)
(0.103686 0.000602506 0.00219803)
(0.103552 0.000529454 0.00199262)
(0.103427 2.59398e-06 0.00204578)
(0.104183 0.00055743 0.00210796)
(0.103783 0.00048747 0.00188713)
(0.103679 4.39042e-06 0.0019376)
(0.104618 0.000511077 0.00199628)