/*--------------------------------*- C++ -*----------------------------------*\
| =========                 |                                                 |
| \\      /  F ield         | OpenFOAM: The Open Source CFD Toolbox           |
|  \\    /   O peration     | Version:  2212                                  |
|   \\  /    A nd           | Website:  www.openfoam.com                      |
|    \\/     M anipulation  |                                                 |
\*---------------------------------------------------------------------------*/
FoamFile
{
    version     2.0;
    format      ascii;
    arch        "LSB;label=32;scalar=64";
    class       volScalarField;
    location    "1.45";
    object      epsilon;
}
// * * * * * * * * * * * * * * * * * * * * * * * * * * * * * * * * * * * * * //

dimensions      [0 2 -3 0 0 0 0];

internalField   nonuniform List<scalar> 
682
(
0.0257101
0.0243324
0.0230945
0.0219795
0.0209742
0.0200748
0.0192605
0.0185184
0.0178423
0.0172232
0.0166613
0.0257173
0.0243486
0.0231258
0.0220289
0.021043
0.0201551
0.0193574
0.0186338
0.0179803
0.0173713
0.0167983
0.0273246
0.0259701
0.0247586
0.0236662
0.0226896
0.0218021
0.020998
0.0202593
0.019607
0.0189451
0.0183234
0.0338072
0.0323059
0.0309297
0.0297383
0.0284831
0.027389
0.0263928
0.0255183
0.0246751
0.0239197
0.0231862
0.0225086
0.0488831
0.0472062
0.0453739
0.0437186
0.0421879
0.0407743
0.0394706
0.0382627
0.0371407
0.0360953
0.0351237
0.0342386
0.130324
0.126806
0.123394
0.120103
0.117026
0.114063
0.111297
0.108652
0.106183
0.103759
0.101445
0.0992734
0.0131164
0.0122123
0.0114042
0.0106831
0.0100387
0.00946169
0.00894432
0.00847947
0.00806161
0.00768664
0.00736414
0.0130353
0.0121427
0.0113471
0.0106383
0.0100045
0.00943666
0.00892622
0.00846793
0.00805467
0.00768275
0.00736771
0.0134361
0.0125725
0.0117998
0.011107
0.010477
0.00991701
0.00940114
0.00894955
0.00853612
0.00813716
0.00781648
0.0159935
0.0150553
0.0141756
0.0133633
0.0127214
0.0119321
0.011465
0.010773
0.0104173
0.00984571
0.00953145
0.00906321
0.0225701
0.0215827
0.0205144
0.0196138
0.0187377
0.0179756
0.0172422
0.0166049
0.015992
0.0154224
0.0148572
0.0143318
0.051389
0.0496529
0.0480771
0.0464984
0.0450256
0.0436456
0.042394
0.0412131
0.0401307
0.0390873
0.0381043
0.0371879
0.0126917
0.0116505
0.0107314
0.00991719
0.0091934
0.00854664
0.00796846
0.00745135
0.00698659
0.00657421
0.00617454
0.0125005
0.0114857
0.0105901
0.00979656
0.00909074
0.00845994
0.00789712
0.00739307
0.0069386
0.00653516
0.00613897
0.0122482
0.0112933
0.0104484
0.00969622
0.00902257
0.00840895
0.00787514
0.00739668
0.00697192
0.00658073
0.00619304
0.0134504
0.0124776
0.0115822
0.0108098
0.0100932
0.00943717
0.00879755
0.00838017
0.00793549
0.00760819
0.00712084
0.00682631
0.0165917
0.0158422
0.0147513
0.0141605
0.0132837
0.0127972
0.0120946
0.0116943
0.0111017
0.0107835
0.0102561
0.00993223
0.0367546
0.0352883
0.0340534
0.0327276
0.0315389
0.030451
0.0294866
0.0285722
0.0277219
0.0269147
0.0261051
0.0253507
0.0137575
0.012559
0.0115039
0.0105716
0.00974484
0.00900931
0.00835319
0.00776672
0.00724102
0.0067722
0.00632968
0.0134953
0.0123276
0.0112991
0.0103896
0.00958171
0.00886208
0.00821974
0.00764606
0.00713166
0.00667275
0.00623706
0.0128592
0.0117798
0.0108271
0.00998434
0.00923447
0.00856519
0.00796883
0.00743401
0.00695342
0.00652219
0.00610119
0.0135076
0.0124114
0.0114441
0.0105844
0.00982405
0.00914095
0.00852416
0.00798469
0.0074952
0.00707079
0.00663984
0.0062403
0.0150071
0.0140305
0.0131539
0.0123735
0.0116731
0.0110634
0.0104858
0.0100289
0.00947123
0.00913866
0.00861958
0.00832791
0.0308688
0.0293879
0.0280617
0.0268596
0.0257638
0.0247603
0.0238622
0.0229961
0.0221416
0.0213756
0.0206829
0.0200214
0.0143884
0.0131161
0.0119957
0.0110055
0.0101275
0.00934668
0.00865032
0.00802792
0.00747018
0.00697112
0.00650617
0.0135163
0.0123471
0.0113169
0.0104059
0.00959735
0.00887739
0.00823466
0.00765957
0.00714358
0.0066826
0.00624698
0.0137956
0.0126319
0.0116071
0.010701
0.00989737
0.00918185
0.0085429
0.00797048
0.00745736
0.00699652
0.00658281
0.0061856
0.0143804
0.0133791
0.0124848
0.0116862
0.010972
0.0103329
0.0097588
0.00924292
0.0087754
0.00835578
0.00797794
0.00765239
0.0282727
0.0267782
0.0254321
0.0242164
0.0231247
0.0221353
0.0212286
0.0203967
0.0196325
0.0189432
0.0182877
0.0176315
0.0147211
0.0134118
0.0122588
0.0112398
0.0103365
0.00953328
0.00881709
0.00817702
0.00760361
0.00709048
0.00661504
0.0137613
0.0125605
0.011503
0.0105682
0.00973898
0.00900087
0.00834209
0.00775289
0.00722442
0.00675249
0.0063089
0.013878
0.0126921
0.0116491
0.0107279
0.00991164
0.00918569
0.00853735
0.00795744
0.00743854
0.00697197
0.00655782
0.0061594
0.0141304
0.0131162
0.0122088
0.0113983
0.0106753
0.0100292
0.00945079
0.0089321
0.00846556
0.00804596
0.00766991
0.00734694
0.0272534
0.0257153
0.0243363
0.0230976
0.0219823
0.0209772
0.020078
0.0192641
0.0185226
0.0178469
0.0172292
0.0166652
0.0143906
0.0131181
0.0119974
0.0110071
0.0101289
0.00934789
0.00865133
0.00802874
0.00747088
0.0069717
0.00650651
0.0135001
0.0123314
0.011302
0.0103917
0.00958308
0.00886271
0.00821962
0.00764528
0.00713028
0.0066707
0.00623483
0.013656
0.0125006
0.0114856
0.0105894
0.00979567
0.00908871
0.00845756
0.00789375
0.00738955
0.00693359
0.00653014
0.0061347
0.0140356
0.0130319
0.0121384
0.0113423
0.0106332
0.00999884
0.00943064
0.00891963
0.00846114
0.00804721
0.00767628
0.0073602
0.0272632
0.0257239
0.0243544
0.0231311
0.0220338
0.0210478
0.0201599
0.0193621
0.0186389
0.0179852
0.017377
0.0168042
0.013515
0.0123475
0.011319
0.0104096
0.00960262
0.00888408
0.00824289
0.00766928
0.00715483
0.00669571
0.00626027
0.0128597
0.0117806
0.0108283
0.00998596
0.00923645
0.00856721
0.00797111
0.00743668
0.00695649
0.00652589
0.00610481
0.0133249
0.012246
0.0112933
0.0104467
0.00969781
0.00901934
0.00840939
0.00787209
0.00740104
0.00696316
0.00658602
0.00619025
0.0143947
0.0134288
0.0125692
0.0117949
0.0111055
0.0104709
0.00991236
0.00939657
0.00894881
0.00851886
0.00814392
0.00781313
0.0288519
0.0273328
0.0259776
0.0247657
0.0236727
0.0226959
0.0218083
0.0210045
0.0202657
0.0196124
0.0189528
0.0183306
0.0126317
0.0116087
0.0107045
0.00990268
0.00918879
0.00855067
0.00798012
0.00746787
0.00700886
0.0065971
0.00620038
0.012411
0.0114444
0.010586
0.00982672
0.00914202
0.0085263
0.00798444
0.00750137
0.00707177
0.00664867
0.00624277
0.0134573
0.0124665
0.0115987
0.0107985
0.0101219
0.00940705
0.00881713
0.00835377
0.00800893
0.0075077
0.00721054
0.00679422
0.0160122
0.0150409
0.0142125
0.0133371
0.0127608
0.0118981
0.0114536
0.0107662
0.0104176
0.00983591
0.00953779
0.0090502
0.0338127
0.0323103
0.0309304
0.0297406
0.0284823
0.0273932
0.0263983
0.0255255
0.0246807
0.0239267
0.0231917
0.022516
0.0133794
0.0124879
0.0116912
0.0109786
0.0103406
0.00976822
0.00925333
0.00878775
0.00837129
0.00799224
0.00767232
0.0140323
0.0131623
0.012376
0.011683
0.0110569
0.010499
0.010006
0.00948773
0.00914698
0.00862912
0.0083312
0.0167304
0.0157202
0.0149706
0.0140038
0.0134538
0.0126578
0.0122161
0.0115766
0.011213
0.0106712
0.0103516
0.0098967
0.0226241
0.0215473
0.0205497
0.0195902
0.0187585
0.0179532
0.0172534
0.0165869
0.0159992
0.0154045
0.0148654
0.0143249
0.0488721
0.0471819
0.0453353
0.0437154
0.0421653
0.0407752
0.0394595
0.0382675
0.0371423
0.036099
0.0351225
0.0342392
0.0267677
0.0254233
0.024209
0.0231182
0.0221303
0.0212246
0.0203937
0.0196299
0.0189426
0.0182851
0.017628
0.029372
0.0280494
0.0268491
0.0257549
0.0247517
0.0238571
0.0229887
0.0221345
0.021369
0.0206766
0.0200143
0.0367398
0.0352761
0.0340268
0.0327142
0.0315092
0.0304425
0.0294664
0.0285679
0.0277067
0.0269059
0.0260923
0.0253394
0.0513593
0.0496418
0.0480394
0.0464837
0.0449874
0.0436362
0.042367
0.0412089
0.040116
0.0390819
0.0380938
0.0371785
0.130262
0.126776
0.123328
0.120093
0.116965
0.114058
0.111251
0.108655
0.106163
0.103759
0.101432
0.0992766
)
;

boundaryField
{
    inlet
    {
        type            fixedValue;
        value           nonuniform List<scalar> 0();
    }
    ami1
    {
        type            cyclicAMI;
        value           nonuniform List<scalar> 0();
    }
    walls
    {
        type            epsilonWallFunction;
        blending        stepwise;
        value           nonuniform List<scalar> 
259
(
0.0338072
0.0488831
0.130324
0.0257101
0.0257173
0.0273246
0.0323059
0.0472062
0.126806
0.0243324
0.0243486
0.0259701
0.0309297
0.0453739
0.123394
0.0230945
0.0231258
0.0247586
0.0297383
0.0437186
0.120103
0.0219795
0.0220289
0.0236662
0.0284831
0.0421879
0.117026
0.0209742
0.021043
0.0226896
0.027389
0.0407743
0.114063
0.0200748
0.0201551
0.0218021
0.0263928
0.0394706
0.111297
0.0192605
0.0193574
0.020998
0.0255183
0.0382627
0.108652
0.0185184
0.0186338
0.0202593
0.0246751
0.0371407
0.106183
0.0178423
0.0179803
0.019607
0.0239197
0.0360953
0.103759
0.0172232
0.0173713
0.0189451
0.0231862
0.0351237
0.101445
0.0166613
0.0167983
0.0183234
0.0225086
0.0342386
0.0992734
0.130324
0.051389
0.0367546
0.0308688
0.0282727
0.0272534
0.0272632
0.0288519
0.0338127
0.0488721
0.130262
0.126806
0.0496529
0.0352883
0.0293879
0.0267782
0.0257153
0.0257239
0.0273328
0.0323103
0.0471819
0.126776
0.123394
0.0480771
0.0340534
0.0280617
0.0254321
0.0243363
0.0243544
0.0259776
0.0309304
0.0453353
0.123328
0.120103
0.0464984
0.0327276
0.0268596
0.0242164
0.0230976
0.0231311
0.0247657
0.0297406
0.0437154
0.120093
0.117026
0.0450256
0.0315389
0.0257638
0.0231247
0.0219823
0.0220338
0.0236727
0.0284823
0.0421653
0.116965
0.114063
0.0436456
0.030451
0.0247603
0.0221353
0.0209772
0.0210478
0.0226959
0.0273932
0.0407752
0.114058
0.111297
0.042394
0.0294866
0.0238622
0.0212286
0.020078
0.0201599
0.0218083
0.0263983
0.0394595
0.111251
0.108652
0.0412131
0.0285722
0.0229961
0.0203967
0.0192641
0.0193621
0.0210045
0.0255255
0.0382675
0.108655
0.106183
0.0401307
0.0277219
0.0221416
0.0196325
0.0185226
0.0186389
0.0202657
0.0246807
0.0371423
0.106163
0.103759
0.0390873
0.0269147
0.0213756
0.0189432
0.0178469
0.0179852
0.0196124
0.0239267
0.036099
0.103759
0.101445
0.0381043
0.0261051
0.0206829
0.0182877
0.0172292
0.017377
0.0189528
0.0231917
0.0351225
0.101432
0.0992734
0.0371879
0.0253507
0.0200214
0.0176315
0.0166652
0.0168042
0.0183306
0.022516
0.0342392
0.0992766
0.0367398
0.0513593
0.130262
0.0267677
0.029372
0.0352761
0.0496418
0.126776
0.0254233
0.0280494
0.0340268
0.0480394
0.123328
0.024209
0.0268491
0.0327142
0.0464837
0.120093
0.0231182
0.0257549
0.0315092
0.0449874
0.116965
0.0221303
0.0247517
0.0304425
0.0436362
0.114058
0.0212246
0.0238571
0.0294664
0.042367
0.111251
0.0203937
0.0229887
0.0285679
0.0412089
0.108655
0.0196299
0.0221345
0.0277067
0.040116
0.106163
0.0189426
0.021369
0.0269059
0.0390819
0.103759
0.0182851
0.0206766
0.0260923
0.0380938
0.101432
0.017628
0.0200143
0.0253394
0.0371785
0.0992766
)
;
    }
    ami2
    {
        type            cyclicAMI;
        value           nonuniform List<scalar> 0();
    }
    outlet
    {
        type            zeroGradient;
    }
    procBoundary9to0
    {
        type            processor;
        value           nonuniform List<scalar> 
40
(
0.0272718
0.0272675
0.0288498
0.0288498
0.0355343
0.0507137
0.133868
0.0141413
0.014044
0.0143935
0.0143935
0.0170654
0.0237456
0.0532606
0.0138698
0.0136478
0.01332
0.01332
0.0145846
0.0178853
0.0384556
0.0151162
0.0148192
0.0140815
0.0140815
0.0147538
0.0161204
0.032557
0.0158315
0.0148409
0.0148409
0.0151181
0.0155206
0.029981
0.0162059
0.015121
0.015121
0.0152252
0.015284
0.0290031
)
;
    }
    procBoundary9to1
    {
        type            processor;
        value           nonuniform List<scalar> 
30
(
0.0158335
0.0148236
0.0148236
0.0149703
0.0151793
0.0290173
0.0148381
0.0140814
0.0140814
0.0145495
0.0154789
0.0305723
0.0137867
0.0135018
0.0135018
0.0145803
0.0170632
0.0355456
0.0143893
0.0150137
0.0150137
0.0178149
0.0237397
0.0507201
0.0282977
0.0308891
0.0308891
0.0384418
0.0532585
0.133855
)
;
    }
    procBoundary9to7
    {
        type            processor;
        value           nonuniform List<scalar> 
59
(
0.0161279
0.0162707
0.0177625
0.0218609
0.0333939
0.0971929
0.00708618
0.00708422
0.00745027
0.0087871
0.0139393
0.0363332
0.00588067
0.00584642
0.00584331
0.00649127
0.00955908
0.0246761
0.00598832
0.00590505
0.00579244
0.00601041
0.00797392
0.0194064
0.00613995
0.00591097
0.0058819
0.00733139
0.0170394
0.00623742
0.0059652
0.00586134
0.00706944
0.0161374
0.00613974
0.00590077
0.00583996
0.00708035
0.0162785
0.00592424
0.00579498
0.00584716
0.0074485
0.017768
0.00589494
0.00601578
0.00653169
0.00881788
0.021862
0.00734062
0.00797426
0.00957493
0.0139423
0.0333945
0.0170366
0.0193996
0.0246658
0.0363265
0.0971947
)
;
    }
    procBoundary9to8
    {
        type            processor;
        value           nonuniform List<scalar> 
132
(
0.0267665
0.0254233
0.0242095
0.0231187
0.0221303
0.0212241
0.020392
0.0196276
0.0189398
0.0182796
0.0176211
0.0133807
0.0124897
0.0116937
0.0109816
0.0103443
0.00977251
0.00925712
0.00879342
0.00837351
0.00800049
0.00766804
0.0126322
0.0116091
0.010705
0.00990347
0.00919013
0.00855246
0.00798198
0.00747024
0.00701169
0.00660075
0.00620192
0.0135137
0.0123457
0.011317
0.0104076
0.00960071
0.00888241
0.00824141
0.00766797
0.00715371
0.00669478
0.00625966
0.0147194
0.0134109
0.0122587
0.0112407
0.0103384
0.0095362
0.00882112
0.00818218
0.00760993
0.00709809
0.00662317
0.0147194
0.0134109
0.0122587
0.0112407
0.0103384
0.0095362
0.00882112
0.00818218
0.00760993
0.00709809
0.00662317
0.0150841
0.0137354
0.0125476
0.011498
0.0105675
0.00974013
0.0090025
0.00834324
0.00775266
0.00722374
0.00673612
0.0147206
0.0134108
0.0122572
0.0112379
0.0103341
0.00953037
0.0088136
0.00817285
0.00759866
0.0070846
0.00660854
0.0137573
0.0125579
0.0115017
0.0105682
0.00973999
0.00900281
0.00834484
0.00775631
0.00722842
0.00675712
0.00631365
0.0126905
0.0116485
0.0107285
0.00991329
0.00918825
0.00854009
0.00796044
0.00744154
0.00697494
0.00656145
0.00616366
0.0131148
0.0122095
0.0114002
0.0106778
0.0100322
0.00945405
0.0089355
0.00846955
0.00805028
0.00767456
0.0073506
0.025717
0.0243401
0.0231025
0.0219877
0.0209823
0.0200828
0.0192686
0.0185271
0.0178513
0.0172334
0.01667
)
;
    }
}


// ************************************************************************* //
