/*--------------------------------*- C++ -*----------------------------------*\
| =========                 |                                                 |
| \\      /  F ield         | OpenFOAM: The Open Source CFD Toolbox           |
|  \\    /   O peration     | Version:  2212                                  |
|   \\  /    A nd           | Website:  www.openfoam.com                      |
|    \\/     M anipulation  |                                                 |
\*---------------------------------------------------------------------------*/
FoamFile
{
    version     2.0;
    format      ascii;
    arch        "LSB;label=32;scalar=64";
    class       volScalarField;
    location    "1.15";
    object      epsilon;
}
// * * * * * * * * * * * * * * * * * * * * * * * * * * * * * * * * * * * * * //

dimensions      [0 2 -3 0 0 0 0];

internalField   nonuniform List<scalar> 
690
(
0.126752
0.123294
0.119998
0.116945
0.114029
0.111339
0.108817
0.106462
0.104206
0.102139
0.100294
0.0494959
0.0479154
0.0463516
0.0449151
0.0435826
0.0423701
0.0412479
0.0402171
0.0392405
0.0383485
0.037537
0.0351161
0.0338736
0.0325763
0.031425
0.0303943
0.0294581
0.028614
0.02782
0.0270432
0.0262994
0.0256404
0.0291192
0.0278295
0.0266784
0.0256303
0.0246764
0.0238047
0.0230222
0.0222214
0.021491
0.0208573
0.0202164
0.026471
0.0251909
0.0240335
0.022985
0.0220385
0.0211817
0.0203955
0.0196796
0.0190194
0.0184439
0.0178226
0.0470564
0.0452415
0.0436074
0.0421065
0.0407037
0.0394317
0.0382532
0.0371619
0.0361603
0.0352582
0.0344382
0.0215277
0.0205802
0.0195939
0.0187913
0.0179834
0.0173038
0.0166531
0.016084
0.0155138
0.0149843
0.0145067
0.0155811
0.0149551
0.0139864
0.0134635
0.0126856
0.0122473
0.0116367
0.0112455
0.0108269
0.0103383
0.0100112
0.0140393
0.0131688
0.0123886
0.0117
0.0110898
0.0105222
0.010068
0.00951968
0.00919648
0.00869049
0.0083987
0.0133899
0.0125008
0.0117083
0.0110009
0.0103687
0.00980219
0.00929451
0.0088366
0.00842854
0.00806462
0.00773829
0.032251
0.0308812
0.0296728
0.0284476
0.0273608
0.026406
0.025541
0.0247257
0.0239855
0.0233023
0.0226185
0.015022
0.014262
0.0133271
0.0127677
0.0119159
0.0114844
0.0108366
0.0104007
0.0100518
0.00951941
0.0092083
0.0124623
0.0115967
0.0108057
0.0101248
0.00940826
0.00883767
0.00840371
0.00801852
0.00761602
0.00722401
0.00688786
0.0124174
0.0114523
0.0105973
0.00984087
0.00915925
0.00854883
0.00801492
0.00753428
0.0071153
0.00666227
0.00632143
0.012644
0.0116235
0.0107221
0.00992363
0.00921348
0.00857952
0.00801303
0.00750624
0.00705329
0.00664672
0.00624904
0.0272358
0.0259076
0.0247188
0.0236458
0.0226879
0.0218246
0.0210428
0.0203297
0.0196832
0.0190765
0.0184579
0.013457
0.0125981
0.0118243
0.0111334
0.0105079
0.00995197
0.0094553
0.00899873
0.00861875
0.00820006
0.00789256
0.0122581
0.0113067
0.0104629
0.00971517
0.00903859
0.0084341
0.00790458
0.00743462
0.00700955
0.00663318
0.0062216
0.0128662
0.011789
0.010839
0.00999909
0.00925198
0.00858665
0.00799442
0.0074641
0.00698911
0.00656163
0.0061423
0.0135241
0.0123585
0.0113322
0.0104256
0.00962169
0.00890686
0.00826975
0.00770076
0.00719135
0.00673809
0.00630332
0.0255358
0.0242216
0.0230442
0.0219859
0.0210331
0.0201744
0.0193995
0.0187042
0.0180761
0.0175048
0.0169822
0.0130549
0.0121654
0.011374
0.0106687
0.0100386
0.00947514
0.00897091
0.00851882
0.00811371
0.00775095
0.00744428
0.0125176
0.0115039
0.0106094
0.00981724
0.00911202
0.0084837
0.00792342
0.00742241
0.00697153
0.00657313
0.00617761
0.0135071
0.0123404
0.011313
0.0104045
0.00959787
0.0088798
0.00823962
0.00766838
0.00715696
0.00670156
0.00626619
0.0143962
0.0131249
0.0120058
0.0110172
0.0101411
0.00936234
0.00866848
0.00804893
0.00749442
0.00699926
0.00653534
0.0147295
0.0134234
0.0122738
0.0112587
0.0103595
0.00956076
0.00884953
0.0082149
0.00764741
0.00714108
0.00666849
0.025423
0.024117
0.0229402
0.0218786
0.0209211
0.0200571
0.0192784
0.0185785
0.0179419
0.0173636
0.0168472
0.0131275
0.0122233
0.0114166
0.0106979
0.0100565
0.00948309
0.00896981
0.00851
0.00809823
0.00773137
0.0074212
0.0127107
0.0116685
0.0107485
0.00993349
0.0092092
0.00856284
0.00798546
0.00746934
0.00700652
0.00659751
0.00619963
0.0137731
0.0125733
0.0115169
0.0105833
0.00975547
0.00901903
0.00836231
0.00777552
0.00724995
0.00678184
0.00633836
0.0147298
0.0134209
0.0122684
0.0112502
0.0103478
0.0095458
0.0088311
0.00819281
0.00762151
0.00711101
0.00663623
0.0150941
0.0137474
0.0125618
0.0115146
0.0105868
0.00976247
0.00902822
0.00837278
0.00778649
0.00726255
0.00677733
0.0264722
0.0251913
0.0240331
0.0229839
0.022037
0.0211795
0.0203924
0.0196752
0.019015
0.0184389
0.0178142
0.0133882
0.0124965
0.011701
0.0109908
0.0103557
0.0097869
0.00927699
0.00881647
0.00840878
0.00803836
0.00771331
0.0126453
0.0116221
0.0107177
0.00991591
0.00920225
0.0085653
0.00799567
0.00748603
0.00703011
0.00661914
0.00622216
0.0135277
0.0123594
0.0113303
0.0104205
0.00961326
0.00889489
0.00825423
0.0076816
0.00716859
0.00671119
0.0062751
0.0143994
0.0131271
0.0120068
0.011017
0.0101395
0.00935928
0.00866387
0.00804272
0.00748646
0.00698939
0.0065244
0.0147312
0.0134233
0.0122719
0.0112549
0.0103538
0.00955297
0.00883953
0.00820254
0.00763256
0.00712348
0.00664931
0.02912
0.02783
0.0266785
0.0256297
0.0246757
0.023803
0.0230215
0.0222203
0.0214928
0.0208494
0.0202509
0.0196877
0.01404
0.0131727
0.0123868
0.0117006
0.0110806
0.0105229
0.0100536
0.00951829
0.00919102
0.00868691
0.00843962
0.0080641
0.0124185
0.0114528
0.0105964
0.0098389
0.0091551
0.00854252
0.00800672
0.00752552
0.00710624
0.006652
0.00630937
0.0128676
0.0117899
0.0108393
0.00999836
0.00925023
0.0085834
0.00799003
0.00745855
0.00698233
0.00655411
0.00613424
0.0135066
0.0123403
0.0113133
0.0104051
0.00959871
0.00888075
0.00824045
0.00766908
0.0071575
0.00670184
0.00626637
0.013769
0.0125719
0.0115181
0.010587
0.00976149
0.00902729
0.00837272
0.00778807
0.00726455
0.00679863
0.00635592
0.0351182
0.0338745
0.0325759
0.0314243
0.0303924
0.0294558
0.0286103
0.0278168
0.0270411
0.026293
0.0256394
0.0250896
0.0155822
0.014957
0.0139862
0.0134645
0.0126837
0.0122488
0.0116291
0.0112627
0.0107759
0.0103798
0.0100703
0.00965436
0.0124631
0.0115995
0.0108053
0.0101287
0.00940812
0.00883819
0.00840033
0.00801145
0.00763233
0.00720557
0.00689031
0.0122578
0.0113063
0.010463
0.00971453
0.00903847
0.00843314
0.00790304
0.0074328
0.00700842
0.00663048
0.00622024
0.0125141
0.0115013
0.0106076
0.00981613
0.00911165
0.00848372
0.00792372
0.00742298
0.00697215
0.00657393
0.00617981
0.0127045
0.0116651
0.0107476
0.00993514
0.00921282
0.0085676
0.00799161
0.00747692
0.00701545
0.00660843
0.00621257
0.0495004
0.0479169
0.04635
0.0449147
0.0435796
0.0423675
0.0412413
0.0402133
0.0392344
0.0383402
0.0375595
0.0368326
0.0215416
0.0205615
0.0196031
0.0187774
0.0179842
0.0172972
0.0166513
0.0160819
0.0155038
0.0149857
0.0145773
0.0141108
0.0150247
0.0142573
0.0133299
0.0127685
0.0119156
0.0114832
0.0108368
0.0103928
0.0100476
0.00951347
0.00920297
0.0134564
0.012597
0.0118229
0.0111318
0.0105057
0.00994915
0.0094512
0.00899412
0.00861237
0.0081948
0.00788941
0.0130508
0.0121618
0.0113708
0.0106657
0.0100358
0.00947261
0.00896823
0.00851543
0.00810968
0.00774644
0.00744006
0.0131221
0.01222
0.011415
0.0106978
0.0100577
0.00948542
0.00897305
0.008514
0.00810281
0.00773642
0.00742685
0.126767
0.123296
0.120003
0.116948
0.114033
0.11134
0.108814
0.106464
0.104202
0.102148
0.100282
0.0985788
0.0470676
0.0452468
0.043611
0.0421103
0.0407052
0.0394319
0.0382503
0.0371587
0.0361568
0.0352507
0.0344493
0.0337181
0.0322579
0.0308876
0.0296767
0.028452
0.0273621
0.0264071
0.0255407
0.0247234
0.0239838
0.0232975
0.0226149
0.0272382
0.0259096
0.0247206
0.0236473
0.0226891
0.0218252
0.0210431
0.0203294
0.019682
0.0190751
0.0184559
0.0255351
0.0242212
0.0230442
0.0219862
0.0210335
0.0201749
0.0194
0.0187045
0.018076
0.0175044
0.0169822
0.0254228
0.0241165
0.0229398
0.0218784
0.0209212
0.0200576
0.019279
0.0185792
0.0179424
0.017364
0.0168453
)
;

boundaryField
{
    inlet
    {
        type            fixedValue;
        value           nonuniform List<scalar> 0();
    }
    ami1
    {
        type            cyclicAMI;
        value           nonuniform List<scalar> 0();
    }
    walls
    {
        type            epsilonWallFunction;
        blending        stepwise;
        value           nonuniform List<scalar> 
248
(
0.126752
0.0494959
0.0351161
0.0291192
0.026471
0.123294
0.0479154
0.0338736
0.0278295
0.0251909
0.119998
0.0463516
0.0325763
0.0266784
0.0240335
0.116945
0.0449151
0.031425
0.0256303
0.022985
0.114029
0.0435826
0.0303943
0.0246764
0.0220385
0.111339
0.0423701
0.0294581
0.0238047
0.0211817
0.108817
0.0412479
0.028614
0.0230222
0.0203955
0.106462
0.0402171
0.02782
0.0222214
0.0196796
0.104206
0.0392405
0.0270432
0.021491
0.0190194
0.102139
0.0383485
0.0262994
0.0208573
0.0184439
0.100294
0.037537
0.0256404
0.0202164
0.0178226
0.126767
0.0470676
0.0322579
0.0272382
0.0255351
0.0254228
0.123296
0.0452468
0.0308876
0.0259096
0.0242212
0.0241165
0.120003
0.043611
0.0296767
0.0247206
0.0230442
0.0229398
0.116948
0.0421103
0.028452
0.0236473
0.0219862
0.0218784
0.114033
0.0407052
0.0273621
0.0226891
0.0210335
0.0209212
0.11134
0.0394319
0.0264071
0.0218252
0.0201749
0.0200576
0.108814
0.0382503
0.0255407
0.0210431
0.0194
0.019279
0.106464
0.0371587
0.0247234
0.0203294
0.0187045
0.0185792
0.104202
0.0361568
0.0239838
0.019682
0.018076
0.0179424
0.102148
0.0352507
0.0232975
0.0190751
0.0175044
0.017364
0.100282
0.0344493
0.0226149
0.0184559
0.0169822
0.0168453
0.0985788
0.0337181
0.126752
0.0470564
0.032251
0.0272358
0.0255358
0.025423
0.0264722
0.02912
0.0351182
0.0495004
0.126767
0.123294
0.0452415
0.0308812
0.0259076
0.0242216
0.024117
0.0251913
0.02783
0.0338745
0.0479169
0.123296
0.119998
0.0436074
0.0296728
0.0247188
0.0230442
0.0229402
0.0240331
0.0266785
0.0325759
0.04635
0.120003
0.116945
0.0421065
0.0284476
0.0236458
0.0219859
0.0218786
0.0229839
0.0256297
0.0314243
0.0449147
0.116948
0.114029
0.0407037
0.0273608
0.0226879
0.0210331
0.0209211
0.022037
0.0246757
0.0303924
0.0435796
0.114033
0.111339
0.0394317
0.026406
0.0218246
0.0201744
0.0200571
0.0211795
0.023803
0.0294558
0.0423675
0.11134
0.108817
0.0382532
0.025541
0.0210428
0.0193995
0.0192784
0.0203924
0.0230215
0.0286103
0.0412413
0.108814
0.106462
0.0371619
0.0247257
0.0203297
0.0187042
0.0185785
0.0196752
0.0222203
0.0278168
0.0402133
0.106464
0.104206
0.0361603
0.0239855
0.0196832
0.0180761
0.0179419
0.019015
0.0214928
0.0270411
0.0392344
0.104202
0.102139
0.0352582
0.0233023
0.0190765
0.0175048
0.0173636
0.0184389
0.0208494
0.026293
0.0383402
0.102148
0.100294
0.0344382
0.0226185
0.0184579
0.0169822
0.0168472
0.0178142
0.0202509
0.0256394
0.0375595
0.100282
0.0196877
0.0250896
0.0368326
0.0985788
)
;
    }
    ami2
    {
        type            cyclicAMI;
        value           nonuniform List<scalar> 0();
    }
    outlet
    {
        type            zeroGradient;
    }
    procBoundary8to0
    {
        type            processor;
        value           nonuniform List<scalar> 
29
(
0.130372
0.0512129
0.0365143
0.0305471
0.0279023
0.0489296
0.022631
0.0168029
0.0150097
0.0143782
0.0337491
0.016031
0.0134544
0.0135032
0.0137945
0.0287302
0.0144052
0.0133244
0.0140856
0.0148455
0.0270264
0.0140423
0.0136585
0.0148284
0.0158387
0.0162116
0.0151311
0.0162142
0.0166217
)
;
    }
    procBoundary8to1
    {
        type            processor;
        value           nonuniform List<scalar> 
33
(
0.0268958
0.0141327
0.013884
0.0279053
0.0143803
0.0137974
0.0148504
0.0158419
0.0162142
0.03055
0.0150121
0.0135039
0.0140865
0.0148277
0.0151255
0.0365196
0.0168071
0.0134563
0.0133241
0.0136546
0.0138756
0.0512222
0.022636
0.0160327
0.0144046
0.0140376
0.0141259
0.130391
0.0489419
0.0337595
0.0287333
0.0270237
0.026895
)
;
    }
    procBoundary8to7
    {
        type            processor;
        value           nonuniform List<scalar> 
68
(
0.0986564
0.0368954
0.0251273
0.0197271
0.0173345
0.0337583
0.014278
0.00972957
0.00810207
0.00747829
0.0220853
0.00891072
0.00661497
0.00611684
0.00594004
0.017988
0.0075729
0.00597119
0.00586626
0.00599063
0.016513
0.00719503
0.00590268
0.00595289
0.00618968
0.0063107
0.0164049
0.00716769
0.00591356
0.00601194
0.00627624
0.00640698
0.0173343
0.0173343
0.00747046
0.00747046
0.00591277
0.00595702
0.00617499
0.00629032
0.0192487
0.00794266
0.00610736
0.00610736
0.00585251
0.00595159
0.00603155
0.0246368
0.00949754
0.00661794
0.00661794
0.00596572
0.00590239
0.0059264
0.0362551
0.0139643
0.00892517
0.00892517
0.00756597
0.00719022
0.00717247
0.097074
0.0330857
0.0220892
0.0220892
0.0179873
0.0165129
0.0164036
)
;
    }
    procBoundary8to9
    {
        type            processor;
        value           nonuniform List<scalar> 
132
(
0.0254222
0.0241158
0.0229388
0.0218772
0.0209197
0.0200557
0.0192768
0.0185767
0.0179397
0.0173615
0.0168436
0.0131242
0.0122239
0.0114206
0.0107049
0.0100664
0.0094956
0.00898473
0.00852677
0.00811674
0.0077519
0.007443
0.0127056
0.0116674
0.0107512
0.00994006
0.00921959
0.00857639
0.0080023
0.00749
0.00703033
0.00662473
0.00622677
0.0137692
0.0125733
0.011521
0.0105916
0.00976812
0.00903617
0.00838407
0.0078021
0.00728137
0.00681852
0.00637717
0.0137692
0.0125733
0.011521
0.0105916
0.00976812
0.00903617
0.00838407
0.0078021
0.00728137
0.00681852
0.00637717
0.0143987
0.0131286
0.0120106
0.0110231
0.010148
0.00937037
0.00867767
0.0080594
0.00750621
0.0070125
0.00654937
0.0147318
0.0134247
0.0122739
0.0112575
0.0103569
0.00955682
0.00884415
0.00820804
0.00763909
0.00713121
0.00665785
0.0144016
0.0131312
0.0120129
0.0110251
0.0101498
0.0093719
0.00867894
0.00806042
0.00750706
0.00701322
0.00654968
0.0135261
0.012361
0.0113351
0.0104285
0.00962446
0.00890926
0.00827193
0.00770268
0.00719304
0.0067395
0.0063042
0.0126438
0.0116236
0.0107222
0.00992341
0.00921245
0.00857763
0.00801125
0.00750385
0.00705018
0.00664433
0.00624677
0.0133885
0.012499
0.011706
0.0109977
0.0103649
0.00979789
0.00928895
0.00883338
0.00842172
0.00806488
0.00772671
0.0264709
0.0251906
0.0240333
0.0229852
0.022039
0.0211829
0.0203975
0.0196816
0.0190225
0.0184482
0.0178278
)
;
    }
}


// ************************************************************************* //
