/*--------------------------------*- C++ -*----------------------------------*\
| =========                 |                                                 |
| \\      /  F ield         | OpenFOAM: The Open Source CFD Toolbox           |
|  \\    /   O peration     | Version:  2212                                  |
|   \\  /    A nd           | Website:  www.openfoam.com                      |
|    \\/     M anipulation  |                                                 |
\*---------------------------------------------------------------------------*/
FoamFile
{
    version     2.0;
    format      ascii;
    arch        "LSB;label=32;scalar=64";
    class       volScalarField;
    location    "2";
    object      nut;
}
// * * * * * * * * * * * * * * * * * * * * * * * * * * * * * * * * * * * * * //

dimensions      [0 2 -1 0 0 0 0];

internalField   nonuniform List<scalar> 
690
(
3.99687e-06
3.95599e-06
3.9178e-06
3.88069e-06
3.84599e-06
3.81205e-06
3.78004e-06
3.74956e-06
3.71965e-06
3.69093e-06
3.66318e-06
8.10058e-06
7.99874e-06
7.90245e-06
7.8097e-06
7.7244e-06
7.64369e-06
7.56811e-06
7.49687e-06
7.42841e-06
7.36243e-06
7.30025e-06
1.19181e-05
1.17426e-05
1.15803e-05
1.14309e-05
1.1294e-05
1.11676e-05
1.1046e-05
1.09303e-05
1.08196e-05
1.07082e-05
1.0602e-05
1.49007e-05
1.46599e-05
1.44357e-05
1.42286e-05
1.40351e-05
1.38611e-05
1.36767e-05
1.3504e-05
1.33487e-05
1.32009e-05
1.30568e-05
1.67681e-05
1.64815e-05
1.6215e-05
1.59689e-05
1.57376e-05
1.5519e-05
1.53146e-05
1.51194e-05
1.49489e-05
1.47639e-05
1.45846e-05
7.95436e-06
7.84721e-06
7.74837e-06
7.65289e-06
7.56352e-06
7.47699e-06
7.39602e-06
7.32003e-06
7.2469e-06
7.17848e-06
7.11488e-06
1.64016e-05
1.52072e-05
1.44168e-05
1.34299e-05
1.27572e-05
1.19988e-05
1.1394e-05
1.08201e-05
1.02309e-05
9.71795e-06
9.22409e-06
3.44879e-05
3.2184e-05
3.11279e-05
2.91471e-05
2.81906e-05
2.65461e-05
2.56183e-05
2.43135e-05
2.31524e-05
2.23904e-05
2.1229e-05
4.80458e-05
4.58036e-05
4.37461e-05
4.18042e-05
3.99531e-05
3.82633e-05
3.65004e-05
3.53111e-05
3.35381e-05
3.28013e-05
3.12087e-05
5.72601e-05
5.4739e-05
5.23969e-05
5.0211e-05
4.81598e-05
4.62336e-05
4.44178e-05
4.27022e-05
4.11263e-05
3.93105e-05
3.75569e-05
1.15472e-05
1.13865e-05
1.12343e-05
1.10864e-05
1.09355e-05
1.07967e-05
1.06708e-05
1.05518e-05
1.04363e-05
1.03292e-05
1.02245e-05
3.59766e-05
3.37533e-05
3.22776e-05
3.00677e-05
2.90798e-05
2.7133e-05
2.6146e-05
2.46321e-05
2.32089e-05
2.22854e-05
2.09139e-05
6.80327e-05
6.49436e-05
6.21448e-05
5.9281e-05
5.70539e-05
5.48422e-05
5.23022e-05
4.95803e-05
4.72369e-05
4.5276e-05
4.31813e-05
8.99739e-05
8.65387e-05
8.32615e-05
8.01123e-05
7.71108e-05
7.43071e-05
7.15395e-05
6.88785e-05
6.6261e-05
6.37373e-05
6.2153e-05
0.000103154
9.94292e-05
9.5876e-05
9.24829e-05
8.92397e-05
8.61482e-05
8.31874e-05
8.03476e-05
7.76306e-05
7.48727e-05
7.25691e-05
1.4512e-05
1.42801e-05
1.40623e-05
1.38574e-05
1.36646e-05
1.34852e-05
1.33163e-05
1.31576e-05
1.30089e-05
1.28682e-05
1.27224e-05
5.26039e-05
5.0247e-05
4.80505e-05
4.59321e-05
4.397e-05
4.2066e-05
4.02856e-05
3.85699e-05
3.68621e-05
3.53971e-05
3.36638e-05
9.28036e-05
8.93523e-05
8.60666e-05
8.28996e-05
7.99002e-05
7.70885e-05
7.4321e-05
7.15844e-05
6.89361e-05
6.63724e-05
6.4043e-05
0.000118928
0.000114968
0.000111177
0.000107533
0.000104034
0.000100688
9.7455e-05
9.43456e-05
9.13463e-05
8.83851e-05
8.58993e-05
0.000133586
0.000129319
0.000125242
0.00012134
0.000117602
0.000114017
0.000110569
0.000107246
0.000104041
0.000100876
9.80911e-05
1.65161e-05
1.62368e-05
1.59752e-05
1.57298e-05
1.54991e-05
1.52826e-05
1.50794e-05
1.48917e-05
1.47151e-05
1.45489e-05
1.43875e-05
6.11074e-05
5.86293e-05
5.62984e-05
5.40881e-05
5.19849e-05
4.99785e-05
4.80644e-05
4.62376e-05
4.44873e-05
4.28018e-05
4.11407e-05
0.000105986
0.000102312
9.88006e-05
9.54367e-05
9.22144e-05
8.91297e-05
8.61638e-05
8.33038e-05
8.05617e-05
7.78435e-05
7.55251e-05
0.000134378
0.000130147
0.000126107
0.000122249
0.000118564
0.000115037
0.000111651
0.000108377
0.000105215
0.000102102
9.93506e-05
0.000150123
0.000145544
0.000141183
0.000137023
0.000133048
0.000129242
0.000125588
0.000122069
0.000118673
0.000115359
0.000112357
0.00015534
0.000150623
0.000146136
0.000141859
0.000137774
0.000133861
0.000130103
0.000126482
0.000122983
0.000119562
0.000116452
1.73004e-05
1.70023e-05
1.6724e-05
1.64636e-05
1.62191e-05
1.599e-05
1.5777e-05
1.55762e-05
1.53872e-05
1.52086e-05
1.50407e-05
6.17773e-05
5.92052e-05
5.68177e-05
5.45792e-05
5.24695e-05
5.0475e-05
4.85865e-05
4.67889e-05
4.50868e-05
4.34262e-05
4.18105e-05
0.000108616
0.000104844
0.000101252
9.78263e-05
9.4558e-05
9.14406e-05
8.84591e-05
8.55903e-05
8.28419e-05
8.01096e-05
7.77676e-05
0.000138723
0.000134389
0.000130256
0.00012631
0.000122538
0.000118927
0.000115463
0.000112129
0.000108918
0.00010577
0.000102956
0.000155313
0.000150629
0.000146173
0.000141928
0.000137876
0.000133998
0.00013028
0.000126703
0.000123254
0.000119894
0.000116821
0.000160691
0.000155876
0.000151298
0.000146938
0.000142777
0.000138796
0.000134977
0.000131301
0.000127754
0.000124298
0.000121122
1.67661e-05
1.64799e-05
1.62138e-05
1.59681e-05
1.57375e-05
1.55195e-05
1.53156e-05
1.51214e-05
1.49482e-05
1.47692e-05
1.45897e-05
5.72333e-05
5.47284e-05
5.24066e-05
5.02408e-05
4.8212e-05
4.63046e-05
4.45111e-05
4.28148e-05
4.12534e-05
3.94849e-05
3.77393e-05
0.000103115
9.9418e-05
9.58957e-05
9.25364e-05
8.93296e-05
8.62714e-05
8.33472e-05
8.0543e-05
7.78665e-05
7.51623e-05
7.2894e-05
0.000133523
0.00012929
0.000125245
0.000121377
0.000117674
0.000114128
0.000110721
0.000107442
0.000104285
0.00010118
9.84293e-05
0.000150068
0.000145509
0.000141166
0.000137022
0.000133063
0.000129273
0.000125636
0.000122137
0.000118763
0.000115476
0.000112493
0.000155306
0.000150617
0.000146154
0.000141898
0.000137832
0.00013394
0.000130204
0.000126609
0.000123139
0.000119755
0.000116669
1.48975e-05
1.46576e-05
1.44341e-05
1.42276e-05
1.40345e-05
1.38614e-05
1.36778e-05
1.35058e-05
1.335e-05
1.32035e-05
1.30597e-05
1.29238e-05
4.7995e-05
4.57563e-05
4.37318e-05
4.17959e-05
3.99836e-05
3.82665e-05
3.65895e-05
3.53442e-05
3.35926e-05
3.2861e-05
3.11876e-05
3.03929e-05
8.98996e-05
8.64894e-05
8.32397e-05
8.01141e-05
7.71415e-05
7.43547e-05
7.16259e-05
6.89747e-05
6.63774e-05
6.38735e-05
6.23044e-05
0.000118865
0.000114924
0.00011115
0.000107527
0.000104044
0.00010072
9.75044e-05
9.44128e-05
9.1432e-05
8.84909e-05
8.60167e-05
0.000134377
0.000130148
0.000126109
0.000122251
0.000118566
0.000115038
0.000111653
0.000108379
0.000105217
0.000102107
9.93594e-05
0.000138808
0.000134449
0.00013029
0.000126317
0.000122517
0.000118877
0.000115384
0.000112019
0.000108777
0.000105592
0.000102761
1.19132e-05
1.17394e-05
1.15783e-05
1.14298e-05
1.12936e-05
1.11676e-05
1.10469e-05
1.09311e-05
1.08212e-05
1.07101e-05
1.06039e-05
1.05072e-05
3.43757e-05
3.21068e-05
3.10808e-05
2.91158e-05
2.81857e-05
2.65383e-05
2.56591e-05
2.42706e-05
2.33376e-05
2.23441e-05
2.12306e-05
2.05074e-05
6.78222e-05
6.47749e-05
6.20306e-05
5.91849e-05
5.70119e-05
5.47967e-05
5.23265e-05
4.96004e-05
4.72642e-05
4.53666e-05
4.32416e-05
9.26503e-05
8.92276e-05
8.59655e-05
8.28309e-05
7.985e-05
7.70613e-05
7.43147e-05
7.15932e-05
6.89625e-05
6.64095e-05
6.4091e-05
0.000105978
0.000102304
9.87938e-05
9.5433e-05
9.22122e-05
8.91299e-05
8.6166e-05
8.33073e-05
8.05677e-05
7.78507e-05
7.55253e-05
0.000108724
0.000104929
0.000101314
9.78655e-05
9.45778e-05
9.14429e-05
8.84425e-05
8.55549e-05
8.27882e-05
8.00339e-05
7.76626e-05
8.09144e-06
7.99253e-06
7.89835e-06
7.80728e-06
7.72318e-06
7.64328e-06
7.5685e-06
7.49741e-06
7.42948e-06
7.3636e-06
7.30134e-06
7.24375e-06
1.62094e-05
1.51191e-05
1.43255e-05
1.34057e-05
1.27235e-05
1.19968e-05
1.13971e-05
1.0823e-05
1.02527e-05
9.7121e-06
9.25271e-06
8.89521e-06
3.56335e-05
3.35105e-05
3.20831e-05
2.99474e-05
2.8984e-05
2.70794e-05
2.61149e-05
2.46417e-05
2.32067e-05
2.23104e-05
2.09451e-05
5.2352e-05
5.0039e-05
4.78866e-05
4.58114e-05
4.38878e-05
4.2017e-05
4.02657e-05
3.85756e-05
3.6889e-05
3.54324e-05
3.37502e-05
6.10294e-05
5.85625e-05
5.62471e-05
5.40546e-05
5.1969e-05
4.9979e-05
4.80796e-05
4.62659e-05
4.45273e-05
4.28495e-05
4.11955e-05
6.18167e-05
5.92437e-05
5.68542e-05
5.46131e-05
5.25009e-05
5.05037e-05
4.8613e-05
4.68119e-05
4.51066e-05
4.34394e-05
4.18147e-05
3.99322e-06
3.9536e-06
3.91623e-06
3.87989e-06
3.84569e-06
3.81207e-06
3.78036e-06
3.74993e-06
3.72022e-06
3.6914e-06
3.66385e-06
3.63809e-06
7.94072e-06
7.83724e-06
7.74119e-06
7.64843e-06
7.56095e-06
7.47595e-06
7.39611e-06
7.32074e-06
7.24809e-06
7.17982e-06
7.11603e-06
7.05716e-06
1.15271e-05
1.13704e-05
1.1222e-05
1.10778e-05
1.09299e-05
1.07936e-05
1.06695e-05
1.05519e-05
1.04374e-05
1.0331e-05
1.02268e-05
1.44955e-05
1.42658e-05
1.40507e-05
1.38486e-05
1.36581e-05
1.34814e-05
1.33146e-05
1.31576e-05
1.301e-05
1.28703e-05
1.27253e-05
1.65078e-05
1.62294e-05
1.59691e-05
1.57251e-05
1.54959e-05
1.52808e-05
1.50788e-05
1.48924e-05
1.47168e-05
1.45514e-05
1.43905e-05
1.72976e-05
1.70004e-05
1.67228e-05
1.6463e-05
1.62192e-05
1.59905e-05
1.57782e-05
1.55779e-05
1.53895e-05
1.52111e-05
1.50435e-05
)
;

boundaryField
{
    inlet
    {
        type            calculated;
        value           nonuniform List<scalar> 0();
    }
    ami1
    {
        type            cyclicAMI;
        value           nonuniform List<scalar> 0();
    }
    walls
    {
        type            nutkWallFunction;
        blending        stepwise;
        value           uniform 0;
    }
    ami2
    {
        type            cyclicAMI;
        value           nonuniform List<scalar> 0();
    }
    outlet
    {
        type            calculated;
        value           nonuniform List<scalar> 0();
    }
    procBoundary8to0
    {
        type            processor;
        value           nonuniform List<scalar> 
29
(
4.0362e-06
8.19954e-06
1.20882e-05
1.51562e-05
1.70678e-05
8.04483e-06
1.71973e-05
3.53593e-05
5.01977e-05
5.97927e-05
1.17078e-05
3.75209e-05
7.06965e-05
9.3413e-05
0.000107084
1.47535e-05
5.48079e-05
9.61651e-05
0.000123027
0.000138186
1.68091e-05
6.36216e-05
0.000109788
0.000138912
0.000155125
0.00016054
0.000143447
0.000160464
0.000166016
)
;
    }
    procBoundary8to1
    {
        type            processor;
        value           nonuniform List<scalar> 
33
(
1.76128e-05
6.44473e-05
0.000112658
1.70658e-05
5.97539e-05
0.000107028
0.00013809
0.000155048
0.000160466
1.51515e-05
5.01256e-05
9.33406e-05
0.000122978
0.000138928
0.000143572
1.20798e-05
3.5221e-05
7.04587e-05
9.60088e-05
0.000109795
0.000112794
8.18685e-06
1.69417e-05
3.70493e-05
5.4464e-05
6.34926e-05
6.444e-05
4.03126e-06
8.02766e-06
1.16837e-05
1.47346e-05
1.67996e-05
1.76088e-05
)
;
    }
    procBoundary8to7
    {
        type            processor;
        value           nonuniform List<scalar> 
68
(
3.63757e-06
7.24254e-06
1.05053e-05
1.29205e-05
1.44195e-05
7.05577e-06
8.94573e-06
2.0564e-05
3.03612e-05
3.6149e-05
1.01238e-05
2.02113e-05
4.14435e-05
5.94339e-05
6.96818e-05
1.2588e-05
3.26389e-05
6.20741e-05
8.28072e-05
9.46484e-05
1.424e-05
3.93648e-05
7.26431e-05
9.59739e-05
0.000108716
0.000112714
1.48822e-05
3.98386e-05
7.47459e-05
9.95081e-05
0.000113141
0.000117328
1.44243e-05
1.44243e-05
3.62598e-05
3.62598e-05
7.00532e-05
9.50573e-05
0.000108904
0.000112961
1.27945e-05
2.87523e-05
5.95877e-05
5.95877e-05
8.29584e-05
9.59852e-05
9.92643e-05
1.04185e-05
1.95269e-05
4.15026e-05
4.15026e-05
6.21019e-05
7.2641e-05
7.46114e-05
7.18988e-06
8.60803e-06
2.02482e-05
2.02482e-05
3.26451e-05
3.94258e-05
3.98398e-05
3.61355e-06
7.00171e-06
1.01258e-05
1.01258e-05
1.25908e-05
1.42436e-05
1.48852e-05
)
;
    }
    procBoundary8to9
    {
        type            processor;
        value           nonuniform List<scalar> 
132
(
1.73001e-05
1.70027e-05
1.67247e-05
1.6464e-05
1.62193e-05
1.59898e-05
1.57764e-05
1.55752e-05
1.53858e-05
1.52063e-05
1.50389e-05
6.18142e-05
5.92352e-05
5.68333e-05
5.45763e-05
5.24448e-05
5.04282e-05
4.85177e-05
4.66975e-05
4.49748e-05
4.32886e-05
4.16476e-05
0.000108701
0.000104899
0.000101273
9.78111e-05
9.45034e-05
9.13488e-05
8.83274e-05
8.54135e-05
8.26178e-05
7.98373e-05
7.74684e-05
0.000138796
0.000134424
0.000130251
0.000126264
0.000122447
0.000118787
0.00011527
0.000111878
0.000108603
0.000105377
0.000102523
0.000138796
0.000134424
0.000130251
0.000126264
0.000122447
0.000118787
0.00011527
0.000111878
0.000108603
0.000105377
0.000102523
0.00015014
0.000145543
0.000141166
0.000136991
0.000133002
0.000129181
0.00012551
0.000121974
0.000118558
0.00011522
0.000112205
0.000155333
0.000150625
0.000146146
0.000141879
0.000137804
0.000133902
0.000130156
0.000126549
0.000123066
0.000119666
0.000116566
0.000150099
0.000145513
0.000141143
0.000136974
0.000132987
0.000129167
0.000125498
0.000121962
0.000118547
0.00011521
0.000112197
0.000133634
0.000129358
0.000125272
0.000121363
0.000117619
0.000114029
0.000110579
0.000107253
0.000104047
0.000100883
9.81042e-05
0.00010323
9.9503e-05
9.59481e-05
9.25553e-05
8.93159e-05
8.62267e-05
8.32685e-05
8.04323e-05
7.77225e-05
7.49751e-05
7.2679e-05
5.73031e-05
5.47896e-05
5.24533e-05
5.02756e-05
4.8232e-05
4.63111e-05
4.45106e-05
4.27854e-05
4.12315e-05
3.93988e-05
3.77282e-05
1.67685e-05
1.64823e-05
1.62161e-05
1.59704e-05
1.57397e-05
1.55217e-05
1.53177e-05
1.51232e-05
1.49512e-05
1.47703e-05
1.45906e-05
)
;
    }
}


// ************************************************************************* //
