/*--------------------------------*- C++ -*----------------------------------*\
| =========                 |                                                 |
| \\      /  F ield         | OpenFOAM: The Open Source CFD Toolbox           |
|  \\    /   O peration     | Version:  2212                                  |
|   \\  /    A nd           | Website:  www.openfoam.com                      |
|    \\/     M anipulation  |                                                 |
\*---------------------------------------------------------------------------*/
FoamFile
{
    version     2.0;
    format      ascii;
    arch        "LSB;label=32;scalar=64";
    class       volScalarField;
    location    "2";
    object      p;
}
// * * * * * * * * * * * * * * * * * * * * * * * * * * * * * * * * * * * * * //

dimensions      [0 2 -2 0 0 0 0];

internalField   nonuniform List<scalar> 
690
(
0.00326868
0.00313899
0.00300951
0.0028804
0.00275145
0.00262397
0.00249749
0.00237278
0.00224865
0.00212558
0.0020038
0.00325338
0.00312431
0.00299485
0.0028656
0.00273689
0.00260978
0.00248377
0.00235941
0.00223581
0.00211364
0.0019932
0.00324499
0.0031152
0.0029857
0.00285682
0.00272873
0.00260201
0.00247629
0.00235201
0.00222816
0.00210579
0.0019852
0.00326275
0.00313132
0.0030008
0.00287114
0.00274249
0.00261505
0.00248849
0.00236316
0.0022385
0.00211452
0.0019913
0.00327282
0.00314016
0.00300871
0.00287848
0.00274947
0.00262166
0.002495
0.00236955
0.00224538
0.00212228
0.00199975
0.00328368
0.00315309
0.00302396
0.00289551
0.00276658
0.00263864
0.00251163
0.00238644
0.00226179
0.00213793
0.00201486
0.0032781
0.00314839
0.00301929
0.0028902
0.00276157
0.00263435
0.00250809
0.00238365
0.00225921
0.00213599
0.00201401
0.00326164
0.0031305
0.00300099
0.00287245
0.00274495
0.0026186
0.00249341
0.00236882
0.00224482
0.00212172
0.00199992
0.00327343
0.00314121
0.00301059
0.00288122
0.00275301
0.00262572
0.00249966
0.00237442
0.00225049
0.00212707
0.00200455
0.00328049
0.00314808
0.00301702
0.00288723
0.0027586
0.00263104
0.00250469
0.00237931
0.00225486
0.00213117
0.00200872
0.00327705
0.00314488
0.00301463
0.00288512
0.00275615
0.0026285
0.0025018
0.00237694
0.00225233
0.0021289
0.00200667
0.00327182
0.00313971
0.00300788
0.00287693
0.00274803
0.00262111
0.00249585
0.00237116
0.00224724
0.00212465
0.00200356
0.00323959
0.003107
0.00297619
0.00284741
0.00272013
0.00259352
0.0024681
0.0023431
0.00222033
0.00209842
0.00197779
0.00323967
0.00310712
0.00297632
0.00284724
0.00271947
0.00259239
0.00246641
0.00234163
0.00221867
0.00209668
0.00197538
0.00323885
0.0031065
0.00297563
0.00284618
0.00271803
0.00259098
0.00246502
0.00234012
0.00221614
0.00209323
0.00197159
0.00328574
0.00315152
0.00301793
0.00288556
0.00275531
0.002627
0.00250016
0.0023748
0.0022505
0.00212748
0.00200541
0.00328144
0.00314814
0.00301558
0.00288444
0.00275491
0.00262678
0.00250013
0.00237434
0.00225013
0.00212703
0.00200523
0.00324075
0.00310761
0.00297605
0.00284629
0.00271796
0.00259048
0.00246401
0.00233885
0.00221557
0.00209341
0.0019727
0.00323119
0.00309875
0.00296784
0.00283844
0.0027104
0.00258342
0.00245753
0.00233286
0.0022096
0.00208764
0.00196644
0.00322442
0.00309237
0.00296177
0.00283253
0.00270454
0.00257769
0.00245195
0.00232729
0.0022037
0.00208123
0.00195958
0.00328581
0.00315184
0.0030191
0.00288774
0.00275793
0.0026296
0.00250259
0.00237689
0.00225244
0.00212923
0.00200724
0.00328683
0.00315391
0.00302205
0.00289136
0.0027619
0.00263366
0.00250664
0.00238073
0.002256
0.00213227
0.00200986
0.00324209
0.00310942
0.00297804
0.00284806
0.0027194
0.00259189
0.00246548
0.00234025
0.00221625
0.00209337
0.0019716
0.00322545
0.0030933
0.00296248
0.00283302
0.00270485
0.00257786
0.00245198
0.00232723
0.0022036
0.0020811
0.00195939
0.00321601
0.00308414
0.0029536
0.00282435
0.00269633
0.00256947
0.00244371
0.00231902
0.00219536
0.00207273
0.00195089
0.00321352
0.00308186
0.0029515
0.00282237
0.00269445
0.00256767
0.00244197
0.00231732
0.00219367
0.00207101
0.00194914
0.00328128
0.00314785
0.00301569
0.00288484
0.00275532
0.00262713
0.0025002
0.00237453
0.00225011
0.00212694
0.00200505
0.00328608
0.00315358
0.00302216
0.00289187
0.00276275
0.0026348
0.00250798
0.00238221
0.00225745
0.00213366
0.00201103
0.00324142
0.00310917
0.00297799
0.0028482
0.00271989
0.00259276
0.00246663
0.00234151
0.00221734
0.00209412
0.00197182
0.00322365
0.00309188
0.00296142
0.00283223
0.00270427
0.00257745
0.0024517
0.00232699
0.0022033
0.00208064
0.00195875
0.00321357
0.00308192
0.00295157
0.00282244
0.00269452
0.00256774
0.00244204
0.00231739
0.00219374
0.00207108
0.00194919
0.00320989
0.00307844
0.00294826
0.00281929
0.00269148
0.0025648
0.00243918
0.00231459
0.00219098
0.00206834
0.00194647
0.00327252
0.00313981
0.00300833
0.00287804
0.00274899
0.00262114
0.00249446
0.002369
0.00224481
0.00212175
0.00199932
0.00328028
0.00314789
0.00301682
0.00288701
0.00275833
0.00263075
0.00250435
0.00237892
0.00225444
0.00213069
0.00200821
0.0032389
0.00310659
0.00297573
0.00284627
0.0027181
0.00259102
0.00246503
0.00234007
0.00221608
0.00209312
0.00197139
0.00322456
0.00309255
0.00296196
0.00283272
0.00270471
0.00257783
0.00245206
0.00232737
0.00220376
0.00208125
0.00195957
0.00321613
0.00308428
0.00295376
0.0028245
0.00269648
0.0025696
0.00244382
0.00231911
0.00219542
0.00207276
0.00195089
0.00321357
0.00308193
0.00295157
0.00282245
0.00269452
0.00256774
0.00244203
0.00231737
0.0021937
0.00207103
0.00194914
0.00326235
0.00313098
0.00300048
0.00287081
0.00274214
0.00261465
0.00248809
0.00236279
0.00223817
0.00211433
0.00199111
0.00186911
0.00327318
0.00314099
0.00301041
0.00288104
0.0027528
0.0026255
0.00249938
0.00237417
0.00225014
0.00212651
0.00200403
0.0018831
0.00323994
0.00310739
0.00297657
0.00284745
0.00271962
0.00259251
0.00246645
0.00234156
0.00221851
0.00209635
0.00197498
0.00323146
0.00309906
0.00296814
0.00283872
0.00271065
0.00258362
0.00245767
0.00233293
0.00220959
0.00208755
0.00196629
0.00322556
0.00309345
0.00296265
0.00283318
0.00270501
0.00257799
0.00245208
0.00232729
0.00220361
0.00208106
0.00195931
0.00322363
0.00309186
0.00296141
0.00283223
0.00270428
0.00257745
0.00245169
0.00232696
0.00220324
0.00208055
0.00195864
0.00324487
0.00311521
0.00298573
0.00285681
0.00272865
0.00260183
0.00247611
0.00235167
0.00222792
0.0021058
0.0019851
0.00186572
0.00326191
0.00313073
0.00300112
0.00287251
0.00274492
0.00261849
0.00249322
0.00236868
0.00224457
0.0021214
0.00199955
0.00187901
0.00324038
0.0031077
0.00297677
0.00284789
0.00272048
0.00259378
0.00246824
0.00234324
0.00222026
0.00209808
0.00197742
0.00324129
0.00310816
0.00297657
0.00284678
0.0027184
0.00259086
0.0024643
0.00233905
0.00221567
0.00209341
0.00197256
0.00324233
0.00310969
0.00297834
0.00284837
0.0027197
0.00259216
0.00246572
0.00234043
0.00221636
0.00209341
0.00197155
0.00324152
0.00310929
0.00297812
0.00284833
0.00272001
0.00259287
0.00246672
0.00234158
0.00221738
0.00209411
0.00197176
0.00325269
0.00312387
0.00299459
0.00286536
0.00273669
0.00260952
0.00248353
0.0023591
0.00223557
0.00211349
0.00199307
0.00187378
0.00327737
0.00314779
0.00301881
0.0028898
0.00276122
0.002634
0.00250777
0.00238325
0.0022589
0.00213587
0.00201381
0.00189265
0.00327183
0.00313967
0.00300782
0.00287693
0.00274801
0.00262104
0.00249572
0.00237101
0.00224701
0.00212439
0.00200321
0.00328133
0.00314809
0.00301557
0.00288449
0.00275498
0.00262684
0.00250018
0.00237433
0.00225006
0.00212693
0.00200507
0.00328668
0.00315382
0.00302202
0.00289141
0.00276198
0.00263376
0.00250674
0.0023808
0.00225604
0.00213227
0.00200978
0.00328608
0.00315362
0.00302224
0.00289199
0.00276288
0.00263494
0.00250811
0.00238233
0.00225754
0.0021337
0.00201102
0.00326765
0.00313832
0.00300909
0.00288002
0.00275116
0.00262365
0.00249723
0.00237248
0.00224841
0.00212541
0.00200365
0.00188296
0.00328237
0.00315226
0.00302345
0.00289501
0.00276618
0.00263827
0.00251134
0.00238614
0.00226157
0.00213775
0.00201472
0.00189265
0.00327621
0.00314441
0.00301434
0.00288485
0.0027559
0.00262826
0.00250156
0.00237672
0.00225213
0.00212863
0.00200636
0.003285
0.00315096
0.00301757
0.00288537
0.00275519
0.0026269
0.00250006
0.00237468
0.00225035
0.00212727
0.00200519
0.00328538
0.00315154
0.00301893
0.00288767
0.00275791
0.00262959
0.00250258
0.00237687
0.00225239
0.00212914
0.00200708
0.00328113
0.00314782
0.00301575
0.00288494
0.00275545
0.00262726
0.00250034
0.00237466
0.00225022
0.00212699
0.00200502
)
;

boundaryField
{
    inlet
    {
        type            zeroGradient;
    }
    ami1
    {
        type            cyclicAMI;
        value           nonuniform List<scalar> 0();
    }
    walls
    {
        type            zeroGradient;
    }
    ami2
    {
        type            cyclicAMI;
        value           nonuniform List<scalar> 0();
    }
    outlet
    {
        type            fixedValue;
        value           nonuniform List<scalar> 0();
    }
    procBoundary8to0
    {
        type            processor;
        value           nonuniform List<scalar> 
29
(
0.00339954
0.00338322
0.00337608
0.00339563
0.00340705
0.00341604
0.00340926
0.00339428
0.00340689
0.00341407
0.00341088
0.00340483
0.00337329
0.00337351
0.0033726
0.00342124
0.00341547
0.00337493
0.00336495
0.00335791
0.00342127
0.00342059
0.00337579
0.0033589
0.0033493
0.00334659
0.00335679
0.00334661
0.00334275
)
;
    }
    procBoundary8to1
    {
        type            processor;
        value           nonuniform List<scalar> 
33
(
0.00341623
0.00341956
0.00337476
0.00340677
0.00341384
0.00337263
0.003358
0.00334939
0.00334662
0.00339515
0.00340657
0.00337374
0.00336515
0.00335897
0.00335678
0.00337579
0.00339442
0.00337395
0.00337531
0.00337591
0.00337482
0.00338242
0.00340849
0.00340472
0.00341516
0.00342032
0.00341948
0.00339835
0.00341454
0.00340986
0.00342039
0.00342077
0.00341598
)
;
    }
    procBoundary8to7
    {
        type            processor;
        value           nonuniform List<scalar> 
68
(
0.00188326
0.00187407
0.00186607
0.00186936
0.00187783
0.00189294
0.00189306
0.00187938
0.00188354
0.00188764
0.00188575
0.00188374
0.00185873
0.00185497
0.00185125
0.00188477
0.00188469
0.00185291
0.00184556
0.00183882
0.00188623
0.00188849
0.00185088
0.00183849
0.00182992
0.00182817
0.00188402
0.0018896
0.00185091
0.00183782
0.0018282
0.0018255
0.00187741
0.00187741
0.00188716
0.00188716
0.00185106
0.00183878
0.0018299
0.00182815
0.00174892
0.00176333
0.00185459
0.00185459
0.0018454
0.00183837
0.0018377
0.00174736
0.00175994
0.00185844
0.00185844
0.00185274
0.00185077
0.0018508
0.00175522
0.00177312
0.00188331
0.00188331
0.00188447
0.00188835
0.00188952
0.00176363
0.00177244
0.00188532
0.00188532
0.00188442
0.00188599
0.00188387
)
;
    }
    procBoundary8to9
    {
        type            processor;
        value           nonuniform List<scalar> 
132
(
0.00328151
0.0031482
0.00301614
0.00288535
0.00275588
0.00262771
0.00250081
0.00237514
0.00225074
0.00212757
0.00200568
0.00328627
0.0031538
0.00302242
0.00289217
0.00276308
0.00263517
0.00250838
0.00238264
0.0022579
0.00213411
0.00201145
0.00324151
0.00310924
0.00297805
0.00284825
0.00271995
0.00259283
0.00246671
0.0023416
0.00221743
0.0020942
0.00197188
0.00322363
0.00309183
0.00296136
0.00283217
0.00270422
0.0025774
0.00245166
0.00232695
0.00220326
0.0020806
0.00195871
0.00322363
0.00309183
0.00296136
0.00283217
0.00270422
0.0025774
0.00245166
0.00232695
0.00220326
0.0020806
0.00195871
0.00321607
0.00308422
0.0029537
0.00282446
0.00269644
0.00256957
0.0024438
0.00231909
0.00219541
0.00207275
0.00195086
0.00321355
0.00308191
0.00295156
0.00282244
0.00269452
0.00256774
0.00244204
0.00231738
0.00219371
0.00207104
0.00194914
0.00321605
0.0030842
0.00295368
0.00282444
0.00269641
0.00256954
0.00244376
0.00231905
0.00219536
0.0020727
0.00195082
0.00322444
0.00309243
0.00296188
0.00283265
0.00270465
0.00257779
0.002452
0.00232732
0.0022037
0.00208118
0.00195946
0.00323889
0.00310659
0.00297578
0.00284634
0.00271816
0.0025911
0.00246505
0.00234013
0.00221609
0.00209314
0.00197135
0.00328037
0.00314804
0.00301701
0.00288721
0.00275853
0.00263097
0.00250447
0.00237912
0.00225453
0.00213073
0.00200822
0.0032726
0.00314
0.00300853
0.00287823
0.00274918
0.00262134
0.0024947
0.00236921
0.00224505
0.00212191
0.00199938
)
;
    }
}


// ************************************************************************* //
