/*--------------------------------*- C++ -*----------------------------------*\
| =========                 |                                                 |
| \\      /  F ield         | OpenFOAM: The Open Source CFD Toolbox           |
|  \\    /   O peration     | Version:  2212                                  |
|   \\  /    A nd           | Website:  www.openfoam.com                      |
|    \\/     M anipulation  |                                                 |
\*---------------------------------------------------------------------------*/
FoamFile
{
    version     2.0;
    format      ascii;
    arch        "LSB;label=32;scalar=64";
    class       surfaceScalarField;
    location    "2";
    object      phi;
}
// * * * * * * * * * * * * * * * * * * * * * * * * * * * * * * * * * * * * * //

dimensions      [0 3 -1 0 0 0 0];

oriented        oriented;

internalField   nonuniform List<scalar> 
1815
(
7.14818e-08
-3.34074e-08
3.45084e-08
7.04285e-08
-3.34742e-08
3.45274e-08
6.942e-08
-3.35181e-08
3.45264e-08
6.84517e-08
-3.35465e-08
3.45147e-08
6.75116e-08
-3.35783e-08
3.45183e-08
6.66101e-08
-3.36235e-08
3.4525e-08
6.57424e-08
-3.36697e-08
3.45374e-08
6.49172e-08
-3.37142e-08
3.45393e-08
6.41109e-08
-3.37457e-08
3.45521e-08
6.33221e-08
-3.37847e-08
3.45734e-08
-3.3851e-08
3.46124e-08
2.2682e-07
-6.26403e-08
3.23336e-08
2.23882e-07
-6.27462e-08
3.22104e-08
2.21083e-07
-6.28628e-08
3.21431e-08
2.18409e-07
-6.29877e-08
3.21156e-08
2.15835e-07
-6.31224e-08
3.21179e-08
2.13369e-07
-6.32521e-08
3.20943e-08
2.10988e-07
-6.33672e-08
3.2079e-08
2.08686e-07
-6.34472e-08
3.20344e-08
2.06398e-07
-6.34807e-08
3.20231e-08
2.04126e-07
-6.3539e-08
3.20266e-08
-6.36965e-08
3.20483e-08
4.39342e-07
-8.79492e-08
3.05319e-08
4.34365e-07
-8.81168e-08
3.03472e-08
4.29564e-07
-8.82575e-08
3.01957e-08
4.249e-07
-8.83832e-08
3.00595e-08
4.20337e-07
-8.85019e-08
2.99424e-08
4.15858e-07
-8.86001e-08
2.98272e-08
4.11437e-07
-8.86793e-08
2.9733e-08
4.07057e-07
-8.87133e-08
2.96458e-08
4.027e-07
-8.87375e-08
2.96141e-08
3.98396e-07
-8.87686e-08
2.95337e-08
-8.88555e-08
2.93299e-08
6.3117e-07
-1.06111e-07
2.55136e-08
6.24028e-07
-1.06321e-07
2.53467e-08
6.17028e-07
-1.06472e-07
2.52149e-08
6.10123e-07
-1.06585e-07
2.51058e-08
6.03279e-07
-1.0667e-07
2.50119e-08
5.96485e-07
-1.0673e-07
2.49233e-08
5.8974e-07
-1.06781e-07
2.48476e-08
5.83061e-07
-1.06812e-07
2.47772e-08
5.76474e-07
-1.06854e-07
2.47032e-08
5.70014e-07
-1.06917e-07
2.46083e-08
-1.06992e-07
2.44588e-08
7.51545e-07
1.79037e-08
7.44103e-07
1.79108e-08
7.36615e-07
1.79123e-08
7.2909e-07
1.78995e-08
7.2154e-07
1.78727e-08
7.13981e-07
1.78342e-08
7.06426e-07
1.77802e-08
6.98894e-07
1.77217e-08
6.91389e-07
1.76411e-08
6.83922e-07
1.75376e-08
1.74254e-08
2.12954e-07
-2.97014e-08
6.68927e-08
2.10308e-07
-2.97804e-08
6.69539e-08
2.07692e-07
-2.97666e-08
6.69087e-08
2.05117e-07
-2.9722e-08
6.68121e-08
2.02588e-07
-2.96943e-08
6.67418e-08
2.00146e-07
-2.97256e-08
6.66917e-08
1.97785e-07
-2.97589e-08
6.6658e-08
1.95538e-07
-2.98374e-08
6.66236e-08
1.93359e-07
-2.98848e-08
6.66157e-08
1.91265e-07
-2.99272e-08
6.65942e-08
-2.99378e-08
6.65518e-08
5.34008e-07
-5.47427e-08
6.0526e-08
5.30942e-07
-5.49013e-08
6.03969e-08
5.27916e-07
-5.49782e-08
6.03813e-08
5.24919e-07
-5.50417e-08
6.04322e-08
5.21917e-07
-5.5074e-08
6.04989e-08
5.18923e-07
-5.51479e-08
6.05107e-08
5.1592e-07
-5.52098e-08
6.05328e-08
5.12921e-07
-5.5304e-08
6.05003e-08
5.0992e-07
-5.53606e-08
6.04992e-08
5.06907e-07
-5.53929e-08
6.05058e-08
-5.53796e-08
6.05637e-08
8.29101e-07
-7.61664e-08
5.3869e-08
8.27409e-07
-7.64752e-08
5.36134e-08
8.25875e-07
-7.66982e-08
5.3449e-08
8.24442e-07
-7.68828e-08
5.33339e-08
8.23057e-07
-7.70225e-08
5.32756e-08
8.21666e-07
-7.71481e-08
5.32184e-08
8.20223e-07
-7.72155e-08
5.31818e-08
8.18746e-07
-7.73089e-08
5.31279e-08
8.17203e-07
-7.73408e-08
5.31376e-08
8.15573e-07
-7.73649e-08
5.31358e-08
-7.73924e-08
5.31211e-08
1.04836e-06
-9.19825e-08
4.25745e-08
1.04724e-06
-9.23711e-08
4.23576e-08
1.04623e-06
-9.26647e-08
4.21961e-08
1.04527e-06
-9.2887e-08
4.20723e-08
1.04432e-06
-9.30514e-08
4.19851e-08
1.04336e-06
-9.31758e-08
4.19161e-08
1.04234e-06
-9.32458e-08
4.18916e-08
1.04126e-06
-9.3297e-08
4.18515e-08
1.0401e-06
-9.33122e-08
4.18313e-08
1.03885e-06
-9.33231e-08
4.18131e-08
-9.33407e-08
4.1746e-08
1.17707e-06
2.7464e-08
1.17669e-06
2.74323e-08
1.17623e-06
2.74128e-08
1.17569e-06
2.73953e-08
1.17507e-06
2.73762e-08
1.17436e-06
2.73551e-08
1.17358e-06
2.7333e-08
1.17271e-06
2.73054e-08
1.1718e-06
2.72521e-08
1.17084e-06
2.71748e-08
2.71004e-08
3.95494e-07
-2.11532e-08
9.24927e-08
3.91096e-07
-2.12058e-08
9.25574e-08
3.86862e-07
-2.13966e-08
9.25392e-08
3.82847e-07
-2.16262e-08
9.2454e-08
3.78978e-07
-2.17805e-08
9.23908e-08
3.75228e-07
-2.19083e-08
9.23499e-08
3.71579e-07
-2.20015e-08
9.23085e-08
3.68035e-07
-2.21252e-08
9.22928e-08
3.6459e-07
-2.21975e-08
9.22579e-08
3.61263e-07
-2.22884e-08
9.22099e-08
-2.23821e-08
9.21531e-08
7.9975e-07
-4.16721e-08
8.22681e-08
7.98637e-07
-4.17935e-08
8.20973e-08
7.97592e-07
-4.19292e-08
8.19588e-08
7.96531e-07
-4.20134e-08
8.18808e-08
7.95451e-07
-4.20556e-08
8.18539e-08
7.94323e-07
-4.21167e-08
8.18473e-08
7.93121e-07
-4.21583e-08
8.18913e-08
7.91886e-07
-4.2269e-08
8.18789e-08
7.90584e-07
-4.23097e-08
8.1914e-08
7.89203e-07
-4.23475e-08
8.19459e-08
-4.23557e-08
8.20194e-08
1.10718e-06
-5.92938e-08
7.02309e-08
1.10861e-06
-5.95472e-08
6.99417e-08
1.11016e-06
-5.97596e-08
6.97286e-08
1.11179e-06
-5.99142e-08
6.96014e-08
1.11348e-06
-6.00154e-08
6.95462e-08
1.11519e-06
-6.01163e-08
6.95055e-08
1.11697e-06
-6.02221e-08
6.94691e-08
1.11871e-06
-6.03215e-08
6.94411e-08
1.12043e-06
-6.03626e-08
6.94686e-08
1.12207e-06
-6.03693e-08
6.95133e-08
-6.0357e-08
6.95789e-08
1.32891e-06
-7.26639e-08
5.3346e-08
1.33159e-06
-7.29706e-08
5.31028e-08
1.33434e-06
-7.32248e-08
5.29111e-08
1.33715e-06
-7.34223e-08
5.27695e-08
1.34002e-06
-7.35669e-08
5.26739e-08
1.34289e-06
-7.36804e-08
5.26034e-08
1.34578e-06
-7.37678e-08
5.25544e-08
1.34862e-06
-7.38327e-08
5.25199e-08
1.35144e-06
-7.38638e-08
5.25093e-08
1.3542e-06
-7.38544e-08
5.25355e-08
-7.38459e-08
5.25455e-08
1.45988e-06
3.22252e-08
1.46344e-06
3.21216e-08
1.46697e-06
3.20401e-08
1.47046e-06
3.1976e-08
1.47392e-06
3.19258e-08
1.47734e-06
3.1885e-08
1.48073e-06
3.18509e-08
1.48408e-06
3.18206e-08
1.48738e-06
3.1787e-08
1.49064e-06
3.17583e-08
3.17212e-08
5.73016e-07
-1.17226e-08
1.10064e-07
5.67174e-07
-1.17034e-08
1.10103e-07
5.6139e-07
-1.17663e-08
1.1009e-07
5.55715e-07
-1.19122e-08
1.10041e-07
5.50204e-07
-1.20894e-08
1.09991e-07
5.44869e-07
-1.22651e-08
1.0995e-07
5.39699e-07
-1.2436e-08
1.09915e-07
5.34685e-07
-1.25847e-08
1.09892e-07
5.29803e-07
-1.27258e-08
1.09865e-07
5.25057e-07
-1.28753e-08
1.09832e-07
-1.30083e-08
1.0978e-07
1.00435e-06
-2.59843e-08
9.66901e-08
1.00419e-06
-2.60131e-08
9.65594e-08
1.00403e-06
-2.60815e-08
9.64371e-08
1.00385e-06
-2.61761e-08
9.6329e-08
1.00365e-06
-2.62799e-08
9.62413e-08
1.00344e-06
-2.6381e-08
9.61773e-08
1.00322e-06
-2.64725e-08
9.61436e-08
1.00298e-06
-2.65807e-08
9.61188e-08
1.00272e-06
-2.66743e-08
9.61203e-08
1.00243e-06
-2.67729e-08
9.61299e-08
-2.68229e-08
9.61626e-08
1.30969e-06
-3.89706e-08
8.01915e-08
1.31276e-06
-3.91073e-08
7.99629e-08
1.31587e-06
-3.92407e-08
7.97766e-08
1.31902e-06
-3.93602e-08
7.96375e-08
1.32221e-06
-3.94625e-08
7.95435e-08
1.32541e-06
-3.9559e-08
7.94763e-08
1.32864e-06
-3.96545e-08
7.94257e-08
1.33185e-06
-3.9746e-08
7.93926e-08
1.33508e-06
-3.98179e-08
7.93883e-08
1.33827e-06
-3.98668e-08
7.94128e-08
-3.98793e-08
7.94707e-08
1.52848e-06
-4.93174e-08
5.89415e-08
1.53324e-06
-4.94959e-08
5.87334e-08
1.538e-06
-4.96567e-08
5.85629e-08
1.54277e-06
-4.97938e-08
5.84289e-08
1.54756e-06
-4.99065e-08
5.83287e-08
1.55236e-06
-5.00012e-08
5.82535e-08
1.55714e-06
-5.00823e-08
5.81975e-08
1.5619e-06
-5.01499e-08
5.81592e-08
1.56665e-06
-5.01989e-08
5.81416e-08
1.57139e-06
-5.0221e-08
5.81514e-08
-5.02342e-08
5.817e-08
1.65999e-06
3.35375e-08
1.66575e-06
3.34159e-08
1.67146e-06
3.33134e-08
1.67713e-06
3.32289e-08
1.68276e-06
3.31608e-08
1.68835e-06
3.31061e-08
1.69391e-06
3.30622e-08
1.69943e-06
3.30276e-08
1.70491e-06
3.30007e-08
1.71037e-06
3.29844e-08
3.29677e-08
7.11185e-07
-1.72966e-09
1.18182e-07
7.04606e-07
-1.58736e-09
1.1827e-07
6.979e-07
-1.51372e-09
1.1831e-07
6.91131e-07
-1.50191e-09
1.18312e-07
6.84367e-07
-1.53695e-09
1.18292e-07
6.77662e-07
-1.60688e-09
1.18262e-07
6.71047e-07
-1.70181e-09
1.18231e-07
6.6455e-07
-1.81244e-09
1.18201e-07
6.58179e-07
-1.9367e-09
1.18173e-07
6.51933e-07
-2.06915e-09
1.18147e-07
-2.22562e-09
1.18121e-07
1.14426e-06
-8.37942e-09
1.03059e-07
1.14438e-06
-8.25918e-09
1.03108e-07
1.14438e-06
-8.19356e-09
1.0312e-07
1.14427e-06
-8.17491e-09
1.03108e-07
1.14409e-06
-8.19283e-09
1.03081e-07
1.14385e-06
-8.23775e-09
1.03048e-07
1.14358e-06
-8.30046e-09
1.03015e-07
1.14328e-06
-8.37846e-09
1.02983e-07
1.14297e-06
-8.4681e-09
1.02958e-07
1.14266e-06
-8.56495e-09
1.0294e-07
-8.68744e-09
1.02928e-07
1.4421e-06
-1.58341e-08
8.37445e-08
1.44593e-06
-1.58299e-08
8.37063e-08
1.44969e-06
-1.58492e-08
8.36663e-08
1.45341e-06
-1.58845e-08
8.36274e-08
1.4571e-06
-1.59298e-08
8.35913e-08
1.46077e-06
-1.59839e-08
8.35581e-08
1.46441e-06
-1.60449e-08
8.35285e-08
1.46803e-06
-1.61101e-08
8.35049e-08
1.47164e-06
-1.61767e-08
8.34898e-08
1.47523e-06
-1.6234e-08
8.34896e-08
-1.62978e-08
8.34999e-08
1.6547e-06
-2.26456e-08
5.98465e-08
1.66053e-06
-2.27114e-08
5.97786e-08
1.66631e-06
-2.27804e-08
5.97207e-08
1.67203e-06
-2.28485e-08
5.96708e-08
1.67771e-06
-2.2913e-08
5.96285e-08
1.68336e-06
-2.29736e-08
5.95941e-08
1.68898e-06
-2.30306e-08
5.95673e-08
1.69456e-06
-2.30831e-08
5.95481e-08
1.70012e-06
-2.31293e-08
5.95382e-08
1.70566e-06
-2.31639e-08
5.954e-08
-2.31986e-08
5.95481e-08
1.78415e-06
-2.82033e-08
3.20354e-08
1.79111e-06
-2.82418e-08
3.198e-08
1.79799e-06
-2.82794e-08
3.19317e-08
1.8048e-06
-2.8315e-08
3.18909e-08
1.81154e-06
-2.83472e-08
3.1857e-08
1.81821e-06
-2.83761e-08
3.18295e-08
1.82484e-06
-2.84017e-08
3.18076e-08
1.83142e-06
-2.84238e-08
3.17911e-08
1.83795e-06
-2.84419e-08
3.17799e-08
1.84445e-06
-2.84549e-08
3.17747e-08
-2.84664e-08
3.17716e-08
1.82701e-06
1.97236e-09
1.83437e-06
1.94282e-09
1.84162e-06
1.91481e-09
1.84878e-06
1.88895e-09
1.85587e-06
1.8657e-09
1.86288e-06
1.84503e-09
1.86983e-06
1.82669e-09
1.87673e-06
1.81054e-09
1.88358e-06
1.79651e-09
1.89039e-06
1.78537e-09
1.77398e-09
7.76791e-07
8.3236e-09
1.16669e-07
7.69755e-07
8.48105e-09
1.16825e-07
7.62553e-07
8.59382e-09
1.16919e-07
7.55237e-07
8.65718e-09
1.16971e-07
7.47858e-07
8.67542e-09
1.16995e-07
7.4046e-07
8.65702e-09
1.17003e-07
7.33079e-07
8.60951e-09
1.17002e-07
7.25744e-07
8.54075e-09
1.16995e-07
7.18479e-07
8.45477e-09
1.16983e-07
7.11291e-07
8.35594e-09
1.16979e-07
8.2243e-09
1.17006e-07
1.20687e-06
9.81596e-09
1.01261e-07
1.20698e-06
9.95294e-09
1.0153e-07
1.20691e-06
1.00646e-08
1.01718e-07
1.20669e-06
1.01381e-08
1.01845e-07
1.20635e-06
1.01721e-08
1.01928e-07
1.2059e-06
1.01764e-08
1.01976e-07
1.20537e-06
1.0158e-08
1.01996e-07
1.20477e-06
1.01207e-08
1.01998e-07
1.20413e-06
1.00635e-08
1.01991e-07
1.20345e-06
9.98913e-09
1.01985e-07
9.86591e-09
1.01974e-07
1.49581e-06
8.44771e-09
8.10313e-08
1.49979e-06
8.46624e-09
8.12163e-08
1.50368e-06
8.47251e-09
8.13622e-08
1.50751e-06
8.4692e-09
8.14723e-08
1.51126e-06
8.45846e-09
8.15517e-08
1.51495e-06
8.43922e-09
8.16065e-08
1.51858e-06
8.41088e-09
8.16421e-08
1.52217e-06
8.3746e-09
8.16632e-08
1.52572e-06
8.329e-09
8.16742e-08
1.52925e-06
8.28089e-09
8.16727e-08
8.21026e-09
8.16596e-08
1.70106e-06
5.59697e-09
5.64566e-08
1.70721e-06
5.55065e-09
5.65468e-08
1.71327e-06
5.50413e-09
5.66263e-08
1.71926e-06
5.45921e-09
5.6692e-08
1.72519e-06
5.41723e-09
5.67438e-08
1.73106e-06
5.37788e-09
5.6785e-08
1.73688e-06
5.34032e-09
5.68182e-08
1.74265e-06
5.3043e-09
5.68448e-08
1.74838e-06
5.26972e-09
5.68653e-08
1.75408e-06
5.23957e-09
5.68779e-08
5.20341e-09
5.68867e-08
1.82704e-06
1.96518e-09
2.82106e-08
1.83439e-06
1.9365e-09
2.82426e-08
1.84164e-06
1.90897e-09
2.82741e-08
1.8488e-06
1.88327e-09
2.83041e-08
1.85589e-06
1.85986e-09
2.83318e-08
1.8629e-06
1.83884e-09
2.83572e-08
1.86984e-06
1.82015e-09
2.83807e-08
1.87673e-06
1.8038e-09
2.84022e-08
1.88357e-06
1.78988e-09
2.84214e-08
1.89037e-06
1.77905e-09
2.84372e-08
1.7682e-09
2.84526e-08
1.86961e-06
-1.95491e-09
1.87736e-06
-1.92927e-09
1.885e-06
-1.90485e-09
1.89255e-06
-1.88212e-09
1.9e-06
-1.86135e-09
1.90738e-06
-1.84239e-09
1.91469e-06
-1.82495e-09
1.92193e-06
-1.80891e-09
1.92912e-06
-1.79428e-09
1.93626e-06
-1.7818e-09
-1.76846e-09
7.51571e-07
1.78808e-08
1.06166e-07
7.44146e-07
1.78891e-08
1.06361e-07
7.36677e-07
1.78912e-08
1.06497e-07
7.29172e-07
1.78788e-08
1.06597e-07
7.21645e-07
1.78518e-08
1.06671e-07
7.14111e-07
1.7812e-08
1.06725e-07
7.06585e-07
1.77568e-08
1.06771e-07
6.99085e-07
1.7697e-08
1.06798e-07
6.91615e-07
1.76174e-08
1.06836e-07
6.84186e-07
1.75165e-08
1.06891e-07
1.74015e-08
1.06963e-07
1.17715e-06
2.74452e-08
9.20127e-08
1.17676e-06
2.74143e-08
9.23911e-08
1.1763e-06
2.73945e-08
9.26747e-08
1.17576e-06
2.73765e-08
9.28877e-08
1.17514e-06
2.73559e-08
9.30451e-08
1.17443e-06
2.73332e-08
9.31617e-08
1.17365e-06
2.73092e-08
9.32276e-08
1.17279e-06
2.72795e-08
9.32763e-08
1.17188e-06
2.72265e-08
9.32896e-08
1.17093e-06
2.71476e-08
9.33073e-08
2.70657e-08
9.33285e-08
1.45998e-06
3.2218e-08
7.26608e-08
1.46354e-06
3.21149e-08
7.29586e-08
1.46706e-06
3.20332e-08
7.32062e-08
1.47054e-06
3.19683e-08
7.33985e-08
1.47399e-06
3.19167e-08
7.354e-08
1.4774e-06
3.18741e-08
7.3651e-08
1.48078e-06
3.1838e-08
7.37379e-08
1.48411e-06
3.18057e-08
7.38045e-08
1.4874e-06
3.17709e-08
7.3838e-08
1.49065e-06
3.17401e-08
7.38348e-08
3.17e-08
7.38331e-08
1.66008e-06
3.35352e-08
4.93148e-08
1.66584e-06
3.34157e-08
4.9484e-08
1.67155e-06
3.33146e-08
4.96372e-08
1.67721e-06
3.32307e-08
4.97687e-08
1.68283e-06
3.31624e-08
4.98778e-08
1.68841e-06
3.31071e-08
4.99705e-08
1.69396e-06
3.30623e-08
5.00515e-08
1.69946e-06
3.30266e-08
5.01207e-08
1.70492e-06
3.29986e-08
5.01726e-08
1.71036e-06
3.29809e-08
5.01995e-08
3.29629e-08
5.02183e-08
1.7842e-06
3.20306e-08
2.26544e-08
1.79116e-06
3.19788e-08
2.27128e-08
1.79804e-06
3.19336e-08
2.27752e-08
1.80485e-06
3.18948e-08
2.28378e-08
1.81158e-06
3.18622e-08
2.2898e-08
1.81825e-06
3.18351e-08
2.29555e-08
1.82487e-06
3.18133e-08
2.3011e-08
1.83144e-06
3.17963e-08
2.30636e-08
1.83796e-06
3.17844e-08
2.31116e-08
1.84446e-06
3.1778e-08
2.31496e-08
3.17739e-08
2.31888e-08
1.82704e-06
-5.58284e-09
1.83439e-06
-5.53986e-09
1.84164e-06
-5.49695e-09
1.84881e-06
-5.45554e-09
1.85589e-06
-5.41668e-09
1.8629e-06
-5.37983e-09
1.86985e-06
-5.34382e-09
1.87675e-06
-5.3083e-09
1.88359e-06
-5.27298e-09
1.89039e-06
-5.24104e-09
-5.20179e-09
6.3115e-07
2.54672e-08
8.80214e-08
6.24035e-07
2.53053e-08
8.81704e-08
6.17062e-07
2.51796e-08
8.82904e-08
6.10183e-07
2.50759e-08
8.8399e-08
6.03365e-07
2.4985e-08
8.85043e-08
5.96595e-07
2.48994e-08
8.85947e-08
5.89873e-07
2.48258e-08
8.86667e-08
5.83213e-07
2.47513e-08
8.87066e-08
5.7664e-07
2.46831e-08
8.8726e-08
5.70193e-07
2.45965e-08
8.87413e-08
5.63881e-07
2.4449e-08
8.88258e-08
2.42674e-08
8.89313e-08
1.04851e-06
4.25416e-08
7.61954e-08
1.04739e-06
4.23262e-08
7.64987e-08
1.04636e-06
4.21671e-08
7.67145e-08
1.04539e-06
4.20463e-08
7.68904e-08
1.04443e-06
4.19586e-08
7.70239e-08
1.04346e-06
4.18925e-08
7.71394e-08
1.04244e-06
4.18671e-08
7.72073e-08
1.04136e-06
4.18245e-08
7.72852e-08
1.04021e-06
4.18049e-08
7.73148e-08
1.03898e-06
4.17784e-08
7.73568e-08
1.03766e-06
4.17104e-08
7.7385e-08
7.74174e-08
1.32917e-06
5.33432e-08
5.92805e-08
1.33182e-06
5.31003e-08
5.95295e-08
1.33455e-06
5.29078e-08
5.97403e-08
1.33734e-06
5.27652e-08
5.98934e-08
1.34017e-06
5.26673e-08
5.99945e-08
1.34303e-06
5.25952e-08
6.00942e-08
1.34589e-06
5.25435e-08
6.01999e-08
1.34871e-06
5.25054e-08
6.02983e-08
1.35153e-06
5.24919e-08
6.03392e-08
1.35428e-06
5.25127e-08
6.03505e-08
5.2518e-08
6.03444e-08
1.5287e-06
5.89475e-08
3.89672e-08
1.53345e-06
5.8743e-08
3.90956e-08
1.53819e-06
5.85742e-08
3.92232e-08
1.54295e-06
5.84404e-08
3.93385e-08
1.54772e-06
5.83388e-08
3.94386e-08
1.55249e-06
5.82615e-08
3.95339e-08
1.55725e-06
5.82024e-08
3.96296e-08
1.56199e-06
5.81604e-08
3.97221e-08
1.56672e-06
5.81391e-08
3.97961e-08
1.57144e-06
5.81446e-08
3.98482e-08
5.81591e-08
3.98665e-08
1.65481e-06
5.98461e-08
1.58489e-08
1.66065e-06
5.97843e-08
1.58375e-08
1.66642e-06
5.97307e-08
1.58505e-08
1.67213e-06
5.96835e-08
1.58802e-08
1.6778e-06
5.9642e-08
1.59211e-08
1.68344e-06
5.96069e-08
1.59719e-08
1.68905e-06
5.95782e-08
1.6031e-08
1.69462e-06
5.95564e-08
1.60956e-08
1.70016e-06
5.95432e-08
1.6163e-08
1.70569e-06
5.95416e-08
1.62226e-08
5.95462e-08
1.62901e-08
1.70107e-06
-8.42779e-09
1.70722e-06
-8.44944e-09
1.71328e-06
-8.4594e-09
1.71927e-06
-8.45998e-09
1.7252e-06
-8.45302e-09
1.73107e-06
-8.43716e-09
1.73689e-06
-8.41129e-09
1.74267e-06
-8.37654e-09
1.7484e-06
-8.33114e-09
1.75411e-06
-8.28198e-09
-8.20896e-09
4.39327e-07
3.04556e-08
6.2746e-08
4.34385e-07
3.02835e-08
6.28291e-08
4.29608e-07
3.01471e-08
6.29195e-08
4.24961e-07
3.00223e-08
6.30238e-08
4.20411e-07
2.99136e-08
6.3141e-08
4.15941e-07
2.98049e-08
6.32595e-08
4.1153e-07
2.97109e-08
6.33666e-08
4.07165e-07
2.963e-08
6.34418e-08
4.02815e-07
2.9603e-08
6.34732e-08
3.98503e-07
2.95207e-08
6.35323e-08
3.94324e-07
2.93231e-08
6.36812e-08
2.90684e-08
6.38769e-08
8.29359e-07
5.38395e-08
5.47655e-08
8.27628e-07
5.35845e-08
5.49289e-08
8.26061e-07
5.34213e-08
5.50065e-08
8.24602e-07
5.33082e-08
5.50636e-08
8.23197e-07
5.32494e-08
5.50937e-08
8.21789e-07
5.31952e-08
5.51562e-08
8.20337e-07
5.31514e-08
5.52188e-08
8.18843e-07
5.31123e-08
5.52968e-08
8.17291e-07
5.31216e-08
5.53483e-08
8.15682e-07
5.30997e-08
5.53867e-08
8.13926e-07
5.30838e-08
5.53808e-08
5.53571e-08
1.10764e-06
7.02469e-08
4.16658e-08
1.10901e-06
6.99567e-08
4.1792e-08
1.1105e-06
6.974e-08
4.19304e-08
1.11208e-06
6.96084e-08
4.20137e-08
1.11372e-06
6.95469e-08
4.20574e-08
1.11539e-06
6.95015e-08
4.21172e-08
1.11713e-06
6.94597e-08
4.21554e-08
1.11884e-06
6.94281e-08
4.22689e-08
1.12054e-06
6.94525e-08
4.23067e-08
1.12217e-06
6.94893e-08
4.23344e-08
6.95483e-08
4.23454e-08
1.3101e-06
8.02076e-08
2.60057e-08
1.31314e-06
7.9984e-08
2.60313e-08
1.31621e-06
7.9799e-08
2.60953e-08
1.31931e-06
7.96585e-08
2.61845e-08
1.32245e-06
7.95609e-08
2.62838e-08
1.32562e-06
7.94889e-08
2.63813e-08
1.3288e-06
7.94328e-08
2.64697e-08
1.33198e-06
7.93938e-08
2.65764e-08
1.33518e-06
7.9384e-08
2.667e-08
1.33835e-06
7.94025e-08
2.67647e-08
7.94527e-08
2.68199e-08
1.44232e-06
8.37442e-08
8.41258e-09
1.44614e-06
8.37142e-08
8.2899e-09
1.44989e-06
8.36795e-08
8.22024e-09
1.45358e-06
8.36431e-08
8.19641e-09
1.45725e-06
8.36072e-08
8.2087e-09
1.46089e-06
8.35722e-08
8.24846e-09
1.46451e-06
8.35395e-08
8.30678e-09
1.4681e-06
8.35114e-08
8.38136e-09
1.47169e-06
8.34919e-08
8.46871e-09
1.47527e-06
8.34863e-08
8.5641e-09
8.34917e-08
8.68682e-09
1.49586e-06
-9.78862e-09
1.49984e-06
-9.92416e-09
1.50373e-06
-1.00366e-08
1.50755e-06
-1.01133e-08
1.5113e-06
-1.01514e-08
1.51498e-06
-1.01599e-08
1.51861e-06
-1.01453e-08
1.52219e-06
-1.01115e-08
1.52573e-06
-1.00561e-08
1.52925e-06
-9.98281e-09
-9.85983e-09
2.26696e-07
3.23247e-08
3.34399e-08
2.2382e-07
3.22048e-08
3.34994e-08
2.21065e-07
3.21383e-08
3.35361e-08
2.18418e-07
3.21118e-08
3.3559e-08
2.15862e-07
3.21111e-08
3.35861e-08
2.13406e-07
3.2089e-08
3.36263e-08
2.11032e-07
3.20711e-08
3.36697e-08
2.08732e-07
3.20305e-08
3.37111e-08
2.06444e-07
3.20188e-08
3.37417e-08
2.04175e-07
3.20196e-08
3.37822e-08
2.01969e-07
3.2038e-08
3.3849e-08
3.20579e-08
3.39285e-08
5.34001e-07
6.05459e-08
2.97062e-08
5.30941e-07
6.04092e-08
2.97843e-08
5.27929e-07
6.03848e-08
2.97719e-08
5.24947e-07
6.04299e-08
2.97279e-08
5.21962e-07
6.04875e-08
2.97025e-08
5.18979e-07
6.04981e-08
2.97296e-08
5.1599e-07
6.0517e-08
2.97624e-08
5.13002e-07
6.04818e-08
2.98328e-08
5.10009e-07
6.04803e-08
2.98799e-08
5.06994e-07
6.04969e-08
2.99245e-08
5.0393e-07
6.05451e-08
2.99377e-08
2.99171e-08
8.00105e-07
8.22833e-08
2.12243e-08
7.98924e-07
8.21084e-08
2.12739e-08
7.97821e-07
8.19664e-08
2.14515e-08
7.96718e-07
8.18859e-08
2.16607e-08
7.95607e-07
8.18531e-08
2.18028e-08
7.94458e-07
8.18411e-08
2.19236e-08
7.9324e-07
8.1881e-08
2.20097e-08
7.91996e-07
8.18628e-08
2.2131e-08
7.90692e-07
8.18912e-08
2.22005e-08
7.89313e-07
8.1925e-08
2.22848e-08
8.19946e-08
2.23745e-08
1.00475e-06
9.66818e-08
1.18101e-08
1.00454e-06
9.65548e-08
1.17885e-08
1.00433e-06
9.6435e-08
1.18413e-08
1.0041e-06
9.63283e-08
1.1973e-08
1.00386e-06
9.624e-08
1.21356e-08
1.00361e-06
9.61737e-08
1.22989e-08
1.00336e-06
9.61367e-08
1.24597e-08
1.00309e-06
9.61072e-08
1.26005e-08
1.00281e-06
9.61036e-08
1.27362e-08
1.00251e-06
9.61105e-08
1.28809e-08
9.61376e-08
1.30143e-08
1.14449e-06
1.03034e-07
1.78802e-09
1.1446e-06
1.03088e-07
1.64967e-09
1.14458e-06
1.03106e-07
1.57443e-09
1.14445e-06
1.03097e-07
1.55747e-09
1.14424e-06
1.03072e-07
1.58505e-09
1.14397e-06
1.0304e-07
1.64678e-09
1.14368e-06
1.03006e-07
1.73358e-09
1.14336e-06
1.02972e-07
1.83651e-09
1.14303e-06
1.02943e-07
1.95423e-09
1.1427e-06
1.02923e-07
2.08214e-09
1.02907e-07
2.23492e-09
1.20695e-06
-8.29279e-09
1.20705e-06
-8.44459e-09
1.20698e-06
-8.55501e-09
1.20675e-06
-8.6189e-09
1.2064e-06
-8.6399e-09
1.20595e-06
-8.6255e-09
1.20541e-06
-8.58323e-09
1.20481e-06
-8.51965e-09
1.20415e-06
-8.43884e-09
1.20347e-06
-8.34399e-09
-8.21496e-09
7.14227e-08
3.45111e-08
7.03949e-08
3.45272e-08
6.94057e-08
3.45252e-08
6.84495e-08
3.45152e-08
6.75179e-08
3.45177e-08
6.66209e-08
3.45233e-08
6.57563e-08
3.45342e-08
6.49316e-08
3.45358e-08
6.41255e-08
3.45478e-08
6.33379e-08
3.45697e-08
6.25777e-08
3.46092e-08
3.46575e-08
2.12758e-07
6.68156e-08
2.10185e-07
6.68853e-08
2.07625e-07
6.68563e-08
2.0509e-07
6.67789e-08
2.02589e-07
6.67204e-08
2.00168e-07
6.66747e-08
1.97819e-07
6.6645e-08
1.95578e-07
6.66097e-08
1.93402e-07
6.66037e-08
1.91309e-07
6.65872e-08
1.89305e-07
6.6551e-08
3.95195e-07
9.23835e-08
3.90895e-07
9.24589e-08
3.86745e-07
9.24582e-08
3.8279e-07
9.23944e-08
3.78967e-07
9.23464e-08
3.7525e-07
9.23147e-08
3.71626e-07
9.2279e-08
3.68099e-07
9.22674e-08
3.64668e-07
9.22355e-08
3.61351e-07
9.21892e-08
9.21333e-08
5.72742e-07
1.09971e-07
5.66977e-07
1.10012e-07
5.61267e-07
1.10009e-07
5.55661e-07
1.09974e-07
5.50206e-07
1.09937e-07
5.44915e-07
1.09905e-07
5.39778e-07
1.09876e-07
5.34789e-07
1.09857e-07
5.29928e-07
1.09833e-07
5.25199e-07
1.098e-07
1.09751e-07
7.1107e-07
1.1812e-07
7.04528e-07
1.18204e-07
6.97864e-07
1.18247e-07
6.9114e-07
1.18256e-07
6.84419e-07
1.18243e-07
6.77752e-07
1.1822e-07
6.71168e-07
1.18192e-07
6.64696e-07
1.18165e-07
6.58344e-07
1.18138e-07
6.52114e-07
1.18112e-07
1.18087e-07
7.76799e-07
7.69782e-07
7.62602e-07
7.5531e-07
7.47953e-07
7.40575e-07
7.33211e-07
7.25889e-07
7.18633e-07
7.11451e-07
)
;

boundaryField
{
    inlet
    {
        type            calculated;
        value           nonuniform List<scalar> 0();
    }
    ami1
    {
        type            cyclicAMI;
        value           nonuniform List<scalar> 0();
    }
    walls
    {
        type            calculated;
        value           nonuniform List<scalar> 
248
(
2.90979e-14
2.43942e-14
1.84387e-14
1.28555e-14
6.40674e-15
2.90979e-14
2.43942e-14
1.84387e-14
1.28555e-14
6.40674e-15
2.90979e-14
2.43942e-14
1.84387e-14
1.28555e-14
6.40674e-15
2.90979e-14
2.43942e-14
1.84387e-14
1.28555e-14
6.40674e-15
2.90979e-14
2.43942e-14
1.84387e-14
1.28555e-14
6.40674e-15
2.90979e-14
2.43942e-14
1.84387e-14
1.28555e-14
6.40674e-15
2.90979e-14
2.43942e-14
1.84387e-14
1.28555e-14
6.40674e-15
2.90979e-14
2.43942e-14
1.84387e-14
1.28555e-14
6.40674e-15
2.90979e-14
2.43942e-14
1.84387e-14
1.28555e-14
6.40674e-15
2.90979e-14
2.43942e-14
1.84387e-14
1.28555e-14
6.40674e-15
2.90979e-14
2.43942e-14
1.84387e-14
1.28555e-14
6.40674e-15
-2.90979e-14
-2.43942e-14
-1.84387e-14
-1.28555e-14
-6.40674e-15
-8.83532e-22
-2.90979e-14
-2.43942e-14
-1.84387e-14
-1.28555e-14
-6.40674e-15
-8.83532e-22
-2.90979e-14
-2.43942e-14
-1.84387e-14
-1.28555e-14
-6.40674e-15
-8.83532e-22
-2.90979e-14
-2.43942e-14
-1.84387e-14
-1.28555e-14
-6.40674e-15
-2.95119e-22
-2.90979e-14
-2.43942e-14
-1.84387e-14
-1.28555e-14
-6.40674e-15
-8.8371e-22
-2.90979e-14
-2.43942e-14
-1.84387e-14
-1.28555e-14
-6.40674e-15
-8.8371e-22
-2.90979e-14
-2.43942e-14
-1.84387e-14
-1.28555e-14
-6.40674e-15
-8.8371e-22
-2.90979e-14
-2.43942e-14
-1.84387e-14
-1.28555e-14
-6.40674e-15
-8.8371e-22
-2.90979e-14
-2.43942e-14
-1.84387e-14
-1.28555e-14
-6.40674e-15
-8.8371e-22
-2.90979e-14
-2.43942e-14
-1.84387e-14
-1.28555e-14
-6.40674e-15
-8.8371e-22
-2.90979e-14
-2.43942e-14
-1.84387e-14
-1.28555e-14
-6.40674e-15
-2.95976e-22
-2.90979e-14
-2.43942e-14
-2.90979e-14
-2.43942e-14
-1.84387e-14
-1.28555e-14
-6.40674e-15
-8.83532e-22
6.40674e-15
1.28555e-14
1.84387e-14
2.43942e-14
2.90979e-14
-2.90979e-14
-2.43942e-14
-1.84387e-14
-1.28555e-14
-6.40674e-15
-8.83532e-22
6.40674e-15
1.28555e-14
1.84387e-14
2.43942e-14
2.90979e-14
-2.90979e-14
-2.43942e-14
-1.84387e-14
-1.28555e-14
-6.40674e-15
-8.83532e-22
6.40674e-15
1.28555e-14
1.84387e-14
2.43942e-14
2.90979e-14
-2.90979e-14
-2.43942e-14
-1.84387e-14
-1.28555e-14
-6.40674e-15
-2.95119e-22
6.40674e-15
1.28555e-14
1.84387e-14
2.43942e-14
2.90979e-14
-2.90979e-14
-2.43942e-14
-1.84387e-14
-1.28555e-14
-6.40674e-15
-8.8371e-22
6.40674e-15
1.28555e-14
1.84387e-14
2.43942e-14
2.90979e-14
-2.90979e-14
-2.43942e-14
-1.84387e-14
-1.28555e-14
-6.40674e-15
-8.8371e-22
6.40674e-15
1.28555e-14
1.84387e-14
2.43942e-14
2.90979e-14
-2.90979e-14
-2.43942e-14
-1.84387e-14
-1.28555e-14
-6.40674e-15
-8.8371e-22
6.40674e-15
1.28555e-14
1.84387e-14
2.43942e-14
2.90979e-14
-2.90979e-14
-2.43942e-14
-1.84387e-14
-1.28555e-14
-6.40674e-15
-8.8371e-22
6.40674e-15
1.28555e-14
1.84387e-14
2.43942e-14
2.90979e-14
-2.90979e-14
-2.43942e-14
-1.84387e-14
-1.28555e-14
-6.40674e-15
-8.8371e-22
6.40674e-15
1.28555e-14
1.84387e-14
2.43942e-14
2.90979e-14
-2.90979e-14
-2.43942e-14
-1.84387e-14
-1.28555e-14
-6.40674e-15
-8.8371e-22
6.40674e-15
1.28555e-14
1.84387e-14
2.43942e-14
2.90979e-14
-2.90979e-14
-2.43942e-14
-1.84387e-14
-1.28555e-14
-6.40674e-15
-2.95976e-22
6.40674e-15
1.28555e-14
1.84387e-14
2.43942e-14
2.90979e-14
1.28555e-14
1.84387e-14
2.43942e-14
2.90979e-14
)
;
    }
    ami2
    {
        type            cyclicAMI;
        value           nonuniform List<scalar> 0();
    }
    outlet
    {
        type            calculated;
        value           nonuniform List<scalar> 0();
    }
    procBoundary8to0
    {
        type            processor;
        value           nonuniform List<scalar> 
29
(
-7.25832e-08
-2.29921e-07
-4.44565e-07
-6.38522e-07
-7.58937e-07
-2.15638e-07
-5.37159e-07
-8.31014e-07
-1.0496e-06
-1.17739e-06
-3.99941e-07
-8.00973e-07
-1.10592e-06
-1.32632e-06
-1.45628e-06
-5.78866e-07
-1.00451e-06
-1.30666e-06
-1.52373e-06
-1.65416e-06
-7.17573e-07
-1.14398e-06
-1.4382e-06
-1.64879e-06
-1.77709e-06
-1.81956e-06
-1.69482e-06
-1.81958e-06
-1.86176e-06
)
;
    }
    procBoundary8to1
    {
        type            processor;
        value           nonuniform List<scalar> 
33
(
-7.83603e-07
-1.20656e-06
-1.49173e-06
-7.58948e-07
-1.17746e-06
-1.45638e-06
-1.65426e-06
-1.77714e-06
-1.81958e-06
-6.38474e-07
-1.04977e-06
-1.32659e-06
-1.52396e-06
-1.64891e-06
-1.69483e-06
-4.44508e-07
-8.31313e-07
-1.10644e-06
-1.3071e-06
-1.43842e-06
-1.49178e-06
-2.29715e-07
-5.37163e-07
-8.01401e-07
-1.00495e-06
-1.14422e-06
-1.20664e-06
-7.2494e-08
-2.15357e-07
-3.99538e-07
-5.78519e-07
-7.17431e-07
-7.83599e-07
)
;
    }
    procBoundary8to7
    {
        type            processor;
        value           nonuniform List<scalar> 
68
(
6.25607e-08
2.01923e-07
3.94225e-07
5.63692e-07
6.76525e-07
1.89264e-07
5.03833e-07
8.13794e-07
1.03751e-06
1.16981e-06
3.58044e-07
7.8772e-07
1.12362e-06
1.35689e-06
1.49385e-06
5.20439e-07
1.0021e-06
1.34144e-06
1.57612e-06
1.71579e-06
6.45818e-07
1.14235e-06
1.47881e-06
1.71118e-06
1.85092e-06
1.89715e-06
7.04183e-07
1.20277e-06
1.53274e-06
1.75975e-06
1.89712e-06
1.94335e-06
6.76827e-07
-1.07026e-07
1.16991e-06
-9.33376e-08
1.49384e-06
1.71577e-06
1.85091e-06
1.89715e-06
5.57708e-07
1.03625e-06
4.15954e-08
1.35696e-06
1.57615e-06
1.7112e-06
1.75978e-06
3.9031e-07
8.11995e-07
5.306e-08
1.1237e-06
1.34149e-06
1.47883e-06
1.53275e-06
1.99859e-07
5.008e-07
6.06281e-08
7.87835e-07
1.00218e-06
1.14238e-06
1.20277e-06
6.18488e-08
1.8737e-07
6.65097e-08
3.58143e-07
5.20596e-07
6.46012e-07
7.04347e-07
)
;
    }
    procBoundary8to9
    {
        type            processor;
        value           nonuniform List<scalar> 
132
(
-1.16623e-07
-1.1679e-07
-1.16897e-07
-1.16959e-07
-1.16992e-07
-1.17005e-07
-1.17007e-07
-1.17001e-07
-1.1699e-07
-1.16988e-07
-1.17021e-07
-1.01229e-07
-1.01508e-07
-1.01707e-07
-1.01844e-07
-1.01934e-07
-1.01988e-07
-1.02012e-07
-1.02016e-07
-1.0201e-07
-1.02001e-07
-1.01984e-07
-8.10271e-08
-8.12213e-08
-8.13756e-08
-8.14927e-08
-8.15773e-08
-8.16359e-08
-8.16731e-08
-8.16939e-08
-8.17031e-08
-8.16968e-08
-8.16756e-08
-5.64554e-08
-5.65542e-08
-5.66416e-08
-5.67139e-08
-5.67706e-08
-5.68149e-08
-5.68495e-08
-5.68758e-08
-5.68943e-08
-5.69033e-08
-5.69065e-08
-5.602e-09
-5.55544e-09
-5.50918e-09
-5.46498e-09
-5.42412e-09
-5.38608e-09
-5.34966e-09
-5.31445e-09
-5.28006e-09
-5.24997e-09
-5.21305e-09
-3.20286e-08
-3.19795e-08
-3.19378e-08
-3.19029e-08
-3.18741e-08
-3.18505e-08
-3.18313e-08
-3.18163e-08
-3.18051e-08
-3.17981e-08
-3.17919e-08
-1.96406e-09
-1.9381e-09
-1.91372e-09
-1.89124e-09
-1.87088e-09
-1.85248e-09
-1.83571e-09
-1.82037e-09
-1.80634e-09
-1.79427e-09
-1.78102e-09
2.82022e-08
2.8238e-08
2.82723e-08
2.83043e-08
2.83332e-08
2.83591e-08
2.83825e-08
2.84035e-08
2.84218e-08
2.84364e-08
2.84507e-08
5.64499e-08
5.65465e-08
5.66303e-08
5.66987e-08
5.67517e-08
5.67928e-08
5.68249e-08
5.68494e-08
5.68671e-08
5.68763e-08
5.68823e-08
8.10212e-08
8.1214e-08
8.13644e-08
8.14767e-08
8.15573e-08
8.16118e-08
8.16465e-08
8.16649e-08
8.16725e-08
8.16662e-08
8.16492e-08
1.01233e-07
1.01506e-07
1.01697e-07