/*--------------------------------*- C++ -*----------------------------------*\
| =========                 |                                                 |
| \\      /  F ield         | OpenFOAM: The Open Source CFD Toolbox           |
|  \\    /   O peration     | Version:  2212                                  |
|   \\  /    A nd           | Website:  www.openfoam.com                      |
|    \\/     M anipulation  |                                                 |
\*---------------------------------------------------------------------------*/
FoamFile
{
    version     2.0;
    format      ascii;
    arch        "LSB;label=32;scalar=64";
    class       volScalarField;
    location    "2.95";
    object      k;
}
// * * * * * * * * * * * * * * * * * * * * * * * * * * * * * * * * * * * * * //

dimensions      [0 2 -2 0 0 0 0];

internalField   nonuniform List<scalar> 
678
(
0.00183762
0.00181706
0.00179667
0.00177733
0.00175887
0.0015763
0.00155685
0.00153821
0.00152036
0.00150324
0.00154876
0.00152766
0.0015071
0.00148761
0.001469
0.00150241
0.00147981
0.00145743
0.0014362
0.00141629
0.00139761
0.00147689
0.00145387
0.00143108
0.00140947
0.00138947
0.00137018
0.00145205
0.00142925
0.00140803
0.0013874
0.00136616
0.00134705
0.00132885
0.00142883
0.00140639
0.0013859
0.00136492
0.00134555
0.00132729
0.00131121
0.00141187
0.00139026
0.00137121
0.00135308
0.00133526
0.00131819
0.0013019
0.00141793
0.00139873
0.00138053
0.00136328
0.00134668
0.00133095
0.00131601
0.00148446
0.00146616
0.00144874
0.00143215
0.00141634
0.00140128
0.00183793
0.00181746
0.00179724
0.00177812
0.00175978
0.00174222
0.00148443
0.00146594
0.00144837
0.00143166
0.00141559
0.00140012
0.000967968
0.000941514
0.000916859
0.000894268
0.000873437
0.00119455
0.00115887
0.00112284
0.00109172
0.00106
0.00103202
0.00133461
0.00129356
0.00125318
0.00121781
0.00118197
0.00115002
0.00140043
0.00135715
0.00131493
0.00127755
0.00123989
0.00120488
0.00142477
0.00138171
0.00134239
0.00130368
0.00126282
0.00122305
0.0013909
0.0013457
0.0013022
0.00126086
0.00122075
0.00118292
0.00127478
0.00123154
0.00118823
0.00114845
0.00110818
0.00107374
0.00103946
0.00108697
0.00105128
0.00101535
0.000983905
0.000951852
0.000924341
0.000898773
0.000966372
0.000940263
0.000915826
0.000893627
0.000872599
0.000853457
0.000836349
0.0015764
0.00155716
0.00153867
0.00152095
0.00150404
0.00148795
0.0014181
0.00139861
0.00138016
0.00136271
0.00134588
0.00133003
0.00131479
0.00109014
0.00105362
0.00101693
0.000984919
0.000952058
0.000924982
0.00135008
0.00130095
0.00125288
0.00120968
0.00116614
0.00112803
0.00154995
0.00149194
0.00143674
0.00138523
0.0013346
0.00128909
0.0016702
0.00160705
0.00154716
0.00149062
0.00143638
0.00138579
0.00171761
0.00165287
0.00159144
0.00153316
0.00147719
0.00142431
0.00168435
0.00161996
0.00155879
0.00150075
0.0014451
0.00139236
0.00155336
0.00149424
0.00143685
0.00138352
0.00133113
0.00128366
0.00134846
0.00129979
0.00125178
0.00120899
0.00116593
0.00112784
0.00119315
0.00115774
0.00112205
0.00109136
0.00106005
0.00103233
0.00100531
0.00154908
0.00152808
0.00150769
0.00148835
0.00146993
0.00145245
0.00141255
0.00139033
0.00137083
0.00135252
0.00133451
0.00131724
0.00130073
0.00127979
0.00123445
0.00119021
0.00114976
0.00110868
0.00107366
0.00103857
0.00155533
0.00149556
0.00143833
0.00138454
0.00133178
0.00128396
0.00178722
0.00171763
0.00165155
0.00158879
0.00152904
0.00147252
0.00193264
0.00185715
0.00178564
0.00171771
0.00165325
0.00159193
0.00198533
0.00190779
0.00183438
0.00176455
0.00169861
0.00163544
0.00193862
0.00186289
0.00179113
0.00172282
0.0016586
0.00178703
0.00171746
0.00165151
0.00158878
0.00152944
0.00147259
0.00155005
0.00149199
0.00143701
0.00138566
0.00133567
0.00128979
0.00133442
0.00129341
0.00125371
0.0012186
0.00118324
0.00115092
0.00150292
0.00148037
0.0014582
0.0014371
0.00141741
0.00139876
0.00142903
0.00140638
0.00138563
0.00136448
0.0013451
0.00132639
0.00139383
0.00134746
0.00130342
0.00126169
0.00122133
0.0011831
0.00168585
0.00162133
0.00156002
0.00150171
0.00144633
0.00193926
0.00186353
0.00179166
0.00172349
0.00165895
0.00210272
0.00201988
0.00194149
0.00186726
0.00179699
0.00216014
0.00207487
0.00199425
0.00191786
0.00184586
0.00210266
0.00201985
0.00194151
0.00186718
0.00179719
0.00193317
0.00185774
0.0017863
0.0017184
0.00165457
0.00167125
0.00160816
0.00154848
0.00149198
0.00143845
0.00140122
0.00135789
0.00131694
0.0012793
0.00124168
0.00147759
0.00145463
0.00143196
0.00141052
0.00139065
0.00137144
0.00145189
0.00142901
0.00140772
0.00138703
0.00136587
0.0013466
0.00142584
0.00138232
0.00134311
0.00130434
0.0012635
0.00122275
0.00171852
0.00165362
0.00159207
0.00153384
0.00198607
0.00190849
0.00183491
0.00176571
0.00216045
0.00207513
0.00199445
0.00191849
0.00222142
0.00213352
0.00205043
0.00197188
0.0018977
0.00216036
0.00207511
0.0019945
0.00191812
0.00184618
0.00198605
0.00190858
0.00183522
0.00176552
0.00169994
0.00171888
0.00165426
0.00159301
0.00153485
0.00147943
0.00142621
0.00138319
0.00134409
0.0013058
0.00126498
0.00145281
0.00143007
0.00140892
0.00138844
0.0013674
0.00150136
0.00147667
0.00145358
0.00143083
0.00140955
0.00138926
0.0014479
0.00140103
0.00135697
0.00131678
0.00127764
0.00124102
0.00173708
0.00167036
0.00160721
0.00154753
0.00149082
0.0014372
0.00201283
0.00193295
0.00185751
0.00178603
0.00171841
0.00165421
0.00219066
0.00210281
0.00201997
0.00194159
0.00186748
0.0017973
0.00216036
0.00207504
0.00199439
0.00191803
0.00184612
0.00210276
0.00201996
0.00194163
0.00186734
0.00179742
0.00193907
0.00186343
0.00179176
0.00172359
0.00165953
0.0016854
0.0016212
0.00156028
0.00150232
0.00144739
0.00139231
0.00134756
0.00130434
0.00126353
0.00122316
0.00142965
0.00140729
0.00138687
0.00136606
0.00134679
0.00152586
0.00150198
0.00147939
0.00145732
0.00143611
0.00141644
0.00137686
0.00133222
0.00129245
0.00125289
0.00121712
0.00118243
0.00161074
0.0015487
0.00149091
0.00143658
0.00138401
0.001336
0.00186053
0.00178704
0.00171745
0.00165167
0.00158894
0.00153033
0.00201915
0.00193904
0.00186337
0.00179172
0.00172365
0.00165965
0.00198578
0.00190826
0.0018349
0.00176526
0.0016998
0.00193286
0.00185746
0.00178608
0.00171828
0.00165459
0.00178693
0.0017175
0.00165173
0.001589
0.00153038
0.00155409
0.00149516
0.00143798
0.00138453
0.00133408
0.00127664
0.00123361
0.00119065
0.00115103
0.00111154
0.00141284
0.00139129
0.00137226
0.0013542
0.00133651
0.00157006
0.00154819
0.00152715
0.00150687
0.00148751
0.00146913
0.00123157
0.00119229
0.00115547
0.00112269
0.00108964
0.00106062
0.00140256
0.00134925
0.00129869
0.00125348
0.00120804
0.00116822
0.00161852
0.00155506
0.00149464
0.00143867
0.00138376
0.0013343
0.00175333
0.00168559
0.00162129
0.00156034
0.00150225
0.00144751
0.00171827
0.00165354
0.00159223
0.00153409
0.00147886
0.00167052
0.00160746
0.00154782
0.00149137
0.00143802
0.00154923
0.00149135
0.00143656
0.00138513
0.00133649
0.00134876
0.00129998
0.00125253
0.0012093
0.00116826
0.00108893
0.00105317
0.00101783
0.000985417
0.000955723
0.001419
0.00139983
0.00138167
0.00136439
0.00134791
0.00159553
0.00157554
0.00155649
0.00153817
0.0015206
0.00150371
0.000993941
0.000965888
0.000940058
0.000916726
0.000894442
0.000874791
0.00113187
0.00109128
0.00105221
0.00101872
0.000984262
0.000956051
0.00132864
0.00127983
0.00123377
0.00119182
0.00114958
0.00111309
0.00144319
0.00139427
0.00134807
0.00130444
0.00126292
0.00122335
0.00142537
0.00138239
0.00134225
0.00130452
0.00126398
0.00140032
0.00135698
0.00131572
0.00127821
0.00124075
0.00133348
0.00129245
0.00125292
0.00121795
0.00118292
0.00119325
0.00115642
0.00112318
0.0010906
0.00106082
0.000967788
0.00094131
0.000917394
0.000894464
0.000874214
0.00148531
0.00146703
0.00144964
0.00143303
0.00141712
0.00185882
0.00183778
0.00181709
0.0017973
0.0017781
0.00175992
0.00150346
0.00148431
0.00146621
0.00144902
0.00143254
0.00141675
0.00143956
0.00141894
0.00139952
0.0013813
0.00143762
0.00141313
0.00139113
0.00137183
0.00135354
0.00145364
0.00142972
0.0014071
0.00138635
0.00136562
0.00145224
0.00142945
0.00140817
0.00138746
0.00136684
0.00147678
0.00145381
0.00143111
0.00140973
0.00138979
0.00150213
0.00147971
0.00145746
0.00143661
0.00141671
0.00154862
0.0015276
0.00150731
0.00148801
0.00146963
0.00157648
0.00155722
0.00153877
0.00152109
0.00150412
0.00183856
0.00181802
0.00179796
0.00177864
0.00176044
)
;

boundaryField
{
    inlet
    {
        type            fixedValue;
        value           nonuniform List<scalar> 0();
    }
    ami1
    {
        type            cyclicAMI;
        value           nonuniform List<scalar> 0();
    }
    walls
    {
        type            kqRWallFunction;
        value           nonuniform List<scalar> 
250
(
0.00183762
0.0015763
0.00154876
0.00150241
0.00147689
0.00145205
0.00142883
0.00141187
0.00141793
0.00148446
0.00183793
0.00181706
0.00155685
0.00152766
0.00147981
0.00145387
0.00142925
0.00140639
0.00139026
0.00139873
0.00146616
0.00181746
0.00179667
0.00153821
0.0015071
0.00145743
0.00143108
0.00140803
0.0013859
0.00137121
0.00138053
0.00144874
0.00179724
0.00177733
0.00152036
0.00148761
0.0014362
0.00140947
0.0013874
0.00136492
0.00135308
0.00136328
0.00143215
0.00177812
0.00175887
0.00150324
0.001469
0.00141629
0.00138947
0.00136616
0.00134555
0.00133526
0.00134668
0.00141634
0.00175978
0.00139761
0.00137018
0.00134705
0.00132729
0.00131819
0.00133095
0.00140128
0.00174222
0.00132885
0.00131121
0.0013019
0.00131601
0.00183793
0.0015764
0.00154908
0.00150292
0.00147759
0.00145281
0.00142965
0.00141284
0.001419
0.00148531
0.00183856
0.00181746
0.00155716
0.00152808
0.00148037
0.00145463
0.00143007
0.00140729
0.00139129
0.00139983
0.00146703
0.00181802
0.00179724
0.00153867
0.00150769
0.0014582
0.00143196
0.00140892
0.00138687
0.00137226
0.00138167
0.00144964
0.00179796
0.00177812
0.00152095
0.00148835
0.0014371
0.00141052
0.00138844
0.00136606
0.0013542
0.00136439
0.00143303
0.00177864
0.00175978
0.00150404
0.00146993
0.00141741
0.00139065
0.0013674
0.00134679
0.00133651
0.00134791
0.00141712
0.00176044
0.00174222
0.00148795
0.00145245
0.00139876
0.00137144
0.00185882
0.00150346
0.00143956
0.00143762
0.00145364
0.00183778
0.00148431
0.00141894
0.00141313
0.00142972
0.00145224
0.00147678
0.00150213
0.00154862
0.00157648
0.00183856
0.00181709
0.00146621
0.00139952
0.00139113
0.0014071
0.00142945
0.00145381
0.00147971
0.0015276
0.00155722
0.00181802
0.0017973
0.00144902
0.0013813
0.00137183
0.00138635
0.00140817
0.00143111
0.00145746
0.00150731
0.00153877
0.00179796
0.0017781
0.00143254
0.00135354
0.00136562
0.00138746
0.00140973
0.00143661
0.00148801
0.00152109
0.00177864
0.00175992
0.00141675
0.00136684
0.00138979
0.00141671
0.00146963
0.00150412
0.00176044
0.00150136
0.00152586
0.00157006
0.00159553
0.00185882
0.00183762
0.00148443
0.0014181
0.00141255
0.00142903
0.00145189
0.00147667
0.00150198
0.00154819
0.00157554
0.00183778
0.00181706
0.00146594
0.00139861
0.00139033
0.00140638
0.00142901
0.00145358
0.00147939
0.00152715
0.00155649
0.00181709
0.00179667
0.00144837
0.00138016
0.00137083
0.00138563
0.00140772
0.00143083
0.00145732
0.00150687
0.00153817
0.0017973
0.00177733
0.00143166
0.00136271
0.00135252
0.00136448
0.00138703
0.00140955
0.00143611
0.00148751
0.0015206
0.0017781
0.00175887
0.00141559
0.00134588
0.00133451
0.0013451
0.00136587
0.00138926
0.00141644
0.00146913
0.00150371
0.00175992
0.00140012
0.00133003
0.00131724
0.00132639
0.0013466
0.00131479
0.00130073
)
;
    }
    ami2
    {
        type            cyclicAMI;
        value           nonuniform List<scalar> 0();
    }
    outlet
    {
        type            zeroGradient;
    }
    procBoundary5to6
    {
        type            processor;
        value           nonuniform List<scalar> 
177
(
0.00174083
0.00174083
0.00148688
0.00145137
0.00145137
0.00145137
0.00138006
0.00135205
0.00135205
0.00131263
0.00118599
0.00129578
0.00114701
0.00128633
0.0013014
0.00138701
0.00138701
0.00138701
0.00172566
0.00138556
0.000851358
0.00138556
0.000851358
0.000851358
0.000851358
0.00100411
0.0011189
0.00117101
0.00118599
0.00114701
0.00114701
0.00100648
0.00123651
0.000871407
0.0010905
0.00081769
0.0014726
0.0014726
0.00129992
0.000896994
0.000896994
0.000896994
0.00108947
0.00124367
0.00133632
0.00137254
0.00134042
0.00159572
0.00123651
0.0010905
0.0010905
0.00097904
0.00143586
0.00112041
0.00143586
0.00128487
0.00131024
0.00100453
0.00123593
0.00114555
0.00123593
0.00139223
0.00141637
0.00159544
0.00153159
0.00172851
0.00157337
0.00159572
0.0017759
0.00159572
0.00159572
0.00141662
0.00159207
0.00124462
0.00138716
0.00112041
0.00120709
0.00138145
0.00131024
0.00114555
0.00139223
0.00139223
0.0014774
0.00159544
0.00169834
0.00172851
0.00184524
0.0017759
0.00172916
0.00159207
0.00138716
0.00120709
0.00120709
0.0013535
0.00134864
0.00132791
0.00137018
0.0014774
0.00118563
0.00142282
0.00120536
0.0014774
0.0014774
0.00169834
0.00169834
0.00184524
0.00184524
0.00184524
0.00182574
0.0017764
0.00163593
0.00142605
0.00122582
0.00134864
0.00137018
0.00120536
0.00138549
0.00159127
0.00172905
0.00177634
0.00172951
0.00159688
0.0013946
0.00118622
0.00132854
0.00139768
0.00115063
0.0012889
0.0014725
0.00159698
0.00163585
0.00159228
0.00147262
0.00128527
0.00107665
0.00131961
0.00145171
0.00103182
0.00112818
0.00128492
0.00139458
0.00142551
0.00138691
0.00128984
0.00112899
0.000925565
0.00133213
0.00148759
0.000852969
0.00136363
0.000925711
0.00134719
0.00107583
0.00133576
0.00118545
0.00134546
0.00122484
0.0012063
0.00115118
0.00103224
0.000852596
0.0014019
0.00174192
0.00136363
0.00140141
0.00134719
0.00136363
0.00136363
0.00133576
0.00134546
0.00134546
0.00134686
0.00137055
0.0013984
0.00145229
0.00148803
0.00174264
)
;
    }
    procBoundary5to7
    {
        type            processor;
        value           nonuniform List<scalar> 
131
(
0.00186037
0.00159676
0.00157084
0.00152631
0.00150151
0.00147616
0.00145286
0.00143623
0.00143885
0.00150433
0.00186025
0.0015048
0.00100237
0.00123599
0.00137758
0.00144738
0.00146955
0.0014412
0.001326
0.0011317
0.000999459
0.00159664
0.00143952
0.00113633
0.00140576
0.00161156
0.00173712
0.00178555
0.00175251
0.00161853
0.00140384
0.00123436
0.00157104
0.00143734
0.00133116
0.00162065
0.00186117
0.00201245
0.00206725
0.00201866
0.00186075
0.00161152
0.00137727
0.00152667
0.00145343
0.00144429
0.00175439
0.00201944
0.00219046
0.00225045
0.00219033
0.00201285
0.00173799
0.0014488
0.00150209
0.00147622
0.00147622
0.00147048
0.00147048
0.00178684
0.00178684
0.00206809
0.00206809
0.00225082
0.00225082
0.00231452
0.00225062
0.00206786
0.00178664
0.0014707
0.00147681
0.00152764
0.00149698
0.00180761
0.0020975
0.00228387
0.00225072
0.00225072
0.00219039
0.00201898
0.00175331
0.00144247
0.0014536
0.00155084
0.00142111
0.00167585
0.00193875
0.00210418
0.00206777
0.00206777
0.0020125
0.00186047
0.00161892
0.00132748
0.00143716
0.00159279
0.00127279
0.00145952
0.00168685
0.00182497
0.00178641
0.00178641
0.00173724
0.0016106
0.00140376
0.00113326
0.00143991
0.00161654
0.00102936
0.00117781
0.00138148
0.00149547
0.00147063
0.00147063
0.00144789
0.00137597
0.00123359
0.00100054
0.00150522
0.00188202
0.00152473
0.00146217
0.00146308
0.00147922
0.00147647
0.00147647
0.00150142
0.0015259
0.00157047
0.00159664
0.00186081
)
;
    }
}


// ************************************************************************* //
