/*--------------------------------*- C++ -*----------------------------------*\
| =========                 |                                                 |
| \\      /  F ield         | OpenFOAM: The Open Source CFD Toolbox           |
|  \\    /   O peration     | Version:  2212                                  |
|   \\  /    A nd           | Website:  www.openfoam.com                      |
|    \\/     M anipulation  |                                                 |
\*---------------------------------------------------------------------------*/
FoamFile
{
    version     2.0;
    format      ascii;
    arch        "LSB;label=32;scalar=64";
    class       surfaceVectorField;
    location    "2.95";
    object      Uf;
}
// * * * * * * * * * * * * * * * * * * * * * * * * * * * * * * * * * * * * * //

dimensions      [0 1 -1 0 0 0 0];

internalField   nonuniform List<vector> 
1755
(
(0.0228525 -4.0669e-05 1.08135e-05)
(0.0292912 -9.48344e-05 -4.06842e-05)
(0.0283007 -3.51901e-05 3.58451e-05)
(0.0226245 -3.88155e-05 9.47929e-06)
(0.0290126 -9.15648e-05 -4.01191e-05)
(0.0280374 -3.51434e-05 3.40904e-05)
(0.0224049 -3.63932e-05 7.84146e-06)
(0.0287392 -8.63302e-05 -3.99064e-05)
(0.027779 -3.45577e-05 3.17385e-05)
(0.022195 -3.40852e-05 6.15628e-06)
(0.028477 -8.0546e-05 -3.9508e-05)
(0.027531 -3.38966e-05 2.92553e-05)
(0.0282273 -7.4699e-05 -3.88325e-05)
(0.0272943 -3.37847e-05 2.64999e-05)
(0.0386092 -0.00015511 -0.000110928)
(0.0454829 -0.000182733 -0.000232365)
(0.0519761 -0.000167808 -8.34746e-05)
(0.0382556 -0.000146491 -0.000107666)
(0.0450786 -0.000172535 -0.000222756)
(0.0515985 -0.000167645 -8.42744e-05)
(0.0379158 -0.00013649 -0.000104497)
(0.0446782 -0.000159427 -0.000211176)
(0.0512205 -0.000164925 -8.54806e-05)
(0.0375898 -0.000126654 -0.00010109)
(0.0442965 -0.000145407 -0.000197536)
(0.0508578 -0.000162451 -8.72405e-05)
(0.0439268 -0.000134174 -0.000185014)
(0.0504997 -0.000157941 -8.82878e-05)
(0.0535887 -0.000192252 -0.000369841)
(0.0579786 -0.00021507 -0.000548274)
(0.0703992 -0.000250431 -0.000422302)
(0.0531209 -0.000183573 -0.000351579)
(0.057464 -0.000206361 -0.000520981)
(0.0700324 -0.000248893 -0.000410662)
(0.052666 -0.000172048 -0.000328618)
(0.0569583 -0.00019138 -0.000479369)
(0.0696599 -0.000247618 -0.000398983)
(0.052228 -0.000159411 -0.000304243)
(0.0564854 -0.000173894 -0.000436072)
(0.0693005 -0.000244809 -0.000384932)
(0.0560225 -0.000159606 -0.000401616)
(0.0689367 -0.000240276 -0.000370439)
(0.0624238 -0.000241268 -0.000722982)
(0.0650402 -0.000224423 -0.00083191)
(0.079911 -0.000277005 -0.000780596)
(0.0618668 -0.000222634 -0.000669831)
(0.0644547 -0.000217716 -0.000794188)
(0.0795358 -0.000272865 -0.000749387)
(0.0613364 -0.000196196 -0.000604779)
(0.0638866 -0.000202636 -0.000741666)
(0.0791676 -0.000264167 -0.000709515)
(0.0608344 -0.000173368 -0.000549124)
(0.0633568 -0.000185482 -0.000689897)
(0.0788145 -0.000252195 -0.000667795)
(0.060355 -0.000157646 -0.00050853)
(0.0628377 -0.000171583 -0.000649117)
(0.0784624 -0.000243132 -0.000634144)
(0.0623448 -0.000159944 -0.000616588)
(0.0781238 -0.000237382 -0.000608361)
(0.0672378 -0.000224437 -0.000908881)
(0.0678593 -0.000213231 -0.000910548)
(0.0845165 -0.000292054 -0.000976077)
(0.066645 -0.000215329 -0.00087257)
(0.0672828 -0.000200854 -0.000874379)
(0.0841405 -0.000287742 -0.000945571)
(0.066073 -0.00020353 -0.000834473)
(0.0667228 -0.000183235 -0.000838953)
(0.0837728 -0.000281702 -0.000914664)
(0.0655222 -0.00019099 -0.000798408)
(0.0661862 -0.000163867 -0.000806238)
(0.0834176 -0.000273966 -0.000883518)
(0.064991 -0.000179235 -0.000766045)
(0.0656574 -0.000147922 -0.000775514)
(0.0830666 -0.000265814 -0.000854822)
(0.0651469 -0.000135815 -0.000744442)
(0.0827276 -0.000258955 -0.000828936)
(0.0679118 -0.000182404 -0.000876633)
(0.0665427 -0.00013287 -0.000806886)
(0.0851279 -0.000270603 -0.000968074)
(0.0673713 -0.00016714 -0.000840557)
(0.0660301 -0.000121748 -0.000769202)
(0.084797 -0.000261028 -0.000936506)
(0.0668442 -0.000149494 -0.000809529)
(0.0655299 -0.000110189 -0.000737093)
(0.0844739 -0.000249093 -0.000908688)
(0.0663284 -0.000132136 -0.00078148)
(0.0650401 -9.9845e-05 -0.00070957)
(0.0841565 -0.000235644 -0.000882212)
(0.0658231 -0.000117057 -0.000751903)
(0.0645576 -9.14484e-05 -0.000672188)
(0.0838431 -0.000222962 -0.000855595)
(0.06533 -0.000105135 -0.000718421)
(0.0640925 -8.33004e-05 -0.000621258)
(0.0835376 -0.000211926 -0.000826437)
(0.0636459 -7.55665e-05 -0.000571772)
(0.064699 -6.8134e-05 -0.000702728)
(0.0615979 -2.93828e-05 -0.000544022)
(0.0823281 -0.000146702 -0.000804428)
(0.0642233 -6.07035e-05 -0.000668966)
(0.061159 -2.66025e-05 -0.000516318)
(0.0820503 -0.000137772 -0.000776762)
(0.0637587 -5.50639e-05 -0.000640644)
(0.0607214 -2.54825e-05 -0.000492747)
(0.0817768 -0.000129778 -0.000750583)
(0.0633028 -5.17098e-05 -0.000604333)
(0.0602945 -2.52785e-05 -0.000471951)
(0.0815064 -0.000122657 -0.000727924)
(0.0628603 -5.00015e-05 -0.000545941)
(0.0598712 -2.70376e-05 -0.000441587)
(0.0812383 -0.000116834 -0.000697226)
(0.0624385 -4.79739e-05 -0.000478872)
(0.0594705 -2.98261e-05 -0.000399638)
(0.08098 -0.000111136 -0.000654444)
(0.0590798 -3.13098e-05 -0.000360751)
(0.0582868 -7.51566e-07 -0.000365531)
(0.0534375 1.23093e-05 -0.0003042)
(0.0764693 -9.36132e-07 -0.000542419)
(0.0578766 -3.40912e-06 -0.000347653)
(0.0530453 8.27865e-06 -0.000288891)
(0.0762158 2.55185e-06 -0.00052979)
(0.0574753 -7.46915e-06 -0.000331164)
(0.0526504 2.31841e-06 -0.000273582)
(0.0759552 3.07778e-06 -0.000513094)
(0.0570822 -1.23694e-05 -0.00031549)
(0.0522725 -3.84698e-06 -0.000259161)
(0.0756992 3.10049e-06 -0.000497206)
(0.0566973 -1.87436e-05 -0.000299923)
(0.0518965 -9.83037e-06 -0.000245974)
(0.0754379 3.84033e-06 -0.000487293)
(0.0563221 -2.53166e-05 -0.00028415)
(0.0515423 -1.78557e-05 -0.000232885)
(0.0751855 4.01659e-06 -0.000478759)
(0.0511958 -2.44638e-05 -0.000219737)
(0.0749271 3.95909e-06 -0.000464953)
(0.0488138 3.43202e-05 -0.000243173)
(0.0419598 2.31534e-05 -0.000163501)
(0.0665712 0.000117821 -0.000388116)
(0.048427 2.80238e-05 -0.000230501)
(0.0416163 1.94648e-05 -0.000156751)
(0.066259 0.000115341 -0.000382004)
(0.0480537 2.04202e-05 -0.000217175)
(0.0412754 1.42152e-05 -0.00014866)
(0.065938 0.000109408 -0.000371216)
(0.0476941 1.29506e-05 -0.00020483)
(0.0409514 8.5512e-06 -0.000140554)
(0.0656283 0.000102565 -0.000359739)
(0.0473472 5.87014e-06 -0.000194068)
(0.0406347 4.33455e-06 -0.000133881)
(0.0653132 9.67785e-05 -0.00035057)
(0.0470123 -1.13893e-06 -0.000183768)
(0.0403329 1.02495e-06 -0.000128891)
(0.0650121 9.22176e-05 -0.000345575)
(0.0647131 8.45852e-05 -0.000332919)
(0.0361493 -3.03783e-05 -6.54293e-05)
(0.0282989 -3.61742e-05 -3.55792e-05)
(0.0505895 4.23294e-05 -0.000139829)
(0.0358361 -3.04588e-05 -6.42086e-05)
(0.0280383 -3.42016e-05 -3.55735e-05)
(0.0502373 4.27326e-05 -0.000141308)
(0.0355358 -3.07326e-05 -6.26572e-05)
(0.027782 -3.20939e-05 -3.48706e-05)
(0.049884 4.23488e-05 -0.000140888)
(0.0352488 -3.02673e-05 -6.15384e-05)
(0.0275376 -2.9909e-05 -3.40299e-05)
(0.0495461 4.23139e-05 -0.000140446)
(0.0349729 -2.86093e-05 -6.15383e-05)
(0.0273029 -2.71242e-05 -3.36832e-05)
(0.0492105 4.34539e-05 -0.00014019)
(0.0270762 -2.39303e-05 -3.41616e-05)
(0.0488877 4.63104e-05 -0.000142002)
(0.0228535 -1.09847e-05 -4.07656e-05)
(0.0292907 3.97219e-05 -9.4042e-05)
(0.0226276 -9.77978e-06 -3.89309e-05)
(0.029015 3.90922e-05 -9.0735e-05)
(0.0224102 -8.38031e-06 -3.65192e-05)
(0.028744 3.87092e-05 -8.58422e-05)
(0.0222029 -6.8345e-06 -3.41844e-05)
(0.0284852 3.81244e-05 -8.02686e-05)
(0.0220046 -5.15344e-06 -3.22851e-05)
(0.0282369 3.7248e-05 -7.45356e-05)
(0.027998 3.65648e-05 -6.91988e-05)
(0.0361525 -6.49986e-05 2.95945e-05)
(0.0505957 -0.000139619 -4.45385e-05)
(0.0419655 -0.000165125 -2.57441e-05)
(0.035836 -6.38263e-05 2.99182e-05)
(0.0502394 -0.000141604 -4.46318e-05)
(0.0416176 -0.000157631 -2.08871e-05)
(0.0355323 -6.25896e-05 2.99506e-05)
(0.0498823 -0.000141612 -4.44766e-05)
(0.0412731 -0.000149493 -1.55942e-05)
(0.0352409 -6.21784e-05 2.91072e-05)
(0.0495394 -0.000142145 -4.51621e-05)
(0.0409444 -0.000141321 -9.99565e-06)
(0.0349588 -6.25566e-05 2.75247e-05)
(0.0491995 -0.000141648 -4.58633e-05)
(0.0406232 -0.000136264 -7.03884e-06)
(0.0403167 -0.00013175 -3.56404e-06)
(0.0683837 -0.000249371 -0.000141299)
(0.078439 -0.000331707 -0.000339506)
(0.0772062 -0.000418862 -0.000210861)
(0.0679695 -0.000252528 -0.000141497)
(0.0781049 -0.000331659 -0.000334462)
(0.0768794 -0.000422323 -0.000208994)
(0.0675603 -0.000254381 -0.00014206)
(0.0777597 -0.000331795 -0.000329807)
(0.0765401 -0.00041902 -0.000204414)
(0.0671567 -0.00025365 -0.000142248)
(0.0774236 -0.000333099 -0.000326266)
(0.0762105 -0.000414267 -0.000199708)
(0.0770739 -0.000329121 -0.000320388)
(0.0758676 -0.000409021 -0.000195174)
(0.0897424 -0.000364711 -0.000556262)
(0.0944292 -0.00034819 -0.000728618)
(0.0976711 -0.00054103 -0.00061423)
(0.0894887 -0.000368549 -0.000546471)
(0.0942246 -0.000353549 -0.00071048)
(0.0975667 -0.000545152 -0.000606801)
(0.0892254 -0.000373249 -0.000537619)
(0.0940105 -0.000361907 -0.000697712)
(0.097453 -0.000549683 -0.000598566)
(0.088955 -0.000375962 -0.000527814)
(0.0937887 -0.000367334 -0.000682898)
(0.0973302 -0.000552337 -0.00058911)
(0.0886773 -0.000377043 -0.000518321)
(0.0935513 -0.000367761 -0.000665592)
(0.0971933 -0.000553361 -0.000579165)
(0.0933155 -0.000368981 -0.000652308)
(0.0970535 -0.000554112 -0.000570371)
(0.0993651 -0.000350026 -0.000899363)
(0.10141 -0.000366673 -0.00101011)
(0.106719 -0.000469708 -0.000951483)
(0.0992079 -0.00035482 -0.000877568)
(0.101271 -0.000367023 -0.000982488)
(0.106717 -0.000474132 -0.000930513)
(0.0990372 -0.000360194 -0.000858262)
(0.101128 -0.000369597 -0.000962902)
(0.106709 -0.000482314 -0.000914155)
(0.0988544 -0.000361229 -0.00083528)
(0.100972 -0.000369306 -0.000940289)
(0.106686 -0.000486126 -0.000893861)
(0.0986622 -0.00036143 -0.000813599)
(0.100809 -0.000366346 -0.000914824)
(0.106655 -0.000490144 -0.000874997)
(0.100644 -0.000366236 -0.000893505)
(0.106616 -0.000494058 -0.000858298)
(0.103424 -0.000387296 -0.00109835)
(0.103722 -0.000381777 -0.00111821)
(0.110542 -0.000439272 -0.00114231)
(0.103301 -0.000386167 -0.00107277)
(0.103617 -0.000377438 -0.00109144)
(0.110578 -0.000441521 -0.00112019)
(0.103173 -0.000384768 -0.00104965)
(0.103511 -0.000373909 -0.00106813)
(0.110611 -0.000444569 -0.00110154)
(0.103039 -0.000381301 -0.00102443)
(0.103397 -0.000368814 -0.00104157)
(0.110635 -0.000446289 -0.00108152)
(0.102902 -0.000377462 -0.00099927)
(0.103284 -0.000361925 -0.00101258)
(0.110658 -0.000446823 -0.0010603)
(0.103171 -0.000356085 -0.000985461)
(0.110676 -0.000447049 -0.00103773)
(0.103921 -0.000373068 -0.00111122)
(0.102853 -0.000306453 -0.00103922)
(0.111126 -0.000359895 -0.00116531)
(0.103832 -0.000366938 -0.00108662)
(0.102781 -0.000299055 -0.00101829)
(0.111189 -0.000356437 -0.0011438)
(0.10374 -0.000359009 -0.00105994)
(0.102709 -0.000291123 -0.000993505)
(0.11125 -0.00035216 -0.00112333)
(0.103648 -0.000349673 -0.00102969)
(0.102634 -0.000281695 -0.00096738)
(0.111309 -0.000346563 -0.00109986)
(0.103556 -0.000340436 -0.000998736)
(0.102557 -0.000271861 -0.000942142)
(0.111369 -0.000339987 -0.00107495)
(0.10248 -0.000263215 -0.000917254)
(0.111428 -0.000333398 -0.00104717)
(0.101732 -0.00023024 -0.000948507)
(0.0992601 -0.00012013 -0.000851353)
(0.109292 -0.00016577 -0.00102716)
(0.101678 -0.000220475 -0.000927501)
(0.0991904 -0.00010973 -0.000842384)
(0.109378 -0.000156178 -0.00101231)
(0.101621 -0.000210421 -0.000903395)
(0.099116 -0.000100779 -0.000822513)
(0.109465 -0.000146307 -0.00099366)
(0.101562 -0.000200016 -0.000882322)
(0.0990376 -9.22464e-05 -0.000803009)
(0.109547 -0.000136022 -0.000975289)
(0.101498 -0.000189175 -0.000863425)
(0.0989518 -8.16217e-05 -0.000791708)
(0.109628 -0.000124885 -0.000958133)
(0.0988605 -6.88541e-05 -0.000783)
(0.109702 -0.00011357 -0.00093728)
(0.0968471 3.02453e-06 -0.000753309)
(0.0918182 0.000115026 -0.000663816)
(0.105006 0.000128086 -0.000835995)
(0.0967598 1.03679e-05 -0.000744401)
(0.0916582 0.000119905 -0.000664768)
(0.105059 0.000137783 -0.000834846)
(0.0966644 1.55604e-05 -0.000728152)
(0.091484 0.000120128 -0.000653714)
(0.105108 0.000144635 -0.000825649)
(0.0965612 2.19185e-05 -0.000717331)
(0.0913078 0.000119697 -0.000640703)
(0.105147 0.000151151 -0.000815644)
(0.0964476 3.01162e-05 -0.000714352)
(0.0911179 0.000120181 -0.000634186)
(0.10518 0.000159407 -0.000813829)
(0.0963249 3.76995e-05 -0.000708026)
(0.0909277 0.000121998 -0.000633215)
(0.1052 0.00016701 -0.000811993)
(0.0907247 0.000119677 -0.000619233)
(0.0870903 0.000216992 -0.000581353)
(0.0772015 0.000205741 -0.000418344)
(0.0962737 0.000397916 -0.000667612)
(0.0868506 0.000215507 -0.00057995)
(0.076879 0.000203941 -0.00042058)
(0.0961788 0.00039784 -0.000670642)
(0.0866027 0.000210593 -0.000571757)
(0.0765432 0.000198765 -0.000416288)
(0.0960707 0.000394727 -0.000669017)
(0.0863484 0.000205564 -0.000563256)
(0.0762167 0.000193397 -0.000410499)
(0.0959549 0.000389771 -0.000664535)
(0.0860877 0.000202538 -0.000559774)
(0.0758787 0.000189567 -0.000405541)
(0.0958256 0.000384952 -0.000660798)
(0.0858213 0.000197455 -0.000552235)
(0.0755522 0.000188097 -0.000405139)
(0.0956941 0.000381395 -0.000660707)
(0.0752234 0.000180319 -0.000391526)
(0.0683776 0.000137571 -0.000248431)
(0.0519717 8.14351e-05 -0.000167221)
(0.0784401 0.000333729 -0.000329422)
(0.0679687 0.000137559 -0.000250608)
(0.0515985 8.20808e-05 -0.000166547)
(0.0781093 0.00032866 -0.000328757)
(0.0675651 0.000137351 -0.000251261)
(0.0512247 8.30517e-05 -0.00016398)
(0.0777674 0.000324088 -0.000329039)
(0.067167 0.000137847 -0.000251202)
(0.0508666 8.41173e-05 -0.000160888)
(0.0774339 0.000319939 -0.000329545)
(0.066775 0.000139957 -0.000251669)
(0.0505121 8.5049e-05 -0.000157074)
(0.0770888 0.000315296 -0.000327737)
(0.0663888 0.000139992 -0.000247481)
(0.0501724 8.74306e-05 -0.000154625)
(0.0767528 0.000312054 -0.000325954)
(0.0764176 0.000303125 -0.000314853)
(0.0386096 0.000108905 -0.000153493)
(0.0454855 0.000228789 -0.000180594)
(0.03826 0.000105628 -0.000145451)
(0.0450854 0.000219429 -0.000171317)
(0.0379233 0.000102349 -0.000136066)
(0.0446887 0.000208037 -0.000159204)
(0.037601 9.84579e-05 -0.000126117)
(0.0443111 0.00019452 -0.000145821)
(0.0372928 9.4422e-05 -0.000116294)
(0.0439437 0.000181002 -0.000132988)
(0.0435945 0.000169276 -0.000121386)
(0.0488182 -0.000246066 -3.71817e-05)
(0.0665753 -0.000390727 -0.000122528)
(0.0534485 -0.000309451 -1.76555e-05)
(0.0484266 -0.00023247 -2.9861e-05)
(0.0662584 -0.000383896 -0.000119304)
(0.0530471 -0.000292759 -1.13732e-05)
(0.0480478 -0.000218833 -2.22899e-05)
(0.0659343 -0.00037373 -0.000113657)
(0.0526464 -0.000277254 -5.60749e-06)
(0.047683 -0.000206885 -1.51578e-05)
(0.0656218 -0.000362022 -0.000106801)
(0.0522637 -0.000262397 3.48347e-07)
(0.0473311 -0.000197406 -8.52321e-06)
(0.0653016 -0.000355214 -0.00010166)
(0.0518804 -0.000249069 7.15136e-06)
(0.0469915 -0.00018694 -9.58502e-07)
(0.0650004 -0.000349393 -9.61547e-05)
(0.051524 -0.000237106 1.49557e-05)
(0.0511674 -0.000223197 2.18913e-05)
(0.0870883 -0.000582336 -0.000222991)
(0.0962652 -0.000669034 -0.000404468)
(0.0918093 -0.00066474 -0.000120832)
(0.0868477 -0.000582435 -0.000222279)
(0.0961691 -0.000673862 -0.000405451)
(0.0916492 -0.000662985 -0.00012611)
(0.0865978 -0.000574914 -0.000217609)
(0.0960622 -0.000673094 -0.000402949)
(0.091478 -0.000655333 -0.000127201)
(0.0863424 -0.000567967 -0.000212833)
(0.0959469 -0.000668163 -0.000397624)
(0.0913022 -0.000643053 -0.000126501)
(0.0860804 -0.00056353 -0.000208814)
(0.0958176 -0.000665983 -0.000393199)
(0.0911128 -0.000638253 -0.000126636)
(0.0956869 -0.000662183 -0.000388042)
(0.0909227 -0.000634279 -0.000126615)
(0.106426 -0.000713468 -0.000606266)
(0.110394 -0.000633977 -0.000757378)
(0.110002 -0.000786816 -0.000442243)
(0.106483 -0.000720559 -0.000605566)
(0.110504 -0.000644032 -0.000751968)
(0.110133 -0.000791155 -0.000448036)
(0.106525 -0.000725549 -0.0006026)
(0.110608 -0.000654229 -0.000746898)
(0.110259 -0.000794869 -0.000452594)
(0.106555 -0.000728523 -0.000597721)
(0.110695 -0.000659779 -0.000737611)
(0.11037 -0.000794797 -0.000454415)
(0.106571 -0.000730865 -0.000592211)
(0.110777 -0.000667095 -0.000730874)
(0.110475 -0.000798419 -0.000455142)
(0.110845 -0.000672239 -0.000722862)
(0.110566 -0.000799278 -0.000454698)
(0.114781 -0.000579602 -0.000913827)
(0.116414 -0.000527052 -0.00100458)
(0.117995 -0.000619763 -0.000728259)
(0.114943 -0.000589426 -0.000903824)
(0.116599 -0.000534759 -0.000993014)
(0.11823 -0.000626673 -0.00072422)
(0.115098 -0.000598109 -0.000892189)
(0.11678 -0.000543957 -0.000982248)
(0.118461 -0.000635652 -0.000721995)
(0.115243 -0.000606793 -0.000880853)
(0.11695 -0.000550015 -0.00096819)
(0.118682 -0.000642312 -0.000716532)
(0.115377 -0.000616369 -0.000871501)
(0.117119 -0.00055928 -0.000958266)
(0.118902 -0.000651427 -0.000713056)
(0.117275 -0.000566394 -0.00094481)
(0.119107 -0.000654704 -0.000707083)
(0.118308 -0.000476448 -0.00108786)
(0.118538 -0.000397374 -0.00111378)
(0.121468 -0.000464505 -0.000900615)
(0.118512 -0.000483836 -0.00107544)
(0.118754 -0.000400514 -0.00109926)
(0.121741 -0.000470515 -0.000892444)
(0.118711 -0.00049086 -0.00106217)
(0.118968 -0.000404163 -0.00108572)
(0.12201 -0.000477015 -0.000884991)
(0.118905 -0.000497769 -0.00104946)
(0.119177 -0.000407378 -0.00107114)
(0.122275 -0.000483199 -0.000877157)
(0.119094 -0.000503897 -0.0010354)
(0.119386 -0.000410736 -0.00105857)
(0.122539 -0.000489879 -0.000870623)
(0.119588 -0.00041171 -0.00104021)
(0.122794 -0.000492805 -0.000858607)
(0.118989 -0.000327082 -0.00112435)
(0.118167 -0.000207159 -0.00108124)
(0.122245 -0.000258903 -0.000952259)
(0.119215 -0.000325951 -0.00110875)
(0.1184 -0.000201778 -0.00106708)
(0.122534 -0.000258587 -0.000940553)
(0.11944 -0.000324677 -0.00109407)
(0.118633 -0.00019655 -0.00105509)
(0.122821 -0.000258343 -0.000930339)
(0.119663 -0.000322773 -0.00107987)
(0.118863 -0.000190394 -0.00104257)
(0.123108 -0.000257911 -0.000920548)
(0.119884 -0.000319964 -0.00106315)
(0.119092 -0.00018303 -0.00103189)
(0.123394 -0.000257171 -0.000910747)
(0.119314 -0.000176285 -0.00101388)
(0.123675 -0.000255499 -0.000893968)
(0.117587 -7.74517e-05 -0.00102604)
(0.115649 9.95547e-05 -0.000951721)
(0.120992 2.6981e-05 -0.000887935)
(0.117829 -6.79397e-05 -0.00101547)
(0.11587 0.000110026 -0.000946706)
(0.121287 3.40629e-05 -0.00088086)
(0.118067 -5.81313e-05 -0.00100556)
(0.116092 0.000119455 -0.000941127)
(0.12158 4.13598e-05 -0.00087492)
(0.1183 -4.7662e-05 -0.000996287)
(0.116304 0.000128589 -0.00093533)
(0.121871 4.88185e-05 -0.000869683)
(0.11853 -3.68428e-05 -0.000984195)
(0.116515 0.000138992 -0.000934141)
(0.122161 5.56255e-05 -0.000863314)
(0.116711 0.000148842 -0.000927602)
(0.114006 0.000277435 -0.00087505)
(0.110022 0.000436237 -0.000786576)
(0.11759 0.000399535 -0.000768264)
(0.114212 0.00028671 -0.000874484)
(0.110149 0.000440618 -0.000790047)
(0.117843 0.000406028 -0.000772914)
(0.114409 0.000295009 -0.000872704)
(0.110273 0.000444802 -0.00079255)
(0.118096 0.000411863 -0.000775281)
(0.114596 0.000303426 -0.000874554)
(0.11038 0.000447233 -0.000793877)
(0.118338 0.000417391 -0.000778306)
(0.114774 0.0003109 -0.000877996)
(0.110481 0.000448034 -0.000797656)
(0.118579 0.000422281 -0.000784813)
(0.110568 0.000447802 -0.000800159)
(0.118805 0.000422728 -0.00078631)
(0.106444 0.000598046 -0.0007115)
(0.0976862 0.000605931 -0.000538696)
(0.110408 0.000749408 -0.000633809)
(0.106498 0.000596436 -0.000717329)
(0.0975818 0.000598172 -0.000542308)
(0.110517 0.000743453 -0.000643362)
(0.106538 0.000593464 -0.000722078)
(0.0974668 0.000589971 -0.000546652)
(0.110618 0.000738517 -0.000653152)
(0.106565 0.000588829 -0.000725305)
(0.0973431 0.000581019 -0.000549894)
(0.110704 0.000729736 -0.00065927)
(0.106578 0.000583474 -0.00072854)
(0.0972056 0.000571752 -0.000551596)
(0.110783 0.000721875 -0.000665721)
(0.0970632 0.000561815 -0.000552248)
(0.11085 0.000712606 -0.000671321)
(0.0897554 0.000548288 -0.000361885)
(0.0704088 0.000416065 -0.000248376)
(0.0944439 0.000720558 -0.000346782)
(0.0895024 0.00053877 -0.000366074)
(0.070045 0.000404652 -0.000247319)
(0.0942399 0.000703095 -0.000352764)
(0.0892398 0.000530223 -0.000371276)
(0.0696753 0.000393166 -0.00024669)
(0.0940262 0.000690508 -0.000361569)
(0.0889693 0.000520739 -0.000374701)
(0.0693179 0.00037935 -0.00024431)
(0.093804 0.000675421 -0.000367109)
(0.0886913 0.000510408 -0.000375415)
(0.068957 0.000364073 -0.000239385)
(0.0935677 0.000657451 -0.000368339)
(0.0884077 0.000497856 -0.000371485)
(0.0686094 0.00035011 -0.00023367)
(0.0933302 0.000642438 -0.000368866)
(0.0535983 0.000364714 -0.000190975)
(0.057992 0.000542014 -0.000214141)
(0.053135 0.000346841 -0.00018317)
(0.0574822 0.000515276 -0.000206033)
(0.0526842 0.000324293 -0.000172368)
(0.0569814 0.000474632 -0.000191916)
(0.0522504 0.000299686 -0.000159467)
(0.0565119 0.000431416 -0.000174448)
(0.0518332 0.000276848 -0.000146451)
(0.0560535 0.000396207 -0.00015967)
(0.0556198 0.000368538 -0.000147967)
(0.0582943 -0.000372419 -5.87127e-06)
(0.0764686 -0.000548028 -5.44746e-06)
(0.061607 -0.000552325 2.098e-05)
(0.057877 -0.000354024 -2.41376e-06)
(0.0762097 -0.000531898 -7.80029e-06)
(0.0611567 -0.000525878 1.77299e-05)
(0.0574679 -0.000336841 1.98369e-06)
(0.0759489 -0.000516933 -8.80278e-06)
(0.060713 -0.000502116 1.74166e-05)
(0.057068 -0.000320321 7.48023e-06)
(0.075691 -0.000500909 -8.89796e-06)
(0.060281 -0.000480399 1.80464e-05)
(0.0566774 -0.000304521 1.46558e-05)
(0.0754277 -0.000490891 -9.01999e-06)
(0.0598516 -0.000447621 2.10523e-05)
(0.0562976 -0.00028882 2.17151e-05)
(0.075173 -0.000482969 -8.9334e-06)
(0.0594463 -0.000404036 2.48393e-05)
(0.0749127 -0.00046955 -9.37599e-06)
(0.0968299 -0.000750827 -7.8694e-06)
(0.104985 -0.000836667 -0.000132913)
(0.0992409 -0.000852657 0.000115756)
(0.0967482 -0.000740881 -1.54229e-05)
(0.105043 -0.000831457 -0.000142314)
(0.0991762 -0.000837795 0.000106017)
(0.0966569 -0.000728503 -2.16109e-05)
(0.105097 -0.000825752 -0.000150307)
(0.0991077 -0.000822927 9.62635e-05)
(0.0965568 -0.000718986 -2.80752e-05)
(0.105139 -0.000815934 -0.00015652)
(0.099032 -0.000805652 8.70465e-05)
(0.096446 -0.000716206 -3.62312e-05)
(0.105177 -0.000814496 -0.000164555)
(0.0989519 -0.000793992 7.59866e-05)
(0.096325 -0.000710262 -4.46084e-05)
(0.1052 -0.000811939 -0.000172431)
(0.0988625 -0.000783477 6.25768e-05)
(0.113988 -0.000874128 -0.000281965)
(0.117576 -0.000766514 -0.000403933)
(0.115631 -0.000950762 -0.000102482)
(0.114196 -0.000874279 -0.000291888)
(0.117833 -0.000770457 -0.000410841)
(0.115857 -0.0009452 -0.000112699)
(0.114398 -0.000872057 -0.000299975)
(0.118088 -0.000773821 -0.000416808)
(0.11608 -0.000940373 -0.000122344)
(0.11459 -0.000872495 -0.000307749)
(0.118333 -0.000775407 -0.000421603)
(0.116297 -0.000933726 -0.000130582)
(0.114774 -0.000875116 -0.000315332)
(0.118578 -0.00078197 -0.000427201)
(0.116512 -0.000930432 -0.000140699)
(0.118808 -0.000782398 -0.000429005)
(0.121661 -0.000673562 -0.000539369)
(0.123183 -0.000569559 -0.000623135)
(0.123082 -0.000711145 -0.000345449)
(0.121968 -0.000679112 -0.000542259)
(0.123509 -0.000574185 -0.000622669)
(0.123413 -0.000711482 -0.000349604)
(0.122273 -0.000685453 -0.000544862)
(0.123831 -0.000579571 -0.000622538)
(0.123741 -0.000713443 -0.000353204)
(0.12257 -0.000692402 -0.000547403)
(0.124151 -0.000585532 -0.000622971)
(0.124066 -0.000715756 -0.000356531)
(0.122865 -0.000694859 -0.000547146)
(0.124469 -0.000592576 -0.000623447)
(0.124389 -0.000714958 -0.000361142)
(0.124777 -0.000591704 -0.000616899)
(0.125093 -0.000462023 -0.000710136)
(0.12536 -0.000322686 -0.000745198)
(0.12649 -0.000451954 -0.000512102)
(0.125435 -0.000466901 -0.000706471)
(0.125709 -0.000325562 -0.000739585)
(0.126857 -0.000453754 -0.000510386)
(0.125775 -0.000472332 -0.00070402)
(0.126055 -0.0003286 -0.000735011)
(0.127221 -0.000456438 -0.000509334)
(0.126112 -0.000478174 -0.000702336)
(0.126401 -0.00033211 -0.000732204)
(0.127585 -0.000459717 -0.000509526)
(0.126447 -0.000481175 -0.000696515)
(0.126746 -0.000335578 -0.000728252)
(0.127946 -0.000461581 -0.000510119)
(0.127085 -0.000335056 -0.000715193)
(0.12598 -0.000189608 -0.000774158)
(0.12526 -2.64202e-05 -0.000764636)
(0.127422 -0.000138807 -0.000591641)
(0.126334 -0.00019015 -0.0007677)
(0.125613 -2.41887e-05 -0.00075937)
(0.1278 -0.000138886 -0.000586946)
(0.126688 -0.000190837 -0.000762826)
(0.125964 -2.19874e-05 -0.000755383)
(0.128176 -0.000139131 -0.000583465)
(0.12704 -0.000191663 -0.000757781)
(0.126315 -1.99759e-05 -0.000753378)
(0.128552 -0.000139615 -0.0005815)
(0.127391 -0.00019184 -0.000746513)
(0.126665 -1.92581e-05 -0.00074664)
(0.128926 -0.000139952 -0.000577264)
(0.124898 0.000142427 -0.000751149)
(0.123088 0.000341913 -0.000712333)
(0.126388 0.000220005 -0.000602002)
(0.125249 0.000147248 -0.000748305)
(0.123417 0.000346268 -0.000713771)
(0.126759 0.000222508 -0.000599717)
(0.125599 0.000152072 -0.000747156)
(0.123744 0.000350309 -0.000716128)
(0.127128 0.000225279 -0.000599066)
(0.125947 0.00015589 -0.000743513)
(0.124067 0.000354328 -0.000719815)
(0.127497 0.000228168 -0.000599858)
(0.124389 0.00035739 -0.000720013)
(0.127864 0.000228627 -0.000595636)
(0.121666 0.000534821 -0.000675386)
(0.118003 0.000721792 -0.000620314)
(0.123184 0.000619002 -0.000570391)
(0.121972 0.000537811 -0.000681699)
(0.118237 0.000717889 -0.000627986)
(0.123508 0.0006186 -0.000575825)
(0.122274 0.000540749 -0.000688659)
(0.118467 0.000716151 -0.000637642)
(0.12383 0.000618791 -0.000582002)
(0.12257 0.000542622 -0.000695627)
(0.118685 0.000710899 -0.000644978)
(0.124148 0.000619294 -0.000588839)
(0.122862 0.000540396 -0.000697756)
(0.118903 0.000705404 -0.000652722)
(0.124463 0.000615338 -0.000594067)
(0.119106 0.000696921 -0.00065517)
(0.114791 0.000905603 -0.00057967)
(0.106733 0.000943115 -0.000469484)
(0.116419 0.00099699 -0.000526778)
(0.114952 0.000896144 -0.000590184)
(0.10673 0.00092273 -0.000474604)
(0.116603 0.000985597 -0.000534859)
(0.115104 0.000885166 -0.000599686)
(0.106721 0.00090679 -0.000483438)
(0.116782 0.000975129 -0.000544809)
(0.115247 0.000872927 -0.000607744)
(0.106697 0.000886459 -0.000487794)
(0.11695 0.000961542 -0.000551836)
(0.11538 0.000860951 -0.000615471)
(0.106666 0.000865727 -0.000490689)
(0.117117 0.000948405 -0.000559008)
(0.106626 0.000847099 -0.000493905)
(0.0993829 0.000891907 -0.000350374)
(0.0799301 0.000772676 -0.000276107)
(0.101425 0.00100082 -0.000365891)
(0.0992251 0.00087071 -0.000355875)
(0.0795573 0.000742545 -0.000272997)
(0.101286 0.000976463 -0.000367907)
(0.0990542 0.000850978 -0.000361579)
(0.0791922 0.000703558 -0.000265129)
(0.101142 0.000955845 -0.000370733)
(0.0988709 0.000826653 -0.000362507)
(0.0788402 0.000661418 -0.000253167)
(0.100987 0.000930735 -0.000370369)
(0.0986791 0.000803367 -0.000362523)
(0.0784909 0.000626325 -0.000243891)
(0.100825 0.000904696 -0.000367666)
(0.0781537 0.000599291 -0.000238617)
(0.0624471 0.000715939 -0.000240358)
(0.0650659 0.000824742 -0.000222813)
(0.0618947 0.000664018 -0.00022281)
(0.0644851 0.000786656 -0.000216765)
(0.0613684 0.000599645 -0.000196816)
(0.0639244 0.000734763 -0.000202198)
(0.0608705 0.000543547 -0.000173946)
(0.0633962 0.000683239 -0.000185313)
(0.060395 0.000502178 -0.000158779)
(0.0628821 0.000641892 -0.000172731)
(0.0623933 0.000608571 -0.000162193)
(0.0646959 -0.000713608 5.80021e-05)
(0.0823202 -0.000810823 0.000139953)
(0.0665405 -0.000814129 0.000122042)
(0.0642149 -0.000681325 5.05519e-05)
(0.0820404 -0.000783203 0.000130676)
(0.0660213 -0.000778374 0.000109959)
(0.063744 -0.000652619 4.61803e-05)
(0.0817663 -0.000758437 0.000122986)
(0.0655183 -0.000746579 9.95905e-05)
(0.0632823 -0.000613777 4.42964e-05)
(0.0814949 -0.000736187 0.000116672)
(0.0650238 -0.000718458 9.13401e-05)
(0.0628354 -0.000551665 4.34374e-05)
(0.0812277 -0.000703042 0.000111723)
(0.0645389 -0.000678619 8.40269e-05)
(0.0809688 -0.000657917 0.000106075)
(0.0640693 -0.000626371 7.5625e-05)
(0.101717 -0.000947856 0.000226721)
(0.109275 -0.00102762 0.000163017)
(0.102839 -0.0010412 0.000303199)
(0.101667 -0.000927053 0.00021696)
(0.109366 -0.0010101 0.000153906)
(0.102771 -0.00101767 0.000295992)
(0.101614 -0.00090619 0.000206744)
(0.109456 -0.000993712 0.000144059)
(0.1027 -0.000994717 0.000287768)
(0.10156 -0.000885294 0.000196432)
(0.109542 -0.000976662 0.000134081)
(0.102628 -0.000969076 0.000278697)
(0.101503 -0.00086363 0.000185459)
(0.109628 -0.000956571 0.000123379)
(0.102556 -0.000941664 0.000269557)
(0.102481 -0.000916222 0.000261223)
(0.117575 -0.00102462 7.59973e-05)
(0.120983 -0.000886564 -2.92597e-05)
(0.118157 -0.0010797 0.000205804)
(0.117819 -0.00101356 6.70262e-05)
(0.121279 -0.000878372 -3.57451e-05)
(0.118393 -0.00106525 0.000201359)
(0.11806 -0.00100399 5.77538e-05)
(0.121574 -0.000872599 -4.26732e-05)
(0.118626 -0.00105307 0.000196399)
(0.118296 -0.000993124 4.79892e-05)
(0.121867 -0.000866958 -4.95862e-05)
(0.118859 -0.00103945 0.000190931)
(0.122158 -0.000857239 -5.69398e-05)
(0.124893 -0.000749533 -0.000144843)
(0.126386 -0.000600905 -0.000222294)
(0.125255 -0.000763572 2.40847e-05)
(0.125245 -0.000745997 -0.000149276)
(0.126757 -0.000597817 -0.000224528)
(0.125609 -0.000757476 2.25663e-05)
(0.125596 -0.000743814 -0.000153788)
(0.127127 -0.000596855 -0.000227141)
(0.125961 -0.00075346 2.09359e-05)
(0.125944 -0.000737924 -0.000158362)
(0.127497 -0.000596453 -0.000230309)
(0.126313 -0.000746298 1.79545e-05)
(0.127863 -0.000590469 -0.000233091)
(0.128306 -0.000443188 -0.000304789)
(0.1286 -0.000264676 -0.000351687)
(0.128598 -0.000420259 -0.00010973)
(0.128697 -0.00044257 -0.000305159)
(0.128996 -0.000263837 -0.000350541)
(0.128995 -0.00041817 -0.000109471)
(0.129086 -0.000442937 -0.000306457)
(0.129391 -0.00026381 -0.000350216)
(0.129391 -0.00041719 -0.000109668)
(0.129475 -0.000441879 -0.000307886)
(0.129786 -0.000264053 -0.000350813)
(0.129785 -0.00041485 -0.00011148)
(0.130177 -0.00026212 -0.000349611)