/*--------------------------------*- C++ -*----------------------------------*\
| =========                 |                                                 |
| \\      /  F ield         | OpenFOAM: The Open Source CFD Toolbox           |
|  \\    /   O peration     | Version:  2212                                  |
|   \\  /    A nd           | Website:  www.openfoam.com                      |
|    \\/     M anipulation  |                                                 |
\*---------------------------------------------------------------------------*/
FoamFile
{
    version     2.0;
    format      ascii;
    arch        "LSB;label=32;scalar=64";
    class       surfaceScalarField;
    location    "1.2";
    object      phi;
}
// * * * * * * * * * * * * * * * * * * * * * * * * * * * * * * * * * * * * * //

dimensions      [0 3 -1 0 0 0 0];

oriented        oriented;

internalField   nonuniform List<scalar> 
1763
(
5.56043e-08
-3.4291e-08
5.52512e-08
-3.43307e-08
3.46841e-08
5.48984e-08
-3.43607e-08
3.47136e-08
5.45576e-08
-3.43974e-08
3.47383e-08
5.42541e-08
-3.44557e-08
3.47592e-08
-3.45199e-08
3.47883e-08
1.82217e-07
-6.46737e-08
3.155e-08
1.81163e-07
-6.47897e-08
3.15134e-08
1.80147e-07
-6.48695e-08
3.1525e-08
1.79173e-07
-6.49464e-08
3.15226e-08
1.78332e-07
-6.50779e-08
3.14631e-08
-6.51722e-08
3.14242e-08
3.58384e-07
3.56255e-07
-8.98128e-08
2.71525e-08
3.54286e-07
-8.9931e-08
2.70305e-08
3.52471e-07
-9.00265e-08
2.68948e-08
3.50837e-07
-9.01231e-08
2.66795e-08
-9.01889e-08
2.64222e-08
5.08992e-07
-1.0783e-07
2.10378e-08
5.06176e-07
-1.07892e-07
2.07773e-08
5.03576e-07
-1.07947e-07
2.05198e-08
5.01207e-07
-1.07971e-07
2.02171e-08
-1.07974e-07
1.97958e-08
6.09926e-07
1.35721e-08
6.06331e-07
-1.17561e-07
1.32639e-08
6.03006e-07
-1.17551e-07
1.29291e-08
5.9999e-07
-1.17511e-07
1.25555e-08
-1.1745e-07
1.19925e-08
6.30857e-07
-1.17973e-07
4.22266e-09
6.2735e-07
-1.17906e-07
3.86188e-09
6.24211e-07
-1.17812e-07
3.44001e-09
-1.17706e-07
2.8483e-09
5.77243e-07
-1.08946e-07
-5.63129e-09
5.74127e-07
-1.08832e-07
-5.95822e-09
5.71359e-07
-1.0867e-07
-6.37408e-09
-1.08542e-07
-6.91588e-09
4.65212e-07
-9.10187e-08
-1.5094e-08
4.62627e-07
-9.0963e-08
-1.52831e-08
4.60387e-07
-9.08675e-08
-1.55622e-08
-9.08296e-08
-1.59346e-08
3.17487e-07
-6.58922e-08
-2.31892e-08
3.15708e-07
-6.5872e-08
-2.3311e-08
3.14164e-07
-6.58157e-08
-2.35079e-08
-6.58087e-08
-2.37083e-08
1.67571e-07
-3.46869e-08
1.66565e-07
-3.47044e-08
-3.01809e-08
1.65595e-07
-3.47381e-08
-3.01641e-08
1.64756e-07
-3.47646e-08
-3.02128e-08
-3.4793e-08
-3.02558e-08
5.52484e-08
-3.43471e-08
5.49082e-08
-3.43641e-08
5.45572e-08
-3.4387e-08
5.42294e-08
-3.44368e-08
-3.44968e-08
1.67642e-07
-3.01183e-08
1.6664e-07
-3.01107e-08
6.58256e-08
1.65687e-07
-3.01249e-08
6.58164e-08
1.64876e-07
-3.02052e-08
6.57759e-08
-3.0277e-08
6.57797e-08
4.66739e-07
4.64331e-07
-5.59915e-08
5.97948e-08
4.62137e-07
-5.6109e-08
5.97173e-08
4.60162e-07
-5.6256e-08
5.96286e-08
4.58389e-07
-5.64653e-08
5.94964e-08
-5.67817e-08
5.92869e-08
7.87607e-07
-7.79116e-08
5.10363e-08
7.85636e-07
-7.79758e-08
5.08684e-08
7.83734e-07
-7.80927e-08
5.06339e-08
7.81953e-07
-7.82977e-08
5.02927e-08
-7.86455e-08
4.96735e-08
1.02069e-06
-9.39198e-08
3.8363e-08
1.01933e-06
-9.39555e-08
3.81177e-08
1.01795e-06
-9.40239e-08
3.78299e-08
1.01663e-06
-9.41574e-08
3.73915e-08
-9.4382e-08
3.6588e-08
1.15646e-06
-1.02571e-07
2.32055e-08
1.15545e-06
-1.02601e-07
2.29173e-08
1.15442e-06
-1.02628e-07
2.25624e-08
1.15345e-06
-1.02672e-07
2.20379e-08
-1.02755e-07
2.1154e-08
1.19313e-06
-1.03388e-07
6.10238e-09
1.19231e-06
-1.03402e-07
5.84855e-09
1.19146e-06
-1.034e-07
5.48427e-09
1.19067e-06
-1.03371e-07
4.92381e-09
-1.03349e-07
4.07925e-09
1.13576e-06
-1.15625e-08
1.13497e-06
-9.64838e-08
-1.17635e-08
1.13418e-06
-9.64746e-08
-1.2088e-08
1.13342e-06
-9.64016e-08
-1.25902e-08
-9.62362e-08
-1.33585e-08
9.88632e-07
-8.18068e-08
-2.85084e-08
9.87354e-07
-8.17557e-08
-2.87236e-08
9.86102e-07
-8.16594e-08
-2.90529e-08
-8.14152e-08
-2.97517e-08
7.56005e-07
-5.97413e-08
-4.30176e-08
7.53877e-07
-5.96816e-08
-4.32567e-08
7.51847e-07
-5.95615e-08
-4.35765e-08
-5.93554e-08
-4.41706e-08
4.62079e-07
-3.14947e-08
-5.61406e-08
4.59975e-07
-3.15146e-08
-5.62264e-08
4.58096e-07
-3.14767e-08
-5.64186e-08
-3.14556e-08
-5.67042e-08
1.81247e-07
-6.47912e-08
1.80186e-07
-6.47975e-08
1.79151e-07
-6.48666e-08
1.78249e-07
-6.50111e-08
-6.51039e-08
3.17745e-07
-2.32201e-08
9.09007e-08
3.1605e-07
-2.3334e-08
9.0845e-08
3.14569e-07
-2.35265e-08
9.07844e-08
-2.37434e-08
9.07766e-08
7.58541e-07
-4.28691e-08
7.56218e-07
-4.30057e-08
8.18259e-08
7.54032e-07
-4.32661e-08
8.17476e-08
7.52007e-07
-4.36085e-08
8.1603e-08
-4.42308e-08
8.13415e-08
1.13459e-06
-6.0713e-08
6.85908e-08
1.13475e-06
-6.08134e-08
6.85083e-08
1.13476e-06
-6.09658e-08
6.83261e-08
1.13464e-06
-6.12389e-08
6.80392e-08
-6.1801e-08
6.75015e-08
1.38503e-06
-7.4211e-08
5.02844e-08
1.38652e-06
-7.42843e-08
5.00954e-08
1.38788e-06
-7.43842e-08
4.98841e-08
1.38906e-06
-7.45671e-08
4.95469e-08
-7.49282e-08
4.89364e-08
1.52906e-06
-8.20181e-08
2.88493e-08
1.53113e-06
-8.2057e-08
2.86201e-08
1.53309e-06
-8.21132e-08
2.83299e-08
1.53483e-06
-8.21912e-08
2.79227e-08
-8.23474e-08
2.73046e-08
1.57252e-06
-8.37379e-08
5.36033e-09
1.57492e-06
-8.37311e-08
5.12488e-09
1.57718e-06
-8.37332e-08
4.84038e-09
1.5792e-06
-8.37108e-08
4.42402e-09
-8.36745e-08
3.83478e-09
1.5206e-06
-7.93725e-08
-1.84684e-08
1.52305e-06
-7.92923e-08
-1.86552e-08
1.52534e-06
-7.92074e-08
-1.89077e-08
1.52738e-06
-7.90629e-08
-1.92742e-08
-7.87715e-08
-1.98093e-08
1.37613e-06
-6.86223e-08
-4.09515e-08
1.37797e-06
-6.85099e-08
-4.11311e-08
1.37968e-06
-6.83342e-08
-4.13078e-08
1.3812e-06
-6.80505e-08
-4.15886e-08
-6.75237e-08
-4.21149e-08
1.13459e-06
-6.06969e-08
1.13475e-06
-5.08801e-08
-6.08069e-08
1.13482e-06
-5.06826e-08
-6.09765e-08
1.1348e-06
-5.03596e-08
-6.12446e-08
-4.97673e-08
-6.17385e-08
7.85494e-07
-2.71035e-08
-7.80214e-08
7.83645e-07
-2.69722e-08
-7.8088e-08
7.81857e-07
-2.67393e-08
-7.82507e-08
-2.6494e-08
-7.85322e-08
3.56457e-07
-8.97722e-08
3.54332e-07
-8.97759e-08
3.52368e-07
-8.98755e-08
3.50631e-07
-9.00135e-08
-9.00942e-08
4.65558e-07
-1.51515e-08
1.08883e-07
4.63005e-07
-1.5336e-08
1.08734e-07
4.60816e-07
-1.56045e-08
1.08579e-07
-1.59831e-08
1.08489e-07
9.88659e-07
-2.85201e-08
9.64733e-08
9.87313e-07
-2.87189e-08
9.64763e-08
9.85994e-07
-2.90683e-08
9.63856e-08
-2.97823e-08
9.6188e-08
1.37594e-06
-4.10211e-08
7.93472e-08
1.37778e-06
-4.11509e-08
7.93001e-08
1.3795e-06
-4.13298e-08
7.92202e-08
1.38101e-06
-4.16135e-08
7.90744e-08
-4.21037e-08
7.8795e-08
1.62891e-06
-5.10438e-08
5.70217e-08
1.63209e-06
-5.11484e-08
5.69108e-08
1.63511e-06
-5.12587e-08
5.67945e-08
1.63787e-06
-5.14344e-08
5.66089e-08
-5.17277e-08
5.63001e-08
1.77564e-06
-5.7236e-08
3.12586e-08
1.77929e-06
-5.7281e-08
3.10981e-08
1.78276e-06
-5.73274e-08
3.09281e-08
1.78595e-06
-5.73938e-08
3.06935e-08
-5.75034e-08
3.03656e-08
1.82263e-06
-5.92541e-08
3.41646e-09
1.82646e-06
-5.92371e-08
3.24977e-09
1.83011e-06
-5.92103e-08
3.06984e-09
1.83348e-06
-5.91601e-08
2.82605e-09
-5.90912e-08
2.52738e-09
1.76936e-06
-2.44085e-08
1.77324e-06
-5.70242e-08
-2.45749e-08
1.77698e-06
-5.69152e-08
-2.47148e-08
1.78053e-06
-5.67908e-08
-2.48793e-08
1.7838e-06
-5.65912e-08
-2.5111e-08
-5.62887e-08
-2.54185e-08
1.62895e-06
-5.02709e-08
-5.09987e-08
1.63214e-06
-5.01277e-08
-5.11119e-08
1.63516e-06
-4.98918e-08
-5.12302e-08
1.63793e-06
-4.95247e-08
-5.1421e-08
-4.89712e-08
-5.17223e-08
1.38513e-06
-3.83632e-08
-7.42098e-08
1.38664e-06
-3.81746e-08
-7.42691e-08
1.38802e-06
-3.78715e-08
-7.43767e-08
1.38921e-06
-3.74042e-08
-7.45613e-08
-3.66804e-08
-7.4876e-08
1.02065e-06
-2.10938e-08
-9.38994e-08
1.01927e-06
-2.09016e-08
-9.39206e-08
1.01791e-06
-2.06168e-08
-9.39819e-08
1.01663e-06
-2.02665e-08
-9.41041e-08
-1.98688e-08
-9.4272e-08
5.0906e-07
-1.07736e-07
5.06141e-07
-1.07759e-07
5.03472e-07
-1.07823e-07
5.01053e-07
-1.0786e-07
-1.07875e-07
5.81084e-07
-5.36243e-09
1.18001e-07
5.77638e-07
-5.62009e-09
1.17949e-07
5.74478e-07
-5.97556e-09
1.17869e-07
5.71689e-07
-6.40423e-09
1.17772e-07
-6.94229e-09
1.17675e-07
1.1357e-06
-1.15418e-08
1.03373e-07
1.13493e-06
-1.17671e-08
1.03389e-07
1.13413e-06
-1.21096e-08
1.03403e-07
1.13336e-06
-1.26285e-08
1.03382e-07
-1.34062e-08
1.03353e-07
1.51792e-06
-1.82457e-08
8.37711e-08
1.52043e-06
-1.84561e-08
8.37571e-08
1.52286e-06
-1.86592e-08
8.37586e-08
1.52517e-06
-1.89461e-08
8.37484e-08
1.52722e-06
-1.93299e-08
8.37246e-08
-1.98533e-08
8.36922e-08
1.7692e-06
-2.44707e-08
5.93115e-08
1.77312e-06
-2.46114e-08
5.92583e-08
1.77689e-06
-2.47415e-08
5.92246e-08
1.78045e-06
-2.49092e-08
5.91965e-08
1.78372e-06
-2.51423e-08
5.91523e-08
-2.54416e-08
5.90853e-08
1.91661e-06
-2.8894e-08
3.12819e-08
1.92099e-06
-2.89447e-08
3.12103e-08
1.92518e-06
-2.89901e-08
3.11546e-08
1.92914e-06
-2.90457e-08
3.11025e-08
1.93278e-06
-2.91191e-08
3.10354e-08
-2.92163e-08
3.09406e-08
1.96522e-06
-3.12508e-08
1.2503e-09
1.96972e-06
-3.12138e-08
1.18067e-09
1.97404e-06
-3.11748e-08
1.11962e-09
1.97813e-06
-3.11183e-08
1.05532e-09
1.98189e-06
-3.10404e-08
9.83448e-10
-3.09444e-08
9.00967e-10
1.91665e-06
-3.14013e-08
-2.8847e-08
1.92103e-06
-3.1258e-08
-2.89055e-08
1.92522e-06
-3.11217e-08
-2.89625e-08
1.92919e-06
-3.09402e-08
-2.90228e-08
1.93282e-06
-3.06877e-08
-2.90988e-08
-3.03627e-08
-2.92025e-08
1.7718e-06
-2.90855e-08
-5.71314e-08
1.77563e-06
-2.88886e-08
-5.71893e-08
1.7793e-06
-2.86667e-08
-5.72421e-08
1.78276e-06
-2.83376e-08
-5.72959e-08
1.78593e-06
-2.79112e-08
-5.73677e-08
-2.73297e-08
-5.74815e-08
1.52685e-06
-2.35668e-08
-8.19563e-08
1.52905e-06
-2.33e-08
-8.1998e-08
1.53118e-06
-2.30251e-08
-8.20436e-08
1.53315e-06
-2.25919e-08
-8.20975e-08
1.53487e-06
-2.20245e-08
-8.21636e-08
-2.12165e-08
-8.22974e-08
1.15751e-06
-1.02489e-07
1.15649e-06
-1.36695e-08
-1.02517e-07
1.15546e-06
-1.3366e-08
-1.02541e-07
1.15443e-06
-1.29739e-08
-1.02571e-07
1.15347e-06
-1.25689e-08
-1.02608e-07
-1.20315e-08
-1.02662e-07
6.0998e-07
-1.17493e-07
6.06322e-07
-1.17467e-07
6.02974e-07
-1.1745e-07
5.9995e-07
-1.17405e-07
-1.17352e-07
6.35161e-07
4.55689e-09
1.17585e-07
6.31265e-07
4.24796e-09
1.17597e-07
6.27694e-07
3.88258e-09
1.17558e-07
6.24507e-07
3.46982e-09
1.17489e-07
2.8411e-09
1.17447e-07
1.19302e-06
6.15974e-09
1.02544e-07
1.19222e-06
5.85836e-09
1.02578e-07
1.19141e-06
5.46551e-09
1.02639e-07
1.19064e-06
4.91409e-09
1.02704e-07
4.03193e-09
1.02773e-07
1.56732e-06
5.86054e-09
1.56993e-06
5.64145e-09
8.20056e-08
1.57242e-06
5.42117e-09
8.20054e-08
1.57484e-06
5.16624e-09
8.20402e-08
1.57711e-06
4.8176e-09
8.21205e-08
1.57914e-06
4.38696e-09
8.22218e-08
3.81098e-09
8.23609e-08
1.8144e-06
3.6891e-09
1.81859e-06
3.55952e-09
5.72097e-08
1.82259e-06
3.43743e-09
5.72359e-08
1.82644e-06
3.28469e-09
5.72582e-08
1.83007e-06
3.0786e-09
5.73099e-08
1.83339e-06
2.81789e-09
5.73933e-08
2.5219e-09
5.75071e-08
1.96045e-06
1.96518e-06
1.2033e-09
2.8911e-08
1.96968e-06
1.18053e-09
2.89582e-08
1.974e-06
1.13754e-09
2.89908e-08
1.97806e-06
1.07132e-09
2.90447e-08
1.98179e-06
9.94065e-10
2.91248e-08
9.12402e-10
2.92245e-08
2.01399e-06
-1.2184e-09
-1.18823e-09
2.01865e-06
-1.15758e-09
-1.14236e-09
2.02312e-06
-1.10391e-09
-1.10456e-09
2.02733e-06
-1.03706e-09
-1.04686e-09
2.03124e-06
-9.60613e-10
-9.71415e-10
-8.82487e-10
-8.90816e-10
1.96517e-06
-3.55726e-09
-3.12199e-08
1.96969e-06
-3.40744e-09
-3.1182e-08
1.97404e-06
-3.26338e-09
-3.11495e-08
1.97814e-06
-3.066e-09
-3.10983e-08
1.98191e-06
-2.80433e-09
-3.10241e-08
-2.50893e-09
-3.09327e-08
1.81858e-06
-5.62178e-09
-5.92416e-08
1.82261e-06
-5.40627e-09
-5.92223e-08
1.8265e-06
-5.17702e-09
-5.92127e-08
1.83015e-06
-4.83512e-09
-5.91836e-08
1.8335e-06
-4.39334e-09
-5.91267e-08
-3.82928e-09
-5.90593e-08
1.56996e-06
-6.48908e-09
-8.37143e-08
1.5725e-06
-6.21935e-09
-8.37207e-08
1.57495e-06
-5.93855e-09
-8.37309e-08
1.57722e-06
-5.49751e-09
-8.37137e-08
1.57923e-06
-4.89088e-09
-8.3667e-08
-4.06394e-09
-8.36266e-08
1.19399e-06
-4.87543e-09
-1.03332e-07
1.1932e-06
-4.59294e-09
-1.03349e-07
1.19235e-06
-4.26832e-09
-1.03365e-07
1.19149e-06
-3.86478e-09
-1.03346e-07
1.19071e-06
-3.41673e-09
-1.03295e-07
-2.81405e-09
-1.03264e-07
6.38792e-07
-1.18029e-07
6.34659e-07
-1.17952e-07
6.30798e-07
-1.17875e-07
6.27283e-07
-1.17799e-07
6.24168e-07
-1.17707e-07
-1.17599e-07
6.14248e-07
1.38749e-08
1.07782e-07
6.1036e-07
1.35997e-08
1.07874e-07
6.06711e-07
1.33037e-08
1.07942e-07
6.0335e-07
1.29468e-08
1.07973e-07
6.00306e-07
1.25637e-08
1.07969e-07
1.20301e-08
1.07972e-07
1.15749e-06
2.35164e-08
9.38992e-08
1.15645e-06
2.32609e-08
9.39172e-08
1.1554e-06
2.29748e-08
9.39624e-08
1.15436e-06
2.25449e-08
9.40768e-08
1.15342e-06
2.19759e-08
9.42337e-08
2.11633e-08
9.44101e-08
1.52678e-06
2.90475e-08
7.41563e-08
1.52899e-06
2.88586e-08
7.41973e-08
1.53112e-06
2.86336e-08
7.42572e-08
1.53308e-06
2.82989e-08
7.44027e-08
1.53478e-06
2.78701e-08
7.46333e-08
2.72934e-08
7.49589e-08
1.77176e-06
3.13617e-08
5.09115e-08
1.77561e-06
3.12445e-08
5.1e-08
1.77931e-06
3.11225e-08
5.1075e-08
1.78276e-06
3.09389e-08
5.12162e-08
1.78589e-06
3.06823e-08
5.14485e-08
3.03574e-08
5.17608e-08
1.91649e-06
3.12387e-08
2.4471e-08
1.92089e-06
3.12055e-08
2.45981e-08
1.92511e-06
3.11728e-08
2.47211e-08
1.92907e-06
3.11201e-08
2.49011e-08
1.93268e-06
3.10459e-08
2.51541e-08
3.09528e-08
2.5463e-08
1.9651e-06
2.88967e-08
-3.53882e-09
1.96962e-06
2.89459e-08
-3.39804e-09
1.97395e-06
2.89909e-08
-3.26052e-09
1.97804e-06
2.90512e-08
-3.06832e-09
1.98179e-06
2.91306e-08
-2.80342e-09
2.92293e-08
-2.49819e-09
1.9166e-06
2.44741e-08
-3.13699e-08
1.92101e-06
2.46032e-08
-3.12416e-08
1.92524e-06
2.47259e-08
-3.1114e-08
1.92922e-06
2.49025e-08
-3.09294e-08
1.93285e-06
2.51481e-08
-3.06712e-08
2.54497e-08
-3.03435e-08
1.7693e-06
1.82364e-08
-5.71112e-08
1.77328e-06
1.84176e-08
-5.7016e-08
1.7771e-06
1.86245e-08
-5.69375e-08
1.78068e-06
1.89376e-08
-5.68006e-08
1.78394e-06
1.93423e-08
-5.65728e-08
1.98635e-08
-5.62599e-08
1.51803e-06
1.12261e-08
-7.93878e-08
1.52062e-06
1.14498e-08
-7.93473e-08
1.52312e-06
1.16989e-08
-7.93081e-08
1.52544e-06
1.21035e-08
-7.92002e-08
1.52746e-06
1.26627e-08
-7.90046e-08
1.34266e-08
-7.87231e-08
1.13662e-06
5.04396e-09
-9.64595e-08
1.13587e-06
5.3506e-09
-9.65002e-08
1.13505e-06
5.65905e-09
-9.65085e-08
1.13422e-06
6.02248e-09
-9.6435e-08
1.13344e-06
6.44453e-09
-9.62979e-08
6.97367e-09
-9.61228e-08
5.84222e-07
-1.09019e-07
5.8052e-07
-1.08898e-07
5.77088e-07
-1.08785e-07
5.73987e-07
-1.08675e-07
5.71279e-07
-1.08555e-07
-1.0845e-07
5.12376e-07
2.13055e-08
8.97445e-08
5.09318e-07
2.1057e-08
8.98742e-08
5.06467e-07
2.08092e-08
8.99846e-08
5.03844e-07
2.05305e-08
9.00653e-08
5.01463e-07
2.02122e-08
9.01383e-08
1.98357e-08
9.01813e-08
1.02215e-06
3.86174e-08
7.78825e-08
1.0208e-06
3.84131e-08
7.79146e-08
1.01939e-06
3.81829e-08
7.7991e-08
1.01803e-06
3.78168e-08
7.81589e-08
1.01676e-06
3.73073e-08
7.84057e-08
3.65832e-08
7.87196e-08
1.38344e-06
5.0462e-08
6.06002e-08
1.38508e-06
5.0306e-08
6.06708e-08
1.3866e-06
5.01433e-08
6.07753e-08
1.38794e-06
4.98702e-08
6.10017e-08
1.38907e-06
4.94653e-08
6.13493e-08
4.88988e-08
6.18642e-08
1.62561e-06
5.71217e-08
4.08163e-08
1.62894e-06
5.70351e-08
4.09345e-08
1.63215e-06
5.69601e-08
4.10509e-08
1.63513e-06
5.68215e-08
4.12855e-08
1.63779e-06
5.65897e-08
4.16681e-08
5.62725e-08
4.21864e-08
1.76913e-06
5.92798e-08
1.82531e-08
1.77307e-06
5.92615e-08
1.84242e-08
1.77687e-06
5.92494e-08
1.8634e-08
1.78042e-06
5.92172e-08
1.89566e-08
1.78363e-06
5.91596e-08
1.93768e-08
5.90886e-08
1.9912e-08
1.81847e-06
5.71825e-08
-5.57932e-09
1.82248e-06
5.7225e-08
-5.37613e-09
1.82635e-06
5.72646e-08
-5.14618e-09
1.82999e-06
5.73207e-08
-4.81055e-09
1.8333e-06
5.73975e-08
-4.35429e-09
5.75058e-08
-3.74738e-09
1.77178e-06
5.08933e-08
-2.90527e-08
1.77563e-06
5.09955e-08
-2.88571e-08
1.77933e-06
5.10776e-08
-2.86265e-08
1.78279e-06
5.12143e-08
-2.82849e-08
1.78593e-06
5.14379e-08
-2.78506e-08
5.17417e-08
-2.72644e-08
1.62574e-06
4.07829e-08
-5.04665e-08
1.6291e-06
4.09204e-08
-5.03011e-08
1.63234e-06
4.10382e-08
-5.01351e-08
1.63535e-06
4.12624e-08
-4.98612e-08
1.63805e-06
4.16296e-08
-4.94592e-08
4.21349e-08
-4.88924e-08
1.37427e-06
2.80391e-08
-6.87237e-08
1.37628e-06
2.81824e-08
-6.86207e-08
1.37817e-06
2.8347e-08
-6.85077e-08
1.37986e-06
2.86563e-08
-6.82876e-08
1.38132e-06
2.912e-08
-6.79553e-08
2.98078e-08
-6.74418e-08
9.91338e-07
1.47695e-08
-8.19302e-08
9.90019e-07
1.49264e-08
-8.19256e-08
9.88636e-07
1.5089e-08
-8.18675e-08
9.87273e-07
1.53181e-08
-8.17332e-08
9.86009e-07
1.56378e-08
-8.15518e-08
1.59883e-08
-8.12905e-08
4.70815e-07
-9.11008e-08
4.6784e-07
-9.09967e-08
4.65062e-07
-9.09179e-08
4.62552e-07
-9.08467e-08
4.60394e-07
-9.07594e-08
-9.07542e-08
3.58571e-07
2.73109e-08
6.47049e-08
3.56441e-07
2.72049e-08
6.47989e-08
3.54457e-07
2.70765e-08
6.48926e-08
3.52627e-07
2.69001e-08
6.49949e-08
3.50981e-07
2.66559e-08
6.51291e-08
2.64113e-08
6.5194e-08
7.89692e-07
5.12341e-08
5.59388e-08
7.87702e-07
5.10922e-08
5.60178e-08
7.85736e-07
5.09155e-08
5.61179e-08
7.83875e-07
5.06351e-08
5.62853e-08
7.82168e-07
5.02322e-08
5.65361e-08
4.96272e-08
5.68608e-08
1.13443e-06
6.87225e-08
4.2741e-08
1.13472e-06
6.8633e-08
4.28401e-08
1.13486e-06
6.85205e-08
4.30292e-08
1.13488e-06
6.82996e-08
4.3321e-08
1.13481e-06
6.79586e-08
4.3692e-08
6.74369e-08
4.43208e-08
1.3741e-06
7.94079e-08
2.80833e-08
1.37608e-06
7.93754e-08
2.82098e-08
1.37794e-06
7.93363e-08
2.83782e-08
1.37959e-06
7.9226e-08
2.87042e-08
1.381e-06
7.90233e-08
2.9192e-08
7.87341e-08
2.98906e-08
1.51785e-06
8.37466e-08
1.12748e-08
1.52042e-06
8.37552e-08
1.14808e-08
1.52288e-06
8.377e-08
1.17343e-08
1.52516e-06
8.37499e-08
1.21523e-08
1.52713e-06
8.37006e-08
1.27315e-08
8.36587e-08
1.35092e-08
1.56984e-06
8.19648e-08
-6.40796e-09
1.57239e-06
8.20022e-08
-6.17119e-09
1.57482e-06
8.20479e-08
-5.86292e-09
1.57708e-06
8.21134e-08
-5.42731e-09
1.57905e-06
8.21957e-08
-4.82709e-09
8.23308e-08
-3.92421e-09
1.52682e-06
7.40987e-08
-2.35035e-08
1.52904e-06
7.41583e-08
-2.32376e-08
1.53119e-06
7.42305e-08
-2.29554e-08
1.53316e-06
7.43718e-08
-2.25115e-08
1.53484e-06
7.459e-08
-2.19293e-08
7.49114e-08
-2.11032e-08
1.38356e-06
6.05369e-08
-3.8618e-08
1.3852e-06
6.06189e-08
-3.84024e-08
1.38674e-06
6.07258e-08
-3.81698e-08
1.3881e-06
6.09457e-08
-3.77972e-08
1.38924e-06
6.12764e-08
-3.72878e-08
6.17827e-08
-3.65577e-08
1.13451e-06
4.26776e-08
-5.12257e-08
1.1348e-06
4.27886e-08
-5.10837e-08
1.13495e-06
4.29784e-08
-5.09101e-08
1.13496e-06
4.32558e-08
-5.06062e-08
1.13488e-06
4.36103e-08
-5.02084e-08
4.4219e-08
-4.96297e-08
7.60589e-07
2.29663e-08
-5.98797e-08
7.58255e-07
2.3036e-08
-5.98394e-08
7.55981e-07
2.31492e-08
-5.97638e-08
7.5383e-07
2.33167e-08
-5.9643e-08
7.51823e-07
2.35362e-08
-5.94707e-08
2.37435e-08
-5.92465e-08
3.21345e-07
-6.58911e-08
3.19252e-07
-6.58677e-08
3.17324e-07
-6.58406e-08
3.156e-07
-6.58058e-08
3.14134e-07
-6.57575e-08
-6.57702e-08
1.82317e-07
3.15454e-08
3.43052e-08
1.81207e-07
3.1583e-08
3.43263e-08
1.80143e-07
3.15939e-08
3.43623e-08
1.79173e-07
3.15479e-08
3.44173e-08
1.7837e-07
3.14479e-08
3.44841e-08
3.13998e-08
3.45386e-08
4.66784e-07
5.98927e-08
3.00946e-08
4.64445e-07
5.98742e-08
3.00655e-08
4.62279e-07
5.98126e-08
3.00648e-08
4.60297e-07
5.96876e-08
3.01281e-08
4.5852e-07
5.95085e-08
3.02525e-08
5.92618e-08
3.03326e-08
7.60761e-07
8.19404e-08
2.29925e-08
7.58464e-07
8.19565e-08
2.3055e-08
7.56238e-07
8.19045e-08
2.31636e-08
7.5415e-07
8.17629e-08
2.33336e-08
7.52222e-07
8.1565e-08
2.3564e-08
8.1284e-08
2.37978e-08
9.91396e-07
9.64606e-08
1.48036e-08
9.90087e-07
9.65169e-08
1.49584e-08
9.88718e-07
9.6531e-08
1.51206e-08
9.87382e-07
9.64568e-08
1.53458e-08
9.86164e-07
9.63104e-08
1.56652e-08
9.61303e-08
1.60228e-08
1.13666e-06
1.03328e-07
5.0737e-09
1.13592e-06
1.03357e-07
5.3815e-09
1.13511e-06
1.03378e-07
5.70448e-09
1.13427e-06
1.03371e-07
6.07441e-09
1.13349e-06
1.03322e-07
6.49674e-09
1.03287e-07
7.02474e-09
1.19408e-06
1.02483e-07
-4.81613e-09
1.19329e-06
1.02511e-07
-4.5377e-09
1.19246e-06
1.02534e-07
-4.18453e-09
1.19161e-06
1.02574e-07
-3.78061e-09
1.19081e-06
1.02635e-07
-3.34379e-09
1.02707e-07
-2.70908e-09
1.15766e-06
9.38256e-08
-1.38695e-08
1.15666e-06
9.38435e-08
-1.35754e-08
1.15562e-06
9.38809e-08
-1.32643e-08
1.15458e-06
9.39876e-08
-1.28824e-08
1.15362e-06
9.41419e-08
-1.24778e-08
9.43297e-08
-1.19285e-08
1.02219e-06
7.78214e-08
-2.13042e-08
1.02084e-06
7.78365e-08
-2.10471e-08
1.01944e-06
7.7894e-08
-2.07872e-08
1.01807e-06
7.80685e-08
-2.04983e-08
1.01678e-06
7.83069e-08
-2.01676e-08
7.86138e-08
-1.97744e-08
7.89599e-07
5.58879e-08
-2.73022e-08
7.8759e-07
5.59557e-08
-2.71932e-08
7.85591e-07
5.60458e-08
-2.70637e-08
7.83701e-07
5.62237e-08
-2.68712e-08
7.81951e-07
5.64752e-08
-2.66263e-08
5.67835e-08
-2.6397e-08
4.66553e-07
3.00729e-08
-3.15331e-08
4.6418e-07
3.00492e-08
-3.15599e-08
4.61981e-07
3.00491e-08
-3.15679e-08
4.59976e-07
3.01089e-08
-3.15229e-08
4.58193e-07
3.02199e-08
-3.14329e-08
3.0291e-08
-3.13949e-08
1.68591e-07
-3.46616e-08
1.67468e-07
-3.46957e-08
1.664e-07
-3.47231e-08
1.6544e-07
-3.47369e-08
1.64654e-07
-3.47518e-08
-3.47824e-08
5.56297e-08
3.46764e-08
5.52437e-08
3.47123e-08
5.48643e-08
3.47419e-08
5.45273e-08
3.47542e-08
5.42494e-08
3.4762e-08
3.47868e-08
1.68727e-07
6.59115e-08
1.6761e-07
6.58947e-08
1.66543e-07
6.58735e-08
1.65588e-07
6.58377e-08
1.6482e-07
6.57824e-08
6.57851e-08
3.26276e-07
3.23878e-07
9.11933e-08
3.21667e-07
9.11148e-08
3.19603e-07
9.10144e-08
3.17698e-07
9.0942e-08
3.15988e-07
9.08808e-08
3.14533e-07
9.08019e-08
9.07957e-08
4.74347e-07
1.09092e-07
4.71261e-07
1.09005e-07
4.6834e-07
1.08894e-07
4.65616e-07
1.08786e-07
4.63157e-07
1.08686e-07
4.61042e-07
1.08581e-07
1.08486e-07
5.88709e-07
5.84801e-07
1.17986e-07
5.8115e-07
1.17927e-07
5.77779e-07
1.17861e-07
5.74735e-07
1.17804e-07
5.72079e-07
1.17735e-07
1.17629e-07
6.39351e-07
1.1749e-07
6.3526e-07
1.1748e-07
6.31449e-07
1.17487e-07
6.27989e-07
1.17484e-07
6.24936e-07
1.17444e-07
1.17397e-07
6.14262e-07
1.07734e-07
6.10383e-07
1.07784e-07
6.06764e-07
1.07842e-07
6.03473e-07
1.07893e-07
6.00524e-07
1.07915e-07
1.07934e-07
5.12315e-07
8.96869e-08
5.09253e-07
8.97986e-08
5.06403e-07
8.99046e-08
5.03806e-07
8.99911e-08
5.01466e-07
9.00878e-08
9.01583e-08
3.58484e-07
6.46643e-08
3.5634e-07
6.47497e-08
3.54343e-07
6.4838e-08
3.52514e-07
6.49489e-08
3.50887e-07
6.50886e-08
6.51647e-08
1.82243e-07
3.42857e-08
1.81125e-07
3.43077e-08
1.80053e-07
3.43419e-08
1.79081e-07
3.43979e-08
1.78271e-07
3.4466e-08
3.45245e-08
5.55935e-08
5.52055e-08
5.48242e-08
5.44852e-08
5.41994e-08
)
;

boundaryField
{
    inlet
    {
        type            calculated;
        value           nonuniform List<scalar> 0();
    }
    ami1
    {
        type            cyclicAMI;
        value           nonuniform List<scalar> 0();
    }
    walls
    {
        type            calculated;
        value           nonuniform List<scalar> 
244
(
2.90979e-14
2.43942e-14
1.84387e-14
2.90979e-14
2.43942e-14
1.84387e-14
1.28555e-14
6.40674e-15
-2.43942e-14
-2.90979e-14
2.90979e-14
2.43942e-14
1.84387e-14
1.28555e-14
6.40674e-15
-1.75259e-22
-6.40674e-15
-1.28555e-14
-1.84387e-14
-2.43942e-14
-2.90979e-14
2.90979e-14
2.43942e-14
1.84387e-14
1.28555e-14
6.40674e-15
-1.75259e-22
-6.40674e-15
-1.28555e-14
-1.84387e-14
-2.43942e-14
-2.90979e-14
2.90979e-14
2.43942e-14
1.84387e-14
1.28555e-14
6.40674e-15
1.65953e-22
-6.40674e-15
-1.28555e-14
-1.84387e-14
-2.43942e-14
-2.90979e-14
2.90979e-14
2.43942e-14
1.84387e-14
1.28555e-14
6.40674e-15
-1.75776e-22
-6.40674e-15
-1.28555e-14
-1.84387e-14
-2.43942e-14
-2.90979e-14
-1.75517e-22
-6.40674e-15
-1.28555e-14
-1.84387e-14
-2.43942e-14
-2.90979e-14
2.90979e-14
2.43942e-14
1.84387e-14
1.28555e-14
6.40674e-15
-1.75776e-22
-6.40674e-15
-1.28555e-14
-1.84387e-14
-2.43942e-14
-2.90979e-14
2.90979e-14
2.43942e-14
1.84387e-14
1.28555e-14
6.40674e-15
-1.75259e-22
-6.40674e-15
-1.28555e-14
-1.84387e-14
-2.43942e-14
-2.90979e-14
2.90979e-14
2.43942e-14
1.84387e-14
1.28555e-14
6.40674e-15
-1.75259e-22
-6.40674e-15
-1.28555e-14
-1.84387e-14
-2.43942e-14
-2.90979e-14
2.90979e-14
2.43942e-14
1.84387e-14
1.28555e-14
6.40674e-15
1.65953e-22
-6.40674e-15
-1.28555e-14
-1.84387e-14
-2.43942e-14
-2.90979e-14
2.90979e-14
2.43942e-14
1.84387e-14
1.28555e-14
6.40674e-15
-1.75776e-22
-6.40674e-15
-1.28555e-14
-1.84387e-14
-2.43942e-14
-2.90979e-14
-1.84387e-14
-1.84387e-14
-1.28555e-14
-6.40674e-15
-2.90979e-14
-2.43942e-14
-1.84387e-14
-1.28555e-14
-6.40674e-15
-1.75437e-22
6.40674e-15
1.28555e-14
1.84387e-14
2.43942e-14
2.90979e-14
-2.90979e-14
-2.43942e-14
-1.84387e-14
-1.28555e-14
-6.40674e-15
-1.75437e-22
6.40674e-15
1.28555e-14
1.84387e-14
2.43942e-14
2.90979e-14
-2.90979e-14
-2.43942e-14
-1.84387e-14
-1.28555e-14
-6.40674e-15
-1.75178e-22
6.40674e-15
1.28555e-14
1.84387e-14
2.43942e-14
2.90979e-14
-2.90979e-14
-2.43942e-14
-1.84387e-14
-1.28555e-14
-6.40674e-15
-1.75178e-22
6.40674e-15
1.28555e-14
1.84387e-14
2.43942e-14
2.90979e-14
-2.90979e-14
-2.43942e-14
-1.84387e-14
-1.28555e-14
-6.40674e-15
-4.24366e-22
6.40674e-15
1.28555e-14
1.84387e-14
2.43942e-14
2.90979e-14
-2.90979e-14
-2.43942e-14
-1.84387e-14
-1.28555e-14
-6.40674e-15
-1.75097e-22
6.40674e-15
1.28555e-14
1.84387e-14
2.43942e-14
2.90979e-14
-2.90979e-14
6.40674e-15
1.28555e-14
1.84387e-14
2.43942e-14
2.90979e-14
-2.90979e-14
-2.43942e-14
-6.40674e-15
-1.75437e-22
6.40674e-15
1.28555e-14
1.84387e-14
2.43942e-14
2.90979e-14
-2.90979e-14
-2.43942e-14
-1.84387e-14
-1.28555e-14
-6.40674e-15
-1.75178e-22
6.40674e-15
1.28555e-14
1.84387e-14
2.43942e-14
2.90979e-14
-2.90979e-14
-2.43942e-14
-1.84387e-14
-1.28555e-14
-6.40674e-15
-1.75178e-22
6.40674e-15
1.28555e-14
1.84387e-14
2.43942e-14
2.90979e-14
-2.90979e-14
-2.43942e-14
-1.84387e-14
-1.28555e-14
-6.40674e-15
-4.24366e-22
6.40674e-15
1.28555e-14
1.84387e-14
2.43942e-14
2.90979e-14
-2.90979e-14
-2.43942e-14
-1.84387e-14
-1.28555e-14
-6.40674e-15
-1.75097e-22
6.40674e-15
1.28555e-14
1.84387e-14
2.43942e-14
2.90979e-14
)
;
    }
    ami2
    {
        type            cyclicAMI;
        value           nonuniform List<scalar> 0();
    }
    outlet
    {
        type            calculated;
        value           nonuniform List<scalar> 
121
(
5.39857e-08
1.7756e-07
3.49431e-07
4.99197e-07
5.97473e-07
6.21619e-07
5.69111e-07
4.58609e-07
3.12851e-07
1.63997e-07
5.39332e-08
1.64162e-07
4.57031e-07
7.80565e-07
1.01558e-06
1.15266e-06
1.19003e-06
1.13275e-06
9.85099e-07
7.5025e-07
4.56644e-07
1.774e-07
3.13315e-07
7.5044e-07
1.13439e-06
1.38983e-06
1.5361e-06
1.58077e-06
1.52893e-06
1.38232e-06
1.13461e-06
7.80412e-07
3.49128e-07
4.59086e-07
9.84947e-07
1.38204e-06
1.64013e-06
1.78866e-06
1.83637e-06
1.7866e-06
1.64022e-06
1.39006e-06
1.01555e-06
4.98965e-07
5.69445e-07
1.13266e-06
1.52877e-06
1.78652e-06
1.93598e-06
1.98524e-06
1.93602e-06
1.78866e-06
1.53618e-06
1.15268e-06
5.97396e-07
6.21893e-07
1.19003e-06
1.58069e-06
1.83626e-06
1.98512e-06
2.03483e-06
1.98527e-06
1.8364e-06
1.58079e-06
1.19006e-06
6.21601e-07
5.97751e-07
1.15265e-06
1.53605e-06
1.78858e-06
1.93584e-06
1.98512e-06
1.93604e-06
1.78672e-06
1.52899e-06
1.13275e-06
5.69104e-07
4.99418e-07
1.0157e-06
1.38985e-06
1.63999e-06
1.78636e-06
1.83613e-06
1.78861e-06
1.64029e-06
1.38237e-06
9.84996e-07
4.58687e-07
3.49557e-07
7.80811e-07
1.13454e-06
1.382e-06
1.52861e-06
1.58056e-06
1.5361e-06
1.39004e-06
1.13463e-06
7.50254e-07
3.12894e-07
1.77625e-07
4.57186e-07
7.50722e-07
9.85185e-07
1.13282e-06
1.19017e-06
1.15283e-06
1.01571e-06
7.80548e-07
4.56834e-07
1.63957e-07
5.40013e-08
1.64154e-07
3.1332e-07
4.59375e-07
5.69961e-07
6.22459e-07
5.98058e-07
4.99467e-07
3.49483e-07
1.77516e-07
5.39415e-08
)
;
    }
    procBoundary6to5
    {
        type            processor;
        value           nonuniform List<scalar> 
177
(
-5.59819e-08
3.46689e-08
-1.83384e-07
-3.60692e-07
-8.96922e-08
2.73264e-08
-5.12012e-07
-6.13764e-07
-1.17565e-07
-6.34667e-07
-4.50649e-09
-5.80639e-07
5.40496e-09
-4.68045e-07
-3.19424e-07
6.58903e-08
-1.68633e-07
-3.01409e-08
-5.55881e-08
-1.68683e-07
3.00747e-08
6.58446e-08
-4.69326e-07
-5.58621e-08
5.99243e-08
-7.8957e-07
-1.022e-06
-1.15744e-06
-1.19391e-06
-1.1365e-06
-9.64925e-08
-9.89895e-07
2.82564e-08
-7.58242e-07
4.28362e-08
-4.64366e-07
3.15199e-08
-1.82323e-07
-3.196e-07
2.31253e-08
-7.6086e-07
8.18571e-08
-1.1343e-06
-1.38345e-06
-1.5269e-06
-1.57006e-06
-1.51806e-06
1.81831e-08
-1.37419e-06
-1.1343e-06
-5.10541e-08
-7.8739e-07
2.71796e-08
7.79558e-08
-3.58655e-07
-4.68388e-07
-1.08958e-07
-9.89938e-07
2.83034e-08
-9.64702e-08
-1.37398e-06
-7.94328e-08
-1.62562e-06
-5.71925e-08
-1.77185e-06
-3.14647e-08
-1.81867e-06
5.92863e-08
-3.62354e-09
-1.76524e-06
-5.71872e-08
-1.62565e-06
5.08172e-08
-1.38352e-06
7.40975e-08
-1.02197e-06
9.3838e-08
-5.1219e-07
-5.84765e-07
-1.13642e-06
1.12117e-08
-1.51523e-06
-8.3786e-08
-1.7651e-06
-5.93737e-08
-1.912e-06
-3.13547e-08
-1.96049e-06
-1.91206e-06
-1.76781e-06
-1.52451e-06
-1.1585e-06
-1.3927e-08
-6.13893e-07
1.17526e-07
-6.39303e-07
-1.17528e-07
-6.8793e-09
-1.1938e-06
-6.49282e-09
-1.02532e-07
-1.5645e-06
8.1989e-08
-1.81e-06
5.7146e-08
-1.95546e-06
1.23076e-09
2.88267e-08
-2.00913e-06
-1.96045e-06
-1.81441e-06
-1.56734e-06
-1.19476e-06
-6.43165e-07
-6.18377e-07
-1.15849e-06
-1.52446e-06
-1.76778e-06
-1.91193e-06
-1.96041e-06
-1.91203e-06
-1.76519e-06
-1.51534e-06
-1.13731e-06
-5.88188e-07
-5.15644e-07
-1.02345e-06
-1.38173e-06
-1.62217e-06
-1.76507e-06
-1.81433e-06
-1.76781e-06
-1.62228e-06
-1.37219e-06
-9.92597e-07
-4.73963e-07
-3.60842e-07
-7.91672e-07
-1.13406e-06
-1.37205e-06
-1.51521e-06
-1.56723e-06
-1.5245e-06
-1.38184e-06
-1.13414e-06
-7.62928e-07
-3.23588e-07
-1.83462e-07
-4.69286e-07
-2.267e-08
-7.6306e-07
-2.28389e-08
-9.92636e-07
-1.46109e-08
-1.13733e-06
-4.76917e-09
-1.19482e-06
-1.15863e-06
-1.0235e-06
-7.91589e-07
-4.69084e-07
-1.69747e-07
-5.60008e-08
-6.60142e-08
-1.69867e-07
-6.59557e-08
-3.28841e-07
9.12489e-08
-4.77635e-07
-5.92879e-07
1.18032e-07
-6.43671e-07
-6.18376e-07
-5.15572e-07
-3.60763e-07
-1.83397e-07
-5.59693e-08
)
;
    }
}

