/*--------------------------------*- C++ -*----------------------------------*\
| =========                 |                                                 |
| \\      /  F ield         | OpenFOAM: The Open Source CFD Toolbox           |
|  \\    /   O peration     | Version:  2212                                  |
|   \\  /    A nd           | Website:  www.openfoam.com                      |
|    \\/     M anipulation  |                                                 |
\*---------------------------------------------------------------------------*/
FoamFile
{
    version     2.0;
    format      ascii;
    arch        "LSB;label=32;scalar=64";
    class       volScalarField;
    location    "0.65";
    object      epsilon;
}
// * * * * * * * * * * * * * * * * * * * * * * * * * * * * * * * * * * * * * //

dimensions      [0 2 -3 0 0 0 0];

internalField   nonuniform List<scalar> 
693
(
0.143609
0.143489
0.143354
0.143225
0.14313
0.143084
0.0558849
0.0557848
0.0557019
0.0556412
0.0556001
0.0555704
0.0388295
0.0387433
0.0386763
0.0386288
0.0385964
0.0385699
0.0318322
0.0317442
0.0316773
0.0316297
0.0315966
0.0315681
0.0285603
0.0284714
0.0284049
0.0283575
0.0283241
0.0282951
0.0273724
0.0272848
0.0272193
0.0271721
0.0271389
0.0271092
0.0279256
0.0278382
0.0277721
0.0277249
0.0276917
0.0276615
0.0304503
0.030363
0.0302969
0.0302505
0.0302196
0.0301908
0.0365348
0.0364468
0.0363791
0.0363326
0.0363016
0.0362743
0.0535757
0.0534905
0.053418
0.053362
0.0533222
0.0532922
0.143665
0.143544
0.143406
0.143272
0.143172
0.143122
0.0535561
0.0534714
0.0534
0.0533459
0.0533083
0.0532806
0.0238357
0.0238108
0.02377
0.0237172
0.0236735
0.023616
0.0164156
0.0163655
0.0162634
0.0162161
0.0161666
0.0161596
0.0139283
0.0138493
0.0137522
0.0136922
0.0136099
0.0136585
0.0129616
0.0128468
0.012744
0.0126467
0.0125886
0.0126313
0.0126313
0.012514
0.0124061
0.0123195
0.0122545
0.0123029
0.0128715
0.0127802
0.012692
0.0126078
0.0125554
0.0126051
0.0137977
0.0137231
0.0136317
0.0135716
0.0134912
0.0135471
0.0161237
0.0160728
0.0159942
0.0159207
0.0158645
0.0158785
0.0238605
0.023827
0.0237821
0.0237269
0.0236849
0.0236883
0.0559188
0.0558185
0.0557349
0.0556726
0.0556292
0.0555956
0.0365334
0.0364477
0.0363811
0.036335
0.0363049
0.0362799
0.0160153
0.0160186
0.0159484
0.0159078
0.0158586
0.0157938
0.0122253
0.0121429
0.0121107
0.0120231
0.0119503
0.011936
0.0112855
0.0112021
0.0111117
0.0110163
0.0109387
0.0110027
0.0111151
0.0109858
0.0108591
0.0107497
0.0106759
0.0107471
0.0110778
0.010943
0.0108114
0.0106977
0.0106306
0.0107017
0.0110823
0.0109768
0.0108677
0.0107682
0.0107009
0.0107696
0.0112972
0.011223
0.0111415
0.0110311
0.0109588
0.011022
0.0122488
0.0121626
0.0121244
0.0120257
0.0119589
0.0120133
0.0164123
0.0163593
0.0162604
0.0162136
0.01616
0.0160976
0.0388629
0.038777
0.0387098
0.0386608
0.0386259
0.0385971
0.0304594
0.0303745
0.0303101
0.0302646
0.0302334
0.0302048
0.0137588
0.0136879
0.0136038
0.0135497
0.0134771
0.0135285
0.0112801
0.0112017
0.011117
0.0110233
0.0109464
0.0110156
0.010837
0.0107842
0.0106491
0.0105148
0.0104445
0.0104626
0.0108564
0.010815
0.010662
0.0105164
0.0104146
0.0104272
0.0109422
0.0108815
0.0107087
0.010553
0.0104454
0.0104579
0.0108283
0.0107981
0.0106587
0.01052
0.0104238
0.0104409
0.010823
0.0107723
0.0106523
0.0105171
0.0104583
0.010482
0.0112759
0.0111905
0.0110975
0.011018
0.0109237
0.0109946
0.0139091
0.0138268
0.0137353
0.0136768
0.0136011
0.0136485
0.0318707
0.0317829
0.0317151
0.0316652
0.0316295
0.0315978
0.027944
0.0278588
0.0277942
0.0277472
0.0277134
0.027681
0.0128409
0.0127496
0.0126635
0.0125965
0.0125262
0.0125901
0.0110369
0.0109336
0.0108281
0.0107359
0.0106648
0.0107525
0.0107867
0.0107569
0.0106238
0.0104909
0.0104032
0.0104157
0.0109597
0.0109196
0.0107642
0.0106135
0.0105139
0.0105339
0.0111379
0.0110635
0.0108722
0.010702
0.0105934
0.0106382
0.0110132
0.0109573
0.0107853
0.0106258
0.0105278
0.0105987
0.0107932
0.0107629
0.0106242
0.0104889
0.0103986
0.0104146
0.011019
0.0109113
0.0108001
0.0107032
0.0106429
0.0107211
0.0128846
0.0127886
0.0126982
0.0126164
0.0125662
0.0126114
0.0286033
0.0285146
0.0284463
0.028396
0.0283592
0.028326
0.0274049
0.0273188
0.027253
0.0272044
0.0271673
0.027132
0.0125593
0.0124618
0.0123699
0.012292
0.0122467
0.0123245
0.01096
0.0108499
0.0107407
0.010648
0.0106041
0.0107205
0.0108549
0.0107727
0.0106547
0.0105043
0.0104407
0.0104953
0.0110138
0.010971
0.0108141
0.0106669
0.0106032
0.0106637
0.0111818
0.0111181
0.0109373
0.0107709
0.0106712
0.0107278
0.0110961
0.0110332
0.0108528
0.0106873
0.0105855
0.0106451
0.0108415
0.0107979
0.0106493
0.010509
0.0104181
0.0104348
0.0109686
0.0108566
0.0107418
0.0106432
0.0105897
0.0106694
0.0125551
0.0124536
0.0123588
0.012281
0.0122283
0.0122758
0.0274102
0.0273223
0.0272551
0.0272055
0.0271692
0.0271359
0.0285989
0.0285119
0.028445
0.0283942
0.0283512
0.0128845
0.0127858
0.0126997
0.0126358
0.0126648
0.0110005
0.010897
0.0107954
0.010724
0.0107825
0.0107568
0.0107284
0.0105952
0.0104824
0.0104899
0.0109156
0.0108774
0.0107286
0.010611
0.0106648
0.0110608
0.0110047
0.0108319
0.0106792
0.0105938
0.0106465
0.0110113
0.0109515
0.0107751
0.0106139
0.0105177
0.0105779
0.0108104
0.0107766
0.0106326
0.0104922
0.0104289
0.0105278
0.0110476
0.0109404
0.0108314
0.010739
0.010666
0.0107559
0.0128426
0.0127482
0.0126592
0.0125892
0.0125187
0.0125776
0.0279494
0.0278624
0.0277962
0.0277481
0.0277139
0.0276815
0.0317879
0.0317154
0.0316618
0.0316164
0.0138009
0.0137623
0.0136824
0.0137158
0.0112534
0.0111734
0.0110896
0.0110211
0.0110746
0.0108027
0.0107419
0.0106167
0.0105596
0.0106374
0.0107751
0.0107433
0.010608
0.010499
0.0104989
0.0108508
0.0108048
0.0106481
0.0105115
0.0104357
0.0104874
0.0108592
0.0108039
0.0106381
0.0104894
0.0103972
0.0104149
0.0108476
0.0107841
0.0106395
0.0105025
0.0104552
0.0105271
0.0112861
0.0112059
0.0111196
0.0110149
0.0109366
0.0110185
0.0137724
0.0136935
0.0136013
0.0135416
0.0134697
0.0135258
0.0304664
0.0303798
0.0303142
0.0302682
0.0302365
0.0302065
0.0387859
0.0387133
0.0386585
0.0386122
0.0163844
0.0163193
0.016234
0.0162521
0.0122198
0.012139
0.0121067
0.0120222
0.0120756
0.0112561
0.0111791
0.0110999
0.0110202
0.0110761
0.0110331
0.0109247
0.0108193
0.0107489
0.0108062
0.0110134
0.0108836
0.0107573
0.0106558
0.0106109
0.0107301
0.0111118
0.0109671
0.0108318
0.0107212
0.0106436
0.0107194
0.0112934
0.0112001
0.011101
0.0110083
0.0109104
0.01098
0.0122311
0.0121861
0.0121246
0.0120141
0.0119363
0.0119424
0.0160908
0.0160372
0.0159642
0.0159043
0.0158481
0.0158619
0.0365438
0.0364562
0.0363899
0.0363451
0.0363148
0.0362882
0.0558293
0.0557394
0.0556716
0.0556188
0.0238759
0.0238059
0.0237276
0.0237173
0.0161048
0.0160434
0.015963
0.0159047
0.0158738
0.0137271
0.0136543
0.0135794
0.0135274
0.013557
0.0128187
0.0127219
0.012637
0.0125759
0.0126117
0.0125759
0.01246
0.0123581
0.0122826
0.0122186
0.0123076
0.0129495
0.0128187
0.012707
0.0126163
0.0125512
0.0125979
0.0139108
0.0138238
0.013723
0.0136603
0.0135839
0.0136285
0.0163672
0.0163218
0.0162558
0.0161949
0.0161397
0.0160886
0.0237992
0.0237873
0.0237599
0.0237154
0.0236782
0.0236871
0.0535697
0.0534855
0.0534183
0.0533676
0.0533305
0.0533045
0.143532
0.143387
0.143256
0.143173
0.0535024
0.0534244
0.0533641
0.053317
0.0365541
0.0364657
0.0363973
0.0363483
0.0363071
0.0304774
0.0303911
0.0303245
0.0302751
0.030231
0.0279515
0.0278654
0.0277995
0.02775
0.0277062
0.0273963
0.0273096
0.0272442
0.0271961
0.0271597
0.0271247
0.028577
0.0284892
0.028424
0.0283774
0.028344
0.0283135
0.0318476
0.0317601
0.0316941
0.0316474
0.031615
0.0315863
0.0388461
0.0387602
0.0386941
0.0386477
0.038616
0.0385901
0.055901
0.0558013
0.0557239
0.0556677
0.0556281
0.0555994
0.143643
0.143527
0.143398
0.143274
0.14318
0.14314
)
;

boundaryField
{
    inlet
    {
        type            fixedValue;
        value           nonuniform List<scalar> 0();
    }
    ami1
    {
        type            cyclicAMI;
        value           nonuniform List<scalar> 0();
    }
    walls
    {
        type            epsilonWallFunction;
        blending        stepwise;
        value           nonuniform List<scalar> 
248
(
0.143609
0.0558849
0.0388295
0.0318322
0.0285603
0.0273724
0.0279256
0.0304503
0.0365348
0.0535757
0.143665
0.143489
0.0557848
0.0387433
0.0317442
0.0284714
0.0272848
0.0278382
0.030363
0.0364468
0.0534905
0.143544
0.143354
0.0557019
0.0386763
0.0316773
0.0284049
0.0272193
0.0277721
0.0302969
0.0363791
0.053418
0.143406
0.143225
0.0556412
0.0386288
0.0316297
0.0283575
0.0271721
0.0277249
0.0302505
0.0363326
0.053362
0.143272
0.14313
0.0556001
0.0385964
0.0315966
0.0283241
0.0271389
0.0276917
0.0302196
0.0363016
0.0533222
0.143172
0.143084
0.0555704
0.0385699
0.0315681
0.0282951
0.0271092
0.0276615
0.0301908
0.0362743
0.0532922
0.143122
0.143665
0.0559188
0.0388629
0.0318707
0.0286033
0.0274102
0.0279494
0.0304664
0.0365438
0.0535697
0.143643
0.143544
0.0558185
0.038777
0.0317829
0.0285146
0.0273223
0.0278624
0.0303798
0.0364562
0.0534855
0.143527
0.143406
0.0557349
0.0387098
0.0317151
0.0284463
0.0272551
0.0277962
0.0303142
0.0363899
0.0534183
0.143398
0.143272
0.0556726
0.0386608
0.0316652
0.028396
0.0272055
0.0277481
0.0302682
0.0363451
0.0533676
0.143274
0.143172
0.0556292
0.0386259
0.0316295
0.0283592
0.0271692
0.0277139
0.0302365
0.0363148
0.0533305
0.14318
0.143122
0.0555956
0.0385971
0.0315978
0.028326
0.0271359
0.0276815
0.0302065
0.0362882
0.0533045
0.14314
0.0365541
0.0304774
0.0279515
0.0273963
0.028577
0.0318476
0.0388461
0.055901
0.143643
0.143532
0.0535024
0.0364657
0.0303911
0.0278654
0.0273096
0.0284892
0.0317601
0.0387602
0.0558013
0.143527
0.143387
0.0534244
0.0363973
0.0303245
0.0277995
0.0272442
0.028424
0.0316941
0.0386941
0.0557239
0.143398
0.143256
0.0533641
0.0363483
0.0302751
0.02775
0.0271961
0.0283774
0.0316474
0.0386477
0.0556677
0.143274
0.143173
0.053317
0.0363071
0.030231
0.0277062
0.0271597
0.028344
0.031615
0.038616
0.0556281
0.14318
0.0271247
0.0283135
0.0315863
0.0385901
0.0555994
0.14314
0.143609
0.0535561
0.0365334
0.0304594
0.027944
0.0274049
0.0285989
0.143489
0.0534714
0.0364477
0.0303745
0.0278588
0.0273188
0.0285119
0.0317879
0.0387859
0.0558293
0.143532
0.143354
0.0534
0.0363811
0.0303101
0.0277942
0.027253
0.028445
0.0317154
0.0387133
0.0557394
0.143387
0.143225
0.0533459
0.036335
0.0302646
0.0277472
0.0272044
0.0283942
0.0316618
0.0386585
0.0556716
0.143256
0.14313
0.0533083
0.0363049
0.0302334
0.0277134
0.0271673
0.0283512
0.0316164
0.0386122
0.0556188
0.143173
0.143084
0.0532806
0.0362799
0.0302048
0.027681
0.027132
)
;
    }
    ami2
    {
        type            cyclicAMI;
        value           nonuniform List<scalar> 0();
    }
    outlet
    {
        type            zeroGradient;
    }
    procBoundary7to5
    {
        type            processor;
        value           nonuniform List<scalar> 
131
(
0.143068
0.0555421
0.0385449
0.0315415
0.0282686
0.0270816
0.0276322
0.0301603
0.0362437
0.0532657
0.143105
0.0532554
0.0236383
0.0162201
0.0137283
0.0127112
0.0123855
0.012691
0.0136277
0.0159494
0.0236884
0.0555648
0.0362524
0.0158598
0.0120471
0.0111086
0.0108599
0.0108166
0.0108882
0.0111398
0.0121147
0.01616
0.0385685
0.0301747
0.0135943
0.0111215
0.0106118
0.0105913
0.0106202
0.0106055
0.01063
0.0111098
0.0137143
0.0315671
0.0276495
0.0126661
0.0108696
0.0105797
0.0106944
0.0107846
0.0107375
0.0105796
0.0108422
0.0126937
0.0282942
0.0270996
0.0283127
0.0123985
0.0127434
0.0108289
0.0109015
0.0106358
0.0106413
0.0107989
0.0107999
0.0108721
0.0107883
0.0105975
0.0107934
0.0123629
0.0271036
0.0283127
0.0127434
0.0109015
0.0106413
0.0107999
0.0107999
0.0107779
0.0107224
0.0106617
0.0108816
0.0126638
0.0276487
0.031576
0.0137825
0.0111803
0.0107548
0.0106527
0.0106527
0.0106167
0.0105782
0.0106629
0.0111416
0.013606
0.0301736
0.0385702
0.0163073
0.0121669
0.0111808
0.0109218
0.0109218
0.0108291
0.0108384
0.0110982
0.0120657
0.0159303
0.0362572
0.0555687
0.0237281
0.0159235
0.0136178
0.0126813
0.0126813
0.0123723
0.0126746
0.013694
0.0161535
0.023687
0.05328
0.143124
0.0532735
0.0362648
0.030188
0.0276653
0.0276653
0.0270934
0.028284
0.0315581
0.0385637
0.0555718
0.143126
)
;
    }
    procBoundary7to8
    {
        type            processor;
        value           nonuniform List<scalar> 
68
(
0.143729
0.055996
0.0389294
0.0319377
0.0286687
0.0536503
0.0238808
0.016416
0.0139088
0.0129278
0.036631
0.0160144
0.0121994
0.0112379
0.011061
0.0305607
0.0137397
0.0112298
0.0107689
0.010793
0.0280484
0.0128141
0.0109765
0.0107063
0.0109004
0.0110967
0.0275106
0.012531
0.0108959
0.0107912
0.0109574
0.0111385
0.0287048
0.0318751
0.0128547
0.0138062
0.0109371
0.010674
0.01085
0.0110097
0.0318751
0.0138062
0.0138062
0.0111901
0.0107251
0.0106944
0.0107837
0.0388708
0.0163872
0.0163872
0.0121782
0.0111976
0.0109707
0.0109536
0.0559304
0.0239014
0.0239014
0.0161069
0.013723
0.0128006
0.0125509
0.14366
0.0535898
0.0535898
0.0366543
0.0305794
0.0280578
0.0275048
)
;
    }
    procBoundary7to9
    {
        type            processor;
        value           nonuniform List<scalar> 
59
(
0.0274808
0.0280325
0.0305548
0.0366366
0.0536712
0.143783
0.0125927
0.0128332
0.013755
0.0161
0.0239009
0.0560302
0.0110152
0.0110152
0.0112244
0.0121954
0.0164201
0.0389625
0.0108806
0.0107479
0.0107422
0.011213
0.0138895
0.0319761
0.0109575
0.0107108
0.0109511
0.0128559
0.0287118
0.0110402
0.0107655
0.0108997
0.0125235
0.0275185
0.0109472
0.0107226
0.0109778
0.0128054
0.0280566
0.0107783
0.0107683
0.0112141
0.0137348
0.0305709
0.0110433
0.0112231
0.0121804
0.0160843
0.0366451
0.0129013
0.013885
0.016395
0.0238561
0.0536676
0.0286872
0.0319545
0.0389466
0.0560163
0.143766
)
;
    }
}


// ************************************************************************* //
