/*--------------------------------*- C++ -*----------------------------------*\
| =========                 |                                                 |
| \\      /  F ield         | OpenFOAM: The Open Source CFD Toolbox           |
|  \\    /   O peration     | Version:  2212                                  |
|   \\  /    A nd           | Website:  www.openfoam.com                      |
|    \\/     M anipulation  |                                                 |
\*---------------------------------------------------------------------------*/
FoamFile
{
    version     2.0;
    format      ascii;
    arch        "LSB;label=32;scalar=64";
    class       volScalarField;
    location    "2.65";
    object      p;
}
// * * * * * * * * * * * * * * * * * * * * * * * * * * * * * * * * * * * * * //

dimensions      [0 2 -2 0 0 0 0];

internalField   nonuniform List<scalar> 
680
(
0.00706736
0.00690615
0.00674662
0.00658884
0.00643256
0.00627647
0.00611943
0.0071152
0.00694056
0.00677286
0.00660952
0.00644859
0.00628807
0.00612668
0.00710552
0.00692677
0.00675768
0.00659324
0.00643109
0.00627041
0.00611021
0.00706977
0.00690167
0.0067438
0.00658742
0.00643097
0.00627496
0.00611955
0.00705174
0.0068809
0.00672406
0.00657397
0.00642376
0.00627258
0.00612224
0.00705216
0.00688159
0.0067252
0.00657586
0.00642688
0.00627773
0.00613068
0.00707075
0.0069033
0.00674647
0.00659179
0.00643811
0.00628657
0.00710649
0.00692836
0.00676032
0.00659762
0.00643822
0.00628195
0.00711571
0.00694143
0.00677431
0.00661187
0.00645245
0.00629465
0.00706736
0.00690616
0.00674662
0.00658885
0.00643257
0.00627648
0.00711571
0.00694143
0.0067743
0.00661187
0.00645245
0.00629464
0.00613806
0.00724601
0.00704136
0.00685288
0.00667503
0.00650391
0.00633633
0.0061705
0.00724182
0.00702895
0.00683394
0.00664993
0.00647347
0.00630229
0.00613416
0.00720711
0.00700386
0.00681687
0.00663912
0.00646748
0.00630052
0.0061367
0.00718511
0.0069844
0.00679719
0.00662097
0.00645248
0.0062901
0.00613223
0.00718567
0.00698525
0.00679859
0.00662333
0.00645643
0.00629636
0.00614152
0.00720809
0.00700549
0.00681972
0.00664399
0.00647534
0.00631232
0.00724258
0.00703024
0.00683604
0.00665321
0.00647858
0.00631032
0.00724601
0.00704137
0.00685289
0.00667504
0.00650392
0.00633635
0.00711521
0.00694057
0.00677287
0.00660953
0.00644861
0.00628808
0.00710649
0.00692836
0.00676032
0.00659761
0.00643822
0.00628193
0.00612895
0.00724258
0.00703024
0.00683603
0.0066532
0.00647856
0.00631029
0.00614687
0.00722022
0.00700234
0.00680206
0.00661442
0.00643623
0.00626477
0.00609794
0.00716346
0.00696228
0.00676971
0.00658688
0.00641189
0.00624273
0.00607792
0.00712256
0.00693644
0.00675301
0.00657378
0.00639973
0.00623124
0.00606818
0.00712299
0.00693707
0.00675397
0.00657524
0.0064019
0.00623438
0.00607284
0.00716404
0.00696316
0.00677111
0.00658913
0.0064154
0.00624799
0.00722023
0.00700235
0.00680207
0.00661444
0.00643624
0.00626479
0.00724183
0.00702896
0.00683395
0.00664994
0.00647349
0.00630232
0.00710552
0.00692678
0.0067577
0.00659326
0.00643111
0.00627043
0.00707075
0.0069033
0.00674647
0.00659179
0.0064381
0.00628656
0.00613854
0.00720809
0.00700549
0.00681971
0.00664398
0.00647532
0.0063123
0.00615427
0.00716404
0.00696315
0.00677111
0.00658912
0.00641539
0.00624798
0.00608574
0.00708664
0.00690268
0.00672232
0.0065472
0.00637716
0.00621157
0.00604983
0.00704563
0.00687148
0.00669789
0.00652669
0.00635876
0.00619441
0.00603359
0.00704578
0.0068717
0.00669819
0.0065271
0.00635933
0.00619522
0.0060348
0.00708664
0.00690268
0.00672233
0.00654721
0.00637717
0.00621158
0.00716347
0.00696228
0.00676972
0.00658689
0.00641191
0.00624275
0.00720712
0.00700387
0.00681689
0.00663914
0.0064675
0.00630054
0.00706978
0.00690168
0.00674381
0.00658743
0.00643099
0.00627497
0.00705216
0.00688159
0.0067252
0.00657586
0.00642688
0.00627772
0.00613066
0.00718567
0.00698525
0.00679859
0.00662332
0.00645642
0.00629635
0.0061415
0.00712299
0.00693707
0.00675397
0.00657523
0.00640189
0.00623437
0.00607283
0.00704578
0.00687169
0.00669819
0.0065271
0.00635933
0.00619521
0.00603479
0.00700666
0.00684015
0.00667179
0.00650394
0.00633804
0.00617483
0.00601463
0.00700666
0.00684015
0.00667179
0.00650394
0.00633804
0.00617483
0.00601463
0.00704563
0.00687148
0.0066979
0.0065267
0.00635877
0.00619441
0.00712257
0.00693645
0.00675301
0.00657379
0.00639974
0.00623125
0.00718512
0.00698441
0.0067972
0.00662098
0.00645249
0.00629012
0.00705175
0.0068809
0.00672407
0.00657398
0.00642377
0.00627259
0.00705175
0.0068809
0.00672406
0.00657397
0.00642375
0.00627257
0.00612223
0.00718512
0.00698441
0.0067972
0.00662097
0.00645247
0.0062901
0.00613222
0.00712256
0.00693644
0.00675301
0.00657378
0.00639973
0.00623123
0.00606818
0.00704563
0.00687148
0.00669789
0.0065267
0.00635877
0.00619441
0.00603359
0.00700666
0.00684015
0.00667179
0.00650394
0.00633804
0.00617483
0.00601463
0.00700666
0.00684015
0.00667179
0.00650394
0.00633804
0.00617483
0.00601463
0.00704579
0.0068717
0.00669819
0.0065271
0.00635933
0.00619522
0.00712299
0.00693707
0.00675398
0.00657524
0.0064019
0.00623438
0.00718568
0.00698525
0.0067986
0.00662333
0.00645643
0.00629636
0.00705216
0.00688159
0.00672521
0.00657587
0.00642689
0.00627773
0.00706978
0.00690168
0.00674381
0.00658742
0.00643097
0.00627496
0.00611955
0.00720712
0.00700386
0.00681688
0.00663913
0.00646748
0.00630052
0.0061367
0.00716347
0.00696228
0.00676972
0.00658688
0.0064119
0.00624274
0.00607792
0.00708664
0.00690268
0.00672233
0.00654721
0.00637717
0.00621158
0.00604984
0.00704579
0.0068717
0.00669819
0.0065271
0.00635933
0.00619522
0.0060348
0.00721705
0.00704563
0.00687148
0.00669789
0.0065267
0.00635877
0.00619441
0.00603359
0.0072711
0.00708664
0.00690268
0.00672233
0.00654721
0.00637717
0.00621158
0.00737077
0.00716404
0.00696316
0.00677111
0.00658913
0.0064154
0.00624799
0.00743421
0.00720809
0.00700549
0.00681971
0.00664399
0.00647533
0.00631231
0.00725931
0.00707075
0.0069033
0.00674648
0.0065918
0.00643811
0.00628657
0.00710553
0.00692678
0.0067577
0.00659325
0.0064311
0.00627042
0.00611022
0.00724183
0.00702896
0.00683395
0.00664994
0.00647348
0.00630231
0.00613417
0.00722023
0.00700235
0.00680207
0.00661444
0.00643624
0.00626478
0.00609795
0.00716404
0.00696316
0.00677112
0.00658913
0.0064154
0.00624799
0.00608576
0.00712299
0.00693708
0.00675398
0.00657524
0.0064019
0.00623438
0.00607285
0.00731055
0.00712257
0.00693645
0.00675301
0.00657379
0.00639974
0.00623124
0.00606819
0.0073704
0.00716347
0.00696228
0.00676972
0.00658688
0.0064119
0.00624274
0.00746184
0.00722023
0.00700235
0.00680207
0.00661443
0.00643623
0.00626478
0.00748288
0.00724258
0.00703024
0.00683603
0.0066532
0.00647856
0.0063103
0.00729923
0.00710649
0.00692836
0.00676032
0.00659762
0.00643822
0.00628194
0.00711521
0.00694058
0.00677287
0.00660953
0.0064486
0.00628808
0.00612669
0.00724602
0.00704137
0.00685289
0.00667503
0.00650392
0.00633633
0.00617051
0.00724258
0.00703025
0.00683604
0.00665321
0.00647857
0.0063103
0.00614688
0.00720809
0.0070055
0.00681972
0.00664399
0.00647533
0.00631231
0.00615429
0.00718568
0.00698526
0.0067986
0.00662333
0.00645643
0.00629636
0.00614151
0.00739826
0.00718512
0.00698441
0.0067972
0.00662098
0.00645248
0.0062901
0.00613223
0.00743361
0.00720712
0.00700386
0.00681688
0.00663913
0.00646748
0.00630052
0.00748245
0.00724183
0.00702896
0.00683395
0.00664993
0.00647348
0.0063023
0.0074737
0.00724601
0.00704136
0.00685288
0.00667503
0.00650391
0.00633632
0.00730186
0.00711571
0.00694143
0.00677431
0.00661187
0.00645244
0.00629464
0.00706737
0.00690616
0.00674663
0.00658885
0.00643257
0.00627648
0.00611943
0.00711572
0.00694143
0.00677431
0.00661187
0.00645245
0.00629464
0.00613806
0.0071065
0.00692837
0.00676033
0.00659762
0.00643822
0.00628194
0.00612895
0.00707075
0.00690331
0.00674648
0.0065918
0.00643811
0.00628657
0.00613855
0.00705217
0.0068816
0.00672521
0.00657587
0.00642689
0.00627773
0.00613067
0.00724245
0.00705175
0.0068809
0.00672407
0.00657398
0.00642376
0.00627258
0.00612224
0.00725875
0.00706978
0.00690168
0.00674381
0.00658742
0.00643098
0.00627496
0.00729864
0.00710552
0.00692677
0.00675769
0.00659325
0.0064311
0.00627042
0.00730156
0.00711521
0.00694057
0.00677287
0.00660952
0.00644859
0.00628806
0.00723383
0.00706737
0.00690616
0.00674662
0.00658884
0.00643256
0.00627646
)
;

boundaryField
{
    inlet
    {
        type            zeroGradient;
    }
    ami1
    {
        type            cyclicAMI;
        value           nonuniform List<scalar> 0();
    }
    walls
    {
        type            zeroGradient;
    }
    ami2
    {
        type            cyclicAMI;
        value           nonuniform List<scalar> 0();
    }
    outlet
    {
        type            fixedValue;
        value           nonuniform List<scalar> 0();
    }
    procBoundary3to2
    {
        type            processor;
        value           nonuniform List<scalar> 
110
(
0.00596128
0.00596403
0.00594876
0.00596441
0.00597451
0.00598865
0.00613857
0.00613857
0.00612898
0.00613809
0.00611946
0.00598303
0.00600543
0.00596696
0.00597455
0.00597795
0.00599193
0.0061543
0.0061543
0.0061469
0.00617054
0.00612672
0.00597954
0.00598686
0.00593424
0.00591629
0.00591048
0.00591744
0.00608576
0.00608576
0.00609796
0.00613418
0.00611024
0.00599605
0.00600179
0.00592799
0.00589133
0.00587611
0.00587787
0.00604984
0.00604984
0.00607795
0.00613673
0.00611957
0.00598861
0.00599191
0.00591743
0.00587787
0.00585741
0.00585741
0.0060336
0.0060336
0.00606821
0.00613225
0.00612225
0.00597449
0.00597794
0.00591047
0.00587611
0.00585741
0.00585741
0.00603481
0.00603481
0.00607285
0.00614152
0.00613068
0.00596441
0.00597455
0.0059163
0.00589134
0.00587788
0.00587612
0.00604984
0.00604984
0.00608575
0.00615428
0.00613856
0.00594877
0.00596698
0.00593426
0.00592801
0.00591745
0.00591049
0.00607793
0.00607793
0.00609794
0.00614687
0.00612897
0.00596404
0.00600544
0.00598688
0.00600181
0.00599192
0.00597795
0.0061367
0.0061367
0.00613416
0.00617051
0.00613807
0.00596129
0.00598303
0.00597954
0.00599606
0.00598863
0.0059745
0.00611955
0.00611955
0.00611022
0.00612669
0.00611943
)
;
    }
    procBoundary3to4
    {
        type            processor;
        value           nonuniform List<scalar> 
109
(
0.00723383
0.00730156
0.00729864
0.00725874
0.00724244
0.00724269
0.00725931
0.00729922
0.00730186
0.00723383
0.00730186
0.0074737
0.00748244
0.0074336
0.00739825
0.00739862
0.00743421
0.00748288
0.0074737
0.00730156
0.00729922
0.00748288
0.00746184
0.00737039
0.00731055
0.00731085
0.00737077
0.00746184
0.00748245
0.00729864
0.00725931
0.00743421
0.00737077
0.0072711
0.00721705
0.00721716
0.0072711
0.0073704
0.00743361
0.00725875
0.0072427
0.00739862
0.00731085
0.00721716
0.00716765
0.00716765
0.00721705
0.00731055
0.00739826
0.00724245
0.00724245
0.00739826
0.00731055
0.00721705
0.00716765
0.00716765
0.00716765
0.00721716
0.00721716
0.00731086
0.00731086
0.00739862
0.00739862
0.00724269
0.00724269
0.00725875
0.00743361
0.0073704
0.0072711
0.00721716
0.00721716
0.00737994
0.00745128
0.00758135
0.00768507
0.00747879
0.00729865
0.00748245
0.00746185
0.00737078
0.00731086
0.00731086
0.00749681
0.00758107
0.00772023
0.00776134
0.00751477
0.00730157
0.00747371
0.00748288
0.00743422
0.00739863
0.00739863
0.00762108
0.00768468
0.00776109
0.00773262
0.00751299
0.00723384
0.00730187
0.00729923
0.00725932
0.0072427
0.0072427
0.00746402
0.00747846
0.00751442
0.00751282
0.00742049
)
;
    }
}


// ************************************************************************* //
