/*--------------------------------*- C++ -*----------------------------------*\
| =========                 |                                                 |
| \\      /  F ield         | OpenFOAM: The Open Source CFD Toolbox           |
|  \\    /   O peration     | Version:  2212                                  |
|   \\  /    A nd           | Website:  www.openfoam.com                      |
|    \\/     M anipulation  |                                                 |
\*---------------------------------------------------------------------------*/
FoamFile
{
    version     2.0;
    format      ascii;
    arch        "LSB;label=32;scalar=64";
    class       volVectorField;
    location    "2.65";
    object      U;
}
// * * * * * * * * * * * * * * * * * * * * * * * * * * * * * * * * * * * * * //

dimensions      [0 1 -1 0 0 0 0];

internalField   nonuniform List<vector> 
680
(
(0.0566865 0.000325484 0.000321609)
(0.0545524 0.000255573 0.000249238)
(0.0527017 0.000206804 0.000196435)
(0.0510663 0.000173491 0.000156054)
(0.0496097 0.000151943 0.000123259)
(0.0483006 0.000138139 9.32046e-05)
(0.0471126 0.000131421 6.17147e-05)
(0.0775691 0.00104227 0.000690876)
(0.0755613 0.0009458 0.000558433)
(0.073757 0.000870912 0.000476413)
(0.0721115 0.000801825 0.000426129)
(0.0705978 0.000734028 0.000393982)
(0.069198 0.000674698 0.000375004)
(0.0679004 0.000628628 0.000367458)
(0.0898593 0.00170546 0.00115876)
(0.0884638 0.00160491 0.0010679)
(0.0871733 0.00149447 0.000995104)
(0.0859822 0.00138392 0.000945645)
(0.0848785 0.00127943 0.000915402)
(0.0838473 0.00117942 0.000898957)
(0.0828825 0.00107781 0.000890384)
(0.095202 0.00137415 0.00137189)
(0.0945761 0.00132512 0.0012854)
(0.0939353 0.00124866 0.00123021)
(0.0933139 0.0011505 0.00119306)
(0.0927114 0.00104095 0.00117005)
(0.0921211 0.000925986 0.00115923)
(0.0915396 0.000803955 0.00115787)
(0.096832 0.000436749 0.00138844)
(0.0965318 0.00042667 0.00126992)
(0.0962771 0.000412272 0.00119946)
(0.0960022 0.000384345 0.00117259)
(0.0957073 0.000342886 0.0011715)
(0.0953898 0.000289056 0.00118277)
(0.0950356 0.000221042 0.00120484)
(0.0968286 -0.000443391 0.00138936)
(0.096526 -0.000437883 0.00127162)
(0.0962671 -0.000431012 0.00120249)
(0.0959852 -0.000415474 0.00117771)
(0.0956784 -0.000394289 0.00118003)
(0.0953403 -0.000373931 0.00119752)
(0.0949498 -0.000362193 0.00123259)
(0.0951943 -0.00137748 0.00137293)
(0.0945627 -0.0013308 0.00128766)
(0.0939124 -0.00125767 0.00123506)
(0.0932751 -0.00116461 0.00120208)
(0.092646 -0.00106314 0.00118674)
(0.092011 -0.000962324 0.00118769)
(0.0898518 -0.00170352 0.00116089)
(0.0884509 -0.00160163 0.00107137)
(0.0871517 -0.00148901 0.00100086)
(0.0859459 -0.00137484 0.000954799)
(0.0848173 -0.00126466 0.000931266)
(0.0837453 -0.00115619 0.000926459)
(0.077566 -0.00103798 0.000693392)
(0.0755558 -0.000938456 0.000562599)
(0.0737476 -0.000858359 0.000483385)
(0.0720947 -0.000780444 0.000439452)
(0.0705675 -0.000698693 0.000416819)
(0.0691453 -0.000617598 0.000405876)
(0.0566864 -0.000321613 0.000325485)
(0.0545524 -0.000249245 0.000255572)
(0.0527016 -0.000196443 0.000206798)
(0.0510662 -0.000156068 0.000173482)
(0.0496096 -0.000123271 0.000151922)
(0.0483003 -9.32346e-05 0.000138135)
(0.077566 0.000693387 0.00103797)
(0.0755559 0.000562594 0.00093844)
(0.0737476 0.000483381 0.000858335)
(0.0720948 0.000439454 0.00078041)
(0.0705676 0.000416822 0.000698642)
(0.0691456 0.000405872 0.000617525)
(0.0678143 0.000402123 0.000533774)
(0.093165 0.00107231 0.00106781)
(0.0920788 0.000857665 0.00084997)
(0.0911182 0.000708023 0.000694819)
(0.0902683 0.0006007 0.000577157)
(0.0895056 0.000522973 0.0004846)
(0.0888128 0.000469895 0.000412092)
(0.088191 0.000434499 0.000347931)
(0.0991864 0.00166604 0.00157407)
(0.0986936 0.00146319 0.00138746)
(0.0982497 0.00129687 0.00124633)
(0.0978623 0.00115956 0.00114091)
(0.0975292 0.00104632 0.00106318)
(0.0972479 0.000951514 0.00100245)
(0.0970182 0.000868803 0.000949654)
(0.102279 0.00145844 0.00196444)
(0.102283 0.00130208 0.00180221)
(0.102278 0.00115142 0.00165312)
(0.102276 0.00101963 0.00154459)
(0.102282 0.000904599 0.00146828)
(0.1023 0.000799452 0.00141467)
(0.10233 0.000695304 0.00137799)
(0.103428 0.000546265 0.00204506)
(0.103681 0.000498799 0.00193679)
(0.103899 0.000452384 0.00183284)
(0.104095 0.000402721 0.00173752)
(0.104283 0.000349458 0.00165617)
(0.104461 0.000294311 0.00160563)
(0.104623 0.000232453 0.00158843)
(0.103425 -0.000551396 0.0020465)
(0.103676 -0.000507474 0.00193899)
(0.103891 -0.000467219 0.00183644)
(0.104083 -0.000427618 0.00174331)
(0.104264 -0.000390545 0.0016663)
(0.104428 -0.000359913 0.00162397)
(0.104566 -0.000336229 0.00161939)
(0.102274 -0.0014597 0.00196777)
(0.102274 -0.001304 0.00180724)
(0.102263 -0.00115497 0.0016612)
(0.10225 -0.00102558 0.00155869)
(0.10224 -0.000914232 0.00149236)
(0.102229 -0.00081253 0.00145553)
(0.0991821 -0.00166313 0.00157808)
(0.0986863 -0.00145816 0.00139429)
(0.0982371 -0.00128816 0.0012577)
(0.097841 -0.00114556 0.00115999)
(0.0974936 -0.00102303 0.00109472)
(0.097191 -0.000911887 0.00105415)
(0.093165 -0.00106782 0.00107233)
(0.0920788 -0.000849982 0.000857681)
(0.0911181 -0.000694834 0.00070804)
(0.0902681 -0.000577179 0.000600718)
(0.0895054 -0.000484635 0.000523004)
(0.0888125 -0.000412232 0.000470035)
(0.0775691 -0.000690877 0.00104228)
(0.0755612 -0.000558434 0.000945813)
(0.0737569 -0.000476413 0.000870925)
(0.0721114 -0.000426126 0.000801837)
(0.0705976 -0.000393978 0.00073404)
(0.0691977 -0.000374983 0.000674714)
(0.0898519 0.00116089 0.00170351)
(0.0884509 0.00107136 0.00160161)
(0.0871517 0.00100085 0.00148898)
(0.085946 0.0009548 0.00137479)
(0.0848175 0.000931265 0.00126461)
(0.0837455 0.000926467 0.00115614)
(0.0827132 0.000937727 0.00104232)
(0.0991822 0.00157807 0.00166311)
(0.0986864 0.00139427 0.00145814)
(0.0982372 0.00125768 0.00128813)
(0.0978411 0.00115995 0.00114551)
(0.0974937 0.00109466 0.00102294)
(0.0971912 0.00105404 0.000911743)
(0.0969305 0.00103324 0.000801524)
(0.102715 0.0018713 0.00186716)
(0.102742 0.00167484 0.00166805)
(0.102757 0.00151099 0.0014999)
(0.102779 0.00137661 0.00135859)
(0.102816 0.00126795 0.00123889)
(0.102875 0.00118166 0.00113503)
(0.10296 0.00111421 0.00103993)
(0.104392 0.00149148 0.00205141)
(0.10482 0.00134494 0.00190339)
(0.1052 0.00120953 0.00176344)
(0.105545 0.0010898 0.0016402)
(0.105871 0.000985897 0.00153511)
(0.106187 0.000894848 0.00144704)
(0.106501 0.000812501 0.00137326)
(0.105008 0.000557722 0.00207953)
(0.105643 0.000507664 0.00198131)
(0.106217 0.000458008 0.00187498)
(0.10674 0.000411166 0.00177267)
(0.107223 0.000367408 0.00168264)
(0.107675 0.000325736 0.00161119)
(0.108109 0.000283516 0.00156074)
(0.105006 -0.000560274 0.00208112)
(0.10564 -0.00051183 0.00198379)
(0.106212 -0.000464869 0.00187901)
(0.106733 -0.000422325 0.00177939)
(0.107212 -0.000385134 0.00169396)
(0.107658 -0.000352993 0.00163003)
(0.108085 -0.000324624 0.00159072)
(0.104389 -0.00149043 0.00205534)
(0.104816 -0.00134324 0.00190949)
(0.105192 -0.00120698 0.00177304)
(0.105534 -0.00108594 0.00165582)
(0.105853 -0.000979889 0.00156042)
(0.106159 -0.00088476 0.00148835)
(0.102715 -0.00186718 0.00187133)
(0.102742 -0.00166808 0.00167487)
(0.102757 -0.00149993 0.00151104)
(0.102778 -0.00135863 0.00137668)
(0.102816 -0.00123895 0.00126805)
(0.102875 -0.00113511 0.00118179)
(0.0991864 -0.00157408 0.00166607)
(0.0986936 -0.00138747 0.00146323)
(0.0982496 -0.00124634 0.00129692)
(0.0978622 -0.00114092 0.00115963)
(0.097529 -0.00106319 0.0010464)
(0.0972477 -0.00100245 0.000951613)
(0.0898593 -0.00115876 0.00170549)
(0.0884637 -0.0010679 0.00160494)
(0.0871732 -0.000995105 0.00149451)
(0.085982 -0.000945644 0.00138398)
(0.0848783 -0.000915392 0.0012795)
(0.083847 -0.000898922 0.00117949)
(0.0951943 0.00137293 0.00137746)
(0.0945627 0.00128766 0.00133077)
(0.0939124 0.00123506 0.00125763)
(0.0932752 0.00120208 0.00116455)
(0.0926461 0.00118673 0.00106306)
(0.0920111 0.00118766 0.00096221)
(0.0913542 0.00120652 0.000864189)
(0.102274 0.00196776 0.00145967)
(0.102274 0.00180722 0.00130397)
(0.102263 0.00166118 0.00115491)
(0.10225 0.00155865 0.0010255)
(0.10224 0.00149229 0.000914124)
(0.102229 0.00145541 0.000812374)
(0.102217 0.00144714 0.000714152)
(0.104389 0.00205531 0.00149041)
(0.104816 0.00190945 0.0013432)
(0.105192 0.00177299 0.00120694)
(0.105534 0.00165575 0.00108588)
(0.105853 0.00156032 0.000979804)
(0.106159 0.00148823 0.000884647)
(0.106458 0.00143983 0.000795829)
(0.105224 0.00152728 0.00152517)
(0.105938 0.00142836 0.00142505)
(0.106594 0.00132447 0.00131926)
(0.107199 0.00122631 0.00121806)
(0.107763 0.00113918 0.0011261)
(0.108295 0.00106504 0.00104437)
(0.108805 0.00100423 0.000971947)
(0.105516 0.000557652 0.00150821)
(0.106367 0.000523939 0.00144463)
(0.107164 0.000486702 0.00136862)
(0.107907 0.000450216 0.00128889)
(0.108601 0.000416861 0.00121213)
(0.109252 0.000387544 0.00114308)
(0.10987 0.000361906 0.00108503)
(0.105515 -0.000557712 0.00150933)
(0.106366 -0.000524136 0.00144635)
(0.107163 -0.00048711 0.00137131)
(0.107905 -0.000450855 0.00129312)
(0.108598 -0.000417629 0.00121876)
(0.109248 -0.000388134 0.00115339)
(0.109865 -0.000361959 0.00110099)
(0.105224 -0.00152519 0.00152733)
(0.105938 -0.00142507 0.00142842)
(0.106594 -0.0013193 0.00132454)
(0.107199 -0.0012181 0.0012264)
(0.107763 -0.00112616 0.0011393)
(0.108295 -0.00104445 0.00106518)
(0.104392 -0.00205143 0.00149152)
(0.10482 -0.00190342 0.001345)
(0.1052 -0.00176347 0.0012096)
(0.105545 -0.00164023 0.0010899)
(0.105871 -0.00153515 0.000986024)
(0.106187 -0.0014471 0.000895012)
(0.102279 -0.00196445 0.00145849)
(0.102283 -0.00180222 0.00130214)
(0.102278 -0.00165313 0.0011515)
(0.102275 -0.0015446 0.00101974)
(0.102282 -0.00146828 0.000904729)
(0.1023 -0.00141466 0.000799622)
(0.095202 -0.0013719 0.0013742)
(0.094576 -0.0012854 0.00132519)
(0.0939353 -0.00123021 0.00124875)
(0.0933137 -0.00119307 0.00115062)
(0.0927112 -0.00117006 0.00104111)
(0.0921208 -0.00115923 0.000926197)
(0.0968286 0.00138935 0.000443372)
(0.096526 0.00127162 0.000437855)
(0.0962671 0.00120248 0.000430972)
(0.0959852 0.0011777 0.000415418)
(0.0956784 0.00118002 0.000394211)
(0.0953403 0.00119749 0.00037382)
(0.0949499 0.00123249 0.000362014)
(0.103425 0.00204648 0.000551365)
(0.103676 0.00193897 0.000507432)
(0.103892 0.00183641 0.000467162)
(0.104084 0.00174326 0.000427539)
(0.104264 0.00166624 0.000390436)
(0.104428 0.00162385 0.000359762)
(0.104567 0.00161925 0.000336047)
(0.105006 0.00208109 0.000560246)
(0.105641 0.00198375 0.000511793)
(0.106213 0.00187896 0.000464819)
(0.106733 0.00177932 0.000422257)
(0.107212 0.00169387 0.000385043)
(0.107658 0.0016299 0.000352873)
(0.108085 0.00159057 0.000324481)
(0.105515 0.00150929 0.000557691)
(0.106366 0.0014463 0.000524108)
(0.107163 0.00137125 0.000487073)
(0.107905 0.00129304 0.000450806)
(0.108598 0.00121866 0.000417564)
(0.109248 0.00115327 0.000388049)
(0.109865 0.00110084 0.00036185)
(0.105676 0.000546219 0.00054585)
(0.106626 0.000524087 0.000523541)
(0.107529 0.000497167 0.00049635)
(0.108382 0.000468892 0.000467645)
(0.109185 0.000441712 0.000439776)
(0.109941 0.000417282 0.000414254)
(0.110657 0.000396656 0.000391969)
(0.105676 -0.000545861 0.000546266)
(0.106626 -0.000523555 0.000524146)
(0.107529 -0.000496368 0.000497241)
(0.108382 -0.00046767 0.000468984)
(0.109185 -0.000439809 0.000441825)
(0.109941 -0.000414299 0.00041742)
(0.110657 -0.000392029 0.000396821)
(0.105516 -0.00150823 0.000557708)
(0.106367 -0.00144464 0.000524011)
(0.107164 -0.00136864 0.000486793)
(0.107907 -0.00128892 0.000450331)
(0.108601 -0.00121217 0.000417003)
(0.109252 -0.00114313 0.000387721)
(0.105008 -0.00207954 0.000557784)
(0.105643 -0.00198132 0.000507744)
(0.106217 -0.001875 0.000458112)
(0.10674 -0.0017727 0.000411299)
(0.107223 -0.00168266 0.000367577)
(0.107675 -0.00161122 0.000325952)
(0.103428 -0.00204507 0.00054633)
(0.103681 -0.0019368 0.000498886)
(0.103899 -0.00183286 0.000452498)
(0.104095 -0.00173753 0.00040287)
(0.104283 -0.00165616 0.00034965)
(0.104461 -0.00160561 0.00029456)
(0.0968319 -0.00138844 0.000436806)
(0.0965318 -0.00126993 0.00042675)
(0.096277 -0.00119947 0.000412381)
(0.0960021 -0.00117261 0.000384492)
(0.0957072 -0.00117153 0.000343084)
(0.0953896 -0.0011828 0.000289318)
(0.096832 0.00138844 -0.000436765)
(0.0965318 0.00126992 -0.000426696)
(0.0962771 0.00119945 -0.00041231)
(0.0960022 0.00117258 -0.000384401)
(0.0957073 0.00117149 -0.000342968)
(0.0953898 0.00118274 -0.000289175)
(0.0950356 0.00120479 -0.000221213)
(0.103428 0.00204505 -0.000546292)
(0.103681 0.00193677 -0.000498835)
(0.103899 0.00183282 -0.000452433)
(0.104095 0.00173748 -0.000402789)
(0.104283 0.00165611 -0.000349554)
(0.104461 0.00160554 -0.000294441)
(0.104623 0.0015883 -0.000232633)
(0.105008 0.00207951 -0.000557748)
(0.105643 0.00198128 -0.000507698)
(0.106217 0.00187494 -0.000458054)
(0.10674 0.00177262 -0.000411228)
(0.107223 0.00168257 -0.000367491)
(0.107675 0.0016111 -0.000325845)
(0.108109 0.00156063 -0.000283656)
(0.105516 0.00150819 -0.00055767)
(0.106367 0.00144459 -0.000523963)
(0.107164 0.00136858 -0.000486733)
(0.107907 0.00128884 -0.000450258)
(0.108601 0.00121206 -0.000416914)
(0.109252 0.001143 -0.000387613)
(0.10987 0.00108493 -0.000361994)
(0.105676 0.000545817 -0.000546225)
(0.106626 0.000523499 -0.000524095)
(0.107529 0.000496298 -0.000497178)
(0.108382 0.000467581 -0.000468907)
(0.109185 0.000439699 -0.000441732)
(0.109941 0.000414161 -0.000417309)
(0.110657 0.000391859 -0.000396692)
(0.105676 -0.000546264 -0.000545808)
(0.106626 -0.000524144 -0.000523488)
(0.107529 -0.000497238 -0.000496283)
(0.108382 -0.000468981 -0.000467563)
(0.109185 -0.000441822 -0.000439677)
(0.109941 -0.000417419 -0.000414136)
(0.110657 -0.000396822 -0.000391831)
(0.105515 -0.00150933 -0.000557649)
(0.106366 -0.00144635 -0.000524055)
(0.107163 -0.00137132 -0.000487006)
(0.107905 -0.00129313 -0.000450723)
(0.108598 -0.00121877 -0.000417462)
(0.109248 -0.0011534 -0.000387925)
(0.105006 -0.00208112 -0.000560203)
(0.10564 -0.00198379 -0.000511738)
(0.106212 -0.00187901 -0.000464749)
(0.106733 -0.00177939 -0.00042217)
(0.107212 -0.00169396 -0.000384936)
(0.107658 -0.00163001 -0.00035274)
(0.103425 -0.00204651 -0.000551321)
(0.103676 -0.001939 -0.000507376)
(0.103891 -0.00183645 -0.000467089)
(0.104083 -0.00174331 -0.000427444)
(0.104264 -0.0016663 -0.000390318)
(0.104428 -0.00162393 -0.000359615)
(0.0968286 -0.00138936 -0.00044333)
(0.096526 -0.00127162 -0.000437797)
(0.0962671 -0.00120249 -0.000430893)
(0.0959852 -0.00117771 -0.000415312)
(0.0956784 -0.00118002 -0.000394072)
(0.0953403 -0.0011975 -0.000373644)
(0.095202 0.00137189 -0.00137416)
(0.0945761 0.00128539 -0.00132514)
(0.0939353 0.00123019 -0.00124868)
(0.0933139 0.00119304 -0.00115054)
(0.0927113 0.00117001 -0.00104101)
(0.092121 0.00115918 -0.000926076)
(0.0915396 0.00115779 -0.000804088)
(0.102279 0.00196443 -0.00145846)
(0.102283 0.0018022 -0.0013021)
(0.102278 0.0016531 -0.00115145)
(0.102275 0.00154456 -0.00101968)
(0.102282 0.00146823 -0.000904665)
(0.1023 0.00141461 -0.000799545)
(0.10233 0.0013779 -0.000695436)
(0.104392 0.0020514 -0.00149149)
(0.10482 0.00190338 -0.00134497)
(0.1052 0.00176342 -0.00120956)
(0.105545 0.00164017 -0.00108985)
(0.105871 0.00153508 -0.000985959)
(0.106187 0.00144699 -0.000894931)
(0.106501 0.0013732 -0.000812612)
(0.105224 0.00152515 -0.00152729)
(0.105938 0.00142503 -0.00142837)
(0.106594 0.00131924 -0.00132449)
(0.107199 0.00121803 -0.00122634)
(0.107763 0.00112606 -0.00113922)
(0.108295 0.00104433 -0.00106509)
(0.108805 0.000971905 -0.0010043)
(0.105515 0.000557672 -0.00150929)
(0.106366 0.000524086 -0.0014463)
(0.107163 0.000487046 -0.00137125)
(0.107905 0.000450774 -0.00129305)
(0.108598 0.000417528 -0.00121867)
(0.109248 0.000388008 -0.00115328)
(0.109865 0.000361805 -0.00110086)
(0.104617 -0.000582346 -0.00154907)
(0.105516 -0.000557694 -0.00150817)
(0.106367 -0.000523992 -0.00144458)
(0.107164 -0.000486767 -0.00136856)
(0.107907 -0.000450298 -0.00128881)
(0.108601 -0.000416961 -0.00121203)
(0.109252 -0.000387667 -0.00114295)
(0.10987 -0.000362053 -0.00108488)
(0.104446 -0.00160524 -0.00160383)
(0.105224 -0.00152732 -0.00152512)
(0.105938 -0.00142841 -0.00142499)
(0.106594 -0.00132453 -0.00131919)
(0.107199 -0.00122639 -0.00121797)
(0.107763 -0.00113928 -0.00112598)
(0.108295 -0.00106516 -0.00104423)
(0.103893 -0.00218725 -0.00163344)
(0.104389 -0.00205534 -0.00149036)
(0.104816 -0.00190949 -0.00134315)
(0.105192 -0.00177304 -0.00120687)
(0.105534 -0.00165582 -0.00108578)
(0.105853 -0.00156041 -0.00097969)
(0.106159 -0.00148833 -0.000884501)
(0.102251 -0.00211788 -0.00160766)
(0.102274 -0.00196778 -0.00145962)
(0.102274 -0.00180725 -0.00130391)
(0.102263 -0.00166122 -0.00115484)
(0.10225 -0.0015587 -0.00102541)
(0.10224 -0.00149236 -0.000914014)
(0.102229 -0.00145551 -0.000812247)
(0.0958635 -0.00149879 -0.00140927)
(0.0951943 -0.00137294 -0.00137741)
(0.0945627 -0.00128767 -0.00133071)
(0.0939124 -0.00123507 -0.00125754)
(0.0932752 -0.00120209 -0.00116444)
(0.0926461 -0.00118675 -0.00106291)
(0.0920111 -0.00118768 -0.00096202)
(0.0898593 0.00115876 -0.00170546)
(0.0884638 0.00106789 -0.00160491)
(0.0871733 0.000995092 -0.00149447)
(0.0859822 0.000945624 -0.00138392)
(0.0848785 0.000915367 -0.00127944)
(0.0838473 0.000898903 -0.00117944)
(0.0828825 0.000890304 -0.00107785)
(0.0991864 0.00157407 -0.00166604)
(0.0986936 0.00138745 -0.0014632)
(0.0982497 0.00124632 -0.00129689)
(0.0978622 0.00114089 -0.00115959)
(0.0975292 0.00106316 -0.00104636)
(0.0972478 0.00100243 -0.000951562)
(0.0970181 0.000949597 -0.000868856)
(0.102715 0.00186716 -0.00187131)
(0.102742 0.00166805 -0.00167485)
(0.102757 0.00149989 -0.001511)
(0.102779 0.00135858 -0.00137663)
(0.102816 0.00123888 -0.00126798)
(0.102875 0.00113502 -0.0011817)
(0.10296 0.00103992 -0.00111425)
(0.104389 0.0014904 -0.00205532)
(0.104816 0.0013432 -0.00190946)
(0.105192 0.00120694 -0.00177299)
(0.105534 0.00108587 -0.00165576)
(0.105853 0.000979807 -0.00156033)
(0.106159 0.000884656 -0.00148824)
(0.106458 0.000795849 -0.00143985)
(0.105006 0.000560239 -0.00208109)
(0.105641 0.000511785 -0.00198375)
(0.106213 0.000464812 -0.00187895)
(0.106733 0.000422253 -0.00177931)
(0.107212 0.000385043 -0.00169386)
(0.107658 0.000352881 -0.00162989)
(0.108085 0.000324499 -0.00159055)
(0.104298 -0.000603596 -0.00215324)
(0.105008 -0.000557761 -0.0020795)
(0.105643 -0.000507713 -0.00198126)
(0.106217 -0.000458069 -0.00187492)
(0.10674 -0.000411241 -0.00177259)
(0.107223 -0.0003675 -0.00168253)
(0.107675 -0.000325847 -0.00161105)
(0.108109 -0.000283651 -0.00156057)
(0.103895 -0.00163418 -0.00218482)
(0.104392 -0.00149151 -0.00205137)
(0.10482 -0.00134499 -0.00190334)
(0.1052 -0.00120959 -0.00176338)
(0.105545 -0.00108987 -0.00164011)
(0.105871 -0.000985987 -0.001535)
(0.106187 -0.000894956 -0.00144689)
(0.102646 -0.00209396 -0.00209132)
(0.102715 -0.00187134 -0.00186712)
(0.102742 -0.00167488 -0.001668)
(0.102757 -0.00151104 -0.00149983)
(0.102779 -0.00137668 -0.0013585)
(0.102816 -0.00126804 -0.00123878)
(0.102875 -0.00118176 -0.00113488)
(0.099708 -0.0018247 -0.00191498)
(0.0991822 -0.00157809 -0.00166307)
(0.0986864 -0.0013943 -0.00145808)
(0.0982372 -0.00125772 -0.00128806)
(0.0978411 -0.00116001 -0.00114543)
(0.0974937 -0.00109475 -0.00102285)
(0.0971912 -0.00105416 -0.00091165)
(0.091363 -0.00127172 -0.00180029)
(0.0898519 -0.00116091 -0.00170347)
(0.0884509 -0.00107139 -0.00160156)
(0.0871517 -0.00100088 -0.00148891)
(0.085946 -0.000954831 -0.0013747)
(0.0848175 -0.0009313 -0.00126448)
(0.0837455 -0.000926488 -0.00115596)
(0.0775691 0.000690878 -0.00104226)
(0.0755613 0.000558432 -0.000945788)
(0.073757 0.000476408 -0.000870897)
(0.0721115 0.000426121 -0.000801808)
(0.0705978 0.000393968 -0.000734008)
(0.069198 0.000374976 -0.000674672)
(0.0679004 0.000367417 -0.000628596)
(0.093165 0.00106782 -0.00107232)
(0.0920788 0.000849979 -0.000857667)
(0.0911182 0.000694828 -0.000708025)
(0.0902682 0.00057717 -0.000600703)
(0.0895056 0.000484617 -0.000522978)
(0.0888128 0.000412111 -0.000469902)
(0.0881909 0.000347952 -0.000434496)
(0.0991822 0.00166312 -0.00157807)
(0.0986864 0.00145814 -0.00139427)
(0.0982372 0.00128813 -0.00125768)
(0.097841 0.00114552 -0.00115995)
(0.0974937 0.00102295 -0.00109465)
(0.0971912 0.000911764 -0.00105402)
(0.0969304 0.000801559 -0.00103321)
(0.102274 0.00145967 -0.00196776)
(0.102274 0.00130397 -0.00180722)
(0.102263 0.00115492 -0.00166117)
(0.10225 0.00102552 -0.00155864)
(0.10224 0.000914144 -0.00149228)
(0.102229 0.000812406 -0.00145539)
(0.102217 0.000714207 -0.00144712)
(0.103425 0.000551363 -0.00204648)
(0.103676 0.000507431 -0.00193896)
(0.103892 0.000467163 -0.0018364)
(0.104084 0.000427547 -0.00174325)
(0.104264 0.000390454 -0.00166622)
(0.104428 0.000359796 -0.00162383)
(0.104567 0.000336101 -0.00161922)
(0.103124 -0.000592982 -0.00213442)
(0.103428 -0.0005463 -0.00204503)
(0.103681 -0.000498844 -0.00193675)
(0.103899 -0.000452439 -0.0018328)
(0.104095 -0.000402791 -0.00173746)
(0.104283 -0.000349545 -0.00165608)
(0.104461 -0.000294415 -0.00160549)
(0.104623 -0.000232587 -0.00158825)
(0.102254 -0.001607 -0.00211568)
(0.102279 -0.00145847 -0.00196441)
(0.102283 -0.00130212 -0.00180217)
(0.102278 -0.00115147 -0.00165307)
(0.102276 -0.0010197 -0.00154451)
(0.102282 -0.000904669 -0.00146817)
(0.1023 -0.000799527 -0.0014145)
(0.0997105 -0.00191695 -0.00182238)
(0.0991864 -0.00166607 -0.00157404)
(0.0986937 -0.00146323 -0.00138741)
(0.0982497 -0.00129692 -0.00124627)
(0.0978623 -0.00115962 -0.00114083)
(0.0975292 -0.00104638 -0.00106307)
(0.097248 -0.000951573 -0.00100227)
(0.0943935 -0.00138376 -0.00138104)
(0.093165 -0.00107234 -0.00106777)
(0.0920789 -0.0008577 -0.000849925)
(0.0911182 -0.000708067 -0.000694763)
(0.0902683 -0.000600756 -0.000577086)
(0.0895056 -0.000523047 -0.000484518)
(0.0888128 -0.000470073 -0.000412091)
(0.0798648 -0.00089782 -0.00117785)
(0.0775661 -0.000693406 -0.00103795)
(0.0755559 -0.000562617 -0.000938404)
(0.0737477 -0.00048341 -0.000858289)
(0.0720948 -0.000439486 -0.000780348)
(0.0705677 -0.000416859 -0.000698565)
(0.0691457 -0.000405909 -0.000617445)
(0.0566865 0.000321618 -0.000325479)
(0.0545524 0.000249249 -0.000255566)
(0.0527016 0.000196447 -0.000206795)
(0.0510663 0.000156067 -0.00017348)
(0.0496097 0.000123272 -0.000151928)
(0.0483006 9.32193e-05 -0.000138121)
(0.0471126 6.17313e-05 -0.000131396)
(0.077566 0.00103799 -0.00069339)
(0.0755559 0.000938459 -0.000562596)
(0.0737477 0.000858358 -0.000483381)
(0.0720948 0.000780438 -0.00043945)
(0.0705676 0.000698678 -0.000416811)
(0.0691457 0.000617566 -0.000405856)
(0.0678143 0.000533832 -0.000402097)
(0.0898519 0.00170352 -0.00116089)
(0.0884509 0.00160161 -0.00107136)
(0.0871517 0.00148898 -0.00100085)
(0.085946 0.0013748 -0.000954786)
(0.0848175 0.00126462 -0.00093124)
(0.0837455 0.00115616 -0.000926428)
(0.0827132 0.00104235 -0.000937672)
(0.0951943 0.00137746 -0.00137293)
(0.0945627 0.00133077 -0.00128766)
(0.0939125 0.00125763 -0.00123505)
(0.0932752 0.00116456 -0.00120206)
(0.0926461 0.00106308 -0.00118671)
(0.0920112 0.000962245 -0.00118763)
(0.0913542 0.000864247 -0.00120648)
(0.0968286 0.000443367 -0.00138935)
(0.0965261 0.000437852 -0.00127161)
(0.0962672 0.000430972 -0.00120247)
(0.0959853 0.000415424 -0.00117769)
(0.0956785 0.000394227 -0.00118)
(0.0953404 0.000373851 -0.00119747)
(0.09495 0.000362069 -0.00123248)
(0.0971817 -0.000449628 -0.00154716)
(0.096832 -0.000436776 -0.00138843)
(0.0965319 -0.000426706 -0.00126991)
(0.0962771 -0.000412318 -0.00119944)
(0.0960023 -0.000384405 -0.00117257)
(0.0957074 -0.000342966 -0.00117148)
(0.0953899 -0.00028916 -0.00118273)
(0.0950358 -0.000221164 -0.00120477)
(0.0958681 -0.0014073 -0.00149816)
(0.0952021 -0.00137418 -0.00137188)
(0.0945761 -0.00132516 -0.00128537)
(0.0939354 -0.00124871 -0.00123017)
(0.0933139 -0.00115056 -0.00119302)
(0.0927114 -0.00104103 -0.00116999)
(0.0921212 -0.00092608 -0.00115914)
(0.0913673 -0.00180153 -0.00127041)
(0.0898594 -0.00170549 -0.00115873)
(0.0884638 -0.00160494 -0.00106787)
(0.0871733 -0.00149451 -0.00099506)
(0.0859823 -0.00138396 -0.000945587)
(0.0848786 -0.00127947 -0.000915317)
(0.0838475 -0.00117943 -0.000898819)
(0.0798665 -0.00118038 -0.000896216)
(0.0775691 -0.0010423 -0.000690851)
(0.0755613 -0.000945833 -0.000558401)
(0.073757 -0.000870947 -0.000476372)
(0.0721116 -0.000801859 -0.000426071)
(0.0705979 -0.00073406 -0.000393907)
(0.0691981 -0.000674738 -0.000374909)
(0.0592218 -0.000427246 -0.000424919)
(0.0566865 -0.000325515 -0.000321578)
(0.0545524 -0.00025561 -0.000249202)
(0.0527017 -0.000206843 -0.000196391)
(0.0510663 -0.000173536 -0.000156004)
(0.0496098 -0.000151986 -0.00012319)
(0.0483006 -0.000138204 -9.31386e-05)
)
;

boundaryField
{
    inlet
    {
        type            fixedValue;
        value           nonuniform List<vector> 0();
    }
    ami1
    {
        type            cyclicAMI;
        value           nonuniform List<vector> 0();
    }
    walls
    {
        type            noSlip;
    }
    ami2
    {
        type            cyclicAMI;
        value           nonuniform List<vector> 0();
    }
    outlet
    {
        type            zeroGradient;
    }
    procBoundary3to2
    {
        type            processor;
        value           nonuniform List<vector> 
110
(
(0.0460402 0.000133451 2.32816e-05)
(0.0667055 0.000591814 0.000357678)
(0.0819879 0.000966613 0.000882461)
(0.0909657 0.000666425 0.00116143)
(0.0946354 0.000134771 0.00124351)
(0.0944894 -0.000370341 0.00129637)
(0.091354 -0.000864388 0.00120661)
(0.091354 -0.000864388 0.00120661)
(0.0827129 -0.00104243 0.000937765)
(0.0678141 -0.000533872 0.000402141)
(0.0471123 -6.17136e-05 0.000131403)
(0.0665636 0.000411514 0.000431243)
(0.0876416 0.000412834 0.000270891)
(0.0968421 0.000789459 0.000897331)
(0.102376 0.000581394 0.00135324)
(0.104769 0.000156292 0.00159436)
(0.104681 -0.000321349 0.00164284)
(0.102217 -0.000714293 0.00144722)
(0.102217 -0.000714293 0.00144722)
(0.0969302 -0.000801579 0.00103325)
(0.0881906 -0.000347969 0.000434511)
(0.0679002 -0.000367507 0.00062873)
(0.0817056 0.000966087 0.000913663)
(0.0967066 0.00103399 0.00068368)
(0.103071 0.00106205 0.000945443)
(0.106818 0.000735797 0.00130976)
(0.10853 0.000238407 0.00153062)
(0.108494 -0.000300266 0.00157679)
(0.106458 -0.000795956 0.00143997)
(0.106458 -0.000795956 0.00143997)
(0.10296 -0.00104001 0.00111434)
(0.0970179 -0.000949704 0.000868987)
(0.0828821 -0.000890385 0.00107798)
(0.090653 0.00124937 0.000764173)
(0.102198 0.00147071 0.000612945)
(0.106753 0.00141536 0.000711176)
(0.109299 0.000956487 0.000907091)
(0.110464 0.000338096 0.00104078)
(0.110457 -0.000337947 0.00106542)
(0.108805 -0.000972063 0.00100441)
(0.108805 -0.000972063 0.00100441)
(0.106501 -0.00137336 0.000812711)
(0.10233 -0.00137805 0.000695577)
(0.0915392 -0.00115787 0.000804245)
(0.0944896 0.00129619 0.000370071)
(0.104681 0.00164266 0.000321122)
(0.108494 0.00157661 0.00030009)
(0.110457 0.00106525 0.000337811)
(0.111341 0.000380447 0.000373451)
(0.111341 -0.000373528 0.000380641)
(0.10987 -0.0010851 0.000362123)
(0.10987 -0.0010851 0.000362123)
(0.108109 -0.0015608 0.0002838)
(0.104623 -0.00158846 0.0002328)
(0.0950354 -0.00120485 0.000221371)
(0.0946354 0.0012434 -0.00013501)
(0.104769 0.00159419 -0.00015653)
(0.10853 0.00153047 -0.000238585)
(0.110464 0.00104065 -0.00033821)
(0.111341 0.000373323 -0.000380495)
(0.111341 -0.000380644 -0.000373292)
(0.109865 -0.001101 -0.000361701)
(0.109865 -0.001101 -0.000361701)
(0.108085 -0.00159069 -0.0003243)
(0.104566 -0.00161934 -0.000335842)
(0.0949498 -0.00123253 -0.000361815)
(0.0909656 0.00116131 -0.000666629)
(0.102376 0.00135311 -0.000581581)
(0.106818 0.00130969 -0.000735947)
(0.109299 0.000907048 -0.000956576)
(0.110457 0.000337763 -0.00106527)
(0.110464 -0.000338271 -0.0010406)
(0.108805 -0.00100437 -0.000971775)
(0.108805 -0.00100437 -0.000971775)
(0.106458 -0.00143991 -0.00079562)
(0.102217 -0.00144716 -0.000713919)
(0.0913542 -0.00120656 -0.000863987)
(0.0819879 0.00088235 -0.000966684)
(0.0968419 0.000897262 -0.000789543)
(0.103071 0.000945457 -0.00106212)
(0.106753 0.000711219 -0.00141539)
(0.108494 0.000300126 -0.00157659)
(0.10853 -0.000238565 -0.00153039)
(0.106501 -0.000812633 -0.00137308)
(0.106501 -0.000812633 -0.00137308)
(0.10296 -0.00111428 -0.00103971)
(0.0969304 -0.00103322 -0.000801256)
(0.0827133 -0.000937775 -0.00104212)
(0.0667055 0.000357626 -0.000591771)
(0.0876415 0.00027092 -0.000412828)
(0.0967065 0.000683743 -0.00103396)
(0.102198 0.000613035 -0.00147068)
(0.104681 0.000321206 -0.00164262)
(0.104769 -0.000156461 -0.00159413)
(0.10233 -0.000695434 -0.00137783)
(0.10233 -0.000695434 -0.00137783)
(0.0970182 -0.000868919 -0.000949467)
(0.088191 -0.000434541 -0.000347782)
(0.0678146 -0.000402166 -0.000533672)
(0.0460402 2.32952e-05 -0.000133421)
(0.0665636 0.000431315 -0.000411462)
(0.0817057 0.000913718 -0.000966011)
(0.0906531 0.000764263 -0.00124933)
(0.0944897 0.000370164 -0.00129617)
(0.0946356 -0.000134913 -0.00124336)
(0.0915397 -0.000804076 -0.00115774)
(0.0915397 -0.000804076 -0.00115774)
(0.0828827 -0.00107788 -0.000890239)
(0.0679007 -0.000628748 -0.000367417)
(0.0471128 -0.000131476 -6.15969e-05)
)
;
    }
    procBoundary3to4
    {
        type            processor;
        value           nonuniform List<vector> 
109
(
(0.0592218 0.000427222 0.000424941)
(0.0798665 0.00118036 0.000896236)
(0.0913673 0.0018015 0.00127044)
(0.095868 0.00140727 0.00149817)
(0.0971817 0.000449608 0.00154717)
(0.0971797 -0.000453501 0.00154771)
(0.0958635 -0.00140931 0.00149878)
(0.091363 -0.00180033 0.0012717)
(0.0798648 -0.00117788 0.00089781)
(0.0592218 -0.000424944 0.000427224)
(0.0798648 0.000897805 0.00117787)
(0.0943935 0.00138375 0.00138107)
(0.0997105 0.00191693 0.0018224)
(0.102254 0.00160698 0.0021157)
(0.103124 0.000592955 0.00213444)
(0.103123 -0.000596084 0.00213536)
(0.102251 -0.00160771 0.00211788)
(0.099708 -0.00191502 0.00182469)
(0.0943935 -0.00138107 0.00138376)
(0.0798665 -0.000896237 0.00118037)