/*--------------------------------*- C++ -*----------------------------------*\
| =========                 |                                                 |
| \\      /  F ield         | OpenFOAM: The Open Source CFD Toolbox           |
|  \\    /   O peration     | Version:  2212                                  |
|   \\  /    A nd           | Website:  www.openfoam.com                      |
|    \\/     M anipulation  |                                                 |
\*---------------------------------------------------------------------------*/
FoamFile
{
    version     2.0;
    format      ascii;
    arch        "LSB;label=32;scalar=64";
    class       volScalarField;
    location    "2.7";
    object      k;
}
// * * * * * * * * * * * * * * * * * * * * * * * * * * * * * * * * * * * * * //

dimensions      [0 2 -2 0 0 0 0];

internalField   nonuniform List<scalar> 
6840
(
0.213564
0.055916
0.0283994
0.0193412
0.0146928
0.0118511
0.00989071
0.00851609
0.0074914
0.00669643
0.00606075
0.00555126
0.00512365
0.00474647
0.00442791
0.00416122
0.00393766
0.00375424
0.00363445
0.00352503
0.264759
0.104702
0.0585298
0.0391631
0.0286199
0.0219935
0.0175362
0.0143635
0.0120085
0.0102142
0.008817
0.00770677
0.00680569
0.00606371
0.00545362
0.00495463
0.00454206
0.0042027
0.00394087
0.00375985
0.283364
0.126774
0.071702
0.0473282
0.0338664
0.0256618
0.020461
0.0167973
0.014049
0.0119418
0.0102849
0.00895707
0.00788653
0.00701337
0.00629181
0.00568954
0.00518498
0.00476132
0.00440929
0.00413681
0.292299
0.141633
0.0819302
0.0541654
0.0389231
0.0292875
0.0232724
0.0190788
0.0159344
0.0135153
0.0116273
0.0101134
0.00888277
0.00787234
0.00703489
0.00633485
0.00574512
0.00524509
0.00481954
0.00446571
0.295943
0.148782
0.0871941
0.0576749
0.0415194
0.0310723
0.0246451
0.020221
0.0169049
0.0143248
0.0123081
0.0107019
0.00939544
0.00832129
0.0074292
0.00668156
0.00604934
0.00551056
0.00505198
0.00469998
0.295943
0.148782
0.0871941
0.0576749
0.0415193
0.0310722
0.0246449
0.0202207
0.0169046
0.0143243
0.0123073
0.0107007
0.0093938
0.00831887
0.00742557
0.00667611
0.00604108
0.00549816
0.00503409
0.00467992
0.292299
0.141633
0.0819301
0.0541653
0.038923
0.0292873
0.0232721
0.0190783
0.0159336
0.0135142
0.0116256
0.0101111
0.00887934
0.00786723
0.00702731
0.00632336
0.00572746
0.00521778
0.00478004
0.00443684
0.283364
0.126774
0.071702
0.0473281
0.0338662
0.0256616
0.0204607
0.0167969
0.0140484
0.0119406
0.0102833
0.00895481
0.00788328
0.00700852
0.00628435
0.00567818
0.00516723
0.00473318
0.004365
0.00407615
0.264759
0.104702
0.0585298
0.0391631
0.0286199
0.0219935
0.0175361
0.0143634
0.0120084
0.0102139
0.00881648
0.00770591
0.00680425
0.00606097
0.00544944
0.00494781
0.00452992
0.00417909
0.00389396
0.00367223
0.213564
0.055916
0.0283994
0.0193412
0.0146928
0.0118511
0.00989071
0.0085161
0.00749139
0.00669644
0.00606072
0.00555131
0.00512356
0.00474655
0.00442786
0.00416116
0.00393759
0.00375417
0.00363441
0.00352488
0.264759
0.104702
0.0585298
0.0391631
0.0286199
0.0219935
0.0175361
0.0143634
0.0120084
0.0102139
0.00881648
0.00770592
0.00680429
0.00606084
0.00544948
0.0049479
0.00452999
0.00417915
0.00389402
0.0036723
0.311746
0.197541
0.130357
0.0911457
0.0668023
0.0508112
0.0397945
0.0319123
0.0260944
0.0216876
0.018277
0.015589
0.0134416
0.011699
0.0102686
0.00908164
0.00808745
0.00724814
0.00655059
0.00589038
0.31754
0.217754
0.151086
0.108549
0.0807157
0.0618727
0.0486775
0.039142
0.032059
0.026672
0.0224907
0.0191882
0.0165402
0.0143885
0.01262
0.0111527
0.00992503
0.00888998
0.00801534
0.00726939
0.319723
0.227073
0.162232
0.118772
0.0893612
0.0689929
0.0545308
0.0439847
0.0361001
0.0300752
0.0253828
0.0216662
0.018679
0.0162471
0.0142447
0.0125793
0.0111819
0.00999991
0.00899244
0.00812922
0.320484
0.23086
0.167176
0.123531
0.0935159
0.0724825
0.0574407
0.0464212
0.0381538
0.0318171
0.0268707
0.0229464
0.0197876
0.0172122
0.0150885
0.0133198
0.0118326
0.0105714
0.00949274
0.00856414
0.320484
0.23086
0.167176
0.123531
0.0935158
0.0724823
0.0574404
0.0464208
0.0381532
0.0318163
0.0268696
0.0229448
0.0197853
0.0172088
0.0150836
0.0133127
0.0118226
0.010557
0.00947214
0.00853014
0.319723
0.227073
0.162232
0.118772
0.0893609
0.0689925
0.0545302
0.0439839
0.036099
0.0300736
0.0253805
0.0216628
0.0186742
0.0162401
0.0142347
0.0125648
0.0111607
0.00996892
0.0089479
0.00806532
0.31754
0.217754
0.151085
0.108549
0.0807155
0.0618724
0.0486771
0.0391414
0.0320581
0.0266707
0.0224889
0.0191856
0.0165365
0.0143832
0.0126122
0.0111414
0.00990831
0.00886463
0.00797724
0.00721359
0.311746
0.197541
0.130357
0.0911457
0.0668023
0.0508112
0.0397945
0.0319123
0.0260944
0.0216876
0.018277
0.015589
0.0134416
0.0116991
0.0102685
0.00908151
0.00808735
0.00724803
0.00655047
0.00589024
0.264759
0.104702
0.0585298
0.0391631
0.0286199
0.0219935
0.0175362
0.0143635
0.0120085
0.0102142
0.008817
0.00770676
0.00680566
0.00606378
0.00545356
0.00495454
0.00454195
0.00420254
0.00394065
0.00375956
0.283364
0.126774
0.071702
0.0473281
0.0338662
0.0256616
0.0204607
0.0167969
0.0140484
0.0119406
0.0102833
0.0089548
0.00788324
0.00700855
0.00628436
0.0056782
0.00516725
0.00473319
0.00436502
0.00407618
0.31754
0.217754
0.151085
0.108549
0.0807155
0.0618724
0.0486771
0.0391414
0.0320581
0.0266707
0.0224889
0.0191855
0.0165364
0.0143832
0.0126122
0.0111414
0.00990831
0.00886458
0.00797716
0.00721352
0.322005
0.239026
0.177588
0.133616
0.102323
0.0798669
0.0635105
0.0513821
0.0422216
0.0351794
0.0296757
0.0253094
0.0217981
0.0189398
0.0165871
0.0146311
0.0129905
0.0116029
0.0104185
0.00938215
0.323293
0.245617
0.187499
0.144537
0.112864
0.089404
0.0718634
0.0585866
0.0483998
0.0404745
0.0342251
0.0292339
0.0252
0.0219039
0.0191836
0.0169176
0.0150139
0.0134013
0.0120219
0.0108168
0.323714
0.247819
0.191099
0.14881
0.117249
0.0935708
0.0756573
0.0619605
0.0513627
0.0430612
0.0364792
0.0311994
0.0269176
0.0234093
0.0205075
0.0180861
0.0160485
0.0143197
0.0128371
0.0115344
0.323714
0.247819
0.191099
0.14881
0.117249
0.0935706
0.0756571
0.0619603
0.0513624
0.0430608
0.0364786
0.0311986
0.0269164
0.0234077
0.0205053
0.018083
0.0160443
0.0143138
0.0128272
0.0115048
0.323293
0.245617
0.187499
0.144536
0.112864
0.0894038
0.0718631
0.0585862
0.0483992
0.0404738
0.0342241
0.0292325
0.0251981
0.0219013
0.0191799
0.0169124
0.0150068
0.0133914
0.0120079
0.0107934
0.322005
0.239026
0.177588
0.133616
0.102323
0.0798669
0.0635105
0.0513821
0.0422216
0.0351794
0.0296757
0.0253094
0.0217982
0.0189398
0.016587
0.0146311
0.0129905
0.0116029
0.0104185
0.00938203
0.31754
0.217754
0.151086
0.108549
0.0807157
0.0618727
0.0486775
0.039142
0.032059
0.026672
0.0224907
0.0191882
0.0165402
0.0143886
0.0126199
0.0111526
0.00992492
0.00888986
0.00801515
0.00726909
0.283364
0.126774
0.071702
0.0473282
0.0338664
0.0256618
0.020461
0.0167973
0.014049
0.0119418
0.0102849
0.00895706
0.0078865
0.00701337
0.00629172
0.00568949
0.00518492
0.00476124
0.00440916
0.00413659
0.292299
0.141633
0.0819301
0.0541653
0.038923
0.0292873
0.0232721
0.0190783
0.0159336
0.0135142
0.0116256
0.0101111
0.00887934
0.00786728
0.00702727
0.00632335
0.00572746
0.00521776
0.00478
0.00443675
0.319723
0.227073
0.162232
0.118772
0.0893609
0.0689925
0.0545302
0.0439839
0.036099
0.0300736
0.0253805
0.0216628
0.0186742
0.0162402
0.0142346
0.0125647
0.0111607
0.00996883
0.00894774
0.00806492
0.323293
0.245617
0.187499
0.144537
0.112864
0.0894038
0.0718631
0.0585862
0.0483992
0.0404738
0.0342241
0.0292325
0.025198
0.0219013
0.0191799
0.0169124
0.0150067
0.0133914
0.0120078
0.0107932
0.324288
0.250862
0.19613
0.154888
0.123591
0.09968
0.0812741
0.0669838
0.0557848
0.0469224
0.0398396
0.0341237
0.0294675
0.0256402
0.0224673
0.0198154
0.0175818
0.0156853
0.0140575
0.0126268
0.32459
0.252403
0.19891
0.158543
0.12769
0.103871
0.08532
0.0707499
0.0592099
0.0499927
0.0425684
0.0365383
0.0316005
0.0275249
0.0241353
0.0212953
0.0188983
0.0168593
0.0151044
0.0135499
0.32459
0.252403
0.19891
0.158543
0.12769
0.103871
0.08532
0.0707498
0.0592098
0.0499925
0.0425682
0.0365381
0.0316002
0.0275245
0.0241347
0.0212945
0.0188973
0.0168579
0.0151019
0.0135427
0.324288
0.250862
0.19613
0.154888
0.123591
0.09968
0.0812741
0.0669838
0.0557848
0.0469224
0.0398396
0.0341237
0.0294675
0.0256402
0.0224673
0.0198154
0.0175818
0.0156853
0.0140575
0.0126267
0.323293
0.245617
0.187499
0.144537
0.112864
0.089404
0.0718634
0.0585866
0.0483997
0.0404745
0.0342251
0.0292339
0.0252
0.0219039
0.0191836
0.0169176
0.0150139
0.0134013
0.0120218
0.0108165
0.319723
0.227073
0.162232
0.118772
0.0893612
0.0689929
0.0545308
0.0439847
0.0361001
0.0300752
0.0253828
0.0216661
0.018679
0.0162471
0.0142446
0.0125792
0.0111818
0.00999983
0.00899231
0.00812878
0.292299
0.141633
0.0819302
0.0541654
0.0389231
0.0292875
0.0232724
0.0190788
0.0159344
0.0135153
0.0116272
0.0101134
0.00888273
0.00787232
0.00703487
0.00633483
0.00574512
0.00524508
0.0048195
0.00446549
0.295943
0.148782
0.0871941
0.0576749
0.0415193
0.0310722
0.0246449
0.0202207
0.0169046
0.0143243
0.0123073
0.0107007
0.0093938
0.00831887
0.00742553
0.00667607
0.00604105
0.00549812
0.00503401
0.00467979
0.320484
0.23086
0.167176
0.123531
0.0935158
0.0724823
0.0574404
0.0464208
0.0381532
0.0318163
0.0268696
0.0229448
0.0197853
0.0172088
0.0150836
0.0133127
0.0118225
0.0105569
0.00947202
0.00852989
0.323714
0.247819
0.191099
0.14881
0.117249
0.0935706
0.0756571
0.0619603
0.0513624
0.0430608
0.0364786
0.0311986
0.0269164
0.0234077
0.0205053
0.018083
0.0160443
0.0143137
0.0128271
0.0115045
0.32459
0.252403
0.19891
0.158543
0.12769
0.103871
0.08532
0.0707498
0.0592098
0.0499925
0.0425682
0.0365381
0.0316002
0.0275245
0.0241347
0.0212945
0.0188973
0.0168579
0.0151019
0.0135426
0.324844
0.253685
0.20131
0.161836
0.131535
0.107943
0.0893701
0.0746125
0.0627921
0.0532535
0.0455014
0.0391574
0.0339304
0.0295946
0.0259744
0.0229318
0.0203578
0.0181634
0.0162692
0.0145813
0.324844
0.253685
0.20131
0.161836
0.131535
0.107943
0.0893701
0.0746125
0.062792
0.0532535
0.0455014
0.0391574
0.0339304
0.0295946
0.0259744
0.0229318
0.0203578
0.0181634
0.0162693
0.0145812
0.32459
0.252403
0.19891
0.158543
0.12769
0.103871
0.08532
0.0707499
0.0592099
0.0499927
0.0425684
0.0365383
0.0316005
0.0275249
0.0241353
0.0212952
0.0188983
0.0168593
0.0151044
0.0135498
0.323714
0.247819
0.191099
0.14881
0.117249
0.0935708
0.0756573
0.0619605
0.0513627
0.0430612
0.0364792
0.0311994
0.0269175
0.0234093
0.0205075
0.018086
0.0160485
0.0143196
0.0128369
0.0115341
0.320484
0.23086
0.167176
0.123531
0.0935159
0.0724825
0.0574407
0.0464212
0.0381537
0.0318171
0.0268707
0.0229464
0.0197875
0.0172121
0.0150886
0.0133198
0.0118327
0.0105714
0.00949266
0.00856382
0.295943
0.148782
0.0871941
0.0576749
0.0415194
0.0310723
0.0246451
0.020221
0.0169049
0.0143248
0.0123081
0.0107019
0.00939538
0.00832122
0.00742928
0.00668163
0.0060494
0.00551062
0.00505203
0.00470001
0.295943
0.148782
0.0871941
0.0576749
0.0415194
0.0310723
0.0246451
0.020221
0.0169049
0.0143248
0.0123081
0.0107019
0.00939545
0.0083213
0.00742919
0.00668155
0.00604933
0.00551055
0.00505196
0.0047
0.320484
0.23086
0.167176
0.123531
0.0935159
0.0724825
0.0574407
0.0464212
0.0381538
0.0318171
0.0268707
0.0229464
0.0197876
0.0172122
0.0150885
0.0133197
0.0118326
0.0105714
0.00949277
0.00856428
0.323714
0.247819
0.191099
0.14881
0.117249
0.0935708
0.0756573
0.0619605
0.0513627
0.0430612
0.0364792
0.0311994
0.0269176
0.0234093
0.0205075
0.0180861
0.0160485
0.0143197
0.0128372
0.0115345
0.32459
0.252403
0.19891
0.158543
0.12769
0.103871
0.08532
0.0707499
0.0592099
0.0499927
0.0425684
0.0365383
0.0316005
0.0275249
0.0241353
0.0212953
0.0188983
0.0168594
0.0151044
0.0135499
0.324844
0.253685
0.20131
0.161836
0.131535
0.107943
0.0893701
0.0746125
0.0627921
0.0532535
0.0455014
0.0391574
0.0339304
0.0295946
0.0259744
0.0229318
0.0203578
0.0181634
0.0162692
0.0145812
0.324844
0.253685
0.20131
0.161836
0.131535
0.107943
0.0893701
0.0746125
0.0627921
0.0532535
0.0455014
0.0391574
0.0339304
0.0295946
0.0259744
0.0229318
0.0203578
0.0181634
0.0162693
0.0145812
0.32459
0.252403
0.19891
0.158543
0.12769
0.103871
0.08532
0.0707498
0.0592098
0.0499925
0.0425682
0.0365381
0.0316002
0.0275245
0.0241347
0.0212945
0.0188973
0.0168579
0.0151018
0.0135426
0.323714
0.247819
0.191099
0.14881
0.117249
0.0935706
0.0756571
0.0619603
0.0513624
0.0430608
0.0364786
0.0311986
0.0269164
0.0234077
0.0205053
0.018083
0.0160443
0.0143137
0.0128272
0.0115047
0.320484
0.23086
0.167176
0.123531
0.0935158
0.0724823
0.0574404
0.0464208
0.0381532
0.0318163
0.0268696
0.0229448
0.0197852
0.0172087
0.0150837
0.0133128
0.0118226
0.010557
0.00947218
0.00853009
0.295943
0.148782
0.0871941
0.0576749
0.0415193
0.0310722
0.0246449
0.0202207
0.0169046
0.0143243
0.0123073
0.0107007
0.00939376
0.00831879
0.00742567
0.00667618
0.00604114
0.00549823
0.00503416
0.00467998
0.292299
0.141633
0.0819302
0.0541654
0.0389231
0.0292875
0.0232724
0.0190788
0.0159344
0.0135153
0.0116273
0.0101134
0.00888278
0.00787235
0.0070349
0.00633485
0.00574514
0.00524513
0.00481961
0.00446586
0.319723
0.227073
0.162232
0.118772
0.0893612
0.0689929
0.0545308
0.0439847
0.0361001
0.0300752
0.0253828
0.0216662
0.0186791
0.0162471
0.0142447
0.0125793
0.0111819
0.01
0.00899261
0.00812952
0.323293
0.245617
0.187499
0.144537
0.112864
0.089404
0.0718634
0.0585866
0.0483998
0.0404746
0.0342251
0.0292339
0.0252
0.021904
0.0191836
0.0169177
0.015014
0.0134014
0.0120221
0.010817
0.324288
0.250862
0.19613
0.154888
0.123591
0.09968
0.0812741
0.0669838
0.0557848
0.0469224
0.0398396
0.0341237
0.0294675
0.0256402
0.0224673
0.0198155
0.0175819
0.0156853
0.0140576
0.0126269
0.32459
0.252403
0.19891
0.158543
0.12769
0.103871
0.08532
0.0707498
0.0592098
0.0499925
0.0425682
0.0365381
0.0316002
0.0275245
0.0241348
0.0212945
0.0188973
0.0168579
0.0151019
0.0135426
0.32459
0.252403
0.19891
0.158543
0.12769
0.103871
0.08532
0.0707499
0.0592099
0.0499927
0.0425684
0.0365383
0.0316005
0.0275249
0.0241353
0.0212953
0.0188983
0.0168593
0.0151044
0.0135499
0.324288
0.250862
0.19613
0.154888
0.123591
0.09968
0.0812741
0.0669838
0.0557848
0.0469224
0.0398396
0.0341237
0.0294675
0.0256402
0.0224673
0.0198154
0.0175818
0.0156853
0.0140575
0.0126269
0.323293
0.245617
0.187499
0.144537
0.112864
0.0894038
0.0718631
0.0585862
0.0483992
0.0404738
0.0342241
0.0292325
0.0251981
0.0219013
0.0191799
0.0169124
0.0150068
0.0133914
0.0120079
0.0107934
0.319723
0.227073
0.162232
0.118772
0.0893609
0.0689925
0.0545302
0.0439839
0.036099
0.0300736
0.0253805
0.0216628
0.0186742
0.0162402
0.0142347
0.0125648
0.0111608
0.00996895
0.00894792
0.00806527
0.292299
0.141633
0.0819301
0.0541653
0.038923
0.0292873
0.0232721
0.0190783
0.0159336
0.0135142
0.0116256
0.0101111
0.00887935
0.00786726
0.00702734
0.0063234
0.00572751
0.00521783
0.00478011
0.00443697
0.283364
0.126774
0.071702
0.0473282
0.0338664
0.0256618
0.020461
0.0167973
0.014049
0.0119418
0.0102849
0.00895708
0.00788654
0.00701338
0.00629182
0.00568957
0.00518502
0.00476139
0.00440938
0.00413694
0.31754
0.217754
0.151086
0.108549
0.0807157
0.0618727
0.0486775
0.039142
0.032059
0.026672
0.0224907
0.0191882
0.0165402
0.0143886
0.0126201
0.0111528
0.00992516
0.00889018
0.0080156
0.00726978
0.322005
0.239026
0.177588
0.133616
0.102323
0.0798669
0.0635105
0.0513821
0.0422216
0.0351794
0.0296757
0.0253094
0.0217982
0.0189398
0.0165872
0.0146312
0.0129906
0.011603
0.0104187
0.00938246
0.323293
0.245617
0.187499
0.144537
0.112864
0.0894038
0.0718631
0.0585862
0.0483992
0.0404738
0.0342241
0.0292325
0.025198
0.0219013
0.0191799
0.0169125
0.0150068
0.0133914
0.0120078
0.0107934
0.323714
0.247819
0.191099
0.14881
0.117249
0.0935706
0.0756571
0.0619603
0.0513624
0.0430608
0.0364786
0.0311986
0.0269164
0.0234077
0.0205053
0.018083
0.0160443
0.0143137
0.0128271
0.0115045
0.323714
0.247819
0.191099
0.14881
0.117249
0.0935708
0.0756573
0.0619605
0.0513627
0.0430612
0.0364792
0.0311994
0.0269176
0.0234093
0.0205075
0.018086
0.0160485
0.0143196
0.012837
0.0115342
0.323293
0.245617
0.187499
0.144537
0.112864
0.089404
0.0718634
0.0585866
0.0483998
0.0404746
0.0342251
0.0292339
0.0252
0.021904
0.0191836
0.0169176
0.0150139
0.0134013
0.0120219
0.0108168
0.322005
0.239026
0.177588
0.133616
0.102323
0.0798669
0.0635105
0.0513821
0.0422216
0.0351794
0.0296757
0.0253094
0.0217982
0.0189398
0.0165871
0.0146311
0.0129905
0.0116029
0.0104186
0.00938216
0.31754
0.217754
0.151085
0.108549
0.0807155
0.0618724
0.0486771
0.0391414
0.0320581
0.0266707
0.0224889
0.0191856
0.0165365
0.0143832
0.0126123
0.0111415
0.00990838
0.00886472
0.00797728
0.0072143
0.283364
0.126774
0.071702
0.0473281
0.0338662
0.0256616
0.0204607
0.0167969
0.0140484
0.0119406
0.0102833
0.00895482
0.00788329
0.00700855
0.00628438
0.00567821
0.00516727
0.00473323
0.00436505
0.00407634
0.264759
0.104702
0.0585298
0.0391631
0.0286199
0.0219935
0.0175362
0.0143635
0.0120085
0.0102142
0.008817
0.00770678
0.0068057
0.00606372
0.00545365
0.00495468
0.00454213
0.0042028
0.00394102
0.00376002
0.311746
0.197541
0.130357
0.0911457
0.0668023
0.0508112
0.0397945
0.0319123
0.0260944
0.0216876
0.018277
0.0155891
0.0134416
0.011699
0.0102687
0.00908175
0.00808759
0.00724833
0.00655082
0.00589081
0.31754
0.217754
0.151085
0.108549
0.0807155
0.0618724
0.0486771
0.0391414
0.0320581
0.0266707
0.0224889
0.0191856
0.0165364
0.0143832
0.0126123
0.0111415
0.00990839
0.0088647
0.00797732
0.00721378
0.319723
0.227073
0.162232
0.118772
0.0893609
0.0689925
0.0545302
0.0439839
0.036099
0.0300736
0.0253805
0.0216628
0.0186742
0.0162402
0.0142346
0.0125647
0.0111607
0.00996886
0.00894778
0.00806506
0.320484
0.23086
0.167176
0.123531
0.0935158
0.0724823
0.0574404
0.0464208
0.0381532
0.0318163
0.0268696
0.0229448
0.0197853
0.0172088
0.0150836
0.0133127
0.0118225
0.0105569
0.00947205
0.00852985
0.320484
0.23086
0.167176
0.123531
0.0935159
0.0724825
0.0574407
0.0464212
0.0381538
0.0318171
0.0268707
0.0229464
0.0197876
0.0172122
0.0150885
0.0133197
0.0118326
0.0105714
0.00949268
0.00856407
0.319723
0.227073
0.162232
0.118772
0.0893612
0.0689929
0.0545308
0.0439847
0.0361001
0.0300752
0.0253828
0.0216662
0.018679
0.0162471
0.0142447
0.0125793
0.0111819
0.00999999
0.00899256
0.00812938
0.31754
0.217754
0.151086
0.108549
0.0807157
0.0618727
0.0486775
0.039142
0.032059
0.026672
0.0224907
0.0191882
0.0165402
0.0143887
0.01262
0.0111527
0.00992509
0.00889012
0.00801548
0.00726965
0.311746
0.197541
0.130357
0.0911457
0.0668023
0.0508112
0.0397945
0.0319123
0.0260944
0.0216876
0.018277
0.0155891
0.0134417
0.0116992
0.0102686
0.00908162
0.00808749
0.00724824
0.00655066
0.00589086
0.264759
0.104702
0.0585298
0.0391631
0.0286199
0.0219935
0.0175361
0.0143634
0.0120084
0.0102139
0.00881649
0.00770592
0.00680426
0.00606101
0.00544948
0.00494785
0.00452997
0.00417915
0.00389408
0.00367261
0.213564
0.055916
0.0283994
0.0193412
0.0146928
0.0118511
0.00989071
0.00851609
0.0074914
0.00669643
0.00606075
0.00555126
0.00512365
0.00474648
0.00442793
0.00416125
0.0039377
0.00375429
0.00363455
0.00352514
0.264759
0.104702
0.0585298
0.0391631
0.0286199
0.0219935
0.0175361
0.0143634
0.0120084
0.0102139
0.00881648
0.00770592
0.0068043
0.00606085
0.00544952
0.00494794
0.00453003
0.00417919
0.00389408
0.00367246
0.283364
0.126774
0.071702
0.0473281
0.0338662
0.0256616
0.0204607
0.0167969
0.0140484
0.0119406
0.0102833
0.0089548
0.00788323
0.00700854
0.00628437
0.00567821
0.00516725
0.00473318
0.004365
0.00407617
0.292299
0.141633
0.0819301
0.0541653
0.038923
0.0292873
0.0232721
0.0190783
0.0159336
0.0135142
0.0116256
0.0101111
0.00887934
0.00786728
0.00702727
0.00632335
0.00572745
0.00521775
0.00477997
0.00443667
0.295943
0.148782
0.0871941
0.0576749
0.0415193
0.0310722
0.0246449
0.0202207
0.0169046
0.0143243
0.0123074
0.0107008
0.0093938
0.00831887
0.00742552
0.00667607
0.00604105
0.00549813
0.00503402
0.00467985
0.295943
0.148782
0.0871941
0.0576749
0.0415194
0.0310723
0.0246451
0.020221
0.0169049
0.0143248
0.0123082
0.0107019
0.00939545
0.0083213
0.00742916
0.00668154
0.00604934
0.00551058
0.00505201
0.0047001
0.292299
0.141633
0.0819302
0.0541654
0.0389231
0.0292875
0.0232725
0.0190788
0.0159344
0.0135153
0.0116273
0.0101134
0.00888277
0.00787235
0.00703489
0.00633487
0.00574518
0.00524518
0.00481967
0.00446588
0.283364
0.126774
0.071702
0.0473282
0.0338664
0.0256618
0.020461
0.0167973
0.014049
0.0119418
0.0102849
0.00895709
0.00788654
0.00701342
0.00629178
0.00568957
0.00518504
0.00476141
0.0044094
0.00413699
0.264759
0.104702
0.0585298
0.0391631
0.0286199
0.0219935
0.0175362
0.0143635
0.0120085
0.0102142
0.00881701
0.00770678
0.00680569
0.00606384
0.00545363
0.00495463
0.00454208
0.00420275
0.00394096
0.00376007
0.213564
0.055916
0.0283994
0.0193412
0.0146928
0.0118511
0.00989071
0.0085161
0.00749139
0.00669644
0.00606072
0.00555131
0.00512357
0.00474658
0.00442789
0.00416121
0.00393766
0.00375426
0.00363457
0.00352522
0.00446205
0.00386475
0.00334879
0.00305056
0.00286542
0.00274387
0.00265453
0.00258135
0.00251941
0.00246614
0.00241733
0.00237264
0.00232704
0.00228451
0.00224299
0.00220483
0.00216768
0.00213349
0.00210119
0.00206994
0.00204095
0.002014
0.00198907
0.00196547
0.00194212
0.00191988
0.00189795
0.00187692
0.00185612
0.00183662
0.00181667
0.0017977
0.00177918
0.00176088
0.0017437
0.00172637
0.00171011
0.00169373
0.00167973
0.00165512
0.00358195
0.00322784
0.00295399
0.00276646
0.00262268
0.00251115
0.00242311
0.00234964
0.00228375
0.00222498
0.00216925
0.00212035
0.00207077
0.00202469
0.00198072
0.00193978
0.00190176
0.00186611
0.00183331
0.00180187
0.00177216
0.00174459
0.00171935
0.00169605
0.00167425
0.001653
0.0016324
0.00161242
0.00159309
0.0015743
0.00155599
0.00153805
0.00152067
0.00150394
0.00148774
0.00147216
0.00145709
0.00144235
0.00142836
0.00141247
0.00366958
0.0033914
0.0031668
0.0029888
0.00283387
0.00269925
0.0025835
0.00248378
0.00239686
0.00231954
0.00225056
0.00218751
0.00213128
0.00207588
0.00202493
0.00197833
0.00193552
0.00189571
0.00185855
0.00182295
0.00178721
0.00175243
0.00172079
0.0016923
0.00166605
0.00164062
0.00161612
0.00159261
0.00157002
0.00154835
0.0015272
0.00150691
0.00148751
0.00146887
0.0014512
0.00143421
0.00141797
0.00140216
0.00138716
0.0013716
0.00421009
0.00368217
0.00338496
0.00317393
0.0029987
0.00284902
0.00271812
0.00260231
0.00249887
0.00240577
0.00232138
0.00224448
0.0021738
0.00210967
0.00205139
0.00199741
0.00194728
0.00190137
0.00185795
0.00181345
0.00177233
0.00173544
0.00169984
0.00166682
0.00163548
0.00160615
0.00157847
0.00155227
0.0015269
0.00150343
0.00148015
0.00145752
0.00143648
0.00141621
0.00139766
0.0013795
0.00136251
0.00134583
0.00132999
0.00131359
0.00432153
0.00388301
0.00357329
0.00333194
0.00313195
0.00296216
0.00281606
0.00268745
0.00257198
0.00246759
0.00237274
0.00228612
0.0022064
0.00213457
0.00206854
0.00200772
0.00195205
0.00190076
0.00185283
0.00180838
0.00176673
0.00172954
0.00168978
0.00165346
0.0016197
0.00158804
0.00155836
0.00153039
0.00150381
0.00147956
0.00145574
0.00143256
0.00141124
0.00139041
0.00137121
0.00135234
0.00133463
0.00131761
0.00130165
0.00128663
0.00423958
0.0039043
0.0036257
0.00338966
0.00318659
0.00300976
0.00285479
0.0027182
0.00259512
0.00248311
0.00238124
0.00228841
0.00220298
0.00212648
0.0020564
0.00199212
0.00193307
0.00187892
0.00182939
0.0017841
0.00174217
0.00170357
0.0016671
0.00163537
0.00160023
0.0015659
0.00153462
0.00150625
0.0014797
0.00145595
0.00143309
0.00141146
0.00139056
0.00136795
0.00135003
0.00133053
0.00131425
0.00129798
0.00128232
0.00126757
0.0041534
0.00386447
0.00360555
0.00337581
0.00317137
0.00298924
0.00282732
0.00268296
0.00255353
0.0024376
0.00233376
0.0022404
0.00215575
0.00208053
0.00201206
0.00194954
0.00189248
0.00184025
0.00179232
0.00174878
0.00170891
0.00167176
0.00163647
0.00160271
0.00156865
0.0015369
0.00150788
0.0014815
0.00145615
0.0014331
0.00141104
0.00139016
0.00136982
0.00134918
0.00133169
0.00131497
0.00129904
0.00128301
0.0012675
0.00125274
0.00424577
0.00386575
0.0035567
0.00329806
0.00307605
0.00288477
0.00271758
0.00257199
0.00244623
0.0023371
0.00224142
0.00215668
0.00208033
0.00201178
0.00194917
0.00189181
0.00183994
0.0017924
0.00174857
0.00170804
0.00167204
0.00163417
0.00159881
0.00156811
0.0015393
0.00151211
0.00148667
0.00146279
0.00143818
0.00141544
0.00139493
0.00137637
0.00135821
0.00134037
0.00132326
0.00130673
0.00129087
0.00127502
0.00125971
0.00124486
0.00424468
0.00377231
0.00340286
0.00310661
0.00286225
0.00268343
0.00253495
0.00241207
0.00230974
0.00222158
0.0021431
0.002072
0.0020085
0.0019519
0.00189706
0.00184461
0.00179774
0.00175524
0.00171569
0.00167897
0.00164513
0.00161158
0.00158139
0.00155413
0.00152871
0.00150448
0.00148172
0.00145997
0.0014394
0.00142036
0.00140229
0.00138503
0.00136829
0.00135201
0.00133636
0.00132122
0.00130641
0.00129161
0.00127738
0.00126302
0.00410081
0.00364061
0.00322747
0.00291779
0.00268584
0.00252079
0.00240081
0.00230796
0.00223139
0.0021648
0.00210405
0.00204632
0.00199417
0.00194474
0.00189732
0.00185263
0.00181139
0.00177286
0.00173777
0.00170481
0.00167473
0.00164792
0.00162345
0.00160072
0.00157948
0.00155897
0.00153938
0.00152045
0.00150228
0.00148514
0.0014684
0.00145204
0.00143623
0.00142079
0.00140554
0.00139088
0.0013767
0.00136318
0.00135034
0.00133585
0.00446245
0.00386499
0.00334955
0.00305069
0.00286312
0.00274098
0.00265158
0.00257892
0.00251808
0.00246642
0.00241901
0.00237411
0.00233019
0.0022877
0.00224664
0.00220821
0.00217135
0.00213692
0.00210454
0.00207342
0.00204391
0.00201696
0.00199156
0.00196811
0.00194451
0.00192247
0.00190054
0.0018796
0.0018588
0.00183926
0.0018192
0.00180022
0.00178159
0.00176324
0.00174539
0.00172809
0.00171247
0.00169619
0.00168238
0.0016576
0.00410132
0.00363935
0.00322496
0.00291663
0.0026829
0.00251997
0.00240208
0.00230952
0.00223263
0.00216519
0.00210184
0.00204734
0.00199053
0.00194106
0.00189317
0.00184876
0.00180728
0.00176888
0.00173382
0.00170094
0.00167108
0.00164466
0.00162038
0.00159793
0.00157671
0.00155633
0.00153671
0.00151783
0.00149967
0.00148262
0.00146597
0.00144968
0.00143383
0.00141856
0.00140382
0.00138937
0.00137511
0.00136115
0.00134807
0.00133339
0.00411069
0.00373616
0.00341697
0.00318002
0.00292876
0.00273316
0.00257306
0.00243058
0.00229638
0.00216943
0.00204732
0.00194812
0.00181998
0.00172488
0.00163724
0.00155696
0.00148319
0.00141541
0.00135652
0.00129378
0.00123928
0.00119676
0.00116035
0.00111993
0.00108983
0.00106118
0.00103297
0.00100614
0.000981132
0.000955492
0.000934765
0.000914106
0.000893569
0.000873618
0.000854286
0.000837278
0.000819943
0.000802519
0.000785539
0.000769809
0.00605386
0.00533382
0.00479794
0.00436084
0.00402289
0.00372957
0.00347012
0.00323871
0.0030318
0.00284536
0.00267737
0.00252692
0.00238383
0.00225777
0.00214702
0.00204183
0.00194904
0.00186045
0.00178222
0.0017054
0.00163384
0.00156879
0.00150857
0.00145055
0.00139738
0.00135026
0.00130497
0.00126278
0.00122361
0.00118499
0.00115132
0.0011179
0.00108767
0.00105637
0.00102831
0.00100257
0.000977391
0.000950627
0.0009266
0.000895913
0.00676223
0.0061374
0.00558739
0.00511426
0.00470617
0.00435071
0.00403564
0.00375453
0.00350286
0.00327733
0.00307489
0.00289318
0.00272605
0.00257772
0.00244299
0.00231997
0.00220754
0.00210452
0.00200992
0.00192331
0.00184173
0.00176862
0.00169831
0.00163493
0.00157459
0.00152031
0.00146817
0.00142022
0.00137367
0.00133075
0.00128925
0.0012497
0.00121394
0.00117771
0.0011459
0.00111418
0.00108282
0.00105139
0.00102264
0.000986916
0.00735364
0.00666233
0.00606294
0.00554294
0.00508985
0.00469303
0.00434781
0.00404355
0.0037701
0.00352372
0.0033019
0.00310201
0.00292125
0.00275833
0.00261055
0.00247603
0.00235325
0.00224088
0.00213789
0.00204294
0.00195646
0.00187206
0.00179189
0.00172403
0.00166326
0.00160527
0.00155103
0.00149634
0.00144663
0.00139977
0.001356
0.0013141
0.00127604
0.00123739
0.00120228
0.00116682
0.00113168
0.00109748
0.00106482
0.0010249
0.00745842
0.00678398
0.00618802
0.00566431
0.00520438
0.00479948
0.00444385
0.00413337
0.00385694
0.00360695
0.00338109
0.00317683
0.00299318
0.00282629
0.00267485
0.00253687
0.00241077
0.00229525
0.0021892
0.00209157
0.00200166
0.00191816
0.0018414
0.00176498
0.0016911
0.00162487
0.00156981
0.0015196
0.00147231
0.00142718
0.00138396
0.00134412
0.00130419
0.00126191
0.00122238
0.00118308
0.00114595
0.0011101
0.00107546
0.00103357
0.0073268
0.00662564
0.00602478
0.00550638
0.00505627
0.00466335
0.00432216
0.0040242
0.00375786
0.0035181
0.00330222
0.00310683
0.00293148
0.00277135
0.00262547
0.00249206
0.0023697
0.0022573
0.00215371
0.00205814
0.00196966
0.00188777
0.00181101
0.00173902
0.00167191
0.00160855
0.00154957
0.00149423
0.00144343
0.00139419
0.00134969
0.00130678
0.0012649
0.00122427
0.00118644
0.00114966
0.00111367
0.00107891
0.00104468
0.00100269
0.00667761
0.00601609
0.00547166
0.00501264
0.00461591
0.00427176
0.00397121
0.00370396
0.00346464
0.00324932
0.0030551
0.00287759
0.00271763
0.00257116
0.00243668
0.00231275
0.00219827
0.00209292
0.00199523
0.0019054
0.00182141
0.00174367
0.00166944
0.00159888
0.00153712
0.00147757
0.00142415
0.00137131
0.00132272
0.00127495
0.00123414
0.00119337
0.00115381
0.00111442
0.00108075
0.00104621
0.00101371
0.000981024
0.000948195
0.000908597
0.00550722
0.00497843
0.00455645
0.00420009
0.00388765
0.00361389
0.00337343
0.00315781
0.00296188
0.00278173
0.00261798
0.00246007
0.00232172
0.00219343
0.00207436
0.001964
0.00186025
0.00176815
0.00168088
0.00160314
0.00152657
0.00145996
0.00139713
0.0013393
0.00128943
0.00124127
0.00119931
0.00115675
0.00111849
0.00108008
0.00104935
0.00101855
0.000988526
0.000957997
0.000931775
0.000905372
0.000878916
0.000853349
0.000828734
0.000806465
0.00411233
0.00373809
0.00342117
0.00317696
0.00295272
0.00274421
0.00257223
0.0024281
0.00229444
0.00216886
0.00205642
0.00193067
0.00182985
0.00173511
0.00164632
0.00156446
0.00149042
0.00142263
0.00136323
0.00130148
0.00124601
0.00120222
0.00116545
0.00112489
0.00109529
0.00106611
0.00103811
0.00101084
0.000985552
0.000960032
0.000938919
0.000918006
0.00089739
0.000877258
0.00085826
0.00083967
0.000821196
0.000805699
0.000789421
0.00077417
0.00358228
0.00322862
0.002955
0.00276566
0.00262274
0.00251016
0.00242106