/*--------------------------------*- C++ -*----------------------------------*\
| =========                 |                                                 |
| \\      /  F ield         | OpenFOAM: The Open Source CFD Toolbox           |
|  \\    /   O peration     | Version:  2212                                  |
|   \\  /    A nd           | Website:  www.openfoam.com                      |
|    \\/     M anipulation  |                                                 |
\*---------------------------------------------------------------------------*/
FoamFile
{
    version     2.0;
    format      ascii;
    arch        "LSB;label=32;scalar=64";
    class       volScalarField;
    location    "2.7";
    object      nut;
}
// * * * * * * * * * * * * * * * * * * * * * * * * * * * * * * * * * * * * * //

dimensions      [0 2 -1 0 0 0 0];

internalField   nonuniform List<scalar> 
6840
(
4.5356e-05
2.3208e-05
1.65396e-05
1.36493e-05
1.18966e-05
1.06844e-05
9.76075e-06
9.0571e-06
8.49472e-06
8.03133e-06
7.64056e-06
7.31228e-06
7.02489e-06
6.76105e-06
6.52975e-06
6.32934e-06
6.15593e-06
6.00888e-06
5.90672e-06
5.8021e-06
0.000107685
6.77183e-05
5.06311e-05
4.14159e-05
3.54048e-05
3.10367e-05
2.77137e-05
2.50816e-05
2.29334e-05
2.11507e-05
1.96508e-05
1.83718e-05
1.72641e-05
1.62956e-05
1.54535e-05
1.47287e-05
1.4101e-05
1.35628e-05
1.31285e-05
1.2814e-05
0.000160509
0.00010736
8.07409e-05
6.55976e-05
5.54896e-05
4.83025e-05
4.3131e-05
3.90793e-05
3.57394e-05
3.29502e-05
3.05789e-05
2.85366e-05
2.67768e-05
2.52509e-05
2.39172e-05
2.27432e-05
2.17108e-05
2.08049e-05
2.00216e-05
1.93796e-05
0.000198681
0.0001383
0.000105187
8.55269e-05
7.25012e-05
6.28901e-05
5.60611e-05
5.07595e-05
4.63883e-05
4.27221e-05
3.96258e-05
3.69563e-05
3.46349e-05
3.26058e-05
3.0824e-05
2.92505e-05
2.78565e-05
2.6618e-05
2.55168e-05
2.45524e-05
0.000218609
0.000155003
0.000118661
9.65069e-05
8.18823e-05
7.08355e-05
6.30855e-05
5.71435e-05
5.22483e-05
4.80962e-05
4.45825e-05
4.1572e-05
3.89524e-05
3.66589e-05
3.46397e-05
3.28521e-05
3.12618e-05
2.98412e-05
2.85763e-05
2.75367e-05
0.000218609
0.000155003
0.000118661
9.65069e-05
8.18823e-05
7.08355e-05
6.30854e-05
5.71432e-05
5.22479e-05
4.80956e-05
4.45814e-05
4.15702e-05
3.89494e-05
3.66537e-05
3.46306e-05
3.28384e-05
3.12406e-05
2.98085e-05
2.85324e-05
2.75415e-05
0.000198681
0.0001383
0.000105187
8.55269e-05
7.25012e-05
6.28901e-05
5.60609e-05
5.07588e-05
4.63874e-05
4.27209e-05
3.96236e-05
3.69528e-05
3.46289e-05
3.25951e-05
3.08064e-05
2.92231e-05
2.78121e-05
2.65455e-05
2.54078e-05
2.44978e-05
0.000160509
0.00010736
8.07408e-05
6.55975e-05
5.54896e-05
4.83025e-05
4.31309e-05
3.90788e-05
3.57388e-05
3.29489e-05
3.0577e-05
2.85335e-05
2.67718e-05
2.5242e-05
2.39019e-05
2.2719e-05
2.16709e-05
2.0738e-05
1.99134e-05
1.92464e-05
0.000107685
6.77183e-05
5.06311e-05
4.14159e-05
3.54048e-05
3.10366e-05
2.77137e-05
2.50816e-05
2.29333e-05
2.11504e-05
1.96502e-05
1.83707e-05
1.72622e-05
1.62912e-05
1.54465e-05
1.47169e-05
1.4079e-05
1.35181e-05
1.30358e-05
1.26241e-05
4.5356e-05
2.3208e-05
1.65396e-05
1.36493e-05
1.18966e-05
1.06844e-05
9.76075e-06
9.0571e-06
8.49471e-06
8.03134e-06
7.64055e-06
7.31233e-06
7.02484e-06
6.76112e-06
6.52973e-06
6.32933e-06
6.15593e-06
6.00889e-06
5.90678e-06
5.80214e-06
0.000107685
6.77183e-05
5.06311e-05
4.14159e-05
3.54048e-05
3.10366e-05
2.77137e-05
2.50816e-05
2.29333e-05
2.11504e-05
1.96502e-05
1.83707e-05
1.72622e-05
1.62912e-05
1.54465e-05
1.47169e-05
1.40789e-05
1.3518e-05
1.30355e-05
1.26235e-05
0.000528907
0.000369984
0.000305097
0.000261371
0.000228528
0.000202475
0.000181114
0.000163073
0.000147538
0.000133982
0.000122046
0.000111462
0.000102127
9.38494e-05
8.64517e-05
7.96467e-05
7.34408e-05
6.7895e-05
6.36514e-05
5.52019e-05
0.000663952
0.000488459
0.000404619
0.000347248
0.000305036
0.000272128
0.00024532
0.000222892
0.00020376
0.000187186
0.000172664
0.000159829
0.000148397
0.000138157
0.000128954
0.000120754
0.000113395
0.00010673
0.000101138
9.48341e-05
0.00071288
0.000556432
0.000466397
0.000402355
0.000354426
0.000317051
0.000286676
0.000261258
0.000239585
0.000220851
0.000204452
0.000189963
0.000177065
0.000165503
0.000155085
0.000145641
0.000137068
0.000129253
0.000122109
0.000115826
0.000728543
0.000588231
0.000496002
0.000429132
0.00037851
0.000338934
0.000306818
0.000279973
0.000257071
0.000237252
0.000219903
0.000204566
0.000190898
0.000178627
0.000167547
0.000157486
0.000148299
0.000139858
0.00013203
0.000124656
0.000728543
0.000588231
0.000496002
0.000429131
0.000378509
0.000338933
0.000306816
0.000279969
0.000257065
0.000237244
0.00021989
0.000204545
0.000190863
0.000178569
0.000167449
0.000157343
0.000148081
0.000139519
0.000131509
0.000123736
0.00071288
0.000556432
0.000466397
0.000402354
0.000354425
0.000317049
0.000286672
0.00026125
0.000239574
0.000220834
0.000204425
0.000189919
0.000176995
0.000165381
0.000154893
0.000145353
0.000136612
0.000128524
0.000120979
0.000114055
0.000663952
0.000488458
0.000404619
0.000347248
0.000305035
0.000272127
0.000245317
0.000222886
0.000203751
0.000187173
0.000172644
0.000159797
0.000148347
0.000138071
0.000128811
0.000120541
0.000113052
0.000106158
0.00010018
9.33438e-05
0.000528907
0.000369984
0.000305097
0.000261371
0.000228528
0.000202475
0.000181114
0.000163073
0.000147538
0.000133982
0.000122046
0.000111462
0.000102128
9.38532e-05
8.64478e-05
7.96452e-05
7.3441e-05
6.78949e-05
6.36528e-05
5.52033e-05
0.000107685
6.77183e-05
5.06311e-05
4.14159e-05
3.54048e-05
3.10367e-05
2.77137e-05
2.50816e-05
2.29334e-05
2.11507e-05
1.96508e-05
1.83718e-05
1.72641e-05
1.62957e-05
1.54534e-05
1.47287e-05
1.4101e-05
1.35627e-05
1.31284e-05
1.28139e-05
0.000160509
0.00010736
8.07408e-05
6.55975e-05
5.54896e-05
4.83025e-05
4.31309e-05
3.90788e-05
3.57388e-05
3.29489e-05
3.05769e-05
2.85335e-05
2.67718e-05
2.52425e-05
2.39015e-05
2.27187e-05
2.16706e-05
2.07377e-05
1.99131e-05
1.92459e-05
0.000663952
0.000488458
0.000404619
0.000347248
0.000305035
0.000272127
0.000245317
0.000222886
0.000203751
0.000187173
0.000172643
0.000159796
0.000148345
0.000138074
0.000128807
0.000120538
0.000113048
0.000106152
0.000100176
9.33469e-05
0.000786828
0.000662293
0.000567974
0.000495805
0.000439463
0.000394562
0.000357975
0.000327452
0.00030149
0.00027905
0.000259398
0.000242003
0.000226473
0.000212514
0.000199896
0.00018844
0.000178
0.000168435
0.000159629
0.000150472
0.000809324
0.000713906
0.000631505
0.000562574
0.000505378
0.000457786
0.000417842
0.000383942
0.000354807
0.000329454
0.000307162
0.000287388
0.000269715
0.000253817
0.000239441
0.000226372
0.000214444
0.000203488
0.000193273
0.000183026
0.000814958
0.000730426
0.000654634
0.000589044
0.000533067
0.000485438
0.000444763
0.000409794
0.000379471
0.000352933
0.000329493
0.000308632
0.000289943
0.000273103
0.000257854
0.000243977
0.000231285
0.00021959
0.000208603
0.000197582
0.000814958
0.000730426
0.000654634
0.000589043
0.000533067
0.000485438
0.000444762
0.000409791
0.000379467
0.000352927
0.000329485
0.000308619
0.000289924
0.000273075
0.000257807
0.00024391
0.000231187
0.000219437
0.000208307
0.000196526
0.000809324
0.000713906
0.000631504
0.000562573
0.000505377
0.000457785
0.00041784
0.000383937
0.000354801
0.000329445
0.000307149
0.000287368
0.000269685
0.000253767
0.000239363
0.00022626
0.000214277
0.000203236
0.000192873
0.000182273
0.000786828
0.000662293
0.000567974
0.000495805
0.000439463
0.000394562
0.000357975
0.000327452
0.00030149
0.00027905
0.000259398
0.000242003
0.000226476
0.000212516
0.000199893
0.000188439
0.000178002
0.000168438
0.000159634
0.000150473
0.000663952
0.000488459
0.000404619
0.000347248
0.000305036
0.000272128
0.00024532
0.000222892
0.00020376
0.000187186
0.000172664
0.00015983
0.000148399
0.000138165
0.000128944
0.000120749
0.000113393
0.000106728
0.000101135
9.48318e-05
0.000160509
0.00010736
8.07409e-05
6.55976e-05
5.54896e-05
4.83026e-05
4.31311e-05
3.90793e-05
3.57395e-05
3.29502e-05
3.05789e-05
2.85366e-05
2.67769e-05
2.52514e-05
2.39166e-05
2.27429e-05
2.17107e-05
2.08047e-05
2.00215e-05
1.93796e-05
0.000198681
0.0001383
0.000105187
8.55269e-05
7.25012e-05
6.28901e-05
5.60609e-05
5.07588e-05
4.63874e-05
4.27209e-05
3.96236e-05
3.69528e-05
3.46291e-05
3.25959e-05
3.08058e-05
2.92226e-05
2.78118e-05
2.65452e-05
2.54075e-05
2.44965e-05
0.00071288
0.000556432
0.000466397
0.000402354
0.000354425
0.000317049
0.000286672
0.00026125
0.000239574
0.000220834
0.000204425
0.000189919
0.000176996
0.000165391
0.000154884
0.000145348
0.000136609
0.00012852
0.000120972
0.00011404
0.000809324
0.000713906
0.000631504
0.000562574
0.000505377
0.000457785
0.00041784
0.000383937
0.000354801
0.000329445
0.000307149
0.000287368
0.000269684
0.000253769
0.000239361
0.000226259
0.000214275
0.000203232
0.000192866
0.000182262
0.000823497
0.000753987
0.000688491
0.000628748
0.000575387
0.000528266
0.000486845
0.000450441
0.000418362
0.000389972
0.000364726
0.000342159
0.000321891
0.000303601
0.000287023
0.000271932
0.000258129
0.000245402
0.000233419
0.000221382
0.000826292
0.000764347
0.000706102
0.000651936
0.00060223
0.000557103
0.000516428
0.000479912
0.00044718
0.000417832
0.000391475
0.00036775
0.000346333
0.000326941
0.000309326
0.000293268
0.00027856
0.000264969
0.000252101
0.000239052
0.000826292
0.000764347
0.000706102
0.000651936
0.00060223
0.000557103
0.000516427
0.000479911
0.000447179
0.00041783
0.000391473
0.000367746
0.000346328
0.000326934
0.000309314
0.000293251
0.000278536
0.000264932
0.000252029
0.000238821
0.000823497
0.000753987
0.000688491
0.000628748
0.000575387
0.000528266
0.000486845
0.000450441
0.000418362
0.000389973
0.000364726
0.00034216
0.000321891
0.0003036
0.000287022
0.000271932
0.000258129
0.000245402
0.00023342
0.000221376
0.000809324
0.000713906
0.000631505
0.000562574
0.000505378
0.000457786
0.000417842
0.000383942
0.000354807
0.000329454
0.000307162
0.000287388
0.000269716
0.000253819
0.000239437
0.00022637
0.000214444
0.000203489
0.000193272
0.000183025
0.00071288
0.000556432
0.000466397
0.000402355
0.000354426
0.000317051
0.000286676
0.000261258
0.000239585
0.000220851
0.000204451
0.000189962
0.000177065
0.00016551
0.000155077
0.000145637
0.000137066
0.000129251
0.000122106
0.000115814
0.000198681
0.0001383
0.000105187
8.55269e-05
7.25012e-05
6.28901e-05
5.60612e-05
5.07595e-05
4.63883e-05
4.27221e-05
3.96258e-05
3.69563e-05
3.4635e-05
3.26064e-05
3.08235e-05
2.92501e-05
2.78563e-05
2.66179e-05
2.55167e-05
2.45521e-05
0.000218609
0.000155003
0.000118661
9.65069e-05
8.18823e-05
7.08355e-05
6.30854e-05
5.71432e-05
5.22479e-05
4.80956e-05
4.45814e-05
4.15702e-05
3.89495e-05
3.66539e-05
3.46305e-05
3.28384e-05
3.12406e-05
2.98085e-05
2.85324e-05
2.75413e-05
0.000728543
0.000588231
0.000496002
0.000429131
0.000378509
0.000338933
0.000306816
0.000279969
0.000257065
0.000237244
0.00021989
0.000204545
0.000190864
0.000178572
0.000167446
0.000157342
0.00014808
0.000139519
0.000131509
0.000123731
0.000814958
0.000730426
0.000654634
0.000589043
0.000533067
0.000485438
0.000444762
0.000409791
0.000379467
0.000352927
0.000329485
0.000308619
0.000289924
0.000273075
0.000257805
0.000243909
0.000231186
0.000219436
0.000208304
0.000196517
0.000826292
0.000764347
0.000706102
0.000651936
0.00060223
0.000557103
0.000516427
0.000479911
0.000447179
0.00041783
0.000391473
0.000367746
0.000346327
0.000326933
0.000309314
0.000293251
0.000278536
0.000264931
0.000252028
0.000238817
0.000828382
0.0007726
0.000721137
0.00067296
0.000627781
0.00058562
0.000546546
0.000510578
0.000477647
0.000447613
0.000420285
0.000395444
0.000372862
0.000352316
0.00033359
0.000316482
0.000300786
0.000286247
0.000272421
0.000258305
0.000828382
0.0007726
0.000721137
0.00067296
0.000627781
0.00058562
0.000546546
0.000510578
0.000477647
0.000447613
0.000420285
0.000395444
0.000372862
0.000352316
0.00033359
0.000316482
0.000300786
0.000286248
0.000272423
0.000258302
0.000826292
0.000764347
0.000706102
0.000651936
0.00060223
0.000557103
0.000516428
0.000479912
0.00044718
0.000417832
0.000391475
0.00036775
0.000346333
0.000326941
0.000309325
0.000293267
0.00027856
0.000264968
0.0002521
0.000239036
0.000814958
0.000730426
0.000654634
0.000589044
0.000533067
0.000485439
0.000444763
0.000409793
0.000379471
0.000352933
0.000329493
0.000308631
0.000289942
0.000273103
0.000257853
0.000243976
0.000231285
0.000219588
0.000208598
0.000197571
0.000728543
0.000588231
0.000496002
0.000429132
0.00037851
0.000338934
0.000306818
0.000279973
0.000257071
0.000237252
0.000219903
0.000204566
0.000190895
0.000178628
0.000167548
0.000157487
0.000148299
0.000139857
0.000132027
0.000124645
0.000218609
0.000155003
0.000118661
9.65069e-05
8.18823e-05
7.08355e-05
6.30855e-05
5.71435e-05
5.22483e-05
4.80962e-05
4.45825e-05
4.1572e-05
3.89523e-05
3.6659e-05
3.46397e-05
3.28521e-05
3.12619e-05
2.98413e-05
2.85764e-05
2.75368e-05
0.000218609
0.000155003
0.000118661
9.65069e-05
8.18823e-05
7.08355e-05
6.30855e-05
5.71435e-05
5.22483e-05
4.80962e-05
4.45825e-05
4.1572e-05
3.89525e-05
3.6659e-05
3.46396e-05
3.28521e-05
3.12619e-05
2.98415e-05
2.85767e-05
2.75372e-05
0.000728543
0.000588231
0.000496002
0.000429132
0.00037851
0.000338934
0.000306818
0.000279973
0.000257071
0.000237252
0.000219904
0.000204567
0.000190899
0.000178628
0.000167546
0.000157486
0.000148301
0.000139862
0.000132036
0.000124665
0.000814958
0.000730426
0.000654634
0.000589044
0.000533067
0.000485439
0.000444764
0.000409794
0.000379471
0.000352933
0.000329493
0.000308632
0.000289944
0.000273104
0.000257853
0.000243976
0.000231287
0.000219593
0.000208608
0.000197584
0.000826292
0.000764347
0.000706102
0.000651936
0.00060223
0.000557103
0.000516428
0.000479912
0.00044718
0.000417832
0.000391475
0.00036775
0.000346333
0.000326941
0.000309326
0.000293268
0.000278561
0.00026497
0.000252103
0.000239054
0.000828382
0.0007726
0.000721137
0.00067296
0.000627781
0.00058562
0.000546546
0.000510578
0.000477647
0.000447613
0.000420285
0.000395444
0.000372862
0.000352316
0.00033359
0.000316482
0.000300786
0.000286247
0.000272422
0.0002583
0.000828382
0.0007726
0.000721137
0.00067296
0.000627781
0.00058562
0.000546546
0.000510578
0.000477647
0.000447613
0.000420285
0.000395444
0.000372862
0.000352316
0.00033359
0.000316482
0.000300786
0.000286248
0.000272424
0.000258302
0.000826292
0.000764347
0.000706102
0.000651936
0.00060223
0.000557103
0.000516427
0.000479911
0.000447179
0.00041783
0.000391473
0.000367746
0.000346327
0.000326933
0.000309314
0.000293251
0.000278536
0.00026493
0.000252026
0.000238807
0.000814958
0.000730426
0.000654634
0.000589043
0.000533067
0.000485438
0.000444762
0.000409791
0.000379467
0.000352927
0.000329485
0.000308619
0.000289923
0.000273072
0.000257809
0.00024391
0.000231185
0.000219433
0.000208301
0.000196514
0.000728543
0.000588231
0.000496002
0.000429131
0.000378509
0.000338933
0.000306816
0.000279969
0.000257065
0.000237244
0.00021989
0.000204545
0.000190861
0.000178564
0.000167457
0.000157347
0.000148083
0.00013952
0.00013151
0.000123733
0.000218609
0.000155003
0.000118661
9.65069e-05
8.18823e-05
7.08355e-05
6.30854e-05
5.71432e-05
5.22479e-05
4.80956e-05
4.45814e-05
4.15701e-05
3.89492e-05
3.66534e-05
3.46312e-05
3.28389e-05
3.12408e-05
2.98087e-05
2.85326e-05
2.75415e-05
0.000198681
0.0001383
0.000105187
8.55269e-05
7.25012e-05
6.28901e-05
5.60612e-05
5.07595e-05
4.63883e-05
4.27221e-05
3.96258e-05
3.69563e-05
3.46349e-05
3.26059e-05
3.0824e-05
2.92505e-05
2.78566e-05
2.66182e-05
2.55172e-05
2.45529e-05
0.00071288
0.000556432
0.000466397
0.000402355
0.000354426
0.000317051
0.000286676
0.000261258
0.000239585
0.000220851
0.000204452
0.000189963
0.000177066
0.000165504
0.000155085
0.000145643
0.000137071
0.000129258
0.000122117
0.000115836
0.000809324
0.000713906
0.000631505
0.000562574
0.000505378
0.000457786
0.000417842
0.000383942
0.000354807
0.000329454
0.000307162
0.000287389
0.000269715
0.000253818
0.000239442
0.000226373
0.000214447
0.000203493
0.00019328
0.000183038
0.000823497
0.000753987
0.000688491
0.000628748
0.000575387
0.000528266
0.000486845
0.000450441
0.000418362
0.000389973
0.000364726
0.00034216
0.000321891
0.000303601
0.000287024
0.000271934
0.000258131
0.000245404
0.000233422
0.00022139
0.000826292
0.000764347
0.000706102
0.000651936
0.00060223
0.000557103
0.000516427
0.000479911
0.000447179
0.00041783
0.000391473
0.000367746
0.000346327
0.000326933
0.000309315
0.000293252
0.000278537
0.000264931
0.000252029
0.000238815
0.000826292
0.000764347
0.000706102
0.000651936
0.00060223
0.000557103
0.000516428
0.000479912
0.00044718
0.000417832
0.000391475
0.00036775
0.000346333
0.000326941
0.000309326
0.000293268
0.00027856
0.000264969
0.000252103
0.00023905
0.000823497
0.000753987
0.000688491
0.000628748
0.000575387
0.000528266
0.000486845
0.000450441
0.000418362
0.000389973
0.000364726
0.00034216
0.000321891
0.000303601
0.000287022
0.000271932
0.000258129
0.000245402
0.00023342
0.000221384
0.000809324
0.000713906
0.000631504
0.000562574
0.000505377
0.000457785
0.00041784
0.000383938
0.000354801
0.000329445
0.000307149
0.000287368
0.000269684
0.000253768
0.000239364
0.000226259
0.000214275
0.000203233
0.000192868
0.000182272
0.00071288
0.000556432
0.000466397
0.000402354
0.000354425
0.000317049
0.000286672
0.000261251
0.000239575
0.000220834
0.000204425
0.000189919
0.000176995
0.000165383
0.000154894
0.000145354
0.000136613
0.000128525
0.000120979
0.000114057
0.000198681
0.0001383
0.000105187
8.55269e-05
7.25012e-05
6.289e-05
5.60608e-05
5.07589e-05
4.63875e-05
4.27209e-05
3.96236e-05
3.69528e-05
3.46289e-05
3.25952e-05
3.08065e-05
2.92232e-05
2.78122e-05
2.65456e-05
2.54079e-05
2.44977e-05
0.000160509
0.00010736
8.07409e-05
6.55976e-05
5.54896e-05
4.83025e-05
4.3131e-05
3.90793e-05
3.57394e-05
3.29502e-05
3.05789e-05
2.85366e-05
2.67768e-05
2.52509e-05
2.39172e-05
2.27433e-05
2.17109e-05
2.08049e-05
2.00217e-05
1.93795e-05
0.000663952
0.000488459
0.000404619
0.000347248
0.000305036
0.000272128
0.00024532
0.000222892
0.00020376
0.000187186
0.000172664
0.00015983
0.000148398
0.000138158
0.000128955
0.000120757
0.000113399
0.000106736
0.000101139
9.48441e-05
0.000786828
0.000662293
0.000567974
0.000495805
0.000439463
0.000394562
0.000357975
0.000327452
0.00030149
0.00027905
0.000259398
0.000242003
0.000226473
0.000212515
0.000199898
0.000188443
0.000178004
0.000168439
0.000159637
0.000150487
0.000809324
0.000713906
0.000631504
0.000562574
0.000505377
0.000457785
0.00041784
0.000383938
0.000354801
0.000329445
0.000307149
0.000287368
0.000269683
0.000253769
0.000239363
0.00022626
0.000214276
0.000203233
0.000192867
0.000182271
0.000814958
0.000730426
0.000654634
0.000589043
0.000533067
0.000485438
0.000444762
0.000409791
0.000379467
0.000352927
0.000329485
0.000308619
0.000289924
0.000273074
0.000257806
0.000243909
0.000231185
0.000219433
0.0002083
0.000196515
0.000814958
0.000730426
0.000654634
0.000589044
0.000533067
0.000485439
0.000444763
0.000409793
0.000379471
0.000352933
0.000329493
0.000308632
0.000289943
0.000273104
0.000257852
0.000243975
0.000231284
0.000219589
0.000208601
0.000197578
0.000809324
0.000713906
0.000631505
0.000562574
0.000505378
0.000457786
0.000417842
0.000383941
0.000354807
0.000329454
0.000307162
0.000287389
0.000269716
0.00025382
0.000239438
0.000226371
0.000214445
0.000203491
0.000193277
0.000183033
0.000786828
0.000662293
0.000567974
0.000495805
0.000439463
0.000394562
0.000357975
0.000327452
0.00030149
0.00027905
0.000259398
0.000242003
0.000226475
0.000212517
0.000199894
0.00018844
0.000178002
0.000168439
0.000159636
0.000150484
0.000663952
0.000488458
0.000404619
0.000347248
0.000305035
0.000272127
0.000245317
0.000222886
0.000203752
0.000187173
0.000172644
0.000159797
0.000148347
0.000138071
0.000128812
0.000120542
0.000113053
0.00010616
0.000100178
9.34334e-05
0.000160509
0.00010736
8.07408e-05
6.55975e-05
5.54896e-05
4.83025e-05
4.31308e-05
3.90789e-05
3.57389e-05
3.29489e-05
3.0577e-05
2.85335e-05
2.67718e-05
2.5242e-05
2.3902e-05
2.27191e-05
2.1671e-05
2.0738e-05
1.99134e-05
1.92471e-05
0.000107685
6.77183e-05
5.06311e-05
4.14159e-05
3.54048e-05
3.10367e-05
2.77137e-05
2.50817e-05
2.29334e-05
2.11507e-05
1.96508e-05
1.83718e-05
1.72641e-05
1.62955e-05
1.54535e-05
1.47287e-05
1.4101e-05
1.35628e-05
1.31286e-05
1.28139e-05
0.000528907
0.000369984
0.000305097
0.000261371
0.000228528
0.000202475
0.000181114
0.000163073
0.000147538
0.000133982
0.000122046
0.000111462
0.000102127
9.3849e-05
8.6453e-05
7.96478e-05
7.34419e-05
6.78966e-05
6.36523e-05
5.52082e-05
0.000663952
0.000488458
0.000404619
0.000347248
0.000305035
0.000272127
0.000245317
0.000222886
0.000203751
0.000187173
0.000172643
0.000159796
0.000148344
0.000138074
0.000128808
0.000120539
0.000113049
0.000106153
0.000100179
9.33472e-05
0.00071288
0.000556432
0.000466397
0.000402354
0.000354425
0.000317049
0.000286672
0.00026125
0.000239574
0.000220834
0.000204424
0.000189919
0.000176995
0.000165391
0.000154884
0.000145348
0.000136609
0.00012852
0.000120972
0.000114043
0.000728543
0.000588231
0.000496002
0.000429131
0.000378509
0.000338933
0.000306816
0.000279968
0.000257065
0.000237244
0.00021989
0.000204545
0.000190864
0.000178572
0.000167445
0.000157341
0.00014808
0.000139519
0.000131509
0.00012373
0.000728543
0.000588231
0.000496002
0.000429132
0.00037851
0.000338934
0.000306818
0.000279972
0.000257071
0.000237253
0.000219904
0.000204567
0.000190899
0.000178629
0.000167544
0.000157485
0.000148301
0.000139861
0.000132034
0.000124661
0.00071288
0.000556432
0.000466397
0.000402355
0.000354426
0.000317051
0.000286677
0.000261258
0.000239585
0.000220851
0.000204452
0.000189963
0.000177066
0.00016551
0.000155078
0.000145639
0.00013707
0.000129257
0.000122115
0.000115832
0.000663952
0.000488459
0.000404619
0.000347248
0.000305036
0.000272129
0.00024532
0.000222892
0.00020376
0.000187186
0.000172664
0.00015983
0.000148399
0.000138166
0.000128946
0.000120751
0.000113396
0.000106733
0.000101136
9.48454e-05
0.000528907
0.000369984
0.000305097
0.000261371
0.000228528
0.000202475
0.000181114
0.000163073
0.000147538
0.000133982
0.000122046
0.000111462
0.000102128
9.38541e-05
8.64485e-05
7.96456e-05
7.34413e-05
6.78963e-05
6.36517e-05
5.52168e-05
0.000107685
6.77183e-05
5.06311e-05
4.14159e-05
3.54048e-05
3.10366e-05
2.77137e-05
2.50815e-05
2.29333e-05
2.11504e-05
1.96502e-05
1.83707e-05
1.72621e-05
1.62913e-05
1.54466e-05
1.47169e-05
1.40789e-05
1.3518e-05
1.30356e-05
1.26253e-05
4.5356e-05
2.3208e-05
1.65396e-05
1.36493e-05
1.18966e-05
1.06844e-05
9.76075e-06
9.0571e-06
8.49472e-06
8.03133e-06
7.64056e-06
7.31228e-06
7.02488e-06
6.76105e-06
6.52976e-06
6.32935e-06
6.15595e-06
6.00891e-06
5.9068e-06
5.80223e-06
0.000107685
6.77183e-05
5.06311e-05
4.14159e-05
3.54048e-05
3.10366e-05
2.77136e-05
2.50816e-05
2.29333e-05
2.11504e-05
1.96502e-05
1.83707e-05
1.72621e-05
1.62911e-05
1.54465e-05
1.47169e-05
1.40789e-05
1.35178e-05
1.30354e-05
1.26236e-05
0.000160509
0.00010736
8.07408e-05
6.55975e-05
5.54896e-05
4.83025e-05
4.31309e-05
3.90788e-05
3.57388e-05
3.29489e-05
3.05769e-05
2.85334e-05
2.67717e-05
2.52425e-05
2.39015e-05
2.27186e-05
2.16705e-05
2.07376e-05
1.99129e-05
1.92457e-05
0.000198681
0.0001383
0.000105187
8.55269e-05
7.25012e-05
6.28901e-05
5.60609e-05
5.07588e-05
4.63874e-05
4.27209e-05
3.96236e-05
3.69528e-05
3.46291e-05
3.25959e-05
3.08058e-05
2.92226e-05
2.78118e-05
2.65451e-05
2.54074e-05
2.4496e-05
0.000218609
0.000155003
0.000118661
9.65069e-05
8.18823e-05
7.08355e-05
6.30854e-05
5.71431e-05
5.22479e-05
4.80956e-05
4.45814e-05
4.15702e-05
3.89495e-05
3.66539e-05
3.46305e-05
3.28383e-05
3.12406e-05
2.98086e-05
2.85324e-05
2.75416e-05
0.000218609
0.000155003
0.000118661
9.65069e-05
8.18823e-05
7.08355e-05
6.30856e-05
5.71434e-05
5.22483e-05
4.80962e-05
4.45825e-05
4.15721e-05
3.89525e-05
3.66591e-05
3.46396e-05
3.28521e-05
3.1262e-05
2.98416e-05
2.85769e-05
2.75376e-05
0.000198681
0.0001383
0.000105187
8.55269e-05
7.25012e-05
6.28902e-05
5.60612e-05
5.07594e-05
4.63882e-05
4.27221e-05
3.96258e-05
3.69563e-05
3.46351e-05
3.26065e-05
3.08236e-05
2.92502e-05
2.78565e-05
2.66182e-05
2.55173e-05
2.45529e-05
0.000160509
0.00010736
8.07409e-05
6.55976e-05
5.54896e-05
4.83026e-05
4.31311e-05
3.90792e-05
3.57394e-05
3.29502e-05
3.05789e-05
2.85366e-05
2.67769e-05
2.52515e-05
2.39167e-05
2.27429e-05
2.17107e-05
2.08048e-05
2.00215e-05
1.93798e-05
0.000107685
6.77183e-05
5.06311e-05
4.14159e-05
3.54048e-05
3.10367e-05
2.77137e-05
2.50816e-05
2.29334e-05
2.11507e-05
1.96508e-05
1.83718e-05
1.72641e-05
1.62958e-05
1.54535e-05
1.47287e-05
1.4101e-05
1.35627e-05
1.31285e-05
1.28144e-05
4.5356e-05
2.3208e-05
1.65396e-05
1.36493e-05
1.18966e-05
1.06844e-05
9.76075e-06
9.0571e-06
8.49471e-06
8.03134e-06
7.64054e-06
7.31232e-06
7.02483e-06
6.76112e-06
6.52972e-06
6.32932e-06
6.1559e-06
6.00884e-06
5.90669e-06
5.8022e-06
5.3177e-06
4.97083e-06
4.65514e-06
4.46852e-06
4.33967e-06
4.25404e-06
4.18875e-06
4.13402e-06
4.08649e-06
4.04532e-06
4.00582e-06
3.97014e-06
3.92959e-06
3.89423e-06
3.85963e-06
3.82616e-06
3.79405e-06
3.76347e-06
3.73474e-06
3.70644e-06
3.67995e-06
3.65506e-06
3.63181e-06
3.60892e-06
3.58777e-06
3.56713e-06
3.5466e-06
3.52677e-06
3.50747e-06
3.4887e-06
3.47008e-06
3.45202e-06
3.4344e-06
3.41728e-06
3.40081e-06
3.38409e-06
3.36856e-06
3.35297e-06
3.33978e-06
3.31618e-06
1.03006e-05
9.80145e-06
9.42013e-06
9.16801e-06
8.93219e-06
8.7528e-06
8.60366e-06
8.47675e-06
8.35741e-06
8.25105e-06
8.14674e-06
8.05946e-06
7.95829e-06
7.86842e-06
7.78595e-06
7.7034e-06
7.62883e-06
7.55515e-06
7.48819e-06
7.42262e-06
7.35935e-06
7.30113e-06
7.24674e-06
7.19489e-06
7.14813e-06
7.10274e-06
7.05833e-06
7.01488e-06
6.97272e-06
6.93118e-06
6.89098e-06
6.85133e-06
6.81327e-06
6.77583e-06
6.74034e-06
6.70514e-06
6.67149e-06
6.63861e-06
6.60755e-06
6.57201e-06
1.55478e-05
1.4867e-05
1.43471e-05
1.38929e-05
1.35466e-05
1.32309e-05
1.29483e-05
1.26968e-05
1.24736e-05
1.22704e-05
1.20869e-05
1.19142e-05
1.17611e-05
1.16053e-05
1.14639e-05
1.13277e-05
1.12063e-05
1.10884e-05
1.09797e-05
1.08737e-05
1.07662e-05
1.06604e-05
1.05629e-05
1.04753e-05
1.0393e-05
1.03135e-05
1.02362e-05
1.01615e-05
1.00893e-05
1.00196e-05
9.95103e-06
9.88443e-06
9.82161e-06
9.76004e-06
9.7021e-06
9.64544e-06
9.59171e-06
9.53854e-06
9.48804e-06
9.43579e-06
2.06913e-05
1.92832e-05
1.84183e-05
1.78209e-05
1.7318e-05
1.68809e-05
1.64884e-05
1.61311e-05
1.58047e-05
1.55052e-05
1.52291e-05
1.49728e-05
1.47292e-05
1.45103e-05
1.43085e-05
1.41188e-05
1.394e-05
1.37741e-05
1.36159e-05
1.34524e-05
1.32962e-05
1.31583e-05
1.30211e-05
1.28945e-05
1.2772e-05
1.26576e-05
1.25475e-05
1.24435e-05
1.23412e-05
1.22457e-05
1.21529e-05
1.20562e-05
1.19747e-05
1.18843e-05
1.18128e-05
1.173e-05
1.16643e-05
1.15912e-05
1.15245e-05
1.14544e-05
2.32454e-05
2.2103e-05
2.12157e-05
2.04962e-05
1.9874e-05
1.93227e-05
1.88387e-05
1.84024e-05
1.79996e-05
1.76267e-05
1.72808e-05
1.69584e-05
1.66532e-05
1.63781e-05
1.61211e-05
1.58807e-05
1.56578e-05
1.54493e-05
1.52519e-05
1.50665e-05
1.4891e-05
1.47324e-05
1.45614e-05
1.44029e-05
1.42559e-05
1.41152e-05
1.39835e-05
1.3857e-05
1.37364e-05
1.3625e-05
1.35168e-05
1.34071e-05
1.33121e-05
1.32055e-05
1.31249e-05
1.30276e-05
1.29469e-05
1.28642e-05
1.2787e-05
1.27146e-05
2.37529e-05
2.29228e-05
2.21512e-05
2.14447e-05
2.08017e-05
2.02159e-05
1.96843e-05
1.92035e-05
1.87602e-05
1.83457e-05
1.79599e-05
1.76005e-05
1.72621e-05
1.6956e-05
1.6671e-05
1.64052e-05
1.61574e-05
1.5927e-05
1.57141e-05
1.55168e-05
1.53317e-05
1.51606e-05
1.49966e-05
1.48521e-05
1.46906e-05
1.4532e-05
1.43863e-05
1.42527e-05
1.41268e-05
1.40127e-05
1.39031e-05
1.37941e-05
1.37113e-05
1.35564e-05
1.35235e-05
1.33887e-05
1.33286e-05
1.32406e-05
1.31605e-05
1.30852e-05
2.29359e-05
2.21186e-05
2.13674e-05
2.06752e-05
2.00366e-05
1.9446e-05
1.89048e-05
1.84067e-05
1.79477e-05
1.75273e-05
1.71427e-05
1.67902e-05
1.64629e-05
1.61692e-05
1.58976e-05
1.56458e-05
1.54125e-05
1.51962e-05
1.49953e-05
1.48115e-05
1.46399e-05
1.44804e-05
1.43251e-05
1.41767e-05
1.40179e-05
1.38765e-05
1.37477e-05
1.36263e-05
1.35109e-05
1.34017e-05
1.32994e-05
1.31951e-05
1.31201e-05
1.29945e-05
1.29296e-05
1.28426e-05
1.27685e-05
1.26906e-05
1.26149e-05
1.25425e-05
2.06668e-05
1.9658e-05
1.88436e-05
1.81589e-05
1.75576e-05
1.69996e-05
1.64969e-05
1.60433e-05
1.56409e-05
1.52832e-05
1.49638e-05
1.46758e-05
1.44111e-05
1.41707e-05
1.39468e-05
1.37386e-05
1.35465e-05
1.33688e-05
1.32025e-05
1.30472e-05
1.29095e-05
1.27582e-05
1.26217e-05
1.2494e-05
1.23808e-05
1.22692e-05
1.2168e-05
1.20694e-05
1.19677e-05
1.18709e-05
1.17851e-05
1.17089e-05
1.16329e-05
1.15563e-05
1.14833e-05
1.14127e-05
1.13448e-05
1.12766e-05
1.12104e-05
1.11458e-05
1.6564e-05
1.55881e-05
1.48227e-05
1.41721e-05
1.36239e-05
1.32066e-05
1.28323e-05
1.25139e-05
1.22434e-05
1.2009e-05
1.17974e-05
1.15958e-05
1.14156e-05
1.12548e-05
1.10951e-05
1.0941e-05
1.07965e-05
1.06706e-05
1.05454e-05
1.04332e-05
1.03244e-05
1.02192e-05
1.0121e-05
1.00284e-05
9.94778e-06
9.86774e-06
9.79376e-06
9.72113e-06
9.65279e-06
9.5873e-06
9.5253e-06
9.46791e-06
9.41193e-06
9.35645e-06
9.30294e-06
9.25172e-06
9.20136e-06
9.14942e-06
9.1006e-06
9.05115e-06
1.10697e-05
1.04498e-05
9.87207e-06
9.42834e-06
9.07642e-06
8.80229e-06
8.58222e-06
8.41247e-06
8.27008e-06
8.14415e-06
8.03784e-06
7.90919e-06
7.81161e-06
7.71587e-06
7.62313e-06
7.5321e-06
7.44681e-06
7.36596e-06
7.29087e-06
7.22024e-06
7.15446e-06
7.09552e-06
7.04086e-06
6.98725e-06
6.94077e-06
6.89532e-06
6.85204e-06
6.80939e-06
6.76831e-06
6.72852e-06
6.6907e-06
6.6538e-06
6.61834e-06
6.58349e-06
6.54931e-06
6.51575e-06
6.483e-06
6.45213e-06
6.42326e-06
6.39056e-06
5.3182e-06
4.97115e-06
4.6567e-06
4.46801e-06
4.34363e-06
4.25662e-06
4.18934e-06
4.13383e-06
4.08611e-06
4.04496e-06
4.00797e-06
3.96761e-06
3.93275e-06
3.89689e-06
3.86223e-06
3.82885e-06
3.79677e-06
3.76616e-06
3.73733e-06
3.70908e-06
3.68235e-06
3.65753e-06
3.63422e-06
3.61145e-06
3.5902e-06
3.56956e-06
3.54914e-06
3.52936e-06
3.51007e-06
3.49135e-06
3.47256e-06
3.45445e-06
3.43679e-06
3.41953e-06
3.40258e-06
3.38625e-06
3.3708e-06
3.35538e-06
3.34233e-06
3.31859e-06
1.10703e-05
1.04481e-05
9.86722e-06
9.43389e-06
9.05291e-06
8.78113e-06