/*--------------------------------*- C++ -*----------------------------------*\
| =========                 |                                                 |
| \\      /  F ield         | OpenFOAM: The Open Source CFD Toolbox           |
|  \\    /   O peration     | Version:  2212                                  |
|   \\  /    A nd           | Website:  www.openfoam.com                      |
|    \\/     M anipulation  |                                                 |
\*---------------------------------------------------------------------------*/
FoamFile
{
    version     2.0;
    format      ascii;
    arch        "LSB;label=32;scalar=64";
    class       volScalarField;
    location    "2.7";
    object      p;
}
// * * * * * * * * * * * * * * * * * * * * * * * * * * * * * * * * * * * * * //

dimensions      [0 2 -2 0 0 0 0];

internalField   nonuniform List<scalar> 
6840
(
0.0178352
0.0107208
0.00842939
0.00789156
0.0076172
0.00739499
0.00720835
0.0070419
0.00688073
0.00672125
0.00656356
0.00640741
0.00625152
0.0060948
0.00593732
0.00577815
0.00561729
0.00544885
0.00523538
0.00483794
0.0106564
0.00992259
0.00882969
0.00816371
0.0077611
0.00748732
0.00727608
0.00708974
0.00691514
0.00674748
0.00658421
0.0064234
0.00626304
0.0061019
0.00593967
0.00577498
0.00560255
0.0054075
0.00514737
0.00472383
0.0103082
0.00945664
0.00869237
0.00813321
0.00775701
0.00748891
0.00727312
0.00708
0.00690124
0.00673215
0.0065677
0.00640552
0.00624479
0.00608455
0.00592299
0.00575757
0.00558373
0.005396
0.00518941
0.00494938
0.00989887
0.00913614
0.00851736
0.00806602
0.00772201
0.00745292
0.00723318
0.00704418
0.00687603
0.00671808
0.00656157
0.00640492
0.00624858
0.00609268
0.00593678
0.00578018
0.00562215
0.00546284
0.00530431
0.00515385
0.00976468
0.00902349
0.00843531
0.00802717
0.00770521
0.00743845
0.00721686
0.00702611
0.00685518
0.00669822
0.00654792
0.00639736
0.00624564
0.00609445
0.00594536
0.00579948
0.00565835
0.00552231
0.00539108
0.00527049
0.0097647
0.00902352
0.00843535
0.00802724
0.00770531
0.0074386
0.00721711
0.00702653
0.00685589
0.00669938
0.00654985
0.00640056
0.00625091
0.00610307
0.00595957
0.00582314
0.00569696
0.00558453
0.00548893
0.00541686
0.00989894
0.00913621
0.00851745
0.00806615
0.00772221
0.00745325
0.00723376
0.00704518
0.0068777
0.00672083
0.00656609
0.00641231
0.00626062
0.00611237
0.00596945
0.00583511
0.0057143
0.0056144
0.00555128
0.00555029
0.0103082
0.0094567
0.00869244
0.00813332
0.0077572
0.00748925
0.00727371
0.00708099
0.00690287
0.00673487
0.00657224
0.00641297
0.0062569
0.00610429
0.00595547
0.00581134
0.00567389
0.00554821
0.00545159
0.00540953
0.0106565
0.00992261
0.00882972
0.00816376
0.00776119
0.00748749
0.00727637
0.00709024
0.006916
0.00674894
0.00658661
0.00642737
0.00626986
0.00611381
0.00595985
0.00580829
0.00565714
0.00550366
0.00534237
0.0051489
0.0178352
0.0107208
0.00842938
0.00789155
0.00761719
0.00739498
0.00720833
0.00704189
0.00688071
0.00672123
0.00656354
0.00640739
0.00625149
0.00609477
0.00593731
0.00577812
0.00561724
0.00544878
0.0052353
0.00483781
0.0106565
0.00992262
0.00882973
0.00816377
0.0077612
0.0074875
0.00727638
0.00709026
0.00691601
0.00674896
0.00658663
0.00642738
0.00626988
0.00611382
0.00595986
0.00580831
0.00565717
0.0055037
0.00534242
0.00514898
0.00993987
0.00990817
0.00917994
0.00846944
0.00802309
0.00770714
0.00744825
0.00722058
0.00701599
0.0068276
0.00664989
0.00647901
0.00631177
0.00614652
0.00598238
0.00581772
0.0056502
0.00547772
0.00531237
0.00521425
0.00901438
0.00914056
0.00883766
0.00842144
0.00805427
0.00773559
0.00745696
0.00721636
0.00700351
0.00680854
0.00662459
0.00644824
0.0062772
0.00610929
0.00594241
0.00577469
0.00560453
0.00543137
0.00526022
0.00511013
0.00859598
0.00863948
0.0084739
0.00821094
0.00793053
0.00765915
0.00740806
0.00718155
0.00697827
0.00679123
0.00661341
0.00644167
0.00627455
0.00611051
0.00594808
0.00578611
0.00562406
0.00546246
0.0053034
0.00515113
0.00838003
0.00840186
0.00827465
0.00805712
0.00782468
0.00759551
0.00737267
0.00715949
0.00695872
0.0067714
0.00659501
0.00642623
0.00626342
0.00610491
0.00594965
0.00579833
0.00565148
0.00550929
0.00537332
0.00524336
0.00838008
0.0084019
0.00827471
0.00805724
0.00782486
0.00759576
0.00737305
0.00716007
0.0069596
0.00677285
0.00659746
0.00643032
0.00626992
0.00611472
0.00596439
0.00582083
0.00568519
0.00555801
0.00544149
0.00533025
0.00859608
0.00863959
0.00847404
0.00821114
0.00793082
0.00765955
0.00740869
0.00718257
0.00697998
0.00679422
0.00661859
0.00645002
0.00628707
0.00612924
0.00597711
0.00583166
0.00569386
0.00556475
0.00544531
0.00533232
0.00901442
0.00914061
0.00883775
0.00842155
0.00805443
0.00773585
0.0074574
0.00721713
0.00700485
0.00681074
0.00662806
0.00645366
0.00628579
0.00612303
0.00596416
0.00580851
0.00565591
0.00550661
0.00536555
0.00524431
0.00993986
0.00990815
0.00917993
0.00846943
0.00802308
0.00770713
0.00744823
0.00722057
0.00701598
0.00682759
0.00664987
0.00647899
0.00631175
0.0061465
0.00598236
0.00581769
0.00565017
0.00547769
0.00531234
0.00521422
0.0106564
0.00992258
0.00882968
0.0081637
0.00776108
0.00748731
0.00727607
0.00708972
0.00691512
0.00674746
0.00658419
0.00642337
0.00626301
0.00610188
0.00593964
0.00577493
0.00560248
0.00540741
0.00514725
0.00472368
0.0103082
0.00945671
0.00869245
0.00813333
0.00775721
0.00748926
0.00727372
0.007081
0.00690288
0.00673488
0.00657225
0.00641298
0.00625691
0.0061043
0.00595548
0.00581135
0.00567391
0.00554824
0.00545165
0.00540964
0.00901443
0.00914063
0.00883776
0.00842156
0.00805444
0.00773586
0.00745741
0.00721714
0.00700486
0.00681075
0.00662807
0.00645367
0.0062858
0.00612304
0.00596417
0.00580851
0.00565591
0.00550661
0.00536555
0.00524433
0.00844492
0.0085459
0.00843434
0.00820887
0.00795313
0.00769474
0.00743637
0.00719478
0.00697695
0.00677675
0.00658922
0.0064112
0.00624002
0.00607364
0.00591074
0.00575012
0.00559108
0.00543459
0.00528534
0.00514192
0.0080769
0.00814496
0.00809258
0.00794558
0.00776068
0.00755555
0.00734488
0.00713795
0.00693678
0.00674423
0.00656143
0.00638651
0.00621744
0.00605277
0.00589136
0.00573218
0.00557424
0.00541742
0.00526318
0.00510828
0.00789386
0.00795829
0.00792882
0.00780396
0.00764493
0.00747125
0.00728498
0.00709698
0.00691083
0.00672737
0.00654812
0.00637405
0.00620554
0.00604233
0.0058842
0.00573051
0.00557983
0.0054313
0.00528601
0.00513862
0.00789389
0.00795832
0.00792886
0.00780406
0.00764511
0.00747151
0.00728531
0.00709742
0.00691149
0.00672839
0.00654966
0.00637633
0.00620884
0.00604725
0.00589165
0.00574151
0.00559533
0.00545212
0.00531355
0.00517051
0.00807696
0.00814502
0.00809266
0.00794573
0.00776092
0.00755584
0.00734527
0.00713855
0.0069377
0.0067457
0.00656381
0.0063902
0.00622295
0.00606096
0.0059036
0.00575014
0.00559987
0.00545253
0.00530831
0.00515609
0.00844491
0.00854588
0.00843433
0.00820886
0.00795311
0.00769473
0.00743635
0.00719477
0.00697693
0.00677673
0.00658921
0.00641119
0.00624001
0.00607363
0.00591073
0.00575013
0.0055911
0.00543462
0.0052854
0.00514201
0.00901437
0.00914054
0.00883765
0.00842142
0.00805426
0.00773558
0.00745694
0.00721634
0.00700349
0.00680852
0.00662457
0.00644821
0.00627718
0.00610926
0.00594238
0.00577465
0.00560449
0.00543133
0.00526018
0.00511006
0.0103081
0.00945663
0.00869235
0.0081332
0.007757
0.00748889
0.00727311
0.00707998
0.00690122
0.00673213
0.00656767
0.00640549
0.00624476
0.00608452
0.00592295
0.0057575
0.00558364
0.00539586
0.00518918
0.00494901
0.00989895
0.00913622
0.00851746
0.00806616
0.00772222
0.00745326
0.00723376
0.00704518
0.00687771
0.00672084
0.0065661
0.00641231
0.00626062
0.00611237
0.00596945
0.00583511
0.0057143
0.00561443
0.00555134
0.00555042
0.00859609
0.0086396
0.00847405
0.00821115
0.00793083
0.00765956
0.0074087
0.00718258
0.00697998
0.00679423
0.00661859
0.00645002
0.00628707
0.00612923
0.0059771
0.00583164
0.00569384
0.00556472
0.00544526
0.00533225
0.00807697
0.00814503
0.00809267
0.00794574
0.00776093
0.00755585
0.00734528
0.00713856
0.00693771
0.00674571
0.00656381
0.0063902
0.00622295
0.00606095
0.00590358
0.00575011
0.00559983
0.00545248
0.00530822
0.00515595
0.00777904
0.00783818
0.00782625
0.00773086
0.00759124
0.00742577
0.00724559
0.00706114
0.00687719
0.00669685
0.00652176
0.00635176
0.00618623
0.00602457
0.00586617
0.00571021
0.00555568
0.00540207
0.00524964
0.00509099
0.00762792
0.00769081
0.00769456
0.00762091
0.00750079
0.0073544
0.0071915
0.00702007
0.00684591
0.00667231
0.00650111
0.00633316
0.00616877
0.00600787
0.00585023
0.00569525
0.00554194
0.00538989
0.00523995
0.00508472
0.00762793
0.00769082
0.00769459
0.00762094
0.00750083
0.00735447
0.00719162
0.00702024
0.00684614
0.00667263
0.00650155
0.00633379
0.0061697
0.00600929
0.00585235
0.00569823
0.00554584
0.00539491
0.00524663
0.00509184
0.00777903
0.00783817
0.00782624
0.00773085
0.00759123
0.00742576
0.00724558
0.00706113
0.00687718
0.00669685
0.00652176
0.00635176
0.00618624
0.00602458
0.00586618
0.00571023
0.00555571
0.00540212
0.00524971
0.00509108
0.00807689
0.00814495
0.00809256
0.00794557
0.00776067
0.00755554
0.00734487
0.00713794
0.00693676
0.00674422
0.00656142
0.00638649
0.00621743
0.00605276
0.00589136
0.00573219
0.00557427
0.00541749
0.00526333
0.00510855
0.00859597
0.00863947
0.00847388
0.00821093
0.00793052
0.00765913
0.00740805
0.00718154
0.00697825
0.00679121
0.00661339
0.00644165
0.00627452
0.00611049
0.00594805
0.00578608
0.00562403
0.00546242
0.00530337
0.00515117
0.00989886
0.00913612
0.00851735
0.008066
0.00772199
0.0074529
0.00723317
0.00704417
0.00687601
0.00671806
0.00656154
0.00640489
0.00624855
0.00609265
0.00593674
0.00578011
0.00562205
0.00546266
0.00530396
0.00515317
0.00976471
0.00902352
0.00843536
0.00802725
0.00770531
0.00743861
0.00721711
0.00702653
0.00685589
0.00669939
0.00654985
0.00640055
0.00625091
0.00610306
0.00595955
0.00582312
0.00569694
0.00558451
0.00548892
0.00541688
0.00838008
0.00840191
0.00827472
0.00805724
0.00782486
0.00759576
0.00737306
0.00716008
0.0069596
0.00677286
0.00659746
0.00643031
0.00626992
0.00611471
0.00596437
0.0058208
0.00568514
0.00555795
0.0054414
0.00533012
0.0078939
0.00795833
0.00792887
0.00780406
0.00764512
0.00747151
0.00728531
0.00709743
0.0069115
0.00672839
0.00654966
0.00637633
0.00620883
0.00604724
0.00589163
0.00574148
0.00559528
0.00545206
0.00531346
0.00517039
0.00762794
0.00769083
0.00769459
0.00762095
0.00750084
0.00735448
0.00719162
0.00702024
0.00684615
0.00667264
0.00650155
0.00633379
0.00616969
0.00600928
0.00585234
0.00569821
0.00554581
0.00539487
0.00524658
0.00509178
0.00748513
0.00755464
0.00757676
0.00752421
0.00742296
0.00729203
0.00714211
0.00698111
0.00681459
0.00664623
0.00647839
0.00631249
0.00614929
0.0059891
0.00583191
0.00567717
0.00552401
0.00537214
0.00522261
0.00506663
0.00748512
0.00755463
0.00757676
0.00752421
0.00742296
0.00729202
0.0071421
0.00698111
0.00681459
0.00664623
0.00647839
0.00631249
0.00614929
0.0059891
0.00583191
0.00567718
0.00552402
0.00537216
0.00522264
0.00506666
0.00762791
0.0076908
0.00769456
0.00762091
0.00750078
0.00735439
0.00719149
0.00702006
0.0068459
0.0066723
0.0065011
0.00633316
0.00616877
0.00600787
0.00585024
0.00569526
0.00554196
0.00538993
0.00524
0.0050848
0.00789385
0.00795828
0.00792881
0.00780395
0.00764492
0.00747124
0.00728497
0.00709696
0.00691082
0.00672736
0.00654811
0.00637404
0.00620553
0.00604233
0.0058842
0.00573052
0.00557987
0.00543137
0.00528618
0.00513898
0.00838002
0.00840184
0.00827464
0.0080571
0.00782467
0.00759549
0.00737266
0.00715948
0.0069587
0.00677138
0.00659499
0.00642621
0.0062634
0.00610488
0.00594963
0.0057983
0.00565146
0.00550928
0.00537337
0.00524351
0.00976467
0.00902348
0.00843529
0.00802716
0.00770519
0.00743844
0.00721684
0.00702609
0.00685516
0.0066982
0.0065479
0.00639733
0.00624561
0.00609442
0.00594531
0.00579942
0.00565828
0.0055222
0.00539091
0.00527021
0.00976469
0.0090235
0.00843531
0.00802718
0.00770521
0.00743846
0.00721686
0.00702611
0.00685518
0.00669822
0.00654791
0.00639735
0.00624563
0.00609444
0.00594533
0.00579945
0.00565831
0.00552226
0.00539101
0.00527038
0.00838004
0.00840186
0.00827465
0.00805712
0.00782468
0.00759551
0.00737268
0.0071595
0.00695872
0.0067714
0.00659501
0.00642622
0.00626341
0.00610489
0.00594963
0.0057983
0.00565145
0.00550925
0.00537326
0.0052433
0.00789386
0.0079583
0.00792883
0.00780396
0.00764493
0.00747125
0.00728499
0.00709698
0.00691083
0.00672737
0.00654812
0.00637405
0.00620554
0.00604232
0.00588419
0.00573049
0.00557982
0.00543128
0.005286
0.00513863
0.00762792
0.00769081
0.00769457
0.00762091
0.00750079
0.0073544
0.0071915
0.00702007
0.00684591
0.00667231
0.0065011
0.00633316
0.00616877
0.00600787
0.00585022
0.00569524
0.00554193
0.00538989
0.00523995
0.00508472
0.00748513
0.00755464
0.00757676
0.00752421
0.00742296
0.00729203
0.00714211
0.00698111
0.00681459
0.00664623
0.00647839
0.00631248
0.00614928
0.0059891
0.0058319
0.00567717
0.005524
0.00537214
0.00522261
0.00506662
0.00748512
0.00755463
0.00757675
0.00752421
0.00742296
0.00729202
0.0071421
0.00698111
0.00681459
0.00664623
0.00647838
0.00631248
0.00614928
0.0059891
0.0058319
0.00567717
0.00552401
0.00537215
0.00522262
0.00506665
0.00762793
0.00769082
0.00769458
0.00762094
0.00750083
0.00735447
0.00719161
0.00702023
0.00684614
0.00667263
0.00650155
0.00633379
0.00616969
0.00600928
0.00585234
0.00569821
0.00554582
0.00539489
0.0052466
0.00509182
0.00789388
0.00795831
0.00792886
0.00780405
0.0076451
0.0074715
0.0072853
0.00709741
0.00691148
0.00672837
0.00654964
0.00637632
0.00620882
0.00604724
0.00589163
0.00574148
0.00559529
0.00545207
0.00531348
0.00517042
0.00838007
0.00840189
0.0082747
0.00805722
0.00782484
0.00759574
0.00737304
0.00716006
0.00695958
0.00677284
0.00659744
0.0064303
0.0062699
0.0061147
0.00596436
0.00582079
0.00568513
0.00555794
0.00544138
0.00533005
0.00976469
0.0090235
0.00843534
0.00802723
0.00770529
0.00743859
0.00721709
0.00702651
0.00685587
0.00669937
0.00654983
0.00640054
0.00625089
0.00610304
0.00595953
0.0058231
0.00569692
0.0055845
0.00548891
0.00541688
0.00989888
0.00913614
0.00851737
0.00806603
0.00772202
0.00745292
0.00723319
0.00704419
0.00687604
0.00671808
0.00656157
0.00640491
0.00624857
0.00609267
0.00593676
0.00578015
0.00562211
0.00546278
0.00530421
0.00515368
0.00859599
0.00863949
0.0084739
0.00821095
0.00793053
0.00765915
0.00740807
0.00718156
0.00697827
0.00679123
0.00661341
0.00644166
0.00627454
0.0061105
0.00594806
0.00578608
0.00562404
0.00546243
0.00530336
0.0051511
0.0080769
0.00814497
0.00809258
0.00794558
0.00776069
0.00755555
0.00734488
0.00713795
0.00693677
0.00674423
0.00656143
0.0063865
0.00621743
0.00605276
0.00589135
0.00573217
0.00557424
0.00541743
0.00526322
0.00510834
0.00777904
0.00783818
0.00782625
0.00773086
0.00759124
0.00742577
0.00724559
0.00706114
0.00687719
0.00669685
0.00652176
0.00635176
0.00618623
0.00602457
0.00586617
0.00571021
0.00555568
0.00540208
0.00524966
0.00509102
0.00762793
0.00769083
0.00769459
0.00762095
0.00750084
0.00735447
0.00719162
0.00702024
0.00684614
0.00667263
0.00650155
0.00633379
0.00616969
0.00600927
0.00585233
0.00569821
0.00554581
0.00539487
0.00524657
0.00509178
0.00762791
0.00769081
0.00769456
0.00762091
0.00750078
0.00735439
0.0071915
0.00702007
0.00684591
0.00667231
0.0065011
0.00633315
0.00616876
0.00600786
0.00585022
0.00569523
0.00554192
0.00538988
0.00523994
0.00508473
0.00777903
0.00783817
0.00782624
0.00773085
0.00759123
0.00742576
0.00724558
0.00706113
0.00687718
0.00669684
0.00652175
0.00635175
0.00618622
0.00602456
0.00586615
0.00571019
0.00555566
0.00540205
0.00524962
0.00509098
0.00807696
0.00814502
0.00809266
0.00794573
0.00776091
0.00755584
0.00734527
0.00713855
0.00693769
0.00674569
0.0065638
0.00639018
0.00622293
0.00606093
0.00590356
0.00575009
0.0055998
0.00545241
0.0053081
0.00515576
0.00859607
0.00863958
0.00847403
0.00821113
0.00793081
0.00765955
0.00740868
0.00718256
0.00697996
0.00679421
0.00661857
0.00645
0.00628705
0.00612921
0.00597708
0.00583162
0.0056938
0.00556466
0.00544514
0.00533195
0.00989893
0.0091362
0.00851744
0.00806614
0.0077222
0.00745324
0.00723374
0.00704516
0.00687769
0.00672082
0.00656608
0.00641229
0.0062606
0.00611235
0.00596943
0.0058351
0.0057143
0.00561444
0.00555142
0.00555062
0.0103082
0.00945665
0.00869237
0.00813322
0.00775702
0.00748891
0.00727313
0.00708
0.00690125
0.00673215
0.00656769
0.00640552
0.00624479
0.00608453
0.00592297
0.00575754
0.0055837
0.00539595
0.00518933
0.00494926
0.00901438
0.00914056
0.00883767
0.00842144
0.00805428
0.0077356
0.00745696
0.00721636
0.00700351
0.00680853
0.00662459
0.00644823
0.00627719
0.00610928
0.0059424
0.00577467
0.00560451
0.00543135
0.00526021
0.00511011
0.00844492
0.0085459
0.00843434
0.00820887
0.00795313
0.00769474
0.00743637
0.00719478
0.00697695
0.00677674
0.00658922
0.00641119
0.00624001
0.00607364
0.00591073
0.00575012
0.00559109
0.00543461
0.00528539
0.00514199
0.00807697
0.00814503
0.00809267
0.00794574
0.00776092
0.00755585
0.00734528
0.00713856
0.0069377
0.00674571
0.00656381
0.0063902
0.00622295
0.00606095
0.00590358
0.00575012
0.00559984
0.00545249
0.00530824
0.00515598
0.00789389
0.00795832
0.00792887
0.00780406
0.00764511
0.00747151
0.00728531
0.00709742
0.00691149
0.00672838
0.00654966
0.00637633
0.00620883
0.00604724
0.00589163
0.00574148
0.00559528
0.00545205
0.00531345
0.00517036
0.00789385
0.00795829
0.00792882
0.00780396
0.00764492
0.00747124
0.00728498
0.00709697
0.00691083
0.00672736
0.00654811
0.00637404
0.00620553
0.00604232
0.00588418
0.00573049
0.00557981
0.00543127
0.00528598
0.00513863
0.00807689
0.00814496
0.00809257
0.00794557
0.00776068
0.00755554
0.00734487
0.00713795
0.00693677
0.00674422
0.00656142
0.00638649
0.00621742
0.00605274
0.00589133
0.00573215
0.00557421
0.00541739
0.00526314
0.00510822
0.00844491
0.00854589
0.00843433
0.00820886
0.00795311
0.00769473
0.00743635
0.00719477
0.00697693
0.00677673
0.0065892
0.00641118
0.00624
0.00607362
0.00591071
0.00575009
0.00559104
0.00543452
0.00528519
0.00514159
0.00901442
0.00914061
0.00883774
0.00842154
0.00805442
0.00773584
0.00745739
0.00721713
0.00700484
0.00681073
0.00662805
0.00645365
0.00628578
0.00612302
0.00596414
0.00580848
0.00565587
0.00550655
0.00536545
0.00524407
0.0103082
0.0094567
0.00869243
0.00813331
0.00775719
0.00748924
0.0072737
0.00708098
0.00690286
0.00673486
0.00657223
0.00641295
0.00625689
0.00610428
0.00595546
0.00581133
0.0056739
0.00554827
0.00545177
0.00541003
0.0106565
0.0099226
0.0088297
0.00816372
0.0077611
0.00748733
0.00727609
0.00708975
0.00691514
0.00674748
0.00658421
0.00642339
0.00626303
0.00610189
0.00593965
0.00577496
0.00560252
0.00540746
0.00514729
0.00472369
0.00993987
0.00990817
0.00917994
0.00846944
0.00802309
0.00770714
0.00744825
0.00722058
0.00701599
0.0068276
0.00664989
0.006479
0.00631176
0.00614651
0.00598236
0.0058177
0.00565018
0.00547769
0.00531234
0.00521419
0.00901443
0.00914062
0.00883776
0.00842156
0.00805444
0.00773586
0.00745741
0.00721714
0.00700486
0.00681075
0.00662807
0.00645366
0.00628579
0.00612304
0.00596417
0.00580851
0.00565591
0.00550662
0.00536557
0.00524436
0.00859608
0.00863959
0.00847404
0.00821115
0.00793082
0.00765956
0.0074087
0.00718257
0.00697998
0.00679423
0.00661859
0.00645002
0.00628707
0.00612923
0.0059771
0.00583165
0.00569385
0.00556474
0.0054453
0.00533231
0.00838008
0.00840191
0.00827472
0.00805724
0.00782486
0.00759576
0.00737306
0.00716008
0.0069596
0.00677285
0.00659746
0.00643031
0.00626992
0.00611471
0.00596438
0.00582081
0.00568516
0.00555797
0.00544142
0.00533014
0.00838003
0.00840185
0.00827465
0.00805712
0.00782468
0.00759551
0.00737267
0.00715949
0.00695872
0.0067714
0.006595
0.00642622
0.00626341
0.00610489
0.00594963
0.00579831
0.00565145
0.00550925
0.00537327
0.00524331
0.00859598
0.00863948
0.00847389
0.00821094
0.00793052
0.00765914
0.00740806
0.00718155
0.00697826
0.00679122
0.0066134
0.00644166
0.00627453
0.00611049
0.00594805
0.00578608
0.00562403
0.00546242
0.00530335
0.00515108
0.00901437
0.00914055
0.00883766
0.00842143
0.00805426
0.00773558
0.00745695
0.00721635
0.0070035
0.00680852
0.00662458
0.00644822
0.00627719
0.00610927
0.00594239
0.00577466
0.0056045
0.00543133
0.00526017
0.00511004
0.00993986
0.00990815
0.00917993
0.00846943
0.00802308
0.00770713
0.00744823
0.00722057
0.00701598
0.00682759
0.00664988
0.00647899
0.00631175
0.0061465
0.00598236
0.00581769
0.00565017
0.00547769
0.00531234
0.00521433
0.0106564
0.00992261
0.00882972
0.00816375
0.00776118
0.00748748
0.00727636
0.00709024
0.00691599
0.00674894
0.00658661
0.00642736
0.00626985
0.0061138
0.00595985
0.00580829
0.00565716
0.00550374
0.00534258
0.00514947
0.0178352
0.0107208
0.00842939
0.00789157
0.0076172
0.00739499
0.00720835
0.0070419
0.00688073
0.00672125
0.00656355
0.00640741
0.00625151
0.00609478
0.00593731
0.00577813
0.00561727
0.00544882
0.00523534
0.0048378
0.0106565
0.00992262
0.00882973
0.00816377
0.0077612
0.0074875
0.00727638
0.00709025
0.00691601
0.00674895
0.00658662
0.00642737
0.00626986
0.0061138
0.00595984
0.00580829
0.00565716
0.00550369
0.00534241
0.00514896
0.0103082
0.00945671
0.00869245
0.00813333
0.00775721
0.00748926
0.00727372
0.00708099
0.00690288
0.00673488
0.00657224
0.00641297
0.0062569
0.00610429
0.00595548
0.00581135
0.00567391
0.00554826
0.00545169
0.00540972
0.00989894
0.00913621
0.00851746
0.00806615
0.00772221
0.00745325
0.00723376
0.00704518
0.0068777
0.00672083
0.00656609
0.00641231
0.00626062
0.00611237
0.00596946
0.00583512
0.00571432
0.00561446
0.00555139
0.0055505
0.0097647
0.00902352
0.00843535
0.00802724
0.00770531
0.00743861
0.00721711
0.00702653
0.00685589
0.00669938
0.00654985
0.00640056
0.00625091
0.00610307
0.00595957
0.00582314
0.00569696
0.00558454
0.00548896
0.00541693
0.00976468
0.00902349
0.00843531
0.00802717
0.00770521
0.00743845
0.00721686
0.00702611
0.00685518
0.00669821
0.00654791
0.00639736
0.00624564
0.00609445
0.00594535
0.00579947
0.00565833
0.00552228
0.00539103
0.0052704
0.00989887
0.00913613
0.00851736
0.00806602
0.00772201
0.00745292
0.00723318
0.00704418
0.00687603
0.00671808
0.00656156
0.00640491
0.00624857
0.00609268
0.00593678
0.00578016
0.00562212
0.0054628
0.00530422
0.00515367
0.0103082
0.00945664
0.00869236
0.00813321
0.00775701
0.0074889
0.00727312
0.00707999
0.00690124
0.00673214
0.00656769
0.00640551
0.00624478
0.00608454
0.00592298
0.00575755
0.00558371
0.00539597
0.00518936
0.0049493
0.0106564
0.00992258
0.00882968
0.0081637
0.00776109
0.00748732
0.00727607
0.00708973
0.00691513
0.00674747
0.0065842
0.00642338
0.00626302
0.00610189
0.00593966
0.00577496
0.00560253
0.00540748
0.00514738
0.00472394
0.0178352
0.0107208
0.00842938
0.00789155
0.00761719
0.00739498
0.00720833
0.00704189
0.00688071
0.00672123
0.00656354
0.00640739
0.0062515
0.00609477
0.00593732
0.00577814
0.00561728
0.00544887
0.0052355
0.00483836
0.00552873
0.00486731
0.00447982
0.0043582
0.00425585
0.00412288
0.00398888
0.003858
0.00372746
0.00359681
0.00346602
0.00333694
0.00320781
0.00307726
0.00294839
0.00282066
0.00269419
0.00256889
0.00244521
0.00232269
0.00220059
0.00208017
0.00196144
0.00184321
0.00172523
0.00160876
0.00149364
0.00137925
0.00126589
0.00115287
0.00104063
0.000929855
0.000819734
0.000709734
0.000600055
0.000491331
0.000383088
0.000274021
0.00016619
5.128e-05
0.0054689
0.00492337
0.00455353
0.00441029
0.00429013
0.00415186
0.00401464
0.0038798
0.00374499
0.00360986
0.00347488
0.0033421
0.00320925
0.00307531
0.00294417
0.00281492
0.00268733
0.00256141
0.00243729
0.00231466
0.00219253
0.0020727
0.00195503
0.00183744
0.00171974
0.00160329
0.00148814
0.00137368
0.00126043
0.00114768
0.00103574
0.00092532
0.000815582
0.000705986
0.000596564
0.000488181
0.000380388
0.000271826
0.000163941
5.07394e-05
0.00512123
0.00490358
0.00465085
0.00446904
0.00432372
0.0041802
0.00403568
0.00389293
0.00375219
0.00361303
0.00347547
0.00333948
0.00320501
0.00307125
0.00293985
0.00281057
0.00268286
0.00255691
0.00243244
0.00230955
0.00218711
0.00206699
0.00194864
0.00183104
0.00171387
0.00159749
0.00148244
0.00136804
0.00125489
0.0011426
0.00103133
0.000921316
0.000812086
0.000702842
0.000593791
0.000485915
0.000378455
0.000270109
0.000162742
5.01642e-05
0.00494753
0.00484507
0.00467926
0.00450865
0.00435459
0.00420598
0.00405858
0.00391312
0.00376982
0.00362868
0.00348964
0.0033524
0.00321732
0.00308401
0.00295277
0.00282324
0.00269526
0.00256875
0.00244346
0.0023195
0.00219592
0.00207316
0.00195182
0.0018325
0.00171475
0.00159805
0.00148259
0.00136818
0.00125492
0.00114263
0.00103127
0.000920291
0.000810549
0.000701197
0.000592318
0.000484809
0.000377555
0.00026939
0.000162386
4.98006e-05
0.00485317
0.00478558
0.00465832
0.00450561
0.00435203
0.00420093
0.00405275
0.00390795
0.00376566
0.00362517
0.00348683
0.00335108
0.00321723
0.00308534
0.00295512
0.00282632
0.0026989
0.00257273
0.00244778
0.00232403
0.00220151
0.00208024
0.00195996
0.00184064
0.00172252
0.00160555
0.00148989
0.0013754
0.00126188
0.00114928
0.00103702
0.000924861
0.000813921
0.000704048
0.000594995
0.000487106
0.000379126
0.000270378
0.000162911
4.98249e-05
0.0049276
0.0048172
0.00466292
0.00450093
0.00434348
0.0041905
0.00404102
0.0038963
0.00375624
0.00361884
0.00348297
0.00334856
0.00321575
0.00308463
0.00295501
0.00282671
0.00269968
0.0025739
0.00244937
0.00232604
0.00220394
0.002083
0.00196331
0.00184464
0.00172668
0.00160934
0.00149298
0.00137787
0.00126418
0.00115157
0.00103966
0.000928735
0.000818805
0.000709311
0.000600114
0.00049144
0.000382579
0.00027303
0.000164536
5.06969e-05
0.00503293
0.00486573
0.00467577
0.00449824
0.00433474
0.00417935
0.00402951
0.00388567
0.00374671
0.00361052
0.00347596
0.00334283
0.00321114
0.00308064
0.00295169
0.00282415
0.00269781
0.00257263
0.00244858
0.00232568
0.0022039
0.00208328
0.0019638
0.00184497
0.00172674
0.00160949
0.00149357
0.00137871
0.00126536
0.00115285
0.00104108
0.000930785
0.000820678
0.000710653
0.000601526
0.000493243
0.00038473
0.000275555
0.00016683
5.23175e-05
0.0051982
0.00495628
0.00469845
0.0044911
0.0043171
0.00415891
0.00401013
0.00386843
0.00373126
0.00359705
0.00346465
0.00333334
0.00320228
0.00307228
0.00294422
0.00281766
0.0026921
0.00256762
0.00244414
0.00232175
0.00220046
0.00208032
0.00196154
0.00184286
0.00172564
0.00161005
0.00149546
0.00138166
0.00126861
0.00115578
0.00104371
0.000933496
0.000823348
0.00071297
0.000603757
0.00049558
0.000386947
0.000277754
0.000168483
5.34312e-05
0.00540062
0.00501371
0.00466184
0.0044371
0.00426391
0.00411032
0.00396908
0.00383574
0.00370647
0.00357828
0.00345059
0.00332267
0.00319571
0.00307015
0.00294419
0.00281838
0.00269261
0.00256811
0.00244469
0.0023223
0.0022009
0.00208039
0.00196136
0.00184296
0.00172654
0.00161124
0.00149673
0.00138277
0.00126938
0.00115615
0.00104368
0.000933175
0.000823014
0.00071261
0.00060296
0.00049449
0.000385519
0.000276145
0.000166907
5.27448e-05
0.00556853
0.00494961
0.00450753
0.00433566
0.00421917
0.00408822
0.00395717
0.0038312
0.00370675
0.00358145
0.00345664
0.00333023
0.00320408
0.00307993
0.00295448
0.00282837
0.00270245
0.00257761
0.00245406
0.00233155
0.00220959
0.00208831
0.00196858
0.00184938
0.0017313
0.00161507
0.00149998
0.00138567
0.00127209
0.00115874
0.00104616
0.000935326
0.000824947
0.000714458
0.000604641
0.000495854
0.000386645
0.000277134
0.000167891
5.31568e-05
0.00552842
0.00486705
0.00447944
0.00435692
0.00425545
0.00412412
0.00398953
0.00385813
0.00372746
0.00359682
0.00346716
0.00333637
0.00320575
0.00307716
0.00294881
0.00282106
0.00269429
0.00256889
0.00244502
0.00232242
0.00220057
0.00207999
0.00196116
0.0018426
0.00172473
0.00160852
0.00149343
0.00137921
0.00126576
0.0011527
0.0010405
0.000929829
0.000819746
0.000709627
0.000600229
0.000491709
0.000382988
0.000273936
0.00016624
5.1144e-05
0.00556862
0.00494988
0.004508
0.00433714
0.00421958
0.00408668
0.00395641
0.00383114
0.00370686
0.00358171
0.00345565
0.00333122
0.00320664
0.00308005
0.00295405
0.0028279
0.00270231
0.00257762
0.00245423
0.00233183
0.00220953
0.0020885
0.00196887
0.00184996
0.00173164
0.00161509
0.00150007
0.00138563
0.0012722
0.00115889
0.00104624
0.000935252
0.000824806
0.000714479
0.000604443
0.00049527
0.00038659
0.000277235
0.000167755
5.31848e-05
0.00525633
0.00489549
0.00460657
0.00442142
0.00426941
0.00412659
0.0039917
0.00386153
0.00373211
0.00360232
0.00347254
0.00334331
0.00321417
0.00308434
0.00295601
0.00282874
0.00270265
0.00257784
0.00245424
0.00233198
0.0022099
0.00208972
0.00197031
0.00185159
0.0017333
0.00161608
0.00150089
0.00138618
0.00127262
0.0011593
0.00104663
0.000935595
0.000825221
0.000714773
0.000604643
0.000495594
0.000387052
0.00027788
0.000169117
5.39796e-05
0.00506956
0.00484957
0.00462996
0.00443801
0.00427945
0.00413677
0.0039983
0.00386254
0.00372869
0.00359594
0.00346414
0.00333252
0.00320206
0.00307349
0.00294537
0.00281809
0.00269211
0.00256746
0.00244394
0.00232144
0.00219983
0.00207911
0.00195906
0.00184087
0.00172413
0.00160777
0.00149274
0.00137863
0.00126534
0.00115297
0.00104133
0.000930017
0.000819666
0.000709558
0.000600358
0.000492396
0.000383971
0.000274594
0.00016658
5.28754e-05
0.00481818
0.00466864
0.00456174
0.00442302
0.00428033
0.00414326
0.00400754
0.00387243
0.00373837
0.00360511
0.00347264
0.00334096
0.00321016
0.00308081
0.00295218
0.00282448
0.00269807
0.00257281
0.00244877
0.00232564
0.00220396
0.00208278
0.0019623
0.00184358
0.00172659
0.00161032
0.00149463
0.00138019
0.00126645
0.00115364
0.00104137
0.000929425
0.000818533
0.000708368
0.000599508
0.000491365
0.000382528
0.000273619
0.000165752
5.29716e-05
0.00482982
0.00467935
0.00456558
0.00443155
0.00429013
0.00415216
0.00401503
0.00387834
0.00374287
0.00360882
0.00347597
0.0033442
0.00321337
0.00308368
0.00295499
0.00282746
0.00270117
0.00257603
0.00245206
0.00232908
0.00220725
0.00208617
0.00196614
0.00184741
0.00172977
0.00161298
0.00149718
0.00138292
0.00126977
0.00115693
0.00104431
0.000932589
0.000821617
0.000711367
0.000602043
0.000492696
0.000382784
0.000273155
0.000164657
5.31223e-05
0.00490813
0.00475094
0.00461338
0.0044685
0.00432101
0.00417663
0.0040347
0.00389406
0.00375498
0.00361802
0.00348304
0.00334976
0.00321801
0.00308748
0.00295817
0.00283015
0.00270342
0.00257797