/*--------------------------------*- C++ -*----------------------------------*\
| =========                 |                                                 |
| \\      /  F ield         | OpenFOAM: The Open Source CFD Toolbox           |
|  \\    /   O peration     | Version:  2212                                  |
|   \\  /    A nd           | Website:  www.openfoam.com                      |
|    \\/     M anipulation  |                                                 |
\*---------------------------------------------------------------------------*/
FoamFile
{
    version     2.0;
    format      ascii;
    arch        "LSB;label=32;scalar=64";
    class       surfaceScalarField;
    location    "2.7";
    object      phi;
}
// * * * * * * * * * * * * * * * * * * * * * * * * * * * * * * * * * * * * * //

dimensions      [0 3 -1 0 0 0 0];

oriented        oriented;

internalField   nonuniform List<scalar> 
19019
(
3.3225e-07
1.09686e-09
1.09679e-09
2.7919e-07
2.65297e-08
2.65293e-08
2.49218e-07
1.49867e-08
1.49859e-08
2.29254e-07
9.9826e-09
9.98131e-09
2.14834e-07
7.21134e-09
7.20844e-09
2.03198e-07
5.82034e-09
5.81587e-09
1.93769e-07
4.71871e-09
4.7098e-09
1.86e-07
3.89261e-09
3.87667e-09
1.79348e-07
3.33957e-09
3.31195e-09
1.73515e-07
2.94025e-09
2.89296e-09
1.68337e-07
2.62788e-09
2.55045e-09
1.63707e-07
2.37886e-09
2.25119e-09
1.59525e-07
2.20134e-09
1.98025e-09
1.55722e-07
2.10106e-09
1.70242e-09
1.52318e-07
2.04357e-09
1.36014e-09
1.49344e-07
2.03079e-09
9.43458e-10
1.46958e-07
2.02958e-09
3.56241e-10
1.46002e-07
1.91275e-09
-9.55867e-10
1.48492e-07
1.55555e-09
-4.04638e-09
-9.77176e-09
-2.60073e-08
6.3138e-07
3.58763e-09
7.40283e-09
6.14564e-07
2.26461e-08
2.07001e-08
5.86445e-07
2.43762e-08
1.87288e-08
5.61727e-07
1.88551e-08
1.58463e-08
5.39619e-07
1.55701e-08
1.37483e-08
5.20641e-07
1.35114e-08
1.12879e-08
5.04698e-07
1.19537e-08
8.70719e-09
4.90951e-07
1.08026e-08
6.83696e-09
4.78741e-07
9.95172e-09
5.59835e-09
4.67678e-07
9.24521e-09
4.75749e-09
4.57539e-07
8.62577e-09
4.14101e-09
4.48192e-07
8.06777e-09
3.65853e-09
4.39532e-07
7.56422e-09
3.29717e-09
4.31493e-07
7.11249e-09
3.02744e-09
4.24121e-07
6.67963e-09
2.7365e-09
4.17642e-07
6.20045e-09
2.30887e-09
4.12669e-07
5.44717e-09
1.5557e-09
4.11224e-07
3.60465e-09
-2.46958e-10
4.17508e-07
-3.50247e-11
-4.69352e-09
-1.06727e-08
-1.89612e-08
8.90375e-07
2.85264e-09
6.33227e-09
8.82487e-07
1.34086e-08
1.71254e-08
8.70361e-07
1.7867e-08
1.8635e-08
8.55116e-07
1.69546e-08
1.71457e-08
8.39989e-07
1.53383e-08
1.53583e-08
8.25547e-07
1.41659e-08
1.37874e-08
8.1179e-07
1.33719e-08
1.23389e-08
7.98815e-07
1.26622e-08
1.11155e-08
7.86774e-07
1.18643e-08
1.01286e-08
7.75685e-07
1.10034e-08
9.33072e-09
7.65423e-07
1.01692e-08
8.71884e-09
7.55858e-07
9.37424e-09
8.25803e-09
7.4691e-07
8.61509e-09
7.89729e-09
7.38577e-07
7.86006e-09
7.58503e-09
7.30962e-07
7.03333e-09
7.26218e-09
7.24408e-07
5.95885e-09
6.79491e-09
7.19428e-07
4.43407e-09
5.99383e-09
7.16599e-07
2.05799e-09
4.37549e-09
7.16902e-07
-1.93801e-09
1.60026e-09
-9.76264e-09
-4.17051e-09
1.07432e-06
1.06471e-09
5.56885e-09
1.06824e-06
5.58618e-09
1.39001e-08
1.06138e-06
8.46323e-09
1.62613e-08
1.05339e-06
9.03838e-09
1.59076e-08
1.04511e-06
8.61487e-09
1.49998e-08
1.03723e-06
8.11466e-09
1.39301e-08
1.02986e-06
7.77568e-09
1.29728e-08
1.02288e-06
7.53508e-09
1.21085e-08
1.01607e-06
7.33529e-09
1.13356e-08
1.00937e-06
7.02726e-09
1.06767e-08
1.00282e-06
6.54938e-09
1.01722e-08
9.9641e-07
5.98885e-09
9.79121e-09
9.90132e-07
5.39092e-09
9.5029e-09
9.83972e-07
4.73741e-09
9.28219e-09
9.77935e-07
3.98014e-09
9.09032e-09
9.72068e-07
2.96258e-09
8.86343e-09
9.6645e-07
1.52133e-09
8.53024e-09
9.6105e-07
-5.71137e-10
8.02936e-09
9.55234e-07
-3.52575e-09
7.4036e-09
-8.14834e-09
7.09884e-09
1.16914e-06
-1.44584e-13
4.9065e-09
1.16312e-06
-6.86568e-13
1.16083e-08
1.15731e-06
-1.58811e-12
1.42753e-08
1.15202e-06
-2.87596e-12
1.43334e-08
1.14691e-06
-4.96164e-12
1.37299e-08
1.14206e-06
-8.66104e-12
1.29687e-08
1.13775e-06
-1.5223e-11
1.21e-08
1.13401e-06
-2.60172e-11
1.13074e-08
1.13074e-06
-4.41686e-11
1.06496e-08
1.12765e-06
-7.41847e-11
1.01903e-08
1.12443e-06
-1.23785e-10
9.89724e-09
1.12093e-06
-2.05499e-10
9.6939e-09
1.11707e-06
-3.4074e-10
9.58496e-09
1.11278e-06
-5.63737e-10
9.59258e-09
1.10797e-06
-9.32177e-10
9.71818e-09
1.10251e-06
-1.53335e-09
9.9647e-09
1.09621e-06
-2.55489e-09
1.03735e-08
1.08878e-06
-4.10415e-09
1.09652e-08
1.08026e-06
-6.72603e-09
1.17148e-08
-1.16891e-08
1.26696e-08
1.16914e-06
-1.06501e-09
4.90655e-09
1.16312e-06
-5.58725e-09
1.16085e-08
1.15731e-06
-8.46532e-09
1.42755e-08
1.15202e-06
-9.04201e-09
1.4334e-08
1.1469e-06
-8.62168e-09
1.37319e-08
1.14205e-06
-8.12728e-09
1.29727e-08
1.13772e-06
-7.79825e-09
1.21063e-08
1.13395e-06
-7.57387e-09
1.13177e-08
1.13064e-06
-7.40209e-09
1.06673e-08
1.12749e-06
-7.13803e-09
1.02205e-08
1.12415e-06
-6.7307e-09
9.94648e-09
1.12045e-06
-6.28485e-09
9.77665e-09
1.11626e-06
-5.87946e-09
9.72911e-09
1.1114e-06
-5.55141e-09
9.8478e-09
1.10564e-06
-5.33514e-09
1.01641e-08
1.09862e-06
-5.25077e-09
1.07323e-08
1.08985e-06
-5.46012e-09
1.16755e-08
1.07865e-06
-6.05417e-09
1.31482e-08
1.06422e-06
-7.45897e-09
1.51683e-08
-1.17222e-08
1.76218e-08
1.07432e-06
-2.85258e-09
5.56885e-09
1.06824e-06
-1.34084e-08
1.39002e-08
1.06138e-06
-1.78669e-08
1.62621e-08
1.05338e-06
-1.69545e-08
1.59101e-08
1.04509e-06
-1.5339e-08
1.50045e-08
1.03719e-06
-1.41681e-08
1.39374e-08
1.02979e-06
-1.33763e-08
1.29838e-08
1.02276e-06
-1.26689e-08
1.21264e-08
1.01587e-06
-1.18757e-08
1.13656e-08
1.00902e-06
-1.10222e-08
1.07283e-08
1.00223e-06
-1.01995e-08
1.02613e-08
9.95421e-07
-9.42471e-09
9.94747e-09
9.8847e-07
-8.70337e-09
9.77414e-09
9.81181e-07
-8.0189e-09
9.75688e-09
9.73235e-07
-7.32099e-09
9.93226e-09
9.64133e-07
-6.53396e-09
1.03844e-08
9.53022e-07
-5.64013e-09
1.12909e-08
9.38466e-07
-4.49518e-09
1.29973e-08
9.18268e-07
-2.8e-09
1.55386e-08
-2.96881e-09
2.17728e-08
8.90375e-07
-3.58747e-09
6.33237e-09
8.82485e-07
-2.26453e-08
1.71261e-08
8.70357e-07
-2.43751e-08
1.86367e-08
8.55107e-07
-1.88534e-08
1.71486e-08
8.39972e-07
-1.55666e-08
1.53625e-08
8.25516e-07
-1.35055e-08
1.37932e-08
8.11735e-07
-1.19436e-08
1.23483e-08
7.9872e-07
-1.07858e-08
1.11321e-08
7.86612e-07
-9.9234e-09
1.01555e-08
7.75412e-07
-9.19707e-09
9.37525e-09
7.64962e-07
-8.54437e-09
8.79439e-09
7.55085e-07
-7.93695e-09
8.38914e-09
7.4562e-07
-7.3591e-09
8.12156e-09
7.36421e-07
-6.7836e-09
7.96326e-09
7.27326e-07
-6.15172e-09
7.92544e-09
7.18127e-07
-5.36639e-09
8.03223e-09
7.08443e-07
-4.3189e-09
8.36234e-09
6.97316e-07
-2.36866e-09
9.00104e-09
6.82734e-07
1.65825e-09
1.01237e-08
1.1954e-08
1.48993e-08
6.3138e-07
-1.09679e-09
7.40293e-09
6.14563e-07
-2.65293e-08
2.07006e-08
5.86444e-07
-1.49859e-08
1.87298e-08
5.61724e-07
-9.98128e-09
1.58482e-08
5.39615e-07
-7.20842e-09
1.3751e-08
5.20632e-07
-5.81584e-09
1.1293e-08
5.04683e-07
-4.70976e-09
8.71541e-09
4.90923e-07
-3.87662e-09
6.85025e-09
4.78691e-07
-3.3119e-09
5.6206e-09
4.67592e-07
-2.89291e-09
4.79555e-09
4.57384e-07
-2.55039e-09
4.21376e-09
4.47914e-07
-2.25112e-09
3.78358e-09
4.39055e-07
-1.98023e-09
3.48078e-09
4.30704e-07
-1.70231e-09
3.26913e-09
4.22798e-07
-1.35991e-09
3.11499e-09
4.15374e-07
-9.43302e-10
3.0003e-09
4.08518e-07
-3.55982e-10
2.89335e-09
4.0282e-07
9.5596e-10
2.37344e-09
4.00412e-07
4.04653e-09
1.99893e-11
2.60069e-08
-1.12156e-08
3.3225e-07
1.09686e-09
2.79191e-07
2.65297e-08
2.49218e-07
1.49868e-08
2.29254e-07
9.98263e-09
2.14834e-07
7.21139e-09
2.03198e-07
5.82039e-09
1.93769e-07
4.71877e-09
1.86e-07
3.89268e-09
1.79348e-07
3.33966e-09
1.73515e-07
2.94034e-09
1.68337e-07
2.62798e-09
1.63707e-07
2.37898e-09
1.59525e-07
2.20148e-09
1.55721e-07
2.10134e-09
1.52318e-07
2.0439e-09
1.49343e-07
2.03142e-09
1.46957e-07
2.03037e-09
1.45999e-07
1.91353e-09
1.48489e-07
1.55679e-09
-9.76764e-09
6.3138e-07
7.40293e-09
3.58748e-09
6.14563e-07
2.07006e-08
2.26453e-08
5.86444e-07
1.87298e-08
2.43752e-08
5.61724e-07
1.58482e-08
1.88535e-08
5.39615e-07
1.37509e-08
1.55667e-08
5.20632e-07
1.12929e-08
1.35056e-08
5.04683e-07
8.71535e-09
1.19437e-08
4.90923e-07
6.85019e-09
1.07858e-08
4.78691e-07
5.62051e-09
9.92348e-09
4.67592e-07
4.79545e-09
9.19716e-09
4.57384e-07
4.21365e-09
8.54447e-09
4.47915e-07
3.78338e-09
7.93707e-09
4.39056e-07
3.48028e-09
7.35924e-09
4.30706e-07
3.26887e-09
6.78337e-09
4.228e-07
3.11503e-09
6.15118e-09
4.15377e-07
2.99994e-09
5.36585e-09
4.08523e-07
2.89287e-09
4.3183e-09
4.02827e-07
2.37283e-09
2.36713e-09
4.00422e-07
1.91637e-11
-1.66119e-09
-1.1219e-08
-1.19581e-08
9.23616e-07
7.03396e-09
7.03376e-09
9.25318e-07
1.98501e-08
1.98494e-08
9.17183e-07
2.27973e-08
2.2796e-08
9.04273e-07
2.23034e-08
2.23009e-08
8.90531e-07
2.06229e-08
2.06188e-08
8.77404e-07
1.78576e-08
1.78499e-08
8.65431e-07
1.47041e-08
1.46914e-08
8.54748e-07
1.21955e-08
1.2175e-08
8.45299e-07
1.03513e-08
1.03157e-08
8.36941e-07
8.98638e-09
8.92493e-09
8.29486e-07
7.95695e-09
7.85329e-09
8.22752e-07
7.17251e-09
7.00337e-09
8.16651e-07
6.57295e-09
6.30459e-09
8.11184e-07
6.09489e-09
5.6686e-09
8.06371e-07
5.67378e-09
4.99115e-09
8.02252e-07
5.24653e-09
4.18081e-09
7.98929e-07
4.69144e-09
3.08047e-09
7.95879e-07
3.75404e-09
1.42163e-09
7.90678e-07
1.79346e-09
-1.26619e-09
-2.23591e-09
-5.3345e-09
1.1589e-06
5.28143e-09
6.10237e-09
1.1657e-06
1.39988e-08
1.61821e-08
1.16845e-06
1.79781e-08
2.07049e-08
1.16661e-06
1.91791e-08
2.21022e-08
1.16222e-06
1.88764e-08
2.15021e-08
1.15655e-06
1.75459e-08
1.97651e-08
1.15049e-06
1.56849e-08
1.74178e-08
1.1446e-06
1.38837e-08
1.53171e-08
1.13919e-06
1.22797e-08
1.36093e-08
1.1344e-06
1.08762e-08
1.2236e-08
1.13023e-06
9.70934e-09
1.11353e-08
1.12666e-06
8.74451e-09
1.02511e-08
1.12369e-06
7.92522e-09
9.51596e-09
1.12132e-06
7.18679e-09
8.86123e-09
1.11958e-06
6.45292e-09
8.22181e-09
1.11849e-06
5.63721e-09
7.49429e-09
1.11803e-06
4.61218e-09
6.53838e-09
1.11778e-06
3.20671e-09
5.16717e-09
1.11662e-06
1.23466e-09
3.31977e-09
-1.72254e-09
1.43937e-09
1.32763e-06
2.71812e-09
4.93094e-09
1.3354e-06
7.12053e-09
1.30085e-08
1.34287e-06
9.5528e-09
1.72149e-08
1.34848e-06
1.05767e-08
1.88977e-08
1.35198e-06
1.08726e-08
1.94989e-08
1.35377e-06
1.05758e-08
1.91122e-08
1.35445e-06
9.88361e-09
1.80968e-08
1.3546e-06
9.03208e-09
1.68059e-08
1.35459e-06
8.17002e-09
1.54566e-08
1.35457e-06
7.35196e-09
1.42224e-08
1.35462e-06
6.60572e-09
1.32291e-08
1.35479e-06
5.9197e-09
1.24423e-08
1.35513e-06
5.27896e-09
1.18147e-08
1.35566e-06
4.63508e-09
1.13036e-08
1.35642e-06
3.91416e-09
1.08624e-08
1.35743e-06
3.05586e-09
1.04412e-08
1.35862e-06
1.96158e-09
9.99154e-09
1.35984e-06
5.2602e-10
9.4848e-09
1.36086e-06
-1.35182e-09
8.96916e-09
-3.52759e-09
8.87712e-09
1.41518e-06
-2.734e-13
4.19278e-09
1.42279e-06
-7.93582e-13
1.11157e-08
1.43152e-06
-1.39136e-12
1.50984e-08
1.4398e-06
-2.55667e-12
1.66292e-08
1.44714e-06
-4.71671e-12
1.72753e-08
1.45318e-06
-8.21064e-12
1.751e-08
1.45802e-06
-1.35225e-11
1.71537e-08
1.46195e-06
-2.21538e-11
1.64387e-08
1.46525e-06
-3.71845e-11
1.55539e-08
1.46818e-06
-6.36144e-11
1.46766e-08
1.47092e-06
-1.07203e-10
1.38709e-08
1.47353e-06
-1.78035e-10
1.31836e-08
1.47598e-06
-2.86163e-10
1.26962e-08
1.47825e-06
-4.51821e-10
1.24134e-08
1.48031e-06
-7.14613e-10
1.2278e-08
1.48217e-06
-1.11497e-09
1.22772e-08
1.48377e-06
-1.71357e-09
1.24514e-08
1.48499e-06
-2.57356e-09
1.28421e-08
1.48567e-06
-3.76411e-09
1.34524e-08
-5.15367e-09
1.43135e-08
1.41518e-06
-2.71843e-09
4.19293e-09
1.42279e-06
-7.1214e-09
1.11161e-08
1.43152e-06
-9.55441e-09
1.5099e-08
1.4398e-06
-1.05797e-08
1.66306e-08
1.44713e-06
-1.08783e-08
1.72785e-08
1.45316e-06
-1.05855e-08
1.75156e-08
1.45799e-06
-9.89977e-09
1.71629e-08
1.46189e-06
-9.059e-09
1.6453e-08
1.46516e-06
-8.21545e-09
1.5576e-08
1.46804e-06
-7.43229e-09
1.47131e-08
1.47069e-06
-6.74315e-09
1.39319e-08
1.47314e-06
-6.14574e-09
1.32894e-08
1.47533e-06
-5.62625e-09
1.28789e-08
1.4772e-06
-5.17797e-09
1.27109e-08
1.4787e-06
-4.79276e-09
1.27376e-08
1.47978e-06
-4.47682e-09
1.30099e-08
1.48036e-06
-4.23324e-09
1.36235e-08
1.48033e-06
-4.05691e-09
1.46533e-08
1.47963e-06
-3.9069e-09
1.60197e-08
-3.83444e-09
1.73492e-08
1.32762e-06
-5.28127e-09
4.93123e-09
1.33539e-06
-1.39985e-08
1.30094e-08
1.34286e-06
-1.79777e-08
1.72169e-08
1.34847e-06
-1.91786e-08
1.89022e-08
1.35196e-06
-1.88756e-08
1.95069e-08
1.35373e-06
-1.7544e-08
1.91246e-08
1.35438e-06
-1.56827e-08
1.8116e-08
1.3545e-06
-1.38816e-08
1.68365e-08
1.35442e-06
-1.22749e-08
1.55041e-08
1.35428e-06
-1.08669e-08
1.43e-08
1.35413e-06
-9.69376e-09
1.33621e-08
1.35398e-06
-8.71657e-09
1.26646e-08
1.35382e-06
-7.87079e-09
1.21792e-08
1.3536e-06
-7.09199e-09
1.18986e-08
1.35322e-06
-6.31925e-09
1.18379e-08
1.35258e-06
-5.50043e-09
1.20406e-08
1.35161e-06
-4.55958e-09
1.2589e-08
1.35039e-06
-3.40799e-09
1.35736e-08
1.34903e-06
-1.92091e-09
1.49128e-08
-1.52178e-10
1.61317e-08
1.1589e-06
-7.03375e-09
6.10273e-09
1.16569e-06
-1.98494e-08
1.61835e-08
1.16844e-06
-2.2796e-08
2.07078e-08
1.16661e-06
-2.23009e-08
2.21069e-08
1.1622e-06
-2.06188e-08
2.15092e-08
1.15653e-06
-1.78499e-08
1.97752e-08
1.15045e-06
-1.46914e-08
1.74344e-08
1.14453e-06
-1.2175e-08
1.53457e-08
1.13907e-06
-1.03157e-08
1.36577e-08
1.13418e-06
-8.92501e-09
1.2316e-08
1.12987e-06
-7.85341e-09
1.12672e-08
1.12608e-06
-7.0036e-09
1.0466e-08
1.12277e-06
-6.30509e-09
9.86455e-09
1.11989e-06
-5.66882e-09
9.42127e-09
1.11737e-06
-4.99077e-09
9.12328e-09
1.11512e-06
-4.18105e-09
8.95882e-09
1.11308e-06
-3.0813e-09
8.92186e-09
1.11111e-06
-1.42306e-09
8.9847e-09
1.10908e-06
1.26437e-09
8.96724e-09
5.32901e-09
8.60664e-09
9.23616e-07
-7.40283e-09
7.03396e-09
9.25318e-07
-2.07001e-08
1.98501e-08
9.17183e-07
-1.87288e-08
2.27973e-08
9.04273e-07
-1.58463e-08
2.23034e-08
8.90531e-07
-1.37483e-08
2.0623e-08
8.77404e-07
-1.12879e-08
1.78577e-08
8.65431e-07
-8.70721e-09
1.47042e-08
8.54747e-07
-6.83698e-09
1.21956e-08
8.45299e-07
-5.59837e-09
1.03515e-08
8.36941e-07
-4.75751e-09
8.98661e-09
8.29485e-07
-4.14102e-09
7.95724e-09
8.2275e-07
-3.65858e-09
7.17293e-09
8.1665e-07
-3.29739e-09
6.57373e-09
8.11182e-07
-3.02761e-09
6.09527e-09
8.06369e-07
-2.73608e-09
5.67401e-09
8.02249e-07
-2.30877e-09
5.24765e-09
7.98924e-07
-1.5556e-09
4.69272e-09
7.95871e-07
2.47358e-10
3.75554e-09
7.90666e-07
4.69402e-09
1.7957e-09
1.896e-08
-2.2313e-09
6.3138e-07
3.58763e-09
6.14564e-07
2.26461e-08
5.86445e-07
2.43762e-08
5.61727e-07
1.88552e-08
5.39619e-07
1.55702e-08
5.20641e-07
1.35114e-08
5.04698e-07
1.19538e-08
4.90951e-07
1.08027e-08
4.78741e-07
9.95185e-09
4.67678e-07
9.24536e-09
4.57539e-07
8.62595e-09
4.48192e-07
8.06797e-09
4.39531e-07
7.56442e-09
4.31492e-07
7.11311e-09
4.24119e-07
6.68081e-09
4.17639e-07
6.20206e-09
4.12665e-07
5.44909e-09
4.11219e-07
3.60714e-09
4.175e-07
-3.06865e-11
-1.06634e-08
8.90375e-07
6.33237e-09
2.8526e-09
8.82485e-07
1.71261e-08
1.34085e-08
8.70357e-07
1.86367e-08
1.7867e-08
8.55107e-07
1.71486e-08
1.69546e-08
8.39972e-07
1.53625e-08
1.53391e-08
8.25516e-07
1.37932e-08
1.41682e-08
8.11735e-07
1.23483e-08
1.33763e-08
7.9872e-07
1.11321e-08
1.26689e-08
7.86612e-07
1.01554e-08
1.18757e-08
7.75412e-07
9.37516e-09
1.10222e-08
7.64963e-07
8.79428e-09
1.01995e-08
7.55086e-07
8.38896e-09
9.42469e-09
7.45621e-07
8.12139e-09
8.70328e-09
7.36423e-07
7.9629e-09
8.01852e-09
7.27329e-07
7.92469e-09
7.3202e-09
7.18131e-07
8.03132e-09
6.53284e-09
7.08449e-07
8.36084e-09
5.63875e-09
6.97325e-07
8.9985e-09
4.4926e-09
6.82749e-07
1.01197e-08
2.79541e-09
1.48938e-08
2.96317e-09
1.1589e-06
6.10273e-09
5.28128e-09
1.16569e-06
1.61835e-08
1.39986e-08
1.16844e-06
2.07078e-08
1.79778e-08
1.16661e-06
2.21069e-08
1.91786e-08
1.1622e-06
2.15091e-08
1.88756e-08
1.15653e-06
1.97752e-08
1.7544e-08
1.15045e-06
1.74343e-08
1.56826e-08
1.14453e-06
1.53455e-08
1.38816e-08
1.13907e-06
1.36575e-08
1.22748e-08
1.13419e-06
1.23157e-08
1.08668e-08
1.12987e-06
1.12669e-08
9.69354e-09
1.12608e-06
1.04655e-08
8.71622e-09
1.12277e-06
9.86396e-09
7.87029e-09
1.11989e-06
9.42067e-09
7.09146e-09
1.11737e-06
9.12258e-09
6.31871e-09
1.11512e-06
8.95773e-09
5.49951e-09
1.11309e-06
8.91999e-09
4.5577e-09
1.11112e-06
8.98221e-09
3.40503e-09
1.10909e-06
8.96441e-09
1.91677e-09
8.60236e-09
1.44235e-10
1.37712e-06
4.57745e-09
4.57712e-09
1.38565e-06
1.19174e-08
1.19165e-08
1.39417e-06
1.64475e-08
1.64458e-08
1.40126e-06
1.85615e-08
1.85586e-08
1.40641e-06
1.89316e-08
1.89268e-08
1.40951e-06
1.8224e-08
1.82166e-08
1.41094e-06
1.67191e-08
1.6707e-08
1.41152e-06
1.50479e-08
1.50287e-08
1.41181e-06
1.35074e-08
1.34762e-08
1.41206e-06
1.21753e-08
1.21252e-08
1.41245e-06
1.10447e-08
1.0964e-08
1.4131e-06
1.01006e-08
9.97136e-09
1.41405e-06
9.31741e-09
9.10953e-09
1.41534e-06
8.66284e-09
8.33268e-09
1.41697e-06
8.11051e-09
7.60077e-09
1.41893e-06
7.62971e-09
6.85966e-09
1.42116e-06
7.1838e-09
6.04991e-09
1.42345e-06
6.73018e-09
5.12037e-09
1.42548e-06
6.18742e-09
4.07597e-09
5.51462e-09
3.25754e-09
1.53312e-06
2.36599e-09
3.64912e-09
1.54218e-06
6.23872e-09
9.63331e-09
1.55328e-06
8.87315e-09
1.36908e-08
1.56445e-06
1.03468e-08
1.59351e-08
1.57508e-06
1.08994e-08
1.69094e-08
1.58472e-06
1.07544e-08
1.6942e-08
1.59302e-06
1.0143e-08
1.63721e-08
1.6001e-06
9.33051e-09
1.54396e-08
1.60627e-06
8.45862e-09
1.43352e-08
1.61179e-06
7.63584e-09
1.32373e-08
1.61692e-06
6.9068e-09
1.22393e-08
1.62183e-06
6.27062e-09
1.1367e-08
1.62664e-06
5.70672e-09
1.06158e-08
1.63145e-06
5.1863e-09
9.96843e-09
1.63634e-06
4.68307e-09
9.40052e-09
1.64136e-06
4.16745e-09
8.88236e-09
1.64654e-06
3.60632e-09
8.38887e-09
1.65188e-06
2.96098e-09
7.90876e-09
1.65738e-06
2.19188e-09
7.46957e-09
1.34412e-09
7.27793e-09
1.61424e-06
-1.97917e-13
3.09275e-09
1.62332e-06
-4.95451e-13
8.27378e-09
1.63534e-06
-8.90479e-13
1.19567e-08
1.6482e-06
-1.58306e-12
1.41138e-08
1.66118e-06
-2.79322e-12
1.51992e-08
1.67386e-06
-4.54489e-12
1.55815e-08
1.68574e-06
-7.44304e-12
1.54283e-08
1.69656e-06
-1.18351e-11
1.49567e-08
1.70631e-06
-1.93332e-11
1.42832e-08
1.71515e-06
-3.18698e-11
1.351e-08
1.72325e-06
-5.1695e-11
1.27274e-08
1.73078e-06
-8.18469e-11
1.20037e-08
1.73792e-06
-1.25583e-10
1.1388e-08
1.74481e-06
-1.90874e-10
1.09052e-08
1.7515e-06
-2.89652e-10
1.05634e-08
1.75802e-06
-4.42877e-10
1.03591e-08
1.76445e-06
-6.61593e-10
1.02916e-08
1.77085e-06
-9.5726e-10
1.0359e-08
1.77728e-06
-1.32572e-09
1.0539e-08
-1.68069e-09
1.0813e-08
1.61424e-06
-2.36612e-09
3.09294e-09
1.62332e-06
-6.23905e-09
8.27432e-09
1.63533e-06
-8.87379e-09
1.19578e-08
1.64819e-06
-1.0348e-08
1.41158e-08
1.66117e-06
-1.09011e-08
1.52029e-08
1.67385e-06
-1.07569e-08
1.55874e-08
1.68571e-06
-1.01473e-08
1.54368e-08
1.69652e-06
-9.33771e-09
1.49694e-08
1.70625e-06
-8.47056e-09
1.4303e-08
1.71504e-06
-7.65711e-09
1.35417e-08
1.72309e-06
-6.94376e-09
1.27786e-08
1.73054e-06
-6.3312e-09
1.20869e-08
1.73757e-06
-5.79819e-09
1.15218e-08
1.7443e-06
-5.32147e-09
1.11166e-08
1.75075e-06
-4.89115e-09
1.08899e-08
1.75695e-06
-4.49823e-09
1.08553e-08
1.76301e-06
-4.12828e-09
1.10304e-08
1.76905e-06
-3.75916e-09
1.14153e-08
1.77517e-06
-3.35242e-09
1.19268e-08
-2.93829e-09
1.2357e-08
1.53312e-06
-4.57711e-09
3.64955e-09
1.54218e-06
-1.19165e-08
9.63453e-09
1.55327e-06
-1.64458e-08
1.36931e-08
1.56445e-06
-1.85586e-08
1.59393e-08
1.57506e-06
-1.89269e-08
1.69163e-08
1.58469e-06
-1.82167e-08
1.6953e-08
1.59298e-06
-1.67071e-08
1.63887e-08
1.60004e-06
-1.50288e-08
1.54664e-08
1.60617e-06
-1.34764e-08
1.43767e-08
1.61164e-06
-1.21254e-08
1.33023e-08
1.61668e-06
-1.09643e-08
1.23437e-08
1.62145e-06
-9.97171e-09
1.15345e-08
1.62606e-06
-9.10998e-09
1.08861e-08
1.63057e-06
-8.3331e-09
1.03998e-08
1.63504e-06
-7.60134e-09
1.0075e-08
1.63952e-06
-6.86074e-09
9.91803e-09
1.6441e-06
-6.0516e-09
9.94003e-09
1.6489e-06
-5.12273e-09
1.01343e-08
1.65413e-06
-4.07917e-09
1.0408e-08
-3.26225e-09
1.05038e-08
1.37712e-06
-6.10236e-09
4.57745e-09
1.38565e-06
-1.61821e-08
1.19174e-08
1.39417e-06
-2.07049e-08
1.64476e-08
1.40126e-06
-2.21022e-08
1.85615e-08
1.40641e-06
-2.15021e-08
1.89316e-08
1.40951e-06
-1.97652e-08
1.82241e-08
1.41094e-06
-1.74179e-08
1.67193e-08
1.41152e-06
-1.53171e-08
1.50481e-08
1.41181e-06
-1.36093e-08
1.35077e-08
1.41206e-06
-1.22361e-08
1.21757e-08
1.41245e-06
-1.11354e-08
1.10452e-08
1.4131e-06
-1.02513e-08
1.01013e-08
1.41405e-06
-9.5162e-09
9.31827e-09
1.41533e-06
-8.86118e-09
8.6638e-09
1.41697e-06
-8.22187e-09
8.11172e-09
1.41893e-06
-7.49488e-09
7.63137e-09
1.42115e-06
-6.53909e-09
7.18585e-09
1.42345e-06
-5.16796e-09
6.73244e-09
1.42547e-06
-3.32084e-09
6.18954e-09
-1.4425e-09
5.51677e-09
1.1589e-06
-6.33227e-09
5.28143e-09
1.1657e-06
-1.71254e-08
1.39988e-08
1.16845e-06
-1.8635e-08
1.79781e-08
1.16661e-06
-1.71457e-08
1.91792e-08
1.16222e-06
-1.53583e-08
1.88765e-08
1.15655e-06
-1.37874e-08
1.7546e-08
1.15049e-06
-1.23389e-08
1.56851e-08
1.1446e-06
-1.11156e-08
1.38839e-08
1.13919e-06
-1.01286e-08
1.22799e-08
1.1344e-06
-9.33075e-09
1.08766e-08
1.13023e-06
-8.71886e-09
9.7098e-09
1.12666e-06
-8.25801e-09
8.74513e-09
1.12369e-06
-7.89721e-09
7.92608e-09
1.12132e-06
-7.58498e-09
7.18767e-09
1.11958e-06
-7.26248e-09
6.45418e-09
1.11849e-06
-6.79536e-09
5.63919e-09
1.11802e-06
-5.99393e-09
4.61438e-09
1.11778e-06
-4.37509e-09
3.20912e-09
1.11661e-06
-1.5995e-09
1.2378e-09
4.1706e-09
-1.71406e-09
8.90375e-07
2.85263e-09
8.82487e-07
1.34085e-08
8.70361e-07
1.7867e-08
8.55116e-07
1.69546e-08
8.39989e-07
1.53384e-08
8.25547e-07
1.4166e-08
8.1179e-07
1.3372e-08
7.98815e-07
1.26624e-08
7.86774e-07
1.18645e-08
7.75684e-07
1.10037e-08
7.65422e-07
1.01696e-08
7.55857e-07
9.37473e-09
7.46909e-07
8.61575e-09
7.38575e-07
7.86118e-09
7.30959e-07
7.03506e-09
7.24404e-07
5.96102e-09
7.19423e-07
4.43664e-09
7.16593e-07
2.06135e-09
7.16895e-07
-1.93202e-09
-9.75165e-09
1.07432e-06
5.56885e-09
1.06503e-09
1.06824e-06
1.39002e-08
5.58731e-09
1.06138e-06
1.62621e-08
8.46541e-09
1.05338e-06
1.591e-08
9.04211e-09
1.04509e-06
1.50045e-08
8.62178e-09
1.03719e-06
1.39374e-08
8.12738e-09
1.02979e-06
1.29838e-08
7.79834e-09
1.02276e-06
1.21263e-08
7.57395e-09
1.01587e-06
1.13656e-08
7.40215e-09
1.00902e-06
1.07282e-08
7.13806e-09
1.00223e-06
1.02612e-08
6.73068e-09
9.95421e-07
9.94726e-09
6.28477e-09
9.88471e-07
9.77386e-09
5.87928e-09
9.81182e-07
9.7563e-09
5.551e-09
9.73237e-07
9.93136e-09
5.33434e-09
9.64137e-07
1.03832e-08
5.24962e-09
9.53028e-07
1.1289e-08
5.45869e-09
9.38474e-07
1.29941e-08
6.05249e-09
9.1828e-07
1.5533e-08
7.45605e-09
2.1767e-08
1.17188e-08
1.32762e-06
4.93124e-09
2.71844e-09
1.33539e-06
1.30094e-08
7.12142e-09
1.34286e-06
1.72169e-08
9.55443e-09
1.34847e-06
1.89022e-08
1.05797e-08
1.35196e-06
1.95069e-08
1.08783e-08
1.35373e-06
1.91245e-08
1.05854e-08
1.35438e-06
1.81159e-08
9.89972e-09
1.3545e-06
1.68364e-08
9.05891e-09
1.35442e-06
1.5504e-08
8.21533e-09
1.35428e-06
1.42997e-08
7.4321e-09
1.35413e-06
1.33618e-08
6.74288e-09
1.35399e-06
1.26642e-08
6.14534e-09
1.35383e-06
1.21786e-08
5.62569e-09
1.3536e-06
1.18977e-08
5.17713e-09
1.35322e-06
1.18367e-08
4.7917e-09
1.35259e-06
1.20392e-08
4.47545e-09
1.35162e-06
1.25867e-08
4.23118e-09
1.35039e-06
1.35703e-08
4.0539e-09
1.34903e-06
1.49081e-08
3.90264e-09
1.61251e-08
3.82843e-09
1.53312e-06
3.64955e-09
2.36613e-09
1.54218e-06
9.63453e-09
6.23907e-09
1.55327e-06
1.36931e-08
8.87379e-09
1.56445e-06
1.59392e-08
1.0348e-08
1.57506e-06
1.69162e-08
1.09011e-08
1.58469e-06
1.69529e-08
1.07568e-08
1.59298e-06
1.63886e-08
1.01472e-08
1.60004e-06
1.54662e-08
9.3376e-09
1.60618e-06
1.43764e-08
8.47041e-09
1.61164e-06
1.33019e-08
7.6569e-09
1.61668e-06
1.23432e-08
6.94346e-09
1.62145e-06
1.15338e-08
6.33077e-09
1.62606e-06
1.08853e-08
5.7976e-09
1.63057e-06
1.03987e-08
5.32071e-09
1.63504e-06
1.00737e-08
4.89015e-09
1.63953e-06
9.91634e-09
4.49683e-09
1.6441e-06
9.93782e-09
4.12628e-09
1.6489e-06
1.01315e-08
3.75641e-09
1.65413e-06
1.04048e-08
3.34874e-09
1.05001e-08
2.9335e-09
1.68027e-06
1.89115e-09
1.89098e-09
1.68934e-06
5.09962e-09
5.09913e-09
1.7018e-06
7.46475e-09
7.46383e-09
1.71578e-06
8.9469e-09
8.94538e-09
1.73022e-06
9.69436e-09
9.69187e-09
1.74439e-06
9.86324e-09
9.8592e-09
1.75784e-06
9.65604e-09
9.64979e-09
1.77035e-06
9.20509e-09
9.19559e-09
1.78183e-06
8.62258e-09
8.60845e-09
1.79238e-06
8.00283e-09
7.98153e-09
1.80218e-06
7.41186e-09
7.37877e-09
1.81136e-06
6.88362e-09
6.83079e-09
1.82009e-06
6.43102e-09
6.34521e-09
1.82848e-06
6.05463e-09
5.91672e-09
1.83668e-06
5.74608e-09
5.53391e-09
1.84479e-06
5.49596e-09
5.18789e-09
1.85295e-06
5.2958e-09
4.87112e-09
1.86129e-06
5.12715e-09
4.57504e-09
1.86992e-06
4.94719e-09
4.29685e-09
4.68794e-09
4.11915e-09
1.7569e-06
-3.30394e-14
1.61316e-09
1.76589e-06
-4.61968e-14
4.38392e-09
1.77878e-06
-6.59549e-14
6.53143e-09
1.79389e-06
-9.55497e-14
7.9505e-09
1.81003e-06
-1.18474e-13
8.75488e-09
1.82639e-06
-1.20402e-13
9.0846e-09
1.8424e-06
-1.65941e-13
9.07084e-09
1.85773e-06
-5.50146e-13
8.83453e-09
1.87218e-06
-1.387e-12
8.46063e-09
1.88568e-06
-2.66986e-12
8.01523e-09
1.89827e-06
-4.19623e-12
7.54963e-09
1.91006e-06
-5.50129e-12
7.10111e-09
1.92119e-06
-5.80413e-12
6.6946e-09
1.93181e-06
-5.1207e-12
6.34585e-09
1.94206e-06
-6.67791e-12
6.0661e-09
1.95207e-06
-1.67609e-11
5.85974e-09
1.96198e-06
-3.90672e-11
5.72367e-09
1.97189e-06
-7.77797e-11
5.64852e-09
1.9819e-06
-1.37044e-10
5.61522e-09
-2.15637e-10
5.61915e-09
1.7569e-06
-1.89097e-09
1.6133e-09
1.76589e-06
-5.09911e-09
4.38432e-09
1.77878e-06
-7.46382e-09
6.5322e-09
1.79389e-06
-8.94539e-09
7.95184e-09
1.81003e-06
-9.69189e-09
8.75705e-09
1.82638e-06
-9.85925e-09
9.08795e-09
1.8424e-06
-9.64985e-09
9.07576e-09
1.85772e-06
-9.19568e-09
8.8418e-09
1.87216e-06
-8.60857e-09
8.47157e-09
1.88565e-06
-7.9817e-09
8.03192e-09
1.89822e-06
-7.37901e-09
7.57536e-09
1.90999e-06
-6.83113e-09
7.14106e-09
1.9211e-06
-6.34566e-09
6.75678e-09
1.93169e-06
-5.91733e-09
6.44234e-09
1.94189e-06
-5.53474e-09
6.21422e-09
1.95184e-06
-5.18905e-09
6.07886e-09
1.96167e-06
-4.87271e-09
6.03409e-09
1.97152e-06
-4.57719e-09
6.06336e-09
1.98148e-06
-4.2997e-09
6.12425e-09
-4.12259e-09
6.12631e-09
1.68027e-06
-3.64911e-09
1.89115e-09
1.68934e-06
-9.6333e-09
5.09963e-09
1.7018e-06
-1.36908e-08
7.46479e-09
1.71578e-06
-1.59351e-08
8.94697e-09
1.73022e-06
-1.69094e-08
9.69447e-09
1.74439e-06
-1.69421e-08
9.8634e-09
1.75784e-06
-1.63721e-08
9.65626e-09
1.77035e-06
-1.54396e-08
9.20538e-09
1.78183e-06
-1.43353e-08
8.62298e-09
1.79238e-06
-1.32375e-08
8.00335e-09
1.80218e-06
-1.22395e-08
7.41253e-09
1.81136e-06
-1.13672e-08
6.88449e-09
1.82009e-06
-1.06161e-08
6.43214e-09
1.82848e-06
-9.96884e-09
6.05602e-09
1.83667e-06
-9.40115e-09
5.74782e-09
1.84479e-06
-8.88336e-09
5.49814e-09
1.85295e-06
-8.3903e-09
5.29843e-09
1.86129e-06
-7.91086e-09
5.13017e-09
1.86992e-06
-7.47306e-09
4.95047e-09
-7.28402e-09
4.69123e-09
1.53312e-06
-4.93093e-09
2.36599e-09
1.54218e-06
-1.30085e-08
6.23873e-09
1.55328e-06
-1.72149e-08
8.87319e-09
1.56445e-06
-1.88977e-08
1.03469e-08
1.57508e-06
-1.94989e-08
1.08995e-08
1.58472e-06
-1.91122e-08
1.07545e-08
1.59302e-06
-1.80968e-08
1.01432e-08
1.6001e-06
-1.68059e-08
9.33082e-09
1.60627e-06
-1.54567e-08
8.45903e-09
1.61179e-06
-1.42225e-08
7.63639e-09
1.61692e-06
-1.32293e-08
6.90752e-09
1.62183e-06
-1.24424e-08
6.27156e-09
1.62664e-06
-1.18149e-08
5.70793e-09
1.63145e-06
-1.13036e-08
5.18782e-09
1.63633e-06
-1.08625e-08
4.68505e-09
1.64135e-06
-1.04416e-08
4.16998e-09
1.64653e-06
-9.99181e-09
3.60935e-09
1.65187e-06
-9.48508e-09
2.96451e-09
1.65737e-06
-8.97097e-09
2.19589e-09
-8.89035e-09
1.34872e-09
1.32763e-06
-5.56884e-09
2.71812e-09
1.3354e-06
-1.39001e-08
7.12054e-09
1.34287e-06
-1.62613e-08
9.55283e-09
1.34848e-06
-1.59076e-08
1.05767e-08
1.35198e-06
-1.49998e-08
1.08727e-08
1.35377e-06
-1.39301e-08
1.05759e-08
1.35445e-06
-1.29729e-08
9.88383e-09
1.3546e-06
-1.21086e-08
9.03237e-09
1.35459e-06
-1.13357e-08
8.17042e-09
1.35457e-06
-1.06767e-08
7.35249e-09
1.35462e-06
-1.01723e-08
6.60641e-09
1.35479e-06
-9.79128e-09
5.92061e-09
1.35512e-06
-9.50296e-09
5.28018e-09
1.35565e-06
-9.28228e-09
4.63663e-09
1.35642e-06
-9.09047e-09
3.91626e-09
1.35742e-06
-8.86344e-09
3.05863e-09
1.35861e-06
-8.52969e-09
1.96486e-09
1.35983e-06
-8.02776e-09
5.29921e-10
1.36084e-06
-7.40083e-09
-1.34616e-09
-7.10105e-09
-3.51311e-09
1.07432e-06
1.0647e-09
1.06824e-06
5.58616e-09
1.06138e-06
8.46322e-09
1.05339e-06
9.03839e-09
1.04511e-06
8.61491e-09
1.03723e-06
8.11474e-09
1.02986e-06
7.77581e-09
1.02288e-06
7.53529e-09
1.01607e-06
7.33559e-09
1.00937e-06
7.02767e-09
1.00282e-06
6.54995e-09
9.96409e-07
5.98961e-09
9.9013e-07
5.39195e-09
9.8397e-07
4.73881e-09
9.77932e-07
3.98193e-09
9.72065e-07
2.96466e-09
9.66449e-07
1.52363e-09
9.61051e-07
-5.68968e-10
9.55243e-07
-3.52474e-09
-8.14969e-09
1.16914e-06
4.90655e-09
1.54055e-13
1.16312e-06
1.16085e-08
7.4069e-13
1.15731e-06
1.42755e-08
1.69767e-12
1.15202e-06
1.4334e-08
2.98539e-12
1.1469e-06
1.37319e-08
5.06916e-12
1.14205e-06
1.29727e-08
8.76562e-12
1.13772e-06
1.21063e-08
1.53217e-11
1.13395e-06
1.13177e-08
2.61065e-11
1.13064e-06
1.06673e-08
4.42406e-11
1.12749e-06
1.02204e-08
7.42267e-11
1.12415e-06
9.94636e-09
1.23778e-10
1.12045e-06
9.77647e-09
2.05416e-10
1.11626e-06
9.72881e-09
3.40551e-10
1.1114e-06
9.84726e-09
5.63384e-10
1.10564e-06
1.01632e-08
9.31519e-10
1.09863e-06
1.07309e-08
1.5324e-09
1.08986e-06
1.16734e-08
2.55365e-09
1.07866e-06
1.3145e-08
4.1027e-09
1.06423e-06
1.51625e-08
6.72432e-09
1.76135e-08
1.16876e-08
1.41518e-06
4.19294e-09
2.87981e-13
1.42279e-06
1.11161e-08
8.30969e-13
1.43152e-06
1.5099e-08
1.42151e-12
1.4398e-06
1.66306e-08
2.57148e-12
1.44713e-06
1.72785e-08
4.71371e-12
1.45316e-06
1.75156e-08
8.18782e-12
1.45799e-06
1.71628e-08
1.34773e-11
1.46189e-06
1.64529e-08
2.20804e-11
1.46516e-06
1.55759e-08
3.70703e-11
1.46804e-06
1.47129e-08
6.34393e-11
1.47069e-06
1.39316e-08
1.0694e-10
1.47314e-06
1.3289e-08
1.77642e-10
1.47533e-06
1.28783e-08
2.85573e-10
1.4772e-06
1.271e-08
4.50969e-10
1.4787e-06
1.27365e-08
7.13443e-10
1.47979e-06
1.30083e-08
1.1134e-09
1.48036e-06
1.36212e-08
1.71141e-09
1.48034e-06
1.46499e-08
2.5706e-09
1.47963e-06
1.60146e-08
3.76013e-09
1.73425e-08
5.14885e-09
1.61424e-06
3.09295e-09
2.12464e-13
1.62332e-06
8.27432e-09
5.16194e-13
1.63533e-06
1.19578e-08
8.96825e-13
1.64819e-06