/*--------------------------------*- C++ -*----------------------------------*\
| =========                 |                                                 |
| \\      /  F ield         | OpenFOAM: The Open Source CFD Toolbox           |
|  \\    /   O peration     | Version:  2212                                  |
|   \\  /    A nd           | Website:  www.openfoam.com                      |
|    \\/     M anipulation  |                                                 |
\*---------------------------------------------------------------------------*/
FoamFile
{
    version     2.0;
    format      ascii;
    arch        "LSB;label=32;scalar=64";
    class       volVectorField;
    location    "2.7";
    object      U;
}
// * * * * * * * * * * * * * * * * * * * * * * * * * * * * * * * * * * * * * //

dimensions      [0 1 -1 0 0 0 0];

internalField   nonuniform List<vector> 
6840
(
(0.0956456 -0.00836005 -0.00836005)
(0.0904939 0.00152207 0.00152197)
(0.0790683 0.00242982 0.00242963)
(0.0713013 0.00148791 0.00148753)
(0.0661797 0.000830794 0.000830087)
(0.062323 0.000564126 0.000562978)
(0.0592215 0.000427357 0.000424868)
(0.0566859 0.000325723 0.000321464)
(0.0545515 0.000255975 0.000249)
(0.0527002 0.000207462 0.00019603)
(0.051064 0.000174596 0.000155304)
(0.0496061 0.000153793 0.000121938)
(0.0482948 0.000141177 9.10333e-05)
(0.0471027 0.00013616 5.84512e-05)
(0.0460229 0.000140615 1.90539e-05)
(0.045065 0.000158403 -1.33464e-05)
(0.0442594 0.000198644 -9.84889e-05)
(0.0437215 0.000255359 -0.000267425)
(0.0439485 0.000274346 -0.000540974)
(0.0430148 -0.00154637 -0.00314994)
(0.0999088 0.00129701 0.000712546)
(0.0969669 0.00365596 0.00274719)
(0.0935346 0.00264033 0.00211801)
(0.0895894 0.00182063 0.00162034)
(0.0858324 0.00152919 0.00139023)
(0.0825906 0.0013519 0.00116058)
(0.0798661 0.00118059 0.000896125)
(0.0775685 0.00104267 0.000690679)
(0.0755603 0.000946491 0.000558103)
(0.0737554 0.000872072 0.000475844)
(0.0721089 0.000803821 0.000425035)
(0.0705938 0.000737338 0.000392096)
(0.0691918 0.00068016 0.000372024)
(0.0678903 0.000638029 0.000363596)
(0.0666882 0.000606439 0.000353134)
(0.0656039 0.000583679 0.000316445)
(0.0647011 0.000544965 0.000241586)
(0.0641499 0.000445959 1.24319e-05)
(0.0644515 0.000337117 -0.000340227)
(0.0623476 -9.57577e-05 -0.000710269)
(0.099413 0.000345241 0.000270224)
(0.0988664 0.00201908 0.00187483)
(0.0979217 0.0025732 0.00218882)
(0.0963664 0.00237999 0.00190808)
(0.0946344 0.00211431 0.00162623)
(0.092974 0.00192711 0.00141804)
(0.0913672 0.00180194 0.00127026)
(0.0898593 0.00170619 0.00115848)
(0.0884638 0.0016061 0.00106745)
(0.0871732 0.00149642 0.000994365)
(0.0859822 0.0013871 0.000944427)
(0.0848786 0.00128455 0.000913406)
(0.0838478 0.00118758 0.0008957)
(0.0828837 0.00109073 0.000885163)
(0.0819904 0.000987063 0.000874485)
(0.0811903 0.000863121 0.000848168)
(0.0805312 0.000696264 0.000792674)
(0.0800778 0.000419569 0.000636975)
(0.0799287 -0.000152469 0.000357088)
(0.0792646 -0.00163883 -0.000281644)
(0.0995405 0.000245025 0.000321896)
(0.0992577 0.00105553 0.00154091)
(0.0988491 0.00150215 0.00211438)
(0.0981253 0.00157908 0.00209152)
(0.0973378 0.00151412 0.00188602)
(0.0965867 0.00144505 0.00166577)
(0.0958684 0.00140766 0.00149799)
(0.0952026 0.00137478 0.0013716)
(0.0945771 0.00132613 0.00128488)
(0.0939371 0.00125032 0.00122926)
(0.0933169 0.00115317 0.00119157)
(0.0927164 0.00104523 0.00116763)
(0.0921294 0.000932788 0.00115525)
(0.0915532 0.000814695 0.00115142)
(0.0909875 0.000683178 0.00115092)
(0.0904333 0.000510876 0.00114682)
(0.0898965 0.000273589 0.00113251)
(0.0893849 -7.51882e-05 0.00110611)
(0.0888773 -0.000590458 0.00108066)
(0.0882355 -0.00136622 0.00111941)
(0.0993801 3.37511e-05 5.89314e-05)
(0.0992677 0.000274255 0.0012)
(0.0989805 0.000432076 0.00188844)
(0.0984749 0.000482923 0.00200639)
(0.097996 0.000477877 0.00191453)
(0.0975716 0.000463768 0.0017345)
(0.0971822 0.000449687 0.00154697)
(0.096833 0.000436857 0.00138812)
(0.0965336 0.000426824 0.00126938)
(0.09628 0.000412518 0.00119853)
(0.0960071 0.000384757 0.00117101)
(0.0957155 0.0003436 0.00116882)
(0.0954035 0.000290299 0.00117823)
(0.0950586 0.00022332 0.00119713)
(0.0946728 0.000139327 0.00123029)
(0.0942377 2.17913e-05 0.00128215)
(0.0937437 -0.000153964 0.00135855)
(0.0931659 -0.00042194 0.00146194)
(0.0924584 -0.000821358 0.00159321)
(0.0916402 -0.00155035 0.00176007)
(0.0993802 -3.37881e-05 5.89905e-05)
(0.0992677 -0.000274448 0.00120004)
(0.0989804 -0.000432492 0.00188846)
(0.0984746 -0.000483662 0.00200646)
(0.0979954 -0.000479165 0.00191472)
(0.0975705 -0.00046605 0.00173489)
(0.0971802 -0.000453742 0.00154756)
(0.0968294 -0.000443821 0.00138912)
(0.0965274 -0.000438636 0.00127124)
(0.0962695 -0.000432327 0.00120186)
(0.0959892 -0.000417732 0.00117668)
(0.0956851 -0.000398109 0.00117831)
(0.0953515 -0.000380343 0.00119447)
(0.0949691 -0.000372249 0.00122652)
(0.0945219 -0.000385599 0.00128507)
(0.0939851 -0.000426704 0.00137658)
(0.0933243 -0.000524602 0.00151524)
(0.0924893 -0.000671441 0.00172454)
(0.0914028 -0.00098571 0.00200924)
(0.0902507 -0.00165047 0.00235909)
(0.0995405 -0.000245038 0.000321896)
(0.0992576 -0.00105559 0.00154092)
(0.0988488 -0.00150229 0.0021145)
(0.0981246 -0.00157933 0.00209174)
(0.0973364 -0.00151471 0.00188636)
(0.096584 -0.00144625 0.00166629)
(0.0958636 -0.00140978 0.00149864)
(0.0951945 -0.00137828 0.00137269)
(0.0945629 -0.00133217 0.00128732)
(0.0939128 -0.00125998 0.00123452)
(0.0932757 -0.00116836 0.00120145)
(0.0926467 -0.0010693 0.00118592)
(0.092012 -0.000972606 0.00118622)
(0.0913556 -0.00088151 0.00120424)
(0.0906556 -0.000793108 0.00124611)
(0.0898759 -0.000701425 0.00132418)
(0.0889591 -0.000610298 0.00146103)
(0.0877863 -0.000530838 0.00171039)
(0.0862263 -0.000436493 0.00204446)
(0.084346 -0.000636416 0.00283749)
(0.099413 -0.000345218 0.000270232)
(0.0988664 -0.00201898 0.00187491)
(0.0979214 -0.00257299 0.00218906)
(0.0963657 -0.00237964 0.00190849)
(0.0946331 -0.00211377 0.00162681)
(0.0929715 -0.00192624 0.00141888)
(0.0913627 -0.00180065 0.00127165)
(0.0898513 -0.00170408 0.00116081)
(0.08845 -0.00160256 0.00107123)
(0.0871502 -0.00149054 0.00100063)
(0.0859433 -0.00137735 0.000954407)
(0.0848128 -0.0012688 0.00093074)
(0.0837374 -0.00116298 0.000925769)
(0.0826996 -0.00105367 0.000936925)
(0.0816825 -0.000932808 0.000965681)
(0.0806661 -0.000788775 0.00101798)
(0.0796183 -0.000609299 0.00110913)
(0.078463 -0.000319592 0.00126013)
(0.0771001 0.000193843 0.00151459)
(0.0756035 0.000808837 0.00270982)
(0.0999088 -0.00129699 0.000712564)
(0.0969668 -0.0036558 0.00274729)
(0.0935345 -0.00264007 0.00211821)
(0.0895892 -0.00182018 0.00162073)
(0.0858319 -0.00152827 0.00139078)
(0.0825897 -0.00135048 0.0011616)
(0.0798644 -0.00117798 0.000897834)
(0.0775653 -0.00103817 0.000693419)
(0.0755545 -0.000938757 0.000562655)
(0.0737454 -0.000858811 0.000483488)
(0.072091 -0.000781145 0.000439704)
(0.0705613 -0.000699771 0.000417383)
(0.0691347 -0.000619431 0.00040718)
(0.0677955 -0.000537598 0.00040435)
(0.0665313 -0.000435198 0.000412853)
(0.065337 -0.000284618 0.000432983)
(0.0642199 -7.66337e-05 0.000469571)
(0.0632135 0.000277275 0.000480357)
(0.062518 0.00101132 0.000408369)
(0.0612995 0.00342957 -0.000662922)
(0.0956456 0.00836005 -0.00836005)
(0.0904939 -0.00152197 0.00152207)
(0.0790683 -0.00242963 0.00242982)
(0.0713013 -0.00148753 0.00148792)
(0.0661797 -0.000830083 0.000830801)
(0.062323 -0.000562973 0.000564134)
(0.0592215 -0.000424864 0.000427365)
(0.0566859 -0.00032146 0.00032573)
(0.0545515 -0.000248997 0.000255981)
(0.0527002 -0.000196027 0.000207464)
(0.0510639 -0.000155305 0.000174596)
(0.049606 -0.000121936 0.000153785)
(0.0482946 -9.10432e-05 0.000141182)
(0.0471026 -5.84413e-05 0.000136146)
(0.0460227 -1.90041e-05 0.000140594)
(0.0450646 1.33651e-05 0.000158434)
(0.0442589 9.85051e-05 0.000198707)
(0.0437208 0.000267443 0.000255448)
(0.0439476 0.00054105 0.000274534)
(0.0430131 0.00314977 -0.00154595)
(0.0999088 0.000712564 0.00129699)
(0.0969668 0.00274729 0.0036558)
(0.0935345 0.00211821 0.00264008)
(0.0895892 0.00162073 0.00182019)
(0.0858319 0.00139078 0.00152828)
(0.0825896 0.0011616 0.00135049)
(0.0798644 0.000897828 0.00117799)
(0.0775653 0.000693414 0.00103818)
(0.0755546 0.00056265 0.000938768)
(0.0737454 0.000483483 0.00085882)
(0.072091 0.000439705 0.000781152)
(0.0705613 0.000417383 0.00069977)
(0.0691349 0.000407173 0.000619415)
(0.0677956 0.000404343 0.000537549)
(0.0665317 0.000412818 0.000435177)
(0.0653375 0.000432943 0.000284609)
(0.0642204 0.000469524 7.66322e-05)
(0.0632143 0.000480258 -0.000277326)
(0.0625192 0.000408159 -0.00101145)
(0.0613018 -0.000663272 -0.00342971)
(0.100226 0.00072083 0.000720794)
(0.09996 0.00198278 0.00198263)
(0.0997823 0.00245202 0.00245166)
(0.0987882 0.00241993 0.0024193)
(0.0972757 0.00220132 0.00220032)
(0.0957749 0.00181239 0.00181063)
(0.0943931 0.00138387 0.00138099)
(0.0931643 0.00107257 0.00106772)
(0.0920776 0.000858128 0.000849814)
(0.0911161 0.000708818 0.000694506)
(0.0902648 0.000602122 0.000576503)
(0.0895 0.000525373 0.000483446)
(0.0888036 0.000473934 0.000410244)
(0.088177 0.000441152 0.000345591)
(0.0876203 0.000422895 0.000267593)
(0.0871355 0.00042112 0.0001616)
(0.0867277 0.000430857 5.31052e-07)
(0.0863862 0.000428097 -0.000277038)
(0.0859605 0.000269045 -0.000825684)
(0.085768 -0.000402141 -0.00184664)
(0.10014 0.000775029 0.000869222)
(0.100454 0.00196243 0.00196346)
(0.100911 0.00242758 0.00233426)
(0.100978 0.00252671 0.00244088)
(0.100694 0.0024265 0.00233623)
(0.100225 0.0021979 0.0021118)
(0.0997103 0.00191729 0.00182223)
(0.0991861 0.00166663 0.00157378)
(0.0986931 0.00146419 0.00138696)
(0.0982489 0.00129853 0.00124549)
(0.097861 0.00116217 0.00113946)
(0.0975272 0.00105045 0.00106076)
(0.0972449 0.000958019 0.000998463)
(0.0970137 0.000879369 0.000943227)
(0.0968355 0.000807462 0.000888132)
(0.0967129 0.000731372 0.000817625)
(0.0966455 0.000635908 0.000706741)
(0.0966232 0.00049851 0.000519505)
(0.0965782 0.000283577 0.000244833)
(0.0966794 -0.000124552 -9.32176e-05)
(0.100093 0.000445916 0.000763189)
(0.100504 0.00119445 0.00174899)
(0.101105 0.00158672 0.00212947)
(0.101635 0.00174025 0.00223447)
(0.10198 0.00178198 0.00228673)
(0.102173 0.00172857 0.00223553)
(0.102254 0.00160732 0.00211541)
(0.10228 0.001459 0.00196399)
(0.102283 0.00130299 0.0018015)
(0.102279 0.00115285 0.00165195)
(0.102277 0.001022 0.0015426)
(0.102284 0.000908295 0.00146498)
(0.102303 0.00080525 0.00140926)
(0.102335 0.000704562 0.00136931)
(0.102383 0.000595992 0.0013395)
(0.10245 0.000470884 0.00131348)
(0.102533 0.0003152 0.00128379)
(0.102627 0.000112067 0.00124558)
(0.102714 -0.000153454 0.00120892)
(0.1029 -0.000466522 0.0012445)
(0.100087 0.000144354 0.000707005)
(0.100477 0.000390392 0.00161776)
(0.101066 0.00054093 0.00203462)
(0.101694 0.000609832 0.00211758)
(0.102269 0.000635414 0.0021501)
(0.102742 0.000625749 0.00217974)
(0.103125 0.000593036 0.00213412)
(0.103429 0.000546384 0.00204455)
(0.103682 0.000498961 0.00193594)
(0.1039 0.000452605 0.00183141)
(0.104098 0.00040312 0.0017352)
(0.104287 0.000350148 0.00165224)
(0.104467 0.000295463 0.00159881)
(0.104634 0.000234595 0.00157733)
(0.104786 0.000159592 0.00157748)
(0.104927 6.53692e-05 0.00159643)
(0.10505 -5.93418e-05 0.00164127)
(0.105151 -0.000227406 0.00171908)
(0.105226 -0.00044934 0.00183082)
(0.105433 -0.00069797 0.0019833)
(0.100087 -0.000144418 0.000707013)
(0.100477 -0.000390587 0.00161777)
(0.101066 -0.000541275 0.00203462)
(0.101694 -0.000610443 0.00211766)
(0.102268 -0.000636547 0.00215043)
(0.102741 -0.000627744 0.00218037)
(0.103123 -0.00059632 0.00213512)
(0.103426 -0.000551794 0.00204611)
(0.103677 -0.000508155 0.00193832)
(0.103892 -0.00046841 0.00183531)
(0.104085 -0.000429755 0.00174152)
(0.104267 -0.000394098 0.00166332)
(0.104433 -0.00036549 0.0016187)
(0.104575 -0.000345081 0.00161093)
(0.104694 -0.000335125 0.00163027)
(0.104789 -0.000339858 0.00168495)
(0.104849 -0.000363423 0.00179113)
(0.104868 -0.000408848 0.00196278)
(0.104857 -0.000480821 0.0021912)
(0.105079 -0.000578082 0.00241684)
(0.100093 -0.00044592 0.000763205)
(0.100504 -0.00119446 0.00174903)
(0.101105 -0.00158676 0.00212964)
(0.101634 -0.00174039 0.00223502)
(0.101979 -0.00178223 0.00228781)
(0.10217 -0.00172896 0.0022371)
(0.102251 -0.00160807 0.00211779)
(0.102273 -0.00146032 0.00196763)
(0.102273 -0.00130504 0.001807)
(0.102262 -0.0011567 0.00166081)
(0.102249 -0.00102854 0.00155806)
(0.102238 -0.000918897 0.00149134)
(0.102226 -0.000819757 0.00145385)
(0.102212 -0.000726531 0.00144463)
(0.102191 -0.000633398 0.00146716)
(0.102155 -0.000537399 0.00153004)
(0.102096 -0.00043228 0.00165193)
(0.102008 -0.000309516 0.0018589)
(0.101917 -0.000161754 0.00215645)
(0.102112 -2.2903e-05 0.00246821)
(0.10014 -0.000774988 0.00086927)
(0.100454 -0.00196232 0.00196366)
(0.100911 -0.00242736 0.00233474)
(0.100978 -0.00252627 0.00244168)
(0.100694 -0.00242574 0.0023374)
(0.100224 -0.00219658 0.00211338)
(0.0997076 -0.00191522 0.00182472)
(0.0991815 -0.0016635 0.00157816)
(0.0986852 -0.00145878 0.00139443)
(0.0982352 -0.00128913 0.00125794)
(0.0978377 -0.00114704 0.00116037)
(0.0974882 -0.00102529 0.00109534)
(0.0971824 -0.000915515 0.00105522)
(0.0969162 -0.000807342 0.00103515)
(0.0966836 -0.000692581 0.00103819)
(0.0964788 -0.000559337 0.0010679)
(0.0962947 -0.000388887 0.00113182)
(0.0961188 -0.000158932 0.00124127)
(0.0959433 0.000158123 0.00138821)
(0.0961367 0.00053589 0.0015005)
(0.100226 -0.000720795 0.000720831)
(0.09996 -0.00198263 0.00198278)
(0.0997823 -0.00245166 0.00245203)
(0.0987882 -0.0024193 0.00241994)
(0.0972757 -0.00220032 0.00220133)
(0.0957749 -0.00181063 0.0018124)
(0.0943931 -0.00138099 0.00138389)
(0.0931643 -0.00106772 0.00107259)
(0.0920776 -0.000849818 0.000858148)
(0.0911161 -0.000694512 0.000708841)
(0.0902647 -0.000576513 0.00060215)
(0.0894999 -0.00048347 0.000525419)
(0.0888034 -0.000410321 0.000474039)
(0.0881768 -0.000345609 0.000441166)
(0.0876201 -0.000267443 0.000422852)
(0.0871352 -0.000161564 0.000421198)
(0.0867272 -5.31332e-07 0.000430966)
(0.0863856 0.000277032 0.000428228)
(0.0859595 0.000825688 0.000269236)
(0.0857663 0.00184606 -0.000401538)
(0.0999088 -0.000712545 0.00129701)
(0.0969669 -0.00274719 0.00365597)
(0.0935346 -0.00211801 0.00264034)
(0.0895894 -0.00162034 0.00182064)
(0.0858324 -0.00139023 0.0015292)
(0.0825906 -0.00116058 0.00135191)
(0.0798661 -0.000896126 0.00118061)
(0.0775685 -0.000690681 0.00104269)
(0.0755603 -0.000558104 0.000946512)
(0.0737553 -0.000475845 0.000872096)
(0.0721089 -0.000425032 0.000803847)
(0.0705937 -0.000392096 0.000737371)
(0.0691916 -0.00037201 0.000680201)
(0.0678902 -0.000363637 0.000638119)
(0.0666879 -0.000353165 0.000606564)
(0.0656035 -0.000316458 0.00058387)
(0.0647006 -0.000241578 0.000545225)
(0.0641492 -1.23884e-05 0.000446245)
(0.0644506 0.000340232 0.000337613)
(0.0623459 0.000710068 -9.51307e-05)
(0.099413 0.000270232 0.00034522)
(0.0988664 0.00187491 0.00201898)
(0.0979214 0.00218906 0.002573)
(0.0963657 0.00190849 0.00237965)
(0.0946331 0.00162681 0.00211378)
(0.0929715 0.00141887 0.00192625)
(0.0913627 0.00127165 0.00180066)
(0.0898513 0.00116081 0.00170409)
(0.08845 0.00107123 0.00160257)
(0.0871502 0.00100063 0.00149055)
(0.0859433 0.00095441 0.00137736)
(0.0848128 0.000930741 0.00126881)
(0.0837375 0.000925782 0.001163)
(0.0826997 0.000936913 0.00105365)
(0.0816827 0.000965608 0.000932709)
(0.0806664 0.00101788 0.000788652)
(0.0796188 0.00110896 0.000609176)
(0.0784638 0.00125981 0.000319272)
(0.0771014 0.00151398 -0.00019442)
(0.0756059 0.00270919 -0.000809498)
(0.10014 0.00086927 0.000774989)
(0.100454 0.00196366 0.00196232)
(0.100911 0.00233474 0.00242736)
(0.100978 0.00244168 0.00252627)
(0.100694 0.0023374 0.00242574)
(0.100224 0.00211338 0.00219658)
(0.0997077 0.00182471 0.00191522)
(0.0991815 0.00157815 0.00166349)
(0.0986852 0.00139441 0.00145877)
(0.0982353 0.00125792 0.00128911)
(0.0978378 0.00116034 0.00114701)
(0.0974883 0.0010953 0.00102525)
(0.0971825 0.00105517 0.000915466)
(0.0969163 0.0010351 0.000807301)
(0.0966838 0.00103812 0.000692539)
(0.0964791 0.0010678 0.000559259)
(0.0962951 0.0011316 0.000388699)
(0.0961193 0.00124096 0.000158634)
(0.0959439 0.00138784 -0.000158541)
(0.0961374 0.00149982 -0.000536645)
(0.10006 0.000641426 0.000641362)
(0.100502 0.00164514 0.00164494)
(0.101149 0.00221261 0.00221222)
(0.101738 0.00244035 0.00243968)
(0.102205 0.00244258 0.00244149)
(0.102501 0.00231453 0.00231282)
(0.102645 0.00209421 0.00209138)
(0.102715 0.00187173 0.00186722)
(0.102741 0.00167552 0.00166813)
(0.102756 0.00151209 0.00149999)
(0.102776 0.00137836 0.00135868)
(0.102813 0.00127073 0.00123898)
(0.10287 0.00118612 0.00113513)
(0.102951 0.00112148 0.00104013)
(0.103057 0.00107411 0.000945944)
(0.103188 0.00104162 0.000843043)
(0.103341 0.00102151 0.000720478)
(0.103507 0.00100779 0.000567811)
(0.103683 0.000982659 0.000382741)
(0.104022 0.000935782 0.000235417)
(0.100046 0.000395721 0.000540216)
(0.10048 0.00104487 0.00138402)
(0.101154 0.00147538 0.00192282)
(0.101913 0.00170526 0.00219231)
(0.102632 0.00178015 0.00229367)
(0.103302 0.00174498 0.00227765)
(0.103895 0.00163449 0.00218473)
(0.104391 0.00149199 0.0020512)
(0.10482 0.00134577 0.00190305)
(0.105199 0.0012108 0.00176287)
(0.105545 0.00109179 0.0016392)
(0.10587 0.000988979 0.00153343)
(0.106186 0.000899615 0.00144431)
(0.106499 0.000819914 0.00136902)
(0.106815 0.000746965 0.00130349)
(0.107138 0.000677098 0.00124282)
(0.107471 0.000605261 0.00118338)
(0.107814 0.000526129 0.00112401)
(0.108175 0.000432295 0.00106945)
(0.108636 0.000320181 0.00105525)
(0.100039 0.00013131 0.000478756)
(0.100448 0.000350433 0.00123475)
(0.101114 0.000504965 0.00174643)
(0.101909 0.000596999 0.00202674)
(0.102729 0.000638275 0.00215197)
(0.103529 0.000637754 0.00218627)
(0.104298 0.000603691 0.00215309)
(0.105008 0.000557908 0.00207925)
(0.105644 0.000507937 0.00198083)
(0.106218 0.000458404 0.00187415)
(0.106741 0.000411741 0.00177123)
(0.107224 0.000368245 0.00168012)
(0.107677 0.000326956 0.00160688)
(0.108111 0.000285311 0.00155374)
(0.108532 0.000240773 0.0015197)
(0.108942 0.000190488 0.00150355)
(0.109342 0.000131303 0.00150709)
(0.109738 5.89481e-05 0.00153271)
(0.110144 -2.7615e-05 0.00157819)
(0.110639 -0.000114403 0.00164096)
(0.100039 -0.000131353 0.000478778)
(0.100448 -0.000350549 0.00123481)
(0.101114 -0.000505175 0.00174655)
(0.101909 -0.000597353 0.00202697)
(0.102728 -0.000638876 0.00215241)
(0.103529 -0.000638731 0.002187)
(0.104297 -0.000605339 0.00215421)
(0.105006 -0.000560567 0.00208096)
(0.105641 -0.000512309 0.0019835)
(0.106213 -0.000465645 0.00187848)
(0.106733 -0.000423569 0.00177844)
(0.107212 -0.000387068 0.00169227)
(0.107659 -0.000355948 0.00162715)
(0.108085 -0.00032929 0.00158622)
(0.108494 -0.000307253 0.00156973)
(0.108887 -0.000292055 0.00158007)
(0.109265 -0.000283463 0.00162318)
(0.109636 -0.000280132 0.00170369)
(0.110027 -0.000278337 0.00180923)
(0.110541 -0.000272542 0.00190853)
(0.100046 -0.000395699 0.000540274)
(0.10048 -0.00104481 0.00138419)
(0.101154 -0.00147528 0.00192315)
(0.101913 -0.00170513 0.00219292)
(0.102631 -0.0017799 0.0022947)
(0.103301 -0.00174454 0.00227932)
(0.103893 -0.00163373 0.00218735)
(0.104389 -0.00149081 0.00205548)
(0.104815 -0.00134384 0.00190969)
(0.105192 -0.00120795 0.00177333)
(0.105532 -0.00108749 0.00165621)
(0.105851 -0.000982301 0.00156099)
(0.106155 -0.000888418 0.00148935)
(0.106452 -0.000801653 0.00144173)
(0.106745 -0.000720011 0.00141871)
(0.107037 -0.000639019 0.00142326)
(0.107331 -0.000554002 0.00145997)
(0.107635 -0.000460367 0.00153095)
(0.107973 -0.00035873 0.00162241)
(0.108444 -0.000272933 0.00169612)
(0.10006 -0.00064136 0.000641426)
(0.100502 -0.00164494 0.00164515)
(0.101149 -0.00221222 0.00221262)
(0.101738 -0.00243968 0.00244036)
(0.102205 -0.00244149 0.00244259)
(0.102501 -0.00231283 0.00231454)
(0.102645 -0.00209139 0.00209422)
(0.102715 -0.00186722 0.00187176)
(0.102741 -0.00166814 0.00167555)
(0.102755 -0.00150001 0.00151213)
(0.102776 -0.00135871 0.00137841)
(0.102813 -0.00123901 0.0012708)
(0.10287 -0.00113517 0.00118621)
(0.102951 -0.00104015 0.00112158)
(0.103057 -0.000945973 0.00107422)
(0.103188 -0.000843123 0.00104178)
(0.10334 -0.000720614 0.00102172)
(0.103507 -0.000568006 0.00100803)
(0.103682 -0.000383003 0.000982874)
(0.104021 -0.000235841 0.000935982)
(0.10014 -0.000869221 0.000775028)
(0.100454 -0.00196345 0.00196243)
(0.100911 -0.00233426 0.00242758)
(0.100978 -0.00244088 0.00252672)
(0.100694 -0.00233623 0.00242651)
(0.100225 -0.0021118 0.00219791)
(0.0997103 -0.00182223 0.00191731)
(0.099186 -0.00157378 0.00166665)
(0.0986931 -0.00138696 0.00146422)
(0.0982489 -0.00124549 0.00129857)
(0.0978609 -0.00113947 0.00116223)
(0.0975271 -0.00106076 0.00105051)
(0.0972447 -0.000998465 0.000958113)
(0.0970135 -0.000943176 0.00087946)
(0.0968352 -0.000888105 0.000807602)
(0.0967125 -0.000817659 0.000731609)
(0.0966451 -0.000706741 0.000636166)
(0.0966226 -0.000519451 0.000498788)
(0.0965775 -0.000244762 0.000283911)
(0.0966782 9.29871e-05 -0.000124)
(0.099413 -0.000270223 0.000345241)
(0.0988664 -0.00187483 0.00201908)
(0.0979217 -0.00218882 0.0025732)
(0.0963664 -0.00190808 0.00238)
(0.0946344 -0.00162623 0.00211432)
(0.092974 -0.00141804 0.00192712)
(0.0913672 -0.00127026 0.00180195)
(0.0898593 -0.00115848 0.00170621)
(0.0884637 -0.00106745 0.00160613)
(0.0871732 -0.000994361 0.00149645)
(0.0859821 -0.000944419 0.00138713)
(0.0848785 -0.00091339 0.0012846)
(0.0838476 -0.000895666 0.00118763)
(0.0828836 -0.000885143 0.00109084)
(0.0819901 -0.000874515 0.000987285)
(0.0811899 -0.000848203 0.00086343)
(0.0805307 -0.000792675 0.000696632)
(0.0800773 -0.000636933 0.000420118)
(0.0799281 -0.000357046 -0.000151547)
(0.0792633 0.000281767 -0.00163723)
(0.0995405 0.000321897 0.00024504)
(0.0992576 0.00154092 0.0010556)
(0.0988488 0.0021145 0.0015023)
(0.0981246 0.00209174 0.00157935)
(0.0973364 0.00188636 0.00151472)
(0.096584 0.00166629 0.00144626)
(0.0958636 0.00149864 0.0014098)
(0.0951945 0.0013727 0.00137829)
(0.0945629 0.00128731 0.00133218)
(0.0939128 0.00123452 0.00125998)
(0.0932757 0.00120145 0.00116836)
(0.0926468 0.00118591 0.00106928)
(0.0920121 0.00118621 0.000972576)
(0.0913558 0.00120419 0.000881436)
(0.0906557 0.00124601 0.00079298)
(0.0898762 0.00132402 0.000701254)
(0.0889595 0.00146079 0.000610097)
(0.0877868 0.00170999 0.000530578)
(0.0862272 0.00204365 0.000436)
(0.0843468 0.00283646 0.000635841)
(0.100093 0.000763205 0.000445922)
(0.100504 0.00174903 0.00119446)
(0.101105 0.00212963 0.00158676)
(0.101634 0.00223502 0.00174039)
(0.101979 0.00228781 0.00178223)
(0.10217 0.0022371 0.00172896)
(0.102251 0.00211778 0.00160807)
(0.102273 0.00196762 0.00146031)
(0.102273 0.00180699 0.00130503)
(0.102262 0.00166079 0.00115668)
(0.102249 0.00155803 0.00102851)
(0.102238 0.0014913 0.000918849)
(0.102226 0.0014538 0.00081969)
(0.102213 0.00144453 0.000726432)
(0.102191 0.00146702 0.000633286)
(0.102155 0.00152988 0.000537252)
(0.102096 0.00165165 0.000432036)
(0.102009 0.00185843 0.000309133)
(0.101917 0.00215573 0.000161177)
(0.102112 0.0024671 2.20439e-05)
(0.100046 0.000540274 0.000395701)
(0.10048 0.00138419 0.00104481)
(0.101154 0.00192315 0.00147528)
(0.101913 0.00219291 0.00170513)
(0.102631 0.00229469 0.00177989)
(0.103301 0.00227931 0.00174454)
(0.103893 0.00218733 0.00163372)
(0.104389 0.00205546 0.00149079)
(0.104815 0.00190966 0.00134382)
(0.105192 0.00177329 0.00120792)
(0.105532 0.00165615 0.00108746)
(0.105851 0.00156092 0.000982256)
(0.106156 0.00148926 0.000888357)
(0.106453 0.00144162 0.000801577)
(0.106746 0.00141858 0.000719909)
(0.107038 0.00142308 0.000638865)
(0.107332 0.00145972 0.000553765)
(0.107635 0.00153063 0.000460029)
(0.107973 0.00162203 0.000358258)
(0.108444 0.00169569 0.000272281)
(0.100036 0.000323165 0.000323121)
(0.100429 0.000868732 0.000868608)
(0.10108 0.0012625 0.00126227)
(0.101891 0.00150455 0.00150416)
(0.102756 0.00162186 0.00162123)
(0.103616 0.00164322 0.00164224)
(0.104446 0.00160542 0.00160393)
(0.105224 0.00152759 0.00152525)
(0.105938 0.00142882 0.00142517)
(0.106594 0.00132515 0.00131944)
(0.107198 0.00122735 0.0012183)
(0.107762 0.00114075 0.00112643)
(0.108294 0.00106742 0.00104482)
(0.108803 0.00100787 0.000972584)
(0.109296 0.000962003 0.000908002)
(0.10978 0.000929442 0.000848985)
(0.110263 0.000909356 0.000793608)
(0.110753 0.00089883 0.000740687)
(0.111266 0.000889227 0.000692214)
(0.111854 0.000862478 0.000665969)
(0.100031 0.000107077 0.000281371)
(0.100395 0.000293047 0.0007686)
(0.101024 0.000434083 0.00113301)
(0.101844 0.000526237 0.00136911)
(0.102751 0.000576371 0.00150131)
(0.103689 0.000591791 0.00155407)
(0.104618 0.000582421 0.00154907)
(0.105516 0.000557805 0.00150815)
(0.106367 0.000524152 0.00144452)
(0.107164 0.000486994 0.00136843)
(0.107907 0.00045062 0.00128856)
(0.108601 0.000417428 0.00121155)
(0.109252 0.000388371 0.00114207)
(0.109871 0.000363173 0.00108319)
(0.110464 0.000340194 0.00103731)
(0.11104 0.000317934 0.00100533)
(0.111605 0.000295575 0.000986581)
(0.112168 0.000272043 0.000979256)
(0.112745 0.000246404 0.000980291)
(0.113379 0.000219305 0.00098903)
(0.100031 -0.000107078 0.000281392)
(0.100395 -0.000293048 0.000768663)
(0.101024 -0.000434084 0.00113314)
(0.101843 -0.000526238 0.00136934)
(0.102751 -0.000576367 0.00150169)
(0.103688 -0.000591766 0.00155465)
(0.104617 -0.000582372 0.0015499)
(0.105515 -0.000557799 0.00150938)
(0.106366 -0.000524277 0.00144639)
(0.107163 -0.000487328 0.00137135)
(0.107905 -0.000451178 0.00129315)
(0.108598 -0.000418092 0.00121875)
(0.109248 -0.000388792 0.00115327)
(0.109864 -0.000362929 0.00110056)
(0.110456 -0.000339506 0.00106419)
(0.111029 -0.00031852 0.00104577)
(0.11159 -0.000300086 0.00104514)
(0.112148 -0.000284068 0.00105915)
(0.112724 -0.00027004 0.00108027)
(0.113368 -0.000260757 0.00109202)
(0.100036 -0.00032312 0.000323165)
(0.100429 -0.000868606 0.000868734)
(0.10108 -0.00126227 0.00126251)
(0.101891 -0.00150416 0.00150456)
(0.102756 -0.00162124 0.00162188)
(0.103616 -0.00164224 0.00164324)
(0.104446 -0.00160393 0.00160544)
(0.105223 -0.00152526 0.00152762)
(0.105938 -0.00142518 0.00142886)
(0.106594 -0.00131945 0.00132521)
(0.107198 -0.00121833 0.00122742)
(0.107762 -0.00112646 0.00114084)
(0.108294 -0.00104487 0.00106754)
(0.108803 -0.000972647 0.00100801)
(0.109296 -0.000908091 0.00096218)
(0.10978 -0.000849118 0.000929663)
(0.110263 -0.000793799 0.000909621)
(0.110753 -0.000740964 0.000899134)
(0.111266 -0.000692625 0.000889551)
(0.111854 -0.00066654 0.0008628)
(0.100046 -0.000540215 0.000395721)
(0.10048 -0.00138401 0.00104487)
(0.101154 -0.00192282 0.00147538)
(0.101913 -0.00219231 0.00170527)
(0.102632 -0.00229367 0.00178016)
(0.103302 -0.00227765 0.001745)
(0.103895 -0.00218474 0.00163451)
(0.104391 -0.00205121 0.00149203)
(0.10482 -0.00190306 0.00134581)
(0.105199 -0.00176289 0.00121086)
(0.105545 -0.00163922 0.00109187)
(0.10587 -0.00153345 0.000989077)
(0.106186 -0.00144434 0.000899741)
(0.106499 -0.00136904 0.000820067)
(0.106815 -0.00130353 0.000747159)
(0.107138 -0.00124289 0.000677347)
(0.10747 -0.00118347 0.000605553)
(0.107813 -0.00112415 0.000526447)
(0.108174 -0.00106972 0.000432612)
(0.108635 -0.00105583 0.000320512)
(0.100093 -0.000763188 0.000445916)
(0.100504 -0.00174899 0.00119445)
(0.101105 -0.00212947 0.00158672)
(0.101635 -0.00223447 0.00174026)
(0.10198 -0.00228673 0.00178199)
(0.102173 -0.00223553 0.00172859)
(0.102254 -0.00211542 0.00160735)
(0.10228 -0.00196399 0.00145904)
(0.102283 -0.0018015 0.00130304)
(0.102279 -0.00165195 0.00115291)
(0.102277 -0.00154261 0.00102208)
(0.102284 -0.00146497 0.000908395)
(0.102303 -0.00140926 0.000805388)
(0.102335 -0.00136928 0.000704733)
(0.102383 -0.00133947 0.000596225)
(0.10245 -0.00131347 0.0004712)
(0.102532 -0.00128372 0.000315566)
(0.102626 -0.00124546 0.000112489)
(0.102714 -0.00120903 -0.000152878)
(0.102898 -0.00124697 -0.000465048)
(0.0995405 -0.000321895 0.000245025)
(0.0992577 -0.00154091 0.00105552)
(0.0988491 -0.00211438 0.00150215)
(0.0981253 -0.00209152 0.00157908)
(0.0973378 -0.00188602 0.00151412)
(0.0965867 -0.00166577 0.00144507)
(0.0958684 -0.00149799 0.00140768)
(0.0952026 -0.00137159 0.00137481)
(0.0945771 -0.00128488 0.00132617)
(0.0939371 -0.00122927 0.00125038)
(0.0933169 -0.00119157 0.00115325)
(0.0927163 -0.00116762 0.00104533)
(0.0921293 -0.00115524 0.000932927)
(0.091553 -0.00115142 0.000814896)
(0.0909873 -0.00115093 0.00068346)
(0.0904331 -0.0011468 0.00051121)
(0.0898964 -0.00113242 0.000273979)
(0.0893849 -0.00110587 -7.47303e-05)
(0.0888777 -0.00108019 -0.000589919)
(0.0882353 -0.00111879 -0.00136551)
(0.0993802 5.89908e-05 3.37901e-05)
(0.0992677 0.00120004 0.000274456)
(0.0989804 0.00188846 0.000432506)
(0.0984746 0.00200646 0.000483677)
(0.0979954 0.00191472 0.000479179)
(0.0975705 0.00173489 0.000466064)
(0.0971802 0.00154756 0.000453755)
(0.0968294 0.00138912 0.000443833)
(0.0965274 0.00127124 0.000438645)
(0.0962695 0.00120186 0.000432333)
(0.0959892 0.00117667 0.000417732)
(0.0956851 0.0011783 0.0003981)
(0.0953515 0.00119445 0.000380322)
(0.0949692 0.00122646 0.000372203)
(0.094522 0.00128496 0.000385504)
(0.0939853 0.00137639 0.000426567)
(0.0933246 0.00151495 0.000524419)
(0.0924898 0.00172412 0.000671252)
(0.0914035 0.0020084 0.000985475)
(0.0902521 0.00235778 0.00165021)
(0.100087 0.000707013 0.00014442)
(0.100477 0.00161777 0.000390592)
(0.101066 0.00203462 0.000541278)
(0.101694 0.00211766 0.000610445)
(0.102268 0.00215043 0.000636546)
(0.102741 0.00218036 0.000627741)
(0.103123 0.00213511 0.000596313)
(0.103426 0.0020461 0.000551783)
(0.103677 0.00193831 0.000508138)
(0.103892 0.00183529 0.000468384)
(0.104085 0.00174149 0.000429718)
(0.104267 0.00166328 0.000394045)
(0.104433 0.00161863 0.000365411)
(0.104575 0.00161083 0.000344973)
(0.104694 0.00163014 0.000334981)
(0.10479 0.00168476 0.000339667)
(0.104849 0.00179082 0.000363159)
(0.104868 0.00196228 0.00040849)
(0.104857 0.00219039 0.00048034)
(0.105079 0.00241575 0.000577463)
(0.100039 0.000478779 0.000131355)