/*--------------------------------*- C++ -*----------------------------------*\
| =========                 |                                                 |
| \\      /  F ield         | OpenFOAM: The Open Source CFD Toolbox           |
|  \\    /   O peration     | Version:  2212                                  |
|   \\  /    A nd           | Website:  www.openfoam.com                      |
|    \\/     M anipulation  |                                                 |
\*---------------------------------------------------------------------------*/
FoamFile
{
    version     2.0;
    format      ascii;
    arch        "LSB;label=32;scalar=64";
    class       surfaceVectorField;
    location    "2.7";
    object      Uf;
}
// * * * * * * * * * * * * * * * * * * * * * * * * * * * * * * * * * * * * * //

dimensions      [0 1 -1 0 0 0 0];

internalField   nonuniform List<vector> 
19019
(
(0.0993441 -0.00341899 -0.00341904)
(0.0973536 0.00106248 -0.00148428)
(0.0973536 -0.00148428 0.00106246)
(0.0834792 0.00197594 0.0019758)
(0.0930872 0.00326905 0.00253343)
(0.0930872 0.00253352 0.00326891)
(0.0745172 0.00195886 0.00195858)
(0.0848641 0.00163595 0.00179228)
(0.0848641 0.00179245 0.0016357)
(0.0685479 0.00115935 0.00115881)
(0.0786283 0.00107371 0.00122123)
(0.0786281 0.00122159 0.00107326)
(0.0642363 0.00069746 0.000696533)
(0.0740534 0.000785726 0.000864913)
(0.0740531 0.00086551 0.000784859)
(0.0607571 0.000495742 0.000493923)
(0.070443 0.000651139 0.000668995)
(0.0704426 0.00067001 0.000649748)
(0.0579379 0.00037654 0.000373166)
(0.0674925 0.000547982 0.000507956)
(0.0674918 0.000509987 0.000545202)
(0.0556148 0.000290849 0.000285232)
(0.0650523 0.000471004 0.000386543)
(0.065051 0.000389918 0.000466183)
(0.053626 0.000231718 0.000222515)
(0.0629685 0.000418801 0.000306414)
(0.0629662 0.000311907 0.000410652)
(0.0518818 0.000191029 0.000175667)
(0.0611357 0.000378702 0.000252678)
(0.0611317 0.000261682 0.000364985)
(0.0503335 0.000164194 0.000138621)
(0.0594954 0.00034454 0.000215429)
(0.0594882 0.000231394 0.000321367)
(0.0489491 0.000147485 0.000106486)
(0.0580146 0.000315815 0.000188291)
(0.0580016 0.000215008 0.000277377)
(0.0476988 0.000138668 7.47422e-05)
(0.056667 0.000295941 0.000167909)
(0.0566442 0.000207288 0.000233397)
(0.0465616 0.000138387 3.87525e-05)
(0.055431 0.000287474 0.000151669)
(0.0553931 0.000205335 0.000184819)
(0.0455439 0.000149509 2.85375e-06)
(0.0543022 0.000289367 0.000130796)
(0.0542395 0.000211329 0.000120069)
(0.0446546 0.000178524 -5.59176e-05)
(0.0532936 0.000302906 0.000103679)
(0.0531869 0.000227551 3.60381e-05)
(0.0439412 0.000227002 -0.000182957)
(0.0524491 0.000340203 3.93977e-05)
(0.0522566 0.000269218 -9.33607e-05)
(0.0436551 0.000264853 -0.000404199)
(0.0519059 0.00040721 -0.000111249)
(0.0515311 0.000301379 -0.000346931)
(0.0443999 -0.00063601 -0.00184546)
(0.0521628 0.000484221 -0.000352744)
(0.0513887 0.000246975 -0.000868231)
(0.0507603 -0.000603878 -0.00196165)
(0.0503413 -0.00149556 -0.00378124)
(0.0984572 0.00247649 0.00172987)
(0.0996871 0.000439242 0.000345476)
(0.100049 0.00105639 0.000750957)
(0.0958348 0.00314815 0.0024326)
(0.0978162 0.00273285 0.00228224)
(0.0982936 0.00280926 0.0021614)
(0.0914501 0.00223048 0.00186918)
(0.0954961 0.00300179 0.00230301)
(0.096304 0.00244275 0.00199768)
(0.0875954 0.00167491 0.00150528)
(0.0926194 0.0022995 0.0018386)
(0.0936669 0.00198089 0.00172677)
(0.0841481 0.00144054 0.0012754)
(0.0897678 0.00189215 0.00153544)
(0.0909048 0.00172002 0.00149756)
(0.0811885 0.00126625 0.00102835)
(0.087233 0.00165685 0.0012944)
(0.0884348 0.00145503 0.00121133)
(0.0787025 0.00111163 0.000793402)
(0.0850083 0.00149262 0.00107681)
(0.0863054 0.00118433 0.000908033)
(0.0765588 0.000994582 0.000624391)
(0.0830637 0.00137249 0.000912824)
(0.0844816 0.000984453 0.000689806)
(0.0746547 0.000909281 0.000516974)
(0.0813294 0.00128004 0.00080097)
(0.0828819 0.000847657 0.000547161)
(0.0729296 0.000837946 0.00045044)
(0.0797545 0.00119649 0.000725409)
(0.0814508 0.000748714 0.000452908)
(0.0713486 0.000770579 0.000408566)
(0.0783117 0.00111609 0.000677421)
(0.0801568 0.000669516 0.000386638)
(0.0698909 0.000708749 0.00038206)
(0.0769805 0.00103851 0.000647312)
(0.0789743 0.000602651 0.000336849)
(0.0685405 0.000659094 0.00036781)
(0.0757445 0.000965082 0.0006289)
(0.077885 0.000550996 0.000300231)
(0.0672869 0.000622234 0.000358365)
(0.0745938 0.000896684 0.000618823)
(0.0768827 0.000515089 0.000271768)
(0.0661373 0.000595059 0.000334789)
(0.0735298 0.000831678 0.000607798)
(0.0759667 0.000490903 0.000234882)
(0.065127 0.000564322 0.000279016)
(0.0725725 0.000766984 0.000577041)
(0.0751481 0.000478812 0.000170685)
(0.0643515 0.000495462 0.000127009)
(0.0717787 0.000672104 0.000511282)
(0.0744647 0.000460955 5.61552e-05)
(0.0641262 0.000391538 -0.000163897)
(0.0712713 0.000459202 0.000301475)
(0.0740065 0.000398228 -0.000209463)
(0.0651061 0.00012068 -0.000525248)
(0.0713714 2.05276e-05 -6.67255e-05)
(0.0739857 0.000185822 -0.000840116)
(0.0699112 -0.00141027 -0.000763291)
(0.0727291 -0.000866329 -0.00270603)
(0.0993753 0.00118216 0.00107253)
(0.099473 0.000349763 0.000307054)
(0.0997475 0.000610992 0.000779864)
(0.0984949 0.00229614 0.00203183)
(0.0990504 0.00157682 0.00172043)
(0.0995971 0.00201835 0.0020028)
(0.0971415 0.00247659 0.00204845)
(0.0983579 0.00213113 0.00216877)
(0.0992974 0.0024616 0.00210226)
(0.09544 0.00224715 0.00176716)
(0.0971937 0.00203582 0.00200225)
(0.0984886 0.00237462 0.00190236)
(0.0937517 0.00202071 0.00152213)
(0.095906 0.00185562 0.00175415)
(0.0974229 0.00218109 0.00168834)
(0.0921399 0.00186453 0.00134415)
(0.0946733 0.00173262 0.00154238)
(0.0963106 0.00198505 0.0015078)
(0.0906044 0.00175406 0.00121437)
(0.0934844 0.00165245 0.00138609)
(0.0952062 0.00180206 0.00134196)
(0.0891563 0.00165614 0.00111297)
(0.0923726 0.00157627 0.00126501)
(0.0941509 0.00164527 0.00120256)
(0.0878123 0.00155126 0.00103091)
(0.0913392 0.00148036 0.00117117)
(0.0931707 0.00150576 0.00109387)
(0.0865747 0.00144176 0.000969396)
(0.0903547 0.00136909 0.00110204)
(0.0922696 0.00137656 0.00101078)
(0.0854293 0.00133583 0.000928916)
(0.0894321 0.0012563 0.00105564)
(0.0914481 0.00125978 0.000952197)
(0.0843618 0.00123607 0.000904553)
(0.0885652 0.00114515 0.00102647)
(0.0906987 0.00115685 0.000912432)
(0.0833631 0.00113916 0.000890432)
(0.0877431 0.00103622 0.00101014)
(0.0900123 0.00106498 0.000884582)
(0.0824331 0.0010389 0.000879824)
(0.0869615 0.000925929 0.00100192)
(0.0893855 0.000979078 0.000862329)
(0.0815831 0.000925092 0.000861327)
(0.0862222 0.000804677 0.00099494)
(0.0888212 0.000892216 0.000838753)
(0.0808517 0.000779693 0.000820421)
(0.0855378 0.000649251 0.000976958)
(0.0883329 0.000791797 0.000797281)
(0.0802958 0.000557917 0.000714825)
(0.0849362 0.000432259 0.000936708)
(0.087946 0.000657469 0.000715191)
(0.07998 0.00013355 0.000497032)
(0.0844555 0.000103014 0.000837303)
(0.087691 0.000441468 0.00053327)
(0.0800138 -0.000895649 3.77218e-05)
(0.0841378 -0.000451828 0.00067479)
(0.0875899 2.74139e-05 0.000233978)
(0.0834841 -0.00154149 0.000369859)
(0.0872779 -0.000985424 -0.000344246)
(0.0996493 0.000650276 0.000931404)
(0.0994625 0.000129359 0.000192489)
(0.0997993 0.000375119 0.000741355)
(0.0990856 0.00127884 0.00182764)
(0.0992626 0.000636801 0.00137059)
(0.099841 0.00115034 0.00181419)
(0.0984495 0.00154061 0.00210295)
(0.098913 0.000973252 0.0020035)
(0.0999049 0.00153641 0.00209006)
(0.0977082 0.0015466 0.00198877)
(0.0982953 0.00104974 0.00205056)
(0.0997677 0.00163153 0.00202282)
(0.0969405 0.00147959 0.0017759)
(0.097658 0.00100694 0.00189953)
(0.0995102 0.00160929 0.00189538)
(0.0962097 0.00142636 0.00158188)
(0.0970658 0.000959051 0.00169819)
(0.0992009 0.00154706 0.00175131)
(0.0955255 0.00139122 0.00143479)
(0.0965075 0.000931376 0.00152062)
(0.098857 0.00147373 0.00162538)
(0.0948779 0.00135046 0.00132824)
(0.0959956 0.000913538 0.00137905)
(0.0985146 0.00139142 0.0015144)
(0.0942466 0.00128822 0.00125707)
(0.0955288 0.000896775 0.00127828)
(0.0981836 0.00129701 0.00141868)
(0.0936251 0.00120175 0.00121042)
(0.0950767 0.000860079 0.00121632)
(0.097841 0.00119021 0.00134153)
(0.0930173 0.0010992 0.0011796)
(0.0946255 0.000795797 0.00118347)
(0.09751 0.00108016 0.00128726)
(0.0924231 0.000989011 0.00116144)
(0.0941752 0.000717512 0.00116978)
(0.0971941 0.000971624 0.00125058)
(0.0918407 0.000873742 0.00115334)
(0.093722 0.000632531 0.00116786)
(0.0968907 0.000865109 0.00122696)
(0.0912694 0.000748937 0.00115117)
(0.0932582 0.000538575 0.00117499)
(0.0965989 0.000756391 0.00121348)
(0.0907094 0.000597027 0.00114887)
(0.0927801 0.000428838 0.00119071)
(0.0963205 0.000636758 0.00120601)
(0.0901652 0.000392233 0.00113967)
(0.0922838 0.000281176 0.0012136)
(0.096057 0.000487696 0.00119847)
(0.0896441 9.92005e-05 0.00111931)
(0.0917678 7.23525e-05 0.00124324)
(0.0958103 0.000289767 0.00118385)
(0.0891432 -0.000332823 0.00109338)
(0.091224 -0.000230185 0.00128077)
(0.0955821 1.03152e-05 0.0011588)
(0.0886037 -0.000978341 0.00110003)
(0.0906192 -0.000657546 0.00133522)
(0.095353 -0.000386798 0.00113564)
(0.0898915 -0.00132911 0.00144575)
(0.0950983 -0.000943811 0.00118596)
(0.0996725 0.000154003 0.000629464)
(0.0993802 -2.03181e-08 5.89609e-05)
(0.0997132 0.000103898 0.00068794)
(0.0991591 0.000353165 0.00154422)
(0.0992677 -9.64822e-08 0.00120002)
(0.0998377 0.00034154 0.00162227)
(0.0986638 0.000457499 0.00194741)
(0.0989805 -2.23175e-07 0.00188845)
(0.0999631 0.000485268 0.00199135)
(0.0982126 0.0004804 0.00196046)
(0.0984747 -4.04154e-07 0.00200642)
(0.099992 0.000539261 0.00199656)
(0.097777 0.000470822 0.00182452)
(0.0979957 -6.9725e-07 0.00191463)
(0.10001 0.000545727 0.00191087)
(0.0973639 0.000456727 0.00164074)
(0.0975711 -1.21712e-06 0.0017347)
(0.100008 0.000532283 0.00180399)
(0.0969965 0.000443272 0.00146755)
(0.0971812 -2.13926e-06 0.00154727)
(0.0999825 0.000509373 0.00168245)
(0.0966771 0.00043184 0.00132875)
(0.0968312 -3.65616e-06 0.00138862)
(0.0999412 0.000481478 0.00157193)
(0.0963983 0.000419671 0.00123395)
(0.0965305 -6.20693e-06 0.00127031)
(0.099902 0.000455075 0.00148039)
(0.096135 0.000398637 0.00118477)
(0.0962748 -1.0425e-05 0.0012002)
(0.0998709 0.000426966 0.00141702)
(0.0958601 0.000364178 0.00116992)
(0.0959982 -1.73953e-05 0.00117384)
(0.0998197 0.00039011 0.00137763)
(0.0955618 0.000316949 0.00117353)
(0.0957003 -2.88783e-05 0.00117357)
(0.0997546 0.000344169 0.00135144)
(0.0952333 0.000256809 0.00118768)
(0.0953775 -4.78835e-05 0.00118635)
(0.0996748 0.000290649 0.00133902)
(0.0948674 0.000181323 0.00121371)
(0.0950138 -7.92209e-05 0.00121183)
(0.0995708 0.000226815 0.00134366)
(0.0944577 8.05592e-05 0.00125622)
(0.0945974 -0.000130997 0.00125768)
(0.0994387 0.000147314 0.00136584)
(0.0939915 -6.60864e-05 0.00132035)
(0.0941114 -0.000215479 0.00132936)
(0.0992749 4.10107e-05 0.00140662)
(0.0934546 -0.000287952 0.00141024)
(0.093534 -0.000359034 0.0014369)
(0.0990717 -0.000110428 0.00147286)
(0.092821 -0.000621649 0.00152757)
(0.0928276 -0.000576749 0.00159324)
(0.0988138 -0.000331065 0.0015688)
(0.0920951 -0.00118585 0.00167664)
(0.0919306 -0.000945197 0.00180123)
(0.0984749 -0.000646761 0.00169238)
(0.0909454 -0.00164265 0.00205958)
(0.0981397 -0.00114922 0.00185536)
(0.0996725 -0.000154118 0.000629514)
(0.0994625 -0.000129398 0.00019252)
(0.0997132 -0.000103946 0.000687944)
(0.0991591 -0.00035347 0.00154425)
(0.0992625 -0.000636951 0.00137062)
(0.0998376 -0.000341733 0.00162228)
(0.0986636 -0.000458077 0.00194746)
(0.0989129 -0.000973541 0.00200358)
(0.099963 -0.00048565 0.00199135)
(0.0982122 -0.000481413 0.00196059)
(0.0982949 -0.00105024 0.00205071)
(0.0999918 -0.000539938 0.0019966)
(0.0977761 -0.000472608 0.00182481)
(0.097657 -0.00100788 0.00189979)
(0.100009 -0.000546939 0.00191108)
(0.0973623 -0.000459896 0.00164123)
(0.0970639 -0.000960797 0.00169865)
(0.100007 -0.000534427 0.00180443)
(0.0969938 -0.000448782 0.00146834)
(0.096504 -0.00093452 0.00152124)
(0.0999806 -0.000513059 0.00168312)
(0.0966724 -0.000441228 0.00133018)
(0.0959897 -0.000918941 0.00138012)
(0.0999379 -0.000487702 0.00157304)
(0.0963902 -0.000435481 0.00123655)
(0.0955185 -0.000906038 0.00128048)
(0.0998965 -0.000465643 0.00148231)
(0.0961211 -0.000425029 0.00118927)
(0.0950591 -0.000875353 0.00122072)
(0.0998618 -0.00044487 0.00142029)
(0.0958364 -0.00040792 0.0011775)
(0.0945956 -0.00082071 0.00119143)
(0.0998044 -0.00042006 0.00138293)
(0.0955212 -0.000389226 0.00118639)
(0.0941246 -0.000758041 0.00118399)
(0.099729 -0.00039363 0.00136039)
(0.0951639 -0.000376296 0.00121049)
(0.0936364 -0.000699348 0.00119196)
(0.0996312 -0.000371145 0.00135492)
(0.0947496 -0.000378924 0.00125579)
(0.0931133 -0.000649699 0.00121692)
(0.099496 -0.000357485 0.00137246)
(0.0942584 -0.000406152 0.00133083)
(0.0925362 -0.000613044 0.00126717)
(0.0993155 -0.000360103 0.00141704)
(0.0936604 -0.000475653 0.00144591)
(0.0918747 -0.000591121 0.00135238)
(0.0990765 -0.000384337 0.00149603)
(0.0929127 -0.000598022 0.00161989)
(0.0910824 -0.000604779 0.0014916)
(0.098755 -0.000447568 0.00162586)
(0.091958 -0.000828576 0.00186689)
(0.0900739 -0.000662362 0.00172461)
(0.0983225 -0.000547236 0.00182853)
(0.0907273 -0.00131809 0.00218416)
(0.0887442 -0.000825728 0.00204152)
(0.0977428 -0.000748229 0.00210296)
(0.0872181 -0.00136463 0.00263209)
(0.0972385 -0.00114742 0.00242762)
(0.0996493 -0.000650315 0.000931408)
(0.099473 -0.000349754 0.000307058)
(0.0997993 -0.000375126 0.000741354)
(0.0990854 -0.00127894 0.00182771)
(0.0990504 -0.00157679 0.00172047)
(0.0998409 -0.00115038 0.0018142)
(0.098449 -0.00154081 0.00210312)
(0.0983576 -0.00213107 0.00216895)
(0.0999046 -0.0015365 0.00209017)
(0.0977072 -0.00154702 0.00198905)
(0.097193 -0.00203574 0.00200257)
(0.0997671 -0.00163172 0.00202315)
(0.0969385 -0.00148048 0.00177633)
(0.0959046 -0.00185561 0.00175462)
(0.0995089 -0.00160971 0.00189599)
(0.0962061 -0.00142802 0.00158246)
(0.0946707 -0.00173278 0.00154308)
(0.0991984 -0.00154786 0.00175223)
(0.0955191 -0.00139403 0.00143567)
(0.0934797 -0.00165283 0.00138715)
(0.0988527 -0.00147519 0.00162672)
(0.0948669 -0.00135523 0.00133)
(0.0923645 -0.00157683 0.00126677)
(0.0985073 -0.00139388 0.00151656)
(0.0942276 -0.00129608 0.00126092)
(0.0913252 -0.00148129 0.0011743)
(0.0981713 -0.00130114 0.00142231)
(0.0935928 -0.00121417 0.00121799)
(0.090331 -0.00137049 0.00110783)
(0.0978203 -0.00119704 0.00134783)
(0.0929628 -0.00111883 0.00119369)
(0.0893921 -0.00125839 0.0010656)
(0.0974753 -0.00109106 0.0012983)
(0.0923313 -0.00102095 0.00118607)
(0.0884975 -0.00114833 0.00104431)
(0.0971354 -0.000988977 0.00127023)
(0.0916866 -0.000927058 0.00119523)
(0.0876294 -0.00104195 0.00104064)
(0.0967922 -0.000892608 0.0012615)
(0.0910105 -0.000837309 0.00122517)
(0.086771 -0.000936925 0.00105398)
(0.0964365 -0.000801805 0.00127439)
(0.0902734 -0.000747267 0.00128514)
(0.085903 -0.00082504 0.00108738)
(0.0960542 -0.000712488 0.00131488)
(0.0894292 -0.000655862 0.0013926)
(0.084998 -0.000693114 0.00114877)
(0.0956225 -0.000620476 0.00139581)
(0.0883986 -0.000570568 0.00158571)
(0.0840118 -0.000534117 0.0012563)
(0.0951069 -0.000525721 0.0015429)
(0.0870484 -0.000483665 0.00187743)
(0.0828483 -0.000317531 0.00144732)
(0.0944421 -0.000431596 0.00180548)
(0.085175 -0.000536455 0.00244098)
(0.0813927 4.9779e-06 0.00173772)
(0.0935694 -0.000323873 0.00219105)
(0.0797156 0.000224537 0.00274672)
(0.0926603 -0.000418989 0.00307601)
(0.0993753 -0.0011821 0.00107257)
(0.0996871 -0.000439211 0.000345485)
(0.0997475 -0.00061096 0.000779888)
(0.0984947 -0.00229599 0.00203199)
(0.0978161 -0.00273269 0.00228232)
(0.0995971 -0.00201823 0.00200294)
(0.0971411 -0.00247632 0.00204878)
(0.0954959 -0.00300154 0.00230323)
(0.0992971 -0.00246138 0.00210258)
(0.095439 -0.00224671 0.00176765)
(0.092619 -0.00229907 0.00183899)
(0.098488 -0.00237421 0.00190292)
(0.0937498 -0.00202 0.00152284)
(0.0897669 -0.00189137 0.001536)
(0.0974217 -0.00218045 0.00168918)
(0.0921364 -0.00186344 0.00134526)
(0.0872314 -0.00165556 0.0012953)
(0.0963085 -0.00198397 0.00150899)
(0.0905983 -0.00175236 0.00121623)
(0.0850053 -0.00149042 0.0010783)
(0.0952025 -0.00180041 0.00134387)
(0.0891456 -0.00165332 0.00111602)
(0.0830584 -0.00136884 0.000915292)
(0.0941445 -0.00164269 0.00120581)
(0.0877943 -0.00154655 0.00103593)
(0.0813201 -0.0012739 0.000805066)
(0.0931596 -0.00150133 0.00109923)
(0.0865442 -0.00143395 0.00097752)
(0.0797387 -0.0011861 0.000732267)
(0.0922508 -0.00136901 0.00101971)
(0.0853779 -0.00132308 0.000942574)
(0.0782844 -0.00109827 0.000689631)
(0.0914164 -0.00124755 0.000967173)
(0.0842756 -0.00121589 0.000928255)
(0.0769331 -0.00100927 0.000668483)
(0.0906453 -0.00113687 0.000938059)
(0.0832191 -0.00110833 0.000931347)
(0.0756636 -0.000919505 0.000661389)
(0.089924 -0.00103244 0.000927943)
(0.0821924 -0.000993241 0.000951303)
(0.0744591 -0.000825916 0.000665019)
(0.0892412 -0.000926568 0.000934768)
(0.0811774 -0.000860791 0.000991831)
(0.0733054 -0.000717498 0.000683453)
(0.0885851 -0.000811635 0.000962441)
(0.0801506 -0.000699037 0.00106356)
(0.0721907 -0.000577094 0.000720807)
(0.0879422 -0.00067649 0.00101785)
(0.0790698 -0.000464446 0.00118463)
(0.0711045 -0.000384971 0.000783009)
(0.0872918 -0.000507121 0.00111696)
(0.0778278 -6.28748e-05 0.00138736)
(0.0700315 -4.59712e-05 0.000851082)
(0.0865872 -0.000255857 0.00128653)
(0.0762003 0.00050134 0.00211221)
(0.0690376 0.000622803 0.000911981)
(0.0857706 0.00014373 0.00157236)
(0.0676948 0.00224712 0.000849234)
(0.0850517 0.00060347 0.00242794)
(0.0984572 -0.00247639 0.00172993)
(0.0973536 -0.00106246 -0.00148427)
(0.100049 -0.00105637 0.000750985)
(0.0958348 -0.00314794 0.00243275)
(0.0930872 -0.00326891 0.00253352)
(0.0982936 -0.00280912 0.00216155)
(0.0914499 -0.00223013 0.00186947)
(0.0848641 -0.0016357 0.00179245)
(0.096304 -0.00244245 0.00199797)
(0.0875951 -0.00167423 0.00150576)
(0.0786281 -0.00107326 0.00122159)
(0.0936668 -0.00198037 0.00172729)
(0.0841474 -0.00143938 0.00127619)
(0.0740531 -0.000784852 0.000865515)
(0.0909045 -0.00171909 0.00149838)
(0.0811872 -0.00126423 0.00102972)
(0.0704426 -0.000649739 0.000670015)
(0.0884342 -0.0014535 0.00121281)
(0.0787001 -0.00110807 0.000795626)
(0.0674918 -0.000545192 0.000509992)
(0.0863045 -0.00118169 0.000910488)
(0.0765544 -0.000988461 0.000628037)
(0.065051 -0.000466172 0.000389922)
(0.0844798 -0.000979956 0.000693875)
(0.074647 -0.000898784 0.000523071)
(0.0629661 -0.000410642 0.00031191)
(0.0828786 -0.000839947 0.000554048)
(0.0729161 -0.000819978 0.000461596)
(0.0611317 -0.000364975 0.000261682)
(0.0814452 -0.000735494 0.000464703)
(0.0713243 -0.000740458 0.000428544)
(0.0594882 -0.000321358 0.00023139)
(0.0801468 -0.000646426 0.000408258)
(0.0698476 -0.000659601 0.000412282)
(0.0580015 -0.00027737 0.000215)
(0.0789561 -0.000564744 0.000373253)
(0.0684661 -0.000578514 0.000405765)
(0.056644 -0.000233395 0.000207285)
(0.0778532 -0.000491979 0.00035511)
(0.0671639 -0.000486398 0.000408601)
(0.055393 -0.00018481 0.000205316)
(0.0768299 -0.000422567 0.000350322)
(0.0659309 -0.000359908 0.000422918)
(0.0542393 -0.000120033 0.000211321)
(0.0758793 -0.000337172 0.000361657)
(0.0647733 -0.000180626 0.000451277)
(0.0531865 -3.60001e-05 0.000227568)
(0.0749994 -0.000215974 0.000394622)
(0.0637042 0.000100321 0.000474964)
(0.0522561 9.34222e-05 0.000269244)
(0.0741966 -4.23424e-05 0.000451148)
(0.0628156 0.000644297 0.000444363)
(0.0515303 0.000346982 0.000301437)
(0.0734849 0.000260768 0.000495797)
(0.0624401 0.00222045 -0.000127276)
(0.0513876 0.000868335 0.000247108)
(0.0729088 0.000910381 0.000390546)
(0.0503394 0.00378132 -0.00149531)
(0.0721448 0.00276769 -0.000641165)
(0.0993441 0.00341904 -0.00341899)
(0.0973536 0.00148428 0.00106248)
(0.0834792 -0.0019758 0.00197594)
(0.0930872 -0.00253343 0.00326905)
(0.0745172 -0.00195858 0.00195887)
(0.0848641 -0.00179228 0.00163595)
(0.0685479 -0.00115881 0.00115936)
(0.0786283 -0.00122122 0.00107371)
(0.0642363 -0.000696528 0.000697467)
(0.0740534 -0.000864911 0.000785735)
(0.0607571 -0.000493919 0.000495749)
(0.070443 -0.000668993 0.00065115)
(0.0579379 -0.000373162 0.000376547)
(0.0674925 -0.000507954 0.000547994)
(0.0556148 -0.000285229 0.000290855)
(0.0650523 -0.000386542 0.000471018)
(0.053626 -0.000222512 0.000231722)
(0.0629684 -0.000306415 0.000418815)
(0.0518818 -0.000175666 0.00019103)
(0.0611357 -0.000252679 0.000378717)
(0.0503334 -0.00013862 0.000164191)
(0.0594954 -0.000215432 0.000344556)
(0.048949 -0.00010649 0.000147483)
(0.0580145 -0.000188296 0.000315834)
(0.0476987 -7.47422e-05 0.000138664)
(0.0566668 -0.000167913 0.000295965)
(0.0465614 -3.87227e-05 0.00013837)
(0.0554309 -0.000151686 0.000287514)
(0.0455436 -2.81951e-06 0.000149514)
(0.054302 -0.000130793 0.000289429)
(0.0446542 5.59351e-05 0.000178571)
(0.0532933 -0.000103681 0.000303016)
(0.0439407 0.000182974 0.000227078)
(0.0524486 -3.93875e-05 0.00034035)
(0.0436543 0.000404246 0.000264991)
(0.0519052 0.000111283 0.000407369)
(0.0443988 0.00184541 -0.000635708)
(0.0521619 0.000352819 0.000484486)
(0.0507586 0.00196142 -0.000603281)
(0.0984572 0.00172993 0.0024764)
(0.100049 0.000750984 0.00105637)
(0.0996871 0.000345486 0.000439213)
(0.0958348 0.00243275 0.00314794)
(0.0982936 0.00216155 0.00280912)
(0.0978161 0.00228232 0.0027327)
(0.0914499 0.00186947 0.00223014)
(0.096304 0.00199796 0.00244245)
(0.0954959 0.00230323 0.00300155)
(0.087595 0.00150575 0.00167424)
(0.0936668 0.00172729 0.00198038)
(0.0926189 0.00183899 0.00229908)
(0.0841473 0.00127619 0.00143938)
(0.0909045 0.00149837 0.0017191)
(0.0897669 0.001536 0.00189138)
(0.0811872 0.00102971 0.00126424)
(0.0884342 0.0012128 0.00145351)
(0.0872314 0.00129529 0.00165557)
(0.0787001 0.000795621 0.00110808)
(0.0863045 0.000910477 0.0011817)
(0.0850053 0.0010783 0.00149043)
(0.0765544 0.000628032 0.000988472)
(0.0844798 0.000693862 0.00097996)
(0.0830584 0.000915289 0.00136885)
(0.074647 0.000523066 0.000898794)
(0.0828787 0.000554033 0.00083995)
(0.0813201 0.000805064 0.00127392)
(0.0729161 0.000461594 0.000819986)
(0.0814453 0.000464686 0.000735495)
(0.0797387 0.000732266 0.00118611)
(0.0713243 0.000428544 0.000740461)
(0.0801469 0.000408241 0.000646424)
(0.0782844 0.000689635 0.00109828)
(0.0698477 0.000412278 0.000659593)
(0.0789562 0.000373227 0.00056473)
(0.0769332 0.000668489 0.00100929)
(0.0684662 0.000405758 0.000578482)
(0.0778533 0.00035505 0.000491932)
(0.0756637 0.000661399 0.000919524)
(0.0671641 0.00040858 0.000486363)
(0.07683 0.000350297 0.000422526)
(0.0744592 0.000665012 0.000825882)
(0.0659313 0.00042288 0.000359893)
(0.0758795 0.000361643 0.000337221)
(0.0733057 0.000683398 0.000717434)
(0.0647738 0.000451233 0.000180621)
(0.0749998 0.000394559 0.000215983)
(0.0721911 0.000720737 0.000577034)
(0.0637049 0.000474891 -0.000100347)
(0.0741971 0.00045107 4.23399e-05)
(0.071105 0.000782906 0.000384915)
(0.0628167 0.000444208 -0.000644386)
(0.0734857 0.000495706 -0.00026079)
(0.0700324 0.000850883 4.58035e-05)
(0.0624417 -0.000127557 -0.00222058)
(0.07291 0.000390426 -0.000910415)
(0.0690389 0.000911594 -0.000623122)
(0.0721468 -0.000641585 -0.00276801)
(0.0676971 0.000848722 -0.00224758)
(0.10008 0.00135181 0.00135171)
(0.100186 0.000798779 0.000804929)
(0.100186 0.000804969 0.000798738)
(0.100264 0.0022174 0.00221715)
(0.10019 0.00231192 0.00207138)
(0.10019 0.00207155 0.00231176)
(0.0993829 0.00243598 0.00243548)
(0.100307 0.00263384 0.00245287)
(0.100306 0.00245327 0.00263353)
(0.097984 0.00231063 0.00230981)
(0.0998051 0.00256066 0.00245561)
(0.0998049 0.00245631 0.00256009)
(0.0964949 0.00200686 0.00200547)
(0.0988629 0.00236489 0.00228044)
(0.0988625 0.00228151 0.00236398)
(0.0950725 0.00159813 0.00159581)
(0.097841 0.00204989 0.00196733)
(0.0978403 0.00196899 0.00204828)
(0.0937752 0.00122822 0.00122435)
(0.0968617 0.00169264 0.00160347)
(0.0968605 0.00160613 0.00169001)
(0.0926176 0.000965351 0.000958765)
(0.09596 0.00140686 0.00131953)
(0.0959579 0.00132409 0.00140254)
(0.0915938 0.000783473 0.00077216)
(0.095149 0.00119546 0.00111533)
(0.0951453 0.00112311 0.001188)
(0.0906881 0.00065547 0.000635505)
(0.0944277 0.00103837 0.000966392)
(0.0944213 0.000979606 0.00102555)
(0.0898803 0.000563748 0.000529975)
(0.0937915 0.000919763 0.000854489)
(0.0937807 0.000877592 0.000897907)
(0.0891506 0.000499653 0.000446845)
(0.0932268 0.000829484 0.000768875)
(0.0932087 0.000806914 0.000793724)
(0.0884896 0.000457543 0.000377917)
(0.0927226 0.000761089 0.000701335)
(0.0926937 0.000761014 0.000704545)
(0.0878972 0.000432023 0.000306592)
(0.0922796 0.0007083 0.000641426)
(0.0922344 0.000733972 0.000619132)
(0.0873756 0.000422007 0.000214596)
(0.0918986 0.000665942 0.000574294)
(0.0918282 0.000725111 0.000522398)
(0.0869294 0.000425989 8.10653e-05)
(0.091582 0.00062918 0.000484636)
(0.0914735 0.000736927 0.000400224)
(0.0865693 0.000429477 -0.000138254)
(0.0913322 0.00058775 0.000346196)
(0.0911695 0.000770211 0.000229355)
(0.0862388 0.000348571 -0.000551361)
(0.0911389 0.000518638 0.000109457)
(0.090905 0.000819016 -2.78453e-05)
(0.0856752 -6.65477e-05 -0.00133616)
(0.09089 0.000351361 -0.000306881)
(0.0905955 0.000815888 -0.00042088)
(0.0908338 -4.85942e-05 -0.000967783)
(0.0905822 0.000565528 -0.00094494)
(0.100171 0.00136873 0.00141634)
(0.100118 0.000577426 0.00081128)
(0.100102 0.000699789 0.000700652)
(0.100759 0.002195 0.00214886)
(0.100478 0.00158291 0.00185867)
(0.100477 0.00182262 0.00186452)
(0.100996 0.00247714 0.00238757)
(0.101004 0.00205885 0.00224231)
(0.101024 0.00234695 0.00238269)
(0.100838 0.00247661 0.00238855)
(0.101292 0.00220365 0.00235168)
(0.101338 0.00250629 0.0025433)
(0.100458 0.0023122 0.00222401)
(0.101309 0.00216764 0.00232144)
(0.101409 0.00245109 0.00247169)
(0.0999681 0.00205759 0.00196701)
(0.101157 0.00201125 0.00217781)
(0.101302 0.00226549 0.00226957)
(0.0994443 0.00179196 0.001698)
(0.100928 0.0017943 0.00196706)
(0.101098 0.00201043 0.00199727)
(0.0989352 0.00156541 0.00148037)
(0.100666 0.00158423 0.00176352)
(0.100855 0.00177215 0.00175555)
(0.0984677 0.00138136 0.00131622)
(0.100411 0.00139631 0.00158696)
(0.100607 0.00157213 0.00156029)
(0.0980532 0.00123035 0.00119248)
(0.100177 0.0012305 0.00144026)
(0.10038 0.00140712 0.00140411)
(0.0976929 0.00110631 0.00110011)
(0.0999737 0.00109027 0.00133148)
(0.100186 0.00127164 0.00127956)
(0.0973847 0.00100423 0.00102961)
(0.0998032 0.000972376 0.00125235)
(0.100027 0.00116151 0.00117977)
(0.0971279 0.000918694 0.000970845)
(0.0996651 0.000870946 0.0011925)
(0.0999051 0.00107248 0.00109631)
(0.0969232 0.000843415 0.00091568)
(0.0995596 0.000778549 0.001144)
(0.0998215 0.00100013 0.00102059)
(0.0967729 0.000769417 0.000852879)
(0.0994897 0.000685893 0.00110043)
(0.0997778 0.000939361 0.000944686)
(0.0966787 0.00068364 0.000762183)
(0.0994578 0.000583147 0.00105064)
(0.0997752 0.00088327 0.000855736)
(0.0966385 0.000567209 0.000613123)
(0.0994624 0.000455834 0.000978053)
(0.0998118 0.000822829 0.000736234)
(0.0966174 0.000391043 0.000382169)
(0.0994958 0.000284304 0.000861641)
(0.0998788 0.000743526 0.000563346)
(0.096517 7.95123e-05 7.58077e-05)
(0.0995142 4.3229e-05 0.000700499)
(0.0999383 0.000618931 0.000333937)
(0.0996556 -0.000332642 0.000538842)
(0.100152 0.000388563 0.000120956)
(0.100242 0.000820181 0.00125609)
(0.10009 0.000294323 0.000735335)
(0.100071 0.000415684 0.000602744)
(0.100828 0.00139058 0.00193923)
(0.100491 0.000791949 0.00168396)
(0.100493 0.00112444 0.0015869)
(0.101393 0.00166349 0.00218197)
(0.101086 0.00107765 0.00208328)
(0.101129 0.00154088 0.0020939)
(0.101816 0.00176112 0.0022606)
(0.101664 0.0012042 0.00217873)
(0.101768 0.00173277 0.00229379)
(0.102081 0.00175528 0.00226113)
(0.102121 0.00123946 0.00222145)
(0.102291 0.00178998 0.00236652)
(0.102216 0.00166795 0.00217547)
(0.102452 0.00120144 0.00220933)
(0.102712 0.00174397 0.00232081)
(0.102267 0.00153316 0.0020397)
(0.102681 0.00111759 0.00212518)
(0.103037 0.00162631 0.0022004)
(0.102279 0.001381 0.00188274)
(0.102842 0.00101597 0.00200379)
(0.103288 0.00147956 0.00204701)
(0.102278 0.00122792 0.00172672)
(0.102968 0.000914233 0.00186778)
(0.103494 0.00132765 0.00188651)
(0.102276 0.00108743 0.00159728)
(0.103073 0.000817532 0.00174051)
(0.103673 0.00118461 0.00174017)
(0.10228 0.000965148 0.00150379)
(0.103169 0.00072817 0.00163774)
(0.103837 0.00105937 0.00162358)
(0.102293 0.000856772 0.00143712)
(0.103265 0.000644786 0.00155755)
(0.103996 0.000950836 0.00153229)
(0.102318 0.000754906 0.00138928)
(0.103363 0.000565154 0.00150293)
(0.104157 0.000854325 0.00146064)
(0.102358 0.000650277 0.0013544)
(0.103461 0.00048307 0.00147194)
(0.104323 0.000763642 0.00140368)
(0.102416 0.000533438 0.00132649)
(0.10356 0.000389485 0.00145668)
(0.104499 0.000671992 0.00135607)
(0.102492 0.000393042 0.00129864)
(0.103663 0.000276861 0.00145246)
(0.104688 0.000573078 0.00131195)
(0.102582 0.000213634 0.00126468)
(0.103766 0.000132253 0.00145892)
(0.10489 0.000457192 0.00126604)
(0.102674 -2.06938e-05 0.00122725)
(0.103863 -5.82988e-05 0.00147714)
(0.105103 0.000313046 0.00121587)
(0.102751 -0.000309988 0.00122671)
(0.103944 -0.000308564 0.00151264)
(0.105322 0.000129317 0.00116912)
(0.10414 -0.000602904 0.00160437)
(0.105639 -8.76648e-05 0.00118215)
(0.100243 0.000267373 0.00116238)
(0.100087 -3.55299e-08 0.000707009)
(0.100064 0.000135796 0.000537312)
(0.100782 0.000465661 0.00182619)
(0.100477 -1.0313e-07 0.00161776)
(0.100463 0.000370851 0.00142408)
(0.101401 0.000575381 0.0020761)
(0.101066 -1.80816e-07 0.00203462)
(0.101089 0.000525105 0.0019335)
(0.101988 0.000622623 0.00213384)
(0.101694 -3.32253e-07 0.00211762)
(0.101797 0.000605762 0.00212849)
(0.102507 0.000630581 0.00216492)
(0.102269 -6.12963e-07 0.00215026)
(0.102489 0.000639073 0.00221082)
(0.102935 0.000609392 0.00215693)
(0.102742 -1.06702e-06 0.00218005)
(0.10312 0.000633742 0.00224139)
(0.103278 0.00056971 0.00208933)
(0.103124 -1.75732e-06 0.00213462)
(0.103687 0.000600184 0.00219658)
(0.103556 0.000522673 0.00199024)
(0.103427 -2.87901e-06 0.00204533)
(0.104186 0.000553616 0.00210584)
(0.10379 0.000475783 0.00188367)
(0.103679 -4.83233e-06 0.00193713)