/*--------------------------------*- C++ -*----------------------------------*\
| =========                 |                                                 |
| \\      /  F ield         | OpenFOAM: The Open Source CFD Toolbox           |
|  \\    /   O peration     | Version:  2212                                  |
|   \\  /    A nd           | Website:  www.openfoam.com                      |
|    \\/     M anipulation  |                                                 |
\*---------------------------------------------------------------------------*/
FoamFile
{
    version     2.0;
    format      ascii;
    arch        "LSB;label=32;scalar=64";
    class       volScalarField;
    location    "2.55";
    object      k;
}
// * * * * * * * * * * * * * * * * * * * * * * * * * * * * * * * * * * * * * //

dimensions      [0 2 -2 0 0 0 0];

internalField   nonuniform List<scalar> 
680
(
0.00443044
0.00416517
0.00394344
0.00376378
0.00365681
0.00356211
0.00545473
0.00495618
0.004544
0.00420487
0.0039457
0.00377148
0.00629092
0.00568833
0.00518323
0.00475858
0.00440404
0.00412685
0.00703292
0.00633202
0.005741
0.00523919
0.00481246
0.0044761
0.00742671
0.00667787
0.00604378
0.00550209
0.00503962
0.00468777
0.00742464
0.00667451
0.00603846
0.0054937
0.00502559
0.00465431
0.00786816
0.00702857
0.00632523
0.0057304
0.00522259
0.00478823
0.00445578
0.00701017
0.0062868
0.00568195
0.00517324
0.00474281
0.00437912
0.00408932
0.00606312
0.00545259
0.00495258
0.00453754
0.00419245
0.00392083
0.00373031
0.00474806
0.00443038
0.0041651
0.00394335
0.00376367
0.0036567
0.00356186
0.00545266
0.00495271
0.00453768
0.00419258
0.003921
0.00373059
0.0102711
0.00908514
0.00809239
0.00725531
0.0065594
0.00588659
0.0126195
0.0111521
0.00992422
0.00888865
0.00801209
0.00726409
0.014242
0.0125755
0.0111766
0.0099925
0.00898222
0.00811527
0.0150851
0.0133148
0.0118255
0.0105611
0.00947823
0.00853993
0.0150823
0.0133106
0.0118192
0.0105519
0.00946513
0.00851739
0.0162414
0.0142363
0.012567
0.0111639
0.00997375
0.00895512
0.00807406
0.0143853
0.0126152
0.0111456
0.00991453
0.00887417
0.00799137
0.0072357
0.0117008
0.010271
0.00908494
0.00809215
0.00725503
0.00655902
0.00588597
0.0060645
0.00545467
0.00495608
0.00454386
0.00420469
0.00394544
0.00377108
0.00628691
0.00568206
0.00517334
0.00474289
0.00437923
0.00408946
0.0126153
0.0111458
0.00991472
0.00887433
0.00799157
0.00723601
0.0165884
0.0146329
0.012993
0.0116061
0.0104213
0.00936966
0.0191831
0.016917
0.015013
0.0134001
0.0120202
0.0108168
0.0205063
0.0180844
0.0160463
0.0143166
0.0128328
0.0115275
0.0205052
0.0180829
0.0160441
0.0143137
0.0128295
0.0115257
0.0219022
0.0191812
0.0169141
0.015009
0.0133944
0.0120111
0.0107905
0.0189407
0.0165883
0.0146328
0.0129929
0.0116059
0.0104212
0.00936935
0.0143882
0.0126195
0.011152
0.00992412
0.00888848
0.00801179
0.00726362
0.00701282
0.00629094
0.00568835
0.00518322
0.00475853
0.00440393
0.00412653
0.00702867
0.00632532
0.00573046
0.00522262
0.00478823
0.00445581
0.0142364
0.0125671
0.011164
0.00997376
0.00895504
0.00807385
0.0191812
0.0169142
0.0150091
0.0133944
0.0120111
0.0107906
0.0224676
0.0198159
0.0175824
0.0156858
0.0140573
0.0126224
0.024135
0.0212949
0.0188978
0.0168584
0.0151013
0.0135339
0.0241348
0.0212946
0.0188975
0.0168582
0.0151026
0.0135461
0.0256404
0.0224676
0.0198158
0.0175823
0.0156857
0.0140573
0.0126222
0.0219036
0.0191831
0.0169169
0.015013
0.0133999
0.01202
0.0108164
0.0162452
0.014242
0.0125756
0.0111766
0.00999245
0.00898207
0.00811504
0.007871
0.007033
0.0063321
0.00574106
0.00523923
0.0048125
0.00447615
0.00742461
0.00667448
0.00603843
0.00549363
0.0050255
0.00465413
0.0150823
0.0133106
0.0118192
0.0105518
0.00946488
0.00851696
0.0205052
0.0180828
0.0160441
0.0143137
0.0128294
0.0115255
0.0241348
0.0212946
0.0188975
0.0168582
0.0151026
0.0135461
0.0259743
0.0229319
0.0203579
0.0181638
0.0162705
0.0145876
0.0259743
0.0229318
0.0203579
0.0181638
0.0162705
0.0145875
0.0275247
0.024135
0.0212949
0.0188978
0.0168583
0.0151012
0.0135339
0.0234084
0.0205063
0.0180844
0.0160462
0.0143165
0.0128326
0.0115274
0.0172097
0.0150851
0.0133149
0.0118255
0.0105611
0.00947819
0.00853995
0.00831955
0.00742681
0.00667795
0.00604386
0.00550216
0.00503971
0.0046879
0.00742671
0.00667785
0.00604375
0.00550203
0.00503954
0.0046877
0.015085
0.0133148
0.0118254
0.010561
0.00947804
0.00853962
0.0205063
0.0180844
0.0160462
0.0143165
0.0128327
0.0115273
0.024135
0.0212949
0.0188978
0.0168584
0.0151012
0.0135339
0.0259743
0.0229319
0.0203579
0.0181638
0.0162706
0.0145876
0.0259743
0.0229318
0.0203579
0.0181638
0.0162706
0.0145876
0.0275246
0.0241348
0.0212946
0.0188975
0.0168582
0.0151026
0.0135462
0.0234076
0.0205052
0.0180828
0.0160441
0.0143137
0.0128295
0.0115257
0.0172077
0.0150823
0.0133106
0.0118192
0.0105519
0.00946515
0.00851707
0.00831817
0.00742462
0.0066745
0.00603847
0.00549372
0.00502564
0.00465436
0.00703292
0.00633202
0.005741
0.00523919
0.00481247
0.00447614
0.014242
0.0125755
0.0111766
0.0099925
0.00898222
0.00811548
0.0191831
0.016917
0.0150131
0.0134001
0.0120203
0.0108169
0.0224676
0.0198159
0.0175824
0.0156858
0.0140574
0.0126225
0.0241348
0.0212946
0.0188975
0.0168582
0.0151027
0.0135463
0.024135
0.0212949
0.0188978
0.0168584
0.0151012
0.0135338
0.0256404
0.0224676
0.0198159
0.0175823
0.0156858
0.0140573
0.0126224
0.0219022
0.0191812
0.0169142
0.0150091
0.0133944
0.0120113
0.0107908
0.0162414
0.0142363
0.012567
0.0111639
0.00997383
0.00895527
0.00807405
0.00786818
0.00702858
0.00632524
0.00573041
0.00522261
0.00478827
0.00445605
0.00629094
0.00568836
0.00518327
0.00475865
0.00440414
0.00412704
0.0126196
0.0111521
0.00992432
0.00888884
0.00801233
0.00726458
0.0165884
0.014633
0.0129931
0.0116063
0.0104216
0.00937008
0.0191813
0.0169143
0.0150092
0.0133946
0.0120114
0.0107908
0.0205052
0.0180829
0.0160441
0.0143137
0.0128295
0.0115256
0.0205063
0.0180844
0.0160462
0.0143165
0.0128326
0.0115272
0.0219036
0.0191831
0.016917
0.015013
0.0134
0.0120201
0.0108167
0.0189408
0.0165884
0.0146329
0.012993
0.0116061
0.0104214
0.00936975
0.0143853
0.0126152
0.0111456
0.00991464
0.00887433
0.00799155
0.00723587
0.00701019
0.00628682
0.00568197
0.00517327
0.00474284
0.00437918
0.0040894
0.00545476
0.00495623
0.00454408
0.00420499
0.00394586
0.00377179
0.0102712
0.00908526
0.00809259
0.00725561
0.00655979
0.00588724
0.0126154
0.0111459
0.00991486
0.00887454
0.00799186
0.0072365
0.0142364
0.0125672
0.011164
0.00997388
0.00895525
0.0080741
0.0150823
0.0133106
0.0118192
0.0105518
0.00946493
0.00851705
0.015085
0.0133147
0.0118254
0.010561
0.009478
0.00853952
0.0162452
0.014242
0.0125756
0.0111767
0.00999252
0.00898218
0.00811521
0.0143883
0.0126196
0.0111522
0.00992435
0.00888882
0.00801223
0.00726434
0.0117009
0.0102711
0.0090851
0.00809239
0.00725539
0.00655946
0.00588687
0.00606316
0.00545264
0.00495264
0.00453764
0.00419259
0.00392105
0.0037308
0.00443046
0.00416521
0.00394348
0.00376384
0.00365688
0.00356226
0.00545271
0.00495277
0.00453777
0.00419271
0.00392118
0.00373085
0.00628694
0.0056821
0.00517338
0.00474293
0.00437926
0.00408948
0.00702869
0.00632532
0.00573046
0.00522261
0.0047882
0.00445577
0.0074246
0.00667447
0.00603841
0.00549361
0.00502546
0.00465409
0.00742667
0.00667783
0.00604375
0.00550204
0.00503956
0.00468773
0.00787101
0.00703301
0.00633211
0.00574108
0.00523927
0.00481256
0.00447625
0.00701287
0.00629101
0.00568845
0.00518335
0.00475873
0.00440421
0.00412707
0.00606456
0.00545476
0.0049562
0.00454404
0.00420494
0.0039458
0.00377166
0.0047481
0.00443043
0.00416517
0.00394344
0.00376381
0.00365692
0.00356219
0.00481105
0.00411704
0.00350652
0.00315206
0.00386304
0.00344312
0.00309685
0.00285059
0.00370558
0.00345264
0.0032202
0.00423318
0.00373486
0.00328083
0.00293937
0.00416378
0.00376358
0.00339277
0.00312407
0.00574067
0.00514275
0.00467221
0.00422479
0.00375522
0.00339027
0.00544522
0.00498604
0.00454676
0.00754388
0.0068102
0.00618804
0.00411392
0.00378194
0.00349622
0.00675777
0.00607537
0.00550828
0.00867166
0.00793705
0.00726524
)
;

boundaryField
{
    inlet
    {
        type            fixedValue;
        value           nonuniform List<scalar> 0();
    }
    ami1
    {
        type            cyclicAMI;
        value           nonuniform List<scalar> 
100
(
0.0038888
0.00406018
0.00414738
0.00442638
0.00477312
0.00464261
0.00453373
0.0040555
0.0038302
0.00388854
0.00383048
0.00533496
0.00692622
0.00772511
0.00811186
0.00804199
0.00765328
0.00692168
0.0053345
0.00405964
0.00405579
0.00692181
0.00880219
0.0102568
0.0108917
0.0108993
0.0101736
0.00880183
0.00692571
0.00414597
0.00453411
0.007653
0.0101738
0.0119337
0.012743
0.0127832
0.0119333
0.0102562
0.00772551
0.00442618
0.00464286
0.00804139
0.0108991
0.0127834
0.0137664
0.0137662
0.0127428
0.0108918
0.00811173
0.00477319
0.00477318
0.00811159
0.0108914
0.0127429
0.0137663
0.0137663
0.0127835
0.0108995
0.0080407
0.00464293
0.00442646
0.00772566
0.0102568
0.011934
0.0127835
0.0127429
0.0119338
0.0101741
0.00765357
0.00453477
0.00414762
0.00692652
0.00880252
0.010174
0.0108993
0.0108914
0.0102567
0.0088023
0.00692174
0.00405579
0.0040608
0.00533562
0.00692257
0.00765343
0.00804169
0.00811153
0.00772509
0.00692642
0.00533547
0.00383128
0.00388918
0.00383081
0.00405588
0.00453411
0.00464281
0.00477319
0.00442654
0.00414755
0.00406038
0.00388945
)
;
    }
    walls
    {
        type            kqRWallFunction;
        value           nonuniform List<scalar> 
283
(
0.00474806
0.0060645
0.00701282
0.007871
0.00831955
0.00831817
0.00786818
0.00701019
0.00606316
0.0047481
0.00443038
0.00545467
0.00629094
0.007033
0.00742681
0.00742462
0.00702858
0.00628682
0.00545264
0.00443043
0.0041651
0.00495608
0.00568835
0.0063321
0.00667795
0.0066745
0.00632524
0.00568197
0.00495264
0.00416517
0.00394335
0.00454386
0.00518322
0.00574106
0.00604386
0.00603847
0.00573041
0.00517327
0.00453764
0.00394344
0.00376367
0.00420469
0.00475853
0.00523923
0.00550216
0.00549372
0.00522261
0.00474284
0.00419259
0.00376381
0.0036567
0.00394544
0.00440393
0.0048125
0.00503971
0.00502564
0.00478827
0.00437918
0.00392105
0.00365692
0.00356186
0.00377108
0.00412653
0.00447615
0.0046879
0.00465436
0.00445605
0.0040894
0.0037308
0.00356219
0.00786816
0.00701017
0.00606312
0.00474806
0.00443044
0.00545473
0.00629092
0.00703292
0.00742671
0.00742464
0.00702857
0.0062868
0.00545259
0.00443038
0.00416517
0.00495618
0.00568833
0.00633202
0.00667787
0.00667451
0.00632523
0.00568195
0.00495258
0.0041651
0.00394344
0.004544
0.00518323
0.005741
0.00604378
0.00603846
0.0057304
0.00517324
0.00453754
0.00394335
0.00376378
0.00420487
0.00475858
0.00523919
0.00550209
0.0054937
0.00522259
0.00474281
0.00419245
0.00376367
0.00365681
0.0039457
0.00440404
0.00481246
0.00503962
0.00502559
0.00478823
0.00437912
0.00392083
0.0036567
0.00356211
0.00377148
0.00412685
0.0044761
0.00468777
0.00465431
0.00445578
0.00408932
0.00373031
0.00356186
0.00443044
0.00545266
0.00628691
0.00702867
0.00742461
0.00742671
0.00703292
0.00629094
0.00545476
0.00443046
0.00416517
0.00495271
0.00568206
0.00632532
0.00667448
0.00667785
0.00633202
0.00568836
0.00495623
0.00416521
0.00394344
0.00453768
0.00517334
0.00573046
0.00603843
0.00604375
0.005741
0.00518327
0.00454408
0.00394348
0.00376378
0.00419258
0.00474289
0.00522262
0.00549363
0.00550203
0.00523919
0.00475865
0.00420499
0.00376384
0.00365681
0.003921
0.00437923
0.00478823
0.0050255
0.00503954
0.00481247
0.00440414
0.00394586
0.00365688
0.00356211
0.00373059
0.00408946
0.00445581
0.00465413
0.0046877
0.00447614
0.00412704
0.00377179
0.00356226
0.00787101
0.00701287
0.00606456
0.0047481
0.00443046
0.00545271
0.00628694
0.00702869
0.0074246
0.00742667
0.00703301
0.00629101
0.00545476
0.00443043
0.00416521
0.00495277
0.0056821
0.00632532
0.00667447
0.00667783
0.00633211
0.00568845
0.0049562
0.00416517
0.00394348
0.00453777
0.00517338
0.00573046
0.00603841
0.00604375
0.00574108
0.00518335
0.00454404
0.00394344
0.00376384
0.00419271
0.00474293
0.00522261
0.00549361
0.00550204
0.00523927
0.00475873
0.00420494
0.00376381
0.00365688
0.00392118
0.00437926
0.0047882
0.00502546
0.00503956
0.00481256
0.00440421
0.0039458
0.00365692
0.00356226
0.00373085
0.00408948
0.00445577
0.00465409
0.00468773
0.00447625
0.00412707
0.00377166
0.00356219
0.00481105
0.00386304
0.00370558
0.00411704
0.00344312
0.00345264
0.00350652
0.00309685
0.0032202
0.00315206
0.00285059
0.00481105
0.00423318
0.00422479
0.00411392
0.00411704
0.00373486
0.00375522
0.00378194
0.00350652
0.00328083
0.00339027
0.00349622
0.00315206
0.00293937
)
;
    }
    ami2
    {
        type            cyclicAMI;
        value           nonuniform List<scalar> 
12
(
0.00466217
0.00406803
0.00384519
0.00444632
0.00435761
0.00605378
0.00444012
0.00565202
0.00797499
0.00429028
0.00713702
0.00905581
)
;
    }
    outlet
    {
        type            zeroGradient;
    }
    procBoundary2to0
    {
        type            processor;
        value           nonuniform List<scalar> 
28
(
0.00293624
0.00268408
0.00303259
0.00402521
0.00365163
0.00303259
0.00339226
0.0026991
0.00308631
0.00290662
0.00428717
0.00419142
0.00674536
0.00610069
0.00428717
0.00555177
0.00308631
0.00419142
0.00887618
0.00805384
0.00565756
0.00733968
0.00324075
0.00503129
0.0104415
0.00948492
0.00666494
0.00865115
)
;
    }
    procBoundary2to1
    {
        type            processor;
        value           nonuniform List<scalar> 9(0.00411245 0.00381207 0.00354932 0.00729193 0.00661729 0.00602691 0.0097305 0.00881051 0.00802127);
    }
    procBoundary2to3
    {
        type            processor;
        value           nonuniform List<scalar> 
110
(
0.00474802
0.00606449
0.00701293
0.00787114
0.00831965
0.0083182
0.0083182
0.00887985
0.0078843
0.00680554
0.00512441
0.00606299
0.0117007
0.0143884
0.0162454
0.0172098
0.0172078
0.0172078
0.0186749
0.0165378
0.0134428
0.00680634
0.00701008
0.0143851
0.0189408
0.0219037
0.0234085
0.0234077
0.0234077
0.0251987
0.0217988
0.0165401
0.00788623
0.00786806
0.0162412
0.0219022
0.0256404
0.0275248
0.0275246
0.0275246
0.0294677
0.0251998
0.0186778
0.00888194
0.00831815
0.0172077
0.0234076
0.0275246
0.0295945
0.0295945
0.0295945
0.0316003
0.0269169
0.0197859
0.00939428
0.00831964
0.0172098
0.0234085
0.0275248
0.0295945
0.0295945
0.0295945
0.0316002
0.0269163
0.0197845
0.00939328
0.00787115
0.0162454
0.0219037
0.0256405
0.0275246
0.0275248
0.0275248
0.0294677
0.0251987
0.0186749
0.00887986
0.00701296
0.0143885
0.0189408
0.0219022
0.0234076
0.0234085
0.0234085
0.0251998
0.0217989
0.0165378
0.0078843
0.00606452
0.0117008
0.0143852
0.0162412
0.0172077
0.0172097
0.0172097
0.0186779
0.0165402
0.0134429
0.00680557
0.00474804
0.00606303
0.00701009
0.00786806
0.00831814
0.00831961
0.00831961
0.00888197
0.00788628
0.00680639
0.00512443
)
;
    }
}


// ************************************************************************* //
