/*--------------------------------*- C++ -*----------------------------------*\
| =========                 |                                                 |
| \\      /  F ield         | OpenFOAM: The Open Source CFD Toolbox           |
|  \\    /   O peration     | Version:  2212                                  |
|   \\  /    A nd           | Website:  www.openfoam.com                      |
|    \\/     M anipulation  |                                                 |
\*---------------------------------------------------------------------------*/
FoamFile
{
    version     2.0;
    format      ascii;
    arch        "LSB;label=32;scalar=64";
    class       surfaceScalarField;
    location    "2.55";
    object      phi;
}
// * * * * * * * * * * * * * * * * * * * * * * * * * * * * * * * * * * * * * //

dimensions      [0 3 -1 0 0 0 0];

oriented        oriented;

internalField   nonuniform List<scalar> 
1769
(
1.52504e-07
1.90379e-09
1.43236e-09
1.49642e-07
1.81415e-09
1.04817e-09
1.47385e-07
1.73909e-09
5.17417e-10
1.46981e-07
1.22494e-09
-8.21151e-10
1.50641e-07
9.14682e-12
-3.66856e-09
-1.34757e-08
-2.78226e-08
4.2443e-07
6.37751e-09
2.77933e-09
4.18088e-07
5.73174e-09
2.42469e-09
4.13307e-07
4.76669e-09
1.75379e-09
4.12229e-07
2.35144e-09
-4.924e-11
4.19739e-07
-2.58961e-09
-4.91134e-09
-1.52255e-08
-2.04331e-08
7.30649e-07
6.74209e-09
7.38249e-09
7.23883e-07
5.51324e-09
6.98467e-09
7.18594e-07
3.77222e-09
6.28327e-09
7.15211e-07
9.387e-10
4.79606e-09
7.14307e-07
-3.84601e-09
2.16052e-09
-1.26286e-08
-3.23855e-09
9.768e-07
3.87682e-09
9.34149e-09
9.70247e-07
2.7877e-09
9.27851e-09
9.63604e-07
1.2092e-09
9.20539e-09
9.56552e-07
-1.13639e-09
9.12752e-09
9.48301e-07
-4.72102e-09
9.12576e-09
-1.00245e-08
9.58463e-09
1.10622e-06
-6.73673e-10
1.00457e-08
1.09961e-06
-1.13151e-09
1.05312e-08
1.09138e-06
-1.92648e-09
1.13683e-08
1.08084e-06
-3.27162e-09
1.26726e-08
1.06745e-06
-5.66549e-09
1.43274e-08
-9.89442e-09
1.68937e-08
1.10447e-06
-4.77878e-09
1.03588e-08
1.09656e-06
-4.31796e-09
1.10947e-08
1.0861e-06
-3.84889e-09
1.23846e-08
1.07156e-06
-3.24978e-09
1.45177e-08
1.05097e-06
-2.47505e-09
1.73992e-08
-2.91453e-09
2.38448e-08
9.81373e-07
-7.74103e-09
9.73119e-09
9.7358e-07
-6.86025e-09
9.87407e-09
9.64772e-07
-5.76779e-09
1.02585e-08
9.54197e-07
-4.30682e-09
1.10327e-08
9.40555e-07
-1.98729e-09
1.23793e-08
9.22198e-07
1.61642e-09
1.42654e-08
5.58192e-09
2.14875e-08
7.37016e-07
-6.68554e-09
7.90309e-09
7.28343e-07
-5.99509e-09
7.80784e-09
7.19928e-07
-5.1405e-09
7.78771e-09
7.11674e-07
-3.88564e-09
7.83317e-09
7.03033e-07
-1.22249e-09
7.87641e-09
6.92248e-07
4.26943e-09
8.13177e-09
2.2405e-08
7.75324e-09
4.31188e-07
-1.73555e-09
3.20299e-09
4.23606e-07
-1.43218e-09
3.01944e-09
4.16665e-07
-1.04818e-09
2.84887e-09
4.10731e-07
-5.17532e-10
2.56566e-09
4.07211e-07
8.21049e-10
1.47697e-09
4.10007e-07
3.66895e-09
-2.19552e-09
2.78231e-08
-1.99708e-08
1.55839e-07
2.01901e-09
1.52503e-07
1.90422e-09
1.4964e-07
1.81484e-09
1.47382e-07
1.73995e-09
1.46977e-07
1.22591e-09
1.50636e-07
1.0676e-11
-1.34732e-08
4.2361e-07
3.01922e-09
5.99415e-09
4.16671e-07
2.84814e-09
5.13937e-09
4.1074e-07
2.56455e-09
3.88409e-09
4.07223e-07
1.47542e-09
1.22052e-09
4.10024e-07
-2.19781e-09
-4.27174e-09
-1.99759e-08
-2.24066e-08
8.07086e-07
5.37975e-09
4.96018e-09
8.03451e-07
4.77224e-09
4.1354e-09
8.00884e-07
3.91209e-09
2.97306e-09
7.98752e-07
2.43789e-09
1.12029e-09
7.93895e-07
-3.77777e-10
-1.87415e-09
-5.3518e-09
-6.61661e-09
1.11973e-06
6.14686e-09
8.30614e-09
1.11871e-06
5.15987e-09
7.61167e-09
1.11834e-06
3.88001e-09
6.68846e-09
1.11809e-06
2.11773e-09
5.36764e-09
1.11663e-06
-3.12932e-10
3.5556e-09
-3.61679e-09
1.81776e-09
1.35593e-06
3.79563e-09
1.1097e-08
1.35669e-06
2.87331e-09
1.08051e-08
1.35754e-06
1.67967e-09
1.05547e-08
1.35832e-06
1.17547e-10
1.03487e-08
1.35884e-06
-1.95699e-09
1.02522e-08
-4.26671e-09
1.06789e-08
1.47935e-06
-4.83274e-10
1.25884e-08
1.48075e-06
-7.59272e-10
1.27626e-08
1.48173e-06
-1.17573e-09
1.32479e-08
1.48218e-06
-1.77739e-09
1.41168e-08
1.48181e-06
-2.58749e-09
1.53228e-08
-3.39144e-09
1.68518e-08
1.47827e-06
-4.37836e-09
1.28904e-08
1.47914e-06
-3.81568e-09
1.32809e-08
1.47943e-06
-3.19001e-09
1.41095e-08
1.47913e-06
-2.45902e-09
1.54949e-08
1.47815e-06
-1.59925e-09
1.73946e-08
-6.73171e-10
1.941e-08
1.35395e-06
-6.92118e-09
1.18295e-08
1.35376e-06
-6.03203e-09
1.17168e-08
1.35338e-06
-5.00881e-09
1.18327e-08
1.35268e-06
-3.70581e-09
1.22455e-08
1.3515e-06
-1.91081e-09
1.30172e-08
1.34935e-06
7.23397e-10
1.40946e-08
4.86068e-09
1.5252e-08
1.12056e-06
-5.65121e-09
9.26334e-09
1.11845e-06
-4.95957e-09
8.85187e-09
1.11688e-06
-4.13611e-09
8.48429e-09
1.11589e-06
-2.97466e-09
8.08922e-09
1.11545e-06
-1.1225e-09
7.52687e-09
1.11596e-06
1.87167e-09
6.47972e-09
6.61175e-09
4.44055e-09
8.11624e-07
-3.05877e-09
5.91893e-09
8.07082e-07
-2.77899e-09
5.38058e-09
8.03446e-07
-2.42473e-09
4.77376e-09
8.00877e-07
-1.75406e-09
3.91386e-09
7.98742e-07
4.89659e-11
2.44006e-09
7.93883e-07
4.91071e-09
-3.75497e-10
2.0432e-08
-5.34642e-09
4.3168e-07
6.9244e-09
4.24426e-07
6.37973e-09
4.18082e-07
5.73406e-09
4.13298e-07
4.76917e-09
4.12219e-07
2.35443e-09
4.19725e-07
-2.58509e-09
-1.52214e-08
7.28349e-07
7.80678e-09
6.85858e-09
7.19936e-07
7.78588e-09
5.76578e-09
7.11686e-07
7.8303e-09
4.30411e-09
7.03051e-07
7.87207e-09
1.98363e-09
6.92276e-07
8.12521e-09
-1.62223e-09
7.7436e-09
-5.58565e-09
1.11845e-06
8.85112e-09
6.03154e-09
1.11688e-06
8.48239e-09
5.0071e-09
1.1159e-06
8.08629e-09
3.70284e-09
1.11546e-06
7.52319e-09
1.90664e-09
1.11597e-06
6.47552e-09
-7.29681e-10
4.43401e-09
-4.86962e-09
1.41758e-06
7.81921e-09
7.50718e-09
1.41979e-06
7.17213e-09
6.70583e-09
1.42229e-06
6.47888e-09
5.79888e-09
1.42477e-06
5.67947e-09
4.73297e-09
1.42655e-06
4.7409e-09
3.51007e-09
3.86606e-09
2.50807e-09
1.63638e-06
4.53676e-09
9.47823e-09
1.64141e-06
3.94701e-09
8.99872e-09
1.64659e-06
3.2891e-09
8.56199e-09
1.65193e-06
2.52444e-09
8.16517e-09
1.65745e-06
1.6385e-09
7.8362e-09
7.2776e-10
7.79613e-09
1.75123e-06
-1.92002e-10
1.07239e-08
1.75762e-06
-2.93926e-10
1.06098e-08
1.76391e-06
-4.30735e-10
1.0675e-08
1.77023e-06
-5.95931e-10
1.09238e-08
1.77663e-06
-7.5493e-10
1.1309e-08
-8.091e-10
1.17836e-08
1.75079e-06
-4.69909e-09
1.093e-08
1.75706e-06
-4.21076e-09
1.09285e-08
1.7633e-06
-3.70793e-09
1.1152e-08
1.76976e-06
-3.16702e-09
1.16011e-08
1.7768e-06
-2.58479e-09
1.21816e-08
-1.98438e-09
1.26922e-08
1.63088e-06
-8.27556e-09
1.02927e-08
1.6355e-06
-7.50821e-09
9.90699e-09
1.64017e-06
-6.70744e-09
9.66079e-09
1.64495e-06
-5.80122e-09
9.56e-09
1.64994e-06
-4.73624e-09
9.59717e-09
1.65527e-06
-3.51465e-09
9.69491e-09
-2.5156e-09
9.66474e-09
1.41574e-06
-8.92239e-09
8.47984e-09
1.41757e-06
-8.307e-09
7.82087e-09
1.41979e-06
-7.61277e-09
7.17427e-09
1.42229e-06
-6.68983e-09
6.48148e-09
1.42476e-06
-5.36946e-09
5.68234e-09
1.42654e-06
-3.55798e-09
4.7439e-09
-1.82243e-09
3.86999e-09
1.12141e-06
-7.6653e-09
7.0014e-09
1.11972e-06
-7.38347e-09
6.14914e-09
1.11871e-06
-6.98562e-09
5.16238e-09
1.11833e-06
-6.28411e-09
3.88273e-09
1.11808e-06
-4.79704e-09
2.12066e-09
1.11662e-06
-2.16187e-09
-3.09407e-10
3.23788e-09
-3.61026e-09
7.38392e-07
7.66963e-09
7.30644e-07
6.74467e-09
7.23876e-07
5.51652e-09
7.18585e-07
3.77609e-09
7.15199e-07
9.43284e-10
7.14291e-07
-3.83959e-09
-1.26208e-08
9.73586e-07
9.8726e-09
4.77682e-09
9.6478e-07
1.02562e-08
4.31555e-09
9.54209e-07
1.10291e-08
3.84574e-09
9.40574e-07
1.23733e-08
3.24573e-09
9.22226e-07
1.4256e-08
2.46935e-09
2.14773e-08
2.91073e-09
1.35377e-06
1.17154e-08
4.37698e-09
1.35339e-06
1.18302e-08
3.81341e-09
1.35269e-06
1.22417e-08
3.18664e-09
1.3515e-06
1.3012e-08
2.45424e-09
1.34935e-06
1.40878e-08
1.59255e-09
1.52451e-08
6.64961e-10
1.6355e-06
9.90525e-09
4.69772e-09
1.64017e-06
9.65847e-09
4.20878e-09
1.64495e-06
9.5571e-09
3.7052e-09
1.64994e-06
9.59385e-09
3.16333e-09
1.65527e-06
9.6915e-09
2.57986e-09
9.66192e-09
1.97766e-09
1.83683e-06
5.62983e-09
5.51364e-09
1.845e-06
5.32636e-09
5.15956e-09
1.85322e-06
5.06096e-09
4.83394e-09
1.86163e-06
4.82053e-09
4.52995e-09
1.87034e-06
4.56828e-09
4.25035e-09
4.28634e-09
4.07623e-09
1.94201e-06
-7.74458e-12
6.12071e-09
1.952e-06
-1.3272e-11
5.95311e-09
1.96189e-06
-2.18473e-11
5.87377e-09
1.97178e-06
-2.77583e-11
5.87845e-09
1.98174e-06
-3.06463e-11
5.95395e-09
-3.10543e-11
6.0586e-09
1.94196e-06
-5.51495e-09
6.20015e-09
1.95196e-06
-5.16125e-09
6.06703e-09
1.9619e-06
-4.83616e-09
6.02648e-09
1.97194e-06
-4.53286e-09
6.06595e-09
1.9822e-06
-4.2541e-09
6.15239e-09
-4.08079e-09
6.2071e-09
1.82858e-06
-1.00205e-08
5.98067e-09
1.83682e-06
-9.4794e-09
5.6321e-09
1.84499e-06
-9.00013e-09
5.32904e-09
1.85322e-06
-8.56379e-09
5.06399e-09
1.86162e-06
-8.1676e-09
4.82377e-09
1.87033e-06
-7.83963e-09
4.57144e-09
-7.8013e-09
4.28879e-09
1.63148e-06
-1.1455e-08
5.09324e-09
1.63638e-06
-1.1098e-08
4.53937e-09
1.64141e-06
-1.08059e-08
3.94999e-09
1.64659e-06
-1.05554e-08
3.29245e-09
1.65192e-06
-1.03496e-08
2.52807e-09
1.65744e-06
-1.02536e-08
1.64231e-09
-1.06836e-08
7.31615e-10
1.35533e-06
-9.43171e-09
4.56207e-09
1.35593e-06
-9.34192e-09
3.79886e-09
1.35668e-06
-9.27875e-09
2.87701e-09
1.35753e-06
-9.20535e-09
1.68397e-09
1.35831e-06
-9.12703e-09
1.21994e-10
1.35882e-06
-9.12518e-09
-1.95155e-09
-9.58516e-09
-4.25966e-09
9.83272e-07
4.66713e-09
9.76795e-07
3.87975e-09
9.70241e-07
2.79161e-09
9.63597e-07
1.21437e-09
9.56543e-07
-1.12971e-09
9.48291e-07
-4.71258e-09
-1.00124e-08
1.10447e-06
1.03572e-08
6.72045e-10
1.09657e-06
1.10922e-08
1.12943e-09
1.08611e-06
1.23807e-08
1.92387e-09
1.07157e-06
1.45112e-08
3.26844e-09
1.05099e-06
1.73881e-08
5.66159e-09
2.38347e-08
9.88996e-09
1.47827e-06
1.28885e-08
4.81634e-10
1.47914e-06
1.32782e-08
7.57111e-10
1.47943e-06
1.41056e-08
1.17295e-09
1.47913e-06
1.54896e-08
1.774e-09
1.47814e-06
1.73881e-08
2.58375e-09
1.94056e-08
3.38851e-09
1.75079e-06
1.09282e-08
1.90526e-10
1.75706e-06
1.09262e-08
2.92069e-10
1.7633e-06
1.11493e-08
4.2845e-10
1.76976e-06
1.1598e-08
5.93326e-10
1.77679e-06
1.21787e-08
7.52375e-10
1.26908e-08
8.07548e-10
1.94196e-06
6.19818e-09
6.52361e-12
1.95197e-06
6.06471e-09
1.17428e-11
1.9619e-06
6.02387e-09
1.99729e-11
1.97194e-06
6.06317e-09
2.55463e-11
1.9822e-06
6.14971e-09
2.83301e-11
6.20502e-09
2.86554e-11
2.04142e-06
1.31601e-11
-1.39452e-11
2.05344e-06
1.76759e-11
-1.87062e-11
2.06534e-06
2.14111e-11
-2.27624e-11
2.07728e-06
2.26146e-11
-2.43625e-11
2.08939e-06
1.90022e-11
-2.12573e-11
1.25557e-11
-1.48729e-11
2.04142e-06
-6.12162e-09
1.54209e-11
2.05344e-06
-5.9543e-09
2.03248e-11
2.06534e-06
-5.87538e-09
2.44482e-11
2.07728e-06
-5.88066e-09
2.59785e-11
2.08939e-06
-5.95688e-09
2.265e-11
-6.06193e-09
1.5881e-11
1.93177e-06
-1.10043e-08
-3.47025e-12
1.94201e-06
-1.07246e-08
-4.8949e-12
1.952e-06
-1.06106e-08
-9.94032e-12
1.96188e-06
-1.06759e-08
-1.80139e-11
1.97177e-06
-1.09252e-08
-2.34789e-11
1.98173e-06
-1.13109e-08
-2.62133e-11
-1.17863e-08
-2.66685e-11
1.74463e-06
-1.26217e-08
-1.23382e-10
1.75122e-06
-1.25888e-08
-1.88692e-10
1.75761e-06
-1.27625e-08
-2.90042e-10
1.7639e-06
-1.32472e-08
-4.26279e-10
1.77021e-06
-1.41157e-08
-5.91023e-10
1.77662e-06
-1.53212e-08
-7.49991e-10
-1.68486e-08
-8.04902e-10
1.47761e-06
-9.78382e-09
-3.0189e-10
1.47934e-06
-1.00454e-08
-4.794e-10
1.48074e-06
-1.05303e-08
-7.54513e-10
1.48172e-06
-1.13664e-08
-1.16998e-09
1.48216e-06
-1.26696e-08
-1.77074e-09
1.48179e-06
-1.43224e-08
-2.58069e-09
-1.68845e-08
-3.38671e-09
1.11171e-06
-3.98865e-10
1.10622e-06
-6.70263e-10
1.09961e-06
-1.12687e-09
1.09137e-06
-1.91979e-09
1.08084e-06
-3.26267e-09
1.06746e-06
-5.65343e-09
-9.87775e-09
1.10622e-06
1.00444e-08
-3.87826e-09
1.09961e-06
1.0529e-08
-2.7896e-09
1.09138e-06
1.13646e-08
-1.21166e-09
1.08085e-06
1.26666e-08
1.13308e-09
1.06748e-06
1.43177e-08
4.71667e-09
1.68819e-08
1.00182e-08
1.47935e-06
1.25868e-08
-3.79719e-09
1.48075e-06
1.27603e-08
-2.87539e-09
1.48173e-06
1.32445e-08
-1.68239e-09
1.48218e-06
1.41121e-08
-1.2051e-10
1.48181e-06
1.53168e-08
1.95385e-09
1.68466e-08
4.2663e-09
1.75123e-06
1.07223e-08
-4.5382e-09
1.75762e-06
1.06078e-08
-3.94887e-09
1.76391e-06
1.06725e-08
-3.29142e-09
1.77022e-06
1.09209e-08
-2.52702e-09
1.77663e-06
1.13057e-08
-1.64064e-09
1.17802e-08
-7.26974e-10
1.94201e-06
6.11912e-09
-5.63088e-09
1.952e-06
5.95124e-09
-5.32772e-09
1.96189e-06
5.87162e-09
-5.06263e-09
1.97178e-06
5.87602e-09
-4.82242e-09
1.98173e-06
5.95127e-09
-4.57012e-09
6.05578e-09
-4.28753e-09
2.04142e-06
-1.56166e-11
-6.19876e-09
2.05344e-06
-2.06497e-11
-6.06548e-09
2.06534e-06
-2.50018e-11
-6.02486e-09
2.07728e-06
-2.69089e-11
-6.06441e-09
2.08939e-06
-2.41794e-11
-6.1512e-09
-1.80081e-11
-6.20656e-09
2.04142e-06
-6.20048e-09
-6.11909e-09
2.05344e-06
-6.06752e-09
-5.95125e-09
2.06534e-06
-6.02731e-09
-5.87171e-09
2.07728e-06
-6.06735e-09
-5.87632e-09
2.08938e-06
-6.15464e-09
-5.95202e-09
-6.21027e-09
-6.05722e-09
1.93172e-06
-1.11361e-08
-5.90089e-09
1.94195e-06
-1.093e-08
-5.51179e-09
1.95196e-06
-1.09285e-08
-5.15737e-09
1.9619e-06
-1.11522e-08
-4.83139e-09
1.97194e-06
-1.16018e-08
-4.52711e-09
1.98219e-06
-1.21834e-08
-4.24744e-09
-1.26962e-08
-4.07358e-09
1.74432e-06
-1.28103e-08
-5.19104e-09
1.75079e-06
-1.28895e-08
-4.69545e-09
1.75706e-06
-1.32796e-08
-4.20621e-09
1.76329e-06
-1.41074e-08
-3.70236e-09
1.76975e-06
-1.5492e-08
-3.16041e-09
1.77678e-06
-1.73916e-08
-2.57765e-09
-1.94099e-08
-1.97743e-09
1.47691e-06
-9.95901e-09
-4.91867e-09
1.47827e-06
-1.03574e-08
-4.37426e-09
1.47914e-06
-1.10923e-08
-3.81023e-09
1.47942e-06
-1.23807e-08
-3.18275e-09
1.47912e-06
-1.45109e-08
-2.44956e-09
1.47812e-06
-1.73872e-08
-1.58855e-09
-2.38321e-08
-6.67807e-10
1.11072e-06
-5.2143e-09
1.10447e-06
-4.77497e-09
1.09656e-06
-4.31281e-09
1.0861e-06
-3.84094e-09
1.07157e-06
-3.23837e-09
1.05099e-06
-2.45803e-09
-2.89733e-09
9.76801e-07
9.34031e-09
-6.74312e-09
9.7025e-07
9.27673e-09
-5.5146e-09
9.63609e-07
9.20266e-09
-3.77406e-09
9.56561e-07
9.12331e-09
-9.41765e-10
9.48317e-07
9.11912e-09
3.84059e-09
9.57299e-09
1.26178e-08
1.35593e-06
1.10957e-08
-6.14802e-09
1.35669e-06
1.08035e-08
-5.16165e-09
1.35754e-06
1.05527e-08
-3.88268e-09
1.35832e-06
1.0346e-08
-2.12134e-09
1.35884e-06
1.02482e-08
3.07754e-10
1.06704e-08
3.61332e-09
1.63638e-06
9.47721e-09
-7.82034e-09
1.64141e-06
8.99759e-09
-7.17383e-09
1.64659e-06
8.56072e-09
-6.48135e-09
1.65193e-06
8.16363e-09
-5.68284e-09
1.65745e-06
7.83399e-09
-4.74511e-09
7.79138e-09
-3.86833e-09
1.83683e-06
5.51265e-09
-9.90606e-09
1.845e-06
5.15845e-09
-9.65962e-09
1.85322e-06
4.83269e-09
-9.55869e-09
1.86163e-06
4.52843e-09
-9.59594e-09
1.87034e-06
4.24829e-09
-9.694e-09
4.07311e-09
-9.66431e-09
1.94196e-06
5.49753e-12
-1.09285e-08
1.95196e-06
1.06188e-11
-1.09267e-08
1.9619e-06
1.86983e-11
-1.11499e-08
1.97194e-06
2.39951e-11
-1.15989e-08
1.98219e-06
2.62344e-11
-1.21798e-08
2.57444e-11
-1.26924e-08
1.94201e-06
-5.63177e-09
-1.07221e-08
1.952e-06
-5.32871e-09
-1.06075e-08
1.96189e-06
-5.0638e-09
-1.06721e-08
1.97178e-06
-4.82398e-09
-1.09205e-08
1.98173e-06
-4.57245e-09
-1.13055e-08
-4.29095e-09
-1.17813e-08
1.82858e-06
-1.02923e-08
-1.0018e-08
1.83682e-06
-9.90646e-09
-9.47634e-09
1.84499e-06
-9.66012e-09
-8.99621e-09
1.85322e-06
-9.55932e-09
-8.55872e-09
1.86162e-06
-9.59693e-09
-8.16106e-09
1.87033e-06
-9.69634e-09
-7.83139e-09
-9.66975e-09
-7.79126e-09
1.63088e-06
-1.18286e-08
-8.27296e-09
1.6355e-06
-1.17154e-08
-7.50482e-09
1.64017e-06
-1.18305e-08
-6.70301e-09
1.64494e-06
-1.22421e-08
-5.79542e-09
1.64993e-06
-1.30124e-08
-4.72867e-09
1.65525e-06
-1.40903e-08
-3.50533e-09
-1.52605e-08
-2.50388e-09
1.35395e-06
-9.73028e-09
-6.91857e-09
1.35376e-06
-9.8724e-09
-6.02844e-09
1.35338e-06
-1.02555e-08
-5.00377e-09
1.35268e-06
-1.10273e-08
-3.6986e-09
1.35149e-06
-1.23693e-08
-1.90063e-09
1.34933e-06
-1.42503e-08
7.36933e-10
-2.14819e-08
4.86241e-09
9.81377e-07
-7.73864e-09
9.73586e-07
-6.85701e-09
9.64781e-07
-5.76332e-09
9.54212e-07
-4.29961e-09
9.40581e-07
-1.97628e-09
9.22236e-07
1.6367e-09
5.60282e-09
7.3065e-07
7.38155e-09
-6.3779e-09
7.23884e-07
6.98347e-09
-5.73226e-09
7.18596e-07
6.28173e-09
-4.76748e-09
7.15213e-07
4.79409e-09
-2.35306e-09
7.14308e-07
2.15818e-09
2.58703e-09
-3.24121e-09
1.52172e-08
1.11973e-06
8.30546e-09
-5.38026e-09
1.11871e-06
7.61121e-09
-4.77319e-09
1.11833e-06
6.6884e-09
-3.91369e-09
1.11808e-06
5.36798e-09
-2.44062e-09
1.11661e-06
3.55704e-09
3.72934e-10
1.81781e-09
5.34382e-09
1.41758e-06
7.50686e-09
-8.85165e-09
1.41979e-06
6.70581e-09
-8.48329e-09
1.42229e-06
5.79936e-09
-8.08782e-09
1.42476e-06
4.73415e-09
-7.52597e-09
1.42654e-06
3.5121e-09
-6.48017e-09
2.5094e-09
-4.43923e-09
1.6355e-06
4.69744e-09
-1.17158e-08
1.64017e-06
4.20866e-09
-1.18309e-08
1.64495e-06
3.7053e-09
-1.22429e-08
1.64994e-06
3.16362e-09
-1.30139e-08
1.65527e-06
2.58005e-09
-1.40908e-08
1.9769e-09
-1.52496e-08
1.75079e-06
1.90248e-10
-1.28887e-08
1.75706e-06
2.91924e-10
-1.32785e-08
1.76329e-06
4.28469e-10
-1.4106e-08
1.76976e-06
5.93394e-10
-1.54901e-08
1.77679e-06
7.52112e-10
-1.73888e-08
8.06148e-10
-1.94067e-08
1.75123e-06
-4.53841e-09
-1.25867e-08
1.75762e-06
-3.9488e-09
-1.276e-08
1.76391e-06
-3.29102e-09
-1.3244e-08
1.77022e-06
-2.52644e-09
-1.41114e-08
1.77663e-06
-1.64051e-09
-1.5316e-08
-7.29356e-10
-1.68467e-08
1.63148e-06
-8.47926e-09
-1.14531e-08
1.63638e-06
-7.82011e-09
-1.10955e-08
1.64141e-06
-7.17327e-09
-1.08026e-08
1.64659e-06
-6.4802e-09
-1.0551e-08
1.65193e-06
-5.68094e-09
-1.03434e-08
1.65745e-06
-4.74332e-09
-1.0245e-08
-3.87071e-09
-1.06709e-08
1.41575e-06
-9.26261e-09
-8.92041e-09
1.41758e-06
-8.85059e-09
-8.30444e-09
1.41979e-06
-8.4821e-09
-7.60937e-09
1.42229e-06
-8.08559e-09
-6.68524e-09
1.42476e-06
-7.52121e-09
-5.3628e-09
1.42654e-06
-6.47394e-09
-3.54868e-09
-4.44658e-09
-1.80773e-09
1.12057e-06
-7.90242e-09
-5.64954e-09
1.11845e-06
-7.80653e-09
-4.9573e-09
1.11689e-06
-7.78518e-09
-4.13297e-09
1.1159e-06
-7.82818e-09
-2.97007e-09
1.11546e-06
-7.86694e-09
-1.11549e-09
1.11596e-06
-8.11584e-09
1.88018e-09
-7.74033e-09
6.61923e-09
7.37021e-07
-6.68409e-09
7.2835e-07
-5.99312e-09
7.19939e-07
-5.13786e-09
7.11693e-07
-3.88156e-09
7.03066e-07
-1.21597e-09
6.92308e-07
4.27907e-09
2.24183e-08
4.24431e-07
2.77892e-09
-1.90389e-09
4.18089e-07
2.42424e-09
-1.81434e-09
4.13307e-07
1.7533e-09
-1.73947e-09
4.12229e-07
-4.96672e-11
-1.22568e-09
4.19738e-07
-4.91168e-09
-1.00109e-11
-2.04305e-08
1.34734e-08
8.07085e-07
4.95995e-09
-3.01926e-09
8.03449e-07
4.13541e-09
-2.84824e-09
8.00879e-07
2.97356e-09
-2.5647e-09
7.98743e-07
1.1221e-09
-1.4759e-09
7.93878e-07
-1.86983e-09
2.19617e-09
-6.60868e-09
1.99688e-08
1.11845e-06
6.03156e-09
-7.80673e-09
1.11688e-06
5.00742e-09
-7.78586e-09
1.11589e-06
3.70378e-09
-7.83053e-09
1.11545e-06
1.90878e-09
-7.87304e-09
1.11596e-06
-7.25224e-10
-8.12804e-09
-4.86347e-09
-7.75029e-09
1.35376e-06
4.3771e-09
-9.87266e-09
1.35338e-06
3.81381e-09
-1.02564e-08
1.35269e-06
3.18752e-09
-1.10296e-08
1.3515e-06
2.45587e-09
-1.23747e-08
1.34935e-06
1.59516e-09
-1.42586e-08
6.68347e-10
-2.14818e-08
1.47827e-06
4.81781e-10
-1.03572e-08
1.47914e-06
7.5755e-10
-1.10924e-08
1.47943e-06
1.17382e-09
-1.23811e-08
1.47913e-06
1.77539e-09
-1.4512e-08
1.47815e-06
2.58556e-09
-1.73897e-08
3.38994e-09
-2.38358e-08
1.47935e-06
-3.79721e-09
-1.00443e-08
1.48075e-06
-2.87489e-09
-1.05289e-08
1.48173e-06
-1.68122e-09
-1.13645e-08
1.48218e-06
-1.18718e-10
-1.26665e-08
1.48181e-06
1.95636e-09
-1.43179e-08
4.26679e-09
-1.68814e-08
1.35534e-06
-7.00061e-09
-9.43052e-09
1.35593e-06
-6.14818e-09
-9.34025e-09
1.35669e-06
-5.1612e-09
-9.27643e-09
1.35754e-06
-3.88125e-09
-9.2021e-09
1.35832e-06
-2.11849e-09
-9.12233e-09
1.35884e-06
3.12526e-10
-9.11759e-09
3.61664e-09
-9.57326e-09
1.12142e-06
-5.91842e-09
-7.66408e-09
1.11973e-06
-5.37988e-09
-7.38178e-09
1.11871e-06
-4.77269e-09
-6.98326e-09
1.11834e-06
-3.9121e-09
-6.28084e-09
1.11809e-06
-2.43659e-09
-4.79225e-09
1.11663e-06
3.80284e-10
-2.15477e-09
5.35844e-09
3.24608e-09
8.11628e-07
-3.20268e-09
-3.05822e-09
8.07088e-07
-3.01893e-09
-2.77825e-09
8.03454e-07
-2.84797e-09
-2.42375e-09
8.00889e-07
-2.56396e-09
-1.75256e-09
7.98759e-07
-1.47322e-09
5.11282e-11
7.93903e-07
2.20226e-09
4.91352e-09
1.9989e-08
2.04342e-08
4.31192e-07
-1.73504e-09
4.23611e-07
-1.43153e-09
4.16673e-07
-1.04748e-09
4.10744e-07
-5.16685e-10
4.07233e-07
8.22243e-10
4.10045e-07
3.66884e-09
2.78237e-08
1.52504e-07
1.43223e-09
1.49642e-07
1.04804e-09
1.47385e-07
5.17214e-10
1.46981e-07
-8.21305e-10
1.50639e-07
-3.66868e-09
-2.78187e-08
4.23611e-07
5.99398e-09
4.16671e-07
5.13915e-09
4.1074e-07
3.88395e-09
4.07222e-07
1.22078e-09
4.1002e-07
-4.27041e-09
-2.24003e-08
7.28349e-07
6.85856e-09
7.19936e-07
5.76588e-09
7.11685e-07
4.30453e-09
7.03048e-07
1.9847e-09
6.92269e-07
-1.61936e-09
-5.58013e-09
9.73586e-07
4.777e-09
9.64779e-07
4.31599e-09
9.54208e-07
3.84668e-09
9.4057e-07
3.24732e-09
9.2222e-07
2.47223e-09
2.91461e-09
1.10447e-06
6.7245e-10
1.09657e-06
1.13019e-09
1.08611e-06
1.92513e-09
1.07157e-06
3.27029e-09
1.05099e-06
5.66434e-09
9.89415e-09
1.10622e-06
-3.87775e-09
1.09961e-06
-2.7888e-09
1.09139e-06
-1.21041e-09
1.08085e-06
1.13514e-09
1.06748e-06
4.71978e-09
1.00234e-08
9.83278e-07
-7.66863e-09
9.76803e-07
-6.74316e-09
9.70253e-07
-5.51442e-09
9.63613e-07
-3.7734e-09
9.56566e-07
-9.40153e-10
9.48325e-07
3.84365e-09
1.26237e-08
7.38399e-07
-6.92383e-09
7.30652e-07
-6.37886e-09
7.23888e-07
-5.7328e-09
7.186e-07
-4.76714e-09
7.15219e-07
-2.35156e-09
7.14319e-07
2.58973e-09
1.52244e-08
4.31684e-07
-2.01906e-09
4.24432e-07
-1.90421e-09
4.1809e-07
-1.81473e-09
4.13309e-07
-1.73939e-09
4.12234e-07
-1.22478e-09
4.19745e-07
-7.77277e-12
1.34778e-08
1.55841e-07
1.52505e-07
1.49643e-07
1.47387e-07
1.46984e-07
1.50645e-07
1.32564e-07
-1.04504e-08
5.89519e-08
1.05518e-07
-2.13924e-08
4.84387e-08
9.27553e-08
-2.89249e-08
4.16876e-08
-3.2072e-08
3.86373e-08
3.21922e-07
-3.64299e-08
5.95786e-08
2.87683e-07
-4.21188e-08
5.49656e-08
2.66459e-07
-5.22529e-08
4.45526e-08
3.79735e-08
4.94835e-07
3.55782e-08
4.87983e-07
3.84395e-08
3.54211e-08
3.53686e-07
4.51807e-09
9.71117e-08
3.10143e-07
-7.9065e-10
9.27717e-08
2.79049e-07
-1.0689e-08
8.34713e-08
-1.82888e-08
6.22996e-07
-2.78788e-08
8.55599e-08
6.18068e-07
-2.67098e-08
8.58118e-08
6.05379e-07
-3.24819e-08
7.90351e-08
8.45867e-07
6.07492e-08
8.5219e-07
6.28971e-08
6.16061e-08
5.75421e-07
1.0261e-09
1.17858e-07
5.44723e-07
3.42741e-09
1.20041e-07
-8.76818e-10
1.14762e-07
8.63348e-07
-2.56765e-08
1.01225e-07
8.7075e-07
-2.17702e-08
1.03607e-07
-2.22904e-08
1.01879e-07
1.11271e-06
8.01519e-08
1.11684e-06
8.14461e-08
8.08063e-08
7.19246e-07
-4.34559e-09
7.08322e-07
-2.24168e-10
-1.04072e-10
1.04798e-06
-1.7137e-08
1.0518e-06
-1.44755e-08
-1.37013e-08
1.29118e-06
1.29836e-06
)
;

boundaryField
{
    inlet
    {
        type            calculated;
        value           nonuniform List<scalar> 0();
    }
    ami1
    {
        type            cyclicAMI;
        value           nonuniform List<scalar> 
100
(
1.91939e-07
4.41922e-07
7.14948e-07
9.36112e-07
1.05043e-06
1.02014e-06
8.92215e-07
6.67672e-07
4.2456e-07
1.91932e-07
4.24584e-07
7.65455e-07
1.10984e-06
1.35839e-06
1.48098e-06
1.47987e-06
1.35005e-06
1.11752e-06
7.65439e-07
4.41905e-07
6.67712e-07
1.11753e-06
1.42643e-06
1.66347e-06
1.78324e-06
1.7847e-06
1.66139e-06
1.42642e-06
1.10982e-06
7.14928e-07
8.92252e-07
1.35005e-06
1.66138e-06
1.87943e-06
1.99178e-06
1.99273e-06
1.87943e-06
1.66346e-06
1.35837e-06
9.36097e-07
1.02018e-06
1.47985e-06
1.78468e-06
1.99273e-06
2.10165e-06
2.10165e-06
1.99177e-06
1.78322e-06
1.48096e-06
1.05044e-06
1.05047e-06
1.48096e-06
1.78323e-06
1.99177e-06
2.10165e-06
2.10165e-06
1.99272e-06
1.78467e-06
1.47983e-06
1.02017e-06
9.36144e-07
1.35839e-06
1.66347e-06
1.87943e-06
1.99273e-06
1.99177e-06
1.87943e-06
1.66137e-06
1.35002e-06
8.92254e-07
7.1495e-07
1.10983e-06
1.42642e-06
1.66138e-06
1.78468e-06
1.78323e-06
1.66347e-06
1.42642e-06
1.1175e-06
6.67752e-07
4.41912e-07
7.65431e-07
1.11752e-06
1.35005e-06
1.47985e-06
1.48097e-06
1.35839e-06
1.10983e-06
7.65458e-07
4.24629e-07
1.91931e-07
4.2457e-07
6.67698e-07
8.92244e-07
1.02017e-06
1.05047e-06
9.36151e-07
7.14964e-07
4.41926e-07
1.91947e-07
)
;
    }
    walls
    {
        type            calculated;
        value           nonuniform List<scalar> 
283
(
0
0
0
0
0
0
0
0
0
0
0
0
0
0
0
0
0
0
0
0
0
0
0
0
0
0
0
0
0
0
0
0
0
0
0
0
0
0
0
0
0
0
0
0
0
0
0
0
0
0
0
0
0
0
0
0
0
0
0
0
0
0
0
0
0
0
0
0
0
0
0
0
0
0
0
0
0
0
0
0
0
0
0
0
0
0
0
0
0
0
0
0
0
0
0
0
0
0
0
0
0
0
0
0
0
0
0
0
0
0
0
0
0
0
0
0
0
0
0
0
0
0
0
0
0
0
0
0
0
0
0
0
0
0
0
0
0
0
0
0
0
0
0
0
0
0
0
0
0
0
0
0
0
0
0
0
0
0
0
0
0
0
0
0
0
0
0
0
0
0
0
0
0
0
0
0
0
0
0
0
0
0
0
0
0
0
0
0
0
0
0
0
0
0
0
0
0
0
0
0
0
0
0
0
0
0
0
0
0
0
0
0
0
0
0
0
0
0
0
0
0
0
0
0
0
0
0
0
0
0
0
0
0
0
0
0
0
0
0
0
0
0
0
0
0
0
0
0
0
0
0
0
0
0
0
0
0
0
2.90979e-14
2.43942e-14
1.84387e-14
2.90979e-14
2.43942e-14
1.84387e-14
2.90979e-14
2.43942e-14
1.84387e-14
2.90979e-14
2.43942e-14
-2.90979e-14
-2.43942e-14
-1.84387e-14
-1.28555e-14
-2.90979e-14
-2.43942e-14
-1.84387e-14
-1.28555e-14
-2.90979e-14
-2.43942e-14
-1.84387e-14
-1.28555e-14
-2.90979e-14
-2.43942e-14
)
;
    }
    ami2
    {
        type            cyclicAMI;
        value           nonuniform List<scalar> 
12
(
-1.81065e-07
-3.55521e-07
-4.90619e-07
-3.96364e-07
-6.1658e-07
-8.38448e-07
-5.97194e-07
-8.5231e-07
-1.11131e-06
-7.25262e-07
-1.04574e-06
-1.28542e-06
)
;
    }
    outlet
    {
        type            calculated;
        value           nonuniform List<scalar> 0();
    }
    procBoundary2to0
    {
        type            processor;
        value           nonuniform List<scalar> 
28
(
8.61904e-08
2.54961e-07
-5.85475e-08
-7.6224e-08
-7.37055e-08
4.78538e-07
-7.82291e-08
2.59413e-07
7.65618e-08
5.91788e-07
-3.89914e-08
7.2267e-08
-6.04689e-08
-5.7491e-08
8.52562e-07
-5.90388e-08
5.14309e-07
8.6932e-07
-4.64793e-08
-4.44488e-08
1.11984e-06
-4.44968e-08
6.93555e-07
1.053e-06
-3.12776e-08
-2.99732e-08
1.30438e-06
-2.92077e-08
)
;
    }
    procBoundary2to1
    {
        type            processor;
        value           nonuniform List<scalar> 9(1.2822e-07 1.3119e-07 1.29633e-07 1.1178e-07 1.14033e-07 1.14279e-07 8.85385e-08 8.97624e-08 9.02936e-08);
    }
    procBoundary2to3
    {
        type            processor;
        value           nonuniform List<scalar> 
110
(
-1.5584e-07
-4.31683e-07
-7.38396e-07
-9.83276e-07
-1.11172e-06
-1.11072e-06
5.21718e-09
-9.8858e-07
-7.45975e-07
-4.39341e-07
-1.59593e-07
-4.31191e-07
-8.11628e-07
-1.12142e-06
-1.35534e-06
-1.47761e-06
-1.47691e-06
4.92174e-09
-1.35405e-06
-1.1232e-06
-8.16932e-07
-4.39644e-07
-7.3702e-07
-1.12057e-06
-1.41575e-06
-1.63148e-06
-1.74463e-06
-1.74432e-06
5.19389e-09
-1.62626e-06
-1.41431e-06
-1.12375e-06
-7.46803e-07
-9.81377e-07
-1.35395e-06
-1.63089e-06
-1.82859e-06
-1.93177e-06
-1.93172e-06
5.90344e-09
-1.82015e-06
-1.62665e-06
-1.35492e-06
-9.89702e-07
-1.11073e-06
-1.47691e-06
-1.74433e-06
-1.93172e-06
-2.0291e-06
-2.0291e-06
6.37596e-09
-1.92115e-06
-1.7378e-06
-1.47558e-06
-1.11643e-06
-1.11172e-06
-1.47761e-06
-1.74463e-06
-1.93177e-06
-2.0291e-06
-2.0291e-06
6.42838e-09
-1.92111e-06
-1.73758e-06
-1.47514e-06
-1.11587e-06
-9.83277e-07
-1.35534e-06
-1.63148e-06
-1.82859e-06
-1.93172e-06
-1.93177e-06
5.98038e-09
-1.82016e-06
-1.62626e-06
-1.35405e-06
-9.88583e-07
-7.38397e-07
-1.12142e-06
-1.41575e-06
-1.63088e-06
-1.74433e-06
-1.74463e-06
5.09248e-09
-1.62666e-06
-1.41432e-06
-1.1232e-06
-7.45978e-07
-4.31684e-07
-8.11627e-07
-1.12057e-06
-1.35395e-06
-1.47691e-06
-1.47762e-06
4.56081e-09
-1.35492e-06
-1.12376e-06
-8.16935e-07
-4.39344e-07
-1.5584e-07
-4.31192e-07
-7.3702e-07
-9.81377e-07
-1.11073e-06
-1.11172e-06
4.66574e-09
-9.89706e-07
-7.46807e-07
-4.39648e-07
-1.59595e-07
)
;
    }
}


// ************************************************************************* //
