/*--------------------------------*- C++ -*----------------------------------*\
| =========                 |                                                 |
| \\      /  F ield         | OpenFOAM: The Open Source CFD Toolbox           |
|  \\    /   O peration     | Version:  2212                                  |
|   \\  /    A nd           | Website:  www.openfoam.com                      |
|    \\/     M anipulation  |                                                 |
\*---------------------------------------------------------------------------*/
FoamFile
{
    version     2.0;
    format      ascii;
    arch        "LSB;label=32;scalar=64";
    class       volScalarField;
    location    "0.2";
    object      p;
}
// * * * * * * * * * * * * * * * * * * * * * * * * * * * * * * * * * * * * * //

dimensions      [0 2 -2 0 0 0 0];

internalField   nonuniform List<scalar> 
680
(
0.019061
0.0119461
0.00965519
0.00911564
0.00884079
0.00861789
0.00842265
0.0118826
0.0111474
0.0100533
0.00938598
0.00897971
0.00869863
0.00847618
0.0115328
0.0106794
0.00991334
0.00935186
0.00897072
0.0086941
0.00846861
0.0111226
0.010359
0.00973836
0.00928424
0.00893701
0.00866252
0.00843399
0.0109874
0.0102462
0.00965754
0.00924779
0.00892349
0.00865437
0.00842705
0.0109874
0.0102462
0.00965751
0.00924775
0.00892342
0.00865426
0.00842687
0.0111225
0.010359
0.00973829
0.00928414
0.00893686
0.00866227
0.00843357
0.0115327
0.0106794
0.00991327
0.00935176
0.00897057
0.00869383
0.00846816
0.0118826
0.0111474
0.0100533
0.00938592
0.00897961
0.00869848
0.00847594
0.019061
0.0119461
0.00965517
0.00911562
0.00884077
0.00861786
0.00842262
0.0118826
0.0111474
0.0100533
0.00938598
0.00897968
0.00869855
0.00847601
0.0111642
0.0111314
0.0104024
0.0096881
0.00923391
0.00890593
0.00863392
0.0102365
0.0103618
0.0100568
0.009638
0.00926689
0.00894197
0.00865469
0.00981806
0.00986151
0.00969316
0.00942659
0.00914181
0.00886459
0.00860698
0.00960162
0.00962358
0.00949544
0.00927614
0.00904194
0.00880953
0.00858065
0.00960159
0.00962354
0.00949539
0.00927606
0.00904182
0.00880936
0.0085804
0.00981798
0.00986143
0.00969306
0.00942645
0.00914161
0.00886429
0.0086065
0.0102364
0.0103617
0.0100567
0.0096379
0.00926675
0.00894176
0.00865434
0.0111641
0.0111314
0.0104024
0.00968808
0.00923388
0.00890591
0.0086339
0.0118826
0.0111474
0.0100533
0.009386
0.00897973
0.00869864
0.00847619
0.0115328
0.0106795
0.00991336
0.00935185
0.00897065
0.00869392
0.00846824
0.0102365
0.0103618
0.0100568
0.00963796
0.00926681
0.00894181
0.00865439
0.00966437
0.00976561
0.00965321
0.00942792
0.0091736
0.00891412
0.00865282
0.00929654
0.00936459
0.00931166
0.00916323
0.00897819
0.0087761
0.00856795
0.00911318
0.00917754
0.00914736
0.00902151
0.00886268
0.00869248
0.00851377
0.00911315
0.00917751
0.00914732
0.00902144
0.00886257
0.00869234
0.00851359
0.00929649
0.00936453
0.00931158
0.00916311
0.00897803
0.00877589
0.00856764
0.00966435
0.00976559
0.00965319
0.00942789
0.00917358
0.0089141
0.0086528
0.0102365
0.0103618
0.0100568
0.00963801
0.0092669
0.00894198
0.00865469
0.0115328
0.0106795
0.00991338
0.0093519
0.00897077
0.00869414
0.00846864
0.0111226
0.010359
0.00973838
0.00928423
0.00893695
0.00866235
0.00843365
0.00981805
0.0098615
0.00969313
0.00942652
0.00914167
0.00886435
0.00860656
0.00929653
0.00936458
0.00931162
0.00916315
0.00897806
0.00877592
0.00856767
0.00899709
0.009056
0.00904387
0.00894863
0.00880971
0.00864575
0.00846996
0.00884509
0.00890757
0.00891105
0.00883779
0.00871916
0.00857559
0.00841845
0.00884507
0.00890755
0.00891103
0.00883777
0.00871913
0.00857555
0.00841839
0.00899707
0.00905599
0.00904386
0.00894861
0.00880969
0.00864573
0.00846994
0.00929655
0.00936459
0.00931166
0.00916323
0.00897819
0.0087761
0.00856795
0.00981809
0.00986155
0.00969319
0.00942662
0.00914184
0.00886461
0.00860699
0.0111226
0.0103591
0.00973841
0.00928429
0.00893706
0.00866256
0.00843403
0.0109875
0.0102463
0.00965759
0.00924782
0.0089235
0.00865433
0.00842694
0.00960167
0.00962361
0.00949547
0.00927613
0.00904189
0.00880942
0.00858045
0.0091132
0.00917756
0.00914736
0.00902148
0.00886261
0.00869237
0.00851361
0.00884509
0.00890757
0.00891105
0.00883778
0.00871914
0.00857556
0.0084184
0.00870114
0.0087701
0.00879185
0.00873963
0.00864012
0.00851315
0.00837025
0.00870113
0.00877009
0.00879184
0.00873962
0.00864011
0.00851315
0.00837024
0.00884508
0.00890756
0.00891104
0.00883778
0.00871915
0.00857559
0.00841844
0.0091132
0.00917756
0.00914737
0.00902152
0.00886269
0.00869249
0.00851377
0.00960167
0.00962362
0.00949548
0.00927617
0.00904197
0.00880955
0.00858067
0.0109875
0.0102462
0.00965758
0.00924784
0.00892353
0.00865441
0.00842708
0.0109875
0.0102463
0.00965761
0.00924786
0.00892356
0.00865444
0.00842711
0.0096017
0.00962364
0.0094955
0.0092762
0.009042
0.00880958
0.00858069
0.00911322
0.00917758
0.00914739
0.00902154
0.00886271
0.00869251
0.00851379
0.0088451
0.00890758
0.00891106
0.0088378
0.00871917
0.0085756
0.00841846
0.00870113
0.00877009
0.00879184
0.00873963
0.00864011
0.00851315
0.00837025
0.00870112
0.00877008
0.00879184
0.00873962
0.00864011
0.00851315
0.00837024
0.00884506
0.00890755
0.00891102
0.00883776
0.00871912
0.00857554
0.00841838
0.00911317
0.00917753
0.00914733
0.00902145
0.00886258
0.00869234
0.00851359
0.00960163
0.00962358
0.00949543
0.00927609
0.00904185
0.00880939
0.00858042
0.0109875
0.0102462
0.00965755
0.00924779
0.00892346
0.0086543
0.00842691
0.0111226
0.0103591
0.00973843
0.00928431
0.00893708
0.00866258
0.00843405
0.00981811
0.00986156
0.00969321
0.00942664
0.00914186
0.00886462
0.00860701
0.00929657
0.00936461
0.00931168
0.00916325
0.0089782
0.00877611
0.00856796
0.00899708
0.009056
0.00904387
0.00894862
0.0088097
0.00864575
0.00846996
0.00884507
0.00890755
0.00891103
0.00883777
0.00871913
0.00857555
0.00841839
0.00884506
0.00890755
0.00891103
0.00883777
0.00871914
0.00857558
0.00899706
0.00905597
0.00904384
0.0089486
0.00880968
0.00864572
0.00929649
0.00936454
0.00931158
0.00916311
0.00897803
0.00877589
0.00981801
0.00986146
0.00969308
0.00942647
0.00914163
0.00886432
0.0111226
0.010359
0.00973833
0.00928417
0.00893689
0.00866229
0.0115328
0.0106795
0.0099134
0.00935192
0.00897079
0.00869416
0.00846866
0.0102365
0.0103618
0.0100568
0.00963803
0.00926692
0.00894199
0.00865471
0.00966437
0.00976561
0.00965321
0.00942791
0.00917359
0.00891412
0.00865281
0.0092965
0.00936454
0.00931159
0.00916313
0.00897804
0.0087759
0.00856765
0.00911315
0.00917751
0.00914732
0.00902144
0.00886257
0.00869234
0.00851359
0.00911316
0.00917752
0.00914733
0.00902149
0.00886266
0.00869246
0.00929651
0.00936455
0.00931162
0.00916319
0.00897815
0.00877606
0.00966433
0.00976557
0.00965317
0.00942787
0.00917355
0.00891408
0.0102364
0.0103617
0.0100567
0.00963791
0.00926675
0.00894176
0.0115328
0.0106794
0.0099133
0.00935179
0.00897059
0.00869385
0.0118826
0.0111474
0.0100533
0.00938602
0.00897975
0.00869866
0.00847621
0.0111642
0.0111314
0.0104024
0.0096881
0.00923391
0.00890593
0.00863392
0.0102364
0.0103617
0.0100567
0.00963793
0.00926678
0.00894178
0.00865437
0.009818
0.00986145
0.00969307
0.00942647
0.00914163
0.00886431
0.00860652
0.00960159
0.00962354
0.0094954
0.00927606
0.00904183
0.00880937
0.00858041
0.00960161
0.00962356
0.00949543
0.00927612
0.00904192
0.00880951
0.00981803
0.00986149
0.00969313
0.00942656
0.00914178
0.00886455
0.0102364
0.0103617
0.0100567
0.00963796
0.00926685
0.00894193
0.0111641
0.0111314
0.0104024
0.00968806
0.00923386
0.00890587
0.0118826
0.0111474
0.0100533
0.00938593
0.00897962
0.00869848
0.019061
0.0119461
0.00965519
0.00911564
0.00884079
0.00861788
0.00842265
0.0118826
0.0111474
0.0100533
0.00938594
0.00897963
0.0086985
0.00847596
0.0115328
0.0106794
0.00991329
0.00935178
0.00897058
0.00869385
0.00846818
0.0111225
0.010359
0.0097383
0.00928415
0.00893688
0.00866228
0.00843359
0.0109874
0.0102462
0.00965751
0.00924775
0.00892342
0.00865426
0.00842688
0.0109874
0.0102462
0.00965753
0.00924778
0.00892348
0.00865436
0.0111226
0.010359
0.00973834
0.00928422
0.00893699
0.00866249
0.0115328
0.0106794
0.00991331
0.00935183
0.00897069
0.00869407
0.0118826
0.0111474
0.0100533
0.00938594
0.00897967
0.00869858
0.019061
0.0119461
0.00965514
0.00911559
0.00884074
0.00861784
)
;

boundaryField
{
    inlet
    {
        type            zeroGradient;
    }
    ami1
    {
        type            cyclicAMI;
        value           nonuniform List<scalar> 0();
    }
    walls
    {
        type            zeroGradient;
    }
    ami2
    {
        type            cyclicAMI;
        value           nonuniform List<scalar> 0();
    }
    outlet
    {
        type            fixedValue;
        value           nonuniform List<scalar> 0();
    }
    procBoundary4to3
    {
        type            processor;
        value           nonuniform List<scalar> 
109
(
0.00824378
0.00827817
0.00826574
0.00823327
0.00822651
0.00822623
0.00823258
0.00826502
0.00827778
0.00824375
0.00827784
0.00839212
0.00840363
0.00837416
0.00836224
0.00836185
0.00837335
0.00840305
0.00839209
0.00827819
0.0082651
0.0084031
0.00840848
0.00836253
0.00833045
0.00833017
0.00836205
0.00840845
0.00840363
0.00826577
0.00823266
0.0083734
0.00836207
0.00829158
0.00825513
0.00825505
0.00829157
0.00836252
0.00837417
0.00823331
0.00822629
0.00836189
0.00833019
0.00825506
0.00821853
0.00821853
0.00825513
0.00833044
0.00836225
0.00822654
0.00822657
0.00836228
0.00833046
0.00825514
0.00821853
0.00821853
0.00841844
0.00825505
0.00846993
0.00833016
0.00856764
0.00836186
0.00860652
0.00822626
0.0084336
0.00823333
0.00837418
0.00836254
0.00829158
0.00825505
0.00841844
0.00841844
0.00846993
0.00856764
0.00860652
0.0084336
0.00826579
0.00840364
0.00840847
0.00836206
0.00833017
0.00851375
0.00851375
0.00856791
0.00865277
0.00865434
0.00846818
0.00827821
0.00839211
0.00840308
0.00837337
0.00836185
0.00858063
0.00858063
0.00860694
0.00865465
0.00863387
0.00847594
0.00824377
0.0082778
0.00826504
0.0082326
0.00822623
0.00842704
0.00842704
0.00843397
0.00846857
0.00847613
0.00842261
)
;
    }
}


// ************************************************************************* //
