/*--------------------------------*- C++ -*----------------------------------*\
| =========                 |                                                 |
| \\      /  F ield         | OpenFOAM: The Open Source CFD Toolbox           |
|  \\    /   O peration     | Version:  2212                                  |
|   \\  /    A nd           | Website:  www.openfoam.com                      |
|    \\/     M anipulation  |                                                 |
\*---------------------------------------------------------------------------*/
FoamFile
{
    version     2.0;
    format      ascii;
    arch        "LSB;label=32;scalar=64";
    class       volScalarField;
    location    "0.35";
    object      k;
}
// * * * * * * * * * * * * * * * * * * * * * * * * * * * * * * * * * * * * * //

dimensions      [0 2 -2 0 0 0 0];

internalField   nonuniform List<scalar> 
678
(
0.00373754
0.00373811
0.00373824
0.00373834
0.00373843
0.00373853
0.00397712
0.00397813
0.00397861
0.00397881
0.00397899
0.00397922
0.00421245
0.00421228
0.0042121
0.00421209
0.00421224
0.00421249
0.00444764
0.00444785
0.00444822
0.00444869
0.00444911
0.00458762
0.0045877
0.00458794
0.0045883
0.00458868
0.00464147
0.0046417
0.0046421
0.00464253
0.0046062
0.00460642
0.00460686
0.00460733
0.00447153
0.00447173
0.00447225
0.00447283
0.00424432
0.0042449
0.00424566
0.00424639
0.00398206
0.00398169
0.00398209
0.0039827
0.00398338
0.00373768
0.00373745
0.00373754
0.00373779
0.00373811
0.00398243
0.00398285
0.00398319
0.00398354
0.00398392
0.00610032
0.0061014
0.00610209
0.00610287
0.00610376
0.00610477
0.00707188
0.00707164
0.00707198
0.00707264
0.00707349
0.00771361
0.00771387
0.00771456
0.00771554
0.00771658
0.00811259
0.0081128
0.00811342
0.0081143
0.00811525
0.00828844
0.0082888
0.00828947
0.00829042
0.00829137
0.00821955
0.00821967
0.00822027
0.00822112
0.00822204
0.007885
0.00788507
0.00788574
0.00788671
0.00724244
0.0072431
0.0072444
0.00724592
0.00609945
0.00610047
0.00610211
0.00610394
0.00397727
0.00397706
0.00397745
0.00397801
0.00397862
0.00424454
0.00424517
0.00424593
0.00424662
0.00724258
0.00724258
0.0072435
0.00724487
0.00724632
0.00882662
0.0088267
0.00882728
0.00882818
0.00882913
0.0097908
0.00979106
0.0097917
0.00979249
0.00979324
0.0103504
0.0103506
0.0103511
0.0103518
0.0103524
0.0105587
0.0105588
0.0105592
0.0105597
0.0105602
0.0104059
0.0104058
0.0104062
0.0104067
0.0104072
0.00985283
0.009853
0.00985352
0.00985418
0.00985486
0.00882652
0.00882651
0.00882692
0.00882779
0.00882882
0.0070698
0.00707043
0.00707164
0.0070731
0.00421078
0.00421063
0.00421102
0.00421158
0.00421214
0.00447175
0.00447198
0.00447246
0.00447302
0.00788494
0.00788512
0.0078859
0.00788694
0.00985296
0.00985309
0.00985366
0.00985441
0.00985515
0.01108
0.0110797
0.0110795
0.0110799
0.0110801
0.0117831
0.0117823
0.0117814
0.0117811
0.0117811
0.0120239
0.0120228
0.0120215
0.0120211
0.0120209
0.0117995
0.0117993
0.0117988
0.0117984
0.0117983
0.0117985
0.0110796
0.0110791
0.0110789
0.0110794
0.0110797
0.00979053
0.0097907
0.00979141
0.00979233
0.00979317
0.00771367
0.00771387
0.00771463
0.00771576
0.007717
0.00444787
0.00444796
0.0044483
0.0044488
0.00444932
0.0046052
0.00460539
0.00460593
0.00460663
0.00460728
0.00821858
0.00821903
0.00821988
0.00822105
0.0082222
0.010405
0.0104051
0.0104056
0.0104061
0.0104068
0.0104075
0.0118001
0.0117996
0.0117988
0.0117986
0.0117988
0.0117988
0.0126032
0.0126023
0.0126008
0.0125998
0.0125991
0.0125988
0.012869
0.0128684
0.0128669
0.0128656
0.0128648
0.0128643
0.0126009
0.0126006
0.0125997
0.0125988
0.0125984
0.0125982
0.0117804
0.0117803
0.0117799
0.0117799
0.0117803
0.0117804
0.010349
0.0103492
0.0103498
0.0103507
0.0103517
0.0103525
0.00811178
0.00811214
0.00811284
0.00811387
0.00811511
0.00811629
0.00458774
0.00458791
0.00458828
0.00458878
0.00458927
0.00464067
0.00464089
0.00464136
0.00464197
0.00464255
0.00828829
0.00828869
0.00828959
0.00829074
0.00829187
0.0105572
0.0105575
0.0105579
0.0105583
0.010559
0.0105599
0.0105606
0.0120219
0.0120216
0.0120211
0.0120206
0.0120206
0.0120209
0.0120209
0.0128691
0.012868
0.0128668
0.0128658
0.012865
0.0128644
0.0128641
0.0131479
0.0131466
0.0131448
0.0131434
0.0131426
0.013142
0.012867
0.0128663
0.0128651
0.0128642
0.0128637
0.0128634
0.0120202
0.01202
0.0120196
0.0120198
0.01202
0.01202
0.0105568
0.010557
0.0105576
0.0105586
0.0105596
0.0105604
0.00828772
0.00828815
0.00828901
0.00829022
0.0082916
0.00829282
0.00464124
0.00464139
0.00464177
0.00464231
0.00464293
0.00464349
0.00458722
0.00458728
0.00458751
0.00458791
0.00458841
0.0045889
0.00811193
0.00811205
0.0081127
0.00811369
0.0081149
0.00811606
0.0103496
0.0103496
0.0103503
0.0103511
0.0103521
0.0103529
0.0117814
0.0117809
0.0117803
0.0117805
0.0117807
0.0117809
0.0126017
0.0126006
0.0125993
0.0125986
0.0125983
0.0125981
0.0128673
0.0128665
0.0128651
0.0128642
0.0128637
0.0128634
0.0125997
0.0125991
0.0125982
0.0125977
0.0125975
0.0125974
0.011797
0.0117968
0.0117966
0.011797
0.0117973
0.0117976
0.0104037
0.0104039
0.0104046
0.0104056
0.0104068
0.0104077
0.00821878
0.00821917
0.00822003
0.00822127
0.00822269
0.00822392
0.00460637
0.00460652
0.00460691
0.00460747
0.0046081
0.00460866
0.004448
0.00444809
0.00444831
0.00444867
0.00444912
0.00444956
0.00771348
0.00771373
0.00771437
0.00771536
0.00771654
0.00771772
0.00979008
0.00979039
0.00979111
0.0097921
0.00979325
0.0097942
0.0110783
0.0110783
0.0110785
0.011079
0.0110796
0.0110802
0.011798
0.0117978
0.0117974
0.0117977
0.011798
0.0117982
0.0120203
0.01202
0.0120196
0.0120198
0.0120201
0.0120202
0.0117793
0.0117791
0.011779
0.0117794
0.0117798
0.0117801
0.011077
0.0110769
0.0110774
0.0110781
0.0110789
0.0110796
0.00985132
0.00985167
0.0098525
0.00985365
0.00985496
0.00985602
0.00788428
0.00788458
0.00788538
0.00788657
0.00788795
0.00788923
0.00447245
0.00447255
0.00447287
0.00447336
0.00447394
0.00447449
0.00421193
0.00421193
0.00421202
0.00421223
0.00421255
0.00421291
0.00707169
0.00707165
0.007072
0.00707273
0.00707376
0.00707487
0.00882676
0.00882679
0.00882734
0.00882836
0.00882962
0.00883075
0.00985224
0.00985249
0.00985317
0.00985414
0.00985531
0.00985627
0.0104044
0.0104046
0.0104053
0.0104062
0.0104072
0.0104081
0.010557
0.0105572
0.0105579
0.0105588
0.0105599
0.0105608
0.0103486
0.0103489
0.0103497
0.0103508
0.010352
0.0103529
0.00978927
0.00978967
0.00979053
0.00979172
0.00979307
0.00979416
0.00882566
0.00882605
0.00882692
0.00882819
0.00882964
0.00883091
0.00724467
0.00724482
0.00724545
0.00724652
0.0072478
0.00724908
0.00424663
0.00424668
0.00424691
0.00424729
0.00424777
0.00424825
0.00397991
0.00397939
0.00397916
0.00397922
0.00397943
0.0039797
0.00610495
0.00610397
0.00610402
0.00610451
0.00610536
0.00610639
0.00724277
0.0072434
0.00724449
0.00724586
0.00724732
0.00724863
0.00788413
0.00788435
0.00788514
0.00788635
0.00788781
0.0078891
0.00821936
0.00821968
0.00822043
0.00822157
0.00822292
0.00822412
0.00828794
0.0082884
0.00828931
0.00829056
0.00829198
0.00829323
0.00811153
0.00811199
0.00811292
0.0081142
0.00811567
0.00811698
0.00771323
0.00771355
0.00771439
0.00771562
0.00771706
0.00771839
0.00707091
0.00707107
0.00707172
0.00707281
0.00707412
0.00707544
0.00610349
0.00610354
0.00610397
0.00610477
0.00610581
0.00610696
0.00398389
0.00398392
0.00398405
0.0039843
0.00398463
0.003985
0.00373934
0.003739
0.00373872
0.00373861
0.00373867
0.00373884
0.00398446
0.00398391
0.0039838
0.00398397
0.00398429
0.00398466
0.00424562
0.00424452
0.00424451
0.00424506
0.00424576
0.0042465
0.00424721
0.00424781
0.00447152
0.00447136
0.00447162
0.00447215
0.00447283
0.00447356
0.0044742
0.00460662
0.00460637
0.00460648
0.00460685
0.0046074
0.00460804
0.00460862
0.00464131
0.00464147
0.00464186
0.00464241
0.00464305
0.00464362
0.00458726
0.00458742
0.0045878
0.00458834
0.00458896
0.00458953
0.00444794
0.00444805
0.00444838
0.00444886
0.00444942
0.00444995
0.00421157
0.00421163
0.00421187
0.00421224
0.0042127
0.00421316
0.00397877
0.0039788
0.00397895
0.0039792
0.00397954
0.00397991
0.00373857
0.00373861
0.00373866
0.00373874
0.00373888
0.00373907
)
;

boundaryField
{
    inlet
    {
        type            fixedValue;
        value           nonuniform List<scalar> 0();
    }
    ami1
    {
        type            cyclicAMI;
        value           nonuniform List<scalar> 0();
    }
    walls
    {
        type            kqRWallFunction;
        value           nonuniform List<scalar> 
244
(
0.00373754
0.00397712
0.00421245
0.00373811
0.00397813
0.00421228
0.00444764
0.00458762
0.00398206
0.00373768
0.00373824
0.00397861
0.0042121
0.00444785
0.0045877
0.00464147
0.0046062
0.00447153
0.00424432
0.00398169
0.00373745
0.00373834
0.00397881
0.00421209
0.00444822
0.00458794
0.0046417
0.00460642
0.00447173
0.0042449
0.00398209
0.00373754
0.00373843
0.00397899
0.00421224
0.00444869
0.0045883
0.0046421
0.00460686
0.00447225
0.00424566
0.0039827
0.00373779
0.00373853
0.00397922
0.00421249
0.00444911
0.00458868
0.00464253
0.00460733
0.00447283
0.00424639
0.00398338
0.00373811
0.00464124
0.00460637
0.00447245
0.00424663
0.00398389
0.00373857
0.00373768
0.00397727
0.00421078
0.00444787
0.00458774
0.00464139
0.00460652
0.00447255
0.00424668
0.00398392
0.00373861
0.00373745
0.00397706
0.00421063
0.00444796
0.00458791
0.00464177
0.00460691
0.00447287
0.00424691
0.00398405
0.00373866
0.00373754
0.00397745
0.00421102
0.0044483
0.00458828
0.00464231
0.00460747
0.00447336
0.00424729
0.0039843
0.00373874
0.00373779
0.00397801
0.00421158
0.0044488
0.00458878
0.00464293
0.0046081
0.00447394
0.00424777
0.00398463
0.00373888
0.00373811
0.00397862
0.00421214
0.00444932
0.00458927
0.00464349
0.00460866
0.00447449
0.00424825
0.003985
0.00373907
0.00424562
0.00424452
0.00447152
0.00460662
0.00373934
0.00398446
0.00424451
0.00447136
0.00460637
0.00464131
0.00458726
0.00444794
0.00421157
0.00397877
0.00373857
0.003739
0.00398391
0.00424506
0.00447162
0.00460648
0.00464147
0.00458742
0.00444805
0.00421163
0.0039788
0.00373861
0.00373872
0.0039838
0.00424576
0.00447215
0.00460685
0.00464186
0.0045878
0.00444838
0.00421187
0.00397895
0.00373866
0.00373861
0.00398397
0.0042465
0.00447283
0.0046074
0.00464241
0.00458834
0.00444886
0.00421224
0.0039792
0.00373874
0.00373867
0.00398429
0.00424721
0.00447356
0.00460804
0.00464305
0.00458896
0.00444942
0.0042127
0.00397954
0.00373888
0.00373884
0.00398466
0.00424781
0.0044742
0.00460862
0.00464362
0.00458953
0.00444995
0.00421316
0.00397991
0.00373907
0.00373754
0.00458722
0.004448
0.00421193
0.00397991
0.00373934
0.00373811
0.00398243
0.0046052
0.00464067
0.00458728
0.00444809
0.00421193
0.00397939
0.003739
0.00373824
0.00398285
0.00424454
0.00447175
0.00460539
0.00464089
0.00458751
0.00444831
0.00421202
0.00397916
0.00373872
0.00373834
0.00398319
0.00424517
0.00447198
0.00460593
0.00464136
0.00458791
0.00444867
0.00421223
0.00397922
0.00373861
0.00373843
0.00398354
0.00424593
0.00447246
0.00460663
0.00464197
0.00458841
0.00444912
0.00421255
0.00397943
0.00373867
0.00373853
0.00398392
0.00424662
0.00447302
0.00460728
0.00464255
0.0045889
0.00444956
0.00421291
0.0039797
0.00373884
)
;
    }
    ami2
    {
        type            cyclicAMI;
        value           nonuniform List<scalar> 0();
    }
    outlet
    {
        type            zeroGradient;
    }
    procBoundary6to5
    {
        type            processor;
        value           nonuniform List<scalar> 
177
(
0.00373843
0.00398165
0.00397833
0.00421175
0.00444765
0.00707222
0.00444765
0.00458751
0.00464136
0.00464136
0.00464136
0.00460623
0.00460623
0.00447181
0.00424465
0.00424465
0.0039833
0.00609979
0.00373828
0.00398165
0.00398165
0.00424443
0.00610295
0.00707222
0.00724411
0.00707222
0.00771353
0.00811238
0.00828837
0.00821945
0.00788502
0.00788502
0.00788502
0.0072428
0.0072428
0.00609979
0.00609979
0.0039783
0.00424443
0.00424443
0.00724411
0.00788485
0.00882633
0.00979024
0.0103496
0.0105577
0.0104052
0.0104052
0.00985211
0.00882624
0.00706986
0.00706986
0.00706986
0.00706986
0.00421141
0.00447189
0.00447189
0.00788485
0.00788485
0.00788485
0.00985237
0.00985237
0.011079
0.011079
0.0117818
0.0117818
0.0120229
0.0120229
0.0120229
0.0117964
0.0110787
0.0110787
0.0110787
0.00978991
0.00978991
0.00771363
0.00771363
0.00444799
0.00460562
0.00821841
0.00821841
0.010404
0.010404
0.0117982
0.0117982
0.0126008
0.0126008
0.0128656
0.0125981
0.011778
0.0103478
0.00811153
0.00458761
0.00458761
0.00458761
0.00464066
0.00464066
0.00828707
0.0082877
0.0082877
0.0082877
0.0105555
0.0103487
0.0120187
0.0117799
0.0128645
0.0131455
0.0125997
0.0131455
0.0128642
0.012018
0.0105557
0.00828759
0.00464132
0.00458715
0.00811146
0.0103487
0.0117799
0.0125997
0.0128646
0.0125971
0.011795
0.0104027
0.00821873
0.00460651
0.00444806
0.00771339
0.00978935
0.0110767
0.011796
0.0120182
0.0117774
0.0110755
0.00985073
0.00788437
0.00447258
0.00421196
0.00707182
0.00882669
0.0098515
0.0104033
0.0105558
0.0103476
0.00978866
0.00882553
0.00724484
0.00424672
0.00398042
0.0061059
0.00724353
0.00724257
0.00724257
0.00788406
0.00788406
0.00821925
0.00821925
0.0082877
0.00811139
0.00771327
0.00707107
0.0061037
0.00398393
0.00373946
0.00398456
0.00398508
0.00398508
0.00424603
0.00447164
0.00447164
0.00460652
0.00464139
0.00464139
0.00458733
0.00444802
0.00421164
0.00397881
0.00373853
)
;
    }
}


// ************************************************************************* //
