/*--------------------------------*- C++ -*----------------------------------*\
| =========                 |                                                 |
| \\      /  F ield         | OpenFOAM: The Open Source CFD Toolbox           |
|  \\    /   O peration     | Version:  2212                                  |
|   \\  /    A nd           | Website:  www.openfoam.com                      |
|    \\/     M anipulation  |                                                 |
\*---------------------------------------------------------------------------*/
FoamFile
{
    version     2.0;
    format      ascii;
    arch        "LSB;label=32;scalar=64";
    class       volVectorField;
    location    "0.35";
    object      U;
}
// * * * * * * * * * * * * * * * * * * * * * * * * * * * * * * * * * * * * * //

dimensions      [0 1 -1 0 0 0 0];

internalField   nonuniform List<vector> 
678
(
(0.0369052 8.60931e-07 -5.97803e-07)
(0.0369071 7.61335e-07 4.17977e-07)
(0.0369085 -2.87205e-08 2.86506e-07)
(0.0369085 -6.335e-07 3.56418e-07)
(0.0369081 -7.32186e-07 3.75543e-07)
(0.0369075 -5.41998e-07 2.36349e-07)
(0.0587435 2.08959e-06 1.19465e-06)
(0.0587569 4.57752e-08 -4.25995e-06)
(0.0587601 -6.98193e-07 -2.78032e-06)
(0.0587605 -1.24801e-06 -9.9559e-07)
(0.0587606 -1.29919e-06 -4.16267e-07)
(0.0587606 -9.21035e-07 -3.211e-07)
(0.0764854 1.04573e-06 -3.13176e-07)
(0.0764865 -5.87409e-07 -2.598e-06)
(0.0764863 -5.40345e-07 -1.94325e-06)
(0.0764858 -3.52475e-07 -5.30685e-07)
(0.0764854 -2.88618e-07 -4.03025e-07)
(0.0764855 -2.32223e-07 -6.51908e-07)
(0.0867608 -1.62146e-07 -1.20688e-06)
(0.0867615 -8.20581e-08 -9.69334e-07)
(0.086762 1.87305e-07 -7.40963e-07)
(0.0867626 2.2539e-07 -8.90461e-07)
(0.0867636 2.04375e-07 -1.16905e-06)
(0.0910593 -1.25304e-07 -7.14068e-07)
(0.0910599 -3.29871e-07 -1.03002e-06)
(0.0910603 -1.81358e-07 -1.16885e-06)
(0.0910606 1.33122e-07 -1.39197e-06)
(0.0910612 3.84676e-07 -1.49964e-06)
(0.0913459 -6.74429e-07 -4.24034e-07)
(0.0913463 2.00515e-07 -6.41843e-07)
(0.0913463 9.56761e-07 -1.00784e-06)
(0.0913466 1.24655e-06 -1.35281e-06)
(0.0883164 -1.3589e-06 4.20284e-07)
(0.0883165 3.5498e-07 -2.06277e-07)
(0.0883161 1.65331e-06 -9.4768e-07)
(0.0883162 1.9461e-06 -1.35417e-06)
(0.0818604 -1.57243e-06 9.38797e-07)
(0.0818601 1.39854e-06 -4.43973e-07)
(0.0818599 3.00953e-06 -1.51101e-06)
(0.0818605 2.67521e-06 -1.48546e-06)
(0.0712609 -7.9049e-07 6.62498e-07)
(0.0712627 2.12973e-06 -1.07988e-06)
(0.0712641 3.02525e-06 -1.5769e-06)
(0.0712663 2.34339e-06 -1.20128e-06)
(0.0560939 9.08185e-07 3.15411e-07)
(0.0560947 4.33139e-07 3.12454e-07)
(0.0560957 -1.95861e-09 3.04754e-07)
(0.056096 -4.28309e-08 1.90992e-07)
(0.056097 -6.0406e-08 6.04804e-08)
(0.0369064 6.27829e-07 7.16654e-07)
(0.036906 -9.55731e-09 7.47189e-07)
(0.0369042 -2.0918e-07 3.52704e-07)
(0.0369031 -1.87641e-07 -2.45121e-08)
(0.0369037 -1.06278e-07 -1.17232e-07)
(0.0561 -1.96961e-06 -4.15979e-06)
(0.0561028 -1.19032e-06 -6.35004e-07)
(0.0561021 -3.83319e-07 2.22349e-06)
(0.0561014 -3.6874e-07 2.02745e-06)
(0.0561009 -5.03772e-07 1.17711e-06)
(0.0823384 -4.42037e-07 -2.50219e-06)
(0.0823292 2.98972e-06 4.25097e-06)
(0.0823267 9.33499e-07 8.72598e-07)
(0.0823269 3.91516e-08 4.18771e-07)
(0.082327 -1.01129e-07 8.32116e-07)
(0.0823263 -1.14024e-07 8.73126e-07)
(0.0944419 3.14187e-07 -1.41204e-06)
(0.0944426 -4.49799e-07 -1.99815e-06)
(0.094443 -6.05968e-07 -1.48815e-06)
(0.094443 -4.79603e-07 -8.44695e-07)
(0.0944425 -2.47679e-07 -4.06576e-07)
(0.101232 4.47913e-07 -7.25992e-07)
(0.101232 4.25376e-07 -1.4416e-07)
(0.101231 3.41003e-07 -5.24051e-08)
(0.101231 2.81469e-07 -2.20813e-07)
(0.10123 2.33552e-07 -4.65849e-07)
(0.104267 4.97907e-07 -1.0586e-06)
(0.104267 3.30246e-07 -8.95315e-07)
(0.104267 1.83821e-07 -7.99194e-07)
(0.104266 1.48865e-07 -7.8481e-07)
(0.104266 1.54671e-07 -8.1484e-07)
(0.104613 9.77368e-07 -1.09861e-06)
(0.104613 5.68927e-07 -5.33234e-07)
(0.104613 2.23433e-07 -4.34573e-07)
(0.104613 5.28668e-08 -5.21581e-07)
(0.104612 2.93661e-08 -6.3387e-07)
(0.10277 1.60768e-06 -8.58434e-07)
(0.102771 4.35238e-07 -1.41997e-07)
(0.102771 -3.25383e-07 2.62985e-08)
(0.102771 -5.88043e-07 -1.98684e-08)
(0.10277 -5.07596e-07 -1.48759e-07)
(0.0987772 5.96883e-07 -1.36063e-07)
(0.0987771 -1.05743e-06 8.0411e-07)
(0.098776 -1.485e-06 9.1352e-07)
(0.098774 -1.26346e-06 6.90536e-07)
(0.0923731 -9.06016e-07 1.23705e-06)
(0.0923715 -2.11215e-06 1.99687e-06)
(0.0923695 -1.80617e-06 1.64972e-06)
(0.0923669 -1.49098e-06 1.23574e-06)
(0.0823268 -3.39649e-08 1.3021e-06)
(0.0823272 -1.80394e-06 1.60134e-06)
(0.0823264 -1.96691e-06 1.35536e-06)
(0.0823247 -1.66311e-06 9.72679e-07)
(0.0587505 -1.26179e-06 2.47298e-06)
(0.0587508 -2.61998e-07 1.64701e-06)
(0.0587522 8.1169e-07 2.34448e-07)
(0.0587535 1.41346e-06 -7.06861e-07)
(0.0587558 1.21129e-06 -7.256e-07)
(0.0712607 -1.54027e-06 -1.96934e-06)
(0.0712633 -2.07715e-06 -1.38119e-06)
(0.0712653 -1.97725e-06 -9.58021e-07)
(0.0712673 -1.55314e-06 -5.34332e-07)
(0.0923745 -2.32874e-06 -3.36233e-06)
(0.0923731 1.4529e-06 2.93087e-06)
(0.0923706 1.83264e-06 3.63985e-06)
(0.0923683 1.44609e-06 3.12888e-06)
(0.092366 8.68703e-07 2.21529e-06)
(0.101271 -8.44293e-07 -1.07466e-06)
(0.101272 7.76756e-08 -1.40999e-08)
(0.101272 6.42214e-07 6.18603e-07)
(0.101271 8.84188e-07 1.01162e-06)
(0.101271 8.18964e-07 1.04983e-06)
(0.106411 -7.8863e-07 -1.73852e-06)
(0.10641 1.66044e-07 -4.83237e-07)
(0.106411 7.33782e-07 1.65339e-07)
(0.106411 9.22556e-07 4.44337e-07)
(0.10641 8.42467e-07 4.48924e-07)
(0.108963 2.22064e-07 -1.78981e-06)
(0.108962 4.102e-07 -6.65954e-07)
(0.108963 4.8534e-07 -9.9563e-08)
(0.108963 4.74046e-07 1.39217e-07)
(0.108962 3.98495e-07 1.44734e-07)
(0.109474 1.37233e-06 -1.68436e-06)
(0.109474 6.54912e-07 -6.29311e-07)
(0.109474 8.84708e-08 -1.04815e-07)
(0.109474 -2.38125e-07 1.06451e-07)
(0.109474 -3.25633e-07 1.15174e-07)
(0.108291 2.19853e-06 -1.36919e-06)
(0.10829 5.76936e-07 -2.60549e-07)
(0.108291 -5.64437e-07 2.59997e-07)
(0.108291 -1.14285e-06 4.55432e-07)
(0.108291 -1.18398e-06 4.39697e-07)
(0.105563 2.91487e-06 -1.39454e-06)
(0.105564 4.88394e-07 -1.38309e-07)
(0.105564 -1.19429e-06 6.48123e-07)
(0.105564 -1.893e-06 9.82128e-07)
(0.105564 -1.7917e-06 9.60431e-07)
(0.101274 2.4277e-06 -1.10485e-06)
(0.101274 4.50391e-07 4.22616e-08)
(0.101274 -1.00393e-06 9.62913e-07)
(0.101274 -1.6419e-06 1.35696e-06)
(0.101273 -1.54867e-06 1.27052e-06)
(0.0944486 -7.86579e-07 1.07563e-06)
(0.0944476 -9.98566e-07 1.06205e-06)
(0.0944462 -5.37356e-07 7.5086e-07)
(0.0944443 -2.01545e-07 5.2479e-07)
(0.0764773 -3.33533e-06 2.98365e-06)
(0.0764774 -8.99219e-07 1.73028e-06)
(0.0764784 2.04986e-06 -9.158e-08)
(0.0764795 3.3184e-06 -1.10379e-06)
(0.0764815 2.82178e-06 -9.69714e-07)
(0.0818608 5.37529e-08 6.0779e-07)
(0.0818601 -1.07344e-06 -1.16521e-06)
(0.0818599 -1.80919e-06 -1.88977e-06)
(0.0818608 -1.74308e-06 -1.60213e-06)
(0.0987758 -7.95607e-07 2.4428e-07)
(0.0987756 2.99845e-07 1.64453e-06)
(0.0987746 6.17223e-07 2.00454e-06)
(0.098773 5.08127e-07 1.72523e-06)
(0.105563 -1.30839e-06 -1.66033e-06)
(0.105563 1.45732e-07 3.29858e-07)
(0.105563 9.19286e-07 1.33139e-06)
(0.105563 1.12156e-06 1.69744e-06)
(0.105563 1.01655e-06 1.57866e-06)
(0.109522 -1.05712e-06 -2.10444e-06)
(0.109521 -4.40952e-08 -6.81024e-07)
(0.109522 7.0392e-07 3.71433e-07)
(0.109522 1.03704e-06 9.03635e-07)
(0.109522 9.97732e-07 9.5529e-07)
(0.111626 -1.10533e-07 -2.22405e-06)
(0.111626 2.85393e-07 -9.7154e-07)
(0.111626 5.31117e-07 -1.85048e-08)
(0.111626 5.95377e-07 4.5106e-07)
(0.111626 5.44629e-07 5.49124e-07)
(0.112197 9.52438e-07 -2.0202e-06)
(0.112197 4.31889e-07 -9.25828e-07)
(0.112197 3.96767e-08 -1.16352e-07)
(0.112197 -1.72395e-07 2.89814e-07)
(0.112197 -2.32106e-07 3.88428e-07)
(0.111448 2.43455e-06 -2.0792e-06)
(0.111448 1.56446e-06 -1.51992e-06)
(0.111447 4.91275e-07 -7.3351e-07)
(0.111448 -3.45167e-07 -8.2916e-08)
(0.111448 -8.38234e-07 3.38741e-07)
(0.111448 -9.36582e-07 4.68818e-07)
(0.109522 2.33171e-06 -1.59191e-06)
(0.109522 5.40816e-07 -5.86093e-07)
(0.109522 -7.36336e-07 2.6842e-07)
(0.109522 -1.28897e-06 7.31092e-07)
(0.109523 -1.2913e-06 8.16275e-07)
(0.106412 1.95884e-06 -1.29298e-06)
(0.106412 3.36761e-08 -4.26503e-08)
(0.106412 -8.85261e-07 8.62452e-07)
(0.106412 -1.0676e-06 1.22269e-06)
(0.106412 -9.07679e-07 1.14712e-06)
(0.101234 7.18181e-07 2.8023e-08)
(0.101234 -1.21601e-07 6.12636e-07)
(0.101234 -6.30481e-08 9.36486e-07)
(0.101234 2.98745e-07 9.25195e-07)
(0.101232 5.54235e-07 7.70027e-07)
(0.0867617 -1.55334e-06 2.03569e-06)
(0.0867625 -1.81222e-07 1.18341e-06)
(0.0867629 1.46302e-06 2.07328e-07)
(0.0867631 2.51022e-06 -2.43491e-07)
(0.0867638 2.5449e-06 -2.19704e-07)
(0.0883133 7.87326e-07 2.08271e-06)
(0.0883136 2.322e-07 1.03332e-06)
(0.0883138 -6.48349e-07 -2.87615e-07)
(0.0883139 -1.40798e-06 -1.17998e-06)
(0.0883146 -1.69569e-06 -1.30748e-06)
(0.102771 -1.12932e-06 -7.51895e-07)
(0.102771 2.29338e-07 8.43523e-07)
(0.102771 3.77004e-07 1.33434e-06)
(0.102771 2.08608e-07 1.28601e-06)
(0.10277 -1.03995e-08 1.02912e-06)
(0.108291 -1.89975e-06 -1.91963e-06)
(0.108291 -6.09744e-07 -8.21167e-07)
(0.108291 2.3548e-07 1.07058e-07)
(0.108291 6.44015e-07 7.5523e-07)
(0.108291 7.59038e-07 1.09955e-06)
(0.108291 6.85963e-07 1.11341e-06)
(0.111449 -1.69251e-06 -2.28396e-06)
(0.111448 -5.99661e-07 -1.42934e-06)
(0.111448 2.96982e-07 -4.72206e-07)
(0.111448 7.80942e-07 2.07887e-07)
(0.111448 9.75362e-07 6.33454e-07)
(0.111448 9.33721e-07 7.39503e-07)
(0.113184 -6.44042e-07 -2.20188e-06)
(0.113183 -5.68786e-09 -1.61786e-06)
(0.113182 4.31371e-07 -8.5147e-07)
(0.113183 6.36645e-07 -2.36974e-07)
(0.113183 6.88452e-07 1.76439e-07)
(0.113183 6.38165e-07 3.25284e-07)
(0.113724 6.31346e-07 -1.9346e-06)
(0.113723 5.75626e-07 -1.56977e-06)
(0.113723 4.18789e-07 -9.6685e-07)
(0.113723 2.59868e-07 -4.35167e-07)
(0.113723 1.28774e-07 -6.62077e-08)
(0.113724 5.84632e-08 9.07339e-08)
(0.113183 1.70384e-06 -1.43419e-06)
(0.113182 1.11054e-06 -1.27774e-06)
(0.113182 4.29089e-07 -8.58352e-07)
(0.113182 -8.39745e-08 -4.21113e-07)
(0.113182 -4.06463e-07 -8.33133e-08)
(0.113183 -4.95056e-07 7.17631e-08)
(0.111626 2.47588e-06 -1.06301e-06)
(0.111626 1.54105e-06 -1.06625e-06)
(0.111625 5.15146e-07 -6.87993e-07)
(0.111625 -1.84775e-07 -2.34355e-07)
(0.111625 -5.78094e-07 1.0745e-07)
(0.111626 -6.53853e-07 2.52528e-07)
(0.108963 2.1871e-06 -4.84017e-07)
(0.108963 1.1761e-06 -5.87848e-07)
(0.108962 4.75174e-07 -2.67981e-07)
(0.108963 8.24279e-08 1.58857e-07)
(0.108962 -1.01403e-07 4.51552e-07)
(0.108962 -1.15091e-07 5.28638e-07)
(0.104267 1.02993e-06 3.95364e-07)
(0.104267 9.00944e-07 3.43692e-07)
(0.104267 7.72834e-07 5.14739e-07)
(0.104267 8.68444e-07 6.8981e-07)
(0.104267 1.0241e-06 7.43083e-07)
(0.104266 1.08942e-06 6.71268e-07)
(0.0910613 -1.94945e-08 1.43332e-06)
(0.0910621 4.84789e-07 1.23081e-06)
(0.0910625 1.24268e-06 8.91305e-07)
(0.0910627 1.9278e-06 6.40622e-07)
(0.0910634 2.15999e-06 5.39576e-07)
(0.0913434 -4.33792e-09 1.54484e-06)
(0.091344 -2.80032e-07 5.34339e-07)
(0.0913444 -7.54088e-07 -4.92174e-07)
(0.0913446 -1.26722e-06 -1.17027e-06)
(0.0913452 -1.59023e-06 -1.13059e-06)
(0.104613 -9.61595e-07 -3.8515e-07)
(0.104613 -4.04347e-07 6.73243e-08)
(0.104613 -3.05871e-07 3.36208e-07)
(0.104613 -4.05792e-07 3.92023e-07)
(0.104612 -5.06729e-07 3.38524e-07)
(0.109476 -2.25495e-06 -1.15688e-06)
(0.109475 -1.20632e-06 -9.73291e-07)
(0.109474 -5.29639e-07 -6.90274e-07)
(0.109474 -1.03283e-07 -2.25319e-07)
(0.109474 1.20896e-07 1.78352e-07)
(0.109474 2.40437e-07 4.14047e-07)
(0.109474 2.53849e-07 4.64931e-07)
(0.112199 -2.19081e-06 -1.18426e-06)
(0.112198 -1.27296e-06 -1.07325e-06)
(0.112197 -4.20104e-07 -8.43055e-07)
(0.112197 1.81867e-07 -5.00671e-07)
(0.112197 5.47269e-07 -1.56377e-07)
(0.112197 7.32546e-07 1.00066e-07)
(0.112197 7.31327e-07 2.03858e-07)
(0.113725 -1.29579e-06 -9.33075e-07)
(0.113724 -5.6436e-07 -9.20904e-07)
(0.113723 1.36492e-08 -8.41758e-07)
(0.113722 4.01726e-07 -6.35462e-07)
(0.113723 6.25964e-07 -3.78575e-07)
(0.113723 7.04073e-07 -1.69572e-07)
(0.113723 6.68806e-07 -6.45541e-08)
(0.114224 2.70481e-07 -7.24005e-07)
(0.114223 3.8886e-07 -7.91949e-07)
(0.114222 3.97068e-07 -6.82437e-07)
(0.114223 3.52744e-07 -4.96325e-07)
(0.114223 2.81636e-07 -3.33105e-07)
(0.114223 2.28948e-07 -2.33383e-07)
(0.113723 1.30475e-06 -2.81545e-07)
(0.113722 8.18514e-07 -5.8648e-07)
(0.113721 3.46498e-07 -6.98889e-07)
(0.113722 2.93722e-08 -6.38802e-07)
(0.113722 -1.68657e-07 -5.18913e-07)
(0.113722 -2.28729e-07 -4.08236e-07)
(0.112196 2.0608e-06 1.32745e-07)
(0.112195 1.18946e-06 -3.81678e-07)
(0.112195 4.29354e-07 -6.00957e-07)
(0.112195 -2.28048e-08 -5.70021e-07)
(0.112195 -2.83522e-07 -4.64786e-07)
(0.112195 -3.37953e-07 -3.55102e-07)
(0.109474 2.06291e-06 5.15123e-07)
(0.109473 1.08984e-06 -1.20957e-07)
(0.109473 5.5558e-07 -2.96896e-07)
(0.109473 2.95843e-07 -2.36628e-07)
(0.109472 1.57282e-07 -1.40138e-07)
(0.109472 1.23747e-07 -6.28631e-08)
(0.104613 1.58341e-06 8.6395e-07)
(0.104613 9.56708e-07 5.0989e-07)
(0.104613 7.49351e-07 4.46932e-07)
(0.104613 8.1295e-07 5.06903e-07)
(0.104612 9.4101e-07 5.41539e-07)
(0.104612 1.00573e-06 5.15339e-07)
(0.0913465 6.20068e-07 5.81223e-07)
(0.0913476 7.05504e-07 1.01461e-06)
(0.0913484 9.0444e-07 1.33208e-06)
(0.0913491 1.22739e-06 1.397e-06)
(0.0913496 1.68188e-06 1.37552e-06)
(0.0913505 1.83708e-06 1.21811e-06)
(0.0910584 -6.03775e-07 8.73126e-07)
(0.0910592 -3.32958e-07 5.81315e-07)
(0.0910599 -3.44219e-07 1.70031e-07)
(0.0910602 -6.3021e-07 -2.24992e-07)
(0.0910604 -1.08335e-06 -5.15889e-07)
(0.0910609 -1.43656e-06 -5.52898e-07)
(0.104266 -1.35533e-06 -1.91442e-07)
(0.104266 -9.16489e-07 -8.94267e-08)
(0.104266 -6.64157e-07 7.7331e-08)
(0.104266 -6.26153e-07 1.6833e-07)
(0.104266 -6.68069e-07 1.46879e-07)
(0.104266 -6.94243e-07 1.04751e-07)
(0.108963 -1.92655e-06 -2.59584e-07)
(0.108962 -7.1424e-07 -3.57017e-07)
(0.108962 -1.95347e-07 -3.04022e-07)
(0.108962 5.70287e-10 -2.01552e-07)
(0.108962 1.13905e-07 -1.30183e-07)
(0.108961 1.3791e-07 -7.63518e-08)
(0.111626 -1.99496e-06 4.0371e-09)
(0.111625 -7.76478e-07 -2.85865e-07)
(0.111625 7.93311e-08 -4.50171e-07)
(0.111625 4.95572e-07 -4.5879e-07)
(0.111625 6.97693e-07 -4.05581e-07)
(0.111625 6.99345e-07 -3.23556e-07)
(0.113183 -1.32552e-06 3.16693e-07)
(0.113182 -4.32803e-07 -8.9586e-08)
(0.113181 2.36644e-07 -3.93747e-07)
(0.113181 5.74052e-07 -5.00586e-07)
(0.113182 7.29029e-07 -5.10828e-07)
(0.113182 7.17547e-07 -4.54328e-07)
(0.113723 -2.80195e-07 5.71647e-07)
(0.113722 -7.75686e-09 1.84659e-09)
(0.113721 1.95894e-07 -4.24754e-07)
(0.113721 2.94334e-07 -6.07742e-07)
(0.113722 3.24656e-07 -6.49715e-07)
(0.113722 3.07559e-07 -5.92169e-07)
(0.113182 8.26837e-07 9.39698e-07)
(0.113181 4.66281e-07 1.41605e-07)
(0.113181 1.5351e-07 -4.57437e-07)
(0.113181 -4.06864e-08 -7.36208e-07)
(0.113181 -1.57347e-07 -8.15747e-07)
(0.113181 -1.74681e-07 -7.56883e-07)
(0.111447 1.67416e-06 1.30672e-06)
(0.111446 8.72e-07 2.93458e-07)
(0.111445 2.31159e-07 -4.34608e-07)
(0.111445 -1.13923e-07 -7.50065e-07)
(0.111445 -2.94489e-07 -8.45394e-07)
(0.111445 -3.20737e-07 -7.86473e-07)
(0.10829 1.87216e-06 1.39976e-06)
(0.108289 8.79737e-07 2.96964e-07)
(0.108289 3.5257e-07 -2.82966e-07)
(0.108289 1.12292e-07 -5.26849e-07)
(0.108288 -2.91031e-09 -6.14957e-07)
(0.108288 -1.93778e-08 -5.60124e-07)
(0.10277 1.66706e-06 1.29934e-06)
(0.10277 8.42481e-07 6.11712e-07)
(0.10277 4.77923e-07 3.02363e-07)
(0.10277 4.39385e-07 2.28592e-07)
(0.10277 5.49796e-07 2.20561e-07)
(0.102769 6.41516e-07 2.26113e-07)
(0.0883188 6.65342e-07 5.27362e-07)
(0.0883199 7.6913e-07 9.0469e-07)
(0.0883207 8.54324e-07 1.23401e-06)
(0.0883213 9.86572e-07 1.49233e-06)
(0.0883219 1.29977e-06 1.62159e-06)
(0.088323 1.44868e-06 1.46468e-06)
(0.0867624 -5.38061e-07 2.8248e-07)
(0.0867636 2.11625e-07 -9.66247e-11)
(0.0867643 2.83381e-07 6.4258e-08)
(0.0867645 -8.3882e-08 1.96198e-07)
(0.0867645 -6.50591e-07 2.20304e-07)
(0.0867649 -1.11923e-06 1.56745e-07)
(0.101231 -1.54709e-06 5.00549e-07)
(0.101231 -6.37432e-07 5.11799e-07)
(0.101231 -2.24437e-07 4.48799e-07)
(0.101231 -1.76863e-07 3.84221e-07)
(0.101231 -2.81513e-07 2.70955e-07)
(0.10123 -4.11979e-07 1.86469e-07)
(0.10641 -2.2664e-06 6.42081e-07)
(0.10641 -1.0416e-06 -1.10208e-08)
(0.106409 -3.25385e-07 -3.33385e-07)
(0.106409 4.59632e-08 -4.2331e-07)
(0.106409 2.5001e-07 -4.28609e-07)
(0.106409 2.86243e-07 -3.48204e-07)
(0.109521 -2.26768e-06 1.02744e-06)
(0.10952 -1.04756e-06 1.99698e-07)
(0.10952 -7.07087e-08 -3.75867e-07)
(0.10952 4.97804e-07 -6.20554e-07)
(0.10952 7.5485e-07 -6.49596e-07)
(0.10952 7.63564e-07 -5.65644e-07)
(0.111447 -1.68134e-06 1.42842e-06)
(0.111446 -6.88198e-07 5.72024e-07)
(0.111445 1.16923e-07 -8.84115e-08)
(0.111446 5.49229e-07 -4.04811e-07)
(0.111446 7.59547e-07 -5.28451e-07)
(0.111445 7.54691e-07 -4.9969e-07)
(0.112196 -6.58072e-07 1.66521e-06)
(0.112195 -2.88128e-07 7.29358e-07)
(0.112195 2.1574e-08 1.56263e-08)
(0.112195 1.94301e-07 -3.26997e-07)
(0.112195 2.81949e-07 -4.78316e-07)
(0.112194 2.93339e-07 -4.68897e-07)
(0.111625 4.25057e-07 1.9352e-06)
(0.111624 1.58935e-07 8.1187e-07)
(0.111624 -4.57302e-08 -3.40761e-08)
(0.111624 -1.54932e-07 -4.3791e-07)
(0.111624 -2.02927e-07 -6.16995e-07)
(0.111624 -1.93459e-07 -6.03181e-07)
(0.109521 1.24542e-06 2.06984e-06)
(0.10952 5.60804e-07 8.31e-07)
(0.10952 4.45284e-08 -8.65105e-08)
(0.10952 -2.44883e-07 -5.68807e-07)
(0.109519 -3.87879e-07 -7.74029e-07)
(0.109519 -3.94748e-07 -7.56755e-07)
(0.105562 1.54078e-06 1.8806e-06)
(0.105562 6.26418e-07 5.38669e-07)
(0.105562 1.11601e-07 -2.54343e-07)
(0.105562 -1.37627e-07 -6.59135e-07)
(0.105561 -2.56905e-07 -8.32828e-07)
(0.105561 -2.59778e-07 -7.9352e-07)
(0.0987739 1.45084e-06 1.46239e-06)
(0.0987745 6.01357e-07 5.14734e-07)
(0.0987746 1.08634e-07 -2.59367e-08)
(0.0987746 -3.66944e-08 -2.19643e-07)
(0.0987744 2.66269e-08 -2.56993e-07)
(0.0987737 1.36765e-07 -2.01784e-07)
(0.0818673 6.49878e-07 4.90046e-07)
(0.0818684 5.59059e-07 6.46199e-07)
(0.0818691 4.96626e-07 8.89569e-07)
(0.0818697 5.5072e-07 1.17718e-06)
(0.0818702 8.00476e-07 1.44045e-06)
(0.0818714 9.80581e-07 1.31661e-06)
(0.0764881 4.43725e-07 -5.39186e-07)
(0.0764884 2.20446e-06 -3.97852e-07)
(0.0764878 1.81787e-06 1.83458e-07)
(0.0764868 9.28515e-07 7.52702e-07)
(0.0764861 -7.00242e-09 9.591e-07)
(0.0764864 -6.73007e-07 7.90705e-07)
(0.0944398 -1.58244e-06 8.12271e-07)
(0.0944414 -1.1712e-06 1.19851e-06)
(0.0944426 -5.9053e-07 1.19348e-06)
(0.0944434 -1.87709e-07 1.01639e-06)
(0.0944436 1.29567e-08 7.64146e-07)
(0.0944432 4.31443e-09 5.30598e-07)
(0.10127 -2.819e-06 1.52665e-06)
(0.10127 -1.60547e-06 7.162e-07)
(0.10127 -5.1016e-07 1.00161e-07)
(0.10127 1.41229e-07 -1.6883e-07)
(0.10127 4.57739e-07 -2.20076e-07)
(0.10127 5.35315e-07 -1.7643e-07)
(0.105563 -1.89616e-06 1.60345e-06)
(0.105562 -3.6892e-07 3.49129e-07)
(0.105562 4.80851e-07 -2.79948e-07)
(0.105562 8.4931e-07 -4.75094e-07)
(0.105562 9.57053e-07 -4.63789e-07)
(0.105561 8.90008e-07 -3.50404e-07)
(0.10829 -1.45627e-06 1.94002e-06)
(0.108289 -2.53243e-07 8.66238e-07)
(0.108289 4.08458e-07 2.91388e-07)
(0.108289 6.77803e-07 5.6752e-08)
(0.108289 7.63924e-07 -3.1664e-08)
(0.108288 6.95973e-07 -2.01377e-08)
(0.109474 -7.51839e-07 2.11655e-06)
(0.109473 -2.3011e-07 1.09239e-06)
(0.109473 4.34861e-08 5.67875e-07)
(0.109473 1.5973e-07 3.39457e-07)
(0.109472 2.04929e-07 2.15941e-07)
(0.109472 1.97134e-07 1.79941e-07)
(0.108963 5.39378e-08 2.23397e-06)
(0.108962 -5.07769e-08 1.09694e-06)
(0.108962 -1.37589e-07 5.12097e-07)
(0.108961 -2.01886e-07 2.56062e-07)
(0.108961 -2.38277e-07 1.13062e-07)
(0.10896 -2.23296e-07 8.219e-08)
(0.106411 7.3589e-07 2.18014e-06)
(0.10641 2.15456e-07 9.26448e-07)
(0.10641 -1.00856e-07 2.31838e-07)
(0.10641 -2.85839e-07 -9.11695e-08)
(0.10641 -4.00297e-07 -2.40185e-07)
(0.106409 -3.91029e-07 -2.41377e-07)
(0.101271 1.13213e-06 1.98114e-06)
(0.101271 4.54414e-07 6.86781e-07)
(0.101271 -1.4607e-08 -2.14137e-07)
(0.101271 -2.27021e-07 -5.94443e-07)
(0.101271 -3.12566e-07 -6.81547e-07)
(0.10127 -3.07139e-07 -6.07882e-07)
(0.0923689 1.08859e-06 1.40415e-06)
(0.0923696 3.53469e-07 3.12157e-07)
(0.0923699 -1.62515e-07 -4.42377e-07)
(0.0923701 -3.2778e-07 -7.10348e-07)
(0.09237 -2.91694e-07 -6.97775e-07)
(0.0923693 -1.72323e-07 -5.23652e-07)
(0.0712764 5.45245e-07 4.35406e-07)
(0.0712775 3.23351e-07 3.15788e-07)
(0.071278 1.5572e-07 3.84934e-07)
(0.0712784 1.69873e-07 6.21484e-07)
(0.0712789 4.00703e-07 8.90933e-07)
(0.0712801 5.768e-07 8.42809e-07)
(0.0587702 2.25982e-06 -2.14425e-07)
(0.0587665 2.32944e-06 5.58183e-07)
(0.0587641 1.66694e-06 1.47655e-06)
(0.0587626 8.00257e-07 1.672e-06)
(0.0587621 1.36027e-07 1.45113e-06)
(0.0587627 -1.84911e-07 9.61533e-07)
(0.0823182 -4.30355e-06 2.57874e-06)
(0.0823241 -2.45033e-06 1.93569e-06)
(0.0823271 -5.29806e-07 1.35835e-06)
(0.0823284 4.747e-07 9.69834e-07)
(0.0823289 8.37191e-07 6.93435e-07)
(0.0823287 7.12437e-07 4.89639e-07)
(0.0923678 9.31289e-07 -5.27804e-07)
(0.0923679 2.1978e-06 -1.44541e-06)
(0.0923678 2.0468e-06 -1.24403e-06)
(0.0923678 1.61989e-06 -7.9798e-07)
(0.0923676 1.13827e-06 -3.15488e-07)
(0.0923669 7.52296e-07 1.13832e-10)
(0.0987768 -5.56519e-07 1.01548e-06)
(0.0987766 5.96773e-07 9.19741e-09)
(0.0987759 9.8485e-07 -3.92438e-07)
(0.0987751 8.30066e-07 -2.99314e-07)
(0.0987741 5.42485e-07 -5.97126e-09)
(0.0987728 3.70613e-07 2.09491e-07)
(0.102771 -9.06097e-07 2.02593e-06)
(0.102771 -4.91683e-08 1.41218e-06)
(0.102771 2.46243e-07 1.03848e-06)
(0.102771 1.74322e-07 9.21409e-07)
(0.10277 4.16343e-08 9.20345e-07)
(0.102769 -5.60087e-08 9.10287e-07)
(0.104613 -5.35223e-07 1.99592e-06)
(0.104613 -1.44332e-07 1.4988e-06)
(0.104613 -4.82305e-08 1.30274e-06)
(0.104613 -1.14291e-07 1.28461e-06)
(0.104612 -1.9428e-07 1.29678e-06)
(0.104612 -2.43579e-07 1.25992e-06)
(0.104267 -1.86459e-07 1.93703e-06)
(0.104267 -1.07416e-07 1.35785e-06)
(0.104267 -1.08535e-07 1.1528e-06)
(0.104267 -1.55382e-07 1.16571e-06)
(0.104267 -2.22019e-07 1.21268e-06)
(0.104266 -2.4401e-07 1.19996e-06)
(0.101232 2.31956e-07 1.76749e-06)
(0.101233 1.09583e-07 9.77465e-07)
(0.101233 5.23587e-08 6.25051e-07)
(0.101233 1.3406e-08 6.04367e-07)
(0.101232 -6.28866e-08 6.93424e-07)
(0.101231 -1.0515e-07 7.56548e-07)
(0.0944448 5.13555e-07 1.49923e-06)
(0.0944455 2.89336e-07 5.02162e-07)
(0.0944458 1.69098e-07 -1.23783e-07)
(0.0944458 1.39458e-07 -2.87159e-07)
(0.0944456 9.01535e-08 -1.67467e-07)
(0.094445 4.86126e-08 4.54864e-08)
(0.082331 5.97262e-07 1.10486e-06)
(0.0823319 2.26636e-07 9.01719e-08)
(0.0823324 -7.95026e-08 -7.63309e-07)
(0.0823324 -1.84094e-07 -1.11408e-06)
(0.0823324 -1.75576e-07 -1.04908e-06)
(0.0823318 -1.08754e-07 -7.22851e-07)
(0.056107 3.31958e-07 4.06457e-07)
(0.0561079 1.23071e-07 7.06974e-09)
(0.0561081 -2.69827e-08 -2.70965e-07)
(0.056108 -5.48661e-08 -2.97662e-07)
(0.0561081 8.1778e-08 -1.62466e-07)
(0.0561089 2.12274e-07 -5.18064e-08)
(0.0369139 -3.50615e-07 4.92251e-07)
(0.036913 -3.6e-08 8.0824e-07)
(0.0369109 2.15104e-07 8.81006e-07)
(0.0369092 3.26161e-07 8.5862e-07)
(0.0369086 3.26401e-07 7.1694e-07)
(0.0369091 1.8169e-07 4.81243e-07)
(0.0561146 2.85424e-06 -1.35432e-06)
(0.0561095 3.92345e-06 -1.38008e-06)
(0.0561061 3.14808e-06 -7.93019e-07)
(0.0561042 1.92273e-06 -6.43738e-08)
(0.0561039 9.03494e-07 4.58552e-07)
(0.0561049 2.51447e-07 6.19279e-07)
(0.0712675 -2.91464e-06 1.12678e-06)
(0.0712638 -1.01227e-06 6.91727e-07)
(0.0712656 1.66378e-06 1.74795e-07)
(0.0712684 2.29814e-06 4.12552e-08)
(0.0712701 1.54309e-06 1.87105e-07)
(0.0712714 4.63977e-07 4.58638e-07)
(0.0712727 -4.6434e-07 8.39437e-07)
(0.0712748 -8.08571e-07 9.92727e-07)
(0.0818581 1.88979e-06 -3.10315e-07)
(0.0818587 5.67393e-07 7.93098e-07)
(0.0818604 -1.0242e-06 1.65681e-06)
(0.0818622 -2.17022e-06 1.83098e-06)
(0.0818639 -2.48682e-06 1.80833e-06)
(0.0818654 -2.49984e-06 1.84518e-06)
(0.0818674 -2.09628e-06 1.66888e-06)
(0.0883172 1.3146e-06 6.5471e-08)
(0.0883176 4.38052e-07 6.15234e-07)
(0.0883185 -6.34461e-07 1.2467e-06)
(0.0883191 -1.49888e-06 1.68978e-06)
(0.0883196 -2.03707e-06 1.91379e-06)
(0.0883202 -2.25842e-06 2.11321e-06)
(0.0883213 -2.00478e-06 2.01338e-06)
(0.0913466 2.42125e-07 6.66741e-07)
(0.0913477 -1.72556e-07 1.12475e-06)
(0.0913484 -6.43564e-07 1.53308e-06)
(0.0913489 -1.03464e-06 1.84023e-06)
(0.0913493 -1.28037e-06 2.1857e-06)
(0.0913503 -1.26555e-06 2.18724e-06)
(0.0910601 -2.07966e-08 6.5591e-07)
(0.0910611 -1.00197e-07 1.06006e-06)
(0.0910618 -2.10103e-07 1.44022e-06)
(0.0910624 -3.24564e-07 1.77269e-06)
(0.0910628 -4.33988e-07 2.18934e-06)
(0.0910639 -4.78006e-07 2.1973e-06)
(0.086763 -5.91885e-08 5.60548e-07)
(0.086764 4.92064e-08 8.20143e-07)
(0.0867646 1.91931e-07 1.13084e-06)
(0.0867652 2.95777e-07 1.49583e-06)
(0.0867657 2.96102e-07 1.93819e-06)
(0.0867669 1.81748e-07 1.95466e-06)
(0.0764845 -2.41138e-08 4.55588e-07)
(0.0764854 1.47312e-07 4.49641e-07)
(0.0764859 4.49691e-07 6.14016e-07)
(0.0764863 7.37265e-07 9.27772e-07)
(0.0764869 7.73967e-07 1.3618e-06)
(0.0764883 6.12091e-07 1.48195e-06)
(0.0587625 5.61579e-08 3.11198e-07)
(0.0587632 1.58569e-07 7.85352e-08)
(0.0587635 3.5543e-07 -2.27516e-09)
(0.0587636 5.42069e-07 1.05283e-07)
(0.058764 6.08628e-07 3.88826e-07)
(0.0587652 4.65412e-07 5.60411e-07)
(0.0369113 5.85698e-08 7.55423e-08)
(0.0369119 7.34875e-08 -5.69104e-08)
(0.0369115 1.12556e-07 -1.33888e-07)
(0.0369109 1.52367e-07 -1.48318e-07)
(0.0369107 1.66387e-07 -1.34882e-07)
(0.0369112 1.41385e-07 -6.17202e-08)
)
;

boundaryField
{
    inlet
    {
        type            fixedValue;
        value           nonuniform List<vector> 0();
    }
    ami1
    {
        type            cyclicAMI;
        value           nonuniform List<vector> 0();
    }
    walls
    {
        type            noSlip;
    }
    ami2
    {
        type            cyclicAMI;
        value           nonuniform List<vector> 0();
    }
    outlet
    {
        type            zeroGradient;
    }
    procBoundary6to5
    {
        type            processor;
        value           nonuniform List<vector> 
177
(
(0.0369073 4.50995e-07 -9.02211e-07)
(0.0560858 1.14102e-06 -1.82938e-06)
(0.0587567 2.54018e-06 3.64938e-06)
(0.076482 1.52778e-06 1.13185e-06)
(0.0867599 2.74999e-09 -9.57331e-07)
(0.0944432 1.13983e-06 9.33547e-07)
(0.0867599 2.74999e-09 -9.57331e-07)
(0.0910583 3.12928e-07 -3.04691e-07)
(0.091345 -1.17438e-06 -3.38243e-07)
(0.091345 -1.17438e-06 -3.38243e-07)
(0.091345 -1.17438e-06 -3.38243e-07)
(0.0883157 -2.3507e-06 6.42361e-07)
(0.0883157 -2.3507e-06 6.42361e-07)
(0.0818609 -3.75622e-06 1.87325e-06)
(0.0712611 -3.47133e-06 2.324e-06)
(0.0712611 -3.47133e-06 2.324e-06)
(0.0560996 6.21244e-07 4.4883e-07)
(0.0823256 3.96222e-06 -8.7079e-07)
(0.0369067 6.45713e-07 6.06521e-07)
(0.0560858 1.14102e-06 -1.82938e-06)
(0.0560858 1.14102e-06 -1.82938e-06)
(0.0712596 7.02999e-07 -7.64829e-07)
(0.0823284 -2.4321e-06 -6.35425e-06)
(0.0944432 1.13983e-06 9.33547e-07)
(0.0923725 -3.57291e-06 -6.36805e-06)
(0.0944432 1.13983e-06 9.33547e-07)
(0.101231 -1.59975e-07 -1.88987e-06)
(0.104267 5.38381e-07 -1.20929e-06)
(0.104612 9.03825e-07 -1.38758e-06)
(0.102769 1.71733e-06 -1.20017e-06)
(0.098776 2.76642e-06 -1.42954e-06)
(0.098776 2.76642e-06 -1.42954e-06)
(0.098776 2.76642e-06 -1.42954e-06)
(0.0923727 3.83532e-06 -2.09079e-06)
(0.0923727 3.83532e-06 -2.09079e-06)
(0.0823256 3.96222e-06 -8.7079e-07)
(0.0823256 3.96222e-06 -8.7079e-07)
(0.0587565 -1.12679e-06 2.19814e-06)
(0.0712596 7.02999e-07 -7.64829e-07)
(0.0712596 7.02999e-07 -7.64829e-07)
(0.0923725 -3.57291e-06 -6.36805e-06)
(0.0987747 -1.65635e-06 -1.35167e-06)
(0.10127 -1.3404e-06 -1.97617e-06)
(0.106411 -1.26185e-06 -2.42614e-06)
(0.108963 5.33657e-08 -2.47941e-06)
(0.109474 1.60131e-06 -2.31681e-06)
(0.108291 3.01397e-06 -2.1537e-06)
(0.108291 3.01397e-06 -2.1537e-06)
(0.105563 3.75054e-06 -1.8754e-06)
(0.101272 2.71939e-06 -1.22098e-06)
(0.094448 1.65e-06 2.95023e-07)
(0.094448 1.65e-06 2.95023e-07)
(0.094448 1.65e-06 2.95023e-07)
(0.094448 1.65e-06 2.95023e-07)
(0.0764804 -3.26192e-06 2.83958e-06)
(0.0818625 1.20967e-06 2.67828e-06)
(0.0818625 1.20967e-06 2.67828e-06)
(0.0987747 -1.65635e-06 -1.35167e-06)
(0.0987747 -1.65635e-06 -1.35167e-06)
(0.0987747 -1.65635e-06 -1.35167e-06)
(0.105562 -2.31839e-06 -3.07613e-06)
(0.105562 -2.31839e-06 -3.07613e-06)
(0.109522 -1.67192e-06 -2.83679e-06)
(0.109522 -1.67192e-06 -2.83679e-06)
(0.111627 -4.21807e-07 -2.77856e-06)
(0.111627 -4.21807e-07 -2.77856e-06)
(0.112198 1.25399e-06 -2.59039e-06)
(0.112198 1.25399e-06 -2.59039e-06)
(0.112198 1.25399e-06 -2.59039e-06)
(0.111449 2.18241e-06 -1.70188e-06)
(0.109522 3.32921e-06 -1.95536e-06)
(0.109522 3.32921e-06 -1.95536e-06)
(0.109522 3.32921e-06 -1.95536e-06)
(0.106411 3.2064e-06 -1.71448e-06)
(0.106411 3.2064e-06 -1.71448e-06)
(0.101232 1.32206e-06 -1.14029e-07)
(0.101232 1.32206e-06 -1.14029e-07)
(0.0867613 -1.31862e-06 1.84116e-06)
(0.0883138 6.46903e-07 2.15997e-06)
(0.102769 -2.16794e-06 -1.81625e-06)
(0.102769 -2.16794e-06 -1.81625e-06)
(0.108291 -2.64762e-06 -2.38648e-06)
(0.108291 -2.64762e-06 -2.38648e-06)
(0.111449 -2.2352e-06 -2.30461e-06)
(0.111449 -2.2352e-06 -2.30461e-06)
(0.113185 -1.13436e-06 -2.08598e-06)
(0.113185 -1.13436e-06 -2.08598e-06)
(0.113725 4.35991e-07 -1.66161e-06)
(0.113184 1.66425e-06 -1.10016e-06)
(0.111627 2.44078e-06 -6.05748e-07)
(0.108963 2.51717e-06 -8.38249e-08)
(0.104266 9.61142e-07 5.11835e-07)
(0.0910602 6.39593e-08 1.1872e-06)
(0.0910602 6.39593e-08 1.1872e-06)
(0.0910602 6.39593e-08 1.1872e-06)
(0.091343 -8.23671e-08 1.86689e-06)
(0.091343 -8.23671e-08 1.86689e-06)
(0.104612 -1.71645e-06 -4.32628e-07)
(0.104612 -1.52656e-06 -5.7779e-07)
(0.104612 -1.52656e-06 -5.7779e-07)
(0.104612 -1.52656e-06 -5.7779e-07)
(0.109476 -2.66865e-06 -1.09666e-06)
(0.108963 -2.94737e-06 -1.76827e-07)
(0.1122 -2.36195e-06 -1.06788e-06)
(0.111627 -2.6712e-06 1.17542e-07)
(0.113727 -1.59397e-06 -8.41626e-07)
(0.114225 1.05129e-08 -5.55309e-07)
(0.113184 -1.80718e-06 4.47049e-07)
(0.114225 1.05129e-08 -5.55309e-07)
(0.113724 1.35897e-06 7.97571e-09)
(0.112197 2.24532e-06 5.29699e-07)
(0.109474 2.54115e-06 1.03636e-06)
(0.104613 1.81321e-06 1.01403e-06)
(0.0913459 6.6572e-07 3.06366e-07)