/*--------------------------------*- C++ -*----------------------------------*\
| =========                 |                                                 |
| \\      /  F ield         | OpenFOAM: The Open Source CFD Toolbox           |
|  \\    /   O peration     | Version:  2212                                  |
|   \\  /    A nd           | Website:  www.openfoam.com                      |
|    \\/     M anipulation  |                                                 |
\*---------------------------------------------------------------------------*/
FoamFile
{
    version     2.0;
    format      ascii;
    arch        "LSB;label=32;scalar=64";
    class       volScalarField;
    location    "2.25";
    object      nut;
}
// * * * * * * * * * * * * * * * * * * * * * * * * * * * * * * * * * * * * * //

dimensions      [0 2 -1 0 0 0 0];

internalField   nonuniform List<scalar> 
680
(
4.5356e-05
2.3208e-05
1.65396e-05
1.36494e-05
1.18966e-05
1.06844e-05
9.76082e-06
0.000107685
6.77183e-05
5.06311e-05
4.14159e-05
3.54049e-05
3.10368e-05
2.77138e-05
0.000160509
0.00010736
8.07409e-05
6.55976e-05
5.54896e-05
4.83026e-05
4.3131e-05
0.000198681
0.0001383
0.000105187
8.55269e-05
7.25012e-05
6.28901e-05
5.60609e-05
0.000218609
0.000155003
0.000118661
9.65068e-05
8.18822e-05
7.08353e-05
6.30852e-05
0.000218609
0.000155003
0.000118661
9.65068e-05
8.18822e-05
7.08354e-05
6.30853e-05
0.000198681
0.0001383
0.000105187
8.55269e-05
7.25012e-05
6.28901e-05
5.6061e-05
0.000160509
0.00010736
8.07409e-05
6.55976e-05
5.54896e-05
4.83026e-05
4.31311e-05
0.000107685
6.77183e-05
5.06311e-05
4.14159e-05
3.54049e-05
3.10368e-05
2.77139e-05
4.5356e-05
2.3208e-05
1.65396e-05
1.36494e-05
1.18966e-05
1.06844e-05
9.76082e-06
0.000107685
6.77183e-05
5.06311e-05
4.14159e-05
3.54049e-05
3.10368e-05
2.77139e-05
0.000528907
0.000369984
0.000305097
0.000261371
0.000228528
0.000202476
0.000181114
0.000663952
0.000488458
0.000404619
0.000347248
0.000305036
0.000272128
0.000245318
0.00071288
0.000556432
0.000466397
0.000402355
0.000354425
0.000317049
0.000286673
0.000728543
0.000588231
0.000496001
0.000429131
0.000378509
0.000338933
0.000306815
0.000728543
0.000588231
0.000496001
0.000429131
0.000378509
0.000338933
0.000306816
0.00071288
0.000556432
0.000466397
0.000402355
0.000354426
0.00031705
0.000286675
0.000663952
0.000488459
0.000404619
0.000347248
0.000305036
0.000272128
0.00024532
0.000528907
0.000369984
0.000305097
0.000261371
0.000228528
0.000202476
0.000181114
0.000107685
6.77183e-05
5.06311e-05
4.14159e-05
3.54049e-05
3.10368e-05
2.77138e-05
0.000160509
0.00010736
8.07409e-05
6.55976e-05
5.54896e-05
4.83026e-05
4.31311e-05
0.000663952
0.000488459
0.000404619
0.000347248
0.000305036
0.000272128
0.00024532
0.000786828
0.000662293
0.000567975
0.000495806
0.000439464
0.000394563
0.000357975
0.000809324
0.000713906
0.000631505
0.000562574
0.000505377
0.000457785
0.000417841
0.000814958
0.000730426
0.000654634
0.000589043
0.000533067
0.000485438
0.000444762
0.000814958
0.000730426
0.000654634
0.000589043
0.000533067
0.000485438
0.000444763
0.000809324
0.000713906
0.000631505
0.000562574
0.000505377
0.000457786
0.000417842
0.000786828
0.000662293
0.000567975
0.000495806
0.000439464
0.000394563
0.000357975
0.000663952
0.000488458
0.000404619
0.000347248
0.000305036
0.000272128
0.000245318
0.000160509
0.00010736
8.07409e-05
6.55976e-05
5.54896e-05
4.83026e-05
4.3131e-05
0.000198681
0.0001383
0.000105187
8.55269e-05
7.25012e-05
6.28901e-05
5.60611e-05
0.00071288
0.000556432
0.000466397
0.000402355
0.000354426
0.00031705
0.000286675
0.000809324
0.000713906
0.000631505
0.000562574
0.000505377
0.000457786
0.000417842
0.000823497
0.000753987
0.000688491
0.000628748
0.000575387
0.000528266
0.000486846
0.000826292
0.000764347
0.000706102
0.000651936
0.00060223
0.000557103
0.000516428
0.000826292
0.000764347
0.000706102
0.000651936
0.00060223
0.000557103
0.000516428
0.000823497
0.000753987
0.000688491
0.000628748
0.000575387
0.000528266
0.000486846
0.000809324
0.000713906
0.000631505
0.000562574
0.000505377
0.000457785
0.00041784
0.00071288
0.000556432
0.000466397
0.000402355
0.000354425
0.000317049
0.000286673
0.000198681
0.0001383
0.000105187
8.55269e-05
7.25012e-05
6.28901e-05
5.60609e-05
0.000218609
0.000155003
0.000118661
9.65068e-05
8.18822e-05
7.08354e-05
6.30853e-05
0.000728543
0.000588231
0.000496002
0.000429131
0.000378509
0.000338933
0.000306816
0.000814958
0.000730426
0.000654634
0.000589043
0.000533067
0.000485438
0.000444763
0.000826292
0.000764347
0.000706102
0.000651936
0.00060223
0.000557103
0.000516428
0.000828382
0.0007726
0.000721138
0.00067296
0.000627782
0.00058562
0.000546547
0.000828382
0.0007726
0.000721138
0.00067296
0.000627782
0.00058562
0.000546547
0.000826292
0.000764347
0.000706102
0.000651936
0.00060223
0.000557103
0.000516428
0.000814958
0.000730426
0.000654634
0.000589043
0.000533067
0.000485437
0.000444762
0.000728543
0.000588231
0.000496001
0.000429131
0.000378509
0.000338933
0.000306815
0.000218609
0.000155003
0.000118661
9.65068e-05
8.18822e-05
7.08353e-05
6.30852e-05
0.000218609
0.000155003
0.000118661
9.65068e-05
8.18822e-05
7.08353e-05
6.30852e-05
0.000728543
0.000588231
0.000496001
0.000429131
0.000378509
0.000338933
0.000306815
0.000814958
0.000730426
0.000654634
0.000589043
0.000533067
0.000485438
0.000444762
0.000826292
0.000764347
0.000706102
0.000651936
0.00060223
0.000557103
0.000516428
0.000828382
0.0007726
0.000721138
0.00067296
0.000627782
0.00058562
0.000546547
0.000828382
0.0007726
0.000721138
0.00067296
0.000627782
0.00058562
0.000546547
0.000826292
0.000764347
0.000706102
0.000651936
0.00060223
0.000557103
0.000516428
0.000814958
0.000730426
0.000654634
0.000589043
0.000533067
0.000485438
0.000444763
0.000728543
0.000588231
0.000496001
0.000429131
0.000378509
0.000338933
0.000306816
0.000218609
0.000155003
0.000118661
9.65068e-05
8.18822e-05
7.08354e-05
6.30853e-05
0.000198681
0.0001383
0.000105187
8.55269e-05
7.25012e-05
6.28901e-05
5.60609e-05
0.00071288
0.000556432
0.000466397
0.000402355
0.000354425
0.00031705
0.000286673
0.000809324
0.000713906
0.000631505
0.000562574
0.000505377
0.000457785
0.000417841
0.000823497
0.000753987
0.000688491
0.000628748
0.000575387
0.000528266
0.000486846
0.000826292
0.000764347
0.000706102
0.000651936
0.00060223
0.000557103
0.000516428
0.000826292
0.000764347
0.000706102
0.000651936
0.00060223
0.000557103
0.000823497
0.000753987
0.000688491
0.000628748
0.000575387
0.000528266
0.000809324
0.000713906
0.000631505
0.000562574
0.000505377
0.000457786
0.00071288
0.000556432
0.000466397
0.000402355
0.000354426
0.00031705
0.000198681
0.0001383
0.000105187
8.55269e-05
7.25012e-05
6.28901e-05
0.000160509
0.00010736
8.07409e-05
6.55976e-05
5.54896e-05
4.83026e-05
4.3131e-05
0.000663952
0.000488458
0.000404619
0.000347248
0.000305036
0.000272128
0.000245319
0.000786828
0.000662293
0.000567975
0.000495806
0.000439464
0.000394563
0.000357976
0.000809324
0.000713906
0.000631505
0.000562574
0.000505377
0.000457786
0.000417842
0.000814958
0.000730426
0.000654634
0.000589043
0.000533067
0.000485438
0.000444763
0.000814958
0.000730426
0.000654634
0.000589043
0.000533067
0.000485437
0.000809324
0.000713906
0.000631505
0.000562574
0.000505377
0.000457785
0.000786828
0.000662293
0.000567975
0.000495806
0.000439464
0.000394563
0.000663952
0.000488459
0.000404619
0.000347248
0.000305036
0.000272129
0.000160509
0.00010736
8.07409e-05
6.55976e-05
5.54896e-05
4.83026e-05
0.000107685
6.77183e-05
5.06311e-05
4.14159e-05
3.54049e-05
3.10368e-05
2.77138e-05
0.000528907
0.000369984
0.000305097
0.000261371
0.000228528
0.000202476
0.000181115
0.000663952
0.000488459
0.000404619
0.000347248
0.000305036
0.000272128
0.00024532
0.00071288
0.000556432
0.000466397
0.000402355
0.000354426
0.00031705
0.000286675
0.000728543
0.000588231
0.000496002
0.000429131
0.000378509
0.000338933
0.000306816
0.000728543
0.000588231
0.000496001
0.000429131
0.000378509
0.000338933
0.00071288
0.000556432
0.000466397
0.000402355
0.000354425
0.000317049
0.000663952
0.000488458
0.000404619
0.000347248
0.000305036
0.000272128
0.000528907
0.000369984
0.000305097
0.000261371
0.000228528
0.000202476
0.000107685
6.77183e-05
5.06311e-05
4.14159e-05
3.54049e-05
3.10368e-05
4.5356e-05
2.3208e-05
1.65396e-05
1.36494e-05
1.18966e-05
1.06844e-05
9.76082e-06
0.000107685
6.77183e-05
5.06311e-05
4.14159e-05
3.54049e-05
3.10368e-05
2.77139e-05
0.000160509
0.00010736
8.07409e-05
6.55976e-05
5.54896e-05
4.83026e-05
4.31311e-05
0.000198681
0.0001383
0.000105187
8.55269e-05
7.25012e-05
6.28901e-05
5.60611e-05
0.000218609
0.000155003
0.000118661
9.65068e-05
8.18822e-05
7.08354e-05
6.30853e-05
0.000218609
0.000155003
0.000118661
9.65068e-05
8.18822e-05
7.08353e-05
0.000198681
0.0001383
0.000105187
8.55269e-05
7.25012e-05
6.28901e-05
0.000160509
0.00010736
8.07409e-05
6.55976e-05
5.54896e-05
4.83026e-05
0.000107685
6.77183e-05
5.06311e-05
4.14159e-05
3.54049e-05
3.10368e-05
4.5356e-05
2.3208e-05
1.65396e-05
1.36494e-05
1.18966e-05
1.06844e-05
)
;

boundaryField
{
    inlet
    {
        type            calculated;
        value           uniform 0.000851986;
    }
    ami1
    {
        type            cyclicAMI;
        value           nonuniform List<scalar> 0();
    }
    walls
    {
        type            nutkWallFunction;
        blending        stepwise;
        value           nonuniform List<scalar> 
271
(
0
9.40055e-06
1.69775e-05
2.22372e-05
2.4929e-05
2.4929e-05
2.22372e-05
1.69775e-05
9.40055e-06
0
0
3.31268e-06
9.3526e-06
1.38415e-05
1.62058e-05
1.62058e-05
1.38415e-05
9.3526e-06
3.31268e-06
0
0
5.57024e-07
5.34227e-06
9.03107e-06
1.10106e-05
1.10106e-05
9.03107e-06
5.34227e-06
5.57024e-07
0
0
0
2.97694e-06
6.0758e-06
7.73693e-06
7.73694e-06
6.0758e-06
2.97694e-06
0
0
0
0
1.35316e-06
4.06425e-06
5.51776e-06
5.51777e-06
4.06426e-06
1.35316e-06
0
0
0
0
1.71353e-07
2.54593e-06
3.80334e-06
3.80335e-06
2.54595e-06
1.71369e-07
0
0
0
0
0
1.44605e-06
2.57709e-06
2.57711e-06
0
9.40055e-06
1.69775e-05
2.22372e-05
2.4929e-05
2.4929e-05
2.22372e-05
1.69775e-05
9.40055e-06
0
0
3.31268e-06
9.3526e-06
1.38415e-05
1.62058e-05
1.62058e-05
1.38415e-05
9.3526e-06
3.31268e-06
0
0
5.57024e-07
5.34227e-06
9.03107e-06
1.10106e-05
1.10106e-05
9.03107e-06
5.34227e-06
5.57024e-07
0
0
0
2.97694e-06
6.0758e-06
7.73693e-06
7.73694e-06
6.0758e-06
2.97694e-06
0
0
0
0
1.35316e-06
4.06425e-06
5.51776e-06
5.51777e-06
4.06426e-06
1.35316e-06
0
0
0
0
1.71353e-07
2.54593e-06
3.80334e-06
3.80335e-06
2.54595e-06
1.71368e-07
0
0
0
0
0
1.44605e-06
2.57709e-06
2.57711e-06
1.44609e-06
0
0
0
0
9.40055e-06
1.69775e-05
2.22372e-05
2.4929e-05
2.4929e-05
2.22372e-05
1.69775e-05
9.40055e-06
0
0
3.31268e-06
9.3526e-06
1.38415e-05
1.62058e-05
1.62058e-05
1.38415e-05
9.3526e-06
3.31268e-06
0
0
5.57024e-07
5.34227e-06
9.03107e-06
1.10106e-05
1.10106e-05
9.03107e-06
5.34227e-06
5.57024e-07
0
0
0
2.97694e-06
6.0758e-06
7.73694e-06
7.73693e-06
6.0758e-06
2.97694e-06
0
0
0
0
1.35316e-06
4.06426e-06
5.51777e-06
5.51776e-06
4.06425e-06
1.35316e-06
0
0
0
0
1.71369e-07
2.54595e-06
3.80335e-06
3.80334e-06
2.54593e-06
1.71354e-07
0
0
0
0
0
1.44609e-06
2.57711e-06
2.5771e-06
1.44605e-06
0
0
0
0
9.40055e-06
1.69775e-05
2.22372e-05
2.4929e-05
2.4929e-05
2.22372e-05
1.69775e-05
9.40055e-06
0
0
3.31268e-06
9.3526e-06
1.38415e-05
1.62058e-05
1.62058e-05
1.38415e-05
9.3526e-06
3.31268e-06
0
0
5.57024e-07
5.34227e-06
9.03107e-06
1.10106e-05
1.10106e-05
9.03107e-06
5.34227e-06
5.57024e-07
0
0
0
2.97694e-06
6.0758e-06
7.73694e-06
7.73693e-06
6.0758e-06
2.97694e-06
0
0
0
0
1.35317e-06
4.06426e-06
5.51777e-06
5.51776e-06
4.06425e-06
1.35316e-06
0
0
0
0
1.71369e-07
2.54595e-06
3.80335e-06
3.80334e-06
2.54593e-06
1.71353e-07
0
0
0
0
0
1.44609e-06
2.57711e-06
)
;
    }
    ami2
    {
        type            cyclicAMI;
        value           nonuniform List<scalar> 0();
    }
    outlet
    {
        type            calculated;
        value           nonuniform List<scalar> 0();
    }
    procBoundary4to3
    {
        type            processor;
        value           nonuniform List<scalar> 
109
(
9.0572e-06
2.50818e-05
3.90791e-05
5.0759e-05
5.71429e-05
5.7143e-05
5.07592e-05
3.90793e-05
2.50819e-05
9.05719e-06
2.50819e-05
0.000163075
0.000222889
0.000261251
0.000279967
0.000279969
0.000261256
0.000222892
0.000163075
2.50818e-05
3.90793e-05
0.000222892
0.000327453
0.000383939
0.000409791
0.000409793
0.000383942
0.000327453
0.000222889
3.90791e-05
5.07592e-05
0.000261256
0.000383942
0.000450442
0.000479912
0.000479912
0.000450442
0.000383939
0.000261251
5.0759e-05
5.7143e-05
0.000279969
0.000409793
0.000479912
0.000510579
0.000510579
0.000479912
0.000409791
0.000279967
5.71429e-05
5.71429e-05
0.000279967
0.000409791
0.000479912
0.000510579
0.000510579
0.000516428
0.000479912
0.000486846
0.000409793
0.000417842
0.000279969
0.000286675
5.7143e-05
5.60611e-05
5.0759e-05
0.000261252
0.000383939
0.000450442
0.000479912
0.000516428
0.000516428
0.000486846
0.000417842
0.000286675
5.60611e-05
3.90791e-05
0.000222889
0.000327454
0.000383942
0.000409793
0.000444762
0.000444762
0.000417841
0.000357976
0.00024532
4.31311e-05
2.50818e-05
0.000163075
0.000222892
0.000261256
0.000279969
0.000306815
0.000306815
0.000286673
0.000245318
0.000181115
2.77139e-05
9.0572e-06
2.50819e-05
3.90793e-05
5.07592e-05
5.7143e-05
6.30852e-05
6.30852e-05
5.60609e-05
4.3131e-05
2.77138e-05
9.76081e-06
)
;
    }
}


// ************************************************************************* //
