/*--------------------------------*- C++ -*----------------------------------*\
| =========                 |                                                 |
| \\      /  F ield         | OpenFOAM: The Open Source CFD Toolbox           |
|  \\    /   O peration     | Version:  2212                                  |
|   \\  /    A nd           | Website:  www.openfoam.com                      |
|    \\/     M anipulation  |                                                 |
\*---------------------------------------------------------------------------*/
FoamFile
{
    version     2.0;
    format      ascii;
    arch        "LSB;label=32;scalar=64";
    class       volScalarField;
    location    "0.95";
    object      k;
}
// * * * * * * * * * * * * * * * * * * * * * * * * * * * * * * * * * * * * * //

dimensions      [0 2 -2 0 0 0 0];

internalField   nonuniform List<scalar> 
680
(
0.00851617
0.00749152
0.00669663
0.00606108
0.00555175
0.00512441
0.00474794
0.0143635
0.0120086
0.0102143
0.00881711
0.00770693
0.00680597
0.00606386
0.0167972
0.0140489
0.0119415
0.0102845
0.00895654
0.00788578
0.0070123
0.0190786
0.0159341
0.0135149
0.0116267
0.0101126
0.00888161
0.00787066
0.0202208
0.0169047
0.0143244
0.0123076
0.010701
0.00939425
0.00831957
0.0202207
0.0169045
0.0143242
0.0123072
0.0107006
0.00939354
0.00831852
0.0190784
0.0159338
0.0135145
0.011626
0.0101117
0.00888019
0.016797
0.0140486
0.011941
0.0102839
0.00895567
0.0078845
0.0143635
0.0120085
0.0102142
0.00881692
0.0077066
0.00680542
0.00851617
0.00749152
0.00669663
0.00606108
0.00555175
0.00512441
0.0143635
0.0120085
0.0102142
0.00881692
0.0077066
0.00680542
0.00606282
0.0319124
0.0260946
0.0216878
0.0182773
0.0155895
0.0134423
0.0117
0.0391419
0.0320589
0.0266718
0.0224904
0.0191877
0.0165395
0.0143875
0.0439844
0.0360998
0.0300747
0.025382
0.0216651
0.0186774
0.0162448
0.046421
0.0381534
0.0318166
0.0268699
0.0229452
0.0197859
0.0172097
0.0464208
0.0381531
0.0318162
0.0268694
0.0229445
0.0197848
0.0172082
0.0439841
0.0360993
0.030074
0.025381
0.0216636
0.0186754
0.0391417
0.0320585
0.0266713
0.0224897
0.0191867
0.016538
0.0319124
0.0260946
0.0216878
0.0182773
0.0155895
0.0134423
0.0143635
0.0120086
0.0102143
0.00881711
0.00770693
0.00680597
0.016797
0.0140486
0.011941
0.0102839
0.00895567
0.00788449
0.00701038
0.0391417
0.0320585
0.0266713
0.0224897
0.0191867
0.016538
0.0143855
0.0513822
0.0422218
0.0351797
0.0296761
0.0253099
0.0217988
0.0189406
0.0585866
0.0483997
0.0404745
0.034225
0.0292337
0.0251997
0.0219035
0.0619604
0.0513625
0.043061
0.0364789
0.031199
0.026917
0.0234085
0.0619603
0.0513624
0.0430608
0.0364786
0.0311986
0.0269164
0.0234078
0.0585864
0.0483995
0.0404741
0.0342245
0.0292331
0.0251989
0.0513822
0.0422218
0.0351797
0.0296761
0.0253099
0.0217988
0.0391419
0.0320589
0.0266718
0.0224904
0.0191877
0.0165395
0.0167972
0.0140489
0.0119415
0.0102845
0.00895654
0.00788577
0.0190784
0.0159338
0.0135145
0.011626
0.0101117
0.00888018
0.00786853
0.0439841
0.0360993
0.030074
0.025381
0.0216636
0.0186754
0.0162419
0.0585864
0.0483995
0.0404741
0.0342245
0.0292331
0.0251988
0.0219024
0.0669838
0.0557848
0.0469225
0.0398397
0.0341239
0.0294677
0.0256405
0.0707498
0.0592099
0.0499926
0.0425683
0.0365382
0.0316004
0.0275248
0.0707498
0.0592098
0.0499925
0.0425682
0.0365381
0.0316002
0.0275246
0.0669838
0.0557848
0.0469225
0.0398397
0.0341239
0.0294677
0.0585866
0.0483997
0.0404745
0.034225
0.0292337
0.0251997
0.0439844
0.0360998
0.0300747
0.025382
0.021665
0.0186774
0.0190786
0.0159341
0.0135149
0.0116267
0.0101126
0.0088816
0.0202207
0.0169045
0.0143242
0.0123072
0.0107006
0.00939354
0.00831852
0.0464208
0.0381531
0.0318162
0.0268694
0.0229445
0.0197848
0.0172082
0.0619603
0.0513624
0.0430608
0.0364786
0.0311986
0.0269164
0.0234078
0.0707498
0.0592098
0.0499925
0.0425682
0.0365381
0.0316002
0.0275246
0.0746125
0.062792
0.0532534
0.0455013
0.0391574
0.0339303
0.0295946
0.0746125
0.062792
0.0532534
0.0455013
0.0391574
0.0339303
0.0295946
0.0707498
0.0592099
0.0499926
0.0425683
0.0365382
0.0316003
0.0619604
0.0513625
0.043061
0.0364789
0.031199
0.0269169
0.046421
0.0381534
0.0318166
0.0268699
0.0229452
0.0197858
0.0202208
0.0169047
0.0143244
0.0123076
0.010701
0.00939424
0.0202208
0.0169047
0.0143244
0.0123076
0.0107011
0.00939425
0.00831958
0.046421
0.0381534
0.0318166
0.0268699
0.0229452
0.0197859
0.0172097
0.0619604
0.0513625
0.043061
0.0364789
0.031199
0.026917
0.0234085
0.0707498
0.0592099
0.0499926
0.0425683
0.0365382
0.0316004
0.0275248
0.0746125
0.062792
0.0532534
0.0455013
0.0391574
0.0339303
0.0295946
0.0746125
0.062792
0.0532534
0.0455013
0.0391574
0.0339303
0.0295946
0.0707498
0.0592098
0.0499925
0.0425682
0.0365381
0.0316002
0.0619603
0.0513624
0.0430608
0.0364786
0.0311986
0.0269164
0.0464208
0.0381531
0.0318162
0.0268694
0.0229445
0.0197848
0.0202207
0.0169045
0.0143242
0.0123072
0.0107006
0.00939354
0.0190786
0.0159341
0.0135149
0.0116267
0.0101126
0.00888161
0.00787066
0.0439845
0.0360998
0.0300747
0.025382
0.0216651
0.0186774
0.0162448
0.0585866
0.0483997
0.0404745
0.034225
0.0292337
0.0251997
0.0219035
0.0669838
0.0557848
0.0469225
0.0398397
0.0341239
0.0294677
0.0256405
0.0707498
0.0592098
0.0499925
0.0425682
0.0365381
0.0316002
0.0275246
0.08532
0.0707498
0.0592099
0.0499926
0.0425683
0.0365382
0.0316004
0.0275248
0.0812741
0.0669838
0.0557848
0.0469225
0.0398397
0.0341239
0.0294677
0.0718632
0.0585864
0.0483995
0.0404741
0.0342245
0.0292331
0.0251989
0.0545303
0.0439841
0.0360993
0.030074
0.025381
0.0216636
0.0186754
0.0232722
0.0190784
0.0159338
0.0135145
0.011626
0.0101117
0.00888019
0.0167972
0.0140489
0.0119415
0.0102845
0.00895655
0.00788578
0.0070123
0.0391419
0.0320589
0.0266718
0.0224904
0.0191877
0.0165395
0.0143875
0.0513822
0.0422218
0.0351797
0.0296761
0.0253099
0.0217988
0.0189407
0.0585864
0.0483995
0.0404741
0.0342245
0.0292331
0.0251988
0.0219024
0.0619603
0.0513624
0.0430608
0.0364786
0.0311986
0.0269164
0.0234078
0.0756572
0.0619604
0.0513625
0.043061
0.0364789
0.031199
0.026917
0.0234085
0.0718633
0.0585866
0.0483997
0.0404745
0.034225
0.0292337
0.0251997
0.0635106
0.0513822
0.0422218
0.0351797
0.0296761
0.0253099
0.0217988
0.0486773
0.0391417
0.0320585
0.0266713
0.0224897
0.0191867
0.016538
0.0204608
0.016797
0.0140486
0.011941
0.0102839
0.00895567
0.0078845
0.0143635
0.0120086
0.0102143
0.00881711
0.00770693
0.00680597
0.00606386
0.0319124
0.0260946
0.0216878
0.0182773
0.0155895
0.0134423
0.0117
0.0391417
0.0320585
0.0266713
0.0224897
0.0191867
0.016538
0.0143855
0.0439841
0.0360993
0.030074
0.025381
0.0216636
0.0186754
0.0162419
0.0464208
0.0381531
0.0318162
0.0268694
0.0229445
0.0197848
0.0172082
0.0574405
0.046421
0.0381534
0.0318166
0.0268699
0.0229452
0.0197859
0.0172097
0.0545306
0.0439845
0.0360998
0.0300747
0.025382
0.021665
0.0186774
0.0486775
0.0391419
0.0320589
0.0266718
0.0224904
0.0191877
0.0165395
0.0397946
0.0319124
0.0260946
0.0216878
0.0182773
0.0155895
0.0134423
0.0175362
0.0143635
0.0120085
0.0102142
0.00881692
0.0077066
0.00680542
0.00851617
0.00749152
0.00669663
0.00606108
0.00555175
0.00512441
0.00474794
0.0143635
0.0120085
0.0102142
0.00881692
0.0077066
0.00680542
0.00606282
0.016797
0.0140486
0.011941
0.0102839
0.00895567
0.00788449
0.00701038
0.0190784
0.0159338
0.0135145
0.011626
0.0101117
0.00888018
0.00786853
0.0202207
0.0169045
0.0143242
0.0123072
0.0107006
0.00939354
0.00831851
0.0246449
0.0202208
0.0169047
0.0143244
0.0123076
0.010701
0.00939424
0.00831957
0.0232723
0.0190786
0.0159341
0.0135149
0.0116267
0.0101126
0.0088816
0.0204609
0.0167972
0.0140489
0.0119415
0.0102845
0.00895654
0.00788577
0.0175362
0.0143635
0.0120086
0.0102143
0.00881711
0.00770693
0.00680596
0.00989076
0.00851617
0.00749152
0.00669663
0.00606108
0.00555175
0.00512441
)
;

boundaryField
{
    inlet
    {
        type            fixedValue;
        value           nonuniform List<scalar> 0();
    }
    ami1
    {
        type            cyclicAMI;
        value           nonuniform List<scalar> 0();
    }
    walls
    {
        type            kqRWallFunction;
        value           nonuniform List<scalar> 
271
(
0.0232722
0.0204608
0.0175362
0.00989076
0.00851617
0.0143635
0.0167972
0.0190786
0.0202208
0.0202207
0.0190784
0.016797
0.0143635
0.00851617
0.00749152
0.0120086
0.0140489
0.0159341
0.0169047
0.0169045
0.0159338
0.0140486
0.0120085
0.00749152
0.00669663
0.0102143
0.0119415
0.0135149
0.0143244
0.0143242
0.0135145
0.011941
0.0102142
0.00669663
0.00606108
0.00881711
0.0102845
0.0116267
0.0123076
0.0123072
0.011626
0.0102839
0.00881692
0.00606108
0.00555175
0.00770693
0.00895654
0.0101126
0.010701
0.0107006
0.0101117
0.00895567
0.0077066
0.00555175
0.00512441
0.00680597
0.00788577
0.0088816
0.00939424
0.00939354
0.00888019
0.0078845
0.00680542
0.00512441
0.00851617
0.0143635
0.0167972
0.0190786
0.0202208
0.0202207
0.0190784
0.016797
0.0143635
0.00851617
0.00749152
0.0120086
0.0140489
0.0159341
0.0169047
0.0169045
0.0159338
0.0140486
0.0120085
0.00749152
0.00669663
0.0102143
0.0119415
0.0135149
0.0143244
0.0143242
0.0135145
0.011941
0.0102142
0.00669663
0.00606108
0.00881711
0.0102845
0.0116267
0.0123076
0.0123072
0.011626
0.0102839
0.00881692
0.00606108
0.00555175
0.00770693
0.00895654
0.0101126
0.010701
0.0107006
0.0101117
0.00895567
0.0077066
0.00555175
0.00512441
0.00680597
0.00788578
0.00888161
0.00939425
0.00939354
0.00888019
0.0078845
0.00680542
0.00512441
0.00474794
0.00606386
0.0070123
0.00787066
0.00831957
0.00831852
0.00851617
0.0143635
0.016797
0.0190784
0.0202207
0.0202208
0.0190786
0.0167972
0.0143635
0.00851617
0.00749152
0.0120085
0.0140486
0.0159338
0.0169045
0.0169047
0.0159341
0.0140489
0.0120086
0.00749152
0.00669663
0.0102142
0.011941
0.0135145
0.0143242
0.0143244
0.0135149
0.0119415
0.0102143
0.00669663
0.00606108
0.00881692
0.0102839
0.011626
0.0123072
0.0123076
0.0116267
0.0102845
0.00881711
0.00606108
0.00555175
0.0077066
0.00895567
0.0101117
0.0107006
0.0107011
0.0101126
0.00895655
0.00770693
0.00555175
0.00512441
0.00680542
0.00788449
0.00888018
0.00939354
0.00939425
0.00888161
0.00788578
0.00680597
0.00512441
0.00474794
0.00606282
0.00701038
0.00786853
0.00831852
0.00831958
0.00787066
0.0070123
0.00606386
0.00474794
0.0246449
0.0232723
0.0204609
0.0175362
0.00989076
0.00851617
0.0143635
0.016797
0.0190784
0.0202207
0.0202208
0.0190786
0.0167972
0.0143635
0.00851617
0.00749152
0.0120085
0.0140486
0.0159338
0.0169045
0.0169047
0.0159341
0.0140489
0.0120086
0.00749152
0.00669663
0.0102142
0.011941
0.0135145
0.0143242
0.0143244
0.0135149
0.0119415
0.0102143
0.00669663
0.00606108
0.00881692
0.0102839
0.011626
0.0123072
0.0123076
0.0116267
0.0102845
0.00881711
0.00606108
0.00555175
0.0077066
0.00895567
0.0101117
0.0107006
0.010701
0.0101126
0.00895654
0.00770693
0.00555175
0.00512441
0.00680542
0.00788449
0.00888018
0.00939354
0.00939424
0.0088816
0.00788577
0.00680596
0.00512441
0.00474794
0.00606282
0.00701038
0.00786853
0.00831851
0.00831957
)
;
    }
    ami2
    {
        type            cyclicAMI;
        value           nonuniform List<scalar> 0();
    }
    outlet
    {
        type            zeroGradient;
    }
    procBoundary3to2
    {
        type            processor;
        value           nonuniform List<scalar> 
110
(
0.00443028
0.00545387
0.00629017
0.00703241
0.0074267
0.00742507
0.00786854
0.00786854
0.00701038
0.00606282
0.00474794
0.00545229
0.01027
0.0126185
0.0142413
0.0150851
0.0150829
0.0162419
0.0162419
0.0143855
0.0117
0.00606386
0.00628722
0.0126155
0.0165882
0.019183
0.0205063
0.0205054
0.0219024
0.0219024
0.0189406
0.0143875
0.0070123
0.00702918
0.0142372
0.0191814
0.0224676
0.024135
0.0241348
0.0256405
0.0256405
0.0219035
0.0162448
0.00787065
0.00742507
0.0150829
0.0205054
0.0241348
0.0259743
0.0259743
0.0275248
0.0275248
0.0234085
0.0172097
0.00831957
0.0074267
0.0150851
0.0205063
0.024135
0.0259743
0.0259743
0.0275246
0.0275246
0.0234078
0.0172082
0.00831851
0.00703241
0.0142413
0.019183
0.0224676
0.0241348
0.024135
0.0256405
0.0256405
0.0219024
0.0162419
0.00786854
0.00629017
0.0126185
0.0165882
0.0191814
0.0205054
0.0205063
0.0219035
0.0219035
0.0189406
0.0143855
0.00701038
0.00545388
0.01027
0.0126156
0.0142372
0.0150829
0.015085
0.0162448
0.0162448
0.0143875
0.0117
0.00606282
0.00443029
0.0054523
0.00628722
0.00702918
0.00742506
0.00742669
0.00787065
0.00787065
0.0070123
0.00606386
0.00474794
)
;
    }
    procBoundary3to4
    {
        type            processor;
        value           nonuniform List<scalar> 
109
(
0.00989076
0.0175362
0.0204609
0.0232723
0.0246449
0.0246449
0.0232722
0.0204608
0.0175362
0.00989076
0.0175362
0.0397946
0.0486775
0.0545306
0.0574405
0.0574403
0.0545303
0.0486773
0.0397946
0.0175362
0.0204608
0.0486773
0.0635106
0.0718633
0.0756572
0.0756572
0.0718632
0.0635106
0.0486775
0.0204609
0.0232722
0.0545303
0.0718632
0.0812741
0.08532
0.08532
0.0812741
0.0718633
0.0545306
0.0232723
0.0246449
0.0574403
0.0756572
0.08532
0.08937
0.08937
0.08532
0.0756572
0.0574405
0.0246449
0.0246449
0.0574405
0.0756572
0.08532
0.08937
0.08937
0.08937
0.08532
0.08532
0.0756572
0.0756572
0.0574403
0.0574403
0.0246449
0.0246449
0.0232723
0.0545306
0.0718633
0.0812741
0.08532
0.08532
0.103871
0.09968
0.0894039
0.0689926
0.0292873
0.0204609
0.0486775
0.0635106
0.0718632
0.0756572
0.0756572
0.0935707
0.0894039
0.079867
0.0618726
0.0256616
0.0175362
0.0397946
0.0486773
0.0545303
0.0574403
0.0574403
0.0724824
0.0689928
0.0618727
0.0508112
0.0219935
0.00989076
0.0175362
0.0204608
0.0232721
0.0246449
0.0246449
0.0310722
0.0292875
0.0256617
0.0219935
0.0118511
)
;
    }
}


// ************************************************************************* //
