/*--------------------------------*- C++ -*----------------------------------*\
| =========                 |                                                 |
| \\      /  F ield         | OpenFOAM: The Open Source CFD Toolbox           |
|  \\    /   O peration     | Version:  2212                                  |
|   \\  /    A nd           | Website:  www.openfoam.com                      |
|    \\/     M anipulation  |                                                 |
\*---------------------------------------------------------------------------*/
FoamFile
{
    version     2.0;
    format      ascii;
    arch        "LSB;label=32;scalar=64";
    class       surfaceScalarField;
    location    "1.8";
    object      phi;
}
// * * * * * * * * * * * * * * * * * * * * * * * * * * * * * * * * * * * * * //

dimensions      [0 3 -1 0 0 0 0];

oriented        oriented;

internalField   nonuniform List<scalar> 
1815
(
7.10977e-08
-3.35713e-08
3.46325e-08
7.00882e-08
-3.36142e-08
3.46235e-08
6.91231e-08
-3.36358e-08
3.46007e-08
6.81926e-08
-3.36495e-08
3.45798e-08
6.72851e-08
-3.36676e-08
3.4575e-08
6.64117e-08
-3.36991e-08
3.45725e-08
6.5566e-08
-3.37351e-08
3.45808e-08
6.47598e-08
-3.37719e-08
3.45781e-08
6.39705e-08
-3.37957e-08
3.4585e-08
6.31963e-08
-3.38273e-08
3.46015e-08
-3.38879e-08
3.46372e-08
2.25741e-07
-6.26271e-08
3.19509e-08
2.22983e-07
-6.2774e-08
3.19174e-08
2.2034e-07
-6.2911e-08
3.19189e-08
2.17793e-07
-6.30355e-08
3.1933e-08
2.15321e-07
-6.31588e-08
3.19626e-08
2.12936e-07
-6.32748e-08
3.1961e-08
2.10616e-07
-6.33787e-08
3.19637e-08
2.08359e-07
-6.34461e-08
3.19308e-08
2.06103e-07
-6.34694e-08
3.19294e-08
2.03856e-07
-6.35284e-08
3.19479e-08
-6.36931e-08
3.19833e-08
4.38057e-07
-8.81456e-08
3.02647e-08
4.33444e-07
-8.82934e-08
3.01323e-08
4.28912e-07
-8.84056e-08
3.00259e-08
4.24438e-07
-8.84921e-08
2.99311e-08
4.19999e-07
-8.85686e-08
2.98485e-08
4.15593e-07
-8.86282e-08
2.97594e-08
4.11208e-07
-8.86776e-08
2.96839e-08
4.06838e-07
-8.86875e-08
2.96118e-08
4.02472e-07
-8.86928e-08
2.95888e-08
3.9815e-07
-8.87127e-08
2.95066e-08
-8.87954e-08
2.92946e-08
6.31265e-07
-1.0655e-07
2.54721e-08
6.24303e-07
-1.06665e-07
2.5335e-08
6.17391e-07
-1.06727e-07
2.52325e-08
6.10502e-07
-1.06752e-07
2.51491e-08
6.03615e-07
-1.06757e-07
2.50753e-08
5.96738e-07
-1.06751e-07
2.49999e-08
5.89881e-07
-1.06752e-07
2.49311e-08
5.83079e-07
-1.06746e-07
2.4861e-08
5.7637e-07
-1.06764e-07
2.47801e-08
5.69797e-07
-1.06812e-07
2.46724e-08
-1.06879e-07
2.45138e-08
7.54915e-07
1.87233e-08
7.46857e-07
1.86397e-08
7.38809e-07
1.85612e-08
7.30775e-07
1.84789e-08
7.22766e-07
1.83884e-08
7.14797e-07
1.82877e-08
7.0688e-07
1.81729e-08
6.99035e-07
1.80532e-08
6.91267e-07
1.79134e-08
6.83581e-07
1.77576e-08
1.76005e-08
2.11998e-07
-3.00292e-08
6.73682e-08
2.09365e-07
-3.00501e-08
6.73065e-08
2.068e-07
-3.00036e-08
6.71692e-08
2.04292e-07
-2.99537e-08
6.70412e-08
2.01837e-07
-2.99253e-08
6.69559e-08
1.99469e-07
-2.99503e-08
6.68911e-08
1.9717e-07
-2.99677e-08
6.68466e-08
1.94982e-07
-3.00314e-08
6.67982e-08
1.92861e-07
-3.0063e-08
6.67688e-08
1.90824e-07
-3.00802e-08
6.67181e-08
-3.00608e-08
6.66526e-08
5.32309e-07
-5.52642e-08
6.0043e-08
5.29469e-07
-5.53523e-08
6.00591e-08
5.26632e-07
-5.5393e-08
6.01451e-08
5.23801e-07
-5.54455e-08
6.02556e-08
5.2095e-07
-5.54742e-08
6.0363e-08
5.18086e-07
-5.55374e-08
6.04116e-08
5.15194e-07
-5.55765e-08
6.04647e-08
5.12288e-07
-5.56467e-08
6.04517e-08
5.09357e-07
-5.56697e-08
6.04677e-08
5.06384e-07
-5.56548e-08
6.04949e-08
-5.55962e-08
6.05656e-08
8.25976e-07
-7.71639e-08
5.31899e-08
8.24989e-07
-7.73254e-08
5.30919e-08
8.24012e-07
-7.74368e-08
5.30466e-08
8.23013e-07
-7.75338e-08
5.3018e-08
8.21964e-07
-7.75986e-08
5.30228e-08
8.20828e-07
-7.76561e-08
5.30138e-08
8.19578e-07
-7.76589e-08
5.30163e-08
8.18243e-07
-7.7692e-08
5.29924e-08
8.168e-07
-7.76649e-08
5.30271e-08
8.15237e-07
-7.76323e-08
5.30462e-08
-7.76078e-08
5.3047e-08
1.04625e-06
-9.33876e-08
4.22901e-08
1.04567e-06
-9.35607e-08
4.21498e-08
1.04508e-06
-9.3667e-08
4.2053e-08
1.04444e-06
-9.37267e-08
4.19792e-08
1.04374e-06
-9.37513e-08
4.19283e-08
1.04296e-06
-9.37572e-08
4.18875e-08
1.04207e-06
-9.37265e-08
4.18853e-08
1.04107e-06
-9.36911e-08
4.18619e-08
1.03996e-06
-9.3632e-08
4.18524e-08
1.03874e-06
-9.35807e-08
4.18404e-08
-9.35441e-08
4.17775e-08
1.17891e-06
2.82504e-08
1.17838e-06
2.81503e-08
1.1778e-06
2.80652e-08
1.17713e-06
2.79876e-08
1.17639e-06
2.79129e-08
1.17555e-06
2.78379e-08
1.17464e-06
2.77633e-08
1.17364e-06
2.76833e-08
1.1726e-06
2.75807e-08
1.17151e-06
2.74596e-08
2.73446e-08
3.94688e-07
-2.10503e-08
9.31484e-08
3.90121e-07
-2.11834e-08
9.30565e-08
3.85814e-07
-2.144e-08
9.29163e-08
3.81767e-07
-2.16799e-08
9.27681e-08
3.77896e-07
-2.18381e-08
9.26647e-08
3.74169e-07
-2.1973e-08
9.25909e-08
3.70569e-07
-2.20714e-08
9.25187e-08
3.67091e-07
-2.21945e-08
9.24704e-08
3.63718e-07
-2.22625e-08
9.24043e-08
3.60461e-07
-2.23497e-08
9.23248e-08
-2.24312e-08
9.22406e-08
7.98889e-07
-4.18997e-08
8.18028e-08
7.97983e-07
-4.19746e-08
8.17567e-08
7.97064e-07
-4.20894e-08
8.17129e-08
7.96091e-07
-4.21637e-08
8.17125e-08
7.95075e-07
-4.22068e-08
8.17473e-08
7.93997e-07
-4.22729e-08
8.17898e-08
7.92836e-07
-4.2317e-08
8.18711e-08
7.91633e-07
-4.24241e-08
8.1885e-08
7.90351e-07
-4.24536e-08
8.19407e-08
7.88979e-07
-4.24721e-08
8.19885e-08
-4.24543e-08
8.2076e-08
1.10394e-06
-6.0114e-08
6.92909e-08
1.10607e-06
-6.02267e-08
6.92071e-08
1.1082e-06
-6.033e-08
6.91605e-08
1.1103e-06
-6.0404e-08
6.91627e-08
1.11235e-06
-6.04461e-08
6.92067e-08
1.11435e-06
-6.05011e-08
6.92425e-08
1.11635e-06
-6.05682e-08
6.9267e-08
1.11826e-06
-6.06326e-08
6.92885e-08
1.12012e-06
-6.06395e-08
6.93579e-08
1.12186e-06
-6.06108e-08
6.94388e-08
-6.05611e-08
6.95361e-08
1.32569e-06
-7.38457e-08
5.27217e-08
1.329e-06
-7.39793e-08
5.25978e-08
1.33229e-06
-7.40813e-08
5.25125e-08
1.33556e-06
-7.41522e-08
5.24603e-08
1.3388e-06
-7.4193e-08
5.24352e-08
1.34198e-06
-7.42189e-08
5.24206e-08
1.34511e-06
-7.4231e-08
5.24165e-08
1.34816e-06
-7.42304e-08
5.24182e-08
1.35114e-06
-7.42043e-08
5.24368e-08
1.35402e-06
-7.41443e-08
5.24869e-08
-7.409e-08
5.25176e-08
1.4594e-06
3.25245e-08
1.46316e-06
3.24201e-08
1.46686e-06
3.23333e-08
1.47051e-06
3.22607e-08
1.4741e-06
3.21983e-08
1.47763e-06
3.21417e-08
1.4811e-06
3.20893e-08
1.4845e-06
3.20389e-08
1.48785e-06
3.19847e-08
1.49114e-06
3.19364e-08
3.18816e-08
5.74062e-07
-1.09217e-08
1.1078e-07
5.67522e-07
-1.10738e-08
1.1067e-07
5.61204e-07
-1.12917e-08
1.10526e-07
5.5515e-07
-1.15597e-08
1.10382e-07
5.49385e-07
-1.18324e-08
1.10263e-07
5.43891e-07
-1.20846e-08
1.10169e-07
5.38636e-07
-1.23166e-08
1.1009e-07
5.33589e-07
-1.25097e-08
1.10027e-07
5.28713e-07
-1.26819e-08
1.09963e-07
5.23994e-07
-1.28541e-08
1.09898e-07
-1.29978e-08
1.09822e-07
1.00589e-06
-2.53534e-08
9.65369e-08
1.00558e-06
-2.54627e-08
9.64566e-08
1.00525e-06
-2.56112e-08
9.63683e-08
1.0049e-06
-2.5782e-08
9.6285e-08
1.00455e-06
-2.5957e-08
9.62172e-08
1.00421e-06
-2.61233e-08
9.61693e-08
1.00388e-06
-2.62697e-08
9.61521e-08
1.00354e-06
-2.64218e-08
9.61404e-08
1.00319e-06
-2.65481e-08
9.61526e-08
1.00283e-06
-2.66721e-08
9.61689e-08
-2.67367e-08
9.62136e-08
1.30863e-06
-3.89676e-08
7.94864e-08
1.31204e-06
-3.90722e-08
7.94033e-08
1.31544e-06
-3.91842e-08
7.934e-08
1.31881e-06
-3.92958e-08
7.92998e-08
1.32218e-06
-3.94001e-08
7.92835e-08
1.32553e-06
-3.95051e-08
7.92781e-08
1.32886e-06
-3.9612e-08
7.92791e-08
1.33215e-06
-3.9715e-08
7.92905e-08
1.33543e-06
-3.97957e-08
7.93253e-08
1.33866e-06
-3.98494e-08
7.93833e-08
-3.98607e-08
7.947e-08
1.52624e-06
-4.97764e-08
5.83202e-08
1.53142e-06
-4.98763e-08
5.82219e-08
1.53656e-06
-4.99676e-08
5.81478e-08
1.54168e-06
-5.00487e-08
5.80963e-08
1.54677e-06
-5.0118e-08
5.8065e-08
1.55182e-06
-5.01792e-08
5.8047e-08
1.55682e-06
-5.02339e-08
5.8038e-08
1.56176e-06
-5.02798e-08
5.80389e-08
1.56666e-06
-5.03099e-08
5.8054e-08
1.57152e-06
-5.03146e-08
5.80912e-08
-5.03105e-08
5.81335e-08
1.6586e-06
3.34625e-08
1.66464e-06
3.33756e-08
1.67061e-06
3.33023e-08
1.67652e-06
3.32415e-08
1.68236e-06
3.31915e-08
1.68815e-06
3.31499e-08
1.69388e-06
3.31151e-08
1.69954e-06
3.30863e-08
1.70515e-06
3.30627e-08
1.71072e-06
3.30483e-08
3.30331e-08
7.15404e-07
-2.20096e-10
1.18857e-07
7.07576e-07
-3.13835e-10
1.18812e-07
6.99825e-07
-4.50011e-10
1.18726e-07
6.92207e-07
-6.20009e-10
1.1862e-07
6.84773e-07
-8.12894e-10
1.1851e-07
6.77555e-07
-1.0203e-09
1.18408e-07
6.70566e-07
-1.23891e-09
1.18319e-07
6.63805e-07
-1.45801e-09
1.18245e-07
6.57258e-07
-1.67344e-09
1.18184e-07
6.50902e-07
-1.87846e-09
1.18132e-07
-2.08979e-09
1.18092e-07
1.14879e-06
-6.83273e-09
1.03573e-07
1.14829e-06
-6.91096e-09
1.03557e-07
1.14772e-06
-7.02473e-09
1.03509e-07
1.14712e-06
-7.16863e-09
1.03437e-07
1.1465e-06
-7.33352e-09
1.03355e-07
1.14589e-06
-7.51012e-09
1.03273e-07
1.14529e-06
-7.69144e-09
1.03201e-07
1.14471e-06
-7.87662e-09
1.03137e-07
1.14417e-06
-8.05963e-09
1.03084e-07
1.14365e-06
-8.23445e-09
1.03043e-07
-8.42103e-09
1.03016e-07
1.44362e-06
-1.49683e-08
8.37991e-08
1.44738e-06
-1.50496e-08
8.37764e-08
1.4511e-06
-1.51461e-08
8.37469e-08
1.45477e-06
-1.52548e-08
8.37134e-08
1.45841e-06
-1.53716e-08
8.36794e-08
1.46203e-06
-1.5494e-08
8.36462e-08
1.46562e-06
-1.56189e-08
8.36149e-08
1.46919e-06
-1.57428e-08
8.35882e-08
1.47274e-06
-1.58612e-08
8.35709e-08
1.47629e-06
-1.59622e-08
8.3568e-08
-1.60606e-08
8.35767e-08
1.65398e-06
-2.24302e-08
5.96795e-08
1.66001e-06
-2.2504e-08
5.96453e-08
1.66597e-06
-2.25796e-08
5.96163e-08
1.67188e-06
-2.2656e-08
5.95926e-08
1.67773e-06
-2.27315e-08
5.95744e-08
1.68353e-06
-2.28056e-08
5.95609e-08
1.68927e-06
-2.28774e-08
5.95514e-08
1.69497e-06
-2.29449e-08
5.95466e-08
1.70062e-06
-2.30053e-08
5.95483e-08
1.70624e-06
-2.30525e-08
5.95594e-08
-2.30974e-08
5.95756e-08
1.78281e-06
-2.82129e-08
3.19406e-08
1.79002e-06
-2.82426e-08
3.19058e-08
1.79714e-06
-2.82717e-08
3.18767e-08
1.80417e-06
-2.82999e-08
3.1853e-08
1.81112e-06
-2.83269e-08
3.18341e-08
1.818e-06
-2.83526e-08
3.18193e-08
1.82481e-06
-2.83768e-08
3.18081e-08
1.83154e-06
-2.83987e-08
3.18005e-08
1.83822e-06
-2.84176e-08
3.17963e-08
1.84485e-06
-2.84319e-08
3.17962e-08
-2.84448e-08
3.17973e-08
1.82576e-06
2.02883e-09
1.83334e-06
2.00093e-09
1.84081e-06
1.97427e-09
1.84819e-06
1.94891e-09
1.85548e-06
1.92493e-09
1.86269e-06
1.9024e-09
1.86982e-06
1.88134e-09
1.87688e-06
1.86196e-09
1.88387e-06
1.84451e-09
1.89082e-06
1.83e-09
1.81551e-09
7.82279e-07
9.92067e-09
1.172e-07
7.73988e-07
9.86139e-09
1.17243e-07
7.65706e-07
9.77514e-09
1.17233e-07
7.57471e-07
9.66361e-09
1.17191e-07
7.49319e-07
9.5297e-09
1.17132e-07
7.41282e-07
9.37597e-09
1.17069e-07
7.33384e-07
9.20543e-09
1.1701e-07
7.25643e-07
9.02671e-09
1.1696e-07
7.18065e-07
8.84558e-09
1.16916e-07
7.10641e-07
8.66767e-09
1.16888e-07
8.47341e-09
1.16899e-07
1.21196e-06
1.15113e-08
1.0243e-07
1.21139e-06
1.14514e-08
1.02529e-07
1.21074e-06
1.13744e-08
1.02568e-07
1.21e-06
1.12793e-08
1.0256e-07
1.20919e-06
1.1166e-08
1.02523e-07
1.20834e-06
1.10374e-08
1.02467e-07
1.20745e-06
1.08968e-08
1.024e-07
1.20654e-06
1.07487e-08
1.02327e-07
1.20561e-06
1.05931e-08
1.02259e-07
1.20469e-06
1.04331e-08
1.02202e-07
1.02389e-08
1.02151e-07
1.49778e-06
9.45953e-09
8.19062e-08
1.50164e-06
9.38407e-09
8.19853e-08
1.50542e-06
9.30388e-09
8.20362e-08
1.50914e-06
9.2187e-09
8.2061e-08
1.51279e-06
9.12821e-09
8.20634e-08
1.51639e-06
9.03276e-09
8.20499e-08
1.51994e-06
8.93325e-09
8.20257e-08
1.52345e-06
8.83151e-09
8.19951e-08
1.52693e-06
8.72747e-09
8.19619e-08
1.53038e-06
8.62849e-09
8.19225e-08
8.51332e-09
8.18765e-08
1.7007e-06
5.95856e-09
5.68007e-08
1.70699e-06
5.8894e-09
5.6851e-08
1.7132e-06
5.82211e-09
5.68935e-08
1.71932e-06
5.75673e-09
5.69279e-08
1.72538e-06
5.69315e-09
5.69543e-08
1.73137e-06
5.63128e-09
5.69742e-08
1.73729e-06
5.57109e-09
5.6989e-08
1.74316e-06
5.5132e-09
5.69995e-08
1.74897e-06
5.4583e-09
5.70051e-08
1.75474e-06
5.41001e-09
5.70036e-08
5.35804e-09
5.69992e-08
1.82578e-06
2.01627e-09
2.8198e-08
1.83335e-06
1.98789e-09
2.82299e-08
1.84083e-06
1.9613e-09
2.82622e-08
1.84821e-06
1.93658e-09
2.82941e-08
1.8555e-06
1.91366e-09
2.83248e-08
1.8627e-06
1.89247e-09
2.8354e-08
1.86983e-06
1.87298e-09
2.83815e-08
1.87688e-06
1.85532e-09
2.84068e-08
1.88386e-06
1.83977e-09
2.84292e-08
1.8908e-06
1.82716e-09
2.84468e-08
1.81462e-09
2.84624e-08
1.86819e-06
-2.02484e-09
1.87618e-06
-1.99512e-09
1.88406e-06
-1.96636e-09
1.89183e-06
-1.93884e-09
1.89951e-06
-1.91277e-09
1.90709e-06
-1.88826e-09
1.91459e-06
-1.86535e-09
1.92201e-06
-1.84423e-09
1.92936e-06
-1.8252e-09
1.93664e-06
-1.80924e-09
-1.79344e-09
7.54976e-07
1.87149e-08
1.06547e-07
7.46931e-07
1.86298e-08
1.06658e-07
7.38897e-07
1.85486e-08
1.06718e-07
7.30881e-07
1.84629e-08
1.06744e-07
7.22894e-07
1.83688e-08
1.0675e-07
7.14951e-07
1.82646e-08
1.06748e-07
7.07064e-07
1.81471e-08
1.0675e-07
6.99253e-07
1.8026e-08
1.06745e-07
6.91521e-07
1.78872e-08
1.06761e-07
6.83874e-07
1.77336e-08
1.06801e-07
1.75746e-08
1.06864e-07
1.17897e-06
2.82365e-08
9.33761e-08
1.17845e-06
2.81357e-08
9.35472e-08
1.17786e-06
2.80496e-08
9.36532e-08
1.1772e-06
2.79708e-08
9.37134e-08
1.17646e-06
2.78943e-08
9.37403e-08
1.17562e-06
2.78177e-08
9.37464e-08
1.17471e-06
2.77412e-08
9.37183e-08
1.17372e-06
2.76598e-08
9.36851e-08
1.17268e-06
2.75575e-08
9.36272e-08
1.1716e-06
2.74339e-08
9.35842e-08
2.73118e-08
9.35522e-08
1.45944e-06
3.25118e-08
7.38248e-08
1.46319e-06
3.24061e-08
7.39615e-08
1.46689e-06
3.23186e-08
7.40674e-08
1.47053e-06
3.22457e-08
7.41421e-08
1.47412e-06
3.21832e-08
7.41866e-08
1.47765e-06
3.21268e-08
7.42148e-08
1.48111e-06
3.20746e-08
7.42294e-08
1.48451e-06
3.20244e-08
7.42319e-08
1.48785e-06
3.19708e-08
7.42086e-08
1.49113e-06
3.19217e-08
7.41542e-08
3.18651e-08
7.41062e-08
1.65861e-06
3.34531e-08
4.97551e-08
1.66465e-06
3.33645e-08
4.98589e-08
1.67061e-06
3.32903e-08
4.99551e-08
1.67652e-06
3.32292e-08
5.00411e-08
1.68236e-06
3.31797e-08
5.0115e-08
1.68814e-06
3.31392e-08
5.01799e-08
1.69386e-06
3.31058e-08
5.02379e-08
1.69952e-06
3.30783e-08
5.02871e-08
1.70512e-06
3.30563e-08
5.03204e-08
1.71067e-06
3.30431e-08
5.03287e-08
3.30291e-08
5.03285e-08
1.7828e-06
3.19338e-08
2.24141e-08
1.79e-06
3.18977e-08
2.249e-08
1.79712e-06
3.18676e-08
2.25692e-08
1.80415e-06
3.18433e-08
2.26496e-08
1.8111e-06
3.18245e-08
2.27295e-08
1.81797e-06
3.18103e-08
2.28078e-08
1.82478e-06
3.18e-08
2.28837e-08
1.83151e-06
3.17934e-08
2.29553e-08
1.83819e-06
3.17903e-08
2.30199e-08
1.84482e-06
3.17916e-08
2.30711e-08
3.17945e-08
2.31196e-08
1.82575e-06
-5.96871e-09
1.83333e-06
-5.89869e-09
1.84081e-06
-5.82926e-09
1.84819e-06
-5.7608e-09
1.85548e-06
-5.69358e-09
1.86268e-06
-5.62776e-09
1.86981e-06
-5.56349e-09
1.87687e-06
-5.50148e-09
1.88386e-06
-5.44236e-09
1.89079e-06
-5.38995e-09
-5.33362e-09
6.31289e-07
2.54619e-08
8.8142e-08
6.24337e-07
2.53266e-08
8.8283e-08
6.17439e-07
2.52237e-08
8.8392e-08
6.10565e-07
2.51385e-08
8.84792e-08
6.03697e-07
2.50609e-08
8.85575e-08
5.9684e-07
2.49833e-08
8.86207e-08
5.90007e-07
2.4913e-08
8.86704e-08
5.83225e-07
2.48373e-08
8.86899e-08
5.76531e-07
2.47616e-08
8.86925e-08
5.69973e-07
2.46616e-08
8.86978e-08
5.63555e-07
2.4505e-08
8.87768e-08
2.43168e-08
8.88737e-08
1.0463e-06
4.22743e-08
7.71608e-08
1.04572e-06
4.21351e-08
7.73189e-08
1.04513e-06
4.20388e-08
7.74272e-08
1.0445e-06
4.19655e-08
7.75209e-08
1.0438e-06
4.19119e-08
7.75858e-08
1.04302e-06
4.18721e-08
7.76401e-08
1.04213e-06
4.18678e-08
7.76499e-08
1.04114e-06
4.18411e-08
7.76728e-08
1.04005e-06
4.18319e-08
7.76474e-08
1.03885e-06
4.18108e-08
7.76359e-08
1.03754e-06
4.17463e-08
7.76145e-08
7.76004e-08
1.32573e-06
5.27108e-08
6.01002e-08
1.32902e-06
5.25848e-08
6.02168e-08
1.33231e-06
5.24978e-08
6.03238e-08
1.33557e-06
5.24449e-08
6.03997e-08
1.33881e-06
5.24191e-08
6.04436e-08
1.34199e-06
5.24054e-08
6.04981e-08
1.34512e-06
5.24013e-08
6.05651e-08
1.34816e-06
5.24022e-08
6.06286e-08
1.35115e-06
5.24205e-08
6.06351e-08
1.35404e-06
5.2467e-08
6.06108e-08
5.24943e-08
6.05675e-08
1.52623e-06
5.83158e-08
3.89498e-08
1.5314e-06
5.82138e-08
3.90588e-08
1.53654e-06
5.81367e-08
3.91756e-08
1.54165e-06
5.80832e-08
3.92914e-08
1.54674e-06
5.8051e-08
3.93994e-08
1.55178e-06
5.80329e-08
3.95067e-08
1.55678e-06
5.80244e-08
3.96153e-08
1.56172e-06
5.80256e-08
3.97197e-08
1.56662e-06
5.80411e-08
3.98018e-08
1.57148e-06
5.80779e-08
3.98573e-08
5.81195e-08
3.98732e-08
1.65393e-06
5.96775e-08
1.4955e-08
1.65996e-06
5.96406e-08
1.50378e-08
1.66592e-06
5.96089e-08
1.5137e-08
1.67182e-06
5.95831e-08
1.52491e-08
1.67767e-06
5.95634e-08
1.53694e-08
1.68346e-06
5.9549e-08
1.54951e-08
1.68921e-06
5.95392e-08
1.56231e-08
1.6949e-06
5.95344e-08
1.57498e-08
1.70056e-06
5.95362e-08
1.58711e-08
1.70619e-06
5.95474e-08
1.59751e-08
5.95638e-08
1.60773e-08
1.70064e-06
-9.46727e-09
1.70693e-06
-9.39216e-09
1.71313e-06
-9.31088e-09
1.71926e-06
-9.22374e-09
1.72531e-06
-9.13075e-09
1.73131e-06
-9.03252e-09
1.73723e-06
-8.92993e-09
1.74311e-06
-8.82509e-09
1.74893e-06
-8.71759e-09
1.75471e-06
-8.61494e-09
-8.49544e-09
4.38073e-07
3.02502e-08
6.26344e-08
4.33463e-07
3.01237e-08
6.27691e-08
4.28936e-07
3.00206e-08
6.28984e-08
4.24468e-07
2.99255e-08
6.3022e-08
4.20038e-07
2.98411e-08
6.31458e-08
4.15643e-07
2.97508e-08
6.3265e-08
4.11272e-07
2.96707e-08
6.33706e-08
4.0692e-07
2.96024e-08
6.34391e-08
4.02566e-07
2.95829e-08
6.3464e-08
3.9824e-07
2.94981e-08
6.35255e-08
3.94043e-07
2.92929e-08
6.36805e-08
2.90402e-08
6.38729e-08
8.26003e-07
5.3169e-08
5.5277e-08
8.25012e-07
5.30722e-08
5.53608e-08
8.24036e-07
5.30283e-08
5.53961e-08
8.2304e-07
5.30019e-08
5.54397e-08
8.21995e-07
5.30066e-08
5.5466e-08
8.20863e-07
5.30005e-08
5.55216e-08
8.19621e-07
5.29955e-08
5.55674e-08
8.18281e-07
5.2986e-08
5.56286e-08
8.16839e-07
5.302e-08
5.56522e-08
8.15306e-07
5.30185e-08
5.56485e-08
8.13594e-07
5.3017e-08
5.56026e-08
5.55445e-08
1.10397e-06
6.92822e-08
4.18976e-08
1.10609e-06
6.91931e-08
4.1976e-08
1.1082e-06
6.91426e-08
4.20925e-08
1.11029e-06
6.9143e-08
4.21666e-08
1.11235e-06
6.91858e-08
4.22101e-08
1.11435e-06
6.92229e-08
4.22737e-08
1.11635e-06
6.9248e-08
4.23139e-08
1.11827e-06
6.9271e-08
4.24244e-08
1.12013e-06
6.93415e-08
4.24519e-08
1.12188e-06
6.94176e-08
4.24618e-08
6.95102e-08
4.2449e-08
1.30861e-06
7.94876e-08
2.53458e-08
1.31201e-06
7.93982e-08
2.54578e-08
1.31539e-06
7.93294e-08
2.56083e-08
1.31876e-06
7.92851e-08
2.57808e-08
1.32212e-06
7.92659e-08
2.59574e-08
1.32547e-06
7.92594e-08
2.61245e-08
1.3288e-06
7.926e-08
2.62712e-08
1.33209e-06
7.92715e-08
2.64238e-08
1.33538e-06
7.93067e-08
2.65514e-08
1.33862e-06
7.93642e-08
2.66717e-08
7.94478e-08
2.67427e-08
1.44354e-06
8.38011e-08
6.82924e-09
1.4473e-06
8.37748e-08
6.90683e-09
1.451e-06
8.37413e-08
7.02067e-09
1.45467e-06
8.3704e-08
7.16508e-09
1.45831e-06
8.36669e-08
7.33086e-09
1.46192e-06
8.36315e-08
7.50848e-09
1.46551e-06
8.35987e-08
7.69087e-09
1.46909e-06
8.3571e-08
7.87732e-09
1.47265e-06
8.35529e-08
8.06204e-09
1.4762e-06
8.35491e-08
8.2384e-09
8.35565e-08
8.42849e-09
1.49769e-06
-1.1511e-08
1.50154e-06
-1.1453e-08
1.50532e-06
-1.13772e-08
1.50903e-06
-1.12826e-08
1.51268e-06
-1.11693e-08
1.51628e-06
-1.10403e-08
1.51984e-06
-1.08989e-08
1.52335e-06
-1.07494e-08
1.52684e-06
-1.05915e-08
1.5303e-06
-1.04287e-08
-1.0231e-08
2.25763e-07
3.19437e-08
3.35769e-08
2.23007e-07
3.19085e-08
3.36164e-08
2.20362e-07
3.1909e-08
3.36348e-08
2.17813e-07
3.19247e-08
3.36459e-08
2.15343e-07
3.19532e-08
3.36629e-08
2.12959e-07
3.19552e-08
3.3693e-08
2.10644e-07
3.19565e-08
3.37296e-08
2.08389e-07
3.19279e-08
3.37661e-08
2.06135e-07
3.19267e-08
3.37908e-08
2.03893e-07
3.1943e-08
3.3825e-08
2.01713e-07
3.19738e-08
3.38867e-08
3.20045e-08
3.39601e-08
5.32325e-07
6.00337e-08
3.00342e-08
5.29495e-07
6.00423e-08
3.00563e-08
5.26667e-07
6.0124e-08
3.00095e-08
5.2384e-07
6.02367e-08
2.99548e-08
5.20991e-07
6.03425e-08
2.99248e-08
5.18128e-07
6.03948e-08
2.99453e-08
5.15241e-07
6.04477e-08
2.99633e-08
5.12343e-07
6.04334e-08
3.00214e-08
5.09416e-07
6.04508e-08
3.00547e-08
5.06443e-07
6.04888e-08
3.00759e-08
5.03408e-07
6.05487e-08
3.00624e-08
3.00156e-08
7.98903e-07
8.18031e-08
2.10595e-08
7.97988e-07
8.17486e-08
2.11843e-08
7.97071e-07
8.16987e-08
2.1435e-08
7.96104e-07
8.1694e-08
2.16768e-08
7.95095e-07
8.1725e-08
2.18365e-08
7.94024e-07
8.17666e-08
2.19725e-08
7.92868e-07
8.18487e-08
2.20687e-08
7.91672e-07
8.18613e-08
2.2193e-08
7.90399e-07
8.19144e-08
2.22606e-08
7.8904e-07
8.19672e-08
2.2343e-08
8.20521e-08
2.24222e-08
1.00589e-06
9.65402e-08
1.0936e-08
1.00556e-06
9.64545e-08
1.10792e-08
1.00522e-06
9.63612e-08
1.12892e-08
1.00486e-06
9.62734e-08
1.15534e-08
1.00452e-06
9.62016e-08
1.18247e-08
1.00418e-06
9.61507e-08
1.20771e-08
1.00386e-06
9.61314e-08
1.23106e-08
1.00352e-06
9.61175e-08
1.25051e-08
1.00318e-06
9.61275e-08
1.2679e-08
1.00283e-06
9.61445e-08
1.28513e-08
9.61856e-08
1.3e-08
1.14874e-06
1.03572e-07
2.35419e-10
1.14823e-06
1.03555e-07
3.22369e-10
1.14765e-06
1.03504e-07
4.52137e-10
1.14705e-06
1.03429e-07
6.17604e-10
1.14643e-06
1.03344e-07
8.07329e-10
1.14581e-06
1.03259e-07
1.01281e-09
1.14522e-06
1.03185e-07
1.23066e-09
1.14465e-06
1.03117e-07
1.4503e-09
1.14411e-06
1.03062e-07
1.66734e-09
1.1436e-06
1.03019e-07
1.87523e-09
1.0299e-07
2.08982e-09
1.21188e-06
-9.90575e-09
1.21131e-06
-9.85136e-09
1.21065e-06
-9.77015e-09
1.20991e-06
-9.66278e-09
1.2091e-06
-9.53244e-09
1.20825e-06
-9.38155e-09
1.20736e-06
-9.21343e-09
1.20646e-06
-9.03549e-09
1.20554e-06
-8.85431e-09
1.20462e-06
-8.67472e-09
-8.47715e-09
7.11081e-08
3.46358e-08
7.00991e-08
3.46253e-08
6.91337e-08
3.46002e-08
6.82025e-08
3.4577e-08
6.72953e-08
3.45701e-08
6.64219e-08
3.45664e-08
6.5577e-08
3.45745e-08
6.47702e-08
3.45728e-08
6.39809e-08
3.45802e-08
6.32076e-08
3.45981e-08
6.24599e-08
3.46344e-08
3.46807e-08
2.1203e-07
6.7365e-08
2.09402e-07
6.73099e-08
2.06837e-07
6.71747e-08
2.04327e-07
6.70412e-08
2.01871e-07
6.69512e-08
1.99502e-07
6.68805e-08
1.97204e-07
6.68355e-08
1.95014e-07
6.67847e-08
1.92892e-07
6.6757e-08
1.90854e-07
6.67121e-08
1.88897e-07
6.6654e-08
3.94759e-07
9.31323e-08
3.902e-07
9.30529e-08
3.8589e-07
9.29194e-08
3.81839e-07
9.27697e-08
3.77963e-07
9.26629e-08
3.74232e-07
9.25843e-08
3.70628e-07
9.25078e-08
3.67149e-07
9.24568e-08
3.63778e-07
9.2389e-08
3.60524e-07
9.23086e-08
9.22241e-08
5.742e-07
1.1076e-07
5.67671e-07
1.10661e-07
5.61355e-07
1.10525e-07
5.55296e-07
1.10382e-07
5.49522e-07
1.10262e-07
5.44018e-07
1.10166e-07
5.38754e-07
1.10082e-07
5.33702e-07
1.10014e-07
5.28823e-07
1.09946e-07
5.24107e-07
1.09877e-07
1.09799e-07
7.1556e-07
1.18837e-07
7.07744e-07
1.18799e-07
7.00002e-07
1.18719e-07
6.92386e-07
1.18615e-07
6.8495e-07
1.18506e-07
6.77725e-07
1.18403e-07
6.70726e-07
1.18311e-07
6.63958e-07
1.18233e-07
6.57404e-07
1.18167e-07
6.51045e-07
1.18111e-07
1.18067e-07
7.82385e-07
7.74108e-07
7.65837e-07
7.57608e-07
7.49456e-07
7.41415e-07
7.33509e-07
7.25758e-07
7.1817e-07
7.10738e-07
)
;

boundaryField
{
    inlet
    {
        type            calculated;
        value           nonuniform List<scalar> 0();
    }
    ami1
    {
        type            cyclicAMI;
        value           nonuniform List<scalar> 0();
    }
    walls
    {
        type            calculated;
        value           nonuniform List<scalar> 
248
(
2.90979e-14
2.43942e-14
1.84387e-14
1.28555e-14
6.40674e-15
2.90979e-14
2.43942e-14
1.84387e-14
1.28555e-14
6.40674e-15
2.90979e-14
2.43942e-14
1.84387e-14
1.28555e-14
6.40674e-15
2.90979e-14
2.43942e-14
1.84387e-14
1.28555e-14
6.40674e-15
2.90979e-14
2.43942e-14
1.84387e-14
1.28555e-14
6.40674e-15
2.90979e-14
2.43942e-14
1.84387e-14
1.28555e-14
6.40674e-15
2.90979e-14
2.43942e-14
1.84387e-14
1.28555e-14
6.40674e-15
2.90979e-14
2.43942e-14
1.84387e-14
1.28555e-14
6.40674e-15
2.90979e-14
2.43942e-14
1.84387e-14
1.28555e-14
6.40674e-15
2.90979e-14
2.43942e-14
1.84387e-14
1.28555e-14
6.40674e-15
2.90979e-14
2.43942e-14
1.84387e-14
1.28555e-14
6.40674e-15
-2.90979e-14
-2.43942e-14
-1.84387e-14
-1.28555e-14
-6.40674e-15
-3.48886e-22
-2.90979e-14
-2.43942e-14
-1.84387e-14
-1.28555e-14
-6.40674e-15
-3.48886e-22
-2.90979e-14
-2.43942e-14
-1.84387e-14
-1.28555e-14
-6.40674e-15
-3.48886e-22
-2.90979e-14
-2.43942e-14
-1.84387e-14
-1.28555e-14
-6.40674e-15
-6.21161e-22
-2.90979e-14
-2.43942e-14
-1.84387e-14
-1.28555e-14
-6.40674e-15
-3.49064e-22
-2.90979e-14
-2.43942e-14
-1.84387e-14
-1.28555e-14
-6.40674e-15
-3.49064e-22
-2.90979e-14
-2.43942e-14
-1.84387e-14
-1.28555e-14
-6.40674e-15
-3.48886e-22
-2.90979e-14
-2.43942e-14
-1.84387e-14
-1.28555e-14
-6.40674e-15
-3.48886e-22
-2.90979e-14
-2.43942e-14
-1.84387e-14
-1.28555e-14
-6.40674e-15
-3.48886e-22
-2.90979e-14
-2.43942e-14
-1.84387e-14
-1.28555e-14
-6.40674e-15
-3.48886e-22
-2.90979e-14
-2.43942e-14
-1.84387e-14
-1.28555e-14
-6.40674e-15
-6.21339e-22
-2.90979e-14
-2.43942e-14
-2.90979e-14
-2.43942e-14
-1.84387e-14
-1.28555e-14
-6.40674e-15
-3.48886e-22
6.40674e-15
1.28555e-14
1.84387e-14
2.43942e-14
2.90979e-14
-2.90979e-14
-2.43942e-14
-1.84387e-14
-1.28555e-14
-6.40674e-15
-3.48886e-22
6.40674e-15
1.28555e-14
1.84387e-14
2.43942e-14
2.90979e-14
-2.90979e-14
-2.43942e-14
-1.84387e-14
-1.28555e-14
-6.40674e-15
-3.48886e-22
6.40674e-15
1.28555e-14
1.84387e-14
2.43942e-14
2.90979e-14
-2.90979e-14
-2.43942e-14
-1.84387e-14
-1.28555e-14
-6.40674e-15
-6.21161e-22
6.40674e-15
1.28555e-14
1.84387e-14
2.43942e-14
2.90979e-14
-2.90979e-14
-2.43942e-14
-1.84387e-14
-1.28555e-14
-6.40674e-15
-3.49064e-22
6.40674e-15
1.28555e-14
1.84387e-14
2.43942e-14
2.90979e-14
-2.90979e-14
-2.43942e-14
-1.84387e-14
-1.28555e-14
-6.40674e-15
-3.49064e-22
6.40674e-15
1.28555e-14
1.84387e-14
2.43942e-14
2.90979e-14
-2.90979e-14
-2.43942e-14
-1.84387e-14
-1.28555e-14
-6.40674e-15
-3.48886e-22
6.40674e-15
1.28555e-14
1.84387e-14
2.43942e-14
2.90979e-14
-2.90979e-14
-2.43942e-14
-1.84387e-14
-1.28555e-14
-6.40674e-15
-3.48886e-22
6.40674e-15
1.28555e-14
1.84387e-14
2.43942e-14
2.90979e-14
-2.90979e-14
-2.43942e-14
-1.84387e-14
-1.28555e-14
-6.40674e-15
-3.48886e-22
6.40674e-15
1.28555e-14
1.84387e-14
2.43942e-14
2.90979e-14
-2.90979e-14
-2.43942e-14
-1.84387e-14
-1.28555e-14
-6.40674e-15
-3.48886e-22
6.40674e-15
1.28555e-14
1.84387e-14
2.43942e-14
2.90979e-14
-2.90979e-14
-2.43942e-14
-1.84387e-14
-1.28555e-14
-6.40674e-15
-6.21339e-22
6.40674e-15
1.28555e-14
1.84387e-14
2.43942e-14
2.90979e-14
1.28555e-14
1.84387e-14
2.43942e-14
2.90979e-14
)
;
    }
    ami2
    {
        type            cyclicAMI;
        value           nonuniform List<scalar> 0();
    }
    outlet
    {
        type            calculated;
        value           nonuniform List<scalar> 0();
    }
    procBoundary8to0
    {
        type            processor;
        value           nonuniform List<scalar> 
29
(
-7.21594e-08
-2.28637e-07
-4.42803e-07
-6.38333e-07
-7.62988e-07
-2.14705e-07
-5.35166e-07
-8.27001e-07
-1.04684e-06
-1.17938e-06
-3.99418e-07
-7.998e-07
-1.10182e-06
-1.32239e-06
-1.45559e-06
-5.80772e-07
-1.0062e-06
-1.30521e-06
-1.52103e-06
-1.65249e-06
-7.23261e-07
-1.14922e-06
-1.43979e-06
-1.64788e-06
-1.7755e-06
-1.81807e-06
-1.69432e-06
-1.81809e-06
-1.86009e-06
)
;
    }
    procBoundary8to1
    {
        type            processor;
        value           nonuniform List<scalar> 
33
(
-7.90544e-07
-1.2124e-06
-1.49384e-06
-7.63037e-07
-1.17944e-06
-1.45563e-06
-1.65251e-06
-1.77549e-06
-1.81807e-06
-6.38346e-07
-1.0469e-06
-1.32244e-06
-1.52103e-06
-1.64783e-06
-1.69427e-06
-4.42817e-07
-8.27038e-07
-1.10188e-06
-1.30521e-06
-1.43973e-06
-1.49375e-06
-2.2865e-07
-5.35172e-07
-7.99834e-07
-1.00621e-06
-1.14918e-06
-1.21234e-06
-7.21672e-08
-2.14725e-07
-3.99466e-07
-5.80891e-07
-7.23402e-07
-7.90634e-07
)
;
    }
    procBoundary8to7
    {
        type            processor;
        value           nonuniform List<scalar> 
68
(
6.2447e-08
2.01678e-07
3.93957e-07
5.63367e-07
6.76003e-07
1.8887e-07
5.03337e-07
8.13497e-07
1.03742e-06
1.17036e-06
3.57304e-07
7.87492e-07
1.12348e-06
1.35681e-06
1.49438e-06
5.19411e-07
1.00243e-06
1.34185e-06
1.57635e-06
1.71624e-06
6.44721e-07
1.14318e-06
1.47982e-06
1.71183e-06
1.85144e-06
1.89771e-06
7.0336e-07
1.20379e-06
1.5338e-06
1.76048e-06
1.89767e-06
1.94387e-06
6.76335e-07
-1.06923e-07
1.17046e-06
-9.35133e-08
1.49435e-06
1.71618e-06
1.85139e-06
1.89768e-06
5.57287e-07
1.03614e-06
4.16335e-08
1.35683e-06
1.57631e-06
1.71178e-06
1.76046e-06
3.90004e-07
8.11687e-07
5.30036e-08
1.12351e-06
1.34181e-06
1.47974e-06
1.53374e-06
1.99621e-07
5.00302e-07
6.0639e-08
7.87563e-07
1.00244e-06
1.14313e-06
1.20373e-06
6.17393e-08
1.86992e-07
6.6601e-08
3.57376e-07
5.19531e-07
6.44867e-07
7.03451e-07
)
;
    }
    procBoundary8to9
    {
        type            processor;
        value           nonuniform List<scalar> 
132
(
-1.172e-07
-1.17247e-07
-1.17239e-07
-1.17197e-07
-1.17136e-07
-1.1707e-07
-1.17008e-07
-1.16954e-07
-1.1691e-07
-1.16884e-07
-1.16902e-07
-1.02444e-07
-1.02544e-07
-1.02582e-07
-1.02572e-07
-1.02531e-07
-1.02472e-07
-1.02402e-07
-1.02326e-07
-1.02256e-07
-1.02195e-07
-1.02137e-07
-8.19295e-08
-8.20057e-08
-8.20525e-08
-8.20727e-08
-8.20706e-08
-8.20533e-08
-8.20259e-08
-8.19925e-08
-8.19566e-08
-8.19127e-08
-8.18596e-08
-5.68218e-08
-5.68687e-08
-5.69069e-08
-5.69366e-08
-5.69586e-08
-5.69747e-08
-5.69862e-08
-5.69937e-08
-5.69968e-08
-5.69922e-08
-5.69839e-08
-5.97358e-09
-5.90523e-09
-5.83777e-09
-5.77141e-09
-5.70634e-09
-5.64269e-09
-5.58054e-09
-5.5206e-09
-5.4635e-09
-5.41335e-09
-5.35906e-09
-3.19528e-08
-3.19159e-08
-3.18842e-08
-3.18579e-08
-3.18366e-08
-3.18199e-08
-3.18072e-08
-3.17981e-08
-3.17926e-08
-3.17913e-08
-3.17905e-08
-2.03421e-09
-2.00508e-09
-1.97696e-09
-1.95e-09
-1.92439e-09
-1.90028e-09
-1.87775e-09
-1.85695e-09
-1.83811e-09
-1.82212e-09
-1.80588e-09
2.81933e-08
2.8224e-08
2.82549e-08
2.82855e-08
2.83152e-08
2.83436e-08
2.83705e-08
2.83952e-08
2.84172e-08
2.84347e-08
2.84511e-08
5.67987e-08
5.68475e-08
5.68879e-08
5.69203e-08
5.6945e-08
5.69632e-08
5.69766e-08
5.69856e-08
5.69899e-08
5.6987e-08
5.69822e-08
8.19061e-08
8.1984e-08
8.20322e-08
8.2054e-08
8.20538e-08
8.20374e-08
8.20114e-08
8.19782e-08
8.19426e-08
8.19002e-08
8.18526e-08
1.02424e-07
1.02523e-07
1.02561e-07
1.02552e-07