/*--------------------------------*- C++ -*----------------------------------*\
| =========                 |                                                 |
| \\      /  F ield         | OpenFOAM: The Open Source CFD Toolbox           |
|  \\    /   O peration     | Version:  2212                                  |
|   \\  /    A nd           | Website:  www.openfoam.com                      |
|    \\/     M anipulation  |                                                 |
\*---------------------------------------------------------------------------*/
FoamFile
{
    version     2.0;
    format      ascii;
    arch        "LSB;label=32;scalar=64";
    class       volScalarField;
    location    "2";
    object      epsilon;
}
// * * * * * * * * * * * * * * * * * * * * * * * * * * * * * * * * * * * * * //

dimensions      [0 2 -3 0 0 0 0];

internalField   nonuniform List<scalar> 
678
(
0.087456
0.0859275
0.0844337
0.0829776
0.0815282
0.0322776
0.0316514
0.0310502
0.0304759
0.0299219
0.0214671
0.020993
0.0205337
0.020099
0.0196844
0.0165175
0.0161104
0.0157181
0.0153441
0.0150041
0.0146708
0.0143566
0.0139894
0.0136367
0.0133031
0.0129949
0.0126864
0.0135316
0.013198
0.0128823
0.0125444
0.0122667
0.0119333
0.0116869
0.0137601
0.0134177
0.0130932
0.0127504
0.0124681
0.0121719
0.0119163
0.0152153
0.0148339
0.0144875
0.0141729
0.0138641
0.0135649
0.0132701
0.0190291
0.018617
0.0182213
0.0178503
0.0174928
0.0171466
0.0167896
0.0297122
0.0291435
0.0286038
0.0280909
0.0275916
0.0271067
0.0874379
0.085911
0.0844206
0.0829721
0.0815363
0.0801481
0.0297244
0.0291578
0.0286185
0.0281059
0.0275998
0.027089
0.01177
0.0115187
0.0111972
0.0108669
0.0105333
0.00790579
0.00773269
0.00754498
0.00723997
0.00707429
0.00685952
0.00645799
0.00632611
0.00619556
0.00593336
0.00581795
0.00561726
0.00582898
0.00566431
0.00555045
0.00533834
0.00522953
0.00504375
0.00556056
0.00541497
0.00527224
0.00511493
0.00499139
0.0048046
0.0055649
0.00542146
0.00528211
0.00506874
0.00494592
0.00475125
0.00595188
0.00579856
0.00565048
0.00536076
0.00523206
0.00501376
0.00486355
0.0071018
0.00691603
0.00673175
0.00640659
0.00625386
0.00600636
0.00583232
0.0117738
0.0115226
0.0112
0.0108673
0.0105678
0.0102978
0.00999936
0.032279
0.0316536
0.0310538
0.0304813
0.0299301
0.0294011
0.0190383
0.018629
0.0182361
0.0178674
0.0175112
0.0171635
0.0168003
0.00709895
0.00690999
0.00672746
0.00640365
0.0062519
0.0060351
0.00510757
0.00499039
0.00485478
0.0046087
0.00449568
0.00431381
0.00457372
0.00446096
0.00434374
0.00418465
0.00407684
0.00390096
0.00448656
0.00433687
0.00419679
0.0040632
0.0039529
0.00381135
0.00443873
0.00429627
0.00415904
0.00402544
0.00391094
0.00378945
0.00444955
0.0043033
0.00416429
0.00402933
0.00391545
0.00378421
0.00453782
0.00441795
0.00430436
0.00410224
0.00398949
0.00381036
0.00511964
0.00500176
0.00487176
0.00461801
0.00451154
0.00432415
0.00791179
0.00773665
0.00754787
0.00724203
0.00707671
0.0068444
0.00671427
0.0214753
0.0210017
0.0205433
0.0201096
0.0196974
0.019303
0.01523
0.0148499
0.0145051
0.014193
0.0138854
0.0135872
0.013291
0.00594144
0.00578671
0.00563971
0.0053575
0.00522285
0.00500866
0.00490062
0.00449478
0.00438184
0.00425564
0.00410943
0.00398682
0.0038229
0.00430034
0.00420258
0.00403993
0.00388708
0.00370236
0.00361419
0.00433836
0.00421407
0.0040564
0.00390222
0.00371726
0.00364053
0.00435848
0.00423522
0.00407385
0.00391837
0.00372245
0.0037085
0.00432767
0.00421199
0.00405379
0.00388804
0.00374295
0.00430396
0.00420445
0.00404226
0.00388247
0.00371009
0.00362649
0.00457528
0.00446447
0.00435049
0.0041822
0.00407593
0.00393512
0.00646082
0.00632994
0.00619643
0.00593742
0.00581266
0.0056469
0.0165302
0.0161221
0.0157298
0.0153563
0.0150163
0.0146842
0.0137757
0.0134348
0.0131033
0.0127917
0.01247
0.0122009
0.00555904
0.00541061
0.00526169
0.00507674
0.00494056
0.00476479
0.00441442
0.00428694
0.00415377
0.00402986
0.00392738
0.00431686
0.00420541
0.00404696
0.00387388
0.00375026
0.00440114
0.00424243
0.0041119
0.00393756
0.003823
0.00445407
0.00429244
0.00415124
0.00397811
0.00385081
0.00440265
0.00424622
0.00411167
0.00394021
0.00380904
0.00433113
0.00420447
0.00404577
0.00387836
0.00373958
0.00448191
0.00433182
0.00419201
0.00406192
0.00396102
0.00582765
0.00569216
0.00554584
0.00535174
0.00522059
0.0143696
0.0140014
0.0136491
0.0133147
0.0130068
0.0127017
0.013551
0.0132171
0.0129029
0.0125692
0.0122837
0.0119554
0.00555365
0.00542549
0.0052731
0.00515042
0.00493114
0.00483707
0.00444697
0.00430002
0.00416298
0.00406352
0.00435582
0.00423485
0.00406679
0.00391071
0.00446045
0.00429685
0.00414553
0.00399895
0.0045119
0.00434242
0.00420621
0.00402505
0.00391783
0.00444969
0.00429092
0.00414522
0.00397115
0.00384627
0.0043472
0.00422096
0.0040607
0.0038881
0.00375666
0.00442931
0.0042864
0.00414926
0.00402068
0.00392297
0.0055494
0.00541895
0.00527323
0.00513817
0.00495479
0.0135417
0.0132082
0.0128935
0.0125554
0.0122779
0.0147572
0.0143801
0.0140138
0.0136564
0.0133297
0.0130168
0.00599257
0.00583893
0.0056975
0.00550225
0.00537843
0.0051842
0.00464405
0.00448304
0.00433362
0.00419225
0.00407823
0.00395301
0.00449486
0.00432925
0.00416914
0.00401331
0.00383885
0.00374808
0.00459998
0.00441117
0.00423947
0.00407803
0.00390045
0.00380344
0.00446312
0.00429854
0.00414509
0.00396718
0.00384188
0.00439837
0.00424219
0.00410487
0.00393
0.0038013
0.00431922
0.0041991
0.00403981
0.00386702
0.00373468
0.00444184
0.00429179
0.0041517
0.004019
0.00391546
0.00555352
0.00541046
0.00526609
0.0050634
0.00493047
0.0137676
0.0134261
0.0131037
0.0127619
0.0124836
0.0169566
0.01654
0.0161338
0.0157364
0.0153753
0.0150249
0.00665092
0.00652034
0.00631534
0.00616603
0.00592425
0.00577951
0.00474812
0.00461754
0.00448603
0.00432599
0.004201
0.00401393
0.00446007
0.00430212
0.00415031
0.00399282
0.00382569
0.00368793
0.00448502
0.00431364
0.00414907
0.00399453
0.00382507
0.00370117
0.0043424
0.0041835
0.00404574
0.00387304
0.00374146
0.00432273
0.00419844
0.0040366
0.00386323
0.00372768
0.00429858
0.00419177
0.00403166
0.00385848
0.00371614
0.00453159
0.00440579
0.00428788
0.00410044
0.00396555
0.00594722
0.00578918
0.00564036
0.00535089
0.00520622
0.0152228
0.0148431
0.0144989
0.0141851
0.0138772
0.0219798
0.0214903
0.0210151
0.0205604
0.0201278
0.0197171
0.00809675
0.00793014
0.00774627
0.00745505
0.00726999
0.00702084
0.00524231
0.00512716
0.00500066
0.00474893
0.0046319
0.00443416
0.00466209
0.00452972
0.00440359
0.00422458
0.0041001
0.00391002
0.00459657
0.00442916
0.00427733
0.00413381
0.00400474
0.00387886
0.00444156
0.00428693
0.00414279
0.00400868
0.00391002
0.00447641
0.00432396
0.00418211
0.00404983
0.00394756
0.0045693
0.00445584
0.00434021
0.00417599
0.00405661
0.00511434
0.00499469
0.00485761
0.0046122
0.00447738
0.00709834
0.00690557
0.00672561
0.00640211
0.00622114
0.0190406
0.0186305
0.0182374
0.0178672
0.0175131
0.0329546
0.0323094
0.0316883
0.0310921
0.0305189
0.0299684
0.0121121
0.011844
0.0115155
0.0111869
0.010892
0.0105643
0.00731183
0.00711719
0.00693349
0.00661077
0.0064503
0.00619715
0.00609675
0.00594167
0.00578703
0.00552568
0.00538149
0.00516054
0.00573583
0.00556169
0.00539165
0.00523504
0.00504044
0.00490807
0.00557366
0.00542127
0.00527117
0.005092
0.00495845
0.00582312
0.00568247
0.00553358
0.00533691
0.00520709
0.00645253
0.00631932
0.00618217
0.00592956
0.00578029
0.0079074
0.00774354
0.00749788
0.00728106
0.00701782
0.0117775
0.0115285
0.0112003
0.0108852
0.010547
0.0297336
0.0291668
0.0286295
0.0281165
0.02762
0.0891689
0.0875835
0.0860426
0.0845575
0.0830779
0.0816801
0.0303453
0.029757
0.0291963
0.0286649
0.0281466
0.0276485
0.0194899
0.0190593
0.0186486
0.0182646
0.0156566
0.0152425
0.0148621
0.0145236
0.0142092
0.0141478
0.0137856
0.013443
0.0131229
0.0127853
0.0135552
0.0132225
0.0129026
0.0125954
0.0122521
0.0143807
0.0140116
0.0136629
0.0133317
0.0130169
0.0165393
0.0161335
0.0157408
0.0153726
0.0150302
0.0214874
0.0210148
0.0205602
0.0201268
0.0197169
0.0323004
0.0316759
0.0310796
0.0305077
0.0299603
0.0875079
0.0859807
0.0845044
0.0830413
0.0816351
)
;

boundaryField
{
    inlet
    {
        type            fixedValue;
        value           nonuniform List<scalar> 0();
    }
    ami1
    {
        type            cyclicAMI;
        value           nonuniform List<scalar> 0();
    }
    walls
    {
        type            epsilonWallFunction;
        blending        stepwise;
        value           nonuniform List<scalar> 
250
(
0.087456
0.0322776
0.0214671
0.0165175
0.0143566
0.0135316
0.0137601
0.0152153
0.0190291
0.0297122
0.0874379
0.0859275
0.0316514
0.020993
0.0161104
0.0139894
0.013198
0.0134177
0.0148339
0.018617
0.0291435
0.085911
0.0844337
0.0310502
0.0205337
0.0157181
0.0136367
0.0128823
0.0130932
0.0144875
0.0182213
0.0286038
0.0844206
0.0829776
0.0304759
0.020099
0.0153441
0.0133031
0.0125444
0.0127504
0.0141729
0.0178503
0.0280909
0.0829721
0.0815282
0.0299219
0.0196844
0.0150041
0.0129949
0.0122667
0.0124681
0.0138641
0.0174928
0.0275916
0.0815363
0.0146708
0.0126864
0.0119333
0.0121719
0.0135649
0.0171466
0.0271067
0.0801481
0.0116869
0.0119163
0.0132701
0.0167896
0.0874379
0.032279
0.0214753
0.0165302
0.0143696
0.0135417
0.0137676
0.0152228
0.0190406
0.0297336
0.0875079
0.085911
0.0316536
0.0210017
0.0161221
0.0140014
0.0132082
0.0134261
0.0148431
0.0186305
0.0291668
0.0859807
0.0844206
0.0310538
0.0205433
0.0157298
0.0136491
0.0128935
0.0131037
0.0144989
0.0182374
0.0286295
0.0845044
0.0829721
0.0304813
0.0201096
0.0153563
0.0133147
0.0125554
0.0127619
0.0141851
0.0178672
0.0281165
0.0830413
0.0815363
0.0299301
0.0196974
0.0150163
0.0130068
0.0122779
0.0124836
0.0138772
0.0175131
0.02762
0.0816351
0.0801481
0.0294011
0.019303
0.0146842
0.0127017
0.0891689
0.0303453
0.0194899
0.0156566
0.0141478
0.0875835
0.029757
0.0190593
0.0152425
0.0137856
0.0135552
0.0143807
0.0165393
0.0214874
0.0323004
0.0875079
0.0860426
0.0291963
0.0186486
0.0148621
0.013443
0.0132225
0.0140116
0.0161335
0.0210148
0.0316759
0.0859807
0.0845575
0.0286649
0.0182646
0.0145236
0.0131229
0.0129026
0.0136629
0.0157408
0.0205602
0.0310796
0.0845044
0.0830779
0.0281466
0.0142092
0.0127853
0.0125954
0.0133317
0.0153726
0.0201268
0.0305077
0.0830413
0.0816801
0.0276485
0.0122521
0.0130169
0.0150302
0.0197169
0.0299603
0.0816351
0.0147572
0.0169566
0.0219798
0.0329546
0.0891689
0.087456
0.0297244
0.0190383
0.01523
0.0137757
0.013551
0.0143801
0.01654
0.0214903
0.0323094
0.0875835
0.0859275
0.0291578
0.018629
0.0148499
0.0134348
0.0132171
0.0140138
0.0161338
0.0210151
0.0316883
0.0860426
0.0844337
0.0286185
0.0182361
0.0145051
0.0131033
0.0129029
0.0136564
0.0157364
0.0205604
0.0310921
0.0845575
0.0829776
0.0281059
0.0178674
0.014193
0.0127917
0.0125692
0.0133297
0.0153753
0.0201278
0.0305189
0.0830779
0.0815282
0.0275998
0.0175112
0.0138854
0.01247
0.0122837
0.0130168
0.0150249
0.0197171
0.0299684
0.0816801
0.027089
0.0171635
0.0135872
0.0122009
0.0119554
0.0168003
0.013291
)
;
    }
    ami2
    {
        type            cyclicAMI;
        value           nonuniform List<scalar> 0();
    }
    outlet
    {
        type            zeroGradient;
    }
    procBoundary5to6
    {
        type            processor;
        value           nonuniform List<scalar> 
177
(
0.080092
0.080092
0.0293779
0.0192866
0.0192866
0.0192866
0.0143621
0.0124023
0.0124023
0.0114178
0.00481674
0.0116559
0.00478478
0.0129736
0.0164361
0.0266029
0.0266029
0.0266029
0.0788354
0.0266065
0.0103224
0.0266065
0.0103224
0.0103224
0.0103224
0.00682729
0.00563204
0.00506158
0.00481674
0.00478478
0.00478478
0.00492014
0.00384953
0.00582722
0.00437085
0.00983413
0.0288703
0.0288703
0.0164485
0.00597082
0.00597082
0.00597082
0.00434415
0.00392919
0.00382998
0.00380502
0.00381189
0.00378108
0.00384953
0.00437085
0.00437085
0.0067048
0.0189213
0.00564798
0.0189213
0.0129942
0.011931
0.00493343
0.00386303
0.00479261
0.00386303
0.00392236
0.00368593
0.00379014
0.00371181
0.00386588
0.00374186
0.00378108
0.00389698
0.00378108
0.00378108
0.00366872
0.00377649
0.00396053
0.00395202
0.00564798
0.00518461
0.0143708
0.011931
0.00479261
0.00392236
0.00392236
0.00406061
0.00379014
0.00393835
0.00386588
0.004033
0.00389698
0.00384956
0.00377649
0.00395202
0.00518461
0.00518461
0.0124092
0.0119338
0.0117192
0.0127101
0.00406061
0.00482127
0.00393262
0.00518939
0.00406061
0.00406061
0.00393835
0.00393835
0.004033
0.004033
0.004033
0.00395775
0.00389192
0.00379778
0.00391935
0.00494366
0.0119338
0.0127101
0.00518939
0.00395189
0.00379408
0.00384392
0.0038875
0.00384668
0.00377812
0.00390547
0.00489435
0.0121729
0.0147018
0.00574985
0.00402802
0.00373034
0.00374624
0.00378292
0.00376925
0.00375152
0.00395906
0.00515871
0.0135708
0.0193234
0.00697318
0.00444921
0.00392927
0.00387022
0.00390369
0.00393784
0.004042
0.00445874
0.0061138
0.0171609
0.0294315
0.0103454
0.0178888
0.00613534
0.0175359
0.00515566
0.0139013
0.00487481
0.0125107
0.00491875
0.00516961
0.00574326
0.00696362
0.0103247
0.0271219
0.080324
0.0178888
0.0271512
0.0175359
0.0178888
0.0178888
0.0139013
0.0125107
0.0125107
0.0120166
0.0127238
0.0147034
0.0193242
0.0294248
0.0802816
)
;
    }
    procBoundary5to7
    {
        type            processor;
        value           nonuniform List<scalar> 
131
(
0.0890908
0.0329322
0.0219615
0.0169401
0.0147403
0.0138931
0.0141293
0.015632
0.0194674
0.0303147
0.0890757
0.0303245
0.012139
0.0080789
0.00666232
0.00602098
0.00574246
0.00570343
0.00606564
0.00727942
0.0121491
0.0329345
0.0194742
0.00727922
0.00520387
0.00474476
0.00461312
0.00450897
0.00454016
0.00463097
0.00521552
0.00808934
0.0219692
0.0156461
0.00610209
0.00465832
0.004378
0.0044157
0.00443781
0.00440457
0.00438191
0.00475162
0.00665653
0.0169515
0.0141439
0.0057211
0.00453295
0.00439351
0.00451055
0.00457446
0.00451485
0.00441129
0.0046057
0.00598533
0.0147524
0.0139113
0.0139113
0.00574133
0.00574133
0.00452223
0.00452223
0.00443346
0.00443346
0.00457684
0.00457684
0.00464222
0.00457195
0.00442974
0.00450058
0.00573386
0.0139027
0.0151696
0.00622821
0.00478268
0.00462777
0.00475712
0.00458399
0.00458399
0.00451144
0.00439924
0.00453009
0.00568574
0.0141358
0.0174057
0.00690875
0.00496496
0.00458873
0.00461809
0.00444007
0.00444007
0.00440787
0.00437829
0.00462749
0.00606012
0.0156386
0.0224937
0.00837315
0.0054387
0.0048695
0.00470154
0.00451492
0.00451492
0.00459616
0.00474573
0.00520466
0.00727526
0.019478
0.0336299
0.0125039
0.00756855
0.00633699
0.00595324
0.00573141
0.00573141
0.00598661
0.00664708
0.00807734
0.0121536
0.0303366
0.0908456
0.0309695
0.0199525
0.016081
0.0145359
0.013916
0.013916
0.0147636
0.01696
0.0219797
0.0329545
0.0891393
)
;
    }
}


// ************************************************************************* //
