/*--------------------------------*- C++ -*----------------------------------*\
| =========                 |                                                 |
| \\      /  F ield         | OpenFOAM: The Open Source CFD Toolbox           |
|  \\    /   O peration     | Version:  2212                                  |
|   \\  /    A nd           | Website:  www.openfoam.com                      |
|    \\/     M anipulation  |                                                 |
\*---------------------------------------------------------------------------*/
FoamFile
{
    version     2.0;
    format      ascii;
    arch        "LSB;label=32;scalar=64";
    class       volScalarField;
    location    "2";
    object      k;
}
// * * * * * * * * * * * * * * * * * * * * * * * * * * * * * * * * * * * * * //

dimensions      [0 2 -2 0 0 0 0];

internalField   nonuniform List<scalar> 
678
(
0.00184434
0.00182287
0.00180182
0.00178123
0.00176067
0.00157836
0.00155794
0.00153821
0.00151928
0.00150093
0.00154563
0.00152282
0.00150052
0.00147936
0.00145895
0.00149827
0.00147367
0.00144926
0.0014269
0.00140499
0.00138497
0.0014732
0.001448
0.0014234
0.00140065
0.00137799
0.00135733
0.00145099
0.0014271
0.00140372
0.00138134
0.00135596
0.00133739
0.0013151
0.00143224
0.00140846
0.00138485
0.00136303
0.00133956
0.00132078
0.00130157
0.00141869
0.00139488
0.00137311
0.00135325
0.00133359
0.00131447
0.00129555
0.00142655
0.00140592
0.00138599
0.00136721
0.00134903
0.00133132
0.00131305
0.00149377
0.00147473
0.00145656
0.00143924
0.00142232
0.00140585
0.00184406
0.0018226
0.00180159
0.00178108
0.00176067
0.00174091
0.00149419
0.00147523
0.00145709
0.0014398
0.0014227
0.00140542
0.000985287
0.000959397
0.000935071
0.000914159
0.000895078
0.00118983
0.00115084
0.001111
0.00107848
0.00104571
0.00101605
0.00132039
0.00127678
0.00123244
0.00119434
0.00115563
0.00112092
0.00138521
0.00133977
0.0012945
0.00125329
0.00121141
0.00117302
0.00141344
0.00136809
0.00132499
0.0012795
0.00123294
0.00119131
0.00138939
0.00133972
0.00128998
0.00124527
0.00120021
0.00115967
0.0012845
0.00123506
0.00118469
0.00114243
0.00109966
0.00106192
0.00102379
0.00110263
0.00106339
0.00102308
0.000991796
0.000959911
0.000931855
0.000898986
0.000984264
0.000958309
0.00093396
0.000913101
0.000893728
0.00087579
0.000858676
0.0015784
0.00155799
0.0015383
0.00151941
0.00150114
0.00148355
0.001427
0.00140651
0.00138674
0.00136808
0.00134999
0.00133227
0.00131369
0.00110353
0.00106475
0.00102494
0.000993956
0.000962736
0.000933837
0.00134218
0.00128936
0.00123657
0.00119043
0.00114454
0.00110331
0.00153292
0.00147211
0.0014129
0.00135757
0.0013038
0.00125461
0.00165122
0.00158527
0.0015222
0.00146232
0.00140455
0.00135049
0.0017017
0.00163369
0.00156884
0.00150687
0.00144716
0.00139055
0.00167414
0.00160627
0.00154112
0.00147911
0.00141939
0.00136292
0.00154693
0.00148324
0.00142071
0.00136297
0.00130683
0.00125524
0.00134148
0.00128845
0.00123524
0.00118917
0.00114305
0.00110198
0.00118953
0.00115058
0.00111075
0.00107826
0.00104529
0.00101638
0.000986729
0.00154602
0.00152323
0.00150098
0.00147986
0.00145956
0.00144013
0.00141958
0.00139585
0.00137421
0.00135446
0.00133497
0.00131589
0.00129692
0.00128617
0.00123731
0.00118769
0.00114567
0.00110346
0.00106575
0.00102663
0.00154835
0.00148498
0.00142345
0.0013652
0.00130912
0.00125703
0.00177376
0.00170061
0.00163097
0.0015645
0.00150202
0.00144218
0.00191711
0.00183891
0.00176435
0.00169314
0.00162613
0.0015619
0.00197057
0.0018904
0.00181403
0.00174104
0.00167279
0.00160637
0.00192575
0.00184714
0.00177207
0.00170059
0.00163345
0.00177371
0.00170054
0.00163081
0.00156434
0.00150189
0.00144162
0.00153357
0.00147271
0.00141339
0.00135798
0.00130468
0.00125454
0.0013216
0.00127781
0.00123345
0.00119517
0.00115706
0.00112112
0.00149903
0.00147437
0.00144999
0.0014276
0.0014058
0.00138563
0.00143331
0.00140949
0.0013869
0.00136296
0.00134248
0.00132158
0.00139172
0.00134224
0.00129354
0.00124839
0.00120404
0.00116274
0.00167636
0.00160862
0.00154365
0.0014815
0.00142225
0.00192682
0.00184824
0.00177313
0.00170196
0.00163454
0.00208833
0.00200398
0.0019231
0.00184631
0.00177344
0.00214526
0.00205869
0.00197589
0.00189718
0.00182276
0.00208797
0.0020036
0.00192278
0.00184589
0.00177335
0.00191759
0.00183944
0.00176487
0.00169394
0.00162724
0.00165253
0.00158655
0.00152357
0.00146344
0.00140648
0.00138737
0.00134087
0.00129611
0.00125419
0.00121344
0.00147408
0.00144884
0.00142424
0.00140147
0.00137886
0.00135763
0.00145235
0.00142847
0.0014053
0.00138275
0.00135785
0.00133873
0.00141672
0.00137102
0.001328
0.00128136
0.00123694
0.00119381
0.00170418
0.00163606
0.00157117
0.00150933
0.00197227
0.00189197
0.00181542
0.00174344
0.00214599
0.00205924
0.00197643
0.00189814
0.00220643
0.00211749
0.00203245
0.00195183
0.00187544
0.00214532
0.00205873
0.00197596
0.0018973
0.001823
0.00197106
0.001891
0.00181462
0.00174209
0.0016738
0.00170287
0.00163493
0.00157022
0.00150815
0.00144904
0.00141531
0.00136983
0.00132673
0.00128034
0.00123582
0.00145171
0.00142784
0.00140452
0.00138215
0.00135669
0.00150044
0.00147482
0.00144936
0.00142532
0.00140205
0.00137982
0.00143707
0.00138871
0.00134144
0.00129844
0.00125525
0.00121533
0.00172263
0.00165349
0.00158751
0.00152475
0.00146456
0.00140744
0.00199989
0.0019182
0.00184038
0.00176611
0.0016959
0.00162885
0.00217732
0.00208835
0.00200388
0.00192334
0.00184706
0.00177452
0.00214558
0.00205882
0.00197606
0.00189751
0.00182333
0.00208805
0.0020037
0.00192292
0.00184614
0.00177374
0.00192583
0.00184736
0.00177242
0.00170122
0.0016343
0.00167456
0.00160684
0.00154204
0.00147996
0.00142123
0.00139059
0.001341
0.00129205
0.00124681
0.00120341
0.00143276
0.00140904
0.00138562
0.00136388
0.0013403
0.00152467
0.00149963
0.00147481
0.00145103
0.001428
0.00140703
0.00136745
0.00132123
0.00127776
0.00123508
0.00119644
0.00115991
0.00159797
0.00153418
0.00147271
0.00141474
0.00135867
0.00130751
0.00185008
0.00177424
0.0017018
0.00163276
0.0015671
0.00150544
0.00200831
0.00192628
0.00184828
0.00177386
0.00170317
0.00163649
0.00197145
0.00189177
0.00181554
0.00174314
0.00167503
0.00191772
0.00183971
0.00176528
0.00169456
0.00162813
0.00177355
0.00170062
0.00163109
0.00156494
0.00150313
0.00154699
0.00148348
0.00142161
0.00136337
0.00130904
0.00128519
0.00123614
0.00118642
0.00114375
0.00110335
0.00141917
0.00139546
0.00137384
0.00135402
0.00133444
0.00157012
0.00154674
0.00152386
0.00150185
0.00148072
0.0014606
0.00123154
0.00119103
0.00115014
0.00111519
0.00108011
0.00105008
0.00139873
0.0013436
0.00128843
0.00124007
0.00119165
0.00114888
0.00161457
0.00154867
0.00148443
0.0014244
0.00136599
0.00131267
0.00174606
0.00167537
0.00160791
0.00154365
0.00148193
0.00142395
0.00170343
0.00163558
0.00157107
0.00150929
0.00145062
0.00165306
0.00158719
0.00152438
0.00146448
0.00140786
0.00153381
0.00147313
0.00141429
0.00135867
0.00130664
0.00134228
0.00128908
0.00123689
0.00118977
0.00114603
0.00110382
0.00106485
0.00102514
0.000993112
0.000963625
0.00142715
0.00140662
0.00138683
0.00136809
0.00135009
0.00160031
0.00157939
0.00155912
0.00153957
0.00152068
0.00150245
0.00101298
0.000985735
0.000960025
0.000937415
0.000916032
0.000897243
0.00114546
0.00110487
0.00106326
0.00103009
0.000995938
0.000967504
0.00133782
0.00128748
0.00123655
0.00119233
0.00114784
0.00110887
0.00144341
0.00139186
0.00134234
0.0012947
0.00125015
0.00120768
0.00141612
0.00137037
0.00132763
0.00128228
0.00123832
0.00138816
0.0013418
0.00129724
0.00125577
0.00121551
0.00132244
0.00127888
0.00123508
0.00119635
0.00115962
0.00119118
0.00115123
0.00111415
0.00107857
0.00104855
0.000985625
0.000959483
0.000935648
0.00091415
0.00089553
0.00149454
0.00147555
0.00145747
0.00144014
0.00142333
0.00186824
0.00184609
0.00182448
0.00180356
0.00178263
0.0017628
0.00151486
0.00149527
0.0014765
0.00145864
0.00144117
0.00142433
0.00144947
0.00142805
0.00140749
0.00138817
0.00144601
0.00142037
0.00139664
0.00137536
0.00135556
0.00145904
0.00143401
0.00141021
0.00138703
0.00136525
0.0014527
0.00142877
0.00140607
0.00138182
0.00136138
0.00147484
0.00144971
0.00142504
0.00140233
0.00138053
0.00149962
0.00147502
0.0014509
0.00142833
0.00140706
0.00154664
0.00152389
0.00150185
0.00148071
0.00146058
0.00157913
0.00155876
0.00153919
0.00152032
0.00150218
0.00184509
0.00182363
0.00180281
0.0017821
0.00176214
)
;

boundaryField
{
    inlet
    {
        type            fixedValue;
        value           nonuniform List<scalar> 0();
    }
    ami1
    {
        type            cyclicAMI;
        value           nonuniform List<scalar> 0();
    }
    walls
    {
        type            kqRWallFunction;
        value           nonuniform List<scalar> 
250
(
0.00184434
0.00157836
0.00154563
0.00149827
0.0014732
0.00145099
0.00143224
0.00141869
0.00142655
0.00149377
0.00184406
0.00182287
0.00155794
0.00152282
0.00147367
0.001448
0.0014271
0.00140846
0.00139488
0.00140592
0.00147473
0.0018226
0.00180182
0.00153821
0.00150052
0.00144926
0.0014234
0.00140372
0.00138485
0.00137311
0.00138599
0.00145656
0.00180159
0.00178123
0.00151928
0.00147936
0.0014269
0.00140065
0.00138134
0.00136303
0.00135325
0.00136721
0.00143924
0.00178108
0.00176067
0.00150093
0.00145895
0.00140499
0.00137799
0.00135596
0.00133956
0.00133359
0.00134903
0.00142232
0.00176067
0.00138497
0.00135733
0.00133739
0.00132078
0.00131447
0.00133132
0.00140585
0.00174091
0.0013151
0.00130157
0.00129555
0.00131305
0.00184406
0.0015784
0.00154602
0.00149903
0.00147408
0.00145171
0.00143276
0.00141917
0.00142715
0.00149454
0.00184509
0.0018226
0.00155799
0.00152323
0.00147437
0.00144884
0.00142784
0.00140904
0.00139546
0.00140662
0.00147555
0.00182363
0.00180159
0.0015383
0.00150098
0.00144999
0.00142424
0.00140452
0.00138562
0.00137384
0.00138683
0.00145747
0.00180281
0.00178108
0.00151941
0.00147986
0.0014276
0.00140147
0.00138215
0.00136388
0.00135402
0.00136809
0.00144014
0.0017821
0.00176067
0.00150114
0.00145956
0.0014058
0.00137886
0.00135669
0.0013403
0.00133444
0.00135009
0.00142333
0.00176214
0.00174091
0.00148355
0.00144013
0.00138563
0.00135763
0.00186824
0.00151486
0.00144947
0.00144601
0.00145904
0.00184609
0.00149527
0.00142805
0.00142037
0.00143401
0.0014527
0.00147484
0.00149962
0.00154664
0.00157913
0.00184509
0.00182448
0.0014765
0.00140749
0.00139664
0.00141021
0.00142877
0.00144971
0.00147502
0.00152389
0.00155876
0.00182363
0.00180356
0.00145864
0.00138817
0.00137536
0.00138703
0.00140607
0.00142504
0.0014509
0.00150185
0.00153919
0.00180281
0.00178263
0.00144117
0.00135556
0.00136525
0.00138182
0.00140233
0.00142833
0.00148071
0.00152032
0.0017821
0.0017628
0.00142433
0.00136138
0.00138053
0.00140706
0.00146058
0.00150218
0.00176214
0.00150044
0.00152467
0.00157012
0.00160031
0.00186824
0.00184434
0.00149419
0.001427
0.00141958
0.00143331
0.00145235
0.00147482
0.00149963
0.00154674
0.00157939
0.00184609
0.00182287
0.00147523
0.00140651
0.00139585
0.00140949
0.00142847
0.00144936
0.00147481
0.00152386
0.00155912
0.00182448
0.00180182
0.00145709
0.00138674
0.00137421
0.0013869
0.0014053
0.00142532
0.00145103
0.00150185
0.00153957
0.00180356
0.00178123
0.0014398
0.00136808
0.00135446
0.00136296
0.00138275
0.00140205
0.001428
0.00148072
0.00152068
0.00178263
0.00176067
0.0014227
0.00134999
0.00133497
0.00134248
0.00135785
0.00137982
0.00140703
0.0014606
0.00150245
0.0017628
0.00140542
0.00133227
0.00131589
0.00132158
0.00133873
0.00131369
0.00129692
)
;
    }
    ami2
    {
        type            cyclicAMI;
        value           nonuniform List<scalar> 0();
    }
    outlet
    {
        type            zeroGradient;
    }
    procBoundary5to6
    {
        type            processor;
        value           nonuniform List<scalar> 
177
(
0.0017403
0.0017403
0.00148288
0.00143934
0.00143934
0.00143934
0.0013648
0.00133627
0.00133627
0.00129683
0.00114782
0.00128284
0.00111663
0.00127647
0.00129493
0.00138877
0.00138877
0.00138877
0.00172221
0.00138902
0.000873961
0.00138902
0.000873961
0.000873961
0.000873961
0.000983748
0.00108378
0.00113251
0.00114782
0.00111663
0.00111663
0.000981624
0.00120265
0.00086456
0.00105895
0.00083769
0.00146587
0.00146587
0.00129566
0.000896591
0.000896591
0.000896591
0.00106013
0.00120453
0.00129592
0.00133355
0.0013061
0.00156698
0.00120265
0.00105895
0.00105895
0.000952965
0.00142117
0.00108327
0.00142117
0.00127782
0.00130302
0.000983379
0.00120396
0.00111944
0.00120396
0.00136277
0.0013821
0.0015677
0.0014978
0.001702
0.00154061
0.00156698
0.00175002
0.00156698
0.00156698
0.00138154
0.00156117
0.00120385
0.00134929
0.00108327
0.00117158
0.00136552
0.00130302
0.00111944
0.00136277
0.00136277
0.00144742
0.0015677
0.00167287
0.001702
0.00182226
0.00175002
0.00170231
0.00156117
0.00134929
0.00117158
0.00117158
0.00133711
0.00133937
0.00131614
0.00135858
0.00144742
0.00114934
0.0013877
0.00117369
0.00144742
0.00144742
0.00167287
0.00167287
0.00182226
0.00182226
0.00182226
0.00180089
0.00175039
0.00160628
0.00138969
0.00119036
0.00133937
0.00135858
0.00117369
0.00135002
0.00156221
0.00170334
0.0017508
0.00170282
0.00156793
0.00136224
0.00115879
0.0013222
0.0013861
0.00112169
0.00125553
0.00144371
0.00157036
0.00160767
0.00156223
0.00144123
0.00125405
0.00106113
0.00131492
0.00144114
0.00101771
0.00110449
0.00125852
0.00136569
0.00139161
0.00135094
0.0012541
0.00110114
0.000931685
0.0013321
0.00148464
0.000876244
0.0013692
0.000936087
0.0013513
0.00106756
0.00133599
0.00116355
0.00134167
0.00119309
0.00117386
0.00112134
0.00101627
0.000874896
0.00140644
0.00174354
0.0013692
0.00140748
0.0013513
0.0013692
0.0013692
0.00133599
0.00134167
0.00134167
0.00133625
0.00135869
0.00138654
0.00144119
0.00148439
0.0017429
)
;
    }
    procBoundary5to7
    {
        type            processor;
        value           nonuniform List<scalar> 
131
(
0.00186715
0.00159958
0.00156924
0.00152368
0.0014993
0.00147672
0.00145776
0.0014445
0.00144836
0.00151384
0.00186694
0.00151416
0.00101121
0.00122981
0.00136515
0.00143401
0.00146067
0.00144176
0.00133573
0.00114387
0.00101027
0.00159965
0.00144868
0.00114443
0.00139736
0.00159606
0.00172056
0.00177296
0.00174542
0.00161339
0.00139699
0.00122959
0.00156961
0.00144534
0.00133761
0.00161406
0.00184925
0.00199837
0.00205386
0.00200736
0.00184928
0.00159675
0.00136629
0.00152437
0.00145874
0.00144387
0.00174715
0.00200837
0.00217664
0.00223592
0.00217625
0.00199884
0.00172187
0.00143593
0.00150014
0.00147799
0.00147799
0.00146376
0.00146376
0.00177568
0.00177568
0.0020557
0.0020557
0.00223683
0.00223683
0.00229966
0.00223595
0.00205432
0.00177409
0.00146235
0.00147741
0.00152825
0.00148852
0.00179549
0.00208555
0.00227078
0.00223644
0.00223644
0.00217631
0.00200735
0.00174572
0.0014426
0.00145822
0.00155144
0.00141358
0.00166467
0.0019297
0.00209436
0.00205487
0.00205487
0.00199884
0.00184899
0.00161328
0.0013363
0.00144492
0.00159447
0.00127219
0.00145632
0.0016839
0.00182075
0.00177486
0.00177486
0.00172233
0.00159677
0.00139761
0.001145
0.00144891
0.00162206
0.00104065
0.00118867
0.00139075
0.00149837
0.00146363
0.00146363
0.00143667
0.00136698
0.00123102
0.00101174
0.00151461
0.00189153
0.00153554
0.00147234
0.00147203
0.00148562
0.00147836
0.00147836
0.00150091
0.0015249
0.00157014
0.00160034
0.00186787
)
;
    }
}


// ************************************************************************* //
