/*--------------------------------*- C++ -*----------------------------------*\
| =========                 |                                                 |
| \\      /  F ield         | OpenFOAM: The Open Source CFD Toolbox           |
|  \\    /   O peration     | Version:  2212                                  |
|   \\  /    A nd           | Website:  www.openfoam.com                      |
|    \\/     M anipulation  |                                                 |
\*---------------------------------------------------------------------------*/
FoamFile
{
    version     2.0;
    format      ascii;
    arch        "LSB;label=32;scalar=64";
    class       volScalarField;
    location    "2";
    object      nut;
}
// * * * * * * * * * * * * * * * * * * * * * * * * * * * * * * * * * * * * * //

dimensions      [0 2 -1 0 0 0 0];

internalField   nonuniform List<scalar> 
678
(
3.50053e-06
3.48034e-06
3.4606e-06
3.44128e-06
3.42207e-06
6.9463e-06
6.9016e-06
6.85818e-06
6.81651e-06
6.77597e-06
1.00157e-05
9.94173e-06
9.86874e-06
9.79976e-06
9.73193e-06
1.22314e-05
1.2132e-05
1.20264e-05
1.19424e-05
1.18407e-05
1.1767e-05
1.36054e-05
1.34891e-05
1.33717e-05
1.32725e-05
1.31511e-05
1.30699e-05
1.4003e-05
1.38882e-05
1.37661e-05
1.36897e-05
1.34899e-05
1.34895e-05
1.33188e-05
1.34169e-05
1.33062e-05
1.31827e-05
1.31138e-05
1.29528e-05
1.28987e-05
1.27949e-05
1.19052e-05
1.18048e-05
1.17128e-05
1.16289e-05
1.1545e-05
1.14638e-05
1.13835e-05
9.62492e-06
9.5555e-06
9.48819e-06
9.42471e-06
9.36323e-06
9.30311e-06
9.24195e-06
6.75891e-06
6.71618e-06
6.67537e-06
6.63653e-06
6.59869e-06
6.56211e-06
3.50021e-06
3.47999e-06
3.46023e-06
3.44093e-06
3.42175e-06
3.40329e-06
6.75993e-06
6.71747e-06
6.67683e-06
6.63821e-06
6.60029e-06
6.56237e-06
7.42323e-06
7.19174e-06
7.02787e-06
6.92119e-06
6.84539e-06
1.61162e-05
1.5415e-05
1.47236e-05
1.44588e-05
1.39118e-05
1.3545e-05
2.42968e-05
2.31921e-05
2.20646e-05
2.16369e-05
2.06592e-05
2.0131e-05
2.96265e-05
2.85204e-05
2.71719e-05
2.64813e-05
2.52561e-05
2.45529e-05
3.23356e-05
3.11081e-05
2.9969e-05
2.88062e-05
2.74097e-05
2.6585e-05
3.12202e-05
2.97956e-05
2.8353e-05
2.75339e-05
2.62124e-05
2.54746e-05
2.49492e-05
2.36756e-05
2.23544e-05
2.19118e-05
2.08013e-05
2.02424e-05
1.93959e-05
1.54075e-05
1.47153e-05
1.39939e-05
1.38185e-05
1.32604e-05
1.30115e-05
1.24712e-05
7.40541e-06
7.17304e-06
7.00938e-06
6.90489e-06
6.80252e-06
6.70342e-06
6.63634e-06
6.94633e-06
6.90157e-06
6.85817e-06
6.81648e-06
6.77606e-06
6.73727e-06
9.6263e-06
9.55743e-06
9.49069e-06
9.42775e-06
9.36672e-06
9.30718e-06
9.24502e-06
1.54388e-05
1.4766e-05
1.40536e-05
1.38851e-05
1.33427e-05
1.30047e-05
3.17429e-05
2.99815e-05
2.83473e-05
2.76739e-05
2.62246e-05
2.53966e-05
4.62395e-05
4.37214e-05
4.13617e-05
3.96376e-05
3.75268e-05
3.63155e-05
5.46941e-05
5.21525e-05
4.96901e-05
4.7365e-05
4.49159e-05
4.30675e-05
5.87153e-05
5.59103e-05
5.32604e-05
5.07667e-05
4.81943e-05
4.59241e-05
5.66904e-05
5.39609e-05
5.13305e-05
4.88663e-05
4.63086e-05
4.41784e-05
4.7461e-05
4.48171e-05
4.22031e-05
4.07562e-05
3.85268e-05
3.72163e-05
3.16352e-05
2.98712e-05
2.81877e-05
2.75599e-05
2.60643e-05
2.52747e-05
1.6096e-05
1.54002e-05
1.47113e-05
1.44487e-05
1.38958e-05
1.35836e-05
1.30509e-05
1.00169e-05
9.94302e-06
9.87015e-06
9.80117e-06
9.73364e-06
9.66989e-06
1.19086e-05
1.18085e-05
1.17173e-05
1.16333e-05
1.15511e-05
1.14696e-05
1.13897e-05
2.50579e-05
2.38103e-05
2.2511e-05
2.20496e-05
2.09821e-05
2.04094e-05
1.93562e-05
4.80036e-05
4.52927e-05
4.28511e-05
4.08184e-05
3.86881e-05
3.71997e-05
6.58459e-05
6.19352e-05
5.92601e-05
5.66721e-05
5.48419e-05
5.17929e-05
7.6245e-05
7.22206e-05
6.90667e-05
6.61179e-05
6.40221e-05
6.03089e-05
8.01846e-05
7.5941e-05
7.26989e-05
6.96235e-05
6.76547e-05
6.26234e-05
7.71241e-05
7.29042e-05
6.97173e-05
6.69441e-05
6.41564e-05
6.57866e-05
6.19024e-05
5.92139e-05
5.67279e-05
5.47183e-05
5.15772e-05
4.62627e-05
4.37228e-05
4.13267e-05
3.96846e-05
3.75857e-05
3.59958e-05
2.43306e-05
2.32154e-05
2.20977e-05
2.16522e-05
2.0729e-05
2.00326e-05
1.22345e-05
1.21348e-05
1.20296e-05
1.19446e-05
1.18447e-05
1.17676e-05
1.34217e-05
1.33087e-05
1.32116e-05
1.30701e-05
1.30075e-05
1.28837e-05
3.13579e-05
2.9968e-05
2.86205e-05
2.76285e-05
2.64088e-05
2.55366e-05
5.72931e-05
5.43251e-05
5.16295e-05
4.90177e-05
4.63542e-05
7.74029e-05
7.31059e-05
6.99191e-05
6.7297e-05
6.4117e-05
8.91817e-05
8.51948e-05
8.09477e-05
7.79153e-05
7.40409e-05
9.29923e-05
8.88625e-05
8.46429e-05
8.14293e-05
7.76512e-05
8.91203e-05
8.50871e-05
8.09255e-05
7.7828e-05
7.43044e-05
7.64101e-05
7.2427e-05
6.92892e-05
6.65873e-05
6.37272e-05
5.48376e-05
5.22973e-05
4.98359e-05
4.74528e-05
4.49471e-05
2.9726e-05
2.84276e-05
2.7262e-05
2.6453e-05
2.53842e-05
1.36095e-05
1.34931e-05
1.33752e-05
1.32764e-05
1.31557e-05
1.306e-05
1.40092e-05
1.38946e-05
1.3775e-05
1.36905e-05
1.35088e-05
1.34917e-05
3.25261e-05
3.11811e-05
3.01006e-05
2.86906e-05
2.79252e-05
2.65176e-05
5.87774e-05
5.60237e-05
5.33685e-05
5.04556e-05
8.0372e-05
7.60731e-05
7.29368e-05
6.99518e-05
9.29221e-05
8.8819e-05
8.48059e-05
8.10872e-05
9.71096e-05
9.29292e-05
8.83876e-05
8.51832e-05
8.07988e-05
9.30885e-05
8.88976e-05
8.47719e-05
8.15829e-05
7.77633e-05
8.04329e-05
7.62455e-05
7.29816e-05
7.02496e-05
6.71191e-05
5.8921e-05
5.6124e-05
5.34804e-05
5.09135e-05
4.81713e-05
3.24865e-05
3.11646e-05
3.00421e-05
2.87136e-05
2.77412e-05
1.40065e-05
1.38917e-05
1.37698e-05
1.36937e-05
1.3492e-05
1.37302e-05
1.36131e-05
1.34907e-05
1.33884e-05
1.32725e-05
1.31638e-05
3.1016e-05
2.97257e-05
2.84248e-05
2.75768e-05
2.6366e-05
2.56418e-05
5.75079e-05
5.48872e-05
5.23385e-05
4.99106e-05
4.73352e-05
4.50997e-05
8.0083e-05
7.64923e-05
7.3116e-05
6.99482e-05
6.74281e-05
6.37084e-05
9.27534e-05
8.89806e-05
8.5246e-05
8.16399e-05
7.87207e-05
7.45121e-05
9.28309e-05
8.87478e-05
8.47828e-05
8.16826e-05
7.78804e-05
8.92143e-05
8.5176e-05
8.10713e-05
7.80515e-05
7.44889e-05
7.72814e-05
7.31455e-05
6.99864e-05
6.73576e-05
6.43652e-05
5.68173e-05
5.41438e-05
5.15472e-05
4.90486e-05
4.64287e-05
3.1338e-05
2.99133e-05
2.85306e-05
2.76314e-05
2.64353e-05
1.34194e-05
1.33088e-05
1.31868e-05
1.31184e-05
1.2951e-05
1.23384e-05
1.2237e-05
1.21333e-05
1.20418e-05
1.19365e-05
1.18587e-05
2.53038e-05
2.40952e-05
2.32671e-05
2.22654e-05
2.17465e-05
2.09506e-05
4.84014e-05
4.58759e-05
4.35124e-05
4.164e-05
3.95473e-05
3.83319e-05
6.90691e-05
6.58543e-05
6.28027e-05
6.00908e-05
5.77732e-05
5.53078e-05
8.09357e-05
7.74173e-05
7.41017e-05
7.0895e-05
6.82523e-05
6.51225e-05
8.05535e-05
7.69911e-05
7.33258e-05
7.06081e-05
6.74911e-05
7.65693e-05
7.25524e-05
6.94788e-05
6.68972e-05
6.40002e-05
6.58573e-05
6.20952e-05
5.93899e-05
5.71243e-05
5.47194e-05
4.753e-05
4.49556e-05
4.2419e-05
4.0798e-05
3.88907e-05
2.49954e-05
2.37551e-05
2.24603e-05
2.20028e-05
2.1045e-05
1.19073e-05
1.18073e-05
1.1716e-05
1.16322e-05
1.15488e-05
1.00945e-05
1.00192e-05
9.94488e-06
9.8733e-06
9.80371e-06
9.73777e-06
1.68588e-05
1.60993e-05
1.53692e-05
1.50138e-05
1.44426e-05
1.41352e-05
3.35882e-05
3.16889e-05
2.98771e-05
2.91433e-05
2.75921e-05
2.67907e-05
5.03242e-05
4.7653e-05
4.50354e-05
4.32239e-05
4.09582e-05
3.96622e-05
5.96933e-05
5.70352e-05
5.43995e-05
5.18791e-05
4.93539e-05
4.70467e-05
5.87969e-05
5.6162e-05
5.36216e-05
5.11432e-05
4.84361e-05
5.49403e-05
5.24344e-05
5.00076e-05
4.76621e-05
4.51892e-05
4.63381e-05
4.38326e-05
4.14772e-05
3.97841e-05
3.78784e-05
3.17057e-05
2.99426e-05
2.83453e-05
2.76222e-05
2.64005e-05
1.54483e-05
1.47781e-05
1.40629e-05
1.38649e-05
1.34335e-05
9.62718e-06
9.55811e-06
9.49124e-06
9.42785e-06
9.36704e-06
6.99411e-06
6.94851e-06
6.90407e-06
6.8611e-06
6.81948e-06
6.77922e-06
7.62466e-06
7.38351e-06
7.20319e-06
7.06965e-06
6.93353e-06
6.85841e-06
1.61501e-05
1.54369e-05
1.46748e-05
1.44459e-05
1.38397e-05
1.35943e-05
2.64206e-05
2.51081e-05
2.378e-05
2.31552e-05
2.20346e-05
2.1444e-05
3.26909e-05
3.13491e-05
3.00776e-05
2.88177e-05
2.79063e-05
2.67446e-05
3.2382e-05
3.11756e-05
3.00947e-05
2.90618e-05
2.78333e-05
2.97826e-05
2.85157e-05
2.73701e-05
2.65935e-05
2.55367e-05
2.43928e-05
2.32935e-05
2.22071e-05
2.17237e-05
2.09374e-05
1.61496e-05
1.54037e-05
1.49001e-05
1.43796e-05
1.40999e-05
7.42354e-06
7.18694e-06
7.03455e-06
6.9094e-06
6.84341e-06
6.76093e-06
6.71835e-06
6.6777e-06
6.63883e-06
6.60129e-06
3.52287e-06
3.50208e-06
3.48182e-06
3.46218e-06
3.44254e-06
3.42399e-06
6.80607e-06
6.76224e-06
6.72016e-06
6.68016e-06
6.64121e-06
6.60376e-06
9.70175e-06
9.62988e-06
9.56058e-06
9.49546e-06
1.20196e-05
1.19121e-05
1.18121e-05
1.17219e-05
1.16389e-05
1.35422e-05
1.34252e-05
1.33142e-05
1.31942e-05
1.31207e-05
1.40115e-05
1.38948e-05
1.37904e-05
1.36438e-05
1.36141e-05
1.3613e-05
1.34995e-05
1.33768e-05
1.32757e-05
1.31773e-05
1.22373e-05
1.21369e-05
1.20362e-05
1.19441e-05
1.18551e-05
1.00192e-05
9.94548e-06
9.87345e-06
9.80406e-06
9.73769e-06
6.9482e-06
6.90355e-06
6.8604e-06
6.81874e-06
6.77856e-06
3.50132e-06
3.48109e-06
3.4615e-06
3.44201e-06
3.4233e-06
)
;

boundaryField
{
    inlet
    {
        type            calculated;
        value           nonuniform List<scalar> 0();
    }
    ami1
    {
        type            cyclicAMI;
        value           nonuniform List<scalar> 0();
    }
    walls
    {
        type            nutkWallFunction;
        blending        stepwise;
        value           uniform 0;
    }
    ami2
    {
        type            cyclicAMI;
        value           nonuniform List<scalar> 0();
    }
    outlet
    {
        type            calculated;
        value           nonuniform List<scalar> 0();
    }
    procBoundary5to6
    {
        type            processor;
        value           nonuniform List<scalar> 
177
(
3.40331e-06
3.40331e-06
6.73645e-06
9.66745e-06
9.66745e-06
9.66745e-06
1.16724e-05
1.29576e-05
1.29576e-05
1.32563e-05
2.4617e-05
1.27069e-05
2.34531e-05
1.13032e-05
9.18199e-06
6.52496e-06
6.52496e-06
6.52496e-06
3.38604e-06
6.52643e-06
6.65955e-06
6.52643e-06
6.65955e-06
6.65955e-06
6.65955e-06
1.27574e-05
1.87697e-05
2.28057e-05
2.4617e-05
2.34531e-05
2.34531e-05
1.76261e-05
3.38154e-05
1.15444e-05
2.30902e-05
6.42204e-06
6.6986e-06
6.6986e-06
9.18536e-06
1.21171e-05
1.21171e-05
1.21171e-05
2.32841e-05
3.32334e-05
3.94639e-05
4.20636e-05
4.02769e-05
5.8446e-05
3.38154e-05
2.30902e-05
2.30902e-05
1.21902e-05
9.60686e-06
1.8699e-05
9.60686e-06
1.13091e-05
1.28076e-05
1.76415e-05
3.37704e-05
2.35328e-05
3.37704e-05
4.2613e-05
4.6642e-05
5.83598e-05
5.43959e-05
6.74391e-05
5.70873e-05
5.8446e-05
7.07296e-05
5.8446e-05
5.8446e-05
4.68224e-05
5.80834e-05
3.29331e-05
4.14607e-05
1.8699e-05
2.38269e-05
1.16776e-05
1.28076e-05
2.35328e-05
4.2613e-05
4.2613e-05
4.64346e-05
5.83598e-05
6.39519e-05
6.74391e-05
7.41028e-05
7.07296e-05
6.77502e-05
5.80834e-05
4.14607e-05
2.38269e-05
2.38269e-05
1.29669e-05
1.3529e-05
1.33028e-05
1.30696e-05
4.64346e-05
2.46593e-05
4.40711e-05
2.38909e-05
4.64346e-05
4.64346e-05
6.39519e-05
6.39519e-05
7.41028e-05
7.41028e-05
7.41028e-05
7.37512e-05
7.08515e-05
6.11444e-05
4.43474e-05
2.57958e-05
1.3529e-05
1.30696e-05
2.38909e-05
4.15069e-05
5.78915e-05
6.79315e-05
7.09651e-05
6.78414e-05
5.85628e-05
4.27641e-05
2.46919e-05
1.29253e-05
1.17615e-05
1.9694e-05
3.52212e-05
5.02869e-05
5.92442e-05
6.1491e-05
5.82747e-05
4.9831e-05
3.57506e-05
1.96445e-05
1.14666e-05
9.67318e-06
1.33678e-05
2.46765e-05
3.62786e-05
4.33722e-05
4.46478e-05
4.17113e-05
3.50197e-05
2.44747e-05
1.27782e-05
9.3063e-06
6.74017e-06
6.67954e-06
9.43184e-06
1.28539e-05
9.37172e-06
1.98949e-05
1.15556e-05
2.4995e-05
1.29494e-05
2.60458e-05
2.39894e-05
1.97043e-05
1.33482e-05
6.67235e-06
6.56394e-06
3.40613e-06
9.43184e-06
6.56658e-06
9.37172e-06
9.43184e-06
9.43184e-06
1.15556e-05
1.29494e-05
1.29494e-05
1.33731e-05
1.30577e-05
1.17676e-05
9.67352e-06
6.7395e-06
3.40544e-06
)
;
    }
    procBoundary5to7
    {
        type            processor;
        value           nonuniform List<scalar> 
131
(
3.52183e-06
6.99249e-06
1.00915e-05
1.23342e-05
1.37251e-05
1.41267e-05
1.35361e-05
1.20133e-05
9.69807e-06
6.80378e-06
3.52162e-06
6.80448e-06
7.58127e-06
1.68486e-05
2.51756e-05
3.07381e-05
3.34386e-05
3.28013e-05
2.64731e-05
1.6177e-05
7.56095e-06
6.99268e-06
9.699e-06
1.61933e-05
3.37704e-05
4.83198e-05
5.77545e-05
6.27429e-05
6.03906e-05
5.05879e-05
3.36767e-05
1.6821e-05
1.00928e-05
1.20165e-05
2.63891e-05
5.03327e-05
7.03008e-05
8.13941e-05
8.55489e-05
8.23359e-05
7.02397e-05
4.82922e-05
2.52393e-05
1.23372e-05
1.35404e-05
3.27957e-05
6.06067e-05
8.2626e-05
9.45339e-05
9.83595e-05
9.44098e-05
8.15142e-05
5.79358e-05
3.10041e-05
1.37291e-05
1.41324e-05
1.41324e-05
3.3587e-05
3.3587e-05
6.27506e-05
6.27506e-05
8.57863e-05
8.57863e-05
9.83878e-05
9.83878e-05
0.000102529
9.84158e-05
8.5743e-05
6.29396e-05
3.35659e-05
1.41301e-05
1.38567e-05
3.20175e-05
6.06649e-05
8.45882e-05
9.75547e-05
9.82001e-05
9.82001e-05
9.44863e-05
8.24352e-05
6.05459e-05
3.29416e-05
1.35384e-05
1.24458e-05
2.60307e-05
5.02326e-05
7.30347e-05
8.54835e-05
8.55901e-05
8.55901e-05
8.15771e-05
7.02758e-05
5.06191e-05
2.65198e-05
1.20152e-05
1.01721e-05
1.73962e-05
3.50962e-05
5.24071e-05
6.34603e-05
6.27945e-05
6.27945e-05
5.80869e-05
4.83533e-05
3.37772e-05
1.62184e-05
9.70018e-06
7.04131e-06
7.79484e-06
1.68016e-05
2.74699e-05
3.39413e-05
3.36391e-05
3.36391e-05
3.10295e-05
2.53009e-05
1.68852e-05
7.58017e-06
6.80578e-06
3.54459e-06
6.85221e-06
9.77822e-06
1.21273e-05
1.36652e-05
1.41347e-05
1.41347e-05
1.37327e-05
1.23396e-05
1.00948e-05
6.9944e-06
3.52263e-06
)
;
    }
}


// ************************************************************************* //
