/*--------------------------------*- C++ -*----------------------------------*\
| =========                 |                                                 |
| \\      /  F ield         | OpenFOAM: The Open Source CFD Toolbox           |
|  \\    /   O peration     | Version:  2212                                  |
|   \\  /    A nd           | Website:  www.openfoam.com                      |
|    \\/     M anipulation  |                                                 |
\*---------------------------------------------------------------------------*/
FoamFile
{
    version     2.0;
    format      ascii;
    arch        "LSB;label=32;scalar=64";
    class       volScalarField;
    location    "2";
    object      p;
}
// * * * * * * * * * * * * * * * * * * * * * * * * * * * * * * * * * * * * * //

dimensions      [0 2 -2 0 0 0 0];

internalField   nonuniform List<scalar> 
678
(
0.00118135
0.00106781
0.000953532
0.000839738
0.000727637
0.0011745
0.0010615
0.000947875
0.000834618
0.000722931
0.00116884
0.00105661
0.000943795
0.00083129
0.000720158
0.00116795
0.00105505
0.000941699
0.000829064
0.000718056
0.000608298
0.00117418
0.00105982
0.000945541
0.000832479
0.0007209
0.000610547
0.00117901
0.00106542
0.000952227
0.00083981
0.000727994
0.000616953
0.000505477
0.00118231
0.0010688
0.00095501
0.000841978
0.000730469
0.000620364
0.000509884
0.00118664
0.00107295
0.000958347
0.000844772
0.000733227
0.000622545
0.000512536
0.001187
0.00107303
0.000958068
0.000844028
0.000731884
0.00062073
0.000510554
0.00118867
0.00107458
0.000959552
0.000845139
0.000732454
0.000620855
0.00118149
0.00106795
0.000953629
0.000839813
0.000727594
0.00061635
0.00118843
0.00107434
0.000959409
0.000845056
0.000732575
0.000621108
0.00118875
0.00107477
0.000959637
0.000845191
0.000732683
0.00118035
0.00106668
0.000952635
0.000839448
0.000727345
0.000616555
0.00117999
0.00106491
0.000950671
0.000837624
0.000725206
0.000613684
0.00118326
0.0010678
0.00095348
0.000840238
0.000727338
0.000614566
0.00118549
0.00107041
0.000956135
0.000842694
0.000729478
0.000616475
0.00118324
0.0010684
0.000954676
0.000841514
0.000727967
0.000614809
0.00118142
0.00106758
0.000954271
0.000841691
0.000729705
0.000618688
0.000506707
0.00118538
0.00107154
0.000957071
0.000843562
0.000731483
0.000620438
0.000509746
0.00118894
0.00107495
0.000959745
0.000845239
0.000732609
0.00062119
0.000511163
0.00117451
0.00106153
0.000947905
0.000834668
0.000722857
0.000611985
0.0011867
0.00107273
0.000957897
0.000843987
0.000731961
0.000620989
0.000509524
0.00118517
0.00107132
0.000957006
0.000843554
0.000731169
0.000619922
0.00116289
0.00104931
0.000937492
0.000826048
0.000713863
0.000601961
0.00115364
0.0010388
0.000926288
0.000814549
0.000702811
0.000591269
0.00114806
0.00103315
0.000919704
0.000807161
0.000695352
0.000583772
0.00114787
0.00103311
0.000919277
0.000806177
0.000694241
0.000582475
0.00114659
0.00103197
0.000919254
0.00080731
0.00069573
0.00058343
0.00115259
0.00103838
0.000926785
0.000815769
0.0007044
0.000592923
0.00116297
0.00104933
0.000937351
0.00082595
0.000714337
0.000602986
0.00118045
0.0010668
0.000952723
0.000839557
0.000727842
0.000617323
0.000506425
0.00116877
0.00105656
0.000943788
0.000831302
0.000720191
0.000609953
0.00118643
0.00107269
0.000958232
0.000844813
0.000733231
0.000622515
0.000512
0.0011811
0.00106746
0.000954584
0.000842192
0.000729855
0.000618178
0.000506337
0.00115281
0.00103879
0.000926976
0.000815722
0.000704288
0.000592515
0.0011407
0.00102585
0.000913232
0.000801779
0.000690825
0.000579138
0.00113104
0.00101664
0.000904119
0.000792583
0.00068138
0.000569675
0.00112921
0.00101478
0.00090216
0.00079044
0.000679021
0.000567568
0.00113017
0.00101588
0.0009036
0.000792079
0.000680552
0.00114034
0.00102559
0.000913401
0.000802209
0.000691067
0.000579019
0.0011535
0.00103867
0.000926237
0.000814635
0.000702827
0.000590693
0.00118007
0.00106503
0.000950792
0.000837843
0.000725832
0.000614251
0.00116799
0.00105511
0.000941767
0.000829147
0.000718373
0.000608553
0.00118214
0.00106859
0.000954947
0.000842097
0.000730551
0.000620153
0.00118319
0.00106867
0.000955234
0.000842166
0.000728748
0.000614591
0.001147
0.00103234
0.000919183
0.000807003
0.000695143
0.00113025
0.00101575
0.000903196
0.000791485
0.000679676
0.00112035
0.00100578
0.000893328
0.000781707
0.000669899
0.00111846
0.00100368
0.000891
0.000779352
0.000667654
0.0011203
0.00100568
0.000893191
0.000781502
0.000669574
0.00113076
0.00101633
0.000903771
0.000791952
0.000680095
0.0011476
0.0010327
0.00091933
0.00080681
0.000694456
0.00118311
0.0010677
0.000953534
0.000840468
0.000727711
0.00117446
0.00106013
0.000945721
0.000832663
0.00072163
0.000610593
0.00117916
0.00106553
0.000952402
0.000839711
0.000727889
0.000616836
0.00118563
0.0010707
0.000956748
0.000843848
0.000730277
0.00061552
0.00114772
0.00103303
0.00091917
0.000806463
0.0011289
0.00101453
0.000901592
0.00078901
0.0011183
0.00100366
0.000890789
0.000778266
0.00111554
0.00100054
0.000887545
0.000775553
0.000664079
0.00111835
0.00100352
0.000890778
0.000778947
0.000667138
0.0011289
0.00101439
0.000901606
0.000789504
0.000677445
0.00114742
0.00103256
0.000918597
0.000805516
0.000692818
0.00118527
0.00107021
0.000956004
0.000842665
0.000729252
0.00117901
0.00106552
0.000952364
0.00083977
0.000728415
0.00128886
0.00117449
0.00105971
0.000945433
0.000832575
0.000721499
0.00129876
0.00118294
0.00106783
0.000953723
0.000840483
0.000727423
0.00126298
0.00114726
0.00103298
0.000919647
0.000807147
0.000694704
0.00124671
0.00113106
0.00101701
0.000904077
0.000791785
0.000679488
0.0012368
0.00112088
0.00100667
0.000893754
0.000781423
0.000669099
0.00111861
0.00100394
0.000891059
0.000779078
0.000667203
0.00112032
0.00100569
0.000893137
0.000781321
0.000669297
0.00112996
0.00101558
0.00090307
0.000791161
0.000678997
0.0011463
0.00103158
0.000918586
0.000806308
0.000693611
0.00118293
0.0010681
0.000954414
0.00084124
0.000727338
0.00118196
0.00106851
0.000954843
0.000841886
0.000730946
0.00128168
0.00116783
0.00105423
0.000941002
0.000828801
0.000718486
0.00129508
0.00117978
0.00106472
0.000950452
0.000837204
0.000725041
0.00126831
0.00115268
0.00103904
0.000926527
0.000814371
0.000702008
0.00125566
0.00113987
0.00102615
0.000913677
0.000801892
0.000689749
0.00124615
0.00113062
0.00101669
0.000903813
0.000791574
0.000679259
0.00112917
0.00101491
0.00090197
0.000789657
0.000677508
0.00113069
0.00101628
0.000903638
0.000791624
0.000679491
0.00114006
0.00102527
0.000912811
0.000801305
0.000689129
0.00115213
0.00103796
0.000926164
0.000815015
0.000702565
0.00118092
0.00106707
0.00095384
0.000841302
0.000729339
0.00118616
0.00107243
0.000957944
0.000844418
0.00073361
0.00128195
0.0011686
0.00105543
0.000942807
0.00083093
0.000720249
0.001294
0.00117978
0.00106541
0.000951583
0.000838818
0.000727438
0.00127654
0.00116205
0.00104925
0.000937128
0.000824842
0.000712861
0.00126689
0.00115169
0.00103882
0.0009268
0.000814715
0.000702568
0.00126161
0.00114619
0.00103212
0.000919102
0.000806545
0.000693924
0.00114711
0.00103262
0.000918988
0.000805761
0.000692968
0.00114733
0.00103247
0.000919084
0.000806515
0.00069403
0.001153
0.00103822
0.000925651
0.00081405
0.00070166
0.0011623
0.0010488
0.000936705
0.000825246
0.000713305
0.00118478
0.00107084
0.000956429
0.000842915
0.000731439
0.00118643
0.00107239
0.000957528
0.000843415
0.000731765
0.00128817
0.00117426
0.00106023
0.0009467
0.000834083
0.000722696
0.00130287
0.00118826
0.00107286
0.000957912
0.00084436
0.00073236
0.00129847
0.00118416
0.00106943
0.000955363
0.000842533
0.000730964
0.00129462
0.00118004
0.00106632
0.000953141
0.000840391
0.000728571
0.00129747
0.00118195
0.00106743
0.000953742
0.000840395
0.000726716
0.00118452
0.00106945
0.000955325
0.0008418
0.000728651
0.00118239
0.00106692
0.000952669
0.0008395
0.000726669
0.00117927
0.00106428
0.000949911
0.000836842
0.000724821
0.0011797
0.00106599
0.000951886
0.000838619
0.000727269
0.00118831
0.00107407
0.000959013
0.00084445
0.0007323
0.00118813
0.0010739
0.000958964
0.000844498
0.000732095
0.00129525
0.00118089
0.0010662
0.000951995
0.000838873
0.000727056
0.00130256
0.00118772
0.00107239
0.000957533
0.00084392
0.000731685
0.00130039
0.00118577
0.00107049
0.000955904
0.00129924
0.00118506
0.00107035
0.00095627
0.000843541
0.00129511
0.00118069
0.00106663
0.000953075
0.000840523
0.00117803
0.00106407
0.000950596
0.000838336
0.000727009
0.0011735
0.00105894
0.000944378
0.000831341
0.00072018
0.00116706
0.00105402
0.000940657
0.000827991
0.000717407
0.00116803
0.00105549
0.000942822
0.000830334
0.000719405
0.00117382
0.00106059
0.000947023
0.000833732
0.000722081
0.00118087
0.00106714
0.000952901
0.000839018
0.000726998
)
;

boundaryField
{
    inlet
    {
        type            zeroGradient;
    }
    ami1
    {
        type            cyclicAMI;
        value           nonuniform List<scalar> 0();
    }
    walls
    {
        type            zeroGradient;
    }
    ami2
    {
        type            cyclicAMI;
        value           nonuniform List<scalar> 0();
    }
    outlet
    {
        type            fixedValue;
        value           nonuniform List<scalar> 0();
    }
    procBoundary5to6
    {
        type            processor;
        value           nonuniform List<scalar> 
177
(
0.000616531
0.000616531
0.000612154
0.00061002
0.00061002
0.00061002
0.000498381
0.000499981
0.000499981
0.000392373
0.000503203
0.000397116
0.000501703
0.000400533
0.000398126
0.000510315
0.000510315
0.000510315
0.000506064
0.000508973
0.000621678
0.000508973
0.000621678
0.000621678
0.000621678
0.000506058
0.000502397
0.000501431
0.000503203
0.000501703
0.000501703
0.000393923
0.000480402
0.000397382
0.000490582
0.000399106
0.000501901
0.000501901
0.000395821
0.000509464
0.000509464
0.000509464
0.000491056
0.000480488
0.000472962
0.000471491
0.000471476
0.000568778
0.000480402
0.000490582
0.000490582
0.00039355
0.000500175
0.000502015
0.000500175
0.000399359
0.000509112
0.000394276
0.000480341
0.000500273
0.000480341
0.000582663
0.000468431
0.00056842
0.000459918
0.000559137
0.000458467
0.000568778
0.000557262
0.000568778
0.000568778
0.00046783
0.000569068
0.00047909
0.000582767
0.000502015
0.000614305
0.000498307
0.000509112
0.000500273
0.000582663
0.000582663
0.000693917
0.00056842
0.00067709
0.000559137
0.000666551
0.000557262
0.000559118
0.000569068
0.000582767
0.000614305
0.000614305
0.000498315
0.000616446
0.000504544
0.000610666
0.000693917
0.000501402
0.000581333
0.000614035
0.000693917
0.000693917
0.00067709
0.00067709
0.000666551
0.000666551
0.000666551
0.000555047
0.000557372
0.000567129
0.000581547
0.000615728
0.000616446
0.000610666
0.000614035
0.000582858
0.000568888
0.000559017
0.000557462
0.000559199
0.000568505
0.000582291
0.000613405
0.000619617
0.000608114
0.000613227
0.000590329
0.000578462
0.000568585
0.000567299
0.000569093
0.000578253
0.000590949
0.000617257
0.000622397
0.000609704
0.000616168
0.000601115
0.000590978
0.000582547
0.000581835
0.000582868
0.000590135
0.00060126
0.000619749
0.000620163
0.000611663
0.000620905
0.000842839
0.000619479
0.000731101
0.00061671
0.000732562
0.000612853
0.000729632
0.000615252
0.000613504
0.000612747
0.000615855
0.000620742
0.000620199
0.000615699
0.000842839
0.000619857
0.000731101
0.000842839
0.000842839
0.000732562
0.000729632
0.000729632
0.000615058
0.000608905
0.00060688
0.00060885
0.000610998
0.000615568
)
;
    }
    procBoundary5to7
    {
        type            processor;
        value           nonuniform List<scalar> 
131
(
0.00129538
0.00128814
0.00128184
0.00128156
0.00128875
0.0012931
0.00129588
0.00129997
0.00130093
0.0013031
0.00129553
0.00130283
0.0013029
0.00129407
0.00129523
0.00129882
0.00130061
0.00129846
0.00129544
0.00129894
0.0013031
0.00128817
0.00130069
0.00129888
0.00127738
0.00126916
0.00126346
0.00126333
0.0012624
0.00126787
0.00127734
0.00129411
0.00128178
0.00130004
0.00129531
0.00126771
0.00125666
0.00124746
0.001246
0.00124676
0.00125655
0.00126909
0.00129524
0.00128145
0.00129588
0.00129819
0.0012624
0.0012468
0.00123745
0.00123564
0.00123742
0.00124723
0.00126329
0.0012988
0.0012886
0.00129315
0.00129315
0.00130078
0.00130078
0.00126313
0.00126313
0.00124538
0.00124538
0.00123519
0.00123519
0.00123267
0.00123555
0.00124573
0.00126308
0.00130047
0.0012929
0.00140375
0.00141476
0.00137933
0.0013639
0.00135454
0.00123538
0.00123538
0.00123742
0.00124659
0.00126225
0.00129817
0.0012954
0.00139637
0.0014108
0.00138432
0.00137203
0.00136346
0.00124547
0.00124547
0.00124714
0.00125627
0.00126744
0.00129496
0.00129952
0.00139641
0.00140873
0.00139164
0.00138228
0.00137771
0.00126259
0.00126259
0.00126299
0.00126863
0.00127675
0.0012984
0.00130044
0.00140314
0.00141845
0.00141337
0.00141008
0.00141319
0.00129981
0.00129981
0.00129812
0.00129451
0.00129342
0.0013025
0.00130261
0.00141057
0.00141827
0.00141561
0.00141407
0.00141031
0.00129231
0.00129231
0.00128781
0.00128065
0.00128113
0.00128756
0.00129497
)
;
    }
}


// ************************************************************************* //
