/*--------------------------------*- C++ -*----------------------------------*\
| =========                 |                                                 |
| \\      /  F ield         | OpenFOAM: The Open Source CFD Toolbox           |
|  \\    /   O peration     | Version:  2212                                  |
|   \\  /    A nd           | Website:  www.openfoam.com                      |
|    \\/     M anipulation  |                                                 |
\*---------------------------------------------------------------------------*/
FoamFile
{
    version     2.0;
    format      ascii;
    arch        "LSB;label=32;scalar=64";
    class       surfaceScalarField;
    location    "2";
    object      phi;
}
// * * * * * * * * * * * * * * * * * * * * * * * * * * * * * * * * * * * * * //

dimensions      [0 3 -1 0 0 0 0];

oriented        oriented;

internalField   nonuniform List<scalar> 
1755
(
5.78981e-08
-3.40897e-08
3.46969e-08
5.73242e-08
-3.41228e-08
3.46968e-08
5.67523e-08
-3.41477e-08
3.47196e-08
5.61745e-08
-3.41685e-08
3.47462e-08
-3.4194e-08
3.47572e-08
1.8813e-07
-6.42523e-08
3.20005e-08
1.86366e-07
-6.43244e-08
3.19657e-08
1.84632e-07
-6.44062e-08
3.19923e-08
1.82915e-07
-6.44921e-08
3.20405e-08
-6.45665e-08
3.20503e-08
3.67665e-07
-8.90401e-08
2.84078e-08
3.64127e-07
-8.91183e-08
2.83319e-08
3.60676e-07
-8.92492e-08
2.82948e-08
3.57305e-07
-8.9368e-08
2.82465e-08
-8.94582e-08
2.819e-08
5.23357e-07
-1.07149e-07
2.35106e-08
5.18165e-07
-1.07189e-07
2.32626e-08
5.13212e-07
-1.07279e-07
2.29832e-08
5.0843e-07
-1.07359e-07
2.27729e-08
5.03735e-07
-1.07403e-07
2.264e-08
-1.07429e-07
2.25279e-08
6.28437e-07
-1.17163e-07
1.64259e-08
6.22199e-07
-1.17229e-07
1.62777e-08
6.16096e-07
-1.17302e-07
1.61258e-08
6.10102e-07
-1.17357e-07
1.59919e-08
6.04179e-07
-1.17385e-07
1.59041e-08
-1.174e-07
1.57502e-08
6.57811e-07
-1.18204e-07
7.11053e-09
6.51854e-07
-1.18245e-07
6.97366e-09
6.45949e-07
-1.18247e-07
6.8499e-09
6.4007e-07
-1.18222e-07
6.74361e-09
6.34228e-07
-1.18192e-07
6.6495e-09
6.28498e-07
-1.18176e-07
6.50613e-09
-1.18184e-07
6.06802e-07
-1.09556e-07
-3.52847e-09
6.01763e-07
-1.09533e-07
-3.67377e-09
5.96768e-07
-1.09472e-07
-3.78005e-09
5.91813e-07
-1.09391e-07
-3.87613e-09
5.86948e-07
-1.0929e-07
-4.038e-09
5.82233e-07
-1.09169e-07
-4.29133e-09
-1.09123e-07
4.91247e-07
-9.15827e-08
-1.4117e-08
4.87441e-07
-9.15124e-08
-1.42136e-08
4.8366e-07
-9.14507e-08
-1.42403e-08
4.79895e-07
-9.1385e-08
-1.42416e-08
4.76139e-07
-9.13103e-08
-1.42234e-08
4.72379e-07
-9.12459e-08
-1.41625e-08
-9.11896e-08
-1.41923e-08
3.36907e-07
-6.61844e-08
-2.25092e-08
3.34101e-07
-6.61361e-08
-2.25699e-08
3.3133e-07
-6.61199e-08
-2.256e-08
3.28587e-07
-6.61026e-08
-2.25396e-08
3.25884e-07
-6.60664e-08
-2.25407e-08
3.23202e-07
-6.60248e-08
-2.2539e-08
-2.26462e-08
1.76872e-07
-3.46879e-08
-2.9893e-08
1.75351e-07
-3.46875e-08
-2.9928e-08
1.73836e-07
-3.47122e-08
-2.98929e-08
1.72313e-07
-3.47405e-08
-2.98383e-08
1.70815e-07
-3.47557e-08
-2.98127e-08
-3.47622e-08
-2.98017e-08
5.78899e-08
-3.40791e-08
5.73165e-08
-3.41141e-08
5.67453e-08
-3.41411e-08
5.61692e-08
-3.41644e-08
5.56058e-08
-3.41923e-08
-3.42231e-08
1.76926e-07
-2.99052e-08
6.6196e-08
1.75408e-07
-2.99381e-08
6.61522e-08
1.73898e-07
-2.9904e-08
6.61343e-08
1.72375e-07
-2.98436e-08
6.61127e-08
1.70874e-07
-2.98239e-08
6.60817e-08
6.60259e-08
4.81562e-07
-5.54766e-08
6.0766e-08
4.78405e-07
-5.55275e-08
6.07126e-08
4.75264e-07
-5.55022e-08
6.07314e-08
4.72125e-07
-5.54454e-08
6.07811e-08
-5.54205e-08
6.07944e-08
7.97712e-07
-7.7337e-08
5.29027e-08
7.95003e-07
-7.73302e-08
5.28443e-08
7.9218e-07
-7.72579e-08
5.28729e-08
7.89251e-07
-7.71853e-08
5.29156e-08
7.86213e-07
-7.71403e-08
5.29481e-08
-7.7147e-08
5.29052e-08
1.02578e-06
-9.32469e-08
4.12793e-08
1.02381e-06
-9.32557e-08
4.11565e-08
1.02166e-06
-9.32314e-08
4.11092e-08
1.01937e-06
-9.32033e-08
4.10808e-08
1.01699e-06
-9.3178e-08
4.10569e-08
-9.31704e-08
4.09403e-08
1.16012e-06
-1.01896e-07
2.66234e-08
1.15853e-06
-1.01921e-07
2.65303e-08
1.1569e-06
-1.0194e-07
2.64683e-08
1.15524e-06
-1.01956e-07
2.64069e-08
1.1536e-06
-1.01972e-07
2.63388e-08
-1.02001e-07
2.6158e-08
1.19651e-06
-1.03018e-07
9.30604e-09
1.19541e-06
-1.03058e-07
9.21565e-09
1.19429e-06
-1.03126e-07
9.15046e-09
1.1932e-06
-1.03192e-07
9.07046e-09
1.19212e-06
-1.03248e-07
9.00779e-09
-1.03298e-07
8.82705e-09
1.13921e-06
-9.66037e-08
-9.3462e-09
1.13857e-06
-9.66635e-08
-9.43329e-09
1.13788e-06
-9.67754e-08
-9.44228e-09
1.13715e-06
-9.6892e-08
-9.44197e-09
1.13632e-06
-9.70135e-08
-9.44847e-09
-9.71591e-08
-9.56177e-09
9.97485e-07
-8.27143e-08
-2.70422e-08
9.964e-07
-8.27114e-08
-2.7081e-08
9.95159e-07
-8.27833e-08
-2.69915e-08
9.93759e-07
-8.28627e-08
-2.68708e-08
9.92202e-07
-8.29178e-08
-2.67617e-08
9.90532e-07
-8.29961e-08
-2.66562e-08
-8.29133e-08
7.7364e-07
-6.0746e-08
-4.20374e-08
7.71096e-07
-6.06882e-08
-4.2049e-08
7.68429e-07
-6.07123e-08
-4.19646e-08
7.65654e-07
-6.07574e-08
-4.18692e-08
7.62767e-07
-6.07798e-08
-4.17924e-08
7.59786e-07
-6.08044e-08
-4.17495e-08
-6.0701e-08
4.81513e-07
-3.19912e-08
-5.54387e-08
4.78345e-07
-3.19556e-08
-5.54927e-08
4.75193e-07
-3.19845e-08
-5.54692e-08
4.72054e-07
-3.20299e-08
-5.54259e-08
4.68918e-07
-3.20455e-08
-5.54114e-08
4.65768e-07
-3.20467e-08
-5.54096e-08
-5.54857e-08
1.88128e-07
-6.42333e-08
1.86369e-07
-6.43103e-08
1.8464e-07
-6.43967e-08
1.8293e-07
-6.44843e-08
1.81268e-07
-6.45766e-08
-6.46669e-08
3.37035e-07
-2.25239e-08
9.15828e-08
3.34247e-07
-2.2578e-08
9.15185e-08
3.31496e-07
-2.25701e-08
9.14554e-08
3.2877e-07
-2.25485e-08
9.13871e-08
3.26069e-07
-2.25393e-08
9.13221e-08
3.23412e-07
-2.2587e-08
9.12694e-08
9.11623e-08
7.73783e-07
-4.20639e-08
8.27429e-08
7.71248e-07
-4.20728e-08
8.27426e-08
7.68601e-07
-4.19926e-08
8.28016e-08
7.65857e-07
-4.18954e-08
8.28712e-08
7.63024e-07
-4.18218e-08
8.29105e-08
-4.18501e-08
8.29121e-08
1.13062e-06
-5.99331e-08
7.01371e-08
1.13109e-06
-5.98767e-08
7.01796e-08
1.13139e-06
-5.97239e-08
7.03069e-08
1.13154e-06
-5.95665e-08
7.04369e-08
1.13156e-06
-5.94362e-08
7.0539e-08
-5.94171e-08
7.05378e-08
1.37378e-06
-7.35393e-08
5.27043e-08
1.37585e-06
-7.34946e-08
5.27032e-08
1.37787e-06
-7.34057e-08
5.27653e-08
1.37985e-06
-7.32992e-08
5.28411e-08
1.38175e-06
-7.31881e-08
5.29067e-08
-7.31437e-08
5.28546e-08
1.51516e-06
-8.15375e-08
3.1649e-08
1.51807e-06
-8.1523e-08
3.16491e-08
1.52097e-06
-8.15044e-08
3.1663e-08
1.52389e-06
-8.14834e-08
3.16796e-08
1.52682e-06
-8.14699e-08
3.16866e-08
-8.14723e-08
3.15875e-08
1.55675e-06
-8.36407e-08
7.9933e-09
1.56015e-06
-8.36849e-08
7.97574e-09
1.56358e-06
-8.3759e-08
7.98114e-09
1.56703e-06
-8.3853e-08
7.99167e-09
1.57053e-06
-8.39459e-08
7.98076e-09
-8.39974e-08
7.85753e-09
1.50372e-06
-8.00173e-08
-1.65258e-08
1.50723e-06
-8.00981e-08
-1.65327e-08
1.51076e-06
-8.02393e-08
-1.64911e-08
1.51431e-06
-8.04014e-08
-1.64363e-08
1.51788e-06
-8.05565e-08
-1.64109e-08
-8.06495e-08
1.36229e-06
-7.01205e-08
-3.97489e-08
1.365e-06
-7.01645e-08
-3.97252e-08
1.36767e-06
-7.03008e-08
-3.95949e-08
1.37027e-06
-7.0439e-08
-3.94316e-08
1.37279e-06
-7.05528e-08
-3.92893e-08
-7.05685e-08
-3.92621e-08
1.13061e-06
-5.28987e-08
-5.98927e-08
1.13108e-06
-5.28406e-08
-5.98376e-08
1.13137e-06
-5.28751e-08
-5.96859e-08
1.13151e-06
-5.29183e-08
-5.95273e-08
1.13151e-06
-5.2948e-08
-5.93942e-08
-5.29427e-08
-5.93439e-08
7.9774e-07
-2.84e-08
-7.72948e-08
7.95019e-07
-2.83226e-08
-7.72896e-08
7.9218e-07
-2.82865e-08
-7.72191e-08
7.89222e-07
-2.82382e-08
-7.71482e-08
7.86145e-07
-2.81627e-08
-7.71189e-08
7.82978e-07
-2.80875e-08
-7.70978e-08
3.67727e-07
-8.90233e-08
3.642e-07
-8.91058e-08
3.60757e-07
-8.92402e-08
3.57395e-07
-8.93603e-08
3.54124e-07
-8.94689e-08
-8.95568e-08
4.91502e-07
-1.41357e-08
1.09553e-07
4.87725e-07
-1.42283e-08
1.09524e-07
4.83982e-07
-1.42655e-08
1.09464e-07
4.80262e-07
-1.42744e-08
1.09382e-07
4.76546e-07
-1.42463e-08
1.09284e-07
4.72822e-07
-1.41913e-08
1.09185e-07
-1.42565e-08
9.9766e-07
-2.70653e-08
9.66162e-08
9.96589e-07
-2.7092e-08
9.66773e-08
9.95349e-07
-2.70108e-08
9.67863e-08
9.93948e-07
-2.69004e-08
9.68988e-08
9.9241e-07
-2.67962e-08
9.69986e-08
9.90762e-07
-2.67477e-08
9.71163e-08
1.36222e-06
-3.97578e-08
8.00478e-08
1.3649e-06
-3.97256e-08
8.01339e-08
1.36754e-06
-3.96141e-08
8.02665e-08
1.37014e-06
-3.94712e-08
8.04143e-08
1.37266e-06
-3.93345e-08
8.05535e-08
-3.93473e-08
1.60861e-06
-5.0095e-08
5.84631e-08
1.61315e-06
-5.0063e-08
5.85078e-08
1.61769e-06
-4.9985e-08
5.85931e-08
1.62223e-06
-4.98736e-08
5.87019e-08
1.62679e-06
-4.97774e-08
5.87943e-08
-4.9793e-08
1.75346e-06
-5.68428e-08
3.30287e-08
1.75883e-06
-5.68248e-08
3.30462e-08
1.76422e-06
-5.67998e-08
3.30891e-08
1.76964e-06
-5.67674e-08
3.31524e-08
1.77509e-06
-5.67394e-08
3.3196e-08
-5.67462e-08
1.79944e-06
-5.96455e-08
5.12319e-09
1.80514e-06
-5.96665e-08
5.12034e-09
1.81088e-06
-5.97059e-08
5.14932e-09
1.81666e-06
-5.97528e-08
5.19637e-09
1.82248e-06
-5.97732e-08
5.19607e-09
1.74984e-06
-5.84422e-08
-2.32662e-08
1.75538e-06
-5.84802e-08
-2.32641e-08
1.76097e-06
-5.85649e-08
-2.32188e-08
1.76661e-06
-5.86717e-08
-2.31551e-08
-5.87386e-08
-2.3149e-08
1.60863e-06
-5.27043e-08
-5.00754e-08
1.61317e-06
-5.26994e-08
-5.00425e-08
1.61772e-06
-5.27574e-08
-4.99524e-08
1.62227e-06
-5.28297e-08
-4.98301e-08
1.62684e-06
-5.28628e-08
-4.97359e-08
-5.27853e-08
1.37379e-06
-4.12784e-08
-7.34999e-08
1.37586e-06
-4.11557e-08
-7.34523e-08
1.37788e-06
-4.11095e-08
-7.33592e-08
1.37986e-06
-4.10888e-08
-7.3248e-08
1.38179e-06
-4.10349e-08
-7.315e-08
-4.08958e-08
1.02586e-06
-2.35011e-08
-9.32075e-08
1.02389e-06
-2.32575e-08
-9.32137e-08
1.02173e-06
-2.29775e-08
-9.31884e-08
1.01941e-06
-2.27695e-08
-9.31547e-08
1.01702e-06
-2.2609e-08
-9.31519e-08
-2.24723e-08
5.2357e-07
-1.07131e-07
5.18376e-07
-1.07169e-07
5.13415e-07
-1.07257e-07
5.08622e-07
-1.07337e-07
5.03935e-07
-1.07391e-07
-1.07397e-07
6.07179e-07
-3.55562e-09
1.18191e-07
6.02187e-07
-3.70971e-09
1.18226e-07
5.9724e-07
-3.82411e-09
1.18235e-07
5.92321e-07
-3.92531e-09
1.18226e-07
5.87493e-07
-4.08578e-09
1.18198e-07
-4.32283e-09
1.18184e-07
1.13935e-06
-9.37341e-09
1.03027e-07
1.1387e-06
-9.45097e-09
1.03073e-07
1.13798e-06
-9.4624e-09
1.03138e-07
1.13723e-06
-9.46818e-09
1.03198e-07
1.1364e-06
-9.52277e-09
1.03265e-07
1.0332e-07
1.50362e-06
-1.65337e-08
8.36821e-08
1.50711e-06
-1.65445e-08
8.37326e-08
1.51063e-06
-1.65089e-08
8.38011e-08
1.51417e-06
-1.64709e-08
8.38769e-08
-1.65241e-08
1.74977e-06
-2.32802e-08
5.96828e-08
1.75531e-06
-2.32814e-08
5.97024e-08
1.76089e-06
-2.32406e-08
5.97424e-08
1.76652e-06
-2.31965e-08
5.97974e-08
-2.32248e-08
1.89592e-06
-2.84905e-08
3.18393e-08
1.90233e-06
-2.84907e-08
3.18443e-08
1.90879e-06
-2.84786e-08
3.18632e-08
1.91531e-06
-2.84654e-08
3.18996e-08
-2.84751e-08
1.94416e-06
-3.18104e-08
1.76587e-09
1.95084e-06
-3.18172e-08
1.76469e-09
1.95757e-06
-3.18347e-08
1.77657e-09
1.96435e-06
-3.18541e-08
1.79603e-09
-3.18502e-08
1.79283e-09
1.89592e-06
-3.30097e-08
-2.84748e-08
1.90234e-06
-3.30232e-08
-2.84749e-08
1.90881e-06
-3.30653e-08
-2.84612e-08
1.91535e-06
-3.31106e-08
-2.84395e-08
-3.3085e-08
-2.84374e-08
1.75339e-06
-3.1635e-08
-5.68228e-08
1.75876e-06
-3.16341e-08
-5.68043e-08
1.76416e-06
-3.16496e-08
-5.67739e-08
1.76961e-06
-3.1652e-08
-5.67374e-08
-3.15592e-08
-5.67189e-08
1.51511e-06
-2.65995e-08
-8.15096e-08
1.51802e-06
-2.65111e-08
-8.14926e-08
1.52095e-06
-2.64617e-08
-8.14677e-08
1.5239e-06
-2.64084e-08
-8.14434e-08
-2.62322e-08
-8.14309e-08
1.1602e-06
-1.64066e-08
-1.01861e-07
1.15862e-06
-1.62659e-08
-1.01882e-07
1.15699e-06
-1.61208e-08
-1.01892e-07
1.15532e-06
-1.5993e-08
-1.01903e-07
-1.5854e-08
-1.01922e-07
6.28749e-07
-1.17121e-07
6.22495e-07
-1.17181e-07
6.16373e-07
-1.17255e-07
6.1035e-07
-1.17307e-07
6.04434e-07
-1.17329e-07
6.58321e-07
7.06298e-09
1.17166e-07
6.5238e-07
6.92048e-09
1.17247e-07
6.46504e-07
6.7796e-09
1.1733e-07
6.40679e-07
6.67019e-09
1.17381e-07
6.34916e-07
6.56716e-09
1.17394e-07
6.45065e-09
1.1966e-06
9.25406e-09
1.01926e-07
1.19547e-06
9.1724e-09
1.01949e-07
1.19431e-06
9.09429e-09
1.01978e-07
1.19316e-06
9.00532e-09
1.02017e-07
1.19203e-06
1.02057e-07
1.55666e-06
7.95e-09
8.15842e-08
1.56005e-06
7.94223e-09
8.15705e-08
1.56345e-06
7.9438e-09
8.15507e-08
7.86842e-09
8.15355e-08
1.79932e-06
5.0888e-09
5.68724e-08
1.80503e-06
5.08709e-09
5.68438e-08
1.81079e-06
5.11277e-09
5.68105e-08
5.0799e-09
5.67795e-08
1.94407e-06
1.73556e-09
2.85131e-08
1.95077e-06
1.73784e-09
2.84948e-08
1.95753e-06
1.74701e-09
2.84727e-08
1.72754e-09
2.84512e-08
1.99252e-06
-1.74937e-09
-1.72382e-09
1.9995e-06
-1.74506e-09
-1.72855e-09
2.00652e-06
-1.75384e-09
-1.74342e-09
2.01357e-06
-1.76823e-09
-1.75715e-09
-1.75929e-09
-1.7386e-09
1.94413e-06
-5.10774e-09
-3.17937e-08
1.95081e-06
-5.10073e-09
-3.18023e-08
1.95755e-06
-5.1272e-09
-3.18219e-08
1.96433e-06
-5.15123e-09
-3.18424e-08
-5.09538e-09
-3.1835e-08
1.79938e-06
-7.97895e-09
-5.96241e-08
1.80508e-06
-7.96045e-09
-5.96468e-08
1.81083e-06
-7.96564e-09
-5.9686e-08
1.81664e-06
-7.96205e-09
-5.97292e-08
-7.85034e-09
-5.97408e-08
1.55671e-06
-9.29071e-09
-8.36155e-08
1.56012e-06
-9.20071e-09
-8.36622e-08
1.56356e-06
-9.13361e-09
-8.37332e-08
1.56705e-06
-9.08023e-09
-8.38164e-08
-8.90138e-09
-8.3873e-08
1.19658e-06
-7.09576e-09
-1.02984e-07
1.19548e-06
-6.96058e-09
-1.03021e-07
1.19438e-06
-6.83597e-09
-1.03083e-07
1.19329e-06
-6.74808e-09
-1.03146e-07
-6.60741e-09
-1.03167e-07
6.58116e-07
-1.18156e-07
6.52162e-07
-1.18187e-07
6.46255e-07
-1.18185e-07
6.40368e-07
-1.18168e-07
-1.1814e-07
6.35376e-07
1.65208e-08
1.07164e-07
6.28987e-07
1.63803e-08
1.07174e-07
6.22757e-07
1.62406e-08
1.07237e-07
6.16664e-07
1.60799e-08
1.07343e-07
6.1067e-07
1.59455e-08
1.07429e-07
1.58229e-08
1.07461e-07
1.16178e-06
2.66626e-08
9.32808e-08
1.16024e-06
2.65671e-08
9.32808e-08
1.15865e-06
2.65036e-08
9.32777e-08
1.15699e-06
2.64346e-08
9.32762e-08
1.15533e-06
2.63639e-08
9.32664e-08
2.61987e-08
9.32995e-08
1.51215e-06
3.16168e-08
7.36334e-08
1.5151e-06
3.16127e-08
7.35926e-08
1.51803e-06
3.16225e-08
7.35226e-08
1.52094e-06
3.16357e-08
7.34318e-08
1.52388e-06
3.1632e-08
7.33263e-08
3.15337e-08
7.32798e-08
1.74797e-06
3.29845e-08
5.016e-08
1.75333e-06
3.29973e-08
5.01318e-08
1.75869e-06
3.30282e-08
5.00702e-08
1.76409e-06
3.30767e-08
4.99737e-08
1.76952e-06
3.31079e-08
4.98692e-08
3.30588e-08
4.98514e-08
1.88942e-06
2.33049e-08
1.89582e-06
3.18029e-08
2.33032e-08
1.90224e-06
3.18313e-08
2.32775e-08
1.9087e-06
3.18609e-08
2.32302e-08
1.9152e-06
3.18781e-08
2.31798e-08
3.18641e-08
2.32067e-08
1.94407e-06
2.84841e-08
-5.07824e-09
1.95076e-06
2.84957e-08
-5.07924e-09
1.95749e-06
2.84924e-08
-5.10554e-09
1.96426e-06
2.84806e-08
-5.1334e-09
2.84907e-08
-5.07933e-09
1.89591e-06
2.32773e-08
-3.29825e-08
1.90232e-06
2.32801e-08
-3.29954e-08
1.90879e-06
2.32426e-08
-3.30391e-08
1.91531e-06
2.31955e-08
-3.30832e-08
2.32288e-08
-3.30477e-08
1.74985e-06
1.65354e-08
-5.84127e-08
1.75539e-06
1.65402e-08
-5.84521e-08
1.76098e-06
1.65005e-08
-5.85384e-08
1.76664e-06
1.64527e-08
-5.86406e-08
1.65227e-08
-5.86528e-08
1.50373e-06
9.35218e-09
-7.99821e-08
1.50725e-06
9.43051e-09
-8.00686e-08
1.51079e-06
9.43613e-09
-8.02086e-08
1.51439e-06
9.41767e-09
-8.03798e-08
9.55865e-09
-8.04652e-08
1.13928e-06
3.54114e-09
-9.65716e-08
1.13864e-06
3.68266e-09
-9.66323e-08
1.13795e-06
3.78656e-09
-9.67404e-08
1.13723e-06
3.8571e-09
-9.68677e-08
4.06897e-09
-9.69234e-08
6.07033e-07
-1.09525e-07
6.02021e-07
-1.09493e-07
5.97049e-07
-1.09426e-07
5.92081e-07
-1.09343e-07
-1.09243e-07
5.29087e-07
2.35852e-08
8.90481e-08
5.23727e-07
2.34734e-08
8.90611e-08
5.18557e-07
2.325e-08
8.91568e-08
5.13632e-07
2.29652e-08
8.93032e-08
5.08868e-07
2.27694e-08
8.94242e-08
2.25886e-08
8.95274e-08
1.02784e-06
4.13049e-08
7.73863e-08
1.02597e-06
4.12233e-08
7.7402e-08
1.02398e-06
4.11544e-08
7.73632e-08
1.02181e-06
4.11035e-08
7.73046e-08
1.01951e-06
4.10965e-08
7.72385e-08
4.09625e-08
7.72497e-08
1.37166e-06
5.26462e-08
6.00305e-08
1.37381e-06
5.26528e-08
6.00039e-08
1.37591e-06
5.2698e-08
5.98808e-08
1.37794e-06
5.27627e-08
5.97438e-08
1.37991e-06
5.28432e-08
5.96124e-08
5.28025e-08
5.95632e-08
1.60402e-06
5.83767e-08
3.98228e-08
1.60857e-06
5.84221e-08
3.98148e-08
1.61311e-06
5.84921e-08
3.97333e-08
1.61765e-06
5.85891e-08
3.96125e-08
1.6222e-06
5.86921e-08
3.94732e-08
5.8705e-08
3.94528e-08
1.74422e-06
1.65558e-08
1.74973e-06
5.96442e-08
1.65683e-08
1.75526e-06
5.96863e-08
1.65557e-08
1.76082e-06
5.97362e-08
1.65191e-08
1.76643e-06
5.9787e-08
1.64725e-08
5.98044e-08
1.65364e-08
1.79932e-06
5.68367e-08
-7.91952e-09
1.805e-06
5.68351e-08
-7.90929e-09
1.81073e-06
5.68185e-08
-7.91996e-09
1.81651e-06
5.67954e-08
-7.91972e-09
5.67974e-08
-7.80735e-09
1.7534e-06
5.00896e-08
-3.159e-08
1.75876e-06
5.00639e-08
-3.15854e-08
1.76416e-06
4.99828e-08
-3.16003e-08
1.76959e-06
4.98764e-08
-3.1603e-08
4.98578e-08
-3.15038e-08
1.60867e-06
3.97628e-08
-5.26648e-08
1.61321e-06
3.9734e-08
-5.26599e-08
1.61776e-06
3.96085e-08
-5.27167e-08
1.62235e-06
3.94383e-08
-5.27948e-08
3.94218e-08
-5.27443e-08
1.36231e-06
2.7051e-08
-7.00753e-08
1.36502e-06
2.70798e-08
-7.0128e-08
1.36769e-06
2.69913e-08
-7.0259e-08
1.37033e-06
2.6834e-08
-7.04192e-08
2.68539e-08
-7.04397e-08
9.97573e-07
1.41226e-08
-8.2689e-08
9.96494e-07
1.42138e-08
-8.26875e-08
9.95253e-07
1.42414e-08
-8.27496e-08
9.93852e-07
1.42211e-08
-8.28541e-08
1.42588e-08
-8.28373e-08
4.91414e-07
-9.1566e-08
4.87628e-07
-9.14923e-08
4.83868e-07
-9.14249e-08
4.80098e-07
-9.13519e-08
-9.12531e-08
3.71503e-07
2.84591e-08
6.42182e-08
3.67922e-07
2.83698e-08
6.42731e-08
3.64402e-07
2.83333e-08
6.43432e-08
3.60974e-07
2.82931e-08
6.44375e-08
3.57625e-07
2.82411e-08
6.45327e-08
2.81515e-08
6.46288e-08
8.00527e-07
5.29098e-08
5.54659e-08
7.97931e-07
5.28294e-08
5.55388e-08
7.95236e-07
5.284e-08
5.55515e-08
7.9243e-07
5.28703e-08
5.55326e-08
7.895e-07
5.29185e-08
5.54913e-08
5.29009e-08
5.55081e-08
1.13004e-06
7.00413e-08
4.2141e-08
1.13064e-06
7.00721e-08
4.21569e-08
1.13109e-06
7.01894e-08
4.20864e-08
1.13137e-06
7.03196e-08
4.20069e-08
1.13153e-06
7.04448e-08
4.19297e-08
7.04823e-08
4.19123e-08
1.35945e-06
7.99205e-08
2.70795e-08
1.3622e-06
7.99978e-08
2.71328e-08
1.36492e-06
8.01236e-08
2.7085e-08
1.36757e-06
8.02699e-08
2.70076e-08
1.37016e-06
8.04269e-08
2.69054e-08
8.0522e-08
2.69042e-08
1.50014e-06
9.32089e-09
1.50365e-06
8.36398e-08
9.40756e-09
1.50716e-06
8.37014e-08
9.46696e-09
1.51069e-06
8.37823e-08
9.48141e-09
1.51424e-06
8.3874e-08
9.47535e-09
8.39412e-08
9.61658e-09
1.55671e-06
8.15201e-08
-9.20576e-09
1.5601e-06
8.15175e-08
-9.12276e-09
1.56353e-06
8.15134e-08
-9.07366e-09
1.56699e-06
8.15023e-08
-9.00715e-09
8.15046e-08
-8.81389e-09
1.51512e-06
7.35158e-08
-2.65455e-08
1.51803e-06
7.34735e-08
-2.64509e-08
1.52094e-06
7.33927e-08
-2.63954e-08
1.52389e-06
7.32867e-08
-2.63348e-08
7.32439e-08
-2.6148e-08
1.3738e-06
5.99164e-08
-4.12385e-08
1.37588e-06
5.98553e-08
-4.11159e-08
1.3779e-06
5.97105e-08
-4.10574e-08
1.3799e-06
5.95356e-08
-4.1046e-08
5.94991e-08
-4.09046e-08
1.13061e-06
4.20525e-08
-5.28509e-08
1.13109e-06
4.20605e-08
-5.28138e-08
1.13139e-06
4.19818e-08
-5.2831e-08
1.13155e-06
4.18459e-08
-5.28889e-08
4.18539e-08
-5.28497e-08
7.73768e-07
2.25135e-08
-6.07251e-08
7.71239e-07
2.25696e-08
-6.06681e-08
7.68592e-07
2.25654e-08
-6.0686e-08
7.65809e-07
2.25248e-08
-6.07506e-08
2.25823e-08
-6.07142e-08
3.37051e-07
-6.61776e-08
3.34255e-07
-6.61266e-08
3.31501e-07
-6.61052e-08
3.28762e-07
-6.60876e-08
-6.60219e-08
1.90083e-07
3.20103e-08
3.40783e-08
1.88279e-07
3.19691e-08
3.41087e-08
1.86506e-07
3.19802e-08
3.41352e-08
1.84767e-07
3.20142e-08
3.41629e-08
1.83064e-07
3.20446e-08
3.41908e-08
3.20336e-08
3.42265e-08
4.84956e-07
6.07547e-08
2.99001e-08
4.81812e-07
6.07099e-08
2.99416e-08
4.78689e-07
6.07257e-08
2.99293e-08
4.75585e-07
6.07559e-08
2.98945e-08
4.72471e-07
6.07887e-08
2.98619e-08
6.07764e-08
2.98708e-08
7.76405e-07
8.26531e-08
2.25117e-08
7.74025e-07
8.2678e-08
2.25686e-08
7.71516e-07
8.27508e-08
2.25703e-08
7.68891e-07
8.28256e-08
2.25624e-08
7.66148e-07
8.28933e-08
8.29076e-08
9.98701e-07
9.65257e-08
1.40494e-08
9.97751e-07
9.65857e-08
1.4175e-08
9.96661e-07
9.66872e-08
1.42381e-08
9.95425e-07
9.67963e-08
1.42729e-08
9.94051e-07
9.68996e-08
1.42738e-08
9.69751e-08
1.13996e-06
3.40363e-09
1.13937e-06
1.03e-07
3.58455e-09
1.13873e-06
1.03051e-07
3.73973e-09
1.13804e-06
1.0312e-07
3.85603e-09
1.13731e-06
1.03187e-07
3.91121e-09
1.03213e-07
1.19669e-06
1.01881e-07
-7.03522e-09
1.1956e-06
1.01906e-07
-6.88927e-09
1.1945e-06
1.01924e-07
-6.77058e-09
1.19339e-06
1.01941e-07
-6.6561e-09
1.01973e-07
-6.52413e-09
1.16031e-06
9.32228e-08
-1.63609e-08
1.15875e-06
9.32274e-08
-1.62112e-08
1.15713e-06
9.32078e-08
-1.6059e-08
1.15548e-06
9.31736e-08
-1.59177e-08
9.31971e-08
-1.57697e-08
1.02593e-06
7.73111e-08
-2.34779e-08
1.02398e-06
7.729e-08
-2.32326e-08
1.02185e-06
7.72312e-08
-2.29448e-08
1.01956e-06
7.71511e-08
-2.27399e-08
7.71555e-08
-2.25372e-08
7.97846e-07
5.54538e-08
-2.83779e-08
7.95141e-07
5.54919e-08
-2.83113e-08
7.92332e-07
5.54752e-08
-2.82654e-08
7.89397e-07
5.54181e-08
-2.82215e-08
5.54324e-08
-2.81145e-08
4.81684e-07
2.98979e-08
-3.19802e-08
4.78534e-07
2.99243e-08
-3.19506e-08
4.75403e-07
2.98943e-08
-3.19736e-08
4.72262e-07
2.98321e-08
-3.20234e-08
2.98386e-08
-3.201e-08
1.76957e-07
-3.46823e-08
1.75436e-07
-3.46812e-08
1.73927e-07
-3.47028e-08
1.72402e-07
-3.47305e-08
-3.4732e-08
5.85467e-08
3.47022e-08
5.79554e-08
3.47001e-08
5.73728e-08
3.47178e-08
5.67923e-08
3.47434e-08
5.62207e-08
3.47624e-08
3.47668e-08
1.78637e-07
6.62419e-08
1.7708e-07
6.61985e-08
1.75548e-07
6.61792e-08
1.74023e-07
6.61635e-08
1.72516e-07
3.40113e-07
9.16589e-08
3.37292e-07
9.15888e-08
3.34519e-07
9.15224e-08
9.14598e-08
4.95597e-07
1.09549e-07
4.91825e-07
1.09536e-07
4.88094e-07
1.09491e-07
4.84393e-07
1.09434e-07
1.09387e-07
6.12534e-07
6.07495e-07
1.18159e-07
6.02549e-07
1.18177e-07
5.97654e-07
1.18185e-07
1.18184e-07
6.58536e-07
1.17143e-07
6.52635e-07
1.17189e-07
6.46796e-07
1.17253e-07
6.4101e-07
1.17314e-07
1.17346e-07
6.29103e-07
1.07144e-07
6.22903e-07
1.07177e-07
6.1684e-07
1.07257e-07
6.10899e-07
1.07338e-07
1.07382e-07
5.23826e-07
8.90168e-08
5.18667e-07
8.91027e-08
5.13748e-07
8.92315e-08
5.08999e-07
8.93471e-08
8.94562e-08
3.67911e-07
6.42289e-08
3.64404e-07
6.42987e-08
3.60983e-07
6.43866e-08
3.57635e-07
6.44739e-08
6.45732e-08
1.88227e-07
3.40764e-08
1.86468e-07
3.41072e-08
1.84747e-07
3.41335e-08
1.83042e-07
3.41557e-08
3.41894e-08
5.79217e-08
5.73476e-08
5.67784e-08
5.62035e-08
)
;

boundaryField
{
    inlet
    {
        type            calculated;
        value           nonuniform List<scalar> 0();
    }
    ami1
    {
        type            cyclicAMI;
        value           nonuniform List<scalar> 0();
    }
    walls
    {
        type            calculated;
        value           nonuniform List<scalar> 
250
(
2.90979e-14
2.43942e-14
1.84387e-14
1.28555e-14
6.40674e-15
-8.27956e-22
-6.40674e-15
-1.28555e-14
-1.84387e-14
-2.43942e-14
-2.90979e-14
2.90979e-14
2.43942e-14
1.84387e-14
1.28555e-14
6.40674e-15
-3.47674e-22
-6.40674e-15
-1.28555e-14
-1.84387e-14
-2.43942e-14
-2.90979e-14
2.90979e-14
2.43942e-14
1.84387e-14
1.28555e-14
6.40674e-15
-8.27956e-22
-6.40674e-15
-1.28555e-14
-1.84387e-14
-2.43942e-14
-2.90979e-14
2.90979e-14
2.43942e-14
1.84387e-14
1.28555e-14
6.40674e-15
-8.27956e-22
-6.40674e-15
-1.28555e-14
-1.84387e-14
-2.43942e-14
-2.90979e-14
2.90979e-14
2.43942e-14
1.84387e-14
1.28555e-14
6.40674e-15
-8.27956e-22
-6.40674e-15
-1.28555e-14
-1.84387e-14
-2.43942e-14
-2.90979e-14
1.28555e-14
6.40674e-15
-8.27956e-22
-6.40674e-15
-1.28555e-14
-1.84387e-14
-2.43942e-14
-2.90979e-14
-8.29766e-22
-6.40674e-15
-1.28555e-14
-1.84387e-14
2.90979e-14
2.43942e-14
1.84387e-14
1.28555e-14
6.40674e-15
-8.27956e-22
-6.40674e-15
-1.28555e-14
-1.84387e-14
-2.43942e-14
-2.90979e-14
2.90979e-14
2.43942e-14
1.84387e-14
1.28555e-14
6.40674e-15
-3.47674e-22
-6.40674e-15
-1.28555e-14
-1.84387e-14
-2.43942e-14
-2.90979e-14
2.90979e-14
2.43942e-14
1.84387e-14
1.28555e-14
6.40674e-15
-8.27956e-22
-6.40674e-15
-1.28555e-14
-1.84387e-14
-2.43942e-14
-2.90979e-14
2.90979e-14
2.43942e-14
1.84387e-14
1.28555e-14
6.40674e-15
-8.27956e-22
-6.40674e-15
-1.28555e-14
-1.84387e-14
-2.43942e-14
-2.90979e-14
2.90979e-14
2.43942e-14
1.84387e-14
1.28555e-14
6.40674e-15
-8.27956e-22
-6.40674e-15
-1.28555e-14
-1.84387e-14
-2.43942e-14
-2.90979e-14
2.90979e-14
2.43942e-14
1.84387e-14
1.28555e-14
6.40674e-15
-2.90979e-14
-2.43942e-14
-1.84387e-14
-1.28555e-14
-6.40674e-15
-2.90979e-14
-2.43942e-14
-1.84387e-14
-1.28555e-14
-6.40674e-15
-8.83629e-22
6.40674e-15
1.28555e-14
1.84387e-14
2.43942e-14
2.90979e-14
-2.90979e-14
-2.43942e-14
-1.84387e-14
-1.28555e-14
-6.40674e-15
-2.96589e-22
6.40674e-15
1.28555e-14
1.84387e-14
2.43942e-14
2.90979e-14
-2.90979e-14
-2.43942e-14
-1.84387e-14
-1.28555e-14
-6.40674e-15
-8.83532e-22
6.40674e-15
1.28555e-14
1.84387e-14
2.43942e-14
2.90979e-14
-2.90979e-14
-2.43942e-14
-1.28555e-14
-6.40674e-15
-8.83532e-22
6.40674e-15
1.28555e-14
1.84387e-14
2.43942e-14
2.90979e-14
-2.90979e-14
-2.43942e-14
-8.83532e-22
6.40674e-15
1.28555e-14
1.84387e-14
2.43942e-14
2.90979e-14
6.40674e-15
1.28555e-14
1.84387e-14
2.43942e-14
2.90979e-14
-2.90979e-14
-2.43942e-14
-1.84387e-14
-1.28555e-14
-6.40674e-15
-8.83629e-22
6.40674e-15
1.28555e-14
1.84387e-14
2.43942e-14
2.90979e-14
-2.90979e-14
-2.43942e-14
-1.84387e-14
-1.28555e-14
-6.40674e-15
-2.96589e-22
6.40674e-15
1.28555e-14
1.84387e-14
2.43942e-14
2.90979e-14
-2.90979e-14
-2.43942e-14
-1.84387e-14
-1.28555e-14
-6.40674e-15
-8.83532e-22
6.40674e-15
1.28555e-14
1.84387e-14
2.43942e-14
2.90979e-14
-2.90979e-14
-2.43942e-14
-1.84387e-14
-1.28555e-14
-6.40674e-15
-8.83532e-22
6.40674e-15
1.28555e-14
1.84387e-14
2.43942e-14
2.90979e-14
-2.90979e-14
-2.43942e-14
-1.84387e-14
-1.28555e-14
-6.40674e-15
-8.83532e-22
6.40674e-15
1.28555e-14
1.84387e-14
2.43942e-14
2.90979e-14
-2.43942e-14
-1.84387e-14
-1.28555e-14
-6.40674e-15
-8.83532e-22
-1.84387e-14
-1.28555e-14
)
;
    }
    ami2
    {
        type            cyclicAMI;
        value           nonuniform List<scalar> 0();
    }
    outlet
    {
        type            calculated;
        value           nonuniform List<scalar> 0();
    }
    procBoundary5to6
    {
        type            processor;
        value           nonuniform List<scalar> 
177
(
5.56112e-08
-3.47521e-08
1.81238e-07
3.54007e-07
8.9526e-08
-2.81054e-08
4.9911e-07
5.98401e-07
1.17428e-07
6.22964e-07
6.28987e-09
5.77664e-07
-4.49287e-09
4.68638e-07
3.2062e-07
-6.59612e-08
1.69354e-07
2.988e-08
5.50667e-08
1.69459e-07
-2.98583e-08
-6.59283e-08
4.68978e-07
5.5448e-08
-6.07531e-08
7.83112e-07
1.0146e-06
1.15202e-06
1.19109e-06
1.13546e-06
9.71846e-08
9.88836e-07
-2.67667e-08
7.56796e-07
-4.18684e-08
4.6265e-07
-3.19775e-08
1.79665e-07
3.20901e-07
-2.27221e-08
7.60128e-07
-8.28572e-08
1.1315e-06
1.38356e-06
1.52972e-06
1.57402e-06
1.52145e-06
-1.64814e-08
1.37531e-06
1.13148e-06
5.28009e-08
7.79824e-07
-2.79813e-08
-7.71517e-08
3.50927e-07
4.691e-07
1.09141e-07
9.89076e-07
-2.68809e-08
9.71671e-08
1.37515e-06
8.06462e-08
1.6313e-06
5.87873e-08
1.78049e-06
3.31411e-08
1.82825e-06
-5.97731e-08
5.10718e-09
1.77231e-06
5.87198e-08
1.63139e-06
-4.9742e-08
1.38366e-06
-7.31038e-08
1.01464e-06
-9.31363e-08
4.99303e-07
5.82816e-07
1.13553e-06
-9.6539e-09
1.51777e-06
8.39541e-08
1.77219e-06
5.98332e-08
1.92184e-06
3.19168e-08
1.97113e-06
1.92188e-06
1.77507e-06
1.52685e-06
1.15371e-06
1.56902e-08
5.98676e-07
-1.17329e-07
6.29236e-07
1.17414e-07
8.90505e-09
1.19099e-06
8.74283e-09
1.0207e-07
1.56693e-06
-8.15382e-08
1.8166e-06
-5.67874e-08
1.96433e-06
-1.69484e-09
-2.84662e-08
2.02056e-06
1.97107e-06
1.82241e-06
1.57054e-06
1.19224e-06
6.34572e-07
6.0478e-07
1.15371e-06
1.52681e-06
1.77493e-06
1.92165e-06
1.97098e-06
1.92179e-06
1.77226e-06
1.51794e-06
1.13648e-06
5.87252e-07
5.04213e-07
1.01719e-06
1.38179e-06
1.62669e-06
1.772e-06
1.82225e-06
1.77499e-06
1.62688e-06
1.37288e-06
9.92361e-07
4.76367e-07
3.54372e-07
7.86492e-07
1.1316e-06
1.37267e-06
1.51774e-06
1.57043e-06
1.5268e-06
1.38181e-06
1.13161e-06
7.62958e-07
3.26113e-07
1.81433e-07
4.69365e-07
2.25679e-08
7.63323e-07
2.26056e-08
9.92595e-07
1.42928e-08
1.13658e-06
4.10823e-09
1.19234e-06
1.15388e-06
1.01724e-06
7.86385e-07
4.69151e-07
1.70951e-07
5.56803e-08
6.61311e-08
1.7107e-07
6.60834e-08
3.31785e-07
-9.14022e-08
4.80683e-07
5.92767e-07
-1.18175e-07
6.35315e-07
6.05093e-07
5.04388e-07
3.54403e-07
1.81416e-07
5.56609e-08
)
;
    }
    procBoundary5to7
    {
        type            processor;
        value           nonuniform List<scalar> 
131
(
-5.85054e-08
-1.89968e-07
-3.71286e-07
-5.28759e-07
-6.34848e-07
-6.63881e-07
-6.11921e-07
-4.95104e-07
-3.39796e-07
-1.78475e-07
-5.84987e-08
-1.7852e-07
-4.84756e-07
-8.00347e-07
-1.02764e-06
-1.16167e-06
-1.19759e-06
-1.1398e-06
-9.98449e-07
-7.7608e-07
-4.84722e-07
-1.89965e-07
-3.39898e-07
-7.7622e-07
-1.12999e-06
-1.3716e-06
-1.51219e-06
-1.55334e-06
-1.50017e-06
-1.35948e-06
-1.12998e-06
-8.00383e-07
-3.71337e-07
-4.95337e-07
-9.98603e-07
-1.35944e-06
-1.60404e-06
-1.74809e-06
-1.79377e-06
-1.7443e-06
-1.60404e-06
-1.3716e-06
-1.02773e-06
-5.28963e-07
-6.12262e-07
-1.13995e-06
-1.50009e-06
-1.74424e-06
-1.88952e-06
-1.93748e-06
-1.88952e-06
-1.74801e-06
-1.51213e-06
-1.16174e-06
-6.35166e-07
-6.64358e-07
-1.17125e-07
-1.19769e-06
-1.01894e-07
-1.55326e-06
-8.15885e-08
-1.79365e-06
-5.68945e-08
-1.93739e-06
-2.85207e-08
-1.98555e-06
-1.93745e-06
-1.79371e-06
-1.55329e-06
-1.19766e-06
-6.64177e-07
-6.41936e-07
-1.16331e-06
-1.50915e-06
-1.7426e-06
-1.883e-06
3.1785e-08
-1.9374e-06
-1.88952e-06
-1.74431e-06
-1.50018e-06
-1.13988e-06
-6.12122e-07
-5.34557e-07
-1.02966e-06
-1.36939e-06
-1.59942e-06
-1.7387e-06
5.9611e-08
-1.79367e-06
-1.74804e-06
-1.60409e-06
-1.3595e-06
-9.98527e-07
-4.95251e-07
-3.75133e-07
-8.03057e-07
-1.12928e-06
-1.35658e-06
-1.49658e-06
8.35974e-08
-1.5533e-06
-1.51216e-06
-1.37163e-06
-1.12997e-06
-7.76192e-07
-3.39926e-07
-1.91954e-07
-4.88134e-07
-7.78674e-07
-9.99543e-07
-1.1405e-06
1.0298e-07
-1.19774e-06
-1.16184e-06
-1.02778e-06