/*--------------------------------*- C++ -*----------------------------------*\
| =========                 |                                                 |
| \\      /  F ield         | OpenFOAM: The Open Source CFD Toolbox           |
|  \\    /   O peration     | Version:  2212                                  |
|   \\  /    A nd           | Website:  www.openfoam.com                      |
|    \\/     M anipulation  |                                                 |
\*---------------------------------------------------------------------------*/
FoamFile
{
    version     2.0;
    format      ascii;
    arch        "LSB;label=32;scalar=64";
    class       volVectorField;
    location    "2";
    object      U;
}
// * * * * * * * * * * * * * * * * * * * * * * * * * * * * * * * * * * * * * //

dimensions      [0 1 -1 0 0 0 0];

internalField   nonuniform List<vector> 
678
(
(0.0230345 -1.00581e-05 3.89155e-05)
(0.0228012 -9.21084e-06 3.63185e-05)
(0.0225749 -1.05131e-05 3.31985e-05)
(0.0223485 -1.21327e-05 3.0439e-05)
(0.0221217 -1.23338e-05 2.80967e-05)
(0.0388098 -0.000198822 4.82452e-05)
(0.0384378 -0.000190039 4.34197e-05)
(0.038076 -0.000184636 3.68804e-05)
(0.037725 -0.000179735 3.0222e-05)
(0.0373789 -0.000173651 2.43255e-05)
(0.0537092 -0.000448223 -0.000103316)
(0.0531889 -0.000430688 -9.75488e-05)
(0.0526708 -0.000406269 -9.32527e-05)
(0.0521849 -0.000379466 -9.07049e-05)
(0.0516969 -0.000357026 -8.9276e-05)
(0.0624952 -0.000823358 -0.000317411)
(0.0618625 -0.000765072 -0.000297795)
(0.0612517 -0.000686428 -0.000276884)
(0.060687 -0.000628592 -0.000261793)
(0.0601206 -0.000592262 -0.000251472)
(0.0595759 -0.000570789 -0.000243482)
(0.0673118 -0.000978927 -0.000456372)
(0.0666382 -0.00095463 -0.000444728)
(0.0659771 -0.000925369 -0.000434077)
(0.0653412 -0.000898365 -0.000426637)
(0.0647012 -0.000879446 -0.000419907)
(0.0640839 -0.000850166 -0.000407582)
(0.0680384 -0.000909099 -0.0004768)
(0.0674191 -0.000880194 -0.000475246)
(0.0668094 -0.000853799 -0.000473429)
(0.066206 -0.000835432 -0.000472859)
(0.0655964 -0.000811901 -0.000468191)
(0.0650092 -0.000786842 -0.00046153)
(0.064417 -0.000752564 -0.000448883)
(0.0649404 -0.000660163 -0.000445789)
(0.0643993 -0.000631514 -0.000439601)
(0.0638601 -0.000607373 -0.00042591)
(0.0633367 -0.000584887 -0.000405885)
(0.0628068 -0.00053671 -0.000369958)
(0.0623067 -0.000474222 -0.00032797)
(0.0618033 -0.000433958 -0.000306674)
(0.0585907 -0.000303143 -0.000244727)
(0.058135 -0.000289894 -0.000232051)
(0.0576753 -0.000280145 -0.000218367)
(0.0572413 -0.000273961 -0.000203895)
(0.0567899 -0.000272266 -0.000191302)
(0.0563442 -0.000274516 -0.000180714)
(0.055908 -0.000279094 -0.000176108)
(0.0491842 -0.000176977 -0.000171642)
(0.04877 -0.000171958 -0.000159413)
(0.0483555 -0.000168091 -0.000150797)
(0.0479686 -0.000166149 -0.000142702)
(0.0475664 -0.000166277 -0.000132261)
(0.0471786 -0.000168414 -0.000121954)
(0.0468017 -0.000169625 -0.000109936)
(0.036474 -6.7436e-05 -1.1449e-05)
(0.036151 -6.5596e-05 -9.29102e-06)
(0.0358378 -6.58491e-05 -1.36564e-05)
(0.0355309 -6.72693e-05 -1.85407e-05)
(0.0352197 -6.80229e-05 -1.98632e-05)
(0.0349133 -6.82713e-05 -1.89352e-05)
(0.0230314 -4.19832e-05 -8.92366e-06)
(0.022798 -3.91308e-05 -8.10713e-06)
(0.0225718 -3.55486e-05 -9.62391e-06)
(0.0223463 -3.22085e-05 -1.14026e-05)
(0.0221195 -2.92307e-05 -1.19578e-05)
(0.021899 -2.66119e-05 -1.22529e-05)
(0.0364842 -1.41689e-05 6.39234e-05)
(0.0361626 -1.2259e-05 6.23204e-05)
(0.0358503 -1.61054e-05 6.28273e-05)
(0.0355429 -2.03506e-05 6.47358e-05)
(0.0352343 -2.11327e-05 6.6347e-05)
(0.0349303 -1.68161e-05 6.53795e-05)
(0.0686426 -0.000304752 0.000115811)
(0.0681919 -0.00029567 0.000113611)
(0.0677331 -0.000300694 0.000115025)
(0.0673016 -0.000314656 0.000119047)
(0.0668479 -0.000320022 0.000119423)
(0.0898096 -0.000761172 -6.72593e-05)
(0.0895097 -0.000747872 -5.99393e-05)
(0.0891951 -0.000753212 -4.88278e-05)
(0.0888785 -0.000761045 -3.82539e-05)
(0.0885366 -0.000762981 -3.0266e-05)
(0.0881997 -0.000752738 -2.58968e-05)
(0.0994712 -0.00107221 -0.000310039)
(0.0992877 -0.00105049 -0.000295476)
(0.0990908 -0.00104435 -0.000282387)
(0.0988732 -0.00103939 -0.000270301)
(0.0986447 -0.00103187 -0.000258607)
(0.098415 -0.00101351 -0.000245292)
(0.103495 -0.00127064 -0.000407854)
(0.103355 -0.00124928 -0.000397578)
(0.103215 -0.00123494 -0.000389665)
(0.103065 -0.00122219 -0.000381955)
(0.102918 -0.00121087 -0.000373834)
(0.102773 -0.00118594 -0.000360848)
(0.103891 -0.00123889 -0.000415699)
(0.103797 -0.00121779 -0.000411054)
(0.103701 -0.00119915 -0.000408968)
(0.103605 -0.00117765 -0.000405754)
(0.103511 -0.0011644 -0.000405841)
(0.103418 -0.0011361 -0.000398999)
(0.101588 -0.000959287 -0.000411956)
(0.101534 -0.000933235 -0.00041149)
(0.101479 -0.000921424 -0.000421271)
(0.101412 -0.000912792 -0.000432402)
(0.101343 -0.000906369 -0.000445038)
(0.101268 -0.000885525 -0.000450673)
(0.0966882 -0.000617969 -0.000477852)
(0.0965887 -0.000601358 -0.000480047)
(0.0964783 -0.000603057 -0.00049844)
(0.0963493 -0.000608921 -0.000518245)
(0.0962055 -0.000611815 -0.000535016)
(0.0960546 -0.000622239 -0.000562111)
(0.0958755 -0.00060158 -0.000555285)
(0.0870941 -0.00035264 -0.000565224)
(0.0868137 -0.000348991 -0.000559451)
(0.0865157 -0.000355368 -0.000569409)
(0.086218 -0.000363738 -0.000580489)
(0.0858947 -0.000368855 -0.000585225)
(0.0855703 -0.000375495 -0.000590376)
(0.0852292 -0.00036146 -0.000563207)
(0.0686366 -0.000123982 -0.000303061)
(0.068184 -0.000121382 -0.000293709)
(0.0677236 -0.00012222 -0.000299412)
(0.0672914 -0.000124209 -0.00031157)
(0.0668387 -0.000124067 -0.00031957)
(0.066397 -0.000122716 -0.000325963)
(0.0659584 -0.000115985 -0.000314716)
(0.0388091 -5.38512e-05 -0.000198259)
(0.0384378 -4.83581e-05 -0.000189229)
(0.0380769 -4.07873e-05 -0.000183833)
(0.0377279 -3.31406e-05 -0.000179055)
(0.0373811 -2.57689e-05 -0.000171845)
(0.0370444 -1.82576e-05 -0.000163462)
(0.0492008 -0.000172127 0.000173131)
(0.0487902 -0.000161183 0.000168451)
(0.0483784 -0.000152623 0.000164832)
(0.0479939 -0.000144073 0.000163323)
(0.0475941 -0.00013547 0.000165307)
(0.0472118 -0.000125151 0.00016843)
(0.0468228 -0.000103512 0.000165813)
(0.0871098 -0.000569076 0.000346283)
(0.0868302 -0.000563974 0.000343187)
(0.0865344 -0.000572495 0.000349792)
(0.0862388 -0.000582736 0.000359264)
(0.0859181 -0.000585001 0.000364684)
(0.0856032 -0.000572338 0.000360477)
(0.106344 -0.00103664 0.000209909)
(0.106396 -0.00103857 0.000215077)
(0.106438 -0.00105833 0.000229127)
(0.106452 -0.0010767 0.000243719)
(0.10646 -0.00108963 0.000256175)
(0.106457 -0.00108488 0.000260009)
(0.114794 -0.00125459 -0.000106321)
(0.114972 -0.00125087 -9.5317e-05)
(0.115148 -0.00125725 -8.05066e-05)
(0.115309 -0.00126629 -6.31047e-05)
(0.115476 -0.00127878 -4.56072e-05)
(0.115626 -0.0012727 -3.21199e-05)
(0.118319 -0.00133203 -0.000294634)
(0.118548 -0.00133338 -0.000288398)
(0.118777 -0.00133518 -0.000280802)
(0.119001 -0.00133597 -0.000271181)
(0.119233 -0.00133691 -0.000261899)
(0.119457 -0.00132296 -0.000250314)
(0.118904 -0.00122009 -0.00043281)
(0.119164 -0.00121701 -0.000433302)
(0.119425 -0.00121564 -0.000436598)
(0.119686 -0.00121241 -0.00044059)
(0.119956 -0.00120846 -0.000445006)
(0.120218 -0.00119055 -0.000441302)
(0.117401 -0.000932903 -0.000599059)
(0.117678 -0.000927492 -0.000608782)
(0.117955 -0.000924066 -0.000623935)
(0.118228 -0.000919585 -0.000642275)
(0.11851 -0.000915935 -0.000661458)
(0.118782 -0.000899746 -0.000668459)
(0.113807 -0.000556952 -0.000832966)
(0.114038 -0.000551066 -0.000843005)
(0.114269 -0.000555997 -0.000867588)
(0.114482 -0.000564085 -0.000896403)
(0.114701 -0.000573097 -0.000924208)
(0.114907 -0.000572446 -0.000935806)
(0.106342 -0.000216356 -0.00103726)
(0.106395 -0.000221015 -0.00103926)
(0.106435 -0.000234849 -0.00105966)
(0.10645 -0.000249344 -0.00107809)
(0.106458 -0.00026184 -0.00109185)
(0.106454 -0.000268064 -0.00108952)
(0.0898133 5.89603e-05 -0.000762265)
(0.0895122 5.19855e-05 -0.00074875)
(0.0891959 4.16339e-05 -0.000754146)
(0.0888766 3.21889e-05 -0.000761581)
(0.0885336 2.60403e-05 -0.000762023)
(0.0881892 2.04274e-05 -0.000761585)
(0.0878218 1.8334e-05 -0.000735412)
(0.0537173 9.82804e-05 -0.000447196)
(0.0531988 9.37676e-05 -0.000429341)
(0.0526822 9.04479e-05 -0.000404925)
(0.052197 8.83657e-05 -0.000378327)
(0.0517115 8.86459e-05 -0.000352528)
(0.0512457 9.10024e-05 -0.000330548)
(0.0586188 -0.000243799 0.00030041)
(0.0581674 -0.000231518 0.000287116)
(0.0577116 -0.000217398 0.000276857)
(0.0572818 -0.000202192 0.000269853)
(0.0568355 -0.000190497 0.000268612)
(0.0563977 -0.000183503 0.000272752)
(0.055958 -0.000175613 0.000276794)
(0.0967049 -0.00047898 0.00061115)
(0.0966062 -0.000482512 0.000596541)
(0.0964988 -0.000499823 0.000598685)
(0.0963665 -0.000518503 0.000605251)
(0.0962241 -0.000533506 0.000609911)
(0.0960729 -0.000551789 0.000614065)
(0.0959024 -0.000542153 0.000586852)
(0.113803 -0.000836926 0.000554772)
(0.114031 -0.000847507 0.000549714)
(0.114258 -0.00086803 0.00055161)
(0.114471 -0.000892911 0.000556602)
(0.11469 -0.000920229 0.000564871)
(0.114893 -0.000928787 0.000560419)
(0.12156 -0.000949265 0.000214117)
(0.121907 -0.000957467 0.000216978)
(0.122251 -0.000974973 0.00022507)
(0.122594 -0.000997757 0.000236278)
(0.122939 -0.00101623 0.000245506)
(0.123277 -0.0010107 0.000244637)
(0.125017 -0.000958796 -6.3764e-05)
(0.125401 -0.000962092 -6.10445e-05)
(0.125785 -0.000970238 -5.78421e-05)
(0.126171 -0.00098217 -5.36484e-05)
(0.126559 -0.000990132 -4.90036e-05)
(0.126943 -0.00097882 -4.44196e-05)
(0.125866 -0.000815645 -0.000335104)
(0.126266 -0.000814708 -0.000334299)
(0.126665 -0.000818054 -0.000336425)
(0.127069 -0.000824264 -0.000340414)
(0.127475 -0.000823289 -0.000340319)
(0.127879 -0.000807826 -0.000332847)
(0.124752 -0.000548964 -0.000624864)
(0.125149 -0.000546188 -0.000629377)
(0.125546 -0.000549157 -0.000640636)
(0.125946 -0.000553799 -0.000654613)
(0.12635 -0.000550738 -0.000659374)
(0.121561 -0.000217634 -0.000949425)
(0.121908 -0.000220385 -0.000956812)
(0.122253 -0.000229201 -0.000974225)
(0.122596 -0.000241814 -0.000996447)
(0.122943 -0.000253843 -0.00101227)
(0.123282 -0.000257257 -0.00100714)
(0.114795 0.000100755 -0.00125691)
(0.114973 8.93092e-05 -0.00125315)
(0.115149 7.41708e-05 -0.00125967)
(0.11531 5.6252e-05 -0.00126918)
(0.115478 3.70494e-05 -0.00127623)
(0.11563 2.06747e-05 -0.00126672)
(0.0994795 0.000303193 -0.00107278)
(0.099295 0.000288565 -0.00105098)
(0.0990976 0.000275745 -0.00104482)
(0.0988783 0.000263986 -0.00104151)
(0.09865 0.000252535 -0.00102878)
(0.0984165 0.00023735 -0.00100611)
(0.0625205 0.000313457 -0.000822589)
(0.0618873 0.000295092 -0.000765583)
(0.0612768 0.000274428 -0.000686601)
(0.0607092 0.000259134 -0.000628309)
(0.0601463 0.00024969 -0.000589319)
(0.0595976 0.000240412 -0.000565739)
(0.0649782 -0.000442928 0.000656944)
(0.0644415 -0.000434341 0.000626189)
(0.0639096 -0.000421508 0.000602481)
(0.0633883 -0.000402774 0.00057958)
(0.0628638 -0.000368203 0.000533019)
(0.0623665 -0.000329005 0.000472836)
(0.101602 -0.000411774 0.000954142)
(0.101546 -0.000412154 0.000930615)
(0.101489 -0.00042028 0.00091725)
(0.101419 -0.000430019 0.000907933)
(0.101353 -0.000441312 0.000901865)
(0.101269 -0.000445418 0.000878016)
(0.117394 -0.000602667 0.000928998)
(0.117669 -0.000612273 0.000922067)
(0.117944 -0.000627122 0.000918013)
(0.118218 -0.000643383 0.000912865)
(0.118498 -0.000652482 0.000896612)
(0.124747 -0.00062788 0.000545498)
(0.125144 -0.000633091 0.000542568)
(0.125541 -0.000644922 0.000545291)
(0.125941 -0.000658364 0.000547082)
(0.126341 -0.000663342 0.000538083)
(0.128178 -0.000570943 0.000181949)
(0.128612 -0.000572509 0.000181041)
(0.129048 -0.000577596 0.000181559)
(0.129487 -0.000585123 0.000181906)
(0.129927 -0.000587926 0.000178674)
(0.129161 -0.000408105 -0.000186581)
(0.129606 -0.000407701 -0.000186686)
(0.130051 -0.000409947 -0.00018794)
(0.130501 -0.000413416 -0.000189759)
(0.130951 -0.000412839 -0.000189737)
(0.128178 -0.000184911 -0.000568719)
(0.128613 -0.000184569 -0.000569948)
(0.129049 -0.00018613 -0.000574725)
(0.129489 -0.000189171 -0.000581271)
(0.12993 -0.000190513 -0.000581307)
(0.125011 6.06824e-05 -0.000958185)
(0.125396 5.75716e-05 -0.000961182)
(0.12578 5.31967e-05 -0.000970256)
(0.126168 4.69008e-05 -0.000979936)
(0.126555 3.87692e-05 -0.000975692)
(0.118314 0.000289678 -0.00133231)
(0.118545 0.000283042 -0.00133397)
(0.118774 0.000274711 -0.0013359)
(0.119001 0.000264102 -0.00133519)
(0.119232 0.000249943 -0.00132255)
(0.103501 0.000400336 -0.00126749)
(0.103363 0.000389893 -0.00124728)
(0.103223 0.000382478 -0.00123604)
(0.103073 0.000375405 -0.0012268)
(0.102926 0.000361758 -0.00119838)
(0.0673474 0.000450826 -0.000978503)
(0.0666683 0.000439243 -0.000955716)
(0.066009 0.000428487 -0.000926972)
(0.0653667 0.000420315 -0.000899785)
(0.0647359 0.000413357 -0.000881165)
(0.0641027 0.000397895 -0.000853286)
(0.0680899 -0.000473255 0.000903467)
(0.0674715 -0.000471742 0.000873634)
(0.0668671 -0.000470542 0.00084578)
(0.0662602 -0.00046827 0.00082245)
(0.0656689 -0.000461771 0.000797381)
(0.0650819 -0.000459925 0.00077937)
(0.103899 -0.000414013 0.0012307)
(0.103804 -0.000410234 0.00120922)
(0.103705 -0.000407635 0.00118761)
(0.103608 -0.000409121 0.00117345)
(0.103502 -0.000410349 0.00115796)
(0.103405 -0.000398736 0.00112135)
(0.118897 -0.000435347 0.00121095)
(0.119157 -0.000437581 0.00120931)
(0.119415 -0.000439724 0.00120653)
(0.11968 -0.000437477 0.00119231)
(0.125857 -0.00033773 0.000809417)
(0.126257 -0.000336495 0.00080934)
(0.126659 -0.000338204 0.000813361)
(0.127062 -0.000336762 0.000807445)
(0.129155 -0.000188029 0.000402947)
(0.129601 -0.000187185 0.000402982)
(0.130048 -0.000187538 0.000404592)
(0.130497 -0.00018704 0.000401483)
(0.130146 -1.94861e-06 -1.73792e-06)
(0.130602 -1.86633e-06 -1.25403e-06)
(0.13106 -1.83257e-06 -9.77731e-07)
(0.13152 -1.68416e-06 -2.11158e-06)
(0.131978 -1.66015e-06 -4.07305e-06)
(0.129159 0.000183781 -0.000406964)
(0.129604 0.000183762 -0.000405919)
(0.13005 0.00018483 -0.000407498)
(0.1305 0.00018594 -0.000409779)
(0.130948 0.000184281 -0.000406784)
(0.125862 0.000332058 -0.000815164)
(0.126261 0.000331138 -0.000813781)
(0.126662 0.000333087 -0.000817421)
(0.127066 0.000334885 -0.000820308)
(0.12747 0.000329968 -0.000809874)
(0.118901 0.000428972 -0.00121982)
(0.119162 0.000429749 -0.00121701)
(0.119422 0.000432345 -0.00121579)
(0.119688 0.000434742 -0.00121222)
(0.119953 0.000430261 -0.00119467)
(0.103897 0.00040993 -0.00123843)
(0.103804 0.00040442 -0.0012172)
(0.103708 0.000401014 -0.00119814)
(0.103613 0.000400909 -0.00118398)
(0.103517 0.000391623 -0.00115509)
(0.0680701 0.000468913 -0.000910071)
(0.0674501 0.000466397 -0.00088249)
(0.0668424 0.000464699 -0.000857182)
(0.0662327 0.000463766 -0.000838577)
(0.0656392 0.000459149 -0.000816168)
(0.0680615 -0.000466851 0.000996873)
(0.0673709 -0.000456386 0.00097424)
(0.0666923 -0.000446841 0.00094697)
(0.0660428 -0.000437724 0.000915815)
(0.0653961 -0.000429881 0.000888082)
(0.0647726 -0.000420986 0.000870664)
(0.103642 -0.000416404 0.00128017)
(0.103505 -0.000406622 0.00125822)
(0.103368 -0.00039985 0.00124408)
(0.103223 -0.000393745 0.0012286)
(0.103074 -0.000389212 0.00121483)
(0.102925 -0.000379802 0.00118863)
(0.118082 -0.000303279 0.001325)
(0.118315 -0.000297809 0.00132548)
(0.118546 -0.000291477 0.00132689)
(0.118772 -0.000283224 0.00132725)
(0.119003 -0.000274105 0.00132618)
(0.119229 -0.000263093 0.00131356)
(0.124625 -6.98081e-05 0.000951824)
(0.125008 -6.67527e-05 0.00095428)
(0.125391 -6.25003e-05 0.000960035)
(0.125775 -5.74028e-05 0.00096943)
(0.126162 -5.10489e-05 0.000975684)
(0.126546 -4.47426e-05 0.000966379)
(0.127738 0.000180619 0.000562328)
(0.128172 0.000180472 0.000564905)
(0.128606 0.000181727 0.000570174)
(0.129041 0.000184007 0.000577232)
(0.12948 0.000187035 0.000583154)
(0.129917 0.000187541 0.000580771)
(0.129155 0.000403033 0.000183105)
(0.1296 0.000402599 0.000185445)
(0.130047 0.000404638 0.000188429)
(0.130496 0.000407187 0.000190494)
(0.130943 0.000404249 0.000189118)
(0.128178 0.000565817 -0.000184736)
(0.128612 0.000566844 -0.000183276)
(0.129047 0.00057146 -0.000183554)
(0.129487 0.000577425 -0.000184929)
(0.129926 0.000575634 -0.000183637)
(0.124753 0.000621383 -0.000549201)
(0.125149 0.0006261 -0.000546052)
(0.125546 0.00063734 -0.000548519)
(0.125948 0.000650233 -0.000551458)
(0.126348 0.000650483 -0.000543326)
(0.117402 0.000594928 -0.000933512)
(0.117679 0.000605477 -0.000928686)
(0.117955 0.000620757 -0.00092546)
(0.118233 0.000638683 -0.0009213)
(0.118511 0.000645377 -0.000904379)
(0.101595 0.000407564 -0.000961323)
(0.10154 0.00040744 -0.000936607)
(0.101485 0.000416605 -0.000925131)
(0.101418 0.000429007 -0.000920693)
(0.101351 0.000427215 -0.000896573)
(0.0649637 0.000438749 -0.000660513)
(0.0644247 0.000431234 -0.0006326)
(0.0638903 0.000417189 -0.000609655)
(0.0633641 0.000399073 -0.000590691)
(0.0628459 0.00036511 -0.000545063)
(0.063183 -0.00033062 0.000840283)
(0.0625339 -0.000319169 0.000820092)
(0.0619063 -0.000303137 0.000760721)
(0.0613036 -0.000284998 0.000680303)
(0.0607351 -0.00027097 0.000622367)
(0.060183 -0.000260843 0.000587068)
(0.0996685 -0.000324126 0.00107852)
(0.0994908 -0.000311791 0.0010631)
(0.0993039 -0.000300101 0.00105093)
(0.0991061 -0.000289589 0.00104266)
(0.0988846 -0.000279938 0.00103956)
(0.0986629 -0.000269046 0.00101328)
(0.114613 -0.000119074 0.00124435)
(0.114799 -0.000109668 0.00124249)
(0.114979 -9.74239e-05 0.00124747)
(0.11515 -8.24347e-05 0.00125475)
(0.115318 -6.61859e-05 0.00126809)
(0.115475 -5.20622e-05 0.00126342)
(0.121212 0.000210836 0.000936791)
(0.12156 0.000212589 0.000944922)
(0.121905 0.000217751 0.000957739)
(0.122247 0.00022642 0.000976164)
(0.122592 0.000236508 0.000995746)
(0.12293 0.000239439 0.000995833)
(0.124352 0.000548798 0.0006166)
(0.124746 0.000545515 0.000622462)
(0.12514 0.000544471 0.000631332)
(0.125535 0.000546076 0.000643768)
(0.125935 0.000548 0.000656893)
(0.126332 0.000539539 0.000657439)
(0.125859 0.0008107 0.000331751)
(0.126256 0.00080884 0.000333441)
(0.126655 0.000810834 0.000336962)
(0.127059 0.000813401 0.000340453)
(0.12746 0.000802505 0.000337152)
(0.125013 0.000953439 6.05566e-05)
(0.125397 0.000955422 5.88351e-05)
(0.12578 0.000964022 5.60323e-05)
(0.126167 0.000972904 5.14595e-05)
(0.126552 0.000965792 4.65139e-05)
(0.121565 0.000944648 -0.000218105)
(0.121911 0.000952021 -0.000220568)
(0.122256 0.000969765 -0.000228929)
(0.122601 0.000990773 -0.0002401)
(0.122944 0.000991826 -0.000243619)
(0.113809 0.000827671 -0.00055805)
(0.11404 0.000838863 -0.000553013)
(0.114269 0.000862506 -0.000557194)
(0.114487 0.000894308 -0.000567335)
(0.114702 0.000905666 -0.00056381)
(0.0966964 0.000473895 -0.000619745)
(0.0965972 0.000476868 -0.000604732)
(0.0964884 0.000494612 -0.000606936)
(0.0963574 0.000518859 -0.000618172)
(0.0962187 0.000519482 -0.000606955)
(0.0586091 0.000241426 -0.000304363)
(0.0581558 0.00022795 -0.000291796)
(0.0576999 0.000213397 -0.000282738)
(0.0572629 0.000198065 -0.000277912)
(0.0568248 0.000183747 -0.000278029)
(0.0542687 -0.000111319 0.000458148)
(0.0537433 -0.000105674 0.00044524)
(0.0532217 -0.000102271 0.00042782)
(0.052721 -0.000100635 0.000402948)
(0.052224 -9.94343e-05 0.000376805)
(0.0517536 -0.000100301 0.00035237)
(0.0901211 -7.5177e-05 0.00076876)
(0.0898316 -7.18145e-05 0.000749262)
(0.0895331 -6.47044e-05 0.000747777)
(0.0892262 -5.63719e-05 0.000752757)
(0.0889032 -4.86278e-05 0.000759687)
(0.0885728 -4.41003e-05 0.000754094)
(0.106282 0.000204188 0.00102675)
(0.106347 0.000204326 0.00102402)
(0.106401 0.000214056 0.00104089)
(0.10643 0.000225648 0.00105842)
(0.106452 0.000236259 0.00107341)
(0.106461 0.000241436 0.00107471)
(0.113566 0.000556388 0.000817038)
(0.113802 0.000547383 0.000825695)
(0.114036 0.00054671 0.000845075)
(0.114255 0.000549725 0.000869355)
(0.114477 0.000557023 0.000897832)
(0.114685 0.00055428 0.00091033)
(0.117121 0.000934175 0.000587942)
(0.117398 0.000926438 0.000596797)
(0.117673 0.000920673 0.00060948)
(0.117947 0.000915664 0.000625346)
(0.118224 0.000912036 0.000643504)
(0.118498 0.000896141 0.000651623)
(0.118901 0.0012091 0.000425967)
(0.119161 0.00120622 0.000429087)
(0.119421 0.00120481 0.000434214)
(0.119684 0.00120077 0.000438254)
(0.119947 0.00118235 0.000435432)
(0.118316 0.00132465 0.000287487)
(0.118545 0.00132514 0.000281777)
(0.118774 0.00132574 0.0002753)
(0.119002 0.00132409 0.000266347)
(0.11923 0.00130962 0.000254576)
(0.114796 0.00125074 9.96883e-05)
(0.114974 0.00124663 8.84829e-05)
(0.115149 0.00125173 7.40123e-05)
(0.115314 0.00126255 5.64787e-05)
(0.115476 0.00125484 4.10811e-05)
(0.106342 0.0010298 -0.000216567)
(0.106396 0.00103315 -0.000221956)
(0.106435 0.00105267 -0.000235654)
(0.106454 0.00107579 -0.000252378)
(0.106461 0.00107162 -0.000257516)
(0.0871077 0.000562061 -0.00035413)
(0.0868282 0.000556456 -0.000351305)
(0.0865342 0.000564467 -0.000357287)
(0.0862338 0.000581108 -0.000370142)
(0.0859202 0.000572867 -0.000369157)
(0.0492038 0.000170013 -0.00017804)
(0.0487915 0.000157368 -0.000173558)
(0.0483804 0.000147924 -0.000170114)
(0.04799 0.000139428 -0.000169291)
(0.0476025 0.000124197 -0.000169293)
(0.039214 4.78178e-05 0.0002043)
(0.038835 4.48257e-05 0.000195373)
(0.0384655 3.85237e-05 0.000189607)
(0.0381083 2.98473e-05 0.000184676)
(0.0377516 2.17379e-05 0.000178546)
(0.0374143 1.38233e-05 0.000169361)
(0.0691242 0.000113253 0.000306182)
(0.0686762 0.000109781 0.000296442)
(0.0682192 0.000108613 0.000297476)
(0.0677899 0.000108249 0.000304944)
(0.0673404 0.00010911 0.000315949)
(0.0669096 0.000106364 0.000317895)
(0.0873965 0.00034197 0.000556813)
(0.087135 0.000337922 0.000555772)
(0.0868546 0.000342397 0.000566694)
(0.0865726 0.000348058 0.000577213)
(0.0862664 0.000352161 0.000583406)
(0.0859601 0.000352069 0.000581359)
(0.0968005 0.000624625 0.000467326)
(0.096713 0.000605849 0.000470926)
(0.0966172 0.000601363 0.000486791)
(0.0965014 0.000600995 0.000503444)
(0.0963759 0.000602302 0.000519544)
(0.0962394 0.000593444 0.000525857)
(0.101653 0.000973639 0.000408362)
(0.101603 0.000950736 0.000406946)
(0.10155 0.000929871 0.000410036)
(0.101491 0.000917308 0.000419841)
(0.101426 0.000909732 0.000431134)
(0.10136 0.000883493 0.000429493)
(0.103906 0.0012253 0.000406783)
(0.103814 0.00120508 0.000402919)
(0.103719 0.00118983 0.000402879)
(0.103622 0.00117248 0.000402413)
(0.103528 0.00113889 0.000392107)
(0.10351 0.00126028 0.000399379)
(0.103374 0.00123922 0.000388815)
(0.103235 0.00122689 0.000381619)
(0.103087 0.00121616 0.000374786)
(0.10294 0.00118544 0.000361527)
(0.0994848 0.00106797 0.000301519)
(0.0993034 0.00104617 0.000286806)
(0.0991069 0.00103809 0.000273708)
(0.0988923 0.00103714 0.000261881)
(0.0986669 0.00101098 0.000249148)
(0.0898233 0.000755304 5.78695e-05)
(0.0895259 0.000747392 4.92926e-05)
(0.0892101 0.00074866 3.91241e-05)
(0.0888947 0.000757263 2.884e-05)
(0.0885606 0.00075041 2.29242e-05)
(0.0686601 0.000299714 -0.000125298)
(0.0682068 0.000291347 -0.000123762)
(0.0677569 0.00029613 -0.000125116)
(0.0673146 0.000310022 -0.00012905)
(0.0668792 0.000311712 -0.000128204)
(0.0364911 1.01572e-05 -6.8325e-05)
(0.0361675 7.63652e-06 -6.71601e-05)
(0.0358576 1.1141e-05 -6.75871e-05)
(0.0355464 1.58143e-05 -6.97615e-05)
(0.035245 1.27778e-05 -6.98908e-05)
(0.0232949 3.88533e-05 1.12683e-05)
(0.0230546 3.68623e-05 1.02251e-05)
(0.022822 3.36168e-05 1.11108e-05)
(0.0225939 2.95625e-05 1.25712e-05)
(0.0223633 2.60542e-05 1.3669e-05)
(0.0221438 2.27392e-05 1.36034e-05)
(0.03684 6.36682e-05 1.75714e-05)
(0.0365103 6.14273e-05 1.50797e-05)
(0.036191 6.03869e-05 1.79097e-05)
(0.0358822 6.04768e-05 2.25154e-05)
(0.0355673 6.07332e-05 2.469e-05)
(0.0352683 5.98452e-05 2.31363e-05)
(0.0496512 0.000177497 0.000183056)
(0.0492363 0.000171088 0.000172718)
(0.0488194 0.000165485 0.000163855)
(0.0484323 0.000161489 0.00015596)
(0.0591068 0.000321256 0.00025716)
(0.0586552 0.000298471 0.00024278)
(0.0582006 0.000282704 0.000228384)
(0.0577703 0.000272016 0.000214287)
(0.0573231 0.000266507 0.000203027)
(0.0655532 0.000695342 0.000447732)
(0.0650085 0.000655835 0.00043758)
(0.0644768 0.000623782 0.000425798)
(0.0639526 0.000596508 0.000411979)
(0.0634332 0.000579957 0.000400754)
(0.0681097 0.000903506 0.000468981)
(0.0674958 0.000873875 0.000462572)
(0.0668926 0.000847175 0.000459811)
(0.0662967 0.000821858 0.00045737)
(0.0657078 0.000805101 0.000457656)
(0.0673818 0.0009712 0.000450472)
(0.0667088 0.000947541 0.000436906)
(0.0660551 0.000918333 0.000423979)
(0.0654209 0.000888111 0.000414778)
(0.064799 0.000868657 0.000407972)
(0.0625483 0.000820413 0.000311993)
(0.0619196 0.000763811 0.000293405)
(0.0613147 0.000684028 0.000271235)
(0.0607491 0.00062452 0.000254595)
(0.0602008 0.000585012 0.000243526)
(0.0537433 0.000446549 9.58126e-05)
(0.0532233 0.000428443 9.095e-05)
(0.0527193 0.000404039 8.69367e-05)
(0.0522243 0.000377403 8.42009e-05)
(0.0517569 0.000350443 8.3744e-05)
(0.0388289 0.000197781 -5.57531e-05)
(0.0384566 0.000189582 -5.12969e-05)
(0.0381004 0.000183754 -4.433e-05)
(0.0377471 0.000178878 -3.70194e-05)
(0.0374105 0.000169374 -3.00659e-05)
(0.0230438 8.35699e-06 -4.29449e-05)
(0.0228099 7.5718e-06 -4.0664e-05)
(0.0225855 8.69167e-06 -3.74028e-05)
(0.0223579 1.04672e-05 -3.44586e-05)
(0.0221366 9.93937e-06 -3.17928e-05)
)
;

boundaryField
{
    inlet
    {
        type            fixedValue;
        value           nonuniform List<vector> 0();
    }
    ami1
    {
        type            cyclicAMI;
        value           nonuniform List<vector> 0();
    }
    walls
    {
        type            noSlip;
    }
    ami2
    {
        type            cyclicAMI;
        value           nonuniform List<vector> 0();
    }
    outlet
    {
        type            zeroGradient;
    }
    procBoundary5to6
    {
        type            processor;
        value           nonuniform List<vector> 
177
(
(0.0219043 -1.1492e-05 2.5633e-05)
(0.0219043 -1.1492e-05 2.5633e-05)
(0.0370396 -0.000163883 1.78256e-05)
(0.0512299 -0.000339335 -9.03863e-05)
(0.0512299 -0.000339335 -9.03863e-05)
(0.0512299 -0.000339335 -9.03863e-05)
(0.0590216 -0.00054806 -0.000235577)
(0.063469 -0.00078669 -0.000384625)
(0.063469 -0.00078669 -0.000384625)
(0.0638564 -0.00067407 -0.000413523)
(0.103331 -0.00109592 -0.000385201)
(0.0613179 -0.000406009 -0.000295547)
(0.101186 -0.000852359 -0.000447452)
(0.0554459 -0.00028183 -0.000173687)
(0.0464142 -0.000168655 -9.92531e-05)
(0.0346319 -6.53213e-05 -1.25633e-05)
(0.0346319 -6.53213e-05 -1.25633e-05)
(0.0346319 -6.53213e-05 -1.25633e-05)
(0.0216983 -2.39992e-05 -1.06162e-05)
(0.0346492 -9.70357e-06 6.15324e-05)
(0.066413 -0.00031749 0.000115985)
(0.0346492 -9.70357e-06 6.15324e-05)
(0.066413 -0.00031749 0.000115985)
(0.066413 -0.00031749 0.000115985)
(0.066413 -0.00031749 0.000115985)
(0.0878418 -0.000732963 -2.42747e-05)
(0.0981814 -0.000987345 -0.000228588)
(0.102633 -0.00114964 -0.000342425)
(0.103331 -0.00109592 -0.000385201)
(0.101186 -0.000852359 -0.000447452)
(0.101186 -0.000852359 -0.000447452)
(0.0957203 -0.000574636 -0.00054195)
(0.115112 -0.000561855 -0.000931049)
(0.0848869 -0.000350646 -0.000550036)
(0.106441 -0.0002652 -0.0010685)
(0.065499 -0.000112181 -0.000305301)
(0.0367324 -1.28355e-05 -0.000153293)
(0.0367324 -1.28355e-05 -0.000153293)
(0.0464675 -8.17546e-05 0.000157602)
(0.0852736 -0.000553075 0.000349504)
(0.0852736 -0.000553075 0.000349504)
(0.0852736 -0.000553075 0.000349504)
(0.106448 -0.00107176 0.000257836)
(0.115777 -0.00125461 -2.18607e-05)
(0.119684 -0.0013028 -0.000236805)
(0.120487 -0.00116629 -0.000431741)
(0.119063 -0.00087696 -0.000665912)
(0.126755 -0.000541851 -0.000657125)
(0.115112 -0.000561855 -0.000931049)
(0.106441 -0.0002652 -0.0010685)
(0.106441 -0.0002652 -0.0010685)
(0.0874664 1.2454e-05 -0.000719357)
(0.0507901 8.96232e-05 -0.000318421)
(0.0981823 0.000217419 -0.00097684)
(0.0507901 8.96232e-05 -0.000318421)
(0.0555038 -0.000161892 0.000274109)
(0.0618655 -0.000309301 0.000432244)
(0.0957439 -0.000533182 0.000556985)
(0.115099 -0.000925966 0.000548316)
(0.101193 -0.000444584 0.000842453)
(0.115099 -0.000925966 0.000548316)
(0.118775 -0.000661891 0.00088028)
(0.12362 -0.000994776 0.000240208)
(0.126746 -0.000661079 0.000526002)
(0.12733 -0.000958629 -3.9842e-05)
(0.130369 -0.000584323 0.000175936)
(0.128285 -0.000788867 -0.000325602)
(0.126755 -0.000541851 -0.000657125)
(0.131401 -0.000407653 -0.000187977)
(0.126755 -0.000541851 -0.000657125)
(0.126755 -0.000541851 -0.000657125)
(0.123627 -0.000253209 -0.000991558)
(0.126945 3.23042e-05 -0.000963177)
(0.115785 1.1316e-05 -0.00124682)
(0.119462 0.000236975 -0.00131022)
(0.0981823 0.000217419 -0.00097684)
(0.102783 0.000345184 -0.00117055)
(0.0590463 0.000222793 -0.000549402)
(0.0618655 -0.000309301 0.000432244)
(0.101193 -0.000444584 0.000842453)
(0.118775 -0.000661891 0.00088028)
(0.118775 -0.000661891 0.00088028)
(0.119946 -0.000437737 0.00117934)
(0.126746 -0.000661079 0.000526002)
(0.12747 -0.000334322 0.000795829)
(0.130369 -0.000584323 0.000175936)
(0.13095 -0.000186393 0.000395309)
(0.131401 -0.000407653 -0.000187977)
(0.130371 -0.00018897 -0.000577111)
(0.126945 3.23042e-05 -0.000963177)
(0.119462 0.000236975 -0.00131022)
(0.102783 0.000345184 -0.00117055)
(0.102783 0.000345184 -0.00117055)
(0.0635009 0.00036583 -0.000792875)
(0.0650369 0.000450944 -0.000793584)
(0.0644903 -0.00045612 0.000754958)
(0.0641415 -0.000410673 0.000847749)
(0.119946 -0.000437737 0.00117934)
(0.103324 -0.000386901 0.00108845)
(0.120215 -0.00044214 0.00117794)
(0.102783 -0.000364344 0.00115723)
(0.119946 -0.000437737 0.00117934)
(0.119946 -0.000437737 0.00117934)
(0.12747 -0.000334322 0.000795829)
(0.12747 -0.000334322 0.000795829)
(0.13095 -0.000186393 0.000395309)
(0.13095 -0.000186393 0.000395309)
(0.13095 -0.000186393 0.000395309)
(0.132434 -1.92695e-06 -3.29711e-06)
(0.131395 0.000181648 -0.00040053)
(0.127876 0.000322981 -0.000793237)
(0.120223 0.000425254 -0.00117604)
(0.10343 0.000377834 -0.00112235)
(0.0650369 0.000450944 -0.000793584)