/*--------------------------------*- C++ -*----------------------------------*\
| =========                 |                                                 |
| \\      /  F ield         | OpenFOAM: The Open Source CFD Toolbox           |
|  \\    /   O peration     | Version:  2212                                  |
|   \\  /    A nd           | Website:  www.openfoam.com                      |
|    \\/     M anipulation  |                                                 |
\*---------------------------------------------------------------------------*/
FoamFile
{
    version     2.0;
    format      ascii;
    arch        "LSB;label=32;scalar=64";
    class       surfaceVectorField;
    location    "2";
    object      Uf;
}
// * * * * * * * * * * * * * * * * * * * * * * * * * * * * * * * * * * * * * //

dimensions      [0 1 -1 0 0 0 0];

internalField   nonuniform List<vector> 
1755
(
(0.0229165 -9.63449e-06 3.7617e-05)
(0.0293431 -9.53703e-05 4.92544e-05)
(0.0284131 8.54741e-06 4.64677e-05)
(0.0226894 -9.86199e-06 3.47585e-05)
(0.0290543 -9.10385e-05 4.5557e-05)
(0.0281445 8.33585e-06 4.44476e-05)
(0.022463 -1.13229e-05 3.18187e-05)
(0.0287738 -8.91678e-05 4.07389e-05)
(0.0278838 4.23636e-06 4.29932e-05)
(0.0222343 -1.22332e-05 2.92678e-05)
(0.0284976 -8.79144e-05 3.62418e-05)
(0.0276249 -4.26092e-07 4.23415e-05)
(0.0282231 -8.53209e-05 3.2289e-05)
(0.0273655 -2.39554e-06 4.17659e-05)
(0.0386211 -0.00019443 4.58324e-05)
(0.0454472 -0.00030974 -1.94388e-05)
(0.0520158 -0.000191294 7.80213e-05)
(0.038259 -0.000187337 4.01501e-05)
(0.045009 -0.000295219 -2.12152e-05)
(0.051609 -0.000185541 7.43656e-05)
(0.037903 -0.000182186 3.35512e-05)
(0.0445776 -0.000279783 -2.43449e-05)
(0.0512042 -0.000189948 7.13598e-05)
(0.0375506 -0.000176693 2.72738e-05)
(0.0441666 -0.000263907 -2.8007e-05)
(0.0508177 -0.000197946 6.94406e-05)
(0.0437572 -0.000250054 -3.10787e-05)
(0.0504239 -0.000199584 6.63269e-05)
(0.0534462 -0.000439456 -0.000100432)
(0.0578185 -0.000623264 -0.000203933)
(0.0703116 -0.000540602 -8.10357e-05)
(0.0529318 -0.000418479 -9.54008e-05)
(0.0572456 -0.000587863 -0.000190288)
(0.0698926 -0.000528919 -7.49863e-05)
(0.0524301 -0.000392868 -9.19788e-05)
(0.0566841 -0.000539421 -0.000176652)
(0.0694681 -0.000523634 -6.81581e-05)
(0.0519401 -0.000368246 -8.99905e-05)
(0.0561614 -0.000498954 -0.000167239)
(0.06906 -0.000516419 -6.23236e-05)
(0.0556367 -0.000470021 -0.000161647)
(0.0686392 -0.00050769 -5.81547e-05)
(0.0621764 -0.000794215 -0.000307603)
(0.0648193 -0.000891517 -0.000394768)
(0.0798102 -0.000889969 -0.000302866)
(0.0615596 -0.00072575 -0.00028734)
(0.0641668 -0.000851791 -0.000375773)
(0.0793879 -0.000853228 -0.0002866)
(0.0609711 -0.00065751 -0.000269339)
(0.0635317 -0.000798665 -0.00035729)
(0.0789709 -0.000811442 -0.000269997)
(0.0604031 -0.000610427 -0.000256633)
(0.0629326 -0.000756725 -0.000344367)
(0.0785687 -0.000780178 -0.000256715)
(0.0598453 -0.000581525 -0.000247477)
(0.0623308 -0.000729673 -0.000334469)
(0.0781606 -0.000760806 -0.000246522)
(0.061751 -0.000705343 -0.000323029)
(0.0777633 -0.000744703 -0.000236907)
(0.0669748 -0.000966779 -0.00045055)
(0.0676711 -0.000944519 -0.000466248)
(0.0844014 -0.00107302 -0.000418756)
(0.06631 -0.000939999 -0.000439402)
(0.0670243 -0.000916195 -0.000462935)
(0.0839796 -0.00105193 -0.000408371)
(0.0656596 -0.000911867 -0.000430357)
(0.0663886 -0.000886518 -0.000460155)
(0.0835649 -0.00102988 -0.000399069)
(0.0650208 -0.000888906 -0.000423272)
(0.0657688 -0.000862996 -0.00045762)
(0.0831584 -0.00101016 -0.000391686)
(0.0643896 -0.000864806 -0.000413744)
(0.0651438 -0.000842054 -0.000451417)
(0.082751 -0.000997759 -0.000385285)
(0.0645414 -0.000815666 -0.000440354)
(0.0823571 -0.000975889 -0.000374451)
(0.0677285 -0.000894646 -0.000476023)
(0.0664721 -0.000784715 -0.000457401)
(0.0850152 -0.00102736 -0.000430525)
(0.0671151 -0.000866996 -0.000474338)
(0.0658924 -0.000756131 -0.00045302)
(0.0846445 -0.00100465 -0.000428651)
(0.0665071 -0.000844616 -0.000473144)
(0.0653183 -0.000731543 -0.000443509)
(0.0842783 -0.000983835 -0.000427577)
(0.0659018 -0.000823667 -0.000470525)
(0.0647554 -0.00071168 -0.000431621)
(0.0839148 -0.000965953 -0.000426656)
(0.0653004 -0.000799372 -0.00046486)
(0.0641861 -0.000675264 -0.000412224)
(0.0835495 -0.000950237 -0.000425588)
(0.0647104 -0.000769703 -0.000455206)
(0.0636429 -0.000629779 -0.000391505)
(0.0831963 -0.000927773 -0.00042073)
(0.0630956 -0.000591254 -0.000377574)
(0.0646691 -0.000645839 -0.000442695)
(0.0616545 -0.000473566 -0.000348436)
(0.0822492 -0.0007736 -0.000413354)
(0.064132 -0.000619444 -0.000432755)
(0.0611576 -0.000452896 -0.000338856)
(0.0819381 -0.000748369 -0.000411163)
(0.0635997 -0.00059613 -0.000415897)
(0.0606595 -0.000436415 -0.000324399)
(0.0816275 -0.000730389 -0.000408758)
(0.0630716 -0.000560798 -0.000387921)
(0.0601824 -0.000422331 -0.000307369)
(0.0813197 -0.00071559 -0.000404124)
(0.0625532 -0.000505466 -0.000348964)
(0.0596931 -0.000398028 -0.000284177)
(0.0810076 -0.000692014 -0.000394018)
(0.0620506 -0.00045409 -0.000317322)
(0.0592211 -0.000369533 -0.00025665)
(0.0807084 -0.000655196 -0.00037807)
(0.0587525 -0.000352365 -0.000244389)
(0.0583617 -0.000296518 -0.000238389)
(0.0535837 -0.000237188 -0.000198008)
(0.0764309 -0.000438641 -0.000345018)
(0.0579094 -0.000285019 -0.000225209)
(0.0531501 -0.000228373 -0.000185221)
(0.076142 -0.000423778 -0.000339277)
(0.0574603 -0.000277053 -0.000211131)
(0.0527144 -0.000221764 -0.000174176)
(0.0758459 -0.000418179 -0.000339712)
(0.0570131 -0.000273114 -0.000197598)
(0.0523055 -0.00021787 -0.000162892)
(0.0755546 -0.000417061 -0.000340863)
(0.0565668 -0.000273391 -0.000186008)
(0.0518803 -0.000217268 -0.000150651)
(0.0752473 -0.000418989 -0.000343116)
(0.0561201 -0.000276805 -0.000178411)
(0.0514654 -0.000219413 -0.0001405)
(0.0749397 -0.000425534 -0.000350523)
(0.0510608 -0.000222224 -0.000131785)
(0.0746239 -0.000421862 -0.000347532)
(0.048975 -0.000174467 -0.000165528)
(0.0421361 -0.000115654 -0.000106387)
(0.0666188 -0.000242311 -0.000338302)
(0.048567 -0.000170025 -0.000155105)
(0.0417725 -0.000112433 -9.83133e-05)
(0.0662661 -0.000237704 -0.000328838)
(0.0481642 -0.00016712 -0.00014675)
(0.0414141 -0.000110883 -9.5581e-05)
(0.0659051 -0.000239309 -0.000329471)
(0.0477655 -0.000166213 -0.000137482)
(0.0410716 -0.000110854 -9.27195e-05)
(0.0655593 -0.000242667 -0.000330713)
(0.0473725 -0.000167345 -0.000127108)
(0.0407199 -0.000111379 -8.67364e-05)
(0.0651933 -0.000245378 -0.000327519)
(0.0469826 -0.00016902 -0.000115945)
(0.0403772 -0.000112512 -7.98847e-05)
(0.0648347 -0.000249127 -0.000323895)
(0.0644743 -0.000243201 -0.000304793)
(0.0363099 -6.6516e-05 -1.037e-05)
(0.0284071 -4.96915e-05 1.04962e-05)
(0.0507114 -8.65496e-05 -0.000133651)
(0.0359977 -6.57225e-05 -1.14737e-05)
(0.0281379 -4.74317e-05 1.02971e-05)
(0.050331 -8.41586e-05 -0.000128059)
(0.0356867 -6.65592e-05 -1.60986e-05)
(0.0278769 -4.5604e-05 5.81514e-06)
(0.0499526 -8.57998e-05 -0.00013433)
(0.0353739 -6.76461e-05 -1.9202e-05)
(0.0276188 -4.44083e-05 8.03457e-07)
(0.0495902 -8.86452e-05 -0.0001438)
(0.0350664 -6.81471e-05 -1.93992e-05)
(0.0273583 -4.31532e-05 -1.96508e-06)
(0.0492164 -8.95007e-05 -0.000148658)
(0.0271034 -4.18578e-05 -3.23265e-06)
(0.0488501 -8.92894e-05 -0.000151259)
(0.0229133 -4.0557e-05 -8.51539e-06)
(0.0293409 -5.34989e-05 -9.4705e-05)
(0.0226863 -3.73397e-05 -8.86552e-06)
(0.0290524 -4.93713e-05 -9.02781e-05)
(0.0224603 -3.38786e-05 -1.05133e-05)
(0.0287723 -4.38099e-05 -8.84591e-05)
(0.0222322 -3.07196e-05 -1.16802e-05)
(0.0284974 -3.84896e-05 -8.72322e-05)
(0.0220092 -2.79213e-05 -1.21054e-05)
(0.0282227 -3.37524e-05 -8.4679e-05)
(0.0279557 -2.91343e-05 -8.14397e-05)
(0.036321 -1.3214e-05 6.31219e-05)
(0.0507197 -0.000135836 8.09063e-05)
(0.0421492 -0.000108223 0.00011199)
(0.0360095 -1.41822e-05 6.25739e-05)
(0.050341 -0.000130472 7.87988e-05)
(0.0417879 -0.000100895 0.000109051)
(0.0356994 -1.8228e-05 6.37816e-05)
(0.0499638 -0.000136154 8.08374e-05)
(0.0414313 -9.78923e-05 0.000107752)
(0.0353867 -2.07417e-05 6.55414e-05)
(0.0496015 -0.00014598 8.47809e-05)
(0.0410895 -9.43379e-05 0.00010819)
(0.0350786 -1.89744e-05 6.58632e-05)
(0.0492286 -0.000149124 8.61316e-05)
(0.0407403 -8.92426e-05 0.000110009)
(0.0404014 -8.00317e-05 0.000110918)
(0.0684146 -0.000300211 0.000114711)
(0.0784426 -0.000535778 5.24901e-05)
(0.0771926 -0.000459477 0.000218781)
(0.067966 -0.000298182 0.000114318)
(0.0780617 -0.000523274 5.31e-05)
(0.0768211 -0.000450749 0.000216337)
(0.0675198 -0.000307675 0.000117036)
(0.0776697 -0.000525829 5.61594e-05)
(0.0764378 -0.000454209 0.000220522)
(0.0670739 -0.000317339 0.000119235)
(0.0772914 -0.000534399 6.04368e-05)
(0.0760692 -0.000462879 0.00022748)
(0.0768894 -0.000537152 6.32215e-05)
(0.0756771 -0.000465326 0.000230362)
(0.0896589 -0.000754522 -6.35993e-05)
(0.0944119 -0.000907475 -0.000185394)
(0.0976139 -0.000928822 5.59889e-05)
(0.0893544 -0.000750542 -5.43836e-05)
(0.0941674 -0.000891822 -0.000172404)
(0.0974804 -0.000921137 6.26099e-05)
(0.0890372 -0.000757128 -4.35409e-05)
(0.0939089 -0.000892506 -0.000159265)
(0.0973338 -0.000928269 7.61183e-05)
(0.0887079 -0.000762013 -3.426e-05)
(0.0936395 -0.000894767 -0.000147276)
(0.0971733 -0.000937523 8.93046e-05)
(0.0883664 -0.00075786 -2.80814e-05)
(0.0933516 -0.000892511 -0.000137104)
(0.0969967 -0.000944575 9.94161e-05)
(0.0930657 -0.000878728 -0.000128039)
(0.0968174 -0.000938705 0.000103174)
(0.0993805 -0.00106135 -0.000302758)
(0.10143 -0.00116764 -0.000359499)
(0.10678 -0.00120086 -0.000224765)
(0.0991898 -0.00104742 -0.000288931)
(0.101267 -0.00114579 -0.000347524)
(0.106769 -0.00118588 -0.000211373)
(0.0989812 -0.00104187 -0.000276344)
(0.101098 -0.0011356 -0.000337043)
(0.106749 -0.00118285 -0.000196647)
(0.0987594 -0.00103563 -0.000264454)
(0.100913 -0.00112698 -0.000326883)
(0.106713 -0.00118281 -0.000181523)
(0.0985289 -0.00102269 -0.000251949)
(0.100724 -0.0011177 -0.000316785)
(0.106672 -0.0011834 -0.000166653)
(0.100536 -0.00109679 -0.00030257)
(0.106624 -0.00116949 -0.000152854)
(0.103426 -0.00125996 -0.000402716)
(0.103691 -0.00125398 -0.000413553)
(0.110603 -0.00134319 -0.000369517)
(0.103285 -0.00124211 -0.000393622)
(0.103574 -0.0012324 -0.00040676)
(0.11064 -0.00133201 -0.000360914)
(0.103139 -0.00122857 -0.00038581)
(0.103456 -0.00121607 -0.000401472)
(0.110677 -0.00132532 -0.000353121)
(0.102991 -0.00121653 -0.000377894)
(0.103333 -0.00119918 -0.000395595)
(0.110706 -0.00131903 -0.000344484)
(0.102845 -0.00119841 -0.000367341)
(0.103212 -0.00118676 -0.000391831)
(0.110741 -0.00131196 -0.000335204)
(0.103093 -0.00115972 -0.000382745)
(0.110773 -0.00128906 -0.000321694)
(0.103845 -0.00122834 -0.000413377)
(0.10273 -0.00109924 -0.000410494)
(0.111101 -0.00127053 -0.00044253)
(0.103749 -0.00120847 -0.000410011)
(0.102656 -0.00107595 -0.000407204)
(0.111177 -0.00125737 -0.000440026)
(0.103652 -0.0011884 -0.000407361)
(0.10258 -0.00106057 -0.000411575)
(0.111253 -0.00124686 -0.000440446)
(0.103558 -0.00117103 -0.000405798)
(0.102499 -0.0010455 -0.000415722)
(0.111328 -0.00123409 -0.000440675)
(0.103464 -0.00115025 -0.00040242)
(0.102418 -0.00103631 -0.000420644)
(0.111409 -0.00122355 -0.000442036)
(0.102334 -0.00101237 -0.000418627)
(0.111486 -0.00119788 -0.000435619)
(0.101562 -0.000946261 -0.000411723)
(0.0990729 -0.000785375 -0.000441699)
(0.10917 -0.000983015 -0.000521735)
(0.101505 -0.000927329 -0.000416381)
(0.0989954 -0.000763711 -0.000444051)
(0.109275 -0.00096634 -0.000525868)
(0.101444 -0.000917108 -0.000426837)
(0.098912 -0.000758408 -0.000459605)
(0.109379 -0.000958157 -0.000538008)
(0.101378 -0.00090958 -0.00043872)
(0.0988131 -0.000756654 -0.000476974)
(0.109475 -0.000950478 -0.000552023)
(0.101305 -0.000895947 -0.000447855)
(0.0987059 -0.000754036 -0.000494833)
(0.109574 -0.000941793 -0.000565817)
(0.0985921 -0.000748024 -0.000515345)
(0.109666 -0.000920432 -0.000570591)
(0.0966389 -0.000609664 -0.00047895)
(0.0916643 -0.000477393 -0.000531071)
(0.104853 -0.00061544 -0.000664651)
(0.0965338 -0.000602208 -0.000489244)
(0.09147 -0.000467699 -0.0005285)
(0.104911 -0.000604483 -0.00067094)
(0.0964136 -0.000605989 -0.000508343)
(0.0912614 -0.000472255 -0.00054062)
(0.104964 -0.000606687 -0.000691606)
(0.096278 -0.000610368 -0.00052663)
(0.0910441 -0.000479723 -0.000554524)
(0.104998 -0.000612568 -0.000715024)
(0.0961271 -0.000617027 -0.000548563)
(0.0908062 -0.000484003 -0.000563979)
(0.105027 -0.000617648 -0.000736578)
(0.0959653 -0.00061191 -0.000558698)
(0.0905645 -0.000492789 -0.000578017)
(0.105046 -0.000623136 -0.000756508)
(0.0903006 -0.00047541 -0.000561401)
(0.0869533 -0.000350816 -0.000562337)
(0.0771822 -0.000226069 -0.000457159)
(0.0961796 -0.000315515 -0.000809128)
(0.0866674 -0.00035218 -0.00056443)
(0.0768093 -0.000223192 -0.000447659)
(0.0960564 -0.000315258 -0.000806612)
(0.0863677 -0.000359553 -0.000574949)
(0.0764241 -0.000226988 -0.00045192)
(0.095918 -0.000321857 -0.000818944)
(0.0860557 -0.000366297 -0.000582857)
(0.0760541 -0.000232381 -0.000459686)
(0.0957678 -0.000330455 -0.000831428)
(0.0857313 -0.000372175 -0.000587801)
(0.0756614 -0.000234977 -0.000463544)
(0.0956007 -0.000338514 -0.000840001)
(0.0853962 -0.000368478 -0.000576792)
(0.075274 -0.000237515 -0.000467732)
(0.0954279 -0.000345274 -0.000841869)
(0.0748805 -0.000227281 -0.000450161)
(0.0684076 -0.000122682 -0.000298385)
(0.0520128 -8.47616e-05 -0.000189737)
(0.0784411 -6.08582e-05 -0.000535502)
(0.0679575 -0.000121801 -0.00029656)
(0.0516055 -8.05572e-05 -0.000183842)
(0.0780587 -6.1062e-05 -0.000522725)
(0.0675098 -0.000123215 -0.000305491)
(0.0512006 -7.67217e-05 -0.000188651)
(0.077665 -6.34126e-05 -0.000525627)
(0.0670637 -0.000124138 -0.00031557)
(0.0508147 -7.33522e-05 -0.000196172)
(0.077285 -6.59494e-05 -0.000532928)
(0.0666183 -0.000123392 -0.000322767)
(0.0504211 -6.91883e-05 -0.000198769)
(0.0768832 -6.66579e-05 -0.000535534)
(0.0661708 -0.000119351 -0.000320339)
(0.0500379 -6.44091e-05 -0.000198978)
(0.0764865 -6.61178e-05 -0.000536545)
(0.0760808 -6.51294e-05 -0.000519911)
(0.0386207 -5.11047e-05 -0.000193744)
(0.0454504 1.40081e-05 -0.000309057)
(0.0382595 -4.45727e-05 -0.000186531)
(0.0450134 1.66954e-05 -0.000294276)
(0.0379045 -3.69639e-05 -0.000181444)
(0.0445832 2.08932e-05 -0.000278778)
(0.0375535 -2.94547e-05 -0.00017545)
(0.0441735 2.52352e-05 -0.000263146)
(0.0372125 -2.20133e-05 -0.000167653)
(0.043765 3.0113e-05 -0.000246922)
(0.0433708 3.58232e-05 -0.000231936)
(0.0489936 -0.000166655 0.000170791)
(0.0666349 -0.000340277 0.000237248)
(0.0536057 -0.00019753 0.000233909)
(0.0485882 -0.000156903 0.000166641)
(0.0662845 -0.000331857 0.000233121)
(0.053176 -0.000185724 0.000225236)
(0.0481883 -0.000148348 0.000164077)
(0.0659261 -0.000331806 0.000234908)
(0.0527436 -0.000174437 0.000218532)
(0.0477921 -0.000139771 0.000164315)
(0.0655825 -0.00033247 0.000239065)
(0.0523379 -0.000162705 0.000214463)
(0.0473994 -0.00013031 0.000166869)
(0.0652191 -0.000329767 0.000243601)
(0.0519163 -0.000152223 0.000215005)
(0.0470133 -0.000114331 0.000167121)
(0.0648678 -0.000318523 0.000243518)
(0.0515081 -0.000144191 0.000218491)
(0.0510954 -0.000126888 0.000219311)
(0.0869695 -0.000566525 0.000344735)
(0.0961884 -0.000810862 0.000309104)
(0.0916804 -0.000534042 0.000470724)
(0.0866845 -0.000568235 0.000346489)
(0.0960657 -0.000808534 0.000309205)
(0.091487 -0.000532146 0.000462343)
(0.0863869 -0.000577616 0.000354528)
(0.095929 -0.000819708 0.00031591)
(0.0912809 -0.000542369 0.000467367)
(0.0860786 -0.000583869 0.000361974)
(0.0957796 -0.000831757 0.000325182)
(0.0910631 -0.00055498 0.000475817)
(0.0857601 -0.000578669 0.00036258)
(0.0956142 -0.000838909 0.000333731)
(0.0908274 -0.000562228 0.000481113)
(0.0954465 -0.000830908 0.000334513)
(0.0905905 -0.0005625 0.000481284)
(0.106371 -0.00103761 0.000212493)
(0.110411 -0.00113648 5.00275e-05)
(0.109934 -0.000936213 0.000377116)
(0.106415 -0.00104845 0.000222102)
(0.110524 -0.00113675 5.96019e-05)
(0.110071 -0.000942616 0.000377275)
(0.106443 -0.00106751 0.000236423)
(0.11063 -0.00115151 7.62044e-05)
(0.110202 -0.00096385 0.000385164)
(0.106457 -0.00108316 0.000249947)
(0.110715 -0.00116633 9.35681e-05)
(0.110312 -0.000986036 0.000394943)
(0.106459 -0.00108726 0.000258092)
(0.1108 -0.00117867 0.000107879)
(0.110422 -0.00100435 0.000405816)
(0.110871 -0.00117254 0.000115242)
(0.110518 -0.00100425 0.000406154)
(0.114885 -0.00125273 -0.000100819)
(0.116519 -0.00129269 -0.000198096)
(0.118071 -0.00109911 5.14491e-05)
(0.115058 -0.00125406 -8.79118e-05)
(0.116722 -0.00129111 -0.000190025)
(0.11833 -0.00110133 5.84533e-05)
(0.115228 -0.00126177 -7.18057e-05)
(0.116924 -0.00129551 -0.000178292)
(0.118588 -0.00111424 6.96207e-05)
(0.115393 -0.00127253 -5.4356e-05)
(0.117116 -0.00130077 -0.000164231)
(0.118837 -0.00113024 8.39212e-05)
(0.115552 -0.00127574 -3.88636e-05)
(0.117314 -0.00130779 -0.000150433)
(0.11909 -0.00114459 9.77632e-05)
(0.117501 -0.00129797 -0.000137693)
(0.119331 -0.0011391 0.000104188)
(0.118435 -0.00133271 -0.000291516)
(0.118609 -0.00127466 -0.000366876)
(0.121573 -0.00114295 -0.000179383)
(0.118662 -0.00133428 -0.0002846)
(0.118854 -0.0012737 -0.000364192)
(0.121878 -0.00114483 -0.000174691)
(0.118889 -0.00133558 -0.000275992)
(0.119099 -0.00127415 -0.000361566)
(0.122182 -0.00114914 -0.000169)
(0.119117 -0.00133644 -0.00026654)
(0.119341 -0.00127331 -0.000357953)
(0.122484 -0.00115449 -0.000161678)
(0.119346 -0.00132993 -0.000256107)
(0.119592 -0.00127195 -0.000355212)
(0.122792 -0.00115839 -0.000154472)
(0.119835 -0.00125596 -0.000347687)
(0.123094 -0.00114691 -0.00014676)
(0.119034 -0.00121855 -0.000433056)
(0.118147 -0.00107739 -0.000512021)
(0.12229 -0.00101647 -0.000382121)
(0.119294 -0.00121633 -0.00043495)
(0.118416 -0.00107326 -0.000516857)
(0.122618 -0.001014 -0.000381787)
(0.119556 -0.00121403 -0.000438594)
(0.118685 -0.0010706 -0.000526739)
(0.122946 -0.0010138 -0.000383996)
(0.11982 -0.00121043 -0.000442798)
(0.118952 -0.00106634 -0.000538904)
(0.123277 -0.00101382 -0.000387375)
(0.120088 -0.0011995 -0.000443154)
(0.119228 -0.00106241 -0.000551055)
(0.123612 -0.0010112 -0.000389545)
(0.119495 -0.00104581 -0.000551688)
(0.123944 -0.000995215 -0.000384345)
(0.11754 -0.000930198 -0.000603921)
(0.115566 -0.000740588 -0.000719395)
(0.120972 -0.000738015 -0.000607249)
(0.117815 -0.000925779 -0.000616358)
(0.115819 -0.00073492 -0.000729321)
(0.121308 -0.000733359 -0.000614167)
(0.118091 -0.000921825 -0.000633105)
(0.116072 -0.000735393 -0.000750335)
(0.121643 -0.0007329 -0.000627355)
(0.118368 -0.00091776 -0.000651867)
(0.116315 -0.000737045 -0.000774838)
(0.121978 -0.000732881 -0.000643591)
(0.118647 -0.000907841 -0.000664959)
(0.116564 -0.000739769 -0.000798688)
(0.122319 -0.000730249 -0.000656148)
(0.116803 -0.000731055 -0.000809343)
(0.113925 -0.000554009 -0.000837985)
(0.109936 -0.000381423 -0.000934938)
(0.117562 -0.000383964 -0.000884277)
(0.114151 -0.000553531 -0.000855297)
(0.110074 -0.000380853 -0.00094135)
(0.11785 -0.000382549 -0.000893202)
(0.114374 -0.000560041 -0.000881996)
(0.110206 -0.000390236 -0.000964357)
(0.118136 -0.000390716 -0.000915108)
(0.114591 -0.000568591 -0.000910306)
(0.110316 -0.000401532 -0.000988197)
(0.118411 -0.000401759 -0.000941178)
(0.114802 -0.000572772 -0.000930007)
(0.110425 -0.000412474 -0.00100827)
(0.118692 -0.000411913 -0.000962994)
(0.110523 -0.000415706 -0.00101152)
(0.118962 -0.000413989 -0.000966933)
(0.10637 -0.000218686 -0.00103826)
(0.0976153 -6.34123e-05 -0.000929698)
(0.110411 -5.60621e-05 -0.00113792)
(0.106414 -0.000227932 -0.00104946)
(0.0974812 -6.96027e-05 -0.000921973)
(0.110524 -6.54415e-05 -0.00113811)
(0.106442 -0.000242097 -0.00106888)
(0.0973331 -8.25158e-05 -0.000929898)
(0.11063 -8.17443e-05 -0.00115305)
(0.106454 -0.000255592 -0.00108497)
(0.0971715 -9.50356e-05 -0.000939091)
(0.110715 -9.91855e-05 -0.00116805)
(0.106454 -0.000264952 -0.00109069)
(0.0969941 -0.000104238 -0.000945529)
(0.1108 -0.000115114 -0.00117871)
(0.0968106 -0.00010981 -0.000945837)
(0.110871 -0.000127197 -0.00117357)
(0.0896621 5.54729e-05 -0.000755508)
(0.0703176 7.44454e-05 -0.000540059)
(0.0944178 0.000177965 -0.000908182)
(0.0893562 4.68097e-05 -0.000751448)
(0.0698991 6.92243e-05 -0.000528036)
(0.0941722 0.000165144 -0.00089237)
(0.0890372 3.69114e-05 -0.000757864)
(0.0694746 6.32771e-05 -0.000522816)
(0.0939126 0.000152434 -0.000893145)
(0.0887047 2.91146e-05 -0.000761802)
(0.0690657 5.82119e-05 -0.000515517)
(0.0936409 0.000141189 -0.000895987)
(0.0883588 2.32339e-05 -0.000761804)
(0.0686458 5.57273e-05 -0.000503521)
(0.0933526 0.00013174 -0.000890735)
(0.0880028 1.93807e-05 -0.000748498)
(0.0682358 5.44156e-05 -0.000491419)
(0.093061 0.000120241 -0.000880696)
(0.0534551 9.6024e-05 -0.000438268)
(0.0578346 0.00019953 -0.00062225)
(0.0529424 9.21077e-05 -0.000417133)
(0.0572625 0.000187142 -0.000587273)
(0.0524419 8.94068e-05 -0.000391626)
(0.056702 0.000174128 -0.000538686)
(0.0519531 8.85058e-05 -0.000365428)
(0.0561782 0.000164891 -0.000498095)
(0.0514777 8.98242e-05 -0.000341538)
(0.0556565 0.000160601 -0.000466146)
(0.0551519 0.000158841 -0.000442289)
(0.058392 -0.000237659 0.000293763)
(0.0764536 -0.000345497 0.000434592)
(0.0616873 -0.000347032 0.000470473)
(0.0579432 -0.000224458 0.000281986)
(0.0761674 -0.000340239 0.000420168)
(0.0611947 -0.000336365 0.0004488)
(0.0574985 -0.000209795 0.000273355)
(0.0758747 -0.000339224 0.00041355)
(0.0607022 -0.000321951 0.000432304)
(0.0570566 -0.000196344 0.000269233)
(0.0755843 -0.00033912 0.000411871)
(0.0602283 -0.000304586 0.000417756)
(0.0566151 -0.000187 0.000270682)
(0.0752803 -0.000341569 0.0004156)
(0.0597442 -0.000282293 0.000394527)
(0.0561727 -0.000179558 0.000274773)
(0.0749767 -0.000347918 0.000421771)
(0.0592777 -0.000258739 0.000367911)
(0.074663 -0.000341207 0.00041386)
(0.0966559 -0.000480746 0.000603846)
(0.10486 -0.000666629 0.00061007)
(0.0990883 -0.000441764 0.000779505)
(0.0965521 -0.000491167 0.000597613)
(0.104917 -0.000673904 0.000600598)
(0.0990106 -0.000445054 0.000760148)
(0.096432 -0.000509163 0.000601968)
(0.104969 -0.000692705 0.000602559)
(0.0989274 -0.000459917 0.000754106)
(0.0962962 -0.000526005 0.000607581)
(0.105002 -0.000714081 0.000607975)
(0.0988257 -0.000476614 0.000752195)
(0.0961472 -0.000542648 0.000611988)
(0.105032 -0.000734164 0.000613145)
(0.0987203 -0.000491607 0.000751068)
(0.0959876 -0.000546971 0.000600459)
(0.105049 -0.000747602 0.00061288)
(0.0986017 -0.000506384 0.000740522)
(0.113919 -0.000842217 0.000552243)
(0.11756 -0.000886346 0.000381313)
(0.11556 -0.000722871 0.000737674)
(0.114143 -0.000857769 0.000550662)
(0.117845 -0.000896161 0.000380748)
(0.115811 -0.000733421 0.000731542)
(0.114364 -0.000880471 0.000554106)
(0.118129 -0.000916053 0.000387056)
(0.116061 -0.000752465 0.000730069)
(0.114581 -0.00090657 0.000560736)
(0.118405 -0.000940376 0.000395838)
(0.116305 -0.000774168 0.000729733)
(0.114792 -0.000924508 0.000562645)
(0.118685 -0.000963322 0.000404424)
(0.116553 -0.0007933 0.000725747)
(0.118953 -0.000964895 0.00040143)
(0.121735 -0.000953366 0.000215548)
(0.123257 -0.00095505 7.98069e-05)
(0.123125 -0.000794298 0.000375692)
(0.122078 -0.00096622 0.000221024)
(0.123622 -0.000960424 8.1807e-05)
(0.123496 -0.000800783 0.000375807)
(0.122422 -0.000986365 0.000230674)
(0.123985 -0.000973048 8.6959e-05)
(0.123866 -0.000815217 0.000381375)
(0.122765 -0.00100699 0.000240892)
(0.124349 -0.000990459 9.46356e-05)
(0.124236 -0.000833439 0.000387951)
(0.12311 -0.00101346 0.000245071)
(0.124716 -0.00100401 0.000102057)
(0.124609 -0.000846633 0.00038771)
(0.125076 -0.00099575 0.000104075)
(0.125209 -0.000960444 -6.24043e-05)
(0.125439 -0.000886501 -0.000201008)
(0.126571 -0.000768569 5.68479e-05)
(0.125592 -0.000966165 -5.94433e-05)
(0.125831 -0.000887806 -0.000199006)
(0.12698 -0.000771398 5.76222e-05)
(0.125977 -0.000976204 -5.57452e-05)
(0.126222 -0.000893692 -0.000198191)
(0.127389 -0.000778264 5.94099e-05)
(0.126364 -0.000986151 -5.1326e-05)
(0.126617 -0.000902874 -0.000197869)
(0.127801 -0.000788227 6.16289e-05)
(0.126753 -0.000984476 -4.67116e-05)
(0.127014 -0.0009064 -0.000195474)
(0.128215 -0.000794607 6.1997e-05)
(0.127408 -0.000892804 -0.000189913)
(0.126065 -0.000815177 -0.000334702)
(0.125306 -0.000682825 -0.00047781)
(0.127487 -0.000614659 -0.00026181)
(0.126465 -0.000816381 -0.000335362)
(0.125704 -0.000680839 -0.000479965)
(0.127909 -0.00061434 -0.000261616)
(0.126866 -0.000821159 -0.00033842)
(0.126102 -0.000683882 -0.000486946)
(0.128331 -0.000617618 -0.00026353)
(0.127271 -0.000823776 -0.000340367)
(0.126504 -0.000689274 -0.000496027)
(0.128758 -0.000622932 -0.000266658)
(0.127679 -0.000815557 -0.000336583)
(0.126909 -0.000687356 -0.00049813)
(0.129185 -0.000622783 -0.000266888)
(0.12495 -0.000547576 -0.000627121)
(0.123127 -0.000379266 -0.000792687)
(0.126436 -0.000370014 -0.000597282)
(0.125346 -0.000547673 -0.000635006)
(0.123499 -0.000379472 -0.000798231)
(0.126852 -0.0003688 -0.00060036)
(0.125745 -0.000551478 -0.000647625)
(0.123869 -0.000385382 -0.000812715)
(0.127268 -0.000371378 -0.000608581)
(0.126148 -0.000552269 -0.000656993)
(0.12424 -0.000393889 -0.000831389)
(0.127688 -0.000375541 -0.000619056)
(0.124615 -0.000398163 -0.000842682)
(0.12811 -0.000375116 -0.000621727)
(0.121736 -0.00021901 -0.000953119)
(0.118072 -5.59378e-05 -0.00110063)
(0.123255 -8.2946e-05 -0.000954744)
(0.122079 -0.000224793 -0.000965519)
(0.118332 -6.31396e-05 -0.00110236)
(0.12362 -8.53113e-05 -0.000959678)
(0.122423 -0.000235507 -0.000985336)
(0.118589 -7.49667e-05 -0.00111489)
(0.123985 -9.19313e-05 -0.000972989)
(0.122768 -0.000247828 -0.00100436)
(0.118839 -9.02623e-05 -0.00113072)
(0.124349 -0.000101864 -0.000989278)
(0.123114 -0.00025555 -0.0010097)
(0.119093 -0.000106322 -0.00114104)
(0.124716 -0.000112779 -0.000995677)
(0.119336 -0.000116597 -0.00113313)
(0.114886 9.50319e-05 -0.00125503)
(0.106784 0.000218592 -0.00120248)
(0.116517 0.000192611 -0.00129413)
(0.115059 8.174e-05 -0.00125641)
(0.106773 0.000204995 -0.00118758)
(0.116721 0.000184145 -0.00129266)
(0.115228 6.52114e-05 -0.00126442)
(0.106753 0.000190281 -0.00118471)
(0.116922 0.00017182 -0.00129724)
(0.115394 4.66507e-05 -0.0012727)
(0.106716 0.000175114 -0.00118587)
(0.117116 0.0001568 -0.00130213)
(0.115555 2.88621e-05 -0.00127147)
(0.106676 0.000159801 -0.00118199)
(0.117315 0.000139713 -0.00129975)
(0.106627 0.000143941 -0.00116522)
(0.0993883 0.000295879 -0.00106188)
(0.0798276 0.00029751 -0.000889609)
(0.101437 0.000352043 -0.00116658)
(0.099197 0.000282155 -0.0010479)
(0.0794045 0.000281862 -0.000853443)
(0.101275 0.00033995 -0.00114524)
(0.0989875 0.000269865 -0.00104316)
(0.0789874 0.000265528 -0.000811515)
(0.101106 0.000330117 -0.00113639)
(0.0987634 0.000258261 -0.00103515)
(0.0785829 0.000252254 -0.000780612)
(0.10092 0.000320526 -0.00113026)
(0.0985316 0.000244943 -0.00101745)
(0.0781767 0.00024248 -0.000756668)
(0.100731 0.000307621 -0.00111014)
(0.0777756 0.000231194 -0.000736924)
(0.0622017 0.000304275 -0.000794086)
(0.0648495 0.000390698 -0.000890477)
(0.0615846 0.00028476 -0.000726092)
(0.0641942 0.000372323 -0.000852181)
(0.0609953 0.000266781 -0.000657455)
(0.0635601 0.000353514 -0.000799398)
(0.0604259 0.000254412 -0.000608814)
(0.0629564 0.000340329 -0.000757004)
(0.059869 0.000245051 -0.000577529)
(0.0623608 0.00033131 -0.000728361)
(0.0617713 0.000316417 -0.000704469)
(0.0647093 -0.000438635 0.000641566)
(0.0822758 -0.000411809 0.000769556)
(0.0665168 -0.00045363 0.000780529)
(0.0641773 -0.000427925 0.000614335)
(0.0819663 -0.000408238 0.000743538)
(0.0659396 -0.000447619 0.000750594)
(0.0636501 -0.000412141 0.000591031)
(0.0816584 -0.000405161 0.000724473)
(0.0653719 -0.000439099 0.000725405)
(0.0631258 -0.000385489 0.0005563)
(0.0813505 -0.000400373 0.000708829)
(0.0648083 -0.000428525 0.000702284)
(0.0626112 -0.000348604 0.000502928)
(0.0810424 -0.000389992 0.000685671)
(0.0642507 -0.000409456 0.000665707)
(0.0807402 -0.000375991 0.000650675)
(0.0637091 -0.00039111 0.000625433)
(0.101575 -0.000411964 0.000942379)
(0.109174 -0.000523011 0.000977814)
(0.10274 -0.000409202 0.00109274)
(0.101517 -0.000416217 0.000923933)
(0.109277 -0.000527856 0.000962321)
(0.102665 -0.000407264 0.00107033)
(0.101453 -0.000425149 0.000912591)
(0.109378 -0.000539524 0.000953995)
(0.102587 -0.000410247 0.00105281)
(0.101386 -0.000435666 0.000904899)
(0.109474 -0.000552079 0.000946114)
(0.102504 -0.000414955 0.00104148)
(0.101312 -0.000443365 0.000889941)
(0.109573 -0.000560746 0.000932309)
(0.102418 -0.000421015 0.00103084)
(0.102328 -0.000417368 0.00100065)
(0.117532 -0.00060747 0.000925533)
(0.120967 -0.000610875 0.000734914)
(0.11814 -0.00051538 0.00107077)
(0.117806 -0.000619698 0.00092004)
(0.1213 -0.000618117 0.000729486)
(0.118408 -0.000521106 0.00106656)
(0.11808 -0.000635252 0.000915439)
(0.121634 -0.000631208 0.000728163)
(0.118674 -0.000529808 0.00106307)
(0.118357 -0.000647932 0.000904738)
(0.12197 -0.000646049 0.000726289)
(0.118944 -0.000536973 0.00105337)
(0.122308 -0.000653491 0.000714223)
(0.124945 -0.000630486 0.000544033)
(0.126434 -0.000599859 0.000366695)
(0.125299 -0.000480993 0.00067783)
(0.125341 -0.000639007 0.00054393)
(0.126849 -0.000603307 0.000364819)
(0.125697 -0.000483127 0.000676263)
(0.12574 -0.000651643 0.000546187)
(0.127265 -0.000611874 0.000366564)
(0.126096 -0.000490274 0.00067948)
(0.126142 -0.000660853 0.000542583)
(0.127685 -0.000622482 0.000367794)
(0.126498 -0.000497139 0.000677084)
(0.128104 -0.000626426 0.000361704)
(0.128395 -0.000571726 0.000181495)
(0.128666 -0.000489087 -3.18901e-06)
(0.128664 -0.000378745 0.00029264)
(0.128829 -0.000575052 0.0001813)
(0.129106 -0.000489752 -3.52912e-06)
(0.129104 -0.000379229 0.00029215)
(0.129267 -0.000581359 0.000181733)
(0.129547 -0.00049356 -3.60646e-06)
(0.129545 -0.000382304 0.000293059)
(0.129708 -0.000586524 0.00018029)
(0.129992 -0.000499079 -4.31772e-06)
(0.129989 -0.000386657 0.000291323)
(0.130436 -0.00050009 -6.16704e-06)
(0.129383 -0.000407903 -0.000186633)
(0.128667 -0.000296857 -0.000376544)
(0.12965 -0.000205243 -9.42558e-05)