/*--------------------------------*- C++ -*----------------------------------*\
| =========                 |                                                 |
| \\      /  F ield         | OpenFOAM: The Open Source CFD Toolbox           |
|  \\    /   O peration     | Version:  2212                                  |
|   \\  /    A nd           | Website:  www.openfoam.com                      |
|    \\/     M anipulation  |                                                 |
\*---------------------------------------------------------------------------*/
FoamFile
{
    version     2.0;
    format      ascii;
    arch        "LSB;label=32;scalar=64";
    class       volScalarField;
    location    "2.8";
    object      epsilon;
}
// * * * * * * * * * * * * * * * * * * * * * * * * * * * * * * * * * * * * * //

dimensions      [0 2 -3 0 0 0 0];

internalField   nonuniform List<scalar> 
6840
(
90.5034
12.1248
4.38869
2.46658
1.63315
1.18306
0.902008
0.720656
0.594576
0.502485
0.432651
0.379244
0.336259
0.299778
0.27005
0.245933
0.226244
0.210356
0.199702
0.189156
58.5856
14.5696
6.08947
3.33295
2.08217
1.40267
0.998649
0.740283
0.565899
0.443922
0.35602
0.29093
0.241416
0.203021
0.173147
0.14991
0.131544
0.117013
0.106114
0.0986397
45.0226
13.4729
5.73075
3.07323
1.86023
1.227
0.873582
0.649789
0.497026
0.389505
0.311321
0.253019
0.209039
0.175301
0.148953
0.128084
0.111423
0.0980356
0.0873311
0.0792918
38.7028
13.0541
5.74337
3.08734
1.88067
1.22751
0.869488
0.645398
0.49261
0.384804
0.307057
0.249089
0.205038
0.171071
0.144519
0.123502
0.106674
0.0930673
0.0819914
0.0731258
36.0571
12.8529
5.76645
3.10212
1.89476
1.2267
0.866511
0.643996
0.492268
0.383988
0.30583
0.247964
0.203981
0.17003
0.143448
0.122367
0.105441
0.0917063
0.0805234
0.0720874
36.0571
12.8529
5.76645
3.10212
1.89476
1.22669
0.866502
0.643985
0.492253
0.383968
0.305801
0.247926
0.203928
0.169955
0.143341
0.122216
0.105228
0.0914086
0.0801501
0.0719768
38.7028
13.0541
5.74336
3.08733
1.88066
1.22749
0.869468
0.645371
0.492575
0.384759
0.306992
0.249002
0.204918
0.170901
0.144278
0.123154
0.106168
0.0923263
0.0809596
0.0723356
45.0226
13.4729
5.73075
3.07322
1.86022
1.22698
0.873565
0.649764
0.496993
0.389449
0.31125
0.252924
0.208909
0.175115
0.148677
0.127678
0.110817
0.0971202
0.085968
0.0773117
58.5856
14.5696
6.08947
3.33295
2.08217
1.40266
0.998645
0.740276
0.56589
0.443903
0.35599
0.290882
0.241341
0.202873
0.172929
0.149569
0.130958
0.115921
0.104016
0.0948159
90.5034
12.1248
4.38869
2.46658
1.63315
1.18306
0.902008
0.720657
0.594576
0.502487
0.432648
0.37925
0.336253
0.299787
0.270047
0.245932
0.226244
0.210357
0.199709
0.189158
58.5856
14.5696
6.08947
3.33295
2.08217
1.40266
0.998644
0.740276
0.565889
0.443902
0.355989
0.290882
0.24134
0.202868
0.172929
0.149569
0.130957
0.115918
0.104011
0.0948117
16.5373
9.49239
5.0127
2.8606
1.75746
1.14759
0.786933
0.562051
0.415369
0.31595
0.246335
0.196226
0.159223
0.131253
0.109773
0.0931974
0.0801547
0.0696398
0.0606731
0.0565686
13.6679
8.73671
5.07741
3.05388
1.92224
1.2661
0.869294
0.618635
0.453966
0.342043
0.263662
0.207326
0.165919
0.134866
0.111155
0.0927044
0.0781829
0.0666435
0.0571706
0.0501503
12.9054
8.33993
5.07879
3.15547
2.02775
1.35121
0.933543
0.666463
0.489553
0.368605
0.283616
0.222402
0.177344
0.143545
0.117754
0.0977843
0.0820985
0.0696296
0.0596006
0.0513492
12.6882
8.1544
5.07113
3.20039
2.07939
1.39506
0.967834
0.692724
0.509641
0.38402
0.295508
0.231653
0.184599
0.149269
0.122292
0.101389
0.0849701
0.0719154
0.0614261
0.052954
12.6882
8.1544
5.07113
3.20038
2.07939
1.39506
0.967831
0.692722
0.509636
0.384015
0.295501
0.231645
0.184588
0.149257
0.122284
0.101374
0.0849509
0.0718933
0.0614019
0.0529248
12.9054
8.33993
5.07879
3.15547
2.02775
1.3512
0.933536
0.666458
0.489544
0.368593
0.283601
0.222383
0.177323
0.143528
0.117735
0.0977527
0.0820611
0.069591
0.0595629
0.0513302
13.6679
8.73671
5.07741
3.05388
1.92223
1.26609
0.869289
0.618631
0.453959
0.342034
0.26365
0.207311
0.165901
0.13485
0.11114
0.0926801
0.0781563
0.066621
0.0571697
0.0501718
16.5373
9.49239
5.0127
2.8606
1.75746
1.14759
0.786932
0.562051
0.415369
0.315949
0.246334
0.196225
0.159222
0.131251
0.109775
0.0931964
0.0801523
0.0696378
0.0606694
0.0565643
58.5856
14.5696
6.08947
3.33295
2.08217
1.40267
0.998649
0.740283
0.565899
0.443922
0.356021
0.290931
0.241417
0.203027
0.173147
0.149908
0.131541
0.11701
0.106112
0.0986348
45.0226
13.4729
5.73075
3.07322
1.86022
1.22698
0.873564
0.649764
0.496993
0.389449
0.311249
0.252923
0.208907
0.175115
0.148677
0.127677
0.110815
0.0971178
0.085965
0.0773063
13.6679
8.73671
5.07741
3.05388
1.92223
1.26609
0.869289
0.618631
0.45396
0.342034
0.263651
0.207312
0.165902
0.134846
0.111144
0.0926823
0.0781587
0.0666242
0.0571706
0.0501693
11.8601
7.76395
4.99734
3.24076
2.14419
1.45499
1.0141
0.725635
0.532157
0.399151
0.305548
0.238224
0.188827
0.151916
0.123874
0.102241
0.085325
0.0719355
0.0611987
0.0526494
11.6229
7.60535
5.0103
3.34209
2.26848
1.57142
1.11236
0.804589
0.594206
0.44752
0.343214
0.267637
0.211904
0.170124
0.138326
0.113789
0.094606
0.0794327
0.0673007
0.0575338
11.5726
7.56718
5.02065
3.38344
2.32103
1.62326
1.15828
0.843156
0.625691
0.47285
0.363485
0.283854
0.224907
0.18059
0.146789
0.120665
0.100222
0.0840421
0.0710976
0.0606013
11.5726
7.56718
5.02065
3.38344
2.32103
1.62326
1.15828
0.843155
0.625689
0.472847
0.363481
0.28385
0.224902
0.180584
0.146784
0.120657
0.100213
0.0840312
0.0710894
0.0606148
11.6229
7.60535
5.0103
3.34209
2.26848
1.57142
1.11236
0.804587
0.594203
0.447515
0.343208
0.26763
0.211895
0.170116
0.138317
0.113775
0.094589
0.0794137
0.0672832
0.0575221
11.8601
7.76395
4.99734
3.24076
2.14419
1.45499
1.0141
0.725635
0.532157
0.39915
0.305547
0.238223
0.188826
0.151915
0.123875
0.102241
0.0853235
0.0719335
0.0611963
0.0526476
13.6679
8.73671
5.07741
3.05388
1.92224
1.2661
0.869293
0.618635
0.453966
0.342043
0.263661
0.207325
0.165918
0.13486
0.111161
0.0927057
0.0781826
0.0666427
0.0571695
0.0501474
45.0226
13.4729
5.73075
3.07323
1.86023
1.227
0.873582
0.649789
0.497027
0.389505
0.311321
0.253019
0.20904
0.175302
0.148952
0.128083
0.111421
0.0980338
0.087329
0.0792896
38.7028
13.0541
5.74336
3.08733
1.88066
1.22749
0.869468
0.645371
0.492575
0.384759
0.306992
0.249002
0.204918
0.170903
0.144277
0.123154
0.106167
0.0923246
0.0809573
0.0723316
12.9054
8.33993
5.07879
3.15547
2.02775
1.3512
0.933536
0.666458
0.489544
0.368593
0.283602
0.222383
0.177322
0.14352
0.117741
0.0977551
0.0820624
0.0695923
0.0595642
0.0513314
11.6229
7.60535
5.0103
3.34209
2.26848
1.57142
1.11236
0.804587
0.594203
0.447516
0.343209
0.267631
0.211895
0.170115
0.138319
0.113776
0.0945896
0.0794145
0.067284
0.0575239
11.4933
7.5119
5.02843
3.434
2.3892
1.6928
1.22111
0.896487
0.669456
0.508123
0.391656
0.306286
0.242785
0.194887
0.15828
0.129954
0.107779
0.0902297
0.0761942
0.0648171
11.4757
7.50136
5.04297
3.47002
2.43665
1.74299
1.26863
0.938712
0.705584
0.538336
0.416594
0.326729
0.2595
0.208558
0.169485
0.139169
0.11539
0.0965447
0.0814468
0.0691231
11.4757
7.50136
5.04297
3.47002
2.43665
1.74299
1.26863
0.938712
0.705583
0.538335
0.416593
0.326728
0.259498
0.208556
0.169484
0.139168
0.115388
0.096542
0.0814431
0.0691158
11.4933
7.5119
5.02843
3.434
2.3892
1.6928
1.22111
0.896487
0.669456
0.508122
0.391656
0.306286
0.242784
0.194887
0.15828
0.129954
0.107779
0.0902294
0.0761939
0.064817
11.6229
7.60535
5.0103
3.34209
2.26848
1.57142
1.11236
0.804589
0.594206
0.44752
0.343214
0.267637
0.211903
0.170123
0.138328
0.113789
0.0946051
0.0794315
0.0672994
0.0575313
12.9054
8.33993
5.07879
3.15547
2.02775
1.35121
0.933543
0.666463
0.489553
0.368605
0.283616
0.222401
0.177343
0.143539
0.11776
0.097786
0.0820989
0.0696297
0.0596005
0.0513491
38.7028
13.0541
5.74337
3.08734
1.88067
1.22751
0.869488
0.645398
0.49261
0.384804
0.307057
0.249088
0.205037
0.171071
0.14452
0.123502
0.106674
0.0930671
0.0819912
0.0731255
36.0571
12.8529
5.76645
3.10212
1.89476
1.22669
0.866502
0.643985
0.492253
0.383968
0.305801
0.247926
0.203928
0.169955
0.143341
0.122215
0.105227
0.091408
0.0801491
0.0719759
12.6882
8.1544
5.07113
3.20038
2.07939
1.39506
0.967831
0.692722
0.509636
0.384015
0.295501
0.231644
0.184588
0.149256
0.122286
0.101375
0.0849504
0.0718923
0.0614008
0.0529239
11.5726
7.56718
5.02065
3.38344
2.32103
1.62326
1.15828
0.843155
0.625689
0.472847
0.363481
0.28385
0.224901
0.180584
0.146785
0.120658
0.100213
0.084031
0.0710892
0.0606152
11.4757
7.50136
5.04297
3.47002
2.43665
1.74299
1.26863
0.938712
0.705583
0.538335
0.416593
0.326728
0.259498
0.208556
0.169484
0.139168
0.115388
0.0965421
0.0814431
0.0691164
11.4647
7.49683
5.0577
3.50272
2.48038
1.79068
1.31522
0.981305
0.742925
0.57021
0.443351
0.348968
0.277889
0.223736
0.18202
0.149545
0.124007
0.103728
0.0874451
0.0740801
11.4647
7.49683
5.0577
3.50272
2.48038
1.79068
1.31522
0.981305
0.742925
0.57021
0.443351
0.348968
0.277889
0.223736
0.18202
0.149545
0.124007
0.103728
0.087445
0.0740805
11.4757
7.50136
5.04297
3.47002
2.43665
1.74299
1.26863
0.938712
0.705584
0.538336
0.416594
0.326729
0.259499
0.208558
0.169485
0.139169
0.11539
0.0965447
0.0814469
0.0691265
11.5726
7.56718
5.02065
3.38344
2.32103
1.62326
1.15828
0.843156
0.625691
0.47285
0.363485
0.283854
0.224907
0.180589
0.14679
0.120665
0.100222
0.0840418
0.0710975
0.0606026
12.6882
8.1544
5.07113
3.20039
2.07939
1.39506
0.967834
0.692724
0.509641
0.38402
0.295508
0.231653
0.184599
0.149266
0.122293
0.10139
0.0849704
0.0719156
0.0614264
0.0529543
36.0571
12.8529
5.76645
3.10212
1.89476
1.2267
0.866511
0.643996
0.492268
0.383988
0.30583
0.247964
0.20398
0.170028
0.143451
0.122369
0.105443
0.0917078
0.0805247
0.0720876
36.0571
12.8529
5.76645
3.10212
1.89476
1.2267
0.866511
0.643996
0.492268
0.383988
0.30583
0.247965
0.203982
0.170031
0.143448
0.122367
0.105442
0.091707
0.0805245
0.0720892
12.6882
8.1544
5.07113
3.20039
2.07939
1.39506
0.967834
0.692724
0.509641
0.38402
0.295508
0.231653
0.184598
0.149267
0.122293
0.101389
0.0849689
0.0719135
0.0614236
0.0529515
11.5726
7.56718
5.02065
3.38344
2.32103
1.62326
1.15828
0.843156
0.625691
0.47285
0.363485
0.283854
0.224906
0.18059
0.14679
0.120665
0.100222
0.0840413
0.0710968
0.0606017
11.4757
7.50136
5.04297
3.47002
2.43665
1.74299
1.26863
0.938712
0.705584
0.538336
0.416594
0.326729
0.2595
0.208558
0.169485
0.139169
0.11539
0.0965446
0.0814467
0.0691227
11.4647
7.49683
5.0577
3.50272
2.48038
1.79068
1.31522
0.981305
0.742925
0.57021
0.443351
0.348968
0.277889
0.223736
0.18202
0.149545
0.124007
0.103728
0.0874451
0.074081
11.4647
7.49683
5.0577
3.50272
2.48038
1.79068
1.31522
0.981305
0.742925
0.57021
0.443351
0.348968
0.277889
0.223736
0.18202
0.149545
0.124007
0.103728
0.0874449
0.0740805
11.4757
7.50136
5.04297
3.47002
2.43665
1.74299
1.26863
0.938712
0.705583
0.538335
0.416593
0.326728
0.259498
0.208556
0.169484
0.139168
0.115388
0.0965423
0.0814435
0.0691193
11.5726
7.56718
5.02065
3.38344
2.32103
1.62326
1.15828
0.843155
0.625689
0.472847
0.363481
0.28385
0.224902
0.180585
0.146783
0.120657
0.100213
0.084032
0.0710905
0.0606179
12.6882
8.1544
5.07113
3.20038
2.07939
1.39506
0.967831
0.692722
0.509636
0.384015
0.295502
0.231645
0.184589
0.14926
0.12228
0.101373
0.0849505
0.0718931
0.061402
0.0529255
36.0571
12.8529
5.76645
3.10212
1.89476
1.22669
0.866502
0.643985
0.492253
0.383968
0.305801
0.247926
0.203926
0.169953
0.143344
0.122218
0.10523
0.0914108
0.0801522
0.0719794
38.7028
13.0541
5.74337
3.08734
1.88067
1.22751
0.869488
0.645398
0.49261
0.384804
0.307058
0.249089
0.205038
0.171072
0.144519
0.123502
0.106676
0.0930689
0.0819939
0.0731281
12.9054
8.33993
5.07879
3.15547
2.02775
1.35121
0.933543
0.666463
0.489553
0.368605
0.283616
0.222401
0.177344
0.143545
0.117754
0.0977837
0.0820975
0.0696283
0.0595989
0.0513486
11.6229
7.60535
5.0103
3.34209
2.26848
1.57142
1.11236
0.804589
0.594206
0.44752
0.343214
0.267637
0.211903
0.170124
0.138326
0.113788
0.0946054
0.079432
0.0673
0.057533
11.4933
7.5119
5.02843
3.434
2.3892
1.6928
1.22111
0.896487
0.669456
0.508122
0.391656
0.306286
0.242785
0.194887
0.15828
0.129954
0.107779
0.0902297
0.076194
0.0648159
11.4757
7.50136
5.04297
3.47002
2.43665
1.74299
1.26863
0.938712
0.705583
0.538335
0.416593
0.326728
0.259499
0.208556
0.169484
0.139168
0.115388
0.0965422
0.0814432
0.0691174
11.4757
7.50136
5.04297
3.47002
2.43665
1.74299
1.26863
0.938712
0.705584
0.538336
0.416594
0.326729
0.2595
0.208558
0.169485
0.13917
0.115391
0.0965448
0.0814466
0.0691231
11.4933
7.5119
5.02843
3.434
2.3892
1.6928
1.22111
0.896487
0.669456
0.508122
0.391656
0.306286
0.242784
0.194887
0.15828
0.129954
0.107779
0.0902297
0.0761941
0.064817
11.6229
7.60535
5.0103
3.34209
2.26848
1.57142
1.11236
0.804587
0.594203
0.447516
0.343209
0.267631
0.211896
0.170116
0.138317
0.113776
0.0945898
0.0794148
0.0672842
0.0575225
12.9054
8.33993
5.07879
3.15547
2.02775
1.3512
0.933537
0.666457
0.489544
0.368593
0.283601
0.222383
0.177323
0.143527
0.117734
0.0977526
0.082061
0.0695909
0.0595629
0.0513287
38.7028
13.0541
5.74336
3.08733
1.88066
1.22749
0.869467
0.645372
0.492576
0.384759
0.306993
0.249002
0.204918
0.170902
0.144279
0.123156
0.10617
0.0923275
0.0809613
0.0723358
45.0226
13.4729
5.73075
3.07323
1.86023
1.227
0.873582
0.649789
0.497027
0.389505
0.311321
0.253019
0.20904
0.175301
0.148954
0.128085
0.111424
0.0980378
0.0873335
0.0792944
13.6679
8.73671
5.07741
3.05388
1.92224
1.2661
0.869294
0.618635
0.453966
0.342043
0.263662
0.207326
0.165919
0.134866
0.111154
0.0927038
0.0781825
0.066643
0.0571734
0.0501505
11.8601
7.76395
4.99734
3.24076
2.14419
1.45499
1.0141
0.725635
0.532157
0.399151
0.305548
0.238224
0.188827
0.151917
0.123873
0.102241
0.0853248
0.0719354
0.0611983
0.0526474
11.6229
7.60535
5.0103
3.34209
2.26848
1.57142
1.11236
0.804587
0.594203
0.447516
0.343209
0.267631
0.211896
0.170115
0.138318
0.113776
0.0945899
0.0794151
0.0672845
0.0575229
11.5726
7.56718
5.02065
3.38344
2.32103
1.62326
1.15828
0.843155
0.625689
0.472847
0.363482
0.28385
0.224902
0.180585
0.146785
0.120658
0.100213
0.084032
0.0710904
0.0606157
11.5726
7.56718
5.02065
3.38344
2.32103
1.62326
1.15828
0.843156
0.625691
0.47285
0.363485
0.283854
0.224907
0.18059
0.14679
0.120666
0.100222
0.0840418
0.0710974
0.0606008
11.6229
7.60535
5.0103
3.34209
2.26848
1.57142
1.11236
0.804589
0.594206
0.44752
0.343214
0.267637
0.211903
0.170123
0.138328
0.113789
0.0946052
0.0794316
0.0672994
0.0575319
11.8601
7.76395
4.99734
3.24076
2.14419
1.45499
1.0141
0.725635
0.532157
0.399151
0.305547
0.238224
0.188826
0.151915
0.123875
0.102241
0.0853243
0.0719343
0.0611972
0.0526451
13.6679
8.73671
5.07741
3.05388
1.92223
1.26609
0.86929
0.618631
0.453959
0.342034
0.26365
0.207311
0.165902
0.13485
0.11114
0.0926803
0.0781566
0.0666214
0.0571713
0.0501336
45.0226
13.4729
5.73075
3.07322
1.86022
1.22698
0.873564
0.649764
0.496994
0.389449
0.31125
0.252924
0.208909
0.175115
0.148677
0.127679
0.110817
0.0971205
0.0859677
0.0773138
58.5856
14.5696
6.08947
3.33295
2.08217
1.40267
0.998649
0.740283
0.565899
0.443922
0.35602
0.290931
0.241417
0.203022
0.173148
0.149912
0.131546
0.117016
0.10612
0.098645
16.5373
9.49239
5.0127
2.8606
1.75746
1.14759
0.786933
0.562051
0.415369
0.31595
0.246335
0.196226
0.159224
0.131254
0.109773
0.0931981
0.0801561
0.0696419
0.0606764
0.0565704
13.6679
8.73671
5.07741
3.05388
1.92223
1.26609
0.869289
0.618631
0.45396
0.342034
0.263651
0.207312
0.165903
0.134847
0.111144
0.0926828
0.0781595
0.0666254
0.0571716
0.0501726
12.9054
8.33993
5.07879
3.15547
2.02775
1.3512
0.933536
0.666458
0.489545
0.368593
0.283602
0.222384
0.177323
0.143521
0.117742
0.0977554
0.0820627
0.0695926
0.0595645
0.0513319
12.6882
8.1544
5.07113
3.20038
2.07939
1.39506
0.967831
0.692722
0.509636
0.384015
0.295501
0.231644
0.184588
0.149255
0.122286
0.101375
0.0849505
0.0718923
0.0614009
0.0529238
12.6882
8.1544
5.07113
3.20039
2.07939
1.39506
0.967834
0.692725
0.509641
0.38402
0.295508
0.231653
0.184598
0.149267
0.122294
0.101389
0.0849688
0.0719134
0.0614236
0.0529509
12.9054
8.33993
5.07879
3.15547
2.02775
1.35121
0.933541
0.666464
0.489554
0.368605
0.283616
0.222401
0.177343
0.143539
0.11776
0.0977854
0.082098
0.0696286
0.0595991
0.0513488
13.6679
8.73671
5.07741
3.05388
1.92224
1.2661
0.869293
0.618636
0.453966
0.342043
0.263662
0.207326
0.165919
0.134859
0.111161
0.0927062
0.0781834
0.0666434
0.0571736
0.050148
16.5373
9.49239
5.0127
2.8606
1.75746
1.14759
0.786933
0.562051
0.41537
0.31595
0.246335
0.196226
0.159223
0.131251
0.109776
0.0931981
0.0801547
0.0696404
0.0606739
0.0565625
58.5856
14.5696
6.08947
3.33295
2.08217
1.40266
0.998646
0.740276
0.56589
0.443903
0.35599
0.290882
0.24134
0.202874
0.17293
0.149569
0.130958
0.11592
0.104014
0.0948195
90.5034
12.1248
4.38869
2.46658
1.63315
1.18306
0.902008
0.720656
0.594576
0.502485
0.432651
0.379244
0.336259
0.299778
0.270051
0.245935
0.226246
0.210359
0.199709
0.189161
58.5856
14.5696
6.08947
3.33295
2.08217
1.40266
0.998644
0.740276
0.56589
0.443902
0.355989
0.290882
0.24134
0.202867
0.17293
0.14957
0.130958
0.115918
0.104011
0.0948117
45.0226
13.4729
5.73075
3.07322
1.86022
1.22698
0.873564
0.649764
0.496993
0.389449
0.311249
0.252923
0.208907
0.175115
0.148677
0.127677
0.110815
0.097117
0.0859641
0.0773074
38.7028
13.0541
5.74336
3.08733
1.88066
1.22749
0.869468
0.645371
0.492575
0.384759
0.306992
0.249002
0.204918
0.170903
0.144277
0.123153
0.106167
0.0923241
0.0809574
0.0723312
36.0571
12.8529
5.76645
3.10212
1.89476
1.22669
0.866502
0.643985
0.492253
0.383968
0.305801
0.247926
0.203928
0.169956
0.14334
0.122215
0.105227
0.0914083
0.0801496
0.0719768
36.0571
12.8529
5.76645
3.10212
1.89476
1.2267
0.866511
0.643997
0.492268
0.383989
0.30583
0.247965
0.203982
0.170031
0.143448
0.122367
0.105442
0.0917077
0.0805257
0.0720912
38.7028
13.0541
5.74337
3.08734
1.88067
1.22751
0.869488
0.645398
0.49261
0.384804
0.307058
0.249089
0.205038
0.171072
0.14452
0.123503
0.106676
0.0930695
0.0819949
0.0731304
45.0226
13.4729
5.73075
3.07323
1.86023
1.227
0.873583
0.649789
0.497026
0.389505
0.311321
0.25302
0.209041
0.175303
0.148954
0.128085
0.111424
0.0980373
0.0873333
0.0792957
58.5856
14.5696
6.08947
3.33295
2.08217
1.40267
0.998651
0.740283
0.565899
0.443922
0.356021
0.290931
0.241417
0.203028
0.173148
0.14991
0.131544
0.117015
0.106118
0.0986428
90.5034
12.1248
4.38869
2.46658
1.63315
1.18306
0.902009
0.720657
0.594575
0.502487
0.432648
0.37925
0.336252
0.299787
0.270048
0.245933
0.226245
0.210359
0.199708
0.189166
0.304747
0.250104
0.206309
0.182484
0.168165
0.158516
0.151324
0.145324
0.140368
0.136148
0.132177
0.128607
0.124821
0.121363
0.118174
0.115114
0.112273
0.10957
0.107069
0.104657
0.102374
0.100261
0.0983072
0.0963802
0.0946666
0.0929964
0.091371
0.0898076
0.0883125
0.0868462
0.0854516
0.0841007
0.0827988
0.0815472
0.0803439
0.0791647
0.0780755
0.0769975
0.0761001
0.0745092
0.105461
0.0914286
0.081107
0.0742318
0.0691853
0.0651233
0.0618139
0.0589692
0.0565225
0.0543828
0.0523597
0.050626
0.0488591
0.0472105
0.0456884
0.0442603
0.0429765
0.0417633
0.0406532
0.0396088
0.0385983
0.0376707
0.0368329
0.0360303
0.035313
0.0346309
0.0339769
0.0333455
0.0327395
0.0321465
0.0315808
0.0310341
0.0305117
0.0300095
0.0295296
0.02907
0.0286315
0.0282089
0.0278137
0.0273679
0.0815892
0.0706157
0.0635037
0.0577972
0.0532725
0.0495955
0.0465032
0.0438646
0.0415747
0.0395704
0.0378117
0.036214
0.0348158
0.0335412
0.0322662
0.0311319
0.0301213
0.0291875
0.0283302
0.0275202
0.0267208
0.025939
0.0252282
0.0245943
0.024027
0.0234788
0.0229536
0.0224531
0.0219766
0.0215213
0.0210826
0.0206618
0.0202644
0.0198873
0.0195311
0.0191923
0.0188699
0.0185596
0.0182654
0.017963
0.076236
0.064394
0.0566203
0.0512968
0.0470486
0.0435422
0.0405612
0.0379852
0.0357321
0.0337421
0.0319699
0.0303811
0.0289309
0.0276513
0.0265044
0.0254581
0.0244999
0.0236308
0.0228266
0.0220097
0.0212592
0.020597
0.0199633
0.0193787
0.0188342
0.0183306
0.017858
0.0174161
0.016992
0.0165992
0.0162186
0.0158516
0.0155052
0.0151867
0.0148836
0.0146045
0.0143332
0.0140777
0.013832
0.0135806
0.0713726
0.061426
0.0544875
0.0491441
0.0448198
0.041226
0.0382023
0.0356005
0.0333148
0.0312906
0.0294865
0.0278674
0.0263967
0.0251052
0.023938
0.0228804
0.0219294
0.021063
0.0202647
0.0195337
0.0188575
0.01826
0.0176326
0.0170608
0.0165412
0.0160574
0.0156104
0.0151922
0.0147995
0.014441
0.0141005
0.0137632
0.0134571
0.0131682
0.0128905
0.0126337
0.0123866
0.0121548
0.0119367
0.0117345
0.0666885
0.0595944
0.0536591
0.0486628
0.0444221
0.040791
0.03767
0.0349773
0.0326073
0.0304951
0.0286136
0.0269323
0.0254132
0.0240833
0.0228873
0.0218092
0.0208352
0.0199563
0.0191667
0.0184523
0.0177992
0.0172076
0.0166555
0.0161779
0.0156573
0.0151537
0.0147017
0.0142955
0.013921
0.0135865
0.0132681
0.0129731
0.0126792
0.0124019
0.0121215
0.0118909
0.0116582
0.0114526
0.0112512
0.0110612
0.0694667
0.0620532
0.0557552
0.0504003
0.0458363
0.0418997
0.0385057
0.0355621
0.0329842
0.0307316
0.0287603
0.0270272
0.0254869
0.024146
0.0229496
0.0218771
0.0209143
0.020046
0.0192616
0.0185595
0.0179239
0.0173393
0.016788
0.0162738
0.015746
0.0152662
0.0148383
0.0144498
0.0140847
0.0137495
0.0134312
0.0131417
0.0128436
0.0125719
0.0123213
0.0120965
0.01188
0.0116652
0.0114583
0.0112624
0.0795937
0.0689541
0.0605541
0.0539474
0.048694
0.0442265
0.0404572
0.0372741
0.0345715
0.0322739
0.0303
0.0285873
0.0270665
0.0257281
0.0245296
0.0234529
0.0224886
0.0216174
0.0208245
0.0200994
0.0194655
0.0188052
0.0182056
0.0176606
0.0171716
0.0167113
0.0162924
0.0159007
0.0155032
0.0151322
0.0148014
0.014507
0.0142243
0.013948
0.013684
0.0134319
0.0131918
0.0129537
0.0127258
0.0125064
0.0965941
0.0810537
0.0694362
0.0605581
0.0539157
0.049102
0.0452217
0.0420114
0.0393592
0.0371066
0.0351561
0.0334252
0.0318779
0.0305281
0.0292714
0.0280642
0.0269839
0.0260415
0.0251558
0.0243521
0.0236079
0.0229039
0.0222513
0.0216321
0.0210887
0.0205816
0.0201151
0.0196716
0.0192584
0.0188691
0.0185037
0.0181581
0.0178324
0.0175188
0.0172196
0.0169331
0.0166534
0.0163738
0.016108
0.015845
0.130102
0.109462
0.0922287
0.0800784
0.071695
0.0657553
0.0612305
0.0575873
0.0547417
0.0522646
0.050203
0.0481471
0.0461707
0.0444347
0.0428676
0.0413869
0.0400178
0.03875
0.0375831
0.0365019
0.0355039
0.034612
0.0338066
0.0330289
0.0323451
0.0316993
0.0310918
0.030508
0.02995
0.0294155
0.0289111
0.0284268
0.0279645
0.0275189
0.027088
0.0266763
0.0262705
0.0258888
0.0255388
0.0251483
0.304805
0.250146
0.206455
0.182523
0.168339
0.1589
0.151613
0.145474
0.140453
0.136074
0.132376
0.128415
0.124839
0.121472
0.118296
0.115279
0.112435
0.109739
0.107229
0.10481
0.102523
0.1004
0.0984487
0.0965198
0.0948122
0.0931372
0.0915243
0.0899657
0.0884745
0.0870157
0.0856116
0.0842558
0.0829513
0.0816915
0.0804752
0.0793142
0.0782098
0.0771365
0.0762395
0.0746389
0.130128
0.109413
0.0920959
0.0801055
0.0715973
0.0654992
0.0610378
0.0574945
0.0546907
0.0523282
0.0500526
0.0482581
0.0462372
0.0444104
0.0428159
0.041305
0.0399533
0.0386724
0.0375169
0.036433
0.0354341
0.0345487
0.0337449
0.0329644
0.0322785
0.0316368
0.0310273
0.0304427
0.0298835
0.0293461
0.0288439
0.0283629
0.0279029
0.027458
0.0270307
0.0266215
0.0262232
0.0258402
0.0254892
0.0250968
0.0611293
0.052836
0.0445183
0.038514
0.0354675
0.0319596
0.0295198
0.0275846
0.025939
0.0245019
0.0232227
0.0218951
0.0212734
0.0200695
0.0190316
0.0182186
0.0174132
0.0167311
0.0160967
0.0155047
0.0149521
0.0144852
0.0140002
0.0138457
0.0133968
0.0130272
0.0127034
0.0124091
0.012086
0.0119576
0.0116248
0.011361
0.011122
0.0108587
0.0107379
0.0104675
0.0102636
0.01006
0.00986459
0.00962979
0.0496587
0.0431673
0.0367666
0.0320906
0.028725
0.0261289
0.0239534
0.0220662
0.0204275
0.0190136
0.017723
0.0166888
0.0156171
0.014906
0.0139072
0.0133658
0.0125746
0.0121318
0.0115047
0.011109
0.0106589
0.0101599
0.00983912
0.00946188
0.00921661
0.00886026
0.00859832
0.00835841
0.00807697
0.00792247
0.00766288
0.00749028
0.00725575
0.00711933
0.0069199
0.00675384
0.00658546
0.00648581
0.00629341
0.00613803
0.0468966
0.0412425
0.0356572
0.0312133
0.0275257
0.0245482
0.0223442
0.0204976
0.0188655
0.0174263
0.0161568
0.0150388
0.0140749
0.0131665
0.0123668
0.0116679
0.0110339
0.010462
0.00996852
0.00944578
0.00910083
0.00857151
0.00828001
0.00786707
0.00765562
0.00730426
0.00711764
0.00681496
0.00664146
0.00639005
0.00624345
0.00607153
0.00585341
0.00574388
0.00555644
0.00542
0.00530576
0.00521411
0.00502832
0.00489649
0.0464329
0.0404381
0.0354221
0.0312311
0.0277295
0.0247657
0.0220135
0.0198867
0.0182789
0.0168414
0.0155565
0.0144132
0.0134108
0.0124933
0.0116822
0.0109604
0.0103149
0.00973552
0.0092137
0.00874056
0.00831351
0.00792402
0.00757258
0.0072583
0.00694784
0.00668474
0.00640888
0.00618796
0.005952
0.00576246
0.00558114
0.00544557
0.0052303
0.00512231
0.00494027
0.00482128
0.00472282
0.00461693
0.00446792
0.00433703
0.0455402
0.0400163
0.0352504
0.0311735
0.0277075
0.0247591
0.0221322
0.0197511
0.0179745
0.0165726
0.0152972
0.0141503
0.0131308
0.0122087
0.0113894
0.0106603
0.0100088
0.00942487
0.00889994
0.00842687
0.00799933
0.0076125
0.00726538
0.00695586
0.0066514
0.00637557
0.00611688
0.00589341
0.00567034
0.00548295
0.00530549
0.00513973
0.00498793
0.00485053
0.00470824
0.00457874
0.00447014
0.00435365
0.00422332
0.00408941
0.0464706
0.0402502
0.0352289
0.0310292
0.0275144
0.0245241
0.0217971
0.0195623
0.0179075
0.0164807
0.0152001
0.0140595
0.0130531
0.0121463
0.011343
0.010627
0.00998617
0.00941033
0.00889186
0.00842276
0.00799913
0.00761499
0.00726803
0.00696455
0.00666177
0.00639784
0.00612789
0.00592006
0.00564365
0.00551472
0.00527509
0.00512598
0.00497885
0.00483612
0.00468168
0.00455844
0.0044431
0.00432514
0.00419632
0.00406576
0.0500637
0.0415663
0.0355506
0.0308141
0.0271304
0.0240917
0.0216914
0.0198294
0.0182035
0.0167801
0.0155287
0.0144332
0.013459
0.0125802
0.011799
0.0110972
0.0104686
0.00989107
0.00938113
0.00890105
0.00847862
0.00808822
0.00771037
0.00748416
0.00706004
0.00684342
0.00649382
0.00632913
0.006027
0.00593392
0.00564736
0.00550803
0.00534004
0.00520929
0.00499155
0.00487731
0.00472904
0.00461133
0.0044854
0.00434614
0.053586
0.0430744
0.0363385
0.0317527
0.0281908
0.0254627
0.0232081
0.0213132
0.0196912
0.0182972
0.0170662
0.0160537
0.0150037
0.0141184
0.013318
0.0125567
0.0119973
0.0112273
0.0108188
0.0101891
0.00986197
0.00933049
0.00901101
0.00865567
0.00833974
0.00810348
0.0077438
0.00757749
0.00725968
0.00717323
0.00687051
0.0067109
0.00650736
0.00637371
0.00616018
0.00600412
0.00588732
0.00569136
0.00556799
0.00542758
0.0611453
0.0528704
0.044548
0.038823
0.0347312
0.031693
0.0293776
0.0274984
0.0258787
0.0245093
0.0230533
0.0224364
0.0210888
0.0200603
0.0190872
0.0182639
0.017476
0.0167904
0.0161559
0.0155719
0.0150026
0.0145431
0.014047
0.0138915
0.0134177
0.0130752
0.0127288
0.012453
0.0121259
0.0119792
0.0116543
0.0113956
0.0111484
0.0109176
0.010693
0.0104434
0.0103466
0.0100817
0.00990465
0.00967605
0.105455
0.0914686
0.0811789
0.0742853
0.0693562
0.0653835
0.0620065
0.0590723
0.0565928
0.0543292
0.0525032
0.0505576
0.0488131
0.0472236
0.0457273
0.0443195
0.0430347
0.041824
0.040716
0.0396602
0.0386591
0.0377183
0.03688
0.036068
0.0353567
0.0346724
0.034022
0.0333935
0.0327887
0.0321994
0.031634
0.0310861
0.0305626
0.0300605
0.0295801
0.0291212
0.0286778
0.0282552
0.0278597
0.027413
0.0965898
0.0810399
0.0693102
0.0605975
0.0539181
0.0490748
0.0451733
0.0419811
0.0393636
0.0371304
0.0351595
0.0334557
0.0318903
0.0305187
0.0292523
0.0280194
0.0269723
0.0260067
0.0251443
0.0243252
0.0235826
0.0228771
0.0222203
0.021599
0.0210437
0.0205399
0.0200727
0.019629
0.019215
0.0188232
0.0184576
0.0181127
0.017788
0.0174754
0.0171788
0.016895
0.0166152
0.0163367
0.0160727
0.0158105
0.0536232
0.0429108
0.0363332
0.0319097
0.0281687
0.0253997
0.0231419
0.0212535
0.0196408
0.0182602
0.0170241
0.015945
0.0150329
0.0141597
0.0132074
0.0126282
0.011766
0.0113215
0.0106304
0.0102574
0.00975003
0.00929277
0.00897425
0.00862087
0.00837846
0.00802647
0.00772477
0.0075493
0.00723952
0.00716689
0.00685848
0.00669908
0.0064916
0.0063648
0.00612715
0.00603695
0.00583555
0.00570906
0.00556241
0.00542267
0.0455517
0.0395602
0.0344062
0.0300978
0.0265277
0.02361
0.0211879
0.0191471
0.0174068
0.0159097
0.014608
0.0134695
0.0124974
0.0115932
0.0107897
0.0100657
0.00938613
0.00879974
0.00829976
0.00789617
0.00749718
0.00709346
0.00676873
0.00640248
0.00615274
0.00586049
0.00557935
0.00539834
0.00514752
0.00502927
0.00480972
0.00467437
0.00448219
0.00438593
0.00419624
0.00410655
0.00400892
0.00392811
0.00375914
0.00364399
0.0479524
0.0415691
0.0361826
0.0316585
0.0278771
0.0247114
0.022055
0.0198035
0.0178766
0.0162149
0.0147734
0.0135141
0.0124146
0.0114365
0.0105719
0.00980223
0.00911688
0.00849811
0.00794752
0.00745429
0.00701385
0.00660424
0.00621797
0.00582026
0.00556906
0.00532584
0.00510196
0.00485902
0.0046812
0.00445111
0.00430377
0.00414131
0.00399237
0.00389796
0.00370227
0.00364363
0.00355684
0.00346024
0.00334968
0.00324011
0.0494944
0.0430245
0.0375502
0.0329293
0.0290282
0.025718
0.0228882
0.0204784
0.0184292
0.0166651
0.0151343
0.0137986
0.0126245
0.0115948
0.0106843
0.00987618
0.00915673
0.00851352
0.00793674
0.00741824
0.00695021
0.00653124
0.00613759
0.00579597
0.00547976
0.00519912
0.00489686
0.00464393
0.00447287
0.00433252
0.0041629
0.00400907
0.00386857
0.00374822
0.00359663
0.00352776
0.00343698
0.00333471
0.00322937
0.00312877
0.0502349
0.0436075
0.0380628
0.0333905
0.0294362
0.0260743
0.0231959
0.0207194
0.0186071
0.0168011
0.0152398
0.0138794
0.0126847
0.0116371
0.0107118
0.0098913
0.00916051
0.00850753
0.00792294
0.00739825
0.00692547
0.00650176
0.00610774
0.00577041
0.00545175
0.00515931
0.0048898
0.00464785
0.00437637
0.00425231
0.00409798
0.00395267
0.00381655
0.00369751
0.00355709
0.00349589
0.00340393
0.00329997
0.00319292
0.00308952
0.0499832
0.0431396
0.0375347
0.0328676
0.0289444
0.0256189
0.0227794
0.0203562
0.0182925
0.0165224
0.0149942
0.0136657
0.0125021
0.0114804
0.010579
0.00977962
0.00906833
0.00843236
0.0078611
0.00734837
0.00688534
0.00646915
0.00608184
0.00575109
0.00543174
0.00513998
0.00488148
0.00462388
0.00438938
0.00427032
0.00410412