/*--------------------------------*- C++ -*----------------------------------*\
| =========                 |                                                 |
| \\      /  F ield         | OpenFOAM: The Open Source CFD Toolbox           |
|  \\    /   O peration     | Version:  2212                                  |
|   \\  /    A nd           | Website:  www.openfoam.com                      |
|    \\/     M anipulation  |                                                 |
\*---------------------------------------------------------------------------*/
FoamFile
{
    version     2.0;
    format      ascii;
    arch        "LSB;label=32;scalar=64";
    class       volScalarField;
    location    "2.8";
    object      p;
}
// * * * * * * * * * * * * * * * * * * * * * * * * * * * * * * * * * * * * * //

dimensions      [0 2 -2 0 0 0 0];

internalField   nonuniform List<scalar> 
6840
(
0.01783
0.0107155
0.00842411
0.00788629
0.00761194
0.00738976
0.00720315
0.00703676
0.00687567
0.00671631
0.00655881
0.00640297
0.0062476
0.00609168
0.0059353
0.0057785
0.00562161
0.00546077
0.00526895
0.00493951
0.0106512
0.00991732
0.00882442
0.00815845
0.00775585
0.00748211
0.00727091
0.00708463
0.00691012
0.00674261
0.00657957
0.00641912
0.00625938
0.0060992
0.00593832
0.00577597
0.00560769
0.00542072
0.00517916
0.00479938
0.0103029
0.00945136
0.00868709
0.00812795
0.00775176
0.00748367
0.0072679
0.00707481
0.0068961
0.00672708
0.00656274
0.00640073
0.00624027
0.00608046
0.00591962
0.00575528
0.00558337
0.00539839
0.00519452
0.00496245
0.00989358
0.00913085
0.00851208
0.00806074
0.00771673
0.00744764
0.0072279
0.00703888
0.00687069
0.00671268
0.00655606
0.00639924
0.00624265
0.0060864
0.00592998
0.00577264
0.00561365
0.00545319
0.00529308
0.00513575
0.00975938
0.00901819
0.00843001
0.00802187
0.0076999
0.00743312
0.0072115
0.00702068
0.00684964
0.00669249
0.00654187
0.00639079
0.00623825
0.00608579
0.00593465
0.00578557
0.00563957
0.00549663
0.00535725
0.00522638
0.0097594
0.00901821
0.00843005
0.00802193
0.00769999
0.00743326
0.00721172
0.00702106
0.00685028
0.00669354
0.00654359
0.00639362
0.00624291
0.00609332
0.0059467
0.00580483
0.00566981
0.00554354
0.00542463
0.00531613
0.00989364
0.00913092
0.00851216
0.00806085
0.00771691
0.00744793
0.00722842
0.00703979
0.00687223
0.00671522
0.00656025
0.00640607
0.0062537
0.00610428
0.00595922
0.00582089
0.00569277
0.00558005
0.00548965
0.00543301
0.0103029
0.00945142
0.00868716
0.00812805
0.00775193
0.00748399
0.00726845
0.00707573
0.00689763
0.00672964
0.00656704
0.00640782
0.00625182
0.00609938
0.00595093
0.00580757
0.0056718
0.00554812
0.00545051
0.00540308
0.0106512
0.00991733
0.00882444
0.00815849
0.00775593
0.00748225
0.00727116
0.00708508
0.0069109
0.00674395
0.00658178
0.00642279
0.00626573
0.00611042
0.00595779
0.0058089
0.00566285
0.00551961
0.00538318
0.00526285
0.01783
0.0107155
0.0084241
0.00788628
0.00761193
0.00738974
0.00720314
0.00703675
0.00687565
0.00671629
0.00655879
0.00640294
0.00624757
0.00609165
0.00593527
0.00577845
0.00562154
0.00546069
0.00526885
0.00493935
0.0106512
0.00991734
0.00882445
0.0081585
0.00775594
0.00748226
0.00727117
0.00708509
0.00691091
0.00674397
0.00658181
0.00642282
0.00626576
0.00611045
0.00595783
0.00580896
0.00566293
0.0055197
0.0053833
0.00526305
0.00993459
0.00990289
0.00917468
0.00846419
0.00801786
0.00770195
0.0074431
0.00721551
0.00701105
0.00682285
0.00664543
0.00647503
0.00630863
0.00614462
0.00598244
0.00582103
0.00565924
0.00549575
0.00534193
0.00523339
0.0090091
0.00913529
0.0088324
0.00841619
0.00804904
0.00773039
0.00745179
0.00721126
0.0069985
0.00680368
0.00661997
0.00644399
0.00627352
0.00610646
0.00594091
0.00577511
0.00560786
0.00543847
0.00527117
0.00512251
0.0085907
0.00863421
0.00846862
0.00820568
0.00792527
0.0076539
0.00740282
0.00717633
0.00697305
0.00678601
0.00660822
0.00643649
0.00626942
0.00610551
0.00594334
0.00578186
0.00562054
0.00545993
0.00530258
0.00515266
0.00837473
0.00839656
0.00826935
0.00805182
0.00781937
0.00759019
0.00736733
0.00715411
0.00695326
0.00676579
0.00658916
0.00641996
0.00625655
0.00609725
0.00594075
0.00578751
0.00563791
0.00549159
0.00534918
0.0052098
0.00837478
0.00839661
0.00826942
0.00805193
0.00781954
0.00759042
0.00736769
0.00715465
0.00695406
0.00676711
0.0065914
0.00642368
0.00626252
0.00610647
0.00595445
0.00580763
0.0056674
0.00553421
0.00540771
0.00528126
0.00859079
0.0086343
0.00846876
0.00820586
0.00792554
0.00765428
0.00740341
0.00717727
0.00697463
0.00678886
0.00661324
0.00644464
0.00628157
0.00612361
0.00597135
0.0058257
0.00568788
0.00556014
0.00544597
0.00534167
0.00900914
0.00913534
0.00883248
0.00841629
0.00804919
0.00773062
0.00745221
0.007212
0.00699981
0.00680585
0.00662339
0.00644935
0.00628206
0.00612026
0.00596312
0.00581035
0.00566261
0.00552108
0.00539193
0.00529228
0.00993458
0.00990288
0.00917466
0.00846418
0.00801785
0.00770193
0.00744308
0.0072155
0.00701103
0.00682283
0.00664541
0.00647501
0.0063086
0.00614459
0.00598241
0.00582099
0.00565918
0.00549569
0.00534185
0.00523328
0.0106512
0.0099173
0.00882441
0.00815843
0.00775583
0.00748209
0.00727089
0.00708461
0.0069101
0.00674259
0.00657954
0.00641909
0.00625934
0.00609917
0.00593829
0.00577592
0.00560763
0.00542065
0.00517908
0.00479926
0.0103029
0.00945143
0.00868717
0.00812805
0.00775194
0.007484
0.00726846
0.00707574
0.00689764
0.00672966
0.00656706
0.00640784
0.00625184
0.00609941
0.00595097
0.00580761
0.00567187
0.00554821
0.00545063
0.00540328
0.00900915
0.00913535
0.00883249
0.0084163
0.0080492
0.00773063
0.00745222
0.00721201
0.00699982
0.00680586
0.00662341
0.00644936
0.00628208
0.00612028
0.00596315
0.00581038
0.00566264
0.00552113
0.00539198
0.00529232
0.00843964
0.00854062
0.00842907
0.00820362
0.00794789
0.00768953
0.0074312
0.00718968
0.00697195
0.00677191
0.00658461
0.00640692
0.00623627
0.00607065
0.0059088
0.00574965
0.00559231
0.00543685
0.00528414
0.00513303
0.00807162
0.00813968
0.0080873
0.00794031
0.00775543
0.00755031
0.00733966
0.00713277
0.00693165
0.0067392
0.00655653
0.00638179
0.00621301
0.00604871
0.00588783
0.00572935
0.00557235
0.00541652
0.0052626
0.00510805
0.00788855
0.00795299
0.00792352
0.00779866
0.00763962
0.00746593
0.00727966
0.00709163
0.00690547
0.00672199
0.00654275
0.0063687
0.00620026
0.00603692
0.00587825
0.00572391
0.00557295
0.0054245
0.00527958
0.0051337
0.00788858
0.00795302
0.00792356
0.00779876
0.00763981
0.00746619
0.00727997
0.00709206
0.00690609
0.00672294
0.00654418
0.00637082
0.00620328
0.00604141
0.00588503
0.00573366
0.00558655
0.00544333
0.0053054
0.00516411
0.00807167
0.00813974
0.00808738
0.00794046
0.00775566
0.0075506
0.00734004
0.00713333
0.00693251
0.00674059
0.00655879
0.00638532
0.00621825
0.00605651
0.00589944
0.00574624
0.00559664
0.00545112
0.00531035
0.00516423
0.00843963
0.00854061
0.00842906
0.0082036
0.00794788
0.00768951
0.00743118
0.00718967
0.00697194
0.00677189
0.00658459
0.00640691
0.00623625
0.00607062
0.00590878
0.00574964
0.0055923
0.00543684
0.00528412
0.00513305
0.00900909
0.00913527
0.00883239
0.00841617
0.00804903
0.00773037
0.00745178
0.00721124
0.00699848
0.00680366
0.00661995
0.00644396
0.0062735
0.00610643
0.00594087
0.00577507
0.00560781
0.00543842
0.00527112
0.00512244
0.0103029
0.00945135
0.00868708
0.00812793
0.00775174
0.00748365
0.00726789
0.00707479
0.00689608
0.00672705
0.00656271
0.0064007
0.00624024
0.00608043
0.00591959
0.00575523
0.00558331
0.00539831
0.0051944
0.00496228
0.00989365
0.00913092
0.00851217
0.00806086
0.00771692
0.00744794
0.00722843
0.0070398
0.00687224
0.00671523
0.00656026
0.00640608
0.00625371
0.00610431
0.00595924
0.00582092
0.00569281
0.00558011
0.00548974
0.00543314
0.0085908
0.00863431
0.00846877
0.00820587
0.00792556
0.00765429
0.00740342
0.00717728
0.00697465
0.00678887
0.00661325
0.00644465
0.00628158
0.00612362
0.00597136
0.00582571
0.00568789
0.00556015
0.00544597
0.00534162
0.00807168
0.00813975
0.00808739
0.00794047
0.00775567
0.00755061
0.00734005
0.00713334
0.00693253
0.0067406
0.00655881
0.00638533
0.00621827
0.00605652
0.00589944
0.00574624
0.00559663
0.00545111
0.00531032
0.00516416
0.00777375
0.00783289
0.00782096
0.00772558
0.00758597
0.00742051
0.00724036
0.00705593
0.00687202
0.00669174
0.00651673
0.00634683
0.00618145
0.00601997
0.0058618
0.00570618
0.00555221
0.00539919
0.005247
0.00508931
0.00762262
0.00768551
0.00768927
0.00761562
0.0074955
0.0073491
0.0071862
0.00701477
0.00684061
0.00666702
0.00649583
0.00632792
0.00616357
0.00600266
0.00584491
0.00568984
0.00553657
0.00538445
0.00523383
0.0050786
0.00762263
0.00768553
0.00768929
0.00761565
0.00749554
0.00734918
0.00718632
0.00701493
0.00684083
0.00666733
0.00649626
0.00632853
0.00616446
0.00600404
0.00584705
0.0056929
0.00554071
0.00539017
0.0052426
0.00508998
0.00777374
0.00783289
0.00782095
0.00772557
0.00758596
0.0074205
0.00724034
0.00705592
0.00687201
0.00669173
0.00651671
0.00634682
0.00618144
0.00601996
0.00586179
0.00570617
0.00555221
0.00539919
0.00524701
0.00508932
0.0080716
0.00813967
0.00808728
0.00794029
0.00775541
0.0075503
0.00733965
0.00713276
0.00693164
0.00673918
0.00655651
0.00638178
0.00621299
0.00604869
0.00588781
0.00572934
0.00557233
0.0054165
0.0052626
0.00510811
0.00859068
0.00863419
0.00846861
0.00820566
0.00792526
0.00765388
0.0074028
0.00717631
0.00697303
0.00678599
0.0066082
0.00643646
0.00626939
0.00610548
0.0059433
0.00578182
0.00562049
0.00545986
0.0053025
0.0051526
0.00989357
0.00913084
0.00851206
0.00806072
0.00771671
0.00744762
0.00722788
0.00703886
0.00687067
0.00671265
0.00655604
0.00639922
0.00624262
0.00608636
0.00592993
0.00577257
0.00561355
0.00545304
0.00529285
0.00513537
0.0097594
0.00901822
0.00843006
0.00802194
0.0077
0.00743327
0.00721173
0.00702107
0.00685029
0.00669355
0.0065436
0.00639364
0.00624292
0.00609334
0.00594671
0.00580485
0.00566983
0.00554357
0.00542467
0.00531618
0.00837479
0.00839662
0.00826943
0.00805194
0.00781955
0.00759043
0.0073677
0.00715466
0.00695407
0.00676712
0.00659141
0.0064237
0.00626253
0.00610648
0.00595446
0.00580764
0.00566741
0.00553421
0.0054077
0.00528122
0.00788859
0.00795303
0.00792357
0.00779877
0.00763981
0.0074662
0.00727998
0.00709207
0.0069061
0.00672295
0.00654419
0.00637083
0.00620329
0.00604141
0.00588504
0.00573366
0.00558655
0.00544332
0.00530538
0.00516406
0.00762264
0.00768554
0.0076893
0.00761566
0.00749555
0.00734918
0.00718632
0.00701494
0.00684084
0.00666733
0.00649627
0.00632853
0.00616446
0.00600404
0.00584705
0.00569289
0.00554071
0.00539016
0.00524257
0.00508995
0.00747982
0.00754934
0.00757146
0.00751892
0.00741767
0.00728673
0.00713681
0.00697582
0.00680931
0.00664096
0.00647315
0.0063073
0.00614417
0.00598408
0.00582701
0.00567259
0.00552013
0.00536959
0.00522233
0.00506985
0.00747982
0.00754933
0.00757146
0.00751891
0.00741766
0.00728673
0.00713681
0.00697581
0.0068093
0.00664096
0.00647315
0.0063073
0.00614417
0.00598407
0.00582701
0.0056726
0.00552013
0.00536959
0.00522234
0.00506986
0.00762261
0.00768551
0.00768926
0.00761561
0.00749549
0.0073491
0.00718619
0.00701476
0.0068406
0.00666701
0.00649582
0.00632791
0.00616356
0.00600265
0.0058449
0.00568983
0.00553656
0.00538445
0.00523384
0.00507862
0.00788854
0.00795298
0.00792351
0.00779865
0.00763961
0.00746592
0.00727964
0.00709162
0.00690545
0.00672198
0.00654273
0.00636869
0.00620024
0.0060369
0.00587823
0.00572389
0.00557295
0.00542451
0.00527966
0.00513394
0.00837472
0.00839655
0.00826934
0.0080518
0.00781936
0.00759017
0.00736731
0.00715409
0.00695324
0.00676577
0.00658914
0.00641994
0.00625652
0.00609722
0.00594071
0.00578747
0.00563786
0.00549155
0.00534918
0.00520995
0.00975936
0.00901818
0.00843
0.00802186
0.00769988
0.00743311
0.00721148
0.00702067
0.00684963
0.00669247
0.00654185
0.00639077
0.00623822
0.00608575
0.0059346
0.00578551
0.00563949
0.00549649
0.00535703
0.00522602
0.00975939
0.0090182
0.00843002
0.00802189
0.00769991
0.00743313
0.00721151
0.0070207
0.00684966
0.0066925
0.00654188
0.0063908
0.00623826
0.0060858
0.00593465
0.00578558
0.00563958
0.00549663
0.00535725
0.00522638
0.00837474
0.00839657
0.00826936
0.00805183
0.00781939
0.0075902
0.00736734
0.00715412
0.00695327
0.00676581
0.00658917
0.00641997
0.00625656
0.00609725
0.00594076
0.00578752
0.00563792
0.0054916
0.00534919
0.00520982
0.00788856
0.007953
0.00792353
0.00779867
0.00763963
0.00746594
0.00727967
0.00709164
0.00690548
0.006722
0.00654275
0.00636871
0.00620027
0.00603693
0.00587825
0.00572391
0.00557296
0.00542451
0.00527959
0.00513371
0.00762262
0.00768552
0.00768928
0.00761563
0.0074955
0.00734911
0.00718621
0.00701477
0.00684061
0.00666702
0.00649584
0.00632792
0.00616357
0.00600266
0.00584491
0.00568984
0.00553657
0.00538445
0.00523383
0.00507859
0.00747982
0.00754934
0.00757146
0.00751892
0.00741767
0.00728673
0.00713681
0.00697582
0.00680931
0.00664096
0.00647315
0.0063073
0.00614417
0.00598407
0.00582701
0.00567259
0.00552012
0.00536958
0.00522232
0.00506984
0.00747982
0.00754933
0.00757146
0.00751891
0.00741766
0.00728673
0.00713681
0.00697581
0.0068093
0.00664096
0.00647315
0.0063073
0.00614417
0.00598407
0.005827
0.00567259
0.00552012
0.00536958
0.00522232
0.00506984
0.00762263
0.00768552
0.00768929
0.00761565
0.00749554
0.00734917
0.00718631
0.00701492
0.00684082
0.00666732
0.00649625
0.00632852
0.00616445
0.00600403
0.00584703
0.00569287
0.00554068
0.00539013
0.00524254
0.00508992
0.00788857
0.00795301
0.00792355
0.00779875
0.00763979
0.00746618
0.00727996
0.00709204
0.00690607
0.00672292
0.00654416
0.0063708
0.00620326
0.00604139
0.00588501
0.00573362
0.0055865
0.00544326
0.00530532
0.00516402
0.00837476
0.00839659
0.0082694
0.00805192
0.00781953
0.00759041
0.00736767
0.00715463
0.00695404
0.00676709
0.00659138
0.00642366
0.00626249
0.00610644
0.00595442
0.00580759
0.00566735
0.00553413
0.00540761
0.00528109
0.00975938
0.0090182
0.00843003
0.00802192
0.00769997
0.00743325
0.0072117
0.00702105
0.00685026
0.00669352
0.00654357
0.0063936
0.00624288
0.00609329
0.00594666
0.0058048
0.00566977
0.00554349
0.00542457
0.00531607
0.00989359
0.00913086
0.00851209
0.00806075
0.00771674
0.00744765
0.00722791
0.00703889
0.0068707
0.00671269
0.00655607
0.00639926
0.00624267
0.00608641
0.00592999
0.00577264
0.00561365
0.00545318
0.00529306
0.0051357
0.00859071
0.00863422
0.00846863
0.00820569
0.00792528
0.00765391
0.00740283
0.00717634
0.00697306
0.00678603
0.00660823
0.0064365
0.00626943
0.00610552
0.00594335
0.00578187
0.00562055
0.00545993
0.00530258
0.00515266
0.00807162
0.00813969
0.0080873
0.00794032
0.00775544
0.00755032
0.00733967
0.00713278
0.00693166
0.00673921
0.00655653
0.0063818
0.00621302
0.00604872
0.00588784
0.00572936
0.00557236
0.00541653
0.00526261
0.00510808
0.00777375
0.0078329
0.00782097
0.00772559
0.00758598
0.00742051
0.00724036
0.00705593
0.00687202
0.00669174
0.00651673
0.00634684
0.00618145
0.00601997
0.0058618
0.00570618
0.00555221
0.00539918
0.00524698
0.00508928
0.00762264
0.00768553
0.0076893
0.00761566
0.00749555
0.00734918
0.00718632
0.00701494
0.00684084
0.00666733
0.00649626
0.00632853
0.00616446
0.00600404
0.00584704
0.00569288
0.00554069
0.00539014
0.00524255
0.00508993
0.00762262
0.00768551
0.00768927
0.00761562
0.0074955
0.0073491
0.0071862
0.00701476
0.0068406
0.00666701
0.00649582
0.00632791
0.00616356
0.00600265
0.00584489
0.00568982
0.00553654
0.00538442
0.00523379
0.00507856
0.00777374
0.00783288
0.00782095
0.00772557
0.00758596
0.0074205
0.00724034
0.00705592
0.00687201
0.00669173
0.00651671
0.00634682
0.00618143
0.00601995
0.00586177
0.00570615
0.00555217
0.00539914
0.00524692
0.00508919
0.00807166
0.00813973
0.00808737
0.00794045
0.00775565
0.00755059
0.00734003
0.00713333
0.00693251
0.00674058
0.00655878
0.00638531
0.00621824
0.00605649
0.00589941
0.0057462
0.00559658
0.00545103
0.00531019
0.00516394
0.00859078
0.00863429
0.00846875
0.00820585
0.00792553
0.00765427
0.0074034
0.00717725
0.00697462
0.00678884
0.00661322
0.00644462
0.00628155
0.00612358
0.00597132
0.00582567
0.00568784
0.00556008
0.00544586
0.00534134
0.00989363
0.0091309
0.00851215
0.00806084
0.0077169
0.00744792
0.0072284
0.00703977
0.00687221
0.00671521
0.00656023
0.00640605
0.00625368
0.00610426
0.0059592
0.00582087
0.00569276
0.00558005
0.00548969
0.00543312
0.0103029
0.00945138
0.00868711
0.00812796
0.00775177
0.00748368
0.00726792
0.00707483
0.00689612
0.00672709
0.00656275
0.00640075
0.00624029
0.00608047
0.00591963
0.00575529
0.00558337
0.00539839
0.00519449
0.0049624
0.00900911
0.0091353
0.00883241
0.0084162
0.00804905
0.0077304
0.0074518
0.00721127
0.00699851
0.00680369
0.00661998
0.00644399
0.00627353
0.00610647
0.00594091
0.00577511
0.00560785
0.00543846
0.00527116
0.0051225
0.00843965
0.00854062
0.00842907
0.00820362
0.0079479
0.00768953
0.0074312
0.00718969
0.00697196
0.00677192
0.00658462
0.00640693
0.00623628
0.00607065
0.0059088
0.00574966
0.00559231
0.00543685
0.00528414
0.00513303
0.00807168
0.00813975
0.00808739
0.00794047
0.00775567
0.00755061
0.00734005
0.00713335
0.00693253
0.0067406
0.00655881
0.00638533
0.00621827
0.00605652
0.00589944
0.00574624
0.00559662
0.00545109
0.00531028
0.0051641
0.00788859
0.00795302
0.00792356
0.00779876
0.00763981
0.0074662
0.00727998
0.00709206
0.00690609
0.00672294
0.00654418
0.00637082
0.00620328
0.0060414
0.00588502
0.00573364
0.00558653
0.00544328
0.00530533
0.005164
0.00788855
0.00795299
0.00792352
0.00779866
0.00763962
0.00746593
0.00727965
0.00709163
0.00690547
0.00672199
0.00654274
0.0063687
0.00620025
0.00603691
0.00587823
0.00572389
0.00557293
0.00542446
0.00527954
0.00513365
0.00807161
0.00813967
0.00808729
0.0079403
0.00775542
0.0075503
0.00733965
0.00713276
0.00693164
0.00673919
0.00655651
0.00638178
0.00621299
0.00604869
0.0058878
0.00572933
0.00557231
0.00541646
0.00526251
0.00510792
0.00843963
0.00854061
0.00842905
0.0082036
0.00794788
0.00768951
0.00743118
0.00718967
0.00697194
0.00677189
0.00658459
0.0064069
0.00623625
0.00607062
0.00590876
0.00574962
0.00559227
0.00543679
0.00528401
0.00513269
0.00900914
0.00913533
0.00883247
0.00841628
0.00804918
0.00773061
0.0074522
0.00721199
0.0069998
0.00680584
0.00662338
0.00644934
0.00628205
0.00612024
0.00596311
0.00581034
0.0056626
0.00552108
0.00539188
0.00529209
0.0103029
0.00945141
0.00868715
0.00812803
0.00775192
0.00748398
0.00726844
0.00707572
0.00689762
0.00672963
0.00656703
0.00640781
0.00625181
0.00609937
0.00595092
0.00580757
0.00567182
0.00554817
0.00545061
0.00540345
0.0106512
0.00991732
0.00882443
0.00815846
0.00775586
0.00748212
0.00727092
0.00708464
0.00691013
0.00674262
0.00657959
0.00641913
0.00625939
0.00609921
0.00593833
0.00577598
0.00560769
0.00542072
0.00517914
0.00479934
0.0099346
0.0099029
0.00917468
0.0084642
0.00801787
0.00770195
0.00744311
0.00721552
0.00701106
0.00682286
0.00664544
0.00647504
0.00630864
0.00614463
0.00598244
0.00582103
0.00565923
0.00549575
0.00534192
0.00523337
0.00900916
0.00913535
0.0088325
0.00841631
0.0080492
0.00773064
0.00745222
0.00721202
0.00699982
0.00680586
0.00662341
0.00644937
0.00628208
0.00612028
0.00596315
0.00581038
0.00566264
0.00552113
0.00539199
0.00529234
0.0085908
0.00863431
0.00846877
0.00820587
0.00792555
0.00765429
0.00740342
0.00717728
0.00697465
0.00678887
0.00661325
0.00644465
0.00628158
0.00612362
0.00597135
0.00582571
0.00568789
0.00556015
0.00544597
0.0053416
0.00837478
0.00839661
0.00826942
0.00805194
0.00781955
0.00759043
0.00736769
0.00715465
0.00695406
0.00676712
0.0065914
0.00642369
0.00626252
0.00610647
0.00595445
0.00580763
0.00566739
0.00553419
0.00540767
0.00528116
0.00837473
0.00839656
0.00826935
0.00805182
0.00781937
0.00759019
0.00736733
0.00715411
0.00695326
0.00676579
0.00658916
0.00641995
0.00625654
0.00609724
0.00594074
0.0057875
0.00563789
0.00549156
0.00534914
0.00520975
0.00859069
0.0086342
0.00846862
0.00820567
0.00792527
0.00765389
0.00740282
0.00717632
0.00697304
0.006786
0.00660821
0.00643648
0.0062694
0.00610549
0.00594332
0.00578184
0.00562052
0.00545989
0.00530252
0.00515255
0.00900909
0.00913528
0.00883239
0.00841618
0.00804903
0.00773038
0.00745178
0.00721124
0.00699849
0.00680367
0.00661996
0.00644397
0.00627351
0.00610644
0.00594088
0.00577508
0.00560783
0.00543845
0.00527114
0.00512242
0.00993458
0.00990288
0.00917466
0.00846417
0.00801784
0.00770193
0.00744308
0.0072155
0.00701103
0.00682283
0.00664541
0.006475
0.0063086
0.00614459
0.00598241
0.00582101
0.00565922
0.00549576
0.00534199
0.00523367
0.0106512
0.00991732
0.00882444
0.00815848
0.00775592
0.00748224
0.00727116
0.00708508
0.00691089
0.00674395
0.00658178
0.00642279
0.00626572
0.00611042
0.00595779
0.00580892
0.00566288
0.00551969
0.00538335
0.00526332
0.01783
0.0107156
0.00842412
0.0078863
0.00761195
0.00738977
0.00720316
0.00703677
0.00687568
0.00671632
0.00655882
0.00640298
0.00624761
0.00609168
0.0059353
0.0057785
0.0056216
0.00546076
0.00526894
0.00493951
0.0106512
0.00991734
0.00882446
0.0081585
0.00775595
0.00748227
0.00727118
0.0070851
0.00691092
0.00674397
0.00658181
0.00642282
0.00626576
0.00611045
0.00595782
0.00580895
0.00566292
0.00551969
0.0053833
0.00526306
0.0103029
0.00945143
0.00868717
0.00812806
0.00775194
0.007484
0.00726846
0.00707575
0.00689764
0.00672966
0.00656706
0.00640784
0.00625184
0.0060994
0.00595096
0.00580761
0.00567187
0.00554821
0.00545064
0.00540331
0.00989365
0.00913092
0.00851217
0.00806086
0.00771692
0.00744794
0.00722843
0.0070398
0.00687224
0.00671523
0.00656026
0.00640608
0.00625371
0.0061043
0.00595924
0.00582091
0.00569281
0.00558011
0.00548975
0.00543316
0.0097594
0.00901822
0.00843005
0.00802194
0.00769999
0.00743327
0.00721173
0.00702107
0.00685029
0.00669354
0.0065436
0.00639363
0.00624291
0.00609333
0.00594671
0.00580484
0.00566983
0.00554356
0.00542467
0.00531618
0.00975938
0.00901819
0.00843001
0.00802187
0.0076999
0.00743312
0.0072115
0.00702069
0.00684965
0.00669249
0.00654187
0.00639079
0.00623825
0.00608579
0.00593464
0.00578557
0.00563957
0.00549661
0.00535722
0.00522633
0.00989358
0.00913085
0.00851207
0.00806073
0.00771673
0.00744763
0.00722789
0.00703887
0.00687068
0.00671267
0.00655605
0.00639923
0.00624264
0.00608639
0.00592997
0.00577262
0.00561363
0.00545316
0.00529304
0.00513567
0.0103029
0.00945135
0.00868708
0.00812794
0.00775175
0.00748366
0.0072679
0.0070748
0.00689609
0.00672707
0.00656272
0.00640072
0.00624025
0.00608044
0.00591961
0.00575527
0.00558336
0.00539838
0.00519451
0.00496245
0.0106512
0.0099173
0.00882441
0.00815844
0.00775584
0.0074821
0.0072709
0.00708462
0.0069101
0.00674259
0.00657955
0.00641909
0.00625935
0.00609918
0.00593831
0.00577595
0.00560767
0.00542073
0.00517923
0.00479965
0.01783
0.0107155
0.0084241
0.00788628
0.00761193
0.00738974
0.00720314
0.00703675
0.00687565
0.00671629
0.00655879
0.00640294
0.00624757
0.00609165
0.00593528
0.00577847
0.00562157
0.00546077
0.00526898
0.00493975
0.00546241
0.00485067
0.00451888
0.00439104
0.0042812
0.00415084
0.00401684
0.00388352
0.00374998
0.00361721
0.00348459
0.00335366
0.00322389
0.00309158
0.00296078
0.00283178
0.00270406
0.00257805
0.00245328
0.00233033
0.00220772
0.00208609
0.001967
0.00184848
0.00172945
0.0016116
0.00149566
0.00138072
0.00126718
0.0011542
0.00104128
0.000929563
0.000818833
0.000708892
0.000599308
0.000490211
0.000381746
0.000272846
0.000165197
5.10398e-05
0.00533734
0.00489071
0.00458828
0.00444947
0.00432534
0.00418589
0.00404566
0.00390692
0.00376829
0.00363074
0.0034938
0.00335913
0.00322536
0.00308978
0.00295661
0.00282604
0.00269728
0.00257051
0.00244527
0.00232197
0.00219934
0.0020783
0.00196013
0.00184223
0.00172345
0.00160573
0.00148983
0.00137497
0.00126148
0.00114866
0.00103615
0.000924898
0.000814619
0.000705138
0.000595911
0.00048711
0.000379036
0.000270738
0.000163111
5.05314e-05
0.00509007
0.00489878
0.00466996
0.00449718
0.00435232
0.0042061
0.00405878
0.0039136
0.00377085
0.00362992
0.00349083
0.00335354
0.00321765
0.00308272
0.00295016
0.00281996
0.0026914
0.00256459
0.00243915
0.00231547
0.0021923
0.00207108
0.00195219
0.00183412
0.00171625
0.0015991
0.00148354
0.00136889
0.00125542
0.00114282
0.00103121
0.000920767
0.000811186
0.000702084
0.000593117
0.000484851
0.00037731
0.000269407
0.000162325
5.01194e-05
0.00490726
0.00481444
0.00466284
0.00450757
0.00436204
0.00421707
0.00407136
0.00392643
0.00378315
0.00364163
0.00350204
0.00336438
0.00322851
0.00309424
0.00296189
0.00283149
0.00270274
0.00257554
0.00244956
0.00232501
0.00220101
0.00207761
0.00195559
0.00183549
0.00171694
0.00159959
0.0014836
0.00136883
0.00125526
0.00114261
0.001031
0.000919827
0.000809697
0.000700461
0.000591651
0.000483768
0.000376482
0.000268708
0.000161867
4.96427e-05
0.00492944
0.00482576
0.00467134
0.00451148
0.00435875
0.00420933
0.00406196
0.00391774
0.00377597
0.00363576
0.00349754
0.00336163
0.00322732
0.00309447
0.0029634
0.0028339
0.00270578
0.00257894
0.00245333
0.00232895
0.00220579
0.00208382
0.00196289
0.00184289
0.00172409
0.00160653
0.00149039
0.00137559
0.00126179
0.00114881
0.00103632
0.000923936
0.000812688
0.000702872
0.000593869
0.000485767
0.000377906
0.000269551
0.000162297
4.96551e-05
0.00497768
0.00483831
0.00467227
0.00450737
0.00435001
0.00419816
0.0040505
0.00390713
0.00376763
0.00363019
0.00349405
0.00335909
0.0032257
0.00309381
0.00296337
0.00283429
0.00270652
0.00258003
0.00245482
0.00233085
0.00220807
0.00208647
0.00196613
0.00184686
0.0017283
0.00161041
0.00149364
0.00137819
0.00126409
0.00115117
0.00103896
0.000927593
0.000817325
0.000707862
0.000598728
0.000490007
0.000381291
0.000272086
0.00016396
5.06322e-05
0.00505968
0.00487999
0.00468608
0.00450849
0.00434554
0.00419098
0.00404231
0.00389889
0.0037598
0.00362314
0.00348796
0.00335397
0.00322117
0.00308981
0.00296001
0.00283177
0.00270482
0.00257901
0.0024543
0.00233078
0.00220843
0.00208717
0.00196706
0.0018477
0.00172884
0.00161091
0.00149451
0.00137929
0.00126563
0.001153
0.00104078
0.000929771
0.000819499
0.000709666
0.000600527
0.000492103
0.000383629
0.000274632
0.000166184
5.22117e-05
0.00519364
0.00495786
0.00470735
0.00450314
0.00433037
0.00417302
0.00402451
0.00388267
0.00374526
0.00361065
0.00347771
0.00334574
0.00321377
0.00308253
0.00295315
0.00282574
0.00269961
0.00257457
0.00245056
0.00232758
0.00220577
0.00208489
0.00196555
0.00184662
0.00172865
0.00161216
0.00149686
0.00138249
0.00126915
0.00115635
0.00104381
0.000932683
0.000822303
0.000712197
0.000602899
0.000494514
0.000385862
0.000276669
0.000167643
5.32416e-05
0.00537168
0.00500996
0.00467194
0.00445238
0.00428299
0.00413023
0.00398769
0.00385277
0.00372238
0.00359342
0.00346504
0.00333608
0.00320713
0.00308012
0.00295364
0.00282742
0.00270106
0.00257577
0.00245184
0.00232883
0.00220686
0.00208551
0.0019661
0.00184751
0.00173013
0.00161382
0.00149834
0.00138371
0.00127011
0.00115705
0.00104412
0.000932516
0.00082188
0.000711674
0.000601909
0.000493248
0.000384517
0.000275195
0.000166092
5.25847e-05
0.00550629
0.00495037
0.00452964
0.00435146
0.00423378
0.00410992
0.00398277
0.00385593
0.00372915
0.00360127
0.00347536
0.00334862
0.00321935
0.0030922
0.00296574
0.00283912
0.00271242
0.00258675
0.00246249
0.00233937
0.00221697
0.00209483
0.00197478
0.00185536
0.00173595
0.00161821
0.00150199
0.00138697
0.00127324
0.00116007
0.00104686
0.000934826
0.000823822
0.000713408
0.000603402
0.000494517
0.000385617
0.000276005
0.000166838
5.28756e-05
0.0054624
0.00485057
0.00451855
0.00438948
0.00427957
0.00415172
0.00401867
0.0038849
0.00375118
0.00361716
0.00348611
0.00335505
0.00322153
0.00309017
0.00296045
0.00283187
0.00270424
0.002578
0.00245334
0.00233002
0.00220763
0.00208603
0.0019668
0.00184798
0.00172881
0.00161128
0.00149519
0.00138029
0.00126665
0.00115367
0.00104087
0.000929279
0.000818687
0.000708707
0.000599093
0.000490514
0.000381974
0.000272775
0.000165339
5.1027e-05
0.0055062
0.00495042
0.00452989
0.0043535
0.00423574
0.00410888
0.00398059
0.00385419
0.00372782
0.00360123
0.00347359
0.00334717
0.00322172
0.00309369
0.00296609
0.00283889
0.00271212
0.0025867
0.00246237
0.00233965
0.00221705
0.00209499
0.00197512
0.00185602
0.00173657
0.00161842
0.00150234
0.00138736
0.00127377
0.00116062
0.00104725
0.000935061
0.000823908
0.000713561
0.000603626
0.000494185
0.000385199
0.000275859
0.000166591
5.27705e-05
0.00517834
0.00486714
0.00461191
0.00444064
0.00429503
0.00415455
0.00401939
0.00388752
0.00375615
0.00362439
0.00349274
0.00336187
0.00323151
0.00310015
0.00296988
0.00284096
0.00271337
0.00258751
0.00246284
0.00233989
0.00221704
0.0020955
0.00197562
0.00185671
0.0017378
0.00161923
0.00150286
0.0013876
0.00127375
0.00116059
0.00104751
0.000935357
0.000824186
0.000713675
0.000603686
0.000494535
0.000385813
0.000276696
0.000168116
5.35879e-05
0.00504222
0.00483121
0.00463432
0.00445694
0.00430321
0.004161
0.00402208
0.00388559
0.00375077
0.00361634
0.00348273
0.00334941
0.00321696
0.003087
0.00295789
0.00282945
0.00270228
0.00257647
0.00245194
0.00232827
0.0022055
0.00208377
0.00196267
0.00184343
0.00172622
0.00160957
0.00149389
0.00137925
0.00126547
0.00115263
0.00104083
0.000929344
0.000818656
0.000708485
0.000599133
0.000491051
0.000382981
0.000274091
0.000166225
5.28135e-05
0.00487223
0.00471099
0.00458517
0.00444556
0.00430421
0.00416637
0.00402928
0.00389326
0.00375811
0.00362367
0.00348994
0.00335689
0.00322477
0.00309409
0.00296427
0.00283539
0.00270788
0.00258157
0.00245655
0.00233237
0.00220965
0.00208769
0.00196634
0.00184669
0.00172897
0.00161222
0.001496
0.00138102
0.00126689
0.00115361
0.00104103
0.000928874
0.000817779
0.000707554
0.000598576
0.000490445
0.000381853
0.000273052
0.00016525
5.28549e-05
0.00486278
0.00471838
0.0045978
0.00446132
0.00431869
0.00417764
0.00403831
0.00389996
0.00376293
0.00362734
0.00349301
0.00335982
0.00322785
0.00309699
0.0029672
0.00283855
0.00271107
0.00258477
0.0024597
0.00233567
0.0022128
0.00209082
0.00196985
0.00185028
0.00173193
0.00161456
0.00149827
0.0013835
0.0012699
0.00115675
0.0010438
0.000931815
0.000820774
0.000710412
0.000601038
0.00049186
0.000382138
0.00027261
0.00016424
5.30317e-05
0.00494609
0.00478717
0.00464319
0.00449549
0.00434709
0.00420135
0.00405794
0.0039159
0.0037753
0.00363692
0.00350062
0.00336595
0.00323277
0.00310097
0.00297041
0.00284116
0.00271322
0.00258661
0.00246128
0.00233717