/*--------------------------------*- C++ -*----------------------------------*\
| =========                 |                                                 |
| \\      /  F ield         | OpenFOAM: The Open Source CFD Toolbox           |
|  \\    /   O peration     | Version:  2212                                  |
|   \\  /    A nd           | Website:  www.openfoam.com                      |
|    \\/     M anipulation  |                                                 |
\*---------------------------------------------------------------------------*/
FoamFile
{
    version     2.0;
    format      ascii;
    arch        "LSB;label=32;scalar=64";
    class       volVectorField;
    location    "2.8";
    object      U;
}
// * * * * * * * * * * * * * * * * * * * * * * * * * * * * * * * * * * * * * //

dimensions      [0 1 -1 0 0 0 0];

internalField   nonuniform List<vector> 
6840
(
(0.0956456 -0.00836005 -0.00836005)
(0.0904939 0.00152207 0.00152198)
(0.0790683 0.00242983 0.00242966)
(0.0713012 0.00148792 0.00148755)
(0.0661794 0.000830815 0.000830093)
(0.0623226 0.000564197 0.000563018)
(0.0592207 0.000427477 0.000424869)
(0.0566848 0.000325935 0.000321429)
(0.0545496 0.000256337 0.000248942)
(0.0526971 0.000208059 0.000195912)
(0.0510589 0.000175607 0.000154993)
(0.0495979 0.000155529 0.000121296)
(0.0482818 0.000144188 8.98717e-05)
(0.047082 0.00014098 5.65462e-05)
(0.0459881 0.000147675 1.83535e-05)
(0.0450072 0.00016963 -1.46024e-05)
(0.0441629 0.000220093 -0.000102685)
(0.0435409 0.000293935 -0.00027013)
(0.0435254 0.000362685 -0.000552927)
(0.0424554 -0.00109518 -0.00277855)
(0.0999088 0.00129701 0.000712545)
(0.0969668 0.00365598 0.00274719)
(0.0935346 0.00264035 0.00211801)
(0.0895893 0.00182069 0.00162035)
(0.0858321 0.00152931 0.00139022)
(0.0825901 0.00135211 0.00116051)
(0.0798652 0.00118089 0.000896024)
(0.0775671 0.0010432 0.00069047)
(0.075558 0.000947395 0.000557733)
(0.0737516 0.000873584 0.000475185)
(0.0721028 0.000806491 0.000423766)
(0.0705838 0.000741894 0.000389883)
(0.0691759 0.000687381 0.000367917)
(0.0678657 0.000649149 0.000356585)
(0.0666473 0.000625809 0.00034381)
(0.0655372 0.000613608 0.000301193)
(0.0645939 0.000599201 0.00021858)
(0.063959 0.000539144 -9.44509e-06)
(0.0640807 0.000527419 -0.000311487)
(0.0619816 0.000157488 -0.000807539)
(0.099413 0.000345247 0.000270225)
(0.0988664 0.00201912 0.00187484)
(0.0979217 0.00257328 0.00218881)
(0.0963663 0.00238014 0.00190806)
(0.0946342 0.00211456 0.00162619)
(0.0929737 0.00192752 0.00141792)
(0.0913668 0.00180266 0.00127004)
(0.0898586 0.00170741 0.00115809)
(0.0884627 0.00160814 0.00106681)
(0.0871717 0.0014998 0.000993292)
(0.0859798 0.00139264 0.000942617)
(0.0848749 0.00129362 0.00091046)
(0.0838422 0.0012023 0.00089096)
(0.0828753 0.00111433 0.000877747)
(0.0819775 0.00102452 0.000863644)
(0.0811693 0.000922174 0.000833201)
(0.0804969 0.000786929 0.000773231)
(0.0800232 0.000576112 0.000622786)
(0.0798259 0.000145038 0.000356613)
(0.0791364 -0.00109204 -0.000221683)
(0.0995405 0.000245033 0.000321897)
(0.0992576 0.00105557 0.00154092)
(0.0988491 0.00150224 0.00211437)
(0.0981252 0.00157925 0.0020915)
(0.0973379 0.0015144 0.00188595)
(0.0965868 0.00144554 0.00166561)
(0.0958686 0.0014085 0.00149771)
(0.0952031 0.00137618 0.00137111)
(0.0945782 0.00132837 0.00128403)
(0.093939 0.00125402 0.00122771)
(0.0933202 0.00115919 0.00118913)
(0.092722 0.00105496 0.00116374)
(0.0921385 0.000948312 0.00114895)
(0.0915682 0.000839086 0.00114155)
(0.0910116 0.000721948 0.00113562)
(0.090471 0.000573241 0.00112328)
(0.0899533 0.000372536 0.00109659)
(0.089469 7.74683e-05 0.00104915)
(0.0890207 -0.00035828 0.000992484)
(0.0884719 -0.000992854 0.00100126)
(0.0993801 3.37556e-05 5.89455e-05)
(0.0992678 0.000274281 0.00120001)
(0.0989805 0.000432126 0.00188843)
(0.0984749 0.00048301 0.00200635)
(0.0979962 0.00047802 0.00191444)
(0.0975721 0.000463997 0.00173433)
(0.0971831 0.000450055 0.00154668)
(0.0968345 0.00043745 0.0013876)
(0.0965363 0.000427793 0.00126846)
(0.0962847 0.00041415 0.00119693)
(0.0960152 0.000387522 0.00116829)
(0.095729 0.00034831 0.00116426)
(0.0954262 0.000298287 0.00117045)
(0.0950966 0.000236255 0.00118346)
(0.0947345 0.000161383 0.00120683)
(0.0943356 6.00056e-05 0.00124262)
(0.0938969 -8.89613e-05 0.00129254)
(0.0934022 -0.000309645 0.00135568)
(0.0928195 -0.000618132 0.00143751)
(0.0921732 -0.00109967 0.0015643)
(0.0993802 -3.37905e-05 5.90005e-05)
(0.0992677 -0.00027446 0.00120005)
(0.0989805 -0.000432517 0.00188845)
(0.0984747 -0.000483702 0.00200642)
(0.0979957 -0.000479235 0.00191462)
(0.097571 -0.000466178 0.00173473)
(0.0971811 -0.000453984 0.00154727)
(0.0968311 -0.000444254 0.00138862)
(0.0965304 -0.000439399 0.00127038)
(0.0962746 -0.000433685 0.00120042)
(0.095998 -0.00042009 0.00117425)
(0.0956999 -0.000402109 0.00117427)
(0.0953766 -0.000386996 0.00118726)
(0.0950124 -0.000381868 0.00121198)
(0.0945946 -0.000398083 0.00125751)
(0.0941091 -0.000444369 0.00132927)
(0.0935365 -0.000547079 0.0014323)
(0.0928544 -0.000697647 0.00158556)
(0.0919913 -0.000963458 0.0017847)
(0.0910055 -0.00160305 0.00189713)
(0.0995405 -0.000245045 0.000321898)
(0.0992576 -0.00105563 0.00154092)
(0.0988488 -0.00150236 0.00211449)
(0.0981246 -0.00157946 0.00209171)
(0.0973365 -0.00151494 0.00188629)
(0.0965842 -0.00144669 0.00166614)
(0.0958639 -0.00141057 0.00149834)
(0.0951951 -0.00137965 0.00137218)
(0.0945641 -0.0013345 0.00128644)
(0.0939148 -0.00126393 0.00123304)
(0.0932792 -0.00117481 0.00119937)
(0.0926525 -0.00107989 0.00118269)
(0.092022 -0.000990191 0.00118045)
(0.0913734 -0.000910635 0.00119395)
(0.0906881 -0.000841928 0.00122785)
(0.0899371 -0.000782695 0.00129164)
(0.0890715 -0.00074219 0.00140324)
(0.088018 -0.000731359 0.00159586)
(0.086668 -0.000789115 0.0019019)
(0.0852563 -0.00103441 0.00229926)
(0.099413 -0.000345225 0.000270233)
(0.0988664 -0.00201901 0.00187492)
(0.0979214 -0.00257307 0.00218907)
(0.0963656 -0.00237977 0.0019085)
(0.0946329 -0.00211399 0.0016268)
(0.0929712 -0.00192661 0.0014188)
(0.0913623 -0.00180132 0.00127148)
(0.0898507 -0.00170525 0.00116053)
(0.0884489 -0.00160453 0.00107074)
(0.0871484 -0.00149384 0.000999793)
(0.0859404 -0.00138283 0.000952906)
(0.0848078 -0.00127791 0.000928368)
(0.083729 -0.0011782 0.000922081)
(0.0826848 -0.00107911 0.0009313)
(0.0816569 -0.000975507 0.000957302)
(0.0806216 -0.00086062 0.00100678)
(0.0795401 -0.000725037 0.00109555)
(0.0783294 -0.000547657 0.00124668)
(0.0768998 -0.000280472 0.0014566)
(0.0754488 -0.000153958 0.00264037)
(0.0999088 -0.00129699 0.000712564)
(0.0969668 -0.00365582 0.00274729)
(0.0935345 -0.0026401 0.00211822)
(0.089589 -0.00182025 0.00162076)
(0.0858316 -0.0015284 0.00139081)
(0.0825892 -0.0013507 0.00116159)
(0.0798636 -0.00117832 0.000897812)
(0.077564 -0.00103878 0.000693352)
(0.0755524 -0.000939808 0.000562544)
(0.0737418 -0.000860512 0.000483307)
(0.0720849 -0.000783984 0.00043945)
(0.070551 -0.000704435 0.000417122)
(0.0691177 -0.000626897 0.000407229)
(0.0677664 -0.000550218 0.000405523)
(0.0664803 -0.000457307 0.000414436)
(0.0652487 -0.000317742 0.000434854)
(0.0640643 -0.000131276 0.000479494)
(0.0629137 0.000161628 0.000531709)
(0.0618389 0.000742297 0.000557633)
(0.0605816 0.00253166 0.000221956)
(0.0956456 0.00836005 -0.00836005)
(0.0904939 -0.00152197 0.00152207)
(0.0790683 -0.00242965 0.00242983)
(0.0713012 -0.00148754 0.00148793)
(0.0661794 -0.000830085 0.000830824)
(0.0623226 -0.000563008 0.000564206)
(0.0592208 -0.000424857 0.000427489)
(0.0566848 -0.000321416 0.000325947)
(0.0545496 -0.000248928 0.000256349)
(0.0526971 -0.000195896 0.000208068)
(0.051059 -0.000154976 0.000175615)
(0.049598 -0.000121275 0.000155533)
(0.0482818 -8.9849e-05 0.00014419)
(0.0470822 -5.65157e-05 0.000140956)
(0.0459883 -1.83234e-05 0.000147632)
(0.0450074 1.46141e-05 0.000169616)
(0.0441631 0.000102707 0.000220097)
(0.0435412 0.000270161 0.000293934)
(0.0435261 0.000552948 0.000362604)
(0.0424563 0.00277857 -0.00109533)
(0.0999088 0.000712564 0.00129699)
(0.0969668 0.00274729 0.00365582)
(0.0935345 0.00211822 0.00264012)
(0.089589 0.00162076 0.00182027)
(0.0858316 0.00139081 0.00152842)
(0.0825891 0.00116159 0.00135072)
(0.0798636 0.000897809 0.00117834)
(0.0775639 0.000693348 0.00103881)
(0.0755523 0.000562541 0.000939841)
(0.0737417 0.000483306 0.000860551)
(0.0720848 0.000439454 0.00078403)
(0.0705509 0.000417131 0.000704489)
(0.0691175 0.000407249 0.000626958)
(0.0677661 0.000405554 0.000550258)
(0.0664802 0.000414479 0.000457328)
(0.0652484 0.000434906 0.000317764)
(0.0640638 0.000479584 0.000131334)
(0.0629131 0.000531859 -0.000161564)
(0.0618378 0.000557936 -0.000742185)
(0.0605798 0.000222374 -0.00253169)
(0.100226 0.000720832 0.000720798)
(0.09996 0.00198281 0.00198266)
(0.0997822 0.00245207 0.0024517)
(0.098788 0.00242001 0.00241936)
(0.0972754 0.00220143 0.00220041)
(0.0957744 0.00181248 0.00181068)
(0.0943922 0.001384 0.00138105)
(0.0931629 0.00107284 0.00106785)
(0.0920752 0.000858602 0.000850029)
(0.0911121 0.00070962 0.00069478)
(0.090258 0.000603568 0.000576793)
(0.0894891 0.000527816 0.000483686)
(0.0887861 0.00047807 0.000410106)
(0.0881474 0.000448244 0.000345124)
(0.0875733 0.000435395 0.00026943)
(0.0870606 0.000442939 0.000162329)
(0.0866074 0.00047298 4.46499e-06)
(0.0861989 0.000508829 -0.000259991)
(0.0857516 0.00044932 -0.000771091)
(0.0855408 -3.22364e-05 -0.00173053)
(0.10014 0.000775039 0.000869226)
(0.100454 0.00196247 0.00196347)
(0.100911 0.00242766 0.00233428)
(0.100978 0.00252686 0.00244089)
(0.100694 0.00242671 0.0023362)
(0.100225 0.00219825 0.00211173)
(0.0997097 0.00191788 0.0018221)
(0.0991851 0.0016676 0.00157353)
(0.0986916 0.00146582 0.00138649)
(0.0982465 0.00130124 0.00124466)
(0.0978571 0.0011665 0.00113799)
(0.0975211 0.00105732 0.0010582)
(0.0972355 0.000968893 0.000994274)
(0.0969991 0.000896534 0.000936549)
(0.0968132 0.000835262 0.000877527)
(0.0966794 0.000777494 0.00080372)
(0.0965976 0.000712039 0.000691018)
(0.0965581 0.000627188 0.000511298)
(0.0965066 0.000484203 0.000241705)
(0.0966097 0.000171508 -0.000100325)
(0.100093 0.000445931 0.000763192)
(0.100504 0.0011945 0.001749)
(0.101105 0.00158682 0.00212947)
(0.101635 0.00174042 0.00223444)
(0.10198 0.00178225 0.00228663)
(0.102173 0.00172901 0.00223532)
(0.102254 0.00160802 0.00211504)
(0.10228 0.00146014 0.00196338)
(0.102283 0.00130485 0.0018005)
(0.102279 0.0011558 0.00165027)
(0.102277 0.00102685 0.00153971)
(0.102285 0.000915964 0.00146013)
(0.102305 0.00081737 0.00140128)
(0.102337 0.000724089 0.00135654)
(0.102386 0.000626812 0.00131972)
(0.102454 0.000519162 0.00128351)
(0.10254 0.000390158 0.00123926)
(0.102639 0.000226399 0.00118024)
(0.102738 1.48508e-05 0.00111258)
(0.102936 -0.000236129 0.00109415)
(0.100087 0.000144363 0.000707009)
(0.100477 0.000390423 0.00161777)
(0.101066 0.000540988 0.00203463)
(0.101694 0.000609924 0.00211755)
(0.102269 0.000635557 0.00214996)
(0.102743 0.00062597 0.00217943)
(0.103125 0.000593385 0.00213361)
(0.103429 0.000546934 0.00204369)
(0.103683 0.000499814 0.00193446)
(0.103902 0.000453937 0.00182884)
(0.104101 0.000405357 0.00173101)
(0.104293 0.000353848 0.00164517)
(0.104478 0.000301492 0.00158649)
(0.104652 0.000244855 0.00155729)
(0.104815 0.000175753 0.00154773)
(0.104971 8.94316e-05 0.00155088)
(0.105116 -2.18414e-05 0.00156948)
(0.105249 -0.000168066 0.0016059)
(0.105372 -0.00035702 0.00166231)
(0.105595 -0.000567715 0.00175736)
(0.100087 -0.000144423 0.000707016)
(0.100477 -0.000390604 0.00161778)
(0.101066 -0.000541303 0.00203462)
(0.101694 -0.00061049 0.00211764)
(0.102269 -0.000636632 0.0021503)
(0.102742 -0.000627897 0.00218007)
(0.103123 -0.000596583 0.00213463)
(0.103427 -0.000552235 0.00204529)
(0.103678 -0.000508899 0.00193688)
(0.103895 -0.000469753 0.00183279)
(0.104089 -0.000432321 0.00173749)
(0.104273 -0.000398503 0.00165652)
(0.104446 -0.000372474 0.00160668)
(0.104596 -0.000356318 0.00159132)
(0.104725 -0.000352501 0.00160123)
(0.104834 -0.000366913 0.0016347)
(0.104917 -0.000405758 0.00170611)
(0.104972 -0.000475359 0.00182029)
(0.105007 -0.000581393 0.00196769)
(0.10521 -0.000714005 0.00207849)
(0.100093 -0.000445933 0.000763207)
(0.100504 -0.0011945 0.00174904)
(0.101105 -0.00158684 0.00212964)
(0.101634 -0.00174052 0.00223502)
(0.101979 -0.00178246 0.00228775)
(0.10217 -0.00172935 0.00223696)
(0.102251 -0.00160873 0.00211752)
(0.102273 -0.00146143 0.00196717)
(0.102273 -0.00130689 0.00180619)
(0.102262 -0.00115982 0.0016594)
(0.102249 -0.0010339 0.00155569)
(0.102238 -0.000927414 0.00148736)
(0.102225 -0.000833196 0.0014471)
(0.102211 -0.00074909 0.00143319)
(0.102188 -0.000670465 0.00144841)
(0.102147 -0.000595342 0.0014998)
(0.102076 -0.000523938 0.0015983)
(0.101968 -0.000455401 0.00176315)
(0.10183 -0.000383269 0.00198752)
(0.101981 -0.000307636 0.00217581)
(0.10014 -0.000774998 0.000869274)
(0.100454 -0.00196235 0.00196368)
(0.100911 -0.00242743 0.00233478)
(0.100978 -0.00252639 0.00244173)
(0.100693 -0.00242591 0.00233743)
(0.100223 -0.00219687 0.00211337)
(0.0997071 -0.00191572 0.00182466)
(0.0991805 -0.00166438 0.00157807)
(0.0986835 -0.00146027 0.00139427)
(0.0982323 -0.00129154 0.00125764)
(0.0978328 -0.00115079 0.00115982)
(0.09748 -0.0010312 0.00109441)
(0.0971689 -0.000925317 0.00105397)
(0.0968937 -0.000823611 0.00103389)
(0.0966466 -0.000718306 0.00103676)
(0.0964173 -0.000600567 0.00106939)
(0.0961937 -0.000455783 0.00114001)
(0.0959555 -0.000265629 0.00126157)
(0.0956852 -2.84029e-06 0.00141856)
(0.0957653 0.000273309 0.00158194)
(0.100226 -0.000720797 0.000720833)
(0.09996 -0.00198265 0.00198281)
(0.0997822 -0.00245169 0.00245207)
(0.0987881 -0.00241936 0.00242002)
(0.0972754 -0.0022004 0.00220143)
(0.0957745 -0.00181067 0.00181249)
(0.0943923 -0.00138103 0.00138401)
(0.0931629 -0.00106783 0.00107285)
(0.0920753 -0.000850009 0.000858612)
(0.0911121 -0.000694757 0.000709633)
(0.0902581 -0.000576767 0.000603584)
(0.0894892 -0.000483667 0.000527845)
(0.0887862 -0.000410106 0.000478118)
(0.0881475 -0.000345038 0.000448198)
(0.0875734 -0.000269267 0.000435302)
(0.0870608 -0.000162223 0.000442927)
(0.0866076 -4.34132e-06 0.000472954)
(0.0861991 0.000260166 0.000508773)
(0.0857518 0.000771417 0.000449114)
(0.0855409 0.0017311 -3.27205e-05)
(0.0999088 -0.000712545 0.00129701)
(0.0969668 -0.00274719 0.00365598)
(0.0935346 -0.00211801 0.00264036)
(0.0895893 -0.00162035 0.0018207)
(0.0858321 -0.00139022 0.00152932)
(0.0825901 -0.00116051 0.00135212)
(0.0798653 -0.00089602 0.00118091)
(0.0775671 -0.000690464 0.00104322)
(0.075558 -0.000557724 0.000947412)
(0.0737517 -0.000475171 0.0008736)
(0.0721029 -0.000423746 0.000806507)
(0.0705839 -0.000389856 0.000741912)
(0.0691761 -0.000367889 0.000687414)
(0.0678659 -0.000356574 0.000649186)
(0.0666475 -0.00034377 0.00062582)
(0.0655374 -0.000301092 0.000613616)
(0.0645942 -0.000218435 0.000599255)
(0.0639594 9.64489e-06 0.000539221)
(0.0640813 0.000311738 0.000527604)
(0.061982 0.000807916 0.000157758)
(0.099413 0.000270232 0.000345227)
(0.0988664 0.00187492 0.00201902)
(0.0979213 0.00218907 0.00257309)
(0.0963656 0.0019085 0.00237979)
(0.0946329 0.0016268 0.00211401)
(0.0929712 0.0014188 0.00192663)
(0.0913623 0.00127148 0.00180136)
(0.0898507 0.00116053 0.00170528)
(0.0884489 0.00107075 0.00160458)
(0.0871483 0.000999796 0.0014939)
(0.0859403 0.000952916 0.0013829)
(0.0848077 0.000928391 0.00127799)
(0.0837288 0.000922126 0.0011783)
(0.0826847 0.000931348 0.0010792)
(0.0816567 0.000957348 0.000975571)
(0.0806213 0.00100686 0.000860715)
(0.0795396 0.00109569 0.000725184)
(0.0783287 0.00124694 0.000547867)
(0.0768986 0.00145699 0.000280788)
(0.075447 0.0026405 0.000154031)
(0.10014 0.000869274 0.000775)
(0.100454 0.00196368 0.00196236)
(0.100911 0.00233478 0.00242744)
(0.100978 0.00244172 0.0025264)
(0.100693 0.00233743 0.00242593)
(0.100223 0.00211337 0.00219688)
(0.0997071 0.00182466 0.00191575)
(0.0991805 0.00157806 0.0016644)
(0.0986835 0.00139426 0.0014603)
(0.0982323 0.00125764 0.00129158)
(0.0978328 0.00115982 0.00115083)
(0.0974799 0.00109441 0.00103125)
(0.0971688 0.00105402 0.000925404)
(0.0968936 0.00103392 0.000823696)
(0.0966466 0.00103676 0.000718374)
(0.0964173 0.00106941 0.000600668)
(0.0961937 0.00114006 0.000455919)
(0.0959555 0.00126172 0.000265841)
(0.0956853 0.00141895 3.20593e-06)
(0.0957654 0.00158246 -0.000272868)
(0.10006 0.000641439 0.000641374)
(0.100501 0.00164519 0.00164498)
(0.101149 0.00221271 0.00221229)
(0.101738 0.00244051 0.0024398)
(0.102205 0.00244277 0.00244162)
(0.102501 0.00231477 0.00231298)
(0.102645 0.0020946 0.00209164)
(0.102714 0.00187233 0.00186761)
(0.102739 0.00167646 0.00166872)
(0.102753 0.00151356 0.00150087)
(0.102772 0.00138066 0.00135997)
(0.102806 0.00127436 0.0012409)
(0.102859 0.00119198 0.00113811)
(0.102934 0.00113113 0.00104487)
(0.103032 0.00109035 0.000953576)
(0.103151 0.00106941 0.000855223)
(0.103291 0.0010685 0.000739992)
(0.103449 0.00108412 0.000599535)
(0.103621 0.00109874 0.00042843)
(0.103941 0.00107679 0.000290353)
(0.100046 0.000395739 0.000540224)
(0.10048 0.00104493 0.00138404)
(0.101154 0.00147548 0.00192285)
(0.101913 0.00170543 0.00219234)
(0.102632 0.00178042 0.00229369)
(0.103302 0.00174539 0.00227765)
(0.103894 0.0016351 0.00218469)
(0.104391 0.00149295 0.00205106)
(0.104819 0.00134727 0.00190278)
(0.105198 0.00121312 0.00176236)
(0.105543 0.00109538 0.00163818)
(0.105868 0.000994499 0.00153158)
(0.106182 0.000908104 0.00144118)
(0.106492 0.000833012 0.00136403)
(0.106805 0.000766435 0.00129624)
(0.107124 0.000706258 0.00123255)
(0.107451 0.000648262 0.00116876)
(0.107789 0.000587152 0.00110305)
(0.108143 0.000511282 0.00104039)
(0.108585 0.000413835 0.00101715)
(0.100039 0.000131321 0.00047876)
(0.100448 0.000350466 0.00123475)
(0.101114 0.000505024 0.00174643)
(0.101909 0.000597096 0.00202673)
(0.102729 0.00063842 0.00215192)
(0.10353 0.000637977 0.00218615)
(0.104298 0.000604037 0.00215286)
(0.105008 0.000558438 0.00207882)
(0.105644 0.000508741 0.00198006)
(0.106219 0.000459606 0.00187277)
(0.106742 0.000413533 0.00176873)
(0.107226 0.000370913 0.00167566)
(0.107679 0.000330938 0.00159919)
(0.108113 0.000291411 0.00154129)
(0.108534 0.000249398 0.00150026)
(0.108946 0.000203272 0.00147479)
(0.109349 0.000150041 0.00146418)
(0.109745 8.60512e-05 0.00146851)
(0.110146 7.65258e-06 0.00148581)
(0.110628 -7.06898e-05 0.00151625)
(0.100039 -0.00013136 0.000478782)
(0.100448 -0.000350567 0.00123482)
(0.101114 -0.000505207 0.00174656)
(0.101909 -0.000597409 0.00202697)
(0.102728 -0.000638964 0.00215238)
(0.103529 -0.000638878 0.00218691)
(0.104297 -0.000605588 0.00215402)
(0.105006 -0.000560983 0.00208058)
(0.105641 -0.000512987 0.00198279)
(0.106213 -0.000466747 0.00187717)
(0.106734 -0.000425348 0.00177605)
(0.107214 -0.000389857 0.00168801)
(0.107661 -0.000360249 0.00161989)
(0.108087 -0.000336196 0.00157492)
(0.108497 -0.000317611 0.00155228)
(0.10889 -0.000307028 0.00155223)
(0.109269 -0.000305429 0.00157886)
(0.109637 -0.000311494 0.00163342)
(0.110014 -0.000322695 0.0017053)
(0.1105 -0.000331994 0.00176392)
(0.100046 -0.000395715 0.000540282)
(0.10048 -0.00104486 0.00138422)
(0.101154 -0.00147536 0.00192319)
(0.101913 -0.00170527 0.00219297)
(0.102631 -0.00178011 0.00229476)
(0.103301 -0.00174487 0.0022794)
(0.103893 -0.00163424 0.00218742)
(0.104388 -0.00149161 0.00205553)
(0.104814 -0.00134512 0.0019097)
(0.10519 -0.00120999 0.00177325)
(0.10553 -0.00109077 0.00165588)
(0.105848 -0.00098741 0.00156032)
(0.106151 -0.000896238 0.00148832)
(0.106445 -0.00081373 0.00144036)
(0.106733 -0.000738038 0.00141737)
(0.107017 -0.000666343 0.00142244)
(0.107302 -0.000593416 0.00145969)
(0.107588 -0.000516243 0.0015302)
(0.107899 -0.000429742 0.0016226)
(0.108345 -0.000353183 0.00168738)
(0.10006 -0.000641372 0.00064144)
(0.100501 -0.00164498 0.00164519)
(0.101149 -0.00221229 0.0022127)
(0.101738 -0.00243979 0.0024405)
(0.102205 -0.00244161 0.00244277)
(0.102501 -0.00231297 0.00231476)
(0.102645 -0.00209162 0.00209459)
(0.102714 -0.00186758 0.00187233)
(0.102739 -0.00166869 0.00167646)
(0.102753 -0.00150084 0.00151357)
(0.102772 -0.00135993 0.00138067)
(0.102806 -0.00124085 0.00127437)
(0.102859 -0.00113805 0.00119199)
(0.102934 -0.00104476 0.00113113)
(0.103032 -0.000953425 0.00109034)
(0.103151 -0.000855061 0.00106943)
(0.103291 -0.000739796 0.00106853)
(0.103449 -0.000599279 0.00108413)
(0.103621 -0.000428058 0.00109867)
(0.103941 -0.000289819 0.00107665)
(0.10014 -0.000869225 0.00077504)
(0.100454 -0.00196346 0.00196247)
(0.100911 -0.00233428 0.00242766)
(0.100978 -0.00244088 0.00252686)
(0.100694 -0.0023362 0.00242671)
(0.100225 -0.00211172 0.00219825)
(0.0997098 -0.00182209 0.00191788)
(0.0991852 -0.00157351 0.00166761)
(0.0986916 -0.00138647 0.00146583)
(0.0982466 -0.00124464 0.00130125)
(0.0978572 -0.00113795 0.00116651)
(0.0975212 -0.00105816 0.00105735)
(0.0972355 -0.000994245 0.000968953)
(0.0969991 -0.000936416 0.000896538)
(0.0968133 -0.000877302 0.000835229)
(0.0966795 -0.000803506 0.000777529)
(0.0965977 -0.000690747 0.000712105)
(0.0965581 -0.00051089 0.00062724)
(0.0965065 -0.000241136 0.000484252)
(0.0966094 0.000100983 0.000171556)
(0.099413 -0.000270225 0.000345248)
(0.0988664 -0.00187483 0.00201912)
(0.0979217 -0.00218881 0.00257329)
(0.0963663 -0.00190806 0.00238014)
(0.0946342 -0.00162619 0.00211457)
(0.0929738 -0.00141791 0.00192753)
(0.0913668 -0.00127003 0.00180267)
(0.0898587 -0.00115809 0.00170742)
(0.0884628 -0.0010668 0.00160815)
(0.0871717 -0.000993275 0.00149981)
(0.0859799 -0.000942592 0.00139265)
(0.084875 -0.000910425 0.00129363)
(0.0838423 -0.00089091 0.00120232)
(0.0828755 -0.000877704 0.00111439)
(0.0819776 -0.000863591 0.00102463)
(0.0811695 -0.000833085 0.000922314)
(0.0804972 -0.000773018 0.000787106)
(0.0800236 -0.000622449 0.000576368)
(0.0798265 -0.000356126 0.000145665)
(0.0791371 0.000222392 -0.00109052)
(0.0995405 0.000321898 0.000245047)
(0.0992576 0.00154092 0.00105564)
(0.0988488 0.0021145 0.00150238)
(0.0981246 0.00209171 0.00157949)
(0.0973365 0.00188629 0.00151497)
(0.0965841 0.00166614 0.00144672)
(0.0958639 0.00149835 0.00141061)
(0.0951951 0.00137219 0.00137969)
(0.094564 0.00128645 0.00133455)
(0.0939148 0.00123305 0.00126399)
(0.0932791 0.00119938 0.00117488)
(0.0926525 0.0011827 0.00107997)
(0.0920219 0.00118048 0.000990275)
(0.0913733 0.00119399 0.000910731)
(0.0906879 0.00122792 0.000842053)
(0.0899368 0.00129174 0.000782867)
(0.0890712 0.00140338 0.000742435)
(0.0880175 0.00159611 0.000731705)
(0.0866672 0.00190244 0.000789603)
(0.0852549 0.0022997 0.00103493)
(0.100093 0.000763206 0.000445935)
(0.100504 0.00174904 0.00119451)
(0.101105 0.00212964 0.00158685)
(0.101634 0.00223502 0.00174053)
(0.101979 0.00228775 0.00178247)
(0.10217 0.00223696 0.00172937)
(0.102251 0.00211752 0.00160875)
(0.102273 0.00196717 0.00146146)
(0.102273 0.00180619 0.00130693)
(0.102262 0.0016594 0.00115986)
(0.102249 0.00155569 0.00103395)
(0.102238 0.00148738 0.000927475)
(0.102225 0.00144715 0.00083328)
(0.102211 0.0014332 0.000749159)
(0.102188 0.00144839 0.000670527)
(0.102147 0.00149985 0.000595448)
(0.102077 0.00159838 0.000524086)
(0.101968 0.00176329 0.000455586)
(0.10183 0.00198774 0.000383489)
(0.101982 0.002176 0.000307824)
(0.100046 0.000540282 0.000395718)
(0.10048 0.00138422 0.00104486)
(0.101154 0.0019232 0.00147537)
(0.101913 0.00219298 0.00170528)
(0.102631 0.00229477 0.00178013)
(0.103301 0.0022794 0.00174489)
(0.103893 0.00218743 0.00163427)
(0.104388 0.00205554 0.00149164)
(0.104814 0.00190971 0.00134515)
(0.10519 0.00177325 0.00121004)
(0.10553 0.00165588 0.00109082)
(0.105848 0.00156032 0.000987466)
(0.106151 0.00148832 0.000896308)
(0.106445 0.00144035 0.000813815)
(0.106733 0.00141735 0.000738137)
(0.107017 0.00142242 0.000666455)
(0.107302 0.00145964 0.000593537)
(0.107589 0.00153015 0.000516371)
(0.107899 0.00162249 0.000429867)
(0.108346 0.0016871 0.000353279)
(0.100036 0.000323177 0.000323131)
(0.100429 0.00086877 0.000868638)
(0.10108 0.00126257 0.00126232)
(0.101891 0.00150467 0.00150424)
(0.102756 0.00162204 0.00162136)
(0.103616 0.00164347 0.0016424)
(0.104446 0.00160576 0.00160415)
(0.105223 0.00152807 0.00152557)
(0.105938 0.0014295 0.00142562)
(0.106593 0.00132615 0.0013201)
(0.107197 0.0012288 0.00121925)
(0.10776 0.00114288 0.00112779)
(0.108291 0.00107058 0.00104678)
(0.108798 0.00101259 0.000975448)
(0.109289 0.000969041 0.000912258)
(0.10977 0.000939746 0.00085551)
(0.110248 0.000924347 0.000802847)
(0.110731 0.000920886 0.000751563)
(0.111234 0.000920464 0.000703329)
(0.111805 0.000902321 0.000672291)
(0.100031 0.000107086 0.000281376)
(0.100395 0.000293072 0.000768614)
(0.101024 0.000434128 0.00113304)
(0.101844 0.000526308 0.00136914)
(0.102751 0.000576478 0.00150134)
(0.103689 0.000591947 0.00155409)
(0.104618 0.000582645 0.00154908)
(0.105516 0.000558121 0.00150811)
(0.106367 0.000524591 0.00144441)
(0.107165 0.000487597 0.00136819)
(0.107908 0.000451442 0.0012881)
(0.108601 0.000418563 0.00121072)
(0.109252 0.00038999 0.00114057)
(0.10987 0.000365631 0.00108033)
(0.110462 0.000344269 0.00103177)
(0.111037 0.000324131 0.000995846)
(0.1116 0.000304039 0.000971795)
(0.11216 0.000282206 0.000957475)
(0.112731 0.000257498 0.000949063)
(0.113351 0.000228036 0.000945885)
(0.100031 -0.000107082 0.000281398)
(0.100395 -0.000293058 0.000768679)
(0.101024 -0.000434101 0.00113316)
(0.101843 -0.000526266 0.00136938)
(0.102751 -0.000576411 0.00150174)
(0.103688 -0.000591833 0.00155471)
(0.104617 -0.000582475 0.00154995)
(0.105515 -0.000557961 0.00150939)
(0.106366 -0.00052453 0.00144635)
(0.107163 -0.000487711 0.00137121)
(0.107905 -0.000451741 0.00129284)
(0.108598 -0.000418905 0.00121813)
(0.109248 -0.000389968 0.00115209)
(0.109863 -0.000364702 0.0010982)
(0.110453 -0.000342356 0.00105935)
(0.111024 -0.000322876 0.00103696)
(0.111581 -0.000306473 0.00103098)
(0.112133 -0.000292997 0.00103881)
(0.112696 -0.000281817 0.00105188)
(0.113318 -0.0002745 0.00105425)
(0.100036 -0.000323128 0.000323176)
(0.100429 -0.00086863 0.000868769)
(0.10108 -0.00126231 0.00126257)
(0.101891 -0.00150423 0.00150466)
(0.102756 -0.00162134 0.00162204)
(0.103616 -0.00164238 0.00164346)
(0.104446 -0.00160413 0.00160575)
(0.105223 -0.00152553 0.00152806)
(0.105938 -0.00142559 0.0014295)
(0.106593 -0.00132005 0.00132615)
(0.107197 -0.0012192 0.0012288)
(0.10776 -0.00112773 0.00114289)
(0.108291 -0.00104671 0.0010706)
(0.108798 -0.000975352 0.00101262)
(0.109289 -0.00091214 0.000969097)
(0.10977 -0.000855376 0.00093983)
(0.110248 -0.000802705 0.000924465)
(0.110731 -0.000751418 0.000921054)
(0.111234 -0.000703207 0.000920717)
(0.111804 -0.000672247 0.00090276)
(0.100046 -0.000540221 0.000395739)
(0.10048 -0.00138403 0.00104493)
(0.101154 -0.00192284 0.00147548)
(0.101913 -0.00219233 0.00170543)
(0.102632 -0.00229368 0.00178041)
(0.103302 -0.00227763 0.00174538)
(0.103894 -0.00218467 0.0016351)
(0.104391 -0.00205104 0.00149295)
(0.104819 -0.00190275 0.00134727)
(0.105198 -0.00176233 0.00121312)
(0.105543 -0.00163814 0.00109539)
(0.105868 -0.00153152 0.000994521)
(0.106182 -0.0014411 0.000908136)
(0.106492 -0.00136391 0.000833044)
(0.106805 -0.00129607 0.000766478)
(0.107124 -0.00123236 0.00070633)
(0.107451 -0.00116852 0.000648359)
(0.107789 -0.00110274 0.000587247)
(0.108142 -0.00104005 0.000511349)
(0.108584 -0.00101691 0.000413912)
(0.100093 -0.000763191 0.000445931)
(0.100504 -0.00174899 0.0011945)
(0.101105 -0.00212947 0.00158682)
(0.101635 -0.00223444 0.00174042)
(0.10198 -0.00228662 0.00178224)
(0.102173 -0.0022353 0.001729)
(0.102254 -0.00211503 0.00160802)
(0.10228 -0.00196336 0.00146014)
(0.102283 -0.00180048 0.00130486)
(0.102279 -0.00165025 0.00115581)
(0.102277 -0.00153968 0.00102686)
(0.102285 -0.00146008 0.00091599)
(0.102305 -0.00140124 0.000817422)
(0.102337 -0.00135642 0.000724126)
(0.102386 -0.00131952 0.000626839)
(0.102454 -0.00128326 0.000519234)
(0.10254 -0.00123888 0.000390251)
(0.102639 -0.00117964 0.000226477)
(0.102737 -0.00111183 1.48946e-05)
(0.102935 -0.00109453 -0.000235795)
(0.0995405 -0.000321897 0.000245034)
(0.0992576 -0.00154092 0.00105557)
(0.0988491 -0.00211437 0.00150225)
(0.0981253 -0.00209149 0.00157925)
(0.0973379 -0.00188594 0.0015144)
(0.0965868 -0.00166561 0.00144555)
(0.0958687 -0.00149771 0.0014085)
(0.0952032 -0.00137111 0.00137618)
(0.0945782 -0.00128402 0.00132837)
(0.0939391 -0.00122769 0.00125403)
(0.0933203 -0.00118911 0.0011592)
(0.0927221 -0.0011637 0.00105498)
(0.0921386 -0.00114891 0.000948354)
(0.0915684 -0.0011415 0.000839175)
(0.0910117 -0.00113555 0.000722089)
(0.0904714 -0.00112312 0.000573409)
(0.0899539 -0.00109627 0.0003727)
(0.08947 -0.00104855 7.76335e-05)
(0.0890226 -0.000991491 -0.000358079)
(0.0884744 -0.000999731 -0.00099246)
(0.0993802 5.90001e-05 3.37925e-05)
(0.0992677 0.00120005 0.000274468)
(0.0989805 0.00188846 0.000432534)
(0.0984747 0.00200642 0.000483725)
(0.0979956 0.00191463 0.000479263)
(0.097571 0.00173473 0.000466211)
(0.0971811 0.00154728 0.000454023)
(0.096831 0.00138863 0.000444299)
(0.0965303 0.00127039 0.000439452)
(0.0962746 0.00120043 0.000433747)
(0.095998 0.00117426 0.00042016)
(0.0956998 0.00117428 0.000402188)
(0.0953765 0.00118727 0.000387086)
(0.0950123 0.00121201 0.000381981)
(0.0945944 0.00125756 0.00039823)
(0.0941089 0.00132931 0.000444554)
(0.0935364 0.00143236 0.000547315)
(0.0928542 0.00158565 0.000697959)
(0.0919911 0.00178488 0.000963887)
(0.0910052 0.00189745 0.0016037)
(0.100087 0.000707017 0.000144426)
(0.100477 0.00161778 0.000390612)
(0.101066 0.00203463 0.000541316)
(0.101694 0.00211764 0.000610506)
(0.102269 0.00215031 0.000636653)
(0.102742 0.00218009 0.000627923)
(0.103123 0.00213464 0.000596614)
(0.103427 0.0020453 0.000552272)
(0.103678 0.00193689 0.000508943)
(0.103895 0.0018328 0.000469804)
(0.104089 0.0017375 0.00043238)
(0.104273 0.00165654 0.000398571)
(0.104446 0.00160669 0.000372552)
(0.104596 0.00159133 0.000356399)
(0.104725 0.00160123 0.00035258)
(0.104834 0.00163472 0.000366999)
(0.104918 0.00170615 0.000405848)
(0.104972 0.00182035 0.000475434)
(0.105008 0.00196776 0.000581402)
(0.105211 0.00207848 0.000713837)
(0.100039 0.000478783 0.000131363)