/*--------------------------------*- C++ -*----------------------------------*\
| =========                 |                                                 |
| \\      /  F ield         | OpenFOAM: The Open Source CFD Toolbox           |
|  \\    /   O peration     | Version:  2212                                  |
|   \\  /    A nd           | Website:  www.openfoam.com                      |
|    \\/     M anipulation  |                                                 |
\*---------------------------------------------------------------------------*/
FoamFile
{
    version     2.0;
    format      ascii;
    arch        "LSB;label=32;scalar=64";
    class       surfaceVectorField;
    location    "2.8";
    object      Uf;
}
// * * * * * * * * * * * * * * * * * * * * * * * * * * * * * * * * * * * * * //

dimensions      [0 1 -1 0 0 0 0];

internalField   nonuniform List<vector> 
19019
(
(0.0993441 -0.00341899 -0.00341904)
(0.0973536 0.00106248 -0.00148428)
(0.0973536 -0.00148427 0.00106247)
(0.0834792 0.00197595 0.00197582)
(0.0930872 0.00326905 0.00253343)
(0.0930872 0.00253352 0.00326892)
(0.0745171 0.00195888 0.0019586)
(0.084864 0.00163595 0.00179228)
(0.084864 0.00179246 0.00163573)
(0.0685477 0.00115937 0.00115882)
(0.0786281 0.00107372 0.00122123)
(0.078628 0.0012216 0.0010733)
(0.064236 0.000697506 0.000696556)
(0.0740531 0.000785763 0.000864899)
(0.0740529 0.00086553 0.00078491)
(0.0607564 0.000495837 0.000493944)
(0.0704425 0.000651208 0.000668959)
(0.0704422 0.000670031 0.000649837)
(0.0579369 0.000376706 0.000373149)
(0.0674917 0.000548094 0.000507869)
(0.0674911 0.000510033 0.000545313)
(0.0556133 0.000291136 0.000285185)
(0.065051 0.000471218 0.000386365)
(0.0650498 0.000389992 0.00046637)
(0.0536235 0.000232198 0.000222427)
(0.0629664 0.000419172 0.00030611)
(0.0629641 0.000312031 0.000410962)
(0.0518778 0.000191833 0.000175453)
(0.0611323 0.000379326 0.000252145)
(0.0611284 0.000261881 0.000365458)
(0.050327 0.000165568 0.000138145)
(0.0594899 0.000345667 0.000214414)
(0.0594827 0.000231756 0.000322089)
(0.0489386 0.000149858 0.000105584)
(0.0580057 0.00031778 0.000186494)
(0.0579925 0.000215706 0.000278468)
(0.047682 0.000142584 7.32089e-05)
(0.0566528 0.000299127 0.000164685)
(0.0566294 0.000208704 0.000235005)
(0.046535 0.000144328 3.74498e-05)
(0.0554088 0.000292311 0.000146255)
(0.0553689 0.000207943 0.000187456)
(0.045498 0.000158652 1.87555e-06)
(0.054265 0.000297352 0.000124302)
(0.054198 0.000214519 0.000125598)
(0.0445798 0.000194861 -5.86438e-05)
(0.0532323 0.000316025 9.35464e-05)
(0.0531166 0.000232082 4.34554e-05)
(0.0438157 0.000257014 -0.000186408)
(0.0523483 0.000365484 2.22363e-05)
(0.052136 0.00027995 -8.45052e-05)
(0.0433912 0.00032831 -0.000411529)
(0.0517212 0.000453822 -0.000129713)
(0.0513021 0.00033502 -0.000319572)
(0.0437717 -0.000366249 -0.00166574)
(0.0517607 0.000613253 -0.000348486)
(0.0508621 0.00032507 -0.00082725)
(0.0502784 -0.000158409 -0.00173508)
(0.0497168 -0.000966919 -0.00336439)
(0.0984572 0.00247649 0.00172987)
(0.0996871 0.000439245 0.000345476)
(0.100049 0.00105639 0.000750958)
(0.0958348 0.00314817 0.0024326)
(0.0978161 0.00273287 0.00228224)
(0.0982936 0.00280928 0.0021614)
(0.09145 0.00223052 0.00186918)
(0.095496 0.00300184 0.00230301)
(0.0963039 0.00244278 0.00199769)
(0.0875952 0.001675 0.00150528)
(0.0926193 0.00229959 0.0018386)
(0.0936668 0.00198096 0.00172679)
(0.0841476 0.00144071 0.00127537)
(0.0897675 0.00189233 0.00153542)
(0.0909045 0.00172012 0.00149758)
(0.0811878 0.0012665 0.00102827)
(0.0872326 0.00165717 0.00129432)
(0.0884343 0.00145517 0.00121129)
(0.0787014 0.00111205 0.000793247)
(0.0850076 0.00149316 0.00107667)
(0.0863046 0.00118453 0.00090795)
(0.076557 0.000995297 0.000624101)
(0.0830626 0.0013734 0.000912562)
(0.0844802 0.00098483 0.000689668)
(0.0746517 0.00091049 0.000516459)
(0.0813277 0.00128157 0.000800525)
(0.0828795 0.000848311 0.000546912)
(0.0729247 0.000840037 0.000449476)
(0.0797517 0.00119902 0.000724637)
(0.0814469 0.000749814 0.000452434)
(0.0713406 0.000774192 0.000406825)
(0.0783072 0.00112032 0.00067602)
(0.0801504 0.000671489 0.000385699)
(0.0698781 0.000714638 0.0003789)
(0.0769733 0.00104554 0.00064495)
(0.0789639 0.000606008 0.000335108)
(0.0685204 0.000668265 0.000362251)
(0.0757332 0.000976503 0.000624841)
(0.0778685 0.000556386 0.000296792)
(0.0672552 0.000637479 0.000350198)
(0.0745765 0.000914844 0.000612203)
(0.0768559 0.000523701 0.000265959)
(0.0660846 0.000619709 0.000322501)
(0.0735015 0.000861156 0.000598588)
(0.0759231 0.000506047 0.000227729)
(0.0650432 0.000606405 0.000259886)
(0.0725263 0.000813029 0.000563129)
(0.0750778 0.000503281 0.000158132)
(0.0642125 0.000569173 0.000104568)
(0.0717041 0.000748153 0.000492033)
(0.0743517 0.000507004 3.84683e-05)
(0.0638684 0.000533282 -0.000160466)
(0.0711413 0.000594834 0.000288566)
(0.0738172 0.000482681 -0.000221638)
(0.064582 0.000342454 -0.000559513)
(0.0711204 0.000275613 -4.44461e-05)
(0.0736867 0.000375187 -0.000791671)
(0.0696516 -0.00084217 -0.000718344)
(0.0724246 -0.000468754 -0.00249101)
(0.0993753 0.00118218 0.00107253)
(0.099473 0.000349769 0.000307056)
(0.0997475 0.000610999 0.000779864)
(0.0984949 0.0022962 0.00203182)
(0.0990504 0.00157686 0.00172043)
(0.0995971 0.00201838 0.00200281)
(0.0971415 0.00247671 0.00204844)
(0.0983579 0.00213122 0.00216876)
(0.0992973 0.00246168 0.00210225)
(0.0954399 0.00224735 0.00176713)
(0.0971936 0.00203599 0.00200224)
(0.0984885 0.00237476 0.00190234)
(0.0937515 0.00202104 0.00152206)
(0.0959059 0.0018559 0.0017541)
(0.0974227 0.00218132 0.00168829)
(0.0921395 0.00186509 0.00134398)
(0.0946732 0.00173308 0.00154225)
(0.0963103 0.00198542 0.00150767)
(0.0906039 0.00175504 0.00121406)
(0.0934843 0.00165324 0.00138585)
(0.0952057 0.0018027 0.00134172)
(0.0891554 0.00165778 0.00111245)
(0.0923725 0.0015776 0.00126459)
(0.0941501 0.00164635 0.00120214)
(0.0878111 0.00155397 0.00103005)
(0.0913392 0.00148256 0.00117044)
(0.0931694 0.00150757 0.00109316)
(0.0865727 0.00144622 0.000967954)
(0.0903547 0.00137273 0.00110077)
(0.0922677 0.00137956 0.00100956)
(0.0854263 0.00134313 0.000926538)
(0.0894324 0.00126225 0.00105358)
(0.091445 0.00126464 0.000950115)
(0.0843573 0.00124796 0.00090071)
(0.0885658 0.00115482 0.00102315)
(0.090694 0.0011647 0.000908961)
(0.0833563 0.00115832 0.000884354)
(0.0877444 0.0010517 0.00100476)
(0.090005 0.00107759 0.000878924)
(0.0824226 0.00106942 0.000870695)
(0.0869641 0.000950406 0.00099347)
(0.0893742 0.000999178 0.000853394)
(0.0815669 0.000973346 0.000848422)
(0.0862267 0.000843544 0.000982197)
(0.088804 0.00092439 0.000825137)
(0.0808242 0.000854552 0.000803216)
(0.0855444 0.000710433 0.000958094)
(0.0883062 0.000843596 0.000778317)
(0.0802506 0.000681521 0.000698008)
(0.0849448 0.000526598 0.000909462)
(0.0879055 0.000739485 0.000690709)
(0.0799072 0.000360575 0.0004897)
(0.0844661 0.000250754 0.000801308)
(0.0876316 0.000582274 0.000511801)
(0.0798859 -0.0004735 6.74651e-05)
(0.0841507 -0.0001764 0.000635161)
(0.0875014 0.000275431 0.000215377)
(0.0835275 -0.00110993 0.000337887)
(0.0871766 -0.000559184 -0.000332975)
(0.0996493 0.0006503 0.000931407)
(0.0994625 0.000129367 0.000192497)
(0.0997993 0.00037513 0.000741355)
(0.0990855 0.00127891 0.00182765)
(0.0992626 0.000636839 0.0013706)
(0.099841 0.00115039 0.00181419)
(0.0984495 0.00154075 0.00210293)
(0.098913 0.000973332 0.0020035)
(0.0999049 0.00153651 0.00209005)
(0.0977082 0.00154683 0.00198872)
(0.0982953 0.00104988 0.00205053)
(0.0997677 0.0016317 0.00202279)
(0.0969406 0.00147997 0.00177578)
(0.0976581 0.00100717 0.00189944)
(0.0995102 0.00160956 0.00189528)
(0.0962099 0.00142702 0.00158166)
(0.0970661 0.000959434 0.00169803)
(0.0992009 0.00154752 0.00175111)
(0.0955259 0.00139234 0.00143441)
(0.096508 0.000932012 0.00152033)
(0.0988571 0.00147449 0.00162502)
(0.0948787 0.00135227 0.00132757)
(0.0959967 0.000914579 0.00137855)
(0.0985149 0.00139268 0.00151379)
(0.094248 0.00129119 0.00125587)
(0.0955306 0.000898458 0.0012774)
(0.0981841 0.00129905 0.00141767)
(0.0936276 0.0012066 0.00120842)
(0.09508 0.000862887 0.00121476)
(0.097842 0.00119354 0.00133979)
(0.0930216 0.00110707 0.00117643)
(0.0946311 0.000800435 0.00118092)
(0.0975119 0.00108559 0.00128439)
(0.0924304 0.00100163 0.00115635)
(0.0941846 0.000725167 0.00116561)
(0.0971974 0.000980324 0.00124588)
(0.0918527 0.000893699 0.00114525)
(0.0937377 0.000645034 0.00116091)
(0.0968962 0.000878935 0.00121925)
(0.0912888 0.000780517 0.00113858)
(0.0932845 0.000558483 0.0011634)
(0.096608 0.000778316 0.00120113)
(0.0907402 0.000647594 0.00112945)
(0.0928224 0.000461153 0.00117164)
(0.0963347 0.00067147 0.00118663)
(0.0902124 0.000472888 0.00110993)
(0.0923508 0.000334156 0.00118255)
(0.0960792 0.000542886 0.00116848)
(0.0897139 0.000225002 0.00107287)
(0.0918715 0.000157894 0.00119304)
(0.0958439 0.000376545 0.00113835)
(0.0892501 -0.000140406 0.00102082)
(0.0913821 -9.85678e-05 0.00119967)
(0.0956323 0.000143629 0.00108962)
(0.0887909 -0.000675567 0.000996874)
(0.0908685 -0.000442239 0.00121388)
(0.0954402 -0.000186668 0.00103091)
(0.0902723 -0.000950341 0.00128611)
(0.095241 -0.000641673 0.00102725)
(0.0996725 0.000154018 0.000629477)
(0.0993802 -1.83022e-08 5.8973e-05)
(0.0997132 0.000103904 0.000687943)
(0.0991592 0.000353204 0.00154422)
(0.0992677 -8.82104e-08 0.00120003)
(0.0998377 0.000341568 0.00162227)
(0.0986638 0.000457568 0.00194739)
(0.0989805 -2.08421e-07 0.00188844)
(0.0999631 0.000485322 0.00199135)
(0.0982127 0.000480515 0.00196039)
(0.0984748 -3.78699e-07 0.00200638)
(0.0999921 0.00053935 0.00199652)
(0.0977773 0.000471009 0.00182438)
(0.0979959 -6.57422e-07 0.00191453)
(0.10001 0.00054587 0.00191075)
(0.0973645 0.000457026 0.0016405)
(0.0975715 -1.1597e-06 0.00173453)
(0.100009 0.000532508 0.00180374)
(0.0969977 0.000443753 0.00146714)
(0.0971821 -2.06209e-06 0.00154697)
(0.0999831 0.000509731 0.00168204)
(0.0966792 0.000432622 0.00132803)
(0.0968328 -3.5475e-06 0.00138811)
(0.0999423 0.00048205 0.00157123)
(0.096402 0.000420972 0.00123269)
(0.0965333 -6.05157e-06 0.00126942)
(0.099904 0.000455987 0.00147917)
(0.0961413 0.000400836 0.00118261)
(0.0962797 -1.0187e-05 0.00119867)
(0.0998744 0.000428455 0.00141492)
(0.0958708 0.000367916 0.00116628)
(0.0960066 -1.69991e-05 0.00117127)
(0.0998257 0.000392623 0.00137416)
(0.0955797 0.000323299 0.00116736)
(0.0957144 -2.81789e-05 0.00116926)
(0.0997647 0.000348401 0.00134566)
(0.0952632 0.000267271 0.00117696)
(0.0954014 -4.66366e-05 0.00117886)
(0.0996919 0.000297711 0.00132905)
(0.0949167 0.000198819 0.00119515)
(0.0950545 -7.65679e-05 0.00119772)
(0.0995994 0.000238469 0.00132662)
(0.0945366 0.000110694 0.00122473)
(0.0946645 -0.000123988 0.00123217)
(0.0994848 0.000166534 0.00133839)
(0.0941163 -1.44779e-05 0.00126758)
(0.0942223 -0.000200113 0.00128594)
(0.0993474 7.24421e-05 0.00136221)
(0.0936501 -0.000199303 0.00132411)
(0.0937167 -0.000327796 0.00136242)
(0.0991838 -5.85867e-05 0.00140052)
(0.0931186 -0.000463889 0.00139659)
(0.0931283 -0.000515359 0.00147062)
(0.0989849 -0.000244022 0.00145393)
(0.0925174 -0.000858903 0.0015009)
(0.0924054 -0.000795397 0.0016111)
(0.0987346 -0.00049605 0.00152612)
(0.0915894 -0.00132433 0.00173072)
(0.098498 -0.000849525 0.00164573)
(0.0996725 -0.000154125 0.000629523)
(0.0994625 -0.000129404 0.000192525)
(0.0997132 -0.000103949 0.000687947)
(0.0991591 -0.000353488 0.00154425)
(0.0992625 -0.000636979 0.00137062)
(0.0998377 -0.000341747 0.00162229)
(0.0986637 -0.00045811 0.00194744)
(0.0989129 -0.000973598 0.00200357)
(0.099963 -0.000485676 0.00199135)
(0.0982124 -0.000481469 0.00196052)
(0.0982949 -0.00105034 0.00205067)
(0.0999919 -0.000539981 0.00199657)
(0.0977765 -0.000472706 0.00182468)
(0.0976571 -0.00100805 0.00189971)
(0.100009 -0.000547017 0.00191096)
(0.097363 -0.000460081 0.001641)
(0.0970642 -0.000961099 0.0016985)
(0.100008 -0.000534566 0.0018042)
(0.096995 -0.000449119 0.00146794)
(0.0965046 -0.000935068 0.00152095)
(0.0999813 -0.00051331 0.00168272)
(0.0966746 -0.000441826 0.0013295)
(0.0959908 -0.000919891 0.00137962)
(0.0999391 -0.000488137 0.00157237)
(0.0963941 -0.000436542 0.0012354)
(0.0955205 -0.000907678 0.00127963)
(0.0998987 -0.000466395 0.00148115)
(0.0961279 -0.000426888 0.00118733)
(0.0950627 -0.000878184 0.00121928)
(0.0998656 -0.000446219 0.0014183)
(0.095848 -0.000411099 0.00117426)
(0.0946016 -0.000825437 0.00118921)
(0.099811 -0.000422512 0.00137969)
(0.0955408 -0.000394552 0.00118076)
(0.0941348 -0.000765888 0.00118041)
(0.0997401 -0.000397819 0.00135503)
(0.0951971 -0.000384432 0.00119962)
(0.0936537 -0.0007123 0.00118556)
(0.0996503 -0.000377947 0.00134531)
(0.0948062 -0.000389976 0.00123475)
(0.0931435 -0.00067023 0.00120467)
(0.0995288 -0.000367815 0.00135461)
(0.0943551 -0.000421226 0.00129339)
(0.0925883 -0.000645502 0.00124454)
(0.0993683 -0.000374765 0.0013865)
(0.093826 -0.000495724 0.00138078)
(0.0919664 -0.000643222 0.00131286)
(0.0991633 -0.00040619 0.00144305)
(0.0931942 -0.000622363 0.00150893)
(0.0912434 -0.000683911 0.00142163)
(0.0988997 -0.000478946 0.00153375)
(0.092428 -0.000830552 0.00168513)
(0.0903704 -0.000774656 0.00159778)
(0.0985647 -0.000591554 0.0016721)
(0.0915184 -0.00128326 0.00184092)
(0.0892573 -0.000979151 0.00185712)
(0.098125 -0.000782254 0.00185012)
(0.0880528 -0.00149658 0.00212522)
(0.0976995 -0.00118367 0.00197495)
(0.0996493 -0.000650336 0.000931408)
(0.099473 -0.000349761 0.000307059)
(0.0997993 -0.000375135 0.000741354)
(0.0990854 -0.00127899 0.00182771)
(0.0990504 -0.00157683 0.00172047)
(0.0998409 -0.00115042 0.0018142)
(0.0984491 -0.00154091 0.0021031)
(0.0983576 -0.00213115 0.00216895)
(0.0999046 -0.00153657 0.00209016)
(0.0977073 -0.0015472 0.001989)
(0.097193 -0.00203588 0.00200256)
(0.0997671 -0.00163185 0.00202312)
(0.0969386 -0.00148082 0.00177621)
(0.0959045 -0.00185585 0.00175458)
(0.0995089 -0.00160994 0.00189591)
(0.0962063 -0.00142863 0.00158224)
(0.0946706 -0.0017332 0.00154298)
(0.0991985 -0.00154827 0.00175206)
(0.0955196 -0.00139511 0.00143526)
(0.0934797 -0.0016536 0.00138693)
(0.0988529 -0.00147591 0.0016264)
(0.0948678 -0.00135708 0.00132931)
(0.0923645 -0.00157815 0.0012664)
(0.0985076 -0.00139511 0.00151601)
(0.0942292 -0.00129922 0.00125974)
(0.0913252 -0.00148355 0.00117366)
(0.0981719 -0.00130323 0.00142139)
(0.0935955 -0.00121937 0.0012162)
(0.090331 -0.0013743 0.00110674)
(0.0978214 -0.00120057 0.00134621)
(0.0929673 -0.00112735 0.00119103)
(0.0893922 -0.00126471 0.00106391)
(0.0974772 -0.00109693 0.00129565)
(0.0923389 -0.00103504 0.00118157)
(0.0884976 -0.00115886 0.00104171)
(0.0971383 -0.000998467 0.00126586)
(0.0916998 -0.000950413 0.0011872)
(0.0876296 -0.0010596 0.00103629)
(0.096797 -0.000908025 0.00125393)
(0.0910345 -0.000876282 0.0012109)
(0.0867715 -0.000966665 0.00104679)
(0.0964452 -0.000827431 0.00126104)
(0.0903183 -0.000812312 0.00125974)
(0.0859048 -0.000875718 0.00107559)
(0.09607 -0.000754968 0.00129143)
(0.0895131 -0.000762442 0.00134744)
(0.0850032 -0.000779389 0.00112996)
(0.0956513 -0.000689165 0.00135453)
(0.0885579 -0.000736774 0.00149955)
(0.0840233 -0.000677628 0.00122682)
(0.0951578 -0.000635458 0.00146743)
(0.0873655 -0.000760237 0.00174888)
(0.0828865 -0.000565578 0.00139431)
(0.0945465 -0.000599932 0.00166069)
(0.0858019 -0.000911763 0.00210058)
(0.0814944 -0.00045397 0.00165011)
(0.0937636 -0.000600988 0.00195263)
(0.0800618 -0.000557068 0.00247726)
(0.0930836 -0.000707082 0.00231702)
(0.0993753 -0.00118212 0.00107258)
(0.0996871 -0.000439217 0.000345487)
(0.0997475 -0.000610968 0.000779889)
(0.0984947 -0.00229604 0.00203199)
(0.0978161 -0.00273272 0.00228233)
(0.099597 -0.00201827 0.00200294)
(0.097141 -0.00247642 0.00204878)
(0.0954958 -0.00300159 0.00230323)
(0.0992971 -0.00246145 0.00210259)
(0.0954389 -0.00224688 0.00176765)
(0.0926188 -0.00229916 0.00183901)
(0.0984879 -0.00237433 0.00190293)
(0.0937496 -0.0020203 0.0015228)
(0.0897667 -0.00189153 0.00153601)
(0.0974215 -0.00218064 0.00168916)
(0.0921361 -0.00186397 0.00134514)
(0.087231 -0.00165586 0.00129526)
(0.0963082 -0.00198429 0.0015089)
(0.0905978 -0.00175329 0.00121601)
(0.0850047 -0.00149093 0.00107823)
(0.0952021 -0.00180099 0.00134369)
(0.0891448 -0.00165489 0.00111564)
(0.0830574 -0.00136972 0.000915137)
(0.0941437 -0.00164369 0.0012055)
(0.0877929 -0.00154919 0.00103527)
(0.0813184 -0.00127541 0.000804802)
(0.0931583 -0.00150302 0.00109869)
(0.0865418 -0.00143834 0.000976349)
(0.0797359 -0.00118856 0.00073181)
(0.0922486 -0.00137179 0.00101875)
(0.085374 -0.00133037 0.000940637)
(0.0782797 -0.00110229 0.000688822)
(0.0914126 -0.00125205 0.000965489)
(0.0842689 -0.00122805 0.000925225)
(0.0769252 -0.00101587 0.000667257)
(0.0906388 -0.00114421 0.000935296)
(0.0832076 -0.00112865 0.000926691)
(0.0756504 -0.000930324 0.000659723)
(0.0899132 -0.00104464 0.000923595)
(0.0821726 -0.00102731 0.000944301)
(0.0744364 -0.000844028 0.000663059)
(0.0892229 -0.000946902 0.000928108)
(0.0811433 -0.000918064 0.000982043)
(0.0732658 -0.000748635 0.000680514)
(0.0885543 -0.000844939 0.000951808)
(0.0800885 -0.000792829 0.00105117)
(0.0721219 -0.000627495 0.00071682)
(0.0878899 -0.000731449 0.00100286)
(0.0789588 -0.000636347 0.00117111)
(0.0709835 -0.000467366 0.000782593)
(0.0872031 -0.000595473 0.00109649)
(0.077656 -0.000414065 0.00135164)
(0.0698061 -0.00022119 0.000877108)
(0.0864399 -0.000419022 0.00125745)
(0.0759851 -0.000217215 0.00204849)
(0.0685727 0.000231657 0.000980465)
(0.0855437 -0.000167611 0.00149035)
(0.0672287 0.00110476 0.00139182)
(0.0847973 3.68548e-06 0.00228745)
(0.0984572 -0.0024764 0.00172993)
(0.0973536 -0.00106247 -0.00148427)
(0.100049 -0.00105637 0.000750985)
(0.0958348 -0.00314796 0.00243276)
(0.0930872 -0.00326892 0.00253352)
(0.0982936 -0.00280914 0.00216156)
(0.0914498 -0.00223018 0.00186949)
(0.084864 -0.00163572 0.00179246)
(0.0963039 -0.00244248 0.00199798)
(0.0875948 -0.00167433 0.00150579)
(0.078628 -0.00107329 0.00122161)
(0.0936666 -0.00198043 0.00172733)
(0.084147 -0.00143955 0.0012762)
(0.0740529 -0.000784896 0.000865535)
(0.0909043 -0.00171919 0.00149841)
(0.0811866 -0.00126451 0.0010297)
(0.0704422 -0.000649821 0.000670038)
(0.0884338 -0.00145362 0.00121279)
(0.0786991 -0.00110855 0.000795582)
(0.0674911 -0.000545294 0.00051004)
(0.0863037 -0.00118186 0.000910444)
(0.0765527 -0.000989295 0.000627948)
(0.0650498 -0.000466349 0.00039)
(0.0844785 -0.000980291 0.000693811)
(0.0746441 -0.00090016 0.000522926)
(0.0629642 -0.00041094 0.000312039)
(0.0828764 -0.000840514 0.00055395)
(0.0729113 -0.000822248 0.000461379)
(0.0611284 -0.000365433 0.000261888)
(0.0814415 -0.000736379 0.000464553)
(0.0713162 -0.00074421 0.000428286)
(0.0594828 -0.000322061 0.00023176)
(0.0801404 -0.000647846 0.000408109)
(0.0698341 -0.000665666 0.000412175)
(0.0579926 -0.000278435 0.000215705)
(0.0789456 -0.000566967 0.000373099)
(0.0684435 -0.000588558 0.000406376)
(0.0566295 -0.000234967 0.000208697)
(0.077836 -0.000495235 0.000355053)
(0.067125 -0.000503763 0.00040998)
(0.0553691 -0.000187417 0.000207913)
(0.0768007 -0.000428059 0.000351079)
(0.0658629 -0.000387525 0.000424645)
(0.0541982 -0.000125573 0.000214476)
(0.0758302 -0.000348381 0.000363571)
(0.0646559 -0.000224509 0.000457174)
(0.0531168 -4.34459e-05 0.000232057)
(0.0749172 -0.00023196 0.000398835)
(0.0634943 1.51756e-05 0.000505602)
(0.0521363 8.45373e-05 0.000279919)
(0.074057 -7.03971e-05 0.000465751)
(0.0623854 0.000451963 0.000544671)
(0.0513026 0.000319617 0.000334959)
(0.0732353 0.000192821 0.00055089)
(0.0614277 0.00163698 0.000389795)
(0.0508629 0.000827298 0.000324906)
(0.0724387 0.00072802 0.000573432)
(0.049718 0.00336438 -0.000967168)
(0.0716452 0.00213118 0.000216303)
(0.0993441 0.00341904 -0.00341899)
(0.0973536 0.00148428 0.00106248)
(0.0834792 -0.00197581 0.00197595)
(0.0930872 -0.00253343 0.00326905)
(0.0745171 -0.0019586 0.00195888)
(0.084864 -0.00179228 0.00163596)
(0.0685477 -0.00115881 0.00115938)
(0.0786281 -0.00122123 0.00107373)
(0.064236 -0.000696547 0.000697515)
(0.0740531 -0.000864894 0.000785775)
(0.0607565 -0.000493933 0.000495847)
(0.0704425 -0.000668954 0.000651222)
(0.057937 -0.000373136 0.000376718)
(0.0674918 -0.000507862 0.00054811)
(0.0556133 -0.000285172 0.000291148)
(0.0650511 -0.000386357 0.000471236)
(0.0536235 -0.000222412 0.000232209)
(0.0629664 -0.000306101 0.000419191)
(0.0518779 -0.000175436 0.000191842)
(0.0611324 -0.000252134 0.000379346)
(0.0503271 -0.000138126 0.000165574)
(0.05949 -0.000214402 0.000345689)
(0.0489387 -0.000105562 0.000149861)
(0.0580058 -0.000186482 0.000317808)
(0.0476821 -7.31823e-05 0.000142573)
(0.0566529 -0.000164675 0.000299165)
(0.0465352 -3.74196e-05 0.000144294)
(0.055409 -0.000146249 0.000292339)
(0.0454982 -1.85467e-06 0.000158624)
(0.0542651 -0.000124287 0.000297363)
(0.0445801 5.86606e-05 0.000194857)
(0.0532325 -9.35133e-05 0.000316044)
(0.043816 0.000186434 0.000257016)
(0.0523486 -2.21753e-05 0.000365526)
(0.0433917 0.000411555 0.000328269)
(0.0517215 0.000129809 0.000453858)
(0.0437725 0.00166576 -0.000366363)
(0.0517613 0.000348607 0.000613265)
(0.050279 0.00173531 -0.000158486)
(0.0984572 0.00172993 0.00247641)
(0.100049 0.000750984 0.00105637)
(0.0996871 0.000345487 0.000439219)
(0.0958348 0.00243275 0.00314797)
(0.0982936 0.00216156 0.00280914)
(0.0978161 0.00228233 0.00273273)
(0.0914498 0.00186949 0.00223019)
(0.0963039 0.00199798 0.00244249)
(0.0954958 0.00230323 0.0030016)
(0.0875948 0.00150578 0.00167435)
(0.0936666 0.00172732 0.00198044)
(0.0926188 0.00183901 0.00229918)
(0.0841469 0.0012762 0.00143957)
(0.0909042 0.0014984 0.0017192)
(0.0897667 0.00153601 0.00189155)
(0.0811865 0.0010297 0.00126453)
(0.0884337 0.00121278 0.00145364)
(0.087231 0.00129526 0.00165588)
(0.078699 0.000795579 0.00110858)
(0.0863036 0.000910434 0.00118188)
(0.0850046 0.00107822 0.00149096)
(0.0765527 0.000627945 0.000989326)
(0.0844784 0.000693798 0.000980312)
(0.0830573 0.000915135 0.00136975)
(0.074644 0.000522924 0.000900196)
(0.0828764 0.000553935 0.000840539)
(0.0813184 0.0008048 0.00127544)
(0.0729112 0.00046138 0.000822291)
(0.0814414 0.000464535 0.000736406)
(0.0797358 0.000731811 0.0011886)
(0.0713161 0.000428292 0.00074426)
(0.0801404 0.000408087 0.000647876)
(0.0782796 0.000688829 0.00110235)
(0.069834 0.00041219 0.000665724)
(0.0789455 0.000373066 0.000566995)
(0.0769251 0.000667276 0.00101595)
(0.0684433 0.000406402 0.000588608)
(0.0778359 0.000355009 0.000495255)
(0.0756502 0.00065976 0.000930418)
(0.0671248 0.000410017 0.000503793)
(0.0768005 0.000351072 0.0004281)
(0.0744362 0.000663096 0.000844083)
(0.0658626 0.000424693 0.000387546)
(0.07583 0.000363588 0.000348444)
(0.0732656 0.000680552 0.000748661)
(0.0646556 0.000457245 0.000224549)
(0.074917 0.000398832 0.000232002)
(0.0721216 0.000716889 0.000627558)
(0.0634938 0.000505721 -1.51151e-05)
(0.0740567 0.000465778 7.04689e-05)
(0.0709831 0.000782713 0.000467478)
(0.0623845 0.000544897 -0.000451874)
(0.0732349 0.000550981 -0.000192715)
(0.0698054 0.000877317 0.000221354)
(0.0614263 0.000390155 -0.00163694)
(0.072438 0.000573717 -0.000727801)
(0.0685715 0.000980822 -0.000231409)
(0.0716442 0.00021697 -0.00213085)
(0.0672269 0.00139213 -0.00110468)
(0.10008 0.00135182 0.00135173)
(0.100186 0.000798785 0.000804932)
(0.100186 0.000804972 0.000798745)
(0.100264 0.00221744 0.00221718)
(0.10019 0.00231195 0.00207139)
(0.100189 0.00207157 0.00231179)
(0.0993827 0.00243604 0.00243553)
(0.100306 0.0026339 0.00245289)
(0.100306 0.00245332 0.00263359)
(0.0979838 0.00231072 0.00230989)
(0.0998049 0.00256077 0.00245565)
(0.0998047 0.00245637 0.00256019)
(0.0964945 0.00200695 0.00200554)
(0.0988626 0.00236505 0.00228048)
(0.0988622 0.00228158 0.00236411)
(0.0950719 0.00159824 0.00159586)
(0.0978406 0.00205012 0.00196733)
(0.0978399 0.00196904 0.00204846)
(0.0937741 0.00122842 0.00122445)
(0.096861 0.00169299 0.00160344)
(0.0968598 0.00160618 0.0016903)
(0.0926157 0.00096572 0.00095894)
(0.0959588 0.00140748 0.00131949)
(0.0959567 0.0013242 0.00140305)
(0.0915906 0.000784111 0.000772405)
(0.095147 0.00119652 0.00111524)
(0.0951432 0.00112329 0.00118884)
(0.0906828 0.000656594 0.000635787)
(0.0944244 0.00104014 0.000966178)
(0.0944178 0.000979913 0.00102686)
(0.0898715 0.000565692 0.00053024)
(0.0937861 0.000922677 0.000853996)
(0.0937748 0.000878139 0.000899883)
(0.0891365 0.000502943 0.000446896)
(0.0932181 0.000834239 0.000767889)
(0.093199 0.000807838 0.000796743)
(0.0884664 0.000463157 0.000377615)
(0.0927089 0.00076891 0.000699477)
(0.092678 0.00076276 0.000709307)
(0.0878594 0.00044182 0.000307277)
(0.092257 0.000721085 0.000638368)
(0.092208 0.000737309 0.000626781)
(0.0873158 0.000439167 0.000215879)
(0.0918631 0.000687302 0.000570861)
(0.0917857 0.000731234 0.000535574)
(0.0868327 0.00045796 8.33969e-05)
(0.0915263 0.000665411 0.000479473)
(0.0914046 0.000749354 0.000419792)
(0.0864149 0.000490905 -0.000127763)
(0.0912456 0.000651721 0.000342751)
(0.091058 0.000796692 0.000262627)
(0.0860162 0.000479075 -0.000515541)
(0.0910084 0.000632112 0.000117802)
(0.0907286 0.000871879 3.09642e-05)
(0.0854724 0.000208542 -0.00125081)
(0.0907448 0.00055267 -0.000275745)
(0.0903635 0.000921306 -0.000335964)
(0.0906798 0.000217951 -0.000928802)
(0.0902878 0.000786774 -0.00081329)
(0.100171 0.00136876 0.00141635)
(0.100118 0.000577439 0.000811284)
(0.100102 0.000699801 0.00070066)
(0.100759 0.00219507 0.00214887)
(0.100478 0.00158295 0.00185868)
(0.100477 0.00182267 0.00186455)
(0.100996 0.00247726 0.00238759)
(0.101004 0.00205894 0.00224232)
(0.101024 0.00234704 0.00238273)
(0.100838 0.00247679 0.00238855)
(0.101292 0.00220381 0.00235167)
(0.101337 0.00250644 0.00254336)
(0.100458 0.00231248 0.00222397)
(0.101309 0.00216788 0.00232138)
(0.101409 0.00245129 0.00247175)
(0.0999676 0.00205806 0.00196691)
(0.101157 0.00201164 0.00217767)
(0.101301 0.00226578 0.00226962)
(0.0994436 0.00179274 0.00169781)
(0.100927 0.00179495 0.00196681)
(0.101098 0.00201092 0.00199732)
(0.098934 0.00156671 0.00148001)
(0.100666 0.0015853 0.0017631)
(0.100854 0.00177295 0.0017556)
(0.0984657 0.00138353 0.00131558)
(0.10041 0.0013981 0.00158625)
(0.100606 0.00157344 0.00156032)
(0.0980501 0.00123387 0.00119132)
(0.100176 0.00123342 0.00143905)
(0.100378 0.00140924 0.00140409)
(0.097688 0.00111191 0.00109809)
(0.0999719 0.00109498 0.00132935)
(0.100182 0.00127501 0.00127941)
(0.097377 0.00101311 0.00102624)
(0.0998004 0.000979835 0.00124874)
(0.10002 0.00116686 0.00117939)
(0.097116 0.000932714 0.000965412)
(0.0996609 0.000882695 0.00118655)
(0.099895 0.001081 0.00109561)
(0.0969049 0.000865898 0.000907038)
(0.0995531 0.000797206 0.00113448)
(0.0998059 0.00101377 0.0010195)
(0.0967454 0.000806378 0.000840624)
(0.0994796 0.000715525 0.00108551)
(0.0997542 0.000961761 0.00094306)
(0.0966379 0.000744767 0.000747369)
(0.0994425 0.000630379 0.00102906)
(0.0997403 0.000920844 0.000854781)
(0.0965813 0.000669614 0.000601158)
(0.0994409 0.000530628 0.00094841)
(0.0997632 0.000885466 0.000738629)
(0.0965467 0.000555696 0.000376502)
(0.0994674 0.000402989 0.000825537)
(0.099817 0.000848219 0.0005779)
(0.0964555 0.000327856 7.06902e-05)
(0.0994879 0.000218953 0.000651077)
(0.0998714 0.000781862 0.000365452)
(0.0996366 -6.73925e-05 0.000463306)
(0.100077 0.000615502 0.000164426)
(0.100242 0.000820215 0.00125609)
(0.10009 0.000294337 0.000735339)
(0.100071 0.000415701 0.00060275)
(0.100828 0.00139066 0.00193924)
(0.100491 0.000791993 0.00168397)
(0.100493 0.0011245 0.00158691)
(0.101392 0.00166362 0.00218196)
(0.101086 0.00107774 0.00208329)
(0.101129 0.00154099 0.00209392)
(0.101816 0.00176133 0.00226053)
(0.101664 0.00120433 0.00217871)
(0.101768 0.00173294 0.0022938)
(0.102081 0.00175563 0.00226097)
(0.102121 0.00123968 0.00222133)
(0.102291 0.00179025 0.00236647)
(0.102216 0.00166851 0.00217518)
(0.102452 0.00120179 0.00220907)
(0.102712 0.00174439 0.0023207)
(0.102267 0.00153408 0.00203921)
(0.102681 0.00111814 0.00212475)
(0.103037 0.00162697 0.00220019)
(0.102279 0.0013825 0.00188194)
(0.102843 0.00101685 0.00200306)
(0.103288 0.00148061 0.00204662)
(0.102278 0.00123033 0.00172538)
(0.102969 0.000915647 0.00186655)
(0.103494 0.00132934 0.00188584)
(0.102276 0.00109133 0.00159499)
(0.103074 0.000819764 0.0017384)
(0.103673 0.00118725 0.00173899)
(0.10228 0.000971407 0.00149992)
(0.103171 0.000731879 0.00163422)
(0.103836 0.0010636 0.00162148)
(0.102294 0.000866667 0.0014307)
(0.103268 0.000650771 0.00155163)
(0.103995 0.00095746 0.0015287)
(0.10232 0.00077073 0.00137891)
(0.103369 0.00057475 0.00149286)
(0.104156 0.000864682 0.00145472)
(0.102361 0.000675451 0.00133813)
(0.103471 0.000498893 0.00145569)
(0.104321 0.000780063 0.00139431)
(0.10242 0.000572987 0.00130161)
(0.103576 0.000414541 0.00143214)
(0.104496 0.000697357 0.00134196)
(0.102498 0.00045466 0.00126139)
(0.103687 0.000315515 0.00141506)
(0.104684 0.000612209 0.00129122)
(0.102591 0.000308279 0.00120975)
(0.103802 0.000192325 0.00140134)
(0.104885 0.000516903 0.00123589)
(0.102691 0.000120625 0.00114641)
(0.103917 3.47162e-05 0.00138886)
(0.105098 0.000401984 0.00117221)
(0.102776 -0.000110639 0.00110336)
(0.104028 -0.000167223 0.00138183)
(0.105318 0.000255218 0.00110697)
(0.104238 -0.000402715 0.00141862)
(0.105633 7.81995e-05 0.00109191)
(0.100243 0.000267393 0.00116239)
(0.100087 -3.28024e-08 0.000707013)
(0.100064 0.000135807 0.000537317)
(0.100782 0.000465706 0.0018262)
(0.100477 -9.49654e-08 0.00161777)
(0.100463 0.000370883 0.0014241)
(0.101401 0.000575456 0.00207609)
(0.101066 -1.65015e-07 0.00203463)
(0.101089 0.000525163 0.00193351)
(0.101988 0.00062274 0.00213376)
(0.101694 -3.08812e-07 0.0021176)
(0.101797 0.000605856 0.00212847)
(0.102507 0.000630764 0.00216469)
(0.102269 -5.82645e-07 0.00215013)
(0.102489 0.000639217 0.00221073)
(0.102935 0.000609678 0.00215652)
(0.102742 -1.02999e-06 0.00217975)
(0.10312 0.000633964 0.00224118)
(0.103279 0.00057016 0.00208865)
(0.103124 -1.70826e-06 0.00213412)
(0.103688 0.000600532 0.0021962)
(0.103557 0.000523374 0.00198907)
(0.103428 -2.81195e-06 0.00204449)
(0.104186 0.000554157 0.00210519)
(0.103792 0.000476876 0.00188165)
(0.10368 -4.7486e-06 0.00193567)