/*--------------------------------*- C++ -*----------------------------------*\
| =========                 |                                                 |
| \\      /  F ield         | OpenFOAM: The Open Source CFD Toolbox           |
|  \\    /   O peration     | Version:  2212                                  |
|   \\  /    A nd           | Website:  www.openfoam.com                      |
|    \\/     M anipulation  |                                                 |
\*---------------------------------------------------------------------------*/
FoamFile
{
    version     2.0;
    format      ascii;
    arch        "LSB;label=32;scalar=64";
    class       volScalarField;
    location    "0.5";
    object      p;
}
// * * * * * * * * * * * * * * * * * * * * * * * * * * * * * * * * * * * * * //

dimensions      [0 2 -2 0 0 0 0];

internalField   nonuniform List<scalar> 
693
(
0.00210871
0.00198035
0.00185212
0.00172436
0.001597
0.00146963
0.00210855
0.00198022
0.00185199
0.00172423
0.00159686
0.00146948
0.00210849
0.00198004
0.00185189
0.0017242
0.00159687
0.00146949
0.00210845
0.00197984
0.00185167
0.00172405
0.00159681
0.00146945
0.00210858
0.00197983
0.00185161
0.00172402
0.00159685
0.00146948
0.00210875
0.00197992
0.0018517
0.00172412
0.00159694
0.00146957
0.00210903
0.00198016
0.00185188
0.00172429
0.00159715
0.00146977
0.00210921
0.0019804
0.00185209
0.00172444
0.00159725
0.00146988
0.00210927
0.00198061
0.00185231
0.00172455
0.00159723
0.00146985
0.002109
0.00198055
0.00185223
0.00172442
0.00159704
0.00146967
0.00210889
0.00198048
0.0018522
0.0017244
0.00159702
0.00146966
0.00210885
0.00198048
0.00185227
0.00172453
0.00159719
0.00146981
0.00210852
0.00198004
0.00185194
0.00172433
0.00159709
0.00146981
0.00210813
0.00197968
0.00185173
0.00172419
0.00159694
0.00146955
0.00210745
0.00197929
0.00185147
0.00172396
0.00159657
0.00146898
0.0021071
0.00197922
0.00185152
0.00172395
0.00159637
0.00146864
0.00210721
0.0019793
0.00185159
0.00172399
0.00159638
0.00146864
0.00210766
0.00197953
0.00185172
0.00172414
0.00159662
0.00146895
0.0021083
0.00197983
0.00185181
0.00172428
0.00159702
0.00146948
0.0021088
0.00198012
0.00185198
0.00172441
0.00159722
0.00146986
0.00210873
0.00198019
0.00185202
0.00172436
0.00159709
0.00146983
0.00210876
0.00198042
0.00185218
0.0017244
0.00159703
0.00146967
0.00210917
0.00198062
0.00185245
0.00172478
0.00159749
0.00147011
0.00210858
0.00198001
0.00185206
0.00172454
0.00159735
0.00146998
0.00210752
0.0019794
0.00185166
0.0017242
0.00159679
0.00146907
0.00210624
0.00197882
0.00185137
0.00172378
0.00159593
0.00146795
0.00210571
0.0019789
0.00185156
0.00172371
0.00159546
0.00146736
0.00210564
0.00197889
0.00185154
0.00172365
0.00159534
0.00146723
0.00210585
0.00197888
0.00185152
0.00172366
0.00159544
0.00146739
0.00210655
0.00197898
0.0018515
0.0017239
0.00159609
0.00146813
0.00210762
0.00197945
0.00185168
0.00172422
0.00159682
0.00146907
0.00210838
0.00197988
0.00185184
0.00172428
0.00159705
0.00146967
0.00210872
0.00198027
0.00185212
0.00172443
0.0015971
0.00146975
0.00210918
0.0019805
0.0018524
0.00172482
0.00159762
0.00147024
0.00210831
0.00197992
0.00185198
0.00172449
0.00159722
0.00146969
0.00210671
0.00197913
0.00185153
0.00172393
0.00159616
0.00146823
0.00210531
0.00197849
0.00185111
0.00172321
0.00159494
0.00146692
0.00210481
0.00197829
0.00185102
0.001723
0.00159454
0.0014665
0.00210466
0.00197817
0.00185096
0.00172296
0.0015945
0.00146644
0.00210466
0.00197809
0.00185085
0.00172289
0.0015945
0.00146647
0.00210518
0.00197838
0.00185105
0.00172315
0.00159486
0.00146682
0.00210628
0.00197887
0.00185144
0.00172382
0.00159591
0.0014679
0.00210768
0.00197951
0.00185167
0.00172414
0.00159675
0.00146915
0.00210867
0.00198012
0.00185197
0.00172438
0.00159716
0.0014698
0.00210918
0.00198048
0.00185237
0.00172484
0.00159765
0.0014702
0.00210787
0.00197981
0.00185199
0.00172444
0.00159696
0.00146928
0.00210599
0.00197899
0.00185153
0.00172364
0.00159545
0.00146746
0.00210469
0.00197806
0.00185074
0.00172274
0.00159436
0.00146639
0.00210418
0.00197752
0.00185036
0.00172247
0.00159416
0.00146618
0.00210422
0.00197764
0.00185053
0.0017226
0.00159425
0.00146621
0.00210412
0.00197759
0.00185049
0.00172261
0.00159427
0.00146621
0.00210448
0.00197799
0.00185078
0.0017228
0.00159437
0.00146629
0.00210568
0.00197877
0.0018514
0.00172353
0.00159527
0.00146717
0.00210739
0.00197948
0.00185175
0.00172415
0.00159655
0.00146883
0.00210882
0.00198018
0.00185203
0.00172446
0.00159725
0.00146986
0.00210909
0.00198048
0.00185241
0.00172491
0.00159766
0.00147007
0.00210751
0.00197968
0.00185199
0.00172437
0.00159674
0.001469
0.00210561
0.00197876
0.00185131
0.00172329
0.00159498
0.00146717
0.00210432
0.00197767
0.00185031
0.00172223
0.00159393
0.00146626
0.00210385
0.00197708
0.00184981
0.00172188
0.00159372
0.00146603
0.00210397
0.00197732
0.00185018
0.00172228
0.00159399
0.00146604
0.002104
0.00197747
0.00185039
0.00172247
0.00159409
0.00146604
0.0021043
0.00197783
0.00185066
0.00172268
0.00159422
0.00146614
0.00210561
0.00197877
0.00185138
0.00172348
0.00159522
0.00146708
0.00210747
0.00197957
0.00185181
0.0017242
0.0015966
0.00146886
0.00210899
0.00198027
0.00185212
0.00172456
0.00159735
0.00146996
0.00210908
0.00198055
0.00185251
0.00172503
0.00159763
0.00210735
0.00197957
0.00185206
0.00172447
0.00159672
0.00210552
0.00197868
0.00185127
0.00172317
0.00159502
0.00210439
0.00197769
0.00185013
0.0017219
0.00159385
0.00210389
0.00197702
0.00184957
0.00172157
0.00159358
0.00210398
0.00197728
0.00185008
0.00172216
0.00159393
0.0014662
0.00210413
0.0019776
0.00185052
0.00172261
0.00159428
0.00146622
0.00210455
0.00197803
0.00185081
0.00172288
0.00159452
0.00146639
0.00210593
0.00197891
0.00185146
0.00172358
0.00159535
0.00146728
0.00210783
0.00197972
0.00185188
0.00172429
0.00159678
0.00146912
0.00210917
0.00198036
0.00185217
0.00172462
0.00159745
0.00147009
0.0019808
0.0018525
0.0017249
0.00159745
0.00197963
0.00185211
0.00172464
0.00159695
0.00210597
0.00197873
0.00185156
0.00172382
0.00159576
0.00210503
0.00197825
0.00185075
0.00172256
0.00159453
0.00210453
0.00197782
0.00185026
0.00172203
0.001594
0.0021045
0.00197793
0.00185061
0.00172251
0.00159415
0.00146645
0.0021047
0.00197826
0.00185102
0.00172301
0.0015946
0.0014665
0.00210519
0.00197845
0.00185113
0.00172322
0.0015949
0.00146678
0.00210657
0.00197903
0.00185152
0.00172381
0.00159585
0.00146792
0.00210833
0.00197987
0.00185186
0.00172433
0.00159708
0.0014696
0.00210925
0.00198044
0.00185219
0.00172462
0.00159748
0.00147017
0.00198094
0.00185263
0.00172496
0.00159745
0.00198028
0.00185238
0.00172491
0.00159739
0.00210749
0.00197973
0.00185231
0.00172477
0.00159687
0.00210653
0.0019792
0.00185173
0.0017239
0.00159586
0.00210588
0.00197888
0.00185127
0.0017231
0.00159508
0.00210567
0.00197889
0.00185137
0.00172326
0.00159496
0.00146723
0.00210569
0.00197891
0.00185152
0.0017236
0.00159532
0.00146724
0.00210615
0.00197879
0.00185138
0.0017237
0.0015957
0.00146773
0.00210753
0.00197935
0.00185155
0.00172407
0.00159668
0.00146901
0.00210872
0.00198001
0.00185184
0.00172433
0.00159724
0.00146997
0.00210923
0.00198056
0.00185229
0.00172461
0.00159735
0.00147005
0.00198103
0.00185259
0.00172487
0.00159737
0.00198066
0.00185242
0.00172493
0.00159754
0.00210898
0.00198047
0.00185266
0.00172521
0.00159765
0.00210843
0.00198032
0.00185254
0.00172499
0.00159726
0.00210788
0.00197987
0.00185207
0.00172442
0.00159672
0.00210739
0.0019795
0.00185173
0.00172406
0.00159644
0.00146873
0.00210719
0.00197929
0.00185157
0.00172399
0.0015964
0.00146867
0.00210748
0.00197928
0.00185144
0.00172392
0.00159655
0.00146899
0.00210822
0.00197965
0.00185157
0.00172405
0.0015969
0.00146958
0.00210856
0.00197997
0.00185181
0.0017242
0.00159699
0.0014698
0.00210888
0.00198041
0.00185213
0.00172439
0.00159707
0.00146977
0.001981
0.00185256
0.00172486
0.00159738
0.00198099
0.00185256
0.0017249
0.00159742
0.00210978
0.00198082
0.00185255
0.00172505
0.00159759
0.00210953
0.00198071
0.00185258
0.00172512
0.00159764
0.00210927
0.0019805
0.0018524
0.00172493
0.00159749
0.00210891
0.00198015
0.00185202
0.00172449
0.00159723
0.00146961
0.00210864
0.00197991
0.00185178
0.00172423
0.00159699
0.00146955
0.00210847
0.00197984
0.00185169
0.00172411
0.0015969
0.00146953
0.00210851
0.00198001
0.00185185
0.00172418
0.00159687
0.00146954
0.00210857
0.00198018
0.00185193
0.00172418
0.00159685
0.00146953
0.00210873
0.0019803
0.00185202
0.00172427
0.00159694
0.00146964
)
;

boundaryField
{
    inlet
    {
        type            zeroGradient;
    }
    ami1
    {
        type            cyclicAMI;
        value           nonuniform List<scalar> 0();
    }
    walls
    {
        type            zeroGradient;
    }
    ami2
    {
        type            cyclicAMI;
        value           nonuniform List<scalar> 0();
    }
    outlet
    {
        type            fixedValue;
        value           nonuniform List<scalar> 0();
    }
    procBoundary7to5
    {
        type            processor;
        value           nonuniform List<scalar> 
131
(
0.00134166
0.00134151
0.00134139
0.00134131
0.00134132
0.00134136
0.00134149
0.00134161
0.0013417
0.0013417
0.00134171
0.00134181
0.00134164
0.00134131
0.00134094
0.00134077
0.00134078
0.00134098
0.00134126
0.00134159
0.0013417
0.00134172
0.00134194
0.00134164
0.00134095
0.00134036
0.00134015
0.00134011
0.00134021
0.0013404
0.0013409
0.00134148
0.00134167
0.00134197
0.00134149
0.00134057
0.00133995
0.00133966
0.00133955
0.0013396
0.00133984
0.00134025
0.00134111
0.00134166
0.00134188
0.0013413
0.00134029
0.00133951
0.00133912
0.00133908
0.00133912
0.00133941
0.00133994
0.00134095
0.0013417
0.00134165
0.00146956
0.00134114
0.00146881
0.00134023
0.00146768
0.0013395
0.00146693
0.00133912
0.00146651
0.00133892
0.00133895
0.0013392
0.00133986
0.00134098
0.00134175
0.00146956
0.00146881
0.00146768
0.00146693
0.00146651
0.00146651
0.00133929
0.00133906
0.00133929
0.00134006
0.00134116
0.00134183
0.0014693
0.00146882
0.00146806
0.00146752
0.0014671
0.0014671
0.00133974
0.00133944
0.00133969
0.00134041
0.00134144
0.00134193
0.0014693
0.00146907
0.00146855
0.0014681
0.00146789
0.00146789
0.00134034
0.00134006
0.00134026
0.00134092
0.00134174
0.00134198
0.00146931
0.00146929
0.00146918
0.00146891
0.00146876
0.00146876
0.00134082
0.00134078
0.00134099
0.00134144
0.00134177
0.00134187
0.00146931
0.0014693
0.00146933
0.00146927
0.00146927
0.00146927
0.00134116
0.0013413
0.00134139
0.00134153
0.00134165
0.00134176
)
;
    }
    procBoundary7to8
    {
        type            processor;
        value           nonuniform List<scalar> 
68
(
0.0022366
0.00223643
0.00223653
0.0022367
0.00223704
0.00223677
0.00223652
0.00223629
0.00223557
0.0022351
0.00223732
0.00223687
0.00223574
0.002234
0.00223285
0.00223758
0.00223655
0.00223452
0.00223243
0.00223166
0.00223759
0.00223588
0.00223329
0.00223165
0.00223133
0.00223129
0.0022374
0.00223541
0.00223275
0.00223137
0.00223114
0.00223114
0.00223724
0.00210925
0.00223535
0.00210772
0.00223279
0.0022314
0.00223117
0.00223119
0.00210925
0.00210772
0.00210772
0.00223392
0.00223218
0.00223152
0.00223144
0.00210926
0.00210869
0.00210869
0.00223568
0.00223432
0.00223319
0.00223271
0.0021094
0.00210934
0.00210934
0.00223725
0.00223656
0.00223592
0.00223533
0.00210949
0.00210959
0.00210959
0.00223808
0.00223796
0.00223774
0.0022374
)
;
    }
    procBoundary7to9
    {
        type            processor;
        value           nonuniform List<scalar> 
59
(
0.00223732
0.00223758
0.00223764
0.00223746
0.00223694
0.00223677
0.0022352
0.00223581
0.00223661
0.00223705
0.00223672
0.00223661
0.00223268
0.0022332
0.00223449
0.00223589
0.0022365
0.0022367
0.00223155
0.0022316
0.00223237
0.00223408
0.00223578
0.00223685
0.00223114
0.00223137
0.00223296
0.00223534
0.00223712
0.00223107
0.00223122
0.00223278
0.00223542
0.00223739
0.00223122
0.00223151
0.00223325
0.00223592
0.00223764
0.00223153
0.00223229
0.00223446
0.00223662
0.00223765
0.00223279
0.00223393
0.0022358
0.00223698
0.00223741
0.00223516
0.00223563
0.00223637
0.00223659
0.00223683
0.00223709
0.00223675
0.00223657
0.00223646
0.00223665
)
;
    }
}


// ************************************************************************* //
