/*--------------------------------*- C++ -*----------------------------------*\
| =========                 |                                                 |
| \\      /  F ield         | OpenFOAM: The Open Source CFD Toolbox           |
|  \\    /   O peration     | Version:  2212                                  |
|   \\  /    A nd           | Website:  www.openfoam.com                      |
|    \\/     M anipulation  |                                                 |
\*---------------------------------------------------------------------------*/
FoamFile
{
    version     2.0;
    format      ascii;
    arch        "LSB;label=32;scalar=64";
    class       volScalarField;
    location    "1.35";
    object      epsilon;
}
// * * * * * * * * * * * * * * * * * * * * * * * * * * * * * * * * * * * * * //

dimensions      [0 2 -3 0 0 0 0];

internalField   nonuniform List<scalar> 
680
(
0.269871
0.245647
0.225776
0.209444
0.197579
0.184508
0.173088
0.149819
0.131399
0.116735
0.105495
0.0973673
0.148924
0.12804
0.111356
0.097929
0.0871262
0.0787143
0.144521
0.123504
0.106677
0.0930679
0.0819822
0.0730533
0.14349
0.122423
0.105518
0.0918116
0.0806605
0.0721504
0.143402
0.122301
0.105349
0.0915814
0.0803908
0.0722207
0.170927
0.144316
0.123212
0.106256
0.0924657
0.08121
0.0730753
0.175116
0.148678
0.127676
0.110807
0.097089
0.0858728
0.077072
0.202838
0.172875
0.149486
0.130822
0.11567
0.103508
0.094017
0.299673
0.269871
0.245649
0.225777
0.209446
0.197582
0.184516
0.172875
0.149484
0.13082
0.115667
0.103505
0.0940109
0.109747
0.093149
0.0800824
0.0695811
0.0604894
0.0560277
0.111164
0.0927075
0.0781861
0.0666454
0.0571628
0.0500332
0.117774
0.097802
0.0821181
0.0696516
0.0596193
0.0513414
0.122303
0.101404
0.0849884
0.0719358
0.0614456
0.0529623
0.122275
0.10137
0.0849464
0.0718863
0.061389
0.0528979
0.143508
0.117715
0.0977292
0.0820304
0.069549
0.0595052
0.0511919
0.134831
0.111116
0.0926492
0.0781189
0.0665731
0.0570934
0.049656
0.131233
0.109741
0.0931467
0.0800814
0.0695806
0.060489
0.0560277
0.202985
0.173087
0.14982
0.1314
0.116735
0.105495
0.0973662
0.148678
0.127675
0.110806
0.0970886
0.0858718
0.0770699
0.111119
0.0926503
0.0781184
0.066571
0.0570941
0.0496551
0.123875
0.102238
0.08532
0.0719284
0.0611851
0.0525858
0.138338
0.1138
0.0946187
0.0794474
0.0673151
0.0575211
0.146795
0.120673
0.100232
0.0840536
0.0711123
0.0606361
0.146778
0.120652
0.100207
0.0840247
0.0710834
0.0606212
0.170108
0.138308
0.113763
0.0945747
0.0793968
0.0672627
0.0574903
0.151916
0.123872
0.102237
0.0853198
0.0719285
0.0611858
0.0525891
0.134867
0.111162
0.092706
0.0781849
0.0666443
0.0571615
0.050038
0.175281
0.148922
0.12804
0.111355
0.0979285
0.0871254
0.0787112
0.144315
0.123211
0.106255
0.0924652
0.0812091
0.0730736
0.117717
0.0977292
0.0820295
0.0695472
0.0595027
0.0511878
0.138309
0.113764
0.0945741
0.0793957
0.0672611
0.0574873
0.158282
0.129955
0.107779
0.0902305
0.0761949
0.0648119
0.169487
0.139172
0.115394
0.0965486
0.0814527
0.0691557
0.169483
0.139167
0.115388
0.0965419
0.0814451
0.0691264
0.194888
0.158281
0.129955
0.10778
0.0902307
0.0761954
0.064814
0.170131
0.138337
0.1138
0.0946183
0.079447
0.0673147
0.0575223
0.143554
0.117774
0.0978021
0.082118
0.0696512
0.0596189
0.0513414
0.171073
0.144521
0.123504
0.106677
0.0930674
0.0819813
0.0730519
0.143402
0.122301
0.105349
0.0915816
0.0803909
0.0722223
0.122275
0.101369
0.0849454
0.0718849
0.0613869
0.052895
0.146778
0.120651
0.100206
0.0840235
0.0710818
0.0606194
0.169483
0.139167
0.115387
0.0965414
0.0814447
0.0691265
0.182021
0.149546
0.124008
0.103731
0.0874528
0.0740955
0.182021
0.149546
0.124009
0.103731
0.0874531
0.0740955
0.208559
0.169487
0.139172
0.115393
0.0965483
0.0814524
0.0691554
0.180594
0.146796
0.120673
0.100232
0.0840528
0.0711112
0.0606356
0.149276
0.122306
0.101406
0.0849892
0.0719363
0.0614458
0.0529626
0.170058
0.143491
0.122424
0.105519
0.0918119
0.0806606
0.0721501
0.14349
0.122423
0.105518
0.091812
0.0806614
0.0721508
0.122303
0.101404
0.0849884
0.0719359
0.0614456
0.0529624
0.146795
0.120673
0.100232
0.0840536
0.0711124
0.060637
0.169487
0.139172
0.115394
0.0965488
0.081453
0.0691565
0.182021
0.149546
0.124009
0.103731
0.087453
0.074096
0.182021
0.149546
0.124008
0.103731
0.0874531
0.0740952
0.208556
0.169483
0.139167
0.115387
0.0965415
0.0814448
0.0691264
0.18058
0.146778
0.120652
0.100206
0.084024
0.0710826
0.0606205
0.149253
0.122278
0.101371
0.0849472
0.0718869
0.0613894
0.0528982
0.169996
0.143404
0.122303
0.10535
0.0915825
0.0803917
0.0722226
0.144521
0.123504
0.106677
0.0930681
0.081983
0.0730548
0.117774
0.0978024
0.082119
0.0696528
0.0596209
0.0513435
0.138338
0.1138
0.0946196
0.0794487
0.067317
0.0575247
0.158282
0.129955
0.10778
0.0902314
0.0761961
0.0648149
0.169483
0.139167
0.115387
0.0965416
0.081445
0.0691261
0.169487
0.139172
0.115393
0.0965483
0.0814524
0.0691555
0.194888
0.158281
0.129955
0.10778
0.0902309
0.0761955
0.0648142
0.170108
0.138308
0.113763
0.0945747
0.079397
0.067263
0.0574903
0.143508
0.117716
0.0977294
0.0820306
0.0695491
0.0595052
0.0511915
0.170928
0.144317
0.123212
0.106256
0.0924664
0.0812103
0.0730758
0.148924
0.12804
0.111355
0.0979284
0.0871265
0.0787156
0.111165
0.0927085
0.0781879
0.0666483
0.0571631
0.0500376
0.123875
0.102239
0.0853216
0.0719305
0.0611882
0.0525898
0.138309
0.113764
0.0945749
0.0793969
0.0672627
0.0574892
0.146778
0.120651
0.100206
0.0840234
0.0710818
0.060619
0.146795
0.120672
0.100231
0.0840528
0.0711111
0.0606354
0.170131
0.138337
0.1138
0.0946189
0.0794479
0.0673158
0.0575222
0.151916
0.123873
0.102238
0.0853206
0.0719298
0.0611872
0.0525884
0.134831
0.111116
0.0926491
0.0781188
0.0665728
0.0570931
0.0496581
0.175116
0.148678
0.127676
0.110807
0.0970892
0.0858733
0.0770727
0.173087
0.149819
0.131399
0.116736
0.105497
0.0973695
0.109747
0.0931494
0.080083
0.0695816
0.0604909
0.0560308
0.11112
0.0926503
0.0781184
0.066571
0.0570943
0.0496552
0.117717
0.097729
0.0820292
0.0695468
0.0595024
0.0511875
0.122275
0.101369
0.0849452
0.0718846
0.0613866
0.0528948
0.122303
0.101404
0.0849883
0.0719359
0.0614457
0.0529626
0.143554
0.117774
0.0978027
0.0821191
0.0696529
0.059621
0.0513433
0.134867
0.111163
0.0927076
0.0781873
0.0666478
0.0571626
0.0500367
0.131233
0.109741
0.0931468
0.0800817
0.0695805
0.0604899
0.0560297
0.202837
0.172875
0.149486
0.130821
0.115669
0.103507
0.0940156
0.26987
0.245646
0.225774
0.209443
0.19758
0.184509
0.172874
0.149483
0.130818
0.115665
0.103501
0.0940076
0.148677
0.127674
0.110805
0.097087
0.0858696
0.0770653
0.144314
0.12321
0.106254
0.0924644
0.0812077
0.073072
0.143401
0.122301
0.105349
0.0915817
0.0803909
0.0722225
0.143489
0.122423
0.105519
0.0918124
0.0806618
0.0721511
0.171072
0.144521
0.123504
0.106677
0.0930684
0.0819832
0.0730528
0.175281
0.148922
0.128039
0.111355
0.0979284
0.0871265
0.0787157
0.202984
0.173087
0.14982
0.1314
0.116736
0.105498
0.0973704
0.299673
0.26987
0.245648
0.225777
0.209447
0.197586
0.184517
0.265245
0.226844
0.195754
0.177558
0.100221
0.0889276
0.0801226
0.0741156
0.0878443
0.0728344
0.0638748
0.120516
0.103318
0.088581
0.0780614
0.0597587
0.0498509
0.0430396
0.0383537
0.0472218
0.0419997
0.0360692
0.0925439
0.0785518
0.067565
0.0524515
0.0430809
0.0361846
0.0460765
0.0396863
0.0343817
0.0794448
0.0687294
0.0603304
0.0500312
0.0420089
0.0358692
0.0479455
0.0414668
0.0360107
)
;

boundaryField
{
    inlet
    {
        type            fixedValue;
        value           nonuniform List<scalar> 0();
    }
    ami1
    {
        type            cyclicAMI;
        value           nonuniform List<scalar> 
100
(
0.144651
0.0893511
0.0746654
0.0699561
0.0700525
0.0723328
0.0763912
0.0863165
0.11867
0.144661
0.118666
0.0582882
0.0500044
0.0487184
0.050039
0.050885
0.0502015
0.049617
0.0582919
0.0893533
0.0863152
0.0496119
0.0498519
0.0535803
0.056396
0.0563558
0.053585
0.0498573
0.0500403
0.0746565
0.0763976
0.0501985
0.0535816
0.0598919
0.0638221
0.0637274
0.059894
0.0535823
0.0487205
0.0699544
0.0723394
0.0508849
0.0563554
0.0637318
0.0680071
0.0680053
0.0638284
0.0563989
0.0500352
0.0700493
0.0700496
0.0500347
0.0564003
0.0638303
0.0680083
0.0680049
0.0637289
0.0563568
0.0508873
0.0723388
0.0699571
0.0487224
0.053585
0.059896
0.0637285
0.0638257
0.0598963
0.0535838
0.0501993
0.0763957
0.0746689
0.0500086
0.0498533
0.0535815
0.056348
0.0563979
0.0535823
0.0498534
0.0496131
0.0863103
0.0893506
0.0582906
0.0496128
0.0501967
0.0508818
0.0500146
0.0487038
0.0500057
0.0582889
0.118674
0.144655
0.118686
0.0863141
0.076393
0.0723361
0.0700447
0.0699495
0.0746672
0.0893507
0.144659
)
;
    }
    walls
    {
        type            epsilonWallFunction;
        blending        stepwise;
        value           nonuniform List<scalar> 
283
(
0.299673
0.202985
0.175281
0.171073
0.170058
0.169996
0.170928
0.175116
0.202837
0.299673
0.269871
0.173087
0.148922
0.144521
0.143491
0.143404
0.144317
0.148678
0.172875
0.26987
0.245649
0.14982
0.12804
0.123504
0.122424
0.122303
0.123212
0.127676
0.149486
0.245648
0.225777
0.1314
0.111355
0.106677
0.105519
0.10535
0.106256
0.110807
0.130821
0.225777
0.209446
0.116735
0.0979285
0.0930674
0.0918119
0.0915825
0.0924664
0.0970892
0.115669
0.209447
0.197582
0.105495
0.0871254
0.0819813
0.0806606
0.0803917
0.0812103
0.0858733
0.103507
0.197586
0.184516
0.0973662
0.0787112
0.0730519
0.0721501
0.0722226
0.0730758
0.0770727
0.0940156
0.184517
0.170927
0.175116
0.202838
0.299673
0.269871
0.173088
0.148924
0.144521
0.14349
0.143402
0.144316
0.148678
0.172875
0.269871
0.245647
0.149819
0.12804
0.123504
0.122423
0.122301
0.123212
0.127676
0.149486
0.245649
0.225776
0.131399
0.111356
0.106677
0.105518
0.105349
0.106256
0.110807
0.130822
0.225777
0.209444
0.116735
0.097929
0.0930679
0.0918116
0.0915814
0.0924657
0.097089
0.11567
0.209446
0.197579
0.105495
0.0871262
0.0819822
0.0806605
0.0803908
0.08121
0.0858728
0.103508
0.197582
0.184508
0.0973673
0.0787143
0.0730533
0.0721504
0.0722207
0.0730753
0.077072
0.094017
0.184516
0.269871
0.172875
0.148678
0.144315
0.143402
0.14349
0.144521
0.148924
0.173087
0.26987
0.245647
0.149484
0.127675
0.123211
0.122301
0.122423
0.123504
0.12804
0.149819
0.245646
0.225776
0.13082
0.110806
0.106255
0.105349
0.105518
0.106677
0.111355
0.131399
0.225774
0.209444
0.115667
0.0970886
0.0924652
0.0915816
0.091812
0.0930681
0.0979284
0.116736
0.209443
0.197579
0.103505
0.0858718
0.0812091
0.0803909
0.0806614
0.081983
0.0871265
0.105497
0.19758
0.184508
0.0940109
0.0770699
0.0730736
0.0722223
0.0721508
0.0730548
0.0787156
0.0973695
0.184509
0.171072
0.175281
0.202984
0.299673
0.26987
0.172874
0.148677
0.144314
0.143401
0.143489
0.144521
0.148922
0.173087
0.26987
0.245646
0.149483
0.127674
0.12321
0.122301
0.122423
0.123504
0.128039
0.14982
0.245648
0.225774
0.130818
0.110805
0.106254
0.105349
0.105519
0.106677
0.111355
0.1314
0.225777
0.209443
0.115665
0.097087
0.0924644
0.0915817
0.0918124
0.0930684
0.0979284
0.116736
0.209447
0.19758
0.103501
0.0858696
0.0812077
0.0803909
0.0806618
0.0819832
0.0871265
0.105498
0.197586
0.184509
0.0940076
0.0770653
0.073072
0.0722225
0.0721511
0.0730528
0.0787157
0.0973704
0.184517
0.265245
0.100221
0.0878443
0.226844
0.0889276
0.0728344
0.195754
0.0801226
0.0638748
0.177558
0.0741156
0.265245
0.120516
0.0925439
0.0794448
0.226844
0.103318
0.0785518
0.0687294
0.195754
0.088581
0.067565
0.0603304
0.177558
0.0780614
)
;
    }
    ami2
    {
        type            cyclicAMI;
        value           nonuniform List<scalar> 
12
(
0.181932
0.115531
0.0924984
0.0989783
0.0655604
0.0503157
0.0828871
0.0562473
0.0488284
0.0758673
0.0536621
0.0516218
)
;
    }
    outlet
    {
        type            zeroGradient;
    }
    procBoundary2to0
    {
        type            processor;
        value           nonuniform List<scalar> 
28
(
0.166265
0.0695478
0.0582127
0.0741212
0.0643906
0.0582127
0.0574435
0.0707706
0.0594983
0.0349769
0.0316948
0.0312454
0.0470124
0.0405466
0.0316948
0.0353371
0.0594983
0.0312454
0.0473619
0.0412297
0.0300348
0.0359917
0.053823
0.0310739
0.0517815
0.044911
0.0314497
0.0391327
)
;
    }
    procBoundary2to1
    {
        type            processor;
        value           nonuniform List<scalar> 9(0.071605 0.0633637 0.0566016 0.0474331 0.0409675 0.0356832 0.0501388 0.0433191 0.0376585);
    }
    procBoundary2to3
    {
        type            processor;
        value           nonuniform List<scalar> 
110
(
0.299672
0.202985
0.175281
0.171073
0.170059
0.169997
0.169997
0.204936
0.20891
0.241319
0.336193
0.20284
0.131226
0.134864
0.143555
0.149279
0.149256
0.149256
0.177314
0.165888
0.159203
0.241388
0.175118
0.134827
0.151913
0.170131
0.180595
0.180581
0.180581
0.21189
0.188825
0.165916
0.209026
0.170929
0.143507
0.170107
0.194888
0.208559
0.208556
0.208556
0.242785
0.211908
0.177351
0.205038
0.169997
0.149256
0.18058
0.208556
0.223737
0.223737
0.223737
0.259501
0.22491
0.184607
0.204
0.170059
0.149279
0.180595
0.20856
0.223737
0.223737
0.223737
0.259498
0.224899
0.184589
0.203956
0.171072
0.143556
0.170132
0.194888
0.208556
0.20856
0.20856
0.242785
0.21189
0.177314
0.204936
0.17528
0.134865
0.151914
0.170107
0.18058
0.180594
0.180594
0.211909
0.188825
0.165888
0.20891
0.202985
0.131226
0.134826
0.143507
0.149255
0.149278
0.149278
0.177352
0.165917
0.159203
0.241318
0.299671
0.202839
0.175117
0.170929
0.169997
0.170059
0.170059
0.205038
0.209025
0.241387
0.336192
)
;
    }
}


// ************************************************************************* //
