/*--------------------------------*- C++ -*----------------------------------*\
| =========                 |                                                 |
| \\      /  F ield         | OpenFOAM: The Open Source CFD Toolbox           |
|  \\    /   O peration     | Version:  2212                                  |
|   \\  /    A nd           | Website:  www.openfoam.com                      |
|    \\/     M anipulation  |                                                 |
\*---------------------------------------------------------------------------*/
FoamFile
{
    version     2.0;
    format      ascii;
    arch        "LSB;label=32;scalar=64";
    class       volScalarField;
    location    "2.3";
    object      epsilon;
}
// * * * * * * * * * * * * * * * * * * * * * * * * * * * * * * * * * * * * * //

dimensions      [0 2 -3 0 0 0 0];

internalField   nonuniform List<scalar> 
6840
(
90.5034
12.1248
4.3887
2.46659
1.63316
1.18308
0.902023
0.720675
0.594604
0.502527
0.432711
0.379334
0.336389
0.300016
0.270414
0.246498
0.227111
0.211812
0.203023
0.194769
58.5856
14.5696
6.08947
3.33296
2.08218
1.40267
0.998658
0.740292
0.565913
0.443935
0.356033
0.290944
0.241434
0.203011
0.173131
0.14988
0.131459
0.116805
0.105796
0.0985806
45.0226
13.4729
5.73075
3.07323
1.86023
1.22699
0.873574
0.649775
0.497008
0.38947
0.311278
0.252962
0.208961
0.175188
0.148783
0.127844
0.11108
0.0975318
0.0865645
0.0781002
38.7028
13.0541
5.74336
3.08733
1.88066
1.2275
0.869471
0.645375
0.49258
0.384766
0.307002
0.249016
0.204938
0.17093
0.144315
0.123212
0.106258
0.092469
0.0811998
0.0728985
36.0571
12.8529
5.76645
3.10211
1.89475
1.22669
0.866496
0.643978
0.492244
0.383956
0.305784
0.247905
0.2039
0.16992
0.143294
0.122142
0.105113
0.0912218
0.0798105
0.0710583
36.0571
12.8529
5.76645
3.10211
1.89476
1.22669
0.8665
0.643984
0.492251
0.383966
0.3058
0.247926
0.203931
0.169966
0.143364
0.122239
0.105253
0.0914282
0.0801355
0.0717421
38.7028
13.0541
5.74336
3.08733
1.88066
1.2275
0.86948
0.645389
0.492598
0.384788
0.307036
0.249061
0.205003
0.171028
0.144456
0.12341
0.106544
0.0928907
0.0817962
0.0735315
45.0226
13.4729
5.73075
3.07323
1.86023
1.227
0.873582
0.649787
0.497024
0.389499
0.311314
0.25301
0.209028
0.175288
0.14893
0.128051
0.111378
0.0979755
0.0872261
0.079062
58.5856
14.5696
6.08947
3.33296
2.08218
1.40267
0.99866
0.740296
0.565917
0.443945
0.356048
0.290968
0.24147
0.203088
0.173237
0.15003
0.131697
0.117214
0.10652
0.0995365
90.5034
12.1248
4.3887
2.46659
1.63316
1.18308
0.902023
0.720674
0.594604
0.502526
0.432711
0.379332
0.33639
0.300011
0.270414
0.246494
0.227106
0.211805
0.203015
0.194763
58.5856
14.5696
6.08947
3.33296
2.08218
1.40268
0.99866
0.740296
0.565917
0.443945
0.356049
0.290969
0.241472
0.203087
0.173239
0.150033
0.131701
0.117219
0.106527
0.0995427
16.5373
9.49239
5.0127
2.8606
1.75746
1.14759
0.786931
0.562048
0.415366
0.315946
0.24633
0.19622
0.159216
0.131245
0.109752
0.0931736
0.0801243
0.0696343
0.0606191
0.0562527
13.6679
8.73671
5.07741
3.05388
1.92223
1.26609
0.869288
0.618629
0.453957
0.342031
0.263647
0.207307
0.165897
0.134839
0.111132
0.0926691
0.0781387
0.0666052
0.0571708
0.0497629
12.9054
8.33993
5.07879
3.15547
2.02774
1.3512
0.933536
0.666457
0.489543
0.368592
0.2836
0.222382
0.177321
0.14352
0.11774
0.0977522
0.0820563
0.0695816
0.0595496
0.0513675
12.6882
8.1544
5.07113
3.20038
2.07939
1.39506
0.967831
0.692723
0.509637
0.384016
0.295503
0.231647
0.184592
0.149262
0.122295
0.101385
0.0849635
0.0719095
0.0614253
0.0529682
12.6882
8.1544
5.07113
3.20038
2.07939
1.39506
0.967834
0.692726
0.509643
0.384023
0.295512
0.231657
0.184604
0.149273
0.122305
0.101404
0.0849888
0.0719389
0.0614548
0.0530002
12.9054
8.33993
5.07879
3.15547
2.02775
1.35121
0.933542
0.666464
0.489554
0.368606
0.283618
0.222403
0.177345
0.143543
0.117765
0.0977935
0.082109
0.0696431
0.0596139
0.0513604
13.6679
8.73671
5.07741
3.05388
1.92224
1.2661
0.869292
0.618633
0.453965
0.342042
0.26366
0.207324
0.165916
0.134855
0.111158
0.0927038
0.078179
0.0666463
0.057194
0.0501926
16.5373
9.49239
5.0127
2.8606
1.75746
1.14759
0.786931
0.562047
0.415366
0.315946
0.24633
0.19622
0.159216
0.131236
0.10976
0.0931766
0.0801259
0.0696354
0.0606199
0.0562568
58.5856
14.5696
6.08947
3.33296
2.08218
1.40267
0.998657
0.740292
0.565912
0.443934
0.356032
0.290943
0.241433
0.203007
0.17313
0.149878
0.131456
0.116801
0.105791
0.0985768
45.0226
13.4729
5.73075
3.07323
1.86023
1.227
0.873582
0.649787
0.497024
0.389499
0.311314
0.25301
0.209027
0.175285
0.148932
0.128054
0.111381
0.0979785
0.0872303
0.0790685
13.6679
8.73671
5.07741
3.05388
1.92224
1.2661
0.869292
0.618634
0.453965
0.342042
0.26366
0.207324
0.165917
0.134864
0.111149
0.0927011
0.0781785
0.0666477
0.0571909
0.050184
11.8601
7.76395
4.99734
3.24076
2.14419
1.45499
1.0141
0.725634
0.532156
0.399149
0.305546
0.238222
0.188824
0.151913
0.123869
0.102235
0.0853171
0.0719261
0.0611842
0.0526144
11.6229
7.60535
5.0103
3.34209
2.26848
1.57142
1.11236
0.804587
0.594203
0.447515
0.343208
0.26763
0.211895
0.170116
0.13832
0.113775
0.0945876
0.0794103
0.0672738
0.0574924
11.5726
7.56718
5.02065
3.38344
2.32103
1.62326
1.15828
0.843156
0.62569
0.472848
0.363482
0.283851
0.224903
0.180587
0.146789
0.120661
0.100216
0.0840342
0.0710911
0.0606085
11.5726
7.56718
5.02065
3.38344
2.32103
1.62326
1.15828
0.843156
0.625692
0.472851
0.363486
0.283855
0.224908
0.180589
0.14679
0.120667
0.100224
0.0840448
0.0711042
0.0606438
11.6229
7.60535
5.0103
3.34209
2.26848
1.57142
1.11236
0.804588
0.594206
0.44752
0.343214
0.267637
0.211901
0.17012
0.138326
0.113787
0.0946041
0.0794307
0.0672998
0.0575622
11.8601
7.76395
4.99734
3.24076
2.14419
1.45499
1.0141
0.725634
0.532155
0.399149
0.305546
0.238222
0.188824
0.151911
0.123871
0.102236
0.0853182
0.0719276
0.0611857
0.0526192
13.6679
8.73671
5.07741
3.05388
1.92223
1.26609
0.869288
0.618629
0.453957
0.342031
0.263647
0.207308
0.165898
0.134841
0.11113
0.0926689
0.0781393
0.0666062
0.0571717
0.0497655
45.0226
13.4729
5.73075
3.07323
1.86023
1.22699
0.873573
0.649774
0.497008
0.38947
0.311278
0.252961
0.208959
0.175185
0.148785
0.127847
0.111081
0.0975327
0.0865653
0.0781014
38.7028
13.0541
5.74336
3.08733
1.88066
1.2275
0.86948
0.645389
0.492598
0.384788
0.307036
0.24906
0.205001
0.171024
0.144458
0.123412
0.106546
0.0928923
0.0817975
0.0735337
12.9054
8.33993
5.07879
3.15547
2.02775
1.35121
0.933542
0.666464
0.489554
0.368606
0.283618
0.222404
0.177348
0.143549
0.117759
0.0977915
0.0821091
0.0696443
0.0596159
0.0513624
11.6229
7.60535
5.01031
3.34209
2.26848
1.57142
1.11236
0.804589
0.594206
0.44752
0.343214
0.267637
0.211903
0.170122
0.138323
0.113786
0.0946036
0.0794305
0.0672997
0.0575614
11.4933
7.5119
5.02843
3.434
2.3892
1.6928
1.22111
0.896487
0.669456
0.508122
0.391656
0.306285
0.242784
0.194886
0.158279
0.129952
0.107776
0.0902254
0.0761875
0.064808
11.4757
7.50136
5.04297
3.47002
2.43665
1.74299
1.26863
0.938712
0.705583
0.538335
0.416593
0.326728
0.259498
0.208556
0.169484
0.139167
0.115387
0.0965403
0.0814421
0.0691208
11.4757
7.50136
5.04297
3.47002
2.43665
1.74299
1.26863
0.938712
0.705584
0.538336
0.416594
0.326728
0.259499
0.208557
0.169483
0.139167
0.115388
0.0965414
0.0814421
0.0691033
11.4933
7.5119
5.02843
3.434
2.3892
1.6928
1.22111
0.896486
0.669456
0.508122
0.391656
0.306285
0.242784
0.194886
0.158279
0.129952
0.107776
0.0902263
0.0761889
0.0648095
11.6229
7.60535
5.0103
3.34209
2.26848
1.57142
1.11236
0.804587
0.594203
0.447515
0.343208
0.267631
0.211897
0.170117
0.138318
0.113775
0.0945885
0.0794119
0.0672758
0.0574949
12.9054
8.33993
5.07879
3.15547
2.02774
1.3512
0.933536
0.666457
0.489543
0.368592
0.283601
0.222383
0.177323
0.143526
0.117733
0.0977496
0.0820553
0.0695812
0.0595493
0.0513667
38.7028
13.0541
5.74336
3.08733
1.88066
1.2275
0.869471
0.645375
0.49258
0.384766
0.307002
0.249015
0.204936
0.170927
0.144317
0.123214
0.10626
0.0924706
0.0812016
0.0729021
36.0571
12.8529
5.76645
3.10211
1.89476
1.22669
0.866501
0.643984
0.492252
0.383967
0.3058
0.247926
0.20393
0.169965
0.143363
0.122239
0.105253
0.0914275
0.0801347
0.0717423
12.6882
8.1544
5.07113
3.20038
2.07939
1.39506
0.967834
0.692726
0.509643
0.384023
0.295512
0.231658
0.184605
0.149276
0.122305
0.101405
0.0849907
0.0719419
0.0614586
0.0530047
11.5726
7.56718
5.02065
3.38344
2.32103
1.62326
1.15828
0.843157
0.625692
0.472851
0.363486
0.283856
0.224909
0.180591
0.14679
0.120667
0.100226
0.0840466
0.0711063
0.0606455
11.4757
7.50136
5.04297
3.47002
2.43665
1.74299
1.26863
0.938712
0.705584
0.538336
0.416594
0.326729
0.259499
0.208557
0.169483
0.139168
0.115388
0.0965418
0.0814425
0.0691042
11.4647
7.49683
5.0577
3.50272
2.48038
1.79068
1.31522
0.981305
0.742925
0.57021
0.44335
0.348968
0.277888
0.223735
0.182018
0.149543
0.124005
0.103725
0.0874412
0.0740569
11.4647
7.49683
5.0577
3.50272
2.48038
1.79068
1.31522
0.981305
0.742924
0.57021
0.44335
0.348968
0.277888
0.223735
0.182018
0.149543
0.124005
0.103725
0.0874413
0.0740563
11.4757
7.50136
5.04297
3.47002
2.43665
1.74299
1.26863
0.938712
0.705583
0.538335
0.416593
0.326728
0.259499
0.208556
0.169483
0.139167
0.115387
0.096541
0.0814431
0.0691208
11.5726
7.56718
5.02065
3.38344
2.32103
1.62326
1.15828
0.843156
0.62569
0.472848
0.363483
0.283852
0.224905
0.180589
0.146786
0.12066
0.100216
0.0840354
0.0710927
0.0606113
12.6882
8.1544
5.07113
3.20038
2.07939
1.39506
0.967831
0.692723
0.509637
0.384016
0.295503
0.231647
0.184593
0.149268
0.122289
0.101383
0.0849622
0.0719086
0.0614244
0.0529672
36.0571
12.8529
5.76645
3.10211
1.89475
1.22669
0.866496
0.643978
0.492244
0.383956
0.305784
0.247905
0.203901
0.16992
0.143294
0.122142
0.105113
0.0912222
0.0798119
0.0710653
36.0571
12.8529
5.76645
3.10211
1.89475
1.22669
0.866496
0.643978
0.492244
0.383956
0.305785
0.247905
0.2039
0.16992
0.143294
0.122142
0.105112
0.0912206
0.0798092
0.071061
12.6882
8.1544
5.07113
3.20038
2.07939
1.39506
0.967831
0.692723
0.509638
0.384016
0.295504
0.231648
0.184592
0.149263
0.122295
0.101386
0.0849651
0.0719118
0.0614281
0.0529715
11.5726
7.56718
5.02065
3.38344
2.32103
1.62326
1.15828
0.843156
0.62569
0.472848
0.363483
0.283852
0.224904
0.180587
0.146789
0.120662
0.100217
0.084036
0.0710934
0.0606108
11.4757
7.50136
5.04297
3.47002
2.43665
1.74299
1.26863
0.938712
0.705584
0.538335
0.416593
0.326728
0.259498
0.208556
0.169484
0.139167
0.115387
0.0965409
0.0814432
0.0691218
11.4647
7.49683
5.0577
3.50272
2.48038
1.79068
1.31522
0.981305
0.742925
0.57021
0.44335
0.348968
0.277888
0.223735
0.182018
0.149543
0.124005
0.103725
0.0874411
0.0740566
11.4647
7.49683
5.0577
3.50272
2.48038
1.79068
1.31522
0.981305
0.742924
0.57021
0.44335
0.348968
0.277888
0.223735
0.182018
0.149543
0.124005
0.103725
0.0874411
0.0740554
11.4757
7.50136
5.04297
3.47002
2.43665
1.74299
1.26863
0.938712
0.705584
0.538336
0.416594
0.326728
0.259499
0.208556
0.169484
0.139167
0.115388
0.0965414
0.0814421
0.0691026
11.5726
7.56718
5.02065
3.38344
2.32103
1.62326
1.15828
0.843156
0.625692
0.472851
0.363486
0.283855
0.224907
0.18059
0.146791
0.120667
0.100225
0.0840449
0.0711041
0.0606428
12.6882
8.1544
5.07113
3.20038
2.07939
1.39506
0.967834
0.692726
0.509643
0.384023
0.295511
0.231657
0.184603
0.149276
0.122305
0.101404
0.0849886
0.0719386
0.0614545
0.0529998
36.0571
12.8529
5.76645
3.10211
1.89476
1.22669
0.866501
0.643984
0.492252
0.383967
0.3058
0.247926
0.203933
0.169968
0.14336
0.122237
0.105251
0.0914269
0.0801351
0.0717456
38.7028
13.0541
5.74336
3.08733
1.88066
1.2275
0.869471
0.645375
0.492581
0.384766
0.307003
0.249016
0.204938
0.17093
0.144315
0.123212
0.106258
0.0924683
0.0811984
0.0728979
12.9054
8.33993
5.07879
3.15547
2.02774
1.3512
0.933535
0.666457
0.489543
0.368592
0.2836
0.222382
0.177321
0.14352
0.11774
0.0977525
0.0820564
0.0695814
0.0595495
0.0513662
11.6229
7.60535
5.0103
3.34209
2.26848
1.57142
1.11236
0.804587
0.594203
0.447515
0.343208
0.26763
0.211895
0.170115
0.138321
0.113776
0.0945877
0.0794101
0.0672734
0.0574902
11.4933
7.5119
5.02843
3.434
2.3892
1.6928
1.22111
0.896487
0.669456
0.508122
0.391656
0.306285
0.242783
0.194886
0.158279
0.129952
0.107775
0.0902248
0.0761867
0.0648065
11.4757
7.50136
5.04297
3.47002
2.43665
1.74299
1.26863
0.938712
0.705584
0.538336
0.416594
0.326728
0.259499
0.208557
0.169483
0.139167
0.115388
0.0965411
0.0814415
0.0691022
11.4757
7.50136
5.04297
3.47002
2.43665
1.74299
1.26863
0.938712
0.705583
0.538335
0.416593
0.326728
0.259499
0.208557
0.169483
0.139167
0.115387
0.0965409
0.0814431
0.0691201
11.4933
7.5119
5.02843
3.434
2.3892
1.6928
1.22111
0.896487
0.669456
0.508122
0.391656
0.306285
0.242784
0.194886
0.158279
0.129952
0.107776
0.0902256
0.076188
0.0648079
11.6229
7.60535
5.0103
3.34209
2.26848
1.57142
1.11236
0.804589
0.594206
0.44752
0.343214
0.267637
0.211901
0.17012
0.138326
0.113787
0.0946029
0.0794291
0.0672976
0.0575588
12.9054
8.33993
5.07879
3.15547
2.02775
1.35121
0.933542
0.666465
0.489554
0.368606
0.283618
0.222403
0.177345
0.143542
0.117766
0.0977936
0.0821091
0.0696431
0.0596139
0.0513597
38.7028
13.0541
5.74336
3.08733
1.88066
1.2275
0.869481
0.645389
0.492598
0.384788
0.307036
0.249061
0.205003
0.171028
0.144455
0.123409
0.106543
0.0928901
0.081796
0.0735362
45.0226
13.4729
5.73075
3.07323
1.86023
1.22699
0.873574
0.649775
0.497008
0.389471
0.311279
0.252963
0.208962
0.175189
0.148784
0.127845
0.111081
0.0975329
0.0865657
0.0781025
13.6679
8.73671
5.07741
3.05388
1.92223
1.26609
0.869287
0.618629
0.453957
0.342031
0.263646
0.207307
0.165896
0.134838
0.111132
0.0926681
0.0781362
0.0666006
0.0571701
0.0497556
11.8601
7.76395
4.99734
3.24076
2.14419
1.45499
1.0141
0.725634
0.532155
0.399149
0.305545
0.238221
0.188823
0.151912
0.123869
0.102234
0.0853148
0.0719229
0.0611793
0.052605
11.6229
7.60535
5.0103
3.34209
2.26848
1.57142
1.11236
0.804588
0.594206
0.447519
0.343213
0.267637
0.211902
0.170121
0.138322
0.113785
0.0946017
0.0794279
0.0672961
0.0575571
11.5726
7.56718
5.02065
3.38344
2.32103
1.62326
1.15828
0.843156
0.625692
0.472851
0.363486
0.283856
0.224908
0.180591
0.14679
0.120666
0.100224
0.0840452
0.0711046
0.0606436
11.5726
7.56718
5.02065
3.38344
2.32103
1.62326
1.15828
0.843155
0.62569
0.472848
0.363483
0.283852
0.224904
0.180588
0.146789
0.120661
0.100217
0.0840362
0.0710938
0.0606109
11.6229
7.60535
5.0103
3.34209
2.26848
1.57142
1.11236
0.804587
0.594202
0.447515
0.343208
0.267631
0.211897
0.170118
0.138318
0.113775
0.094588
0.0794112
0.0672751
0.0574932
11.8601
7.76395
4.99734
3.24076
2.14419
1.45499
1.0141
0.725634
0.532155
0.399149
0.305545
0.238221
0.188824
0.151912
0.12387
0.102235
0.0853162
0.0719249
0.0611825
0.0526108
13.6679
8.73671
5.07741
3.05388
1.92224
1.2661
0.869291
0.618635
0.453965
0.342042
0.26366
0.207324
0.165916
0.134855
0.111157
0.0927037
0.0781789
0.0666462
0.0571936
0.0501791
45.0226
13.4729
5.73075
3.07323
1.86023
1.227
0.873582
0.649787
0.497024
0.389498
0.311314
0.25301
0.209028
0.175288
0.14893
0.128051
0.111379
0.097976
0.0872267
0.079061
58.5856
14.5696
6.08947
3.33296
2.08218
1.40267
0.998658
0.740293
0.565913
0.443935
0.356034
0.290945
0.241435
0.203013
0.173132
0.149881
0.131461
0.116808
0.105799
0.0985888
16.5373
9.49239
5.0127
2.8606
1.75746
1.14759
0.786931
0.562048
0.415366
0.315946
0.24633
0.196219
0.159215
0.131244
0.109752
0.0931725
0.0801226
0.0696324
0.0606152
0.0562454
13.6679
8.73671
5.07741
3.05388
1.92224
1.2661
0.869292
0.618633
0.453965
0.342042
0.26366
0.207324
0.165917
0.134863
0.111149
0.0927003
0.0781776
0.0666466
0.0571894
0.0501837
12.9054
8.33993
5.07879
3.15547
2.02775
1.35121
0.933542
0.666464
0.489554
0.368606
0.283618
0.222404
0.177348
0.143549
0.117758
0.0977912
0.0821089
0.0696442
0.0596157
0.0513625
12.6882
8.1544
5.07113
3.20038
2.07939
1.39506
0.967835
0.692726
0.509643
0.384023
0.295512
0.231658
0.184605
0.149277
0.122305
0.101405
0.0849909
0.0719421
0.061459
0.0530049
12.6882
8.1544
5.07113
3.20038
2.07939
1.39506
0.967832
0.692722
0.509637
0.384016
0.295504
0.231648
0.184593
0.149264
0.122295
0.101386
0.0849652
0.0719117
0.061428
0.0529709
12.9054
8.33993
5.07879
3.15547
2.02774
1.3512
0.933536
0.666456
0.489543
0.368592
0.2836
0.222382
0.177323
0.143527
0.117734
0.0977497
0.082055
0.0695806
0.0595488
0.0513656
13.6679
8.73671
5.07741
3.05388
1.92223
1.26609
0.869287
0.618628
0.453957
0.342031
0.263646
0.207307
0.165896
0.134841
0.111129
0.0926664
0.0781355
0.0666003
0.0571698
0.049755
16.5373
9.49239
5.0127
2.8606
1.75746
1.14759
0.78693
0.562048
0.415366
0.315946
0.24633
0.19622
0.159216
0.131236
0.109759
0.0931758
0.0801247
0.0696341
0.0606168
0.0562453
58.5856
14.5696
6.08947
3.33296
2.08218
1.40268
0.99866
0.740296
0.565917
0.443945
0.356049
0.290969
0.241471
0.20309
0.173239
0.150032
0.1317
0.117219
0.106527
0.0995442
90.5034
12.1248
4.3887
2.46659
1.63316
1.18308
0.902023
0.720675
0.594604
0.502527
0.432712
0.379335
0.33639
0.300018
0.270416
0.2465
0.227114
0.211816
0.203026
0.194779
58.5856
14.5696
6.08947
3.33296
2.08218
1.40268
0.998661
0.740296
0.565918
0.443946
0.35605
0.29097
0.241473
0.20309
0.173241
0.150036
0.131705
0.117225
0.106535
0.0995541
45.0226
13.4729
5.73075
3.07323
1.86023
1.227
0.873582
0.649788
0.497025
0.389499
0.311315
0.253011
0.209028
0.175286
0.148934
0.128055
0.111383
0.0979805
0.0872328
0.0790715
38.7028
13.0541
5.74336
3.08733
1.88066
1.2275
0.86948
0.645389
0.492598
0.384788
0.307036
0.249061
0.205001
0.171024
0.144459
0.123413
0.106547
0.0928928
0.0817978
0.0735335
36.0571
12.8529
5.76645
3.10211
1.89476
1.22669
0.8665
0.643984
0.492252
0.383967
0.3058
0.247926
0.20393
0.169965
0.143363
0.122239
0.105252
0.0914268
0.0801336
0.0717397
36.0571
12.8529
5.76645
3.10211
1.89475
1.22669
0.866496
0.643978
0.492244
0.383956
0.305785
0.247905
0.2039
0.169919
0.143294
0.122141
0.105112
0.0912199
0.0798079
0.0710574
38.7028
13.0541
5.74336
3.08733
1.88066
1.2275
0.86947
0.645376
0.492581
0.384766
0.307003
0.249016
0.204936
0.170927
0.144317
0.123213
0.106259
0.0924694
0.0811993
0.0728986
45.0226
13.4729
5.73075
3.07323
1.86023
1.22699
0.873573
0.649775
0.497009
0.389471
0.311279
0.252962
0.20896
0.175186
0.148787
0.127848
0.111083
0.0975353
0.0865682
0.0781045
58.5856
14.5696
6.08947
3.33296
2.08218
1.40267
0.998657
0.740293
0.565913
0.443935
0.356034
0.290944
0.241435
0.203009
0.173133
0.149882
0.131461
0.116808
0.105799
0.0985882
90.5034
12.1248
4.3887
2.46659
1.63316
1.18308
0.902022
0.720675
0.594605
0.502527
0.432712
0.379333
0.336393
0.300014
0.270417
0.246499
0.227112
0.211814
0.203024
0.194773
0.384691
0.302064
0.237571
0.202212
0.181934
0.169336
0.160101
0.152398
0.146045
0.140643
0.136101
0.13202
0.128196
0.124543
0.121065
0.117957
0.114932
0.112163
0.109499
0.107014
0.104628
0.102322
0.100181
0.0981898
0.0962397
0.0943842
0.0925881
0.0908654
0.0891745
0.0875845
0.0860173
0.084524
0.0830931
0.0816925
0.0804153
0.0791307
0.0779592
0.0768066
0.075851
0.0741373
0.140562
0.115937
0.0972659
0.0849059
0.07666
0.0708231
0.0663155
0.062472
0.0592926
0.056577
0.0541816
0.0520652
0.0502509
0.0484804
0.0467932
0.045297
0.0438944
0.0426325
0.041454
0.0403532
0.0393198
0.0383323
0.0374176
0.0365823
0.0357941
0.0350467
0.0343287
0.0336364
0.0329684
0.0323244
0.0317045
0.0311056
0.0305289
0.0299827
0.0294553
0.0289612
0.0284818
0.0280216
0.0275941
0.0271119
0.0937375
0.0804518
0.0703757
0.0629801
0.0571494
0.0527196
0.0490166
0.0459199
0.0432597
0.0409528
0.038942
0.0371776
0.0357211
0.0342133
0.0328548
0.0316716
0.0305741
0.0296131
0.0286921
0.0278221
0.0270176
0.0261995
0.0254541
0.0247828
0.0241761
0.0236034
0.0230521
0.0225237
0.0220189
0.0215318
0.0210658
0.0206208
0.020194
0.0197881
0.0193956
0.019034
0.0186825
0.0183445
0.0180212
0.0176846
0.0720317
0.0647949
0.0586346
0.0534082
0.048975
0.0451886
0.0419319
0.0391159
0.036664
0.0345146
0.032618
0.0309429
0.0294926
0.0281434
0.0269176
0.0258115
0.0247992
0.0239374
0.0230298
0.0221824
0.0214418
0.0207567
0.0201093
0.0194994
0.0189331
0.0184028
0.0179115
0.0174426
0.0170084
0.0165885
0.0161855
0.0158006
0.015431
0.0150956
0.0147704
0.0144684
0.0141723
0.0138971
0.0136328
0.0133662
0.0693152
0.0606141
0.0541251
0.0489754
0.0447518
0.0412266
0.0382337
0.0356462
0.0333743
0.0313658
0.0295812
0.0279938
0.0265912
0.0252917
0.024118
0.0230566
0.0221046
0.0212277
0.0204226
0.0196828
0.0190111
0.0183844
0.0177391
0.0171547
0.0166187
0.0161208
0.0156583
0.0152231
0.0148239
0.0144398
0.0140753
0.0137243
0.013396
0.0130921
0.0127894
0.0125084
0.01224
0.0119921
0.0117606
0.0115431
0.0706325
0.0600246
0.0529652
0.0475909
0.0432764
0.0397251
0.0367467
0.0342115
0.0319954
0.0300307
0.028282
0.0267228
0.0253335
0.0240683
0.0229275
0.0218944
0.0209553
0.0200988
0.0193203
0.0186131
0.017962
0.017363
0.0168001
0.0163066
0.015774
0.0152584
0.0147927
0.0143688
0.0139904
0.0136271
0.0132912
0.0129798
0.0126559
0.0123742
0.0120406
0.011803
0.0115294
0.0113117
0.0110963
0.0108925
0.0714383
0.060167
0.0531583
0.047854
0.0435642
0.0400099
0.0370183
0.0344553
0.032206
0.0302171
0.0284545
0.0268903
0.0254995
0.0242375
0.0230994
0.0220687
0.0211323
0.0202812
0.0195059
0.0188022
0.0181626
0.0175749
0.0170112
0.0165115
0.0159897
0.0154816
0.0150242
0.0146101
0.0142334
0.0138659
0.0135217
0.0132025
0.0128724
0.0125828
0.0122848
0.0120345
0.011786
0.0115537
0.011329
0.0111158
0.0703327
0.0623277
0.0557722
0.0504149
0.0459747
0.042293
0.0391821
0.0364982
0.0341629
0.0321159
0.0303088
0.0287149
0.0273009
0.0260159
0.0248592
0.0238081
0.0228552
0.0219998
0.0212178
0.0204972
0.0198365
0.0192252
0.0185955
0.0180519
0.0175291
0.0170464
0.0165853
0.0161594
0.0157458
0.0153321
0.0149475
0.0146001
0.0142872
0.0139843
0.0136912
0.0134077
0.0131277
0.0128642
0.0126155
0.0123789
0.0848117
0.0734061
0.0646278
0.0577252
0.0523245
0.0480839
0.0446925
0.041849
0.0394159
0.0373001
0.0354385
0.0338413
0.032382
0.031046
0.0298783
0.0286796
0.0276029
0.026624
0.0257642
0.0249415
0.0241924
0.0234865
0.0228076
0.0221999
0.0215997
0.0210442
0.0205188
0.0200299
0.019565
0.0191307
0.0187205
0.0183326
0.0179603
0.0176067
0.0172689
0.0169449
0.0166155
0.0163075
0.0160298
0.0157524
0.135343
0.112309
0.0927944
0.0799186
0.0714937
0.065854
0.061705
0.0582636
0.0554798
0.053067
0.0509068
0.0491758
0.0472592
0.0454974
0.0438872
0.042399
0.0410147
0.0397375
0.0385546
0.0374584
0.0364353
0.0354891
0.0346201
0.0338402
0.0330794
0.032359
0.0316667
0.0310084
0.0303772
0.0297805
0.0292063
0.0286552
0.028127
0.0276233
0.0271334
0.0266928
0.0262672
0.0258623
0.0254934
0.0250779
0.384675
0.302033
0.237512
0.202038
0.18139
0.168546
0.159323
0.151781
0.145614
0.140479
0.135955
0.132072
0.128176
0.124506
0.12106
0.117912
0.114914
0.112123
0.109471
0.107003
0.104605
0.102337
0.100185
0.0982343
0.0962832
0.0944532
0.0926555
0.090932
0.0892319
0.0876209
0.0860449
0.0845445
0.0830964
0.0816874
0.0803474
0.0790986
0.0779776
0.0768108
0.0758417
0.074079
0.135333
0.112326
0.0928459
0.0799309
0.0716613
0.0662471
0.0621169
0.0585741
0.0556952
0.0531527
0.0509892
0.0491553
0.0472334
0.0455026
0.0438897
0.0424308
0.0410264
0.0397674
0.0385756
0.0374791
0.0364568
0.0354998
0.0346257
0.0338338
0.0330669
0.0323394
0.0316451
0.0309877
0.0303594
0.0297708
0.0292015
0.0286543
0.0281286
0.0276327
0.0271754
0.0267219
0.0262793
0.0258654
0.0255006
0.025094
0.0642674
0.0533093
0.046794
0.0413438
0.0368999
0.0337503
0.0314989
0.0293856
0.0275109
0.0258831
0.0244908
0.0232102
0.0221123
0.0210052
0.0201896
0.0191986
0.0184596
0.0176468
0.0169788
0.0163328
0.0157266
0.0151651
0.0146202
0.0141466
0.0137397
0.0133581
0.0130085
0.0126391
0.0123755
0.0119722
0.0117141
0.0114756
0.0112151
0.0110404
0.0106158
0.0104935
0.0103386
0.0101655
0.0100118
0.00983565
0.054364
0.0432676
0.0374319
0.0325944
0.0293882
0.0266915
0.024422
0.0224825
0.0208242
0.0193851
0.0181478
0.0168926
0.0161059
0.0149363
0.0143285
0.0134173
0.0129244
0.0121973
0.0117729
0.0112079
0.0107632
0.0104064
0.0099047
0.00964021
0.00922134
0.00896602
0.00867894
0.00836011
0.00815083
0.00787173
0.00767819
0.00746896
0.0073129
0.00706474
0.00688449
0.00671079
0.00660362
0.00640997
0.00626019
0.00603088
0.0499064
0.0418847
0.0360659
0.0314336
0.0278179
0.024938
0.0226878
0.0207356
0.0190446
0.017571
0.0162799
0.015133
0.0141061
0.013221
0.0124316
0.0117189
0.0110919
0.0105288
0.00998838
0.00957123
0.00903409
0.00872638
0.0082379
0.00803136
0.00761863
0.00741182
0.00707705
0.00690057
0.00662244
0.00646886
0.00624473
0.00606274
0.00594199
0.00570805
0.00557819
0.00548812
0.00538234
0.00519478
0.00508023
0.00485501
0.0459722
0.0403568
0.0354839
0.0313522
0.0278729
0.0247595
0.0221365
0.020057
0.0184004
0.0169258
0.015619
0.014458
0.0134212
0.0125153
0.011709
0.0109883
0.0103426
0.00976247
0.00923861
0.00876556
0.00833635
0.00794707
0.00759788
0.00727261
0.00698546
0.00669001
0.00645136
0.00618645
0.0059775
0.00579924
0.00562519
0.00542967
0.00531752
0.00510346
0.00498619
0.00491434
0.0048028
0.00464788
0.00452687
0.00432664
0.0457488
0.0402095
0.0353823
0.0312651
0.0277755
0.0247853
0.0221316
0.0197782
0.0180302
0.0166143
0.0153268
0.0141702
0.0131412
0.0122198
0.0114025
0.0106747
0.0100242
0.00944094
0.00891665
0.00844407
0.00801743
0.00763181
0.00728856
0.00698146
0.00667862
0.00639963
0.00615184
0.0059076
0.00570066
0.00551826
0.00533738
0.00518493
0.00504472
0.00487974
0.00474715
0.00466837
0.00454586
0.00442651
0.00424745
0.00410097
0.0461755
0.0403467
0.0353571
0.0311308
0.0275832
0.0245392
0.0218289
0.0195763
0.0179352
0.0165133
0.0152314
0.0140849
0.0130657
0.0121674
0.0113668
0.0106509
0.0100093
0.00943303
0.0089134
0.00844495
0.00802122
0.00763783
0.00729573
0.00698671
0.00669893
0.00641611
0.00618756
0.00589382
0.00571211
0.00546242
0.0053223
0.00517711
0.00503536
0.00484144
0.00470907
0.00462682
0.00450471
0.00437898
0.00421991
0.00405945
0.0454597
0.0400694
0.0350329
0.0307412
0.0272221
0.0240246
0.021646
0.0198586
0.0182582
0.016842
0.0155905
0.0144756
0.0134872
0.0126303
0.0118581
0.0111599
0.0105246
0.00995484
0.00942581
0.00895686
0.0085252
0.00813611
0.00780661
0.00740443
0.00716837
0.00679646
0.00661322
0.0062949
0.0061179
0.0058413
0.00570723
0.00554595
0.00540566
0.00515379
0.00501323
0.00486204
0.00476294
0.00463941
0.00449085
0.00430393
0.0508035
0.0417226
0.0364471
0.0314569
0.0280514
0.025559
0.0234001
0.0215453
0.019921
0.0185063
0.0172619
0.0161552
0.0151991
0.014325
0.0135347
0.0128539
0.0121045
0.0116113
0.0108997
0.0105189
0.00994127
0.00961386
0.00910747
0.00881794
0.00849227
0.00812897
0.00792486
0.0075758
0.00739602
0.00706816
0.00690283
0.0067129
0.00655314
0.00629732
0.00613734
0.00599854
0.00576905
0.00565703
0.00549935
0.00533019
0.0641935
0.053362
0.0467729
0.0415562
0.0372636
0.0340672
0.0314018
0.0292911
0.0273327
0.025735
0.0243542
0.0230529
0.0220617
0.0209799
0.0201084
0.019184
0.0183889
0.0176187
0.0169471
0.0163052
0.0157258
0.0151387
0.0146442
0.0141249
0.0137515
0.0133402
0.0130212
0.0126406
0.0123745
0.0119717
0.0117095
0.0114686
0.011221
0.0109722
0.0107305
0.0106117
0.0101856
0.0100951
0.00996412
0.00979159
0.140545
0.115867
0.0972883
0.084741
0.0762189
0.0703525
0.0658825
0.0621502
0.0590548
0.0564686
0.0540397
0.0520918
0.050234
0.0484611
0.0467769
0.0452701
0.0438699
0.0426101
0.041426
0.04034
0.0393001
0.038329
0.0374175
0.0365978
0.0358158
0.0350756
0.0343607
0.0336686
0.0329989
0.0323485
0.0317249
0.0311234
0.0305448
0.0299927
0.0294612
0.0289637
0.028489
0.0280347
0.0276033
0.0271134
0.0848102
0.0734485
0.0646692
0.0575594
0.0522902
0.0481478
0.0447861
0.0419268
0.0394736
0.0373389
0.0354678
0.033835
0.0323872
0.0310551
0.0298811
0.0286889
0.0275868
0.0266372
0.0257589
0.0249464
0.0241982
0.0234829
0.0228101
0.0221914
0.0215907
0.0210332
0.0205076
0.020019
0.0195557
0.0191258
0.0187191
0.0183338
0.0179642
0.0176127
0.0172781
0.0169553
0.0166344
0.0163298
0.016051
0.0157755
0.0507893
0.0418735
0.0366667
0.0313335
0.0280422
0.0255784
0.0234433
0.021592
0.0199711
0.0185539
0.0173238
0.016194
0.0152507
0.0143105
0.0136283
0.0127798
0.0122516
0.0114611
0.0110374
0.0104234
0.00999277
0.0096488
0.00911905
0.00886408
0.0084332
0.00815479
0.00793105
0.00758189
0.007401
0.00706955
0.00690849
0.00671933
0.00656299
0.00631225
0.00616504
0.00593912
0.00581721
0.00566299
0.00550759
0.00535754
0.0457519
0.0395513
0.034445
0.0300837
0.0265606
0.0236697
0.021255
0.0192162
0.0174765
0.015977
0.014678
0.013542
0.0125223
0.011627
0.0108522
0.0101146
0.00948298
0.00882954
0.00836152
0.00793383
0.00753895
0.00718102
0.00678394
0.00650158
0.00618079
0.00587395
0.00567131
0.00539346
0.00521258
0.00500535
0.00486682
0.00470594
0.004591
0.00437906
0.00426111
0.0041973
0.00411053
0.00394406
0.00384659
0.00364477
0.0477987
0.0414094
0.0360657
0.0315865
0.0278396
0.0246975
0.0220544
0.0198058
0.0178793
0.0162179
0.0147771
0.0135207
0.0124111
0.0114401
0.0105795
0.00981414
0.00913085
0.00851191
0.00796034
0.00747232
0.00702538
0.00663868
0.00620258
0.00587048
0.00561421
0.00538048
0.00512368
0.0049203
0.00469436
0.00452085
0.00434081
0.00421813
0.00411127
0.00392891
0.0038112
0.00377584
0.00366827
0.00355818
0.00344379
0.00330586
0.0500841
0.0432591
0.0376371
0.0329589
0.0290346
0.0257079
0.0228806
0.0204742
0.0184249
0.0166595
0.0151283
0.0137926
0.01262
0.0115924
0.010684
0.00987814
0.00916066
0.00851897
0.00794381
0.00742691
0.00696068
0.00654521
0.00614586
0.00581821
0.00550531
0.00521579
0.00490476
0.00469764
0.0045326
0.00439203
0.00423233
0.00408516
0.00394858
0.00382732
0.00370733
0.00367444
0.00356079
0.00344639
0.00333292
0.00322414
0.0503283
0.0437272
0.0381488
0.0334419
0.0294637
0.0260841
0.0231958
0.0207182
0.0186066
0.0167994
0.0152368
0.0138754
0.0126809
0.0116358
0.0107122
0.0098933
0.00916437
0.00851284
0.00792963
0.00740656
0.00693567
0.00651454
0.00611829
0.0057924
0.00547566
0.00518162
0.00491742
0.00466712
0.00442807
0.00433109
0.00418108
0.00403983
0.00390558
0.00378694
0.00367067
0.00364891
0.00353294
0.00341732
0.00330164
0.00318887
0.049362
0.0429535
0.0375097
0.0328894
0.0289701
0.025636
0.0227906
0.020363
0.0182976
0.0165259
0.0149964
0.0136673
0.0124975
0.0114813
0.0105824
0.00978423
0.00907411
0.00843829
0.00786872
0.00735722
0.00689655
0.00648238
0.0060944
0.00576839
0.00545152
0.00516587
0.0049088
0.00463407
0.00446034
0.00432812