/*--------------------------------*- C++ -*----------------------------------*\
| =========                 |                                                 |
| \\      /  F ield         | OpenFOAM: The Open Source CFD Toolbox           |
|  \\    /   O peration     | Version:  2212                                  |
|   \\  /    A nd           | Website:  www.openfoam.com                      |
|    \\/     M anipulation  |                                                 |
\*---------------------------------------------------------------------------*/
FoamFile
{
    version     2.0;
    format      ascii;
    arch        "LSB;label=32;scalar=64";
    class       volScalarField;
    location    "2.3";
    object      k;
}
// * * * * * * * * * * * * * * * * * * * * * * * * * * * * * * * * * * * * * //

dimensions      [0 2 -2 0 0 0 0];

internalField   nonuniform List<scalar> 
6840
(
0.213564
0.055916
0.0283994
0.0193412
0.0146928
0.0118511
0.00989078
0.00851619
0.00749154
0.00669668
0.00606112
0.00555184
0.00512452
0.00474817
0.00443058
0.00416544
0.0039441
0.00376514
0.00365959
0.00356377
0.264759
0.104702
0.0585298
0.0391631
0.02862
0.0219936
0.0175362
0.0143635
0.0120086
0.0102142
0.00881702
0.00770674
0.00680563
0.00606306
0.00545264
0.00495306
0.00453881
0.00419564
0.00392879
0.00375196
0.283364
0.126774
0.071702
0.0473282
0.0338663
0.0256617
0.0204608
0.016797
0.0140486
0.011941
0.010284
0.00895572
0.00788457
0.00701043
0.00628717
0.00568277
0.00517484
0.00474565
0.00438369
0.00409205
0.292299
0.141633
0.0819301
0.0541654
0.038923
0.0292874
0.0232722
0.0190784
0.0159338
0.0135145
0.011626
0.0101116
0.00888017
0.00786845
0.00702896
0.00632604
0.00573186
0.00522506
0.00479202
0.00445937
0.295943
0.148782
0.0871941
0.0576749
0.0415193
0.0310721
0.0246448
0.0202207
0.0169045
0.0143242
0.0123072
0.0107005
0.00939346
0.00831844
0.00742499
0.006675
0.00603914
0.00549456
0.00502641
0.00465525
0.295943
0.148782
0.0871941
0.0576749
0.0415193
0.0310721
0.0246449
0.0202208
0.0169046
0.0143244
0.0123075
0.010701
0.00939423
0.00831972
0.00742703
0.006678
0.00604365
0.00550146
0.00503748
0.004677
0.292299
0.141633
0.0819301
0.0541654
0.0389231
0.0292874
0.0232723
0.0190786
0.0159341
0.0135149
0.0116267
0.0101126
0.00888172
0.00787098
0.00703283
0.00633173
0.00574046
0.00523834
0.00481174
0.00448253
0.283364
0.126774
0.071702
0.0473282
0.0338663
0.0256617
0.0204609
0.0167972
0.0140489
0.0119415
0.0102846
0.00895664
0.00788596
0.00701264
0.00629063
0.00568787
0.00518253
0.00475759
0.00440261
0.00412519
0.264759
0.104702
0.0585298
0.0391631
0.02862
0.0219936
0.0175362
0.0143635
0.0120086
0.0102144
0.00881722
0.00770708
0.00680617
0.00606435
0.00545451
0.00495579
0.00454327
0.00420355
0.00394334
0.00376971
0.213564
0.055916
0.0283994
0.0193412
0.0146928
0.0118511
0.00989078
0.00851618
0.00749154
0.00669667
0.00606112
0.00555181
0.00512453
0.00474813
0.00443057
0.0041654
0.00394404
0.00376505
0.00365948
0.00356368
0.264759
0.104702
0.0585298
0.0391631
0.02862
0.0219936
0.0175362
0.0143635
0.0120086
0.0102144
0.00881724
0.00770709
0.00680621
0.00606432
0.00545455
0.00495587
0.00454338
0.00420367
0.00394351
0.00376987
0.311746
0.197541
0.130357
0.0911458
0.0668024
0.0508112
0.0397946
0.0319124
0.0260947
0.0216879
0.0182774
0.0155897
0.0134426
0.0117004
0.0102706
0.00908457
0.00809177
0.00725491
0.00655786
0.00588319
0.31754
0.217754
0.151085
0.108549
0.0807156
0.0618726
0.0486773
0.0391416
0.0320585
0.0266713
0.0224897
0.0191867
0.0165381
0.0143854
0.0126152
0.0111461
0.00991561
0.00887602
0.0079934
0.0072366
0.319723
0.227073
0.162232
0.118772
0.089361
0.0689926
0.0545303
0.043984
0.0360992
0.0300739
0.025381
0.0216635
0.0186753
0.0162417
0.0142367
0.0125679
0.0111654
0.00997631
0.00895931
0.00807811
0.320484
0.23086
0.167176
0.123531
0.0935157
0.0724823
0.0574403
0.0464207
0.038153
0.0318161
0.0268693
0.0229444
0.0197847
0.0172082
0.0150828
0.0133113
0.0118202
0.0105533
0.00946684
0.00851984
0.320484
0.23086
0.167176
0.123531
0.0935158
0.0724823
0.0574404
0.0464209
0.0381533
0.0318165
0.0268699
0.0229452
0.0197859
0.0172101
0.0150857
0.0133153
0.0118258
0.0105612
0.00947783
0.00853911
0.319723
0.227073
0.162232
0.118772
0.0893611
0.0689928
0.0545306
0.0439844
0.0360997
0.0300747
0.025382
0.0216651
0.0186776
0.0162454
0.0142421
0.0125755
0.0111764
0.00999205
0.00898167
0.00812067
0.31754
0.217754
0.151086
0.108549
0.0807157
0.0618727
0.0486775
0.0391419
0.0320589
0.0266718
0.0224905
0.0191878
0.0165397
0.0143881
0.0126192
0.0111515
0.00992342
0.00888765
0.00801171
0.00726084
0.311746
0.197541
0.130357
0.0911457
0.0668024
0.0508112
0.0397946
0.0319124
0.0260946
0.0216879
0.0182774
0.0155896
0.0134425
0.0117004
0.0102705
0.00908445
0.00809158
0.00725466
0.00655753
0.00588274
0.264759
0.104702
0.0585298
0.0391631
0.02862
0.0219935
0.0175362
0.0143635
0.0120086
0.0102142
0.008817
0.00770672
0.00680561
0.00606298
0.00545263
0.00495303
0.00453874
0.00419554
0.00392866
0.00375185
0.283364
0.126774
0.071702
0.0473282
0.0338663
0.0256617
0.0204609
0.0167972
0.0140489
0.0119415
0.0102846
0.00895665
0.00788593
0.00701257
0.0062907
0.00568796
0.00518263
0.00475768
0.00440275
0.00412542
0.31754
0.217754
0.151086
0.108549
0.0807157
0.0618727
0.0486775
0.0391419
0.0320589
0.0266719
0.0224905
0.0191879
0.0165397
0.0143879
0.0126193
0.0111517
0.00992361
0.00888786
0.00801201
0.00726133
0.322005
0.239026
0.177588
0.133616
0.102323
0.079867
0.0635106
0.0513822
0.0422218
0.0351797
0.0296761
0.0253099
0.0217989
0.0189407
0.0165882
0.0146329
0.012993
0.0116061
0.0104209
0.00936218
0.323293
0.245617
0.187499
0.144537
0.112864
0.0894039
0.0718632
0.0585864
0.0483994
0.0404741
0.0342245
0.0292331
0.0251988
0.0219022
0.0191811
0.0169142
0.0150092
0.0133948
0.0120127
0.010802
0.323714
0.247819
0.191099
0.14881
0.117249
0.0935706
0.0756572
0.0619603
0.0513624
0.0430608
0.0364786
0.0311986
0.0269165
0.0234078
0.0205054
0.018083
0.0160443
0.014314
0.0128299
0.0115274
0.323714
0.247819
0.191099
0.14881
0.117249
0.0935707
0.0756572
0.0619604
0.0513626
0.043061
0.0364789
0.0311991
0.0269171
0.0234088
0.0205068
0.0180849
0.0160467
0.0143171
0.0128332
0.0115252
0.323293
0.245617
0.187499
0.144537
0.112864
0.0894039
0.0718633
0.0585866
0.0483997
0.0404745
0.0342251
0.0292338
0.0251999
0.0219038
0.0191834
0.0169173
0.0150134
0.0134005
0.0120209
0.0108174
0.322005
0.239026
0.177588
0.133616
0.102323
0.079867
0.0635106
0.0513822
0.0422218
0.0351797
0.0296761
0.0253099
0.0217988
0.0189406
0.0165882
0.0146328
0.0129929
0.0116059
0.0104207
0.00936188
0.31754
0.217754
0.151085
0.108549
0.0807156
0.0618726
0.0486773
0.0391416
0.0320585
0.0266713
0.0224897
0.0191867
0.0165379
0.0143852
0.0126153
0.0111461
0.00991557
0.00887591
0.00799321
0.00723627
0.283364
0.126774
0.071702
0.0473282
0.0338663
0.0256617
0.0204608
0.016797
0.0140486
0.011941
0.0102839
0.0089557
0.0078845
0.00701033
0.00628723
0.00568283
0.00517488
0.00474567
0.0043837
0.00409206
0.292299
0.141633
0.0819301
0.0541654
0.0389231
0.0292874
0.0232723
0.0190786
0.0159341
0.0135149
0.0116267
0.0101126
0.00888166
0.00787087
0.00703293
0.00633182
0.00574053
0.0052384
0.00481178
0.00448262
0.319723
0.227073
0.162232
0.118772
0.0893611
0.0689928
0.0545306
0.0439844
0.0360998
0.0300747
0.0253821
0.0216651
0.0186776
0.0162452
0.0142422
0.0125756
0.0111765
0.00999216
0.00898177
0.00812079
0.323293
0.245617
0.187499
0.144537
0.112864
0.0894039
0.0718633
0.0585866
0.0483997
0.0404745
0.0342251
0.0292338
0.0251999
0.0219038
0.0191834
0.0169173
0.0150134
0.0134006
0.012021
0.0108175
0.324288
0.250862
0.19613
0.154888
0.123591
0.09968
0.0812742
0.0669839
0.0557849
0.0469225
0.0398397
0.034124
0.0294678
0.0256406
0.0224677
0.0198161
0.0175826
0.0156861
0.014058
0.012625
0.32459
0.252403
0.19891
0.158543
0.12769
0.103871
0.08532
0.0707498
0.0592099
0.0499926
0.0425683
0.0365382
0.0316003
0.0275247
0.024135
0.0212948
0.0188977
0.0168583
0.0151024
0.013543
0.32459
0.252403
0.19891
0.158543
0.12769
0.103871
0.08532
0.0707499
0.0592099
0.0499927
0.0425684
0.0365383
0.0316005
0.027525
0.0241353
0.0212952
0.0188982
0.0168587
0.0151013
0.0135324
0.324288
0.250862
0.19613
0.154888
0.123591
0.09968
0.0812742
0.0669838
0.0557849
0.0469225
0.0398397
0.034124
0.0294678
0.0256406
0.0224677
0.019816
0.0175825
0.015686
0.0140579
0.012625
0.323293
0.245617
0.187499
0.144537
0.112864
0.0894038
0.0718632
0.0585864
0.0483994
0.0404741
0.0342245
0.029233
0.0251987
0.0219021
0.0191811
0.0169142
0.0150092
0.0133947
0.0120126
0.010802
0.319723
0.227073
0.162232
0.118772
0.089361
0.0689926
0.0545303
0.043984
0.0360992
0.0300739
0.025381
0.0216635
0.0186752
0.0162415
0.0142367
0.0125679
0.0111655
0.0099763
0.00895926
0.0080782
0.292299
0.141633
0.0819301
0.0541654
0.038923
0.0292874
0.0232722
0.0190784
0.0159338
0.0135145
0.011626
0.0101116
0.00888012
0.00786835
0.00702904
0.00632611
0.00573192
0.00522512
0.00479209
0.00445951
0.295943
0.148782
0.0871941
0.0576749
0.0415193
0.0310721
0.0246449
0.0202208
0.0169046
0.0143244
0.0123075
0.010701
0.00939422
0.00831967
0.00742701
0.00667798
0.00604363
0.00550143
0.00503744
0.00467699
0.320484
0.23086
0.167176
0.123531
0.0935158
0.0724824
0.0574405
0.0464209
0.0381533
0.0318165
0.0268699
0.0229452
0.0197859
0.01721
0.0150856
0.0133152
0.0118258
0.0105611
0.0094777
0.0085389
0.323714
0.247819
0.191099
0.14881
0.117249
0.0935707
0.0756572
0.0619605
0.0513626
0.043061
0.0364789
0.0311991
0.0269171
0.0234088
0.0205068
0.0180849
0.0160467
0.0143171
0.0128331
0.0115251
0.32459
0.252403
0.19891
0.158543
0.12769
0.103871
0.0853201
0.0707499
0.0592099
0.0499927
0.0425684
0.0365383
0.0316005
0.027525
0.0241353
0.0212952
0.0188982
0.0168587
0.0151013
0.0135324
0.324844
0.253685
0.20131
0.161836
0.131535
0.107943
0.0893701
0.0746126
0.0627921
0.0532535
0.0455015
0.0391575
0.0339305
0.0295948
0.0259746
0.0229321
0.0203582
0.0181641
0.016271
0.0145889
0.324844
0.253685
0.20131
0.161836
0.131535
0.107943
0.0893701
0.0746126
0.0627921
0.0532535
0.0455015
0.0391575
0.0339305
0.0295948
0.0259746
0.0229321
0.0203582
0.0181641
0.016271
0.0145889
0.32459
0.252403
0.19891
0.158543
0.12769
0.103871
0.08532
0.0707498
0.0592099
0.0499926
0.0425683
0.0365382
0.0316003
0.0275247
0.024135
0.0212948
0.0188976
0.0168583
0.0151023
0.0135431
0.323714
0.247819
0.191099
0.14881
0.117249
0.0935706
0.0756571
0.0619603
0.0513624
0.0430608
0.0364786
0.0311986
0.0269164
0.0234078
0.0205053
0.018083
0.0160443
0.014314
0.0128299
0.0115274
0.320484
0.23086
0.167176
0.123531
0.0935157
0.0724823
0.0574403
0.0464207
0.038153
0.0318161
0.0268693
0.0229444
0.0197847
0.0172081
0.0150827
0.0133113
0.0118202
0.0105533
0.00946689
0.00851991
0.295943
0.148782
0.0871941
0.0576749
0.0415193
0.0310721
0.0246448
0.0202207
0.0169045
0.0143242
0.0123072
0.0107005
0.00939346
0.00831842
0.00742497
0.006675
0.00603915
0.00549458
0.00502646
0.00465531
0.295943
0.148782
0.0871941
0.0576749
0.0415193
0.0310721
0.0246448
0.0202207
0.0169045
0.0143242
0.0123072
0.0107005
0.00939345
0.00831843
0.00742498
0.00667499
0.00603911
0.00549451
0.00502633
0.00465508
0.320484
0.23086
0.167176
0.123531
0.0935158
0.0724823
0.0574403
0.0464207
0.038153
0.0318161
0.0268693
0.0229444
0.0197847
0.0172081
0.0150828
0.0133112
0.0118201
0.0105532
0.00946662
0.00851945
0.323714
0.247819
0.191099
0.14881
0.117249
0.0935706
0.0756572
0.0619603
0.0513624
0.0430608
0.0364786
0.0311986
0.0269165
0.0234078
0.0205054
0.018083
0.0160443
0.0143139
0.0128298
0.0115271
0.32459
0.252403
0.19891
0.158543
0.12769
0.103871
0.08532
0.0707499
0.0592099
0.0499926
0.0425683
0.0365382
0.0316003
0.0275247
0.024135
0.0212948
0.0188977
0.0168583
0.0151023
0.013543
0.324844
0.253685
0.20131
0.161836
0.131535
0.107943
0.0893701
0.0746126
0.0627921
0.0532535
0.0455015
0.0391575
0.0339305
0.0295948
0.0259746
0.0229321
0.0203582
0.0181641
0.016271
0.0145889
0.324844
0.253685
0.20131
0.161836
0.131535
0.107943
0.0893701
0.0746126
0.0627921
0.0532535
0.0455015
0.0391575
0.0339305
0.0295948
0.0259746
0.0229321
0.0203582
0.0181641
0.016271
0.0145889
0.32459
0.252403
0.19891
0.158543
0.12769
0.103871
0.08532
0.0707499
0.0592099
0.0499927
0.0425684
0.0365383
0.0316005
0.027525
0.0241353
0.0212952
0.0188982
0.0168587
0.0151013
0.0135324
0.323714
0.247819
0.191099
0.14881
0.117249
0.0935707
0.0756572
0.0619605
0.0513626
0.043061
0.0364789
0.0311991
0.0269172
0.0234088
0.0205067
0.0180848
0.0160467
0.0143171
0.0128332
0.0115253
0.320484
0.23086
0.167176
0.123531
0.0935158
0.0724823
0.0574405
0.0464209
0.0381533
0.0318165
0.0268699
0.0229452
0.019786
0.0172101
0.0150855
0.0133151
0.0118257
0.0105612
0.00947787
0.00853903
0.295943
0.148782
0.0871941
0.0576749
0.0415193
0.0310721
0.0246449
0.0202208
0.0169046
0.0143244
0.0123075
0.010701
0.00939428
0.00831975
0.0074269
0.0066779
0.00604358
0.00550141
0.00503746
0.0046771
0.292299
0.141633
0.0819301
0.0541654
0.038923
0.0292874
0.0232722
0.0190784
0.0159338
0.0135145
0.011626
0.0101116
0.00888017
0.00786846
0.00702897
0.00632604
0.00573185
0.00522503
0.00479197
0.00445935
0.319723
0.227073
0.162232
0.118772
0.089361
0.0689926
0.0545303
0.0439841
0.0360992
0.0300739
0.025381
0.0216635
0.0186753
0.0162417
0.0142367
0.0125678
0.0111654
0.00997621
0.00895916
0.00807787
0.323293
0.245617
0.187499
0.144537
0.112864
0.0894039
0.0718632
0.0585864
0.0483994
0.0404741
0.0342245
0.0292331
0.0251988
0.0219022
0.0191811
0.0169142
0.0150092
0.0133948
0.0120126
0.010802
0.324288
0.250862
0.19613
0.154888
0.123591
0.09968
0.0812742
0.0669839
0.0557849
0.0469225
0.0398397
0.034124
0.0294678
0.0256406
0.0224677
0.0198161
0.0175826
0.0156861
0.014058
0.0126251
0.32459
0.252403
0.19891
0.158543
0.12769
0.103871
0.0853201
0.0707499
0.0592099
0.0499927
0.0425684
0.0365383
0.0316005
0.027525
0.0241353
0.0212952
0.0188982
0.0168587
0.0151013
0.0135324
0.32459
0.252403
0.19891
0.158543
0.12769
0.103871
0.08532
0.0707499
0.0592099
0.0499926
0.0425683
0.0365382
0.0316003
0.0275247
0.024135
0.0212948
0.0188977
0.0168583
0.0151023
0.013543
0.324288
0.250862
0.19613
0.154888
0.123591
0.09968
0.0812742
0.0669839
0.0557849
0.0469225
0.0398397
0.034124
0.0294678
0.0256406
0.0224677
0.019816
0.0175826
0.0156861
0.0140579
0.012625
0.323293
0.245617
0.187499
0.144537
0.112864
0.0894039
0.0718633
0.0585866
0.0483997
0.0404745
0.0342251
0.0292338
0.0251999
0.0219038
0.0191834
0.0169173
0.0150134
0.0134006
0.0120211
0.0108176
0.319723
0.227073
0.162232
0.118772
0.0893611
0.0689928
0.0545306
0.0439844
0.0360997
0.0300747
0.0253821
0.0216651
0.0186777
0.0162454
0.0142421
0.0125755
0.0111764
0.00999211
0.00898179
0.00812057
0.292299
0.141633
0.0819301
0.0541654
0.0389231
0.0292874
0.0232723
0.0190786
0.0159341
0.0135149
0.0116267
0.0101126
0.00888172
0.00787098
0.00703281
0.00633171
0.00574044
0.00523832
0.00481173
0.00448271
0.283364
0.126774
0.071702
0.0473282
0.0338663
0.0256617
0.0204609
0.0167971
0.0140486
0.0119411
0.010284
0.00895574
0.00788458
0.00701045
0.00628719
0.00568278
0.00517486
0.00474569
0.00438373
0.00409213
0.31754
0.217754
0.151085
0.108549
0.0807156
0.0618726
0.0486773
0.0391417
0.0320585
0.0266713
0.0224897
0.0191867
0.0165381
0.0143855
0.0126153
0.0111461
0.00991564
0.0088761
0.00799345
0.00723687
0.322005
0.239026
0.177588
0.133616
0.102323
0.079867
0.0635106
0.0513822
0.0422219
0.0351797
0.0296761
0.0253099
0.0217989
0.0189407
0.0165883
0.0146329
0.012993
0.0116062
0.0104211
0.00936267
0.323293
0.245617
0.187499
0.144537
0.112864
0.0894039
0.0718633
0.0585866
0.0483997
0.0404745
0.0342251
0.0292338
0.0251999
0.0219038
0.0191835
0.0169174
0.0150135
0.0134007
0.0120212
0.0108178
0.323714
0.247819
0.191099
0.14881
0.117249
0.0935707
0.0756572
0.0619605
0.0513626
0.043061
0.0364789
0.0311991
0.0269171
0.0234088
0.0205068
0.0180849
0.0160468
0.0143172
0.0128333
0.0115253
0.323714
0.247819
0.191099
0.14881
0.117249
0.0935706
0.0756572
0.0619603
0.0513624
0.0430608
0.0364786
0.0311986
0.0269165
0.0234078
0.0205054
0.018083
0.0160443
0.014314
0.0128299
0.0115272
0.323293
0.245617
0.187499
0.144537
0.112864
0.0894038
0.0718632
0.0585864
0.0483995
0.0404741
0.0342245
0.029233
0.0251987
0.0219022
0.0191812
0.0169142
0.0150092
0.0133948
0.0120126
0.0108018
0.322005
0.239026
0.177588
0.133616
0.102323
0.079867
0.0635106
0.0513822
0.0422218
0.0351797
0.0296761
0.0253099
0.0217988
0.0189407
0.0165883
0.0146329
0.012993
0.0116061
0.0104209
0.00936212
0.31754
0.217754
0.151086
0.108549
0.0807157
0.0618727
0.0486775
0.0391419
0.0320589
0.0266718
0.0224905
0.0191879
0.0165398
0.0143881
0.0126192
0.0111516
0.0099235
0.00888778
0.00801188
0.00726116
0.283364
0.126774
0.071702
0.0473282
0.0338663
0.0256617
0.020461
0.0167972
0.0140489
0.0119415
0.0102846
0.00895664
0.00788596
0.00701265
0.00629063
0.00568787
0.00518254
0.0047576
0.00440262
0.0041251
0.264759
0.104702
0.0585298
0.0391631
0.02862
0.0219936
0.0175362
0.0143635
0.0120086
0.0102142
0.00881703
0.00770675
0.00680565
0.00606309
0.00545267
0.0049531
0.00453886
0.00419572
0.0039289
0.00375217
0.311746
0.197541
0.130357
0.0911458
0.0668024
0.0508112
0.0397946
0.0319124
0.0260947
0.0216879
0.0182774
0.0155897
0.0134427
0.0117005
0.0102706
0.00908466
0.0080919
0.00725511
0.00655814
0.00588368
0.31754
0.217754
0.151086
0.108549
0.0807157
0.0618727
0.0486775
0.039142
0.0320589
0.0266719
0.0224905
0.0191879
0.0165398
0.014388
0.0126193
0.0111518
0.00992373
0.00888804
0.00801227
0.00726175
0.319723
0.227073
0.162232
0.118772
0.0893611
0.0689928
0.0545306
0.0439845
0.0360998
0.0300747
0.0253821
0.0216651
0.0186776
0.0162453
0.0142423
0.0125757
0.0111766
0.00999229
0.00898196
0.00812104
0.320484
0.23086
0.167176
0.123531
0.0935158
0.0724824
0.0574404
0.0464209
0.0381533
0.0318165
0.0268699
0.0229452
0.0197859
0.01721
0.0150857
0.0133153
0.0118258
0.0105612
0.00947782
0.00853901
0.320484
0.23086
0.167176
0.123531
0.0935158
0.0724823
0.0574403
0.0464207
0.038153
0.0318162
0.0268693
0.0229444
0.0197847
0.0172081
0.0150828
0.0133112
0.0118201
0.0105532
0.00946669
0.00851947
0.319723
0.227073
0.162232
0.118772
0.089361
0.0689926
0.0545303
0.0439841
0.0360992
0.0300739
0.025381
0.0216635
0.0186752
0.0162416
0.0142368
0.0125679
0.0111655
0.00997627
0.00895917
0.00807783
0.31754
0.217754
0.151085
0.108549
0.0807156
0.0618726
0.0486773
0.0391417
0.0320585
0.0266713
0.0224897
0.0191867
0.016538
0.0143853
0.0126154
0.0111462
0.00991571
0.00887613
0.00799343
0.00723668
0.311746
0.197541
0.130357
0.0911458
0.0668024
0.0508112
0.0397946
0.0319124
0.0260947
0.0216879
0.0182774
0.0155897
0.0134426
0.0117004
0.0102706
0.00908457
0.00809176
0.00725493
0.00655787
0.00588331
0.264759
0.104702
0.0585298
0.0391631
0.02862
0.0219936
0.0175362
0.0143635
0.0120086
0.0102144
0.00881724
0.0077071
0.0068062
0.00606437
0.00545455
0.00495585
0.00454335
0.00420366
0.0039435
0.00376992
0.213564
0.055916
0.0283994
0.0193412
0.0146928
0.0118511
0.00989078
0.00851619
0.00749154
0.00669668
0.00606113
0.00555184
0.00512453
0.00474819
0.0044306
0.00416547
0.00394414
0.00376519
0.00365963
0.00356389
0.264759
0.104702
0.0585298
0.0391631
0.02862
0.0219936
0.0175362
0.0143635
0.0120086
0.0102144
0.00881725
0.00770712
0.00680624
0.00606437
0.0054546
0.00495594
0.00454348
0.00420381
0.00394372
0.00377016
0.283364
0.126774
0.071702
0.0473282
0.0338663
0.0256617
0.020461
0.0167972
0.0140489
0.0119415
0.0102846
0.00895667
0.00788596
0.0070126
0.00629074
0.00568801
0.00518268
0.00475775
0.00440283
0.00412552
0.292299
0.141633
0.0819301
0.0541654
0.0389231
0.0292874
0.0232723
0.0190786
0.0159341
0.0135149
0.0116267
0.0101126
0.00888167
0.00787088
0.00703295
0.00633184
0.00574055
0.00523841
0.00481179
0.0044826
0.295943
0.148782
0.0871941
0.0576749
0.0415193
0.0310721
0.0246449
0.0202208
0.0169046
0.0143244
0.0123075
0.010701
0.00939421
0.00831966
0.00742701
0.00667798
0.00604362
0.0055014
0.00503739
0.00467688
0.295943
0.148782
0.0871941
0.0576749
0.0415193
0.0310721
0.0246448
0.0202207
0.0169045
0.0143242
0.0123072
0.0107005
0.00939344
0.0083184
0.00742496
0.00667497
0.00603909
0.00549448
0.00502629
0.00465499
0.292299
0.141633
0.0819301
0.0541654
0.038923
0.0292873
0.0232721
0.0190784
0.0159338
0.0135145
0.011626
0.0101116
0.00888013
0.00786836
0.00702904
0.0063261
0.0057319
0.00522508
0.004792
0.00445937
0.283364
0.126774
0.071702
0.0473282
0.0338663
0.0256617
0.0204608
0.0167971
0.0140486
0.0119411
0.010284
0.00895573
0.00788454
0.00701036
0.00628727
0.00568288
0.00517495
0.00474577
0.00438381
0.0040922
0.264759
0.104702
0.0585298
0.0391631
0.02862
0.0219936
0.0175362
0.0143635
0.0120086
0.0102142
0.00881702
0.00770674
0.00680565
0.00606303
0.00545268
0.00495311
0.00453885
0.00419571
0.00392888
0.00375215
0.213564
0.055916
0.0283994
0.0193412
0.0146928
0.0118511
0.00989078
0.00851619
0.00749155
0.00669668
0.00606113
0.00555182
0.00512455
0.00474816
0.00443061
0.00416546
0.00394411
0.00376516
0.00365961
0.00356383
0.00496422
0.00422294
0.00359184
0.00322431
0.00300208
0.00285992
0.0027538
0.00266441
0.00259045
0.00252674
0.0024721
0.00242246
0.00237543
0.00233012
0.00228659
0.00224738
0.00220886
0.00217347
0.00213914
0.00210691
0.00207573
0.00204549
0.00201726
0.00199079
0.00196451
0.00193938
0.00191482
0.00189113
0.00186765
0.00184544
0.00182341
0.00180227
0.00178184
0.00176169
0.00174312
0.00172447
0.00170729
0.0016902
0.00167589
0.00165038
0.00419623
0.00369539
0.00328108
0.00299729
0.00279968
0.00265535
0.00254094
0.00244244
0.00236046
0.00228901
0.0022243
0.0021664
0.00211603
0.00206619
0.0020181
0.00197499
0.00193419
0.0018971
0.00186222
0.00182932
0.00179815
0.00176826
0.00174034
0.00171465
0.00169017
0.0016667
0.00164398
0.00162191
0.00160046
0.0015796
0.00155942
0.00153977
0.00152071
0.00150252
0.00148479
0.00146816
0.00145189
0.00143614
0.00142139
0.00140466
0.00409904
0.00370837
0.00339066
0.00315516
0.00295983
0.00280482
0.0026723
0.00255909
0.00245975
0.00237206
0.00229429
0.00222506
0.0021672
0.00210617
0.00205029
0.002001
0.00195468
0.00191369
0.00187401
0.00183611
0.00180051
0.00176424
0.00173081
0.00170036
0.00167272
0.00164629
0.00162064
0.00159587
0.00157203
0.00154885
0.00152651
0.001505
0.00148427
0.00146434
0.00144499
0.00142705
0.00140955
0.00139255
0.00137628
0.00135929
0.00397474
0.00370768
0.00347104
0.00326316
0.00308124
0.00292132
0.00278009
0.00265497
0.00254355
0.00244378
0.00235397
0.00227313
0.00220174
0.00213453
0.00207245
0.00201554
0.00196265
0.00191711
0.00186872
0.00182267
0.00178193
0.00174394
0.00170762
0.00167312
0.00164071
0.00161005
0.00158138
0.00155374
0.00152791
0.00150274
0.00147848
0.00145474
0.0014325
0.00141112
0.00139149
0.00137182
0.00135366
0.00133588
0.00131906
0.0013018
0.00424328
0.00385202
0.00356604
0.00333351
0.00313803
0.00297069
0.00282521
0.00269653
0.00258102
0.00247673
0.00238218
0.00229643
0.00221924
0.00214659
0.00207985
0.00201845
0.00196266
0.00191058
0.00186209
0.00181701
0.00177545
0.00173655
0.00169584
0.00165856
0.00162394
0.00159145
0.00156095
0.00153198
0.00150513
0.00147912
0.00145425
0.00142996
0.00140736
0.0013854
0.00136507
0.00134428
0.00132541
0.00130732
0.00129051
0.00127462
0.00435899
0.00391033
0.00360031
0.00335262
0.00314688
0.00297239
0.00282201
0.00269075
0.00257331
0.00246688
0.00237016
0.0022822
0.0022023
0.00212835
0.00206056
0.00199822
0.00194071
0.00188752
0.0018385
0.00179345
0.00175149
0.00171248
0.00167532
0.00164263
0.00160687
0.00157178
0.00153973
0.00151025
0.00148365
0.001458
0.00143405
0.00141132
0.00138928
0.00136473
0.00134635
0.00132331
0.00130602
0.00128852
0.00127197
0.00125637
0.00429212
0.00382859
0.00352429
0.00328613
0.00308681
0.00291653
0.00276917
0.00263968
0.00252336
0.00241824
0.0023231
0.00223703
0.00215907
0.00208717
0.00202126
0.00196064
0.00190478
0.00185331
0.00180582
0.00176218
0.0017221
0.00168486
0.00164876
0.00161631
0.00158252
0.00154894
0.00151835
0.00149044
0.00146474
0.00143963
0.00141583
0.0013933
0.00137119
0.00134837
0.00132945
0.00131007
0.00129238
0.00127532
0.00125876
0.00124296
0.00392143
0.00363027
0.00337465
0.00315527
0.00296625
0.00280454
0.00266432
0.00254064
0.00243074
0.00233245
0.002244
0.00216451
0.00209273
0.00202643
0.00196584
0.0019099
0.00185858
0.0018119
0.00176873
0.00172853
0.00169129
0.00165642
0.00162014
0.00158865
0.00155805
0.00152953
0.00150198
0.00147635
0.00145115
0.00142584
0.00140208
0.00138032
0.00136056
0.0013413
0.00132256
0.00130429
0.00128613
0.00126887
0.00125243
0.00123669
0.00391062
0.00353202
0.0032345
0.00299442
0.0028015
0.00264554
0.00251773
0.00240951
0.00231505
0.00223157
0.00215662
0.00209144
0.00203082
0.00197434
0.00192487
0.00187205
0.00182509
0.00178175
0.00174322
0.001706
0.0016718
0.00163933
0.00160767
0.00157922
0.00155099
0.00152458
0.00149931
0.00147557
0.00145279
0.00143136
0.0014109
0.00139137
0.00137249
0.00135443
0.00133705
0.00132027
0.00130321
0.00128697
0.00127211
0.00125736
0.00413458
0.00365035
0.00320491
0.00289557
0.00268448
0.00253721
0.00242679
0.0023348
0.00226038
0.00219489
0.00213516
0.00208654
0.00203176
0.00198082
0.00193384
0.00188962
0.00184819
0.00180963
0.00177366
0.00174003
0.00170846
0.0016791
0.00165194
0.00162745
0.00160326
0.00158012
0.00155772
0.00153621
0.0015154
0.00149554
0.0014763
0.00145768
0.00143968
0.00142236
0.00140541
0.00138983
0.00137495
0.00136066
0.0013475
0.00133262
0.00496412
0.00422282
0.00359121
0.00322262
0.00299661
0.00285142
0.0027449
0.00265713
0.00258531
0.00252496
0.00247086
0.00242366
0.00237582
0.00233035
0.00228716
0.00224733
0.00220909
0.00217331
0.00213904
0.00210699
0.00207555
0.00204581
0.00201737
0.00199146
0.00196518
0.00194045
0.00191591
0.00189224
0.00186866
0.00184616
0.00182399
0.00180274
0.00178205
0.00176178
0.00174235
0.001724
0.00170763
0.00169047
0.00167608
0.00164995
0.00413445
0.00365041
0.00320593
0.00289607
0.00268732
0.00254672
0.00243724
0.00234296
0.00226625
0.00219734
0.00213705
0.00208532
0.00203041
0.0019802
0.00193307
0.00188985
0.00184794
0.00181003
0.00177391
0.00174036
0.00170893
0.0016793
0.00165203
0.00162723
0.00160281
0.00157941
0.00155689
0.00153536
0.00151462
0.00149502
0.00147594
0.00145746
0.00143955
0.00142251
0.00140658
0.00139083
0.00137536
0.00136066
0.0013475
0.00133279
0.00423586
0.00380755
0.00341894
0.003185
0.00298484
0.00280804
0.00263501
0.00247056
0.00233599
0.00221073
0.00209229
0.00198602
0.00188148
0.00178817
0.00169316
0.00161641
0.00153891
0.00147508
0.00141298
0.00135762
0.00130186
0.00125024
0.00120863
0.00117343
0.00113704
0.00110181
0.00106751
0.00103623
0.00100512
0.000979283
0.000953034
0.000927183
0.000902217
0.000877671
0.000860626
0.000840619
0.000820069
0.000800687
0.000782833
0.000768196
0.00548667
0.00503001
0.00461117
0.0042531
0.00393983
0.00366769
0.003427
0.00321266
0.00301791
0.00284063
0.00267761
0.00253138
0.00239622
0.00227843
0.00216222
0.00206322
0.00196553
0.00188172
0.00180046
0.00172578
0.00165717
0.00158809
0.00152891
0.00147001
0.00141806
0.00136706
0.0013189
0.00127592
0.00123373
0.00119522
0.00115762
0.00112278
0.00108741
0.00105505
0.00102611
0.000996927
0.000966937
0.000939741
0.000912363
0.000878683
0.00683032
0.00610346
0.0055268
0.00505144
0.00464814
0.00429947
0.00399229
0.00371991
0.00347679
0.00325873
0.00306224
0.00288438
0.00272465
0.00257868
0.00244523
0.0023235
0.00221165
0.00210911
0.00201581
0.00192674
0.00184902
0.00177203
0.0017044
0.00163714
0.00157882
0.0015213
0.00147072
0.00141981
0.0013745
0.00132874
0.00128639
0.00124694
0.00120701
0.00117147
0.00113778
0.00110276
0.00106759
0.00103592
0.00100401
0.000965623
0.00726837
0.00661829
0.00603425
0.00552063
0.00507098
0.00467889
0.00433612
0.00403348
0.00376245
0.00351884
0.00329967
0.00310217
0.00292343
0.00276172
0.00261458
0.00248039
0.00235778
0.00224543
0.00214242
0.00204707
0.00196078
0.00187495
0.00179383
0.00172548
0.00166324
0.00160553
0.00155013
0.00149601
0.00144605
0.00139748
0.00135156
0.0013102
0.00126855
0.00122995
0.00119277
0.00115395
0.00111569
0.00108018
0.00104475
0.00100213
0.00756024
0.00684639
0.00623087
0.00569706
0.00523185
0.00482412
0.00446685
0.00415475
0.00387668
0.00362559
0.00339889
0.00319425
0.0030091
0.00284149
0.00268915
0.00255027
0.00242333
0.002307
0.00220018
0.00210176
0.00201114
0.00192676
0.00184929
0.00177177
0.00169612
0.00162864
0.00157322
0.00152243
0.00147429
0.0014275
0.0013823
0.00134224
0.00129815
0.00125409
0.00121337
0.00117087
0.00113092
0.00109215
0.0010555
0.00101066
0.00726554
0.00662939
0.00605153
0.00554165
0.00509493
0.00470423
0.00436395
0.00406622
0.00379916
0.003558
0.00334021
0.00314307
0.00296616
0.00280388
0.0026559
0.00252058
0.0023966
0.00228267
0.00217784
0.00208108
0.00199156
0.0019087
0.00183073
0.00175936
0.00168817
0.0016257
0.00156416
0.00150897
0.00145603
0.00140666
0.00135849
0.00131242
0.00126683
0.00122441
0.00118431
0.00114218
0.00110238
0.00106356
0.00102599
0.000979947
0.00684196
0.00613985
0.00556099
0.00507841
0.00467012
0.0043243
0.00402385
0.00375597
0.00351541
0.0032986
0.00310192
0.00292423
0.00276496
0.00261589
0.00247923
0.0023534
0.00223797
0.00213122
0.00203332
0.00194248
0.00185815
0.00178031
0.00170412
0.00163846
0.0015717
0.00151288
0.00145345
0.00140077
0.00134813
0.00130098
0.00125348
0.00120811
0.00116217
0.00112207
0.0010833
0.00104591
0.00100588
0.000966682
0.000931017
0.000889834
0.00551992
0.00504842
0.00459801
0.00423511
0.00392844
0.0036576
0.00341675
0.00320155
0.00300639
0.00282805
0.00266094
0.00251643
0.00237639
0.00224706
0.00212754
0.00201501
0.00191551
0.00181867
0.00173621
0.00165467
0.00158277
0.0015121
0.00144724
0.00139222
0.00133618
0.00128723
0.0012368
0.00119336
0.00114856
0.00111075
0.00107233
0.00103594
0.000998751
0.000966735
0.000936341
0.000905746
0.000873158
0.000843655
0.000820113
0.000799555
0.00423551
0.00380547
0.00342009
0.00317604
0.00296755
0.00277549
0.00260685
0.00245159
0.00232393
0.00220889
0.0020875
0.00199442
0.00188868
0.00179197
0.00169746
0.00161665
0.00154092
0.00147489
0.00141271
0.00135789
0.00129957
0.00124981
0.00120742
0.00117422
0.00113777
0.00110385
0.00106952
0.00103827
0.00100701
0.000980524
0.000954036
0.000928023
0.000902638
0.000879221
0.000857377
0.000835064
0.000821379
0.000803451
0.000785796
0.000770916
0.00419594
0.00369411
0.00328193
0.00299311
0.00278963
0.00264406
0.00253037