/*--------------------------------*- C++ -*----------------------------------*\
| =========                 |                                                 |
| \\      /  F ield         | OpenFOAM: The Open Source CFD Toolbox           |
|  \\    /   O peration     | Version:  2212                                  |
|   \\  /    A nd           | Website:  www.openfoam.com                      |
|    \\/     M anipulation  |                                                 |
\*---------------------------------------------------------------------------*/
FoamFile
{
    version     2.0;
    format      ascii;
    arch        "LSB;label=32;scalar=64";
    class       volScalarField;
    location    "2.3";
    object      p;
}
// * * * * * * * * * * * * * * * * * * * * * * * * * * * * * * * * * * * * * //

dimensions      [0 2 -2 0 0 0 0];

internalField   nonuniform List<scalar> 
6840
(
0.0179183
0.0108039
0.00851247
0.00797462
0.00770022
0.00747796
0.00729121
0.00712463
0.00696325
0.00680344
0.00664523
0.00648835
0.00633141
0.00617261
0.00601182
0.00584759
0.0056775
0.00549443
0.005242
0.00476869
0.0107395
0.0100057
0.00891278
0.00824679
0.00784417
0.00757037
0.0073591
0.00717274
0.00699812
0.00683045
0.00666717
0.00650642
0.00634647
0.00618604
0.00602461
0.00586064
0.00568999
0.0055016
0.00525956
0.00487367
0.0103913
0.00953979
0.00877551
0.00821635
0.00784018
0.00757214
0.00735647
0.00716353
0.00698507
0.00681649
0.00665289
0.00649207
0.00633344
0.00617665
0.00602074
0.00586431
0.00570512
0.00554047
0.00537333
0.00521063
0.00998205
0.00921932
0.00860055
0.00814923
0.00780527
0.00753628
0.00731674
0.00712807
0.00696046
0.00680337
0.00664826
0.00649388
0.00634119
0.0061912
0.00604519
0.00590539
0.00577469
0.00565628
0.00556008
0.00550403
0.00984786
0.00910667
0.0085185
0.0081104
0.00778849
0.00752182
0.00730039
0.00710993
0.00693949
0.00678333
0.00663437
0.00648602
0.0063379
0.00619262
0.00605379
0.00592571
0.00581394
0.00572587
0.00567779
0.00569415
0.00984786
0.00910668
0.0085185
0.00811039
0.00778847
0.0075218
0.00730036
0.00710987
0.00693937
0.00678311
0.006634
0.00648539
0.00633685
0.00619087
0.00605059
0.00591966
0.00580346
0.00570975
0.00565285
0.00565591
0.00998205
0.00921931
0.00860054
0.00814922
0.00780526
0.00753625
0.00731667
0.00712792
0.00696019
0.00680291
0.00664747
0.00649257
0.00633905
0.00618769
0.00603913
0.00589449
0.00575567
0.00562589
0.00551448
0.00543947
0.0103913
0.00953978
0.00877551
0.00821635
0.00784017
0.00757211
0.0073564
0.0071634
0.00698485
0.00681609
0.00665218
0.0064909
0.0063316
0.00617377
0.00601613
0.00585701
0.00569331
0.00552139
0.00534283
0.00515661
0.0107396
0.0100057
0.00891279
0.0082468
0.00784417
0.00757037
0.00735909
0.00717272
0.00699806
0.00683034
0.00666697
0.00650609
0.0063458
0.0061847
0.00602241
0.00585716
0.00568457
0.00549287
0.0052431
0.00482322
0.0179184
0.0108039
0.00851247
0.00797462
0.00770023
0.00747796
0.00729122
0.00712464
0.00696326
0.00680345
0.00664524
0.00648837
0.00633143
0.00617265
0.00601188
0.00584766
0.00567758
0.00549452
0.00524211
0.00476881
0.0107396
0.0100057
0.00891279
0.0082468
0.00784417
0.00757036
0.00735909
0.00717271
0.00699806
0.00683033
0.00666696
0.00650608
0.00634578
0.00618466
0.00602234
0.00585709
0.00568449
0.00549277
0.00524297
0.00482307
0.010023
0.00999124
0.00926299
0.00855246
0.00810606
0.00779003
0.007531
0.00730315
0.00709825
0.00690937
0.00673088
0.00655888
0.00638993
0.00622176
0.00605298
0.00588118
0.00570196
0.00551048
0.00532121
0.00521453
0.00909749
0.00922367
0.00892077
0.00850453
0.00813735
0.00781868
0.00754006
0.0072995
0.00708676
0.00689191
0.00670811
0.00653198
0.00636134
0.00619414
0.00602817
0.00586155
0.00569185
0.00551696
0.00533914
0.00516956
0.00867915
0.00872266
0.00855709
0.00829416
0.00801379
0.00774247
0.00749152
0.00726523
0.00706236
0.00687609
0.0066995
0.00652958
0.00636485
0.00620428
0.00604765
0.00589516
0.00574716
0.00560489
0.00547374
0.00536574
0.00846321
0.00848504
0.00835785
0.00814037
0.00790799
0.00767891
0.00745623
0.0072433
0.00704292
0.00685633
0.00668113
0.00651439
0.00635456
0.00620014
0.00605142
0.00591081
0.00577949
0.0056572
0.00554778
0.00545659
0.0084632
0.00848503
0.00835784
0.00814034
0.00790795
0.00767886
0.00745615
0.00724317
0.00704274
0.006856
0.00668052
0.00651326
0.00635288
0.00619791
0.00604792
0.00590496
0.00577064
0.0056457
0.00553363
0.005435
0.00867914
0.00872264
0.00855707
0.00829413
0.00801374
0.00774241
0.00749142
0.00726507
0.00706207
0.00687551
0.00669834
0.0065276
0.00636204
0.00620031
0.00604127
0.00588432
0.00572942
0.00557756
0.00543218
0.00529181
0.00909749
0.00922366
0.00892076
0.00850452
0.00813734
0.00781865
0.00754
0.00729938
0.00708652
0.0068915
0.00670748
0.00653105
0.00635993
0.00619191
0.00602479
0.00585645
0.0056849
0.00550852
0.00533202
0.00516646
0.010023
0.00999124
0.009263
0.00855247
0.00810607
0.00779003
0.00753101
0.00730316
0.00709826
0.00690938
0.00673089
0.00655891
0.00638995
0.0062218
0.00605303
0.00588125
0.00570204
0.00551057
0.00532131
0.00521462
0.0107396
0.0100057
0.00891279
0.0082468
0.00784417
0.00757037
0.00735911
0.00717275
0.00699813
0.00683047
0.00666718
0.00650644
0.00634649
0.00618607
0.00602467
0.0058607
0.00569006
0.00550167
0.00525964
0.00487373
0.0103913
0.00953978
0.0087755
0.00821635
0.00784017
0.00757211
0.0073564
0.0071634
0.00698484
0.00681608
0.00665217
0.00649088
0.00633158
0.00617372
0.00601607
0.00585695
0.00569324
0.0055213
0.00534271
0.00515647
0.00909748
0.00922366
0.00892075
0.00850451
0.00813733
0.00781864
0.00753999
0.00729937
0.00708651
0.00689149
0.00670747
0.00653103
0.0063599
0.00619188
0.00602476
0.00585641
0.00568485
0.00550846
0.00533195
0.00516638
0.00852799
0.00862897
0.00851739
0.00829189
0.0080361
0.00777766
0.00751918
0.00727742
0.00705932
0.00685871
0.0066706
0.0064917
0.00631918
0.00615059
0.00598429
0.00581892
0.00565383
0.00549116
0.00533871
0.00519674
0.00816004
0.00822811
0.00817573
0.00802876
0.00784389
0.00763876
0.0074281
0.00722122
0.00702011
0.0068277
0.00664516
0.00647061
0.00630203
0.00613811
0.00597792
0.00582048
0.00566489
0.00551079
0.00535866
0.00520286
0.00797702
0.00804146
0.008012
0.00788718
0.00772822
0.00755461
0.00736841
0.00718052
0.00699456
0.00681139
0.00663254
0.00645904
0.00629132
0.00612971
0.00597448
0.00582471
0.00567806
0.00553301
0.0053897
0.00523906
0.00797702
0.00804145
0.00801199
0.00788715
0.00772816
0.00755453
0.00736832
0.0071804
0.00699439
0.00681113
0.00663216
0.00645849
0.00629059
0.00612866
0.00597286
0.00582226
0.0056749
0.00552968
0.00538779
0.00524025
0.00816003
0.0082281
0.00817571
0.00802872
0.00784383
0.00763869
0.00742802
0.0072211
0.00701991
0.00682738
0.00664459
0.00646969
0.00630063
0.00613598
0.0059746
0.00581536
0.00565717
0.00549973
0.00534398
0.00518287
0.008528
0.00862897
0.0085174
0.0082919
0.00803611
0.00777767
0.00751919
0.00727743
0.00705933
0.00685873
0.00667061
0.00649172
0.0063192
0.00615061
0.0059843
0.00581895
0.00565386
0.00549119
0.00533873
0.00519678
0.00909749
0.00922368
0.00892078
0.00850454
0.00813736
0.00781869
0.00754007
0.00729951
0.00708677
0.00689192
0.00670812
0.006532
0.00636137
0.00619416
0.00602819
0.00586159
0.0056919
0.00551702
0.0053392
0.00516962
0.0103913
0.00953979
0.00877551
0.00821636
0.00784019
0.00757215
0.00735648
0.00716354
0.00698508
0.0068165
0.00665291
0.00649209
0.00633346
0.00617667
0.00602077
0.00586435
0.00570517
0.00554051
0.00537336
0.0052106
0.00998204
0.00921931
0.00860054
0.00814922
0.00780525
0.00753624
0.00731666
0.00712792
0.00696018
0.0068029
0.00664746
0.00649255
0.00633902
0.00618765
0.00603908
0.00589443
0.0057556
0.00562579
0.00551434
0.00543926
0.00867913
0.00872264
0.00855706
0.00829412
0.00801374
0.0077424
0.00749141
0.00726506
0.00706206
0.00687549
0.00669832
0.00652758
0.00636201
0.00620029
0.00604124
0.00588428
0.00572937
0.00557751
0.00543211
0.00529174
0.00816003
0.00822809
0.00817571
0.00802871
0.00784382
0.00763868
0.00742801
0.00722109
0.0070199
0.00682736
0.00664457
0.00646967
0.00630061
0.00613597
0.00597458
0.00581533
0.00565714
0.0054997
0.00534394
0.00518282
0.00786215
0.00792129
0.00790935
0.00781395
0.00767432
0.00750882
0.00732861
0.0071441
0.00696005
0.00677958
0.00660431
0.00643404
0.0062681
0.00610587
0.00594674
0.00578981
0.0056341
0.00547928
0.00532628
0.00516585
0.00771107
0.00777396
0.00777772
0.00770407
0.00758397
0.0074376
0.00727475
0.00710336
0.00692925
0.00675571
0.00658457
0.00641673
0.00625254
0.00609203
0.00593503
0.00578074
0.00562799
0.0054766
0.00532776
0.00517169
0.00771107
0.00777396
0.00777771
0.00770407
0.00758395
0.00743758
0.00727471
0.00710332
0.00692919
0.00675564
0.0065845
0.00641665
0.00625244
0.0060919
0.00593484
0.00578055
0.00562796
0.00547704
0.00532935
0.0051749
0.00786215
0.00792129
0.00790936
0.00781396
0.00767433
0.00750883
0.00732861
0.0071441
0.00696006
0.00677959
0.00660432
0.00643405
0.00626811
0.00610588
0.00594676
0.00578983
0.00563413
0.00547932
0.00532634
0.00516593
0.00816005
0.00822811
0.00817574
0.00802877
0.0078439
0.00763876
0.00742811
0.00722123
0.00702012
0.00682771
0.00664517
0.00647062
0.00630204
0.00613813
0.00597794
0.0058205
0.00566492
0.00551083
0.00535871
0.00520292
0.00867916
0.00872266
0.0085571
0.00829417
0.0080138
0.00774248
0.00749153
0.00726524
0.00706237
0.0068761
0.00669951
0.00652959
0.00636486
0.00620429
0.00604767
0.00589519
0.0057472
0.00560493
0.00547378
0.00536581
0.00998206
0.00921932
0.00860056
0.00814924
0.00780528
0.00753629
0.00731674
0.00712808
0.00696047
0.00680338
0.00664827
0.00649389
0.0063412
0.00619121
0.0060452
0.0059054
0.0057747
0.00565627
0.00556005
0.00550393
0.00984786
0.00910667
0.0085185
0.00811039
0.00778847
0.0075218
0.00730035
0.00710986
0.00693936
0.0067831
0.00663398
0.00648537
0.00633682
0.00619084
0.00605055
0.0059196
0.00580337
0.00570963
0.00565267
0.00565564
0.0084632
0.00848503
0.00835783
0.00814033
0.00790794
0.00767885
0.00745614
0.00724316
0.00704272
0.00685598
0.0066805
0.00651324
0.00635285
0.00619788
0.00604789
0.00590492
0.00577059
0.00564564
0.00553359
0.00543502
0.00797701
0.00804145
0.00801198
0.00788714
0.00772815
0.00755452
0.00736831
0.00718039
0.00699438
0.00681112
0.00663214
0.00645847
0.00629056
0.00612864
0.00597283
0.00582223
0.00567487
0.00552966
0.00538778
0.00524029
0.00771106
0.00777395
0.00777771
0.00770406
0.00758395
0.00743758
0.00727471
0.00710331
0.00692918
0.00675563
0.00658448
0.00641664
0.00625243
0.00609188
0.00593482
0.00578053
0.00562794
0.00547702
0.00532933
0.00517488
0.00756829
0.0076378
0.00765992
0.00760738
0.00750614
0.00737522
0.00722531
0.00706434
0.00689784
0.0067295
0.00656169
0.00639583
0.00623268
0.00607256
0.00591539
0.00576044
0.00560653
0.00545304
0.00530027
0.00513806
0.00756829
0.0076378
0.00765992
0.00760738
0.00750614
0.00737522
0.00722531
0.00706434
0.00689784
0.00672951
0.00656169
0.00639583
0.00623268
0.00607256
0.0059154
0.00576045
0.00560654
0.00545305
0.00530028
0.00513807
0.00771107
0.00777397
0.00777772
0.00770408
0.00758397
0.00743761
0.00727475
0.00710337
0.00692925
0.00675571
0.00658458
0.00641674
0.00625254
0.00609204
0.00593504
0.00578076
0.00562802
0.00547665
0.00532782
0.00517177
0.00797703
0.00804146
0.008012
0.00788718
0.00772822
0.00755461
0.00736841
0.00718052
0.00699457
0.0068114
0.00663255
0.00645905
0.00629133
0.00612973
0.0059745
0.00582474
0.0056781
0.00553308
0.00538981
0.00523924
0.00846322
0.00848504
0.00835786
0.00814037
0.007908
0.00767892
0.00745624
0.00724331
0.00704293
0.00685633
0.00668114
0.00651439
0.00635456
0.00620015
0.00605143
0.00591082
0.00577952
0.00565726
0.0055479
0.00545685
0.00984787
0.00910668
0.00851851
0.00811041
0.00778849
0.00752183
0.0073004
0.00710994
0.00693949
0.00678333
0.00663437
0.00648602
0.0063379
0.00619261
0.00605377
0.00592569
0.00581391
0.00572581
0.00567768
0.00569395
0.00984786
0.00910667
0.0085185
0.0081104
0.00778848
0.00752181
0.00730038
0.00710992
0.00693947
0.00678331
0.00663435
0.00648599
0.00633787
0.00619258
0.00605373
0.00592564
0.00581384
0.00572573
0.00567758
0.00569382
0.0084632
0.00848503
0.00835784
0.00814036
0.00790798
0.0076789
0.00745622
0.00724329
0.0070429
0.00685631
0.00668111
0.00651436
0.00635452
0.00620011
0.00605137
0.00591076
0.00577943
0.00565715
0.00554776
0.00545669
0.00797702
0.00804145
0.00801199
0.00788717
0.00772821
0.0075546
0.0073684
0.00718051
0.00699455
0.00681137
0.00663252
0.00645902
0.0062913
0.00612969
0.00597445
0.00582469
0.00567804
0.005533
0.00538972
0.00523915
0.00771107
0.00777396
0.00777772
0.00770407
0.00758396
0.0074376
0.00727474
0.00710335
0.00692924
0.0067557
0.00658456
0.00641672
0.00625252
0.00609202
0.00593502
0.00578073
0.00562798
0.0054766
0.00532776
0.0051717
0.00756829
0.0076378
0.00765992
0.00760738
0.00750614
0.00737521
0.00722531
0.00706434
0.00689784
0.0067295
0.00656169
0.00639583
0.00623268
0.00607255
0.00591539
0.00576044
0.00560653
0.00545304
0.00530027
0.00513806
0.00756829
0.0076378
0.00765992
0.00760738
0.00750614
0.00737522
0.00722531
0.00706434
0.00689784
0.0067295
0.00656169
0.00639583
0.00623268
0.00607256
0.0059154
0.00576045
0.00560654
0.00545306
0.0053003
0.00513809
0.00771107
0.00777396
0.00777772
0.00770407
0.00758396
0.00743758
0.00727471
0.00710332
0.00692919
0.00675564
0.00658449
0.00641665
0.00625244
0.0060919
0.00593484
0.00578055
0.00562797
0.00547707
0.0053294
0.00517496
0.00797702
0.00804146
0.00801199
0.00788715
0.00772816
0.00755453
0.00736832
0.0071804
0.00699439
0.00681113
0.00663216
0.00645849
0.00629059
0.00612866
0.00597286
0.00582227
0.00567493
0.00552975
0.00538792
0.00524049
0.00846321
0.00848504
0.00835784
0.00814035
0.00790796
0.00767886
0.00745615
0.00724318
0.00704274
0.006856
0.00668052
0.00651326
0.00635287
0.0061979
0.00604791
0.00590495
0.00577065
0.00564573
0.00553374
0.00543531
0.00984787
0.00910668
0.00851851
0.0081104
0.00778848
0.00752181
0.00730036
0.00710987
0.00693937
0.00678311
0.006634
0.00648538
0.00633684
0.00619086
0.00605057
0.00591962
0.00580339
0.00570965
0.00565269
0.00565563
0.00998205
0.00921931
0.00860054
0.00814922
0.00780526
0.00753627
0.00731673
0.00712806
0.00696044
0.00680335
0.00664824
0.00649385
0.00634116
0.00619115
0.00604514
0.00590531
0.00577458
0.00565613
0.00555985
0.00550366
0.00867915
0.00872265
0.00855709
0.00829416
0.00801379
0.00774246
0.00749151
0.00726522
0.00706235
0.00687607
0.00669948
0.00652955
0.00636481
0.00620424
0.0060476
0.0058951
0.0057471
0.00560481
0.00547366
0.00536569
0.00816004
0.0082281
0.00817573
0.00802876
0.00784389
0.00763875
0.00742809
0.00722121
0.0070201
0.00682769
0.00664514
0.00647059
0.00630201
0.00613809
0.00597789
0.00582045
0.00566486
0.00551075
0.00535862
0.0052028
0.00786215
0.00792129
0.00790935
0.00781395
0.00767432
0.00750882
0.0073286
0.00714409
0.00696005
0.00677958
0.0066043
0.00643403
0.00626809
0.00610586
0.00594673
0.0057898
0.00563408
0.00547926
0.00532626
0.0051658
0.00771107
0.00777396
0.00777771
0.00770406
0.00758395
0.00743758
0.00727471
0.00710331
0.00692919
0.00675563
0.00658449
0.00641664
0.00625243
0.00609189
0.00593483
0.00578053
0.00562794
0.00547702
0.00532934
0.00517489
0.00771107
0.00777397
0.00777772
0.00770408
0.00758397
0.00743761
0.00727475
0.00710336
0.00692925
0.00675571
0.00658457
0.00641673
0.00625253
0.00609203
0.00593503
0.00578075
0.005628
0.00547663
0.0053278
0.00517177
0.00786215
0.0079213
0.00790936
0.00781396
0.00767433
0.00750883
0.00732861
0.0071441
0.00696006
0.00677959
0.00660432
0.00643404
0.0062681
0.00610587
0.00594674
0.00578982
0.00563411
0.00547931
0.00532633
0.00516592
0.00816004
0.0082281
0.00817572
0.00802872
0.00784383
0.00763869
0.00742802
0.00722109
0.00701991
0.00682737
0.00664458
0.00646968
0.00630062
0.00613597
0.00597458
0.00581534
0.00565717
0.00549974
0.00534403
0.00518299
0.00867914
0.00872265
0.00855707
0.00829413
0.00801375
0.00774241
0.00749142
0.00726507
0.00706207
0.0068755
0.00669834
0.00652759
0.00636203
0.00620029
0.00604124
0.00588429
0.00572939
0.00557754
0.00543222
0.005292
0.00998205
0.00921932
0.00860055
0.00814923
0.00780526
0.00753625
0.00731667
0.00712793
0.00696019
0.00680291
0.00664747
0.00649256
0.00633903
0.00618767
0.0060391
0.00589443
0.00575558
0.00562574
0.00551422
0.00543902
0.0103913
0.00953978
0.0087755
0.00821634
0.00784017
0.00757213
0.00735646
0.00716352
0.00698505
0.00681647
0.00665287
0.00649204
0.00633341
0.0061766
0.00602069
0.00586425
0.00570504
0.00554035
0.00537315
0.00521034
0.00909748
0.00922367
0.00892077
0.00850453
0.00813735
0.00781867
0.00754005
0.00729949
0.00708674
0.00689189
0.00670809
0.00653196
0.00636132
0.0061941
0.00602813
0.00586151
0.00569181
0.00551691
0.00533908
0.00516949
0.00852799
0.00862896
0.00851739
0.00829189
0.0080361
0.00777765
0.00751917
0.00727741
0.00705931
0.0068587
0.00667059
0.00649169
0.00631917
0.00615058
0.00598427
0.00581891
0.00565382
0.00549115
0.00533869
0.0051967
0.00816003
0.00822809
0.00817571
0.00802872
0.00784382
0.00763868
0.00742801
0.00722108
0.0070199
0.00682736
0.00664457
0.00646966
0.00630061
0.00613597
0.00597458
0.00581533
0.00565714
0.00549969
0.00534392
0.00518275
0.00797702
0.00804145
0.00801199
0.00788715
0.00772816
0.00755452
0.00736831
0.0071804
0.00699438
0.00681112
0.00663215
0.00645848
0.00629057
0.00612865
0.00597285
0.00582224
0.00567488
0.00552967
0.00538779
0.00524029
0.00797703
0.00804146
0.008012
0.00788718
0.00772822
0.00755461
0.00736841
0.00718052
0.00699456
0.00681139
0.00663253
0.00645903
0.00629131
0.00612971
0.00597447
0.00582471
0.00567807
0.00553303
0.00538977
0.00523923
0.00816005
0.00822811
0.00817574
0.00802877
0.0078439
0.00763876
0.0074281
0.00722122
0.00702011
0.00682771
0.00664516
0.00647061
0.00630202
0.00613811
0.00597792
0.00582047
0.00566488
0.00551079
0.00535868
0.00520293
0.008528
0.00862897
0.0085174
0.0082919
0.00803611
0.00777767
0.00751919
0.00727743
0.00705932
0.00685872
0.00667061
0.00649171
0.00631918
0.00615059
0.00598428
0.00581892
0.00565383
0.00549116
0.00533871
0.00519678
0.00909749
0.00922367
0.00892076
0.00850452
0.00813734
0.00781865
0.00754
0.00729938
0.00708651
0.0068915
0.00670748
0.00653104
0.00635991
0.00619189
0.00602475
0.00585641
0.00568485
0.00550846
0.00533196
0.00516639
0.0103913
0.00953979
0.00877551
0.00821636
0.00784018
0.00757212
0.00735641
0.0071634
0.00698485
0.00681609
0.00665218
0.00649089
0.00633159
0.00617374
0.00601609
0.00585695
0.00569322
0.00552125
0.0053426
0.0051562
0.0107395
0.0100057
0.00891278
0.00824679
0.00784416
0.00757036
0.00735909
0.00717273
0.0069981
0.00683043
0.00666714
0.00650639
0.00634644
0.006186
0.00602457
0.00586059
0.00568993
0.00550154
0.00525949
0.0048736
0.010023
0.00999123
0.00926299
0.00855246
0.00810606
0.00779002
0.00753099
0.00730314
0.00709824
0.00690935
0.00673086
0.00655886
0.0063899
0.00622174
0.00605296
0.00588116
0.00570195
0.00551048
0.00532123
0.00521459
0.00909748
0.00922366
0.00892076
0.00850451
0.00813733
0.00781864
0.00753999
0.00729937
0.0070865
0.00689148
0.00670746
0.00653102
0.00635989
0.00619188
0.00602475
0.00585641
0.00568486
0.00550849
0.00533201
0.00516644
0.00867914
0.00872264
0.00855707
0.00829413
0.00801374
0.0077424
0.00749141
0.00726506
0.00706206
0.00687549
0.00669833
0.00652758
0.00636201
0.00620029
0.00604125
0.00588429
0.00572939
0.00557753
0.00543215
0.00529175
0.00846321
0.00848504
0.00835784
0.00814034
0.00790795
0.00767886
0.00745614
0.00724317
0.00704273
0.00685599
0.00668051
0.00651325
0.00635286
0.00619789
0.00604791
0.00590493
0.00577061
0.00564566
0.00553361
0.00543501
0.00846322
0.00848504
0.00835786
0.00814037
0.007908
0.00767891
0.00745623
0.0072433
0.00704292
0.00685632
0.00668113
0.00651438
0.00635454
0.00620013
0.0060514
0.00591078
0.00577946
0.00565718
0.00554778
0.00545668
0.00867916
0.00872267
0.0085571
0.00829417
0.0080138
0.00774248
0.00749153
0.00726523
0.00706236
0.00687609
0.0066995
0.00652957
0.00636484
0.00620427
0.00604763
0.00589513
0.00574712
0.00560483
0.00547368
0.0053657
0.0090975
0.00922368
0.00892078
0.00850454
0.00813736
0.00781869
0.00754007
0.00729951
0.00708676
0.00689191
0.00670811
0.00653198
0.00636135
0.00619413
0.00602815
0.00586153
0.00569182
0.00551691
0.00533906
0.00516944
0.010023
0.00999125
0.009263
0.00855247
0.00810607
0.00779003
0.00753101
0.00730316
0.00709826
0.00690937
0.00673088
0.00655889
0.00638993
0.00622177
0.00605298
0.00588118
0.00570195
0.00551046
0.00532115
0.00521443
0.0107396
0.0100057
0.00891279
0.0082468
0.00784418
0.00757037
0.00735909
0.00717272
0.00699806
0.00683034
0.00666697
0.00650608
0.00634578
0.00618468
0.00602236
0.0058571
0.00568448
0.00549275
0.00524293
0.004823
0.0179183
0.0108039
0.00851246
0.00797461
0.00770022
0.00747795
0.00729121
0.00712462
0.00696323
0.00680342
0.00664521
0.00648833
0.00633138
0.00617259
0.0060118
0.00584757
0.00567748
0.00549441
0.005242
0.00476877
0.0107396
0.0100057
0.00891279
0.0082468
0.00784417
0.00757036
0.00735908
0.00717271
0.00699805
0.00683032
0.00666695
0.00650606
0.00634576
0.00618465
0.00602233
0.00585708
0.00568449
0.00549279
0.00524303
0.00482324
0.0103913
0.00953978
0.0087755
0.00821635
0.00784017
0.00757211
0.0073564
0.00716339
0.00698484
0.00681607
0.00665217
0.00649087
0.00633157
0.00617372
0.00601607
0.00585695
0.00569325
0.00552133
0.00534278
0.00515661
0.00998205
0.00921931
0.00860054
0.00814922
0.00780526
0.00753625
0.00731666
0.00712792
0.00696018
0.0068029
0.00664746
0.00649255
0.00633903
0.00618766
0.00603909
0.00589445
0.00575563
0.00562584
0.00551442
0.00543939
0.00984787
0.00910668
0.0085185
0.0081104
0.00778848
0.0075218
0.00730036
0.00710986
0.00693936
0.00678311
0.00663399
0.00648538
0.00633683
0.00619085
0.00605056
0.00591962
0.00580341
0.00570968
0.00565274
0.00565574
0.00984787
0.00910668
0.00851851
0.00811041
0.00778849
0.00752183
0.0073004
0.00710993
0.00693949
0.00678332
0.00663436
0.00648601
0.00633789
0.0061926
0.00605376
0.00592567
0.00581388
0.00572577
0.00567764
0.0056939
0.00998206
0.00921933
0.00860056
0.00814924
0.00780528
0.00753629
0.00731674
0.00712807
0.00696046
0.00680337
0.00664826
0.00649388
0.00634119
0.00619118
0.00604516
0.00590534
0.00577462
0.00565616
0.00555989
0.00550371
0.0103913
0.0095398
0.00877552
0.00821636
0.00784019
0.00757215
0.00735648
0.00716354
0.00698507
0.00681649
0.00665289
0.00649207
0.00633344
0.00617663
0.00602072
0.00586427
0.00570506
0.00554036
0.00537314
0.00521029
0.0107396
0.0100057
0.00891279
0.0082468
0.00784418
0.00757037
0.0073591
0.00717274
0.00699812
0.00683046
0.00666717
0.00650642
0.00634647
0.00618604
0.00602461
0.00586062
0.00568995
0.00550153
0.00525945
0.00487347
0.0179184
0.0108039
0.00851247
0.00797462
0.00770023
0.00747797
0.00729122
0.00712464
0.00696325
0.00680344
0.00664523
0.00648835
0.0063314
0.00617262
0.00601183
0.00584759
0.00567748
0.0054944
0.00524194
0.0047686
0.00569089
0.00497647
0.00449057
0.0043679
0.00427032
0.00414562
0.00401639
0.00388721
0.00375719
0.00362739
0.00349768
0.00336857
0.0032399
0.00311243
0.00298497
0.00285725
0.00273023
0.00260401
0.0024795
0.00235582
0.00223358
0.00211179
0.00199085
0.00187142
0.00175291
0.00163557
0.00151866
0.00140253
0.00128722
0.00117287
0.00105988
0.000947301
0.000834782
0.000722225
0.000610928
0.000500971
0.000390485
0.000278772
0.000168798
5.17636e-05
0.0057591
0.00506153
0.00456567
0.00437699
0.00425622
0.00413095
0.00400369
0.00387608
0.00374734
0.00361824
0.00348895
0.00335993
0.00323097
0.00310274
0.00297446
0.00284627
0.00271916
0.00259302
0.00246858
0.00234511
0.00222306
0.0021019
0.00198209
0.00186365
0.00174576
0.00162861
0.00151171
0.00139564
0.00128047
0.00116637
0.0010537
0.000941627
0.000829603
0.000717429
0.000606534
0.000497027
0.000386906
0.000275852
0.000166022
5.09441e-05
0.00548148
0.00508761
0.00472463
0.00449945
0.0043307
0.00417563
0.00403103
0.00389329
0.00375845
0.00362499
0.00349224
0.00336064
0.00322942
0.00309938
0.00297046
0.00284231
0.00271524
0.00258914
0.0024645
0.00234055
0.00221806
0.00209641
0.00197619
0.00185727
0.001739
0.0016218
0.00150494
0.00138907
0.00127432
0.00116067
0.00104832
0.000936901
0.000825353
0.000713927
0.00060384
0.000494542
0.00038454
0.000273892
0.000164865
5.04209e-05
0.00518939
0.00500136
0.00477079
0.00456817
0.00439401
0.00423337
0.00408099
0.00393475
0.00379255
0.00365328
0.00351633
0.00338149
0.00324829
0.00311663
0.0029863
0.00285716
0.00272919
0.00260227
0.00247668
0.00235179
0.00222797
0.00210462
0.00198192
0.00186059
0.00174078
0.00162251
0.00150539
0.00138944
0.00127453
0.00116057
0.00104717
0.000934889
0.000822961
0.000711767
0.000602177
0.000493081
0.000383268
0.000273157
0.000164495
5.00175e-05
0.00499796
0.00491881
0.00476562
0.00458969
0.00442013
0.00425872
0.00410392
0.00395493
0.00381023
0.00366845
0.0035294
0.0033932
0.00325918
0.00312674
0.00299571
0.00286603
0.00273763
0.00261042
0.00248439
0.00235949
0.00223585
0.00211329
0.00199133
0.00187013
0.00175001
0.00163121
0.00151372
0.00139751
0.00128252
0.00116811
0.00105355
0.000939696
0.000826886
0.000715292
0.000605289
0.00049544
0.000384844
0.000274183
0.000165107
5.02736e-05
0.00493261
0.00487541
0.00475553
0.00459209
0.00442454
0.00426338
0.00410854
0.00395946
0.00381516
0.0036738
0.00353523
0.00339913
0.00326489
0.00313217
0.0030009
0.00287103
0.00274247
0.00261516
0.00248907
0.00236417
0.00224045
0.00211787
0.00199643
0.00187598
0.00175611
0.00163675
0.00151834
0.00140148
0.00128628
0.00117207
0.00105845
0.000945733
0.00083376
0.000722406
0.000611726
0.000500797
0.000389142
0.000277153
0.00016685
5.11539e-05
0.00496161
0.00489575
0.00475532
0.00458323
0.00441348
0.00425361
0.00410085
0.00395389
0.00381135
0.00367177
0.00353457
0.00339904
0.00326502
0.0031324
0.00300112
0.00287128
0.00274279
0.00261552
0.00248942
0.00236456
0.00224092
0.00211847
0.00199704
0.00187668
0.00175699
0.00163785
0.00151946
0.00140262
0.00128748
0.0011736
0.00106074
0.000948157
0.000835582
0.000723969
0.00061383
0.000503577
0.000392508
0.000280698
0.000169631
5.283e-05
0.0050981
0.00495991
0.00475111
0.00455691
0.00438802
0.00423188
0.00408303
0.00393965
0.0037999
0.00366267
0.00352678
0.00339216
0.00325898
0.00312674
0.00299549
0.00286573
0.00273754
0.00261058
0.00248485
0.00236043
0.00223719
0.0021152
0.00199385
0.00187384
0.00175501
0.00163758
0.00152123
0.00140553
0.00129082
0.00117716
0.00106455
0.000951876
0.000838785
0.000726692
0.000616415
0.000506356
0.000395548
0.000283379
0.000171279
5.38826e-05
0.0054069
0.00505614
0.00471439
0.00449332
0.00433105
0.0041852
0.00404489
0.00390888
0.0037751
0.00364201
0.00350914
0.00337742
0.00324748
0.00311894
0.00299116
0.00286305
0.00273566
0.00260905
0.00248369
0.00235974
0.00223662
0.00211458
0.00199328
0.00187367
0.00175515
0.0016384
0.00152258
0.00140696
0.00129189
0.00117766
0.00106471
0.000951881
0.000838711
0.000726123
0.000615171
0.000504501
0.000393443
0.000281319
0.000169086
5.29128e-05
0.00567902
0.0050456
0.0045942
0.00442344
0.00429902
0.00416094
0.00402559
0.00389483
0.00376469
0.00363517
0.00350519
0.00337619
0.00324905
0.00312271
0.00299642
0.00286902
0.00274188
0.00261559
0.00249053
0.00236687
0.00224398
0.00212161
0.00199977
0.00187955
0.00176087
0.00164332
0.00152653
0.00141029
0.00129473
0.00118009
0.00106684
0.000953897
0.000840723
0.000727916
0.000616534
0.000505131
0.000393758
0.000282209
0.00017038
5.35614e-05
0.00569095
0.00497669
0.00449155
0.00437036
0.00427209
0.00414488
0.00401406
0.00388503
0.00375553
0.00362657
0.00349698
0.00336815
0.00324071
0.00311319
0.00298561
0.00285765
0.00273049
0.00260435
0.00247948
0.00235597
0.0022333
0.00211146
0.00199058
0.00187126
0.00175316
0.00163579
0.00151909
0.00140294
0.0012876
0.00117321
0.00106018
0.00094763
0.000834984
0.000722643
0.000611695
0.000500764
0.000389934
0.00027878
0.000168738
5.16434e-05
0.00567909
0.00504551
0.004593
0.004421
0.00429727
0.0041615
0.00402783
0.00389714
0.00376654
0.00363615
0.00350595
0.00337656
0.00324822
0.00312193
0.00299573
0.00286857
0.00274152
0.00261515
0.00249045
0.00236663
0.00224421
0.00212185
0.00199992
0.00187954
0.00176052
0.00164304
0.0015261
0.00140987
0.00129431
0.00117968
0.00106644
0.00095347
0.000840449
0.000727376
0.000615577
0.000505201
0.00039432
0.000282157
0.000170288
5.35731e-05
0.00548614
0.00505214
0.00469327
0.00447635
0.0043158
0.0041679
0.00402821
0.00389491
0.00376413
0.00363411
0.00350446
0.00337562
0.00324687
0.00311916
0.00299176
0.00286457
0.00273792
0.00261222
0.00248817
0.00236461
0.00224278
0.00212102
0.00200002
0.00188024
0.00176114
0.00164363
0.00152627
0.00140971
0.00129418
0.00117962
0.00106627
0.000953354
0.000840261
0.000727408
0.000615833
0.000505288
0.00039446
0.000282501
0.000171575
5.41975e-05
0.0052597
0.00499991
0.004754
0.00454022
0.0043608
0.00419822
0.00404633
0.00390337
0.00376584
0.00363109
0.00349843
0.00336713
0.00323714
0.00310819
0.00298033
0.00285353
0.00272734
0.0026023
0.00247838
0.00235505
0.00223235
0.00211035
0.00198935
0.00186946
0.00175048
0.00163282
0.00151622
0.00140041
0.00128573
0.00117202
0.00105856
0.000945708
0.000833059
0.000721433
0.000611327
0.000500956
0.000389702
0.000278398
0.000168822
5.30914e-05
0.00511437
0.00493218
0.00474212
0.00455155
0.00437815
0.00421822
0.00406646
0.00392149
0.00378136
0.00364455
0.00351036
0.00337779
0.00324692
0.00311726
0.00298865
0.00286114
0.00273449
0.00260886
0.00248404
0.00236043
0.00223741
0.00211512
0.00199353
0.00187329
0.0017544
0.00163614
0.00151906
0.00140286
0.00128756
0.00117293
0.00105846
0.00094453
0.000831645
0.00072001
0.000609483
0.000498728
0.00038764
0.000276884
0.000167325
5.31891e-05
0.00491818
0.00477546
0.00465449
0.00450678
0.00435395
0.00420685
0.00406355
0.00392278
0.0037846
0.00364886
0.00351532
0.00338331
0.00325239
0.00312249
0.00299371
0.00286601
0.0027393
0.00261356
0.00248872
0.00236497
0.00224191
0.00211948
0.00199807
0.00187787
0.00175864
0.0016401
0.00152277
0.00140671
0.00129142
0.00117643
0.0010618
0.000947733
0.000834855
0.000722827
0.000611042
0.000498896
0.000386697
0.000275401
0.000165767
5.33778e-05
0.00483739
0.00470371
0.00461254
0.00448412
0.00434094
0.00420107
0.0040629
0.00392478
0.00378763
0.00365261
0.0035194
0.00338728
0.00325619
0.00312617
0.00299726
0.00286938
0.00274245
0.00261652
0.00249164
0.00236768
0.00224447
0.00212201
0.0020006