/*--------------------------------*- C++ -*----------------------------------*\
| =========                 |                                                 |
| \\      /  F ield         | OpenFOAM: The Open Source CFD Toolbox           |
|  \\    /   O peration     | Version:  2212                                  |
|   \\  /    A nd           | Website:  www.openfoam.com                      |
|    \\/     M anipulation  |                                                 |
\*---------------------------------------------------------------------------*/
FoamFile
{
    version     2.0;
    format      ascii;
    arch        "LSB;label=32;scalar=64";
    class       surfaceScalarField;
    location    "2.3";
    object      phi;
}
// * * * * * * * * * * * * * * * * * * * * * * * * * * * * * * * * * * * * * //

dimensions      [0 3 -1 0 0 0 0];

oriented        oriented;

internalField   nonuniform List<scalar> 
19019
(
3.3225e-07
1.09685e-09
1.09679e-09
2.79191e-07
2.65295e-08
2.65295e-08
2.49218e-07
1.49863e-08
1.49862e-08
2.29255e-07
9.98172e-09
9.98173e-09
2.14836e-07
7.20932e-09
7.20975e-09
2.03201e-07
5.81718e-09
5.81784e-09
1.93774e-07
4.71268e-09
4.71434e-09
1.86007e-07
3.88171e-09
3.88484e-09
1.7936e-07
3.32062e-09
3.32624e-09
1.73534e-07
2.90801e-09
2.91801e-09
1.68366e-07
2.5758e-09
2.59214e-09
1.63753e-07
2.29331e-09
2.32021e-09
1.59608e-07
2.0478e-09
2.09762e-09
1.55862e-07
1.82458e-09
1.92069e-09
1.52538e-07
1.58072e-09
1.74376e-09
1.49689e-07
1.29511e-09
1.55337e-09
1.47491e-07
9.09186e-10
1.2886e-09
1.47195e-07
-1.00299e-10
3.96736e-10
1.51049e-07
-2.29996e-09
-1.55451e-09
-2.45639e-08
-1.8838e-08
6.3138e-07
3.58749e-09
7.40291e-09
6.14564e-07
2.26452e-08
2.07005e-08
5.86446e-07
2.4375e-08
1.87295e-08
5.61727e-07
1.88529e-08
1.58474e-08
5.39621e-07
1.55658e-08
1.37498e-08
5.20643e-07
1.35039e-08
1.12917e-08
5.04701e-07
1.19411e-08
8.71347e-09
4.90954e-07
1.07817e-08
6.84658e-09
4.78744e-07
9.91694e-09
5.6142e-09
4.67679e-07
9.18733e-09
4.78506e-09
4.5753e-07
8.53006e-09
4.19478e-09
4.48161e-07
7.91398e-09
3.74842e-09
4.39479e-07
7.31478e-09
3.41501e-09
4.31423e-07
6.7081e-09
3.17246e-09
4.24008e-07
6.03461e-09
2.96173e-09
4.17378e-07
5.19478e-09
2.72978e-09
4.12026e-07
3.94645e-09
2.31486e-09
4.09647e-07
1.32512e-09
9.53714e-10
4.14837e-07
-4.14097e-09
-3.3492e-09
-2.23433e-08
-2.29973e-08
8.90375e-07
2.85246e-09
6.3324e-09
8.82486e-07
1.34078e-08
1.7126e-08
8.70359e-07
1.78656e-08
1.86364e-08
8.55112e-07
1.69522e-08
1.71479e-08
8.39981e-07
1.5335e-08
1.53616e-08
8.25531e-07
1.41613e-08
1.37922e-08
8.11761e-07
1.33646e-08
1.23466e-08
7.98765e-07
1.26498e-08
1.11288e-08
7.86687e-07
1.18443e-08
1.01498e-08
7.75538e-07
1.09709e-08
9.36582e-09
7.65174e-07
1.0116e-08
8.77795e-09
7.55442e-07
9.28734e-09
8.35852e-09
7.46217e-07
8.47452e-09
8.06551e-09
7.37434e-07
7.63771e-09
7.85337e-09
7.29082e-07
6.68353e-09
7.70258e-09
7.21257e-07
5.45918e-09
7.56147e-09
7.14147e-07
3.71708e-09
7.3388e-09
7.07719e-07
9.51825e-10
6.80156e-09
7.01636e-07
-3.87448e-09
5.81646e-09
-1.02556e-08
3.41201e-09
1.07432e-06
1.06472e-09
5.56892e-09
1.06824e-06
5.5862e-09
1.39003e-08
1.06138e-06
8.46337e-09
1.62622e-08
1.05338e-06
9.03875e-09
1.59099e-08
1.04509e-06
8.61614e-09
1.50044e-08
1.0372e-06
8.11779e-09
1.39372e-08
1.0298e-06
7.78211e-09
1.29836e-08
1.02278e-06
7.54695e-09
1.21257e-08
1.0159e-06
7.35734e-09
1.13637e-08
1.00908e-06
7.06373e-09
1.07251e-08
1.00234e-06
6.60862e-09
1.02536e-08
9.95609e-07
6.08345e-09
9.93178e-09
9.88796e-07
5.54506e-09
9.74201e-09
9.81748e-07
4.99523e-09
9.69041e-09
9.74245e-07
4.39974e-09
9.78683e-09
9.65976e-07
3.65636e-09
1.00725e-08
9.56416e-07
2.64283e-09
1.06341e-08
9.44671e-07
1.14259e-09
1.15539e-08
9.29465e-07
-1.31941e-09
1.26507e-08
-3.32524e-09
1.67705e-08
1.16914e-06
1.0846e-14
4.90661e-09
1.16312e-06
7.41042e-14
1.16086e-08
1.15731e-06
2.57172e-13
1.42759e-08
1.15201e-06
5.48043e-13
1.43348e-08
1.14689e-06
1.05324e-12
1.37334e-08
1.14203e-06
2.05665e-12
1.2975e-08
1.1377e-06
4.02992e-12
1.21098e-08
1.13392e-06
7.37304e-12
1.13233e-08
1.13059e-06
1.32095e-11
1.06762e-08
1.12739e-06
2.30067e-11
1.02349e-08
1.12399e-06
3.9454e-11
9.96978e-09
1.12019e-06
6.67651e-11
9.81536e-09
1.11583e-06
1.12275e-10
9.79719e-09
1.11066e-06
1.92942e-10
9.96891e-09
1.10437e-06
3.26671e-10
1.03702e-08
1.09637e-06
5.39579e-10
1.11107e-08
1.08572e-06
8.87711e-10
1.24092e-08
1.07084e-06
1.48178e-09
1.4537e-08
1.04951e-06
2.45228e-09
1.75611e-08
5.03427e-09
2.64031e-08
1.16914e-06
-1.06468e-09
4.9066e-09
1.16312e-06
-5.58607e-09
1.16086e-08
1.15731e-06
-8.46312e-09
1.4276e-08
1.15201e-06
-9.03827e-09
1.43347e-08
1.1469e-06
-8.61492e-09
1.37327e-08
1.14204e-06
-8.11495e-09
1.29735e-08
1.13771e-06
-7.7763e-09
1.21074e-08
1.13394e-06
-7.5362e-09
1.13192e-08
1.13062e-06
-7.33743e-09
1.0669e-08
1.12745e-06
-7.02972e-09
1.02222e-08
1.12409e-06
-6.55211e-09
9.94889e-09
1.12037e-06
-5.99131e-09
9.78035e-09
1.11614e-06
-5.39232e-09
9.73379e-09
1.11122e-06
-4.73512e-09
9.84916e-09
1.10536e-06
-3.97773e-09
1.01602e-08
1.0981e-06
-2.93938e-09
1.07446e-08
1.08863e-06
-1.42591e-09
1.17806e-08
1.07575e-06
8.81993e-10
1.34834e-08
1.0578e-06
4.48447e-09
1.59155e-08
1.07807e-08
2.07503e-08
1.07432e-06
-2.85249e-09
5.56894e-09
1.06824e-06
-1.34079e-08
1.39004e-08
1.06138e-06
-1.78659e-08
1.6262e-08
1.05338e-06
-1.69526e-08
1.59091e-08
1.0451e-06
-1.53353e-08
1.50027e-08
1.03721e-06
-1.41612e-08
1.39345e-08
1.02982e-06
-1.33639e-08
1.29795e-08
1.02281e-06
-1.26486e-08
1.2119e-08
1.01597e-06
-1.18418e-08
1.13522e-08
1.0092e-06
-1.09663e-08
1.07046e-08
1.00254e-06
-1.01089e-08
1.02184e-08
9.95953e-07
-9.27681e-09
9.86937e-09
9.89384e-07
-8.45815e-09
9.63455e-09
9.82755e-07
-7.61134e-09
9.50611e-09
9.75952e-07
-6.6473e-09
9.47224e-09
9.68858e-07
-5.35898e-09
9.51423e-09
9.61313e-07
-3.5143e-09
9.63309e-09
9.52855e-07
-5.35253e-10
9.87509e-09
9.42552e-07
4.45769e-09
1.03298e-08
1.40044e-08
1.08986e-08
8.90375e-07
-3.58751e-09
6.33237e-09
8.82486e-07
-2.26454e-08
1.71258e-08
8.7036e-07
-2.43752e-08
1.86357e-08
8.55114e-07
-1.88533e-08
1.71468e-08
8.39985e-07
-1.55668e-08
1.53599e-08
8.2554e-07
-1.35056e-08
1.379e-08
8.11777e-07
-1.19441e-08
1.23429e-08
7.98793e-07
-1.07864e-08
1.11223e-08
7.86737e-07
-9.92495e-09
1.01393e-08
7.75623e-07
-9.20122e-09
9.3485e-09
7.65319e-07
-8.55424e-09
8.74909e-09
7.55686e-07
-7.95286e-09
8.30943e-09
7.46619e-07
-7.37535e-09
7.98449e-09
7.38091e-07
-6.80737e-09
7.72348e-09
7.3015e-07
-6.1918e-09
7.48548e-09
7.23063e-07
-5.43856e-09
7.16703e-09
7.17247e-07
-4.31345e-09
6.61554e-09
7.12955e-07
-1.64567e-09
5.40213e-09
7.10413e-07
3.6921e-09
3.3083e-09
1.97896e-08
-2.02692e-09
6.3138e-07
-1.09681e-09
7.40288e-09
6.14564e-07
-2.65295e-08
2.07003e-08
5.86446e-07
-1.49863e-08
1.87291e-08
5.61728e-07
-9.98177e-09
1.58467e-08
5.39622e-07
-7.20978e-09
1.37489e-08
5.20644e-07
-5.81788e-09
1.12899e-08
5.04704e-07
-4.71437e-09
8.71066e-09
4.9096e-07
-3.88487e-09
6.8419e-09
4.78756e-07
-3.32628e-09
5.60624e-09
4.67701e-07
-2.91804e-09
4.77119e-09
4.57572e-07
-2.59218e-09
4.16723e-09
4.48239e-07
-2.32025e-09
3.70055e-09
4.3961e-07
-2.09776e-09
3.35127e-09
4.31623e-07
-1.92071e-09
3.10018e-09
4.24319e-07
-1.74351e-09
2.85588e-09
4.17879e-07
-1.55321e-09
2.55512e-09
4.12892e-07
-1.28849e-09
1.96198e-09
4.11431e-07
-3.96563e-10
2.12146e-10
4.18191e-07
1.55495e-09
-4.62257e-09
1.88409e-08
-2.24314e-08
3.3225e-07
1.09684e-09
2.79191e-07
2.65295e-08
2.49218e-07
1.49862e-08
2.29255e-07
9.98169e-09
2.14836e-07
7.20929e-09
2.03201e-07
5.81716e-09
1.93774e-07
4.71266e-09
1.86007e-07
3.8817e-09
1.7936e-07
3.32063e-09
1.73534e-07
2.90803e-09
1.68366e-07
2.57582e-09
1.63753e-07
2.29333e-09
1.59607e-07
2.04793e-09
1.55861e-07
1.82485e-09
1.52537e-07
1.58113e-09
1.49688e-07
1.29573e-09
1.47489e-07
9.09971e-10
1.47192e-07
-9.94898e-11
1.51047e-07
-2.29912e-09
-2.45601e-08
6.3138e-07
7.40288e-09
3.5875e-09
6.14564e-07
2.07003e-08
2.26454e-08
5.86446e-07
1.87291e-08
2.43751e-08
5.61728e-07
1.58467e-08
1.88532e-08
5.39622e-07
1.37489e-08
1.55667e-08
5.20644e-07
1.12899e-08
1.35056e-08
5.04704e-07
8.71061e-09
1.1944e-08
4.90961e-07
6.84182e-09
1.07864e-08
4.78756e-07
5.60615e-09
9.92487e-09
4.67702e-07
4.77107e-09
9.20113e-09
4.57573e-07
4.16711e-09
8.55412e-09
4.4824e-07
3.70039e-09
7.95269e-09
4.39612e-07
3.35079e-09
7.37525e-09
4.31626e-07
3.09967e-09
6.80707e-09
4.24322e-07
2.8558e-09
6.19129e-09
4.17883e-07
2.55469e-09
5.43791e-09
4.12898e-07
1.96138e-09
4.3126e-09
4.11438e-07
2.11607e-10
1.64475e-09
4.182e-07
-4.62287e-09
-3.69307e-09
-2.243e-08
-1.97873e-08
9.23617e-07
7.03375e-09
7.0338e-09
9.25318e-07
1.98494e-08
1.98496e-08
9.17185e-07
2.27958e-08
2.27962e-08
9.04277e-07
2.23006e-08
2.23015e-08
8.90537e-07
2.06186e-08
2.062e-08
8.77415e-07
1.78504e-08
1.78531e-08
8.6545e-07
1.46922e-08
1.46967e-08
8.54781e-07
1.21756e-08
1.21827e-08
8.45355e-07
1.03169e-08
1.03294e-08
8.37033e-07
8.92804e-09
8.94994e-09
8.29637e-07
7.86e-09
7.89765e-09
8.22993e-07
7.01511e-09
7.07738e-09
8.17023e-07
6.3189e-09
6.41708e-09
8.11767e-07
5.68727e-09
5.84131e-09
8.07316e-07
5.01381e-09
5.25459e-09
8.03824e-07
4.20731e-09
4.56901e-09
8.01472e-07
3.04262e-09
3.58564e-09
7.9961e-07
1.11157e-09
1.91581e-09
7.94975e-07
-2.14713e-09
-1.1899e-09
-7.82161e-09
-6.64064e-09
1.1589e-06
5.28115e-09
6.10258e-09
1.1657e-06
1.3998e-08
1.61828e-08
1.16845e-06
1.79767e-08
2.07065e-08
1.16661e-06
1.91768e-08
2.21047e-08
1.16221e-06
1.88729e-08
2.15062e-08
1.15655e-06
1.75397e-08
1.97713e-08
1.15048e-06
1.56751e-08
1.74276e-08
1.14458e-06
1.38685e-08
1.5334e-08
1.13916e-06
1.22535e-08
1.36381e-08
1.13434e-06
1.08329e-08
1.22834e-08
1.13012e-06
9.63932e-09
1.12138e-08
1.12648e-06
8.63245e-09
1.03785e-08
1.12341e-06
7.73714e-09
9.72092e-09
1.1209e-06
6.87132e-09
9.17698e-09
1.11897e-06
5.94461e-09
8.7029e-09
1.11766e-06
4.85555e-09
8.22641e-09
1.11695e-06
3.43998e-09
7.64962e-09
1.11658e-06
1.47196e-09
6.81242e-09
1.1161e-06
-1.35768e-09
5.501e-09
-5.23215e-09
3.89141e-09
1.32762e-06
2.7181e-09
4.93116e-09
1.33539e-06
7.12045e-09
1.30091e-08
1.34286e-06
9.55267e-09
1.72163e-08
1.34847e-06
1.05768e-08
1.89011e-08
1.35197e-06
1.08734e-08
1.95052e-08
1.35375e-06
1.05775e-08
1.91222e-08
1.35441e-06
9.8868e-09
1.81123e-08
1.35453e-06
9.03764e-09
1.68305e-08
1.35448e-06
8.18012e-09
1.54947e-08
1.35438e-06
7.37334e-09
1.42843e-08
1.35429e-06
6.64224e-09
1.33343e-08
1.35426e-06
5.98294e-09
1.26171e-08
1.35427e-06
5.3712e-09
1.20992e-08
1.35429e-06
4.77392e-09
1.17609e-08
1.35429e-06
4.13639e-09
1.15964e-08
1.35417e-06
3.42279e-09
1.16233e-08
1.35379e-06
2.563e-09
1.18912e-08
1.35287e-06
1.49791e-09
1.24532e-08
1.35063e-06
1.99655e-10
1.33343e-08
-8.12635e-10
1.4953e-08
1.41518e-06
4.16675e-14
4.19296e-09
1.42279e-06
1.2701e-13
1.11162e-08
1.43152e-06
2.25737e-13
1.50992e-08
1.4398e-06
5.06759e-13
1.6631e-08
1.44712e-06
1.11668e-12
1.72796e-08
1.45316e-06
2.18394e-12
1.75176e-08
1.45798e-06
3.84783e-12
1.71659e-08
1.46188e-06
6.5759e-12
1.64578e-08
1.46514e-06
1.15557e-11
1.55843e-08
1.468e-06
2.09962e-11
1.47269e-08
1.47062e-06
3.71152e-11
1.39537e-08
1.47303e-06
6.43215e-11
1.33258e-08
1.47515e-06
1.0353e-10
1.29408e-08
1.47693e-06
1.63645e-10
1.28068e-08
1.47829e-06
2.59244e-10
1.28827e-08
1.47915e-06
4.05723e-10
1.32665e-08
1.47942e-06
6.26604e-10
1.40824e-08
1.47904e-06
9.5458e-10
1.54536e-08
1.47799e-06
1.44477e-09
1.73735e-08
2.27877e-09
1.96154e-08
1.41518e-06
-2.71807e-09
4.19293e-09
1.42279e-06
-7.12036e-09
1.11162e-08
1.43152e-06
-9.5525e-09
1.50991e-08
1.4398e-06
-1.05764e-08
1.66306e-08
1.44713e-06
-1.08723e-08
1.72784e-08
1.45316e-06
-1.05753e-08
1.75155e-08
1.45799e-06
-9.88267e-09
1.71622e-08
1.4619e-06
-9.03037e-09
1.64521e-08
1.46517e-06
-8.1672e-09
1.55755e-08
1.46805e-06
-7.34827e-09
1.47122e-08
1.47071e-06
-6.59728e-09
1.39283e-08
1.47318e-06
-5.90624e-09
1.32804e-08
1.47541e-06
-5.25619e-09
1.28626e-08
1.47733e-06
-4.59634e-09
1.2684e-08
1.47891e-06
-3.84964e-09
1.26942e-08
1.48007e-06
-2.95211e-09
1.29413e-08
1.48072e-06
-1.79234e-09
1.35473e-08
1.48082e-06
-2.64641e-10
1.46033e-08
1.48033e-06
1.80129e-09
1.60456e-08
4.3193e-09
1.7526e-08
1.32763e-06
-5.28122e-09
4.93109e-09
1.33539e-06
-1.39982e-08
1.30089e-08
1.34287e-06
-1.79769e-08
1.72157e-08
1.34848e-06
-1.91772e-08
1.88995e-08
1.35198e-06
-1.88735e-08
1.95022e-08
1.35376e-06
-1.75409e-08
1.91173e-08
1.35443e-06
-1.56766e-08
1.81048e-08
1.35457e-06
-1.387e-08
1.68186e-08
1.35453e-06
-1.22564e-08
1.54765e-08
1.35447e-06
-1.08381e-08
1.42547e-08
1.35446e-06
-9.64885e-09
1.3283e-08
1.35454e-06
-8.65107e-09
1.25309e-08
1.35474e-06
-7.77734e-09
1.19591e-08
1.35506e-06
-6.9456e-09
1.15339e-08
1.35552e-06
-6.05974e-09
1.12245e-08
1.35609e-06
-5.02051e-09
1.10087e-08
1.35672e-06
-3.66028e-09
1.08766e-08
1.35727e-06
-1.77109e-09
1.08283e-08
1.35763e-06
9.06505e-10
1.08688e-08
4.6819e-09
1.09309e-08
1.1589e-06
-7.0338e-09
6.10247e-09
1.1657e-06
-1.98496e-08
1.61824e-08
1.16845e-06
-2.27962e-08
2.07053e-08
1.16661e-06
-2.23015e-08
2.21029e-08
1.16222e-06
-2.062e-08
2.15035e-08
1.15655e-06
-1.78531e-08
1.97675e-08
1.15049e-06
-1.46967e-08
1.74215e-08
1.14461e-06
-1.21827e-08
1.53233e-08
1.1392e-06
-1.03294e-08
1.36197e-08
1.13441e-06
-8.94996e-09
1.22531e-08
1.13024e-06
-7.89769e-09
1.11638e-08
1.12668e-06
-7.07749e-09
1.02985e-08
1.12371e-06
-6.41768e-09
9.5946e-09
1.12135e-06
-5.84121e-09
8.98e-09
1.11963e-06
-5.25374e-09
8.39509e-09
1.1186e-06
-4.56902e-09
7.74278e-09
1.11827e-06
-3.58603e-09
6.87389e-09
1.11822e-06
-1.91608e-09
5.59592e-09
1.11756e-06
1.19033e-09
3.68354e-09
6.63952e-09
1.23737e-09
9.23617e-07
-7.4029e-09
7.03375e-09
9.25318e-07
-2.07005e-08
1.98494e-08
9.17185e-07
-1.87294e-08
2.27958e-08
9.04277e-07
-1.58473e-08
2.23006e-08
8.90537e-07
-1.37498e-08
2.06186e-08
8.77415e-07
-1.12917e-08
1.78505e-08
8.6545e-07
-8.71344e-09
1.46923e-08
8.5478e-07
-6.84654e-09
1.21758e-08
8.45354e-07
-5.61417e-09
1.03171e-08
8.37032e-07
-4.78501e-09
8.92832e-09
8.29636e-07
-4.1947e-09
7.86032e-09
8.22992e-07
-3.74832e-09
7.01546e-09
8.17021e-07
-3.41514e-09
6.31966e-09
8.11764e-07
-3.17256e-09
5.68811e-09
8.07314e-07
-2.96147e-09
5.01441e-09
8.03821e-07
-2.72977e-09
4.20825e-09
8.01469e-07
-2.31478e-09
3.04358e-09
7.99606e-07
-9.53194e-10
1.11237e-09
7.9497e-07
3.35057e-09
-2.14698e-09
2.29982e-08
-7.82067e-09
6.3138e-07
3.58748e-09
6.14564e-07
2.26452e-08
5.86446e-07
2.4375e-08
5.61727e-07
1.88529e-08
5.39621e-07
1.55658e-08
5.20643e-07
1.35039e-08
5.04701e-07
1.19412e-08
4.90954e-07
1.07818e-08
4.78743e-07
9.91711e-09
4.67679e-07
9.18756e-09
4.5753e-07
8.53033e-09
4.4816e-07
7.91428e-09
4.39478e-07
7.31497e-09
4.31422e-07
6.70897e-09
4.24005e-07
6.03621e-09
4.17375e-07
5.19647e-09
4.12022e-07
3.9483e-09
4.09642e-07
1.32725e-09
4.14832e-07
-4.13851e-09
-2.23393e-08
8.90375e-07
6.33237e-09
2.85248e-09
8.82486e-07
1.71258e-08
1.34079e-08
8.7036e-07
1.86357e-08
1.78658e-08
8.55114e-07
1.71468e-08
1.69526e-08
8.39986e-07
1.53599e-08
1.53352e-08
8.2554e-07
1.37899e-08
1.41611e-08
8.11777e-07
1.23429e-08
1.33639e-08
7.98793e-07
1.11222e-08
1.26486e-08
7.86737e-07
1.01392e-08
1.18417e-08
7.75624e-07
9.34834e-09
1.09662e-08
7.6532e-07
8.74887e-09
1.01088e-08
7.55687e-07
8.30906e-09
9.27661e-09
7.46621e-07
7.98393e-09
8.45794e-09
7.38094e-07
7.72292e-09
7.61086e-09
7.30154e-07
7.48467e-09
6.64649e-09
7.23069e-07
7.16572e-09
5.35807e-09
7.17254e-07
6.61377e-09
3.51334e-09
7.12965e-07
5.39987e-09
5.34283e-10
7.10425e-07
3.30555e-09
-4.45882e-09
-2.03064e-09
-1.40034e-08
1.1589e-06
6.10247e-09
5.28121e-09
1.1657e-06
1.61823e-08
1.39982e-08
1.16845e-06
2.07053e-08
1.79769e-08
1.16661e-06
2.21028e-08
1.91772e-08
1.16222e-06
2.15034e-08
1.88735e-08
1.15655e-06
1.97674e-08
1.75409e-08
1.15049e-06
1.74214e-08
1.56766e-08
1.14461e-06
1.53231e-08
1.387e-08
1.1392e-06
1.36194e-08
1.22563e-08
1.13441e-06
1.22528e-08
1.0838e-08
1.13024e-06
1.11634e-08
9.64872e-09
1.12668e-06
1.02979e-08
8.6508e-09
1.12371e-06
9.59354e-09
7.77678e-09
1.12135e-06
8.97934e-09
6.94567e-09
1.11963e-06
8.39465e-09
6.0602e-09
1.11861e-06
7.74164e-09
5.02025e-09
1.11827e-06
6.87232e-09
3.65952e-09
1.11822e-06
5.59441e-09
1.77017e-09
1.11757e-06
3.68244e-09
-9.07464e-10
1.23467e-09
-4.68425e-09
1.37712e-06
4.57704e-09
4.57716e-09
1.38565e-06
1.19162e-08
1.19166e-08
1.39417e-06
1.64452e-08
1.6446e-08
1.40126e-06
1.85576e-08
1.85589e-08
1.40642e-06
1.89256e-08
1.89277e-08
1.40953e-06
1.82151e-08
1.82184e-08
1.41096e-06
1.67044e-08
1.67099e-08
1.41156e-06
1.50245e-08
1.5033e-08
1.41186e-06
1.34696e-08
1.34833e-08
1.41215e-06
1.2115e-08
1.21368e-08
1.41259e-06
1.09482e-08
1.09832e-08
1.41332e-06
9.94733e-09
1.00033e-08
1.4144e-06
9.07218e-09
9.16234e-09
1.41587e-06
8.2708e-09
8.4141e-09
1.41776e-06
7.49753e-09
7.71677e-09
1.42003e-06
6.68528e-09
7.01272e-09
1.42255e-06
5.75979e-09
6.24133e-09
1.42493e-06
4.66693e-09
5.35624e-09
1.4263e-06
3.42868e-09
4.38433e-09
2.42704e-09
3.72411e-09
1.53312e-06
2.36584e-09
3.64934e-09
1.54218e-06
6.23832e-09
9.63396e-09
1.55327e-06
8.87248e-09
1.3692e-08
1.56445e-06
1.03458e-08
1.59374e-08
1.57507e-06
1.08976e-08
1.69133e-08
1.58471e-06
1.07515e-08
1.69484e-08
1.593e-06
1.01389e-08
1.6382e-08
1.60008e-06
9.3244e-09
1.54558e-08
1.60623e-06
8.44937e-09
1.43603e-08
1.61173e-06
7.62334e-09
1.32764e-08
1.61682e-06
6.88982e-09
1.23032e-08
1.62167e-06
6.24702e-09
1.14701e-08
1.62639e-06
5.66885e-09
1.07829e-08
1.63107e-06
5.12082e-09
1.02343e-08
1.63576e-06
4.58431e-09
9.81394e-09
1.64052e-06
4.03359e-09
9.51633e-09
1.64538e-06
3.44201e-09
9.34451e-09
1.65042e-06
2.78525e-09
9.30074e-09
1.65576e-06
2.06864e-09
9.35309e-09
1.43346e-09
9.55133e-09
1.61424e-06
2.95681e-14
3.09292e-09
1.62332e-06
6.49298e-14
8.27426e-09
1.63533e-06
1.29534e-13
1.19576e-08
1.64819e-06
2.86463e-13
1.41155e-08
1.66117e-06
6.16012e-13
1.52024e-08
1.67385e-06
1.08844e-12
1.55868e-08
1.68572e-06
1.96985e-12
1.54361e-08
1.69653e-06
3.28798e-12
1.49687e-08
1.70625e-06
5.7256e-12
1.43023e-08
1.71505e-06
1.00428e-11
1.3541e-08
1.7231e-06
1.702e-11
1.27782e-08
1.73056e-06
2.75506e-11
1.20874e-08
1.7376e-06
4.17367e-11
1.15249e-08
1.74434e-06
6.12135e-11
1.11258e-08
1.7508e-06
9.42556e-11
1.09148e-08
1.75704e-06
1.51505e-10
1.09075e-08
1.7632e-06
2.32647e-10
1.1127e-08
1.76952e-06
3.41996e-10
1.15833e-08
1.77627e-06
4.82744e-10
1.22089e-08
6.81858e-10
1.28595e-08
1.61424e-06
-2.36585e-09
3.09287e-09
1.62332e-06
-6.23836e-09
8.27407e-09
1.63533e-06
-8.87254e-09
1.19572e-08
1.6482e-06
-1.03458e-08
1.41147e-08
1.66117e-06
-1.08977e-08
1.52008e-08
1.67385e-06
-1.07517e-08
1.55843e-08
1.68573e-06
-1.01388e-08
1.54326e-08
1.69654e-06
-9.32388e-09
1.49634e-08
1.70628e-06
-8.44802e-09
1.4294e-08
1.71509e-06
-7.61951e-09
1.35277e-08
1.72316e-06
-6.88139e-09
1.27565e-08
1.73065e-06
-6.23149e-09
1.20519e-08
1.73773e-06
-5.64587e-09
1.14678e-08
1.74453e-06
-5.0894e-09
1.10368e-08
1.75107e-06
-4.53171e-09
1.07767e-08
1.75741e-06
-3.93523e-09
1.06918e-08
1.76366e-06
-3.26572e-09
1.07987e-08
1.76998e-06
-2.48226e-09
1.10998e-08
1.77655e-06
-1.56591e-09
1.15285e-08
-5.92509e-10
1.19367e-08
1.53312e-06
-4.57717e-09
3.6492e-09
1.54218e-06
-1.19166e-08
9.63351e-09
1.55328e-06
-1.6446e-08
1.36911e-08
1.56445e-06
-1.85589e-08
1.59357e-08
1.57507e-06
-1.89277e-08
1.69105e-08
1.58471e-06
-1.82184e-08
1.69439e-08
1.59302e-06
-1.67099e-08
1.63751e-08
1.6001e-06
-1.5033e-08
1.54447e-08
1.60627e-06
-1.34833e-08
1.43431e-08
1.61179e-06
-1.21368e-08
1.32496e-08
1.61691e-06
-1.09833e-08
1.226e-08
1.62182e-06
-1.00033e-08
1.14008e-08
1.62662e-06
-9.1625e-09
1.06702e-08
1.63143e-06
-8.41418e-09
1.00526e-08
1.63631e-06
-7.7168e-09
9.52692e-09
1.64133e-06
-7.01286e-09
9.06892e-09
1.64652e-06
-6.24154e-09
8.65821e-09
1.65195e-06
-5.35648e-09
8.27772e-09
1.65772e-06
-4.38476e-09
7.91184e-09
-3.72626e-09
7.62529e-09
1.37712e-06
-6.10258e-09
4.57705e-09
1.38565e-06
-1.61828e-08
1.19163e-08
1.39417e-06
-2.07065e-08
1.64453e-08
1.40126e-06
-2.21047e-08
1.85577e-08
1.40642e-06
-2.15062e-08
1.89257e-08
1.40953e-06
-1.97713e-08
1.82153e-08
1.41096e-06
-1.74276e-08
1.67047e-08
1.41156e-06
-1.5334e-08
1.50249e-08
1.41186e-06
-1.36381e-08
1.347e-08
1.41215e-06
-1.22834e-08
1.21155e-08
1.41259e-06
-1.12137e-08
1.09489e-08
1.41332e-06
-1.03784e-08
9.94817e-09
1.4144e-06
-9.72083e-09
9.07323e-09
1.41587e-06
-9.17705e-09
8.27188e-09
1.41775e-06
-8.70311e-09
7.4986e-09
1.42002e-06
-8.22641e-09
6.68643e-09
1.42254e-06
-7.64929e-09
5.7609e-09
1.42493e-06
-6.81168e-09
4.66766e-09
1.4263e-06
-5.49952e-09
3.42877e-09
-3.8901e-09
2.42749e-09
1.1589e-06
-6.3324e-09
5.28115e-09
1.1657e-06
-1.7126e-08
1.3998e-08
1.16845e-06
-1.86364e-08
1.79767e-08
1.16661e-06
-1.71479e-08
1.91769e-08
1.16221e-06
-1.53616e-08
1.8873e-08
1.15654e-06
-1.37922e-08
1.75399e-08
1.15048e-06
-1.23465e-08
1.56754e-08
1.14458e-06
-1.11287e-08
1.38688e-08
1.13916e-06
-1.01498e-08
1.22539e-08
1.13433e-06
-9.3658e-09
1.08334e-08
1.13012e-06
-8.77791e-09
9.63992e-09
1.12648e-06
-8.35838e-09
8.63309e-09
1.12341e-06
-8.06518e-09
7.73787e-09
1.1209e-06
-7.85337e-09
6.87249e-09
1.11897e-06
-7.70306e-09
5.94615e-09
1.11765e-06
-7.56161e-09
4.85697e-09
1.11695e-06
-7.33834e-09
3.44119e-09
1.11657e-06
-6.80018e-09
1.47266e-09
1.1161e-06
-5.81331e-09
-1.35816e-09
-3.40625e-09
-5.23456e-09
8.90375e-07
2.85246e-09
8.82486e-07
1.34078e-08
8.70359e-07
1.78657e-08
8.55112e-07
1.69523e-08
8.39981e-07
1.53351e-08
8.25531e-07
1.41614e-08
8.11761e-07
1.33648e-08
7.98764e-07
1.265e-08
7.86687e-07
1.18447e-08
7.75537e-07
1.09714e-08
7.65173e-07
1.01166e-08
7.55441e-07
9.28805e-09
7.46215e-07
8.47533e-09
7.37432e-07
7.63883e-09
7.2908e-07
6.68516e-09
7.21254e-07
5.46117e-09
7.14144e-07
3.71954e-09
7.07717e-07
9.54383e-10
7.01637e-07
-3.87163e-09
-1.02529e-08
1.07432e-06
5.56894e-09
1.06467e-09
1.06824e-06
1.39004e-08
5.58602e-09
1.06138e-06
1.6262e-08
8.46304e-09
1.05338e-06
1.59091e-08
9.03819e-09
1.0451e-06
1.50026e-08
8.61482e-09
1.03721e-06
1.39344e-08
8.11484e-09
1.02982e-06
1.29794e-08
7.77617e-09
1.02281e-06
1.21189e-08
7.53606e-09
1.01597e-06
1.13521e-08
7.33726e-09
1.0092e-06
1.07044e-08
7.02953e-09
1.00254e-06
1.02181e-08
6.55191e-09
9.95955e-07
9.86896e-09
5.99111e-09
9.89387e-07
9.63392e-09
5.39209e-09
9.82758e-07
9.50528e-09
4.73463e-09
9.75957e-07
9.47108e-09
3.97695e-09
9.68864e-07
9.51251e-09
2.93856e-09
9.61321e-07
9.63066e-09
1.42519e-09
9.52867e-07
9.87149e-09
-8.82576e-10
9.42569e-07
1.03244e-08
-4.485e-09
1.08914e-08
-1.07794e-08
1.32763e-06
4.93109e-09
2.71805e-09
1.33539e-06
1.30089e-08
7.12033e-09
1.34287e-06
1.72156e-08
9.55248e-09
1.34848e-06
1.88994e-08
1.05764e-08
1.35198e-06
1.95021e-08
1.08723e-08
1.35376e-06
1.91172e-08
1.05752e-08
1.35443e-06
1.81046e-08
9.88261e-09
1.35457e-06
1.68183e-08
9.0303e-09
1.35453e-06
1.54761e-08
8.1671e-09
1.35447e-06
1.42542e-08
7.34813e-09
1.35446e-06
1.32824e-08
6.59709e-09
1.35455e-06
1.253e-08
5.90595e-09
1.35474e-06
1.1958e-08
5.25577e-09
1.35506e-06
1.1533e-08
4.59616e-09
1.35552e-06
1.12235e-08
3.8496e-09
1.3561e-06
1.1007e-08
2.95165e-09
1.35672e-06
1.08741e-08
1.79143e-09
1.35728e-06
1.08253e-08
2.63252e-10
1.35763e-06
1.08651e-08
-1.80373e-09
1.09262e-08
-4.32351e-09
1.53312e-06
3.64919e-09
2.36584e-09
1.54218e-06
9.63347e-09
6.23834e-09
1.55328e-06
1.36911e-08
8.87253e-09
1.56445e-06
1.59356e-08
1.03458e-08
1.57508e-06
1.69103e-08
1.08977e-08
1.58472e-06
1.69436e-08
1.07517e-08
1.59302e-06
1.63747e-08
1.01388e-08
1.6001e-06
1.54442e-08
9.32385e-09
1.60627e-06
1.43426e-08
8.44797e-09
1.61179e-06
1.3249e-08
7.61943e-09
1.61692e-06
1.22592e-08
6.88126e-09
1.62182e-06
1.13999e-08
6.23129e-09
1.62662e-06
1.0669e-08
5.6456e-09
1.63143e-06
1.00514e-08
5.08921e-09
1.63631e-06
9.52564e-09
4.53151e-09
1.64133e-06
9.06734e-09
3.93475e-09
1.64653e-06
8.65638e-09
3.26486e-09
1.65195e-06
8.27583e-09
2.48084e-09
1.65773e-06
7.91007e-09
1.56347e-09
7.62357e-09
5.87979e-10
1.68027e-06
1.89088e-09
1.89097e-09
1.68934e-06
5.09888e-09
5.09918e-09
1.7018e-06
7.46341e-09
7.46401e-09
1.71578e-06
8.94469e-09
8.9457e-09
1.73022e-06
9.69079e-09
9.69241e-09
1.74439e-06
9.85769e-09
9.86023e-09
1.75785e-06
9.64761e-09
9.65144e-09
1.77036e-06
9.19236e-09
9.19801e-09
1.78185e-06
8.60355e-09
8.61174e-09
1.79241e-06
7.97422e-09
7.9862e-09
1.80222e-06
7.36819e-09
7.38635e-09
1.81143e-06
6.81569e-09
6.84417e-09
1.82019e-06
6.32375e-09
6.3696e-09
1.82863e-06
5.88565e-09
5.95893e-09
1.83689e-06
5.48719e-09
5.59857e-09
1.84507e-06
5.11865e-09
5.27916e-09
1.85331e-06
4.77173e-09
4.99348e-09
1.86171e-06
4.43653e-09
4.73318e-09
1.87039e-06
4.11286e-09
4.47833e-09
3.87306e-09
4.24996e-09
1.7569e-06
-1.38575e-14
1.6132e-09
1.76589e-06
-6.29697e-14
4.38409e-09
1.77878e-06
-1.23287e-13
6.53179e-09
1.79389e-06
-2.05206e-13
7.9512e-09
1.81003e-06
-3.30437e-13
8.75609e-09
1.82638e-06
-5.21359e-13
9.08657e-09
1.84239e-06
-7.71283e-13
9.07382e-09
1.85772e-06
-9.49917e-13
8.83907e-09
1.87216e-06
-1.06155e-12
8.46762e-09
1.88565e-06
-1.20411e-12
8.02613e-09
1.89823e-06
-1.65309e-12
7.56693e-09
1.91001e-06
-2.9378e-12
7.12899e-09
1.92112e-06
-5.91886e-12
6.74021e-09
1.93172e-06
-1.09516e-11
6.42125e-09
1.94195e-06
-1.60558e-11
6.19109e-09
1.95194e-06
-1.90836e-11
6.05691e-09
1.96184e-06
-1.95302e-11
6.01946e-09
1.9718e-06
-1.99805e-11
6.07227e-09
1.98194e-06
-1.43557e-11
6.19488e-09
2.15563e-11
6.331e-09
1.7569e-06
-1.89098e-09
1.61314e-09
1.76589e-06
-5.0992e-09
4.38392e-09
1.77878e-06
-7.46402e-09
6.53144e-09
1.79389e-06
-8.9457e-09
7.95058e-09
1.81003e-06
-9.69241e-09
8.75506e-09
1.82639e-06
-9.86024e-09
9.08498e-09
1.8424e-06
-9.65146e-09
9.07154e-09
1.85772e-06
-9.19804e-09
8.83572e-09
1.87216e-06
-8.61179e-09
8.46263e-09
1.88566e-06
-7.98628e-09
8.01863e-09
1.89824e-06
-7.38647e-09
7.55551e-09
1.91003e-06
-6.84434e-09
7.11147e-09
1.92115e-06
-6.36986e-09
6.71321e-09
1.93175e-06
-5.9593e-09
6.3797e-09
1.94198e-06
-5.59907e-09
6.12749e-09
1.95197e-06
-5.27987e-09
5.96318e-09
1.96186e-06
-4.99453e-09
5.88826e-09
1.97177e-06
-4.73476e-09
5.89759e-09
1.9818e-06
-4.48074e-09
5.97478e-09
-4.25341e-09
6.06298e-09
1.68027e-06
-3.64935e-09
1.8909e-09
1.68934e-06
-9.63397e-09
5.09894e-09
1.7018e-06
-1.3692e-08
7.46353e-09
1.71578e-06
-1.59374e-08
8.94487e-09
1.73022e-06
-1.69133e-08
9.69104e-09
1.74439e-06
-1.69484e-08
9.85802e-09
1.75785e-06
-1.6382e-08
9.64804e-09
1.77036e-06
-1.54558e-08
9.19289e-09
1.78185e-06
-1.43603e-08
8.60421e-09
1.79241e-06
-1.32764e-08
7.97502e-09
1.80222e-06
-1.23032e-08
7.36916e-09
1.81143e-06
-1.14701e-08
6.81685e-09
1.82019e-06
-1.0783e-08
6.32512e-09
1.82863e-06
-1.02345e-08
5.88723e-09
1.83688e-06
-9.8142e-09
5.48898e-09
1.84507e-06
-9.51649e-09
5.12068e-09
1.8533e-06
-9.34458e-09
4.77397e-09
1.86171e-06
-9.3008e-09
4.43889e-09
1.87038e-06
-9.35333e-09
4.11516e-09
-9.55243e-09
3.87477e-09
1.53312e-06
-4.93117e-09
2.36586e-09
1.54218e-06
-1.30092e-08
6.23837e-09
1.55327e-06
-1.72163e-08
8.87258e-09
1.56445e-06
-1.89011e-08
1.03459e-08
1.57507e-06
-1.95053e-08
1.08978e-08
1.58471e-06
-1.91222e-08
1.07518e-08
1.593e-06
-1.81123e-08
1.01392e-08
1.60008e-06
-1.68305e-08
9.32489e-09
1.60623e-06
-1.54947e-08
8.44998e-09
1.61173e-06
-1.42843e-08
7.62409e-09
1.61682e-06
-1.33343e-08
6.89074e-09
1.62167e-06
-1.2617e-08
6.24811e-09
1.62639e-06
-1.2099e-08
5.67014e-09
1.63106e-06
-1.17609e-08
5.12238e-09
1.63576e-06
-1.15965e-08
4.58604e-09
1.64051e-06
-1.16228e-08
4.03533e-09
1.64538e-06
-1.189e-08
3.44369e-09
1.65041e-06
-1.24511e-08
2.78661e-09
1.65575e-06
-1.33309e-08
2.06928e-09
-1.49473e-08
1.43297e-09
1.32762e-06
-5.56892e-09
2.71811e-09
1.33539e-06
-1.39003e-08
7.12049e-09
1.34286e-06
-1.62622e-08
9.55275e-09
1.34847e-06
-1.59099e-08
1.0577e-08
1.35197e-06
-1.50044e-08
1.08736e-08
1.35375e-06
-1.39372e-08
1.05778e-08
1.35441e-06
-1.29836e-08
9.88714e-09
1.35453e-06
-1.21257e-08
9.03808e-09
1.35448e-06
-1.13637e-08
8.18068e-09
1.35438e-06
-1.07251e-08
7.37404e-09
1.35429e-06
-1.02536e-08
6.64312e-09
1.35426e-06
-9.93172e-09
5.98398e-09
1.35426e-06
-9.7418e-09
5.37239e-09
1.35429e-06
-9.69021e-09
4.77556e-09
1.35429e-06
-9.78655e-09
4.13845e-09
1.35417e-06
-1.00716e-08
3.42482e-09
1.35379e-06
-1.06322e-08
2.5649e-09
1.35286e-06
-1.15502e-08
1.49922e-09
1.35062e-06
-1.26443e-08
1.99365e-10
-1.67595e-08
-8.16477e-10
1.07432e-06
1.06472e-09
1.06824e-06
5.58621e-09
1.06138e-06
8.46341e-09
1.05338e-06
9.03884e-09
1.04509e-06
8.61628e-09
1.0372e-06
8.11799e-09
1.0298e-06
7.78239e-09
1.02278e-06
7.54732e-09
1.0159e-06
7.35783e-09
1.00908e-06
7.06437e-09
1.00234e-06
6.60942e-09
9.95608e-07
6.08447e-09
9.88795e-07
5.54629e-09
9.81747e-07
4.99667e-09
9.74244e-07
4.40153e-09
9.65975e-07
3.65861e-09
9.56416e-07
2.64575e-09
9.44674e-07
1.14627e-09
9.29474e-07
-1.31535e-09
-3.31832e-09
1.16914e-06
4.90661e-09
-1.46465e-14
1.16312e-06
1.16086e-08
-1.14638e-13
1.15731e-06
1.42759e-08
-3.54216e-13
1.15201e-06
1.43346e-08
-6.49191e-13
1.1469e-06
1.37326e-08
-1.16754e-12
1.14204e-06
1.29734e-08
-2.18959e-12
1.13771e-06
1.21073e-08
-4.18491e-12
1.13394e-06
1.1319e-08
-7.55196e-12
1.13062e-06
1.06688e-08
-1.34134e-11
1.12745e-06
1.0222e-08
-2.32353e-11
1.12409e-06
9.94859e-09
-3.97065e-11
1.12037e-06
9.77996e-09
-6.70368e-11
1.11614e-06
9.73319e-09
-1.12562e-10
1.11122e-06
9.8482e-09
-1.93281e-10
1.10537e-06
1.01588e-08
-3.27142e-10
1.0981e-06
1.07426e-08
-5.40042e-10
1.08864e-06
1.17774e-08
-8.87953e-10
1.07576e-06
1.34784e-08
-1.48168e-09
1.05782e-06
1.59075e-08
-2.45139e-09
2.07414e-08
-5.0323e-09
1.41518e-06
4.19293e-09
-5.2905e-14
1.42279e-06
1.11161e-08
-1.61968e-13
1.43152e-06
1.5099e-08
-2.56132e-13
1.4398e-06
1.66305e-08
-5.35037e-13
1.44713e-06
1.72783e-08
-1.15175e-12
1.45316e-06
1.75153e-08
-2.23277e-12
1.458e-06
1.7162e-08
-3.91457e-12
1.4619e-06
1.64518e-08
-6.6644e-12
1.46517e-06
1.55751e-08
-1.16715e-11
1.46805e-06
1.47117e-08
-2.11491e-11
1.47071e-06
1.39277e-08
-3.73174e-11
1.47318e-06
1.32795e-08
-6.45864e-11
1.47541e-06
1.28615e-08
-1.0386e-10
1.47733e-06
1.26827e-08
-1.63954e-10
1.47891e-06
1.26926e-08
-2.59534e-10
1.48007e-06
1.2939e-08
-4.06117e-10
1.48072e-06
1.35441e-08
-6.27161e-10
1.48082e-06
1.4599e-08
-9.55356e-10
1.48033e-06
1.60403e-08
-1.44609e-09
1.75215e-08
-2.28153e-09
1.61424e-06
3.09285e-09
-4.18086e-14
1.62332e-06
8.27403e-09
-8.48782e-14
1.63533e-06
1.19572e-08
-1.39827e-13
1.6482e-06
1.41146e-08
-2.90432e-13