/*--------------------------------*- C++ -*----------------------------------*\
| =========                 |                                                 |
| \\      /  F ield         | OpenFOAM: The Open Source CFD Toolbox           |
|  \\    /   O peration     | Version:  2212                                  |
|   \\  /    A nd           | Website:  www.openfoam.com                      |
|    \\/     M anipulation  |                                                 |
\*---------------------------------------------------------------------------*/
FoamFile
{
    version     2.0;
    format      ascii;
    arch        "LSB;label=32;scalar=64";
    class       volVectorField;
    location    "2.3";
    object      U;
}
// * * * * * * * * * * * * * * * * * * * * * * * * * * * * * * * * * * * * * //

dimensions      [0 1 -1 0 0 0 0];

internalField   nonuniform List<vector> 
6840
(
(0.0956456 -0.00836005 -0.00836005)
(0.090494 0.00152201 0.00152203)
(0.0790685 0.00242966 0.0024297)
(0.0713015 0.00148765 0.00148776)
(0.06618 0.000830287 0.000830537)
(0.0623237 0.000563236 0.000563654)
(0.0592225 0.000425468 0.000426505)
(0.0566876 0.000322454 0.000324322)
(0.0545543 0.000250606 0.000253668)
(0.0527047 0.000198682 0.000203675)
(0.051071 0.000159825 0.000168354)
(0.0496169 0.000129482 0.000143681)
(0.0483131 0.000103106 0.000124958)
(0.0471341 7.78148e-05 0.000110072)
(0.0460766 4.79503e-05 9.83068e-05)
(0.0451481 2.14022e-05 8.89301e-05)
(0.044386 -8.84904e-06 8.00928e-05)
(0.0439592 -0.000128085 3.94907e-05)
(0.0444592 -0.000292491 -7.95569e-05)
(0.0430681 -0.00270915 -0.00207152)
(0.0999088 0.001297 0.000712566)
(0.0969669 0.00365582 0.00274726)
(0.0935347 0.00264013 0.00211819)
(0.0895895 0.00182022 0.00162063)
(0.0858326 0.00152836 0.00139067)
(0.0825909 0.00135058 0.00116144)
(0.0798665 0.00117835 0.000897503)
(0.0775689 0.00103883 0.000692931)
(0.0755608 0.000939946 0.000561824)
(0.0737559 0.00086097 0.000482119)
(0.0721085 0.000785062 0.000437014)
(0.0705907 0.000706393 0.000412381)
(0.0691853 0.000628611 0.0003991)
(0.0678809 0.000553905 0.000394431)
(0.0666759 0.00046945 0.000399555)
(0.0655772 0.000355721 0.000409918)
(0.0646315 0.00018312 0.000410921)
(0.0639922 -0.000139359 0.00031317)
(0.0640807 -0.000781149 3.1307e-05)
(0.063023 -0.00334541 -0.00194045)
(0.099413 0.000345208 0.000270234)
(0.0988664 0.00201892 0.00187492)
(0.0979215 0.00257289 0.00218906)
(0.0963661 0.00237944 0.00190845)
(0.0946338 0.00211342 0.00162678)
(0.0929728 0.00192567 0.0014189)
(0.0913649 0.0017996 0.00127166)
(0.0898551 0.00170233 0.00116077)
(0.0884564 0.00159973 0.00107112)
(0.0871609 0.00148596 0.00100038)
(0.0859613 0.00136994 0.000953926)
(0.0848432 0.00125678 0.00092931)
(0.0837885 0.00114332 0.000922388)
(0.0827855 0.00102065 0.000929137)
(0.0818295 0.000876906 0.000947599)
(0.080924 0.000694963 0.000975615)
(0.0800834 0.000441677 0.00100591)
(0.0793183 -9.47931e-06 0.00102359)
(0.0786324 -0.000810342 0.00103412)
(0.0774265 -0.00233899 0.000895005)
(0.0995405 0.000245009 0.000321902)
(0.0992576 0.00105545 0.00154095)
(0.0988489 0.00150201 0.00211454)
(0.0981247 0.00157886 0.00209179)
(0.0973367 0.0015139 0.00188647)
(0.0965845 0.00144484 0.00166647)
(0.0958644 0.0014074 0.00149898)
(0.0951958 0.00137437 0.00137322)
(0.0945654 0.00132577 0.0012879)
(0.0939171 0.00124953 0.00123527)
(0.0932832 0.00115161 0.00120176)
(0.0926598 0.00104206 0.00118567)
(0.0920348 0.000927503 0.00118532)
(0.091395 0.00080623 0.00120184)
(0.0907243 0.00066758 0.00123751)
(0.0900006 0.000492251 0.00129906)
(0.0891887 0.000246494 0.00140049)
(0.0882054 -0.000131618 0.00156118)
(0.0869848 -0.000747412 0.00173847)
(0.0856737 -0.0014929 0.00262005)
(0.0993801 3.3762e-05 5.89391e-05)
(0.0992677 0.000274318 0.00120003)
(0.0989803 0.000432233 0.00188853)
(0.0984744 0.000483222 0.00200659)
(0.097995 0.000478429 0.00191491)
(0.0975698 0.000464812 0.00173515)
(0.0971789 0.000451643 0.00154796)
(0.0968272 0.000440316 0.00138974)
(0.0965238 0.000432802 0.00127222)
(0.0962634 0.000422607 0.00120345)
(0.0959791 0.000401595 0.00117934)
(0.0956683 0.000371379 0.00118282)
(0.0953234 0.000336053 0.00120233)
(0.0949211 0.000299823 0.00124109)
(0.0944401 0.00026668 0.00131077)
(0.0938431 0.000226489 0.00142245)
(0.093071 0.000173027 0.00160811)
(0.0919981 0.000104106 0.00189845)
(0.0905055 1.88095e-06 0.00227384)
(0.0887638 0.000238033 0.00368059)
(0.0993801 -3.3757e-05 5.89297e-05)
(0.0992677 -0.000274291 0.00120003)
(0.0989803 -0.000432163 0.00188853)
(0.0984745 -0.000483085 0.00200657)
(0.0979952 -0.000478162 0.00191484)
(0.0975701 -0.000464272 0.00173499)
(0.0971795 -0.00045056 0.00154772)
(0.0968283 -0.000438321 0.00138933)
(0.0965257 -0.000429245 0.00127141)
(0.0962669 -0.000416436 0.00120193)
(0.0959853 -0.000391051 0.0011767)
(0.0956792 -0.000353657 0.00117839)
(0.0953429 -0.000306376 0.00119445)
(0.0949563 -0.000248812 0.00122526)
(0.0945021 -0.000181421 0.00128085)
(0.0939525 -8.83664e-05 0.00137332)
(0.093256 5.2628e-05 0.00152573)
(0.0923178 0.000275778 0.00176448)
(0.0910319 0.000624844 0.00208641)
(0.0898493 0.00114127 0.00283988)
(0.0995405 -0.00024501 0.000321903)
(0.0992576 -0.00105546 0.00154095)
(0.0988489 -0.00150202 0.0021145)
(0.0981249 -0.00157887 0.00209172)
(0.097337 -0.00151382 0.00188634)
(0.0965852 -0.00144459 0.00166627)
(0.0958658 -0.00140688 0.00149875)
(0.0951983 -0.00137345 0.00137283)
(0.0945699 -0.00132399 0.00128697)
(0.093925 -0.00124663 0.00123303)
(0.0932969 -0.00114712 0.00119747)
(0.0926836 -0.00103531 0.00117737)
(0.0920757 -0.000916644 0.00117137)
(0.0914654 -0.000788506 0.0011788)
(0.0908444 -0.000641661 0.00119773)
(0.0902011 -0.0004423 0.00122691)
(0.0895244 -0.000156514 0.00126814)
(0.0887832 0.000275944 0.00133778)
(0.0879286 0.000948445 0.00145896)
(0.0870275 0.00212214 0.00161227)
(0.099413 -0.000345216 0.000270232)
(0.0988664 -0.00201896 0.00187489)
(0.0979216 -0.00257296 0.00218896)
(0.0963662 -0.00237959 0.00190828)
(0.0946341 -0.00211365 0.00162653)
(0.0929734 -0.00192603 0.00141854)
(0.0913661 -0.00180012 0.00127108)
(0.0898574 -0.00170319 0.0011598)
(0.0884605 -0.00160115 0.00106955)
(0.0871679 -0.00148831 0.000997779)
(0.0859733 -0.00137389 0.000949863)
(0.0848638 -0.00126329 0.000922252)
(0.0838228 -0.00115365 0.000910203)
(0.0828421 -0.00103649 0.000908676)
(0.0819209 -0.000900733 0.000913089)
(0.0810743 -0.000727126 0.000911327)
(0.0803411 -0.000490713 0.000893134)
(0.0797607 -5.24322e-05 0.000806326)
(0.0793947 0.000704044 0.000647283)
(0.0785716 0.00250093 8.72562e-06)
(0.0999088 -0.00129701 0.000712558)
(0.0969669 -0.00365585 0.00274722)
(0.0935347 -0.00264018 0.00211811)
(0.0895895 -0.00182032 0.00162047)
(0.0858327 -0.00152861 0.00139043)
(0.0825911 -0.00135097 0.00116101)
(0.0798668 -0.001179 0.000896829)
(0.0775696 -0.00103993 0.000691818)
(0.0755621 -0.000941863 0.000559944)
(0.0737582 -0.000864377 0.000478914)
(0.072113 -0.00079107 0.000430725)
(0.0705996 -0.000716445 0.000401345)
(0.069201 -0.000644684 0.000384723)
(0.0679057 -0.000580808 0.000379366)
(0.0667143 -0.000514216 0.000378556)
(0.065637 -0.000437793 0.000370176)
(0.0647322 -0.000320772 0.000329259)
(0.0641766 -4.69552e-05 0.00013407)
(0.0645341 0.000475481 -0.000242538)
(0.0629306 0.00172243 -0.00154557)
(0.0956456 0.00836005 -0.00836005)
(0.090494 -0.00152204 0.00152201)
(0.0790685 -0.0024297 0.00242966)
(0.0713014 -0.00148776 0.00148765)
(0.06618 -0.000830537 0.000830286)
(0.0623236 -0.000563653 0.000563238)
(0.0592225 -0.0004265 0.000425473)
(0.0566875 -0.000324314 0.000322463)
(0.0545542 -0.000253659 0.000250618)
(0.0527046 -0.000203663 0.000198697)
(0.0510709 -0.000168338 0.000159843)
(0.0496168 -0.00014366 0.000129504)
(0.0483129 -0.000124948 0.000103155)
(0.047134 -0.000110021 7.7866e-05)
(0.0460763 -9.82094e-05 4.80112e-05)
(0.0451478 -8.88453e-05 2.1457e-05)
(0.0443855 -7.99945e-05 -8.72387e-06)
(0.0439586 -3.93768e-05 -0.000127917)
(0.0444584 7.97046e-05 -0.000292311)
(0.0430673 0.00207158 -0.00270878)
(0.0999088 0.000712557 0.001297)
(0.0969669 0.00274722 0.00365585)
(0.0935347 0.00211811 0.00264017)
(0.0895896 0.00162046 0.00182031)
(0.0858327 0.00139042 0.0015286)
(0.0825911 0.00116101 0.00135096)
(0.0798668 0.00089682 0.00117899)
(0.0775696 0.000691808 0.00103992)
(0.0755621 0.00055993 0.00094185)
(0.0737583 0.000478896 0.000864363)
(0.0721132 0.000430704 0.000791053)
(0.0705997 0.000401315 0.000716425)
(0.0692013 0.000384695 0.000644659)
(0.0679059 0.000379292 0.000580768)
(0.0667148 0.000378461 0.000514227)
(0.0656376 0.000370053 0.000437814)
(0.064733 0.000329121 0.000320785)
(0.0641776 0.000133934 4.70092e-05)
(0.0645353 -0.000242696 -0.000475337)
(0.0629317 -0.00154485 -0.00172142)
(0.100226 0.000720798 0.000720807)
(0.0999601 0.00198268 0.00198273)
(0.0997824 0.00245173 0.00245185)
(0.0987885 0.00241941 0.00241964)
(0.0972762 0.00220053 0.00220087)
(0.0957758 0.00181117 0.00181178)
(0.0943947 0.0013819 0.0013829)
(0.093167 0.00106909 0.00107079)
(0.0920821 0.000852102 0.000855049)
(0.0911237 0.00069848 0.000703623)
(0.0902772 0.000583675 0.000593102)
(0.0895209 0.000495079 0.000510434)
(0.088836 0.000427253 0.000449347)
(0.0882261 0.00037154 0.000403075)
(0.0876989 0.000309984 0.000359895)
(0.0872655 0.000236518 0.000313926)
(0.0869437 0.000119224 0.000250152)
(0.0867171 -0.000104326 0.000108453)
(0.0863998 -0.000616986 -0.000312103)
(0.086463 -0.00203589 -0.00153334)
(0.10014 0.000774985 0.000869263)
(0.100454 0.00196229 0.00196361)
(0.100911 0.0024273 0.00233463)
(0.100978 0.00252618 0.00244148)
(0.100694 0.00242563 0.00233714)
(0.100225 0.00219641 0.00211308)
(0.0997097 0.00191488 0.00182425)
(0.099185 0.00166284 0.00157726)
(0.0986912 0.00145776 0.00139285)
(0.0982451 0.00128765 0.00125525)
(0.0978543 0.00114485 0.00115577)
(0.0975153 0.00102217 0.00108756)
(0.0972256 0.000911012 0.0010422)
(0.0969844 0.000800446 0.00101142)
(0.0967919 0.000680311 0.000994213)
(0.0966516 0.00053315 0.000984647)
(0.0965647 0.000334349 0.000975561)
(0.0965224 4.70273e-05 0.000953281)
(0.0964853 -0.000372592 0.000897538)
(0.0965918 -0.000947551 0.000769677)
(0.100093 0.000445886 0.000763214)
(0.100504 0.00119435 0.00174906)
(0.101105 0.00158655 0.00212965)
(0.101634 0.00174003 0.00223499)
(0.101979 0.00178163 0.00228777)
(0.102171 0.001728 0.00223708)
(0.102252 0.00160646 0.00211777)
(0.102275 0.00145765 0.0019676)
(0.102277 0.00130068 0.00180698)
(0.102268 0.0011496 0.00166074)
(0.102258 0.0010166 0.0015576)
(0.102254 0.00090018 0.00149014)
(0.102252 0.000790515 0.0014511)
(0.102254 0.000679436 0.00143842)
(0.102256 0.000555724 0.00145312)
(0.102254 0.000411085 0.00150029)
(0.102237 0.000226784 0.00159256)
(0.102189 -1.99947e-05 0.00174234)
(0.102086 -0.00034756 0.00195528)
(0.102213 -0.000667059 0.00229154)
(0.100087 0.000144375 0.000707024)
(0.100477 0.000390459 0.00161781)
(0.101065 0.000541046 0.00203468)
(0.101694 0.000610062 0.00211777)
(0.102268 0.000635894 0.00215069)
(0.102741 0.000626655 0.00218084)
(0.103122 0.000594558 0.00213582)
(0.103425 0.000548933 0.0020472)
(0.103676 0.000503419 0.00194012)
(0.103891 0.000460502 0.00183823)
(0.104082 0.000416419 0.00174601)
(0.104261 0.000372359 0.0016706)
(0.104423 0.000330972 0.00163114)
(0.10456 0.000290684 0.00163097)
(0.104671 0.000248937 0.00166122)
(0.104754 0.000204717 0.0017404)
(0.104795 0.000154411 0.00189003)
(0.104786 9.58425e-05 0.00213776)
(0.10474 3.19699e-05 0.00249387)
(0.105005 8.33059e-06 0.00291457)
(0.100087 -0.000144365 0.000707024)
(0.100477 -0.000390426 0.00161781)
(0.101066 -0.000540989 0.00203469)
(0.101694 -0.000609946 0.00211775)
(0.102269 -0.000635632 0.00215057)
(0.102742 -0.000626128 0.0021806)
(0.103123 -0.000593632 0.0021354)
(0.103426 -0.000547336 0.00204654)
(0.103677 -0.000500556 0.00193912)
(0.103893 -0.000455269 0.00183658)
(0.104086 -0.000407179 0.00174326)
(0.104268 -0.000356524 0.00166569)
(0.104436 -0.00030556 0.00162226)
(0.104583 -0.000250091 0.00161636)
(0.104706 -0.000184559 0.00163886)
(0.104806 -0.000104304 0.00169856)
(0.104872 1.64803e-06 0.00181787)
(0.104895 0.000146628 0.00201754)
(0.10489 0.000343796 0.00229611)
(0.105192 0.000596018 0.00259464)
(0.100093 -0.00044589 0.000763212)
(0.100504 -0.00119437 0.00174905)
(0.101105 -0.00158657 0.0021296)
(0.101635 -0.00174005 0.00223478)
(0.101979 -0.00178164 0.00228735)
(0.102172 -0.00172799 0.00223645)
(0.102253 -0.00160637 0.00211681)
(0.102278 -0.00145742 0.00196614)
(0.10228 -0.00130032 0.00180478)
(0.102273 -0.00114865 0.00165723)
(0.102267 -0.00101495 0.00155147)
(0.10227 -0.00089738 0.00147968)
(0.10228 -0.00078789 0.00143353)
(0.102299 -0.000677122 0.00140894)
(0.102328 -0.000551438 0.0014039)
(0.102368 -0.000400664 0.00141782)
(0.102413 -0.00020611 0.00145261)
(0.102458 5.48983e-05 0.00151233)
(0.102504 0.000399219 0.00160341)
(0.102716 0.000794702 0.00171061)
(0.10014 -0.000774998 0.000869249)
(0.100454 -0.00196233 0.00196353)
(0.100911 -0.00242738 0.00233443)
(0.100979 -0.00252635 0.00244117)
(0.100694 -0.00242593 0.00233669)
(0.100225 -0.00219692 0.00211249)
(0.0997105 -0.00191567 0.00182332)
(0.0991864 -0.001664 0.00157559)
(0.0986936 -0.00145978 0.00138996)
(0.0982495 -0.00129123 0.00125044)
(0.0978619 -0.00115075 0.00114769)
(0.0975283 -0.00103241 0.00107438)
(0.0972462 -0.000928949 0.00102116)
(0.0970152 -0.000830766 0.000978587)
(0.0968381 -0.000727799 0.0009425)
(0.0967188 -0.000605454 0.000901935)
(0.0966601 -0.000439509 0.000836372)
(0.0966508 -0.000200106 0.000721206)
(0.0966395 0.000156114 0.000523694)
(0.0967399 0.000668595 0.000185874)
(0.100226 -0.000720806 0.000720798)
(0.0999601 -0.00198274 0.00198268)
(0.0997824 -0.00245185 0.00245173)
(0.0987885 -0.00241963 0.00241942)
(0.0972762 -0.00220087 0.00220054)
(0.0957758 -0.00181178 0.00181118)
(0.0943946 -0.0013829 0.00138191)
(0.093167 -0.00107078 0.00106911)
(0.0920821 -0.00085504 0.000852125)
(0.0911236 -0.000703611 0.000698508)
(0.0902771 -0.000593083 0.000583709)
(0.0895207 -0.000510409 0.000495123)
(0.0888358 -0.000449396 0.000427386)
(0.0882258 -0.000403035 0.000371631)
(0.0876986 -0.000359711 0.000309961)
(0.0872652 -0.000313817 0.000236606)
(0.0869434 -0.000250048 0.00011936)
(0.0867167 -0.000108291 -0.00010418)
(0.0863993 0.000312387 -0.000616897)
(0.0864621 0.00153343 -0.00203558)
(0.0999088 -0.000712566 0.001297)
(0.0969669 -0.00274726 0.00365581)
(0.0935347 -0.00211819 0.00264012)
(0.0895895 -0.00162063 0.00182022)
(0.0858326 -0.00139066 0.00152836)
(0.0825909 -0.00116143 0.00135058)
(0.0798665 -0.000897493 0.00117835)
(0.0775689 -0.000692919 0.00103884)
(0.0755607 -0.00056181 0.000939959)
(0.0737558 -0.000482102 0.000860989)
(0.0721084 -0.00043699 0.000785087)
(0.0705905 -0.000412351 0.000706425)
(0.0691851 -0.000399053 0.000628646)
(0.0678808 -0.000394418 0.000554038)
(0.0666755 -0.000399563 0.000469653)
(0.0655767 -0.000409904 0.000355986)
(0.0646309 -0.000410858 0.000183423)
(0.0639915 -0.000313023 -0.000139003)
(0.0640799 -3.10232e-05 -0.000780697)
(0.0630218 0.00194089 -0.00334431)
(0.099413 0.000270233 0.000345214)
(0.0988664 0.00187489 0.00201895)
(0.0979216 0.00218895 0.00257295)
(0.0963662 0.00190828 0.00237958)
(0.0946341 0.00162653 0.00211364)
(0.0929735 0.00141853 0.00192602)
(0.0913662 0.00127107 0.00180011)
(0.0898574 0.00115979 0.00170317)
(0.0884606 0.00106954 0.00160114)
(0.087168 0.000997761 0.0014883)
(0.0859734 0.00094984 0.00137387)
(0.0848639 0.000922217 0.00126326)
(0.0838231 0.000910161 0.00115364)
(0.0828423 0.00090859 0.00103647)
(0.0819214 0.000912934 0.000900676)
(0.0810748 0.000911133 0.000727051)
(0.0803418 0.000892902 0.000490627)
(0.0797616 0.000806003 5.23441e-05)
(0.0793959 0.000646805 -0.000704103)
(0.0785735 8.14499e-06 -0.00250076)
(0.10014 0.000869249 0.000774997)
(0.100454 0.00196353 0.00196232)
(0.100911 0.00233443 0.00242738)
(0.100979 0.00244116 0.00252635)
(0.100694 0.00233668 0.00242593)
(0.100225 0.00211248 0.00219692)
(0.0997105 0.0018233 0.00191567)
(0.0991864 0.00157557 0.001664)
(0.0986937 0.00138994 0.00145978)
(0.0982496 0.0012504 0.00129123)
(0.097862 0.00114764 0.00115075)
(0.0975285 0.0010743 0.00103239)
(0.0972463 0.00102102 0.000928899)
(0.0970155 0.000978531 0.000830812)
(0.0968383 0.000942473 0.000727903)
(0.096719 0.000901773 0.000605468)
(0.0966603 0.000836119 0.00043947)
(0.096651 0.000720948 0.000200089)
(0.0966397 0.000523492 -0.000156056)
(0.09674 0.000185427 -0.000668707)
(0.10006 0.00064137 0.000641392)
(0.100502 0.00164496 0.00164504)
(0.101149 0.00221223 0.00221239)
(0.101738 0.00243969 0.00243997)
(0.102205 0.0024416 0.00244205)
(0.102502 0.00231306 0.00231376)
(0.102647 0.00209175 0.00209291)
(0.102717 0.00186779 0.00186962)
(0.102744 0.00166908 0.00167207)
(0.102761 0.00150159 0.00150647)
(0.102784 0.00136136 0.0013693)
(0.102825 0.00124336 0.00125614)
(0.10289 0.0011421 0.00116248)
(0.102982 0.00105073 0.00108288)
(0.103104 0.00096134 0.00101127)
(0.103255 0.000864001 0.000940401)
(0.103431 0.000746416 0.000861163)
(0.103615 0.000594648 0.000762486)
(0.103787 0.000399883 0.00063688)
(0.104097 0.000228353 0.000562617)
(0.100046 0.000395676 0.000540256)
(0.10048 0.00104474 0.00138414)
(0.101154 0.00147515 0.00192305)
(0.101913 0.0017049 0.00219273)
(0.102632 0.00177953 0.00229441)
(0.103301 0.001744 0.00227887)
(0.103894 0.0016329 0.00218665)
(0.10439 0.0014895 0.00205437)
(0.104818 0.00134177 0.00190798)
(0.105196 0.00120465 0.0017706)
(0.10554 0.00108219 0.00165193)
(0.105862 0.000974053 0.001554)
(0.106173 0.000875819 0.00147766)
(0.106479 0.00078221 0.00142206)
(0.106784 0.000690139 0.00138626)
(0.107093 0.000592891 0.00137128)
(0.107406 0.000483968 0.00138024)
(0.107728 0.000358937 0.00141671)
(0.108072 0.000220873 0.00147882)
(0.108535 8.9357e-05 0.00158014)
(0.100039 0.000131319 0.000478781)
(0.100448 0.000350455 0.00123482)
(0.101114 0.000505007 0.00174656)
(0.101909 0.000597075 0.00202699)
(0.102728 0.000638434 0.00215244)
(0.103529 0.000638032 0.00218707)
(0.104297 0.000604212 0.00215436)
(0.105006 0.000558778 0.00208123)
(0.105641 0.000509463 0.00198398)
(0.106213 0.000461117 0.00187932)
(0.106734 0.000416401 0.0017799)
(0.107213 0.000375887 0.00169481)
(0.10766 0.000338714 0.00163139)
(0.108087 0.000302589 0.00159282)
(0.108498 0.000267025 0.00158036)
(0.108891 0.000232263 0.00159785)
(0.109272 0.000196109 0.00165393)
(0.109654 0.000156349 0.00175566)
(0.110066 0.000115442 0.00189533)
(0.110605 8.94982e-05 0.00205487)
(0.100039 -0.000131312 0.000478775)
(0.100448 -0.000350438 0.0012348)
(0.101114 -0.000504976 0.00174652)
(0.101909 -0.000597016 0.0020269)
(0.102728 -0.000638316 0.00215226)
(0.103529 -0.000637816 0.00218676)
(0.104297 -0.000603787 0.00215389)
(0.105007 -0.000558047 0.00208052)
(0.105642 -0.000508172 0.00198287)
(0.106215 -0.000458824 0.00187752)
(0.106737 -0.000412456 0.00177685)
(0.107217 -0.000369428 0.00168956)
(0.107667 -0.000328818 0.00162265)
(0.108097 -0.000288034 0.00157919)
(0.108512 -0.000244619 0.00155927)
(0.10891 -0.000196152 0.00156431)
(0.109298 -0.000139797 0.00160127)
(0.109684 -7.1491e-05 0.0016753)
(0.110095 8.86098e-06 0.00177715)
(0.110627 9.33318e-05 0.00188406)
(0.100046 -0.000395687 0.000540238)
(0.10048 -0.00104478 0.00138407)
(0.101154 -0.00147521 0.00192292)
(0.101913 -0.00170499 0.00219249)
(0.102632 -0.0017797 0.002294)
(0.103302 -0.00174428 0.00227818)
(0.103895 -0.00163336 0.00218559)
(0.104391 -0.00149021 0.00205262)
(0.10482 -0.00134289 0.00190528)
(0.105199 -0.00120629 0.0017664)
(0.105544 -0.00108463 0.00164506)
(0.10587 -0.000977764 0.00154292)
(0.106185 -0.000882018 0.00145947)
(0.106498 -0.000792332 0.00139254)
(0.106813 -0.000704933 0.00133913)
(0.107136 -0.000613412 0.00129637)
(0.107469 -0.000511574 0.00126261)
(0.107814 -0.000394121 0.00123694)
(0.108187 -0.000262176 0.00121754)
(0.108662 -0.000126885 0.00120985)
(0.10006 -0.000641393 0.000641371)
(0.100502 -0.00164504 0.00164496)
(0.101149 -0.00221239 0.00221224)
(0.101738 -0.00243997 0.0024397)
(0.102205 -0.00244205 0.00244162)
(0.102502 -0.00231376 0.00231309)
(0.102647 -0.0020929 0.00209178)
(0.102717 -0.00186961 0.00186782)
(0.102744 -0.00167206 0.00166913)
(0.102761 -0.00150646 0.00150165)
(0.102784 -0.00136929 0.00136143)
(0.102825 -0.00125613 0.00124346)
(0.10289 -0.00116248 0.00114223)
(0.102982 -0.00108286 0.00105086)
(0.103104 -0.00101124 0.000961466)
(0.103255 -0.00094037 0.000864148)
(0.103431 -0.000861122 0.000746572)
(0.103615 -0.000762431 0.000594786)
(0.103787 -0.000636812 0.000399979)
(0.104096 -0.00056271 0.000228565)
(0.10014 -0.000869264 0.000774986)
(0.100454 -0.00196361 0.00196229)
(0.100911 -0.00233463 0.00242731)
(0.100978 -0.00244148 0.00252619)
(0.100694 -0.00233714 0.00242565)
(0.100225 -0.00211308 0.00219643)
(0.0997097 -0.00182424 0.00191491)
(0.099185 -0.00157725 0.00166287)
(0.0986911 -0.00139284 0.00145781)
(0.098245 -0.00125523 0.0012877)
(0.0978542 -0.00115575 0.00114492)
(0.0975152 -0.00108751 0.00102225)
(0.0972254 -0.00104213 0.000911097)
(0.0969842 -0.00101139 0.000800602)
(0.0967917 -0.000994222 0.000680532)
(0.0966514 -0.000984581 0.000533358)
(0.0965644 -0.000975398 0.000334537)
(0.0965221 -0.000952997 4.71941e-05)
(0.0964849 -0.000897052 -0.000372482)
(0.0965913 -0.000769035 -0.000947414)
(0.099413 -0.000270235 0.000345208)
(0.0988664 -0.00187492 0.00201892)
(0.0979215 -0.00218906 0.00257289)
(0.0963661 -0.00190845 0.00237945)
(0.0946338 -0.00162678 0.00211343)
(0.0929727 -0.00141889 0.00192568)
(0.0913648 -0.00127165 0.00179962)
(0.089855 -0.00116076 0.00170237)
(0.0884563 -0.00107111 0.00159977)
(0.0871608 -0.00100037 0.00148601)
(0.0859612 -0.000953903 0.00137001)
(0.084843 -0.000929274 0.00125686)
(0.0837883 -0.000922324 0.00114341)
(0.0827853 -0.000929085 0.00102079)
(0.0818292 -0.000947589 0.000877159)
(0.0809237 -0.00097557 0.000695268)
(0.0800831 -0.00100578 0.000442055)
(0.0793181 -0.00102332 -9.01629e-06)
(0.0786324 -0.0010336 -0.00080978)
(0.077427 -0.000894023 -0.00233828)
(0.0995405 0.000321903 0.000245008)
(0.0992576 0.00154096 0.00105545)
(0.0988489 0.0021145 0.00150201)
(0.0981249 0.00209171 0.00157886)
(0.0973371 0.00188633 0.00151381)
(0.0965853 0.00166626 0.00144457)
(0.0958659 0.00149875 0.00140686)
(0.0951983 0.00137282 0.00137344)
(0.0945699 0.00128696 0.00132397)
(0.0939251 0.00123301 0.0012466)
(0.093297 0.00119744 0.00114709)
(0.0926837 0.00117733 0.00103529)
(0.0920759 0.00117131 0.00091662)
(0.0914657 0.00117869 0.000788452)
(0.0908448 0.00119756 0.000641571)
(0.0902016 0.00122669 0.000442204)
(0.0895251 0.00126785 0.000156441)
(0.0887841 0.00133736 -0.000275989)
(0.0879299 0.00145831 -0.000948451)
(0.0870293 0.00161141 -0.00212182)
(0.100093 0.000763212 0.000445888)
(0.100504 0.00174905 0.00119436)
(0.101105 0.00212959 0.00158657)
(0.101635 0.00223477 0.00174004)
(0.101979 0.00228734 0.00178164)
(0.102172 0.00223643 0.00172799)
(0.102253 0.00211679 0.00160636)
(0.102278 0.00196611 0.00145742)
(0.10228 0.00180475 0.00130031)
(0.102273 0.00165719 0.00114864)
(0.102267 0.00155141 0.00101494)
(0.10227 0.00147958 0.000897351)
(0.10228 0.0014334 0.000787843)
(0.102299 0.00140884 0.000677126)
(0.102328 0.00140379 0.000551476)
(0.102368 0.00141758 0.000400645)
(0.102414 0.00145225 0.00020604)
(0.102458 0.00151183 -5.50214e-05)
(0.102505 0.00160275 -0.000399423)
(0.102717 0.00170976 -0.000795062)
(0.100046 0.000540237 0.000395686)
(0.10048 0.00138407 0.00104478)
(0.101154 0.00192291 0.00147521)
(0.101913 0.00219248 0.00170499)
(0.102632 0.00229398 0.0017797)
(0.103302 0.00227816 0.00174428)
(0.103895 0.00218555 0.00163337)
(0.104391 0.00205258 0.00149021)
(0.10482 0.00190523 0.00134289)
(0.105199 0.00176633 0.00120629)
(0.105544 0.00164498 0.00108463)
(0.10587 0.00154281 0.000977753)
(0.106185 0.00145933 0.000882003)
(0.106498 0.0013924 0.000792332)
(0.106814 0.00133898 0.000704935)
(0.107136 0.00129617 0.000613387)
(0.107469 0.00126238 0.000511517)
(0.107814 0.00123668 0.000394016)
(0.108188 0.00121726 0.000261973)
(0.108663 0.0012095 0.000126402)
(0.100036 0.000323119 0.000323137)
(0.100429 0.0008686 0.000868658)
(0.10108 0.00126226 0.00126237)
(0.101891 0.00150413 0.00150433)
(0.102756 0.00162118 0.0016215)
(0.103616 0.00164218 0.00164267)
(0.104446 0.00160387 0.00160459)
(0.105224 0.00152519 0.00152631)
(0.105939 0.0014251 0.00142683)
(0.106595 0.00131938 0.00132204)
(0.1072 0.00121831 0.00122248)
(0.107765 0.00112658 0.00113314)
(0.108299 0.00104525 0.0010556)
(0.10881 0.000973411 0.000989615)
(0.109306 0.000909352 0.000934244)
(0.109795 0.000850921 0.00088828)
(0.110282 0.000796001 0.000850531)
(0.110776 0.000742614 0.000819318)
(0.111295 0.000690631 0.000792115)
(0.111898 0.000651561 0.000774133)
(0.100031 0.000107065 0.000281383)
(0.100395 0.000293011 0.000768637)
(0.101024 0.000434018 0.00113309)
(0.101843 0.00052613 0.00136926)
(0.102751 0.000576201 0.00150155)
(0.103688 0.000591521 0.00155446)
(0.104617 0.000582008 0.00154964)
(0.105515 0.000557237 0.00150902)
(0.106366 0.000523408 0.00144588)
(0.107163 0.000486004 0.0013706)
(0.107905 0.0004492 0.00129205)
(0.108598 0.000415182 0.00121718)
(0.109249 0.000384541 0.00115115)
(0.109866 0.000356646 0.00109805)
(0.110458 0.00032985 0.00106201)
(0.111033 0.000304003 0.0010444)
(0.111597 0.000279088 0.00104493)
(0.112161 0.000254976 0.00106139)
(0.112745 0.000232113 0.00108917)
(0.113403 0.000217302 0.00112012)
(0.100031 -0.00010707 0.000281376)
(0.100395 -0.000293029 0.000768612)
(0.101024 -0.000434053 0.00113304)
(0.101843 -0.000526186 0.00136915)
(0.102751 -0.000576289 0.00150138)
(0.103688 -0.000591661 0.00155419)
(0.104617 -0.000582218 0.00154927)
(0.105515 -0.000557503 0.00150848)
(0.106366 -0.000523713 0.00144506)
(0.107163 -0.000486356 0.00136933)
(0.107906 -0.000449671 0.00129005)
(0.108599 -0.00041597 0.00121407)
(0.10925 -0.000386056 0.00114634)
(0.109867 -0.000359406 0.00109062)
(0.11046 -0.000333897 0.00105043)
(0.111035 -0.00030878 0.00102683)
(0.111599 -0.000283751 0.00101952)
(0.112161 -0.000259083 0.00102637)
(0.112741 -0.0002335 0.00104335)
(0.113397 -0.00020806 0.00106291)
(0.100036 -0.000323138 0.00032312)
(0.100429 -0.000868659 0.000868606)
(0.10108 -0.00126237 0.00126227)
(0.101891 -0.00150433 0.00150415)
(0.102756 -0.0016215 0.00162121)
(0.103616 -0.00164267 0.00164221)
(0.104446 -0.00160459 0.00160391)
(0.105224 -0.00152631 0.00152525)
(0.105939 -0.00142683 0.00142517)
(0.106595 -0.00132205 0.00131947)
(0.1072 -0.00122248 0.00121841)
(0.107765 -0.00113315 0.00112671)
(0.108299 -0.00105561 0.0010454)
(0.10881 -0.00098964 0.000973577)
(0.109306 -0.000934283 0.000909531)
(0.109795 -0.000888334 0.00085112)
(0.110282 -0.000850609 0.000796212)
(0.110775 -0.000819443 0.000742815)
(0.111295 -0.000792316 0.00069079)
(0.111897 -0.000774438 0.000651619)
(0.100046 -0.000540257 0.000395677)
(0.10048 -0.00138414 0.00104475)
(0.101154 -0.00192305 0.00147516)
(0.101913 -0.00219273 0.00170492)
(0.102632 -0.00229441 0.00177956)
(0.103301 -0.00227886 0.00174403)
(0.103894 -0.00218665 0.00163295)
(0.10439 -0.00205437 0.00148956)
(0.104818 -0.00190798 0.00134184)
(0.105196 -0.0017706 0.00120474)
(0.10554 -0.00165192 0.00108229)
(0.105862 -0.00155398 0.000974176)
(0.106173 -0.00147764 0.000875965)
(0.106479 -0.00142205 0.000782378)
(0.106784 -0.00138626 0.000690312)
(0.107093 -0.00137124 0.000593056)
(0.107406 -0.00138016 0.000484113)
(0.107727 -0.0014166 0.000359021)
(0.108071 -0.00147871 0.000220851)
(0.108534 -0.00158017 8.92319e-05)
(0.100093 -0.000763215 0.000445887)
(0.100504 -0.00174906 0.00119436)
(0.101105 -0.00212965 0.00158656)
(0.101634 -0.00223498 0.00174005)
(0.101979 -0.00228777 0.00178166)
(0.102171 -0.00223708 0.00172803)
(0.102252 -0.00211777 0.00160651)
(0.102275 -0.00196759 0.0014577)
(0.102277 -0.00180697 0.00130075)
(0.102268 -0.00166072 0.00114968)
(0.102258 -0.00155758 0.00101671)
(0.102254 -0.00149009 0.0009003)
(0.102252 -0.00145102 0.000790649)
(0.102254 -0.00143839 0.000679628)
(0.102256 -0.00145309 0.000555963)
(0.102253 -0.00150015 0.000411315)
(0.102236 -0.00159226 0.000226996)
(0.102189 -0.00174184 -1.98494e-05)
(0.102085 -0.00195448 -0.000347597)
(0.102212 -0.00228998 -0.000667596)
(0.0995405 -0.000321902 0.000245009)
(0.0992576 -0.00154095 0.00105546)
(0.0988489 -0.00211454 0.00150201)
(0.0981247 -0.00209179 0.00157887)
(0.0973367 -0.00188647 0.00151392)
(0.0965845 -0.00166647 0.00144487)
(0.0958644 -0.00149898 0.00140744)
(0.0951958 -0.00137321 0.00137442)
(0.0945653 -0.00128789 0.00132584)
(0.093917 -0.00123527 0.00124962)
(0.0932831 -0.00120175 0.00115173)
(0.0926597 -0.00118566 0.00104219)
(0.0920347 -0.00118529 0.000927667)
(0.0913948 -0.00120178 0.000806438)
(0.0907242 -0.00123741 0.000667847)
(0.0900005 -0.0012989 0.000492576)
(0.0891887 -0.00140018 0.000246936)
(0.0882055 -0.00156063 -0.000131052)
(0.0869853 -0.00173754 -0.000746763)
(0.0856749 -0.00261886 -0.00149209)
(0.0993801 5.89311e-05 3.37552e-05)
(0.0992677 0.00120002 0.000274285)
(0.0989803 0.00188853 0.00043215)
(0.0984745 0.00200656 0.000483071)
(0.0979952 0.00191484 0.000478147)
(0.0975701 0.00173498 0.000464254)
(0.0971795 0.00154771 0.000450539)
(0.0968284 0.00138932 0.000438297)
(0.0965258 0.00127139 0.000429218)
(0.096267 0.00120191 0.000416408)
(0.0959854 0.00117668 0.000391021)
(0.0956794 0.00117836 0.000353628)
(0.0953431 0.00119441 0.000306346)
(0.0949565 0.00122517 0.00024876)
(0.0945024 0.00128068 0.000181335)
(0.0939529 0.00137307 8.82817e-05)
(0.0932567 0.00152535 -5.2687e-05)
(0.0923188 0.00176389 -0.000275788)
(0.0910333 0.00208543 -0.000624804)
(0.0898509 0.00283899 -0.00114083)
(0.100087 0.000707024 0.000144363)
(0.100477 0.00161781 0.000390422)
(0.101066 0.00203469 0.000540985)
(0.101694 0.00211774 0.000609943)
(0.102269 0.00215056 0.000635628)
(0.102742 0.00218058 0.000626123)
(0.103123 0.00213538 0.000593624)
(0.103426 0.00204651 0.000547326)
(0.103677 0.00193908 0.000500542)
(0.103893 0.00183652 0.00045525)
(0.104086 0.0017432 0.000407155)
(0.104268 0.0016656 0.000356491)
(0.104437 0.00162212 0.000305518)
(0.104583 0.00161619 0.000250057)
(0.104706 0.00163865 0.00018453)
(0.104806 0.00169824 0.000104249)
(0.104872 0.00181739 -1.74269e-06)
(0.104895 0.00201684 -0.000146785)
(0.10489 0.00229515 -0.000344079)
(0.105192 0.0025937 -0.00059653)