/*--------------------------------*- C++ -*----------------------------------*\
| =========                 |                                                 |
| \\      /  F ield         | OpenFOAM: The Open Source CFD Toolbox           |
|  \\    /   O peration     | Version:  2212                                  |
|   \\  /    A nd           | Website:  www.openfoam.com                      |
|    \\/     M anipulation  |                                                 |
\*---------------------------------------------------------------------------*/
FoamFile
{
    version     2.0;
    format      ascii;
    arch        "LSB;label=32;scalar=64";
    class       surfaceVectorField;
    location    "2.3";
    object      Uf;
}
// * * * * * * * * * * * * * * * * * * * * * * * * * * * * * * * * * * * * * //

dimensions      [0 1 -1 0 0 0 0];

internalField   nonuniform List<vector> 
19019
(
(0.0993441 -0.00341902 -0.00341901)
(0.0973536 0.00106247 -0.00148427)
(0.0973536 -0.00148428 0.00106247)
(0.0834792 0.00197583 0.00197587)
(0.0930873 0.00326896 0.0025335)
(0.0930873 0.00253347 0.00326898)
(0.0745173 0.00195866 0.00195873)
(0.0848642 0.00163579 0.0017924)
(0.0848642 0.00179234 0.00163582)
(0.0685482 0.00115897 0.00115915)
(0.0786284 0.0010734 0.00122149)
(0.0786284 0.00122135 0.00107348)
(0.0642368 0.000696762 0.000697095)
(0.0740536 0.000785101 0.000865364)
(0.0740537 0.000865106 0.000785328)
(0.0607579 0.000494352 0.000495079)
(0.0704435 0.000650123 0.000669769)
(0.0704436 0.000669331 0.000650497)
(0.0579392 0.000373961 0.000375413)
(0.0674933 0.000545993 0.000509514)
(0.0674934 0.000508593 0.000546828)
(0.055617 0.00028653 0.000288995)
(0.0650535 0.000467522 0.000389168)
(0.0650537 0.000387564 0.000469018)
(0.0536295 0.000224644 0.000228671)
(0.0629703 0.00041292 0.00031068)
(0.0629708 0.000308051 0.00041546)
(0.0518875 0.000179254 0.000186014)
(0.0611386 0.000368842 0.000259686)
(0.0611396 0.000255375 0.000373147)
(0.0503423 0.000144654 0.000156018)
(0.0594994 0.000327936 0.000227912)
(0.0595013 0.000220216 0.000335351)
(0.0489629 0.000116294 0.00013432)
(0.0580198 0.000288333 0.00020915)
(0.0580234 0.000196136 0.000300741)
(0.0477234 9.04606e-05 0.000117515)
(0.0566753 0.000250828 0.000198132)
(0.0566817 0.000179438 0.000270653)
(0.0466035 6.28825e-05 0.00010419)
(0.0554461 0.000214275 0.000192321)
(0.0554561 0.000167759 0.000245807)
(0.0456095 3.46762e-05 9.36184e-05)
(0.0543295 0.000170756 0.000192117)
(0.0543451 0.000155051 0.000221562)
(0.0447577 6.2766e-06 8.45115e-05)
(0.0533328 0.000117651 0.000195534)
(0.053357 0.00014161 0.000195335)
(0.0441006 -6.84671e-05 5.97918e-05)
(0.0524971 4.60915e-05 0.000199814)
(0.0525378 0.000117943 0.000161766)
(0.0440119 -0.000210288 -2.00331e-05)
(0.0519852 -0.000111999 0.000161161)
(0.0520595 -4.83526e-06 7.38178e-05)
(0.0451644 -0.00150082 -0.00107554)
(0.0523203 -0.000415763 7.17133e-06)
(0.0525025 -0.000220741 -0.00014936)
(0.0510628 -0.00315308 -0.00212932)
(0.0510262 -0.00229972 -0.00202899)
(0.0984572 0.00247641 0.00172992)
(0.0996871 0.000439214 0.000345488)
(0.100049 0.00105638 0.000750977)
(0.0958349 0.00314797 0.00243273)
(0.0978162 0.00273268 0.00228231)
(0.0982937 0.00280915 0.00216151)
(0.0914502 0.00223018 0.00186941)
(0.095496 0.00300152 0.00230321)
(0.0963041 0.00244251 0.00199789)
(0.0875956 0.00167429 0.00150565)
(0.0926193 0.00229901 0.00183893)
(0.0936671 0.00198045 0.00172712)
(0.0841483 0.00143947 0.00127605)
(0.0897676 0.00189126 0.00153592)
(0.0909052 0.00171924 0.00149814)
(0.0811889 0.00126447 0.00102947)
(0.0872326 0.00165534 0.0012952)
(0.0884353 0.00145382 0.00121247)
(0.0787029 0.00110859 0.000795217)
(0.0850074 0.0014901 0.0010781)
(0.0863063 0.00118232 0.000909908)
(0.0765593 0.000989388 0.000627377)
(0.0830621 0.00136831 0.000914963)
(0.084483 0.000980954 0.000692854)
(0.0746552 0.000900458 0.000521971)
(0.0813264 0.0012731 0.000804482)
(0.0828841 0.000841654 0.000552286)
(0.0729298 0.000823016 0.000459567)
(0.0797493 0.00118493 0.000731276)
(0.0814544 0.000738496 0.000461725)
(0.0713472 0.000745728 0.000424698)
(0.0783021 0.0010967 0.000687767)
(0.0801621 0.000651836 0.000402879)
(0.0698861 0.000667502 0.000405741)
(0.076963 0.00100701 0.000664864)
(0.0789818 0.000573566 0.000363799)
(0.0685323 0.000591258 0.000396766)
(0.0757144 0.000914889 0.000655057)
(0.0778958 0.000504383 0.000339168)
(0.067276 0.000511677 0.000396993)
(0.0745447 0.000817713 0.000655092)
(0.0768992 0.000442412 0.000326203)
(0.0661196 0.000412585 0.000404737)
(0.0734511 0.000705674 0.000665758)
(0.0759947 0.000373053 0.000321541)
(0.0650858 0.000269421 0.000410419)
(0.0724388 0.00056368 0.000684888)
(0.0751909 0.000283579 0.000321995)
(0.0642512 2.18805e-05 0.000362045)
(0.07154 0.000357804 0.000700084)
(0.0745217 0.000143935 0.000314124)
(0.0638802 -0.000460254 0.000172238)
(0.0708445 -4.10424e-05 0.000646563)
(0.0740654 -0.000129269 0.000209641)
(0.0646895 -0.00206328 -0.00095457)
(0.0705868 -0.000843509 0.000460351)
(0.073974 -0.000751895 -0.000223198)
(0.0694628 -0.00325903 -0.000815136)
(0.0734132 -0.00305052 -0.00243126)
(0.0993753 0.00118206 0.00107258)
(0.099473 0.000349734 0.000307062)
(0.0997475 0.000610955 0.000779893)
(0.0984948 0.0022959 0.00203199)
(0.0990504 0.00157669 0.00172049)
(0.0995971 0.0020182 0.00200294)
(0.0971413 0.00247616 0.00204876)
(0.0983577 0.00213088 0.00216897)
(0.0992973 0.00246131 0.00210256)
(0.0954396 0.00224643 0.00176762)
(0.0971933 0.00203539 0.00200257)
(0.0984884 0.00237408 0.00190285)
(0.0937508 0.00201955 0.00152284)
(0.0959051 0.00185501 0.00175464)
(0.0974224 0.00218023 0.0016891)
(0.0921381 0.00186263 0.00134528)
(0.0946715 0.00173175 0.00154316)
(0.0963097 0.00198361 0.00150895)
(0.0906012 0.00175097 0.00121622)
(0.0934813 0.00165107 0.0013873)
(0.0952047 0.00179973 0.0013438)
(0.0891506 0.00165103 0.00111595)
(0.0923671 0.00157394 0.00126697)
(0.0941482 0.00164152 0.00120565)
(0.0878027 0.00154284 0.00103575)
(0.0913298 0.00147659 0.00117447)
(0.0931658 0.00149947 0.00109891)
(0.0865583 0.00142795 0.000977155)
(0.0903387 0.00136283 0.00110798)
(0.0922612 0.00136608 0.00101913)
(0.0854016 0.00131336 0.000941618)
(0.0894052 0.00124603 0.00106535)
(0.0914337 0.0012429 0.000966039)
(0.0843154 0.00120005 0.000925849)
(0.0885198 0.00112817 0.0010432)
(0.0906741 0.00112949 0.000935574)
(0.0832857 0.00108199 0.000925763)
(0.0876672 0.00100856 0.001038)
(0.0899714 0.00102057 0.000922919)
(0.0823055 0.000948777 0.000938368)
(0.086835 0.000881651 0.00104816)
(0.089319 0.000906802 0.000923897)
(0.0813733 0.000785935 0.000961607)
(0.0860132 0.000733703 0.00107311)
(0.0887143 0.000777608 0.000938633)
(0.0804999 0.00056832 0.000990763)
(0.0851932 0.00054178 0.00111372)
(0.0881609 0.000615997 0.000964251)
(0.0797064 0.000216099 0.00101475)
(0.0843662 0.000268628 0.0011718)
(0.0876672 0.000393264 0.000995295)
(0.0789889 -0.00040991 0.00102885)
(0.0834984 -0.000162358 0.00125331)
(0.0872347 2.51718e-05 0.00102101)
(0.07831 -0.00157467 0.000964563)
(0.082561 -0.000900241 0.00133644)
(0.0868472 -0.000586137 0.00104967)
(0.0813056 -0.001939 0.00170688)
(0.0862452 -0.00165264 0.000995994)
(0.0996493 0.000650232 0.000931424)
(0.0994625 0.00012936 0.000192496)
(0.0997993 0.000375096 0.000741369)
(0.0990854 0.00127873 0.00182774)
(0.0992625 0.0006368 0.00137063)
(0.0998409 0.00115026 0.00181424)
(0.0984491 0.00154044 0.00210316)
(0.0989128 0.000973257 0.00200363)
(0.0999047 0.00153626 0.00209022)
(0.0977074 0.00154638 0.00198913)
(0.0982948 0.00104977 0.00205079)
(0.0997673 0.00163131 0.0020232)
(0.0969389 0.00147937 0.00177647)
(0.0976569 0.00100707 0.00189994)
(0.0995093 0.00160901 0.00189609)
(0.0962067 0.00142612 0.00158273)
(0.0970637 0.000959419 0.00169886)
(0.0991991 0.00154667 0.00175241)
(0.0955202 0.00139088 0.0014361)
(0.0965038 0.000932179 0.0015216)
(0.0988538 0.00147319 0.00162702)
(0.0948688 0.00135007 0.00133056)
(0.0959894 0.000915041 0.00138067)
(0.0985091 0.00139058 0.00151702)
(0.0942309 0.00128765 0.00126159)
(0.095518 0.000899576 0.00128122)
(0.0981743 0.00129575 0.00142295)
(0.0935986 0.00120057 0.00121852)
(0.0950583 0.000864639 0.00122181)
(0.0978251 0.00118827 0.00134886)
(0.0929728 0.00109684 0.00119371)
(0.0945945 0.00080316 0.00119275)
(0.0974834 0.00107679 0.0012996)
(0.0923488 0.00098478 0.0011855)
(0.0941232 0.000729128 0.00118583)
(0.0971497 0.000966116 0.00127183)
(0.0917169 0.000866866 0.00119358)
(0.0936344 0.00065135 0.00119493)
(0.0968166 0.000855505 0.00126314)
(0.0910631 0.000736905 0.00121967)
(0.0931101 0.000569844 0.00122209)
(0.096477 0.000740555 0.00127516)
(0.0903672 0.000579915 0.00126828)
(0.0925317 0.000478968 0.00127388)
(0.0961211 0.000610607 0.00131112)
(0.0896001 0.000369373 0.00134978)
(0.0918696 0.000363137 0.0013591)
(0.0957349 0.000451904 0.00137929)
(0.0887134 5.74383e-05 0.00148083)
(0.0910771 0.00020228 0.00150049)
(0.0952952 0.000238334 0.00149665)
(0.087624 -0.000439515 0.00164983)
(0.0900502 -3.73392e-05 0.00172286)
(0.0947498 -7.32087e-05 0.00168238)
(0.0862135 -0.00112016 0.00217926)
(0.0886973 -0.000419746 0.0019946)
(0.0940519 -0.00054653 0.00192111)
(0.0871767 -0.000835679 0.00311445)
(0.093414 -0.00108251 0.00260739)
(0.0996725 0.00015404 0.000629485)
(0.0993801 1.52417e-09 5.89344e-05)
(0.0997132 0.000103914 0.000687954)
(0.099159 0.000353275 0.00154428)
(0.0992677 1.04137e-08 0.00120003)
(0.0998376 0.000341604 0.00162231)
(0.0986635 0.000457727 0.00194756)
(0.0989803 3.61399e-08 0.00188853)
(0.0999629 0.000485405 0.00199142)
(0.0982119 0.000480825 0.00196075)
(0.0984744 7.70155e-08 0.00200658)
(0.0999916 0.000539527 0.00199673)
(0.0977756 0.000471621 0.00182503)
(0.0979951 1.4801e-07 0.00191488)
(0.100009 0.000546244 0.00191133)
(0.0973613 0.000458228 0.00164155)
(0.0975699 2.89018e-07 0.00173507)
(0.100007 0.000533261 0.00180483)
(0.096992 0.00044598 0.00146885)
(0.0971792 5.66318e-07 0.00154784)
(0.0999798 0.000511122 0.00168373)
(0.0966695 0.000436559 0.00133098)
(0.0968278 1.03612e-06 0.00138953)
(0.0999364 0.000484507 0.001574)
(0.0963854 0.000427705 0.00123783)
(0.0965247 1.85631e-06 0.00127181)
(0.099894 0.000460337 0.00148386)
(0.0961131 0.000412101 0.00119139)
(0.0962652 3.23309e-06 0.00120269)
(0.0998577 0.000436021 0.00142282)
(0.0958232 0.000386487 0.00118108)
(0.0959822 5.5444e-06 0.00117802)
(0.0997974 0.000405276 0.00138705)
(0.0954994 0.000353716 0.00119257)
(0.0956738 9.38238e-06 0.0011806)
(0.0997174 0.000369308 0.00136722)
(0.0951273 0.000317938 0.00122171)
(0.0953331 1.57778e-05 0.00119839)
(0.0996116 0.000331561 0.00136675)
(0.0946868 0.000283251 0.00127593)
(0.0949387 2.71139e-05 0.00123318)
(0.0994631 0.000293752 0.00139314)
(0.09415 0.000246584 0.00136661)
(0.0944711 4.59066e-05 0.00129581)
(0.0992615 0.000256983 0.00145193)
(0.0934685 0.000199758 0.00151528)
(0.0938978 7.58261e-05 0.00139789)
(0.0989849 0.000215486 0.00155893)
(0.0925602 0.000138567 0.00175328)
(0.0931635 0.000124749 0.00156692)
(0.098596 0.0001645 0.00174536)
(0.091292 5.29936e-05 0.00208615)
(0.092158 0.000208232 0.00183147)
(0.0980242 0.000102354 0.00204968)
(0.0894733 0.000119957 0.00297721)
(0.0907687 0.000344615 0.00218012)
(0.0972134 2.1865e-05 0.00248174)
(0.0893065 0.000707458 0.00326023)
(0.0964172 0.000152349 0.00372463)
(0.0996725 -0.000154024 0.000629479)
(0.0994625 -0.000129355 0.000192492)
(0.0997132 -0.000103906 0.000687954)
(0.099159 -0.000353227 0.00154428)
(0.0992625 -0.000636781 0.00137063)
(0.0998376 -0.000341575 0.00162231)
(0.0986635 -0.000457624 0.00194755)
(0.0989128 -0.000973224 0.00200361)
(0.099963 -0.000485342 0.00199144)
(0.098212 -0.000480624 0.0019607)
(0.0982949 -0.00104971 0.00205074)
(0.0999917 -0.0005394 0.00199672)
(0.0977758 -0.000471217 0.00182491)
(0.0976572 -0.00100691 0.00189984)
(0.100009 -0.00054598 0.00191125)
(0.0973618 -0.000457416 0.00164135)
(0.0970643 -0.000959036 0.00169868)
(0.100007 -0.000532728 0.00180464)
(0.0969929 -0.00044444 0.00146852)
(0.0965048 -0.000931378 0.00152137)
(0.0999803 -0.000510115 0.00168344)
(0.096671 -0.000433783 0.00133037)
(0.0959912 -0.000913556 0.00138027)
(0.0999375 -0.000482702 0.00157352)
(0.0963881 -0.000422841 0.00123667)
(0.0955212 -0.000896841 0.00128034)
(0.0998959 -0.000457109 0.00148302)
(0.0961179 -0.000403744 0.00118931)
(0.0950641 -0.000860013 0.0012199)
(0.0998608 -0.000430299 0.00142135)
(0.0958317 -0.000372354 0.00117755)
(0.0946046 -0.000795516 0.00118924)
(0.0998028 -0.000395363 0.00138465)
(0.0955144 -0.000330016 0.00118642)
(0.0941407 -0.000716747 0.00117938)
(0.0997265 -0.000352511 0.0013632)
(0.0951538 -0.000277594 0.00120986)
(0.0936649 -0.000630868 0.00118388)
(0.0996282 -0.000303946 0.00135932)
(0.0947343 -0.000215117 0.00125306)
(0.0931634 -0.000535058 0.00120245)
(0.0994927 -0.000247699 0.00137877)
(0.0942351 -0.000134894 0.00132709)
(0.0926235 -0.000422912 0.00123876)
(0.0993106 -0.000181611 0.00142643)
(0.0936157 -1.78692e-05 0.00144952)
(0.0920258 -0.000268078 0.00129788)
(0.0990672 -9.51688e-05 0.00151388)
(0.0928086 0.000164203 0.0016451)
(0.0913395 -4.14866e-05 0.00139189)
(0.0987298 2.83903e-05 0.00166724)
(0.0917102 0.000450311 0.00192545)
(0.0905025 0.000304828 0.00154197)
(0.0982445 0.000212993 0.00191827)
(0.0901802 0.000883057 0.00246314)
(0.0894381 0.000843292 0.00175809)
(0.0975625 0.000487267 0.00227743)
(0.0884001 0.00179096 0.00219243)
(0.0970796 0.000869953 0.00298233)
(0.0996493 -0.000650234 0.000931429)
(0.099473 -0.000349739 0.000307062)
(0.0997993 -0.000375099 0.000741371)
(0.0990855 -0.00127874 0.00182773)
(0.0990504 -0.00157672 0.00172048)
(0.0998409 -0.00115027 0.00181425)
(0.0984492 -0.00154044 0.00210311)
(0.0983578 -0.00213093 0.00216889)
(0.0999048 -0.00153627 0.00209019)
(0.0977077 -0.00154635 0.00198903)
(0.0971934 -0.00203548 0.00200245)
(0.0997674 -0.00163133 0.00202308)
(0.0969394 -0.00147921 0.0017763)
(0.0959055 -0.0018551 0.00175445)
(0.0995096 -0.00160897 0.00189585)
(0.0962078 -0.00142573 0.00158251)
(0.0946723 -0.0017318 0.00154287)
(0.0991998 -0.00154654 0.00175203)
(0.0955221 -0.00139017 0.00143579)
(0.0934826 -0.00165107 0.00138687)
(0.0988551 -0.00147287 0.00162648)
(0.0948722 -0.00134872 0.0013299)
(0.0923695 -0.00157394 0.00126627)
(0.0985114 -0.00138999 0.00151616)
(0.094237 -0.00128531 0.00126)
(0.0913341 -0.00147653 0.00117321)
(0.0981782 -0.00129464 0.00142148)
(0.0936093 -0.00119687 0.00121525)
(0.0903461 -0.00136274 0.00110555)
(0.0978319 -0.00118632 0.00134623)
(0.0929914 -0.00109121 0.00118742)
(0.089418 -0.00124599 0.00106118)
(0.097495 -0.00107372 0.00129502)
(0.0923807 -0.000975978 0.00117437)
(0.0885419 -0.00112846 0.00103555)
(0.0971698 -0.000961403 0.00126361)
(0.0917714 -0.000852575 0.00117508)
(0.0877046 -0.00100926 0.00102506)
(0.0968513 -0.000848714 0.00124876)
(0.0911565 -0.000715083 0.00118826)
(0.0868981 -0.000882914 0.00102677)
(0.0965356 -0.00073024 0.00125027)
(0.0905255 -0.000541981 0.00121232)
(0.0861182 -0.00073711 0.00103684)
(0.0962187 -0.000595043 0.00126828)
(0.0898674 -0.000299407 0.00124752)
(0.0853671 -0.000542919 0.00104758)
(0.095895 -0.000420719 0.00130389)
(0.0891676 5.97148e-05 0.00130296)
(0.0846606 -0.000267175 0.00105343)
(0.0955564 -0.000180948 0.00136169)
(0.0883831 0.000612194 0.00139837)
(0.0840045 0.000172399 0.00103924)
(0.095183 0.000166388 0.00145552)
(0.0874275 0.00153529 0.00153562)
(0.0834087 0.000907247 0.00100766)
(0.09475 0.000677635 0.00160786)
(0.0825489 0.00227067 0.000775592)
(0.0943698 0.00147269 0.00182479)
(0.0993753 -0.00118209 0.00107256)
(0.0996871 -0.00043922 0.000345482)
(0.0997475 -0.000610965 0.000779886)
(0.0984949 -0.00229596 0.00203192)
(0.0978162 -0.00273272 0.00228228)
(0.0995971 -0.00201823 0.00200289)
(0.0971414 -0.00247628 0.00204862)
(0.0954961 -0.00300159 0.00230312)
(0.0992974 -0.00246139 0.00210243)
(0.0954398 -0.00224662 0.00176741)
(0.0926194 -0.00229914 0.00183876)
(0.0984885 -0.00237424 0.00190263)
(0.0937513 -0.00201984 0.00152253)
(0.0897678 -0.00189151 0.00153568)
(0.0974227 -0.00218049 0.00168877)
(0.092139 -0.00186307 0.00134481)
(0.087233 -0.00165576 0.00129483)
(0.0963103 -0.00198404 0.00150848)
(0.090603 -0.00175165 0.00121544)
(0.0850082 -0.0014908 0.00107751)
(0.0952057 -0.00180038 0.00134306)
(0.0891538 -0.00165217 0.00111467)
(0.0830635 -0.00136946 0.000913974)
(0.0941501 -0.00164252 0.00120438)
(0.0878082 -0.00154473 0.00103366)
(0.081329 -0.00127503 0.00080283)
(0.0931692 -0.00150119 0.00109683)
(0.0865678 -0.0014311 0.000973821)
(0.0797537 -0.00118824 0.000728488)
(0.092267 -0.00136904 0.00101565)
(0.0854178 -0.00131859 0.000936057)
(0.07831 -0.00110254 0.000682765)
(0.0914437 -0.00124779 0.000960256)
(0.0843426 -0.00120847 0.000916227)
(0.0769771 -0.00101668 0.000656077)
(0.0906913 -0.00113773 0.000925757)
(0.0833306 -0.00109507 0.000909439)
(0.0757384 -0.000929645 0.000642149)
(0.0899995 -0.00103439 0.000906652)
(0.0823788 -0.000968613 0.000910883)
(0.0745838 -0.000840353 0.000637881)
(0.0893637 -0.000929301 0.000897723)
(0.0814925 -0.000813929 0.000912208)
(0.0735132 -0.000741392 0.000638841)
(0.088785 -0.000812193 0.000895762)
(0.0807015 -0.00060892 0.000902231)
(0.072539 -0.000622701 0.000633883)
(0.088273 -0.000666208 0.000890028)
(0.0800524 -0.000271573 0.00084973)
(0.071711 -0.000454259 0.000603893)
(0.0878501 -0.000466472 0.000864677)
(0.0795734 0.000325806 0.000726805)
(0.0711443 -8.74669e-05 0.000449546)
(0.0875325 -0.000124298 0.000780633)
(0.0792896 0.00160249 0.000328004)
(0.0711783 0.000642225 0.000130015)
(0.0873298 0.000440919 0.000628278)
(0.0699237 0.0027343 -0.00111066)
(0.0869316 0.00163504 0.000168571)
(0.0984572 -0.00247643 0.00172989)
(0.0973536 -0.00106247 -0.00148428)
(0.100049 -0.00105638 0.000750969)
(0.0958349 -0.00314802 0.00243267)
(0.0930873 -0.00326898 0.00253346)
(0.0982937 -0.00280919 0.00216147)
(0.0914502 -0.00223025 0.00186929)
(0.0848642 -0.00163583 0.00179234)
(0.0963041 -0.0024426 0.0019978)
(0.0875956 -0.00167446 0.00150545)
(0.0786284 -0.00107349 0.00122135)
(0.0936671 -0.00198061 0.00172695)
(0.0841485 -0.00143979 0.00127572)
(0.0740537 -0.000785333 0.000865108)
(0.0909052 -0.00171954 0.00149786)
(0.0811891 -0.00126499 0.00102892)
(0.0704436 -0.000650501 0.000669334)
(0.0884354 -0.0014543 0.00121198)
(0.0787034 -0.00110947 0.000794323)
(0.0674934 -0.00054683 0.0005086)
(0.0863065 -0.00118313 0.000909107)
(0.0765602 -0.000990896 0.000625881)
(0.0650537 -0.000469019 0.000387573)
(0.0844834 -0.000982327 0.000691512)
(0.074657 -0.00090312 0.000519429)
(0.0629708 -0.000415459 0.000308064)
(0.0828848 -0.000844039 0.00054998)
(0.0729332 -0.000827724 0.00045482)
(0.0611395 -0.000373144 0.000255391)
(0.0814557 -0.000742678 0.000457697)
(0.0713536 -0.000753758 0.000416035)
(0.0595012 -0.000335348 0.000220234)
(0.0801646 -0.000659352 0.000395214)
(0.0698982 -0.000680564 0.000393034)
(0.0580233 -0.000300734 0.000196159)
(0.0789867 -0.00058592 0.000350781)
(0.0685526 -0.000612746 0.000382044)
(0.0566815 -0.000270655 0.000179477)
(0.0779044 -0.000522938 0.000320939)
(0.0673072 -0.000547512 0.000378961)
(0.0554559 -0.00024578 0.000167813)
(0.0769129 -0.000470736 0.000302433)
(0.0661682 -0.000476005 0.000374366)
(0.0543447 -0.000221481 0.000155114)
(0.0760159 -0.000418823 0.000284905)
(0.0651639 -0.000379282 0.000349718)
(0.0533566 -0.000195263 0.000141685)
(0.0752241 -0.000361396 0.000260567)
(0.0643863 -0.000183863 0.000231664)
(0.0525372 -0.000161678 0.000118059)
(0.0745777 -0.000274577 0.000201324)
(0.0641584 0.000214263 -5.42339e-05)
(0.0520587 -7.37041e-05 -4.69346e-06)
(0.0741679 -6.49197e-05 6.78093e-06)
(0.0652126 0.00109896 -0.000894055)
(0.0525015 0.00014953 -0.000220584)
(0.0742262 0.000464264 -0.000552045)
(0.0510253 0.00202946 -0.00229981)
(0.0733613 0.00206278 -0.00275971)
(0.0993441 0.00341901 -0.00341902)
(0.0973536 0.00148427 0.00106247)
(0.0834792 -0.00197587 0.00197583)
(0.0930873 -0.0025335 0.00326896)
(0.0745173 -0.00195873 0.00195865)
(0.0848642 -0.0017924 0.00163578)
(0.0685482 -0.00115915 0.00115897)
(0.0786284 -0.00122148 0.00107339)
(0.0642368 -0.000697095 0.000696762)
(0.0740536 -0.000865361 0.000785098)
(0.0607579 -0.000495077 0.000494356)
(0.0704435 -0.000669764 0.000650123)
(0.0579391 -0.000375407 0.000373968)
(0.0674933 -0.000509506 0.000545995)
(0.0556169 -0.000288987 0.00028654)
(0.0650534 -0.000389157 0.000467528)
(0.0536295 -0.000228661 0.000224657)
(0.0629702 -0.000310667 0.000412929)
(0.0518875 -0.000186 0.00017927)
(0.0611385 -0.00025967 0.000368855)
(0.0503422 -0.000155999 0.000144673)
(0.0594993 -0.000227891 0.000327952)
(0.0489627 -0.000134304 0.00011633)
(0.0580197 -0.000209122 0.000288353)
(0.0477232 -0.000117485 9.05106e-05)
(0.0566751 -0.000198105 0.000250868)
(0.0466032 -0.000104115 6.29386e-05)
(0.0554459 -0.000192278 0.000214348)
(0.0456092 -9.35274e-05 3.47341e-05)
(0.0543292 -0.000192056 0.000170864)
(0.0447573 -8.44199e-05 6.36655e-06)
(0.0533324 -0.000195479 0.000117793)
(0.0441 -5.96856e-05 -6.83202e-05)
(0.0524966 -0.000199727 4.62827e-05)
(0.0440112 2.01639e-05 -0.000210114)
(0.0519845 -0.000161023 -0.000111774)
(0.0451636 0.00107564 -0.00150055)
(0.0523196 -6.95995e-06 -0.000415489)
(0.0510619 0.00212947 -0.00315232)
(0.0984572 0.00172989 0.00247643)
(0.100049 0.00075097 0.00105638)
(0.0996871 0.000345482 0.000439218)
(0.0958349 0.00243267 0.00314801)
(0.0982937 0.00216147 0.00280919)
(0.0978162 0.00228228 0.00273272)
(0.0914502 0.00186929 0.00223024)
(0.0963041 0.0019978 0.0024426)
(0.0954961 0.00230312 0.00300158)
(0.0875956 0.00150544 0.00167445)
(0.0936672 0.00172695 0.0019806)
(0.0926194 0.00183876 0.00229913)
(0.0841485 0.00127571 0.00143978)
(0.0909052 0.00149786 0.00171953)
(0.0897678 0.00153568 0.00189151)
(0.0811891 0.00102891 0.00126498)
(0.0884354 0.00121197 0.0014543)
(0.087233 0.00129483 0.00165575)
(0.0787034 0.000794314 0.00110946)
(0.0863065 0.000909098 0.00118313)
(0.0850082 0.0010775 0.00149079)
(0.0765603 0.000625869 0.000990884)
(0.0844834 0.000691501 0.000982324)
(0.0830635 0.000913966 0.00136946)
(0.0746571 0.000519413 0.000903106)
(0.0828849 0.000549965 0.000844037)
(0.081329 0.000802818 0.00127502)
(0.0729333 0.0004548 0.000827708)
(0.0814558 0.000457679 0.000742677)
(0.0797538 0.000728472 0.00118823)
(0.0713538 0.00041601 0.000753739)
(0.0801647 0.000395193 0.000659354)
(0.0783101 0.000682746 0.00110253)
(0.0698984 0.000393005 0.000680542)
(0.0789868 0.000350754 0.000585923)
(0.0769772 0.000656047 0.00101666)
(0.0685529 0.000381994 0.000612713)
(0.0779047 0.000320875 0.000522907)
(0.0757387 0.00064212 0.000929639)
(0.0673076 0.000378877 0.000547497)
(0.0769131 0.000302352 0.000470732)
(0.0745839 0.000637806 0.000840333)
(0.0661687 0.000374257 0.000476021)
(0.0760163 0.000284856 0.000418908)
(0.0735136 0.000638714 0.00074136)
(0.0651645 0.000349587 0.0003793)
(0.0752245 0.000260471 0.000361461)
(0.0725396 0.000633721 0.00062266)
(0.0643871 0.000231528 0.000183897)
(0.0745782 0.000201201 0.000274637)
(0.0717117 0.000603701 0.000454198)
(0.0641595 -5.43809e-05 -0.000214164)
(0.0741686 6.64862e-06 6.50251e-05)
(0.0711452 0.000449308 8.74131e-05)
(0.0652139 -0.000893774 -0.00109838)
(0.0742271 -0.000552179 -0.000464061)
(0.0711795 0.000129683 -0.000642251)
(0.0733624 -0.0027597 -0.00206229)
(0.0699251 -0.00111063 -0.00273394)
(0.10008 0.00135174 0.00135177)
(0.100186 0.000798742 0.000804954)
(0.100186 0.000804943 0.000798752)
(0.100264 0.00221721 0.00221729)
(0.10019 0.00231177 0.0020715)
(0.10019 0.00207143 0.00231182)
(0.0993831 0.00243557 0.00243574)
(0.100307 0.00263355 0.00245313)
(0.100307 0.00245298 0.00263365)
(0.0979844 0.00230997 0.00231025)
(0.0998052 0.00256012 0.00245606)
(0.0998053 0.0024558 0.00256033)
(0.0964956 0.00200585 0.00200633)
(0.0988631 0.00236404 0.00228116)
(0.0988632 0.00228076 0.00236436)
(0.0950738 0.00159653 0.00159734)
(0.0978414 0.00204849 0.00196853)
(0.0978416 0.00196792 0.00204907)
(0.0937773 0.00122549 0.00122685)
(0.0968623 0.00169034 0.0016054)
(0.0968627 0.00160443 0.00169128)
(0.0926211 0.000960595 0.000962919)
(0.095961 0.00140302 0.00132273)
(0.0959616 0.00132106 0.00140454)
(0.0915998 0.000775291 0.000779336)
(0.0951505 0.00118886 0.00112076)
(0.0951517 0.00111787 0.00119151)
(0.0906981 0.000641077 0.000648363)
(0.0944299 0.00102715 0.000975629)
(0.094432 0.000970685 0.00103179)
(0.0898967 0.000539377 0.000551768)
(0.093795 0.000900884 0.000870678)
(0.0937986 0.000861924 0.000908928)
(0.0891768 0.000461166 0.00047989)
(0.0932325 0.000798769 0.000795384)
(0.0932386 0.000781082 0.00081202)
(0.0885299 0.000399396 0.000426211)
(0.0927311 0.000712134 0.000741977)
(0.0927407 0.000720439 0.000732734)
(0.0879603 0.000340762 0.000381485)
(0.0922923 0.000630839 0.000702867)
(0.0923067 0.00067093 0.000662627)
(0.087478 0.000273251 0.000336911)
(0.0919205 0.000541185 0.000671483)
(0.0919421 0.000621014 0.00059103)
(0.0870997 0.000177871 0.000282039)
(0.0916232 0.000431529 0.000641845)
(0.0916544 0.000562172 0.000507519)
(0.0868448 7.44922e-06 0.000179303)
(0.0914105 0.000272244 0.000602265)
(0.0914548 0.000467261 0.000390766)
(0.0866431 -0.000360656 -0.000101825)
(0.0912694 1.44811e-05 0.00051468)
(0.0913291 0.000291971 0.000196583)
(0.0861408 -0.00132644 -0.000922723)
(0.0910822 -0.00039562 0.000280615)
(0.0911539 -6.3402e-05 -0.00015611)
(0.0911655 -0.00105229 -0.000326174)
(0.0912343 -0.00088522 -0.000717977)
(0.100171 0.00136864 0.00141644)
(0.100118 0.000577381 0.000811313)
(0.100102 0.00069974 0.000700689)
(0.100759 0.00219479 0.00214912)
(0.100478 0.00158277 0.00185878)
(0.100477 0.00182246 0.00186466)
(0.100996 0.00247674 0.00238805)
(0.101004 0.0020586 0.00224258)
(0.101024 0.00234663 0.00238297)
(0.100838 0.00247591 0.00238931)
(0.101292 0.00220323 0.00235224)
(0.101338 0.00250569 0.00254376)
(0.100458 0.00231102 0.00222511)
(0.101309 0.00216697 0.00232241)
(0.101409 0.00245017 0.00247245)
(0.0999677 0.00205565 0.00196866)
(0.101156 0.00201015 0.00217921)
(0.101302 0.00226401 0.00227071)
(0.0994435 0.00178886 0.00170075)
(0.100926 0.00179257 0.00196922)
(0.101099 0.002008 0.0019991)
(0.0989337 0.0015603 0.00148506)
(0.100664 0.00158152 0.00176705)
(0.100855 0.00176831 0.00175864)
(0.0984648 0.0013727 0.00132405)
(0.100407 0.00139172 0.00159263)
(0.100608 0.00156575 0.00156551)
(0.098048 0.00121625 0.00120551)
(0.10017 0.00122292 0.0014495)
(0.100381 0.00139649 0.00141274)
(0.0976836 0.00108351 0.00112167)
(0.0999614 0.00107789 0.00134703)
(0.100186 0.00125457 0.00129374)
(0.0973692 0.000966593 0.00106488)
(0.0997824 0.000952402 0.00127813)
(0.100027 0.00113382 0.00120279)
(0.0971036 0.000855729 0.00102681)
(0.0996307 0.000837559 0.001235)
(0.0999044 0.00102712 0.00113349)
(0.0968868 0.000740379 0.00100282)
(0.0995057 0.0007231 0.00121223)
(0.0998209 0.000925476 0.00107882)
(0.0967199 0.000606731 0.00098943)
(0.0994063 0.000596708 0.00120947)
(0.0997771 0.000819626 0.0010346)
(0.0966064 0.000433749 0.000980104)
(0.0993319 0.000444629 0.00122595)
(0.0997748 0.000695554 0.000993651)
(0.0965452 0.000190688 0.000964421)
(0.0992786 0.00024401 0.00126379)
(0.099812 0.000534156 0.000946308)
(0.0965131 -0.000162782 0.000925409)
(0.0992338 -3.5857e-05 0.00132169)
(0.0998767 0.000308558 0.000875874)
(0.0964721 -0.000660071 0.000833607)
(0.0991648 -0.000435598 0.00139016)
(0.0999386 -1.03457e-05 0.000758708)
(0.0992813 -0.000980062 0.00146789)
(0.100141 -0.00040266 0.000615081)
(0.100242 0.000820119 0.00125614)
(0.10009 0.000294318 0.000735357)
(0.100071 0.000415647 0.000602778)
(0.100828 0.00139045 0.00193935)
(0.100491 0.000791933 0.00168402)
(0.100492 0.00112433 0.00158699)
(0.101392 0.00166329 0.00218232)
(0.101086 0.00107763 0.00208341)
(0.101128 0.00154069 0.00209411)
(0.101816 0.00176083 0.00226138)
(0.101664 0.00120418 0.00217909)
(0.101767 0.00173248 0.00229427)
(0.10208 0.00175481 0.00226243)
(0.102121 0.0012395 0.00222227)
(0.102291 0.00178951 0.00236741)
(0.102214 0.00166723 0.00217743)
(0.10245 0.00120155 0.00221066)
(0.102711 0.0017432 0.00232221)
(0.102264 0.00153206 0.00204269)
(0.102678 0.00111783 0.00212722)
(0.103036 0.00162512 0.0022026)
(0.102273 0.00137916 0.00188729)
(0.102839 0.00101643 0.00200692)
(0.103285 0.00147767 0.00205048)
(0.102269 0.00122514 0.00173386)
(0.102962 0.000915145 0.00187262)
(0.10349 0.00132456 0.00189191)
(0.102262 0.0010831 0.00160917)
(0.103063 0.000819671 0.00174833)
(0.103666 0.00118002 0.00174888)
(0.102255 0.000958392 0.00152387)
(0.103151 0.000731861 0.00165068)
(0.103825 0.00105206 0.00163832)
(0.102253 0.000845347 0.00147062)
(0.103237 0.000651228 0.00157935)
(0.103976 0.000939633 0.00155667)
(0.102253 0.000734976 0.00144476)
(0.103316 0.000574093 0.00154003)
(0.104124 0.000835492 0.00150039)
(0.102255 0.00061758 0.00144577)
(0.103383 0.000496045 0.00153333)
(0.104271 0.000732803 0.00146764)
(0.102255 0.000483404 0.0014767)
(0.103439 0.00041021 0.00155545)
(0.104418 0.000624232 0.00145852)
(0.102246 0.000318935 0.00154642)
(0.103478 0.000310874 0.00161797)
(0.104564 0.000502245 0.00147624)
(0.102218 0.000103395 0.00166745)
(0.10349 0.000187335 0.00173791)
(0.104705 0.000353942 0.00152881)
(0.102148 -0.000183777 0.00184881)
(0.103461 3.00698e-05 0.00193544)
(0.104834 0.000165339 0.00162491)
(0.101978 -0.00050731 0.00212341)
(0.103386 -0.000165297 0.00221876)
(0.104944 -7.14171e-05 0.0017687)
(0.10358 -0.000331225 0.00259713)
(0.105232 -0.0002993 0.00200887)
(0.100243 0.000267417 0.00116242)
(0.100087 5.41492e-09 0.000707024)
(0.100064 0.000135811 0.000537335)
(0.100782 0.000465752 0.00182624)
(0.100477 1.65056e-08 0.00161781)
(0.100463 0.000370896 0.00142415)
(0.101401 0.000575554 0.00207622)
(0.101065 2.93357e-08 0.00203469)
(0.101089 0.000525185 0.00193361)
(0.101987 0.000622978 0.00213423)
(0.101694 6.58562e-08 0.00211776)
(0.101797 0.000605918 0.00212872)
(0.102506 0.000631274 0.00216577)
(0.102268 1.45118e-07 0.00215063)
(0.102489 0.000639399 0.00221135)
(0.102933 0.000610607 0.00215833)
(0.102741 2.83816e-07 0.00218072)
(0.103119 0.000634347 0.00224235)
(0.103275 0.000571746 0.00209151)
(0.103123 5.00047e-07 0.00213561)
(0.103685 0.000601228 0.00219811)
(0.103551 0.000526176 0.00199366)
(0.103426 8.54575e-07 0.00204687)
(0.104183 0.000555363 0.00210825)
(0.103782 0.000481961 0.00188918)
(0.103677 1.50172e-06 0.00193962)