/*--------------------------------*- C++ -*----------------------------------*\
| =========                 |                                                 |
| \\      /  F ield         | OpenFOAM: The Open Source CFD Toolbox           |
|  \\    /   O peration     | Version:  2212                                  |
|   \\  /    A nd           | Website:  www.openfoam.com                      |
|    \\/     M anipulation  |                                                 |
\*---------------------------------------------------------------------------*/
FoamFile
{
    version     2.0;
    format      ascii;
    arch        "LSB;label=32;scalar=64";
    class       surfaceScalarField;
    location    "2.7";
    object      phi;
}
// * * * * * * * * * * * * * * * * * * * * * * * * * * * * * * * * * * * * * //

dimensions      [0 3 -1 0 0 0 0];

oriented        oriented;

internalField   nonuniform List<scalar> 
1800
(
3.3225e-07
1.09686e-09
1.09679e-09
2.7919e-07
2.65297e-08
2.65293e-08
2.49218e-07
1.49867e-08
1.49859e-08
2.29254e-07
9.9826e-09
9.98131e-09
2.14834e-07
7.21134e-09
7.20844e-09
2.03198e-07
5.82034e-09
5.81587e-09
4.71871e-09
4.7098e-09
6.3138e-07
3.58763e-09
7.40283e-09
6.14564e-07
2.26461e-08
2.07001e-08
5.86445e-07
2.43762e-08
1.87288e-08
5.61727e-07
1.88551e-08
1.58463e-08
5.39619e-07
1.55701e-08
1.37483e-08
5.20641e-07
1.35114e-08
1.12879e-08
1.19537e-08
8.70719e-09
8.90375e-07
2.85264e-09
6.33227e-09
8.82487e-07
1.34086e-08
1.71254e-08
8.70361e-07
1.7867e-08
1.8635e-08
8.55116e-07
1.69546e-08
1.71457e-08
8.39989e-07
1.53383e-08
1.53583e-08
8.25547e-07
1.41659e-08
1.37874e-08
1.33719e-08
1.23389e-08
1.07432e-06
1.06471e-09
5.56885e-09
1.06824e-06
5.58618e-09
1.39001e-08
1.06138e-06
8.46323e-09
1.62613e-08
1.05339e-06
9.03838e-09
1.59076e-08
1.04511e-06
8.61487e-09
1.49998e-08
1.03723e-06
8.11466e-09
1.39301e-08
7.77568e-09
1.29728e-08
1.16914e-06
-1.44584e-13
4.9065e-09
1.16312e-06
-6.86568e-13
1.16083e-08
1.15731e-06
-1.58811e-12
1.42753e-08
1.15202e-06
-2.87596e-12
1.43334e-08
1.14691e-06
-4.96164e-12
1.37299e-08
1.14206e-06
-8.66104e-12
1.29687e-08
-1.5223e-11
1.21e-08
1.16914e-06
-1.06501e-09
4.90655e-09
1.16312e-06
-5.58725e-09
1.16085e-08
1.15731e-06
-8.46532e-09
1.42755e-08
1.15202e-06
-9.04201e-09
1.4334e-08
1.1469e-06
-8.62168e-09
1.37319e-08
1.14205e-06
-8.12728e-09
1.29727e-08
-7.79825e-09
1.21063e-08
1.07432e-06
-2.85258e-09
5.56885e-09
1.06824e-06
-1.34084e-08
1.39002e-08
1.06138e-06
-1.78669e-08
1.62621e-08
1.05338e-06
-1.69545e-08
1.59101e-08
1.04509e-06
-1.5339e-08
1.50045e-08
1.03719e-06
-1.41681e-08
1.39374e-08
-1.33763e-08
1.29838e-08
8.90375e-07
-3.58747e-09
6.33237e-09
8.82485e-07
-2.26453e-08
1.71261e-08
8.70357e-07
-2.43751e-08
1.86367e-08
8.55107e-07
-1.88534e-08
1.71486e-08
8.39972e-07
-1.55666e-08
1.53625e-08
8.25516e-07
-1.35055e-08
1.37932e-08
-1.19436e-08
1.23483e-08
6.3138e-07
-1.09679e-09
7.40293e-09
6.14563e-07
-2.65293e-08
2.07006e-08
5.86444e-07
-1.49859e-08
1.87298e-08
5.61724e-07
-9.98128e-09
1.58482e-08
5.39615e-07
-7.20842e-09
1.3751e-08
5.20632e-07
-5.81584e-09
1.1293e-08
-4.70976e-09
8.71541e-09
3.3225e-07
1.09686e-09
2.79191e-07
2.65297e-08
2.49218e-07
1.49868e-08
2.29254e-07
9.98263e-09
2.14834e-07
7.21139e-09
2.03198e-07
5.82039e-09
4.71877e-09
6.3138e-07
7.40293e-09
3.58748e-09
6.14563e-07
2.07006e-08
2.26453e-08
5.86444e-07
1.87298e-08
2.43752e-08
5.61724e-07
1.58482e-08
1.88535e-08
5.39615e-07
1.37509e-08
1.55667e-08
5.20632e-07
1.12929e-08
1.35056e-08
8.71535e-09
1.19437e-08
9.23616e-07
7.03396e-09
7.03376e-09
9.25318e-07
1.98501e-08
1.98494e-08
9.17183e-07
2.27973e-08
2.2796e-08
9.04273e-07
2.23034e-08
2.23009e-08
8.90531e-07
2.06229e-08
2.06188e-08
8.77404e-07
1.78576e-08
1.78499e-08
1.47041e-08
1.46914e-08
1.1589e-06
5.28143e-09
6.10237e-09
1.1657e-06
1.39988e-08
1.61821e-08
1.16845e-06
1.79781e-08
2.07049e-08
1.16661e-06
1.91791e-08
2.21022e-08
1.16222e-06
1.88764e-08
2.15021e-08
1.15655e-06
1.75459e-08
1.97651e-08
1.56849e-08
1.74178e-08
1.32763e-06
2.71812e-09
4.93094e-09
1.3354e-06
7.12053e-09
1.30085e-08
1.34287e-06
9.5528e-09
1.72149e-08
1.34848e-06
1.05767e-08
1.88977e-08
1.35198e-06
1.08726e-08
1.94989e-08
1.35377e-06
1.05758e-08
1.91122e-08
9.88361e-09
1.80968e-08
1.41518e-06
-2.734e-13
4.19278e-09
1.42279e-06
-7.93582e-13
1.11157e-08
1.43152e-06
-1.39136e-12
1.50984e-08
1.4398e-06
-2.55667e-12
1.66292e-08
1.44714e-06
-4.71671e-12
1.72753e-08
1.45318e-06
-8.21064e-12
1.751e-08
-1.35225e-11
1.71537e-08
1.41518e-06
-2.71843e-09
4.19293e-09
1.42279e-06
-7.1214e-09
1.11161e-08
1.43152e-06
-9.55441e-09
1.5099e-08
1.4398e-06
-1.05797e-08
1.66306e-08
1.44713e-06
-1.08783e-08
1.72785e-08
1.45316e-06
-1.05855e-08
1.75156e-08
-9.89977e-09
1.71629e-08
1.32762e-06
-5.28127e-09
4.93123e-09
1.33539e-06
-1.39985e-08
1.30094e-08
1.34286e-06
-1.79777e-08
1.72169e-08
1.34847e-06
-1.91786e-08
1.89022e-08
1.35196e-06
-1.88756e-08
1.95069e-08
1.35373e-06
-1.7544e-08
1.91246e-08
-1.56827e-08
1.8116e-08
1.1589e-06
-7.03375e-09
6.10273e-09
1.16569e-06
-1.98494e-08
1.61835e-08
1.16844e-06
-2.2796e-08
2.07078e-08
1.16661e-06
-2.23009e-08
2.21069e-08
1.1622e-06
-2.06188e-08
2.15092e-08
1.15653e-06
-1.78499e-08
1.97752e-08
-1.46914e-08
1.74344e-08
9.23616e-07
-7.40283e-09
7.03396e-09
9.25318e-07
-2.07001e-08
1.98501e-08
9.17183e-07
-1.87288e-08
2.27973e-08
9.04273e-07
-1.58463e-08
2.23034e-08
8.90531e-07
-1.37483e-08
2.0623e-08
8.77404e-07
-1.12879e-08
1.78577e-08
-8.70721e-09
1.47042e-08
6.3138e-07
3.58763e-09
6.14564e-07
2.26461e-08
5.86445e-07
2.43762e-08
5.61727e-07
1.88552e-08
5.39619e-07
1.55702e-08
5.20641e-07
1.35114e-08
1.19538e-08
8.90375e-07
6.33237e-09
2.8526e-09
8.82485e-07
1.71261e-08
1.34085e-08
8.70357e-07
1.86367e-08
1.7867e-08
8.55107e-07
1.71486e-08
1.69546e-08
8.39972e-07
1.53625e-08
1.53391e-08
8.25516e-07
1.37932e-08
1.41682e-08
1.23483e-08
1.33763e-08
1.1589e-06
6.10273e-09
5.28128e-09
1.16569e-06
1.61835e-08
1.39986e-08
1.16844e-06
2.07078e-08
1.79778e-08
1.16661e-06
2.21069e-08
1.91786e-08
1.1622e-06
2.15091e-08
1.88756e-08
1.15653e-06
1.97752e-08
1.7544e-08
1.74343e-08
1.56826e-08
1.37712e-06
4.57745e-09
4.57712e-09
1.38565e-06
1.19174e-08
1.19165e-08
1.39417e-06
1.64475e-08
1.64458e-08
1.40126e-06
1.85615e-08
1.85586e-08
1.40641e-06
1.89316e-08
1.89268e-08
1.40951e-06
1.8224e-08
1.82166e-08
1.67191e-08
1.6707e-08
1.53312e-06
2.36599e-09
3.64912e-09
1.54218e-06
6.23872e-09
9.63331e-09
1.55328e-06
8.87315e-09
1.36908e-08
1.56445e-06
1.03468e-08
1.59351e-08
1.57508e-06
1.08994e-08
1.69094e-08
1.58472e-06
1.07544e-08
1.6942e-08
1.0143e-08
1.63721e-08
1.61424e-06
-1.97917e-13
3.09275e-09
1.62332e-06
-4.95451e-13
8.27378e-09
1.63534e-06
-8.90479e-13
1.19567e-08
1.6482e-06
-1.58306e-12
1.41138e-08
1.66118e-06
-2.79322e-12
1.51992e-08
1.67386e-06
-4.54489e-12
1.55815e-08
-7.44304e-12
1.54283e-08
1.61424e-06
-2.36612e-09
3.09294e-09
1.62332e-06
-6.23905e-09
8.27432e-09
1.63533e-06
-8.87379e-09
1.19578e-08
1.64819e-06
-1.0348e-08
1.41158e-08
1.66117e-06
-1.09011e-08
1.52029e-08
1.67385e-06
-1.07569e-08
1.55874e-08
-1.01473e-08
1.54368e-08
1.53312e-06
-4.57711e-09
3.64955e-09
1.54218e-06
-1.19165e-08
9.63453e-09
1.55327e-06
-1.64458e-08
1.36931e-08
1.56445e-06
-1.85586e-08
1.59393e-08
1.57506e-06
-1.89269e-08
1.69163e-08
1.58469e-06
-1.82167e-08
1.6953e-08
-1.67071e-08
1.63887e-08
1.37712e-06
-6.10236e-09
4.57745e-09
1.38565e-06
-1.61821e-08
1.19174e-08
1.39417e-06
-2.07049e-08
1.64476e-08
1.40126e-06
-2.21022e-08
1.85615e-08
1.40641e-06
-2.15021e-08
1.89316e-08
1.40951e-06
-1.97652e-08
1.82241e-08
-1.74179e-08
1.67193e-08
1.1589e-06
-6.33227e-09
5.28143e-09
1.1657e-06
-1.71254e-08
1.39988e-08
1.16845e-06
-1.8635e-08
1.79781e-08
1.16661e-06
-1.71457e-08
1.91792e-08
1.16222e-06
-1.53583e-08
1.88765e-08
1.15655e-06
-1.37874e-08
1.7546e-08
-1.23389e-08
1.56851e-08
8.90375e-07
2.85263e-09
8.82487e-07
1.34085e-08
8.70361e-07
1.7867e-08
8.55116e-07
1.69546e-08
8.39989e-07
1.53384e-08
8.25547e-07
1.4166e-08
1.3372e-08
1.07432e-06
5.56885e-09
1.06503e-09
1.06824e-06
1.39002e-08
5.58731e-09
1.06138e-06
1.62621e-08
8.46541e-09
1.05338e-06
1.591e-08
9.04211e-09
1.04509e-06
1.50045e-08
8.62178e-09
1.03719e-06
1.39374e-08
8.12738e-09
1.29838e-08
7.79834e-09
1.32762e-06
4.93124e-09
2.71844e-09
1.33539e-06
1.30094e-08
7.12142e-09
1.34286e-06
1.72169e-08
9.55443e-09
1.34847e-06
1.89022e-08
1.05797e-08
1.35196e-06
1.95069e-08
1.08783e-08
1.35373e-06
1.91245e-08
1.05854e-08
1.81159e-08
9.89972e-09
1.53312e-06
3.64955e-09
2.36613e-09
1.54218e-06
9.63453e-09
6.23907e-09
1.55327e-06
1.36931e-08
8.87379e-09
1.56445e-06
1.59392e-08
1.0348e-08
1.57506e-06
1.69162e-08
1.09011e-08
1.58469e-06
1.69529e-08
1.07568e-08
1.63886e-08
1.01472e-08
1.68027e-06
1.89115e-09
1.89098e-09
1.68934e-06
5.09962e-09
5.09913e-09
1.7018e-06
7.46475e-09
7.46383e-09
1.71578e-06
8.9469e-09
8.94538e-09
1.73022e-06
9.69436e-09
9.69187e-09
1.74439e-06
9.86324e-09
9.8592e-09
9.65604e-09
9.64979e-09
1.7569e-06
-3.30394e-14
1.61316e-09
1.76589e-06
-4.61968e-14
4.38392e-09
1.77878e-06
-6.59549e-14
6.53143e-09
1.79389e-06
-9.55497e-14
7.9505e-09
1.81003e-06
-1.18474e-13
8.75488e-09
1.82639e-06
-1.20402e-13
9.0846e-09
-1.65941e-13
9.07084e-09
1.7569e-06
-1.89097e-09
1.6133e-09
1.76589e-06
-5.09911e-09
4.38432e-09
1.77878e-06
-7.46382e-09
6.5322e-09
1.79389e-06
-8.94539e-09
7.95184e-09
1.81003e-06
-9.69189e-09
8.75705e-09
1.82638e-06
-9.85925e-09
9.08795e-09
-9.64985e-09
9.07576e-09
1.68027e-06
-3.64911e-09
1.89115e-09
1.68934e-06
-9.6333e-09
5.09963e-09
1.7018e-06
-1.36908e-08
7.46479e-09
1.71578e-06
-1.59351e-08
8.94697e-09
1.73022e-06
-1.69094e-08
9.69447e-09
1.74439e-06
-1.69421e-08
9.8634e-09
-1.63721e-08
9.65626e-09
1.53312e-06
-4.93093e-09
2.36599e-09
1.54218e-06
-1.30085e-08
6.23873e-09
1.55328e-06
-1.72149e-08
8.87319e-09
1.56445e-06
-1.88977e-08
1.03469e-08
1.57508e-06
-1.94989e-08
1.08995e-08
1.58472e-06
-1.91122e-08
1.07545e-08
-1.80968e-08
1.01432e-08
1.32763e-06
-5.56884e-09
2.71812e-09
1.3354e-06
-1.39001e-08
7.12054e-09
1.34287e-06
-1.62613e-08
9.55283e-09
1.34848e-06
-1.59076e-08
1.05767e-08
1.35198e-06
-1.49998e-08
1.08727e-08
1.35377e-06
-1.39301e-08
1.05759e-08
-1.29729e-08
9.88383e-09
1.07432e-06
1.0647e-09
1.06824e-06
5.58616e-09
1.06138e-06
8.46322e-09
1.05339e-06
9.03839e-09
1.04511e-06
8.61491e-09
1.03723e-06
8.11474e-09
7.77581e-09
1.16914e-06
4.90655e-09
1.54055e-13
1.16312e-06
1.16085e-08
7.4069e-13
1.15731e-06
1.42755e-08
1.69767e-12
1.15202e-06
1.4334e-08
2.98539e-12
1.1469e-06
1.37319e-08
5.06916e-12
1.14205e-06
1.29727e-08
8.76562e-12
1.21063e-08
1.53217e-11
1.41518e-06
4.19294e-09
2.87981e-13
1.42279e-06
1.11161e-08
8.30969e-13
1.43152e-06
1.5099e-08
1.42151e-12
1.4398e-06
1.66306e-08
2.57148e-12
1.44713e-06
1.72785e-08
4.71371e-12
1.45316e-06
1.75156e-08
8.18782e-12
1.71628e-08
1.34773e-11
1.61424e-06
3.09295e-09
2.12464e-13
1.62332e-06
8.27432e-09
5.16194e-13
1.63533e-06
1.19578e-08
8.96825e-13
1.64819e-06
1.41158e-08
1.57038e-12
1.66117e-06
1.52029e-08
2.76139e-12
1.67385e-06
1.55873e-08
4.49269e-12
1.54367e-08
7.36657e-12
1.7569e-06
1.6133e-09
4.73016e-14
1.76589e-06
4.38431e-09
6.78662e-14
1.77878e-06
6.53217e-09
7.52074e-14
1.79389e-06
7.95179e-09
8.85592e-14
1.81003e-06
8.75697e-09
9.56678e-14
1.82638e-06
9.08783e-09
8.60537e-14
9.07559e-09
1.16362e-13
1.83127e-06
3.87293e-14
-2.06201e-14
1.84004e-06
1.04315e-13
-7.80915e-14
1.85311e-06
1.94681e-13
-1.65956e-13
1.86901e-06
3.20857e-13
-2.97149e-13
1.88652e-06
5.0811e-13
-4.88056e-13
1.90469e-06
7.79384e-13
-7.62256e-13
1.15686e-12
-1.14246e-12
1.83127e-06
-1.61314e-09
3.75486e-14
1.84004e-06
-4.3839e-09
1.20762e-13
1.85311e-06
-6.5314e-09
2.30084e-13
1.86901e-06
-7.95049e-09
3.8485e-13
1.88652e-06
-8.75487e-09
6.08757e-13
1.90469e-06
-9.0846e-09
9.26771e-13
-9.07085e-09
1.36368e-12
1.7569e-06
-3.09274e-09
-3.30656e-14
1.76589e-06
-8.27376e-09
-2.77021e-14
1.77878e-06
-1.19567e-08
-1.64688e-14
1.79389e-06
-1.41138e-08
-7.63491e-15
1.81003e-06
-1.51992e-08
1.59341e-14
1.82639e-06
-1.55816e-08
6.78006e-14
-1.54283e-08
9.24814e-14
1.61424e-06
-4.19277e-09
-2.00045e-13
1.62332e-06
-1.11157e-08
-4.80716e-13
1.63534e-06
-1.50984e-08
-8.43956e-13
1.6482e-06
-1.66292e-08
-1.49609e-12
1.66118e-06
-1.72753e-08
-2.65612e-12
1.67386e-06
-1.751e-08
-4.34654e-12
-1.71538e-08
-7.16724e-12
1.41518e-06
-4.90649e-09
-2.77964e-13
1.42279e-06
-1.16083e-08
-7.93025e-13
1.43152e-06
-1.42753e-08
-1.36459e-12
1.4398e-06
-1.43334e-08
-2.49338e-12
1.44714e-06
-1.37299e-08
-4.60475e-12
1.45318e-06
-1.29687e-08
-8.03598e-12
-1.21001e-08
-1.32704e-11
1.16914e-06
-1.50936e-13
1.16312e-06
-7.09082e-13
1.15731e-06
-1.61628e-12
1.15202e-06
-2.87885e-12
1.14691e-06
-4.93162e-12
1.14206e-06
-8.58947e-12
-1.50928e-11
1.16914e-06
4.9065e-09
-1.06469e-09
1.16312e-06
1.16083e-08
-5.58611e-09
1.15731e-06
1.42753e-08
-8.46313e-09
1.15202e-06
1.43334e-08
-9.03827e-09
1.14691e-06
1.37299e-08
-8.61477e-09
1.14206e-06
1.29687e-08
-8.11455e-09
1.21001e-08
-7.77558e-09
1.41518e-06
4.19279e-09
-2.71811e-09
1.42279e-06
1.11157e-08
-7.1205e-09
1.43152e-06
1.50984e-08
-9.55278e-09
1.4398e-06
1.66292e-08
-1.05767e-08
1.44714e-06
1.72753e-08
-1.08726e-08
1.45318e-06
1.751e-08
-1.05758e-08
1.71537e-08
-9.88364e-09
1.61424e-06
3.09276e-09
-2.36598e-09
1.62332e-06
8.27379e-09
-6.2387e-09
1.63534e-06
1.19567e-08
-8.87315e-09
1.6482e-06
1.41138e-08
-1.03468e-08
1.66118e-06
1.51992e-08
-1.08994e-08
1.67386e-06
1.55815e-08
-1.07544e-08
1.54282e-08
-1.01431e-08
1.7569e-06
1.61316e-09
-1.89114e-09
1.76589e-06
4.38392e-09
-5.0996e-09
1.77878e-06
6.53142e-09
-7.46474e-09
1.79389e-06
7.95049e-09
-8.9469e-09
1.81003e-06
8.75485e-09
-9.69437e-09
1.82639e-06
9.08455e-09
-9.86326e-09
9.07076e-09
-9.65608e-09
1.83127e-06
-1.76516e-14
-1.61328e-09
1.84004e-06
-7.90636e-14
-4.38429e-09
1.85311e-06
-1.78446e-13
-6.53214e-09
1.86901e-06
-3.2229e-13
-7.95176e-09
1.88652e-06
-5.34556e-13
-8.75694e-09
1.90469e-06
-8.40538e-13
-9.0878e-09
-1.26299e-12
-9.07555e-09
1.83127e-06
-1.61328e-09
-1.61314e-09
1.84004e-06
-4.38429e-09
-4.38388e-09
1.85311e-06
-6.53215e-09
-6.53137e-09
1.86901e-06
-7.95179e-09
-7.95042e-09
1.88652e-06
-8.75699e-09
-8.75476e-09
1.90469e-06
-9.08789e-09
-9.08444e-09
-9.07569e-09
1.7569e-06
-3.09293e-09
-1.89097e-09
1.76589e-06
-8.2743e-09
-5.09909e-09
1.77878e-06
-1.19577e-08
-7.46377e-09
1.79389e-06
-1.41158e-08
-8.9453e-09
1.81003e-06
-1.52029e-08
-9.69176e-09
1.82638e-06
-1.55874e-08
-9.85905e-09
-1.54367e-08
1.61424e-06
-4.19292e-09
-2.36612e-09
1.62332e-06
-1.11161e-08
-6.23903e-09
1.63533e-06
-1.5099e-08
-8.87374e-09
1.64819e-06
-1.66305e-08
-1.03479e-08
1.66117e-06
-1.72785e-08
-1.0901e-08
1.67385e-06
-1.75156e-08
-1.07567e-08
-1.71628e-08
1.41518e-06
-4.90654e-09
-2.71844e-09
1.42279e-06
-1.16085e-08
-7.1214e-09
1.43152e-06
-1.42755e-08
-9.55438e-09
1.4398e-06
-1.4334e-08
-1.05797e-08
1.44713e-06
-1.37319e-08
-1.08782e-08
1.45316e-06
-1.29727e-08
-1.05853e-08
-1.21063e-08
1.16914e-06
-1.06502e-09
1.16312e-06
-5.58729e-09
1.15731e-06
-8.46535e-09
1.15202e-06
-9.04202e-09
1.1469e-06
-8.62166e-09
1.14205e-06
-8.12722e-09
1.07432e-06
5.56885e-09
-2.85262e-09
1.06824e-06
1.39001e-08
-1.34085e-08
1.06138e-06
1.62613e-08
-1.78669e-08
1.05339e-06
1.59076e-08
-1.69545e-08
1.04511e-06
1.49998e-08
-1.53382e-08
1.03723e-06
1.39301e-08
-1.41658e-08
1.29729e-08
-1.33718e-08
1.32763e-06
4.93094e-09
-5.28142e-09
1.3354e-06
1.30085e-08
-1.39988e-08
1.34287e-06
1.72149e-08
-1.79781e-08
1.34848e-06
1.88977e-08
-1.91791e-08
1.35198e-06
1.94989e-08
-1.88764e-08
1.35377e-06
1.91122e-08
-1.75459e-08
1.80968e-08
-1.56849e-08
1.53312e-06
3.64912e-09
-4.57744e-09
1.54218e-06
9.63333e-09
-1.19174e-08
1.55328e-06
1.36908e-08
-1.64475e-08
1.56445e-06
1.59351e-08
-1.85615e-08
1.57508e-06
1.69094e-08
-1.89316e-08
1.58472e-06
1.69421e-08
-1.8224e-08
1.63721e-08
-1.67192e-08
1.68027e-06
1.89099e-09
-3.64954e-09
1.68934e-06
5.09914e-09
-9.63451e-09
1.7018e-06
7.46385e-09
-1.36931e-08
1.71578e-06
8.9454e-09
-1.59392e-08
1.73022e-06
9.69189e-09
-1.69162e-08
1.74439e-06
9.85921e-09
-1.69529e-08
9.64978e-09
-1.63886e-08
1.7569e-06
5.23802e-14
-3.09293e-09
1.76589e-06
7.32842e-14
-8.2743e-09
1.77878e-06
8.53094e-14
-1.19577e-08
1.79389e-06
9.9684e-14
-1.41158e-08
1.81003e-06
1.00137e-13
-1.52028e-08
1.82638e-06
7.31452e-14
-1.55873e-08
-1.54366e-08
1.7569e-06
-1.89113e-09
-3.09274e-09
1.76589e-06
-5.0996e-09
-8.27375e-09
1.77878e-06
-7.46473e-09
-1.19567e-08
1.79389e-06
-8.9469e-09
-1.41138e-08
1.81003e-06
-9.69438e-09
-1.51991e-08
-9.86329e-09
-1.55814e-08
1.68027e-06
-3.64954e-09
-3.64911e-09
1.68934e-06
-9.63451e-09
-9.63328e-09
1.7018e-06
-1.36931e-08
-1.36907e-08
1.71578e-06
-1.59392e-08
-1.5935e-08
1.73022e-06
-1.69163e-08
-1.69093e-08
-1.69529e-08
-1.69419e-08
1.53312e-06
-4.93122e-09
-4.57711e-09
1.54218e-06
-1.30094e-08
-1.19165e-08
1.55327e-06
-1.72168e-08
-1.64458e-08
1.56445e-06
-1.89022e-08
-1.85586e-08
1.57506e-06
-1.95069e-08
-1.89267e-08
-1.91245e-08
-1.82165e-08
1.32762e-06
-5.56884e-09
-5.28128e-09
1.33539e-06
-1.39002e-08
-1.39985e-08
1.34286e-06
-1.62621e-08
-1.79777e-08
1.34847e-06
-1.591e-08
-1.91786e-08
1.35196e-06
-1.50045e-08
-1.88755e-08
-1.39374e-08
-1.75439e-08
1.07432e-06
-2.8526e-09
1.06824e-06
-1.34085e-08
1.06138e-06
-1.7867e-08
1.05338e-06
-1.69546e-08
1.04509e-06
-1.5339e-08
-1.4168e-08
8.90375e-07
6.33227e-09
-3.58761e-09
8.82487e-07
1.71255e-08
-2.2646e-08
8.70361e-07
1.8635e-08
-2.43761e-08
8.55116e-07
1.71457e-08
-1.88551e-08
8.39989e-07
1.53583e-08
-1.55701e-08
8.25547e-07
1.37874e-08
-1.35113e-08
1.23389e-08
-1.19536e-08
1.1589e-06
6.10238e-09
-7.03396e-09
1.1657e-06
1.61821e-08
-1.98501e-08
1.16845e-06
2.07049e-08
-2.27973e-08
1.16661e-06
2.21022e-08
-2.23034e-08
1.16222e-06
2.15021e-08
-2.06229e-08
1.15655e-06
1.97652e-08
-1.78576e-08
1.74179e-08
-1.47041e-08
1.37712e-06
4.57712e-09
-6.10272e-09
1.38565e-06
1.19165e-08
-1.61834e-08
1.39417e-06
1.64459e-08
-2.07078e-08
1.40126e-06
1.85587e-08
-2.21069e-08
1.40641e-06
1.89269e-08
-2.15091e-08
1.40951e-06
1.82167e-08
-1.97752e-08
1.67071e-08
-1.74343e-08
1.53312e-06
2.36614e-09
-4.93123e-09
1.54218e-06
6.23908e-09
-1.30094e-08
1.55327e-06
8.87382e-09
-1.72168e-08
1.56445e-06
1.0348e-08
-1.89022e-08
1.57506e-06
1.09011e-08
-1.95069e-08
1.58469e-06
1.07569e-08
-1.91245e-08
1.01472e-08
-1.81159e-08
1.61424e-06
2.15868e-13
-4.19293e-09
1.62332e-06
5.23721e-13
-1.11161e-08
1.63533e-06
9.1574e-13
-1.5099e-08
1.64819e-06
1.59862e-12
-1.66305e-08
1.66117e-06
2.79151e-12
-1.72785e-08
1.67385e-06
4.51754e-12
-1.75156e-08
-1.71627e-08
1.61424e-06
-2.36597e-09
-4.19278e-09
1.62332e-06
-6.2387e-09
-1.11157e-08
1.63534e-06
-8.87313e-09
-1.50983e-08
1.6482e-06
-1.03468e-08
-1.66291e-08
1.66118e-06
-1.08994e-08
-1.72752e-08
-1.07544e-08
-1.75099e-08
1.53312e-06
-4.57744e-09
-4.93093e-09
1.54218e-06
-1.19174e-08
-1.30085e-08
1.55328e-06
-1.64475e-08
-1.72149e-08
1.56445e-06
-1.85615e-08
-1.88977e-08
1.57508e-06
-1.89316e-08
-1.94988e-08
-1.8224e-08
-1.91121e-08
1.37712e-06
-6.10272e-09
-6.10237e-09
1.38565e-06
-1.61834e-08
-1.61821e-08
1.39417e-06
-2.07078e-08
-2.07049e-08
1.40126e-06
-2.21069e-08
-2.21021e-08
1.40641e-06
-2.15091e-08
-2.1502e-08
-1.97752e-08
-1.9765e-08
1.1589e-06
-6.33237e-09
-7.03376e-09
1.16569e-06
-1.71261e-08
-1.98494e-08
1.16844e-06
-1.86367e-08
-2.27959e-08
1.16661e-06
-1.71486e-08
-2.23008e-08
1.1622e-06
-1.53625e-08
-2.06188e-08
-1.37932e-08
-1.78498e-08
8.90375e-07
-3.58748e-09
8.82485e-07
-2.26453e-08
8.70357e-07
-2.43752e-08
8.55107e-07
-1.88535e-08
8.39972e-07
-1.55667e-08
-1.35055e-08
6.3138e-07
7.40283e-09
-1.09685e-09
6.14564e-07
2.07001e-08
-2.65297e-08
5.86445e-07
1.87288e-08
-1.49867e-08
5.61727e-07
1.58463e-08
-9.98255e-09
5.39619e-07
1.37484e-08
-7.2113e-09
5.20641e-07
1.12879e-08
-5.82028e-09
8.70724e-09
-4.71865e-09
9.23616e-07
7.03376e-09
-7.40293e-09
9.25318e-07
1.98494e-08
-2.07006e-08
9.17183e-07
2.2796e-08
-1.87298e-08
9.04273e-07
2.23009e-08
-1.58482e-08
8.90531e-07
2.06189e-08
-1.3751e-08
8.77404e-07
1.785e-08
-1.1293e-08
1.46915e-08
-8.71539e-09
1.1589e-06
5.28129e-09
-6.33237e-09
1.16569e-06
1.39986e-08
-1.71261e-08
1.16844e-06
1.79778e-08
-1.86367e-08
1.16661e-06
1.91787e-08
-1.71486e-08
1.1622e-06
1.88756e-08
-1.53625e-08
1.15653e-06
1.7544e-08
-1.37932e-08
1.56827e-08
-1.23483e-08
1.32762e-06
2.71844e-09
-5.56885e-09
1.33539e-06
7.12143e-09
-1.39002e-08
1.34286e-06
9.55445e-09
-1.62621e-08
1.34847e-06
1.05798e-08
-1.591e-08
1.35196e-06
1.08783e-08
-1.50045e-08
1.35373e-06
1.05855e-08
-1.39374e-08
9.89978e-09
-1.29838e-08
1.41518e-06
2.89607e-13
-4.90655e-09
1.42279e-06
8.25231e-13
-1.16085e-08
1.43152e-06
1.4253e-12
-1.42755e-08
1.4398e-06
2.58754e-12
-1.4334e-08
1.44713e-06
4.73709e-12
-1.37319e-08
1.45316e-06
8.21274e-12
-1.29726e-08
-1.21062e-08
1.41518e-06
-2.71811e-09
-4.90649e-09
1.42279e-06
-7.12051e-09
-1.16083e-08
1.43152e-06
-9.55278e-09
-1.42753e-08
1.4398e-06
-1.05767e-08
-1.43334e-08
1.44714e-06
-1.08726e-08
-1.37299e-08
-1.05758e-08
-1.29686e-08
1.32763e-06
-5.28142e-09
-5.56884e-09
1.3354e-06
-1.39988e-08
-1.39001e-08
1.34287e-06
-1.79781e-08
-1.62612e-08
1.34848e-06
-1.91791e-08
-1.59076e-08
1.35198e-06
-1.88764e-08
-1.49998e-08
-1.75459e-08
-1.393e-08
1.1589e-06
-7.03395e-09
-6.33227e-09
1.1657e-06
-1.98501e-08
-1.71254e-08
1.16845e-06
-2.27973e-08
-1.8635e-08
1.16661e-06
-2.23034e-08
-1.71457e-08
1.16222e-06
-2.06229e-08
-1.53582e-08
-1.78576e-08
-1.37873e-08
9.23616e-07
-7.40293e-09
-7.40283e-09
9.25318e-07
-2.07006e-08
-2.07001e-08
9.17183e-07
-1.87298e-08
-1.87288e-08
9.04273e-07
-1.58482e-08
-1.58463e-08
8.90531e-07
-1.37509e-08
-1.37483e-08
-1.1293e-08
-1.12878e-08
6.3138e-07
-1.0968e-09
6.14563e-07
-2.65293e-08
5.86444e-07
-1.4986e-08
5.61724e-07
-9.98133e-09
5.39615e-07
-7.20847e-09
-5.81589e-09
3.3225e-07
1.0968e-09
2.79191e-07
2.65293e-08
2.49218e-07
1.4986e-08
2.29254e-07
9.98136e-09
2.14834e-07
7.20851e-09
2.03198e-07
5.81594e-09
4.70988e-09
6.3138e-07
3.58748e-09
6.14563e-07
2.26454e-08
5.86444e-07
2.43752e-08
5.61724e-07
1.88535e-08
5.39615e-07
1.55667e-08
5.20632e-07
1.35056e-08
1.19438e-08
8.90375e-07
2.8526e-09
8.82485e-07
1.34085e-08
8.70357e-07
1.7867e-08
8.55107e-07
1.69546e-08
8.39972e-07
1.53391e-08
8.25516e-07
1.41682e-08
1.33763e-08
1.07432e-06
1.06503e-09
1.06824e-06
5.5873e-09
1.06138e-06
8.46538e-09
1.05338e-06
9.04208e-09
1.04509e-06
8.62175e-09
1.03719e-06
8.12735e-09
7.79831e-09
1.16914e-06
1.561e-13
1.16312e-06
7.26417e-13
1.15731e-06
1.64315e-12
1.15202e-06
2.93392e-12
1.1469e-06
5.01815e-12
1.14205e-06
8.7123e-12
1.16914e-06
-1.06469e-09
1.16312e-06
-5.58613e-09
1.15731e-06
-8.46318e-09
1.15202e-06
-9.03833e-09
1.14691e-06
-8.61483e-09
-8.11463e-09
1.07432e-06
-2.85262e-09
1.06824e-06
-1.34085e-08
1.06138e-06
-1.7867e-08
1.05339e-06
-1.69545e-08
1.04511e-06
-1.53383e-08
-1.41659e-08
8.90375e-07
-3.58761e-09
8.82487e-07
-2.2646e-08
8.70361e-07
-2.43761e-08
8.55116e-07
-1.88551e-08
8.39989e-07
-1.55701e-08
-1.35113e-08
6.3138e-07
-1.09684e-09
6.14564e-07
-2.65297e-08
5.86445e-07
-1.49867e-08
5.61727e-07
-9.98257e-09
5.39619e-07
-7.21132e-09
-5.82031e-09
3.3225e-07
2.79191e-07
2.49218e-07
2.29254e-07
2.14834e-07
)
;

boundaryField
{
    inlet
    {
        type            calculated;
        value           nonuniform List<scalar> 
100
(
-3.34443e-07
-6.41274e-07
-8.95972e-07
-1.0781e-06
-1.17299e-06
-1.17299e-06
-1.0781e-06
-8.95972e-07
-6.41274e-07
-3.34443e-07
-6.41274e-07
-9.22878e-07
-1.15692e-06
-1.32442e-06
-1.41174e-06
-1.41174e-06
-1.32442e-06
-1.15692e-06
-9.22878e-07
-6.41274e-07
-8.95972e-07
-1.15692e-06
-1.37407e-06
-1.52963e-06
-1.61077e-06
-1.61077e-06
-1.52963e-06
-1.37407e-06
-1.15692e-06
-8.95972e-07
-1.0781e-06
-1.32442e-06
-1.52963e-06
-1.67675e-06
-1.75353e-06
-1.75353e-06
-1.67675e-06
-1.52963e-06
-1.32442e-06
-1.0781e-06
-1.17299e-06
-1.41174e-06
-1.61077e-06
-1.75353e-06
-1.82805e-06
-1.82805e-06
-1.75353e-06
-1.61077e-06
-1.41174e-06
-1.17299e-06
-1.17299e-06
-1.41174e-06
-1.61077e-06
-1.75353e-06
-1.82805e-06
-1.82805e-06
-1.75353e-06
-1.61077e-06
-1.41174e-06
-1.17299e-06
-1.0781e-06
-1.32442e-06
-1.52963e-06
-1.67675e-06
-1.75353e-06
-1.75353e-06
-1.67675e-06
-1.52963e-06
-1.32442e-06
-1.0781e-06
-8.95972e-07
-1.15692e-06
-1.37407e-06
-1.52963e-06
-1.61077e-06
-1.61077e-06
-1.52963e-06
-1.37407e-06
-1.15692e-06
-8.95972e-07
-6.41274e-07
-9.22878e-07
-1.15692e-06
-1.32442e-06
-1.41174e-06
-1.41174e-06
-1.32442e-06
-1.15692e-06
-9.22878e-07
-6.41274e-07
-3.34443e-07
-6.41274e-07
-8.95972e-07
-1.0781e-06
-1.17299e-06
-1.17299e-06
-1.0781e-06
-8.95972e-07
-6.41274e-07
-3.34443e-07
)
;
    }
    ami1
    {
        type            cyclicAMI;
        value           nonuniform List<scalar> 0();
    }
    walls
    {
        type            calculated;
        value           uniform 0;
    }
    ami2
    {
        type            cyclicAMI;
        value           nonuniform List<scalar> 0();
    }
    outlet
    {
        type            calculated;
        value           nonuniform List<scalar> 0();
    }
    procBoundary4to3
    {
        type            processor;
        value           nonuniform List<scalar> 
109
(
1.93769e-07
5.04698e-07
8.1179e-07
1.02986e-06
1.13775e-06
1.13772e-06
1.02979e-06
8.11735e-07
5.04683e-07
1.93769e-07
5.04683e-07
8.65431e-07
1.15049e-06
1.35445e-06
1.45802e-06
1.45799e-06
1.35438e-06
1.15045e-06
8.65431e-07
5.04698e-07
8.11735e-07
1.15045e-06
1.41094e-06
1.59302e-06
1.68574e-06
1.68571e-06
1.59298e-06
1.41094e-06
1.15049e-06
8.1179e-07
1.02979e-06
1.35438e-06
1.59298e-06
1.75784e-06
1.8424e-06
1.8424e-06
1.75784e-06
1.59302e-06
1.35445e-06
1.02986e-06
1.13772e-06
1.45799e-06
1.68571e-06
1.8424e-06
1.92284e-06
1.92284e-06
1.8424e-06
1.68574e-06
1.45802e-06
1.13775e-06
1.13775e-06
1.45802e-06
1.68574e-06
1.8424e-06
1.92284e-06
1.92284e-06
-9.07063e-09
1.8424e-06
-9.64958e-09
1.68571e-06
-1.0147e-08
1.45799e-06
-9.89953e-09
1.13772e-06
-7.79813e-09
1.02986e-06
1.35445e-06
1.59302e-06
1.75784e-06
1.8424e-06
7.93069e-14
1.82639e-06
1.74439e-06
1.58469e-06
1.35373e-06
1.03719e-06
8.1179e-07
1.15049e-06
1.41094e-06
1.59298e-06
1.68571e-06
7.38471e-12
1.67386e-06
1.58472e-06
1.40951e-06
1.15653e-06
8.25516e-07
5.04698e-07
8.65431e-07
1.15045e-06
1.35438e-06
1.45799e-06
1.35026e-11
1.45318e-06
1.35377e-06
1.15655e-06
8.77404e-07
5.20632e-07
1.93769e-07
5.04683e-07
8.11735e-07
1.02979e-06
1.13772e-06
1.52692e-11
1.14206e-06
1.03723e-06
8.25548e-07
5.20641e-07
2.03198e-07
)
;
    }
}


// ************************************************************************* //
