/*--------------------------------*- C++ -*----------------------------------*\
| =========                 |                                                 |
| \\      /  F ield         | OpenFOAM: The Open Source CFD Toolbox           |
|  \\    /   O peration     | Version:  2212                                  |
|   \\  /    A nd           | Website:  www.openfoam.com                      |
|    \\/     M anipulation  |                                                 |
\*---------------------------------------------------------------------------*/
FoamFile
{
    version     2.0;
    format      ascii;
    arch        "LSB;label=32;scalar=64";
    class       volScalarField;
    location    "1.25";
    object      k;
}
// * * * * * * * * * * * * * * * * * * * * * * * * * * * * * * * * * * * * * //

dimensions      [0 2 -2 0 0 0 0];

internalField   nonuniform List<scalar> 
690
(
0.00235934
0.00231602
0.00227531
0.00223557
0.00219825
0.00216213
0.0021282
0.00209599
0.00206411
0.00203402
0.002006
0.00209768
0.00205282
0.00200866
0.00196567
0.00192639
0.00188925
0.00185472
0.00182246
0.00179099
0.00176147
0.00173381
0.00214524
0.00209528
0.00204163
0.00199172
0.0019472
0.00190589
0.00186777
0.00183144
0.00179597
0.00176044
0.00172782
0.00218851
0.00212298
0.00206327
0.00200798
0.0019567
0.00190967
0.00186536
0.0018201
0.00177836
0.00174099
0.00170376
0.00221932
0.00214605
0.00207863
0.00201651
0.00195995
0.00190734
0.00185832
0.00181284
0.00177091
0.00173168
0.0016905
0.00202936
0.00197645
0.0019293
0.0018833
0.00184148
0.00180162
0.00176464
0.00173004
0.00169692
0.00166654
0.00163824
0.00191345
0.00180682
0.0017164
0.00162753
0.0015527
0.00148052
0.0014162
0.00135659
0.001293
0.00123746
0.00119363
0.00243004
0.00229875
0.00218561
0.00207494
0.00197966
0.00188779
0.00180582
0.00172838
0.00165247
0.00158558
0.00152037
0.00274801
0.00259707
0.00246
0.00233478
0.00221988
0.00211524
0.00201731
0.00192993
0.00184547
0.0017706
0.00169626
0.00292922
0.00276517
0.00261608
0.00248015
0.00235596
0.0022422
0.00213763
0.00204105
0.00195303
0.00186394
0.00178083
0.00202766
0.00196956
0.00191813
0.00186386
0.00181629
0.00177241
0.0017325
0.00169497
0.00165909
0.0016257
0.00159292
0.00237282
0.00223954
0.0021235
0.00200742
0.00190955
0.00181204
0.00172519
0.00164433
0.0015629
0.00149198
0.00142348
0.00304275
0.00286836
0.00270883
0.00256089
0.00242625
0.00230205
0.0021859
0.00207795
0.00197701
0.00188405
0.00179757
0.00352825
0.00332221
0.00313392
0.0029612
0.00280247
0.00265646
0.00252162
0.00239708
0.00228093
0.00217388
0.00207377
0.00381408
0.00358931
0.00338421
0.00319653
0.00302436
0.00286606
0.00272019
0.00258543
0.00246083
0.00234403
0.00223531
0.00209252
0.0020232
0.00196016
0.00190235
0.00185
0.0018018
0.00175736
0.00171624
0.0016792
0.00164135
0.00160467
0.00273326
0.00258678
0.00245271
0.0023286
0.00221448
0.00210873
0.00201024
0.00191936
0.00183248
0.00175324
0.00167622
0.00351798
0.00331657
0.00313227
0.00296283
0.00280695
0.00266328
0.00253044
0.00240727
0.00229257
0.0021853
0.00208619
0.00411806
0.00387585
0.00365463
0.00345198
0.00326584
0.0030945
0.0029364
0.00279022
0.0026547
0.00252856
0.00241162
0.004487
0.00421999
0.00397639
0.00375352
0.00354908
0.00336108
0.0031878
0.00302773
0.00287957
0.00274188
0.00261411
0.00216648
0.00209003
0.00202045
0.00195693
0.00189883
0.00184563
0.00179692
0.0017525
0.00171185
0.00167348
0.00163674
0.00293271
0.00277294
0.00262726
0.00249383
0.00237136
0.00225855
0.00215424
0.00205769
0.00196779
0.0018839
0.00180553
0.00381211
0.0035911
0.00338935
0.00320461
0.00303501
0.00287891
0.00273487
0.00260163
0.00247809
0.00236299
0.00225618
0.00448727
0.00422125
0.00397856
0.00375653
0.00355285
0.00336555
0.0031929
0.00303338
0.00288566
0.00274841
0.00262107
0.0049104
0.00461655
0.00434853
0.0041034
0.00387862
0.00367201
0.00348164
0.00330585
0.00314319
0.00299224
0.00285228
0.00505486
0.00475173
0.00447525
0.0042224
0.00399057
0.0037775
0.00358122
0.0034
0.00323234
0.0030768
0.00293264
0.00221487
0.00213683
0.0020653
0.00199965
0.00193936
0.00188414
0.00183392
0.00178757
0.00174477
0.00170523
0.00166769
0.00299378
0.00282668
0.00267479
0.00253626
0.00240953
0.00229328
0.00218637
0.0020877
0.00199654
0.00191152
0.00183197
0.00391024
0.00368043
0.00347089
0.00327928
0.00310362
0.00294218
0.00279345
0.00265608
0.00252898
0.00241074
0.00230102
0.00461189
0.00433691
0.00408617
0.00385687
0.00364664
0.00345341
0.00327539
0.00311099
0.00295887
0.00281765
0.00268668
0.00505489
0.00475169
0.00447516
0.00422229
0.00399045
0.00377739
0.00358112
0.00339993
0.00323229
0.00307679
0.00293266
0.00520744
0.00489461
0.00460928
0.00434834
0.00410912
0.00388927
0.00368677
0.00349983
0.0033269
0.00316652
0.0030179
0.00221962
0.00214631
0.00207884
0.00201669
0.00196013
0.00190752
0.00185849
0.001813
0.00177101
0.00173186
0.00169071
0.00292896
0.00276478
0.00261565
0.00247977
0.00235572
0.00224214
0.00213779
0.00204147
0.00195369
0.00186519
0.00178244
0.0038138
0.00358892
0.00338376
0.00319608
0.00302396
0.00286577
0.00272005
0.00258548
0.00246108
0.00234457
0.0022361
0.00448691
0.0042198
0.00397613
0.00375322
0.00354879
0.00336082
0.00318761
0.00302763
0.00287957
0.00274202
0.00261437
0.00491041
0.0046165
0.00434844
0.00410329
0.00387851
0.0036719
0.00348155
0.00330578
0.00314316
0.00299225
0.00285234
0.00505487
0.00475169
0.00447517
0.0042223
0.00399047
0.0037774
0.00358113
0.00339993
0.00323229
0.00307678
0.00293263
0.00218866
0.00212312
0.00206339
0.00200805
0.00195676
0.00190975
0.0018654
0.00182015
0.00177846
0.0017409
0.00170468
0.00167042
0.00274765
0.00259653
0.00245948
0.00233415
0.0022195
0.00211475
0.00201726
0.00192984
0.00184555
0.00177102
0.00169636
0.00162967
0.00352799
0.00332183
0.00313347
0.00296071
0.002802
0.00265606
0.00252134
0.00239693
0.00228094
0.00217407
0.0020741
0.004118
0.00387572
0.00365445
0.00345176
0.00326562
0.00309429
0.00293624
0.00279011
0.00265467
0.00252862
0.00241175
0.00448722
0.00422121
0.00397852
0.00375649
0.00355281
0.00336551
0.00319286
0.00303334
0.00288563
0.0027484
0.00262106
0.00461171
0.00433685
0.00408618
0.00385694
0.00364672
0.00345349
0.00327544
0.00311101
0.00295885
0.00281759
0.00268656
0.00214551
0.00209539
0.00204167
0.0019917
0.0019472
0.00190584
0.00186781
0.00183131
0.00179599
0.00176045
0.0017277
0.0016987
0.00243011
0.00229856
0.00218537
0.00207453
0.00197943
0.00188727
0.001806
0.00172741
0.00165338
0.0015858
0.00151833
0.00145927
0.0030432
0.00286854
0.0027089
0.00256079
0.00242611
0.00230186
0.0021858
0.00207802
0.00197672
0.00188437
0.00179757
0.00351839
0.0033169
0.0031325
0.00296301
0.00280708
0.00266338
0.00253053
0.00240737
0.00229268
0.00218545
0.00208635
0.00381213
0.00359118
0.00338948
0.00320477
0.00303517
0.00287907
0.00273501
0.00260175
0.00247819
0.00236309
0.00225622
0.00391002
0.00368038
0.00347095
0.00327942
0.00310378
0.00294234
0.00279359
0.00265617
0.00252902
0.00241071
0.00230086
0.00209807
0.00205304
0.00200877
0.00196577
0.0019265
0.00188929
0.00185481
0.00182239
0.00179101
0.00176142
0.00173396
0.00170846
0.00191443
0.0018075
0.0017165
0.00162826
0.00155318
0.00148102
0.00141673
0.00135686
0.00129359
0.00123818
0.0011913
0.00115213
0.00237428
0.00224081
0.00212439
0.00200815
0.00191016
0.00181264
0.00172564
0.00164494
0.0015634
0.00149294
0.00142397
0.00273407
0.00258748
0.00245332
0.00232916
0.002215
0.00210924
0.00201075
0.00191988
0.00183307
0.00175383
0.00167708
0.00293245
0.00277282
0.00262725
0.0024939
0.0023715
0.00225874
0.00215445
0.00205792
0.00196806
0.00188421
0.00180586
0.00299299
0.00282615
0.00267445
0.00253605
0.00240939
0.00229318
0.00218629
0.00208759
0.00199641
0.00191135
0.00183173
0.00235968
0.00231627
0.00227544
0.0022358
0.00219839
0.00216227
0.00212831
0.00209599
0.00206411
0.00203404
0.00200569
0.00197954
0.00203025
0.00197701
0.00192963
0.00188368
0.00184179
0.00180189
0.00176487
0.00173019
0.00169704
0.00166649
0.00163828
0.00161215
0.00202841
0.00197016
0.00191864
0.00186428
0.00181663
0.0017727
0.00173274
0.0016952
0.00165926
0.00162587
0.00159314
0.00209299
0.00202358
0.00196047
0.00190261
0.00185023
0.00180201
0.00175755
0.00171642
0.00167934
0.00164153
0.00160491
0.00216649
0.00209002
0.00202044
0.00195693
0.00189885
0.00184566
0.00179696
0.00175256
0.0017119
0.00167355
0.00163682
0.00221475
0.00213665
0.00206511
0.00199949
0.00193922
0.00188402
0.00183383
0.00178751
0.00174472
0.0017052
0.00166763
)
;

boundaryField
{
    inlet
    {
        type            fixedValue;
        value           nonuniform List<scalar> 0();
    }
    ami1
    {
        type            cyclicAMI;
        value           nonuniform List<scalar> 0();
    }
    walls
    {
        type            kqRWallFunction;
        value           nonuniform List<scalar> 
248
(
0.00235934
0.00209768
0.00214524
0.00218851
0.00221932
0.00231602
0.00205282
0.00209528
0.00212298
0.00214605
0.00227531
0.00200866
0.00204163
0.00206327
0.00207863
0.00223557
0.00196567
0.00199172
0.00200798
0.00201651
0.00219825
0.00192639
0.0019472
0.0019567
0.00195995
0.00216213
0.00188925
0.00190589
0.00190967
0.00190734
0.0021282
0.00185472
0.00186777
0.00186536
0.00185832
0.00209599
0.00182246
0.00183144
0.0018201
0.00181284
0.00206411
0.00179099
0.00179597
0.00177836
0.00177091
0.00203402
0.00176147
0.00176044
0.00174099
0.00173168
0.002006
0.00173381
0.00172782
0.00170376
0.0016905
0.00235968
0.00203025
0.00202841
0.00209299
0.00216649
0.00221475
0.00231627
0.00197701
0.00197016
0.00202358
0.00209002
0.00213665
0.00227544
0.00192963
0.00191864
0.00196047
0.00202044
0.00206511
0.0022358
0.00188368
0.00186428
0.00190261
0.00195693
0.00199949
0.00219839
0.00184179
0.00181663
0.00185023
0.00189885
0.00193922
0.00216227
0.00180189
0.0017727
0.00180201
0.00184566
0.00188402
0.00212831
0.00176487
0.00173274
0.00175755
0.00179696
0.00183383
0.00209599
0.00173019
0.0016952
0.00171642
0.00175256
0.00178751
0.00206411
0.00169704
0.00165926
0.00167934
0.0017119
0.00174472
0.00203404
0.00166649
0.00162587
0.00164153
0.00167355
0.0017052
0.00200569
0.00163828
0.00159314
0.00160491
0.00163682
0.00166763
0.00197954
0.00161215
0.00235934
0.00202936
0.00202766
0.00209252
0.00216648
0.00221487
0.00221962
0.00218866
0.00214551
0.00209807
0.00235968
0.00231602
0.00197645
0.00196956
0.0020232
0.00209003
0.00213683
0.00214631
0.00212312
0.00209539
0.00205304
0.00231627
0.00227531
0.0019293
0.00191813
0.00196016
0.00202045
0.0020653
0.00207884
0.00206339
0.00204167
0.00200877
0.00227544
0.00223557
0.0018833
0.00186386
0.00190235
0.00195693
0.00199965
0.00201669
0.00200805
0.0019917
0.00196577
0.0022358
0.00219825
0.00184148
0.00181629
0.00185
0.00189883
0.00193936
0.00196013
0.00195676
0.0019472
0.0019265
0.00219839
0.00216213
0.00180162
0.00177241
0.0018018
0.00184563
0.00188414
0.00190752
0.00190975
0.00190584
0.00188929
0.00216227
0.0021282
0.00176464
0.0017325
0.00175736
0.00179692
0.00183392
0.00185849
0.0018654
0.00186781
0.00185481
0.00212831
0.00209599
0.00173004
0.00169497
0.00171624
0.0017525
0.00178757
0.001813
0.00182015
0.00183131
0.00182239
0.00209599
0.00206411
0.00169692
0.00165909
0.0016792
0.00171185
0.00174477
0.00177101
0.00177846
0.00179599
0.00179101
0.00206411
0.00203402
0.00166654
0.0016257
0.00164135
0.00167348
0.00170523
0.00173186
0.0017409
0.00176045
0.00176142
0.00203404
0.002006
0.00163824
0.00159292
0.00160467
0.00163674
0.00166769
0.00169071
0.00170468
0.0017277
0.00173396
0.00200569
0.00167042
0.0016987
0.00170846
0.00197954
)
;
    }
    ami2
    {
        type            cyclicAMI;
        value           nonuniform List<scalar> 0();
    }
    outlet
    {
        type            zeroGradient;
    }
    procBoundary8to0
    {
        type            processor;
        value           nonuniform List<scalar> 
29
(
0.00240258
0.00214462
0.00220267
0.00226099
0.00230089
0.0020801
0.0020172
0.0025672
0.00291477
0.00310916
0.00208997
0.0025128
0.00323397
0.00375465
0.00406045
0.00216939
0.00289324
0.00373915
0.00438424
0.00478019
0.00225203
0.00310762
0.00405453
0.00477946
0.0052331
0.00538763
0.00491382
0.00538781
0.00555083
)
;
    }
    procBoundary8to1
    {
        type            processor;
        value           nonuniform List<scalar> 
33
(
0.00230199
0.00317679
0.00416211
0.00230121
0.00310918
0.00406034
0.00478025
0.00523318
0.00538776
0.00226131
0.00291441
0.00375445
0.00438422
0.0047794
0.00491347
0.00220305
0.00256743
0.00323473
0.00373972
0.00405448
0.00416169
0.00214544
0.00201978
0.00251533
0.0028945
0.00310722
0.00317562
0.00240327
0.00208105
0.00209113
0.00217019
0.00225214
0.00230198
)
;
    }
    procBoundary8to7
    {
        type            processor;
        value           nonuniform List<scalar> 
68
(
0.00197983
0.00170931
0.00169929
0.00167128
0.00165479
0.00161256
0.00115069
0.00145974
0.00162974
0.00171186
0.00156277
0.0013609
0.00171648
0.00197994
0.00213562
0.00157294
0.00160513
0.00199343
0.00230289
0.00249569
0.00160394
0.0017262
0.00215651
0.00250298
0.00272263
0.00279901
0.00163485
0.00174883
0.00219855
0.00256534
0.00279916
0.0028802
0.00165507
0.00165507
0.0017136
0.0017136
0.0021366
0.00249614
0.00272274
0.0027991
0.00164043
0.00156549
0.00198043
0.00198043
0.00230315
0.002503
0.00256515
0.00167381
0.00140058
0.00171649
0.00171649
0.00199361
0.00215656
0.00219831
0.00168609
0.00110972
0.00136082
0.00136082
0.00160522
0.0017265
0.00174849
0.00195483
0.00158799
0.00156278
0.00156278
0.00157295
0.00160404
0.0016348
)
;
    }
    procBoundary8to9
    {
        type            processor;
        value           nonuniform List<scalar> 
132
(
0.00221473
0.0021366
0.00206503
0.00199938
0.00193908
0.00188385
0.00183362
0.00178724
0.00174442
0.00170486
0.00166734
0.00299318
0.00282631
0.00267454
0.00253603
0.00240923
0.00229285
0.00218577
0.00208688
0.00199552
0.00191023
0.00183033
0.00390984
0.0036802
0.00347075
0.00327919
0.0031035
0.00294199
0.00279315
0.00265562
0.00252834
0.00240989
0.00229994
0.00461166
0.00433681
0.00408614
0.00385689
0.00364667
0.00345341
0.00327532
0.00311085
0.00295864
0.0028173
0.00268621
0.00461166
0.00433681
0.00408614
0.00385689
0.00364667
0.00345341
0.00327532
0.00311085
0.00295864
0.0028173
0.00268621
0.0049102
0.00461637
0.00434835
0.00410321
0.00387843
0.0036718
0.00348142
0.00330562
0.00314295
0.00299199
0.00285202
0.00505482
0.00475165
0.00447514
0.00422226
0.00399042
0.00377734
0.00358105
0.00339983
0.00323217
0.00307664
0.00293247
0.0049103
0.00461644
0.0043484
0.00410325
0.00387846
0.00367183
0.00348146
0.00330567
0.00314301
0.00299206
0.0028521
0.00448667
0.00421968
0.00397608
0.00375322
0.00354879
0.0033608
0.00318755
0.00302751
0.00287938
0.00274175
0.002614
0.00381361
0.00358889
0.00338382
0.00319619
0.00302408
0.00286585
0.00272009
0.00258539
0.00246093
0.00234424
0.00223559
0.00292839
0.00276444
0.00261544
0.00247965
0.00235563
0.00224196
0.0021377
0.00204112
0.00195334
0.00186451
0.0017818
0.00221922
0.0021459
0.00207847
0.00201638
0.00195986
0.00190731
0.00185833
0.00181295
0.00177099
0.00173192
0.00169082
)
;
    }
}


// ************************************************************************* //
