/*--------------------------------*- C++ -*----------------------------------*\
| =========                 |                                                 |
| \\      /  F ield         | OpenFOAM: The Open Source CFD Toolbox           |
|  \\    /   O peration     | Version:  2212                                  |
|   \\  /    A nd           | Website:  www.openfoam.com                      |
|    \\/     M anipulation  |                                                 |
\*---------------------------------------------------------------------------*/
FoamFile
{
    version     2.0;
    format      ascii;
    arch        "LSB;label=32;scalar=64";
    class       volScalarField;
    location    "1";
    object      epsilon;
}
// * * * * * * * * * * * * * * * * * * * * * * * * * * * * * * * * * * * * * //

dimensions      [0 2 -3 0 0 0 0];

internalField   nonuniform List<scalar> 
690
(
0.0671222
0.0598877
0.0537887
0.045564
0.0399567
0.0350763
0.050053
0.043223
0.037587
0.0709222
0.0601266
0.05309
0.0477741
0.043508
0.0399649
0.0369658
0.0344046
0.0321686
0.0301847
0.0284204
0.0268462
0.0463151
0.04032
0.0353148
0.031126
0.027613
0.0246629
0.0220784
0.0197141
0.0178914
0.0165149
0.0152713
0.0141653
0.0502819
0.0436401
0.0380669
0.0333755
0.0294147
0.0260565
0.0231884
0.0207194
0.01861
0.016812
0.0152628
0.0139139
0.0717283
0.0605966
0.0536606
0.0484388
0.0442482
0.0407775
0.0378589
0.0353559
0.0331547
0.0312046
0.0294693
0.0279235
0.0465703
0.040381
0.0353024
0.0311078
0.0276114
0.0246894
0.021991
0.0197774
0.0181803
0.0167716
0.0155196
0.0144163
0.0493879
0.0429338
0.0374837
0.0328836
0.0289935
0.0256967
0.0228768
0.0204651
0.0184194
0.0166654
0.015147
0.0138217
0.0559701
0.0482666
0.041917
0.0366282
0.0321866
0.0284308
0.0252375
0.0225074
0.0201622
0.0181406
0.0163926
0.0148735
0.0602078
0.0520156
0.045184
0.0394651
0.0346531
0.030582
0.0271191
0.0241583
0.0216144
0.0194189
0.0175165
0.0158627
0.0623175
0.0536203
0.0464754
0.0405418
0.0355708
0.0313753
0.0278112
0.0247658
0.0221497
0.0198919
0.017935
0.0162341
0.0602077
0.0520166
0.0451853
0.0394663
0.034654
0.0305827
0.0271195
0.0241585
0.0216144
0.0194189
0.0175163
0.0158631
0.0557876
0.0481846
0.041876
0.0366019
0.0321644
0.028409
0.0252139
0.0224833
0.0201403
0.0181213
0.016374
0.0148606
0.0500556
0.0432198
0.0375837
0.0328841
0.0289363
0.0256009
0.0227609
0.0203407
0.0182845
0.0165251
0.0150069
0.0456418
0.0400002
0.0350963
0.0309225
0.0273882
0.0244027
0.0217028
0.0194667
0.0178271
0.0164345
0.0151972
0.0671174
0.0598822
0.0537871
0.0486696
0.044338
0.0406554
0.0375167
0.0348245
0.0324749
0.0304111
0.0285928
0.0729083
0.0633178
0.0567007
0.0515214
0.047314
0.043817
0.040826
0.0382405
0.0359821
0.0339931
0.0322305
0.0306614
0.0461706
0.0402684
0.0352583
0.0310495
0.0274107
0.0243968
0.0222369
0.0204007
0.0187933
0.0173835
0.0161436
0.0150606
0.0477606
0.04139
0.0360688
0.0315968
0.0278314
0.0246616
0.0220141
0.01977
0.0178523
0.0162016
0.0147733
0.0135237
0.0522293
0.0451674
0.0392765
0.0343386
0.0301834
0.0266708
0.0236899
0.021155
0.0189868
0.0171221
0.0155101
0.0141073
0.0557938
0.0481864
0.0418758
0.0366007
0.0321625
0.0284068
0.0252114
0.0224804
0.0201368
0.0181172
0.0163692
0.0148497
0.057103
0.0492977
0.0428296
0.0374291
0.0328888
0.0290476
0.0257786
0.0229812
0.0205769
0.0185031
0.0167072
0.0151466
0.0559799
0.0482783
0.0419257
0.0366337
0.0321895
0.0284319
0.025237
0.0225056
0.0201592
0.0181365
0.0163872
0.0148671
0.0522294
0.0451676
0.0392786
0.0343418
0.0301867
0.0266737
0.0236922
0.0211569
0.0189884
0.0171234
0.0155108
0.0141123
0.0478314
0.0414242
0.0360181
0.0314633
0.0276445
0.0244423
0.0217637
0.019518
0.017615
0.0159885
0.0145802
0.049739
0.0417048
0.0356634
0.030931
0.0270878
0.023872
0.0214997
0.0197017
0.0181227
0.0167396
0.0155328
0.0746617
0.0657369
0.0584727
0.0524352
0.0473693
0.0432302
0.0397614
0.0368492
0.0343775
0.0322402
0.0303761
0.0801313
0.0721409
0.0650322
0.0592993
0.0546352
0.0506375
0.0473266
0.0445783
0.042215
0.0401495
0.0383344
0.0367365
0.0520324
0.0430689
0.0369366
0.0317877
0.0285529
0.0260287
0.0238712
0.0220359
0.0204667
0.0190958
0.0178374
0.0168593
0.0462379
0.0400465
0.0347016
0.0301646
0.026491
0.0235359
0.0211038
0.0190717
0.0173508
0.0158754
0.014596
0.0134782
0.0478317
0.041412
0.0360052
0.0314522
0.0276357
0.024436
0.021759
0.0195143
0.0176119
0.0159852
0.0145811
0.0133527
0.0500494
0.0432172
0.0375824
0.0328827
0.0289346
0.0255987
0.0227581
0.0203373
0.0182802
0.0165196
0.0150023
0.0136845
0.05029
0.043648
0.0380725
0.0333805
0.0294171
0.0260561
0.0231855
0.0207144
0.0186028
0.0168028
0.0152516
0.0139011
0.0493892
0.0429343
0.0374846
0.0328848
0.0289946
0.0256971
0.0228761
0.0204632
0.0184166
0.0166621
0.0151427
0.0138171
0.047759
0.0413994
0.036079
0.0316049
0.0278375
0.0246652
0.0220165
0.0197718
0.0178535
0.0162026
0.014773
0.0135273
0.0462372
0.0400682
0.0347243
0.0301816
0.0265032
0.0235444
0.0211097
0.0190758
0.0173539
0.0158779
0.0145928
0.0543658
0.0439452
0.036877
0.031421
0.0276815
0.0251526
0.0230258
0.0212102
0.0196483
0.0182919
0.0171193
0.0966755
0.0807383
0.0690105
0.060116
0.0533008
0.0485909
0.044988
0.0420193
0.039509
0.037345
0.0354478
0.124053
0.10427
0.0887198
0.078493
0.0719036
0.0673506
0.0637109
0.0605442
0.0578494
0.0555096
0.0534072
0.0515449
0.0627902
0.054266
0.0461998
0.0397759
0.035438
0.032534
0.030259
0.0282792
0.0266048
0.0251595
0.0238631
0.022711
0.0543648
0.0439214
0.0368452
0.0313913
0.0276658
0.0251406
0.0230168
0.0212038
0.0196439
0.018288
0.0171076
0.0160912
0.0497383
0.041699
0.0356567
0.0309224
0.0270799
0.0238689
0.0214982
0.0197001
0.0181208
0.0167368
0.0155228
0.0144628
0.0456395
0.040026
0.0351189
0.0309358
0.027396
0.024406
0.0217039
0.0194669
0.0178245
0.0164292
0.0151825
0.014085
0.0463268
0.0403329
0.0353257
0.0311373
0.0276204
0.0246661
0.0220783
0.0197107
0.0178855
0.0165072
0.0152617
0.0141536
0.0465704
0.0403799
0.0353014
0.0311075
0.0276112
0.0246891
0.0219904
0.0197754
0.0181778
0.0167686
0.0155164
0.0144135
0.0461727
0.0402713
0.0352605
0.0310507
0.0274116
0.0243965
0.0222358
0.0203994
0.0187919
0.0173819
0.0161431
0.0150603
0.0520351
0.0430695
0.0369382
0.0317871
0.0285507
0.0260271
0.0238697
0.0220333
0.0204663
0.0190874
0.017859
0.0627905
0.0542666
0.0461983
0.0397805
0.0354379
0.0325332
0.0302574
0.0282767
0.0266033
0.0251577
0.0238461
0.141856
0.117319
0.0961779
0.081761
0.0723237
0.0663428
0.0620106
0.0584403
0.055563
0.053076
0.0509053
0.369397
0.291969
0.229135
0.195556
0.176215
0.164768
0.156462
0.149547
0.143886
0.139113
0.134997
0.131237
0.141856
0.117319
0.096177
0.0817639
0.0723292
0.0663495
0.062018
0.0584485
0.0555695
0.0530854
0.0509134
0.0491151
0.0966754
0.0807402
0.0690135
0.0601181
0.0533051
0.0485965
0.0449943
0.0420263
0.0395167
0.0373536
0.0354574
0.03382
0.0746615
0.0657396
0.058476
0.0524382
0.0473727
0.0432339
0.0397658
0.0368544
0.0343835
0.0322473
0.0303856
0.0287522
0.0671176
0.0598824
0.0537879
0.0486707
0.0443392
0.040657
0.0375188
0.0348273
0.0324789
0.0304164
0.0286005
0.0269988
0.0709225
0.060125
0.053087
0.0477749
0.0435076
0.0399632
0.0369638
0.0344031
0.0321682
0.0301857
0.028423
0.0268504
0.0717296
0.0605971
0.05366
0.0484382
0.0442475
0.0407767
0.0378583
0.0353559
0.0331555
0.0312065
0.0294726
0.0279283
0.0729098
0.0633179
0.0567024
0.0515237
0.0473162
0.0438189
0.0408276
0.038242
0.0359839
0.0339953
0.0322332
0.0306661
0.0801313
0.0721424
0.0650333
0.0593014
0.0546371
0.0506388
0.0473274
0.0445789
0.0422154
0.0401506
0.0383378
0.124052
0.104269
0.0887208
0.078491
0.0719004
0.0673472
0.0637072
0.0605403
0.0578474
0.0555062
0.053405
0.369394
0.291966
0.229134
0.195549
0.176205
0.164757
0.15645
0.149532
0.143873
0.139094
0.134981
)
;

boundaryField
{
    inlet
    {
        type            fixedValue;
        value           nonuniform List<scalar> 0();
    }
    ami1
    {
        type            cyclicAMI;
        value           nonuniform List<scalar> 0();
    }
    walls
    {
        type            epsilonWallFunction;
        blending        stepwise;
        value           nonuniform List<scalar> 
259
(
0.0671174
0.0746617
0.0966755
0.141856
0.369394
0.0598822
0.0657369
0.0807383
0.117319
0.291966
0.0537871
0.0584727
0.0690105
0.0961779
0.229134
0.0486696
0.0524352
0.060116
0.081761
0.195549
0.044338
0.0473693
0.0533008
0.0723237
0.176205
0.0406554
0.0432302
0.0485909
0.0663428
0.164757
0.0375167
0.0397614
0.044988
0.0620106
0.15645
0.0348245
0.0368492
0.0420193
0.0584403
0.149532
0.0324749
0.0343775
0.039509
0.055563
0.143873
0.0304111
0.0322402
0.037345
0.053076
0.139094
0.0285928
0.0303761
0.0354478
0.0509053
0.134981
0.369397
0.141856
0.0966754
0.0746615
0.0671176
0.0709225
0.0717296
0.0729098
0.0801313
0.124052
0.369394
0.291969
0.117319
0.0807402
0.0657396
0.0598824
0.060125
0.0605971
0.0633179
0.0721424
0.104269
0.291966
0.229135
0.096177
0.0690135
0.058476
0.0537879
0.053087
0.05366
0.0567024
0.0650333
0.0887208
0.229134
0.195556
0.0817639
0.0601181
0.0524382
0.0486707
0.0477749
0.0484382
0.0515237
0.0593014
0.078491
0.195549
0.176215
0.0723292
0.0533051
0.0473727
0.0443392
0.0435076
0.0442475
0.0473162
0.0546371
0.0719004
0.176205
0.164768
0.0663495
0.0485965
0.0432339
0.040657
0.0399632
0.0407767
0.0438189
0.0506388
0.0673472
0.164757
0.156462
0.062018
0.0449943
0.0397658
0.0375188
0.0369638
0.0378583
0.0408276
0.0473274
0.0637072
0.15645
0.149547
0.0584485
0.0420263
0.0368544
0.0348273
0.0344031
0.0353559
0.038242
0.0445789
0.0605403
0.149532
0.143886
0.0555695
0.0395167
0.0343835
0.0324789
0.0321682
0.0331555
0.0359839
0.0422154
0.0578474
0.143873
0.139113
0.0530854
0.0373536
0.0322473
0.0304164
0.0301857
0.0312065
0.0339953
0.0401506
0.0555062
0.139094
0.134997
0.0509134
0.0354574
0.0303856
0.0286005
0.028423
0.0294726
0.0322332
0.0383378
0.053405
0.134981
0.131237
0.0491151
0.03382
0.0287522
0.0269988
0.0268504
0.0279283
0.0306661
0.0671222
0.0709222
0.0717283
0.0729083
0.0801313
0.124053
0.369397
0.0598877
0.0601266
0.0605966
0.0633178
0.0721409
0.10427
0.291969
0.0537887
0.05309
0.0536606
0.0567007
0.0650322
0.0887198
0.229135
0.0477741
0.0484388
0.0515214
0.0592993
0.078493
0.195556
0.043508
0.0442482
0.047314
0.0546352
0.0719036
0.176215
0.0399649
0.0407775
0.043817
0.0506375
0.0673506
0.164768
0.0369658
0.0378589
0.040826
0.0473266
0.0637109
0.156462
0.0344046
0.0353559
0.0382405
0.0445783
0.0605442
0.149547
0.0321686
0.0331547
0.0359821
0.042215
0.0578494
0.143886
0.0301847
0.0312046
0.0339931
0.0401495
0.0555096
0.139113
0.0284204
0.0294693
0.0322305
0.0383344
0.0534072
0.134997
0.0268462
0.0279235
0.0306614
0.0367365
0.0515449
0.131237
)
;
    }
    ami2
    {
        type            cyclicAMI;
        value           nonuniform List<scalar> 
61
(
0.0715259
0.0487558
0.0543067
0.074964
0.0489924
0.0542346
0.083014
0.0494718
0.0531556
0.0606936
0.0651475
0.0676608
0.0651477
0.060375
0.0543079
0.0487948
0.0715249
0.0861339
0.0482091
0.0516338
0.0564512
0.060378
0.0619079
0.0606989
0.0564515
0.0515559
0.0537821
0.0739774
0.0830331
0.0563584
0.0493177
0.051556
0.0543049
0.0542389
0.0531567
0.0516333
0.0493174
0.0599669
0.0843024
0.100211
0.0675292
0.0599664
0.0537818
0.0487936
0.0489988
0.0494724
0.0482104
0.0563596
0.0675293
0.106603
0.221068
0.106603
0.0843024
0.0739772
0.0715249
0.0749652
0.083015
0.0861346
0.0830327
0.10021
0.221066
)
;
    }
    outlet
    {
        type            zeroGradient;
    }
    procBoundary1to0
    {
        type            processor;
        value           nonuniform List<scalar> 
138
(
0.0486543
0.0486543
0.0443368
0.0406605
0.0375234
0.0348307
0.0324804
0.0304159
0.0285981
0.0269948
0.0308929
0.0308929
0.0273749
0.0243974
0.0217013
0.0194692
0.0178288
0.0164341
0.0151882
0.0140915
0.0557855
0.0481819
0.0328721
0.0418739
0.0328721
0.0289313
0.0255989
0.0227604
0.0203406
0.0182845
0.0165243
0.0150076
0.0136898
0.0571066
0.0492989
0.04283
0.0374297
0.0328899
0.0290496
0.0257815
0.0229852
0.0205822
0.0185098
0.0167156
0.0151565
0.0571066
0.0492989
0.04283
0.0374297
0.0328899
0.0290496
0.0257815
0.0229852
0.0205822
0.0185098
0.0167156
0.0151565
0.0623157
0.0536219
0.0464771
0.0405429
0.0355715
0.0313758
0.0278116
0.024766
0.02215
0.0198923
0.0179354
0.0162342
0.0636931
0.054984
0.0477222
0.0416477
0.0365416
0.0322258
0.0285577
0.025423
0.0227304
0.0204063
0.0183916
0.0166404
0.0623162
0.0536199
0.0464754
0.040542
0.0355711
0.0313756
0.0278116
0.0247661
0.02215
0.0198922
0.0179353
0.0162348
0.0571088
0.0493014
0.0428319
0.0374309
0.0328905
0.0290495
0.0257808
0.0229839
0.0205804
0.0185073
0.0167124
0.0151578
0.0502793
0.0436351
0.0380628
0.0333744
0.029414
0.0260553
0.0231865
0.020717
0.0186068
0.0168085
0.0152575
0.0463102
0.0403129
0.0353088
0.0311248
0.0276124
0.0246615
0.0220773
0.0197116
0.017889
0.0165136
0.0152773
0.0709206
0.0601218
0.053085
0.0477737
0.0435067
0.0399622
0.0369623
0.0344011
0.0321653
0.0301817
0.0284172
)
;
    }
    procBoundary1to2
    {
        type            processor;
        value           nonuniform List<scalar> 9(0.0746581 0.0657348 0.0584645 0.0497301 0.0416946 0.0356632 0.0478263 0.0414308 0.0360233);
    }
    procBoundary1to8
    {
        type            processor;
        value           nonuniform List<scalar> 
33
(
0.0254411
0.013185
0.0127555
0.0265407
0.0134471
0.0126848
0.0135624
0.0144308
0.0147628
0.0292569
0.0141069
0.0124539
0.0129011
0.0135399
0.0138026
0.0353223
0.0156564
0.0125049
0.0123015
0.0125583
0.0127453
0.0498189
0.0216562
0.0150888
0.013533
0.0131243
0.0131774
0.127634
0.0471941
0.0323424
0.0273065
0.0255786
0.0254444
)
;
    }
    procBoundary1to9
    {
        type            processor;
        value           nonuniform List<scalar> 
30
(
0.0144347
0.0135516
0.0137108
0.0137108
0.0141065
0.0269882
0.0135597
0.0129066
0.0133751
0.0133751
0.0144785
0.0287388
0.012683
0.012457
0.0134943
0.0134943
0.0160732
0.0338045
0.0134494
0.0141138
0.0167908
0.0167908
0.022737
0.0490982
0.0265471
0.029262
0.0367379
0.0367379
0.0515349
0.131209
)
;
    }
}


// ************************************************************************* //
