/*--------------------------------*- C++ -*----------------------------------*\
| =========                 |                                                 |
| \\      /  F ield         | OpenFOAM: The Open Source CFD Toolbox           |
|  \\    /   O peration     | Version:  2212                                  |
|   \\  /    A nd           | Website:  www.openfoam.com                      |
|    \\/     M anipulation  |                                                 |
\*---------------------------------------------------------------------------*/
FoamFile
{
    version     2.0;
    format      ascii;
    arch        "LSB;label=32;scalar=64";
    class       volScalarField;
    location    "1";
    object      k;
}
// * * * * * * * * * * * * * * * * * * * * * * * * * * * * * * * * * * * * * //

dimensions      [0 2 -2 0 0 0 0];

internalField   nonuniform List<scalar> 
690
(
0.00411596
0.00382068
0.00355891
0.00730069
0.00662029
0.00602571
0.00972694
0.00880316
0.00801318
0.00436503
0.00392003
0.00361003
0.00336605
0.0031629
0.00298882
0.00283715
0.00270409
0.0025851
0.00247713
0.00237904
0.00228972
0.00744794
0.00678644
0.00619774
0.00567837
0.00522071
0.00481701
0.00446119
0.00415008
0.00387434
0.00362522
0.00340007
0.00319625
0.00993593
0.00903555
0.00824522
0.00755004
0.00693677
0.00639412
0.00591245
0.00548384
0.00510178
0.00475988
0.0044524
0.00417497
0.00430155
0.00385052
0.00355017
0.00331508
0.00312041
0.00295462
0.00281157
0.00268598
0.00257306
0.00247084
0.00237798
0.00229357
0.00739624
0.00668144
0.00607518
0.00555373
0.00510115
0.00470487
0.00435914
0.00405618
0.00378448
0.00353959
0.00331875
0.00311946
0.0096329
0.00878059
0.00802035
0.00734698
0.00675152
0.00622433
0.0057564
0.00534031
0.0049692
0.00463655
0.00433713
0.00406663
0.0114658
0.0104051
0.00948651
0.00868344
0.00797687
0.00735213
0.0067974
0.00630303
0.005861
0.00546441
0.0051074
0.00478515
0.0124872
0.0113708
0.0103845
0.00951376
0.00874352
0.00806031
0.00745239
0.00690971
0.00642375
0.00598724
0.00559401
0.00523899
0.0129462
0.0117492
0.0107132
0.00980746
0.00901018
0.0083046
0.00767738
0.00711765
0.00661641
0.00616611
0.00576039
0.00539408
0.0124872
0.0113708
0.0103845
0.00951375
0.00874349
0.00806026
0.00745232
0.00690963
0.00642366
0.00598714
0.00559392
0.00523895
0.0113929
0.0103687
0.00946673
0.00867149
0.00796881
0.00734623
0.00679296
0.00629977
0.00585878
0.00546317
0.00510715
0.00478608
0.00972694
0.00880322
0.0080132
0.00732808
0.00672899
0.0062021
0.00573655
0.00532382
0.00495654
0.00462796
0.00433264
0.0073002
0.00661953
0.00602504
0.00550917
0.00506142
0.00467136
0.0043327
0.00403748
0.00377368
0.00353601
0.00332127
0.0041156
0.00382035
0.00355885
0.00332996
0.00312933
0.00295297
0.0027981
0.0026616
0.00253964
0.00243009
0.00233149
0.00405589
0.00367
0.00340734
0.00319549
0.00301868
0.00286803
0.00273611
0.00261947
0.00251538
0.0024218
0.00233722
0.00226046
0.00677295
0.0061491
0.00559746
0.00511984
0.0047099
0.00435585
0.00404268
0.00376445
0.00351564
0.00329223
0.00309157
0.0029105
0.00889686
0.00806773
0.00735012
0.00672519
0.00617885
0.0056994
0.00527663
0.00490137
0.00456637
0.00426572
0.00399437
0.00374884
0.0104369
0.00948186
0.00864823
0.00791743
0.00727443
0.00670673
0.00620381
0.00575648
0.00535697
0.00499869
0.00467613
0.00438484
0.0113929
0.0103686
0.00946667
0.00867147
0.00796883
0.00734626
0.00679299
0.0062998
0.0058588
0.00546317
0.0051071
0.0047858
0.0117759
0.0106992
0.00975995
0.00893606
0.00820985
0.007567
0.00699571
0.00648623
0.00603046
0.00562148
0.00525334
0.00492117
0.0114658
0.0104052
0.00948651
0.00868334
0.0079767
0.00735191
0.00679714
0.00630274
0.00586068
0.00546408
0.00510705
0.00478484
0.010437
0.00948193
0.0086482
0.00791729
0.00727419
0.00670643
0.00620348
0.00575614
0.00535663
0.00499836
0.00467582
0.00438469
0.00867541
0.00793448
0.00725772
0.00665404
0.0061208
0.00565097
0.00523637
0.00486873
0.0045406
0.00424606
0.00398045
0.00673272
0.00603422
0.00546744
0.00499689
0.00459997
0.00426379
0.0039715
0.00371134
0.00347787
0.00326726
0.00307599
0.00412125
0.00377936
0.00349083
0.00324383
0.00303074
0.00284994
0.00269374
0.00255917
0.00244272
0.00233988
0.00224823
0.00369006
0.00344637
0.00322257
0.0030354
0.00287485
0.00273341
0.00261355
0.00251189
0.00242269
0.0023432
0.00227223
0.0022084
0.0058157
0.00520011
0.00471892
0.00433672
0.00401219
0.00372841
0.00347722
0.00325374
0.00305212
0.00286912
0.00270412
0.00255213
0.00753765
0.00680936
0.00618463
0.00565389
0.005202
0.00481213
0.00447016
0.00416629
0.00389368
0.00364746
0.00342383
0.00322018
0.0086754
0.00793442
0.00725788
0.00665437
0.00612123
0.00565145
0.00523685
0.00486919
0.00454105
0.00424651
0.00398082
0.00374032
0.00972702
0.0088032
0.00801313
0.007328
0.0067289
0.00620201
0.00573646
0.00532374
0.00495647
0.00462791
0.00433251
0.00406592
0.00993601
0.00903561
0.00824522
0.00754983
0.00693639
0.00639365
0.00591193
0.00548331
0.00510128
0.00475942
0.00445199
0.00417463
0.00963298
0.00878065
0.00802037
0.00734691
0.00675134
0.00622407
0.00575609
0.00533997
0.00496886
0.00463624
0.00433685
0.00406641
0.00889696
0.00806778
0.00734994
0.00672486
0.00617843
0.00569896
0.00527619
0.00490094
0.00456596
0.00426533
0.00399402
0.00374854
0.00753772
0.0068092
0.00618421
0.0056533
0.00520131
0.00481142
0.00446947
0.00416565
0.00389309
0.00364688
0.00342339
0.00541872
0.00491466
0.00448427
0.00413743
0.00385014
0.00360137
0.00337705
0.00317405
0.00298723
0.00281432
0.0026535
0.00422951
0.00374809
0.0033734
0.00307773
0.00283754
0.00266598
0.00253178
0.00241872
0.00232106
0.00223519
0.00215846
0.00382056
0.0034126
0.00307301
0.00284013
0.00268253
0.00256945
0.00247743
0.00239576
0.00232484
0.00226219
0.00220491
0.00215377
0.00416052
0.0037421
0.00337282
0.00313105
0.00295005
0.00279176
0.0026388
0.00248579
0.00235204
0.00222991
0.00211152
0.00200824
0.00541874
0.00491489
0.00448488
0.00413832
0.00385106
0.00360226
0.00337792
0.00317485
0.002988
0.00281503
0.00265452
0.00250516
0.00673273
0.00603424
0.0054676
0.00499721
0.00460043
0.00426428
0.00397198
0.0037118
0.00347835
0.00326773
0.00307689
0.00290281
0.00730041
0.00661944
0.00602474
0.00550881
0.00506109
0.00467109
0.00433251
0.00403735
0.00377365
0.00353606
0.00332183
0.00312788
0.00744792
0.00678625
0.00619738
0.00567768
0.00521984
0.00481611
0.00446036
0.00414939
0.00387383
0.00362491
0.00339998
0.00319643
0.00739634
0.00668144
0.00607511
0.00555358
0.0051009
0.00470455
0.00435881
0.00405588
0.00378425
0.00353945
0.00331875
0.00311955
0.00677305
0.00614906
0.00559737
0.00511973
0.00470976
0.0043557
0.00404253
0.00376431
0.00351551
0.00329215
0.00309153
0.00291052
0.00581572
0.00520004
0.00471879
0.00433658
0.00401204
0.00372823
0.00347701
0.00325354
0.00305189
0.00286903
0.00270361
0.00416049
0.00374206
0.00337273
0.00313077
0.00294963
0.00279134
0.00263839
0.0024854
0.00235174
0.00222943
0.00211173
0.0042221
0.00372302
0.0032646
0.00293298
0.00270254
0.00255016
0.00243775
0.00234343
0.00226577
0.00219776
0.00213709
0.00477377
0.00408953
0.00348522
0.00314032
0.00293234
0.00280559
0.0027119
0.00263248
0.00256628
0.00250967
0.00245999
0.00241419
0.00422212
0.00372301
0.0032646
0.00293306
0.00270269
0.00255034
0.00243795
0.00234364
0.00226595
0.00219802
0.00213723
0.00208652
0.00422951
0.00374811
0.0033735
0.00307784
0.00283775
0.00266624
0.00253206
0.00241902
0.00232136
0.00223553
0.00215883
0.00209132
0.00412123
0.00377943
0.00349093
0.00324396
0.00303091
0.00285013
0.00269396
0.00255942
0.00244299
0.0023402
0.00224866
0.00216672
0.00411563
0.00382031
0.00355882
0.00332995
0.00312934
0.00295302
0.00279818
0.00266172
0.00253981
0.00243033
0.00233186
0.00224321
0.00436501
0.00391993
0.00360987
0.00336608
0.00316285
0.00298871
0.002837
0.00270394
0.00258501
0.00247711
0.0023791
0.00228987
0.0043016
0.00385055
0.00355015
0.00331504
0.00312036
0.00295456
0.00281151
0.00268593
0.00257305
0.00247088
0.00237809
0.00229375
0.00405595
0.00366999
0.00340739
0.00319558
0.00301877
0.0028681
0.00273617
0.00261952
0.00251544
0.00242187
0.00233731
0.00226064
0.00369008
0.00344639
0.00322259
0.00303548
0.00287493
0.00273346
0.00261359
0.00251191
0.0024227
0.00234325
0.00227225
0.00382056
0.00341254
0.00307299
0.00284008
0.00268245
0.00256936
0.00247733
0.00239566
0.00232477
0.00226207
0.00220492
0.00477374
0.00408947
0.00348519
0.00314025
0.00293223
0.00280547
0.00271176
0.00263231
0.00256613
0.00250944
0.00245984
)
;

boundaryField
{
    inlet
    {
        type            fixedValue;
        value           nonuniform List<scalar> 0();
    }
    ami1
    {
        type            cyclicAMI;
        value           nonuniform List<scalar> 0();
    }
    walls
    {
        type            kqRWallFunction;
        value           nonuniform List<scalar> 
259
(
0.0041156
0.00412125
0.00422951
0.0042221
0.00477374
0.00382035
0.00377936
0.00374809
0.00372302
0.00408947
0.00355885
0.00349083
0.0033734
0.0032646
0.00348519
0.00332996
0.00324383
0.00307773
0.00293298
0.00314025
0.00312933
0.00303074
0.00283754
0.00270254
0.00293223
0.00295297
0.00284994
0.00266598
0.00255016
0.00280547
0.0027981
0.00269374
0.00253178
0.00243775
0.00271176
0.0026616
0.00255917
0.00241872
0.00234343
0.00263231
0.00253964
0.00244272
0.00232106
0.00226577
0.00256613
0.00243009
0.00233988
0.00223519
0.00219776
0.00250944
0.00233149
0.00224823
0.00215846
0.00213709
0.00245984
0.00477377
0.00422212
0.00422951
0.00412123
0.00411563
0.00436501
0.0043016
0.00405595
0.00369008
0.00382056
0.00477374
0.00408953
0.00372301
0.00374811
0.00377943
0.00382031
0.00391993
0.00385055
0.00366999
0.00344639
0.00341254
0.00408947
0.00348522
0.0032646
0.0033735
0.00349093
0.00355882
0.00360987
0.00355015
0.00340739
0.00322259
0.00307299
0.00348519
0.00314032
0.00293306
0.00307784
0.00324396
0.00332995
0.00336608
0.00331504
0.00319558
0.00303548
0.00284008
0.00314025
0.00293234
0.00270269
0.00283775
0.00303091
0.00312934
0.00316285
0.00312036
0.00301877
0.00287493
0.00268245
0.00293223
0.00280559
0.00255034
0.00266624
0.00285013
0.00295302
0.00298871
0.00295456
0.0028681
0.00273346
0.00256936
0.00280547
0.0027119
0.00243795
0.00253206
0.00269396
0.00279818
0.002837
0.00281151
0.00273617
0.00261359
0.00247733
0.00271176
0.00263248
0.00234364
0.00241902
0.00255942
0.00266172
0.00270394
0.00268593
0.00261952
0.00251191
0.00239566
0.00263231
0.00256628
0.00226595
0.00232136
0.00244299
0.00253981
0.00258501
0.00257305
0.00251544
0.0024227
0.00232477
0.00256613
0.00250967
0.00219802
0.00223553
0.0023402
0.00243033
0.00247711
0.00247088
0.00242187
0.00234325
0.00226207
0.00250944
0.00245999
0.00213723
0.00215883
0.00224866
0.00233186
0.0023791
0.00237809
0.00233731
0.00227225
0.00220492
0.00245984
0.00241419
0.00208652
0.00209132
0.00216672
0.00224321
0.00228987
0.00229375
0.00226064
0.00411596
0.00436503
0.00430155
0.00405589
0.00369006
0.00382056
0.00477377
0.00382068
0.00392003
0.00385052
0.00367
0.00344637
0.0034126
0.00408953
0.00355891
0.00361003
0.00355017
0.00340734
0.00322257
0.00307301
0.00348522
0.00336605
0.00331508
0.00319549
0.0030354
0.00284013
0.00314032
0.0031629
0.00312041
0.00301868
0.00287485
0.00268253
0.00293234
0.00298882
0.00295462
0.00286803
0.00273341
0.00256945
0.00280559
0.00283715
0.00281157
0.00273611
0.00261355
0.00247743
0.0027119
0.00270409
0.00268598
0.00261947
0.00251189
0.00239576
0.00263248
0.0025851
0.00257306
0.00251538
0.00242269
0.00232484
0.00256628
0.00247713
0.00247084
0.0024218
0.0023432
0.00226219
0.00250967
0.00237904
0.00237798
0.00233722
0.00227223
0.00220491
0.00245999
0.00228972
0.00229357
0.00226046
0.0022084
0.00215377
0.00241419
)
;
    }
    ami2
    {
        type            cyclicAMI;
        value           nonuniform List<scalar> 
61
(
0.00427289
0.00768134
0.0102803
0.00463603
0.00780662
0.0104495
0.00461382
0.00782045
0.0101022
0.0120871
0.0131152
0.0136484
0.0131152
0.0119739
0.0102803
0.00768115
0.00427277
0.00430611
0.0070971
0.00938196
0.0109873
0.0119739
0.0123964
0.0120872
0.0109873
0.00906058
0.00711965
0.00430769
0.00381775
0.00612618
0.00795258
0.00906059
0.0102804
0.0104496
0.0101023
0.00938203
0.00795262
0.00565026
0.0044501
0.00402111
0.00434258
0.00565027
0.00711966
0.00768126
0.00780665
0.00782053
0.00709716
0.00612619
0.00434257
0.0044361
0.00462587
0.00443611
0.00445011
0.00430767
0.00427277
0.00463605
0.00461385
0.00430614
0.00381774
0.00402109
0.00462585
)
;
    }
    outlet
    {
        type            zeroGradient;
    }
    procBoundary1to0
    {
        type            processor;
        value           nonuniform List<scalar> 
138
(
0.00332933
0.00332933
0.0031293
0.00295324
0.00279846
0.00266195
0.00253996
0.00243038
0.00233181
0.00224307
0.0055107
0.0055107
0.00506287
0.00467263
0.00433377
0.0040383
0.00377433
0.00353648
0.00332204
0.00312787
0.011393
0.0103688
0.00732867
0.00946692
0.00732867
0.00672956
0.00620263
0.00573702
0.00532422
0.00495688
0.00462825
0.00433278
0.00406615
0.0117756
0.010699
0.00975976
0.00893597
0.00820988
0.00756712
0.00699591
0.00648649
0.00603076
0.00562182
0.00525371
0.00492153
0.0117756
0.010699
0.00975976
0.00893597
0.00820988
0.00756712
0.00699591
0.00648649
0.00603076
0.00562182
0.00525371
0.00492153
0.0129461
0.0117492
0.0107132
0.00980747
0.0090102
0.00830463
0.00767742
0.0071177
0.00661647
0.00616618
0.00576046
0.00539411
0.0132609
0.012076
0.0110277
0.0101021
0.0092835
0.00855753
0.00791153
0.00733472
0.00681798
0.00635359
0.00593507
0.00555709
0.0129461
0.0117492
0.0107132
0.00980746
0.00901018
0.00830459
0.00767736
0.00711763
0.00661639
0.00616609
0.00576038
0.00539409
0.0117757
0.010699
0.0097598
0.00893598
0.00820983
0.00756703
0.00699579
0.00648634
0.00603059
0.00562164
0.00525356
0.00492158
0.00993586
0.00903553
0.00824531
0.00755006
0.00693671
0.00639401
0.00591231
0.00548369
0.00510164
0.00475976
0.00445241
0.00744794
0.0067866
0.00619798
0.00567839
0.00522056
0.00481677
0.00446092
0.00414983
0.00387414
0.00362511
0.00339968
0.00436502
0.00391989
0.00360988
0.00336611
0.00316289
0.00298873
0.00283698
0.00270389
0.00258491
0.00247694
0.00237885
)
;
    }
    procBoundary1to2
    {
        type            processor;
        value           nonuniform List<scalar> 9(0.00412115 0.00377932 0.00349054 0.00673289 0.00603469 0.00546778 0.00867567 0.00793472 0.00725812);
    }
    procBoundary1to8
    {
        type            processor;
        value           nonuniform List<scalar> 
33
(
0.00220838
0.0030122
0.0039239
0.00221663
0.00293924
0.00382148
0.0044934
0.00491753
0.00506247
0.0021905
0.00274642
0.00352569
0.00412094
0.00449505
0.0046207
0.00215163
0.00241866
0.00303396
0.00352179
0.00382454
0.0039237
0.00210519
0.00190165
0.0023679
0.00274345
0.00295182
0.00301227
0.00236928
0.0020315
0.00202974
0.00209284
0.00216308
0.00220852
)
;
    }
    procBoundary1to9
    {
        type            processor;
        value           nonuniform List<scalar> 
30
(
0.00491767
0.00449531
0.00406626
0.00406626
0.00312721
0.00224269
0.00449331
0.00412082
0.00373999
0.00373999
0.00290154
0.00216612
0.00382158
0.00352549
0.00321953
0.00321953
0.00250409
0.00209083
0.00293959
0.00274639
0.00255316
0.00255316
0.0020069
0.00208609
0.00221688
0.00219068
0.00220862
0.00220862
0.0021535
0.00241382
)
;
    }
}


// ************************************************************************* //
