/*--------------------------------*- C++ -*----------------------------------*\
| =========                 |                                                 |
| \\      /  F ield         | OpenFOAM: The Open Source CFD Toolbox           |
|  \\    /   O peration     | Version:  2212                                  |
|   \\  /    A nd           | Website:  www.openfoam.com                      |
|    \\/     M anipulation  |                                                 |
\*---------------------------------------------------------------------------*/
FoamFile
{
    version     2.0;
    format      ascii;
    arch        "LSB;label=32;scalar=64";
    class       volScalarField;
    location    "1";
    object      p;
}
// * * * * * * * * * * * * * * * * * * * * * * * * * * * * * * * * * * * * * //

dimensions      [0 2 -2 0 0 0 0];

internalField   nonuniform List<scalar> 
690
(
0.00491805
0.00478675
0.00461099
0.00491098
0.00475074
0.00459497
0.00487043
0.00469798
0.0045497
0.00481008
0.00473831
0.00460273
0.00444298
0.00428268
0.00412758
0.00397613
0.00382917
0.00368731
0.00354876
0.00341202
0.00327698
0.00476687
0.00462064
0.00450821
0.00437374
0.00423025
0.00408836
0.00394863
0.00380935
0.00367121
0.00353494
0.00340059
0.00326795
0.00480036
0.00463696
0.00450431
0.00436043
0.00421069
0.00406381
0.00392026
0.00377789
0.00363639
0.00349735
0.00336131
0.00322782
0.00479924
0.0047377
0.00461618
0.00445379
0.00429144
0.00413673
0.00398526
0.00383803
0.0036947
0.00355367
0.00341477
0.00327816
0.00473091
0.00458349
0.0044837
0.00435316
0.00421072
0.00407126
0.00393477
0.00379804
0.00366226
0.00352802
0.00339512
0.00326342
0.00476878
0.00461215
0.00449534
0.00435497
0.00420487
0.00405802
0.00391446
0.00377186
0.00363104
0.00349318
0.00335805
0.00322506
0.00479593
0.00462699
0.00448933
0.00434363
0.00419356
0.00404619
0.00390185
0.00375959
0.00361948
0.0034818
0.00334651
0.00321329
0.00476912
0.00460518
0.0044724
0.00433077
0.00418395
0.00403858
0.00389545
0.00375406
0.00361436
0.00347663
0.00334096
0.00320737
0.00477733
0.00460941
0.00447015
0.00432619
0.00417938
0.00403444
0.0038918
0.00375093
0.00361173
0.00347437
0.00333891
0.00320539
0.00476913
0.00460518
0.00447241
0.00433078
0.00418397
0.0040386
0.00389548
0.00375409
0.00361439
0.00347666
0.00334098
0.00320738
0.00480146
0.00463593
0.00450059
0.00435438
0.00420317
0.00405456
0.00390899
0.00376565
0.00362461
0.00348609
0.00334993
0.00321615
0.00487035
0.00469798
0.00454971
0.00439432
0.00423719
0.00408444
0.0039354
0.00378828
0.00364403
0.00350302
0.00336542
0.00491095
0.00475075
0.00459499
0.00443261
0.00427316
0.00411916
0.0039695
0.00382327
0.00368043
0.00354084
0.0034041
0.0049182
0.00478679
0.00461103
0.00443512
0.00426956
0.00411227
0.003961
0.00381635
0.00367667
0.00354009
0.00340533
0.00490296
0.00480432
0.00463079
0.00444675
0.00428303
0.00413055
0.00398182
0.00383566
0.00369231
0.00355132
0.00341247
0.00327571
0.00481173
0.00466646
0.00452739
0.00436708
0.00421376
0.00407031
0.00393071
0.00379354
0.00365838
0.00352462
0.00339196
0.00326059
0.00486559
0.0046907
0.00454801
0.00438816
0.00422629
0.00407103
0.00392115
0.00377578
0.00363451
0.00349654
0.00336116
0.00322797
0.00484027
0.00467097
0.00452979
0.00437603
0.0042185
0.00406547
0.00391665
0.00377125
0.00362937
0.00349064
0.0033545
0.00322058
0.00480143
0.00463591
0.00450057
0.00435436
0.00420314
0.00405453
0.00390895
0.00376562
0.00362459
0.00348607
0.00334995
0.00321613
0.00479204
0.0046237
0.00448494
0.00433991
0.00419104
0.00404455
0.00390103
0.00375949
0.00361971
0.00348205
0.00334664
0.00321334
0.00479593
0.00462698
0.00448932
0.00434363
0.00419358
0.00404622
0.0039019
0.00375965
0.00361954
0.00348185
0.00334655
0.00321331
0.00484026
0.00467095
0.00452979
0.00437606
0.00421856
0.00406554
0.00391673
0.00377133
0.00362944
0.0034907
0.0033545
0.00322062
0.00489799
0.00473007
0.00458941
0.00442516
0.00425785
0.00409655
0.00394057
0.0037897
0.00364402
0.00350277
0.0033652
0.00502532
0.00485115
0.00466399
0.00447328
0.00429631
0.00413014
0.0039711
0.00381963
0.00367455
0.00353397
0.00339692
0.00511094
0.00488239
0.00462998
0.00442202
0.00424651
0.00408768
0.00393907
0.0037974
0.00366035
0.00352626
0.003394
0.00519442
0.00489132
0.00458386
0.00438117
0.00423143
0.00408942
0.00394745
0.00380722
0.00366866
0.00353127
0.00339518
0.00325996
0.00505123
0.00481657
0.00458514
0.00438152
0.00421356
0.00406296
0.00391995
0.00378227
0.00364804
0.00351543
0.0033837
0.00325291
0.00503219
0.00483279
0.00464161
0.00444268
0.0042571
0.0040875
0.00392961
0.00378026
0.00363715
0.00349864
0.00336312
0.00323033
0.00489798
0.00473008
0.0045894
0.00442511
0.00425775
0.00409644
0.00394045
0.00378959
0.00364393
0.00350273
0.00336522
0.00323061
0.00487026
0.00469788
0.00454964
0.00439427
0.00423715
0.00408439
0.00393535
0.00378824
0.00364402
0.00350304
0.00336546
0.00323087
0.00480026
0.00463688
0.00450424
0.00436038
0.00421069
0.00406385
0.00392032
0.00377796
0.00363648
0.00349744
0.00336139
0.00322789
0.00476877
0.00461214
0.00449533
0.00435497
0.00420488
0.00405805
0.00391451
0.00377192
0.00363111
0.00349326
0.00335811
0.00322511
0.00486559
0.00469069
0.00454803
0.00438821
0.00422636
0.00407113
0.00392125
0.00377588
0.00363461
0.00349663
0.0033612
0.00322794
0.00503223
0.0048328
0.00464163
0.00444274
0.00425721
0.00408762
0.00392974
0.0037804
0.00363728
0.00349873
0.00336318
0.00512879
0.00488423
0.00465402
0.00444548
0.00426088
0.00409332
0.00393839
0.00379301
0.00365362
0.00351792
0.00338487
0.00535499
0.00495312
0.00458944
0.00435953
0.00418825
0.0040378
0.00389768
0.00376435
0.00363474
0.00350622
0.00337796
0.0055472
0.00490593
0.00445699
0.00429797
0.00418245
0.00405173
0.00391978
0.00378885
0.00365667
0.00352391
0.00339119
0.00325899
0.00530137
0.00488712
0.0045529
0.00434652
0.00418861
0.00404418
0.00390807
0.00377735
0.00364808
0.00351884
0.00338976
0.00326055
0.00512868
0.0048841
0.00465392
0.00444538
0.00426075
0.00409318
0.00393824
0.00379284
0.00365343
0.0035177
0.00338465
0.00325336
0.00502525
0.00485107
0.0046639
0.00447316
0.00429616
0.00412998
0.00397093
0.00381945
0.00367437
0.0035338
0.00339673
0.00326261
0.00491087
0.00475065
0.00459489
0.0044325
0.00427304
0.00411902
0.00396935
0.00382311
0.00368027
0.00354071
0.00340395
0.0032696
0.00476685
0.00462062
0.00450819
0.00437371
0.00423022
0.00408832
0.00394859
0.0038093
0.00367117
0.00353491
0.00340057
0.00326796
0.00473093
0.00458351
0.00448371
0.00435316
0.00421072
0.00407125
0.00393476
0.00379803
0.00366226
0.00352803
0.00339514
0.00326344
0.00481179
0.00466653
0.00452746
0.00436714
0.00421381
0.00407035
0.00393076
0.00379359
0.00365845
0.00352469
0.00339206
0.00326047
0.00505134
0.0048167
0.00458524
0.0043816
0.00421364
0.00406305
0.00392004
0.00378237
0.00364816
0.00351558
0.00338385
0.0053015
0.00488728
0.00455306
0.00434666
0.00418873
0.0040443
0.0039082
0.00377749
0.00364825
0.00351907
0.00339002
0.00557767
0.00491458
0.00443823
0.00426048
0.00414233
0.00401026
0.00388034
0.0037551
0.00363025
0.00350472
0.00337866
0.00554888
0.0048429
0.00437933
0.00425609
0.00416139
0.00403245
0.0039018
0.00377333
0.003644
0.00351445
0.0033847
0.00325538
0.00557755
0.00491443
0.00443805
0.00426031
0.00414218
0.00401012
0.00388019
0.00375493
0.00363004
0.00350451
0.0033783
0.00325201
0.00535484
0.00495293
0.00458923
0.00435936
0.00418811
0.00403766
0.00389753
0.00376418
0.00363453
0.00350598
0.0033777
0.00324956
0.00511084
0.00488225
0.00462981
0.00442185
0.00424635
0.00408753
0.0039389
0.0037972
0.00366011
0.00352598
0.00339372
0.00326275
0.00491821
0.00478678
0.00461095
0.00443499
0.00426941
0.00411211
0.00396081
0.00381614
0.00367643
0.00353982
0.0034051
0.00327209
0.0048102
0.00473838
0.00460275
0.00444296
0.00428262
0.00412749
0.00397605
0.00382908
0.00368723
0.0035487
0.00341199
0.00327702
0.00479929
0.00473774
0.00461621
0.00445381
0.00429144
0.00413673
0.00398526
0.00383803
0.00369472
0.00355372
0.00341487
0.00327831
0.00490302
0.00480438
0.00463085
0.0044468
0.00428307
0.00413059
0.00398186
0.00383572
0.0036924
0.00355145
0.00341265
0.00327597
0.0051945
0.0048914
0.00458395
0.00438125
0.00423151
0.0040895
0.00394754
0.00380733
0.00366881
0.00353147
0.0033954
0.0055473
0.00490605
0.00445712
0.0042981
0.00418255
0.00405184
0.0039199
0.00378897
0.00365683
0.0035241
0.00339154
0.00554899
0.00484303
0.00437948
0.00425624
0.00416151
0.00403257
0.00390193
0.00377347
0.00364417
0.00351463
0.00338507
)
;

boundaryField
{
    inlet
    {
        type            zeroGradient;
    }
    ami1
    {
        type            cyclicAMI;
        value           nonuniform List<scalar> 0();
    }
    walls
    {
        type            zeroGradient;
    }
    ami2
    {
        type            cyclicAMI;
        value           nonuniform List<scalar> 
61
(
0.0049532
0.00501626
0.00498794
0.00482418
0.00491704
0.00492636
0.00485746
0.00490531
0.00492565
0.00492257
0.00490058
0.00489652
0.00490058
0.00493441
0.00498788
0.00501624
0.00495332
0.0049345
0.00496744
0.00501887
0.00497034
0.00493438
0.00491733
0.00492256
0.00497035
0.00506107
0.00513377
0.00514325
0.00517464
0.00518832
0.00517358
0.00506104
0.00498781
0.00492627
0.00492565
0.00501889
0.00517362
0.00527011
0.0053415
0.00546132
0.00540704
0.00527001
0.0051337
0.00501617
0.00491703
0.00490533
0.0049675
0.00518841
0.00540715
0.00553456
0.00552638
0.00553445
0.00534139
0.00514317
0.00495332
0.00482427
0.00485751
0.00493455
0.0051747
0.0054614
0.00552648
)
;
    }
    outlet
    {
        type            fixedValue;
        value           nonuniform List<scalar> 0();
    }
    procBoundary1to0
    {
        type            processor;
        value           nonuniform List<scalar> 
138
(
0.00443508
0.00443508
0.00426957
0.00411229
0.00396098
0.00381629
0.00367655
0.00353992
0.00340517
0.00327212
0.00443258
0.00443258
0.00427309
0.00411905
0.00396938
0.00382315
0.00368033
0.00354075
0.00340398
0.00326961
0.00480146
0.00463593
0.0043943
0.0045006
0.0043943
0.00423711
0.00408431
0.00393526
0.00378816
0.00364396
0.00350299
0.00336542
0.00323082
0.00479208
0.00462373
0.00448496
0.00433992
0.00419103
0.00404452
0.00390099
0.00375944
0.00361965
0.003482
0.00334659
0.0032133
0.00479208
0.00462373
0.00448496
0.00433992
0.00419103
0.00404452
0.00390099
0.00375944
0.00361965
0.003482
0.00334659
0.0032133
0.00477734
0.00460942
0.00447015
0.00432619
0.00417937
0.00403443
0.00389178
0.00375091
0.00361171
0.00347435
0.00333889
0.00320539
0.00475104
0.00458962
0.00445831
0.00431797
0.00417284
0.00402897
0.00388697
0.00374653
0.00360771
0.00347071
0.00333561
0.00320241
0.00477733
0.00460941
0.00447015
0.0043262
0.00417938
0.00403445
0.00389181
0.00375093
0.00361174
0.00347438
0.00333891
0.0032054
0.00479208
0.00462373
0.00448495
0.00433992
0.00419104
0.00404455
0.00390103
0.00375949
0.0036197
0.00348204
0.00334661
0.00321335
0.00480036
0.00463697
0.0045043
0.00436041
0.0042107
0.00406385
0.00392031
0.00377795
0.00363645
0.00349738
0.00336134
0.00476689
0.00462067
0.00450825
0.00437377
0.00423029
0.0040884
0.00394868
0.00380941
0.00367127
0.003535
0.00340068
0.00481013
0.00473833
0.00460277
0.00444303
0.00428272
0.00412762
0.00397618
0.00382924
0.0036874
0.00354888
0.00341211
)
;
    }
    procBoundary1to2
    {
        type            processor;
        value           nonuniform List<scalar> 9(0.00511087 0.00488234 0.00462987 0.00502532 0.00485118 0.00466397 0.004898 0.00473008 0.00458938);
    }
    procBoundary1to8
    {
        type            processor;
        value           nonuniform List<scalar> 
33
(
0.00314382
0.00313648
0.00309643
0.00314408
0.00313255
0.00309396
0.00308198
0.00307585
0.00307389
0.00314117
0.00312978
0.00309662
0.00308878
0.0030844
0.00308198
0.00312685
0.00312289
0.00309894
0.00309833
0.00309872
0.00309647
0.00312811
0.00313244
0.00312296
0.00313039
0.00313704
0.00313653
0.00312718
0.00312659
0.00312221
0.0031322
0.00314016
0.00314392
)
;
    }
    procBoundary1to9
    {
        type            processor;
        value           nonuniform List<scalar> 
30
(
0.00307584
0.00308448
0.00323098
0.00323098
0.00326979
0.00327209
0.003082
0.00308889
0.00323065
0.00323065
0.00326274
0.00326282
0.00309403
0.00309676
0.00323007
0.00323007
0.00325353
0.00324984
0.00313265
0.00312992
0.00325301
0.00325301
0.00326117
0.00325244
0.00314427
0.00314138
0.00326065
0.00326065
0.00325952
0.00325582
)
;
    }
}


// ************************************************************************* //
