/*--------------------------------*- C++ -*----------------------------------*\
| =========                 |                                                 |
| \\      /  F ield         | OpenFOAM: The Open Source CFD Toolbox           |
|  \\    /   O peration     | Version:  2212                                  |
|   \\  /    A nd           | Website:  www.openfoam.com                      |
|    \\/     M anipulation  |                                                 |
\*---------------------------------------------------------------------------*/
FoamFile
{
    version     2.0;
    format      ascii;
    arch        "LSB;label=32;scalar=64";
    class       surfaceScalarField;
    location    "1";
    object      phi;
}
// * * * * * * * * * * * * * * * * * * * * * * * * * * * * * * * * * * * * * //

dimensions      [0 3 -1 0 0 0 0];

oriented        oriented;

internalField   nonuniform List<scalar> 
1805
(
7.77609e-07
-5.46411e-09
1.29423e-07
7.80631e-07
-2.82817e-09
1.31269e-07
-1.37386e-09
1.31083e-07
1.15164e-06
-7.35392e-09
1.13265e-07
1.1538e-06
-6.45056e-09
1.15304e-07
-5.7023e-09
1.15972e-07
1.40418e-06
8.98459e-08
1.40898e-06
9.05596e-08
9.09341e-08
7.64107e-07
-2.95306e-09
1.21863e-07
7.74692e-07
-1.61469e-09
1.22298e-07
7.8431e-07
-5.0791e-10
1.21973e-07
7.91495e-07
6.94158e-10
1.21876e-07
7.95808e-07
2.01413e-09
1.21795e-07
7.97539e-07
3.15494e-09
1.21504e-07
7.97098e-07
4.15116e-09
1.20964e-07
7.94986e-07
4.99026e-09
1.20289e-07
7.916e-07
5.60976e-09
1.19653e-07
7.87247e-07
6.07292e-09
1.19107e-07
7.822e-07
6.41713e-09
1.18642e-07
6.68593e-09
1.18178e-07
1.1643e-06
4.00797e-09
1.04683e-07
1.16876e-06
3.85728e-09
1.05373e-07
1.17415e-06
4.33493e-09
1.05735e-07
1.17963e-06
4.90628e-09
1.0606e-07
1.18483e-06
5.5027e-09
1.06321e-07
1.18941e-06
6.11293e-09
1.06413e-07
1.19323e-06
6.71858e-09
1.06321e-07
1.19627e-06
7.23333e-09
1.061e-07
1.19866e-06
7.54949e-09
1.05823e-07
1.20053e-06
7.76163e-09
1.05475e-07
1.20195e-06
7.92583e-09
1.05098e-07
8.03941e-09
1.04723e-07
1.43262e-06
8.22018e-08
1.43777e-06
8.23971e-08
1.44374e-06
8.2442e-08
1.45009e-06
8.25724e-08
1.45646e-06
8.2761e-08
1.46267e-06
8.29446e-08
1.46861e-06
8.30924e-08
1.47419e-06
8.31977e-08
1.47935e-06
8.32361e-08
1.48413e-06
8.32141e-08
1.4886e-06
8.3154e-08
8.30741e-08
7.03333e-07
-1.04384e-09
1.0767e-07
7.19247e-07
1.94517e-09
1.04439e-07
7.3228e-07
4.42856e-09
1.04512e-07
7.41877e-07
6.32762e-09
1.05952e-07
7.48596e-07
7.93282e-09
1.07143e-07
7.52924e-07
9.34063e-09
1.07836e-07
7.55039e-07
1.07081e-08
1.0814e-07
7.55357e-07
1.17666e-08
1.08206e-07
7.54219e-07
1.26327e-08
1.08159e-07
7.51914e-07
1.33617e-08
1.08051e-07
7.48684e-07
1.39599e-08
1.07913e-07
1.44446e-08
1.07736e-07
1.11706e-06
1.89253e-08
8.73907e-08
1.12022e-06
1.84892e-08
8.56658e-08
1.12576e-06
1.88164e-08
8.58031e-08
1.13183e-06
1.93009e-08
8.70233e-08
1.1378e-06
1.98518e-08
8.84294e-08
1.14331e-06
2.04959e-08
8.97482e-08
1.14825e-06
2.11816e-08
9.09093e-08
1.15252e-06
2.17608e-08
9.18354e-08
1.1562e-06
2.22473e-08
9.25257e-08
1.15933e-06
2.26934e-08
9.3009e-08
1.16196e-06
2.3088e-08
9.33391e-08
2.34172e-08
9.35578e-08
1.38775e-06
2.9285e-08
6.68041e-08
1.39378e-06
2.88688e-08
6.59833e-08
1.40034e-06
2.88457e-08
6.58562e-08
1.40701e-06
2.88816e-08
6.63201e-08
1.41357e-06
2.8928e-08
6.71263e-08
1.4199e-06
2.90076e-08
6.81005e-08
1.42595e-06
2.91112e-08
6.91073e-08
1.43167e-06
2.92046e-08
7.00401e-08
1.43704e-06
2.92816e-08
7.08338e-08
1.44209e-06
2.93519e-08
7.14997e-08
1.44687e-06
2.94147e-08
7.20509e-08
2.94607e-08
7.2509e-08
1.58112e-06
3.38841e-08
4.46823e-08
1.58804e-06
3.35893e-08
4.4213e-08
1.59537e-06
3.34334e-08
4.38938e-08
1.60286e-06
3.33557e-08
4.38681e-08
1.61032e-06
3.32763e-08
4.41143e-08
1.61763e-06
3.31811e-08
4.45508e-08
1.62473e-06
3.30726e-08
4.51189e-08
1.63157e-06
3.2951e-08
4.57475e-08
1.63813e-06
3.2821e-08
4.63744e-08
1.64442e-06
3.26881e-08
4.69724e-08
1.65046e-06
3.25552e-08
4.75207e-08
3.24254e-08
4.80175e-08
1.6945e-06
3.2444e-08
2.02338e-08
1.70318e-06
3.23824e-08
2.0002e-08
1.7118e-06
3.24001e-08
1.98234e-08
1.72034e-06
3.24093e-08
1.97537e-08
1.72878e-06
3.23913e-08
1.97942e-08
1.73706e-06
3.23509e-08
1.99267e-08
1.74514e-06
3.22927e-08
2.01357e-08
1.75299e-06
3.22201e-08
2.04026e-08
1.76057e-06
3.21375e-08
2.07171e-08
1.76789e-06
3.20497e-08
2.10528e-08
1.77494e-06
3.19579e-08
2.13956e-08
3.18686e-08
2.17308e-08
1.73381e-06
2.74959e-08
-5.98444e-09
1.74224e-06
2.74788e-08
-5.8888e-09
1.7508e-06
2.74025e-08
-5.89183e-09
1.75946e-06
2.73506e-08
-5.89253e-09
1.76812e-06
2.73435e-08
-5.87998e-09
1.7767e-06
2.73739e-08
-5.85087e-09
1.78515e-06
2.74342e-08
-5.80183e-09
1.79342e-06
2.75182e-08
-5.72978e-09
1.80146e-06
2.76192e-08
-5.63089e-09
1.80925e-06
2.77299e-08
-5.51039e-09
1.81676e-06
2.78476e-08
-5.37707e-09
2.79648e-08
-5.2353e-09
1.6945e-06
2.02318e-08
-3.38822e-08
1.70318e-06
1.99998e-08
-3.3587e-08
1.7118e-06
1.9821e-08
-3.34308e-08
1.72034e-06
1.97512e-08
-3.33529e-08
1.72878e-06
1.97914e-08
-3.32736e-08
1.73706e-06
1.99237e-08
-3.31788e-08
1.74514e-06
2.01326e-08
-3.30709e-08
1.75299e-06
2.03995e-08
-3.295e-08
1.76058e-06
2.07143e-08
-3.2821e-08
1.7679e-06
2.10505e-08
-3.26893e-08
1.77495e-06
2.13948e-08
-3.25577e-08
2.17306e-08
-3.24284e-08
1.58353e-06
1.2913e-08
-6.21218e-08
1.59113e-06
1.23718e-08
-6.22213e-08
1.59874e-06
1.20101e-08
-6.22343e-08
1.60623e-06
1.18528e-08
-6.20654e-08
1.61348e-06
1.18682e-08
-6.17319e-08
1.62044e-06
1.20193e-08
-6.12974e-08
1.62708e-06
1.22866e-08
-6.08049e-08
1.63338e-06
1.2653e-08
-6.03082e-08
1.63936e-06
1.30903e-08
-5.98365e-08
1.64506e-06
1.35518e-08
-5.94106e-08
1.65052e-06
1.40211e-08
-5.90345e-08
-5.87057e-08
1.40419e-06
7.35733e-09
-8.82507e-08
1.40899e-06
6.44929e-09
-8.94428e-08
1.4144e-06
5.70293e-09
-9.00279e-08
1.41971e-06
5.28483e-09
-8.97131e-08
1.42463e-06
5.10195e-09
-8.88853e-08
1.42906e-06
5.0904e-09
-8.77902e-08
1.433e-06
5.23671e-09
-8.65948e-08
1.43648e-06
5.5713e-09
-8.54314e-08
1.43961e-06
5.96938e-09
-8.43871e-08
1.44249e-06
6.40404e-09
-8.34759e-08
6.83265e-09
-8.27034e-08
1.15165e-06
5.46411e-09
-1.11498e-07
1.15382e-06
2.82497e-09
-1.13845e-07
1.15634e-06
1.37122e-09
-1.14157e-07
1.15825e-06
6.21917e-10
-1.12995e-07
1.15932e-06
2.45534e-10
-1.11225e-07
1.1595e-06
1.0503e-10
-1.09138e-07
1.15894e-06
6.78576e-11
-1.06988e-07
1.15792e-06
2.01056e-10
-1.04991e-07
1.15665e-06
3.87498e-10
-1.03304e-07
1.15527e-06
6.46538e-10
-1.01892e-07
9.23951e-10
-1.0074e-07
7.77588e-07
-1.28536e-07
7.80605e-07
-1.31463e-07
7.80711e-07
-1.29819e-07
7.77903e-07
-1.26327e-07
7.7272e-07
-1.22693e-07
7.65922e-07
-1.19486e-07
7.58168e-07
-1.16851e-07
7.49982e-07
-1.14779e-07
7.41635e-07
-1.13144e-07
7.33408e-07
-1.11957e-07
-1.1112e-07
6.08176e-07
1.03747e-08
7.75567e-08
6.22966e-07
1.47897e-08
7.48604e-08
6.3173e-07
1.6421e-08
7.93273e-08
6.36313e-07
1.73332e-08
8.4036e-08
6.38533e-07
1.83138e-08
8.66093e-08
6.39127e-07
1.92121e-08
8.80302e-08
6.38476e-07
1.99362e-08
8.88558e-08
6.36864e-07
2.05621e-08
8.92558e-08
6.34503e-07
2.10905e-08
8.9429e-08
6.31531e-07
2.15324e-08
8.94907e-08
6.28048e-07
2.19065e-08
8.94898e-08
2.22058e-08
8.9453e-08
1.0113e-06
3.75863e-08
6.08301e-08
1.01529e-06
3.82935e-08
5.81697e-08
1.0192e-06
3.85776e-08
5.97359e-08
1.02227e-06
3.83703e-08
6.29157e-08
1.02484e-06
3.81727e-08
6.60063e-08
1.02712e-06
3.80494e-08
6.86261e-08
1.02922e-06
3.79871e-08
7.07639e-08
1.03115e-06
3.80405e-08
7.24264e-08
1.0329e-06
3.81832e-08
7.36755e-08
1.03447e-06
3.83635e-08
7.46092e-08
1.03584e-06
3.85496e-08
7.5324e-08
3.87168e-08
7.5865e-08
1.28166e-06
5.42729e-08
4.69381e-08
1.28678e-06
5.42475e-08
4.49181e-08
1.29221e-06
5.41804e-08
4.48197e-08
1.29708e-06
5.38171e-08
4.60061e-08
1.30135e-06
5.33086e-08
4.77143e-08
1.30515e-06
5.27886e-08
4.95602e-08
1.3086e-06
5.2294e-08
5.13533e-08
1.31183e-06
5.18863e-08
5.29627e-08
1.31496e-06
5.1573e-08
5.4319e-08
1.31803e-06
5.13371e-08
5.54514e-08
1.32108e-06
5.11647e-08
5.63861e-08
5.10287e-08
5.71666e-08
1.47191e-06
6.21235e-08
3.1419e-08
1.47807e-06
6.22239e-08
3.00771e-08
1.48469e-06
6.22372e-08
2.92206e-08
1.49112e-06
6.20682e-08
2.91828e-08
1.49713e-06
6.17342e-08
2.96771e-08
1.50268e-06
6.12993e-08
3.04948e-08
1.50778e-06
6.08062e-08
3.15052e-08
1.51252e-06
6.03088e-08
3.2583e-08
1.517e-06
5.98363e-08
3.36314e-08
1.5213e-06
5.94095e-08
3.4599e-08
1.52549e-06
5.90335e-08
3.54665e-08
5.87048e-08
3.62336e-08
1.58353e-06
6.20106e-08
1.29157e-08
1.59113e-06
6.22488e-08
1.23751e-08
1.59874e-06
6.24364e-08
1.20136e-08
1.60623e-06
6.24805e-08
1.18564e-08
1.61348e-06
6.24036e-08
1.18722e-08
1.62044e-06
6.224e-08
1.20239e-08
1.62708e-06
6.20148e-08
1.22918e-08
1.63338e-06
6.17556e-08
1.26586e-08
1.63935e-06
6.14813e-08
1.30959e-08
1.64505e-06
6.12103e-08
1.35567e-08
1.6505e-06
6.09506e-08
1.40218e-08
6.07132e-08
1.44569e-08
1.62001e-06
5.59406e-08
-7.21473e-09
1.62738e-06
5.58526e-08
-6.86937e-09
1.63496e-06
5.58114e-08
-6.84447e-09
1.64266e-06
5.58358e-08
-6.95263e-09
1.65037e-06
5.59174e-08
-7.0945e-09
1.65797e-06
5.60359e-08
-7.24613e-09
1.66539e-06
5.61772e-08
-7.39022e-09
1.67258e-06
5.63286e-08
-7.4945e-09
1.67949e-06
5.64704e-08
-7.52906e-09
1.68611e-06
5.6596e-08
-7.51212e-09
1.69244e-06
5.67042e-08
-7.46464e-09
5.67976e-08
-7.39206e-09
1.58112e-06
4.46808e-08
-2.92837e-08
1.58804e-06
4.42117e-08
-2.88669e-08
1.59537e-06
4.38923e-08
-2.88432e-08
1.60287e-06
4.38661e-08
-2.88786e-08
1.61033e-06
4.41117e-08
-2.89247e-08
1.61764e-06
4.45476e-08
-2.90044e-08
1.62474e-06
4.51153e-08
-2.91084e-08
1.63158e-06
4.57437e-08
-2.92025e-08
1.63814e-06
4.63705e-08
-2.92805e-08
1.64443e-06
4.69687e-08
-2.93522e-08
1.65047e-06
4.75184e-08
-2.94165e-08
4.80157e-08
-2.94638e-08
1.47191e-06
3.14176e-08
-5.42718e-08
1.47807e-06
3.00762e-08
-5.42455e-08
1.48469e-06
2.92192e-08
-5.41781e-08
1.49113e-06
2.91802e-08
-5.38149e-08
1.49714e-06
2.96731e-08
-5.33065e-08
1.50269e-06
3.04895e-08
-5.27864e-08
1.50779e-06
3.1499e-08
-5.22919e-08
1.51253e-06
3.2576e-08
-5.18847e-08
1.51702e-06
3.36239e-08
-5.15721e-08
1.52132e-06
3.45913e-08
-5.13376e-08
1.52551e-06
3.54634e-08
-5.11651e-08
-5.10296e-08
1.29131e-06
1.7235e-08
-7.96207e-08
1.29846e-06
1.42874e-08
-8.08063e-08
1.30449e-06
1.34066e-08
-8.02488e-08
1.30883e-06
1.38501e-08
-7.87205e-08
1.3118e-06
1.47768e-08
-7.69556e-08
1.31369e-06
1.60854e-08
-7.52843e-08
1.31487e-06
1.75778e-08
-7.38467e-08
1.31565e-06
1.90261e-08
-7.26632e-08
1.31632e-06
2.03033e-08
-7.17337e-08
1.31705e-06
2.13963e-08
-7.10129e-08
2.23392e-08
-7.04789e-08
1.04983e-06
3.9043e-09
-1.00795e-07
1.05384e-06
-2.9938e-10
-1.0327e-07
1.05498e-06
-3.04475e-10
-1.01583e-07
1.05308e-06
9.24525e-10
-9.81744e-08
1.04917e-06
2.30069e-09
-9.4839e-08
1.04416e-06
3.80816e-09
-9.18483e-08
1.03881e-06
5.32583e-09
-8.93847e-08
1.03364e-06
6.71538e-09
-8.75088e-08
1.02889e-06
7.8734e-09
-8.61286e-08
1.02469e-06
8.81245e-09
-8.51103e-08
9.56195e-09
-8.4353e-08
7.23469e-07
-1.17704e-07
7.11754e-07
-1.20047e-07
6.96381e-07
-1.14751e-07
6.79268e-07
-1.0829e-07
6.62029e-07
-1.03153e-07
6.45864e-07
-9.95134e-08
6.3131e-07
-9.69708e-08
6.18454e-07
-9.52085e-08
6.07183e-07
-9.39983e-08
5.9727e-07
-9.3232e-08
-9.27586e-08
4.88799e-07
3.43074e-08
3.71418e-08
4.83734e-07
3.71273e-08
4.2799e-08
4.75836e-07
3.41537e-08
5.30719e-08
4.68886e-07
3.14773e-08
5.95088e-08
4.63241e-07
3.00823e-08
6.21724e-08
4.58604e-07
2.93208e-08
6.33475e-08
4.54621e-07
2.89341e-08
6.39045e-08
4.50985e-07
2.8783e-08
6.41099e-08
4.47482e-07
2.87575e-08
6.41741e-08
4.44009e-07
2.87961e-08
6.4168e-08
4.40525e-07
2.88421e-08
6.41322e-08
2.88952e-08
6.40666e-08
8.43552e-07
6.02742e-08
2.84452e-08
8.49334e-07
6.21044e-08
2.74108e-08
8.49462e-07
6.07937e-08
3.29682e-08
8.46163e-07
5.83951e-08
3.92975e-08
8.42158e-07
5.62811e-08
4.38128e-08
8.38438e-07
5.47622e-08
4.69044e-08
8.35296e-07
5.37203e-08
4.91198e-08
8.3279e-07
5.30414e-08
5.06747e-08
8.30827e-07
5.2635e-08
5.1761e-08
8.29268e-07
5.23946e-08
5.25694e-08
8.27982e-07
5.22619e-08
5.31912e-08
5.21884e-08
5.369e-08
1.11106e-06
7.96222e-08
2.5889e-08
1.11537e-06
8.0809e-08
2.19113e-08
1.11836e-06
8.02511e-08
2.23626e-08
1.11914e-06
7.87221e-08
2.49047e-08
1.11843e-06
7.69567e-08
2.77513e-08
1.11696e-06
7.52852e-08
3.05049e-08
1.11529e-06
7.38473e-08
3.28982e-08
1.11381e-06
7.2663e-08
3.48201e-08
1.11272e-06
7.17329e-08
3.6306e-08
1.11209e-06
7.1009e-08
3.74689e-08
1.11187e-06
7.04802e-08
3.83871e-08
7.00623e-08
3.91351e-08
1.2913e-06
8.82531e-08
1.72364e-08
1.29845e-06
8.94465e-08
1.42889e-08
1.30449e-06
9.00314e-08
1.34086e-08
1.30882e-06
8.97158e-08
1.38532e-08
1.31179e-06
8.88869e-08
1.4782e-08
1.31368e-06
8.77909e-08
1.60923e-08
1.31485e-06
8.65948e-08
1.7586e-08
1.31563e-06
8.54307e-08
1.90357e-08
1.3163e-06
8.43857e-08
2.03145e-08
1.31703e-06
8.34735e-08
2.14065e-08
1.31793e-06
8.27052e-08
2.23424e-08
8.20511e-08
2.31378e-08
1.40419e-06
8.98447e-08
7.36068e-09
1.409e-06
9.05588e-08
6.45436e-09
1.4144e-06
9.09336e-08
5.707e-09
1.41972e-06
9.0968e-08
5.28845e-09
1.42464e-06
9.07314e-08
5.10618e-09
1.42907e-06
9.02903e-08
5.09585e-09
1.43301e-06
8.9704e-08
5.24392e-09
1.43648e-06
8.90369e-08
5.58011e-09
1.4396e-06
8.8376e-08
5.97924e-09
1.44248e-06
8.77433e-08
6.41179e-09
1.44522e-06
8.71503e-08
6.83425e-09
8.66199e-08
7.22632e-09
1.43263e-06
8.21992e-08
-4.0055e-09
1.43778e-06
8.23944e-08
-3.85446e-09
1.44376e-06
8.24393e-08
-4.3313e-09
1.45011e-06
8.25697e-08
-4.90171e-09
1.45648e-06
8.27587e-08
-5.49836e-09
1.46269e-06
8.29428e-08
-6.10888e-09
1.46863e-06
8.30908e-08
-6.71466e-09
1.47421e-06
8.31961e-08
-7.22964e-09
1.47936e-06
8.32342e-08
-7.54584e-09
1.48414e-06
8.32118e-08
-7.75864e-09
1.4886e-06
8.31514e-08
-7.92431e-09
8.30707e-08
-8.03801e-09
1.38775e-06
6.68022e-08
-1.89255e-08
1.39378e-06
6.59813e-08
-1.84889e-08
1.40034e-06
6.58536e-08
-1.8815e-08
1.40702e-06
6.63166e-08
-1.92984e-08
1.41358e-06
6.71223e-08
-1.98482e-08
1.41991e-06
6.80961e-08
-2.04915e-08
1.42597e-06
6.91028e-08
-2.11769e-08
1.43168e-06
7.00354e-08
-2.1756e-08
1.43705e-06
7.08289e-08
-2.22426e-08
1.4421e-06
7.14943e-08
-2.26897e-08
1.44688e-06
7.20467e-08
-2.30857e-08
7.25046e-08
-2.34159e-08
1.28167e-06
4.6937e-08
-3.75868e-08
1.28678e-06
4.49173e-08
-3.82936e-08
1.29222e-06
4.48179e-08
-3.85774e-08
1.29708e-06
4.60028e-08
-3.83693e-08
1.30136e-06
4.77095e-08
-3.81708e-08
1.30516e-06
4.95545e-08
-3.80466e-08
1.30861e-06
5.13467e-08
-3.79836e-08
1.31184e-06
5.29551e-08
-3.80366e-08
1.31497e-06
5.43106e-08
-3.81795e-08
1.31804e-06
5.54409e-08
-3.8361e-08
1.3211e-06
5.63793e-08
-3.85483e-08
-3.87149e-08
1.11107e-06
2.58883e-08
-6.02746e-08
1.11537e-06
2.19112e-08
-6.2105e-08
1.11837e-06
2.23617e-08
-6.07944e-08
1.11915e-06
2.49016e-08
-5.83954e-08
1.11844e-06
2.77458e-08
-5.62805e-08
1.11697e-06
3.04984e-08
-5.47606e-08
1.1153e-06
3.28906e-08
-5.37184e-08
1.11382e-06
3.48111e-08
-5.30397e-08
1.11273e-06
3.62954e-08
-5.2634e-08
1.1121e-06
3.74557e-08
-5.23965e-08
3.83794e-08
-5.22646e-08
8.63266e-07
-9.32705e-10
-8.48577e-08
8.70698e-07
-3.61417e-09
-8.51764e-08
8.69266e-07
7.83508e-10
-7.85726e-08
8.62321e-07
5.57906e-09
-7.19063e-08
8.53363e-07
9.6146e-09
-6.77502e-08
8.44322e-07
1.28352e-08
-6.51442e-08
8.36041e-07
1.52023e-08
-6.34146e-08
8.28845e-07
1.6902e-08
-6.24035e-08
8.22769e-07
1.80959e-08
-6.18533e-08
8.17703e-07
1.89034e-08
-6.1491e-08
1.94749e-08
-6.12288e-08
5.7652e-07
-9.6512e-08
5.4538e-07
-9.25212e-08
5.14681e-07
-8.32678e-08
4.88332e-07
-7.6362e-08
4.6691e-07
-7.2116e-08
4.5008e-07
-6.9848e-08
4.37008e-07
-6.86963e-08
4.26763e-07
-6.80615e-08
4.18483e-07
-6.76222e-08
4.11481e-07
-6.73258e-08
-6.71417e-08
3.17832e-07
5.88655e-08
1.05496e-08
2.84683e-07
5.43864e-08
2.15618e-08
2.64616e-07
4.397e-08
2.91693e-08
2.54275e-07
3.74055e-08
3.24448e-08
2.48129e-07
3.49037e-08
3.34153e-08
2.43805e-07
3.37994e-08
3.38721e-08
2.40386e-07
3.31471e-08
3.41767e-08
2.37356e-07
3.28212e-08
3.43195e-08
2.34503e-07
3.26753e-08
3.4352e-08
2.31768e-07
3.25777e-08
3.43252e-08
2.29131e-07
3.24971e-08
3.42725e-08
3.24176e-08
3.42058e-08
6.2012e-07
8.48582e-08
-4.39855e-09
6.15822e-07
8.51766e-08
9.18551e-10
6.03412e-07
7.85736e-08
1.07743e-08
5.89921e-07
7.19083e-08
1.82863e-08
5.78013e-07
6.77515e-08
2.28732e-08
5.68343e-07
6.51457e-08
2.52277e-08
5.60674e-07
6.34164e-08
2.65197e-08
5.54476e-07
6.24052e-08
2.72888e-08
5.49244e-07
6.18553e-08
2.78138e-08
5.44678e-07
6.14901e-08
2.82228e-08
5.40578e-07
6.1236e-08
2.85521e-08
6.1028e-08
2.88227e-08
8.63269e-07
1.00795e-07
-9.31826e-10
8.70698e-07
1.03271e-07
-3.61247e-09
8.69262e-07
1.01585e-07
7.86206e-10
8.62316e-07
9.81764e-08
5.58275e-09
8.5336e-07
9.48401e-08
9.61871e-09
8.44322e-07
9.18494e-08
1.28393e-08
8.36044e-07
8.93861e-08
1.52066e-08
8.28852e-07
8.75103e-08
1.6907e-08
8.22781e-07
8.61297e-08
1.81024e-08
8.17717e-07
8.51127e-08
1.89103e-08
8.13499e-07
8.43605e-08
1.94809e-08
8.3791e-08
1.99035e-08
1.04983e-06
1.11499e-07
3.90577e-09
1.05384e-06
1.13846e-07
-2.9656e-10
1.05498e-06
1.14159e-07
-3.00737e-10
1.05308e-06
1.12997e-07
9.28634e-10
1.04917e-06
1.11226e-07
2.30516e-09
1.04416e-06
1.09139e-07
3.81342e-09
1.03881e-06
1.06989e-07
5.33209e-09
1.03364e-06
1.04992e-07
6.72322e-09
1.0289e-06
1.03305e-07
7.88368e-09
1.0247e-06
1.01894e-07
8.82348e-09
1.02108e-06
1.00746e-07
9.56987e-09
9.98129e-08
1.01524e-08
1.15166e-06
1.13262e-07
5.46511e-09
1.15383e-06
1.15302e-07
2.82738e-09
1.15635e-06
1.1597e-07
1.37367e-09
1.15827e-06
1.15747e-07
6.24864e-10
1.15934e-06
1.1501e-07
2.49331e-10
1.15951e-06
1.13953e-07
1.10269e-10
1.15896e-06
1.12709e-07
7.51684e-11
1.15794e-06
1.11382e-07
2.10997e-10
1.15666e-06
1.1016e-07
4.00334e-10
1.15528e-06
1.09027e-07
6.60526e-10
1.1539e-06
1.08027e-07
9.35558e-10
1.07154e-07
1.18355e-09
1.16431e-06
1.0468e-07
2.95214e-09
1.16877e-06
1.05369e-07
1.6141e-09
1.17417e-06
1.05731e-07
5.08288e-10
1.17965e-06
1.06056e-07
-6.92147e-10
1.18486e-06
1.06317e-07
-2.01056e-09
1.18944e-06
1.06409e-07
-3.14928e-09
1.19326e-06
1.06317e-07
-4.1432e-09
1.1963e-06
1.06096e-07
-4.98062e-09
1.19869e-06
1.05819e-07
-5.59879e-09
1.20055e-06
1.0547e-07
-6.06139e-09
1.20197e-06
1.05092e-07
-6.40578e-09
1.04717e-07
-6.67536e-09
1.11706e-06
8.73882e-08
1.04265e-09
1.12022e-06
8.56621e-08
-1.94595e-09
1.12577e-06
8.57985e-08
-4.42844e-09
1.13183e-06
8.70181e-08
-6.32646e-09
1.13781e-06
8.84239e-08
-7.93056e-09
1.14332e-06
8.97424e-08
-9.33669e-09
1.14826e-06
9.09029e-08
-1.07026e-08
1.15253e-06
9.18283e-08
-1.17599e-08
1.15622e-06
9.25175e-08
-1.26247e-08
1.15935e-06
9.29995e-08
-1.33531e-08
1.16198e-06
9.33287e-08
-1.39513e-08
9.35483e-08
-1.4437e-08
1.0113e-06
6.08276e-08
-1.03752e-08
1.01529e-06
5.81658e-08
-1.47898e-08
1.0192e-06
5.97312e-08
-1.6421e-08
1.02227e-06
6.29105e-08
-1.73326e-08
1.02484e-06
6.60007e-08
-1.83121e-08
1.02712e-06
6.86202e-08
-1.92097e-08
1.02922e-06
7.07571e-08
-1.99328e-08
1.03115e-06
7.24185e-08
-2.05577e-08
1.03291e-06
7.36659e-08
-2.10858e-08
1.03448e-06
7.45976e-08
-2.15279e-08
1.03585e-06
7.53088e-08
-2.19039e-08
-2.22063e-08
8.43549e-07
2.84436e-08
-3.43075e-08
8.49329e-07
2.74076e-08
-3.71269e-08
8.49456e-07
3.29644e-08
-3.41539e-08
8.46155e-07
3.92939e-08
-3.14782e-08
8.4215e-07
4.38085e-08
-3.00824e-08
8.3843e-07
4.68994e-08
-2.93198e-08
8.35288e-07
4.91137e-08
-2.89325e-08
8.32781e-07
5.06672e-08
-2.87809e-08
8.30816e-07
5.17524e-08
-2.87558e-08
8.29257e-07
5.25552e-08
-2.87945e-08
5.31799e-08
-2.88471e-08
6.20115e-07
-4.39892e-09
-5.88646e-08
6.15813e-07
9.18211e-10
-5.43852e-08
6.03401e-07
1.07737e-08
-4.39691e-08
5.89908e-07
1.82853e-08
-3.7405e-08
5.77999e-07
2.28713e-08
-3.49034e-08
5.68328e-07
2.52255e-08
-3.37986e-08
5.60657e-07
2.6517e-08
-3.3146e-08
5.54456e-07
2.72852e-08
-3.28203e-08
5.49219e-07
2.78102e-08
-3.26735e-08
5.44645e-07
2.82166e-08
-3.2578e-08
2.85497e-08
-3.24939e-08
3.52999e-07
-5.83933e-08
3.09621e-07
-4.8225e-08
2.78869e-07
-4.17416e-08
2.59631e-07
-3.88391e-08
2.47424e-07
-3.70368e-08
2.39135e-07
-3.63333e-08
2.33015e-07
-3.60592e-08
2.28125e-07
-3.5885e-08
2.24024e-07
-3.57113e-08
2.20455e-07
-3.55393e-08
-3.53865e-08
1.31622e-07
5.83938e-08
1.04959e-07
4.82257e-08
9.23853e-08
4.17427e-08
8.59897e-08
3.88405e-08
8.23671e-08
3.70381e-08
7.99044e-08
3.63349e-08
7.80202e-08
3.6061e-08
7.64529e-08
3.5887e-08
7.50915e-08
3.57135e-08
7.38752e-08
3.55416e-08
7.27584e-08
3.53894e-08
3.5254e-08
3.53001e-07
9.65123e-08
3.09623e-07
9.25218e-08
2.78873e-07
8.32679e-08
2.59638e-07
7.63617e-08
2.47433e-07
7.21163e-08
2.39146e-07
6.98493e-08
2.33028e-07
6.86986e-08
2.2814e-07
6.80646e-08
2.24042e-07
6.76255e-08
2.20476e-07
6.73302e-08
2.17275e-07
6.71428e-08
6.70324e-08
5.76527e-07
1.17702e-07
5.45392e-07
1.20044e-07
5.14699e-07
1.14747e-07
4.88356e-07
1.08287e-07
4.66939e-07
1.03153e-07
4.50113e-07
9.95144e-08
4.37045e-07
9.69733e-08
4.26804e-07
9.52119e-08
4.1853e-07
9.4002e-08
4.11535e-07
9.32361e-08
4.05398e-07
9.276e-08
9.24719e-08
7.23475e-07
1.28533e-07
7.11763e-07
1.31459e-07
6.96394e-07
1.29815e-07
6.79286e-07
1.26324e-07
6.62051e-07
1.22692e-07
6.45892e-07
1.19487e-07
6.31345e-07
1.16852e-07
6.18499e-07
1.14781e-07
6.0724e-07
1.13145e-07
5.97341e-07
1.11958e-07
5.88554e-07
1.11117e-07
1.10506e-07
7.77588e-07
1.29425e-07
7.80605e-07
1.3127e-07
7.80711e-07
1.31083e-07
7.77905e-07
1.29755e-07
7.72726e-07
1.2812e-07
7.65935e-07
1.26388e-07
7.5819e-07
1.24672e-07
7.50018e-07
1.23164e-07
7.41688e-07
1.21875e-07
7.3348e-07
1.20826e-07
7.25523e-07
1.2001e-07
1.19326e-07
7.64099e-07
1.21865e-07
7.74683e-07
1.223e-07
7.843e-07
1.21974e-07
7.91486e-07
1.21876e-07
7.95803e-07
1.21793e-07
7.97542e-07
1.215e-07
7.97111e-07
1.20959e-07
7.95012e-07
1.20283e-07
7.91642e-07
1.19646e-07
7.87308e-07
1.19099e-07
7.82279e-07
1.18633e-07
1.18168e-07
7.03332e-07
1.0767e-07
7.19248e-07
1.04439e-07
7.32282e-07
1.04512e-07
7.41881e-07
1.05951e-07
7.48603e-07
1.0714e-07
7.52934e-07
1.07832e-07
7.55057e-07
1.08134e-07
7.55382e-07
1.08198e-07
7.54253e-07
1.0815e-07
7.51959e-07
1.08041e-07
7.48741e-07
1.079e-07
1.07722e-07
6.08175e-07
7.75554e-08
6.22965e-07
7.48592e-08
6.31731e-07
7.93255e-08
6.36316e-07
8.40334e-08
6.38538e-07
8.66059e-08
6.39135e-07
8.80258e-08
6.38486e-07
8.88506e-08
6.36877e-07
8.92495e-08
6.3452e-07
8.94212e-08
6.31551e-07
8.94818e-08
6.28071e-07
8.94762e-08
4.88798e-07
3.71402e-08
4.83733e-07
4.27975e-08
4.75835e-07
5.30691e-08
4.68886e-07
5.95046e-08
4.63242e-07
6.21684e-08
4.58604e-07
6.33437e-08
4.54622e-07
6.39005e-08
4.50985e-07
6.41058e-08
4.47483e-07
6.41684e-08
4.44008e-07
6.4162e-08
6.41197e-08
3.1783e-07
1.0549e-08
2.84682e-07
2.15612e-08
2.64614e-07
2.91683e-08
2.54271e-07
3.2443e-08
2.48123e-07
3.34132e-08
2.43799e-07
3.38699e-08
2.40379e-07
3.41743e-08
2.37348e-07
3.43171e-08
2.34494e-07
3.43491e-08
2.31757e-07
3.43216e-08
3.42689e-08
1.31621e-07
1.04958e-07
9.23843e-08
8.59881e-08
8.23646e-08
7.99012e-08
7.80164e-08
7.64485e-08
7.50864e-08
7.38687e-08
)
;

boundaryField
{
    inlet
    {
        type            calculated;
        value           nonuniform List<scalar> 0();
    }
    ami1
    {
        type            cyclicAMI;
        value           nonuniform List<scalar> 0();
    }
    walls
    {
        type            calculated;
        value           nonuniform List<scalar> 
259
(
-6.40674e-15
-1.28555e-14
-1.84387e-14
-2.43942e-14
-2.90979e-14
-6.40674e-15
-1.28555e-14
-1.84387e-14
-2.43942e-14
-2.90979e-14
-6.40674e-15
-1.28555e-14
-1.84387e-14
-2.43942e-14
-2.90979e-14
-6.40674e-15
-1.28555e-14
-1.84387e-14
-2.43942e-14
-2.90979e-14
-6.40674e-15
-1.28555e-14
-1.84387e-14
-2.43942e-14
-2.90979e-14
-6.40674e-15
-1.28555e-14
-1.84387e-14
-2.43942e-14
-2.90979e-14
-6.40674e-15
-1.28555e-14
-1.84387e-14
-2.43942e-14
-2.90979e-14
-6.40674e-15
-1.28555e-14
-1.84387e-14
-2.43942e-14
-2.90979e-14
-6.40674e-15
-1.28555e-14
-1.84387e-14
-2.43942e-14
-2.90979e-14
-6.40674e-15
-1.28555e-14
-1.84387e-14
-2.43942e-14
-2.90979e-14
-6.40674e-15
-1.28555e-14
-1.84387e-14
-2.43942e-14
-2.90979e-14
-2.90979e-14
-2.43942e-14
-1.84387e-14
-1.28555e-14
-6.40674e-15
-6.29917e-23
6.40674e-15
1.28555e-14
1.84387e-14
2.43942e-14
2.90979e-14
-2.90979e-14
-2.43942e-14
-1.84387e-14
-1.28555e-14
-6.40674e-15
-2.18783e-22
6.40674e-15
1.28555e-14
1.84387e-14
2.43942e-14
2.90979e-14
-2.90979e-14
-2.43942e-14
-1.84387e-14
-1.28555e-14
-6.40674e-15
-6.60937e-23
6.40674e-15
1.28555e-14
1.84387e-14
2.43942e-14
2.90979e-14
-2.90979e-14
-2.43942e-14
-1.84387e-14
-1.28555e-14
-6.40674e-15
-6.24748e-23
6.40674e-15
1.28555e-14
1.84387e-14
2.43942e-14
2.90979e-14
-2.90979e-14
-2.43942e-14
-1.84387e-14
-1.28555e-14
-6.40674e-15
-6.24748e-23
6.40674e-15
1.28555e-14
1.84387e-14
2.43942e-14
2.90979e-14
-2.90979e-14
-2.43942e-14
-1.84387e-14
-1.28555e-14
-6.40674e-15
-2.18007e-22
6.40674e-15
1.28555e-14
1.84387e-14
2.43942e-14
2.90979e-14
-2.90979e-14
-2.43942e-14
-1.84387e-14
-1.28555e-14
-6.40674e-15
-6.60937e-23
6.40674e-15
1.28555e-14
1.84387e-14
2.43942e-14
2.90979e-14
-2.90979e-14
-2.43942e-14
-1.84387e-14
-1.28555e-14
-6.40674e-15
-6.60937e-23
6.40674e-15
1.28555e-14
1.84387e-14
2.43942e-14
2.90979e-14
-2.90979e-14
-2.43942e-14
-1.84387e-14
-1.28555e-14
-6.40674e-15
-6.63522e-23
6.40674e-15
1.28555e-14
1.84387e-14
2.43942e-14
2.90979e-14
-2.90979e-14
-2.43942e-14
-1.84387e-14
-1.28555e-14
-6.40674e-15
-3.60518e-22
6.40674e-15
1.28555e-14
1.84387e-14
2.43942e-14
2.90979e-14
-2.90979e-14
-2.43942e-14
-1.84387e-14
-1.28555e-14
-6.40674e-15
-6.2814e-23
6.40674e-15
1.28555e-14
1.84387e-14
2.43942e-14
2.90979e-14
-2.90979e-14
-2.43942e-14
-1.84387e-14
-1.28555e-14
-6.40674e-15
-6.2814e-23
6.40674e-15
1.28555e-14
-6.40674e-15
-6.29917e-23
6.40674e-15
1.28555e-14
1.84387e-14
2.43942e-14
2.90979e-14
-6.40674e-15
-2.18783e-22
6.40674e-15
1.28555e-14
1.84387e-14
2.43942e-14
2.90979e-14
-6.40674e-15
-6.60937e-23
6.40674e-15
1.28555e-14
1.84387e-14
2.43942e-14
2.90979e-14
-6.24748e-23
6.40674e-15
1.28555e-14
1.84387e-14
2.43942e-14
2.90979e-14
-6.24748e-23
6.40674e-15
1.28555e-14
1.84387e-14
2.43942e-14
2.90979e-14
-2.18007e-22
6.40674e-15
1.28555e-14
1.84387e-14
2.43942e-14
2.90979e-14
-6.60937e-23
6.40674e-15
1.28555e-14
1.84387e-14
2.43942e-14
2.90979e-14
-6.60937e-23
6.40674e-15
1.28555e-14
1.84387e-14
2.43942e-14
2.90979e-14
-6.63522e-23
6.40674e-15
1.28555e-14
1.84387e-14
2.43942e-14
2.90979e-14
-3.60518e-22
6.40674e-15
1.28555e-14
1.84387e-14
2.43942e-14
2.90979e-14
-6.2814e-23
6.40674e-15
1.28555e-14
1.84387e-14
2.43942e-14
2.90979e-14
-6.2814e-23
6.40674e-15
1.28555e-14
1.84387e-14
2.43942e-14
2.90979e-14
)
;
    }
    ami2
    {
        type            cyclicAMI;
        value           nonuniform List<scalar> 
61
(
-7.7303e-07
-1.15151e-06
-1.40022e-06
-7.53593e-07
-1.16268e-06
-1.42818e-06
-6.88095e-07
-1.11973e-06
-1.38271e-06
-1.57446e-06
-1.6858e-06
-1.72529e-06
-1.6858e-06
-1.5761e-06
-1.40022e-06
-1.15152e-06
-7.73014e-07
-5.88437e-07
-1.01195e-06
-1.27849e-06
-1.4665e-06
-1.5761e-06
-1.61271e-06
-1.57446e-06
-1.4665e-06
-1.28575e-06
-1.0472e-06
-7.30397e-07
-4.82692e-07
-8.37134e-07
-1.10936e-06
-1.28575e-06
-1.40023e-06
-1.42819e-06
-1.38271e-06
-1.27849e-06
-1.10936e-06
-8.52382e-07
-5.98645e-07
-3.50105e-07
-6.13268e-07
-8.52385e-07
-1.0472e-06
-1.15153e-06
-1.16268e-06
-1.11973e-06
-1.01195e-06
-8.37132e-07
-6.13265e-07
-3.95516e-07
-1.79467e-07
-3.95518e-07
-5.98649e-07
-7.304e-07
-7.73015e-07
-7.53587e-07
-6.88094e-07
-5.88436e-07
-4.8269e-07
-3.50104e-07
-1.79466e-07
)
;
    }
    outlet
    {
        type            calculated;
        value           nonuniform List<scalar> 0();
    }
    procBoundary1to0
    {
        type            processor;
        value           nonuniform List<scalar> 
138
(
7.80739e-07
-1.29755e-07
-1.28121e-07
-1.26391e-07
-1.24674e-07
-1.23167e-07
-1.21877e-07
-1.20828e-07
-1.20012e-07
-1.1933e-07
1.15632e-06
-1.15748e-07
-1.1501e-07
-1.13952e-07
-1.12708e-07
-1.11381e-07
-1.10159e-07
-1.09027e-07
-1.08027e-07
-1.07156e-07
-1.2912e-08
-1.23714e-08
1.41438e-06
-1.20089e-08
-9.09684e-08
-9.07312e-08
-9.029e-08
-8.97041e-08
-8.90378e-08
-8.8378e-08
-8.77466e-08
-8.71546e-08
-8.66249e-08
7.21761e-09
6.87276e-09
6.84846e-09
6.95702e-09
7.09834e-09
7.249e-09
7.39206e-09
7.49524e-09
7.52871e-09
7.5105e-09
7.46159e-09
7.38836e-09
-5.59417e-08
-5.58537e-08
-5.58125e-08
-5.5837e-08
-5.59188e-08
-5.60373e-08
-5.61789e-08
-5.63305e-08
-5.64726e-08
-5.65986e-08
-5.67069e-08
-5.68005e-08
-2.7497e-08
-2.748e-08
-2.74037e-08
-2.7352e-08
-2.73451e-08
-2.73757e-08
-2.74362e-08
-2.75205e-08
-2.76217e-08
-2.77327e-08
-2.78505e-08
-2.79675e-08
2.41479e-09
2.36454e-09
2.32533e-09
2.29419e-09
2.27242e-09
2.24577e-09
2.20839e-09
2.16195e-09
2.10684e-09
2.04455e-09
1.97714e-09
1.90733e-09
3.24429e-08
3.2381e-08
3.23984e-08
3.24075e-08
3.23896e-08
3.23492e-08
3.22911e-08
3.22187e-08
3.21364e-08
3.20489e-08
3.19574e-08
3.18676e-08
6.20095e-08
6.22474e-08
6.24347e-08
6.24787e-08
6.2402e-08
6.22386e-08
6.20137e-08
6.17548e-08
6.14806e-08
6.12098e-08
6.09497e-08
6.07117e-08
8.98435e-08
9.05573e-08
9.09317e-08
9.09662e-08
9.073e-08
9.02895e-08
8.97037e-08
8.9037e-08
8.83763e-08
8.77438e-08
8.71492e-08
1.13262e-07
1.15301e-07
1.15969e-07
1.15746e-07
1.15009e-07
1.13953e-07
1.12709e-07
1.11383e-07
1.1016e-07
1.09027e-07
1.08026e-07
1.29426e-07
1.31271e-07
1.31085e-07
1.29757e-07
1.28122e-07
1.2639e-07
1.24673e-07
1.23166e-07
1.21878e-07
1.20831e-07
1.20016e-07
)
;
    }
    procBoundary1to2
    {
        type            processor;
        value           nonuniform List<scalar> 9(-1.28538e-07 -1.31463e-07 -1.29817e-07 -1.11499e-07 -1.13845e-07 -1.14159e-07 -8.82506e-08 -8.94432e-08 -9.00281e-08);
    }
    procBoundary1to8
    {
        type            processor;
        value           nonuniform List<scalar> 
33
(
7.76666e-07
1.20303e-06
1.4928e-06
7.44682e-07
1.16416e-06
1.45139e-06
1.65628e-06
1.78174e-06
1.82399e-06
6.24125e-07
1.03703e-06
1.32411e-06
1.5296e-06
1.65577e-06
1.69851e-06
4.37016e-07
8.26864e-07
1.11203e-06
1.31903e-06
1.44788e-06
1.4928e-06
2.26575e-07
5.36835e-07
8.09967e-07
1.01805e-06
1.1526e-06
1.20304e-06
7.17102e-08
2.14319e-07
3.99862e-07
5.80672e-07
7.17886e-07
7.76763e-07
)
;
    }
    procBoundary1to9
    {
        type            processor;
        value           nonuniform List<scalar> 
30
(
1.78175e-06
1.65579e-06