/*--------------------------------*- C++ -*----------------------------------*\
| =========                 |                                                 |
| \\      /  F ield         | OpenFOAM: The Open Source CFD Toolbox           |
|  \\    /   O peration     | Version:  2212                                  |
|   \\  /    A nd           | Website:  www.openfoam.com                      |
|    \\/     M anipulation  |                                                 |
\*---------------------------------------------------------------------------*/
FoamFile
{
    version     2.0;
    format      ascii;
    arch        "LSB;label=32;scalar=64";
    class       volVectorField;
    location    "1";
    object      U;
}
// * * * * * * * * * * * * * * * * * * * * * * * * * * * * * * * * * * * * * //

dimensions      [0 1 -1 0 0 0 0];

internalField   nonuniform List<vector> 
690
(
(0.0826989 -0.00239096 0.00114463)
(0.0830025 -0.00235358 0.00173244)
(0.0832466 -0.00205754 0.00198161)
(0.102645 -0.000967642 0.00195545)
(0.102771 -0.00116539 0.00224643)
(0.102975 -0.00119132 0.00240111)
(0.1096 -0.000239871 0.00188683)
(0.109966 -0.000294485 0.0020336)
(0.110344 -0.000323954 0.00213238)
(0.0782775 -0.0017013 -0.000451434)
(0.0791535 -0.00181772 -0.00016045)
(0.0802499 -0.00163546 0.000123192)
(0.0811766 -0.00136413 0.0003609)
(0.0817885 -0.00109962 0.000561464)
(0.0820889 -0.000839725 0.000720173)
(0.0821379 -0.000572265 0.000825597)
(0.0819994 -0.000321156 0.000891226)
(0.0817106 -0.000107263 0.000935209)
(0.0813011 6.69049e-05 0.000962353)
(0.0808098 0.000203775 0.00097511)
(0.0802608 0.000324286 0.000977624)
(0.100984 -0.000518445 0.000720301)
(0.10131 -0.000705776 0.000919142)
(0.101659 -0.000759434 0.00105404)
(0.102127 -0.000724513 0.00114272)
(0.102613 -0.000640463 0.00120909)
(0.103048 -0.00052215 0.00125916)
(0.103413 -0.000377638 0.00129465)
(0.103706 -0.000224608 0.00130663)
(0.10394 -9.70459e-05 0.00128578)
(0.104123 2.05629e-05 0.00125128)
(0.104264 0.000130292 0.00121707)
(0.104371 0.000228312 0.00118283)
(0.109386 0.000135201 0.00105062)
(0.109769 3.35852e-05 0.00103683)
(0.110156 4.05499e-06 0.00105904)
(0.110623 1.07297e-05 0.00109062)
(0.111122 3.66719e-05 0.00112142)
(0.111609 7.74261e-05 0.00114711)
(0.112075 0.000129348 0.00116515)
(0.112515 0.000186143 0.00117317)
(0.112925 0.000241787 0.00116821)
(0.113306 0.000294354 0.00115305)
(0.113658 0.000342732 0.00113151)
(0.113989 0.000385854 0.0011058)
(0.0743902 -0.0017198 -0.00273726)
(0.0758965 -0.00130405 -0.0022276)
(0.0773447 -0.000931971 -0.00157955)
(0.0786038 -0.000704938 -0.00101202)
(0.0795006 -0.000539569 -0.000550851)
(0.0800749 -0.000386486 -0.000188713)
(0.0804052 -0.000235066 8.56365e-05)
(0.0805311 -8.73089e-05 0.000295361)
(0.0804766 4.75477e-05 0.00045861)
(0.0802835 0.000165224 0.000586381)
(0.0799842 0.000264162 0.000683635)
(0.0795949 0.000353253 0.000751589)
(0.0996438 0.00031079 -0.000285288)
(0.0997863 0.000384207 -0.00031359)
(0.100087 0.000412778 -0.000235144)
(0.100606 0.000382484 -0.000105171)
(0.101175 0.000344086 4.99302e-05)
(0.101698 0.000326091 0.000214354)
(0.102163 0.000326226 0.000370051)
(0.10257 0.00032951 0.000492807)
(0.102925 0.000339495 0.000586291)
(0.103229 0.000363958 0.000662697)
(0.103484 0.000396855 0.000723764)
(0.103698 0.000432576 0.000770311)
(0.108313 0.000995788 0.000171144)
(0.108779 0.00096075 8.98179e-05)
(0.109195 0.000950679 7.98198e-05)
(0.109706 0.000929037 0.000112196)
(0.110238 0.000893636 0.000169675)
(0.110748 0.000852898 0.000243766)
(0.111232 0.000814048 0.000325363)
(0.11169 0.000779131 0.000403974)
(0.112124 0.000751921 0.000473175)
(0.112532 0.00073308 0.000531946)
(0.112915 0.000720669 0.000580781)
(0.113278 0.000711758 0.000619726)
(0.11268 0.00108439 0.000357229)
(0.113181 0.00110698 0.000295655)
(0.113656 0.00112473 0.000270856)
(0.11418 0.00112277 0.000263473)
(0.114722 0.00110123 0.000265419)
(0.115253 0.00106646 0.000274757)
(0.115768 0.0010231 0.00028935)
(0.116266 0.000974653 0.000305751)
(0.116744 0.000925983 0.000321266)
(0.117203 0.000879638 0.000335543)
(0.117643 0.000836896 0.00034849)
(0.118066 0.000797829 0.000359663)
(0.114487 0.000909904 0.00014819)
(0.11509 0.000895958 0.000126863)
(0.115637 0.000898571 0.000113607)
(0.116211 0.000902583 0.000105775)
(0.116791 0.000898549 0.000100592)
(0.11736 0.000885224 9.68858e-05)
(0.117914 0.000863766 9.41459e-05)
(0.118453 0.000835689 9.19946e-05)
(0.118977 0.000803085 9.0297e-05)
(0.119481 0.000767766 8.89741e-05)
(0.119968 0.000730368 8.7787e-05)
(0.120437 0.00069324 8.68425e-05)
(0.115115 0.000492497 -0.000310669)
(0.115695 0.000490072 -0.000307263)
(0.116231 0.000492783 -0.000307518)
(0.116799 0.000490744 -0.000305529)
(0.117379 0.0004874 -0.000303377)
(0.117955 0.000482181 -0.000300546)
(0.118523 0.00047425 -0.00029635)
(0.11908 0.000464079 -0.000290974)
(0.119623 0.000451959 -0.000284521)
(0.12015 0.000438405 -0.000277254)
(0.120659 0.000423945 -0.00026944)
(0.12115 0.000409009 -0.00026128)
(0.114487 0.000147904 -0.000909967)
(0.11509 0.000126517 -0.000896004)
(0.115637 0.000113218 -0.000898605)
(0.116211 0.000105363 -0.00090262)
(0.116791 0.00010018 -0.000898609)
(0.11736 9.64995e-05 -0.000885316)
(0.117914 9.38072e-05 -0.000863896)
(0.118454 9.17228e-05 -0.000835854)
(0.118977 9.01139e-05 -0.000803286)
(0.119482 8.89053e-05 -0.000768018)
(0.119968 8.78455e-05 -0.000730648)
(0.120437 8.69355e-05 -0.000693466)
(0.112835 9.73786e-06 -0.00149556)
(0.11339 1.41056e-06 -0.0015616)
(0.113891 -2.1068e-06 -0.00160161)
(0.114424 -1.13435e-05 -0.0016097)
(0.114958 -2.77018e-05 -0.0015903)
(0.115469 -4.88266e-05 -0.00154962)
(0.115954 -7.18739e-05 -0.00149251)
(0.116415 -9.36229e-05 -0.00142444)
(0.116853 -0.000111821 -0.00134826)
(0.11727 -0.000126312 -0.00127054)
(0.117667 -0.000137841 -0.00119475)
(0.11805 -0.000146009 -0.00112371)
(0.1096 0.000239734 -0.00188669)
(0.109967 0.000294274 -0.00203347)
(0.110345 0.000323884 -0.00213204)
(0.110765 0.000307618 -0.00216237)
(0.111174 0.000253468 -0.00213964)
(0.111543 0.000175107 -0.0020783)
(0.111869 8.49844e-05 -0.00198945)
(0.112155 -6.17125e-06 -0.00188335)
(0.112413 -8.61151e-05 -0.00177188)
(0.112645 -0.000154963 -0.00166223)
(0.112864 -0.000212485 -0.00155447)
(0.102646 0.000967875 -0.00195459)
(0.102773 0.00116502 -0.00224667)
(0.102977 0.00119109 -0.00240108)
(0.103185 0.00109046 -0.00243084)
(0.103329 0.000919465 -0.00238032)
(0.103384 0.000711558 -0.00228192)
(0.10336 0.000495156 -0.00215005)
(0.103283 0.000296894 -0.00198464)
(0.103178 0.000126291 -0.00182585)
(0.103057 -1.92373e-05 -0.00167342)
(0.102932 -0.000140642 -0.00154078)
(0.0826965 0.0023909 -0.00114505)
(0.0829999 0.00235349 -0.00173297)
(0.083244 0.00205744 -0.00198232)
(0.0831258 0.00165714 -0.00199177)
(0.0826871 0.00123558 -0.00189276)
(0.0820229 0.000835215 -0.00174572)
(0.0812295 0.000478531 -0.00160784)
(0.0803768 0.000196994 -0.00147997)
(0.0794862 -2.90129e-05 -0.00136364)
(0.0785956 -0.000195659 -0.00125851)
(0.0777295 -0.00031193 -0.00116805)
(0.0713913 -0.000632534 -0.00341292)
(0.0732116 0.000232228 -0.00282906)
(0.0745847 0.000345657 -0.00216484)
(0.0754202 0.000214306 -0.00152443)
(0.075803 0.000132924 -0.000970443)
(0.075942 0.000119854 -0.000528455)
(0.0759226 0.000144866 -0.000190682)
(0.0757827 0.000190563 6.20106e-05)
(0.0755418 0.000236273 0.000251013)
(0.0752207 0.000278721 0.000393432)
(0.0748351 0.000320322 0.00050188)
(0.0743929 0.000358857 0.00058065)
(0.0979876 0.00169978 -0.000955192)
(0.0982366 0.00202467 -0.00101586)
(0.0985392 0.00201422 -0.00094303)
(0.0988941 0.00180625 -0.000794298)
(0.0991814 0.00156852 -0.000601788)
(0.0994075 0.00133953 -0.000405766)
(0.0996156 0.00113752 -0.000220948)
(0.0998114 0.000981047 -5.08111e-05)
(0.0999901 0.00086849 9.83917e-05)
(0.100151 0.000789332 0.0002242)
(0.100293 0.000732978 0.000328274)
(0.100418 0.000692128 0.000412146)
(0.107049 0.00208407 -0.0002376)
(0.107448 0.00227392 -0.00036674)
(0.107838 0.00230306 -0.000410456)
(0.108268 0.00219773 -0.0004064)
(0.108661 0.00203183 -0.000364645)
(0.108997 0.00184672 -0.000293741)
(0.109296 0.00166299 -0.000209629)
(0.109573 0.00149833 -0.000117269)
(0.109837 0.0013622 -2.62733e-05)
(0.110096 0.00125016 5.88751e-05)
(0.110351 0.00115851 0.000136038)
(0.110605 0.0010821 0.000203391)
(0.111195 0.00200163 0.000114529)
(0.111655 0.00206185 6.70962e-05)
(0.112104 0.00210825 2.26753e-05)
(0.112598 0.00209554 -1.47412e-05)
(0.113078 0.00202977 -4.21669e-05)
(0.113518 0.00192868 -5.80062e-05)
(0.113918 0.00180416 -6.30452e-05)
(0.114289 0.00167221 -5.82698e-05)
(0.114637 0.00154387 -4.67095e-05)
(0.114967 0.00142444 -2.98617e-05)
(0.115287 0.00131808 -1.04765e-05)
(0.115601 0.00122333 9.45526e-06)
(0.112835 0.00149539 1.01098e-05)
(0.11339 0.00156144 1.89206e-06)
(0.113891 0.00160145 -1.57685e-06)
(0.114424 0.00160952 -1.08102e-05)
(0.114958 0.00159008 -2.71878e-05)
(0.115468 0.00154933 -4.83446e-05)
(0.115954 0.00149216 -7.14367e-05)
(0.116415 0.00142406 -9.32517e-05)
(0.116853 0.00134788 -0.000111546)
(0.117269 0.00127022 -0.000126179)
(0.117666 0.00119468 -0.00013785)
(0.118048 0.00112376 -0.000146019)
(0.113259 0.000875049 -0.000441054)
(0.113786 0.000872985 -0.000405714)
(0.114276 0.000882563 -0.000385772)
(0.114805 0.000891304 -0.000377324)
(0.115351 0.00089464 -0.000375027)
(0.115891 0.000892735 -0.000376707)
(0.116418 0.000886158 -0.000381031)
(0.11693 0.000874286 -0.000385968)
(0.117425 0.000856561 -0.000390025)
(0.117899 0.000834545 -0.000393145)
(0.118352 0.000810265 -0.000395698)
(0.118786 0.000784827 -0.00039735)
(0.11268 0.000356897 -0.0010844)
(0.113182 0.000295269 -0.00110697)
(0.113656 0.00027042 -0.00112471)
(0.114181 0.000262994 -0.00112277)
(0.114722 0.000264928 -0.00110126)
(0.115254 0.000274295 -0.00106653)
(0.115769 0.000288957 -0.00102323)
(0.116266 0.000305461 -0.000974856)
(0.116745 0.000321117 -0.000926267)
(0.117203 0.000335573 -0.000880014)
(0.117643 0.00034873 -0.000837315)
(0.118066 0.000360024 -0.000798282)
(0.111195 0.0001142 -0.00200173)
(0.111656 6.66773e-05 -0.00206185)
(0.112105 2.21935e-05 -0.00210824)
(0.112598 -1.52673e-05 -0.00209559)
(0.113079 -4.27259e-05 -0.00202995)
(0.113519 -5.85789e-05 -0.00192897)
(0.113919 -6.35965e-05 -0.00180456)
(0.11429 -5.87578e-05 -0.0016727)
(0.114638 -4.70904e-05 -0.00154444)
(0.114969 -3.00657e-05 -0.00142507)
(0.115289 -1.0512e-05 -0.00131849)
(0.115602 9.47842e-06 -0.00122366)
(0.107771 0.000376294 -0.00263762)
(0.10838 0.000345899 -0.00294063)
(0.108863 0.000277357 -0.00305313)
(0.10929 0.000177102 -0.00299305)
(0.109604 7.20289e-05 -0.00283983)
(0.109801 -2.46334e-05 -0.0026357)
(0.10992 -0.000103372 -0.00241082)
(0.109996 -0.000161053 -0.00218881)
(0.110053 -0.000199823 -0.00198461)
(0.110108 -0.000224778 -0.00180448)
(0.110175 -0.000233744 -0.00164841)
(0.101549 0.00108232 -0.00300155)
(0.10197 0.00100617 -0.0035249)
(0.102209 0.000862478 -0.00360773)
(0.102176 0.000671161 -0.00342015)
(0.10188 0.000458156 -0.00314796)
(0.10142 0.000254274 -0.00281185)
(0.100901 7.88034e-05 -0.00245967)
(0.100386 -6.07658e-05 -0.00213853)
(0.0999006 -0.000168635 -0.00187221)
(0.0994645 -0.000249367 -0.00165749)
(0.0990865 -0.000307504 -0.00148291)
(0.086306 0.00241421 -0.00295218)
(0.0851819 0.00221216 -0.00383424)
(0.0837224 0.00174185 -0.00365899)
(0.0817765 0.0011759 -0.00317984)
(0.0796707 0.000650308 -0.00270397)
(0.0776521 0.000249606 -0.0022783)
(0.0758196 -3.25034e-05 -0.00190795)
(0.0741912 -0.000218264 -0.00160254)
(0.0727632 -0.000345848 -0.00136104)
(0.0715112 -0.000414389 -0.00117895)
(0.0704064 -0.000449333 -0.00104678)
(0.0704804 0.00271755 -0.00273543)
(0.070485 0.00306695 -0.00218438)
(0.0697827 0.00205717 -0.00156815)
(0.0687369 0.00119483 -0.00105922)
(0.067738 0.000758224 -0.000662016)
(0.0669686 0.000521482 -0.000357821)
(0.0663575 0.00040273 -0.000126102)
(0.0658165 0.000357093 4.59779e-05)
(0.0653013 0.000348097 0.000174901)
(0.0647962 0.00035611 0.000271578)
(0.0642918 0.000368445 0.000341828)
(0.0637816 0.000384154 0.000392961)
(0.0944075 0.00364382 -0.000746398)
(0.0952911 0.0040618 -0.000780223)
(0.0955809 0.00361208 -0.0008121)
(0.0953526 0.00295482 -0.000789549)
(0.0948949 0.0023614 -0.000707808)
(0.0944347 0.00190381 -0.000580546)
(0.0940428 0.00156355 -0.000437495)
(0.093728 0.00131677 -0.000297975)
(0.0934794 0.00113893 -0.000171444)
(0.0932841 0.00101041 -6.06708e-05)
(0.0931272 0.00091371 3.22139e-05)
(0.0929951 0.000842943 0.000109503)
(0.104387 0.00318565 -1.58323e-05)
(0.104784 0.00351897 -7.60934e-05)
(0.10511 0.00346917 -0.000204927)
(0.105291 0.00320105 -0.000327552)
(0.105286 0.00286115 -0.000399268)
(0.105168 0.00251912 -0.00041861)
(0.105008 0.00220592 -0.000395595)
(0.104852 0.00193967 -0.000351441)
(0.104729 0.00172577 -0.000295578)
(0.104648 0.0015531 -0.000235831)
(0.104608 0.0014176 -0.000173857)
(0.104607 0.00130661 -0.000116588)
(0.107771 0.00263761 0.000376652)
(0.10838 0.00294076 0.000346404)
(0.108862 0.00305316 0.000277947)
(0.10929 0.00299286 0.000177734)
(0.109603 0.00283937 7.26924e-05)
(0.1098 0.00263501 -2.39282e-05)
(0.109919 0.00240993 -0.000102628)
(0.109995 0.00218771 -0.000160296)
(0.110051 0.00198335 -0.000199077)
(0.110106 0.00180296 -0.000224164)
(0.110173 0.00164795 -0.000233083)
(0.110256 0.00151417 -0.000237011)
(0.1096 0.00188656 0.000240164)
(0.109967 0.00203329 0.00029487)
(0.110345 0.00213182 0.000324543)
(0.110765 0.00216208 0.000308276)
(0.111175 0.00213921 0.000254098)
(0.111544 0.00207771 0.000175716)
(0.111869 0.00198869 8.55927e-05)
(0.112155 0.00188242 -5.55807e-06)
(0.112412 0.00177085 -8.55123e-05)
(0.112645 0.0016612 -0.000154412)
(0.112863 0.00155431 -0.000212137)
(0.113073 0.00145854 -0.000259602)
(0.109386 0.00105021 -0.000135271)
(0.10977 0.00103637 -3.36391e-05)
(0.110157 0.00105848 -4.02677e-06)
(0.110625 0.00108996 -1.06254e-05)
(0.111123 0.00112081 -3.65061e-05)
(0.111611 0.00114662 -7.72213e-05)
(0.112076 0.00116476 -0.000129158)
(0.112516 0.00117285 -0.000186036)
(0.112926 0.00116794 -0.000241813)
(0.113306 0.00115284 -0.000294558)
(0.113659 0.00113142 -0.000343134)
(0.113988 0.00110575 -0.000386418)
(0.108314 0.000170875 -0.000996047)
(0.10878 8.9438e-05 -0.000960985)
(0.109195 7.9315e-05 -0.000950878)
(0.109706 0.000111561 -0.000929204)
(0.110239 0.000168956 -0.000893755)
(0.110749 0.000243019 -0.000852978)
(0.111232 0.000324638 -0.00081411)
(0.111691 0.000403297 -0.00077921)
(0.112125 0.000472575 -0.000752054)
(0.112533 0.000531488 -0.000733332)
(0.112916 0.000580555 -0.000721018)
(0.113278 0.000619696 -0.000712231)
(0.107049 -0.000237835 -0.00208423)
(0.107449 -0.000367089 -0.00227397)
(0.107839 -0.000410871 -0.00230318)
(0.108268 -0.000406919 -0.00219797)
(0.108662 -0.0003653 -0.00203216)
(0.108998 -0.000294533 -0.00184711)
(0.109297 -0.000210492 -0.00166343)
(0.109574 -0.000118171 -0.00149882)
(0.109838 -2.71531e-05 -0.00136276)
(0.110097 5.81401e-05 -0.0012509)
(0.110352 0.000135457 -0.0011591)
(0.110607 0.000202976 -0.00108274)
(0.104387 -1.61035e-05 -0.00318567)
(0.104785 -7.64828e-05 -0.00351891)
(0.105111 -0.00020537 -0.00346934)
(0.105292 -0.0003281 -0.00320145)
(0.105287 -0.000399968 -0.00286173)
(0.105169 -0.000419467 -0.00251982)
(0.105009 -0.000396604 -0.00220676)
(0.104853 -0.000352491 -0.0019407)
(0.10473 -0.000296729 -0.001727)
(0.104649 -0.000236795 -0.00155506)
(0.104609 -0.00017497 -0.00141857)
(0.0963818 0.000850375 -0.0041713)
(0.0977253 0.00064774 -0.00479928)
(0.0979826 0.000301769 -0.0043615)
(0.0974133 2.31006e-06 -0.00363723)
(0.0964431 -0.000198386 -0.00298146)
(0.0953941 -0.000316207 -0.00241195)
(0.0944077 -0.000374241 -0.00196086)
(0.0935339 -0.000385397 -0.001631)
(0.0927877 -0.000373512 -0.00139699)
(0.0921652 -0.000353626 -0.00122697)
(0.0916485 -0.000326822 -0.00109741)
(0.0850492 0.0019632 -0.0045615)
(0.0812084 0.00156406 -0.00509814)
(0.0770454 0.000773529 -0.00423938)
(0.0728218 0.000184623 -0.00326052)
(0.0692787 -0.000119928 -0.00243243)
(0.0665026 -0.000279067 -0.00180318)
(0.0643617 -0.000348464 -0.00137561)
(0.0627021 -0.000371931 -0.00108285)
(0.0613816 -0.00037245 -0.000882808)
(0.0602878 -0.000363187 -0.000760598)
(0.0593437 -0.000348328 -0.000688898)
(0.065816 0.00367978 -0.000912656)
(0.0602636 0.00390086 -0.000584412)
(0.0562729 0.00214237 -0.000575902)
(0.053192 0.000803074 -0.000571755)
(0.0514155 0.000327298 -0.000451203)
(0.050414 0.000187951 -0.000297451)
(0.0496796 0.00012776 -0.000165482)
(0.0490261 0.00011089 -6.51224e-05)
(0.0484244 0.00011557 7.29713e-06)
(0.0478555 0.000128709 5.90877e-05)
(0.0473014 0.000144675 9.30996e-05)
(0.0467736 0.000162118 0.000113984)
(0.0874601 0.00591894 0.000318375)
(0.0879947 0.00565915 0.000138829)
(0.0868467 0.00411768 -0.000272658)
(0.0848182 0.00274701 -0.00051741)
(0.0828965 0.001943 -0.000578799)
(0.0813525 0.00143697 -0.00053701)
(0.0801424 0.0010919 -0.000466383)
(0.0791767 0.000872327 -0.00037601)
(0.0783742 0.000738592 -0.000286042)
(0.0776857 0.000642573 -0.00021548)
(0.0770768 0.000569032 -0.000158208)
(0.0765195 0.00050602 -0.000115436)
(0.0963821 0.00417138 0.000850581)
(0.0977255 0.0047995 0.000647976)
(0.0979824 0.0043617 0.000302135)
(0.0974127 0.00363705 2.87558e-06)
(0.0964427 0.00298083 -0.000197613)
(0.0953939 0.00241125 -0.000315225)
(0.0944078 0.0019601 -0.000373055)
(0.0935344 0.0016301 -0.000383996)
(0.0927887 0.00139588 -0.000371974)
(0.0921667 0.00122589 -0.000351972)
(0.0916501 0.00109722 -0.00032521)
(0.0912184 0.000997288 -0.000296672)
(0.101549 0.00300141 0.00108254)
(0.101971 0.00352477 0.00100652)
(0.102209 0.00360759 0.000862951)
(0.102176 0.00341994 0.000671717)
(0.10188 0.00314745 0.000458835)
(0.10142 0.00281108 0.000255106)
(0.100901 0.00245878 7.97752e-05)
(0.100386 0.00213749 -5.96429e-05)
(0.0999011 0.00187096 -0.000167364)
(0.0994651 0.00165673 -0.000248098)
(0.0990866 0.0014835 -0.000306402)
(0.0987658 0.00134228 -0.000347266)
(0.102646 0.0019541 0.00096828)
(0.102774 0.00224594 0.00116572)
(0.102978 0.00240071 0.00119172)
(0.103187 0.00243065 0.00109101)
(0.103331 0.00238006 0.000920002)
(0.103385 0.00228149 0.000712157)
(0.103361 0.00214933 0.000495892)
(0.103285 0.00198366 0.000297764)
(0.103179 0.00182471 0.000127245)
(0.103058 0.00167282 -1.8453e-05)
(0.102933 0.00154118 -0.000140241)
(0.102812 0.00142638 -0.000240829)
(0.100985 0.00071971 0.000518333)
(0.101311 0.000918461 0.000705596)
(0.10166 0.00105325 0.000759312)
(0.102128 0.00114185 0.000724457)
(0.102616 0.00120835 0.000640426)
(0.10305 0.00125855 0.000522193)
(0.103415 0.00129412 0.000377766)
(0.103709 0.00130609 0.000224683)
(0.103942 0.00128517 9.71463e-05)
(0.104126 0.00125066 -2.0552e-05)
(0.104266 0.00121659 -0.000130457)
(0.104372 0.00118216 -0.000228538)
(0.099644 -0.000285428 -0.000311134)
(0.0997866 -0.0003139 -0.00038462)
(0.100087 -0.000235654 -0.000413207)
(0.100607 -0.000105894 -0.000382896)
(0.101176 4.9035e-05 -0.000344447)
(0.101699 0.000213327 -0.000326404)
(0.102164 0.000368948 -0.000326551)
(0.102572 0.000491613 -0.00032988)
(0.102927 0.000585027 -0.000339949)
(0.10323 0.000661431 -0.000364586)
(0.103486 0.000722602 -0.000397627)
(0.103699 0.000769193 -0.000433401)
(0.0979876 -0.000955325 -0.00170012)
(0.0982366 -0.00101611 -0.00202515)
(0.0985392 -0.000943392 -0.00201479)
(0.0988941 -0.000794841 -0.00180682)
(0.0991814 -0.000602552 -0.00156907)
(0.0994076 -0.000406748 -0.0013401)
(0.0996158 -0.000222149 -0.0011381)
(0.0998116 -5.22241e-05 -0.0009817)
(0.0999903 9.68472e-05 -0.000869299)
(0.100151 0.000222613 -0.000790388)
(0.100294 0.000326765 -0.000734296)
(0.100418 0.00041064 -0.000693551)
(0.0944073 -0.000746538 -0.00364412)
(0.0952905 -0.000780468 -0.00406236)
(0.0955802 -0.000812462 -0.0036128)
(0.0953518 -0.000790043 -0.00295564)
(0.094894 -0.000708536 -0.00236211)
(0.0944338 -0.000581541 -0.00190445)
(0.0940419 -0.000438695 -0.00156427)
(0.093727 -0.000299367 -0.00131763)
(0.0934783 -0.000172989 -0.00114009)
(0.0932828 -6.23275e-05 -0.00101193)
(0.093126 3.07377e-05 -0.000916255)
(0.0874596 0.0003182 -0.00591901)
(0.0879939 0.000138618 -0.00565939)
(0.0868451 -0.000273049 -0.00411788)
(0.0848164 -0.000518052 -0.00274704)
(0.0828948 -0.000579603 -0.00194329)
(0.0813505 -0.000538016 -0.00143741)
(0.08014 -0.0004676 -0.00109248)
(0.079174 -0.000377392 -0.00087313)
(0.0783711 -0.000287654 -0.000739373)
(0.0776816 -0.000217202 -0.00064449)
(0.0770715 -0.000160505 -0.000569038)
(0.0741849 0.00069896 -0.00442993)
(0.0665669 0.000518624 -0.00452752)
(0.0601743 -3.91855e-05 -0.00321723)
(0.0550935 -0.000325461 -0.00188373)
(0.051753 -0.000350564 -0.000967822)
(0.0497775 -0.000300617 -0.000619524)
(0.0483976 -0.000247116 -0.000496367)
(0.0472895 -0.000202317 -0.000434333)
(0.0463776 -0.00016877 -0.000377941)
(0.0456014 -0.000151023 -0.000324491)
(0.0449114 -0.000141694 -0.000278173)
(0.0572609 0.00445392 0.000359514)
(0.0442023 0.00157334 -0.000232672)
(0.0384765 0.000359662 -0.000389569)
(0.0350843 0.000125283 -0.000354576)
(0.0331128 0.00010968 -0.000266314)
(0.032024 9.27383e-05 -0.000183704)
(0.0312217 7.01633e-05 -0.000121228)
(0.0305467 5.78529e-05 -7.72548e-05)
(0.0299734 5.21136e-05 -4.82936e-05)
(0.0294702 5.02837e-05 -3.26791e-05)
(0.0290092 5.10302e-05 -2.30306e-05)
(0.0285865 5.31036e-05 -1.82311e-05)
(0.0741852 0.00442983 0.000699103)
(0.0665674 0.00452762 0.000518886)
(0.0601747 0.00321733 -3.88871e-05)
(0.0550946 0.00188374 -0.000324996)
(0.0517546 0.000967793 -0.000349981)
(0.0497795 0.000619507 -0.000299891)
(0.0484 0.000496329 -0.000246204)
(0.0472924 0.000434237 -0.000201207)
(0.0463806 0.000377903 -0.0001675)
(0.045606 0.000324392 -0.000149502)
(0.0449142 0.000278081 -0.000140238)
(0.0442918 0.000238826 -0.0001343)
(0.0850498 0.00456126 0.00196329)
(0.0812097 0.00509763 0.00156417)
(0.0770476 0.0042387 0.000773732)
(0.0728251 0.00325983 0.000184986)
(0.0692825 0.00243194 -0.000119396)
(0.0665071 0.00180284 -0.000278307)
(0.0643667 0.00137535 -0.000347422)
(0.0627077 0.00108263 -0.000370584)
(0.0613879 0.00088242 -0.000370854)
(0.0602952 0.000760181 -0.000361321)
(0.0593514 0.000687935 -0.000346695)
(0.05851 0.000643892 -0.000327683)
(0.0863066 0.00295183 0.00241403)
(0.0851828 0.00383351 0.00221192)
(0.0837237 0.00365805 0.00174168)
(0.0817783 0.00317892 0.00117601)
(0.0796731 0.00270325 0.000650712)
(0.0776551 0.0022777 0.000250296)
(0.0758233 0.00190733 -3.1522e-05)
(0.0741958 0.00160176 -0.000216959)
(0.0727691 0.00135995 -0.000344128)
(0.0715186 0.00117752 -0.000412321)
(0.0704154 0.00104486 -0.000447512)
(0.0694318 0.000953352 -0.000466345)
(0.0826968 0.00114493 0.00239061)
(0.0829997 0.00173272 0.00235322)
(0.0832439 0.00198191 0.00205728)
(0.0831258 0.00199119 0.00165716)
(0.0826875 0.00189206 0.00123583)
(0.0820239 0.00174491 0.000835844)
(0.0812314 0.00160681 0.000479449)
(0.0803797 0.00147854 0.000198201)
(0.0794908 0.00136165 -2.75238e-05)
(0.0786019 0.00125588 -0.000193902)
(0.0777379 0.00116487 -0.000310219)
(0.0769075 0.00109183 -0.000400392)
(0.0782768 -0.000450959 0.00170128)
(0.0791525 -0.000159949 0.00181769)
(0.080249 0.00012351 0.00163538)
(0.0811755 0.000360899 0.00136412)
(0.0817877 0.000560901 0.0010996)
(0.0820887 0.00071887 0.000839854)
(0.0821387 0.00082363 0.000572731)
(0.0820014 0.000888757 0.000321849)
(0.0817141 0.000932441 0.000108137)
(0.0813063 0.000959415 -6.59349e-05)
(0.080817 0.000972066 -0.000202699)
(0.0802701 0.00097461 -0.000323698)
(0.0743901 -0.00273697 0.00171982)
(0.0758965 -0.00222731 0.0013041)
(0.0773449 -0.00157942 0.000932013)
(0.0786041 -0.00101219 0.000704896)
(0.0795012 -0.000551416 0.000539398)
(0.0800758 -0.000189764 0.000386227)
(0.0804066 8.40659e-05 0.000234791)
(0.0805332 0.0002933 8.7048e-05)
(0.0804798 0.00045604 -4.77569e-05)
(0.0802877 0.000583399 -0.000165436)
(0.0799896 0.00068028 -0.000264452)
(0.0796017 0.000748274 -0.000353802)
(0.0713911 -0.00341292 0.000632401)
(0.0732115 -0.00282914 -0.000232319)
(0.0745847 -0.00216498 -0.000345774)
(0.0754205 -0.0015248 -0.000214475)
(0.0758035 -0.000971065 -0.000133187)
(0.0759427 -0.000529401 -0.000120224)
(0.0759237 -0.000192006 -0.000145333)
(0.0757841 6.02945e-05 -0.000191115)
(0.0755436 0.000248925 -0.00023696)
(0.0752229 0.000391046 -0.000279545)
(0.0748378 0.00049929 -0.000321746)
(0.074396 0.000578148 -0.00036073)
(0.0704801 -0.00273555 -0.00271782)
(0.0704848 -0.00218464 -0.00306714)
(0.0697825 -0.00156849 -0.0020575)
(0.0687368 -0.00105968 -0.00119534)
(0.0677381 -0.000662635 -0.000758739)
(0.0669686 -0.000358678 -0.000522014)
(0.0663576 -0.00012717 -0.000403264)
(0.0658166 4.45935e-05 -0.000357674)
(0.0653015 0.000173257 -0.000348876)
(0.064796 0.000269689 -0.000356877)
(0.0642914 0.000340116 -0.000370572)
(0.0658158 -0.000912743 -0.00367997)
(0.0602632 -0.000584699 -0.00390097)
(0.0562727 -0.000576266 -0.00214269)
(0.0531912 -0.00057217 -0.000803678)
(0.0514144 -0.000451736 -0.000327866)
(0.0504128 -0.00029814 -0.000188474)
(0.0496781 -0.000166362 -0.000128284)
(0.0490245 -6.60418e-05 -0.000111443)
(0.048423 5.82375e-06 -0.000116291)
(0.0478527 5.75847e-05 -0.000129572)
(0.0473005 9.14589e-05 -0.000145801)
(0.0572606 0.000359393 -0.00445392)
(0.0442019 -0.000232864 -0.00157341)
(0.0384762 -0.000389817 -0.000359714)
(0.0350838 -0.000354908 -0.000125375)
(0.033112 -0.000266733 -0.000109841)
(0.0320228 -0.000184232 -9.29182e-05)
(0.0312203 -0.000121912 -7.03759e-05)
(0.030545 -7.79516e-05 -5.80499e-05)
(0.0299717 -4.89628e-05 -5.23693e-05)
(0.0294674 -3.37241e-05 -5.06391e-05)
(0.0290076 -2.41626e-05 -5.13829e-05)
)
;

boundaryField
{
    inlet
    {
        type            fixedValue;
        value           nonuniform List<vector> 0();
    }
    ami1
    {
        type            cyclicAMI;
        value           nonuniform List<vector> 0();
    }
    walls
    {
        type            noSlip;
    }
    ami2
    {
        type            cyclicAMI;
        value           nonuniform List<vector> 
61
(
(0.0825599 -0.0021883 0.000759485)
(0.102592 -0.000829082 0.00177007)
(0.109378 -0.000195817 0.00181002)
(0.0777451 -0.00135195 -0.000388883)
(0.100689 -0.000394679 0.000604255)
(0.109107 0.000200484 0.00106465)
(0.0732647 -0.0014011 -0.00228795)
(0.0995207 0.000305047 -0.000265582)
(0.107901 0.00105363 0.00022949)
(0.112344 0.00107331 0.00039015)
(0.114069 0.000928573 0.000163112)
(0.114754 0.000489857 -0.000315294)
(0.114069 0.000162854 -0.00092864)
(0.112437 6.40262e-06 -0.00146722)
(0.109379 0.000195733 -0.0018099)
(0.102593 0.000829274 -0.00176932)
(0.0825584 0.00218819 -0.000759817)
(0.070056 -0.000897009 -0.00316205)
(0.0977909 0.00150175 -0.000860318)
(0.106741 0.00200677 -0.000138208)
(0.110883 0.00198685 0.00014052)
(0.112437 0.00146707 6.71041e-06)
(0.112902 0.000874682 -0.000470088)
(0.112344 0.000389854 -0.00107335)
(0.110883 0.000140236 -0.00198698)
(0.107289 0.000380099 -0.0025045)
(0.101338 0.00101934 -0.00260992)
(0.0870286 0.00211688 -0.00222519)
(0.0707598 0.00152612 -0.00273669)
(0.0937902 0.0030224 -0.000700871)
(0.104226 0.00293195 6.70036e-06)
(0.107289 0.00250442 0.000380382)
(0.109379 0.00180976 0.000196068)
(0.109108 0.00106432 -0.000200541)
(0.107901 0.00022928 -0.00105387)
(0.106741 -0.000138405 -0.00200695)
(0.104226 6.4833e-06 -0.00293206)
(0.0953835 0.000805223 -0.00344796)
(0.087667 0.00177486 -0.00339256)
(0.0726682 0.00297809 -0.001116)
(0.0868847 0.00459034 0.000226024)
(0.0953838 0.00344795 0.000805403)
(0.101338 0.00260979 0.00101952)
(0.102593 0.00176903 0.000829533)
(0.10069 0.000603852 0.000394575)
(0.0995209 -0.000265662 -0.000305347)
(0.0977909 -0.00086041 -0.00150204)
(0.09379 -0.000701002 -0.00302264)
(0.0868843 0.000225855 -0.00459042)
(0.08158 0.000719788 -0.00364779)
(0.0712973 0.00386738 0.000148134)
(0.0815803 0.00364772 0.000719939)
(0.0876675 0.00339238 0.00177494)
(0.087029 0.002225 0.00211678)
(0.0825586 0.000759774 0.00218798)
(0.0777446 -0.000388574 0.00135187)
(0.0732646 -0.00228773 0.00140106)
(0.0700558 -0.00316203 0.000896897)
(0.0707595 -0.00273679 -0.00152629)
(0.072668 -0.00111611 -0.00297824)
(0.0712971 0.000147993 -0.00386744)
)
;
    }
    outlet
    {
        type            zeroGradient;
    }
    procBoundary1to0
    {
        type            processor;
        value           nonuniform List<vector> 
138
(
(0.083129 -0.00165709 0.00199104)
(0.083129 -0.00165709 0.00199104)
(0.0826903 -0.00123536 0.00189251)
(0.0820259 -0.000834826 0.00174601)
(0.0812323 -0.000478127 0.00160835)
(0.0803792 -0.000196676 0.00148031)
(0.0794887 2.92139e-05 0.00136348)
(0.0785981 0.000195658 0.00125769)
(0.0777325 0.000311937 0.00116663)
(0.0769005 0.000401831 0.00109357)
(0.103183 -0.00109043 0.00243112)
(0.103183 -0.00109043 0.00243112)
(0.103327 -0.000919646 0.00238)
(0.103381 -0.000711823 0.0022812)
(0.103357 -0.000495509 0.002149)
(0.103282 -0.000297321 0.00198343)
(0.103177 -0.000126738 0.00182474)
(0.103056 1.89632e-05 0.00167304)
(0.102931 0.000140652 0.00154145)
(0.102811 0.000241066 0.00142679)
(0.112834 -9.73149e-06 0.00149567)
(0.11339 -1.4407e-06 0.00156171)
(0.110763 -0.00030764 0.0021627)
(0.113891 2.03827e-06 0.00160172)
(0.110763 -0.00030764 0.0021627)
(0.111173 -0.000253644 0.0021396)
(0.111542 -0.000175451 0.00207795)
(0.111867 -8.55134e-05 0.00198889)
(0.112154 5.4679e-06 0.00188268)
(0.112411 8.52587e-05 0.0017712)
(0.112644 0.000153982 0.00166163)
(0.112863 0.000211523 0.00155478)
(0.113074 0.000258782 0.00145894)
(0.113258 0.000441169 0.000875402)
(0.113785 0.000405894 0.000873414)
(0.114276 0.000385982 0.000883042)
(0.114805 0.000377528 0.000891795)
(0.115351 0.000375187 0.00089507)
(0.11589 0.000376783 0.000893064)
(0.116417 0.000380982 0.00088638)
(0.11693 0.000385767 0.000874406)
(0.117424 0.000389654 0.000856581)
(0.117899 0.000392591 0.000834461)
(0.118352 0.000394973 0.000810073)
(0.118786 0.000396515 0.000784599)
(0.113258 0.000441169 0.000875402)
(0.113785 0.000405894 0.000873414)
(0.114276 0.000385982 0.000883042)
(0.114805 0.000377528 0.000891795)
(0.115351 0.000375187 0.00089507)
(0.11589 0.000376783 0.000893064)
(0.116417 0.000380982 0.00088638)
(0.11693 0.000385767 0.000874406)
(0.117424 0.000389654 0.000856581)
(0.117899 0.000392591 0.000834461)
(0.118352 0.000394973 0.000810073)
(0.118786 0.000396515 0.000784599)