/*--------------------------------*- C++ -*----------------------------------*\
| =========                 |                                                 |
| \\      /  F ield         | OpenFOAM: The Open Source CFD Toolbox           |
|  \\    /   O peration     | Version:  2212                                  |
|   \\  /    A nd           | Website:  www.openfoam.com                      |
|    \\/     M anipulation  |                                                 |
\*---------------------------------------------------------------------------*/
FoamFile
{
    version     2.0;
    format      ascii;
    arch        "LSB;label=32;scalar=64";
    class       surfaceVectorField;
    location    "1";
    object      Uf;
}
// * * * * * * * * * * * * * * * * * * * * * * * * * * * * * * * * * * * * * //

dimensions      [0 1 -1 0 0 0 0];

internalField   nonuniform List<vector> 
1805
(
(0.0828726 -0.00237227 0.00143853)
(0.0921195 -0.00172769 0.00150976)
(0.0805128 -0.00205738 0.000360813)
(0.0831946 -0.00220556 0.00185702)
(0.0923395 -0.00178001 0.0019998)
(0.0810995 -0.00209438 0.000800667)
(0.0925643 -0.00164453 0.00218747)
(0.081765 -0.00186292 0.00107287)
(0.10267 -0.00106651 0.00210094)
(0.105979 -0.000616521 0.00192656)
(0.101822 -0.000796968 0.00137963)
(0.102863 -0.00117835 0.00232377)
(0.106221 -0.000747027 0.00214583)
(0.102047 -0.000986389 0.00162272)
(0.106508 -0.000770386 0.0022816)
(0.102323 -0.00101051 0.00175669)
(0.10976 -0.000267178 0.00196021)
(0.109493 -7.52109e-05 0.00148642)
(0.110135 -0.000309219 0.00208299)
(0.109868 -0.000149432 0.00155092)
(0.110251 -0.000172815 0.00160749)
(0.0786727 -0.00175951 -0.000305942)
(0.0890295 -0.00110489 0.000159953)
(0.0763122 -0.00172383 -0.00159957)
(0.0797626 -0.00172659 -1.86293e-05)
(0.0896447 -0.00121033 0.000476694)
(0.0775069 -0.00157245 -0.00119732)
(0.0807528 -0.0014998 0.000242046)
(0.0903875 -0.00116368 0.000652683)
(0.0787812 -0.00125909 -0.00074946)
(0.0814926 -0.00123187 0.000461182)
(0.0910967 -0.00102512 0.00078739)
(0.0798759 -0.00101095 -0.000344555)
(0.0819366 -0.00096967 0.000640819)
(0.0916493 -0.000848962 0.000919891)
(0.0806318 -0.000804477 -7.72563e-06)
(0.0821149 -0.000705995 0.000772885)
(0.0920132 -0.000664665 0.00101383)
(0.0810706 -0.000602248 0.000255919)
(0.0820695 -0.00044671 0.000858412)
(0.0922118 -0.000465104 0.00107107)
(0.0812619 -0.000396044 0.000448222)
(0.081852 -0.000214209 0.000913217)
(0.0922778 -0.000267486 0.00110031)
(0.0812571 -0.000196566 0.000586348)
(0.0815034 -2.01791e-05 0.000948781)
(0.0922365 -9.86094e-05 0.00110715)
(0.0810868 -2.31667e-05 0.000690933)
(0.0810553 0.00013534 0.000968732)
(0.0921078 4.58622e-05 0.00110057)
(0.0807866 0.000119783 0.000770466)
(0.0805356 0.00026403 0.000976367)
(0.0919156 0.000167107 0.00108677)
(0.0803924 0.00023531 0.000827176)
(0.0916772 0.000274407 0.00106789)
(0.0799242 0.000338952 0.000863335)
(0.101049 -0.00061211 0.000819722)
(0.105019 -0.000232739 0.000835003)
(0.100308 -0.00010862 0.000218081)
(0.101436 -0.000732605 0.000986589)
(0.105372 -0.00039193 0.000911442)
(0.100541 -0.000172153 0.000306886)
(0.101904 -0.000741974 0.00109838)
(0.10574 -0.000421298 0.001012)
(0.100866 -0.000173946 0.000407217)
(0.10238 -0.000682488 0.00117591)
(0.106207 -0.000389597 0.00108937)
(0.10136 -0.000166203 0.000513379)
(0.102831 -0.000581306 0.00123412)
(0.106699 -0.000325868 0.00115047)
(0.101888 -0.000144623 0.000624916)
(0.103229 -0.000449894 0.0012769)
(0.107159 -0.000238452 0.00119872)
(0.102367 -9.63248e-05 0.0007334)
(0.10356 -0.000301123 0.00130064)
(0.107573 -0.00013284 0.00123451)
(0.102782 -2.46047e-05 0.000829502)
(0.103824 -0.000160827 0.00129621)
(0.107936 -2.17612e-05 0.00125123)
(0.103133 5.2329e-05 0.000897688)
(0.104032 -3.82415e-05 0.00126853)
(0.108255 7.47048e-05 0.00124337)
(0.103428 0.000120379 0.000934622)
(0.104193 7.54274e-05 0.00123418)
(0.108533 0.000163822 0.00122244)
(0.103672 0.000191257 0.00095591)
(0.104317 0.000179302 0.00119995)
(0.108776 0.000246213 0.00119762)
(0.103871 0.00026242 0.000969644)
(0.10899 0.000319486 0.00117)
(0.104031 0.000328993 0.000976162)
(0.109543 8.43933e-05 0.00104373)
(0.108846 0.000543196 0.00062302)
(0.109936 1.88201e-05 0.00104794)
(0.109271 0.000481101 0.00057162)
(0.110393 7.39235e-06 0.00107483)
(0.109672 0.000473243 0.000570472)
(0.110878 2.37008e-05 0.00110602)
(0.110161 0.000470052 0.000599813)
(0.111366 5.7049e-05 0.00113426)
(0.110677 0.000466145 0.00064342)
(0.111841 0.000103387 0.00115613)
(0.111176 0.000466639 0.000693017)
(0.112295 0.000157745 0.00116916)
(0.11165 0.00047306 0.000742939)
(0.112721 0.000213965 0.00117069)
(0.1121 0.000482761 0.000787053)
(0.113116 0.000268071 0.00116063)
(0.112522 0.000496256 0.000819692)
(0.113482 0.000318543 0.00114228)
(0.112916 0.000512983 0.000841689)
(0.113823 0.000364293 0.00111865)
(0.113284 0.000530882 0.000855502)
(0.113631 0.000547776 0.000862365)
(0.0749567 -0.00151192 -0.00248243)
(0.0863176 -0.000689923 -0.00149078)
(0.0728383 -0.00123276 -0.00305406)
(0.0766527 -0.00111801 -0.00190357)
(0.0871797 -0.000366203 -0.00114825)
(0.0745071 -0.000463632 -0.00255858)
(0.0780417 -0.000818455 -0.00129578)
(0.0880859 -0.000179336 -0.000797902)
(0.0759164 -0.000196452 -0.00191473)
(0.0790645 -0.000622254 -0.000781437)
(0.0889956 -0.000104575 -0.000475401)
(0.0769563 -0.000176289 -0.00130019)
(0.0797806 -0.000463028 -0.000369782)
(0.0897374 -5.92445e-05 -0.000188495)
(0.0775871 -0.000156043 -0.000783416)
(0.0802418 -0.000310776 -5.15384e-05)
(0.0902876 -8.0355e-06 5.39561e-05)
(0.0779361 -9.78755e-05 -0.000376076)
(0.0804673 -0.000161188 0.000190499)
(0.0906815 6.85034e-05 0.000267986)
(0.0780855 -1.58752e-05 -6.71653e-05)
(0.0805011 -1.98806e-05 0.000376986)
(0.0909403 0.000138652 0.000424934)
(0.0780738 7.45834e-05 0.000166742)
(0.0803798 0.000106386 0.000522495)
(0.0910793 0.000206383 0.000545063)
(0.0779229 0.000159968 0.00034477)
(0.0801342 0.000214693 0.000635008)
(0.0911206 0.000272365 0.000639)
(0.0776636 0.000237479 0.000480657)
(0.0797899 0.000308708 0.000717612)
(0.0910833 0.00033329 0.000710647)
(0.0773195 0.000306067 0.000583999)
(0.0909789 0.000391602 0.000761536)
(0.0769029 0.000368472 0.000657778)
(0.0995872 0.000347499 -0.000299439)
(0.103801 0.000604417 -0.000112648)
(0.0987937 0.000997816 -0.000616712)
(0.0998692 0.000398493 -0.000274367)
(0.104098 0.000605923 -0.000192801)
(0.0989909 0.0012463 -0.000683677)
(0.100363 0.000397631 -0.000170157)
(0.104454 0.0006235 -0.000146761)
(0.0992924 0.0012592 -0.0006102)
(0.100904 0.000363285 -2.76202e-05)
(0.104969 0.000609051 -4.80587e-05)
(0.0997273 0.00112952 -0.000466671)
(0.101436 0.000335088 0.000132142)
(0.105521 0.000581404 7.2597e-05)
(0.100152 0.000985179 -0.000290634)
(0.101928 0.000326158 0.000292202)
(0.106037 0.00056086 0.000204799)
(0.100522 0.000857543 -0.000109348)
(0.102368 0.000327868 0.000431429)
(0.106511 0.00055099 0.000336498)
(0.100855 0.000751119 6.26355e-05)
(0.102749 0.000334503 0.000539549)
(0.106943 0.000543025 0.000447467)
(0.101154 0.000671242 0.000210269)
(0.103077 0.000351726 0.000624494)
(0.107336 0.000541055 0.000537113)
(0.101419 0.000617641 0.000332682)
(0.103356 0.000380407 0.00069323)
(0.107689 0.000549613 0.000611511)
(0.101649 0.000588014 0.000434878)
(0.103591 0.000414716 0.000747038)
(0.108006 0.000564579 0.000671748)
(0.101846 0.000574341 0.000518383)
(0.108291 0.000581765 0.000718453)
(0.102014 0.000570366 0.000584278)
(0.108475 0.000978269 0.000130481)
(0.110435 0.00103211 0.00025216)
(0.107667 0.0015639 -4.40225e-05)
(0.108947 0.000955715 8.48189e-05)
(0.110918 0.00102836 0.000185024)
(0.108099 0.00163891 -0.000147264)
(0.109459 0.000939858 9.60081e-05)
(0.111362 0.00103694 0.000175006)
(0.108502 0.00164556 -0.000172762)
(0.109981 0.000911337 0.000140936)
(0.11188 0.00102562 0.000189137)
(0.108971 0.0015819 -0.000155221)
(0.110493 0.000873267 0.00020672)
(0.112417 0.000995917 0.000218182)
(0.109433 0.00148085 -0.000106297)
(0.110988 0.000833473 0.000284564)
(0.112937 0.000957035 0.00025936)
(0.109854 0.00136585 -3.35622e-05)
(0.111462 0.000796589 0.000364668)
(0.113436 0.000914913 0.000306889)
(0.110243 0.00125145 5.01337e-05)
(0.111908 0.000765526 0.000438574)
(0.113913 0.000871992 0.000353279)
(0.110609 0.0011498 0.000136012)
(0.112328 0.000742501 0.00050256)
(0.114369 0.000832811 0.000394239)
(0.110956 0.00106708 0.000216285)
(0.112723 0.000726875 0.000556364)
(0.114801 0.000799511 0.000429861)
(0.111288 0.0010003 0.000288702)
(0.113096 0.000716213 0.000600254)
(0.115212 0.000771681 0.000460306)
(0.111606 0.000946918 0.000352268)
(0.115604 0.000747707 0.000485183)
(0.111913 0.000903025 0.000405986)
(0.112903 0.00109568 0.000326442)
(0.113568 0.00101229 0.000274471)
(0.111924 0.00155711 0.000230458)
(0.113397 0.00111586 0.000283255)
(0.11412 0.00101307 0.00022705)
(0.112404 0.00159879 0.000176117)
(0.11392 0.00112375 0.000267164)
(0.11463 0.00101744 0.000199258)
(0.112866 0.00162904 0.000142505)
(0.114455 0.001112 0.000264446)
(0.115179 0.00101589 0.000187955)
(0.113374 0.00162058 0.000120406)
(0.114988 0.00108384 0.000270088)
(0.115739 0.00100192 0.000184882)
(0.113885 0.00157564 0.000107888)
(0.11551 0.00104478 0.000282053)
(0.116289 0.000976999 0.00018679)
(0.11437 0.00150666 0.000104657)
(0.116017 0.000998878 0.00029755)
(0.116823 0.000943923 0.000192147)
(0.114826 0.00142185 0.000109328)
(0.116505 0.000950318 0.000313508)
(0.117341 0.000905332 0.000199196)
(0.115259 0.00133096 0.000119764)
(0.116973 0.00090281 0.000328404)
(0.117842 0.000864634 0.000206354)
(0.115671 0.00124199 0.00013312)
(0.117423 0.000858267 0.000342016)
(0.118323 0.000823822 0.000213125)
(0.116065 0.00115863 0.000148593)
(0.117854 0.000817363 0.000354076)
(0.118786 0.000783851 0.000219332)
(0.116444 0.0010834 0.000164873)
(0.119232 0.000745836 0.00022469)
(0.116811 0.00101578 0.000180618)
(0.114754 0.000902931 0.000137526)
(0.114799 0.000694859 -9.14002e-05)
(0.113647 0.00120736 7.80996e-05)
(0.115343 0.000897265 0.000120235)
(0.115391 0.000688905 -9.69775e-05)
(0.114226 0.00123406 6.34457e-05)
(0.115926 0.000900577 0.000109691)
(0.115932 0.000695124 -9.83416e-05)
(0.11475 0.00125625 5.48249e-05)
(0.116505 0.000900566 0.000103184)
(0.116503 0.000697832 -9.86904e-05)
(0.115303 0.00126193 4.65177e-05)
(0.117076 0.000891887 9.87391e-05)
(0.117084 0.000694686 -9.93955e-05)
(0.115859 0.00124941 3.60318e-05)
(0.117636 0.000874495 9.55158e-05)
(0.117656 0.000685534 -9.96337e-05)
(0.116398 0.0012217 2.37238e-05)
(0.118184 0.000849727 9.30702e-05)
(0.118217 0.000670795 -9.89359e-05)
(0.116917 0.00118188 1.07665e-05)
(0.118715 0.000819387 9.11458e-05)
(0.118765 0.000651526 -9.74896e-05)
(0.117417 0.00113362 -1.4742e-06)
(0.119229 0.000785426 8.96356e-05)
(0.119298 0.000628933 -9.54008e-05)
(0.117897 0.00107919 -1.1809e-05)
(0.119725 0.000749067 8.83805e-05)
(0.119814 0.000604246 -9.27444e-05)
(0.118357 0.00102275 -2.01355e-05)
(0.120202 0.000711804 8.73147e-05)
(0.120312 0.000578078 -8.97237e-05)
(0.118798 0.000966201 -2.67959e-05)
(0.120791 0.000551876 -8.63066e-05)
(0.119223 0.000912025 -3.14904e-05)
(0.115385 0.000491284 -0.000308966)
(0.1148 0.000327305 -0.000599159)
(0.114172 0.000685607 -0.000376111)
(0.115946 0.000491427 -0.00030739)
(0.115391 0.00031364 -0.00059316)
(0.114725 0.000683387 -0.000356494)
(0.116515 0.000491764 -0.000306524)
(0.115932 0.000305221 -0.000599495)
(0.115238 0.000690078 -0.000346804)
(0.117092 0.000489072 -0.000304453)
(0.116503 0.000298572 -0.000603207)
(0.115786 0.000693554 -0.000341557)
(0.117668 0.000484791 -0.000301962)
(0.117084 0.000293636 -0.000601181)
(0.116349 0.000693204 -0.000339075)
(0.118239 0.000478216 -0.000298448)
(0.117656 0.000288891 -0.000593567)
(0.116906 0.000689224 -0.000338251)
(0.118801 0.000469165 -0.000293662)
(0.118217 0.000283432 -0.000580969)
(0.117453 0.00068167 -0.000338183)
(0.119352 0.000458019 -0.000287747)
(0.118765 0.000277265 -0.000564294)
(0.117988 0.000670608 -0.000338029)
(0.119887 0.000445182 -0.000280887)
(0.119298 0.000270465 -0.000544657)
(0.118506 0.000655896 -0.00033708)
(0.120405 0.000431175 -0.000273347)
(0.119814 0.000263178 -0.000523217)
(0.119006 0.00063837 -0.000335301)
(0.120905 0.000416477 -0.00026536)
(0.120312 0.000255493 -0.000500483)
(0.119487 0.000619227 -0.00033295)
(0.120792 0.000247628 -0.0004777)
(0.119949 0.000599201 -0.000329933)
(0.114754 0.00013721 -0.000902985)
(0.113647 7.77735e-05 -0.00120747)
(0.113569 0.000274157 -0.00101233)
(0.115343 0.000119868 -0.000897304)
(0.114226 6.30374e-05 -0.00123415)
(0.11412 0.00022668 -0.00101308)
(0.115926 0.00010929 -0.000900612)
(0.11475 5.43695e-05 -0.00125633)
(0.11463 0.000198841 -0.00101745)
(0.116505 0.000102771 -0.000900614)
(0.115303 4.60471e-05 -0.00126203)
(0.115179 0.000187506 -0.0010159)
(0.117076 9.83398e-05 -0.000891963)
(0.115859 3.55699e-05 -0.00124955)
(0.11574 0.000184429 -0.00100197)
(0.117637 9.51534e-05 -0.000874606)
(0.116398 2.32905e-05 -0.00122189)
(0.116289 0.000186368 -0.000977082)
(0.118184 9.2765e-05 -0.000849875)
(0.116918 1.03793e-05 -0.00118212)
(0.116823 0.000191785 -0.000944055)
(0.118716 9.09183e-05 -0.00081957)
(0.117418 -1.79545e-06 -0.00113389)
(0.117342 0.00019892 -0.00090552)
(0.11923 8.95096e-05 -0.000785652)
(0.117897 -1.20384e-05 -0.00107948)
(0.117842 0.000206192 -0.000864879)
(0.119725 8.83754e-05 -0.000749333)
(0.118357 -2.02377e-05 -0.00102303)
(0.118324 0.000213109 -0.000824139)
(0.120203 8.73905e-05 -0.000712057)
(0.118799 -2.67548e-05 -0.000966358)
(0.118787 0.000219485 -0.000784203)
(0.119224 -3.14257e-05 -0.000912088)
(0.119232 0.000224927 -0.000746182)
(0.113075 5.57421e-06 -0.00152858)
(0.111171 0.00011834 -0.00171351)
(0.112 7.2683e-05 -0.00176039)
(0.113618 -3.48122e-07 -0.0015816)
(0.11163 0.000146086 -0.00181453)
(0.112507 4.36627e-05 -0.00182288)
(0.114161 -6.72513e-06 -0.00160565)
(0.112068 0.000161975 -0.0018805)
(0.112982 1.60357e-05 -0.00186377)
(0.114696 -1.95226e-05 -0.0016)
(0.112543 0.000150052 -0.00189841)
(0.113494 -9.28838e-06 -0.00186005)
(0.115213 -3.82642e-05 -0.00156996)
(0.113013 0.000115048 -0.00187593)
(0.114001 -3.26555e-05 -0.00181612)
(0.115711 -6.03503e-05 -0.00152106)
(0.11345 6.51114e-05 -0.00182355)
(0.114476 -5.21873e-05 -0.00174394)
(0.116185 -8.27484e-05 -0.00145847)
(0.113853 8.25931e-06 -0.00174893)
(0.114918 -6.69179e-05 -0.00165193)
(0.116634 -0.000102722 -0.00138635)
(0.114225 -4.79271e-05 -0.00165912)
(0.115333 -7.57805e-05 -0.00155091)
(0.117061 -0.000119066 -0.0013094)
(0.11457 -9.65484e-05 -0.00156249)
(0.115725 -7.90901e-05 -0.00144798)
(0.117468 -0.000132076 -0.00123264)
(0.114892 -0.000137802 -0.00146628)
(0.116098 -7.76521e-05 -0.00134897)
(0.117858 -0.000141925 -0.00115923)
(0.115197 -0.000172234 -0.00137275)
(0.116456 -7.34205e-05 -0.00125745)
(0.116803 -6.73576e-05 -0.00117423)
(0.10976 0.000267004 -0.00196008)
(0.10598 0.000616583 -0.00192603)
(0.108666 0.000262304 -0.00223352)
(0.110136 0.000309079 -0.00208275)
(0.106222 0.000746739 -0.00214588)
(0.109156 0.0002877 -0.00247116)
(0.110558 0.000315751 -0.0021472)
(0.10651 0.000770233 -0.00228141)
(0.109588 0.00029305 -0.00259696)
(0.110974 0.000280543 -0.002151)
(0.106819 0.000707456 -0.00231626)
(0.110012 0.00024385 -0.00258886)
(0.111358 0.000214288 -0.00210897)
(0.107091 0.000590352 -0.002283)
(0.110372 0.000165995 -0.00250128)
(0.111705 0.000130046 -0.00203388)
(0.107296 0.00044303 -0.0022052)
(0.110653 7.76718e-05 -0.00236654)
(0.112013 3.94066e-05 -0.0019364)
(0.107439 0.000285986 -0.00209615)
(0.110874 -8.71904e-06 -0.00220659)
(0.112284 -4.61432e-05 -0.00182762)
(0.107537 0.00013806 -0.00196106)
(0.111053 -8.43565e-05 -0.00204006)
(0.112529 -0.000120539 -0.00171706)
(0.107606 1.01694e-05 -0.00182636)
(0.111207 -0.000144344 -0.00188041)
(0.112754 -0.000183724 -0.00160835)
(0.107654 -9.92412e-05 -0.00169564)
(0.111349 -0.000191385 -0.00173429)
(0.107694 -0.00019046 -0.00157576)
(0.11149 -0.000224413 -0.00160161)
(0.102671 0.00106645 -0.00210063)
(0.0921188 0.00172768 -0.00150975)
(0.102083 0.00101598 -0.00248314)
(0.102865 0.00117805 -0.00232388)
(0.0923388 0.00177977 -0.00200024)
(0.102361 0.00110174 -0.002918)
(0.103089 0.00114078 -0.00241596)
(0.0925638 0.00164436 -0.00218785)
(0.102583 0.00105404 -0.0030468)
(0.10326 0.00100496 -0.00240558)
(0.0926001 0.00139259 -0.00219299)
(0.102667 0.000903017 -0.0029618)
(0.103355 0.000815511 -0.00233112)
(0.0924366 0.00109348 -0.00210871)
(0.102586 0.000705437 -0.00279331)
(0.103371 0.000603357 -0.00221598)
(0.0921116 0.000786803 -0.00197911)
(0.102375 0.000494324 -0.0025685)
(0.103321 0.000396025 -0.00206734)
(0.0916816 0.000498202 -0.00184044)
(0.102098 0.000292381 -0.00231809)
(0.10323 0.000211593 -0.00190524)
(0.0911956 0.000255875 -0.00169508)
(0.101796 0.000119126 -0.00206848)
(0.103117 5.35268e-05 -0.00174963)
(0.0906758 5.48178e-05 -0.00156111)
(0.101496 -2.24702e-05 -0.00185183)
(0.102994 -7.99397e-05 -0.0016071)
(0.0901486 -0.000103086 -0.00143609)
(0.101213 -0.000136983 -0.00166556)
(0.0896328 -0.000222526 -0.00132719)
(0.100958 -0.000227462 -0.0015101)
(0.0828704 0.00237219 -0.00143901)
(0.0845644 0.00241578 -0.00209173)
(0.0831919 0.00220546 -0.00185764)
(0.0841291 0.00233555 -0.00286994)
(0.0832032 0.00185729 -0.00198704)
(0.0834916 0.00195607 -0.00290563)
(0.082904 0.00144636 -0.00194226)
(0.0824275 0.00145149 -0.00264555)
(0.0823516 0.0010354 -0.00181924)
(0.0811262 0.000960295 -0.00233734)
(0.0816271 0.000656873 -0.00167678)
(0.0797611 0.000551061 -0.0020383)
(0.0808007 0.000337763 -0.00154391)
(0.0784299 0.000229039 -0.00177659)
(0.0799283 8.39906e-05 -0.0014218)
(0.0771758 -7.65154e-06 -0.0015526)
(0.0790388 -0.000112336 -0.00131108)
(0.0760071 -0.000187125 -0.00136754)
(0.078162 -0.000253795 -0.00121328)
(0.0749295 -0.000305603 -0.00122026)
(0.0739398 -0.000381006 -0.00110712)
(0.0722532 -0.000200153 -0.00312099)
(0.0838457 0.000551086 -0.00216983)
(0.0709064 0.00125455 -0.00308377)
(0.0740102 0.000288942 -0.00249695)
(0.0849302 0.00121248 -0.00183795)
(0.0717603 0.00187618 -0.00252682)
(0.0750515 0.000279981 -0.00184464)
(0.085802 0.00122929 -0.00148958)
(0.0720286 0.00132553 -0.00186809)
(0.0755959 0.000173615 -0.00124744)
(0.0864125 0.00104198 -0.00109966)
(0.0718628 0.000715711 -0.00127059)
(0.0758597 0.000126389 -0.000749449)
(0.0867505 0.000881406 -0.000720963)
(0.0715101 0.0004277 -0.000794735)
(0.0759303 0.00013236 -0.000359569)
(0.0869304 0.000760964 -0.000400471)
(0.0711655 0.000300306 -0.000427528)
(0.0758529 0.000167715 -6.43359e-05)
(0.0870175 0.000667933 -0.000146149)
(0.0708312 0.000247043 -0.000145676)
(0.0756614 0.000213418 0.000156512)
(0.0870348 0.000606258 5.50789e-05)
(0.0704778 0.000243487 6.42995e-05)
(0.0753809 0.000257497 0.000322222)
(0.0869904 0.000565885 0.000213376)
(0.0700908 0.00026182 0.000220794)
(0.0750278 0.000299522 0.000447656)
(0.0868951 0.000540692 0.000337233)
(0.0696718 0.000287129 0.000338504)
(0.074614 0.00033959 0.000541265)
(0.0867567 0.000527194 0.00043433)
(0.069223 0.000313899 0.000426394)
(0.0865799 0.000520793 0.000507664)
(0.0687446 0.000339555 0.000490674)
(0.0979771 0.00186222 -0.000985527)
(0.102309 0.00180932 -0.000696687)
(0.0961129 0.00276071 -0.000861889)
(0.0983639 0.00201944 -0.000979446)
(0.10263 0.00207111 -0.000788519)
(0.0966942 0.00316747 -0.000920875)
(0.0987428 0.00191023 -0.000868664)
(0.102974 0.00209495 -0.000753785)
(0.0969901 0.0029224 -0.000901158)
(0.0990403 0.00168739 -0.000698043)
(0.103365 0.00194567 -0.000663001)
(0.0970396 0.00244546 -0.000805914)
(0.0992887 0.00145403 -0.000503777)
(0.103703 0.00175203 -0.000531227)
(0.0969368 0.0020005 -0.000663577)
(0.0995101 0.00123852 -0.000313357)
(0.103981 0.00155522 -0.000382112)
(0.0968035 0.00163969 -0.000499034)
(0.099713 0.00105928 -0.00013588)
(0.104233 0.00137244 -0.000233379)
(0.0966974 0.00135712 -0.00033304)
(0.0999001 0.000924768 2.37903e-05)
(0.104467 0.00122132 -8.98365e-05)
(0.0966258 0.00114753 -0.000176759)
(0.10007 0.000828911 0.000161296)
(0.104687 0.00110524 4.03755e-05)
(0.0965808 0.000997892 -3.83464e-05)
(0.100222 0.000761155 0.000276237)
(0.104894 0.00101658 0.00015381)
(0.0965552 0.000891621 8.006e-05)
(0.100355 0.000712553 0.00037021)
(0.105091 0.000948208 0.000250518)
(0.0965409 0.00081323 0.000178615)
(0.105277 0.000894215 0.000330847)
(0.096531 0.000756138 0.000259256)
(0.107182 0.00217899 -0.00030217)
(0.109057 0.00205742 -5.0412e-05)
(0.105668 0.0027107 -0.000146952)
(0.107609 0.00228849 -0.000388598)
(0.109486 0.0021766 -0.000149876)
(0.106067 0.00298528 -0.000244918)
(0.108064 0.0022504 -0.000408428)
(0.109904 0.00221519 -0.000192568)
(0.106423 0.0029639 -0.000328557)
(0.108471 0.00211478 -0.000385522)
(0.110365 0.00215451 -0.000208864)
(0.106724 0.00275402 -0.000381334)
(0.108828 0.00193927 -0.000329193)
(0.1108 0.00203456 -0.000203791)
(0.10691 0.00248105 -0.000391018)
(0.109146 0.00175485 -0.000251685)
(0.111187 0.00188703 -0.000178801)
(0.107011 0.00220346 -0.000362032)
(0.109434 0.00158066 -0.000163449)
(0.111535 0.00172933 -0.000141188)
(0.107072 0.00194582 -0.000306627)
(0.109705 0.00143027 -7.17711e-05)
(0.111857 0.0015786 -9.36471e-05)
(0.107125 0.00172335 -0.00023701)
(0.109966 0.00130618 1.63009e-05)
(0.112162 0.00144486 -4.28519e-05)
(0.107188 0.00154285 -0.000162458)
(0.110223 0.00120433 9.74567e-05)
(0.112455 0.00132828 8.02569e-06)
(0.10727 0.00139691 -8.94025e-05)
(0.110478 0.0011203 0.000169715)
(0.112742 0.00122894 5.64948e-05)
(0.107373 0.00128076 -1.93426e-05)
(0.113025 0.00114334 0.000100488)
(0.107494 0.00118553 4.31716e-05)
(0.11139 0.00203174 9.08128e-05)
(0.112 0.00176028 7.30536e-05)
(0.109429 0.00230552 0.000261918)
(0.111856 0.00208505 4.48857e-05)
(0.112507 0.00182282 4.41421e-05)
(0.109966 0.00249446 0.000221603)
(0.112356 0.0021019 3.96705e-06)
(0.112981 0.00186372 1.6563e-05)
(0.110432 0.00259433 0.000154943)
(0.112843 0.00206266 -2.8454e-05)
(0.113494 0.00185994 -8.74931e-06)
(0.110892 0.00256328 8.19972e-05)
(0.113298 0.00197922 -5.00866e-05)
(0.114001 0.00181592 -3.21197e-05)
(0.111286 0.00245204 1.46623e-05)
(0.113718 0.00186642 -6.05257e-05)
(0.114475 0.00174364 -5.16657e-05)
(0.111601 0.00229582 -4.18893e-05)
(0.114104 0.00173818 -6.06575e-05)
(0.114917 0.00165155 -6.64312e-05)
(0.111856 0.002117 -8.36794e-05)
(0.114463 0.00160804 -5.24896e-05)
(0.115333 0.00155047 -7.536e-05)
(0.112075 0.00193567 -0.000109675)
(0.114802 0.00148415 -3.82856e-05)
(0.115725 0.0014475 -7.87703e-05)
(0.112272 0.00176549 -0.000122741)
(0.115127 0.00137126 -2.01691e-05)
(0.116097 0.00134849 -7.74897e-05)
(0.11246 0.0016126 -0.000126498)
(0.115444 0.0012707 -5.10634e-07)
(0.116455 0.00125721 -7.34077e-05)
(0.11265 0.00147999 -0.000121119)
(0.116802 0.00117407 -6.7398e-05)
(0.112844 0.00136435 -0.000113107)
(0.113075 0.00152842 6.00094e-06)
(0.113045 0.00118437 -0.000218168)
(0.111172 0.00171334 0.000118758)
(0.113618 0.00158145 1.57604e-07)
(0.113587 0.00121787 -0.000202807)
(0.11163 0.00181433 0.000146645)
(0.114161 0.00160549 -6.1935e-06)
(0.114083 0.00124502 -0.000191248)
(0.112068 0.0018803 0.000162578)
(0.114696 0.0015998 -1.8999e-05)
(0.114614 0.00125426 -0.000190443)
(0.112543 0.00189818 0.000150644)
(0.115213 0.0015697 -3.77662e-05)
(0.115153 0.0012463 -0.0001973)
(0.113013 0.00187562 0.00011561)
(0.115711 0.00152074 -5.98907e-05)
(0.115678 0.00122481 -0.000208853)
(0.11345 0.00182313 6.56431e-05)
(0.116184 0.00145811 -8.23442e-05)
(0.116184 0.00119255 -0.000222963)
(0.113853 0.0017484 8.76597e-06)
(0.116634 0.00138597 -0.000102399)
(0.116671 0.00115203 -0.000236935)
(0.114225 0.00165851 -4.74569e-05)
(0.117061 0.00130905 -0.000118863)
(0.117137 0.00110456 -0.000248661)
(0.11457 0.00156184 -9.61413e-05)
(0.117467 0.00123245 -0.000132014)
(0.117582 0.00105429 -0.000257974)
(0.114891 0.00146567 -0.000137501)
(0.117857 0.00115922 -0.000141935)
(0.118007 0.00100399 -0.000265469)
(0.115196 0.00137271 -0.000172105)
(0.118415 0.000955503 -0.000270649)
(0.11549 0.00128828 -0.000200054)
(0.113494 0.000874017 -0.000423384)
(0.112968 0.000618188 -0.000758527)
(0.111269 0.000975377 -0.000290622)
(0.114011 0.000877774 -0.000395743)
(0.113482 0.000586108 -0.000752404)
(0.111723 0.000965173 -0.000219887)
(0.114542 0.000886933 -0.000381548)
(0.113964 0.00057721 -0.000753302)
(0.11216 0.000978333 -0.000193145)
(0.115082 0.000892972 -0.000376175)
(0.114491 0.000577028 -0.000749413)
(0.112658 0.000996956 -0.000191272)
(0.115621 0.000893687 -0.000375867)
(0.115035 0.000579235 -0.00073814)
(0.113179 0.0010127 -0.000202339)
(0.116154 0.000889446 -0.000378869)
(0.11557 0.000582719 -0.000721961)
(0.113692 0.00102371 -0.000223223)
(0.116674 0.000880222 -0.000383499)
(0.116091 0.000586697 -0.000702542)
(0.114188 0.00102884 -0.000251372)
(0.117178 0.000865423 -0.000387997)
(0.116596 0.000589125 -0.000680617)
(0.114663 0.00102589 -0.00028213)
(0.117662 0.000845553 -0.000391585)
(0.117083 0.000588231 -0.000658128)
(0.115114 0.00101265 -0.000311414)
(0.118125 0.000822405 -0.000394422)
(0.117549 0.000584555 -0.000636423)
(0.11554 0.000992323 -0.000338824)
(0.118569 0.000797546 -0.000396524)
(0.117996 0.000579052 -0.000616302)
(0.115941 0.000968339 -0.000364268)
(0.118424 0.000572055 -0.000597545)
(0.116322 0.000942128 -0.000386884)
(0.112903 0.000326083 -0.00109568)
(0.111924 0.000230135 -0.00155715)
(0.110435 0.000251854 -0.00103225)
(0.113397 0.000282845 -0.00111584)
(0.112405 0.000175723 -0.00159877)
(0.110918 0.00018463 -0.00102847)
(0.113921 0.000266707 -0.00112374)
(0.112866 0.00014205 -0.00162901)
(0.111363 0.000174524 -0.00103702)
(0.114456 0.000263961 -0.00111201)
(0.113375 0.000119903 -0.00162061)
(0.11188 0.000188568 -0.0010257)
(0.114988 0.000269612 -0.00108389)
(0.113886 0.000107359 -0.00157575)
(0.112417 0.00021757 -0.00099599)
(0.11551 0.000281626 -0.00104488)
(0.11437 0.000104135 -0.00150685)
(0.112937 0.000258757 -0.000957116)
(0.116017 0.000297209 -0.000999045)
(0.114827 0.00010885 -0.00142212)
(0.113436 0.000306339 -0.000915019)
(0.116506 0.000313289 -0.000950562)
(0.11526 0.000119369 -0.00133132)
(0.113914 0.000352813 -0.000872148)
(0.116974 0.000328345 -0.00090314)
(0.115672 0.000132849 -0.00124242)
(0.114369 0.000393885 -0.000833037)
(0.117423 0.000342152 -0.000858664)
(0.116066 0.000148497 -0.00115915)
(0.114802 0.000429671 -0.000799846)
(0.117855 0.000354377 -0.000817798)
(0.116445 0.000164976 -0.00108381)
(0.115213 0.000460333 -0.000772083)
(0.116812 0.00018081 -0.00101617)
(0.115605 0.000485367 -0.000748187)
(0.11139 9.04384e-05 -0.00203179)
(0.109429 0.000261578 -0.00230556)
(0.109057 -5.06984e-05 -0.00205754)
(0.111856 4.44354e-05 -0.00208504)
(0.109966 0.00022115 -0.00249438)
(0.109486 -0.000150262 -0.00217663)
(0.112357 3.46313e-06 -0.00210191)
(0.110433 0.000154417 -0.00259429)
(0.109905 -0.000193011 -0.00221525)
(0.112844 -2.89966e-05 -0.00206277)
(0.110892 8.14262e-05 -0.00256339)
(0.110365 -0.000209377 -0.00215466)
(0.113299 -5.06524e-05 -0.00197946)
(0.111287 1.40549e-05 -0.00245235)
(0.110801 -0.000204388 -0.00203483)
(0.113718 -6.10877e-05 -0.00186676)
(0.111601 -4.25273e-05 -0.00229631)
(0.111187 -0.000179475 -0.00188738)
(0.114105 -6.11772e-05 -0.00173863)
(0.111857 -8.43239e-05 -0.00211764)
(0.111536 -0.000141886 -0.00172976)
(0.114464 -5.29241e-05 -0.00160857)
(0.112076 -0.000110289 -0.00193645)
(0.111858 -9.43355e-05 -0.0015791)
(0.114803 -3.85781e-05 -0.00148475)
(0.112273 -0.000123286 -0.00176637)
(0.112163 -4.34754e-05 -0.00144543)
(0.115129 -2.02888e-05 -0.00137178)
(0.112462 -0.000126874 -0.00161362)
(0.112456 7.56603e-06 -0.00132899)
(0.115445 -5.16766e-07 -0.00127108)
(0.112651 -0.00012142 -0.00148031)
(0.112743 5.61714e-05 -0.00122944)
(0.113026 0.000100274 -0.00114382)
(0.107988 0.000361097 -0.00278913)
(0.104517 0.000727749 -0.00286793)
(0.106016 0.000243479 -0.00298469)
(0.108586 0.000311628 -0.00299688)
(0.105028 0.0006613 -0.00331336)
(0.106515 0.000192526 -0.00329893)
(0.109091 0.000227229 -0.00302309)
(0.105383 0.000554618 -0.00340772)
(0.106917 7.43586e-05 -0.00331109)
(0.109454 0.000124565 -0.00291644)
(0.105569 0.00041071 -0.00327205)
(0.107216 -5.61156e-05 -0.00312673)
(0.109702 2.36978e-05 -0.00273777)
(0.105564 0.000251405 -0.00305162)
(0.107365 -0.000160666 -0.00286194)
(0.10986 -6.40029e-05 -0.00252326)
(0.105417 0.00010085 -0.00277356)
(0.107398 -0.000228646 -0.00257628)
(0.109959 -0.000132213 -0.00229981)
(0.105203 -2.59637e-05 -0.00247644)
(0.107373 -0.000260448 -0.00230055)
(0.110024 -0.000180438 -0.00208671)
(0.10497 -0.000124835 -0.00219891)
(0.107329 -0.000268365 -0.002053)
(0.11008 -0.0002123 -0.00189455)
(0.104743 -0.000198786 -0.00196006)
(0.107292 -0.000260001 -0.00184219)
(0.110141 -0.000229261 -0.00172644)
(0.104541 -0.000252139 -0.0017601)
(0.107277 -0.000241809 -0.00166552)
(0.104375 -0.000286199 -0.00159295)
(0.107288 -0.000214572 -0.00151915)
(0.10171 0.00104424 -0.00326323)
(0.0934441 0.00178093 -0.00300076)
(0.0988433 0.000899841 -0.00355322)
(0.102099 0.000934322 -0.00356631)
(0.0930436 0.00165576 -0.00366725)
(0.0997475 0.000804308 -0.00417809)
(0.102209 0.000766819 -0.00351394)
(0.0923794 0.0013596 -0.00355656)
(0.099996 0.000594431 -0.00402794)
(0.102025 0.000564658 -0.00328405)
(0.0913291 0.000973415 -0.00320245)
(0.099682 0.000340679 -0.00355354)
(0.101647 0.000356215 -0.0029799)
(0.090071 0.000592873 -0.00282548)
(0.0990331 0.000117639 -0.00306404)
(0.101161 0.000166539 -0.00263576)
(0.0887819 0.000280514 -0.0024519)
(0.0982644 -5.21138e-05 -0.00259481)
(0.100642 9.01879e-06 -0.0022991)
(0.0875647 4.28207e-05 -0.00210472)
(0.0975008 -0.000170325 -0.00218661)
(0.100141 -0.0001147 -0.00200537)
(0.0864576 -0.000126275 -0.00180512)
(0.0967979 -0.000244076 -0.00185948)
(0.0996816 -0.000209001 -0.00176485)
(0.085471 -0.00024857 -0.00156246)
(0.096176 -0.000289437 -0.00160988)
(0.0992749 -0.000278436 -0.0015702)
(0.0846011 -0.000326113 -0.00137383)
(0.0956422 -0.000316622 -0.00141942)
(0.0838367 -0.000374402 -0.0012284)
(0.0951916 -0.000328882 -0.00126981)
(0.0859504 0.00231319 -0.00339321)
(0.0856371 0.00221674 -0.00385705)
(0.0845585 0.001977 -0.00374661)
(0.0830669 0.00194718 -0.00459759)
(0.0827322 0.00145888 -0.00341941)
(0.0801683 0.00129112 -0.00404119)
(0.0806992 0.000913104 -0.0029419)
(0.07701 0.000648559 -0.00322313)