/*--------------------------------*- C++ -*----------------------------------*\
| =========                 |                                                 |
| \\      /  F ield         | OpenFOAM: The Open Source CFD Toolbox           |
|  \\    /   O peration     | Version:  2212                                  |
|   \\  /    A nd           | Website:  www.openfoam.com                      |
|    \\/     M anipulation  |                                                 |
\*---------------------------------------------------------------------------*/
FoamFile
{
    version     2.0;
    format      ascii;
    arch        "LSB;label=32;scalar=64";
    class       volScalarField;
    location    "1.85";
    object      p;
}
// * * * * * * * * * * * * * * * * * * * * * * * * * * * * * * * * * * * * * //

dimensions      [0 2 -2 0 0 0 0];

internalField   nonuniform List<scalar> 
680
(
0.0178854
0.0107709
0.0084795
0.00794168
0.00766732
0.00744513
0.00725852
0.0107066
0.00997274
0.00887985
0.00821389
0.00781132
0.00753764
0.00732655
0.0103583
0.00950682
0.00874256
0.00818345
0.00780733
0.00753937
0.00732381
0.00994904
0.00918632
0.00856756
0.00811625
0.00777229
0.0075033
0.00728375
0.00981479
0.00907361
0.00848544
0.00807732
0.00775536
0.00748861
0.00726705
0.00981478
0.00907359
0.0084854
0.00807726
0.00775528
0.00748849
0.00726684
0.00994898
0.00918625
0.00856748
0.00811613
0.00777212
0.00750302
0.00728327
0.0103583
0.00950676
0.00874249
0.00818334
0.00780715
0.00753906
0.00732329
0.0107066
0.00997271
0.00887981
0.00821384
0.00781123
0.00753749
0.00732628
0.0178854
0.0107709
0.00847951
0.00794168
0.00766732
0.00744513
0.00725852
0.0107066
0.00997271
0.00887981
0.00821383
0.00781122
0.00753748
0.00732628
0.00998999
0.00995829
0.00923007
0.00851958
0.00807325
0.00775733
0.00749849
0.00906454
0.00919074
0.00888788
0.00847169
0.00810458
0.00778601
0.00750758
0.00864619
0.0086897
0.00852415
0.00826125
0.00798092
0.00770965
0.00745874
0.00843017
0.008452
0.0083248
0.00810731
0.0078749
0.00764576
0.00742298
0.00843013
0.00845196
0.00832475
0.00810722
0.00787477
0.00764557
0.00742269
0.0086461
0.00868961
0.00852403
0.00826109
0.00798068
0.0077093
0.00745821
0.0090645
0.00919069
0.00888781
0.00847159
0.00810444
0.00778579
0.00750719
0.00998999
0.00995829
0.00923008
0.00851958
0.00807325
0.00775734
0.00749849
0.0107066
0.00997274
0.00887985
0.00821389
0.00781133
0.00753765
0.00732656
0.0103583
0.00950676
0.00874248
0.00818334
0.00780715
0.00753905
0.00732329
0.0090645
0.00919069
0.00888781
0.00847159
0.00810444
0.00778578
0.00750719
0.00849503
0.00859601
0.00848446
0.008259
0.00800327
0.0077449
0.00748656
0.00812705
0.00819512
0.00814276
0.00799582
0.00781101
0.00760594
0.00739535
0.00794396
0.00800839
0.00797893
0.00785411
0.00769512
0.00752146
0.00733518
0.00794393
0.00800836
0.00797889
0.00785403
0.00769499
0.00752127
0.00733494
0.008127
0.00819507
0.00814268
0.0079957
0.00781083
0.0076057
0.00739503
0.00849503
0.00859601
0.00848446
0.00825901
0.00800328
0.00774491
0.00748657
0.00906455
0.00919075
0.00888789
0.0084717
0.00810459
0.00778602
0.00750759
0.0103583
0.00950683
0.00874257
0.00818345
0.00780733
0.00753937
0.00732382
0.00994898
0.00918625
0.00856747
0.00811613
0.00777212
0.00750302
0.00728327
0.0086461
0.00868961
0.00852403
0.00826108
0.00798068
0.0077093
0.00745821
0.008127
0.00819506
0.00814268
0.0079957
0.00781083
0.0076057
0.00739503
0.00782913
0.00788827
0.00787634
0.00778095
0.00764133
0.00747585
0.00729568
0.00767801
0.0077409
0.00774466
0.00767101
0.00755088
0.00740448
0.00724156
0.00767799
0.00774089
0.00774465
0.00767099
0.00755085
0.00740443
0.00724148
0.00782913
0.00788828
0.00787634
0.00778096
0.00764134
0.00747586
0.00729569
0.00812706
0.00819512
0.00814276
0.00799583
0.00781102
0.00760595
0.00739536
0.00864619
0.00868971
0.00852416
0.00826126
0.00798093
0.00770966
0.00745875
0.00994905
0.00918632
0.00856756
0.00811625
0.0077723
0.00750331
0.00728376
0.00981477
0.00907359
0.0084854
0.00807726
0.00775528
0.00748849
0.00726684
0.00843013
0.00845195
0.00832475
0.00810721
0.00787476
0.00764556
0.00742269
0.00794393
0.00800836
0.00797889
0.00785403
0.00769499
0.00752127
0.00733494
0.00767799
0.00774089
0.00774464
0.00767098
0.00755084
0.00740442
0.00724148
0.00753518
0.0076047
0.00762682
0.00757426
0.00747299
0.00734203
0.00719207
0.00753518
0.0076047
0.00762682
0.00757426
0.00747299
0.00734203
0.00719207
0.00767801
0.00774091
0.00774467
0.00767101
0.00755088
0.00740448
0.00724157
0.00794396
0.0080084
0.00797893
0.00785411
0.00769513
0.00752147
0.00733519
0.00843018
0.00845201
0.00832481
0.00810732
0.00787491
0.00764577
0.00742299
0.0098148
0.00907362
0.00848545
0.00807733
0.00775537
0.00748862
0.00726706
0.00981479
0.00907361
0.00848544
0.00807732
0.00775536
0.00748861
0.00726705
0.00843017
0.008452
0.0083248
0.00810731
0.0078749
0.00764576
0.00742298
0.00794395
0.00800839
0.00797892
0.0078541
0.00769512
0.00752146
0.00733518
0.007678
0.0077409
0.00774466
0.00767101
0.00755088
0.00740448
0.00724156
0.00753518
0.0076047
0.00762682
0.00757426
0.00747299
0.00734203
0.00719207
0.00753518
0.0076047
0.00762682
0.00757426
0.00747299
0.00734203
0.00719207
0.007678
0.00774089
0.00774465
0.00767099
0.00755085
0.00740443
0.00724149
0.00794393
0.00800837
0.0079789
0.00785404
0.007695
0.00752128
0.00733495
0.00843014
0.00845196
0.00832476
0.00810722
0.00787477
0.00764558
0.0074227
0.00981478
0.0090736
0.00848541
0.00807727
0.00775529
0.0074885
0.00726685
0.00994904
0.00918631
0.00856756
0.00811625
0.00777229
0.0075033
0.00728375
0.00864619
0.0086897
0.00852415
0.00826125
0.00798092
0.00770965
0.00745874
0.00812705
0.00819512
0.00814275
0.00799582
0.00781101
0.00760594
0.00739535
0.00782913
0.00788827
0.00787634
0.00778095
0.00764133
0.00747585
0.00729568
0.00767799
0.00774089
0.00774465
0.00767099
0.00755085
0.00740443
0.00724148
0.00767801
0.0077409
0.00774467
0.00767101
0.00755088
0.00740448
0.00782913
0.00788828
0.00787635
0.00778096
0.00764134
0.00747586
0.00812701
0.00819507
0.00814269
0.00799571
0.00781084
0.00760571
0.00864611
0.00868962
0.00852404
0.0082611
0.00798069
0.00770931
0.00994899
0.00918626
0.00856749
0.00811614
0.00777213
0.00750303
0.0103583
0.00950682
0.00874256
0.00818344
0.00780732
0.00753937
0.00732381
0.00906454
0.00919074
0.00888788
0.00847169
0.00810458
0.00778601
0.00750758
0.00849503
0.008596
0.00848445
0.008259
0.00800327
0.0077449
0.00748656
0.008127
0.00819506
0.00814268
0.0079957
0.00781083
0.0076057
0.00739503
0.00794393
0.00800836
0.00797889
0.00785403
0.00769499
0.00752127
0.00733494
0.00794396
0.00800839
0.00797893
0.00785411
0.00769513
0.00752146
0.00812706
0.00819513
0.00814276
0.00799583
0.00781102
0.00760595
0.00849504
0.00859602
0.00848447
0.00825901
0.00800328
0.00774491
0.00906451
0.0091907
0.00888782
0.0084716
0.00810445
0.00778579
0.0103583
0.00950677
0.0087425
0.00818335
0.00780716
0.00753907
0.0107066
0.00997273
0.00887985
0.00821388
0.00781132
0.00753764
0.00732655
0.00998999
0.00995829
0.00923007
0.00851958
0.00807325
0.00775733
0.00749849
0.0090645
0.00919069
0.00888781
0.00847159
0.00810444
0.00778578
0.00750719
0.0086461
0.00868961
0.00852403
0.00826108
0.00798068
0.0077093
0.00745821
0.00843013
0.00845196
0.00832475
0.00810722
0.00787476
0.00764556
0.00742269
0.00843017
0.008452
0.00832481
0.00810731
0.00787491
0.00764576
0.00864619
0.00868971
0.00852416
0.00826126
0.00798093
0.00770965
0.00906455
0.00919075
0.00888789
0.0084717
0.00810459
0.00778602
0.00999
0.0099583
0.00923008
0.00851959
0.00807326
0.00775735
0.0107066
0.00997272
0.00887982
0.00821384
0.00781124
0.00753749
0.0178854
0.0107709
0.0084795
0.00794167
0.00766732
0.00744512
0.00725852
0.0107066
0.00997271
0.00887981
0.00821383
0.00781122
0.00753748
0.00732627
0.0103583
0.00950676
0.00874248
0.00818334
0.00780715
0.00753905
0.00732329
0.00994898
0.00918625
0.00856747
0.00811613
0.00777212
0.00750302
0.00728327
0.00981478
0.00907359
0.0084854
0.00807726
0.00775528
0.00748849
0.00726684
0.0098148
0.00907361
0.00848544
0.00807732
0.00775536
0.00748862
0.00994905
0.00918632
0.00856756
0.00811625
0.0077723
0.00750331
0.0103583
0.00950683
0.00874257
0.00818346
0.00780734
0.00753938
0.0107066
0.00997275
0.00887986
0.0082139
0.00781133
0.00753765
0.0178854
0.010771
0.00847951
0.00794169
0.00766733
0.00744514
)
;

boundaryField
{
    inlet
    {
        type            zeroGradient;
    }
    ami1
    {
        type            cyclicAMI;
        value           nonuniform List<scalar> 0();
    }
    walls
    {
        type            zeroGradient;
    }
    ami2
    {
        type            cyclicAMI;
        value           nonuniform List<scalar> 0();
    }
    outlet
    {
        type            fixedValue;
        value           nonuniform List<scalar> 0();
    }
    procBoundary4to3
    {
        type            processor;
        value           nonuniform List<scalar> 
109
(
0.00709213
0.00714046
0.00713106
0.00709506
0.00707634
0.007076
0.00709424
0.0071302
0.00714
0.00709214
0.00713999
0.0072709
0.00726735
0.00723253
0.00720988
0.00720944
0.00723171
0.00726667
0.0072709
0.00714047
0.00713019
0.00726667
0.00724504
0.0071886
0.00714719
0.00714687
0.00718812
0.00724505
0.00726736
0.00713106
0.00709424
0.00723171
0.00718811
0.00711123
0.00707011
0.00707
0.00711124
0.00718861
0.00723254
0.00709507
0.007076
0.00720944
0.00714686
0.00707
0.00703103
0.00703103
0.00707012
0.0071472
0.00720989
0.00707635
0.00707634
0.00720988
0.00714719
0.00707011
0.00703103
0.00703103
0.00724157
0.00707
0.00729569
0.00714687
0.00739504
0.00720945
0.00745822
0.00707601
0.00728328
0.00709506
0.00723253
0.0071886
0.00711123
0.00707
0.00724157
0.00724157
0.00729569
0.00739504
0.00745822
0.00728328
0.00713106
0.00726735
0.00724504
0.00718811
0.00714686
0.00733518
0.00733518
0.00739536
0.00748657
0.0075072
0.0073233
0.00714046
0.0072709
0.00726667
0.00723171
0.00720944
0.00742299
0.00742299
0.00745875
0.00750759
0.0074985
0.00732629
0.00709213
0.00713999
0.00713019
0.00709424
0.007076
0.00726705
0.00726705
0.00728376
0.00732382
0.00732656
0.00725853
)
;
    }
}


// ************************************************************************* //
