/*--------------------------------*- C++ -*----------------------------------*\
| =========                 |                                                 |
| \\      /  F ield         | OpenFOAM: The Open Source CFD Toolbox           |
|  \\    /   O peration     | Version:  2212                                  |
|   \\  /    A nd           | Website:  www.openfoam.com                      |
|    \\/     M anipulation  |                                                 |
\*---------------------------------------------------------------------------*/
FoamFile
{
    version     2.0;
    format      ascii;
    arch        "LSB;label=32;scalar=64";
    class       surfaceVectorField;
    location    "1.85";
    object      Uf;
}
// * * * * * * * * * * * * * * * * * * * * * * * * * * * * * * * * * * * * * //

dimensions      [0 1 -1 0 0 0 0];

internalField   nonuniform List<vector> 
1800
(
(0.0993441 -0.00341903 -0.00341899)
(0.0973536 0.00106247 -0.00148427)
(0.0973536 -0.00148428 0.00106248)
(0.0834791 0.00197583 0.00197595)
(0.0930872 0.00326894 0.00253352)
(0.0930872 0.00253345 0.00326905)
(0.0745171 0.00195863 0.00195887)
(0.084864 0.00163574 0.00179245)
(0.084864 0.00179231 0.00163596)
(0.0685475 0.00115889 0.00115932)
(0.0786279 0.00107334 0.00122157)
(0.078628 0.00122129 0.00107372)
(0.0642357 0.000696693 0.000697414)
(0.0740526 0.000785016 0.000865446)
(0.0740528 0.000864998 0.000785729)
(0.0607559 0.000494253 0.000495621)
(0.0704418 0.000650022 0.000669871)
(0.0704421 0.000669117 0.000651157)
(0.0674905 0.000545688 0.00050969)
(0.0674911 0.000508211 0.000547905)
(0.0984572 0.00247642 0.00172992)
(0.0996871 0.000439224 0.00034549)
(0.100049 0.00105637 0.000750986)
(0.0958347 0.003148 0.00243274)
(0.0978161 0.00273275 0.00228233)
(0.0982936 0.00280917 0.00216156)
(0.0914498 0.00223025 0.00186947)
(0.0954958 0.00300166 0.00230322)
(0.0963038 0.00244254 0.00199797)
(0.0875947 0.00167447 0.00150574)
(0.0926187 0.00229928 0.00183898)
(0.0936665 0.00198055 0.0017273)
(0.0841466 0.0014398 0.00127607)
(0.0897665 0.00189175 0.00153594)
(0.090904 0.00171939 0.00149835)
(0.0811861 0.00126489 0.00102947)
(0.0872308 0.00165622 0.00129507)
(0.0884334 0.00145393 0.00121262)
(0.0850044 0.00149153 0.00107788)
(0.0863031 0.00118234 0.000910165)
(0.0993753 0.00118214 0.00107258)
(0.099473 0.000349765 0.000307063)
(0.0997475 0.000610979 0.000779892)
(0.0984947 0.00229611 0.002032)
(0.0990504 0.00157686 0.00172049)
(0.099597 0.00201831 0.00200295)
(0.097141 0.00247655 0.00204876)
(0.0983576 0.00213123 0.00216896)
(0.0992971 0.00246156 0.00210258)
(0.0954388 0.00224709 0.0017676)
(0.0971929 0.00203602 0.00200254)
(0.0984879 0.00237451 0.00190288)
(0.0937495 0.00202063 0.00152266)
(0.0959045 0.00185608 0.00175451)
(0.0974215 0.0021809 0.00168906)
(0.0921361 0.00186451 0.00134482)
(0.0946707 0.00173354 0.00154277)
(0.0963081 0.00198472 0.00150868)
(0.09348 0.00165419 0.00138652)
(0.095202 0.00180171 0.00134324)
(0.0996493 0.00065035 0.000931423)
(0.0994625 0.000129407 0.000192531)
(0.0997993 0.000375144 0.000741362)
(0.0990854 0.00127904 0.00182773)
(0.0992625 0.000636996 0.00137065)
(0.0998409 0.00115045 0.00181422)
(0.098449 0.00154101 0.00210311)
(0.0989129 0.00097364 0.0020036)
(0.0999046 0.00153665 0.00209018)
(0.0977073 0.00154735 0.00198896)
(0.0982949 0.00105041 0.00205067)
(0.0997671 0.00163198 0.0020231)
(0.0969388 0.00148104 0.00177607)
(0.0976572 0.00100815 0.00189963)
(0.099509 0.00161013 0.00189579)
(0.0962067 0.00142902 0.00158195)
(0.0970645 0.00096124 0.00169829)
(0.0991987 0.00154858 0.00175178)
(0.0965054 0.000935264 0.00152058)
(0.0988533 0.00147643 0.00162588)
(0.0996725 0.000154129 0.00062954)
(0.0993802 1.8028e-08 5.89821e-05)
(0.0997132 0.000103951 0.000687956)
(0.0991591 0.000353496 0.00154428)
(0.0992677 8.48307e-08 0.00120005)
(0.0998377 0.000341755 0.00162232)
(0.0986637 0.000458117 0.00194745)
(0.0989805 1.89987e-07 0.00188847)
(0.0999631 0.00048569 0.0019914)
(0.0982125 0.000481469 0.00196047)
(0.0984748 3.31722e-07 0.00200638)
(0.0999919 0.000539995 0.00199658)
(0.0977767 0.000472679 0.00182453)
(0.097996 5.58395e-07 0.00191447)
(0.100009 0.000547018 0.00191088)
(0.0973636 0.000459979 0.0016407)
(0.0975718 9.53434e-07 0.00173438)
(0.100008 0.000534527 0.00180396)
(0.0971827 1.64076e-06 0.00154669)
(0.099982 0.000513186 0.00168227)
(0.0996725 -0.000154028 0.000629495)
(0.0994625 -0.000129371 0.000192504)
(0.0997132 -0.00010391 0.000687953)
(0.0991592 -0.000353234 0.00154425)
(0.0992626 -0.00063686 0.00137062)
(0.0998377 -0.00034159 0.0016223)
(0.0986638 -0.000457633 0.00194741)
(0.098913 -0.000973383 0.00200354)
(0.0999631 -0.000485371 0.00199139)
(0.0982128 -0.000480642 0.00196038)
(0.0982953 -0.00104998 0.00205056)
(0.0999921 -0.000539443 0.00199655)
(0.0977773 -0.000471258 0.00182432)
(0.097658 -0.00100737 0.00189944)
(0.10001 -0.000546054 0.00191073)
(0.0973647 -0.000457512 0.00164037)
(0.097066 -0.000959829 0.00169797)
(0.100009 -0.000532859 0.00180365)
(0.096508 -0.000932776 0.00152014)
(0.0999834 -0.000510368 0.0016818)
(0.0996493 -0.000650309 0.000931417)
(0.099473 -0.000349769 0.000307059)
(0.0997993 -0.000375134 0.000741361)
(0.0990855 -0.00127894 0.00182768)
(0.0990504 -0.00157687 0.00172046)
(0.0998409 -0.00115041 0.00181421)
(0.0984494 -0.00154081 0.00210298)
(0.0983578 -0.00213125 0.00216882)
(0.0999048 -0.00153656 0.0020901)
(0.0977081 -0.00154697 0.00198876)
(0.0971935 -0.00203605 0.00200231)
(0.0997676 -0.0016318 0.00202287)
(0.0969404 -0.00148029 0.00177577)
(0.0959056 -0.00185603 0.00175418)
(0.09951 -0.00160976 0.00189535)
(0.0962095 -0.00142766 0.00158154)
(0.0946728 -0.00173336 0.00154227)
(0.0992006 -0.00154791 0.00175113)
(0.0934836 -0.00165379 0.00138577)
(0.0988566 -0.00147523 0.00162494)
(0.0993753 -0.00118219 0.00107255)
(0.0996871 -0.000439248 0.000345483)
(0.0997475 -0.000611002 0.000779873)
(0.0984948 -0.00229622 0.00203188)
(0.0978161 -0.00273287 0.00228227)
(0.0995971 -0.0020184 0.00200285)
(0.0971413 -0.00247675 0.00204853)
(0.095496 -0.00300185 0.00230307)
(0.0992973 -0.00246172 0.00210234)
(0.0954396 -0.00224741 0.00176724)
(0.0926191 -0.00229961 0.00183869)
(0.0984883 -0.0023748 0.00190247)
(0.0937511 -0.00202114 0.00152216)
(0.0897672 -0.00189235 0.00153554)
(0.0974224 -0.00218138 0.00168845)
(0.0921388 -0.00186529 0.00134402)
(0.0872321 -0.00165722 0.00129442)
(0.0963098 -0.00198552 0.00150781)
(0.0850068 -0.00149324 0.00107678)
(0.0952049 -0.00180292 0.00134184)
(0.0984572 -0.00247649 0.00172988)
(0.0973536 -0.00106248 -0.00148428)
(0.100049 -0.00105639 0.000750964)
(0.0958348 -0.00314817 0.00243263)
(0.0930872 -0.00326905 0.00253345)
(0.0982936 -0.00280928 0.00216144)
(0.0914499 -0.00223054 0.00186925)
(0.084864 -0.00163595 0.00179232)
(0.0963039 -0.00244278 0.00199775)
(0.087595 -0.00167502 0.00150539)
(0.078628 -0.00107371 0.0012213)
(0.0936666 -0.00198096 0.0017269)
(0.0841472 -0.00144074 0.0012755)
(0.0740528 -0.000785717 0.000865007)
(0.0909043 -0.00172011 0.00149772)
(0.0811872 -0.00126653 0.00102845)
(0.0704421 -0.000651142 0.000669128)
(0.0884338 -0.00145513 0.00121148)
(0.0674911 -0.000547886 0.000508226)
(0.0863039 -0.00118443 0.000908258)
(0.0993441 0.00341899 -0.00341903)
(0.0973536 0.00148428 0.00106247)
(0.0834791 -0.00197594 0.00197584)
(0.0930872 -0.00253351 0.00326894)
(0.0745171 -0.00195886 0.00195864)
(0.084864 -0.00179244 0.00163575)
(0.0685475 -0.00115931 0.0011589)
(0.0786279 -0.00122157 0.00107335)
(0.0642357 -0.000697402 0.000696705)
(0.0740526 -0.000865437 0.000785027)
(0.0607559 -0.000495606 0.000494268)
(0.0704418 -0.000669861 0.000650034)
(0.0674905 -0.000509676 0.000545705)
(0.0984572 0.00172988 0.00247649)
(0.100049 0.000750963 0.0010564)
(0.0996871 0.000345483 0.000439248)
(0.0958348 0.00243263 0.00314817)
(0.0982936 0.00216143 0.00280929)
(0.0978161 0.00228226 0.00273287)
(0.0914499 0.00186925 0.00223055)
(0.0963039 0.00199774 0.00244278)
(0.095496 0.00230306 0.00300186)
(0.087595 0.00150539 0.00167504)
(0.0936666 0.00172689 0.00198097)
(0.0926191 0.00183869 0.00229962)
(0.0841473 0.00127549 0.00144075)
(0.0909043 0.00149771 0.00172012)
(0.0897672 0.00153553 0.00189236)
(0.0811872 0.00102844 0.00126655)
(0.0884338 0.00121147 0.00145514)
(0.0872321 0.00129441 0.00165723)
(0.0863039 0.000908246 0.00118444)
(0.0850068 0.00107677 0.00149325)
(0.10008 0.00135176 0.00135183)
(0.100186 0.000798756 0.000804976)
(0.100186 0.000804943 0.00079879)
(0.100264 0.00221724 0.00221745)
(0.100189 0.00231184 0.00207159)
(0.10019 0.00207145 0.00231197)
(0.0993826 0.00243564 0.00243604)
(0.100306 0.00263368 0.00245332)
(0.100306 0.002453 0.00263393)
(0.0979836 0.00231007 0.00231071)
(0.0998046 0.00256035 0.00245635)
(0.0998048 0.00245581 0.0025608)
(0.0964942 0.00200581 0.00200689)
(0.0988621 0.00236435 0.00228152)
(0.0988624 0.0022807 0.00236506)
(0.0950714 0.00159628 0.00159809)
(0.0978397 0.00204885 0.00196889)
(0.0978402 0.00196761 0.0020501)
(0.0968593 0.00169093 0.0016059)
(0.0968603 0.00160386 0.00169297)
(0.100171 0.00136871 0.00141649)
(0.100118 0.000577425 0.000811324)
(0.100102 0.000699769 0.000700728)
(0.100758 0.00219498 0.00214924)
(0.100478 0.00158294 0.00185884)
(0.100477 0.00182258 0.00186479)
(0.100996 0.00247706 0.00238823)
(0.101004 0.00205892 0.00224268)
(0.101024 0.00234687 0.00238323)
(0.100837 0.00247639 0.00238949)
(0.101292 0.00220376 0.00235235)
(0.101337 0.00250607 0.00254415)
(0.100456 0.00231176 0.00222523)
(0.101308 0.00216778 0.00232241)
(0.101408 0.00245064 0.0024729)
(0.0999655 0.00205692 0.00196871)
(0.101155 0.00201146 0.00217901)
(0.1013 0.0022647 0.00227124)
(0.100924 0.00179481 0.0019688)
(0.101096 0.00200917 0.00199992)
(0.100242 0.000820248 0.00125614)
(0.10009 0.000294381 0.000735363)
(0.100071 0.000415709 0.000602802)
(0.100828 0.00139074 0.00193937)
(0.100491 0.000792122 0.00168404)
(0.100492 0.00112453 0.00158706)
(0.101392 0.0016638 0.00218234)
(0.101086 0.00107798 0.00208343)
(0.101128 0.00154105 0.00209422)
(0.101815 0.00176167 0.00226129)
(0.101664 0.00120476 0.00217906)
(0.101767 0.00173308 0.0022944)
(0.102079 0.00175619 0.00226208)
(0.102121 0.00124045 0.00222195)
(0.10229 0.00179048 0.00236746)
(0.102213 0.00166948 0.00217671)
(0.10245 0.00120309 0.0022099)
(0.10271 0.00174474 0.00232212)
(0.102678 0.0011203 0.00212589)
(0.103035 0.00162757 0.00220229)
(0.100243 0.00026752 0.00116243)
(0.100087 2.98991e-08 0.000707028)
(0.100064 0.000135862 0.000537351)
(0.100782 0.000465969 0.00182626)
(0.100477 8.57015e-08 0.00161782)
(0.100463 0.000371042 0.00142418)
(0.101401 0.000575917 0.00207619)
(0.101066 1.46911e-07 0.00203469)
(0.101089 0.000525443 0.00193364)
(0.101987 0.000623576 0.00213396)
(0.101694 2.62573e-07 0.00211765)
(0.101797 0.000606341 0.00212867)
(0.102507 0.000632255 0.00216501)
(0.102269 4.73635e-07 0.00215011)
(0.102489 0.000640079 0.00221107)
(0.102934 0.000612182 0.00215694)
(0.102742 8.09824e-07 0.00217957)
(0.103119 0.000635438 0.00224166)
(0.103124 1.31711e-06 0.00213373)
(0.103687 0.000602968 0.00219686)
(0.100243 -0.000267412 0.00116242)
(0.10009 -0.000294347 0.000735353)
(0.100064 -0.000135817 0.000537336)
(0.100782 -0.000465748 0.00182625)
(0.100491 -0.000792026 0.00168401)
(0.100463 -0.000370914 0.00142414)
(0.101401 -0.000575534 0.00207615)
(0.101086 -0.0010778 0.00208336)
(0.101089 -0.00052522 0.00193358)
(0.101988 -0.000622892 0.0021338)
(0.101664 -0.00120445 0.00217882)
(0.101798 -0.000605959 0.00212855)
(0.102507 -0.000631053 0.00216467)
(0.102121 -0.00123989 0.00222143)
(0.10249 -0.000639405 0.00221079)
(0.102935 -0.000610183 0.00215636)
(0.102452 -0.00120216 0.0022091)
(0.10312 -0.000634296 0.00224118)
(0.10268 -0.00111876 0.00212469)
(0.103688 -0.000601091 0.0021961)
(0.100242 -0.000820235 0.00125612)
(0.100118 -0.000577445 0.000811299)
(0.100071 -0.000415712 0.000602769)
(0.100828 -0.00139071 0.00193929)
(0.100478 -0.00158298 0.00185874)
(0.100493 -0.00112454 0.00158697)
(0.101392 -0.00166371 0.00218207)
(0.101004 -0.002059 0.00224243)
(0.101128 -0.00154106 0.00209402)
(0.101816 -0.0017615 0.00226069)
(0.101292 -0.00220389 0.00235184)
(0.101768 -0.00173306 0.00229396)
(0.102081 -0.00175591 0.00226112)
(0.101309 -0.002168 0.00232158)
(0.102291 -0.00179045 0.00236668)
(0.102215 -0.00166899 0.0021753)
(0.101156 -0.00201185 0.00217786)
(0.102711 -0.00174471 0.00232093)
(0.100927 -0.00179533 0.00196702)
(0.103037 -0.00162749 0.00220045)
(0.100171 -0.00136877 0.00141639)
(0.100186 -0.00079879 0.000804944)
(0.100102 -0.000699809 0.000700681)
(0.100759 -0.00219511 0.00214898)
(0.10019 -0.00231197 0.00207146)
(0.100477 -0.00182269 0.00186463)
(0.100996 -0.00247732 0.00238776)
(0.100306 -0.00263392 0.00245301)
(0.101024 -0.00234709 0.00238289)
(0.100838 -0.00247685 0.00238876)
(0.0998048 -0.00256079 0.00245582)
(0.101337 -0.00250649 0.00254359)
(0.100457 -0.00231255 0.00222421)
(0.0988624 -0.00236506 0.00228071)
(0.101408 -0.00245133 0.00247204)
(0.0999671 -0.0020582 0.00196719)
(0.0978402 -0.0020501 0.00196762)
(0.101301 -0.00226582 0.00226998)
(0.0968603 -0.00169297 0.00160387)
(0.101097 -0.00201098 0.00199785)
(0.10008 -0.00135183 0.00135176)
(0.100049 -0.000750985 0.00105638)
(0.100186 -0.000804975 0.000798757)
(0.100264 -0.00221744 0.00221725)
(0.0982936 -0.00216156 0.00280918)
(0.100189 -0.00207158 0.00231184)
(0.0993826 -0.00243603 0.00243565)
(0.0963038 -0.00199796 0.00244255)
(0.100306 -0.00245331 0.00263368)
(0.0979836 -0.0023107 0.00231008)
(0.0936665 -0.0017273 0.00198056)
(0.0998046 -0.00245634 0.00256036)
(0.0964942 -0.00200689 0.00200582)
(0.090904 -0.00149834 0.0017194)
(0.0988621 -0.00228151 0.00236436)
(0.0950714 -0.00159808 0.0015963)
(0.0884334 -0.00121262 0.00145395)
(0.0978397 -0.00196888 0.00204886)
(0.0863031 -0.000910159 0.00118236)
(0.0968593 -0.00160589 0.00169094)
(0.0984572 -0.00172992 0.00247642)
(0.0996871 -0.000345489 0.000439224)
(0.0958347 -0.00243274 0.003148)
(0.0978161 -0.00228232 0.00273275)
(0.0914498 -0.00186946 0.00223026)
(0.0954958 -0.00230322 0.00300167)
(0.0875947 -0.00150573 0.00167448)
(0.0926187 -0.00183897 0.00229929)
(0.0841466 -0.00127607 0.00143982)
(0.0897665 -0.00153593 0.00189176)
(0.0811861 -0.00102946 0.00126491)
(0.0872308 -0.00129507 0.00165623)
(0.0850044 -0.00107788 0.00149154)
(0.0993753 0.00107255 0.00118219)
(0.0997475 0.000779873 0.000611003)
(0.099473 0.000307059 0.000349769)
(0.0984948 0.00203188 0.00229623)
(0.0995971 0.00200285 0.0020184)
(0.0990504 0.00172045 0.00157687)
(0.0971413 0.00204852 0.00247676)
(0.0992973 0.00210234 0.00246173)
(0.0983578 0.00216882 0.00213126)
(0.0954396 0.00176724 0.00224742)
(0.0984883 0.00190247 0.00237481)
(0.0971935 0.00200231 0.00203605)
(0.0937511 0.00152215 0.00202116)
(0.0974224 0.00168844 0.00218139)
(0.0959056 0.00175417 0.00185604)
(0.0921388 0.00134401 0.0018653)
(0.0963098 0.0015078 0.00198553)
(0.0946728 0.00154226 0.00173337)
(0.0952049 0.00134183 0.00180293)
(0.0934836 0.00138576 0.0016538)
(0.100171 0.00141639 0.00136877)
(0.100102 0.000700681 0.00069981)
(0.100118 0.000811298 0.000577445)
(0.100759 0.00214898 0.00219511)
(0.100477 0.00186463 0.0018227)
(0.100478 0.00185873 0.00158298)
(0.100996 0.00238775 0.00247732)
(0.101024 0.00238289 0.00234709)
(0.101004 0.00224243 0.002059)
(0.100838 0.00238875 0.00247685)
(0.101337 0.00254358 0.00250649)
(0.101292 0.00235183 0.00220389)
(0.100457 0.00222419 0.00231256)
(0.101408 0.00247203 0.00245134)
(0.101309 0.00232157 0.002168)
(0.0999671 0.00196718 0.0020582)
(0.101301 0.00226997 0.00226582)
(0.101156 0.00217785 0.00201185)
(0.101097 0.00199784 0.00201098)
(0.100927 0.00196701 0.00179534)
(0.100222 0.00114323 0.00114333)
(0.100053 0.000517218 0.000591902)
(0.100053 0.000591854 0.000517258)
(0.100843 0.00192875 0.00192898)
(0.100491 0.0013494 0.00151844)
(0.100491 0.00151829 0.00134951)
(0.101463 0.00232624 0.00232665)
(0.101151 0.00186503 0.00207395)
(0.101151 0.00207368 0.00186523)
(0.101979 0.002441 0.00244167)
(0.101822 0.00210682 0.00232364)
(0.101822 0.00232316 0.00210715)
(0.102353 0.00237772 0.00237876)
(0.102411 0.00214817 0.00237444)
(0.102411 0.00237366 0.00214872)
(0.102579 0.00220293 0.00220463)
(0.102887 0.00206587 0.0023009)
(0.102888 0.00229966 0.00206672)
(0.103247 0.00189124 0.00214165)
(0.103248 0.00213964 0.00189264)
(0.100228 0.000720332 0.000962264)
(0.100042 0.000263737 0.000509928)
(0.100041 0.000359913 0.000426913)
(0.10082 0.00126021 0.00165373)
(0.100464 0.000697475 0.00131041)
(0.100455 0.000958805 0.00112639)
(0.101546 0.00159048 0.00205809)
(0.101134 0.000993698 0.00183608)
(0.101118 0.00137187 0.00160023)
(0.102276 0.00174295 0.00224383)
(0.101911 0.00116063 0.00211134)
(0.101902 0.00160807 0.00186192)
(0.10297 0.0017629 0.00228695)
(0.102679 0.00122274 0.0022249)
(0.102692 0.00170392 0.00197627)
(0.1036 0.00169017 0.00223311)
(0.103413 0.00120448 0.00223392)
(0.103454 0.00169634 0.00198135)
(0.104092 0.00113275 0.00217083)
(0.104161 0.00162113 0.0019167)
(0.100215 0.000240978 0.000856822)
(0.100039 1.97787e-08 0.000478786)
(0.100035 0.000119341 0.000373922)
(0.100779 0.000427917 0.00149072)
(0.100448 4.82395e-08 0.00123482)
(0.100422 0.000322418 0.00100025)
(0.101525 0.000551356 0.00188679)
(0.101114 8.38987e-08 0.00174655)
(0.10107 0.00047058 0.00144542)
(0.102324 0.000618254 0.00208966)
(0.101909 1.46009e-07 0.00202689)
(0.101877 0.000562831 0.00170608)
(0.103129 0.000639015 0.00216954)
(0.102729 2.54144e-07 0.00215217)
(0.10274 0.000608656 0.00183735)
(0.103917 0.000622362 0.00217018)
(0.103529 4.11764e-07 0.00218648)
(0.103607 0.000616235 0.00188387)
(0.104298 6.72632e-07 0.00215323)
(0.104453 0.000594679 0.00186581)
(0.100215 -0.000240915 0.000856788)
(0.100042 -0.000263724 0.000509897)
(0.100035 -0.000119323 0.000373905)
(0.100779 -0.000427791 0.00149065)
(0.100464 -0.000697445 0.00131032)
(0.100423 -0.000322371 0.0010002)
(0.101525 -0.000551142 0.00188665)
(0.101134 -0.000993646 0.0018359)
(0.10107 -0.000470499 0.00144532)
(0.102324 -0.000617895 0.00208941)
(0.101911 -0.00116053 0.00211103)
(0.101877 -0.000562696 0.00170591)
(0.10313 -0.000638425 0.00216912)
(0.10268 -0.00122261 0.00222436)
(0.10274 -0.000608429 0.00183703)
(0.103917 -0.000621386 0.00216953)
(0.103414 -0.00120428 0.00223305)
(0.103607 -0.000615872 0.00188338)
(0.104093 -0.0011324 0.00216948)
(0.104454 -0.000594066 0.0018651)
(0.100228 -0.00072036 0.000962175)
(0.100053 -0.000517257 0.000591855)
(0.100041 -0.000359936 0.00042687)
(0.10082 -0.00126026 0.00165353)
(0.100491 -0.0013495 0.0015183)
(0.100455 -0.000958871 0.00112628)
(0.101546 -0.00159056 0.00205774)
(0.101151 -0.00186523 0.00207368)
(0.101118 -0.00137199 0.00160001)
(0.102277 -0.00174309 0.00224323)
(0.101822 -0.00210715 0.00232317)
(0.101902 -0.00160826 0.00186153)
(0.102971 -0.00176314 0.00228596)
(0.102411 -0.00214872 0.00237367)
(0.102692 -0.00170423 0.00197562)
(0.103601 -0.00169059 0.00223155)
(0.102888 -0.00206673 0.00229967)
(0.103454 -0.00169684 0.00198034)
(0.103248 -0.00189264 0.00213965)
(0.104162 -0.00162192 0.00191515)
(0.100222 -0.00114333 0.00114323)
(0.100102 -0.000700727 0.00069977)
(0.100053 -0.000591901 0.000517219)
(0.100843 -0.00192898 0.00192876)
(0.100477 -0.00186479 0.00182258)
(0.100491 -0.00151844 0.0013494)
(0.101463 -0.00232665 0.00232625)
(0.101024 -0.00238323 0.00234687)
(0.101151 -0.00207395 0.00186503)
(0.101979 -0.00244167 0.00244101)
(0.101337 -0.00254415 0.00250608)
(0.101822 -0.00232364 0.00210682)
(0.102353 -0.00237876 0.00237773)
(0.101408 -0.0024729 0.00245065)
(0.102411 -0.00237444 0.00214818)
(0.102579 -0.00220463 0.00220294)
(0.1013 -0.00227124 0.00226471)
(0.102887 -0.0023009 0.00206588)
(0.101096 -0.00199992 0.00200918)
(0.103247 -0.00214165 0.00189125)
(0.100171 -0.00141649 0.00136871)
(0.0997475 -0.000779892 0.000610979)
(0.100118 -0.000811323 0.000577426)
(0.100758 -0.00214923 0.00219498)
(0.099597 -0.00200294 0.00201832)
(0.100478 -0.00185883 0.00158294)
(0.100996 -0.00238822 0.00247707)
(0.0992971 -0.00210258 0.00246156)
(0.101004 -0.00224267 0.00205893)
(0.100837 -0.00238949 0.00247639)
(0.0984879 -0.00190288 0.00237451)
(0.101292 -0.00235234 0.00220376)
(0.100456 -0.00222523 0.00231177)
(0.0974215 -0.00168906 0.00218091)
(0.101308 -0.0023224 0.00216778)
(0.0999654 -0.00196871 0.00205693)
(0.0963081 -0.00150868 0.00198473)
(0.101155 -0.00217901 0.00201147)
(0.095202 -0.00134324 0.00180172)
(0.100924 -0.0019688 0.00179482)
(0.0993753 -0.00107258 0.00118214)
(0.099473 -0.000307063 0.000349765)
(0.0984947 -0.00203199 0.00229611)
(0.0990504 -0.00172049 0.00157686)
(0.097141 -0.00204876 0.00247656)
(0.0983576 -0.00216895 0.00213124)
(0.0954388 -0.0017676 0.0022471)
(0.097193 -0.00200254 0.00203603)
(0.0937495 -0.00152266 0.00202064)
(0.0959045 -0.0017545 0.00185608)
(0.0921361 -0.00134481 0.00186452)
(0.0946707 -0.00154277 0.00173354)
(0.09348 -0.00138651 0.00165419)
(0.0996493 0.000931416 0.000650311)
(0.0997993 0.000741361 0.000375135)
(0.0994625 0.000192504 0.000129372)
(0.0990855 0.00182767 0.00127894)
(0.0998409 0.00181421 0.00115041)
(0.0992626 0.00137062 0.000636863)
(0.0984494 0.00210298 0.00154082)
(0.0999048 0.0020901 0.00153656)
(0.098913 0.00200353 0.000973389)
(0.0977081 0.00198875 0.00154698)
(0.0997676 0.00202286 0.00163181)
(0.0982953 0.00205055 0.00104999)
(0.0969404 0.00177577 0.0014803)
(0.09951 0.00189534 0.00160977)
(0.097658 0.00189943 0.00100737)
(0.0962096 0.00158154 0.00142768)
(0.0992006 0.00175112 0.00154791)
(0.097066 0.00169796 0.000959839)
(0.0988566 0.00162493 0.00147523)
(0.096508 0.00152013 0.000932786)
(0.100242 0.00125612 0.000820237)
(0.100071 0.000602768 0.000415712)
(0.10009 0.000735352 0.000294347)
(0.100828 0.00193929 0.00139071)
(0.100493 0.00158696 0.00112454)
(0.100491 0.00168401 0.000792028)
(0.101392 0.00218206 0.00166372)
(0.101128 0.00209402 0.00154106)
(0.101086 0.00208335 0.00107781)
(0.101816 0.00226068 0.0017615)
(0.101768 0.00229396 0.00173307)
(0.101664 0.00217881 0.00120445)
(0.102081 0.00226111 0.00175591)
(0.102291 0.00236667 0.00179045)
(0.102121 0.00222142 0.00123989)
(0.102215 0.00217529 0.00166899)
(0.102711 0.00232092 0.00174471)
(0.102452 0.00220909 0.00120216)
(0.103037 0.00220044 0.00162749)
(0.102681 0.00212468 0.00111875)
(0.100228 0.000962173 0.000720361)
(0.100041 0.000426869 0.000359936)
(0.100042 0.000509896 0.000263724)
(0.10082 0.00165353 0.00126026)
(0.100455 0.00112627 0.000958871)
(0.100464 0.00131032 0.000697445)
(0.101546 0.00205774 0.00159056)
(0.101118 0.00160001 0.00137199)
(0.101134 0.0018359 0.000993645)
(0.102277 0.00224322 0.00174309)
(0.101902 0.00186153 0.00160826)
(0.101911 0.00211102 0.00116053)
(0.102971 0.00228596 0.00176314)
(0.102692 0.00197561 0.00170423)
(0.10268 0.00222435 0.0012226)
(0.103601 0.00223154 0.00169059)
(0.103454 0.00198033 0.00169684)
(0.103414 0.00223304 0.00120427)
(0.104162 0.00191514 0.00162191)
(0.104093 0.00216947 0.0011324)
(0.10021 0.000595922 0.000595985)
(0.100034 0.000215923 0.000302563)
(0.100034 0.000302538 0.000215939)
(0.100751 0.00106556 0.00106569)
(0.100412 0.000582127 0.000819348)
(0.100412 0.000819277 0.000582174)
(0.101493 0.00138342 0.00138365)
(0.101053 0.000852126 0.00119873)
(0.101053 0.0011986 0.000852212)
(0.102327 0.00156302 0.00156339)
(0.101868 0.00102127 0.00143796)
(0.101868 0.00143774 0.00102141)
(0.103188 0.00163221 0.00163279)
(0.102754 0.00110642 0.00156275)
(0.102754 0.00156238 0.00110664)
(0.104034 0.00162372 0.00162461)
(0.103652 0.00112529 0.0015997)
(0.103652 0.00159914 0.00112565)
(0.10453 0.00110114 0.00157814)
(0.104531 0.00157732 0.00110168)
(0.100192 0.000200089 0.000525049)
(0.100031 3.10822e-09 0.000281396)
(0.100039 9.04567e-05 0.000188719)
(0.100705 0.000363618 0.000950939)
(0.100395 3.78865e-09 0.000768672)
(0.10038 0.000272332 0.000512554)
(0.10144 0.000480247 0.00125129)
(0.101024 3.82582e-09 0.00113314)
(0.100993 0.000410554 0.000763596)
(0.102302 0.000551435 0.00143556)
(0.101844 4.76733e-09 0.00136931)
(0.101808 0.000502441 0.000929516)
(0.103222 0.000584265 0.00152817)
(0.102751 5.99e-09 0.00150159)
(0.102727 0.000554605 0.00102361)
(0.104155 0.000587359 0.00155219)
(0.103689 7.10476e-09 0.00155442)
(0.10369 0.00057454 0.00106227)
(0.104618 1.37717e-08 0.00154947)
(0.104654 0.000570955 0.0010608)
(0.100192 -0.000200088 0.000525019)
(0.100034 -0.000215939 0.000302539)
(0.100039 -9.04593e-05 0.000188707)
(0.100705 -0.00036362 0.000950873)
(0.100412 -0.000582175 0.00081928)
(0.10038 -0.000272344 0.000512521)
(0.10144 -0.000480251 0.00125117)
(0.101053 -0.000852214 0.00119861)
(0.100993 -0.000410577 0.000763534)
(0.102302 -0.000551442 0.00143535)
(0.101868 -0.00102142 0.00143774)
(0.101808 -0.000502478 0.00092941)
(0.103222 -0.000584281 0.00152784)
(0.102754 -0.00110665 0.00156239)
(0.102727 -0.000554663 0.00102344)
(0.104155 -0.000587387 0.0015517)
(0.103652 -0.00112566 0.00159915)
(0.10369 -0.000574631 0.00106201)
(0.104531 -0.0011017 0.00157733)
(0.104654 -0.000571087 0.00106041)
(0.10021 -0.000595985 0.000595924)
(0.100041 -0.000426913 0.000359914)
(0.100034 -0.000302563 0.000215924)
(0.100751 -0.00106569 0.00106556)
(0.100455 -0.00112639 0.000958808)
(0.100412 -0.000819349 0.00058213)
(0.101493 -0.00138365 0.00138342)
(0.101118 -0.00160023 0.00137188)
(0.101053 -0.00119873 0.000852131)
(0.102327 -0.00156339 0.00156303)
(0.101902 -0.00186193 0.00160808)
(0.101868 -0.00143797 0.00102128)
(0.103188 -0.00163279 0.00163221)
(0.102692 -0.00197627 0.00170392)
(0.102754 -0.00156276 0.00110643)
(0.104034 -0.00162462 0.00162373)
(0.103454 -0.00198136 0.00169635)
(0.103652 -0.00159971 0.0011253)
(0.104161 -0.0019167 0.00162114)
(0.10453 -0.00157816 0.00110115)
(0.100228 -0.000962263 0.000720334)
(0.100071 -0.000602801 0.000415709)
(0.100042 -0.000509928 0.000263738)
(0.10082 -0.00165373 0.00126021)
(0.100492 -0.00158706 0.00112453)
(0.100464 -0.00131041 0.000697477)
(0.101546 -0.00205809 0.00159048)
(0.101128 -0.00209421 0.00154105)
(0.101134 -0.00183608 0.000993702)
(0.102276 -0.00224383 0.00174296)
(0.101767 -0.0022944 0.00173309)
(0.101911 -0.00211134 0.00116063)
(0.10297 -0.00228695 0.0017629)
(0.10229 -0.00236746 0.00179049)
(0.102679 -0.0022249 0.00122275)
(0.1036 -0.00223311 0.00169018)
(0.10271 -0.00232212 0.00174475)
(0.103413 -0.00223393 0.00120448)
(0.103035 -0.00220229 0.00162758)
(0.104092 -0.00217084 0.00113276)
(0.100242 -0.00125614 0.00082025)
(0.0997993 -0.000741361 0.000375144)
(0.10009 -0.000735363 0.000294382)
(0.100828 -0.00193937 0.00139074)
(0.0998409 -0.00181422 0.00115046)
(0.100491 -0.00168404 0.000792125)
(0.101392 -0.00218233 0.0016638)
(0.0999046 -0.00209018 0.00153665)
(0.101086 -0.00208343 0.00107798)
(0.101815 -0.00226129 0.00176168)
(0.0997671 -0.0020231 0.00163199)
(0.101664 -0.00217906 0.00120476)
(0.102079 -0.00226208 0.0017562)
(0.099509 -0.00189578 0.00161014)
(0.102121 -0.00222195 0.00124045)
(0.102213 -0.00217671 0.00166949)
(0.0991987 -0.00175177 0.00154859)
(0.10245 -0.0022099 0.00120309)
(0.0988534 -0.00162588 0.00147643)
(0.102678 -0.00212589 0.00112031)
(0.0996493 -0.000931422 0.000650351)
(0.0994625 -0.00019253 0.000129407)
(0.0990854 -0.00182773 0.00127904)
(0.0992625 -0.00137065 0.000636998)
(0.098449 -0.00210311 0.00154101)
(0.0989129 -0.0020036 0.000973644)
(0.0977073 -0.00198895 0.00154736)
(0.0982949 -0.00205066 0.00105042)
(0.0969388 -0.00177607 0.00148105)
(0.0976572 -0.00189963 0.00100815)
(0.0962067 -0.00158195 0.00142903)
(0.0970645 -0.00169829 0.000961245)
(0.0965054 -0.00152057 0.000935268)
(0.0996725 0.000629494 0.00015403)
(0.0997132 0.000687952 0.00010391)
(0.0993802 5.89817e-05 -1.79532e-08)
(0.0991592 0.00154425 0.000353239)
(0.0998377 0.0016223 0.000341592)
(0.0992677 0.00120005 -8.27942e-08)
(0.0986638 0.0019474 0.00045764)
(0.0999631 0.00199139 0.000485375)
(0.0989805 0.00188847 -1.83879e-07)
(0.0982128 0.00196038 0.00048065)
(0.0999921 0.00199654 0.000539447)
(0.0984748 0.00200638 -3.24848e-07)
(0.0977774 0.00182432 0.000471266)
(0.10001 0.00191073 0.000546058)
(0.097996 0.00191447 -5.51251e-07)
(0.0973648 0.00164036 0.000457522)
(0.100009 0.00180364 0.000532863)
(0.0975718 0.00173438 -9.46051e-07)
(0.0999834 0.0016818 0.000510371)
(0.0971827 0.00154668 -1.63336e-06)
(0.100243 0.00116241 0.000267413)
(0.100064 0.000537336 0.000135817)
(0.100087 0.000707027 -2.95767e-08)
(0.100782 0.00182624 0.000465749)
(0.100463 0.00142414 0.000370915)
(0.100477 0.00161781 -8.43096e-08)
(0.101401 0.00207615 0.000575535)
(0.101089 0.00193358 0.00052522)
(0.101066 0.00203468 -1.45932e-07)
(0.101988 0.00213379 0.000622892)
(0.101798 0.00212855 0.000605957)
(0.101694 0.00211764 -2.62825e-07)
(0.102507 0.00216466 0.000631052)
(0.10249 0.00221078 0.000639401)
(0.102269 0.0021501 -4.75363e-07)
(0.102935 0.00215636 0.00061018)
(0.10312 0.00224117 0.00063429)
(0.102742 0.00217957 -8.1327e-07)
(0.103688 0.00219609 0.000601083)
(0.103124 0.00213372 -1.32261e-06)
(0.100215 0.000856786 0.000240915)
(0.100035 0.000373904 0.000119323)
(0.100039 0.000478785 -1.98055e-08)
(0.100779 0.00149064 0.00042779)
(0.100423 0.0010002 0.00032237)
(0.100448 0.00123482 -4.85865e-08)
(0.101525 0.00188665 0.000551139)
(0.10107 0.00144532 0.000470496)
(0.101114 0.00174654 -8.56829e-08)
(0.102324 0.0020894 0.00061789)
(0.101877 0.0017059 0.000562691)
(0.101909 0.00202689 -1.49958e-07)
(0.10313 0.00216911 0.000638418)
(0.10274 0.00183703 0.000608421)
(0.102729 0.00215217 -2.60665e-07)
(0.103917 0.00216952 0.000621376)
(0.103607 0.00188337 0.000615861)
(0.103529 0.00218647 -4.21159e-07)
(0.104454 0.00186509 0.000594052)
(0.104298 0.00215322 -6.8529e-07)
(0.100192 0.000525016 0.000200088)
(0.100039 0.000188706 9.04584e-05)
(0.100031 0.000281395 -3.58319e-09)
(0.100705 0.000950869 0.000363617)
(0.10038 0.000512517 0.000272342)
(0.100395 0.000768669 -5.06862e-09)
(0.10144 0.00125116 0.000480246)
(0.100993 0.000763529 0.000410573)
(0.101024 0.00113313 -7.19713e-09)
(0.102302 0.00143534 0.000551435)
(0.101808 0.000929402 0.000502471)
(0.101844 0.00136931 -1.09494e-08)
(0.103222 0.00152783 0.00058427)
(0.102727 0.00102343 0.000554653)
(0.102751 0.00150158 -1.54535e-08)
(0.104155 0.00155169 0.000587373)
(0.10369 0.00106199 0.000574617)
(0.103689 0.00155441 -2.02677e-08)
(0.104654 0.0010604 0.000571069)
(0.104618 0.00154946 -3.12002e-08)