/*--------------------------------*- C++ -*----------------------------------*\
| =========                 |                                                 |
| \\      /  F ield         | OpenFOAM: The Open Source CFD Toolbox           |
|  \\    /   O peration     | Version:  2212                                  |
|   \\  /    A nd           | Website:  www.openfoam.com                      |
|    \\/     M anipulation  |                                                 |
\*---------------------------------------------------------------------------*/
FoamFile
{
    version     2.0;
    format      ascii;
    arch        "LSB;label=32;scalar=64";
    class       volScalarField;
    location    "0.95";
    object      nut;
}
// * * * * * * * * * * * * * * * * * * * * * * * * * * * * * * * * * * * * * //

dimensions      [0 2 -1 0 0 0 0];

internalField   nonuniform List<scalar> 
682
(
1.72458e-05
1.69484e-05
1.66715e-05
1.64143e-05
1.61757e-05
1.59545e-05
1.575e-05
1.55616e-05
1.53913e-05
1.52349e-05
1.50898e-05
1.64584e-05
1.61742e-05
1.59107e-05
1.56661e-05
1.54392e-05
1.52291e-05
1.50351e-05
1.48567e-05
1.46949e-05
1.45465e-05
1.44111e-05
1.44318e-05
1.41945e-05
1.39754e-05
1.37717e-05
1.35831e-05
1.34092e-05
1.32507e-05
1.31078e-05
1.29716e-05
1.28499e-05
1.27319e-05
1.16364e-05
1.14594e-05
1.1295e-05
1.11459e-05
1.09914e-05
1.08512e-05
1.07229e-05
1.06097e-05
1.04997e-05
1.03997e-05
1.0307e-05
1.02214e-05
7.97682e-06
7.86748e-06
7.76666e-06
7.67189e-06
7.58316e-06
7.49951e-06
7.42172e-06
7.35035e-06
7.28343e-06
7.22294e-06
7.17013e-06
7.12153e-06
3.99843e-06
3.96021e-06
3.92361e-06
3.88851e-06
3.85522e-06
3.82378e-06
3.79442e-06
3.76737e-06
3.74171e-06
3.7179e-06
3.6966e-06
3.67703e-06
6.20832e-05
5.94447e-05
5.69906e-05
5.46955e-05
5.25501e-05
5.05454e-05
4.86681e-05
4.69174e-05
4.52614e-05
4.37707e-05
4.20961e-05
5.98559e-05
5.74117e-05
5.51116e-05
5.29439e-05
5.09064e-05
4.89804e-05
4.71638e-05
4.54647e-05
4.38363e-05
4.24009e-05
4.08685e-05
5.00882e-05
4.79485e-05
4.59329e-05
4.39933e-05
4.22297e-05
4.05003e-05
3.88649e-05
3.74364e-05
3.57837e-05
3.50258e-05
3.37212e-05
3.51349e-05
3.33272e-05
3.16085e-05
3.01939e-05
2.83994e-05
2.75306e-05
2.59275e-05
2.50337e-05
2.36313e-05
2.28349e-05
2.17235e-05
2.11746e-05
1.59108e-05
1.49758e-05
1.41387e-05
1.33396e-05
1.26694e-05
1.20473e-05
1.14986e-05
1.09918e-05
1.04872e-05
1.00202e-05
9.72511e-06
9.49282e-06
8.10228e-06
8.00785e-06
7.92266e-06
7.83368e-06
7.75186e-06
7.67568e-06
7.60574e-06
7.54076e-06
7.48087e-06
7.42445e-06
7.37589e-06
7.33188e-06
0.000108874
0.000105096
0.000101503
9.8089e-05
9.48541e-05
9.17957e-05
8.89026e-05
8.61652e-05
8.35705e-05
8.11418e-05
7.93579e-05
0.000104974
0.0001014
9.79844e-05
9.47389e-05
9.16656e-05
8.87181e-05
8.59051e-05
8.3254e-05
8.07564e-05
7.8543e-05
7.67438e-05
9.07614e-05
8.75515e-05
8.44427e-05
8.15471e-05
7.88712e-05
7.62005e-05
7.35411e-05
7.11152e-05
6.87247e-05
6.74085e-05
6.46615e-05
6.90944e-05
6.60947e-05
6.34039e-05
6.06402e-05
5.84297e-05
5.65094e-05
5.38313e-05
5.09541e-05
4.93326e-05
4.70253e-05
4.57136e-05
4.42493e-05
3.51771e-05
3.29424e-05
3.19075e-05
2.99868e-05
2.90126e-05
2.74209e-05
2.65535e-05
2.51586e-05
2.4421e-05
2.31884e-05
2.25964e-05
2.1682e-05
1.19574e-05
1.17964e-05
1.16622e-05
1.15016e-05
1.13689e-05
1.12441e-05
1.11324e-05
1.10258e-05
1.09347e-05
1.08342e-05
1.07435e-05
1.06669e-05
0.000139378
0.000135039
0.000130901
0.000126957
0.000123201
0.000119626
0.000116225
0.000112995
0.000109929
0.000106997
0.000104825
0.000134449
0.00013029
0.000126324
0.000122553
0.000118975
0.000115574
0.000112332
0.000109243
0.000106334
0.000103547
0.000101545
0.000118493
0.000114652
0.000110983
0.000107493
0.000104178
0.000100988
9.79481e-05
9.50662e-05
9.24549e-05
8.9971e-05
8.80567e-05
9.33131e-05
8.98028e-05
8.64671e-05
8.32828e-05
8.02868e-05
7.75054e-05
7.47953e-05
7.21244e-05
6.96537e-05
6.78633e-05
6.5883e-05
6.28738e-05
5.04686e-05
4.80972e-05
4.59169e-05
4.38764e-05
4.19665e-05
4.01027e-05
3.86133e-05
3.68072e-05
3.59119e-05
3.42832e-05
3.36131e-05
3.22774e-05
1.50005e-05
1.47632e-05
1.4542e-05
1.43405e-05
1.41517e-05
1.39753e-05
1.38131e-05
1.36618e-05
1.35265e-05
1.33695e-05
1.32479e-05
1.31323e-05
0.000150961
0.000146405
0.000142069
0.000137945
0.000134024
0.000130296
0.000126752
0.000123387
0.000120207
0.000117164
0.000114849
0.000134072
0.000129869
0.000125868
0.000122065
0.000118451
0.000115017
0.000111757
0.000108668
0.000105765
0.000102974
0.00010096
0.000107594
0.000103698
0.000100007
9.65091e-05
9.31994e-05
9.00752e-05
8.71253e-05
8.43413e-05
8.1714e-05
7.92945e-05
7.70421e-05
7.50034e-05
6.06779e-05
5.79032e-05
5.53431e-05
5.29717e-05
5.07717e-05
4.87262e-05
4.68345e-05
4.5072e-05
4.34568e-05
4.19118e-05
4.05728e-05
3.89375e-05
1.69503e-05
1.66594e-05
1.63884e-05
1.6136e-05
1.59002e-05
1.56799e-05
1.54743e-05
1.52867e-05
1.51119e-05
1.49503e-05
1.48009e-05
1.46776e-05
0.000156367
0.000151687
0.000147239
0.000143011
0.000138993
0.000135174
0.000131546
0.000128102
0.000124838
0.000121723
0.000119302
0.00013927
0.000134975
0.000130891
0.00012701
0.000123325
0.000119829
0.000116511
0.000113366
0.000110395
0.000107551
0.000105493
0.000112781
0.000108827
0.000105079
0.000101529
9.81672e-05
9.49885e-05
9.19944e-05
8.91513e-05
8.6465e-05
8.39247e-05
8.15629e-05
7.97142e-05
6.49739e-05
6.2121e-05
5.94973e-05
5.70643e-05
5.47944e-05
5.26794e-05
5.07038e-05
4.88583e-05
4.71415e-05
4.55218e-05
4.40672e-05
4.24267e-05
1.75651e-05
1.72451e-05
1.69475e-05
1.66702e-05
1.64127e-05
1.61742e-05
1.59533e-05
1.57493e-05
1.55614e-05
1.53918e-05
1.52364e-05
1.50918e-05
0.000150911
0.000146354
0.000142018
0.000137894
0.000133973
0.000130245
0.000126702
0.000123337
0.000120153
0.000117111
0.000114799
0.000134339
0.000130188
0.000126233
0.000122474
0.000118911
0.000115527
0.0001123
0.000109228
0.000106331
0.000103567
0.00010159
0.000108692
0.000104942
0.000101369
9.79639e-05
9.47283e-05
9.16753e-05
8.87441e-05
8.59579e-05
8.33306e-05
8.08535e-05
7.86397e-05
7.68839e-05
6.25264e-05
5.99073e-05
5.746e-05
5.51633e-05
5.3001e-05
5.09697e-05
4.90537e-05
4.72533e-05
4.55649e-05
4.3955e-05
4.25216e-05
4.09951e-05
1.67648e-05
1.64578e-05
1.61733e-05
1.59096e-05
1.56649e-05
1.54381e-05
1.52283e-05
1.50346e-05
1.48567e-05
1.46955e-05
1.45476e-05
1.44125e-05
0.000134117
0.000129877
0.000125832
0.000121981
0.000118319
0.000114834
0.000111519
0.000108375
0.000105413
0.000102579
0.000100481
0.000118492
0.00011464
0.000110956
0.000107449
0.000104123
0.000100918
9.78576e-05
9.49654e-05
9.23222e-05
8.9856e-05
8.79099e-05
9.42049e-05
9.08059e-05
8.75698e-05
8.44677e-05
8.15445e-05
7.88888e-05
7.61777e-05
7.35863e-05
7.10592e-05
6.87465e-05
6.73182e-05
6.46962e-05
5.24316e-05
5.01682e-05
4.80033e-05
4.59932e-05
4.40455e-05
4.22883e-05
4.05537e-05
3.89676e-05
3.74793e-05
3.58988e-05
3.50158e-05
3.3744e-05
1.46891e-05
1.44316e-05
1.41938e-05
1.39747e-05
1.37708e-05
1.35824e-05
1.34087e-05
1.32505e-05
1.3108e-05
1.29726e-05
1.2851e-05
1.27331e-05
0.000103714
9.99895e-05
9.64517e-05
9.30965e-05
8.9944e-05
8.69511e-05
8.41179e-05
8.14497e-05
7.89736e-05
7.67045e-05
7.44883e-05
8.97835e-05
8.6443e-05
8.32452e-05
8.02326e-05
7.74652e-05
7.47163e-05
7.20601e-05
6.95137e-05
6.77575e-05
6.5735e-05
6.27192e-05
6.90622e-05
6.61581e-05
6.3304e-05
6.06942e-05
5.8248e-05
5.65741e-05
5.35853e-05
5.13694e-05
4.87574e-05
4.74457e-05
4.53566e-05
4.42957e-05
3.5082e-05
3.33768e-05
3.14967e-05
3.02685e-05
2.8423e-05
2.7569e-05
2.59272e-05
2.50649e-05
2.36345e-05
2.28797e-05
2.17274e-05
2.11873e-05
1.1636e-05
1.14598e-05
1.1294e-05
1.11453e-05
1.0991e-05
1.08511e-05
1.07224e-05
1.06098e-05
1.04995e-05
1.04003e-05
1.03074e-05
1.02217e-05
5.78498e-05
5.52791e-05
5.28956e-05
5.06784e-05
4.86162e-05
4.67009e-05
4.49111e-05
4.32695e-05
4.16789e-05
4.03126e-05
3.86787e-05
4.80379e-05
4.58453e-05
4.38311e-05
4.18902e-05
4.00968e-05
3.85265e-05
3.68096e-05
3.57861e-05
3.41776e-05
3.35034e-05
3.21796e-05
3.48602e-05
3.32006e-05
3.13712e-05
3.0312e-05
2.8587e-05
2.7696e-05
2.62326e-05
2.54069e-05
2.41404e-05
2.33318e-05
2.24717e-05
2.16873e-05
1.58828e-05
1.50042e-05
1.41131e-05
1.33519e-05
1.26498e-05
1.20579e-05
1.14874e-05
1.10008e-05
1.04841e-05
1.00286e-05
9.72086e-06
9.49992e-06
7.97642e-06
7.86814e-06
7.76599e-06
7.67181e-06
7.58232e-06
7.49935e-06
7.42102e-06
7.35017e-06
7.28299e-06
7.22279e-06
7.16988e-06
7.12122e-06
1.66597e-05
1.63891e-05
1.61372e-05
1.59018e-05
1.56817e-05
1.54762e-05
1.52894e-05
1.51134e-05
1.49518e-05
1.48002e-05
1.46724e-05
1.47635e-05
1.45425e-05
1.43414e-05
1.41527e-05
1.39764e-05
1.38138e-05
1.36622e-05
1.3524e-05
1.337e-05
1.32458e-05
1.31296e-05
1.1955e-05
1.17978e-05
1.16568e-05
1.15059e-05
1.13669e-05
1.12453e-05
1.11304e-05
1.10263e-05
1.09326e-05
1.08338e-05
1.07404e-05
1.06644e-05
8.10181e-06
8.00839e-06
7.92148e-06
7.83398e-06
7.75077e-06
7.67545e-06
7.60463e-06
7.54032e-06
7.47981e-06
7.42369e-06
7.37478e-06
7.33089e-06
3.99841e-06
3.96024e-06
3.92346e-06
3.88835e-06
3.85492e-06
3.82352e-06
3.7941e-06
3.76711e-06
3.74144e-06
3.71766e-06
3.69636e-06
3.67674e-06
)
;

boundaryField
{
    inlet
    {
        type            calculated;
        value           nonuniform List<scalar> 0();
    }
    ami1
    {
        type            cyclicAMI;
        value           nonuniform List<scalar> 0();
    }
    walls
    {
        type            nutkWallFunction;
        blending        stepwise;
        value           uniform 0;
    }
    ami2
    {
        type            cyclicAMI;
        value           nonuniform List<scalar> 0();
    }
    outlet
    {
        type            calculated;
        value           nonuniform List<scalar> 0();
    }
    procBoundary9to0
    {
        type            processor;
        value           nonuniform List<scalar> 
40
(
1.7566e-05
1.67656e-05
1.46894e-05
1.46894e-05
1.1826e-05
8.07583e-06
4.03716e-06
6.51027e-05
6.2653e-05
5.25037e-05
5.25037e-05
3.70244e-05
1.67756e-05
8.19921e-06
0.000113011
0.000108902
9.43397e-05
9.43397e-05
7.21852e-05
3.65273e-05
1.21256e-05
0.000144068
0.000138957
0.00012268
0.00012268
9.71382e-05
5.31212e-05
1.52555e-05
0.000155882
0.000138642
0.000138642
0.000111831
6.38341e-05
1.72632e-05
0.000161426
0.000143945
0.000143945
0.000117076
6.82259e-05
1.79093e-05
)
;
    }
    procBoundary9to1
    {
        type            processor;
        value           nonuniform List<scalar> 
30
(
0.000155842
0.00013886
0.00013886
0.000112754
6.54964e-05
1.70983e-05
0.000138703
0.000122686
0.000122686
9.79004e-05
5.49598e-05
1.49696e-05
0.000107789
9.34611e-05
9.34611e-05
7.22053e-05
3.70462e-05
1.18264e-05
6.07891e-05
5.05351e-05
5.05351e-05
3.66877e-05
1.67846e-05
8.07606e-06
1.69507e-05
1.50006e-05
1.50006e-05
1.2127e-05
8.1995e-06
4.03719e-06
)
;
    }
    procBoundary9to7
    {
        type            processor;
        value           nonuniform List<scalar> 
59
(
1.49575e-05
1.42919e-05
1.26344e-05
1.01445e-05
7.07674e-06
3.65918e-06
4.04766e-05
3.95408e-05
3.2306e-05
1.99843e-05
9.1352e-06
7.29297e-06
7.56727e-05
7.29699e-05
6.16798e-05
4.18298e-05
2.07869e-05
1.05994e-05
0.0001005
9.71397e-05
8.38209e-05
6.02321e-05
3.1066e-05
1.30261e-05
0.000110453
9.66508e-05
7.09949e-05
3.75175e-05
1.45399e-05
0.000114922
0.00010116
7.57528e-05
4.07105e-05
1.49608e-05
0.000110456
9.72975e-05
7.32232e-05
3.9622e-05
1.42929e-05
9.62679e-05
8.37215e-05
6.1726e-05
3.23186e-05
1.26341e-05
7.0658e-05
6.007e-05
4.17904e-05
1.99772e-05
1.01441e-05
3.74094e-05
3.09794e-05
2.07587e-05
9.12433e-06
7.07597e-06
1.45425e-05
1.30229e-05
1.05958e-05
7.29117e-06
3.65844e-06
)
;
    }
    procBoundary9to8
    {
        type            processor;
        value           nonuniform List<scalar> 
132
(
1.66597e-05
1.63891e-05
1.61371e-05
1.59017e-05
1.56815e-05
1.54758e-05
1.52888e-05
1.51127e-05
1.49508e-05
1.47995e-05
1.46754e-05
5.78402e-05
5.52663e-05
5.28781e-05
5.06563e-05
4.8589e-05
4.66624e-05
4.48774e-05
4.32154e-05
4.16475e-05
4.02385e-05
3.86163e-05
0.00010373
0.000100011
9.64759e-05
9.31226e-05
8.99481e-05
8.6938e-05
8.41135e-05
8.14371e-05
7.89672e-05
7.668e-05
7.45315e-05
0.000134168
0.000129945
0.000125917
0.000122079
0.000118425
0.000114945
0.000111637
0.000108501
0.000105543
0.000102711
0.000100621
0.000156417
0.000151721
0.000147254
0.000143003
0.000138959
0.000135112
0.000131453
0.000127977
0.000124679
0.000121533
0.000119048
0.000156417
0.000151721
0.000147254
0.000143003
0.000138959
0.000135112
0.000131453
0.000127977
0.000124679
0.000121533
0.000119048
0.000161965
0.000157171
0.000152619
0.000148295
0.000144188
0.000140287
0.000136585
0.000133074
0.000129749
0.00012659
0.00012407
0.000156378
0.000151713
0.000147282
0.000143073
0.000139074
0.000135278
0.000131676
0.000128263
0.000125035
0.000121964
0.000119564
0.000139368
0.000135053
0.000130946
0.00012704
0.000123332
0.000119814
0.000116477
0.000113318
0.000110332
0.000107483
0.000105381
0.000108883
0.000105122
0.000101554
9.81716e-05
9.49908e-05
9.19928e-05
8.91508e-05
8.64719e-05
8.39198e-05
8.15485e-05
7.95967e-05
6.21013e-05
5.94774e-05
5.70449e-05
5.47749e-05
5.26576e-05
5.06804e-05
4.88342e-05
4.71173e-05
4.54978e-05
4.40445e-05
4.24388e-05
1.72459e-05
1.69485e-05
1.66717e-05
1.64147e-05
1.61766e-05
1.59559e-05
1.57519e-05
1.55642e-05
1.53934e-05
1.52384e-05
1.50943e-05
)
;
    }
}


// ************************************************************************* //
