/*--------------------------------*- C++ -*----------------------------------*\
| =========                 |                                                 |
| \\      /  F ield         | OpenFOAM: The Open Source CFD Toolbox           |
|  \\    /   O peration     | Version:  2212                                  |
|   \\  /    A nd           | Website:  www.openfoam.com                      |
|    \\/     M anipulation  |                                                 |
\*---------------------------------------------------------------------------*/
FoamFile
{
    version     2.0;
    format      ascii;
    arch        "LSB;label=32;scalar=64";
    class       volVectorField;
    location    "0.2";
    object      U;
}
// * * * * * * * * * * * * * * * * * * * * * * * * * * * * * * * * * * * * * //

dimensions      [0 1 -1 0 0 0 0];

internalField   nonuniform List<vector> 
689
(
(0.0434731 -0.000129381 6.64938e-05)
(0.0434497 -7.76832e-05 4.21328e-05)
(0.0434609 -4.85492e-05 2.70447e-05)
(0.0434795 -3.14754e-05 1.79364e-05)
(0.0435032 -2.07201e-05 1.13238e-05)
(0.0435288 -1.37479e-05 6.8644e-06)
(0.0435532 -9.35207e-06 3.46546e-06)
(0.0435818 -6.29693e-06 1.59012e-06)
(0.0665346 -0.000109336 0.000361612)
(0.0663093 -0.000101406 0.000208136)
(0.0662265 -8.07491e-05 0.00012289)
(0.0661958 -6.10873e-05 7.50329e-05)
(0.0661909 -4.54203e-05 4.61399e-05)
(0.0661996 -3.36611e-05 2.74677e-05)
(0.0662137 -2.50301e-05 1.58003e-05)
(0.0662299 -1.82284e-05 8.96678e-06)
(0.0843015 0.000156401 0.000553702)
(0.0835061 1.12092e-05 0.000325713)
(0.0830375 -4.70231e-05 0.000195672)
(0.0827599 -6.23602e-05 0.00011514)
(0.082593 -5.98154e-05 6.61784e-05)
(0.0824964 -5.15978e-05 3.61184e-05)
(0.0824442 -4.21434e-05 1.72279e-05)
(0.0824188 -3.34116e-05 5.72553e-06)
(0.0824077 -2.55476e-05 -1.37722e-07)
(0.0935515 0.0012601 0.000892313)
(0.0931814 0.00117971 0.0010014)
(0.0927818 0.000899384 0.0007439)
(0.0922495 0.000590843 0.000503297)
(0.0917827 0.00037111 0.000329626)
(0.0914431 0.000226005 0.000212527)
(0.0912078 0.000130293 0.000132674)
(0.0910473 6.98172e-05 7.79238e-05)
(0.0909415 3.37888e-05 4.25153e-05)
(0.0908751 1.33474e-05 2.00391e-05)
(0.0908356 2.47821e-06 6.39259e-06)
(0.0908138 -2.62761e-06 -1.70819e-06)
(0.0951784 0.000963952 0.000455795)
(0.0950835 0.00101811 0.000564133)
(0.0949905 0.000833627 0.00047177)
(0.0948237 0.000625203 0.000340622)
(0.0946432 0.000445586 0.000238316)
(0.094491 0.000305848 0.000165421)
(0.0943743 0.000203548 0.00011037)
(0.0942883 0.000131483 6.8301e-05)
(0.0942277 8.2716e-05 3.77398e-05)
(0.0941874 5.05464e-05 1.74145e-05)
(0.0941624 2.98253e-05 4.21525e-06)
(0.0941485 1.68611e-05 -4.03142e-06)
(0.0944368 0.000901209 0.00011688)
(0.0945073 0.00090709 0.000193431)
(0.0945712 0.000768098 0.000194133)
(0.0946115 0.000606002 0.000163296)
(0.0946208 0.000457701 0.000127302)
(0.0946166 0.000333824 9.28572e-05)
(0.0946096 0.000234237 6.30716e-05)
(0.0946034 0.000159405 3.87012e-05)
(0.0945987 0.000106624 2.00069e-05)
(0.0945963 7.03e-05 6.81983e-06)
(0.0945964 4.56967e-05 -1.96617e-06)
(0.0945983 2.93392e-05 -7.62543e-06)
(0.0912255 0.000897435 -0.000343922)
(0.0915565 0.000821403 -0.000216055)
(0.0918464 0.000683021 -0.000116437)
(0.0921097 0.000538517 -5.89239e-05)
(0.0923019 0.000407383 -2.86865e-05)
(0.0924374 0.0002937 -1.47336e-05)
(0.092534 0.000205274 -9.76476e-06)
(0.0926023 0.000141291 -9.23495e-06)
(0.0926501 9.63551e-05 -1.06061e-05)
(0.0926839 6.54517e-05 -1.22884e-05)
(0.0927086 4.4439e-05 -1.35643e-05)
(0.0927268 3.06076e-05 -1.43139e-05)
(0.0850382 0.0005984 -0.00104656)
(0.0858393 0.000465024 -0.000782935)
(0.0864511 0.000381241 -0.000530165)
(0.0869431 0.000304551 -0.000355674)
(0.087289 0.000227429 -0.000233087)
(0.0875277 0.000163397 -0.000150538)
(0.0876928 0.000115327 -9.75014e-05)
(0.0878063 8.10679e-05 -6.46613e-05)
(0.0878838 5.75906e-05 -4.43599e-05)
(0.0879372 4.18574e-05 -3.25343e-05)
(0.0879748 3.16957e-05 -2.56132e-05)
(0.0880006 2.40728e-05 -2.0867e-05)
(0.0758372 0.00036712 -0.0018161)
(0.0771353 0.000161402 -0.00135497)
(0.0778991 0.000190449 -0.00092559)
(0.0783175 0.000164783 -0.000595621)
(0.0785888 0.000109134 -0.000369827)
(0.0787729 6.91598e-05 -0.0002277)
(0.0788968 4.68606e-05 -0.000141584)
(0.0789814 3.44434e-05 -8.99893e-05)
(0.0790408 2.75032e-05 -5.90624e-05)
(0.0790844 2.33901e-05 -4.01846e-05)
(0.079116 2.02904e-05 -2.86903e-05)
(0.0629915 -0.00108753 -0.0011621)
(0.0640071 -0.0009368 -0.000841114)
(0.0642106 -0.000349359 -0.00065026)
(0.0641913 -7.5004e-05 -0.000445547)
(0.0642569 -7.80976e-07 -0.00028401)
(0.0643449 1.33865e-05 -0.000177687)
(0.0644099 1.52151e-05 -0.000111362)
(0.0644569 1.46855e-05 -7.09999e-05)
(0.064495 1.36221e-05 -4.64809e-05)
(0.0645273 1.19963e-05 -3.04776e-05)
(0.0645547 9.57139e-06 -1.98043e-05)
(0.0505082 -0.0028084 0.000682672)
(0.0456916 -0.00124141 -9.20599e-05)
(0.0442873 -0.000332455 -0.000336591)
(0.0436324 -0.000112608 -0.000224594)
(0.0434469 -6.73522e-05 -0.000128271)
(0.0434339 -4.19826e-05 -7.74131e-05)
(0.0434528 -2.68185e-05 -4.88217e-05)
(0.0434768 -1.76373e-05 -3.15893e-05)
(0.0435035 -1.11555e-05 -2.08482e-05)
(0.0435302 -6.43367e-06 -1.41863e-05)
(0.0435607 -3.7284e-06 -9.78748e-06)
(0.0642812 -0.000281992 5.07425e-06)
(0.0643568 -0.000175528 -8.29977e-06)
(0.0644155 -0.000110167 -1.18849e-05)
(0.064459 -7.05217e-05 -1.31307e-05)
(0.064495 -4.60472e-05 -1.25742e-05)
(0.0645264 -3.06993e-05 -1.17651e-05)
(0.0645534 -2.01607e-05 -1.04871e-05)
(0.0645772 -1.32562e-05 -8.90677e-06)
(0.086267 -0.000153871 0.00045393)
(0.0861329 -0.000131632 0.000272433)
(0.0860618 -0.00010044 0.00016744)
(0.086024 -7.31716e-05 0.000103885)
(0.0860067 -5.24239e-05 6.42071e-05)
(0.0860013 -3.73177e-05 3.89992e-05)
(0.0860021 -2.67475e-05 2.25417e-05)
(0.086005 -1.93987e-05 1.19172e-05)
(0.0962869 8.59407e-05 0.000812838)
(0.0959854 9.33362e-07 0.000537762)
(0.0957499 -3.7732e-05 0.000345648)
(0.0955831 -4.97482e-05 0.000217321)
(0.0954687 -4.86412e-05 0.000134695)
(0.0953925 -4.24541e-05 8.21078e-05)
(0.0953439 -3.50722e-05 4.82437e-05)
(0.0953141 -2.80619e-05 2.6623e-05)
(0.0952963 -2.18614e-05 1.2983e-05)
(0.101191 0.000668387 0.000891596)
(0.101482 0.000680834 0.00102513)
(0.101564 0.000558788 0.000872198)
(0.101499 0.000402315 0.00065685)
(0.101361 0.000268545 0.000469619)
(0.101216 0.000169565 0.000323722)
(0.10109 0.000101771 0.000216067)
(0.100991 5.79167e-05 0.000139904)
(0.100916 3.05103e-05 8.73319e-05)
(0.100862 1.38505e-05 5.15584e-05)
(0.100824 4.22996e-06 2.77627e-05)
(0.100799 -8.75658e-07 1.24448e-05)
(0.10318 0.000567163 0.000457627)
(0.103391 0.000596111 0.000555181)
(0.103507 0.000546635 0.000512505)
(0.103556 0.000453777 0.000418565)
(0.103548 0.000352454 0.000321458)
(0.103509 0.000260703 0.00023593)
(0.103463 0.0001853 0.000165832)
(0.103418 0.00012731 0.000111379)
(0.103379 8.49147e-05 7.08253e-05)
(0.103347 5.51218e-05 4.16492e-05)
(0.103323 3.48435e-05 2.14138e-05)
(0.103305 2.14412e-05 8.22549e-06)
(0.103363 0.00045982 0.000110781)
(0.103476 0.000481749 0.000170472)
(0.103562 0.000454959 0.000184899)
(0.103643 0.000396505 0.000169393)
(0.103699 0.000324875 0.000141528)
(0.103732 0.000253619 0.000110357)
(0.10375 0.000190279 8.06037e-05)
(0.103757 0.000138229 5.46825e-05)
(0.103758 9.79179e-05 3.35945e-05)
(0.103756 6.80721e-05 1.73632e-05)
(0.103752 4.67276e-05 5.48926e-06)
(0.103748 3.17893e-05 -2.63233e-06)
(0.101853 0.000335391 -0.000228185)
(0.101918 0.000347999 -0.000173702)
(0.102004 0.000312742 -0.000114589)
(0.102125 0.000263086 -7.27611e-05)
(0.102234 0.000212075 -4.46761e-05)
(0.102319 0.000164724 -2.7519e-05)
(0.102383 0.000124237 -1.84125e-05)
(0.102429 9.17582e-05 -1.4543e-05)
(0.10246 6.68675e-05 -1.36659e-05)
(0.10248 4.84309e-05 -1.42589e-05)
(0.102493 3.51921e-05 -1.53553e-05)
(0.102501 2.58535e-05 -1.59868e-05)
(0.0985252 -2.65572e-05 -0.000611221)
(0.09862 -5.01533e-05 -0.000502232)
(0.0987708 -5.83652e-05 -0.000389671)
(0.0989442 -4.55896e-05 -0.00029519)
(0.0990863 -2.93504e-05 -0.000215227)
(0.0991903 -1.58552e-05 -0.000152618)
(0.099266 -5.90736e-06 -0.000107129)
(0.0993202 7.45533e-07 -7.56653e-05)
(0.0993578 4.98745e-06 -5.46478e-05)
(0.0993834 7.52957e-06 -4.10141e-05)
(0.0994007 9.32219e-06 -3.25886e-05)
(0.0994121 9.43338e-06 -2.59542e-05)
(0.093497 -0.000519486 -0.000776062)
(0.0937925 -0.000691806 -0.000550866)
(0.0939219 -0.00058481 -0.000441633)
(0.0939911 -0.000420832 -0.000350344)
(0.0940197 -0.000287463 -0.000263249)
(0.0940343 -0.000188974 -0.000190903)
(0.0940466 -0.000120138 -0.000135646)
(0.0940581 -7.43313e-05 -9.54288e-05)
(0.0940683 -4.43116e-05 -6.73152e-05)
(0.0940772 -2.51421e-05 -4.77367e-05)
(0.094084 -1.45955e-05 -3.30458e-05)
(0.0866928 -0.00243052 0.000430651)
(0.0871715 -0.00217009 0.000262772)
(0.0869178 -0.0013505 -1.65729e-05)
(0.0865434 -0.000780877 -0.000134744)
(0.0862822 -0.000461772 -0.000148057)
(0.0861397 -0.000277061 -0.000128079)
(0.0860643 -0.000168124 -9.98399e-05)
(0.0860253 -0.000103309 -7.35472e-05)
(0.0860075 -6.34935e-05 -5.29944e-05)
(0.0860021 -3.82723e-05 -3.80181e-05)
(0.0860017 -2.27699e-05 -2.69878e-05)
(0.07304 -0.00200978 0.000806562)
(0.0700153 -0.00174134 0.000434415)
(0.0683225 -0.00111583 6.33456e-05)
(0.0671023 -0.000634408 -7.28086e-05)
(0.0665134 -0.000357675 -0.000112603)
(0.0662994 -0.000203252 -0.000104279)
(0.0662223 -0.000120075 -8.30785e-05)
(0.0661945 -7.38634e-05 -6.23401e-05)
(0.0661913 -4.54431e-05 -4.61674e-05)
(0.0662004 -2.75503e-05 -3.46168e-05)
(0.0662147 -1.64877e-05 -2.5913e-05)
(0.0783134 -0.000597745 -0.000167089)
(0.0785863 -0.000368243 -0.00010378)
(0.0787718 -0.000225238 -6.22141e-05)
(0.0788965 -0.000140355 -4.28985e-05)
(0.0789813 -8.97036e-05 -3.29265e-05)
(0.0790408 -5.88223e-05 -2.66628e-05)
(0.079084 -3.97065e-05 -2.25267e-05)
(0.0791163 -2.76167e-05 -1.93717e-05)
(0.0791403 -1.96639e-05 -1.60268e-05)
(0.0939879 -0.000351237 0.000421184)
(0.0940165 -0.00026157 0.000289658)
(0.0940318 -0.000189666 0.000190406)
(0.094045 -0.00013495 0.000120965)
(0.0940574 -9.50266e-05 7.47309e-05)
(0.0940684 -6.70041e-05 4.44751e-05)
(0.0940778 -4.76855e-05 2.48353e-05)
(0.0940857 -3.44663e-05 1.22227e-05)
(0.0940921 -2.55381e-05 4.22742e-06)
(0.100804 -0.000116739 0.000619642)
(0.100772 -0.000112569 0.000453525)
(0.100722 -9.90678e-05 0.000318058)
(0.100674 -8.1962e-05 0.000215455)
(0.100635 -6.50981e-05 0.000141473)
(0.100606 -5.07555e-05 9.00737e-05)
(0.100585 -3.97239e-05 5.49806e-05)
(0.100571 -3.11982e-05 3.13752e-05)
(0.100561 -2.4692e-05 1.57931e-05)
(0.104528 0.000198847 0.000581476)
(0.10464 0.000198472 0.00066729)
(0.10472 0.000175715 0.00063641)
(0.104769 0.000135172 0.000539446)
(0.104769 9.35442e-05 0.000426163)
(0.104741 5.93079e-05 0.000319941)
(0.104704 3.42267e-05 0.000230306)
(0.104667 1.72618e-05 0.000159681)
(0.104635 6.38623e-06 0.00010654)
(0.104609 -4.25334e-07 6.77775e-05)
(0.104588 -4.42037e-06 4.03406e-05)
(0.104573 -6.514e-06 2.14948e-05)
(0.106412 0.000259362 0.000331222)
(0.106507 0.000263288 0.000384933)
(0.106585 0.000251173 0.000390205)
(0.106654 0.000219106 0.000353282)
(0.106694 0.000177733 0.000296425)
(0.106708 0.000136469 0.000235027)
(0.106708 0.000100192 0.000177541)
(0.106699 7.0754e-05 0.000128116)
(0.106688 4.82091e-05 8.80839e-05)
(0.106675 3.16676e-05 5.71306e-05)
(0.106663 1.99536e-05 3.41276e-05)
(0.106652 1.19517e-05 1.77537e-05)
(0.106809 0.000189426 0.000110259)
(0.106861 0.000200415 0.000140008)
(0.106917 0.000193946 0.000156218)
(0.106984 0.000173364 0.000152479)
(0.107042 0.00014582 0.000136003)
(0.107085 0.000116894 0.000113243)
(0.107114 9.01262e-05 8.86847e-05)
(0.107133 6.73559e-05 6.5289e-05)
(0.107143 4.91641e-05 4.47291e-05)
(0.107147 3.53051e-05 2.77452e-05)
(0.107148 2.51353e-05 1.44683e-05)
(0.107146 1.78437e-05 4.71124e-06)
(0.105832 3.17351e-05 -0.000102296)
(0.105877 4.62476e-05 -7.7538e-05)
(0.105937 3.31757e-05 -5.14786e-05)
(0.106018 2.21585e-05 -3.22289e-05)
(0.106095 1.61954e-05 -1.86747e-05)
(0.106155 1.2891e-05 -1.01234e-05)
(0.1062 1.10367e-05 -5.87513e-06)
(0.106233 1.00088e-05 -4.80828e-06)
(0.106254 9.43414e-06 -5.73379e-06)
(0.106267 9.05594e-06 -7.65237e-06)
(0.106275 8.80654e-06 -9.78038e-06)
(0.106278 8.50513e-06 -1.14631e-05)
(0.103608 -0.000307772 -0.000262082)
(0.103704 -0.000333524 -0.000233917)
(0.103794 -0.00032608 -0.000197999)
(0.103898 -0.000280792 -0.000162558)
(0.103974 -0.000222184 -0.000128971)
(0.104022 -0.000165845 -9.9253e-05)
(0.104052 -0.000117981 -7.50652e-05)
(0.10407 -8.03085e-05 -5.65956e-05)
(0.104081 -5.21466e-05 -4.30831e-05)
(0.104087 -3.19441e-05 -3.37498e-05)
(0.104089 -1.77661e-05 -2.72968e-05)
(0.10409 -7.93184e-06 -2.27581e-05)
(0.100595 -0.000782652 -9.42819e-05)
(0.100717 -0.000893674 -9.59703e-05)
(0.100786 -0.000794084 -0.00010788)
(0.100807 -0.000619997 -0.00011641)
(0.100775 -0.0004545 -0.000111873)
(0.100723 -0.00031889 -9.8501e-05)
(0.100675 -0.000215898 -8.16947e-05)
(0.100636 -0.000141746 -6.49745e-05)
(0.100606 -9.03131e-05 -5.067e-05)
(0.100585 -5.53102e-05 -3.95434e-05)
(0.10057 -3.20222e-05 -3.07853e-05)
(0.0964268 -0.00147703 0.000580093)
(0.0966812 -0.00157101 0.00046111)
(0.0965866 -0.00119743 0.000246774)
(0.0962968 -0.000815921 8.82012e-05)
(0.0959928 -0.000537298 1.53058e-06)
(0.0957549 -0.000344777 -3.74766e-05)
(0.0955862 -0.000216661 -4.96822e-05)
(0.0954705 -0.000134364 -4.86518e-05)
(0.0953934 -8.19656e-05 -4.25227e-05)
(0.0953443 -4.81514e-05 -3.52766e-05)
(0.0953139 -2.62791e-05 -2.8611e-05)
(0.087964 -0.00163785 0.00133536)
(0.0866158 -0.0015193 0.00104451)
(0.0854392 -0.000984009 0.000508528)
(0.0842984 -0.000554118 0.000157105)
(0.0835053 -0.000319989 5.07698e-06)
(0.0830378 -0.000189039 -5.25582e-05)
(0.0827609 -0.000111454 -6.47269e-05)
(0.0825941 -6.49474e-05 -6.06007e-05)
(0.0824972 -3.58431e-05 -5.19553e-05)
(0.0824445 -1.7364e-05 -4.26945e-05)
(0.0824176 -5.99391e-06 -3.39501e-05)
(0.0869492 -0.000355298 -0.000301787)
(0.0872937 -0.000232304 -0.000223876)
(0.0875319 -0.000149737 -0.000160447)
(0.0876968 -9.7068e-05 -0.00011375)
(0.08781 -6.45418e-05 -8.0508e-05)
(0.0878874 -4.42446e-05 -5.73843e-05)
(0.0879409 -3.21522e-05 -4.15938e-05)
(0.0879786 -2.45784e-05 -3.07068e-05)
(0.088006 -1.95924e-05 -2.30596e-05)
(0.0989427 -0.00029701 4.45792e-05)
(0.0990856 -0.000215456 2.88461e-05)
(0.0991902 -0.000152122 1.56606e-05)
(0.0992663 -0.000106585 5.83836e-06)
(0.0993208 -7.52236e-05 -8.37095e-07)
(0.0993586 -5.41857e-05 -5.09119e-06)
(0.0993843 -4.02548e-05 -7.4777e-06)
(0.0994015 -3.1033e-05 -8.63223e-06)
(0.0994131 -2.48545e-05 -9.04917e-06)
(0.103896 -0.000163186 0.000279612)
(0.103973 -0.00012927 0.000221117)
(0.104021 -9.92844e-05 0.000165052)
(0.104051 -7.4957e-05 0.000117445)
(0.10407 -5.64518e-05 7.99169e-05)
(0.10408 -4.29413e-05 5.18104e-05)
(0.104086 -3.36203e-05 3.16271e-05)
(0.104089 -2.71706e-05 1.74671e-05)
(0.10409 -2.26045e-05 7.90177e-06)
(0.106706 -3.11362e-06 0.000338505)
(0.10677 -1.10585e-05 0.000360158)
(0.106831 -4.73492e-06 0.000356591)
(0.106906 -9.63983e-07 0.000321127)
(0.106964 -4.17752e-07 0.000269188)
(0.107001 -1.28389e-06 0.000213685)
(0.107023 -2.73563e-06 0.000162017)
(0.107035 -4.34389e-06 0.000117833)
(0.10704 -5.85885e-06 8.22385e-05)
(0.107041 -7.22558e-06 5.47008e-05)
(0.107039 -8.3311e-06 3.41612e-05)
(0.107036 -9.03935e-06 1.9431e-05)
(0.108322 9.07628e-05 0.00023435)
(0.108376 8.0238e-05 0.000258799)
(0.10843 7.59675e-05 0.000263189)
(0.108497 6.86116e-05 0.000245349)
(0.108556 5.81892e-05 0.000213945)
(0.108601 4.67066e-05 0.00017682)
(0.108633 3.56228e-05 0.000139434)
(0.108654 2.58083e-05 0.000105212)
(0.108668 1.76576e-05 7.58952e-05)
(0.108675 1.12147e-05 5.20293e-05)
(0.108677 6.33442e-06 3.34211e-05)
(0.108677 2.82819e-06 1.95639e-05)
(0.108724 4.02144e-05 0.000112331)
(0.108783 3.77475e-05 0.00013484)
(0.108839 3.41101e-05 0.000139774)
(0.108909 2.94598e-05 0.0001328)
(0.108974 2.43216e-05 0.000118671)
(0.109029 1.92767e-05 0.000100586)
(0.109071 1.47731e-05 8.11003e-05)
(0.109103 1.10548e-05 6.21749e-05)
(0.109125 8.18611e-06 4.5073e-05)
(0.109139 6.09164e-06 3.04912e-05)
(0.109147 4.62882e-06 1.86726e-05)
(0.10915 3.61691e-06 9.62445e-06)
(0.108149 -0.000106837 1.67953e-05)
(0.108202 -0.000105521 2.51378e-05)
(0.108258 -0.000107869 3.03491e-05)
(0.10833 -0.000102307 3.21299e-05)
(0.108398 -9.02192e-05 3.09836e-05)
(0.108454 -7.50127e-05 2.75765e-05)
(0.108497 -5.92113e-05 2.26242e-05)
(0.108529 -4.44643e-05 1.69052e-05)
(0.108551 -3.16663e-05 1.10917e-05)
(0.108565 -2.11453e-05 5.70649e-06)
(0.108573 -1.28774e-05 1.09682e-06)
(0.108576 -6.71804e-06 -2.4652e-06)
(0.106706 -0.000338175 -3.71598e-06)
(0.10677 -0.000359955 -1.14578e-05)
(0.106831 -0.000356779 -4.63879e-06)
(0.106907 -0.000321634 -5.29773e-07)
(0.106965 -0.000269732 3.97062e-09)
(0.107001 -0.000214139 -1.01017e-06)
(0.107023 -0.000162362 -2.60165e-06)
(0.107035 -0.000118089 -4.29113e-06)
(0.10704 -8.24245e-05 -5.82926e-06)
(0.107041 -5.48301e-05 -7.17285e-06)
(0.10704 -3.4227e-05 -8.21639e-06)
(0.107036 -1.93899e-05 -8.82318e-06)
(0.104528 -0.000581349 0.000198235)
(0.10464 -0.000667104 0.000197989)
(0.104721 -0.000636496 0.000175832)
(0.104769 -0.000539695 0.000135705)
(0.10477 -0.000426283 9.40815e-05)
(0.104741 -0.000320015 5.97532e-05)
(0.104704 -0.000230412 3.45585e-05)
(0.104667 -0.00015985 1.75342e-05)
(0.104635 -0.000106763 6.67871e-06)
(0.104609 -6.80391e-05 -2.85363e-08)
(0.104588 -4.0643e-05 -3.85829e-06)
(0.101193 -0.000892815 0.000668468)
(0.101484 -0.00102547 0.000680335)
(0.101565 -0.000871257 0.000557919)
(0.1015 -0.000655244 0.000401733)
(0.101363 -0.00046804 0.000268792)
(0.101217 -0.000322602 0.000170164)
(0.101091 -0.000215501 0.000102316)
(0.100991 -0.000139796 5.83725e-05)
(0.100916 -8.74928e-05 3.09016e-05)
(0.100862 -5.18245e-05 1.41886e-05)
(0.100824 -2.79297e-05 4.41195e-06)
(0.0935537 -0.000893659 0.00126151)
(0.0931851 -0.00100278 0.00118105)
(0.0927865 -0.000743864 0.000899669)
(0.0922544 -0.000501683 0.000589098)
(0.0917868 -0.000327316 0.000369351)
(0.0914459 -0.000210422 0.000225099)
(0.0912094 -0.000131641 0.000130255)
(0.0910483 -7.7744e-05 7.02309e-05)
(0.0909422 -4.27406e-05 3.42466e-05)
(0.0908753 -2.05671e-05 1.36797e-05)
(0.0908354 -6.94751e-06 2.57294e-06)
(0.0921111 -5.95198e-05 -0.000537649)
(0.0923052 -2.91145e-05 -0.000405489)
(0.0924424 -1.51568e-05 -0.000291703)
(0.0925403 -1.01552e-05 -0.000204136)
(0.0926095 -9.54144e-06 -0.000140923)
(0.0926577 -1.07353e-05 -9.64459e-05)
(0.0926917 -1.21078e-05 -6.58098e-05)
(0.0927162 -1.30007e-05 -4.49317e-05)
(0.0927343 -1.31518e-05 -3.0821e-05)
(0.102123 -7.16751e-05 -0.00026224)
(0.102232 -4.36519e-05 -0.000211313)
(0.102317 -2.68154e-05 -0.000164218)
(0.102381 -1.79728e-05 -0.000123996)
(0.102427 -1.42238e-05 -9.17273e-05)
(0.102458 -1.33108e-05 -6.69526e-05)
(0.102478 -1.37263e-05 -4.85399e-05)
(0.102491 -1.46394e-05 -3.52756e-05)
(0.102499 -1.569e-05 -2.6079e-05)
(0.106017 -3.21613e-05 -2.27699e-05)
(0.106093 -1.8431e-05 -1.684e-05)
(0.106154 -9.83572e-06 -1.34221e-05)
(0.106199 -5.60156e-06 -1.14227e-05)
(0.106231 -4.55367e-06 -1.02663e-05)
(0.106252 -5.48145e-06 -9.58426e-06)
(0.106266 -7.38073e-06 -9.09254e-06)
(0.106273 -9.50588e-06 -8.73831e-06)
(0.106277 -1.13133e-05 -8.38927e-06)
(0.108149 1.69608e-05 0.000107131)
(0.108202 2.53067e-05 0.000105668)
(0.108258 3.05213e-05 0.000107738)
(0.10833 3.23245e-05 0.000101948)
(0.108398 3.12026e-05 8.97916e-05)
(0.108453 2.7802e-05 7.46329e-05)
(0.108496 2.28398e-05 5.89312e-05)
(0.108528 1.7096e-05 4.42944e-05)
(0.10855 1.12407e-05 3.15979e-05)
(0.108564 5.7938e-06 2.11632e-05)
(0.108572 1.08752e-06 1.2956e-05)
(0.108576 -2.61981e-06 6.82722e-06)
(0.109404 5.66897e-05 0.000121244)
(0.109471 5.26661e-05 0.000127911)
(0.109532 4.81002e-05 0.000125664)
(0.109607 4.32847e-05 0.000116677)
(0.109679 3.78842e-05 0.000103273)
(0.109739 3.19635e-05 8.74651e-05)
(0.109788 2.58193e-05 7.10102e-05)
(0.109825 1.98202e-05 5.52861e-05)
(0.109853 1.42816e-05 4.11908e-05)
(0.109871 9.42993e-06 2.91986e-05)
(0.109883 5.38825e-06 1.94495e-05)
(0.10989 2.23453e-06 1.19118e-05)
(0.10978 -1.66313e-05 9.18108e-05)
(0.109856 -1.47488e-05 9.00221e-05)
(0.109922 -1.36859e-05 8.41226e-05)
(0.110001 -1.27811e-05 7.66245e-05)
(0.110076 -1.16755e-05 6.78209e-05)
(0.11014 -1.02804e-05 5.79104e-05)
(0.110192 -8.68569e-06 4.75042e-05)
(0.110233 -7.03344e-06 3.73226e-05)
(0.110264 -5.44682e-06 2.79395e-05)
(0.110286 -4.01624e-06 1.97375e-05)
(0.110301 -2.79628e-06 1.29054e-05)
(0.110309 -1.82176e-06 7.54073e-06)
(0.109404 -0.000121244 5.65515e-05)
(0.10947 -0.000127968 5.25194e-05)
(0.109532 -0.000125804 4.79587e-05)
(0.109607 -0.000116881 4.31464e-05)
(0.109679 -0.000103493 3.77424e-05)
(0.109739 -8.76563e-05 3.18191e-05)
(0.109788 -7.11405e-05 2.56775e-05)
(0.109825 -5.53363e-05 1.96907e-05)
(0.109853 -4.11527e-05 1.41778e-05)
(0.109871 -2.90736e-05 9.36481e-06)
(0.109883 -1.92533e-05 5.37162e-06)
(0.10989 -1.1671e-05 2.27131e-06)
(0.108322 -0.0002344 9.03965e-05)
(0.108376 -0.000258913 7.99503e-05)
(0.108429 -0.000263388 7.58839e-05)
(0.108496 -0.000245604 6.87027e-05)
(0.108556 -0.000214197 5.83303e-05)
(0.108601 -0.000177036 4.68195e-05)
(0.108633 -0.0001396 3.56892e-05)
(0.108654 -0.000105319 2.58444e-05)
(0.108667 -7.59264e-05 1.76928e-05)
(0.108675 -5.19654e-05 1.12792e-05)
(0.108677 -3.3255e-05 6.45159e-06)
(0.108677 -1.93074e-05 3.00659e-06)
(0.106412 -0.000331346 0.000258913)
(0.106506 -0.00038501 0.000262889)
(0.106584 -0.000390207 0.000251022)
(0.106653 -0.000353214 0.000219193)
(0.106693 -0.000296326 0.000177907)
(0.106707 -0.000234969 0.000136649)
(0.106707 -0.000177564 0.000100355)
(0.106699 -0.000128218 7.09155e-05)
(0.106687 -8.82242e-05 4.83959e-05)
(0.106674 -5.7247e-05 3.19062e-05)
(0.106663 -3.42001e-05 2.02596e-05)
(0.103179 -0.000457857 0.000566926)
(0.10339 -0.000555318 0.000595864)
(0.103506 -0.000512354 0.000546682)
(0.103555 -0.000418101 0.000454075)
(0.103547 -0.000320872 0.000352803)
(0.103508 -0.000235476 0.000261049)
(0.103462 -0.000165649 0.000185631)
(0.103417 -0.00011147 0.000127624)
(0.103378 -7.11165e-05 8.52021e-05)
(0.103347 -4.20274e-05 5.53653e-05)
(0.103323 -2.16964e-05 3.50121e-05)
(0.0951795 -0.000455343 0.000964694)
(0.0950851 -0.000563664 0.00101893)
(0.0949926 -0.000471265 0.000834443)
(0.094826 -0.000340002 0.000625914)
(0.0946452 -0.000237896 0.000445981)
(0.0944926 -0.000165095 0.000306115)
(0.0943755 -0.000110196 0.000203942)
(0.0942893 -6.84953e-05 0.000131972)
(0.0942286 -3.81827e-05 8.31315e-05)
(0.094188 -1.80879e-05 5.08162e-05)
(0.0941626 -5.22015e-06 2.99122e-05)
(0.108724 0.000112306 -4.00068e-05)
(0.108783 0.000134889 -3.76229e-05)
(0.108839 0.000139918 -3.41203e-05)
(0.108908 0.000133033 -2.95806e-05)
(0.108974 0.000118955 -2.44807e-05)
(0.109028 0.000100879 -1.94143e-05)
(0.109071 8.13749e-05 -1.48566e-05)
(0.109102 6.2412e-05 -1.10763e-05)
(0.109124 4.52525e-05 -8.15538e-06)
(0.109139 3.05924e-05 -6.02994e-06)
(0.109147 1.86787e-05 -4.56561e-06)
(0.10915 9.54158e-06 -3.57946e-06)
(0.10978 9.1809e-05 1.66847e-05)
(0.109856 9.00668e-05 1.47632e-05)
(0.109922 8.42277e-05 1.36534e-05)
(0.110001 7.6785e-05 1.27176e-05)
(0.110076 6.80192e-05 1.16119e-05)
(0.11014 5.81237e-05 1.02445e-05)
(0.110192 4.77128e-05 8.69496e-06)
(0.110233 3.75103e-05 7.09301e-06)
(0.110264 2.80921e-05 5.54982e-06)
(0.110286 1.98453e-05 4.14536e-06)
(0.110301 1.29677e-05 2.92655e-06)
(0.110309 7.56777e-06 1.92693e-06)
(0.110125 -3.49178e-08 3.22756e-09)
(0.11021 -3.58555e-08 -1.90768e-08)
(0.11028 -2.76371e-08 -4.01125e-08)
(0.110363 -1.05046e-08 -5.36447e-08)
(0.110441 1.39026e-08 -5.6737e-08)
(0.110507 4.27597e-08 -5.00699e-08)
(0.110563 7.38649e-08 -3.63652e-08)
(0.110607 1.04854e-07 -1.93113e-08)
(0.110642 1.32269e-07 -3.27742e-09)
(0.110666 1.51574e-07 6.70476e-09)
(0.110683 1.57559e-07 5.47765e-09)
(0.110694 1.46502e-07 -9.71093e-09)
(0.10978 -9.19107e-05 -1.6663e-05)
(0.109855 -9.01562e-05 -1.47948e-05)
(0.109922 -8.42911e-05 -1.37336e-05)
(0.110001 -7.68052e-05 -1.28295e-05)
(0.110076 -6.79865e-05 -1.17306e-05)
(0.11014 -5.80354e-05 -1.03474e-05)
(0.110192 -4.75681e-05 -8.76654e-06)
(0.110233 -3.731e-05 -7.12596e-06)
(0.110264 -2.78418e-05 -5.54554e-06)
(0.110286 -1.95583e-05 -4.11484e-06)
(0.110301 -1.26703e-05 -2.89193e-06)
(0.110309 -7.29394e-06 -1.91784e-06)
(0.108724 -0.000112499 4.00684e-05)
(0.108783 -0.000135063 3.76124e-05)
(0.108839 -0.000140021 3.40415e-05)
(0.108908 -0.000133043 2.946e-05)
(0.108974 -0.000118885 2.43553e-05)
(0.109028 -0.000100755 1.93097e-05)
(0.10907 -8.12115e-05 1.47883e-05)
(0.109102 -6.22129e-05 1.10523e-05)
(0.109124 -4.50171e-05 8.17715e-06)
(0.109138 -3.03257e-05 6.09048e-06)
(0.109146 -1.84136e-05 4.64032e-06)
(0.10915 -9.33221e-06 3.62723e-06)
(0.106808 -0.00011035 0.000189164)
(0.10686 -0.000140113 0.000200174)
(0.106916 -0.000156292 0.000193798)
(0.106982 -0.00015251 0.000173315)
(0.10704 -0.000136011 0.000145835)
(0.107083 -0.000113259 0.000116938)
(0.107113 -8.87296e-05 9.01786e-05)
(0.107131 -6.53575e-05 6.74114e-05)
(0.107142 -4.47881e-05 4.92287e-05)
(0.107146 -2.77503e-05 3.53885e-05)
(0.107147 -1.44311e-05 2.52258e-05)
(0.103363 -0.000110714 0.000459706)
(0.103475 -0.000170344 0.000481644)
(0.103561 -0.000184661 0.000454896)
(0.103642 -0.000169073 0.00039649)
(0.103698 -0.000141222 0.000324904)
(0.10373 -0.000110151 0.000253702)
(0.103748 -8.05544e-05 0.000190405)
(0.103755 -5.48076e-05 0.000138373)
(0.103756 -3.38655e-05 9.80589e-05)
(0.103754 -1.77062e-05 6.81995e-05)
(0.103751 -5.83462e-06 4.68413e-05)
(0.0944382 -0.000115955 0.000902212)
(0.0945091 -0.000192499 0.00090813)
(0.0945734 -0.000193299 0.000769037)
(0.0946142 -0.000162588 0.000606677)
(0.0946238 -0.000126721 0.000458121)
(0.0946198 -9.24574e-05 0.000334133)
(0.094613 -6.28885e-05 0.00023459)
(0.0946068 -3.87825e-05 0.000159777)
(0.0946021 -2.03778e-05 0.000106929)
(0.0945995 -7.48484e-06 7.04755e-05)
(0.0945993 9.55868e-07 4.56993e-05)
)
;

boundaryField
{
    inlet
    {
        type            fixedValue;
        value           nonuniform List<vector> 0();
    }
    ami1
    {
        type            cyclicAMI;
        value           nonuniform List<vector> 0();
    }
    walls
    {
        type            noSlip;
    }
    ami2
    {
        type            cyclicAMI;
        value           nonuniform List<vector> 
48
(
(0.0941468 0.00105063 0.000656884)
(0.0954151 0.000808643 0.000333549)
(0.0944249 0.000767866 7.29806e-05)
(0.0909611 0.000774004 -0.000327478)
(0.0844128 0.000517414 -0.00090413)
(0.0750458 0.000299115 -0.00158353)
(0.0621169 -0.000558049 -0.00134588)
(0.0593112 -0.00184004 -6.50779e-05)
(0.100886 0.000568706 0.00068531)
(0.102967 0.000509431 0.000359117)
(0.103249 0.000415084 8.36226e-05)
(0.101799 0.00029367 -0.000213905)
(0.0984612 -2.08616e-05 -0.000598347)
(0.0931474 -0.000314057 -0.000894713)
(0.0858152 -0.00164625 8.85258e-05)
(0.0779767 -0.00165879 0.000633845)
(0.104386 0.000184255 0.000511754)
(0.106301 0.000247285 0.000303438)
(0.10676 0.000173447 0.00010766)
(0.10578 4.25585e-07 -9.25707e-05)
(0.103439 -0.000307254 -0.000242157)
(0.100411 -0.000653864 -9.98565e-05)
(0.0960209 -0.00110736 0.000454678)
(0.0895459 -0.00122186 0.0011222)
(0.106591 1.2414e-05 0.00032763)
(0.108243 9.52769e-05 0.000220986)
(0.108642 3.32316e-05 0.000101564)
(0.108068 -0.000117161 1.88861e-05)
(0.106591 -0.00032735 1.18926e-05)
(0.104386 -0.000511726 0.000183773)
(0.100887 -0.000686142 0.000568851)
(0.0941483 -0.000657802 0.00105189)
(0.108068 1.90482e-05 0.000117453)
(0.109302 5.17043e-05 0.000114151)
(0.109667 -1.55322e-05 7.88758e-05)
(0.109302 -0.000114132 5.15778e-05)
(0.108243 -0.000221019 9.49453e-05)
(0.106301 -0.000303557 0.000246896)
(0.102966 -0.000359311 0.000509315)
(0.0954161 -0.000333138 0.000809427)
(0.108642 0.000101522 -3.30141e-05)
(0.109667 7.88634e-05 1.55964e-05)
(0.110002 -3.40926e-08 1.05165e-08)
(0.109667 -7.89552e-05 -1.55546e-05)
(0.108642 -0.000101693 3.31059e-05)
(0.106759 -0.000107728 0.000173216)
(0.103249 -8.35699e-05 0.000414974)
(0.0944262 -7.20947e-05 0.000768695)
)
;
    }
    outlet
    {
        type            zeroGradient;
    }
    procBoundary0to1
    {
        type            processor;
        value           nonuniform List<vector> 
138
(
(0.0918459 -0.000117406 -0.000683753)
(0.0946115 0.000162563 -0.000606675)
(0.0946212 0.000126615 -0.000458196)
(0.0946177 9.22492e-05 -0.000334211)
(0.0946114 6.26231e-05 -0.000234824)
(0.0946055 3.84548e-05 -0.00016011)
(0.0946011 2.00038e-05 -0.000107318)
(0.0945988 7.11282e-06 -7.08972e-05)
(0.0945987 -1.2975e-06 -4.6164e-05)
(0.0946005 -6.44446e-06 -2.95347e-05)
(0.102003 -0.000114466 -0.000312283)
(0.103642 0.00016941 -0.000396521)
(0.103698 0.000141661 -0.000324831)
(0.103731 0.000110505 -0.000253608)
(0.103748 8.07561e-05 -0.000190365)
(0.103755 5.48811e-05 -0.00013839)
(0.103757 3.38935e-05 -9.80874e-05)
(0.103754 1.77956e-05 -6.81772e-05)
(0.103751 6.0118e-06 -4.67424e-05)
(0.103747 -2.16826e-06 -3.1799e-05)
(0.105832 -0.000102544 -3.10504e-05)
(0.105877 -7.77742e-05 -4.58381e-05)
(0.105937 -5.16215e-05 -3.33653e-05)
(0.105937 -5.16215e-05 -3.33653e-05)
(0.106983 0.000152558 -0.000173424)
(0.107041 0.000136182 -0.00014592)
(0.107084 0.000113461 -0.000116998)
(0.107113 8.89134e-05 -9.02172e-05)
(0.107132 6.55255e-05 -6.74188e-05)
(0.107142 4.4971e-05 -4.91878e-05)
(0.107146 2.79801e-05 -3.52833e-05)
(0.107147 1.46619e-05 -2.50846e-05)
(0.107145 4.8239e-06 -1.78117e-05)
(0.106809 0.000109991 -0.000189116)
(0.106861 0.000139809 -0.0002002)
(0.106917 0.000156149 -0.000193888)
(0.106983 0.000152558 -0.000173424)
(0.107041 0.000136182 -0.00014592)
(0.107084 0.000113461 -0.000116998)
(0.107113 8.89134e-05 -9.02172e-05)
(0.107132 6.55255e-05 -6.74188e-05)
(0.107142 4.4971e-05 -4.91878e-05)
(0.107146 2.79801e-05 -3.52833e-05)
(0.107147 1.46619e-05 -2.50846e-05)
(0.107145 4.8239e-06 -1.78117e-05)
(0.108323 0.00023428 -9.04562e-05)
(0.108376 0.000258804 -8.00406e-05)
(0.10843 0.000263311 -7.59887e-05)
(0.108497 0.000245569 -6.88044e-05)
(0.108556 0.000214203 -5.8413e-05)
(0.108601 0.000177078 -4.68735e-05)
(0.108633 0.000139675 -3.57101e-05)
(0.108654 0.000105425 -2.58312e-05)
(0.108668 7.60583e-05 -1.7648e-05)