/*--------------------------------*- C++ -*----------------------------------*\
| =========                 |                                                 |
| \\      /  F ield         | OpenFOAM: The Open Source CFD Toolbox           |
|  \\    /   O peration     | Version:  2212                                  |
|   \\  /    A nd           | Website:  www.openfoam.com                      |
|    \\/     M anipulation  |                                                 |
\*---------------------------------------------------------------------------*/
FoamFile
{
    version     2.0;
    format      ascii;
    arch        "LSB;label=32;scalar=64";
    class       volScalarField;
    location    "2.95";
    object      k;
}
// * * * * * * * * * * * * * * * * * * * * * * * * * * * * * * * * * * * * * //

dimensions      [0 2 -2 0 0 0 0];

internalField   nonuniform List<scalar> 
682
(
0.00222161
0.00214146
0.00206816
0.00200105
0.00193958
0.00188369
0.00183261
0.00178559
0.00174226
0.00170245
0.00166462
0.00216903
0.00209096
0.00202004
0.00195547
0.0018966
0.00184287
0.00179396
0.00174924
0.00170847
0.00167025
0.00163383
0.00209017
0.00202016
0.00195647
0.00189835
0.0018455
0.00179717
0.00175282
0.00171184
0.00167521
0.00163817
0.0016034
0.0020865
0.00202378
0.00196581
0.00191346
0.00185957
0.00181078
0.00176832
0.00172843
0.00169167
0.0016571
0.00162413
0.00159375
0.00208111
0.00203151
0.00197694
0.00192854
0.00188352
0.00184184
0.0018034
0.00176724
0.00173365
0.00170173
0.00167172
0.00164399
0.0024026
0.00235836
0.00231477
0.00227401
0.00223528
0.00219881
0.00216374
0.00213065
0.00209879
0.00206767
0.00203721
0.00200905
0.00298512
0.00281844
0.00266708
0.00252926
0.0024034
0.0022882
0.00218252
0.00208524
0.00199577
0.00191255
0.00183637
0.00292634
0.00276631
0.00262063
0.0024876
0.00236555
0.00225343
0.00215016
0.00205488
0.00196693
0.0018849
0.00180953
0.00272949
0.00258237
0.00244731
0.00232341
0.00220871
0.00210363
0.002006
0.00191617
0.00183285
0.00175392
0.00168244
0.00251432
0.00237269
0.00224141
0.00211989
0.00201027
0.00190394
0.00181426
0.00172447
0.00164803
0.00157143
0.00150199
0.00144
0.00203906
0.00192613
0.00182061
0.00173017
0.00164534
0.00157068
0.00150173
0.00143942
0.00138225
0.0013228
0.00126766
0.00122321
0.00214726
0.00209834
0.00205262
0.00200797
0.00196528
0.00192637
0.00188975
0.00185594
0.00182377
0.00179306
0.00176309
0.00173537
0.00390595
0.00367625
0.00346689
0.00327556
0.00310026
0.00293929
0.00279113
0.00265445
0.00252814
0.00241094
0.00230231
0.00380982
0.00358848
0.00338653
0.00320176
0.00303224
0.00287636
0.00273269
0.00259999
0.00247721
0.00236314
0.00225745
0.00351778
0.00331559
0.00313055
0.00296082
0.00280469
0.002661
0.00252849
0.0024059
0.00229236
0.00218642
0.00208873
0.00323335
0.00304214
0.00286663
0.0027062
0.00255858
0.00242368
0.00229936
0.00218509
0.00207782
0.00198063
0.00188726
0.00180553
0.00256006
0.00242358
0.00229297
0.00218094
0.00207154
0.00197808
0.00188661
0.00180849
0.00172982
0.00166168
0.00159183
0.00153288
0.00220173
0.0021439
0.00209313
0.00203933
0.0019894
0.0019449
0.00190336
0.00186534
0.00182819
0.00179367
0.0017579
0.00172503
0.00461103
0.00433617
0.00408553
0.00385636
0.00364628
0.00345323
0.00327542
0.00311129
0.00295948
0.00281869
0.00268805
0.00448714
0.00422098
0.00397818
0.00375611
0.00355246
0.00336525
0.00319277
0.0030335
0.00288611
0.00274938
0.00262247
0.00411816
0.00387553
0.00365398
0.00345114
0.00326496
0.00309369
0.00293584
0.00279003
0.00265511
0.00252984
0.0024136
0.00375153
0.00352511
0.00331872
0.00313025
0.00295762
0.00279926
0.00265361
0.00251977
0.00239591
0.00228176
0.00217515
0.00207704
0.0029045
0.00273851
0.00258838
0.00245226
0.00232785
0.00221467
0.00211025
0.00201651
0.00192676
0.0018489
0.00177186
0.00170432
0.00226323
0.00219072
0.0021247
0.00206407
0.00200797
0.00195601
0.00190855
0.0018633
0.00181733
0.00177592
0.00173779
0.00170184
0.00491056
0.0046168
0.00434885
0.0041038
0.00387913
0.00367265
0.00348245
0.00330687
0.00314444
0.00299384
0.00285406
0.00448623
0.0042191
0.00397544
0.0037526
0.00354828
0.0033605
0.00318754
0.00302787
0.00288021
0.00274324
0.00261607
0.00405628
0.00380918
0.00358441
0.00337946
0.00319211
0.00302045
0.00286281
0.00271779
0.002584
0.00246061
0.00234554
0.00223839
0.00309892
0.00291856
0.00275534
0.0026072
0.00247236
0.00234948
0.00223706
0.00213424
0.00203932
0.00195339
0.00186868
0.00178914
0.00230694
0.00222513
0.00215022
0.00208142
0.0020185
0.00196091
0.00190747
0.00185769
0.00181162
0.00176877
0.00172959
0.00168896
0.00505497
0.00475199
0.00447562
0.00422289
0.0039912
0.00377828
0.00358218
0.00340117
0.00323373
0.0030785
0.00293444
0.00461095
0.00433604
0.00408536
0.00385617
0.00364608
0.00345305
0.00327528
0.00311119
0.00295944
0.00281874
0.00268816
0.00415846
0.00390575
0.00367604
0.00346667
0.00327533
0.00310006
0.00293913
0.00279103
0.00265442
0.0025282
0.00241112
0.00230257
0.00316835
0.0029844
0.00281785
0.00266658
0.00252883
0.00240305
0.00228794
0.00218236
0.00208519
0.00199584
0.00191276
0.00183676
0.00230914
0.00222144
0.00214129
0.002068
0.00200092
0.00193948
0.00188363
0.0018326
0.00178562
0.00174233
0.00170258
0.00166475
0.00491061
0.0046168
0.00434882
0.00410374
0.00387905
0.00367256
0.00348236
0.00330678
0.00314436
0.00299377
0.002854
0.00448717
0.00422097
0.00397814
0.00375604
0.00355238
0.00336516
0.00319268
0.00303342
0.00288606
0.00274936
0.00262246
0.00405319
0.00380989
0.00358855
0.00338657
0.00320179
0.00303226
0.00287637
0.00273272
0.00260006
0.0024773
0.0023633
0.00225763
0.00310243
0.00292615
0.00276626
0.00262063
0.00248764
0.00236562
0.00225356
0.00215033
0.00205514
0.00196721
0.00188532
0.00180994
0.00225538
0.00216914
0.00209107
0.00202015
0.00195558
0.00189673
0.00184302
0.00179413
0.00174944
0.00170869
0.00167052
0.00163412
0.00448604
0.00421894
0.00397529
0.00375245
0.00354812
0.00336032
0.00318734
0.00302765
0.00287997
0.00274297
0.00261578
0.00411784
0.00387522
0.00365365
0.00345078
0.00326457
0.00309328
0.00293539
0.00278958
0.00265465
0.00252936
0.00241311
0.00373977
0.00351803
0.00331577
0.00313055
0.00296076
0.00280449
0.00266079
0.00252816
0.00240567
0.00229198
0.00218615
0.00208841
0.00289145
0.00273032
0.0025833
0.00244789
0.00232401
0.00220919
0.00210415
0.00200641
0.00191676
0.00183308
0.00175462
0.00168308
0.00216795
0.00209075
0.0020207
0.00195695
0.0018988
0.00184594
0.00179761
0.00175324
0.00171229
0.00167561
0.00163869
0.00160386
0.00380881
0.00358406
0.00337909
0.00319173
0.00302004
0.00286238
0.00271732
0.0025835
0.0024601
0.00234493
0.00223775
0.00352401
0.00331773
0.00312915
0.00295654
0.00279805
0.00265246
0.00251847
0.00239472
0.00228052
0.00217385
0.0020757
0.00323284
0.00304102
0.00286607
0.00270463
0.00255778
0.0024216
0.00229816
0.00218264
0.00207736
0.00197739
0.00188703
0.00180295
0.00251513
0.00237177
0.00224269
0.00211817
0.00201092
0.00190362
0.0018142
0.00172396
0.00164789
0.00157031
0.00150233
0.0014398
0.00208689
0.0020241
0.00196631
0.00191384
0.00186009
0.00181129
0.00176883
0.00172887
0.00169217
0.00165742
0.00162467
0.00159422
0.00291821
0.00275483
0.00260658
0.00247174
0.0023488
0.00223641
0.00213354
0.00203861
0.00195271
0.00186772
0.0017881
0.00273707
0.0025869
0.00245039
0.00232625
0.00221252
0.00210879
0.00201428
0.00192554
0.00184703
0.00176986
0.00170226
0.0025622
0.00241804
0.00229419
0.00217417
0.00207167
0.00197148
0.00188608
0.00180231
0.00172918
0.00165643
0.0015901
0.00152945
0.00203854
0.00192132
0.00182169
0.00172564
0.00164559
0.00156711
0.00150136
0.00143646
0.00138063
0.0013207
0.00126637
0.00122148
0.00208087
0.002031
0.0019773
0.00192816
0.0018839
0.0018417
0.00180363
0.00176714
0.00173365
0.00170167
0.00167171
0.00164402
0.00222458
0.00214965
0.00208085
0.00201794
0.00196036
0.00190693
0.00185718
0.00181111
0.00176828
0.00172903
0.00168839
0.00218997
0.00212405
0.0020635
0.00200741
0.00195547
0.00190806
0.00186262
0.00181666
0.00177528
0.00173707
0.00170108
0.00220133
0.00214322
0.00209252
0.00203807
0.00198897
0.00194367
0.0019028
0.00186411
0.00182747
0.00179259
0.00175683
0.00172391
0.00214688
0.00209732
0.00205237
0.00200693
0.001965
0.0019254
0.00188927
0.00185494
0.00182305
0.00179222
0.00176236
0.00173465
0.00240226
0.00235762
0.00231486
0.00227344
0.00223546
0.00219807
0.00216377
0.00212996
0.00209861
0.00206719
0.00203704
0.00200872
)
;

boundaryField
{
    inlet
    {
        type            fixedValue;
        value           nonuniform List<scalar> 0();
    }
    ami1
    {
        type            cyclicAMI;
        value           nonuniform List<scalar> 0();
    }
    walls
    {
        type            kqRWallFunction;
        value           nonuniform List<scalar> 
259
(
0.0020865
0.00208111
0.0024026
0.00222161
0.00216903
0.00209017
0.00202378
0.00203151
0.00235836
0.00214146
0.00209096
0.00202016
0.00196581
0.00197694
0.00231477
0.00206816
0.00202004
0.00195647
0.00191346
0.00192854
0.00227401
0.00200105
0.00195547
0.00189835
0.00185957
0.00188352
0.00223528
0.00193958
0.0018966
0.0018455
0.00181078
0.00184184
0.00219881
0.00188369
0.00184287
0.00179717
0.00176832
0.0018034
0.00216374
0.00183261
0.00179396
0.00175282
0.00172843
0.00176724
0.00213065
0.00178559
0.00174924
0.00171184
0.00169167
0.00173365
0.00209879
0.00174226
0.00170847
0.00167521
0.0016571
0.00170173
0.00206767
0.00170245
0.00167025
0.00163817
0.00162413
0.00167172
0.00203721
0.00166462
0.00163383
0.0016034
0.00159375
0.00164399
0.00200905
0.0024026
0.00214726
0.00220173
0.00226323
0.00230694
0.00230914
0.00225538
0.00216795
0.00208689
0.00208087
0.00240226
0.00235836
0.00209834
0.0021439
0.00219072
0.00222513
0.00222144
0.00216914
0.00209075
0.0020241
0.002031
0.00235762
0.00231477
0.00205262
0.00209313
0.0021247
0.00215022
0.00214129
0.00209107
0.0020207
0.00196631
0.0019773
0.00231486
0.00227401
0.00200797
0.00203933
0.00206407
0.00208142
0.002068
0.00202015
0.00195695
0.00191384
0.00192816
0.00227344
0.00223528
0.00196528
0.0019894
0.00200797
0.0020185
0.00200092
0.00195558
0.0018988
0.00186009
0.0018839
0.00223546
0.00219881
0.00192637
0.0019449
0.00195601
0.00196091
0.00193948
0.00189673
0.00184594
0.00181129
0.0018417
0.00219807
0.00216374
0.00188975
0.00190336
0.00190855
0.00190747
0.00188363
0.00184302
0.00179761
0.00176883
0.00180363
0.00216377
0.00213065
0.00185594
0.00186534
0.0018633
0.00185769
0.0018326
0.00179413
0.00175324
0.00172887
0.00176714
0.00212996
0.00209879
0.00182377
0.00182819
0.00181733
0.00181162
0.00178562
0.00174944
0.00171229
0.00169217
0.00173365
0.00209861
0.00206767
0.00179306
0.00179367
0.00177592
0.00176877
0.00174233
0.00170869
0.00167561
0.00165742
0.00170167
0.00206719
0.00203721
0.00176309
0.0017579
0.00173779
0.00172959
0.00170258
0.00167052
0.00163869
0.00162467
0.00167171
0.00203704
0.00200905
0.00173537
0.00172503
0.00170184
0.00168896
0.00166475
0.00163412
0.00160386
0.00159422
0.00164402
0.00200872
0.00220133
0.00214688
0.00240226
0.00222458
0.00218997
0.00214322
0.00209732
0.00235762
0.00214965
0.00212405
0.00209252
0.00205237
0.00231486
0.00208085
0.0020635
0.00203807
0.00200693
0.00227344
0.00201794
0.00200741
0.00198897
0.001965
0.00223546
0.00196036
0.00195547
0.00194367
0.0019254
0.00219807
0.00190693
0.00190806
0.0019028
0.00188927
0.00216377
0.00185718
0.00186262
0.00186411
0.00185494
0.00212996
0.00181111
0.00181666
0.00182747
0.00182305
0.00209861
0.00176828
0.00177528
0.00179259
0.00179222
0.00206719
0.00172903
0.00173707
0.00175683
0.00176236
0.00203704
0.00168839
0.00170108
0.00172391
0.00173465
0.00200872
)
;
    }
    ami2
    {
        type            cyclicAMI;
        value           nonuniform List<scalar> 0();
    }
    outlet
    {
        type            zeroGradient;
    }
    procBoundary9to0
    {
        type            processor;
        value           nonuniform List<scalar> 
40
(
0.00231117
0.00225636
0.002168
0.002168
0.00215749
0.00213364
0.00244709
0.00316888
0.00310318
0.00289239
0.00289239
0.00267418
0.00215715
0.00219901
0.00415817
0.0040533
0.00374057
0.00374057
0.00344505
0.00272558
0.00226792
0.00491276
0.00477961
0.00438493
0.00438493
0.00400101
0.00308898
0.0023447
0.00523295
0.00477958
0.00477958
0.00432829
0.00329818
0.00239889
0.00538736
0.00491276
0.00491276
0.00443678
0.0033715
0.00240742
)
;
    }
    procBoundary9to1
    {
        type            processor;
        value           nonuniform List<scalar> 
30
(
0.00523305
0.00477957
0.00477957
0.00432165
0.00329776
0.00235229
0.00477929
0.00438442
0.00438442
0.00398466
0.00307041
0.00225399
0.0040555
0.0037507
0.0037507
0.00344382
0.00267428
0.00215811
0.0030985
0.00290404
0.00290404
0.00272061
0.00215438
0.00213339
0.00230877
0.00226463
0.00226463
0.00226723
0.0021982
0.00244642
)
;
    }
    procBoundary9to7
    {
        type            processor;
        value           nonuniform List<scalar> 
59
(
0.00163206
0.00160151
0.00157053
0.00156309
0.00161613
0.00198006
0.00175991
0.00173639
0.00160898
0.00137529
0.00117238
0.00170827
0.00220089
0.00215847
0.00199571
0.00172344
0.00146927
0.00169453
0.00256649
0.00250423
0.00230501
0.00198561
0.0016363
0.00166728
0.00272403
0.0024978
0.00213947
0.00172056
0.00165181
0.00280049
0.00256678
0.00220142
0.00176065
0.00163233
0.00272401
0.00250433
0.00215885
0.00173722
0.00160191
0.00249746
0.00230461
0.00199572
0.00161056
0.00157116
0.00213873
0.00198439
0.00172386
0.00137677
0.00156373
0.00171965
0.00163441
0.00146829
0.00117212
0.00161625
0.00165117
0.00166648
0.00169381
0.00170782
0.00198002
)
;
    }
    procBoundary9to8
    {
        type            processor;
        value           nonuniform List<scalar> 
132
(
0.0022249
0.00215006
0.00208132
0.00201842
0.00196086
0.00190744
0.00185767
0.00181156
0.00176874
0.0017295
0.00168886
0.00291925
0.00275592
0.00260774
0.00247289
0.00234993
0.00223753
0.00213449
0.00203965
0.00195342
0.00186858
0.00178854
0.00380945
0.00358474
0.00337984
0.00319251
0.00302085
0.0028632
0.00271811
0.00258429
0.00246077
0.00234558
0.00223831
0.0044864
0.00421933
0.00397572
0.00375291
0.00354861
0.00336083
0.00318784
0.00302815
0.00288043
0.0027434
0.00261618
0.00505502
0.00475206
0.00447571
0.00422298
0.0039913
0.00377838
0.00358227
0.00340125
0.00323379
0.00307854
0.00293446
0.00505502
0.00475206
0.00447571
0.00422298
0.0039913
0.00377838
0.00358227
0.00340125
0.00323379
0.00307854
0.00293446
0.00520765
0.00489505
0.0046099
0.00434912
0.00411006
0.00389037
0.00368804
0.00350128
0.00332852
0.00316838
0.00301977
0.00505507
0.004752
0.00447558
0.00422282
0.00399112
0.0037782
0.0035821
0.00340108
0.00323365
0.00307844
0.00293439
0.00461093
0.00433604
0.00408538
0.00385619
0.0036461
0.00345306
0.00327527
0.00311118
0.0029594
0.00281868
0.0026881
0.00390588
0.00367618
0.00346681
0.00327548
0.00310021
0.00293926
0.00279114
0.00265451
0.00252826
0.00241115
0.00230261
0.00298482
0.00281817
0.00266688
0.00252912
0.00240336
0.00228826
0.00218268
0.00208549
0.00199613
0.00191301
0.001837
0.00222141
0.00214136
0.00206812
0.00200106
0.0019396
0.00188371
0.00183262
0.0017856
0.00174226
0.00170248
0.00166465
)
;
    }
}


// ************************************************************************* //
