/*--------------------------------*- C++ -*----------------------------------*\
| =========                 |                                                 |
| \\      /  F ield         | OpenFOAM: The Open Source CFD Toolbox           |
|  \\    /   O peration     | Version:  2212                                  |
|   \\  /    A nd           | Website:  www.openfoam.com                      |
|    \\/     M anipulation  |                                                 |
\*---------------------------------------------------------------------------*/
FoamFile
{
    version     2.0;
    format      ascii;
    arch        "LSB;label=32;scalar=64";
    class       volScalarField;
    location    "0.15";
    object      k;
}
// * * * * * * * * * * * * * * * * * * * * * * * * * * * * * * * * * * * * * //

dimensions      [0 2 -2 0 0 0 0];

internalField   nonuniform List<scalar> 
678
(
0.00683027
0.00683315
0.00683551
0.00683595
0.00683583
0.0100035
0.0100101
0.010016
0.0100175
0.0100133
0.01086
0.0108604
0.0108612
0.0108618
0.0108623
0.0119388
0.0119388
0.0119391
0.0119391
0.0119383
0.0119358
0.0125354
0.0125353
0.0125353
0.0125353
0.0125352
0.0125354
0.0127787
0.0127786
0.0127786
0.0127786
0.0127786
0.0127785
0.0127786
0.012631
0.012631
0.0126312
0.0126312
0.0126312
0.0126309
0.0126305
0.0120962
0.0120965
0.012097
0.0120973
0.0120971
0.012096
0.0120946
0.0111177
0.0111185
0.0111197
0.0111204
0.0111198
0.0111167
0.01111
0.010139
0.010146
0.0101524
0.0101548
0.0101536
0.0101437
0.00683019
0.00683313
0.00683556
0.00683616
0.00683706
0.00683274
0.0101392
0.0101461
0.0101525
0.010154
0.0101493
0.0101348
0.0201848
0.0201837
0.0201839
0.0201844
0.0201844
0.0232929
0.0232914
0.0232909
0.0232912
0.0232929
0.0232976
0.0253756
0.0253751
0.0253747
0.0253745
0.0253741
0.0253731
0.0266697
0.0266695
0.0266694
0.0266693
0.0266694
0.0266698
0.0271922
0.027192
0.0271919
0.0271919
0.027192
0.0271921
0.0268831
0.026883
0.0268829
0.0268829
0.026883
0.0268831
0.025726
0.0257257
0.0257254
0.0257253
0.0257253
0.0257255
0.0257258
0.0236629
0.0236613
0.0236609
0.0236609
0.0236608
0.0236605
0.0236564
0.0201844
0.0201834
0.0201837
0.0201843
0.0201843
0.020184
0.0201826
0.0100033
0.01001
0.0100159
0.0100182
0.010017
0.0100078
0.0111177
0.0111185
0.0111196
0.01112
0.0111188
0.0111153
0.0111102
0.0236631
0.0236615
0.023661
0.0236612
0.0236619
0.0236623
0.0292116
0.0292111
0.0292107
0.0292108
0.0292114
0.0292123
0.0325048
0.0325045
0.0325043
0.0325044
0.0325048
0.0325056
0.0344092
0.0344091
0.034409
0.0344091
0.0344095
0.0344103
0.0350859
0.0350858
0.0350857
0.0350859
0.0350863
0.0350873
0.034515
0.034515
0.034515
0.0345152
0.0345156
0.0345167
0.0326264
0.0326263
0.0326262
0.0326263
0.0326265
0.0326271
0.029211
0.0292106
0.0292103
0.0292103
0.0292106
0.0292112
0.0232921
0.0232909
0.0232905
0.0232906
0.0232909
0.0232919
0.0232909
0.0108595
0.0108601
0.0108611
0.0108618
0.0108618
0.0108605
0.0120962
0.0120965
0.012097
0.0120971
0.0120967
0.0120961
0.0120977
0.0257259
0.0257257
0.0257254
0.0257255
0.0257259
0.0257268
0.0257285
0.0326266
0.0326265
0.0326264
0.0326266
0.0326271
0.0326279
0.0368751
0.0368751
0.0368751
0.0368755
0.0368762
0.0368775
0.0393057
0.0393056
0.0393057
0.0393062
0.0393071
0.0393088
0.0401233
0.0401233
0.0401234
0.040124
0.040125
0.040127
0.0393387
0.0393388
0.0393389
0.0393395
0.0393408
0.0368746
0.0368747
0.0368747
0.036875
0.0368756
0.036877
0.0325039
0.0325039
0.0325039
0.032504
0.0325044
0.0325051
0.0253746
0.0253745
0.0253744
0.0253745
0.0253749
0.0253757
0.0119382
0.0119385
0.0119389
0.0119393
0.0119395
0.0119394
0.0126308
0.0126309
0.012631
0.012631
0.0126308
0.0126302
0.0268826
0.0268826
0.0268827
0.0268827
0.0268828
0.0268831
0.0345149
0.0345149
0.0345151
0.0345154
0.0345164
0.039339
0.039339
0.0393393
0.0393401
0.0393417
0.0421149
0.042115
0.0421153
0.0421163
0.0421184
0.0430327
0.0430327
0.043033
0.0430339
0.0430358
0.0421145
0.0421145
0.0421148
0.0421155
0.0421169
0.0393051
0.0393051
0.0393053
0.0393058
0.0393068
0.0344083
0.0344084
0.0344085
0.0344088
0.0344093
0.0266688
0.0266689
0.026669
0.0266693
0.0266698
0.0125349
0.0125349
0.0125351
0.0125353
0.0125357
0.012537
0.0127785
0.0127785
0.0127786
0.0127785
0.0127784
0.0127783
0.0271916
0.0271916
0.0271917
0.0271918
0.0271921
0.0271925
0.0350854
0.0350855
0.0350858
0.0350865
0.0401235
0.0401235
0.040124
0.0401254
0.0430331
0.043033
0.0430336
0.0430356
0.0439915
0.0439914
0.0439918
0.0439929
0.0439953
0.0430324
0.0430324
0.0430326
0.0430333
0.0430348
0.0401229
0.0401229
0.0401231
0.0401236
0.0401245
0.0350852
0.0350853
0.0350854
0.0350857
0.0350862
0.0271913
0.0271914
0.0271916
0.0271918
0.027192
0.0127783
0.0127783
0.0127785
0.0127785
0.0127786
0.0125366
0.0125365
0.0125362
0.0125359
0.0125358
0.0125359
0.0266701
0.0266701
0.0266698
0.0266697
0.0266698
0.0266702
0.0344081
0.0344083
0.0344085
0.0344087
0.0344092
0.0344102
0.039305
0.0393051
0.0393052
0.0393057
0.0393065
0.0393082
0.0421146
0.0421144
0.0421145
0.042115
0.042116
0.0421182
0.0430328
0.0430326
0.0430328
0.0430336
0.0430352
0.0421146
0.0421145
0.0421146
0.0421152
0.0421164
0.0393386
0.0393386
0.0393387
0.0393391
0.0393399
0.0345147
0.0345148
0.0345149
0.0345151
0.0345155
0.0268826
0.0268827
0.0268828
0.0268829
0.026883
0.0126308
0.0126309
0.0126311
0.0126312
0.012631
0.011939
0.0119393
0.0119396
0.0119398
0.0119399
0.0119397
0.0253756
0.0253754
0.0253751
0.0253751
0.0253753
0.0253759
0.0325038
0.0325038
0.0325039
0.0325041
0.0325045
0.0325052
0.0368743
0.0368744
0.0368745
0.0368748
0.0368754
0.0368764
0.0393385
0.0393384
0.0393385
0.0393389
0.0393395
0.0393406
0.0401234
0.0401232
0.0401233
0.0401238
0.0401248
0.0393055
0.0393054
0.0393055
0.0393059
0.0393067
0.036875
0.0368749
0.0368749
0.0368752
0.0368758
0.0326266
0.0326265
0.0326264
0.0326266
0.032627
0.025726
0.0257257
0.0257255
0.0257256
0.025726
0.0120962
0.0120965
0.012097
0.0120972
0.0120966
0.0108596
0.0108603
0.0108614
0.0108624
0.010863
0.0108627
0.0232922
0.0232912
0.023291
0.0232915
0.0232929
0.0232945
0.0292105
0.0292102
0.0292102
0.0292105
0.0292114
0.0292125
0.0326259
0.032626
0.032626
0.0326262
0.0326267
0.0326272
0.0345146
0.0345147
0.0345148
0.034515
0.0345154
0.0345158
0.0350859
0.0350858
0.0350858
0.0350861
0.0350865
0.0344092
0.034409
0.034409
0.0344092
0.0344096
0.0325048
0.0325045
0.0325044
0.0325045
0.0325049
0.0292116
0.0292111
0.0292108
0.0292109
0.0292115
0.0236632
0.0236616
0.0236611
0.0236614
0.0236629
0.0111178
0.0111185
0.0111196
0.0111199
0.0111186
0.0100028
0.0100098
0.0100159
0.0100187
0.0100203
0.0100152
0.0201836
0.020183
0.0201836
0.0201853
0.0201895
0.0201894
0.0236619
0.0236608
0.0236603
0.0236595
0.023657
0.0236546
0.0257259
0.0257258
0.0257252
0.0257242
0.0257224
0.0257234
0.0268842
0.026884
0.0268836
0.0268833
0.0268834
0.026884
0.0271925
0.0271924
0.0271923
0.0271923
0.0271925
0.0266699
0.0266697
0.0266696
0.0266697
0.0266698
0.0253757
0.0253753
0.025375
0.025375
0.0253753
0.023293
0.0232915
0.023291
0.0232911
0.0232925
0.0201848
0.0201837
0.0201839
0.0201843
0.020185
0.0101392
0.0101461
0.0101524
0.0101528
0.010144
0.00682969
0.00683299
0.0068355
0.0068362
0.00683695
0.00683517
0.0101382
0.0101456
0.0101522
0.0101549
0.0101559
0.0101494
0.0111167
0.011118
0.0111193
0.0111191
0.0120961
0.0120966
0.0120969
0.012096
0.0120924
0.0126326
0.0126325
0.0126321
0.0126315
0.0126307
0.0127793
0.0127792
0.012779
0.0127789
0.0127789
0.0125356
0.0125355
0.0125355
0.0125355
0.0125354
0.0119389
0.011939
0.0119392
0.0119393
0.0119389
0.0108601
0.0108604
0.0108612
0.0108615
0.0108605
0.0100036
0.0100102
0.010016
0.0100162
0.0100079
0.00683028
0.00683312
0.00683542
0.00683625
0.00683313
)
;

boundaryField
{
    inlet
    {
        type            fixedValue;
        value           nonuniform List<scalar> 0();
    }
    ami1
    {
        type            cyclicAMI;
        value           nonuniform List<scalar> 0();
    }
    walls
    {
        type            kqRWallFunction;
        value           nonuniform List<scalar> 
250
(
0.00683027
0.0100035
0.01086
0.0119388
0.0125354
0.0127787
0.012631
0.0120962
0.0111177
0.010139
0.00683019
0.00683315
0.0100101
0.0108604
0.0119388
0.0125353
0.0127786
0.012631
0.0120965
0.0111185
0.010146
0.00683313
0.00683551
0.010016
0.0108612
0.0119391
0.0125353
0.0127786
0.0126312
0.012097
0.0111197
0.0101524
0.00683556
0.00683595
0.0100175
0.0108618
0.0119391
0.0125353
0.0127786
0.0126312
0.0120973
0.0111204
0.0101548
0.00683616
0.00683583
0.0100133
0.0108623
0.0119383
0.0125352
0.0127786
0.0126312
0.0120971
0.0111198
0.0101536
0.00683706
0.0119358
0.0125354
0.0127785
0.0126309
0.012096
0.0111167
0.0101437
0.00683274
0.0127786
0.0126305
0.0120946
0.01111
0.00683019
0.0100033
0.0108595
0.0119382
0.0125349
0.0127783
0.0126308
0.0120962
0.0111178
0.0101392
0.00683028
0.00683313
0.01001
0.0108601
0.0119385
0.0125349
0.0127783
0.0126309
0.0120965
0.0111185
0.0101461
0.00683312
0.00683556
0.0100159
0.0108611
0.0119389
0.0125351
0.0127785
0.0126311
0.012097
0.0111196
0.0101524
0.00683542
0.00683616
0.0100182
0.0108618
0.0119393
0.0125353
0.0127785
0.0126312
0.0120972
0.0111199
0.0101528
0.00683625
0.00683706
0.010017
0.0108618
0.0119395
0.0125357
0.0127786
0.012631
0.0120966
0.0111186
0.010144
0.00683313
0.00683274
0.0100078
0.0108605
0.0119394
0.012537
0.00682969
0.0101382
0.0111167
0.0120961
0.0126326
0.00683299
0.0101456
0.011118
0.0120966
0.0126325
0.0127793
0.0125356
0.0119389
0.0108601
0.0100036
0.00683028
0.0068355
0.0101522
0.0111193
0.0120969
0.0126321
0.0127792
0.0125355
0.011939
0.0108604
0.0100102
0.00683312
0.0068362
0.0101549
0.0111191
0.012096
0.0126315
0.012779
0.0125355
0.0119392
0.0108612
0.010016
0.00683542
0.00683695
0.0101559
0.0120924
0.0126307
0.0127789
0.0125355
0.0119393
0.0108615
0.0100162
0.00683625
0.00683517
0.0101494
0.0127789
0.0125354
0.0119389
0.0108605
0.0100079
0.00683313
0.0125366
0.011939
0.0108596
0.0100028
0.00682969
0.00683027
0.0101392
0.0111177
0.0120962
0.0126308
0.0127785
0.0125365
0.0119393
0.0108603
0.0100098
0.00683299
0.00683315
0.0101461
0.0111185
0.0120965
0.0126309
0.0127785
0.0125362
0.0119396
0.0108614
0.0100159
0.0068355
0.00683551
0.0101525
0.0111196
0.012097
0.012631
0.0127786
0.0125359
0.0119398
0.0108624
0.0100187
0.0068362
0.00683595
0.010154
0.01112
0.0120971
0.012631
0.0127785
0.0125358
0.0119399
0.010863
0.0100203
0.00683695
0.00683583
0.0101493
0.0111188
0.0120967
0.0126308
0.0127784
0.0125359
0.0119397
0.0108627
0.0100152
0.00683517
0.0101348
0.0111153
0.0120961
0.0126302
0.0127783
0.0111102
0.0120977
)
;
    }
    ami2
    {
        type            cyclicAMI;
        value           nonuniform List<scalar> 0();
    }
    outlet
    {
        type            zeroGradient;
    }
    procBoundary5to6
    {
        type            processor;
        value           nonuniform List<scalar> 
177
(
0.00682987
0.00682987
0.010001
0.0108659
0.0108659
0.0108659
0.011937
0.0125366
0.0125366
0.0127786
0.0271922
0.0126304
0.0268832
0.0120947
0.0111124
0.0101414
0.0101414
0.0101414
0.00683084
0.010142
0.0201815
0.010142
0.0201815
0.0201815
0.0201815
0.0232958
0.0253741
0.0266706
0.0271922
0.0268832
0.0268832
0.0257249
0.0326273
0.0236562
0.0292118
0.0201811
0.0100068
0.0100068
0.0111136
0.0236582
0.0236582
0.0236582
0.0292129
0.0325056
0.0344103
0.0350873
0.0345166
0.0393417
0.0326273
0.0292118
0.0292118
0.0232899
0.0108587
0.0253759
0.0108587
0.0120975
0.0126292
0.0257273
0.0326278
0.0268824
0.0326278
0.0345166
0.0368774
0.0393419
0.0393086
0.0421186
0.0401266
0.0393417
0.0430364
0.0393417
0.0393417
0.0368767
0.0393073
0.0325052
0.0344096
0.0253759
0.0266709
0.0119392
0.0126292
0.0268824
0.0345166
0.0345166
0.0350872
0.0393419
0.0401264
0.0421186
0.0430371
0.0430364
0.0421174
0.0393073
0.0344096
0.0266709
0.0266709
0.0125368
0.0127788
0.0127781
0.0125371
0.0350872
0.0271924
0.0350869
0.0266712
0.0350872
0.0350872
0.0401264
0.0401264
0.0430371
0.0430371
0.0430371
0.0439953
0.0430351
0.0401248
0.0350864
0.0271923
0.0127788
0.0125371
0.0266712
0.0344103
0.0393083
0.0421182
0.0430354
0.0421167
0.0393402
0.0345157
0.0268832
0.012631
0.0119397
0.0253765
0.0325054
0.0368766
0.0393408
0.0401251
0.0393069
0.036876
0.0326272
0.0257263
0.0120962
0.0108616
0.0232945
0.029212
0.0326273
0.034516
0.0350867
0.0344098
0.0325051
0.0292117
0.0236631
0.0111176
0.010006
0.0201852
0.0111152
0.0236569
0.0111083
0.0257238
0.0120917
0.0268838
0.0126313
0.0271926
0.0266699
0.0253755
0.0232927
0.0201846
0.010139
0.00683093
0.0111152
0.0101395
0.0111083
0.0111152
0.0111152
0.0120917
0.0126313
0.0126313
0.0127789
0.0125354
0.0119386
0.0108597
0.0100033
0.00683014
)
;
    }
    procBoundary5to7
    {
        type            processor;
        value           nonuniform List<scalar> 
131
(
0.00683357
0.0100084
0.0108611
0.0119394
0.0125357
0.0127789
0.0126312
0.0120967
0.0111188
0.0101443
0.00683342
0.0101445
0.0201856
0.0232929
0.0253756
0.0266698
0.0271922
0.026883
0.0257257
0.0236627
0.020185
0.0100081
0.0111189
0.0236631
0.0292114
0.0325046
0.0344089
0.0350855
0.0345146
0.032626
0.0292106
0.0232919
0.0108604
0.0120966
0.0257256
0.0326262
0.0368746
0.039305
0.0401226
0.039338
0.036874
0.0325034
0.0253742
0.0119385
0.0126309
0.0268824
0.0345144
0.0393383
0.042114
0.0430316
0.0421135
0.0393043
0.0344078
0.0266685
0.0125349
0.0127784
0.0127784
0.0271914
0.0271914
0.035085
0.035085
0.0401228
0.0401228
0.0430322
0.0430322
0.0439903
0.0430313
0.040122
0.0350846
0.0271911
0.0127783
0.0125351
0.0266688
0.0344075
0.0393039
0.0421129
0.043032
0.043032
0.0421136
0.0393378
0.0345142
0.0268824
0.0126309
0.011939
0.0253749
0.0325033
0.0368735
0.0393374
0.0401228
0.0401228
0.0393048
0.0368744
0.0326262
0.0257257
0.0120967
0.0108603
0.0232918
0.0292099
0.0326253
0.034514
0.0350855
0.0350855
0.0344088
0.0325045
0.0292114
0.0236631
0.0111189
0.0100068
0.0201836
0.023661
0.025725
0.026883
0.0271924
0.0271924
0.0266699
0.0253757
0.023293
0.0201856
0.0101445
0.00683214
0.0101423
0.0111168
0.0120958
0.0126314
0.0127793
0.0127793
0.0125359
0.0119394
0.0108611
0.0100085
0.00683358
)
;
    }
}


// ************************************************************************* //
