/*--------------------------------*- C++ -*----------------------------------*\
| =========                 |                                                 |
| \\      /  F ield         | OpenFOAM: The Open Source CFD Toolbox           |
|  \\    /   O peration     | Version:  2212                                  |
|   \\  /    A nd           | Website:  www.openfoam.com                      |
|    \\/     M anipulation  |                                                 |
\*---------------------------------------------------------------------------*/
FoamFile
{
    version     2.0;
    format      ascii;
    arch        "LSB;label=32;scalar=64";
    class       volScalarField;
    location    "2";
    object      k;
}
// * * * * * * * * * * * * * * * * * * * * * * * * * * * * * * * * * * * * * //

dimensions      [0 2 -2 0 0 0 0];

internalField   nonuniform List<scalar> 
682
(
0.00222095
0.0021442
0.00207374
0.00200887
0.00194897
0.00189389
0.00184321
0.00179606
0.00175233
0.00171141
0.00167391
0.0021755
0.00210155
0.00203348
0.00197065
0.00191259
0.00185901
0.00180961
0.00176445
0.00172257
0.0016836
0.00164642
0.00211209
0.00204393
0.00198102
0.00192292
0.00186923
0.00182005
0.00177443
0.00173218
0.00169329
0.0016566
0.00161966
0.00211606
0.00205503
0.00199702
0.00194302
0.00189178
0.0018395
0.00179411
0.00175181
0.00171319
0.00167625
0.00164202
0.00160949
0.00211497
0.00206574
0.00200977
0.00195897
0.00191193
0.00186727
0.00182572
0.0017867
0.0017505
0.00171624
0.00168429
0.00165504
0.00244845
0.00240059
0.00235234
0.00230738
0.00226475
0.00222477
0.00218633
0.00215021
0.00211578
0.00208265
0.00205051
0.00202045
0.00300288
0.0028359
0.00268369
0.00254465
0.00241734
0.00230055
0.0021932
0.00209417
0.00200299
0.00191781
0.00183946
0.00297662
0.00281353
0.00266436
0.00252766
0.00240199
0.00228634
0.00217964
0.00208101
0.00198981
0.00190457
0.00182656
0.00280241
0.00265027
0.00251003
0.00238108
0.0022614
0.00215145
0.0020493
0.0019549
0.00186711
0.00178443
0.00170946
0.00259177
0.002447
0.0023113
0.00218441
0.00206969
0.00195764
0.00186214
0.00176686
0.00168443
0.00160272
0.00152988
0.00146025
0.00208428
0.0019766
0.00186606
0.00176958
0.00167793
0.00159654
0.00152087
0.00145294
0.00139023
0.00132946
0.00127015
0.00122
0.00219631
0.00214245
0.00208926
0.00203953
0.00199272
0.00195
0.00190997
0.00187313
0.00183807
0.00180521
0.00177338
0.00174387
0.00391359
0.00368289
0.00347243
0.00327993
0.00310343
0.00294124
0.00279188
0.00265399
0.00252653
0.00240803
0.00229857
0.0038369
0.00361308
0.0034086
0.00322131
0.00304933
0.00289108
0.00274518
0.00261034
0.00248554
0.00236945
0.00226222
0.00355354
0.00334845
0.00316051
0.00298788
0.00282884
0.00268238
0.0025472
0.00242198
0.00230589
0.00219758
0.00209746
0.00325749
0.00306692
0.00289101
0.0027296
0.00258009
0.00244305
0.0023169
0.00220039
0.0020905
0.00199083
0.00189555
0.00181078
0.00257602
0.0024425
0.00231173
0.00219887
0.00208796
0.00199271
0.00189931
0.001819
0.00173777
0.00166796
0.00159674
0.0015351
0.00225052
0.0021872
0.00212391
0.00206602
0.00201338
0.00196592
0.00192221
0.00188117
0.00184153
0.00180508
0.00176786
0.00173322
0.00460418
0.00432867
0.00407749
0.00384789
0.00363744
0.00344408
0.003266
0.00310162
0.00294958
0.0028085
0.00267771
0.00448827
0.00422103
0.00397724
0.00375424
0.00354974
0.00336175
0.00318854
0.00302859
0.00288059
0.00274319
0.0026158
0.0041213
0.00387802
0.00365576
0.00345216
0.00326519
0.0030931
0.00293443
0.00278779
0.00265204
0.00252583
0.00240889
0.00374539
0.00352091
0.00331584
0.00312818
0.00295595
0.00279762
0.00265175
0.00251752
0.00239302
0.00227808
0.0021704
0.00207213
0.00289966
0.00273754
0.00258947
0.00245443
0.00233074
0.00221769
0.00211309
0.00201867
0.00192781
0.00184924
0.00177113
0.00170226
0.0023039
0.00222544
0.00215399
0.00208881
0.00202949
0.00197474
0.00192593
0.00187537
0.00182786
0.00178643
0.00174663
0.001709
0.00489736
0.00460316
0.00433497
0.00408983
0.00386518
0.00365879
0.00346873
0.0032933
0.00313104
0.00298054
0.00284096
0.00447736
0.00421011
0.00396634
0.00374339
0.00353894
0.00335102
0.00317791
0.00301807
0.00287021
0.00273293
0.00260562
0.00405009
0.00380389
0.0035798
0.00337525
0.00318806
0.00301636
0.00285849
0.00271311
0.00257881
0.00245485
0.00233868
0.00223112
0.00309805
0.00292036
0.00275874
0.0026115
0.00247712
0.00235421
0.00224142
0.00213799
0.00204211
0.0019554
0.0018676
0.00178605
0.00232629
0.00224268
0.00216635
0.00209669
0.00203315
0.00197438
0.00191968
0.0018692
0.00182167
0.00178029
0.00173652
0.00169456
0.00503855
0.00473528
0.00445886
0.00420623
0.00397473
0.00376209
0.00356631
0.00338562
0.00321852
0.00306357
0.00291987
0.00460429
0.00432889
0.00407778
0.0038482
0.00363775
0.00344438
0.00326628
0.00310189
0.00294984
0.00280877
0.00267802
0.00416738
0.00391386
0.00368327
0.00347292
0.00328052
0.0031041
0.00294196
0.00279264
0.00265478
0.00252736
0.00240891
0.00229952
0.00318784
0.00300413
0.00283712
0.00268497
0.00254602
0.00241882
0.00230211
0.00219484
0.00209587
0.00200474
0.00191965
0.00184145
0.0023053
0.00222152
0.0021448
0.00207438
0.00200954
0.00194968
0.0018946
0.00184394
0.00179681
0.00175308
0.00171219
0.00167458
0.00489699
0.00460295
0.00433486
0.00408978
0.00386515
0.00365876
0.0034687
0.00329326
0.00313099
0.00298049
0.0028409
0.00448792
0.00422083
0.00397713
0.00375419
0.00354969
0.00336168
0.00318845
0.00302847
0.00288043
0.00274301
0.00261561
0.00408221
0.00383663
0.00361295
0.00340858
0.00322136
0.00304941
0.00289117
0.00274525
0.0026104
0.00248556
0.00236945
0.00226224
0.00315569
0.00297691
0.00281393
0.00266487
0.00252829
0.0024027
0.00228712
0.00218044
0.00208185
0.0019906
0.00190539
0.00182733
0.00225606
0.00217561
0.00210178
0.00203381
0.00197106
0.00191305
0.00185951
0.00181012
0.00176497
0.00172311
0.00168411
0.00164689
0.00447774
0.0042104
0.00396654
0.0037435
0.00353898
0.003351
0.00317783
0.00301794
0.00287005
0.00273274
0.00260539
0.00412179
0.0038785
0.00365616
0.00345247
0.00326536
0.00309315
0.00293434
0.0027876
0.00265175
0.00252545
0.00240847
0.00377718
0.00355314
0.00334837
0.00316049
0.00298792
0.00282879
0.0026823
0.00254694
0.00242175
0.00230544
0.00219714
0.002097
0.0029663
0.0028012
0.00264968
0.00250961
0.00238099
0.0022614
0.00215162
0.00204943
0.00195523
0.00186699
0.00178475
0.00170953
0.0021852
0.00211139
0.00204354
0.00198085
0.00192292
0.00186934
0.00182025
0.00177467
0.00173246
0.00169358
0.00165683
0.00161984
0.00380488
0.00358054
0.00337576
0.00318837
0.00301649
0.0028585
0.00271301
0.00257865
0.00245466
0.0023384
0.00223078
0.00352281
0.00331752
0.00312945
0.00295695
0.00279821
0.00265218
0.00251761
0.00239305
0.0022779
0.00217007
0.00207171
0.00325875
0.00306777
0.00289256
0.00273008
0.00258126
0.00244279
0.0023174
0.00219944
0.00209148
0.00198891
0.00189629
0.00180976
0.00259073
0.00244515
0.00231188
0.00218294
0.00207019
0.00195751
0.00186253
0.00176678
0.00168484
0.0016019
0.00153037
0.00145984
0.00211489
0.00205407
0.00199645
0.00194275
0.00189168
0.00183948
0.00179421
0.00175191
0.00171338
0.00167629
0.0016422
0.00160955
0.00292078
0.00275911
0.00261172
0.00247721
0.00235416
0.00224132
0.00213782
0.00204194
0.00195518
0.0018672
0.00178569
0.0027394
0.00259137
0.00245568
0.00233191
0.00221806
0.00211394
0.00201862
0.00192847
0.00184915
0.00177088
0.0017019
0.00258207
0.00244224
0.00231765
0.00219615
0.00209221
0.00198996
0.00190255
0.00181646
0.00174079
0.00166567
0.00159843
0.00153426
0.00208507
0.00197525
0.00187125
0.00176834
0.00168164
0.00159565
0.00152323
0.00145227
0.00139124
0.00132876
0.00127075
0.00122021
0.00211444
0.00206528
0.00201049
0.00195897
0.00191268
0.00186735
0.00182618
0.00178677
0.00175071
0.0017163
0.00168445
0.00165522
0.00224295
0.00216656
0.00209685
0.00203328
0.0019745
0.00191982
0.00186936
0.00182186
0.00178054
0.00173674
0.00169478
0.00222583
0.00215435
0.0020891
0.00202965
0.00197486
0.00192605
0.00187547
0.00182799
0.0017866
0.00174676
0.00170914
0.00225142
0.00218791
0.00212513
0.00206586
0.00201392
0.0019656
0.0019225
0.00188085
0.00184177
0.00180504
0.00176795
0.00173321
0.00219659
0.00214238
0.0020904
0.00203952
0.00199342
0.00194984
0.00191028
0.00187291
0.00183819
0.00180512
0.00177343
0.00174397
0.00244849
0.00240048
0.00235325
0.00230749
0.00226538
0.00222459
0.00218683
0.00214995
0.00211607
0.00208257
0.00205083
0.00202065
)
;

boundaryField
{
    inlet
    {
        type            fixedValue;
        value           nonuniform List<scalar> 0();
    }
    ami1
    {
        type            cyclicAMI;
        value           nonuniform List<scalar> 0();
    }
    walls
    {
        type            kqRWallFunction;
        value           nonuniform List<scalar> 
259
(
0.00211606
0.00211497
0.00244845
0.00222095
0.0021755
0.00211209
0.00205503
0.00206574
0.00240059
0.0021442
0.00210155
0.00204393
0.00199702
0.00200977
0.00235234
0.00207374
0.00203348
0.00198102
0.00194302
0.00195897
0.00230738
0.00200887
0.00197065
0.00192292
0.00189178
0.00191193
0.00226475
0.00194897
0.00191259
0.00186923
0.0018395
0.00186727
0.00222477
0.00189389
0.00185901
0.00182005
0.00179411
0.00182572
0.00218633
0.00184321
0.00180961
0.00177443
0.00175181
0.0017867
0.00215021
0.00179606
0.00176445
0.00173218
0.00171319
0.0017505
0.00211578
0.00175233
0.00172257
0.00169329
0.00167625
0.00171624
0.00208265
0.00171141
0.0016836
0.0016566
0.00164202
0.00168429
0.00205051
0.00167391
0.00164642
0.00161966
0.00160949
0.00165504
0.00202045
0.00244845
0.00219631
0.00225052
0.0023039
0.00232629
0.0023053
0.00225606
0.0021852
0.00211489
0.00211444
0.00244849
0.00240059
0.00214245
0.0021872
0.00222544
0.00224268
0.00222152
0.00217561
0.00211139
0.00205407
0.00206528
0.00240048
0.00235234
0.00208926
0.00212391
0.00215399
0.00216635
0.0021448
0.00210178
0.00204354
0.00199645
0.00201049
0.00235325
0.00230738
0.00203953
0.00206602
0.00208881
0.00209669
0.00207438
0.00203381
0.00198085
0.00194275
0.00195897
0.00230749
0.00226475
0.00199272
0.00201338
0.00202949
0.00203315
0.00200954
0.00197106
0.00192292
0.00189168
0.00191268
0.00226538
0.00222477
0.00195
0.00196592
0.00197474
0.00197438
0.00194968
0.00191305
0.00186934
0.00183948
0.00186735
0.00222459
0.00218633
0.00190997
0.00192221
0.00192593
0.00191968
0.0018946
0.00185951
0.00182025
0.00179421
0.00182618
0.00218683
0.00215021
0.00187313
0.00188117
0.00187537
0.0018692
0.00184394
0.00181012
0.00177467
0.00175191
0.00178677
0.00214995
0.00211578
0.00183807
0.00184153
0.00182786
0.00182167
0.00179681
0.00176497
0.00173246
0.00171338
0.00175071
0.00211607
0.00208265
0.00180521
0.00180508
0.00178643
0.00178029
0.00175308
0.00172311
0.00169358
0.00167629
0.0017163
0.00208257
0.00205051
0.00177338
0.00176786
0.00174663
0.00173652
0.00171219
0.00168411
0.00165683
0.0016422
0.00168445
0.00205083
0.00202045
0.00174387
0.00173322
0.001709
0.00169456
0.00167458
0.00164689
0.00161984
0.00160955
0.00165522
0.00202065
0.00225142
0.00219659
0.00244849
0.00224295
0.00222583
0.00218791
0.00214238
0.00240048
0.00216656
0.00215435
0.00212513
0.0020904
0.00235325
0.00209685
0.0020891
0.00206586
0.00203952
0.00230749
0.00203328
0.00202965
0.00201392
0.00199342
0.00226538
0.0019745
0.00197486
0.0019656
0.00194984
0.00222459
0.00191982
0.00192605
0.0019225
0.00191028
0.00218683
0.00186936
0.00187547
0.00188085
0.00187291
0.00214995
0.00182186
0.00182799
0.00184177
0.00183819
0.00211607
0.00178054
0.0017866
0.00180504
0.00180512
0.00208257
0.00173674
0.00174676
0.00176795
0.00177343
0.00205083
0.00169478
0.00170914
0.00173321
0.00174397
0.00202065
)
;
    }
    ami2
    {
        type            cyclicAMI;
        value           nonuniform List<scalar> 0();
    }
    outlet
    {
        type            zeroGradient;
    }
    procBoundary9to0
    {
        type            processor;
        value           nonuniform List<scalar> 
40
(
0.00230299
0.0022547
0.00218501
0.00218501
0.00218202
0.00216595
0.00249698
0.00318742
0.00315544
0.00296576
0.00296576
0.00274246
0.0021855
0.00225358
0.00416805
0.00408273
0.00377631
0.00377631
0.00346132
0.00272684
0.00232298
0.00490835
0.00478255
0.00438775
0.00438775
0.00399011
0.00307613
0.00238951
0.00522209
0.00477168
0.00477168
0.00432149
0.0032942
0.0024164
0.00537362
0.00490826
0.00490826
0.00444783
0.00339148
0.00239492
)
;
    }
    procBoundary9to1
    {
        type            processor;
        value           nonuniform List<scalar> 
30
(
0.00522156
0.00478215
0.00478215
0.00435283
0.00335233
0.00234227
0.00477223
0.00438838
0.00438838
0.00402107
0.00314369
0.00226388
0.0040516
0.00374634
0.00374634
0.00346206
0.0027397
0.00218021
0.00309887
0.00290051
0.00290051
0.00272809
0.0021831
0.00216463
0.002325
0.00230351
0.00230351
0.00232337
0.00225303
0.00249636
)
;
    }
    procBoundary9to7
    {
        type            processor;
        value           nonuniform List<scalar> 
59
(
0.001638
0.00161238
0.00158509
0.00157776
0.0016279
0.00199215
0.00175863
0.00175
0.00163318
0.00139541
0.00117913
0.00171636
0.00219493
0.00216092
0.00200326
0.00172807
0.00147205
0.00170136
0.00255551
0.00249671
0.00229945
0.00197902
0.00163315
0.00167303
0.00271084
0.00248671
0.00213057
0.0017173
0.00165626
0.00278598
0.00255584
0.00219591
0.00176098
0.00163881
0.00271078
0.00249649
0.00216088
0.00175091
0.00161279
0.00248647
0.0022989
0.00200261
0.00163329
0.00158525
0.00213027
0.00197843
0.00172788
0.00139623
0.00157794
0.00171721
0.00163277
0.0014722
0.00117974
0.00162814
0.00165661
0.0016732
0.00170141
0.00171653
0.00199256
)
;
    }
    procBoundary9to8
    {
        type            processor;
        value           nonuniform List<scalar> 
132
(
0.00224262
0.0021661
0.00209633
0.00203264
0.00197373
0.00191895
0.00186842
0.00182083
0.00177955
0.00173535
0.00169344
0.00291961
0.00275789
0.00261046
0.00247587
0.00235271
0.00223983
0.00213608
0.00204025
0.00195327
0.00186497
0.00178306
0.00380365
0.00357941
0.00337473
0.00318742
0.00301559
0.00285764
0.00271214
0.0025778
0.00245375
0.00233743
0.00222973
0.00447685
0.00420962
0.00396587
0.00374295
0.00353854
0.00335065
0.00317755
0.00301772
0.00286987
0.00273258
0.00260524
0.00503848
0.00473518
0.00445873
0.00420609
0.00397461
0.00376198
0.00356621
0.00338554
0.00321845
0.00306351
0.00291981
0.00503848
0.00473518
0.00445873
0.00420609
0.00397461
0.00376198
0.00356621
0.00338554
0.00321845
0.00306351
0.00291981
0.00518759
0.004875
0.00459004
0.0043296
0.00409097
0.00387178
0.00366998
0.00348377
0.00331156
0.00315191
0.00300385
0.00503807
0.00473502
0.00445873
0.00420619
0.00397475
0.00376215
0.00356639
0.00338573
0.00321864
0.00306372
0.00292005
0.00460428
0.00432883
0.00407771
0.00384814
0.00363772
0.00344438
0.00326632
0.00310197
0.00294996
0.00280894
0.00267821
0.00391378
0.00368311
0.00347273
0.00328032
0.00310394
0.00294187
0.00279263
0.00265486
0.00252753
0.00240917
0.00229981
0.00300303
0.00283619
0.00268419
0.00254539
0.00241837
0.00230186
0.00219479
0.00209602
0.00200506
0.00192014
0.00184201
0.00222097
0.0021443
0.00207399
0.00200928
0.00194957
0.00189461
0.0018441
0.0017971
0.0017535
0.00171272
0.00167514
)
;
    }
}


// ************************************************************************* //
