/*--------------------------------*- C++ -*----------------------------------*\
| =========                 |                                                 |
| \\      /  F ield         | OpenFOAM: The Open Source CFD Toolbox           |
|  \\    /   O peration     | Version:  2212                                  |
|   \\  /    A nd           | Website:  www.openfoam.com                      |
|    \\/     M anipulation  |                                                 |
\*---------------------------------------------------------------------------*/
FoamFile
{
    version     2.0;
    format      ascii;
    arch        "LSB;label=32;scalar=64";
    class       volScalarField;
    location    "2";
    object      nut;
}
// * * * * * * * * * * * * * * * * * * * * * * * * * * * * * * * * * * * * * //

dimensions      [0 2 -1 0 0 0 0];

internalField   nonuniform List<scalar> 
682
(
1.73001e-05
1.70027e-05
1.67247e-05
1.6464e-05
1.62193e-05
1.59898e-05
1.57764e-05
1.55752e-05
1.53858e-05
1.52063e-05
1.50389e-05
1.65162e-05
1.62371e-05
1.59757e-05
1.57302e-05
1.54992e-05
1.52826e-05
1.50792e-05
1.48913e-05
1.47144e-05
1.45478e-05
1.43866e-05
1.45099e-05
1.42783e-05
1.40608e-05
1.38562e-05
1.36634e-05
1.34845e-05
1.33157e-05
1.31571e-05
1.30085e-05
1.28677e-05
1.27234e-05
1.17022e-05
1.15386e-05
1.13801e-05
1.12285e-05
1.1083e-05
1.09309e-05
1.0796e-05
1.06685e-05
1.05505e-05
1.04361e-05
1.03289e-05
1.02259e-05
8.03311e-06
7.94471e-06
7.83976e-06
7.741e-06
7.64858e-06
7.5593e-06
7.4749e-06
7.3946e-06
7.31898e-06
7.24681e-06
7.17861e-06
7.11531e-06
4.03224e-06
3.99369e-06
3.95355e-06
3.91574e-06
3.8795e-06
3.84506e-06
3.81164e-06
3.77994e-06
3.74941e-06
3.71993e-06
3.69092e-06
3.66357e-06
6.18142e-05
5.92352e-05
5.68333e-05
5.45763e-05
5.24448e-05
5.04282e-05
4.85177e-05
4.66975e-05
4.49748e-05
4.32886e-05
4.16476e-05
6.1155e-05
5.86734e-05
5.63318e-05
5.41132e-05
5.19937e-05
4.9977e-05
4.80493e-05
4.62089e-05
4.44526e-05
4.27399e-05
4.11043e-05
5.25922e-05
5.02548e-05
4.80364e-05
4.59538e-05
4.39285e-05
4.2077e-05
4.02561e-05
3.85631e-05
3.69103e-05
3.5292e-05
3.39528e-05
3.76498e-05
3.57142e-05
3.37921e-05
3.19413e-05
3.04307e-05
2.8458e-05
2.75116e-05
2.57089e-05
2.47794e-05
2.31972e-05
2.23334e-05
2.10193e-05
1.71415e-05
1.62156e-05
1.50942e-05
1.42592e-05
1.33873e-05
1.26693e-05
1.19668e-05
1.13681e-05
1.07889e-05
1.02475e-05
9.69725e-06
9.24087e-06
8.18903e-06
8.09181e-06
7.99181e-06
7.89669e-06
7.80583e-06
7.72175e-06
7.64199e-06
7.56782e-06
7.49641e-06
7.42914e-06
7.36313e-06
7.3013e-06
0.000108701
0.000104899
0.000101273
9.78111e-05
9.45034e-05
9.13488e-05
8.83274e-05
8.54135e-05
8.26178e-05
7.98373e-05
7.74684e-05
0.000106069
0.000102385
9.88603e-05
9.54789e-05
9.2236e-05
8.91299e-05
8.61438e-05
8.32529e-05
8.04906e-05
7.77398e-05
7.54174e-05
9.28117e-05
8.93596e-05
8.60838e-05
8.29117e-05
7.9917e-05
7.70988e-05
7.43402e-05
7.15579e-05
6.89673e-05
6.63164e-05
6.41131e-05
7.08277e-05
6.78361e-05
6.47808e-05
6.20357e-05
5.92142e-05
5.699e-05
5.48196e-05
5.2286e-05
4.93668e-05
4.75721e-05
4.4986e-05
4.37069e-05
3.52414e-05
3.41531e-05
3.19707e-05
3.09816e-05
2.90588e-05
2.81322e-05
2.64933e-05
2.56631e-05
2.41819e-05
2.34586e-05
2.21355e-05
2.14508e-05
1.20799e-05
1.19115e-05
1.17357e-05
1.15758e-05
1.14279e-05
1.12927e-05
1.11668e-05
1.10472e-05
1.09303e-05
1.08216e-05
1.07097e-05
1.06045e-05
0.000138796
0.000134424
0.000130251
0.000126264
0.000122447
0.000118787
0.00011527
0.000111878
0.000108603
0.000105377
0.000102523
0.000134447
0.000130205
0.00012615
0.000122273
0.000118568
0.00011502
0.000111611
0.000108311
0.00010512
0.000101976
9.92131e-05
0.000118948
0.00011499
0.000111198
0.000107558
0.00010406
0.000100716
9.74837e-05
9.43682e-05
9.13727e-05
8.84101e-05
8.59542e-05
9.34834e-05
8.99036e-05
8.64983e-05
8.32415e-05
8.012e-05
7.71418e-05
7.43389e-05
7.16286e-05
6.88892e-05
6.63996e-05
6.37972e-05
6.23827e-05
5.02832e-05
4.79365e-05
4.57352e-05
4.37114e-05
4.17938e-05
3.99933e-05
3.81895e-05
3.67926e-05
3.49404e-05
3.41381e-05
3.23942e-05
3.16345e-05
1.51564e-05
1.48972e-05
1.46567e-05
1.44337e-05
1.42278e-05
1.40351e-05
1.3862e-05
1.36794e-05
1.35054e-05
1.33519e-05
1.32035e-05
1.3061e-05
0.00015014
0.000145543
0.000141166
0.000136991
0.000133002
0.000129181
0.00012551
0.000121974
0.000118558
0.00011522
0.000112205
0.000133603
0.000129346
0.000125279
0.000121389
0.000117666
0.000114096
0.000110667
0.000107365
0.00010418
0.000101048
9.82787e-05
0.000107074
0.00010318
9.94735e-05
9.59422e-05
9.25728e-05
8.93551e-05
8.6283e-05
8.33434e-05
8.05274e-05
7.78282e-05
7.51191e-05
7.28244e-05
5.9942e-05
5.72482e-05
5.47595e-05
5.24437e-05
5.02797e-05
4.82507e-05
4.63356e-05
4.45474e-05
4.28293e-05
4.12859e-05
3.94789e-05
3.7783e-05
1.70741e-05
1.67671e-05
1.64814e-05
1.62155e-05
1.59701e-05
1.57397e-05
1.55218e-05
1.53179e-05
1.51234e-05
1.49509e-05
1.47704e-05
1.45906e-05
0.000155333
0.000150625
0.000146146
0.000141879
0.000137804
0.000133902
0.000130156
0.000126549
0.000123066
0.000119666
0.000116566
0.000138782
0.000134436
0.000130287
0.000126324
0.000122532
0.000118899
0.000115411
0.000112053
0.000108814
0.000105636
0.000102804
0.000112707
0.000108728
0.000104943
0.000101338
9.78976e-05
9.46115e-05
9.14764e-05
8.84735e-05
8.55813e-05
8.28073e-05
8.00529e-05
7.76853e-05
6.46183e-05
6.18402e-05
5.92788e-05
5.68934e-05
5.46518e-05
5.25345e-05
5.05304e-05
4.86317e-05
4.68226e-05
4.51105e-05
4.34374e-05
4.18126e-05
1.76205e-05
1.73013e-05
1.7004e-05
1.67263e-05
1.64661e-05
1.62218e-05
1.59926e-05
1.57796e-05
1.55786e-05
1.53894e-05
1.52102e-05
1.50424e-05
0.000150099
0.000145513
0.000141143
0.000136974
0.000132987
0.000129167
0.000125498
0.000121962
0.000118547
0.00011521
0.000112197
0.000134394
0.000130167
0.000126124
0.000122257
0.000118557
0.000115014
0.000111609
0.000108313
0.000105127
0.000101989
9.92276e-05
0.000109887
0.000106053
0.000102385
9.88694e-05
9.54987e-05
9.22598e-05
8.91641e-05
8.61778e-05
8.3298e-05
8.05319e-05
7.78023e-05
7.54599e-05
6.37903e-05
6.11579e-05
5.86918e-05
5.63607e-05
5.41529e-05
5.20406e-05
5.00312e-05
4.81072e-05
4.62721e-05
4.45156e-05
4.28103e-05
4.11648e-05
1.68135e-05
1.6515e-05
1.62365e-05
1.59756e-05
1.57307e-05
1.55004e-05
1.52841e-05
1.50811e-05
1.48935e-05
1.47168e-05
1.45504e-05
1.4389e-05
0.000133634
0.000129358
0.000125272
0.000121363
0.000117619
0.000114029
0.000110579
0.000107253
0.000104047
0.000100883
9.81042e-05
0.000118977
0.000115019
0.000111223
0.000107573
0.000104063
0.000100712
9.7466e-05
9.43373e-05
9.133e-05
8.83563e-05
8.58838e-05
9.63592e-05
9.27785e-05
8.93677e-05
8.60806e-05
8.29371e-05
7.99038e-05
7.71284e-05
7.43188e-05
7.1597e-05
6.88904e-05
6.63865e-05
6.40528e-05
5.49624e-05
5.2526e-05
5.02307e-05
4.80113e-05
4.59598e-05
4.3936e-05
4.2101e-05
4.02742e-05
3.85982e-05
3.68947e-05
3.53679e-05
3.39402e-05
1.47517e-05
1.45052e-05
1.42749e-05
1.40586e-05
1.38551e-05
1.3663e-05
1.34848e-05
1.33165e-05
1.31582e-05
1.30098e-05
1.28692e-05
1.27246e-05
0.00010323
9.9503e-05
9.59481e-05
9.25553e-05
8.93159e-05
8.62267e-05
8.32685e-05
8.04323e-05
7.77225e-05
7.49751e-05
7.2679e-05
9.00193e-05
8.65952e-05
8.33146e-05
8.01784e-05
7.71629e-05
7.43786e-05
7.16187e-05
6.89087e-05
6.63352e-05
6.3775e-05
6.23016e-05
7.09456e-05
6.7826e-05
6.492e-05
6.19575e-05
5.94244e-05
5.67798e-05
5.49841e-05
5.20637e-05
4.97873e-05
4.695e-05
4.56389e-05
4.33051e-05
3.76442e-05
3.561e-05
3.38653e-05
3.17922e-05
3.05237e-05
2.84735e-05
2.75661e-05
2.57195e-05
2.48153e-05
2.31732e-05
2.23723e-05
2.10217e-05
1.16984e-05
1.15347e-05
1.13772e-05
1.12267e-05
1.10826e-05
1.09312e-05
1.07967e-05
1.06693e-05
1.05517e-05
1.04368e-05
1.03301e-05
1.02266e-05
5.73031e-05
5.47896e-05
5.24533e-05
5.02756e-05
4.8232e-05
4.63111e-05
4.45106e-05
4.27854e-05
4.12315e-05
3.93988e-05
3.77282e-05
4.80382e-05
4.58262e-05
4.3745e-05
4.18446e-05
3.99835e-05
3.82825e-05
3.67497e-05
3.50471e-05
3.4066e-05
3.23623e-05
3.15997e-05
3.57853e-05
3.38461e-05
3.24721e-05
3.0466e-05
2.95433e-05
2.7753e-05
2.68783e-05
2.53579e-05
2.45327e-05
2.31747e-05
2.24053e-05
2.1299e-05
1.72049e-05
1.61521e-05
1.52315e-05
1.42271e-05
1.34847e-05
1.26513e-05
1.20278e-05
1.1358e-05
1.08248e-05
1.02327e-05
9.72072e-06
9.24378e-06
8.03207e-06
7.94314e-06
7.84078e-06
7.74137e-06
7.65084e-06
7.56034e-06
7.47672e-06
7.39549e-06
7.32024e-06
7.24758e-06
7.17939e-06
7.11606e-06
1.67685e-05
1.64823e-05
1.62161e-05
1.59704e-05
1.57397e-05
1.55217e-05
1.53177e-05
1.51232e-05
1.49512e-05
1.47703e-05
1.45906e-05
1.48994e-05
1.46593e-05
1.44359e-05
1.42293e-05
1.40362e-05
1.3863e-05
1.36801e-05
1.35059e-05
1.33525e-05
1.32038e-05
1.30613e-05
1.2083e-05
1.19142e-05
1.17406e-05
1.15768e-05
1.14307e-05
1.12928e-05
1.11685e-05
1.10469e-05
1.09315e-05
1.08219e-05
1.07104e-05
1.06048e-05
8.18987e-06
8.09176e-06
7.99448e-06
7.89758e-06
7.80823e-06
7.7224e-06
7.64349e-06
7.5681e-06
7.49731e-06
7.42945e-06
7.36356e-06
7.30174e-06
4.03222e-06
3.99359e-06
3.95457e-06
3.91618e-06
3.88039e-06
3.84529e-06
3.8124e-06
3.77998e-06
3.74993e-06
3.72006e-06
3.69135e-06
3.66387e-06
)
;

boundaryField
{
    inlet
    {
        type            calculated;
        value           nonuniform List<scalar> 0();
    }
    ami1
    {
        type            cyclicAMI;
        value           nonuniform List<scalar> 0();
    }
    walls
    {
        type            nutkWallFunction;
        blending        stepwise;
        value           uniform 0;
    }
    ami2
    {
        type            cyclicAMI;
        value           nonuniform List<scalar> 0();
    }
    outlet
    {
        type            calculated;
        value           nonuniform List<scalar> 0();
    }
    procBoundary9to0
    {
        type            processor;
        value           nonuniform List<scalar> 
40
(
1.76118e-05
1.68087e-05
1.47517e-05
1.47517e-05
1.18775e-05
8.12382e-06
4.0703e-06
6.44576e-05
6.36774e-05
5.48649e-05
5.48649e-05
3.9401e-05
1.78235e-05
8.29108e-06
0.00011275
0.000109902
9.62555e-05
9.62555e-05
7.36666e-05
3.73531e-05
1.22708e-05
0.000143565
0.000139004
0.000123088
0.000123088
9.70452e-05
5.25592e-05
1.54315e-05
0.000155173
0.000138208
0.000138208
0.000111206
6.26299e-05
1.73967e-05
0.000160521
0.000143539
0.000143539
0.00011699
6.74654e-05
1.7955e-05
)
;
    }
    procBoundary9to1
    {
        type            processor;
        value           nonuniform List<scalar> 
30
(
0.00015512
0.000138962
0.000138962
0.000113883
6.64578e-05
1.7127e-05
0.000138268
0.000123153
0.000123153
9.98765e-05
5.72378e-05
1.50095e-05
0.000107206
9.35453e-05
9.35453e-05
7.37402e-05
3.93148e-05
1.18722e-05
5.98245e-05
5.02212e-05
5.02212e-05
3.73136e-05
1.77822e-05
8.12181e-06
1.70676e-05
1.51531e-05
1.51531e-05
1.22716e-05
8.29067e-06
4.07e-06
)
;
    }
    procBoundary9to7
    {
        type            processor;
        value           nonuniform List<scalar> 
59
(
1.48784e-05
1.42381e-05
1.25863e-05
1.0124e-05
7.05605e-06
3.63768e-06
3.9643e-05
3.92337e-05
3.19286e-05
2.01465e-05
8.92691e-06
7.24324e-06
7.43851e-05
7.24825e-05
6.19507e-05
4.12004e-05
2.02763e-05
1.05069e-05
9.89841e-05
9.57779e-05
8.28485e-05
5.94164e-05
2.98463e-05
1.29234e-05
0.000108553
9.48626e-05
6.99379e-05
3.62723e-05
1.44249e-05
0.000112837
9.93015e-05
7.46353e-05
3.98197e-05
1.48827e-05
0.000108549
9.58027e-05
7.25432e-05
3.93037e-05
1.42403e-05
9.46746e-05
8.27575e-05
6.19051e-05
3.19802e-05
1.25873e-05
6.97824e-05
5.9364e-05
4.14798e-05
2.02354e-05
1.01249e-05
3.61758e-05
2.98319e-05
2.03962e-05
8.9445e-06
7.05679e-06
1.44259e-05
1.29239e-05
1.05072e-05
7.24375e-06
3.63815e-06
)
;
    }
    procBoundary9to8
    {
        type            processor;
        value           nonuniform List<scalar> 
132
(
1.67681e-05
1.64815e-05
1.6215e-05
1.59689e-05
1.57376e-05
1.5519e-05
1.53146e-05
1.51194e-05
1.49489e-05
1.47639e-05
1.45846e-05
5.72601e-05
5.4739e-05
5.23969e-05
5.0211e-05
4.81598e-05
4.62336e-05
4.44178e-05
4.27022e-05
4.11263e-05
3.93105e-05
3.75569e-05
0.000103154
9.94292e-05
9.5876e-05
9.24829e-05
8.92397e-05
8.61482e-05
8.31874e-05
8.03476e-05
7.76306e-05
7.48727e-05
7.25691e-05
0.000133586
0.000129319
0.000125242
0.00012134
0.000117602
0.000114017
0.000110569
0.000107246
0.000104041
0.000100876
9.80911e-05
0.00015534
0.000150623
0.000146136
0.000141859
0.000137774
0.000133861
0.000130103
0.000126482
0.000122983
0.000119562
0.000116452
0.00015534
0.000150623
0.000146136
0.000141859
0.000137774
0.000133861
0.000130103
0.000126482
0.000122983
0.000119562
0.000116452
0.000160691
0.000155876
0.000151298
0.000146938
0.000142777
0.000138796
0.000134977
0.000131301
0.000127754
0.000124298
0.000121122
0.000155306
0.000150617
0.000146154
0.000141898
0.000137832
0.00013394
0.000130204
0.000126609
0.000123139
0.000119755
0.000116669
0.000138808
0.000134449
0.00013029
0.000126317
0.000122517
0.000118877
0.000115384
0.000112019
0.000108777
0.000105592
0.000102761
0.000108724
0.000104929
0.000101314
9.78655e-05
9.45778e-05
9.14429e-05
8.84425e-05
8.55549e-05
8.27882e-05
8.00339e-05
7.76626e-05
6.18167e-05
5.92437e-05
5.68542e-05
5.46131e-05
5.25009e-05
5.05037e-05
4.8613e-05
4.68119e-05
4.51066e-05
4.34394e-05
4.18147e-05
1.72976e-05
1.70004e-05
1.67228e-05
1.6463e-05
1.62192e-05
1.59905e-05
1.57782e-05
1.55779e-05
1.53895e-05
1.52111e-05
1.50435e-05
)
;
    }
}


// ************************************************************************* //
