/*--------------------------------*- C++ -*----------------------------------*\
| =========                 |                                                 |
| \\      /  F ield         | OpenFOAM: The Open Source CFD Toolbox           |
|  \\    /   O peration     | Version:  2212                                  |
|   \\  /    A nd           | Website:  www.openfoam.com                      |
|    \\/     M anipulation  |                                                 |
\*---------------------------------------------------------------------------*/
FoamFile
{
    version     2.0;
    format      ascii;
    arch        "LSB;label=32;scalar=64";
    class       volScalarField;
    location    "2";
    object      p;
}
// * * * * * * * * * * * * * * * * * * * * * * * * * * * * * * * * * * * * * //

dimensions      [0 2 -2 0 0 0 0];

internalField   nonuniform List<scalar> 
682
(
0.00328151
0.0031482
0.00301614
0.00288535
0.00275588
0.00262771
0.00250081
0.00237514
0.00225074
0.00212757
0.00200568
0.00328597
0.00315215
0.00301951
0.00288823
0.00275847
0.00263014
0.00250312
0.00237741
0.00225301
0.00212983
0.00200798
0.00328588
0.00315183
0.00301829
0.00288609
0.00275585
0.00262744
0.00250059
0.00237511
0.00225098
0.00212797
0.00200651
0.00341047
0.00327745
0.00314552
0.00301485
0.0028858
0.00275676
0.00262874
0.00250226
0.00237681
0.00225252
0.00212918
0.00200733
0.00341474
0.00328378
0.00315346
0.00302393
0.00289562
0.00276684
0.00263865
0.00251183
0.00238627
0.00226185
0.00213823
0.00201539
0.00339835
0.00326881
0.00313925
0.00300942
0.00288042
0.00275166
0.00262393
0.00249767
0.00237262
0.0022487
0.00212585
0.00200424
0.00328627
0.0031538
0.00302242
0.00289217
0.00276308
0.00263517
0.00250838
0.00238264
0.0022579
0.00213411
0.00201145
0.00328687
0.00315405
0.0030223
0.00289164
0.00276224
0.00263408
0.00250709
0.00238123
0.00225647
0.00213275
0.00201009
0.00328142
0.00314822
0.00301596
0.00288464
0.00275521
0.00262725
0.00250051
0.00237499
0.00225065
0.00212755
0.00200557
0.00340533
0.00327219
0.00313999
0.0030083
0.00287734
0.00274841
0.00262153
0.00249622
0.00237146
0.00224759
0.00212494
0.00200418
0.00340902
0.0032784
0.00314856
0.00301906
0.00289033
0.00276172
0.00263426
0.00250828
0.00238323
0.00225921
0.00213625
0.00201453
0.00338233
0.0032537
0.00312464
0.00299482
0.00286556
0.00273698
0.0026097
0.00248386
0.00235925
0.00223586
0.00211389
0.00199352
0.00324151
0.00310924
0.00297805
0.00284825
0.00271995
0.00259283
0.00246671
0.0023416
0.00221743
0.0020942
0.00197188
0.0032422
0.00310957
0.00297826
0.00284829
0.00271965
0.00259216
0.00246575
0.00234054
0.00221648
0.00209355
0.00197159
0.00324087
0.00310788
0.00297654
0.00284669
0.00271837
0.00259094
0.00246437
0.00233946
0.00221594
0.00209374
0.00197242
0.00337395
0.00323985
0.00310748
0.0029771
0.00284793
0.0027206
0.00259415
0.00246844
0.00234401
0.00222078
0.00209865
0.00197785
0.00339481
0.00326207
0.00313087
0.00300137
0.00287283
0.00274526
0.00261883
0.00249372
0.00236891
0.00224492
0.00212185
0.00200018
0.003376
0.00324547
0.00311545
0.00298573
0.00285685
0.00272883
0.00260201
0.00247646
0.00235186
0.00222835
0.00210621
0.00198559
0.00322363
0.00309183
0.00296136
0.00283217
0.00270422
0.0025774
0.00245166
0.00232695
0.00220326
0.0020806
0.00195871
0.00322552
0.0030934
0.00296262
0.00283316
0.002705
0.002578
0.00245211
0.00232735
0.00220369
0.00208115
0.00195936
0.00323131
0.00309899
0.00296819
0.0028388
0.00271074
0.00258376
0.00245779
0.00233318
0.00220982
0.00208777
0.00196637
0.00337389
0.00323975
0.00310742
0.00297685
0.00284774
0.00271989
0.00259289
0.0024666
0.00234219
0.00221896
0.00209672
0.00197523
0.00340671
0.00327325
0.00314131
0.00301084
0.00288147
0.00275321
0.00262596
0.00249974
0.00237465
0.0022505
0.00212689
0.00200446
0.00339516
0.0032627
0.00313127
0.00300068
0.00287101
0.00274245
0.00261488
0.00248858
0.002363
0.00223854
0.00211486
0.00199169
0.00321607
0.00308422
0.0029537
0.00282446
0.00269644
0.00256957
0.0024438
0.00231909
0.00219541
0.00207275
0.00195086
0.00322451
0.00309253
0.002962
0.00283278
0.00270478
0.00257793
0.00245215
0.00232749
0.00220386
0.00208133
0.00195958
0.00337273
0.00323885
0.00310665
0.00297592
0.00284651
0.00271832
0.00259127
0.00246524
0.00234037
0.00221634
0.00209334
0.00197153
0.00341394
0.00328031
0.00314808
0.00301712
0.00288733
0.00275865
0.00263113
0.00250466
0.00237937
0.00225484
0.00213104
0.00200855
0.00340677
0.00327279
0.00314011
0.0030086
0.00287833
0.00274933
0.00262151
0.00249488
0.0023694
0.00224527
0.00212222
0.00199979
0.00321355
0.00308191
0.00295156
0.00282244
0.00269452
0.00256774
0.00244204
0.00231738
0.00219371
0.00207104
0.00194914
0.00322365
0.00309192
0.00296149
0.00283232
0.00270436
0.00257753
0.00245177
0.00232706
0.00220334
0.00208065
0.00195871
0.00337485
0.00324146
0.00310932
0.00297823
0.00284844
0.00272011
0.00259297
0.00246683
0.00234171
0.00221751
0.00209425
0.00197187
0.00341959
0.0032861
0.00315373
0.00302243
0.00289219
0.00276309
0.00263517
0.00250835
0.0023826
0.00225783
0.00213401
0.00201131
0.00341619
0.00328151
0.00314817
0.00301605
0.00288523
0.00275576
0.00262759
0.00250068
0.002375
0.0022506
0.00212744
0.00200557
0.00321605
0.0030842
0.00295368
0.00282444
0.00269641
0.00256954
0.00244376
0.00231905
0.00219536
0.0020727
0.00195082
0.00322549
0.00309341
0.00296265
0.00283319
0.00270501
0.002578
0.0024521
0.00232731
0.00220365
0.00208109
0.00195928
0.00337593
0.00324213
0.00310957
0.00297833
0.00284837
0.00271971
0.00259219
0.00246575
0.00234049
0.00221643
0.00209348
0.00197143
0.0034205
0.00328677
0.003154
0.0030223
0.00289166
0.00276223
0.00263404
0.00250702
0.00238114
0.00225636
0.00213259
0.00200988
0.0034211
0.00328598
0.00315213
0.00301944
0.00288815
0.00275838
0.00263005
0.00250304
0.00237731
0.00225289
0.00212969
0.00200784
0.00322444
0.00309243
0.00296188
0.00283265
0.00270465
0.00257779
0.002452
0.00232732
0.0022037
0.00208118
0.00195946
0.00323123
0.0030989
0.00296811
0.00283871
0.00271065
0.00258366
0.00245769
0.002333
0.00220969
0.00208766
0.0019662
0.00337531
0.0032408
0.00310781
0.00297657
0.00284674
0.00271836
0.00259091
0.00246439
0.00233927
0.00221592
0.00209377
0.00197223
0.00341543
0.00328149
0.00314825
0.003016
0.00288478
0.00275522
0.00262719
0.00250039
0.00237486
0.0022505
0.00212739
0.00200541
0.00342079
0.00328589
0.00315182
0.00301822
0.00288598
0.00275576
0.00262738
0.00250053
0.00237505
0.00225083
0.00212778
0.00200634
0.00323889
0.00310659
0.00297578
0.00284634
0.00271816
0.0025911
0.00246505
0.00234013
0.00221609
0.00209314
0.00197135
0.00323974
0.0031073
0.00297674
0.0028476
0.00271975
0.00259275
0.00246653
0.00234189
0.00221873
0.00209665
0.00197503
0.00337394
0.00323982
0.00310724
0.00297703
0.00284814
0.00272059
0.0025941
0.00246837
0.00234383
0.00222063
0.00209867
0.00197771
0.00340534
0.00327242
0.00314016
0.00300829
0.00287741
0.00274839
0.00262146
0.00249599
0.00237141
0.00224734
0.00212462
0.002004
0.00341032
0.00327739
0.00314558
0.00301481
0.00288553
0.00275663
0.00262869
0.00250221
0.00237679
0.00225236
0.00212889
0.00200702
0.00328037
0.00314804
0.00301701
0.00288721
0.00275853
0.00263097
0.00250447
0.00237912
0.00225453
0.00213073
0.00200822
0.00327313
0.00314112
0.00301073
0.00288148
0.00275313
0.00262587
0.00249961
0.00237449
0.00225023
0.00212668
0.00200413
0.0033949
0.00326218
0.00313099
0.00300137
0.00287292
0.0027452
0.00261877
0.00249351
0.00236886
0.00224472
0.00212156
0.00199992
0.00340906
0.00327857
0.00314895
0.00301926
0.00289019
0.00276168
0.0026342
0.0025082
0.00238317
0.00225908
0.00213583
0.00201419
0.00341457
0.00328362
0.00315349
0.00302409
0.00289552
0.00276686
0.00263863
0.00251184
0.00238624
0.00226174
0.00213788
0.00201507
0.0032726
0.00314
0.00300853
0.00287823
0.00274918
0.00262134
0.0024947
0.00236921
0.00224505
0.00212191
0.00199938
0.00326264
0.00313131
0.00300071
0.00287097
0.00274232
0.00261474
0.00248842
0.00236287
0.00223846
0.0021146
0.00199131
0.00337621
0.00324573
0.00311584
0.00298592
0.00285674
0.00272875
0.00260185
0.0024763
0.00235171
0.00222821
0.0021058
0.00198528
0.0033824
0.00325371
0.00312476
0.00299502
0.00286549
0.00273698
0.00260962
0.00248379
0.00235915
0.00223572
0.0021135
0.00199316
0.00339831
0.00326874
0.00313934
0.00300963
0.00288034
0.00275166
0.00262386
0.00249763
0.00237254
0.00224859
0.00212549
0.00200391
)
;

boundaryField
{
    inlet
    {
        type            zeroGradient;
    }
    ami1
    {
        type            cyclicAMI;
        value           nonuniform List<scalar> 0();
    }
    walls
    {
        type            zeroGradient;
    }
    ami2
    {
        type            cyclicAMI;
        value           nonuniform List<scalar> 0();
    }
    outlet
    {
        type            fixedValue;
        value           nonuniform List<scalar> 0();
    }
    procBoundary9to0
    {
        type            processor;
        value           nonuniform List<scalar> 
40
(
0.00341635
0.00342123
0.00342098
0.00342098
0.00354541
0.00354864
0.00353041
0.00341971
0.00342056
0.00341545
0.00341545
0.00353887
0.00354101
0.00351283
0.00337488
0.00337593
0.00337524
0.00337524
0.0035088
0.00352818
0.00350776
0.0033568
0.00335899
0.00336516
0.00336516
0.00350941
0.00354136
0.00352914
0.00334936
0.00335799
0.00335799
0.00350816
0.00354898
0.00354258
0.0033466
0.00335678
0.00335678
0.00350965
0.00355415
0.00355267
)
;
    }
    procBoundary9to1
    {
        type            processor;
        value           nonuniform List<scalar> 
30
(
0.00334934
0.00335896
0.00335896
0.00351082
0.00355498
0.00355789
0.00335795
0.00336512
0.00336512
0.00351085
0.00354999
0.00355734
0.00337266
0.00337377
0.00337377
0.00350916
0.00353872
0.00354505
0.00341387
0.00340658
0.00340658
0.00352831
0.00354058
0.00354818
0.0034067
0.00339522
0.00339522
0.00350754
0.00351262
0.00353009
)
;
    }
    procBoundary9to7
    {
        type            processor;
        value           nonuniform List<scalar> 
59
(
0.0018846
0.00188694
0.00188558
0.00188639
0.00189351
0.00188372
0.00188999
0.00188883
0.00188514
0.00188448
0.00189356
0.00187439
0.00185096
0.00185081
0.00185265
0.0018588
0.00187981
0.00186636
0.00183778
0.0018384
0.00184542
0.00185473
0.00188359
0.00186956
0.00182986
0.00183874
0.00185109
0.0018875
0.00187789
0.00182815
0.00183774
0.00185089
0.00188982
0.00188451
0.00182985
0.00183833
0.00185065
0.00188856
0.00188679
0.00183867
0.00184532
0.00185257
0.00188482
0.0018854
0.00185098
0.00185471
0.00185873
0.00188403
0.00188612
0.00188716
0.00188333
0.00187938
0.00189301
0.00189311
0.00187734
0.00186905
0.00186572
0.00187384
0.00188326
)
;
    }
    procBoundary9to8
    {
        type            processor;
        value           nonuniform List<scalar> 
132
(
0.00327282
0.00314016
0.00300871
0.00287848
0.00274947
0.00262166
0.002495
0.00236955
0.00224538
0.00212228
0.00199975
0.00328049
0.00314808
0.00301702
0.00288723
0.0027586
0.00263104
0.00250469
0.00237931
0.00225486
0.00213117
0.00200872
0.00323885
0.0031065
0.00297563
0.00284618
0.00271803
0.00259098
0.00246502
0.00234012
0.00221614
0.00209323
0.00197159
0.00322442
0.00309237
0.00296177
0.00283253
0.00270454
0.00257769
0.00245195
0.00232729
0.0022037
0.00208123
0.00195958
0.00321352
0.00308186
0.0029515
0.00282237
0.00269445
0.00256767
0.00244197
0.00231732
0.00219367
0.00207101
0.00194914
0.00321352
0.00308186
0.0029515
0.00282237
0.00269445
0.00256767
0.00244197
0.00231732
0.00219367
0.00207101
0.00194914
0.00320989
0.00307844
0.00294826
0.00281929
0.00269148
0.0025648
0.00243918
0.00231459
0.00219098
0.00206834
0.00194647
0.00321357
0.00308193
0.00295157
0.00282245
0.00269452
0.00256774
0.00244203
0.00231737
0.0021937
0.00207103
0.00194914
0.00322363
0.00309186
0.00296141
0.00283223
0.00270428
0.00257745
0.00245169
0.00232696
0.00220324
0.00208055
0.00195864
0.00324152
0.00310929
0.00297812
0.00284833
0.00272001
0.00259287
0.00246672
0.00234158
0.00221738
0.00209411
0.00197176
0.00328608
0.00315362
0.00302224
0.00289199
0.00276288
0.00263494
0.00250811
0.00238233
0.00225754
0.0021337
0.00201102
0.00328113
0.00314782
0.00301575
0.00288494
0.00275545
0.00262726
0.00250034
0.00237466
0.00225022
0.00212699
0.00200502
)
;
    }
}


// ************************************************************************* //
