/*--------------------------------*- C++ -*----------------------------------*\
| =========                 |                                                 |
| \\      /  F ield         | OpenFOAM: The Open Source CFD Toolbox           |
|  \\    /   O peration     | Version:  2212                                  |
|   \\  /    A nd           | Website:  www.openfoam.com                      |
|    \\/     M anipulation  |                                                 |
\*---------------------------------------------------------------------------*/
FoamFile
{
    version     2.0;
    format      ascii;
    arch        "LSB;label=32;scalar=64";
    class       surfaceScalarField;
    location    "2";
    object      phi;
}
// * * * * * * * * * * * * * * * * * * * * * * * * * * * * * * * * * * * * * //

dimensions      [0 3 -1 0 0 0 0];

oriented        oriented;

internalField   nonuniform List<scalar> 
1786
(
7.76749e-07
-1.18134e-07
8.32236e-09
7.69713e-07
-1.18233e-07
8.47906e-09
7.62507e-07
-1.18283e-07
8.59267e-09
7.55183e-07
-1.18294e-07
8.65927e-09
7.47792e-07
-1.18282e-07
8.68181e-09
7.40376e-07
-1.18257e-07
8.66761e-09
7.32971e-07
-1.18226e-07
8.62431e-09
7.25606e-07
-1.18195e-07
8.55936e-09
7.18305e-07
-1.18166e-07
8.47727e-09
7.11076e-07
-1.1814e-07
8.38202e-09
-1.18123e-07
8.25444e-09
7.11165e-07
-1.09999e-07
-1.75803e-09
7.04598e-07
-1.10054e-07
-1.61305e-09
6.979e-07
-1.10049e-07
-1.53589e-09
6.91135e-07
-1.10013e-07
-1.51637e-09
6.8437e-07
-1.09974e-07
-1.54321e-09
6.77656e-07
-1.09936e-07
-1.60705e-09
6.71027e-07
-1.09902e-07
-1.69567e-09
6.64507e-07
-1.09872e-07
-1.80319e-09
6.58109e-07
-1.09846e-07
-1.92218e-09
6.51827e-07
-1.09811e-07
-2.04766e-09
-1.09782e-07
-2.19171e-09
5.7298e-07
-9.24073e-08
-1.178e-08
5.67172e-07
-9.24953e-08
-1.17496e-08
5.61409e-07
-9.24815e-08
-1.18048e-08
5.55749e-07
-9.24222e-08
-1.1932e-08
5.5024e-07
-9.23691e-08
-1.20956e-08
5.44899e-07
-9.23273e-08
-1.2267e-08
5.39721e-07
-9.2293e-08
-1.24315e-08
5.34693e-07
-9.22599e-08
-1.25839e-08
5.29799e-07
-9.22256e-08
-1.2726e-08
5.25025e-07
-9.21832e-08
-1.28541e-08
-9.21224e-08
-1.30057e-08
3.99786e-07
-6.67194e-08
-2.1183e-08
3.95405e-07
-6.68133e-08
-2.12126e-08
3.91057e-07
-6.68912e-08
-2.12562e-08
3.86852e-07
-6.68649e-08
-2.1412e-08
3.82846e-07
-6.67654e-08
-2.16505e-08
3.78977e-07
-6.67069e-08
-2.1794e-08
3.75224e-07
-6.66697e-08
-2.19046e-08
3.71585e-07
-6.66304e-08
-2.20229e-08
3.68048e-07
-6.66113e-08
-2.21118e-08
3.64618e-07
-6.65981e-08
-2.21981e-08
3.61287e-07
-6.65845e-08
-2.2267e-08
-6.65335e-08
-2.23739e-08
2.15399e-07
-3.44764e-08
-2.95917e-08
2.12796e-07
-3.44979e-08
-2.97125e-08
2.10204e-07
-3.45172e-08
-2.97826e-08
2.07617e-07
-3.45217e-08
-2.97558e-08
2.05075e-07
-3.45069e-08
-2.97162e-08
2.0257e-07
-3.45088e-08
-2.96935e-08
2.00133e-07
-3.45199e-08
-2.97129e-08
1.97793e-07
-3.45286e-08
-2.9762e-08
1.95537e-07
-3.45383e-08
-2.98167e-08
1.93361e-07
-3.45487e-08
-2.98732e-08
1.91263e-07
-3.45696e-08
-2.99179e-08
-3.46049e-08
-2.99327e-08
7.24901e-08
-3.33608e-08
7.14258e-08
-3.34337e-08
7.03961e-08
-3.34876e-08
6.93979e-08
-3.35235e-08
6.84396e-08
-3.35487e-08
6.75091e-08
-3.35783e-08
6.66098e-08
-3.36205e-08
6.57492e-08
-3.36681e-08
6.49203e-08
-3.37095e-08
6.41136e-08
-3.37421e-08
6.33252e-08
-3.37812e-08
-3.38459e-08
1.20684e-06
-1.03029e-07
9.81966e-09
1.20694e-06
-1.03087e-07
9.95542e-09
1.20687e-06
-1.0311e-07
1.00674e-08
1.20665e-06
-1.03107e-07
1.01434e-08
1.20631e-06
-1.03086e-07
1.01813e-08
1.20585e-06
-1.03058e-07
1.01898e-08
1.20532e-06
-1.03027e-07
1.01758e-08
1.20471e-06
-1.02997e-07
1.01424e-08
1.20406e-06
-1.0297e-07
1.00881e-08
1.20338e-06
-1.02951e-07
1.00168e-08
-1.0293e-07
9.89525e-09
1.14431e-06
-9.66682e-08
-8.39535e-09
1.14443e-06
-9.6544e-08
-8.2724e-09
1.14442e-06
-9.64346e-08
-8.20176e-09
1.1443e-06
-9.63265e-08
-8.17788e-09
1.1441e-06
-9.62425e-08
-8.18914e-09
1.14385e-06
-9.61842e-08
-8.22732e-09
1.14356e-06
-9.6147e-08
-8.28475e-09
1.14324e-06
-9.61295e-08
-8.35722e-09
1.14292e-06
-9.6124e-08
-8.44403e-09
1.14259e-06
-9.61408e-08
-8.53296e-09
-9.61433e-08
-8.66009e-09
1.00455e-06
-8.22563e-08
-2.60057e-08
1.00437e-06
-8.20784e-08
-2.60311e-08
1.00418e-06
-8.19709e-08
-2.60852e-08
1.00397e-06
-8.18668e-08
-2.61792e-08
1.00375e-06
-8.18428e-08
-2.62754e-08
1.00352e-06
-8.18531e-08
-2.63666e-08
1.00327e-06
-8.18698e-08
-2.64591e-08
1.003e-06
-8.1891e-08
-2.65532e-08
1.00271e-06
-8.19062e-08
-2.66532e-08
1.00239e-06
-8.19534e-08
-2.67227e-08
-8.19987e-08
-2.68218e-08
8.01319e-07
-6.07701e-08
-4.1507e-08
8.00039e-07
-6.05159e-08
-4.16729e-08
7.98886e-07
-6.03757e-08
-4.18064e-08
7.97787e-07
-6.0382e-08
-4.19021e-08
7.96708e-07
-6.04195e-08
-4.20184e-08
7.95608e-07
-6.04828e-08
-4.20539e-08
7.94452e-07
-6.05098e-08
-4.20921e-08
7.93236e-07
-6.05051e-08
-4.2172e-08
7.91959e-07
-6.04998e-08
-4.22261e-08
7.90629e-07
-6.04893e-08
-4.2285e-08
7.89214e-07
-6.05087e-08
-4.22968e-08
-6.05545e-08
-4.23087e-08
5.37216e-07
-3.24587e-08
-5.45392e-08
5.3405e-07
-3.23072e-08
-5.47554e-08
5.30992e-07
-3.21968e-08
-5.49033e-08
5.27972e-07
-3.21423e-08
-5.49753e-08
5.2497e-07
-3.21125e-08
-5.5022e-08
5.21967e-07
-3.21106e-08
-5.50624e-08
5.18967e-07
-3.20967e-08
-5.51259e-08
5.15973e-07
-3.20678e-08
-5.52059e-08
5.12979e-07
-3.20411e-08
-5.52813e-08
5.09984e-07
-3.20233e-08
-5.53443e-08
5.06961e-07
-3.20227e-08
-5.53805e-08
-3.20424e-08
-5.53593e-08
2.29694e-07
-6.26557e-08
2.26675e-07
-6.27214e-08
2.23783e-07
-6.27928e-08
2.21016e-07
-6.28986e-08
2.18371e-07
-6.30168e-08
2.15822e-07
-6.31393e-08
2.13367e-07
-6.32626e-08
2.11006e-07
-6.33751e-08
2.08704e-07
-6.34487e-08
2.06421e-07
-6.34825e-08
2.04152e-07
-6.35343e-08
-6.36868e-08
1.49578e-06
-8.37394e-08
8.45168e-09
1.49975e-06
-8.37103e-08
8.47045e-09
1.50365e-06
-8.36799e-08
8.47772e-09
1.50747e-06
-8.36489e-08
8.47628e-09
1.51123e-06
-8.36183e-08
8.46807e-09
1.51492e-06
-8.35888e-08
8.45174e-09
1.51855e-06
-8.35604e-08
8.42607e-09
1.52215e-06
-8.35361e-08
8.39201e-09
1.5257e-06
-8.35199e-08
8.34801e-09
1.52924e-06
-8.35159e-08
8.30165e-09
-8.35179e-08
8.23146e-09
1.44216e-06
-8.01928e-08
-1.58352e-08
1.44597e-06
-7.99716e-08
-1.58279e-08
1.44973e-06
-7.97954e-08
-1.58427e-08
1.45344e-06
-7.96617e-08
-1.58735e-08
1.45712e-06
-7.95708e-08
-1.59144e-08
1.46077e-06
-7.95058e-08
-1.5964e-08
1.4644e-06
-7.94528e-08
-1.60217e-08
1.46801e-06
-7.94234e-08
-1.60834e-08
1.47161e-06
-7.94165e-08
-1.61484e-08
1.47521e-06
-7.94402e-08
-1.62035e-08
-7.94845e-08
-1.62702e-08
1.30992e-06
-7.02301e-08
-3.89653e-08
1.31296e-06
-6.99483e-08
-3.9097e-08
1.31605e-06
-6.97487e-08
-3.9222e-08
1.31917e-06
-6.96198e-08
-3.93375e-08
1.32232e-06
-6.95657e-08
-3.94362e-08
1.3255e-06
-6.9527e-08
-3.95284e-08
1.32869e-06
-6.94751e-08
-3.96246e-08
1.33189e-06
-6.9469e-08
-3.97082e-08
1.33509e-06
-6.94846e-08
-3.97804e-08
1.33828e-06
-6.95333e-08
-3.98231e-08
-6.96021e-08
-3.98453e-08
1.10638e-06
-5.41519e-08
-5.89808e-08
1.10759e-06
-5.38318e-08
-5.92802e-08
1.10896e-06
-5.35994e-08
-5.95267e-08
1.11048e-06
-5.34427e-08
-5.97255e-08
1.11206e-06
-5.33373e-08
-5.98821e-08
1.1137e-06
-5.32779e-08
-5.99817e-08
1.11538e-06
-5.32226e-08
-6.00784e-08
1.1171e-06
-5.31666e-08
-6.01973e-08
1.11881e-06
-5.31375e-08
-6.02717e-08
1.12049e-06
-5.31266e-08
-6.0321e-08
1.1221e-06
-5.31264e-08
-6.03168e-08
-5.31185e-08
-6.03049e-08
8.31409e-07
-3.06593e-08
-7.58168e-08
8.29462e-07
-3.04564e-08
-7.61837e-08
8.27729e-07
-3.0298e-08
-7.64719e-08
8.26151e-07
-3.01546e-08
-7.66851e-08
8.24677e-07
-3.0023e-08
-7.68623e-08
8.23254e-07
-2.99134e-08
-7.70041e-08
8.21826e-07
-2.98071e-08
-7.71138e-08
8.2036e-07
-2.97042e-08
-7.72022e-08
8.18846e-07
-2.96372e-08
-7.72671e-08
8.1729e-07
-2.96024e-08
-7.73131e-08
8.1566e-07
-2.95292e-08
-7.73478e-08
-2.93271e-08
-7.73733e-08
4.44403e-07
-8.77873e-08
4.39227e-07
-8.8002e-08
4.34294e-07
-8.81581e-08
4.29534e-07
-8.82923e-08
4.24905e-07
-8.8411e-08
4.20371e-07
-8.85193e-08
4.15912e-07
-8.86101e-08
4.11515e-07
-8.86827e-08
4.07149e-07
-8.87199e-08
4.02794e-07
-8.87296e-08
3.98477e-07
-8.87467e-08
-8.88274e-08
1.70103e-06
-5.98441e-08
1.70717e-06
-5.97844e-08
1.71323e-06
-5.97348e-08
1.71922e-06
-5.96922e-08
1.72515e-06
-5.96554e-08
1.73103e-06
-5.96249e-08
1.73685e-06
-5.95997e-08
1.74264e-06
-5.9581e-08
1.74838e-06
-5.957e-08
1.7541e-06
-5.9569e-08
-5.95717e-08
1.65472e-06
-5.89401e-08
-2.26394e-08
1.66055e-06
-5.87387e-08
-2.27025e-08
1.66632e-06
-5.85763e-08
-2.2768e-08
1.67204e-06
-5.8449e-08
-2.28326e-08
1.67771e-06
-5.83532e-08
-2.28938e-08
1.68336e-06
-5.82813e-08
-2.29513e-08
1.68897e-06
-5.82255e-08
-2.30061e-08
1.69455e-06
-5.81885e-08
-2.30568e-08
1.7001e-06
-5.81705e-08
-2.31024e-08
1.70565e-06
-5.81782e-08
-2.31374e-08
-5.81905e-08
-2.31745e-08
1.52861e-06
-5.33348e-08
-4.93054e-08
1.53335e-06
-5.30976e-08
-4.94791e-08
1.5381e-06
-5.29144e-08
-4.96337e-08
1.54286e-06
-5.27784e-08
-4.97658e-08
1.54763e-06
-5.26848e-08
-4.9875e-08
1.55241e-06
-5.26193e-08
-4.99665e-08
1.55717e-06
-5.25644e-08
-5.00468e-08
1.56192e-06
-5.25376e-08
-5.01117e-08
1.56665e-06
-5.25255e-08
-5.01597e-08
1.57139e-06
-5.25495e-08
-5.01821e-08
-5.25513e-08
-5.01989e-08
1.32659e-06
-4.27986e-08
-7.22901e-08
1.32915e-06
-4.25325e-08
-7.26492e-08
1.33181e-06
-4.23259e-08
-7.29498e-08
1.33453e-06
-4.21721e-08
-7.31961e-08
1.33732e-06
-4.20559e-08
-7.33883e-08
1.34015e-06
-4.19647e-08
-7.35315e-08
1.34301e-06
-4.19163e-08
-7.36406e-08
1.34584e-06
-4.18662e-08
-7.37324e-08
1.34868e-06
-4.18528e-08
-7.37894e-08
1.35148e-06
-4.18264e-08
-7.38204e-08
1.35422e-06
-4.17991e-08
-7.38127e-08
-4.17247e-08
-7.38097e-08
1.04984e-06
-2.56743e-08
-9.15096e-08
1.04858e-06
-2.54597e-08
-9.19928e-08
1.04745e-06
-2.52965e-08
-9.23706e-08
1.04641e-06
-2.51669e-08
-9.26558e-08
1.04543e-06
-2.50632e-08
-9.28706e-08
1.04447e-06
-2.49715e-08
-9.30345e-08
1.04348e-06
-2.48968e-08
-9.31454e-08
1.04245e-06
-2.48136e-08
-9.3228e-08
1.04135e-06
-2.47563e-08
-9.32619e-08
1.04018e-06
-2.4692e-08
-9.32807e-08
1.03894e-06
-2.46062e-08
-9.32996e-08
-2.44581e-08
-9.3319e-08
6.3845e-07
-1.05863e-07
6.31136e-07
-1.06148e-07
6.2403e-07
-1.06348e-07
6.17065e-07
-1.06494e-07
6.10192e-07
-1.06601e-07
6.03378e-07
-1.06677e-07
5.96608e-07
-1.06737e-07
5.89887e-07
-1.06775e-07
5.83221e-07
-1.0681e-07
5.76641e-07
-1.06842e-07
5.70176e-07
-1.06888e-07
-1.06953e-07
1.78415e-06
-3.35298e-08
-2.81952e-08
1.79112e-06
-3.34138e-08
-2.82312e-08
1.79799e-06
-3.33175e-08
-2.82661e-08
1.8048e-06
-3.32388e-08
-2.82986e-08
1.81153e-06
-3.31753e-08
-2.83281e-08
1.81821e-06
-3.31242e-08
-2.83544e-08
1.82483e-06
-3.30827e-08
-2.83779e-08
1.83141e-06
-3.305e-08
-2.83985e-08
1.83794e-06
-3.30239e-08
-2.8416e-08
1.84444e-06
-3.3007e-08
-2.84294e-08
-3.29876e-08
-2.84424e-08
1.66004e-06
-3.22092e-08
-5.64449e-08
1.6658e-06
-3.21101e-08
-5.6539e-08
1.6715e-06
-3.20342e-08
-5.66213e-08
1.67716e-06
-3.19748e-08
-5.6689e-08
1.68278e-06
-3.19278e-08
-5.67419e-08
1.68836e-06
-3.18898e-08
-5.67832e-08
1.69391e-06
-3.18569e-08
-5.68155e-08
1.69941e-06
-3.18289e-08
-5.684e-08
1.70488e-06
-3.17968e-08
-5.68574e-08
1.71033e-06
-3.17681e-08
-5.68666e-08
-3.17277e-08
-5.6872e-08
1.45639e-06
-2.74813e-08
-8.07834e-08
1.45997e-06
-2.74285e-08
-8.10176e-08
1.46352e-06
-2.74021e-08
-8.12068e-08
1.46703e-06
-2.73879e-08
-8.1355e-08
1.47051e-06
-2.73746e-08
-8.14665e-08
1.47396e-06
-2.73576e-08
-8.15472e-08
1.47737e-06
-2.73406e-08
-8.16024e-08
1.48074e-06
-2.73183e-08
-8.1638e-08
1.48407e-06
-2.72951e-08
-8.16565e-08
1.48736e-06
-2.7244e-08
-8.16638e-08
1.49061e-06
-2.71698e-08
-8.16584e-08
-2.70922e-08
-8.1641e-08
1.17748e-06
-1.78639e-08
-1.00869e-07
1.17716e-06
-1.78652e-08
-1.01236e-07
1.17677e-06
-1.78737e-08
-1.0151e-07
1.17631e-06
-1.7876e-08
-1.01702e-07
1.17576e-06
-1.7866e-08
-1.01833e-07
1.17513e-06
-1.78427e-08
-1.0192e-07
1.17442e-06
-1.78062e-08
-1.01969e-07
1.17362e-06
-1.77574e-08
-1.01992e-07
1.17276e-06
-1.76999e-08
-1.01992e-07
1.17184e-06
-1.76252e-08
-1.01983e-07
1.17088e-06
-1.75314e-08
-1.01975e-07
-1.74227e-08
-1.01959e-07
7.58983e-07
-1.16403e-07
7.51612e-07
-1.16641e-07
7.44193e-07
-1.16803e-07
7.36728e-07
-1.16905e-07
7.29224e-07
-1.16964e-07
7.21697e-07
-1.16993e-07
7.14157e-07
-1.17003e-07
7.06626e-07
-1.17002e-07
6.9911e-07
-1.16994e-07
6.91623e-07
-1.1698e-07
6.84176e-07
-1.16972e-07
-1.16997e-07
1.82702e-06
-5.59362e-09
-3.20203e-08
1.83437e-06
-5.55099e-09
-3.19682e-08
1.84163e-06
-5.50872e-09
-3.19232e-08
1.84879e-06
-5.46799e-09
-3.18851e-08
1.85587e-06
-5.42984e-09
-3.18533e-08
1.86289e-06
-5.3939e-09
-3.1827e-08
1.86984e-06
-5.35902e-09
-3.18054e-08
1.87673e-06
-5.32486e-09
-3.17883e-08
1.88358e-06
-5.29113e-09
-3.17755e-08
1.89038e-06
-5.26076e-09
-3.17677e-08
-5.22259e-09
-3.17618e-08
1.70105e-06
-8.43769e-09
-5.98374e-08
1.7072e-06
-8.46018e-09
-5.97726e-08
1.71326e-06
-8.4715e-09
-5.97178e-08
1.71924e-06
-8.47293e-09
-5.96706e-08
1.72517e-06
-8.46672e-09
-5.96298e-08
1.73104e-06
-8.45196e-09
-5.95958e-08
1.73686e-06
-8.4275e-09
-5.9568e-08
1.74263e-06
-8.39449e-09
-5.95469e-08
1.74837e-06
-8.35134e-09
-5.95342e-08
1.75408e-06
-8.30492e-09
-5.95327e-08
-8.23412e-09
-5.95357e-08
1.49175e-06
-9.62949e-09
-8.37653e-08
1.49582e-06
-9.79127e-09
-8.37365e-08
1.49979e-06
-9.93159e-09
-8.37019e-08
1.50368e-06
-1.00484e-08
-8.36661e-08
1.5075e-06
-1.01277e-08
-8.36303e-08
1.51125e-06
-1.01679e-08
-8.35953e-08
1.51493e-06
-1.01782e-08
-8.35621e-08
1.51856e-06
-1.01652e-08
-8.35309e-08
1.52215e-06
-1.0133e-08
-8.35049e-08
1.5257e-06
-1.008e-08
-8.34865e-08
1.52923e-06
-1.00099e-08
-8.34827e-08
-9.88953e-09
-8.34852e-08
1.20659e-06
-8.09318e-09
-1.02935e-07
1.20689e-06
-8.29442e-09
-1.03032e-07
1.20699e-06
-8.45335e-09
-1.03089e-07
1.20691e-06
-8.56836e-09
-1.03109e-07
1.20669e-06
-8.6365e-09
-1.03102e-07
1.20634e-06
-8.66114e-09
-1.03078e-07
1.20589e-06
-8.64897e-09
-1.03046e-07
1.20535e-06
-8.60802e-09
-1.03011e-07
1.20475e-06
-8.54486e-09
-1.02978e-07
1.2041e-06
-8.46477e-09
-1.02949e-07
1.20342e-06
-8.37225e-09
-1.02928e-07
-8.24804e-09
-1.02907e-07
7.83638e-07
-1.17992e-07
7.76838e-07
-1.18135e-07
7.69813e-07
-1.18232e-07
7.6262e-07
-1.1828e-07
7.5531e-07
-1.1829e-07
7.47932e-07
-1.18276e-07
7.4053e-07
-1.1825e-07
7.3314e-07
-1.1822e-07
7.25789e-07
-1.18188e-07
7.18502e-07
-1.18158e-07
7.11287e-07
-1.18129e-07
-1.18109e-07
1.78416e-06
2.26447e-08
-3.35205e-08
1.79113e-06
2.27064e-08
-3.34011e-08
1.79801e-06
2.27706e-08
-3.33013e-08
1.80481e-06
2.28341e-08
-3.32195e-08
1.81155e-06
2.28947e-08
-3.31532e-08
1.81823e-06
2.29519e-08
-3.30996e-08
1.82486e-06
2.30066e-08
-3.30559e-08
1.83144e-06
2.30579e-08
-3.30208e-08
1.83797e-06
2.31041e-08
-3.29924e-08
1.84447e-06
2.31399e-08
-3.29738e-08
2.31784e-08
-3.29537e-08
1.65475e-06
1.5843e-08
-5.89344e-08
1.66058e-06
1.58333e-08
-5.87277e-08
1.66634e-06
1.58457e-08
-5.85602e-08
1.67206e-06
1.58751e-08
-5.84284e-08
1.67774e-06
1.59154e-08
-5.83291e-08
1.68339e-06
1.59649e-08
-5.82544e-08
1.689e-06
1.60227e-08
-5.81969e-08
1.69458e-06
1.60855e-08
-5.81569e-08
1.70014e-06
1.61504e-08
-5.81373e-08
1.70568e-06
1.62063e-08
-5.81445e-08
1.62751e-08
-5.81555e-08
1.43832e-06
8.59777e-09
-8.0466e-08
1.4422e-06
8.41269e-09
-8.0193e-08
1.44602e-06
8.28541e-09
-7.99663e-08
1.44977e-06
8.21142e-09
-7.97856e-08
1.45348e-06
8.18556e-09
-7.96477e-08
1.45715e-06
8.19593e-09
-7.95527e-08
1.46081e-06
8.23395e-09
-7.94842e-08
1.46444e-06
8.29146e-09
-7.94302e-08
1.46805e-06
8.36421e-09
-7.93948e-08
1.47165e-06
8.45076e-09
-7.9389e-08
1.47525e-06
8.54105e-09
-7.94152e-08
8.66886e-09
-7.94545e-08
1.14409e-06
1.99994e-09
-9.68145e-08
1.14436e-06
1.78038e-09
-9.66715e-08
1.14448e-06
1.63203e-09
-9.65485e-08
1.14446e-06
1.55285e-09
-9.64375e-08
1.14434e-06
1.53221e-09
-9.63292e-08
1.14415e-06
1.55708e-09
-9.62403e-08
1.14389e-06
1.61875e-09
-9.61768e-08
1.1436e-06
1.70536e-09
-9.61343e-08
1.14329e-06
1.81089e-09
-9.6112e-08
1.14297e-06
1.92902e-09
-9.61056e-08
1.14264e-06
2.05449e-09
-9.61199e-08
2.19809e-09
-9.61217e-08
7.17557e-07
-1.09906e-07
7.11192e-07
-1.09989e-07
7.04637e-07
-1.10045e-07
6.97952e-07
-1.10042e-07
6.912e-07
-1.10005e-07
6.84446e-07
-1.09965e-07
6.77742e-07
-1.09928e-07
6.71123e-07
-1.09895e-07
6.64612e-07
-1.09866e-07
6.58219e-07
-1.09837e-07
6.51943e-07
-1.09798e-07
-1.09766e-07
1.66004e-06
4.93077e-08
-3.21993e-08
1.6658e-06
4.94829e-08
-3.20973e-08
1.67151e-06
4.96381e-08
-3.2018e-08
1.67717e-06
4.97703e-08
-3.1956e-08
1.6828e-06
4.98793e-08
-3.19071e-08
1.68839e-06
4.99707e-08
-3.18674e-08
1.69394e-06
5.00505e-08
-3.18326e-08
1.69945e-06
5.01166e-08
-3.1802e-08
1.70493e-06
5.01649e-08
-3.17668e-08
1.71038e-06
5.01868e-08
-3.17361e-08
5.02056e-08
-3.16943e-08
1.52861e-06
3.89687e-08
-5.33274e-08
1.53335e-06
3.91001e-08
-5.30843e-08
1.53811e-06
3.9223e-08
-5.28968e-08
1.54287e-06
3.93378e-08
-5.27574e-08
1.54764e-06
3.94364e-08
-5.26628e-08
1.55243e-06
3.95292e-08
-5.25957e-08
1.5572e-06
3.96236e-08
-5.25416e-08
1.56195e-06
3.9713e-08
-5.25092e-08
1.56669e-06
3.97818e-08
-5.24949e-08
1.57143e-06
3.9823e-08
-5.25194e-08
3.98527e-08
-5.25182e-08
1.30697e-06
2.60244e-08
-7.0597e-08
1.30996e-06
2.60139e-08
-7.02283e-08
1.313e-06
2.60348e-08
-6.99366e-08
1.31609e-06
2.60866e-08
-6.97379e-08
1.3192e-06
2.6177e-08
-6.96058e-08
1.32236e-06
2.62741e-08
-6.95469e-08
1.32554e-06
2.63678e-08
-6.9506e-08
1.32874e-06
2.6462e-08
-6.94634e-08
1.33193e-06
2.65604e-08
-6.94368e-08
1.33513e-06
2.66584e-08
-6.94623e-08
1.33833e-06
2.67302e-08
-6.95213e-08
2.68322e-08
-6.95682e-08
1.00481e-06
1.18833e-08
-8.25075e-08
1.00462e-06
1.18026e-08
-8.22683e-08
1.00443e-06
1.17648e-08
-8.20874e-08
1.00424e-06
1.18164e-08
-8.19759e-08
1.00402e-06
1.19451e-08
-8.18804e-08
1.00379e-06
1.21055e-08
-8.1843e-08
1.00356e-06
1.22733e-08
-8.18465e-08
1.00331e-06
1.24345e-08
-8.18551e-08
1.00304e-06
1.25877e-08
-8.18732e-08
1.00275e-06
1.27282e-08
-8.18852e-08
1.00243e-06
1.28601e-08
-8.19332e-08
1.30167e-08
-8.19828e-08
5.78736e-07
-9.22942e-08
5.72942e-07
-9.23928e-08
5.67149e-07
-9.2487e-08
5.61402e-07
-9.24783e-08
5.55757e-07
-9.24151e-08
5.50261e-07
-9.23641e-08
5.4493e-07
-9.23237e-08
5.39759e-07
-9.22898e-08
5.34737e-07
-9.2256e-08
5.29847e-07
-9.22187e-08
5.25079e-07
-9.21694e-08
-9.2102e-08
1.45995e-06
7.26509e-08
-2.74248e-08
1.46351e-06
7.29552e-08
-2.73941e-08
1.46703e-06
7.32026e-08
-2.73754e-08
1.47051e-06
7.33946e-08
-2.73592e-08
1.47397e-06
7.3536e-08
-2.73402e-08
1.47739e-06
7.36441e-08
-2.73208e-08
1.48077e-06
7.37333e-08
-2.72961e-08
1.48411e-06
7.37938e-08
-2.72705e-08
1.4874e-06
7.38254e-08
-2.72146e-08
1.49065e-06
7.3815e-08
-2.71385e-08
7.38151e-08
-2.70577e-08
1.32912e-06
5.92821e-08
-4.25285e-08
1.33177e-06
5.95359e-08
-4.23146e-08
1.3345e-06
5.9729e-08
-4.21588e-08
1.3373e-06
5.98845e-08
-4.20413e-08
1.34014e-06
5.99853e-08
-4.19528e-08
1.343e-06
6.00813e-08
-4.18999e-08
1.34586e-06
6.01874e-08
-4.18489e-08
1.34869e-06
6.02816e-08
-4.18329e-08
1.3515e-06
6.03192e-08
-4.17923e-08
1.35425e-06
6.03046e-08
-4.17655e-08
6.03165e-08
-4.16914e-08
1.10638e-06
4.15103e-08
-5.41371e-08
1.10759e-06
4.16623e-08
-5.38208e-08
1.10896e-06
4.1804e-08
-5.35727e-08
1.11048e-06
4.19006e-08
-5.34245e-08
1.11207e-06
4.20097e-08
-5.33268e-08
1.11371e-06
4.20539e-08
-5.3258e-08
1.1154e-06
4.20957e-08
-5.32089e-08
1.11712e-06
4.21682e-08
-5.31584e-08
1.11884e-06
4.22402e-08
-5.31174e-08
1.12051e-06
4.22898e-08
-5.31036e-08
1.12212e-06
4.22944e-08
-5.31185e-08
4.23149e-08
-5.30733e-08
8.01384e-07
2.11972e-08
-6.07749e-08
8.00087e-07
2.12242e-08
-6.05331e-08
7.98926e-07
2.12701e-08
-6.03921e-08
7.97814e-07
2.1417e-08
-6.03808e-08
7.96719e-07
2.16472e-08
-6.04228e-08
7.95607e-07
2.17943e-08
-6.04717e-08
7.94453e-07
2.19048e-08
-6.05014e-08
7.93242e-07
2.20184e-08
-6.04943e-08
7.91976e-07
2.21163e-08
-6.04835e-08
7.90655e-07
2.21995e-08
-6.04735e-08
7.89249e-07
2.22668e-08
-6.05005e-08
2.23778e-08
-6.05405e-08
3.99725e-07
-6.67155e-08
3.95363e-07
-6.68062e-08
3.91031e-07
-6.68851e-08
3.86841e-07
-6.68708e-08
3.82848e-07
-6.67758e-08
3.78992e-07
-6.67135e-08
3.75243e-07
-6.66703e-08
3.71602e-07
-6.66304e-08
3.68069e-07
-6.66064e-08
3.64643e-07
-6.65933e-08
3.61317e-07
-6.65768e-08
-6.65238e-08
1.17715e-06
9.19911e-08
-1.78663e-08
1.17677e-06
9.23699e-08
-1.7873e-08
1.17631e-06
9.2652e-08
-1.78726e-08
1.17577e-06
9.28635e-08
-1.7858e-08
1.17515e-06
9.30245e-08
-1.78304e-08
1.17444e-06
9.31352e-08
-1.77908e-08
1.17365e-06
9.32174e-08
-1.77398e-08
1.17279e-06
9.32526e-08
-1.76813e-08
1.17188e-06
9.32794e-08
-1.76058e-08
1.17093e-06
9.3297e-08
-1.7509e-08
9.33198e-08
-1.73959e-08
1.04852e-06
7.6188e-08
-2.54685e-08
1.0474e-06
7.64855e-08
-2.5308e-08
1.04638e-06
7.66919e-08
-2.51751e-08
1.04541e-06
7.68523e-08
-2.50614e-08
1.04445e-06
7.70001e-08
-2.49687e-08
1.04347e-06
7.71033e-08
-2.48873e-08
1.04244e-06
7.71956e-08
-2.48024e-08
1.04135e-06
7.72552e-08
-2.47422e-08
1.04019e-06
7.73191e-08
-2.46729e-08
1.03896e-06
7.73428e-08
-2.45827e-08
7.73871e-08
-2.44348e-08
8.31352e-07
5.45574e-08
-3.06454e-08
8.29412e-07
5.47592e-08
-3.04513e-08
8.27705e-07
5.49119e-08
-3.02927e-08
8.26139e-07
5.49909e-08
-3.01574e-08
8.24667e-07
5.50253e-08
-3.00275e-08
8.23244e-07
5.50732e-08
-2.99086e-08
8.21819e-07
5.51227e-08
-2.98031e-08
8.20354e-07
5.52019e-08
-2.96992e-08
8.18842e-07
5.52774e-08
-2.96275e-08
8.17292e-07
5.53501e-08
-2.95856e-08
8.15664e-07
5.53718e-08
-2.95195e-08
5.53759e-08
-2.93004e-08
5.37255e-07
2.95993e-08
-3.24549e-08
5.34067e-07
2.97197e-08
-3.23057e-08
5.30987e-07
2.97929e-08
-3.21928e-08
5.27962e-07
2.97679e-08
-3.21332e-08
5.24965e-07
2.97139e-08
-3.21143e-08
5.21971e-07
2.96987e-08
-3.21034e-08
5.18973e-07
2.97122e-08
-3.20932e-08
5.15981e-07
2.97617e-08
-3.20624e-08
5.12994e-07
2.98168e-08
-3.20355e-08
5.10007e-07
2.98768e-08
-3.20135e-08
5.06989e-07
2.99114e-08
-3.2022e-08
2.99349e-08
-3.20338e-08
2.15391e-07
-3.44803e-08
2.12805e-07
-3.45002e-08
2.1023e-07
-3.4517e-08
2.07648e-07
-3.45212e-08
2.05095e-07
-3.45093e-08
2.02588e-07
-3.45079e-08
2.00148e-07
-3.45179e-08
1.97805e-07
-3.45256e-08
1.9555e-07
-3.45344e-08
1.93379e-07
-3.45453e-08
1.91281e-07
-3.45683e-08
-3.46021e-08
7.51616e-07
1.06135e-07
7.442e-07
1.0632e-07
7.36741e-07
1.06459e-07
7.29244e-07
1.06568e-07
7.21723e-07
1.06649e-07
7.14192e-07
1.06712e-07
7.06671e-07
1.06755e-07
6.99166e-07
1.06791e-07
6.91693e-07
1.06822e-07
6.84261e-07
1.06874e-07
1.06942e-07
6.31173e-07
8.79881e-08
6.24061e-07
8.81235e-08
6.17089e-07
8.82561e-08
6.10213e-07
8.83834e-08
6.03399e-07
8.84936e-08
5.96633e-07
8.85912e-08
5.89917e-07
8.8669e-08
5.83255e-07
8.87107e-08
5.7668e-07
8.87242e-08
5.70221e-07
8.87508e-08
8.88262e-08
4.44512e-07
6.26774e-08
4.3931e-07
6.27383e-08
4.34343e-07
6.27974e-08
4.29557e-07
6.2885e-08
4.24915e-07
6.29977e-08
4.20378e-07
6.3122e-08
4.15919e-07
6.32477e-08
4.11526e-07
6.33623e-08
4.07169e-07
6.34406e-08
4.02826e-07
6.34812e-08
3.98521e-07
6.35361e-08
6.36944e-08
2.29729e-07
3.33711e-08
2.2672e-07
3.34412e-08
2.23833e-07
3.34918e-08
2.2106e-07
3.35251e-08
2.18397e-07
3.35454e-08
2.1584e-07
3.35755e-08
2.13378e-07
3.36163e-08
2.11014e-07
3.36642e-08
2.08713e-07
3.37065e-08
2.06439e-07
3.37416e-08
2.04173e-07
3.37801e-08
3.38472e-08
7.24911e-08
7.14321e-08
7.04069e-08
6.94107e-08
6.84468e-08
6.75143e-08
6.66128e-08
6.57515e-08
6.49235e-08
6.41198e-08
6.33316e-08
)
;

boundaryField
{
    inlet
    {
        type            calculated;
        value           nonuniform List<scalar> 0();
    }
    ami1
    {
        type            cyclicAMI;
        value           nonuniform List<scalar> 0();
    }
    walls
    {
        type            calculated;
        value           nonuniform List<scalar> 
259
(
-1.84387e-14
-2.43942e-14
-2.90979e-14
-8.28215e-22
-6.40674e-15
-1.28555e-14
-1.84387e-14
-2.43942e-14
-2.90979e-14
-8.28215e-22
-6.40674e-15
-1.28555e-14
-1.84387e-14
-2.43942e-14
-2.90979e-14
-8.28215e-22
-6.40674e-15
-1.28555e-14
-1.84387e-14
-2.43942e-14
-2.90979e-14
-2.94166e-22
-6.40674e-15
-1.28555e-14
-1.84387e-14
-2.43942e-14
-2.90979e-14
-8.26664e-22
-6.40674e-15
-1.28555e-14
-1.84387e-14
-2.43942e-14
-2.90979e-14
-8.26664e-22
-6.40674e-15
-1.28555e-14
-1.84387e-14
-2.43942e-14
-2.90979e-14
-8.26664e-22
-6.40674e-15
-1.28555e-14
-1.84387e-14
-2.43942e-14
-2.90979e-14
-8.26664e-22
-6.40674e-15
-1.28555e-14
-1.84387e-14
-2.43942e-14
-2.90979e-14
-8.26664e-22
-6.40674e-15
-1.28555e-14
-1.84387e-14
-2.43942e-14
-2.90979e-14
-8.26664e-22
-6.40674e-15
-1.28555e-14
-1.84387e-14
-2.43942e-14
-2.90979e-14
-3.48191e-22
-6.40674e-15
-1.28555e-14
-1.84387e-14
-2.43942e-14
-2.90979e-14
2.90979e-14
2.43942e-14
1.84387e-14
1.28555e-14
6.40674e-15
-8.28215e-22
-6.40674e-15
-1.28555e-14
-1.84387e-14
-2.43942e-14
-2.90979e-14
2.90979e-14
2.43942e-14
1.84387e-14
1.28555e-14
6.40674e-15
-8.28215e-22
-6.40674e-15
-1.28555e-14
-1.84387e-14
-2.43942e-14
-2.90979e-14
2.90979e-14
2.43942e-14
1.84387e-14
1.28555e-14
6.40674e-15
-8.28215e-22
-6.40674e-15
-1.28555e-14
-1.84387e-14
-2.43942e-14
-2.90979e-14
2.90979e-14
2.43942e-14
1.84387e-14
1.28555e-14
6.40674e-15
-8.28215e-22
-6.40674e-15
-1.28555e-14
-1.84387e-14
-2.43942e-14
-2.90979e-14
2.90979e-14
2.43942e-14
1.84387e-14
1.28555e-14
6.40674e-15
-2.94166e-22
-6.40674e-15
-1.28555e-14
-1.84387e-14
-2.43942e-14
-2.90979e-14
2.90979e-14
2.43942e-14
1.84387e-14
1.28555e-14
6.40674e-15
-8.26664e-22
-6.40674e-15
-1.28555e-14
-1.84387e-14
-2.43942e-14
-2.90979e-14
2.90979e-14
2.43942e-14
1.84387e-14
1.28555e-14
6.40674e-15
-8.26664e-22
-6.40674e-15
-1.28555e-14
-1.84387e-14
-2.43942e-14
-2.90979e-14
2.90979e-14
2.43942e-14
1.84387e-14
1.28555e-14
6.40674e-15
-8.26664e-22
-6.40674e-15
-1.28555e-14
-1.84387e-14
-2.43942e-14
-2.90979e-14
2.90979e-14
2.43942e-14
1.84387e-14
1.28555e-14
6.40674e-15
-8.26664e-22
-6.40674e-15
-1.28555e-14
-1.84387e-14
-2.43942e-14
-2.90979e-14
2.90979e-14
2.43942e-14
1.84387e-14
1.28555e-14
6.40674e-15
-8.26664e-22
-6.40674e-15
-1.28555e-14
-1.84387e-14
-2.43942e-14
-2.90979e-14
2.90979e-14
2.43942e-14
1.84387e-14
1.28555e-14
6.40674e-15
-8.26664e-22
-6.40674e-15
-1.28555e-14
-1.84387e-14
-2.43942e-14
-2.90979e-14
2.90979e-14
2.43942e-14
1.84387e-14
1.28555e-14
6.40674e-15
-3.48191e-22
-6.40674e-15
-1.28555e-14
-1.84387e-14
-2.43942e-14
-2.90979e-14
1.84387e-14
2.43942e-14
2.90979e-14
6.40674e-15
1.28555e-14
1.84387e-14
2.43942e-14
2.90979e-14
6.40674e-15
1.28555e-14
1.84387e-14
2.43942e-14
2.90979e-14
6.40674e-15
1.28555e-14
1.84387e-14
2.43942e-14
2.90979e-14
6.40674e-15
1.28555e-14
1.84387e-14
2.43942e-14
2.90979e-14
6.40674e-15
1.28555e-14
1.84387e-14
2.43942e-14
2.90979e-14
6.40674e-15
1.28555e-14
1.84387e-14
2.43942e-14
2.90979e-14
6.40674e-15
1.28555e-14
1.84387e-14
2.43942e-14
2.90979e-14
6.40674e-15
1.28555e-14
1.84387e-14
2.43942e-14
2.90979e-14
6.40674e-15
1.28555e-14
1.84387e-14
2.43942e-14
2.90979e-14
6.40674e-15
1.28555e-14
1.84387e-14
2.43942e-14
2.90979e-14
6.40674e-15
1.28555e-14
1.84387e-14
2.43942e-14
2.90979e-14
)
;
    }
    ami2
    {
        type            cyclicAMI;
        value           nonuniform List<scalar> 0();
    }
    outlet
    {
        type            calculated;
        value           nonuniform List<scalar> 0();
    }
    procBoundary9to0
    {
        type            processor;
        value           nonuniform List<scalar> 
40
(
-7.83559e-07
-7.17541e-07
-5.78793e-07
9.23061e-08
-4.04191e-07
-2.18051e-07
-7.36059e-08
-1.20654e-06
-1.14403e-06
-1.00474e-06
8.25003e-08
-8.02725e-07
-5.4058e-07
-2.32858e-07
-1.4917e-06
-1.43826e-06
-1.30692e-06
7.05969e-08
-1.10535e-06
-8.33624e-07
-4.49931e-07
-1.69479e-06
-1.64882e-06
-1.52388e-06
5.36363e-08
-1.32412e-06
-1.05127e-06
-6.46049e-07
-1.7771e-06
-1.65422e-06
3.23406e-08
-1.45275e-06
-1.17774e-06
-7.66307e-07
-1.81957e-06
-1.69482e-06
8.40662e-09
-1.48755e-06
-1.20606e-06
-7.90143e-07
)
;
    }
    procBoundary9to1
    {
        type            processor;
        value           nonuniform List<scalar> 
30
(
-1.77711e-06
-1.64885e-06
-1.58771e-08
-1.43434e-06
-1.14361e-06
-7.23642e-07
-1.65422e-06
-1.52388e-06
-3.88397e-08
-1.30402e-06
-1.00498e-06
-5.84465e-07
-1.45636e-06
-1.32655e-06
-5.89823e-08
-1.10537e-06
-8.02804e-07
-4.04107e-07
-1.17747e-06
-1.04978e-06
-7.58311e-08
-8.33571e-07
-5.40617e-07
-2.18027e-07
-7.5899e-07
-6.38495e-07
-8.77952e-08
-4.5004e-07
-2.32878e-07
-7.36004e-08
)
;
    }
    procBoundary9to7
    {
        type            processor;
        value           nonuniform List<scalar> 
59
(
7.03923e-07
6.45677e-07
5.20371e-07
3.58072e-07
1.89267e-07
6.25662e-08
1.20268e-06
1.14227e-06
1.00206e-06
7.87705e-07
5.03875e-07
2.0195e-07
1.53274e-06
1.47879e-06
1.34142e-06
1.12362e-06
8.13883e-07
3.9429e-07
1.75978e-06
1.71117e-06
1.5761e-06
1.3569e-06
1.03762e-06
5.63843e-07
1.8509e-06
1.71574e-06
1.49381e-06
1.16985e-06
6.76798e-07
1.89714e-06
1.75976e-06
1.53273e-06
1.20272e-06
7.0415e-07
1.85094e-06
1.71121e-06
1.47882e-06
1.14233e-06
6.45798e-07
1.7158e-06
1.57615e-06
1.34146e-06
1.00211e-06
5.20432e-07
1.49385e-06
1.35692e-06
1.12362e-06
7.87744e-07
3.58117e-07
1.1699e-06
1.03764e-06
8.13903e-07
5.03923e-07
1.89295e-07
6.76899e-07
5.63902e-07
3.94352e-07
2.01986e-07
6.25768e-08
)
;
    }
    procBoundary9to8
    {
        type            processor;
        value           nonuniform List<scalar> 
132
(
1.16623e-07
1.1679e-07
1.16897e-07
1.16959e-07
1.16992e-07
1.17005e-07
1.17007e-07
1.17001e-07
1.1699e-07
1.16988e-07
1.17021e-07
1.01229e-07
1.01508e-07
1.01707e-07
1.01844e-07
1.01934e-07
1.01988e-07
1.02012e-07
1.02016e-07
1.0201e-07
1.02001e-07
1.01984e-07
8.10271e-08
8.12213e-08
8.13756e-08
8.14927e-08
8.15773e-08
8.16359e-08
8.16731e-08
8.16939e-08
8.17031e-08
8.16968e-08
8.16756e-08
5.64554e-08
5.65542e-08
5.66416e-08
5.67139e-08
5.67706e-08
5.68149e-08
5.68495e-08
5.68758e-08
5.68943e-08
5.69033e-08
5.69065e-08
5.602e-09
5.55544e-09
5.50918e-09
5.46498e-09
5.42412e-09
5.38608e-09
5.34966e-09
5.31445e-09
5.28006e-09
5.24997e-09
5.21305e-09
3.20286e-08
3.19795e-08
3.19378e-08
3.19029e-08
3.18741e-08
3.18505e-08
3.18313e-08
3.18163e-08
3.18051e-08
3.17981e-08
3.17919e-08
1.96406e-09
1.9381e-09
1.91372e-09
1.89124e-09
1.87088e-09
1.85248e-09
1.83571e-09
1.82037e-09
1.80634e-09
1.79427e-09
1.78102e-09
-2.82022e-08
-2.8238e-08
-2.82723e-08
-2.83043e-08
-2.83332e-08
-2.83591e-08