/*--------------------------------*- C++ -*----------------------------------*\
| =========                 |                                                 |
| \\      /  F ield         | OpenFOAM: The Open Source CFD Toolbox           |
|  \\    /   O peration     | Version:  2212                                  |
|   \\  /    A nd           | Website:  www.openfoam.com                      |
|    \\/     M anipulation  |                                                 |
\*---------------------------------------------------------------------------*/
FoamFile
{
    version     2.0;
    format      ascii;
    arch        "LSB;label=32;scalar=64";
    class       volVectorField;
    location    "2";
    object      U;
}
// * * * * * * * * * * * * * * * * * * * * * * * * * * * * * * * * * * * * * //

dimensions      [0 1 -1 0 0 0 0];

internalField   nonuniform List<vector> 
682
(
(0.0803323 -0.00116287 -0.000552953)
(0.0796173 -0.00117988 -0.000582459)
(0.0788826 -0.00119196 -0.000599639)
(0.0781334 -0.00119862 -0.000606928)
(0.0773747 -0.00120007 -0.000607386)
(0.0766113 -0.00119683 -0.000603207)
(0.0758475 -0.00118944 -0.000595879)
(0.0750863 -0.00117856 -0.000586477)
(0.0743311 -0.00116518 -0.000575908)
(0.0735826 -0.00115004 -0.000565772)
(0.0728443 -0.00113228 -0.000558202)
(0.076138 -0.00100662 -0.000574354)
(0.0754456 -0.00102694 -0.00059304)
(0.0747367 -0.00103885 -0.00060098)
(0.0740181 -0.00104311 -0.000600521)
(0.0732957 -0.00104046 -0.000594556)
(0.0725762 -0.00103182 -0.000585416)
(0.0718644 -0.00101857 -0.000574844)
(0.0711632 -0.0010012 -0.000563008)
(0.0704751 -0.000981246 -0.000550859)
(0.0697985 -0.000959616 -0.000538186)
(0.0691387 -0.000937595 -0.000526843)
(0.0684196 -0.000812033 -0.000495298)
(0.0677261 -0.000820337 -0.00050837)
(0.0670342 -0.000811417 -0.00051186)
(0.0663576 -0.000787537 -0.000508065)
(0.0656923 -0.000756768 -0.000497424)
(0.0650492 -0.00072389 -0.000483731)
(0.0644228 -0.00069119 -0.000470609)
(0.0638183 -0.000660143 -0.000458174)
(0.0632288 -0.00063236 -0.000446513)
(0.0626528 -0.000605966 -0.000432733)
(0.0621005 -0.000581901 -0.000418858)
(0.0584366 -0.000507749 -0.000356939)
(0.0577969 -0.000510399 -0.000373923)
(0.0571593 -0.000502983 -0.000383728)
(0.0565323 -0.000460279 -0.000355667)
(0.0559445 -0.000399726 -0.000311807)
(0.0553571 -0.000357536 -0.000287463)
(0.0548217 -0.000329937 -0.000275272)
(0.0542703 -0.000308117 -0.000265783)
(0.053761 -0.000289538 -0.000259591)
(0.0532432 -0.000272558 -0.000254259)
(0.0527609 -0.000257073 -0.000248803)
(0.0522792 -0.000240114 -0.00023623)
(0.0444901 -0.000174288 4.05911e-05)
(0.0439561 -0.000167577 2.93612e-05)
(0.0434124 -0.000159876 1.68615e-05)
(0.0428918 -0.000153905 4.34361e-06)
(0.0423579 -0.000146533 -8.13924e-07)
(0.0418372 -0.000138085 -3.49787e-06)
(0.0413304 -0.000129018 -4.95921e-06)
(0.0408404 -0.000118965 -4.89698e-06)
(0.0403696 -0.000109299 -5.96485e-06)
(0.0399151 -9.99131e-05 -7.5358e-06)
(0.0394746 -9.0815e-05 -1.07114e-05)
(0.0390534 -8.14347e-05 -1.41729e-05)
(0.0289083 -9.665e-05 -9.45393e-06)
(0.0284811 -9.29005e-05 -7.61857e-06)
(0.0280612 -8.941e-05 -6.22963e-06)
(0.0276631 -8.80916e-05 -3.94555e-06)
(0.0272747 -8.74813e-05 -1.731e-06)
(0.0269015 -8.52937e-05 -2.26491e-06)
(0.0265389 -8.09104e-05 -3.70195e-06)
(0.0261911 -7.47382e-05 -4.98332e-06)
(0.0258572 -6.87249e-05 -6.33699e-06)
(0.0255349 -6.33255e-05 -7.55223e-06)
(0.0252181 -5.78447e-05 -9.26341e-06)
(0.0249115 -5.16178e-05 -1.15402e-05)
(0.104733 -0.00133983 -0.000427309)
(0.10475 -0.00135187 -0.000460376)
(0.104751 -0.00136419 -0.00048279)
(0.104738 -0.00137346 -0.000496585)
(0.104712 -0.00137817 -0.00050344)
(0.104677 -0.00137914 -0.000504757)
(0.104634 -0.00137725 -0.000501941)
(0.104584 -0.001373 -0.000496235)
(0.104529 -0.00136585 -0.000488319)
(0.104471 -0.00135508 -0.000479102)
(0.104411 -0.00133569 -0.000465725)
(0.102008 -0.00111689 -0.000499253)
(0.102025 -0.0011422 -0.000500292)
(0.102029 -0.00115928 -0.000497139)
(0.102023 -0.00116915 -0.000489734)
(0.102009 -0.00117261 -0.000480198)
(0.101988 -0.00117032 -0.000470091)
(0.101963 -0.00116391 -0.000460288)
(0.101936 -0.00115426 -0.000451296)
(0.101908 -0.00114162 -0.000443106)
(0.101878 -0.00112676 -0.000436502)
(0.101849 -0.0011048 -0.000427095)
(0.0973325 -0.000807782 -0.000512965)
(0.0973141 -0.000823553 -0.000489419)
(0.097297 -0.000830242 -0.000468617)
(0.0972764 -0.000827212 -0.000447066)
(0.0972589 -0.000818353 -0.000429696)
(0.0972335 -0.000805685 -0.00041797)
(0.0972134 -0.000790681 -0.000410912)
(0.0971852 -0.000774511 -0.000406443)
(0.097161 -0.000756399 -0.000402645)
(0.0971293 -0.000741005 -0.000403713)
(0.0970978 -0.000715419 -0.000398911)
(0.0901386 -0.000422278 -0.000536513)
(0.0899886 -0.000427376 -0.000497168)
(0.0898533 -0.000429428 -0.000470899)
(0.0897279 -0.000433447 -0.000462652)
(0.0896032 -0.000428418 -0.000453064)
(0.0894888 -0.000426578 -0.000459178)
(0.0893572 -0.000420875 -0.000464979)
(0.0892305 -0.000409435 -0.000465272)
(0.0890801 -0.00039766 -0.000467304)
(0.0889434 -0.000383299 -0.000467578)
(0.0887802 -0.000372283 -0.000473937)
(0.0886298 -0.000358357 -0.000478159)
(0.0765486 -0.000173505 -0.000307186)
(0.0760957 -0.000164611 -0.000261062)
(0.0756486 -0.00015796 -0.00023479)
(0.075224 -0.000159031 -0.000234783)
(0.0747939 -0.000162599 -0.000243448)
(0.0743658 -0.000164978 -0.000254732)
(0.0739428 -0.000162609 -0.000259269)
(0.0735164 -0.000155008 -0.000258832)
(0.0730899 -0.000144833 -0.000255164)
(0.072666 -0.000133255 -0.000250573)
(0.0722382 -0.000124033 -0.000251723)
(0.0718094 -0.000120918 -0.000267694)
(0.0474713 -0.000122963 -0.000389945)
(0.0468443 -0.000122936 -0.000374914)
(0.0462245 -0.000120763 -0.000362416)
(0.0456512 -0.000116054 -0.000351444)
(0.0450927 -0.000109675 -0.000342566)
(0.0445635 -9.89772e-05 -0.00033476)
(0.0440477 -8.53094e-05 -0.000326067)
(0.0435571 -7.2556e-05 -0.000316475)
(0.0430777 -6.32547e-05 -0.000309166)
(0.042611 -5.79287e-05 -0.000304725)
(0.0421404 -5.42039e-05 -0.000298971)
(0.0416814 -4.95203e-05 -0.000284674)
(0.114219 -0.00127919 -0.000436026)
(0.114526 -0.00128396 -0.000452384)
(0.114826 -0.00128794 -0.000464798)
(0.115122 -0.0012905 -0.000473442)
(0.115411 -0.00129161 -0.000478545)
(0.115695 -0.0012915 -0.000480614)
(0.115975 -0.00129015 -0.000480109)
(0.116252 -0.00128752 -0.000477754)
(0.116525 -0.00128314 -0.000473985)
(0.116796 -0.00127827 -0.000469679)
(0.117064 -0.00126923 -0.000462781)
(0.112577 -0.000999879 -0.00066771)
(0.112879 -0.00101883 -0.000653275)
(0.113174 -0.00103181 -0.000639184)
(0.113466 -0.00103957 -0.000626163)
(0.113754 -0.00104315 -0.000614991)
(0.114041 -0.00104346 -0.000605054)
(0.114325 -0.00104107 -0.000595807)
(0.114608 -0.00103628 -0.000588069)
(0.11489 -0.00102898 -0.000582106)
(0.115172 -0.00102109 -0.000579677)
(0.115451 -0.00100963 -0.00057787)
(0.109418 -0.000651805 -0.000879359)
(0.109671 -0.000663901 -0.000841066)
(0.109927 -0.000669348 -0.000811001)
(0.110187 -0.000669267 -0.000787774)
(0.11045 -0.000666048 -0.000772404)
(0.110714 -0.000660369 -0.00076197)
(0.110981 -0.000651916 -0.000752904)
(0.111249 -0.000642306 -0.000746781)
(0.111516 -0.000631494 -0.000743533)
(0.111784 -0.000622173 -0.000745539)
(0.112048 -0.000614423 -0.00075307)
(0.104038 -0.000274375 -0.00114658)
(0.104141 -0.000274548 -0.00109013)
(0.104267 -0.000272413 -0.00104743)
(0.104401 -0.000266556 -0.00101697)
(0.104549 -0.000258458 -0.000998841)
(0.104702 -0.000251252 -0.000992683)
(0.104856 -0.000241123 -0.000985033)
(0.105017 -0.000226113 -0.000971246)
(0.105181 -0.000215398 -0.000968696)
(0.105339 -0.000206375 -0.000970022)
(0.105496 -0.000201332 -0.00097799)
(0.105642 -0.000198359 -0.000986371)
(0.0935653 -5.59004e-06 -0.00103619)
(0.0933251 5.71088e-06 -0.000990196)
(0.0931295 1.68382e-05 -0.000955811)
(0.0929377 2.80284e-05 -0.000930774)
(0.0927728 4.02594e-05 -0.000909038)
(0.0926059 5.26068e-05 -0.000892877)
(0.0924529 6.57947e-05 -0.000877756)
(0.0922884 7.81702e-05 -0.00086519)
(0.0921189 8.92026e-05 -0.000855475)
(0.0919492 9.69027e-05 -0.000850372)
(0.0917682 0.000101571 -0.000844892)
(0.0915844 0.000102245 -0.000838971)
(0.0649813 0.00012962 -0.000920479)
(0.0642236 0.000135959 -0.000891951)
(0.0634747 0.000141669 -0.000870839)
(0.0627869 0.00015076 -0.000850136)
(0.0620924 0.000162923 -0.000829976)
(0.0614399 0.000176515 -0.000810262)
(0.0607755 0.000188577 -0.000791144)
(0.0601448 0.000196762 -0.000772445)
(0.0594956 0.000199518 -0.000758817)
(0.0588747 0.000197052 -0.000749915)
(0.0582299 0.000191291 -0.000728142)
(0.0576208 0.000184074 -0.00066744)
(0.118954 -0.000887182 -0.00035496)
(0.119387 -0.00088029 -0.000356684)
(0.119815 -0.000873147 -0.000357916)
(0.120237 -0.000866561 -0.000358175)
(0.120654 -0.000860886 -0.000357461)
(0.121067 -0.000855719 -0.000356142)
(0.121477 -0.000850689 -0.000354331)
(0.121884 -0.000845609 -0.000352214)
(0.122287 -0.000840296 -0.00034991)
(0.122689 -0.00083525 -0.000347803)
(0.123088 -0.000828892 -0.000344925)
(0.117949 -0.000614222 -0.000715097)
(0.118368 -0.000615984 -0.000694757)
(0.118782 -0.000615483 -0.000676725)
(0.119191 -0.000613316 -0.000661124)
(0.119598 -0.000610004 -0.000647976)
(0.120002 -0.000605796 -0.000636906)
(0.120404 -0.000600797 -0.000627417)
(0.120803 -0.000595149 -0.000619773)
(0.121201 -0.000589002 -0.000614146)
(0.121597 -0.000583135 -0.000611382)
(0.121992 -0.00057631 -0.000609307)
(0.115501 -0.000293894 -0.00106237)
(0.11586 -0.000285916 -0.00102264)
(0.116219 -0.000276743 -0.000990334)
(0.116579 -0.000267482 -0.000964902)
(0.116939 -0.000258691 -0.000945654)
(0.1173 -0.000250144 -0.000930859)
(0.117661 -0.000241555 -0.000918706)
(0.118022 -0.000233412 -0.000910167)
(0.11838 -0.000226143 -0.000904943)
(0.11874 -0.000221048 -0.000904512)
(0.119096 -0.000216721 -0.000904951)
(0.110833 4.69399e-06 -0.00143748)
(0.111044 3.52696e-05 -0.00138539)
(0.111263 6.21793e-05 -0.00134415)
(0.111488 8.53129e-05 -0.00131162)
(0.111719 0.000104833 -0.00128684)
(0.111954 0.000120179 -0.00126989)
(0.112192 0.000132484 -0.00125843)
(0.112429 0.000143266 -0.00124892)
(0.11267 0.000151847 -0.00124314)
(0.112902 0.000157721 -0.00123954)
(0.113138 0.000159128 -0.00124425)
(0.113361 0.000158085 -0.00124305)
(0.101777 0.000208879 -0.00140422)
(0.101645 0.000259284 -0.0013497)
(0.101533 0.000298836 -0.00130686)
(0.101426 0.000329157 -0.00127527)
(0.101332 0.00035244 -0.0012512)
(0.101236 0.000370386 -0.00123033)
(0.101145 0.000383256 -0.00121861)
(0.101044 0.000391096 -0.00120576)
(0.100947 0.000395534 -0.00120343)
(0.100831 0.000396368 -0.00119812)
(0.100718 0.000393888 -0.00118825)
(0.100591 0.000387375 -0.00117003)
(0.0762923 0.000354193 -0.00118916)
(0.0754092 0.000386289 -0.00115366)
(0.0745533 0.000410139 -0.00112884)
(0.0737195 0.000427291 -0.00110926)
(0.0728983 0.000439044 -0.0010936)
(0.0720876 0.000446529 -0.00108034)
(0.0712779 0.000449694 -0.00106664)
(0.0704819 0.000448672 -0.00105281)
(0.0696775 0.000444805 -0.00103958)
(0.0689007 0.000439195 -0.00102659)
(0.0681138 0.000431675 -0.00101088)
(0.0673614 0.000419804 -0.000988737)
(0.120589 -0.000221228 -0.000645894)
(0.121063 -0.000218183 -0.000631047)
(0.121532 -0.000214718 -0.0006179)
(0.121995 -0.00021109 -0.000606499)
(0.122453 -0.000207531 -0.000596781)
(0.122907 -0.000204122 -0.000588575)
(0.123357 -0.000200886 -0.000581682)
(0.123804 -0.000197901 -0.000576071)
(0.124248 -0.000195262 -0.000571671)
(0.124689 -0.000193167 -0.000568743)
(0.125128 -0.000191142 -0.000566132)
(0.118332 1.74422e-05 -0.00106435)
(0.118745 2.84263e-05 -0.00104012)
(0.119154 3.84333e-05 -0.00101993)
(0.119559 4.71649e-05 -0.00100342)
(0.119962 5.44553e-05 -0.000990191)
(0.120362 6.04862e-05 -0.000979593)
(0.120759 6.54595e-05 -0.000970909)
(0.121154 6.91807e-05 -0.000964032)
(0.121545 7.13871e-05 -0.000958446)
(0.121936 7.19201e-05 -0.000954746)
(0.122323 7.13841e-05 -0.000950886)
(0.113699 0.000183593 -0.00147208)
(0.113981 0.000221739 -0.00144342)
(0.11426 0.000254813 -0.00142144)
(0.114536 0.000282208 -0.00140471)
(0.114809 0.000303265 -0.00139208)
(0.11508 0.00031864 -0.00138253)
(0.115348 0.000329883 -0.00137523)
(0.115613 0.000338071 -0.00136926)
(0.115875 0.000342778 -0.00136487)
(0.116133 0.000344058 -0.00136036)
(0.11639 0.000342401 -0.00135667)
(0.116641 0.000337636 -0.00135074)
(0.104987 0.000268658 -0.00149347)
(0.104961 0.000332936 -0.00146467)
(0.10493 0.000384271 -0.00144456)
(0.104892 0.000423153 -0.00143006)
(0.104847 0.000451249 -0.00141874)
(0.104794 0.000470464 -0.00140927)
(0.104735 0.000482633 -0.00140171)
(0.104667 0.000489025 -0.00139465)
(0.104594 0.000490755 -0.00138876)
(0.104512 0.000487559 -0.00137863)
(0.104429 0.000481174 -0.0013642)
(0.104341 0.00047364 -0.00135153)
(0.0812803 0.00042182 -0.00126879)
(0.0804965 0.00047016 -0.00126214)
(0.0797078 0.000503879 -0.00125873)
(0.0789146 0.000527128 -0.00125573)
(0.0781168 0.00054193 -0.0012516)
(0.0773156 0.000549985 -0.00124582)
(0.0765119 0.000552877 -0.00123795)
(0.0757088 0.000551378 -0.0012285)
(0.0749059 0.000547691 -0.00121743)
(0.0741084 0.000542227 -0.00120462)
(0.0733109 0.000536643 -0.00118889)
(0.0725196 0.000533104 -0.00116918)
(0.121342 0.000202903 -0.000456368)
(0.121834 0.000200064 -0.000450573)
(0.12232 0.000197488 -0.000445058)
(0.122799 0.000195148 -0.00043993)
(0.123273 0.000193017 -0.000435267)
(0.123742 0.000191083 -0.000431044)
(0.124207 0.000189335 -0.000427191)
(0.124667 0.000187778 -0.000423682)
(0.125124 0.000186426 -0.000420491)
(0.125579 0.000185372 -0.00041777)
(0.12603 0.000184297 -0.000414798)
(0.118956 0.000353421 -0.000886546)
(0.119389 0.000354781 -0.000880411)
(0.119816 0.000355668 -0.000874028)
(0.120238 0.000355592 -0.000868071)
(0.120655 0.000354564 -0.000862892)
(0.121068 0.000352952 -0.000858134)
(0.121478 0.000350914 -0.000853413)
(0.121884 0.000348595 -0.000848587)
(0.122287 0.000346177 -0.000843452)
(0.122688 0.000344034 -0.00083842)
(0.123086 0.000341208 -0.000831883)
(0.113906 0.000413626 -0.00127173)
(0.114222 0.000434205 -0.00127726)
(0.114529 0.000450084 -0.00128265)
(0.114828 0.000462024 -0.00128735)
(0.115124 0.00047018 -0.00129053)
(0.115413 0.000474851 -0.00129213)
(0.115697 0.000476523 -0.00129241)
(0.115976 0.000475767 -0.00129132)
(0.116252 0.000473098 -0.00128896)
(0.116525 0.000469193 -0.00128478)
(0.116795 0.000464924 -0.00127985)
(0.117063 0.000458237 -0.00127071)
(0.104702 0.000381274 -0.00132298)
(0.104737 0.000425749 -0.00133486)
(0.104754 0.000458802 -0.0013479)
(0.104754 0.000480984 -0.00136127)
(0.104741 0.000494417 -0.00137127)
(0.104716 0.000500912 -0.00137656)
(0.104681 0.000501835 -0.00137804)
(0.104637 0.000498785 -0.00137652)
(0.104587 0.00049273 -0.00137269)
(0.104533 0.000484663 -0.00136592)
(0.104474 0.00047559 -0.00135555)
(0.104414 0.000462383 -0.00133649)
(0.0810283 0.000510693 -0.00113583)
(0.0803406 0.000552358 -0.00115843)
(0.0796268 0.000581306 -0.00117591)
(0.0788935 0.000598029 -0.00118822)
(0.0781457 0.000605044 -0.00119514)
(0.0773884 0.000605313 -0.00119696)
(0.0766264 0.000601085 -0.00119409)
(0.0758641 0.000593695 -0.00118715)
(0.0751044 0.000584317 -0.00117659)
(0.0743507 0.000573581 -0.00116359)
(0.0736036 0.000563059 -0.00114895)
(0.0728669 0.000555036 -0.00113192)
(0.120589 0.000644644 -0.000221015)
(0.121064 0.000629415 -0.00021825)
(0.121533 0.00061588 -0.000215087)
(0.121996 0.000604106 -0.000211736)
(0.122454 0.000594045 -0.00020841)
(0.122909 0.000585523 -0.00020519)
(0.123359 0.000578329 -0.000202094)
(0.123806 0.000572398 -0.000199184)
(0.12425 0.000567707 -0.000196568)
(0.124691 0.000564566 -0.000194429)
(0.12513 0.000561839 -0.000192274)
(0.117951 0.000714268 -0.00061386)
(0.11837 0.000693368 -0.000616173)
(0.118783 0.0006748 -0.000616235)
(0.119193 0.000658691 -0.000614539)
(0.1196 0.000645091 -0.000611574)
(0.120004 0.000633631 -0.000607617)
(0.120406 0.000623839 -0.000602792)
(0.120806 0.00061583 -0.000597245)
(0.121203 0.000609989 -0.000591168)
(0.1216 0.000607129 -0.000585275)
(0.121994 0.000604915 -0.000578286)
(0.112274 0.000682311 -0.000972633)
(0.112581 0.000667285 -0.000998577)
(0.112882 0.000652288 -0.00101823)
(0.113177 0.000637661 -0.00103182)
(0.113469 0.000624149 -0.00104006)
(0.113757 0.000612427 -0.00104402)
(0.114043 0.000601997 -0.00104457)
(0.114328 0.000592414 -0.00104233)
(0.114611 0.00058414 -0.00103764)
(0.114893 0.000578053 -0.00103043)
(0.115174 0.00057567 -0.00102233)
(0.115454 0.000573641 -0.0010107)
(0.101981 0.000492357 -0.00107826)
(0.102013 0.000498427 -0.00111346)
(0.10203 0.000499726 -0.0011396)
(0.102034 0.000496522 -0.00115743)
(0.102027 0.000489052 -0.00116772)
(0.102013 0.00047916 -0.00117163)
(0.101992 0.000468544 -0.00116976)
(0.101967 0.000458198 -0.00116371)
(0.10194 0.000448748 -0.00115435)
(0.101912 0.00044026 -0.00114198)
(0.101882 0.000433357 -0.00112709)
(0.101854 0.000423918 -0.00110515)
(0.0768067 0.00054382 -0.000972661)
(0.0761399 0.000572126 -0.0010033)
(0.075449 0.000590949 -0.0010241)
(0.0747416 0.000598964 -0.00103633)
(0.0740244 0.000598444 -0.00104081)
(0.0733033 0.000592562 -0.00103846)
(0.0725849 0.000583624 -0.0010302)
(0.0718741 0.000573244 -0.00101738)
(0.071174 0.000561663 -0.00100048)
(0.0704864 0.000549319 -0.000980884)
(0.0698107 0.000536283 -0.00095951)
(0.0691512 0.000524597 -0.000937686)
(0.118331 0.00106304 1.72809e-05)
(0.118745 0.00103833 2.83154e-05)
(0.119154 0.00101766 3.82618e-05)
(0.11956 0.00100075 4.68978e-05)
(0.119963 0.000987222 5.40792e-05)
(0.120363 0.000976377 5.9984e-05)
(0.120761 0.000967468 6.48117e-05)
(0.121156 0.000960273 6.84629e-05)
(0.121548 0.00095437 7.05555e-05)
(0.121939 0.000950476 7.09818e-05)
(0.122326 0.000946434 7.04894e-05)
(0.115501 0.00106161 -0.00029411)
(0.11586 0.00102117 -0.000286321)
(0.116219 0.000988297 -0.000277507)
(0.116579 0.000962381 -0.000268609)
(0.11694 0.000942778 -0.00026004)
(0.117301 0.000927733 -0.000251651)
(0.117663 0.00091553 -0.000243234)
(0.118024 0.000906471 -0.000235066)
(0.118383 0.000901027 -0.000227954)
(0.118743 0.000900679 -0.000222988)
(0.119099 0.000900748 -0.00021841)
(0.109173 0.000926153 -0.000630636)
(0.109422 0.000879149 -0.000651179)
(0.109674 0.000840204 -0.000663953)
(0.109931 0.000809722 -0.000670017)
(0.11019 0.000786297 -0.00067026)
(0.110454 0.00077044 -0.000667387)
(0.110717 0.000759497 -0.000661728)
(0.110985 0.000750378 -0.000653534)
(0.111251 0.000743251 -0.000643445)
(0.111521 0.000740141 -0.000633091)
(0.111786 0.000742655 -0.000623598)
(0.112052 0.000749071 -0.000615209)
(0.0973574 0.000540798 -0.000779229)
(0.0973401 0.000512791 -0.000805428)
(0.0973199 0.000490096 -0.00082205)
(0.0973036 0.000469075 -0.000829508)
(0.0972813 0.000447624 -0.000827066)
(0.0972634 0.000429643 -0.000818619)
(0.0972374 0.000417198 -0.000806199)
(0.0972169 0.000409191 -0.000791487)
(0.097189 0.000403901 -0.000774839)
(0.0971649 0.000400157 -0.000757398)
(0.0971333 0.000400451 -0.000741772)
(0.0971025 0.000395391 -0.000715767)
(0.0691009 0.000475816 -0.000788755)
(0.0684132 0.000492082 -0.000808633)
(0.0677227 0.000506273 -0.00081749)
(0.0670321 0.000510421 -0.000809035)
(0.0663578 0.000505928 -0.000785163)
(0.065694 0.00049547 -0.000754831)
(0.0650525 0.00048225 -0.00072267)
(0.0644268 0.000469508 -0.000690821)
(0.0638238 0.000457415 -0.000660445)
(0.0632332 0.000445339 -0.000632892)
(0.06266 0.000430515 -0.000606546)
(0.0621063 0.000415608 -0.000582253)
(0.113979 0.00144184 0.000221353)
(0.114259 0.00141943 0.000254692)
(0.114535 0.0014023 0.00028212)
(0.114809 0.0013894 0.000303123)
(0.11508 0.00137968 0.000318364)
(0.115349 0.00137223 0.000329404)
(0.115615 0.00136611 0.000337293)
(0.115878 0.00136136 0.000341977)
(0.116136 0.00135634 0.00034311)
(0.116393 0.00135237 0.000341107)
(0.116644 0.00134613 0.00033636)
(0.111041 0.00138405 3.44962e-05)
(0.111259 0.00134191 6.16578e-05)
(0.111485 0.00130894 8.46368e-05)
(0.111716 0.00128415 0.000103637)
(0.111953 0.00126727 0.000118779)
(0.112191 0.0012557 0.000130897)
(0.112431 0.00124634 0.000141459)
(0.11267 0.00123991 0.000150056)
(0.112906 0.00123578 0.000155902)
(0.113139 0.00124036 0.000156808)
(0.113364 0.00123864 0.000155963)
(0.104036 0.00114591 -0.000273777)
(0.104144 0.00108985 -0.000274596)
(0.104263 0.00104566 -0.000272289)
(0.104405 0.00101569 -0.000267274)
(0.104546 0.000995968 -0.000258952)
(0.104706 0.00098951 -0.000252112)
(0.104855 0.000981891 -0.000242249)
(0.105022 0.000971468 -0.000229075)
(0.105178 0.000963186 -0.0002159)
(0.105346 0.000968039 -0.000208548)
(0.105493 0.000978101 -0.000204711)
(0.105646 0.000980377 -0.000198988)
(0.0901465 0.000537209 -0.000421197)
(0.0899962 0.000500084 -0.00042746)
(0.0898563 0.000472572 -0.000428588)
(0.0897327 0.000464126 -0.00043294)
(0.0896057 0.000456843 -0.00043039)
(0.0894881 0.000459672 -0.000427632)
(0.0893583 0.000464029 -0.00042177)
(0.0892284 0.000463492 -0.000410457)
(0.0890856 0.000464162 -0.000398118)
(0.0889404 0.000464534 -0.000384127)
(0.0887887 0.00047176 -0.000373548)
(0.0886312 0.000476928 -0.000360469)
(0.0584289 0.000354847 -0.000505247)
(0.0577864 0.000371527 -0.000507602)
(0.0571586 0.00038183 -0.000499879)
(0.0565253 0.000355765 -0.000457842)
(0.0559462 0.00031236 -0.000397899)
(0.055358 0.000288018 -0.000356372)
(0.0548252 0.000275391 -0.000329599)
(0.054272 0.000265979 -0.000308849)
(0.0537652 0.00025909 -0.000290422)
(0.0532447 0.000253505 -0.000273593)
(0.0527662 0.000247112 -0.000258261)
(0.0522831 0.000233729 -0.00024089)
(0.10496 0.00146491 0.000332818)
(0.104929 0.00144418 0.000383692)
(0.104892 0.00142903 0.000421941)
(0.104847 0.00141728 0.000449322)
(0.104796 0.00140755 0.000468097)
(0.104737 0.00139968 0.000479901)
(0.10467 0.00139231 0.000486088)
(0.104597 0.0013861 0.000487728)
(0.104516 0.00137524 0.000484624)
(0.104433 0.00136056 0.000478288)
(0.104346 0.0013471 0.000470913)
(0.101641 0.00135064 0.000258432)
(0.101526 0.00130668 0.000297611)
(0.101426 0.0012746 0.000327697)
(0.101327 0.0012498 0.000350365)
(0.101237 0.00122999 0.000368047)
(0.101142 0.00121724 0.00038051)
(0.101046 0.00120438 0.000388442)
(0.100944 0.00120147 0.00039255)
(0.100834 0.00119306 0.000393645)
(0.100719 0.0011836 0.000391299)
(0.100594 0.00116577 0.000384949)
(0.0935525 0.00103192 -3.61895e-06)
(0.0933254 0.000986777 7.12096e-06)
(0.0931181 0.000948729 1.82527e-05)
(0.0929428 0.000926637 2.81117e-05)
(0.0927662 0.000909175 3.84225e-05)
(0.0926092 0.000890364 5.10893e-05)
(0.0924483 0.000877194 6.31831e-05)
(0.0922901 0.00086405 7.5568e-05)
(0.0921176 0.000854704 8.61679e-05)
(0.0919485 0.000846217 9.49939e-05)
(0.0917692 0.000844613 9.85671e-05)
(0.0915853 0.000831656 0.000101516)
(0.0765616 0.000307599 -0.00017101)
(0.0760924 0.000263313 -0.000163792)
(0.0756583 0.000236634 -0.000157606)
(0.0752118 0.000231999 -0.00015767)
(0.0748014 0.000242367 -0.000162385)
(0.0743585 0.000251261 -0.000164757)
(0.0739508 0.000257884 -0.000163714)
(0.0735099 0.000256875 -0.000156489)
(0.0730991 0.000253479 -0.000146449)
(0.0726613 0.000248184 -0.000134563)
(0.0722473 0.000251873 -0.000126004)
(0.0718106 0.000265606 -0.000122111)
(0.0444928 -3.93446e-05 -0.000172969)
(0.0439486 -2.88866e-05 -0.000165801)
(0.0434245 -1.67686e-05 -0.000157933)
(0.042891 -3.59019e-06 -0.000152248)
(0.0423684 2.26333e-06 -0.000145954)
(0.0418372 4.09999e-06 -0.000137898)
(0.0413372 4.7969e-06 -0.000129349)
(0.0408403 4.36953e-06 -0.00011974)
(0.0403747 4.9647e-06 -0.000110161)
(0.0399156 6.60124e-06 -0.000100595)
(0.0394798 9.94808e-06 -9.18186e-05)
(0.039057 1.32258e-05 -8.22033e-05)
(0.0804974 0.00126365 0.000468518)
(0.0797086 0.00126051 0.000500269)
(0.0789155 0.0012575 0.000522232)
(0.0781184 0.00125279 0.000536458)
(0.0773179 0.00124618 0.00054441)
(0.0765153 0.00123762 0.00054739)
(0.075713 0.00122765 0.000546135)
(0.0749113 0.0012164 0.000542676)
(0.0741151 0.00120369 0.0005373)
(0.0733189 0.00118743 0.000532007)
(0.0725298 0.00116716 0.000528595)
(0.0754139 0.00115576 0.00038451)
(0.0745584 0.00113269 0.000406187)
(0.0737218 0.00111321 0.000422478)
(0.0729017 0.00109601 0.000434389)
(0.0720887 0.00108154 0.000441942)
(0.071282 0.00106669 0.000445417)
(0.0704834 0.001052 0.000444801)
(0.069683 0.00103839 0.00044126)
(0.0689041 0.00102566 0.00043591)
(0.0681187 0.0010088 0.000429)
(0.0673673 0.000986459 0.000417022)
(0.0650091 0.000918803 0.000132039)
(0.0642258 0.000892551 0.000136639)
(0.0634981 0.000874313 0.000140013)
(0.0627767 0.000854315 0.000147478)
(0.0621079 0.000832397 0.000159014)
(0.0614292 0.000811718 0.000172411)
(0.0607874 0.000791417 0.000184664)
(0.0601352 0.000772179 0.00019344)
(0.0595083 0.000757697 0.000196635)
(0.0588688 0.00074846 0.000195207)
(0.0582426 0.000725678 0.000190428)
(0.057624 0.000665742 0.000183443)
(0.0474838 0.000388408 -0.000119712)
(0.0468445 0.00037328 -0.000120264)
(0.0462437 0.000361091 -0.000119367)
(0.0456535 0.00035116 -0.000116411)
(0.0451058 0.000343356 -0.000111329)
(0.044563 0.000335055 -0.000101331)
(0.0440549 0.000326162 -8.8015e-05)
(0.0435552 0.000316447 -7.51919e-05)
(0.0430826 0.000308834 -6.55891e-05)
(0.0426103 0.000303738 -5.93345e-05)
(0.0421462 0.000298395 -5.5009e-05)
(0.0416861 0.000283478 -4.95431e-05)
(0.0289101 9.53759e-06 -9.53443e-05)
(0.0284792 7.74245e-06 -9.18716e-05)
(0.0280686 6.17588e-06 -8.87324e-05)
(0.0276651 3.71878e-06 -8.76841e-05)
(0.0272812 1.81424e-06 -8.7564e-05)
(0.0269018 1.99896e-06 -8.56074e-05)
(0.0265421 3.406e-06 -8.17552e-05)
(0.0261905 4.56306e-06 -7.57604e-05)
(0.0258595 5.89838e-06 -6.97092e-05)
(0.0255356 7.13152e-06 -6.39916e-05)
(0.0252213 9.14889e-06 -5.84222e-05)
(0.0249143 1.12393e-05 -5.19304e-05)
)
;

boundaryField
{
    inlet
    {
        type            fixedValue;
        value           nonuniform List<vector> 0();
    }
    ami1
    {
        type            cyclicAMI;
        value           nonuniform List<vector> 0();
    }
    walls
    {
        type            noSlip;
    }
    ami2
    {
        type            cyclicAMI;
        value           nonuniform List<vector> 0();
    }
    outlet
    {
        type            zeroGradient;
    }
    procBoundary9to0
    {
        type            processor;
        value           nonuniform List<vector> 
40
(
(0.0810198 -0.00114055 -0.000510525)
(0.0768048 -0.000976144 -0.000545915)
(0.0691071 -0.000792356 -0.000479086)
(0.0691071 -0.000792356 -0.000479086)
(0.0590744 -0.000502954 -0.000352606)
(0.0450338 -0.00017934 4.89481e-05)
(0.029357 -9.88252e-05 -1.06825e-05)
(0.104698 -0.00132697 -0.000381913)
(0.101976 -0.00108108 -0.000492668)
(0.0973498 -0.000780422 -0.000539752)
(0.0973498 -0.000780422 -0.000539752)
(0.0903068 -0.000406842 -0.000582069)
(0.0770469 -0.000168436 -0.00034088)
(0.0481314 -0.000124458 -0.000415034)
(0.113902 -0.00127423 -0.000415039)
(0.11227 -0.000974509 -0.000682309)
(0.109169 -0.000631534 -0.000925485)
(0.109169 -0.000631534 -0.000925485)
(0.103951 -0.000269173 -0.00121281)
(0.0938266 -1.62543e-05 -0.00109271)
(0.065825 0.000116206 -0.000969613)
(0.118513 -0.000894179 -0.000352615)
(0.117525 -0.000609959 -0.000737709)
(0.115143 -0.000298907 -0.00110971)
(0.115143 -0.000298907 -0.00110971)
(0.110632 -2.83227e-05 -0.00150932)
(0.101925 0.000145935 -0.00147143)
(0.077213 0.00031166 -0.00124307)
(0.120107 -0.000223791 -0.000662499)
(0.117914 5.68246e-06 -0.00109326)
(0.117914 5.68246e-06 -0.00109326)
(0.113414 0.00014077 -0.00150861)
(0.105008 0.00018962 -0.00153122)
(0.0820568 0.000349713 -0.00128191)
(0.120842 0.000206053 -0.000462582)
(0.118515 0.000351459 -0.000892948)
(0.118515 0.000351459 -0.000892948)
(0.11358 0.000388092 -0.00126655)
(0.104646 0.000324016 -0.00131095)
(0.0816789 0.000453846 -0.00110689)
)
;
    }
    procBoundary9to1
    {
        type            processor;
        value           nonuniform List<vector> 
30
(
(0.120108 0.000661593 -0.000223348)
(0.117527 0.000737444 -0.000609181)
(0.117527 0.000737444 -0.000609181)
(0.11196 0.000697321 -0.00094024)
(0.101929 0.000481217 -0.00103191)
(0.077436 0.000506134 -0.000928301)
(0.117913 0.00109236 5.38589e-06)
(0.115144 0.00110959 -0.000299058)
(0.115144 0.00110959 -0.000299058)
(0.10893 0.000981455 -0.000600902)
(0.0973729 0.000574616 -0.000738806)
(0.0697722 0.000460365 -0.000758194)
(0.113697 0.0014709 0.000182954)
(0.11083 0.00143652 3.85457e-06)
(0.11083 0.00143652 3.85457e-06)
(0.103954 0.00121385 -0.000268788)
(0.0903167 0.000583438 -0.000406357)
(0.0590594 0.000349529 -0.000500662)
(0.104986 0.00149204 0.000268273)
(0.10177 0.00140201 0.00020848)
(0.10177 0.00140201 0.00020848)
(0.0938265 0.00109681 -1.57932e-05)
(0.0770476 0.00034262 -0.000166646)
(0.0450238 -4.72523e-05 -0.000178796)
(0.0812803 0.00127001 0.000422352)
(0.0762971 0.00118913 0.000354775)
(0.0762971 0.00118913 0.000354775)
(0.0658327 0.000964671 0.000120258)
(0.0481294 0.000413845 -0.000121286)
(0.0293522 1.10279e-05 -9.7683e-05)
)
;
    }
    procBoundary9to7
    {
        type            processor;
        value           nonuniform List<vector> 
59
(
(0.0721099 -0.00110879 -0.000550982)
(0.0684875 -0.000912623 -0.000513332)
(0.0615407 -0.000558248 -0.000404094)
(0.0518195 -0.000223119 -0.000223101)
(0.038652 -7.37455e-05 -2.10717e-05)
(0.0246165 -4.59306e-05 -1.39489e-05)
(0.10435 -0.00131277 -0.00045059)
(0.101823 -0.00107888 -0.00041755)
(0.0970691 -0.000697766 -0.000408232)
(0.0884402 -0.000352026 -0.000493825)
(0.0713579 -0.000121152 -0.000289456)
(0.0412371 -4.56821e-05 -0.000262482)
(0.117332 -0.00125907 -0.000454823)
(0.115731 -0.000996914 -0.000578574)
(0.112313 -0.000608452 -0.000765156)
(0.105784 -0.000197911 -0.000993728)
(0.0913693 0.000100774 -0.000827518)
(0.0570152 0.000172768 -0.00059204)
(0.123485 -0.000822991 -0.000341728)
(0.122386 -0.000569747 -0.000607739)
(0.119452 -0.000213693 -0.000905243)
(0.113586 0.000156368 -0.00123209)
(0.100464 0.00037854 -0.00114991)
(0.0666089 0.000404254 -0.000963103)
(0.125565 -0.000189245 -0.000564118)
(0.122708 7.06968e-05 -0.000947754)
(0.11689 0.000331307 -0.00134584)
(0.104247 0.000466058 -0.00134628)
(0.0717355 0.000529732 -0.00114392)
(0.126478 0.000183428 -0.000412055)
(0.123483 0.000338145 -0.000825539)
(0.117331 0.000450645 -0.00126034)
(0.104354 0.000447038 -0.00131348)
(0.0721341 0.000547417 -0.00110915)