/*--------------------------------*- C++ -*----------------------------------*\
| =========                 |                                                 |
| \\      /  F ield         | OpenFOAM: The Open Source CFD Toolbox           |
|  \\    /   O peration     | Version:  2212                                  |
|   \\  /    A nd           | Website:  www.openfoam.com                      |
|    \\/     M anipulation  |                                                 |
\*---------------------------------------------------------------------------*/
FoamFile
{
    version     2.0;
    format      ascii;
    arch        "LSB;label=32;scalar=64";
    class       surfaceVectorField;
    location    "2";
    object      Uf;
}
// * * * * * * * * * * * * * * * * * * * * * * * * * * * * * * * * * * * * * //

dimensions      [0 1 -1 0 0 0 0];

internalField   nonuniform List<vector> 
1786
(
(0.0799744 -0.00117138 -0.000567706)
(0.0782118 -0.0010838 -0.000563973)
(0.0918863 -0.00121406 -0.000478538)
(0.07925 -0.00118592 -0.000591049)
(0.0775082 -0.00110251 -0.000587938)
(0.0915179 -0.00122711 -0.000508993)
(0.078508 -0.00119529 -0.000603284)
(0.0767865 -0.00111431 -0.00060092)
(0.0911316 -0.00123796 -0.000528036)
(0.077754 -0.00119934 -0.000607157)
(0.0760528 -0.00111953 -0.000604864)
(0.0907308 -0.00124488 -0.000537961)
(0.0769929 -0.00119845 -0.000605297)
(0.0753125 -0.00111875 -0.000602469)
(0.0903195 -0.00124729 -0.00054118)
(0.0762294 -0.00119314 -0.000599543)
(0.0745713 -0.00111275 -0.00059587)
(0.089901 -0.00124565 -0.000539423)
(0.0754669 -0.001184 -0.000591178)
(0.0738337 -0.00110247 -0.000586733)
(0.0894783 -0.00124062 -0.00053412)
(0.0747087 -0.00117187 -0.000581192)
(0.0731029 -0.00108836 -0.000575957)
(0.089054 -0.00123293 -0.00052649)
(0.073957 -0.00115761 -0.00057084)
(0.0723816 -0.00107168 -0.00056453)
(0.0886304 -0.00122296 -0.000517388)
(0.0732126 -0.00114116 -0.000561987)
(0.0716695 -0.00105332 -0.000552958)
(0.0882086 -0.0012108 -0.000508106)
(0.0709709 -0.00103383 -0.000542402)
(0.0877915 -0.00119333 -0.000498274)
(0.0757914 -0.00101678 -0.000583697)
(0.0721438 -0.000904372 -0.000539076)
(0.0883567 -0.00103194 -0.000523067)
(0.0750915 -0.0010329 -0.00059701)
(0.0714508 -0.000919262 -0.000552)
(0.0879992 -0.00105289 -0.000532396)
(0.0743777 -0.00104098 -0.00060075)
(0.0707507 -0.000921931 -0.000552039)
(0.0876272 -0.00106586 -0.000534282)
(0.0736567 -0.00104178 -0.000597539)
(0.0700538 -0.000913297 -0.00054378)
(0.0872449 -0.00107193 -0.000530047)
(0.0729358 -0.00103614 -0.000589986)
(0.069361 -0.000896792 -0.000532855)
(0.086857 -0.00107171 -0.000522127)
(0.0722203 -0.00102519 -0.00058013)
(0.068681 -0.000875756 -0.000520823)
(0.0864674 -0.00106582 -0.00051238)
(0.0715138 -0.00100988 -0.000568926)
(0.0680134 -0.000852448 -0.000508912)
(0.0860803 -0.00105571 -0.000502117)
(0.070819 -0.000991222 -0.000556934)
(0.0673623 -0.000827851 -0.000497308)
(0.0856974 -0.00104221 -0.000491756)
(0.070137 -0.000970431 -0.000544522)
(0.0667252 -0.000803606 -0.000486287)
(0.0853208 -0.00102634 -0.000481848)
(0.0694676 -0.000948605 -0.000532515)
(0.0661006 -0.000779262 -0.000473944)
(0.0849498 -0.00100889 -0.000472622)
(0.0654964 -0.000755777 -0.000462765)
(0.0845878 -0.000988274 -0.000463008)
(0.0680718 -0.000816185 -0.000501834)
(0.0627652 -0.000656711 -0.000396655)
(0.0819588 -0.000792934 -0.00049084)
(0.0673817 -0.000815877 -0.000510115)
(0.0621015 -0.000656202 -0.000410885)
(0.0815815 -0.000802958 -0.000485442)
(0.0666971 -0.000799477 -0.000509962)
(0.0614441 -0.00062826 -0.000404336)
(0.0812055 -0.000799136 -0.000475911)
(0.0660247 -0.000772153 -0.000502744)
(0.0608148 -0.000583536 -0.000387816)
(0.0808361 -0.000783687 -0.00046281)
(0.0653702 -0.000740329 -0.000490577)
(0.060191 -0.000546142 -0.000373425)
(0.0804742 -0.000762128 -0.000448236)
(0.0647356 -0.00070754 -0.00047717)
(0.0596052 -0.000515854 -0.000361964)
(0.0801204 -0.000738053 -0.000434973)
(0.0641205 -0.000675667 -0.000464391)
(0.0590187 -0.000488724 -0.000352214)
(0.0797779 -0.000713316 -0.000424449)
(0.0635231 -0.000646252 -0.000452344)
(0.0584649 -0.000464316 -0.000343089)
(0.0794433 -0.00068948 -0.000415927)
(0.0629417 -0.000619163 -0.000439623)
(0.0579136 -0.000442386 -0.000334129)
(0.0791185 -0.000666904 -0.000408453)
(0.0623746 -0.000593933 -0.000425795)
(0.0573874 -0.000421905 -0.000324089)
(0.0787974 -0.000646268 -0.000402077)
(0.0568727 -0.000401597 -0.00031107)
(0.0784889 -0.000622734 -0.000393376)
(0.0581154 -0.000509074 -0.000365431)
(0.0507029 -0.000321274 -0.000200027)
(0.0730162 -0.000453711 -0.000425848)
(0.0574785 -0.000506691 -0.000378826)
(0.0501218 -0.000318692 -0.000215508)
(0.0726017 -0.000456404 -0.000415921)
(0.0568464 -0.000481631 -0.000369698)
(0.0495364 -0.000311084 -0.000228216)
(0.0721951 -0.000453209 -0.000409012)
(0.0562352 -0.000430002 -0.000333737)
(0.0489683 -0.000288733 -0.000223314)
(0.0717988 -0.000434359 -0.00039226)
(0.0556528 -0.000378631 -0.000299635)
(0.0484104 -0.000257683 -0.000206081)
(0.0714239 -0.00040389 -0.000368386)
(0.0550905 -0.000343736 -0.000281367)
(0.04786 -0.000234226 -0.000195814)
(0.0710541 -0.000381102 -0.000358833)
(0.054545 -0.000319027 -0.000270528)
(0.0473405 -0.000216952 -0.000189225)
(0.0707044 -0.000361827 -0.000353296)
(0.0540159 -0.000298827 -0.000262687)
(0.0468231 -0.000201721 -0.000182348)
(0.0703483 -0.000342404 -0.000346099)
(0.0535017 -0.000281048 -0.000256925)
(0.0463352 -0.000188118 -0.000178844)
(0.0700041 -0.000325915 -0.000342724)
(0.0530032 -0.000264815 -0.000251531)
(0.0458524 -0.000175373 -0.000176356)
(0.0696615 -0.000309758 -0.000339617)
(0.0525189 -0.000248594 -0.000242517)
(0.0453933 -0.000163476 -0.00017381)
(0.069326 -0.000295383 -0.000338716)
(0.0449452 -0.000150845 -0.000165052)
(0.0689966 -0.000277926 -0.00033211)
(0.0442191 -0.000170933 3.49762e-05)
(0.0351395 -0.000122246 5.56481e-05)
(0.0586814 -0.000179396 -0.000119706)
(0.0436847 -0.000163727 2.31113e-05)
(0.0346695 -0.000117418 5.13779e-05)
(0.0581833 -0.000168924 -0.000102295)
(0.0431527 -0.000156891 1.06025e-05)
(0.0342002 -0.00011222 4.74162e-05)
(0.0576824 -0.000159498 -9.50837e-05)
(0.0426215 -0.000150219 1.76484e-06)
(0.0337531 -0.000108744 4.623e-05)
(0.0572042 -0.000157303 -0.000102824)
(0.0420996 -0.000142309 -2.1559e-06)
(0.0333065 -0.000105088 4.83265e-05)
(0.0567163 -0.000156816 -0.00011191)
(0.0415854 -0.000133551 -4.22854e-06)
(0.0328743 -0.000100335 4.74377e-05)
(0.0562366 -0.000153953 -0.000119323)
(0.0410851 -0.000123991 -4.9281e-06)
(0.032454 -9.42241e-05 4.47912e-05)
(0.0557669 -0.000146955 -0.000121104)
(0.0406048 -0.000114132 -5.43091e-06)
(0.0320493 -8.67027e-05 4.23709e-05)
(0.055305 -0.000136603 -0.000119265)
(0.0401416 -0.000104606 -6.75032e-06)
(0.0316608 -7.93877e-05 3.98183e-05)
(0.0548539 -0.000125515 -0.000116844)
(0.0396949 -9.5364e-05 -9.12362e-06)
(0.0312856 -7.25464e-05 3.7201e-05)
(0.0544129 -0.000114024 -0.000114366)
(0.0392643 -8.61248e-05 -1.24422e-05)
(0.0309193 -6.58732e-05 3.28017e-05)
(0.053978 -0.000102811 -0.000114248)
(0.0305668 -5.88882e-05 2.58918e-05)
(0.0535534 -9.29625e-05 -0.000119475)
(0.0286921 -9.47753e-05 -8.53625e-06)
(0.0363317 -0.000127942 -0.000192495)
(0.0282709 -9.11552e-05 -6.9241e-06)
(0.0358246 -0.000122728 -0.000180991)
(0.0278633 -8.87508e-05 -5.08759e-06)
(0.0353248 -0.000118252 -0.000172912)
(0.0274682 -8.77864e-05 -2.83827e-06)
(0.0348566 -0.000115648 -0.000167258)
(0.027089 -8.63875e-05 -1.99795e-06)
(0.0344001 -0.0001135 -0.000163522)
(0.0267207 -8.31021e-05 -2.98343e-06)
(0.0339646 -0.000108126 -0.000161043)
(0.0263647 -7.78243e-05 -4.34264e-06)
(0.0335407 -9.9741e-05 -0.000158)
(0.0260241 -7.17316e-05 -5.66015e-06)
(0.0331358 -9.05598e-05 -0.000154372)
(0.025696 -6.60252e-05 -6.94461e-06)
(0.0327437 -8.25498e-05 -0.000151248)
(0.0253767 -6.05851e-05 -8.40782e-06)
(0.0323637 -7.62272e-05 -0.000148785)
(0.0250646 -5.47312e-05 -1.04018e-05)
(0.0319853 -6.97951e-05 -0.000145052)
(0.0316178 -6.1785e-05 -0.000137132)
(0.104742 -0.00134585 -0.000443843)
(0.103359 -0.00122702 -0.000464526)
(0.109288 -0.00134889 -0.000448969)
(0.10475 -0.00135803 -0.000471583)
(0.103376 -0.00124579 -0.000481341)
(0.109445 -0.00135866 -0.000474571)
(0.104744 -0.00136883 -0.000489687)
(0.103378 -0.00126048 -0.00049095)
(0.10959 -0.00136809 -0.000492691)
(0.104725 -0.00137582 -0.000500012)
(0.103369 -0.00126997 -0.000494249)
(0.109725 -0.00137481 -0.000504321)
(0.104695 -0.00137866 -0.000504098)
(0.103349 -0.00127409 -0.000492741)
(0.109851 -0.001378 -0.00051043)
(0.104656 -0.00137819 -0.000503349)
(0.103321 -0.00127351 -0.000488063)
(0.109969 -0.00137856 -0.000512162)
(0.104609 -0.00137513 -0.000499088)
(0.103287 -0.0012694 -0.000481571)
(0.110081 -0.00137708 -0.000510523)
(0.104557 -0.00136943 -0.000492277)
(0.103249 -0.00126249 -0.000474062)
(0.110188 -0.00137367 -0.000506453)
(0.1045 -0.00136047 -0.000483711)
(0.103207 -0.00125263 -0.000465872)
(0.11029 -0.0013678 -0.000500505)
(0.104441 -0.00134538 -0.000472413)
(0.103163 -0.0012399 -0.000457698)
(0.11039 -0.00135969 -0.000493567)
(0.103119 -0.00121936 -0.000445984)
(0.110488 -0.00134516 -0.000483253)
(0.102017 -0.00112955 -0.000499772)
(0.0996082 -0.000958274 -0.000506135)
(0.107076 -0.00109702 -0.000600009)
(0.102027 -0.00115074 -0.000498715)
(0.0996069 -0.000979002 -0.000493559)
(0.107229 -0.00112049 -0.000594296)
(0.102026 -0.00116421 -0.000493437)
(0.0996002 -0.000991008 -0.000480524)
(0.107373 -0.00113652 -0.000586405)
(0.102016 -0.00117088 -0.000484966)
(0.0995866 -0.000994524 -0.000465)
(0.10751 -0.00114588 -0.000576587)
(0.101998 -0.00117146 -0.000475144)
(0.0995706 -0.000991734 -0.000451212)
(0.107641 -0.00114964 -0.000566399)
(0.101976 -0.00116711 -0.000465189)
(0.0995474 -0.000984243 -0.00043988)
(0.107767 -0.0011488 -0.000556484)
(0.10195 -0.00115908 -0.000455792)
(0.0995252 -0.000973632 -0.000430814)
(0.107891 -0.00114451 -0.000547054)
(0.101922 -0.00114794 -0.000447201)
(0.0994975 -0.00096067 -0.000424035)
(0.108012 -0.00113716 -0.00053865)
(0.101893 -0.00113419 -0.000439804)
(0.0994712 -0.000945161 -0.000418299)
(0.108132 -0.00112682 -0.000531382)
(0.101864 -0.00111578 -0.000431798)
(0.0994405 -0.00092989 -0.000416057)
(0.108252 -0.00111481 -0.000526509)
(0.0994101 -0.000906095 -0.000408938)
(0.108371 -0.00109719 -0.000520361)
(0.0973234 -0.000815667 -0.000501192)
(0.0934869 -0.000611856 -0.000489761)
(0.103097 -0.0007679 -0.00071035)
(0.0973056 -0.000826897 -0.000479018)
(0.0934072 -0.000620578 -0.000464171)
(0.103208 -0.000783012 -0.000680487)
(0.0972878 -0.000828727 -0.000457841)
(0.0933334 -0.000626126 -0.000448772)
(0.103321 -0.000789753 -0.00065569)
(0.0972672 -0.000822783 -0.000438381)
(0.0932583 -0.000622404 -0.000431868)
(0.103434 -0.000787944 -0.000633218)
(0.0972459 -0.000812019 -0.000423833)
(0.0931901 -0.000617173 -0.000427012)
(0.10355 -0.000781778 -0.000616804)
(0.0972235 -0.000798183 -0.000414441)
(0.0931091 -0.0006077 -0.000426525)
(0.103663 -0.000772842 -0.000605956)
(0.0971993 -0.000782596 -0.000408678)
(0.0930332 -0.000593954 -0.000426094)
(0.10378 -0.000761557 -0.00059833)
(0.0971732 -0.000765455 -0.000404544)
(0.092941 -0.000579813 -0.00042627)
(0.103893 -0.00074846 -0.000593035)
(0.097145 -0.000748702 -0.000403179)
(0.0928579 -0.000563565 -0.000425063)
(0.104008 -0.000733376 -0.000589201)
(0.0971141 -0.000728212 -0.000401312)
(0.0927573 -0.000550342 -0.000429452)
(0.104119 -0.000720375 -0.000590387)
(0.0926635 -0.000530274 -0.000432059)
(0.104228 -0.000702541 -0.000590972)
(0.0900643 -0.000424827 -0.000516841)
(0.0828406 -0.000282432 -0.000467492)
(0.0966992 -0.000385413 -0.000850025)
(0.0899204 -0.000428402 -0.000484034)
(0.0825279 -0.00027974 -0.000426893)
(0.0966686 -0.000389572 -0.000803681)
(0.0897909 -0.000431437 -0.000466776)
(0.0822251 -0.00027669 -0.000404334)
(0.0966566 -0.000390108 -0.000770012)
(0.0896674 -0.000430933 -0.000457858)
(0.0819391 -0.000278546 -0.000405535)
(0.0966537 -0.000387489 -0.000749747)
(0.089546 -0.000427498 -0.000456121)
(0.0816504 -0.000277486 -0.000411358)
(0.096658 -0.000377744 -0.000733594)
(0.0894224 -0.000423726 -0.000462079)
(0.0813675 -0.000277775 -0.000421427)
(0.0966695 -0.000371698 -0.000732619)
(0.0892925 -0.000415155 -0.000465126)
(0.0810794 -0.00027401 -0.00042527)
(0.096673 -0.000364464 -0.000732504)
(0.0891558 -0.000403548 -0.000466288)
(0.0807918 -0.000264829 -0.000423468)
(0.0966818 -0.000353058 -0.000727482)
(0.0890123 -0.000390479 -0.000467441)
(0.0804931 -0.000254036 -0.000421377)
(0.0966799 -0.000342413 -0.000727841)
(0.0888628 -0.000377791 -0.000470757)
(0.0802022 -0.000241262 -0.000418231)
(0.0966824 -0.000330545 -0.00072859)
(0.0887038 -0.00036532 -0.000476048)
(0.0798969 -0.000231397 -0.00042017)
(0.0966702 -0.000322608 -0.00073591)
(0.079597 -0.000223756 -0.000426546)
(0.0966599 -0.000314903 -0.000742911)
(0.0763212 -0.000169058 -0.000284124)
(0.0603429 -0.000145125 -0.000267062)
(0.0844271 -0.000126664 -0.000673113)
(0.0758715 -0.000161285 -0.000247926)
(0.059793 -0.000141182 -0.000241975)
(0.0840727 -0.000119976 -0.000630104)
(0.075437 -0.000158495 -0.000234787)
(0.0592496 -0.000137028 -0.000223691)
(0.083742 -0.000113804 -0.000602422)
(0.0750079 -0.000160815 -0.000239116)
(0.0587421 -0.00013487 -0.000214655)
(0.0834252 -0.000109131 -0.000590764)
(0.0745815 -0.000163789 -0.00024909)
(0.0582405 -0.000132885 -0.000209723)
(0.0831179 -0.000104698 -0.000584723)
(0.0741549 -0.000163794 -0.000257)
(0.057756 -0.000127974 -0.000209418)
(0.0828107 -9.86888e-05 -0.000581857)
(0.0737286 -0.000158808 -0.000259051)
(0.0572813 -0.000119309 -0.000207132)
(0.0825127 -9.02276e-05 -0.000576296)
(0.0733033 -0.00014992 -0.000256998)
(0.0568191 -0.000108838 -0.000202366)
(0.0822076 -7.94843e-05 -0.000569387)
(0.072878 -0.000139044 -0.000252869)
(0.0563632 -9.91533e-05 -0.000197973)
(0.0819 -6.91279e-05 -0.000563118)
(0.0724525 -0.000128644 -0.000251148)
(0.0559154 -9.10633e-05 -0.000195035)
(0.0815939 -5.97511e-05 -0.000558663)
(0.0720229 -0.000122475 -0.000259708)
(0.0554638 -8.49117e-05 -0.000194954)
(0.0812803 -5.3245e-05 -0.000557302)
(0.0550181 -8.09326e-05 -0.000198236)
(0.0809649 -5.18868e-05 -0.000563713)
(0.0471538 -0.00012295 -0.00038243)
(0.0552716 -1.70143e-05 -0.000633526)
(0.0465339 -0.00012185 -0.000368665)
(0.0545864 -1.8623e-05 -0.000617382)
(0.0459403 -0.000118409 -0.00035693)
(0.053909 -1.67501e-05 -0.000603114)
(0.0453722 -0.000112865 -0.000347005)
(0.0532847 -8.95298e-06 -0.000586555)
(0.0448293 -0.000104326 -0.000338663)
(0.0526657 2.19062e-06 -0.000570241)
(0.0443059 -9.21433e-05 -0.000330414)
(0.0520815 1.58591e-05 -0.000555277)
(0.043802 -7.89327e-05 -0.000321271)
(0.0514995 3.00408e-05 -0.000540586)
(0.0433173 -6.79054e-05 -0.00031282)
(0.0509465 4.1642e-05 -0.000525964)
(0.0428448 -6.05917e-05 -0.000306945)
(0.0503915 4.82908e-05 -0.00051555)
(0.0423761 -5.60663e-05 -0.000301848)
(0.0498561 4.9869e-05 -0.000509426)
(0.0419102 -5.18621e-05 -0.000291822)
(0.0493079 4.89499e-05 -0.000496997)
(0.048782 4.81688e-05 -0.000462208)
(0.114372 -0.00128157 -0.000444205)
(0.113392 -0.00113861 -0.000552553)
(0.116521 -0.00107996 -0.000392672)
(0.114676 -0.00128595 -0.000458591)
(0.113696 -0.00115058 -0.000553282)
(0.11689 -0.00107862 -0.000401711)
(0.114974 -0.00128922 -0.00046912)
(0.113994 -0.00115908 -0.000552356)
(0.117252 -0.00107663 -0.000408431)
(0.115266 -0.00129106 -0.000475993)
(0.114288 -0.00116431 -0.000549969)
(0.117609 -0.00107439 -0.000412839)
(0.115553 -0.00129156 -0.000479579)
(0.114577 -0.00116683 -0.000546487)
(0.117961 -0.00107214 -0.000415083)
(0.115835 -0.00129083 -0.000480361)
(0.114862 -0.00116706 -0.000542205)
(0.118308 -0.00106953 -0.000415484)
(0.116114 -0.00128884 -0.000478931)
(0.115145 -0.00116523 -0.0005372)
(0.118651 -0.00106625 -0.00041428)
(0.116388 -0.00128533 -0.000475869)
(0.115424 -0.00116155 -0.000532043)
(0.118991 -0.00106224 -0.000411956)
(0.11666 -0.00128071 -0.000471832)
(0.115702 -0.00115571 -0.000527161)
(0.119327 -0.00105714 -0.000408774)
(0.11693 -0.00127375 -0.00046623)
(0.115978 -0.00114929 -0.000523857)
(0.119662 -0.00105179 -0.00040536)
(0.116252 -0.00113892 -0.00051978)
(0.119993 -0.00104367 -0.000400241)
(0.112728 -0.00100936 -0.000660493)
(0.110964 -0.000822659 -0.000774247)
(0.115187 -0.000803289 -0.000685933)
(0.113027 -0.00102532 -0.00064623)
(0.11124 -0.000838295 -0.000747106)
(0.115545 -0.000813515 -0.000668433)
(0.11332 -0.00103569 -0.000632674)
(0.111516 -0.000847588 -0.000724389)
(0.115899 -0.000819646 -0.000652274)
(0.11361 -0.00104136 -0.000620577)
(0.111792 -0.000851403 -0.000706)
(0.116248 -0.000822388 -0.000637896)
(0.113898 -0.00104331 -0.000610023)
(0.112067 -0.000851531 -0.000692623)
(0.116593 -0.000822449 -0.000625677)
(0.114183 -0.00104227 -0.000600431)
(0.112342 -0.000848898 -0.000682103)
(0.116937 -0.000820341 -0.000615073)
(0.114467 -0.00103867 -0.000591938)
(0.112617 -0.0008436 -0.000672412)
(0.117278 -0.000816408 -0.000605566)
(0.114749 -0.00103263 -0.000585088)
(0.112893 -0.00083634 -0.000665519)
(0.117618 -0.000810979 -0.000597758)
(0.115031 -0.00102504 -0.000580892)
(0.113167 -0.000827139 -0.000661255)
(0.117956 -0.000804057 -0.000591862)
(0.115312 -0.00101536 -0.000578773)
(0.113442 -0.000818326 -0.000661631)
(0.118293 -0.000796973 -0.00058918)
(0.113713 -0.000808694 -0.000664776)
(0.118629 -0.000787738 -0.000587229)
(0.109545 -0.000657853 -0.000860213)
(0.106681 -0.000460406 -0.000973478)
(0.112364 -0.000465693 -0.000960481)
(0.109799 -0.000666624 -0.000826034)
(0.106868 -0.000465182 -0.000932682)
(0.112668 -0.000467517 -0.000921168)
(0.110057 -0.000669307 -0.000799388)
(0.107061 -0.000464683 -0.000902709)
(0.112974 -0.000465706 -0.000889914)
(0.110318 -0.000667658 -0.000780089)
(0.107263 -0.000460412 -0.000882241)
(0.113283 -0.00046129 -0.000865684)
(0.110582 -0.000663208 -0.000767187)
(0.107469 -0.000454859 -0.000872598)
(0.113592 -0.000455458 -0.000848486)
(0.110848 -0.000656143 -0.000757437)
(0.107676 -0.000446624 -0.000864494)
(0.113904 -0.000448058 -0.000835745)
(0.111115 -0.000647111 -0.000749843)
(0.107887 -0.000434659 -0.000853374)
(0.114216 -0.00043894 -0.000824832)
(0.111382 -0.0006369 -0.000745157)
(0.108102 -0.000424343 -0.000849579)
(0.114529 -0.000429812 -0.000817405)
(0.11165 -0.000626834 -0.000744536)
(0.108312 -0.000414346 -0.000849106)
(0.11484 -0.000420657 -0.000813165)
(0.111917 -0.000618298 -0.000749305)
(0.108523 -0.000407195 -0.000854377)
(0.115153 -0.000413301 -0.000813943)
(0.108725 -0.000401706 -0.000863122)
(0.115461 -0.000407289 -0.000818086)
(0.10409 -0.000274461 -0.00111836)
(0.0985085 -0.000123009 -0.00113521)
(0.107309 -0.000122651 -0.00127509)
(0.104204 -0.00027348 -0.00106878)
(0.0984302 -0.000117062 -0.00108459)
(0.107464 -0.000107277 -0.00122024)
(0.104333 -0.000269484 -0.0010322)
(0.0983864 -0.00010998 -0.00104727)
(0.107634 -9.27494e-05 -0.00117794)
(0.104476 -0.000262507 -0.00100791)
(0.0983485 -0.000100987 -0.00102126)
(0.107812 -7.90465e-05 -0.00114679)
(0.104624 -0.000254855 -0.000995762)
(0.0983315 -9.03798e-05 -0.00100285)
(0.108001 -6.59315e-05 -0.00112578)
(0.104779 -0.000246188 -0.000988858)
(0.0983153 -8.04071e-05 -0.00099167)
(0.108192 -5.58132e-05 -0.0011151)
(0.104937 -0.000233618 -0.000978139)
(0.0983075 -6.85289e-05 -0.000980741)
(0.108387 -4.51567e-05 -0.00110596)
(0.105099 -0.000220756 -0.000969971)
(0.0982963 -5.45716e-05 -0.000969278)
(0.108585 -3.23337e-05 -0.00109433)
(0.10526 -0.000210887 -0.000969359)
(0.0982843 -4.37574e-05 -0.000962606)
(0.108786 -2.23485e-05 -0.00109002)
(0.105418 -0.000203853 -0.000974006)
(0.0982694 -3.56839e-05 -0.000959291)
(0.10898 -1.46191e-05 -0.00108883)
(0.105569 -0.000199845 -0.000982181)
(0.0982478 -3.11997e-05 -0.000958365)
(0.109175 -1.11779e-05 -0.00109514)
(0.0982199 -2.99072e-05 -0.00095688)
(0.109357 -1.05548e-05 -0.00109918)
(0.0934463 6.04217e-08 -0.00101319)
(0.0781269 6.03139e-05 -0.000909248)
(0.0974771 0.000115592 -0.00119726)
(0.0932275 1.12746e-05 -0.000973004)
(0.0776072 6.92177e-05 -0.000875245)
(0.0972881 0.000146681 -0.00114634)
(0.0930327 2.24333e-05 -0.000943293)
(0.0771127 7.74779e-05 -0.000848559)
(0.0971326 0.000171945 -0.00110748)
(0.0928553 3.41439e-05 -0.000919906)
(0.0766531 8.73424e-05 -0.000824132)
(0.0969812 0.000191496 -0.00107989)
(0.0926896 4.64331e-05 -0.000900958)
(0.0762022 9.93319e-05 -0.00080139)
(0.09685 0.000208245 -0.0010576)
(0.0925297 5.92007e-05 -0.000885317)
(0.0757729 0.000112221 -0.000782131)
(0.0967167 0.000221947 -0.00104017)
(0.0923692 7.19824e-05 -0.000871473)
(0.0753438 0.000124648 -0.000763465)
(0.0965935 0.000233409 -0.00102785)
(0.0922044 8.36864e-05 -0.000860333)
(0.0749274 0.000134543 -0.000745626)
(0.0964592 0.000241666 -0.00101662)
(0.0920342 9.30526e-05 -0.000852924)
(0.0744989 0.000141127 -0.000733999)
(0.0963241 0.000249374 -0.00101056)
(0.0918594 9.92371e-05 -0.000847632)
(0.0740855 0.000143473 -0.000728076)
(0.0961801 0.000254031 -0.00100519)
(0.0916762 0.000101908 -0.000841931)
(0.073654 0.000142778 -0.00071624)
(0.0960315 0.000255051 -0.000997796)
(0.0732405 0.000139521 -0.00068372)
(0.0958749 0.00025149 -0.000986622)
(0.0646012 0.000132789 -0.000906215)
(0.0702715 0.000272362 -0.00101401)
(0.0638488 0.000138814 -0.000881395)
(0.0694552 0.000290669 -0.000982284)
(0.0631317 0.000146215 -0.000860487)
(0.0686562 0.000304455 -0.000959786)
(0.0624397 0.000156841 -0.000840056)
(0.0679002 0.00031633 -0.000940451)
(0.0617668 0.000169719 -0.000820119)
(0.0671464 0.000326967 -0.000923531)
(0.0611078 0.000182546 -0.000800703)
(0.0664199 0.000336494 -0.000907867)
(0.0604595 0.00019267 -0.000781795)
(0.0656875 0.000342733 -0.000892698)
(0.0598204 0.00019814 -0.000765631)
(0.0649795 0.000345146 -0.000877526)
(0.0591858 0.000198285 -0.000754366)
(0.0642577 0.000342923 -0.000865687)
(0.0585526 0.000194171 -0.000739028)
(0.063564 0.000337106 -0.000856475)
(0.0579251 0.000187682 -0.000697791)
(0.0628527 0.000327078 -0.000840474)
(0.0621766 0.000311944 -0.000802699)
(0.11917 -0.000883736 -0.000355822)
(0.118448 -0.000750109 -0.000535585)
(0.119601 -0.000876719 -0.0003573)
(0.118874 -0.000747682 -0.000525954)
(0.120026 -0.000869854 -0.000358046)
(0.119295 -0.000743998 -0.000517224)
(0.120445 -0.000863723 -0.000357818)
(0.119711 -0.000739743 -0.000509257)
(0.120861 -0.000858302 -0.000356802)
(0.120123 -0.000735354 -0.000502064)
(0.121272 -0.000853204 -0.000355237)
(0.120532 -0.000730744 -0.000495667)
(0.12168 -0.000848149 -0.000353273)
(0.120937 -0.000725772 -0.000489897)
(0.122086 -0.000842952 -0.000351062)
(0.12134 -0.000720452 -0.000484896)
(0.122488 -0.000837773 -0.000348856)
(0.121741 -0.000714756 -0.000480835)
(0.122889 -0.000832071 -0.000346364)
(0.12214 -0.000709324 -0.000478336)
(0.122536 -0.000702733 -0.000475859)
(0.118159 -0.000615103 -0.000704927)
(0.116703 -0.000451011 -0.000892204)
(0.119247 -0.000420552 -0.000680853)
(0.118575 -0.000615733 -0.000685741)
(0.117091 -0.000447821 -0.000861971)
(0.119693 -0.000420012 -0.000663243)
(0.118987 -0.000614399 -0.000668924)
(0.117477 -0.0004429 -0.000836683)
(0.120134 -0.000418112 -0.000647643)
(0.119395 -0.00061166 -0.00065455)
(0.117861 -0.000437107 -0.000816113)
(0.12057 -0.000415311 -0.000634148)
(0.1198 -0.0006079 -0.000642441)
(0.118244 -0.000430974 -0.000799941)
(0.121002 -0.000411983 -0.000622739)
(0.120203 -0.000603296 -0.000632161)
(0.118626 -0.000424514 -0.000787083)
(0.12143 -0.000408291 -0.000613138)
(0.120604 -0.000597973 -0.000623595)
(0.119007 -0.00041763 -0.000776385)
(0.121856 -0.000404294 -0.000604992)
(0.121002 -0.000592075 -0.00061696)
(0.119387 -0.000410684 -0.000768358)
(0.122279 -0.000400107 -0.000598422)
(0.121399 -0.000586068 -0.000612764)
(0.119765 -0.000403888 -0.000763135)
(0.122699 -0.000395866 -0.000593487)
(0.121795 -0.000579723 -0.000610345)
(0.120142 -0.000398227 -0.000762041)
(0.123118 -0.000392095 -0.000590762)
(0.120517 -0.000392535 -0.000761605)
(0.123534 -0.000387782 -0.000588498)
(0.11568 -0.000289905 -0.0010425)
(0.113202 -0.000127944 -0.00121775)
(0.11689 -0.000142001 -0.00106383)
(0.116039 -0.00028133 -0.00100649)
(0.113489 -0.000110317 -0.00117691)
(0.117276 -0.000132644 -0.00103176)
(0.116399 -0.000272113 -0.000977618)
(0.113779 -9.3963e-05 -0.00114443)
(0.117659 -0.000123126 -0.00100544)
(0.116759 -0.000263086 -0.000955278)
(0.114072 -7.93597e-05 -0.00111948)
(0.118042 -0.000114215 -0.000984433)
(0.11712 -0.000254417 -0.000938256)
(0.114368 -6.71362e-05 -0.00110158)
(0.118423 -0.000106252 -0.000968186)
(0.117481 -0.00024585 -0.000924782)
(0.114666 -5.66858e-05 -0.0010884)
(0.118803 -9.90725e-05 -0.000955522)
(0.117841 -0.000237484 -0.000914436)
(0.114963 -4.71418e-05 -0.00107709)
(0.119182 -9.23846e-05 -0.000945138)
(0.118201 -0.000229778 -0.000907555)
(0.115262 -3.86694e-05 -0.00107028)
(0.119559 -8.65838e-05 -0.000937506)
(0.118559 -0.000223595 -0.000904727)
(0.115555 -3.20037e-05 -0.00106623)
(0.119934 -8.20714e-05 -0.000932249)
(0.118917 -0.000218884 -0.000904731)
(0.115851 -2.87441e-05 -0.00106865)
(0.120308 -7.96407e-05 -0.000930439)
(0.116138 -2.71445e-05 -0.00106836)
(0.120679 -7.79094e-05 -0.000928879)
(0.110939 1.99818e-05 -0.00141144)
(0.106096 0.00012354 -0.0014623)
(0.112235 9.07571e-05 -0.00145525)
(0.111153 4.87245e-05 -0.00136477)
(0.106128 0.000164738 -0.00140981)
(0.112481 0.000125086 -0.00141459)
(0.111375 7.37461e-05 -0.00132789)
(0.106174 0.000198491 -0.00136855)
(0.11273 0.000155068 -0.00138275)
(0.111603 9.50729e-05 -0.00129923)
(0.106225 0.000225604 -0.00133728)
(0.112979 0.000180362 -0.0013579)
(0.111836 0.000112506 -0.00127837)
(0.106286 0.00024722 -0.00131332)
(0.113231 0.000200458 -0.00133917)
(0.112073 0.000126331 -0.00126416)
(0.106348 0.000263997 -0.00129457)
(0.113483 0.000215804 -0.00132585)
(0.112312 0.000137875 -0.00125368)
(0.106414 0.000276756 -0.00128353)
(0.113736 0.000227832 -0.00131628)
(0.112549 0.000147557 -0.00124603)
(0.106474 0.000286248 -0.00127314)
(0.113987 0.000237918 -0.00130818)
(0.112786 0.000154784 -0.00124134)
(0.106538 0.000292689 -0.00126926)
(0.114238 0.000244252 -0.00130328)
(0.11302 0.000158425 -0.00124189)
(0.106589 0.000295802 -0.00126433)
(0.114483 0.000247145 -0.00129965)
(0.11325 0.000158606 -0.00124365)
(0.106642 0.00029489 -0.00126041)
(0.114729 0.000246451 -0.0013006)
(0.106682 0.000290941 -0.00125015)
(0.114966 0.000243869 -0.00129692)
(0.101711 0.000234081 -0.00137696)
(0.0882263 0.000276818 -0.00124789)
(0.103339 0.000234258 -0.00144995)
(0.101589 0.00027906 -0.00132828)
(0.0876947 0.000317583 -0.00120391)
(0.103259 0.000291565 -0.00140786)
(0.101479 0.000313997 -0.00129107)
(0.0871874 0.000348736 -0.00117043)
(0.103187 0.000337014 -0.00137598)
(0.101379 0.000340798 -0.00126324)
(0.086694 0.000371826 -0.0011442)
(0.103113 0.000371727 -0.00135257)
(0.101284 0.000361413 -0.00124077)
(0.0862131 0.000388749 -0.00112356)
(0.103043 0.000397623 -0.00133454)
(0.10119 0.000376821 -0.00122447)
(0.085737 0.000400953 -0.00110593)
(0.102968 0.000416362 -0.0013191)
(0.101095 0.000387176 -0.00121219)
(0.085264 0.00040843 -0.00109211)
(0.102892 0.000429328 -0.00130914)
(0.100995 0.000393315 -0.0012046)
(0.0847935 0.000411374 -0.00107791)
(0.102807 0.000437121 -0.0012987)
(0.100889 0.000395951 -0.00120078)
(0.0843203 0.000411141 -0.00106864)
(0.102722 0.000440403 -0.00129454)
(0.100776 0.000395128 -0.00119319)
(0.083853 0.000408445 -0.00105878)
(0.102623 0.000439011 -0.00128705)
(0.100655 0.000390632 -0.00117914)
(0.0833817 0.000403318 -0.00104595)
(0.102524 0.00043476 -0.00127488)
(0.0829222 0.000393593 -0.00102402)
(0.102417 0.000428309 -0.00125902)
(0.0758499 0.000370241 -0.00117141)
(0.078699 0.000379673 -0.00123237)
(0.074981 0.000398214 -0.00114125)
(0.0778639 0.000419308 -0.00121099)
(0.0741367 0.000418715 -0.00111905)
(0.0770404 0.000447646 -0.00119668)
(0.0733092 0.000433168 -0.00110143)
(0.0762262 0.000467586 -0.00118521)
(0.0724927 0.000442787 -0.00108697)
(0.0754162 0.000481019 -0.00117497)
(0.0716832 0.000448112 -0.00107349)
(0.0746101 0.000488902 -0.00116524)
(0.0708789 0.000449183 -0.00105972)
(0.0738033 0.000492571 -0.00115393)
(0.0700804 0.000446739 -0.00104619)
(0.0730039 0.00049179 -0.00114189)
(0.0692885 0.000442 -0.00103308)
(0.0722002 0.000489518 -0.00112869)
(0.0685067 0.000435435 -0.00101873)
(0.0714135 0.000485986 -0.00111445)
(0.0677387 0.00042574 -0.000999807)
(0.0706214 0.00048272 -0.0010965)
(0.0698503 0.00047903 -0.00107275)
(0.120826 -0.000219706 -0.00063847)
(0.119441 -0.000100042 -0.000858284)
(0.120963 -9.63419e-06 -0.000551326)
(0.121298 -0.000216451 -0.000624473)
(0.119885 -9.29334e-05 -0.000838735)
(0.121447 -9.38765e-06 -0.00054092)
(0.121763 -0.000212904 -0.0006122)
(0.120323 -8.6097e-05 -0.000822117)
(0.121924 -8.83524e-06 -0.000531526)
(0.122224 -0.000209311 -0.00060164)
(0.120757 -7.98214e-05 -0.000808246)
(0.122395 -8.10082e-06 -0.00052321)
(0.12268 -0.000205827 -0.000592678)
(0.121187 -7.43162e-05 -0.000796858)
(0.122861 -7.30232e-06 -0.000515973)
(0.123132 -0.000202504 -0.000585129)
(0.121613 -6.95269e-05 -0.000787549)
(0.123322 -6.49102e-06 -0.00050972)
(0.123581 -0.000199394 -0.000578877)
(0.122037 -6.53536e-05 -0.000779874)
(0.12378 -5.68629e-06 -0.000504316)
(0.124026 -0.000196581 -0.000573871)
(0.122457 -6.19357e-05 -0.000773757)
(0.124233 -4.91254e-06 -0.000499728)
(0.124468 -0.000194214 -0.000570207)
(0.122874 -5.94217e-05 -0.000768979)
(0.124684 -4.20899e-06 -0.000495906)
(0.124909 -0.000192154 -0.000567437)
(0.12329 -5.79936e-05 -0.000765959)
(0.125132 -3.63121e-06 -0.000493058)
(0.123702 -5.7204e-05 -0.00076287)
(0.125576 -3.10091e-06 -0.000490246)
(0.118538 2.29343e-05 -0.00105224)
(0.116095 0.000118568 -0.00124941)
(0.118642 0.000185611 -0.00097541)
(0.118949 3.34298e-05 -0.00103003)
(0.116439 0.000140782 -0.00122602)
(0.119065 0.000191996 -0.000960085)
(0.119357 4.27991e-05 -0.00101168)
(0.11678 0.000159635 -0.00120737)
(0.119483 0.000197593 -0.000946699)
(0.119761 5.08101e-05 -0.000996807)
(0.117117 0.000174635 -0.00119269)
(0.119897 0.000202048 -0.000935385)
(0.120162 5.74707e-05 -0.000984892)
(0.117452 0.000186038 -0.00118123)
(0.120307 0.000205318 -0.000926101)
(0.120561 6.29728e-05 -0.000975251)
(0.117784 0.000194703 -0.00117222)
(0.120713 0.000207625 -0.00091837)