/*--------------------------------*- C++ -*----------------------------------*\
| =========                 |                                                 |
| \\      /  F ield         | OpenFOAM: The Open Source CFD Toolbox           |
|  \\    /   O peration     | Version:  2212                                  |
|   \\  /    A nd           | Website:  www.openfoam.com                      |
|    \\/     M anipulation  |                                                 |
\*---------------------------------------------------------------------------*/
FoamFile
{
    version     2.0;
    format      ascii;
    arch        "LSB;label=32;scalar=64";
    class       volVectorField;
    location    "0.8";
    object      U;
}
// * * * * * * * * * * * * * * * * * * * * * * * * * * * * * * * * * * * * * //

dimensions      [0 1 -1 0 0 0 0];

internalField   nonuniform List<vector> 
693
(
(0.0266466 2.31452e-05 5.90448e-06)
(0.0265839 2.13682e-05 7.70466e-06)
(0.02651 1.93888e-05 8.71062e-06)
(0.0264275 1.79046e-05 8.29167e-06)
(0.0263521 1.72037e-05 6.82533e-06)
(0.0263067 1.69379e-05 3.51468e-06)
(0.0442902 1.07504e-05 6.55139e-05)
(0.044183 1.15064e-05 6.21925e-05)
(0.0440856 1.08247e-05 5.92431e-05)
(0.0439811 1.02411e-05 5.58532e-05)
(0.043885 1.05574e-05 5.01727e-05)
(0.043813 1.29666e-05 3.88583e-05)
(0.0613828 -6.83734e-05 0.000143523)
(0.0612409 -5.83555e-05 0.000128708)
(0.0611187 -4.99666e-05 0.000111741)
(0.0609972 -4.3073e-05 9.84516e-05)
(0.0608918 -3.7813e-05 8.80937e-05)
(0.0608024 -3.30108e-05 8.12762e-05)
(0.0720949 -0.000148145 0.000182658)
(0.0719367 -0.000130044 0.000164164)
(0.0717928 -0.00011247 0.000142865)
(0.0716602 -9.81324e-05 0.000124107)
(0.0715382 -8.83812e-05 0.000111091)
(0.0714347 -8.17865e-05 0.00010398)
(0.0771841 -0.000194576 0.000200226)
(0.0770248 -0.000172803 0.000179619)
(0.0768814 -0.000150772 0.000156118)
(0.0767442 -0.000132455 0.000134887)
(0.0766235 -0.000119506 0.000120775)
(0.0765154 -0.000111752 0.000113523)
(0.0771469 -0.000219828 0.000192838)
(0.0769822 -0.00019719 0.000171281)
(0.0768318 -0.000172389 0.000149363)
(0.0766876 -0.00015028 0.000129974)
(0.0765578 -0.000135449 0.000115539)
(0.0764454 -0.000127506 0.000105927)
(0.0728369 -0.00021232 0.000182706)
(0.0726608 -0.000188669 0.000160891)
(0.0725013 -0.000161953 0.000140079)
(0.0723476 -0.000139296 0.00012266)
(0.0722145 -0.000125768 0.000108989)
(0.0720947 -0.000120896 9.72463e-05)
(0.0651125 -0.000168033 0.0001504)
(0.0649428 -0.000146636 0.000129348)
(0.0647939 -0.000124574 0.000111209)
(0.0646489 -0.00010849 9.68295e-05)
(0.0645226 -9.99516e-05 8.60653e-05)
(0.0644103 -9.61286e-05 7.55594e-05)
(0.0546855 -8.31815e-05 8.66125e-05)
(0.0545396 -7.21997e-05 7.26265e-05)
(0.0544132 -6.43033e-05 6.11938e-05)
(0.0542808 -6.19381e-05 5.29496e-05)
(0.0541647 -6.0136e-05 4.74715e-05)
(0.0540632 -5.22127e-05 4.06912e-05)
(0.0412375 -6.85613e-06 5.18493e-05)
(0.041132 -1.08289e-05 4.45434e-05)
(0.0410291 -1.63488e-05 3.78038e-05)
(0.0409133 -2.00688e-05 3.21004e-05)
(0.0408043 -1.76963e-05 2.79019e-05)
(0.0407231 -5.30055e-06 2.3453e-05)
(0.0266514 -5.86582e-06 2.57405e-05)
(0.0265884 -7.81417e-06 2.24595e-05)
(0.0265134 -8.96948e-06 1.87031e-05)
(0.0264291 -8.73101e-06 1.53921e-05)
(0.0263526 -7.02467e-06 1.32348e-05)
(0.026306 -2.73387e-06 1.24594e-05)
(0.0412385 4.7193e-05 7.94597e-06)
(0.041133 4.21762e-05 1.04646e-05)
(0.0410321 3.80656e-05 1.4506e-05)
(0.040919 3.51657e-05 1.61712e-05)
(0.0408128 3.34024e-05 1.24782e-05)
(0.040735 3.02206e-05 -3.29006e-07)
(0.0736931 5.34762e-05 8.02796e-05)
(0.0735623 5.01768e-05 9.10258e-05)
(0.0734499 4.63376e-05 0.000100967)
(0.0733325 4.24584e-05 0.000101208)
(0.0732262 3.96227e-05 9.10219e-05)
(0.0731312 3.74171e-05 5.13378e-05)
(0.0923416 -2.39964e-05 0.000205097)
(0.0922862 -2.32598e-05 0.000201421)
(0.0922282 -2.2803e-05 0.00019551)
(0.0921683 -2.2173e-05 0.000188219)
(0.0921087 -1.9489e-05 0.000174661)
(0.0920566 -1.16783e-05 0.000127909)
(0.101087 -0.000122995 0.000249009)
(0.101072 -0.000116909 0.000239766)
(0.101051 -0.000111516 0.000232315)
(0.101023 -0.000105433 0.00022179)
(0.100997 -9.46572e-05 0.000199913)
(0.100975 -7.38802e-05 0.000152205)
(0.104672 -0.000195227 0.000264173)
(0.104668 -0.000187026 0.000254563)
(0.104657 -0.000178182 0.000243593)
(0.10464 -0.000170033 0.00023229)
(0.104622 -0.000153311 0.000210617)
(0.104609 -0.000117747 0.000161836)
(0.104698 -0.000235401 0.000248185)
(0.10469 -0.000225066 0.000237911)
(0.104679 -0.000216221 0.00022718)
(0.104661 -0.000206231 0.00021509)
(0.104641 -0.000184968 0.000195301)
(0.104626 -0.000139654 0.00015353)
(0.102116 -0.000232328 0.000215355)
(0.1021 -0.000226766 0.000206028)
(0.102077 -0.000220397 0.000196393)
(0.10205 -0.000214918 0.000187924)
(0.102021 -0.000192529 0.000169644)
(0.102001 -0.000135812 0.000131441)
(0.0972107 -0.00020183 0.000167015)
(0.097177 -0.000203656 0.000158651)
(0.0971366 -0.00020399 0.000150568)
(0.0970933 -0.000202883 0.000142793)
(0.0970519 -0.000184341 0.000128857)
(0.0970174 -0.000123438 9.88905e-05)
(0.0890498 -0.000163976 0.00010657)
(0.0889768 -0.000169367 9.87839e-05)
(0.0889034 -0.000174811 9.17433e-05)
(0.0888295 -0.000177489 8.48155e-05)
(0.0887582 -0.000164067 7.55993e-05)
(0.0886971 -0.000104471 5.82365e-05)
(0.0736866 -7.99041e-05 6.0753e-05)
(0.0735566 -9.20552e-05 5.44044e-05)
(0.0734436 -0.000103361 4.69301e-05)
(0.0733243 -0.000103985 3.95422e-05)
(0.073217 -9.2049e-05 3.39298e-05)
(0.0731214 -4.8625e-05 2.99763e-05)
(0.0442994 -6.64174e-05 1.48742e-05)
(0.0441925 -6.23247e-05 1.3454e-05)
(0.0440956 -5.76621e-05 1.00661e-05)
(0.0439912 -5.24271e-05 6.52934e-06)
(0.0438949 -4.60629e-05 4.58686e-06)
(0.0438217 -3.48763e-05 6.47612e-06)
(0.0547052 8.0443e-05 8.53658e-05)
(0.0545605 6.96122e-05 7.19497e-05)
(0.0544377 6.10744e-05 6.15936e-05)
(0.0543098 5.56924e-05 5.73839e-05)
(0.0541952 5.25487e-05 5.4603e-05)
(0.054095 4.71208e-05 4.65345e-05)
(0.0890643 0.000100076 0.000163982)
(0.0889912 9.49787e-05 0.000170326)
(0.0889166 9.11132e-05 0.000176697)
(0.0888405 8.64264e-05 0.000176693)
(0.0887673 7.83991e-05 0.000159508)
(0.0887064 6.19285e-05 9.84186e-05)
(0.104726 3.52421e-05 0.000287056)
(0.104747 3.25565e-05 0.000279261)
(0.104755 3.0681e-05 0.000275029)
(0.104764 2.92803e-05 0.000268195)
(0.10477 2.66965e-05 0.000247547)
(0.104779 2.10283e-05 0.000182967)
(0.112042 -7.08741e-05 0.000311005)
(0.112099 -6.82239e-05 0.000294386)
(0.112153 -6.42441e-05 0.000285247)
(0.112206 -6.06491e-05 0.000278167)
(0.112253 -5.52017e-05 0.000253133)
(0.112294 -4.63716e-05 0.000195432)
(0.115181 -0.000159985 0.000295849)
(0.115253 -0.000153382 0.000281038)
(0.115323 -0.000146252 0.000269056)
(0.115392 -0.000138301 0.0002569)
(0.115454 -0.000124859 0.000233268)
(0.115507 -0.000101731 0.000188376)
(0.115602 -0.000228069 0.000249901)
(0.115676 -0.000219859 0.000241569)
(0.115746 -0.0002122 0.00023199)
(0.115816 -0.000199401 0.000217307)
(0.115882 -0.000178502 0.000196303)
(0.115936 -0.000141727 0.000162554)
(0.114054 -0.000273313 0.000192973)
(0.114118 -0.00025877 0.000183998)
(0.114182 -0.000250578 0.000175171)
(0.114246 -0.000243903 0.000166077)
(0.114303 -0.000220628 0.000150744)
(0.114353 -0.000168496 0.000124721)
(0.110709 -0.000291943 0.000121146)
(0.110757 -0.000279659 0.000114891)
(0.110803 -0.000276368 0.000109431)
(0.110848 -0.000275134 0.000105357)
(0.110887 -0.000252749 9.58035e-05)
(0.110923 -0.000185271 7.71445e-05)
(0.104731 -0.000290248 3.6781e-05)
(0.104752 -0.000281145 3.30127e-05)
(0.104761 -0.000278935 3.06586e-05)
(0.104768 -0.000273438 2.91267e-05)
(0.104773 -0.00025034 2.62659e-05)
(0.104782 -0.00018256 2.00021e-05)
(0.0923394 -0.000207433 -1.93248e-05)
(0.0922837 -0.000204867 -2.12099e-05)
(0.0922243 -0.000199263 -2.33772e-05)
(0.0921655 -0.000189248 -2.47477e-05)
(0.0921077 -0.000171219 -2.35141e-05)
(0.0920591 -0.000120985 -1.65389e-05)
(0.0614089 -0.000143493 -6.35783e-05)
(0.0612693 -0.000126635 -5.62457e-05)
(0.0611496 -0.000108178 -5.12936e-05)
(0.0610292 -9.53772e-05 -4.77836e-05)
(0.0609228 -8.76132e-05 -4.47119e-05)
(0.0608292 -8.27551e-05 -4.04959e-05)
(0.0651512 0.000143168 0.000166187)
(0.0649846 0.000125802 0.000143395)
(0.064836 0.000111446 0.000119078)
(0.0646973 0.000100861 0.00010343)
(0.0645679 9.24443e-05 9.71548e-05)
(0.0644566 8.26868e-05 9.4715e-05)
(0.0972105 0.000165398 0.000205646)
(0.0971754 0.000156599 0.000202637)
(0.097135 0.000150005 0.00020464)
(0.0970896 0.00014272 0.000201789)
(0.0970492 0.00012901 0.000179643)
(0.097016 0.000100969 0.000120262)
(0.110693 0.000122748 0.000292272)
(0.110741 0.000115935 0.000277735)
(0.110787 0.000109797 0.00027408)
(0.110831 0.00010481 0.000272478)
(0.110872 9.46138e-05 0.000250247)
(0.110907 7.60296e-05 0.000184241)
(0.117195 2.03075e-05 0.00027975)
(0.117282 1.86314e-05 0.000266444)
(0.117367 1.82403e-05 0.000266119)
(0.11745 1.72837e-05 0.000260503)
(0.117527 1.45543e-05 0.000233129)
(0.117594 1.0317e-05 0.000177793)
(0.120206 -7.46842e-05 0.000240368)
(0.12031 -7.21074e-05 0.000227399)
(0.120409 -7.09402e-05 0.00022349)
(0.120507 -6.81842e-05 0.000216815)
(0.120598 -6.16189e-05 0.000195844)
(0.120675 -5.02111e-05 0.000156393)
(0.120933 -0.000161173 0.00017527)
(0.121039 -0.000152283 0.000167151)
(0.121141 -0.000149464 0.000163815)
(0.121242 -0.000144166 0.00015769)
(0.121336 -0.000129117 0.000142633)
(0.121415 -0.000102042 0.000116822)
(0.119903 -0.000230903 9.89851e-05)
(0.120005 -0.000217414 9.48735e-05)
(0.120103 -0.000215 9.33453e-05)
(0.120201 -0.000209884 9.02913e-05)
(0.120292 -0.00018834 8.2353e-05)
(0.120369 -0.000145917 6.83141e-05)
(0.117195 -0.000280635 1.63837e-05)
(0.117281 -0.000268109 1.62523e-05)
(0.117366 -0.000268075 1.78038e-05)
(0.11745 -0.000262513 1.88837e-05)
(0.117528 -0.000235358 1.78412e-05)
(0.117596 -0.000179178 1.43093e-05)
(0.112034 -0.00031205 -7.21681e-05)
(0.11209 -0.000296371 -6.9217e-05)
(0.112144 -0.000288138 -6.44946e-05)
(0.112196 -0.000280235 -5.99148e-05)
(0.112244 -0.000253488 -5.40284e-05)
(0.112286 -0.000195671 -4.55558e-05)
(0.101086 -0.000251171 -0.000121437)
(0.10107 -0.000241672 -0.000116797)
(0.101046 -0.000232054 -0.000111943)
(0.101019 -0.000219486 -0.000106436)
(0.100992 -0.000198266 -9.72867e-05)
(0.10097 -0.000150542 -7.77807e-05)
(0.0721488 -0.000181035 -0.000143769)
(0.0719931 -0.000160292 -0.000128641)
(0.0718523 -0.000137147 -0.000114565)
(0.0717179 -0.000119678 -0.000103198)
(0.0715945 -0.000110158 -9.48111e-05)
(0.0714877 -0.000106706 -8.88261e-05)
(0.0728814 0.000175776 0.000204529)
(0.0727092 0.000157976 0.000181497)
(0.0725526 0.000142205 0.000156045)
(0.072402 0.000129332 0.000135572)
(0.0722672 0.000118081 0.00012376)
(0.0721502 0.000105776 0.000119917)
(0.102108 0.00021764 0.000238157)
(0.102088 0.000207456 0.000228385)
(0.102065 0.000197098 0.000219677)
(0.102038 0.000186519 0.000209801)
(0.102013 0.000169685 0.00018866)
(0.101993 0.000134382 0.00013525)
(0.114038 0.000194686 0.000274297)
(0.114101 0.00018556 0.000260471)
(0.114163 0.000176089 0.000252711)
(0.114224 0.000165637 0.000245164)
(0.114281 0.000149067 0.000221536)
(0.114328 0.000122981 0.000169564)
(0.119896 0.000103531 0.000232245)
(0.119996 9.72994e-05 0.000219017)
(0.120093 9.32102e-05 0.000216512)
(0.12019 8.70922e-05 0.000210595)
(0.120279 7.65148e-05 0.000188469)
(0.120354 6.23831e-05 0.000147048)
(0.12275 9.59177e-06 0.000170646)
(0.122865 7.41602e-06 0.000159511)
(0.122974 5.47191e-06 0.000155616)
(0.123083 3.43185e-06 0.000150176)
(0.123183 1.64009e-06 0.000135571)
(0.123268 1.30549e-06 0.000110149)
(0.123587 -8.46819e-05 9.09339e-05)
(0.123705 -7.98697e-05 8.60064e-05)
(0.123817 -7.83205e-05 8.40965e-05)
(0.123928 -7.56284e-05 8.09232e-05)
(0.12403 -6.83583e-05 7.34456e-05)
(0.124117 -5.50867e-05 6.0873e-05)
(0.12275 -0.000172098 6.0743e-06)
(0.122864 -0.000160263 6.74893e-06)
(0.122973 -0.000155498 7.56047e-06)
(0.123082 -0.000149158 8.27795e-06)
(0.123184 -0.000134074 8.60017e-06)
(0.12327 -0.000107414 8.43279e-06)
(0.120187 -0.000241513 -7.77834e-05)
(0.12029 -0.000228348 -7.26938e-05)
(0.120389 -0.000223909 -6.90875e-05)
(0.120489 -0.000216194 -6.43505e-05)
(0.120581 -0.000194456 -5.66144e-05)
(0.12066 -0.000154926 -4.49701e-05)
(0.115152 -0.000295846 -0.000160979)
(0.115224 -0.000281352 -0.000153218)
(0.115294 -0.000269398 -0.000144707)
(0.115363 -0.000256928 -0.000135961)
(0.115427 -0.000232907 -0.000122831)
(0.115482 -0.000188165 -0.000100497)
(0.104656 -0.000266206 -0.000195677)
(0.104651 -0.000253896 -0.000186133)
(0.10464 -0.000240237 -0.000175429)
(0.104626 -0.000227461 -0.000166402)
(0.10461 -0.000207101 -0.000152046)
(0.104598 -0.000161535 -0.000119604)
(0.0772623 -0.000195116 -0.000191203)
(0.0771045 -0.000175748 -0.000171936)
(0.0769594 -0.000155024 -0.000152489)
(0.0768179 -0.000137387 -0.000136496)
(0.0766911 -0.000125441 -0.000124475)
(0.0765779 -0.000119495 -0.000116945)
(0.0772034 0.000187998 0.000209802)
(0.0770415 0.000171965 0.000188558)
(0.0768928 0.000155937 0.000166337)
(0.0767497 0.000142185 0.000146784)
(0.0766209 0.000132072 0.000133032)
(0.0765058 0.000117653 0.000128021)
(0.104689 0.000250288 0.000237189)
(0.104679 0.000239805 0.00022707)
(0.104666 0.000228571 0.000216157)
(0.104648 0.00021597 0.000202799)
(0.104632 0.000194545 0.000179418)
(0.104619 0.000152396 0.000135098)
(0.115578 0.000251158 0.000231043)
(0.115652 0.000240007 0.000221397)
(0.115722 0.000228923 0.000213097)
(0.115792 0.00021416 0.000202427)
(0.115855 0.00018968 0.000181187)
(0.115908 0.000156572 0.000142376)
(0.120911 0.000177903 0.000163504)
(0.121017 0.000167179 0.000154477)
(0.12112 0.000160788 0.000151621)
(0.121221 0.000149628 0.000146005)
(0.121313 0.000129377 0.000130115)
(0.121391 0.00010621 0.00010239)
(0.123573 9.32363e-05 8.53878e-05)
(0.123692 8.501e-05 7.94137e-05)
(0.123805 7.9473e-05 7.73243e-05)
(0.123916 7.15045e-05 7.46747e-05)
(0.124017 5.99472e-05 6.75768e-05)
(0.124104 4.94679e-05 5.40434e-05)
(0.1244 8.18e-07 -6.50297e-07)
(0.124523 -8.35602e-07 -6.37684e-07)
(0.124638 -2.73778e-06 -5.77292e-07)
(0.124751 -5.03899e-06 -4.3156e-07)
(0.124855 -6.66014e-06 -2.15705e-07)
(0.124944 -5.39679e-06 7.85869e-08)
(0.12358 -9.20166e-05 -8.63564e-05)
(0.123698 -8.61327e-05 -8.01248e-05)
(0.12381 -8.36978e-05 -7.73388e-05)
(0.123921 -8.03989e-05 -7.35651e-05)
(0.124024 -7.29114e-05 -6.55806e-05)
(0.124112 -5.97058e-05 -5.22041e-05)
(0.120912 -0.000176346 -0.000161391)
(0.121018 -0.000166871 -0.000151379)
(0.12112 -0.000162473 -0.000147737)
(0.121222 -0.000155293 -0.000141579)
(0.121318 -0.000139605 -0.000126048)
(0.121399 -0.000114367 -9.97e-05)
(0.115575 -0.000251334 -0.000227152)
(0.115649 -0.000240924 -0.000217062)
(0.115719 -0.000230023 -0.000209068)
(0.11579 -0.000216007 -0.000198168)
(0.115856 -0.0001957 -0.000178949)
(0.115912 -0.000162627 -0.000143298)
(0.104687 -0.000248785 -0.000235252)
(0.104678 -0.00023775 -0.000223694)
(0.104666 -0.000225767 -0.000213501)
(0.104648 -0.000213089 -0.000201912)
(0.10463 -0.000195357 -0.000182983)
(0.104615 -0.000156413 -0.00014065)
(0.0772088 -0.00018706 -0.000218708)
(0.077045 -0.000168536 -0.000196028)
(0.0768939 -0.000150745 -0.000171125)
(0.0767478 -0.000135409 -0.000149286)
(0.0766136 -0.000123336 -0.000134564)
(0.0764976 -0.000114873 -0.00012743)
(0.0772455 0.000199387 0.000185096)
(0.0770876 0.000189429 0.000166141)
(0.0769428 0.0001709 0.000148501)
(0.0768037 0.000151306 0.000133677)
(0.0766756 0.000139229 0.000122888)
(0.104661 0.000270197 0.000196003)
(0.104658 0.000257895 0.000190659)
(0.104647 0.00024631 0.000181825)
(0.104634 0.000227546 0.000165319)
(0.104623 0.000187001 0.000134946)
(0.115158 0.00029619 0.000164355)
(0.115232 0.000279369 0.000158419)
(0.115302 0.000267754 0.000150665)
(0.115374 0.000248022 0.000137976)
(0.115438 0.000207848 0.000117687)
(0.120186 0.000242139 7.85718e-05)
(0.120291 0.000227575 7.47251e-05)
(0.120392 0.000221243 7.23523e-05)
(0.120492 0.000202006 6.70457e-05)
(0.120583 0.000165655 5.7681e-05)
(0.122741 0.00017263 -7.35268e-06)
(0.122857 0.000158757 -7.76058e-06)
(0.122969 0.000150413 -8.09079e-06)
(0.123078 0.000133785 -7.84387e-06)
(0.123179 0.000107817 -7.06614e-06)
(0.123578 8.60141e-05 -9.22256e-05)
(0.123697 7.82719e-05 -8.75251e-05)
(0.12381 7.30685e-05 -8.61e-05)
(0.12392 6.51367e-05 -8.35176e-05)
(0.124022 5.35608e-05 -7.60759e-05)
(0.124108 4.37385e-05 -6.20875e-05)
(0.122753 -7.48848e-06 -0.000172314)
(0.122867 -7.29943e-06 -0.000161543)
(0.122975 -7.90396e-06 -0.000157976)
(0.123083 -9.12741e-06 -0.000152985)
(0.123183 -9.89764e-06 -0.000138821)
(0.123268 -8.49599e-06 -0.00011183)
(0.119898 -0.000101281 -0.000230375)
(0.119998 -9.60088e-05 -0.000217183)
(0.120096 -9.35718e-05 -0.000215323)
(0.120193 -8.9756e-05 -0.000210528)
(0.120284 -8.1584e-05 -0.000190183)
(0.120362 -6.68878e-05 -0.000147433)
(0.114041 -0.00019452 -0.000271526)
(0.114105 -0.000185534 -0.00025754)
(0.114168 -0.000176452 -0.000250666)
(0.114231 -0.000167112 -0.000244874)
(0.114289 -0.000152228 -0.0002231)
(0.11434 -0.000126806 -0.000172389)
(0.10211 -0.00021479 -0.000232456)
(0.102093 -0.000206094 -0.00022534)
(0.102071 -0.000197792 -0.000220222)
(0.102043 -0.000188931 -0.000213195)
(0.102015 -0.00017301 -0.000193403)
(0.101993 -0.00013791 -0.000140162)
(0.0728671 -0.000178313 -0.000213019)
(0.0726913 -0.000159029 -0.000188128)
(0.0725329 -0.000141341 -0.000159437)
(0.0723808 -0.000126983 -0.000135081)
(0.0722451 -0.000115278 -0.000121473)
(0.0721268 -0.000104792 -0.000118262)
(0.0719672 0.000185401 0.000128185)
(0.0718145 0.000164838 0.000114306)
(0.0716783 0.000138038 0.000102759)
(0.0715593 0.00012089 9.43802e-05)
(0.101073 0.000228216 0.000111677)
(0.101061 0.000230333 0.000111691)
(0.101039 0.000224969 0.000106817)
(0.101015 0.00017866 8.72981e-05)
(0.112038 0.000312764 7.39282e-05)
(0.112099 0.000293873 7.10769e-05)
(0.112156 0.000287737 6.66289e-05)
(0.112212 0.000272616 6.04847e-05)
(0.112263 0.000221038 5.19072e-05)
(0.117189 0.000281395 -1.8527e-05)
(0.117277 0.00026757 -1.90985e-05)
(0.117365 0.00026692 -1.95469e-05)
(0.117451 0.000246073 -1.73116e-05)
(0.11753 0.000195928 -1.28532e-05)
(0.119891 0.00023321 -0.000102435)
(0.119994 0.000218823 -9.90237e-05)
(0.120094 0.000213272 -9.72024e-05)
(0.120193 0.000193072 -9.02858e-05)
(0.120283 0.000154122 -7.72383e-05)
(0.120917 0.000162849 -0.000176771)
(0.121024 0.000152412 -0.00016975)
(0.121127 0.000146728 -0.000167535)
(0.121228 0.000135189 -0.000161489)
(0.121321 0.000113545 -0.000145072)
(0.121399 9.01208e-05 -0.00011743)
(0.120201 7.73258e-05 -0.000241566)
(0.120303 7.36471e-05 -0.000229828)
(0.120402 7.05742e-05 -0.000227244)
(0.1205 6.49704e-05 -0.000221578)
(0.12059 5.58862e-05 -0.000200879)
(0.120666 4.47303e-05 -0.000159776)
(0.117195 -1.80246e-05 -0.000278909)
(0.117282 -1.68609e-05 -0.000266344)
(0.117367 -1.76988e-05 -0.000267295)
(0.117451 -1.84952e-05 -0.000263542)
(0.117529 -1.73224e-05 -0.000238306)
(0.117597 -1.33356e-05 -0.000181675)
(0.110697 -0.000122051 -0.000291388)
(0.110745 -0.00011556 -0.000276948)
(0.110792 -0.000110381 -0.000274451)
(0.110838 -0.000106915 -0.000274957)
(0.110878 -9.79492e-05 -0.0002546)
(0.110915 -7.96613e-05 -0.000187719)
(0.0972044 -0.000164093 -0.00020067)
(0.0971706 -0.000157335 -0.000202365)
(0.0971299 -0.000151775 -0.000205246)
(0.0970848 -0.000145698 -0.000204767)
(0.097042 -0.000133275 -0.000185836)
(0.0970066 -0.000104934 -0.000125101)
(0.0651322 -0.000147216 -0.000169442)
(0.0649634 -0.000127957 -0.000146539)
(0.0648149 -0.000111678 -0.000121881)
(0.0646727 -9.96495e-05 -0.000104337)
(0.0645449 -9.10449e-05 -9.67135e-05)
(0.0644326 -8.20287e-05 -9.51158e-05)
(0.0612511 0.000146422 5.75584e-05)
(0.0611067 0.000130909 5.28512e-05)
(0.060985 0.000108145 4.6974e-05)
(0.0608814 9.35732e-05 4.16159e-05)
(0.0922721 0.000185001 1.62218e-05)
(0.0922286 0.000192767 1.95649e-05)
(0.0921731 0.000194844 2.14179e-05)
(0.0921175 0.00014899 1.60168e-05)
(0.104728 0.000289499 -3.62108e-05)
(0.104755 0.000285877 -3.48525e-05)
(0.104767 0.000289282 -3.45949e-05)
(0.104777 0.000273157 -3.15389e-05)
(0.104791 0.000213179 -2.47995e-05)
(0.110689 0.000293913 -0.000124975)
(0.110739 0.000281192 -0.000120744)
(0.110788 0.00028162 -0.000115807)
(0.110838 0.000265535 -0.00010487)
(0.110883 0.000208199 -8.5814e-05)
(0.114029 0.000275796 -0.000196586)
(0.114095 0.000262323 -0.000189608)
(0.114161 0.00025377 -0.000181099)
(0.114227 0.000232223 -0.000166306)
(0.114286 0.000184938 -0.000141886)
(0.11558 0.000230596 -0.000250404)
(0.115654 0.000221633 -0.000243637)
(0.115725 0.000212557 -0.000236089)
(0.115796 0.000195211 -0.000222552)
(0.11586 0.000166807 -0.000200222)
(0.115914 0.000131174 -0.000163688)
(0.115169 0.0001627 -0.000296249)
(0.115241 0.000156242 -0.00028343)
(0.11531 0.000147953 -0.000273277)
(0.115378 0.00013783 -0.000262665)
(0.11544 0.000122352 -0.000240019)
(0.115491 9.87648e-05 -0.000193472)
(0.112035 7.16385e-05 -0.000310439)
(0.112092 6.9411e-05 -0.000294697)
(0.112147 6.50826e-05 -0.000287103)
(0.1122 6.05185e-05 -0.000281317)
(0.112247 5.42582e-05 -0.000257172)
(0.112288 4.53485e-05 -0.000198686)
(0.104721 -3.62394e-05 -0.00028859)
(0.104741 -3.32709e-05 -0.00028032)
(0.10475 -3.18131e-05 -0.000277858)
(0.104759 -3.11877e-05 -0.000273307)
(0.104764 -2.91645e-05 -0.000252177)
(0.104773 -2.33937e-05 -0.000185382)
(0.089042 -0.000102955 -0.000161456)
(0.0889694 -9.72463e-05 -0.00016744)
(0.0888965 -9.28537e-05 -0.000174955)
(0.0888213 -8.83823e-05 -0.00017956)
(0.0887488 -8.09229e-05 -0.000166609)
(0.0886869 -6.43806e-05 -0.000104899)
(0.0547012 -8.4385e-05 -8.39862e-05)
(0.0545549 -7.21178e-05 -7.20807e-05)
(0.0544287 -6.21384e-05 -6.27451e-05)
(0.0542976 -5.57036e-05 -5.95578e-05)
(0.0541813 -5.20869e-05 -5.81615e-05)
(0.0540792 -4.66891e-05 -5.11055e-05)
(0.0441867 6.23211e-05 -1.37944e-05)
(0.0440747 6.07563e-05 -9.79586e-06)
(0.0439689 5.60144e-05 -9.01864e-06)
(0.0438827 4.44423e-05 -1.09677e-05)
(0.0735547 7.54937e-05 -5.24679e-05)
(0.0734309 0.000100095 -4.66884e-05)
(0.0733119 0.000107576 -4.30145e-05)
(0.0732053 6.70454e-05 -3.96808e-05)
(0.0890531 0.000160494 -0.000103013)
(0.0889849 0.000177822 -9.68628e-05)
(0.088912 0.000196128 -9.42775e-05)
(0.0888338 0.000185133 -8.76501e-05)
(0.0887629 0.000123555 -7.07851e-05)
(0.097202 0.000210795 -0.000169044)
(0.097168 0.000210977 -0.000161157)
(0.0971277 0.000214835 -0.000154566)
(0.0970859 0.000199746 -0.000141232)
(0.0970493 0.000140423 -0.000112122)
(0.102097 0.000241639 -0.000220694)
(0.102078 0.000234722 -0.000210529)
(0.102056 0.000229362 -0.000199902)
(0.102031 0.000210698 -0.000182445)
(0.102011 0.000158512 -0.000148101)
(0.104684 0.000238753 -0.000248739)
(0.104674 0.000230177 -0.000239441)
(0.104662 0.000221654 -0.0002284)
(0.104645 0.000209124 -0.000214393)
(0.104628 0.000181414 -0.000190981)
(0.104618 0.000133266 -0.000149354)
(0.104662 0.000195674 -0.000264181)
(0.104657 0.000189854 -0.000256437)
(0.104646 0.000181849 -0.000246435)
(0.104629 0.000172585 -0.000233728)
(0.104611 0.000156063 -0.000212215)
(0.104598 0.000120552 -0.000164895)
(0.101077 0.000120443 -0.000249954)
(0.101062 0.000115849 -0.000241897)
(0.10104 0.000111415 -0.000234297)
(0.101013 0.000106166 -0.000223197)
(0.100987 9.69173e-05 -0.000202805)
(0.100964 7.66175e-05 -0.000154629)
(0.0923262 2.00347e-05 -0.000205668)
(0.0922709 2.02688e-05 -0.000204855)
(0.0922123 2.09028e-05 -0.000199782)
(0.0921535 2.10777e-05 -0.000189563)
(0.0920972 1.91655e-05 -0.000173376)
(0.0920485 1.16378e-05 -0.000125501)
(0.0736909 -5.87657e-05 -7.91074e-05)
(0.0735591 -5.45612e-05 -9.20521e-05)
(0.0734455 -4.92221e-05 -0.000104191)
(0.0733254 -4.3831e-05 -0.000105583)
(0.0732167 -3.9897e-05 -9.38974e-05)
(0.0731214 -3.73213e-05 -4.99875e-05)
(0.0412456 -5.06036e-05 -5.70598e-06)
(0.0411416 -4.47935e-05 -9.1847e-06)
(0.0410388 -3.94813e-05 -1.45043e-05)
(0.0409231 -3.521e-05 -1.80629e-05)
(0.040812 -3.2547e-05 -1.56059e-05)
(0.040729 -2.94753e-05 -3.02265e-06)
(0.0265867 7.06398e-06 -2.13038e-05)
(0.026509 9.68658e-06 -1.79407e-05)
(0.0264205 9.03503e-06 -1.68694e-05)
(0.026358 4.37203e-06 -1.67307e-05)
(0.0411354 1.69737e-05 -3.96406e-05)
(0.0410169 2.3022e-05 -3.4156e-05)
(0.0409005 1.81614e-05 -3.30459e-05)
(0.0408087 4.25405e-06 -3.08906e-05)
(0.0547119 9.00814e-05 -8.233e-05)
(0.0545587 8.88768e-05 -6.74174e-05)
(0.0544236 7.83167e-05 -5.85189e-05)
(0.0542951 6.41026e-05 -5.4772e-05)
(0.0541829 5.08485e-05 -4.98328e-05)
(0.0651743 0.000177708 -0.000144671)
(0.0650015 0.000158613 -0.000125519)
(0.0648466 0.000133774 -0.000110665)
(0.0647007 0.000114225 -9.93043e-05)
(0.0645698 0.000105581 -8.85102e-05)
(0.0729056 0.000210891 -0.000178182)
(0.0727305 0.000192182 -0.000156933)
(0.072568 0.000170602 -0.000137847)
(0.0724123 0.000154704 -0.000121551)
(0.0722713 0.00014648 -0.000107348)
(0.0772083 0.000214639 -0.000189415)
(0.0770456 0.000196745 -0.000167065)
(0.0768949 0.000178315 -0.000145036)
(0.07675 0.000164312 -0.000125228)
(0.0766201 0.000155193 -0.000110428)
(0.0765042 0.00014059 -0.000104526)
(0.0772204 0.000189295 -0.000198982)
(0.0770643 0.000170612 -0.000176997)
(0.0769234 0.000152649 -0.000152243)
(0.0767887 0.000138936 -0.000130325)
(0.0766686 0.000129708 -0.000116249)
(0.0765647 0.000120584 -0.000111088)
(0.0721222 0.000143087 -0.000183736)
(0.0719656 0.000126675 -0.000164048)
(0.0718242 0.000111746 -0.000141088)
(0.071692 0.000100221 -0.000122218)
(0.0715719 9.23183e-05 -0.000110476)
(0.0714709 8.6068e-05 -0.000106035)
(0.0613997 6.37558e-05 -0.000145421)
(0.0612582 5.44136e-05 -0.000129523)
(0.0611371 4.7869e-05 -0.000111466)
(0.0610153 4.35091e-05 -9.86819e-05)
(0.0609076 3.99832e-05 -9.08076e-05)
(0.0608159 3.54277e-05 -8.61151e-05)
(0.0443013 -1.48694e-05 -6.68751e-05)
(0.0441944 -1.50371e-05 -6.36891e-05)
(0.0440963 -1.28518e-05 -5.99391e-05)
(0.0439913 -1.0166e-05 -5.54249e-05)
(0.043893 -9.01572e-06 -5.0067e-05)
(0.0438184 -1.19059e-05 -3.96637e-05)
(0.0266544 -2.55486e-05 -5.7226e-06)
(0.0265924 -2.3204e-05 -7.81357e-06)
(0.0265171 -2.0278e-05 -8.95847e-06)
(0.0264323 -1.77268e-05 -8.67948e-06)
(0.0263541 -1.63809e-05 -7.04514e-06)
(0.0263058 -1.64486e-05 -3.12378e-06)
)
;

boundaryField
{
    inlet
    {
        type            fixedValue;
        value           nonuniform List<vector> 0();
    }
    ami1
    {
        type            cyclicAMI;
        value           nonuniform List<vector> 0();
    }
    walls
    {
        type            noSlip;
    }
    ami2
    {
        type            cyclicAMI;
        value           nonuniform List<vector> 0();
    }
    outlet
    {
        type            zeroGradient;
    }
    procBoundary7to5
    {
        type            processor;
        value           nonuniform List<vector> 
131
(
(0.0262826 1.55122e-05 2.3169e-06)
(0.0437464 1.44878e-05 2.99551e-05)
(0.0607074 -2.73463e-05 7.37783e-05)
(0.0713291 -7.29126e-05 9.55386e-05)
(0.0764103 -0.000101367 0.000103764)
(0.0763367 -0.000116972 9.44023e-05)
(0.0719777 -0.000112282 8.41565e-05)
(0.0642949 -8.76272e-05 6.37493e-05)
(0.0539596 -4.10931e-05 3.23136e-05)
(0.0406536 2.23647e-06 1.84127e-05)
(0.0262809 -1.78536e-06 1.12151e-05)
(0.0406684 2.51764e-05 -6.08973e-06)
(0.0730322 3.46471e-05 2.591e-05)
(0.0920154 -5.30975e-06 9.30241e-05)
(0.100964 -5.78348e-05 0.000116991)
(0.104605 -9.37801e-05 0.000129195)
(0.10462 -0.000109141 0.000123707)
(0.101991 -0.000101231 0.000104647)
(0.0969967 -8.26431e-05 7.57566e-05)
(0.0886458 -6.47441e-05 4.414e-05)
(0.0730227 -2.25923e-05 2.63457e-05)
(0.0437523 -2.67527e-05 8.12311e-06)
(0.0539901 3.89279e-05 3.69249e-05)
(0.0886558 4.91231e-05 6.11862e-05)
(0.104793 1.71093e-05 0.000137781)
(0.112331 -3.99018e-05 0.000152728)
(0.115551 -8.57348e-05 0.000155458)
(0.115981 -0.000116037 0.000137894)
(0.114394 -0.0001318 0.00010597)
(0.110955 -0.000136085 6.29859e-05)
(0.104797 -0.000135155 1.49935e-05)
(0.0920209 -8.84846e-05 -1.11808e-05)
(0.0607287 -7.52954e-05 -3.45803e-05)
(0.064339 7.03073e-05 8.61596e-05)
(0.0969962 7.89079e-05 7.95906e-05)
(0.11094 6.26391e-05 0.000137017)
(0.117648 7.50594e-06 0.000135712)
(0.120737 -4.1364e-05 0.000125248)
(0.121479 -8.1479e-05 9.69845e-05)
(0.120431 -0.000113155 5.75672e-05)
(0.11765 -0.000135916 1.13712e-05)
(0.112323 -0.000153821 -3.97166e-05)
(0.10096 -0.000116895 -6.29302e-05)
(0.0713771 -9.82829e-05 -8.06106e-05)
(0.0720314 9.05189e-05 0.000111839)
(0.101985 0.000107541 9.86354e-05)
(0.11437 0.00010511 0.000132492)
(0.120416 5.29666e-05 0.000114457)
(0.123338 2.40977e-06 8.9631e-05)
(0.12419 -4.44514e-05 5.14816e-05)
(0.123341 -8.66255e-05 8.38772e-06)
(0.120725 -0.000124184 -3.6432e-05)
(0.115529 -0.000156527 -8.52922e-05)
(0.104595 -0.000130656 -9.72794e-05)
(0.0764651 -0.00011002 -0.00010738)
(0.0763932 9.57461e-05 0.000121275)
(0.0765474 0.000122943 0.00011653)
(0.104614 0.000123847 0.000107024)
(0.10462 0.000152457 0.00011206)
(0.115953 0.000137776 0.000114813)
(0.115495 0.000177168 0.000100138)
(0.121457 9.40829e-05 7.9909e-05)
(0.120661 0.000138668 4.77448e-05)
(0.124177 4.65055e-05 4.18331e-05)
(0.123265 9.20199e-05 -6.54219e-06)
(0.125018 -1.82282e-06 3.99485e-07)
(0.124185 -4.87626e-05 -4.16725e-05)
(0.121466 -9.49332e-05 -7.97514e-05)
(0.11596 -0.000139013 -0.000118291)
(0.10461 -0.000128318 -0.000111618)
(0.0763823 -0.000103936 -0.000118615)
(0.0765474 0.000122943 0.00011653)
(0.10462 0.000152457 0.00011206)
(0.115495 0.000177168 0.000100138)
(0.120661 0.000138668 4.77448e-05)
(0.123265 9.20199e-05 -6.54219e-06)
(0.123265 9.20199e-05 -6.54219e-06)
(0.124179 4.22792e-05 -4.9373e-05)
(0.123339 -5.3786e-06 -8.88915e-05)
(0.120426 -5.51133e-05 -0.000113838)
(0.114382 -0.000108234 -0.000136176)
(0.101982 -0.00011179 -0.000104775)
(0.0720064 -9.28858e-05 -0.000111516)
(0.0714332 0.000106667 8.71411e-05)
(0.101003 0.000138882 7.15735e-05)
(0.11231 0.000179374 4.56999e-05)
(0.117597 0.000157146 -9.7016e-06)
(0.120359 0.000126698 -6.47628e-05)
(0.120359 0.000126698 -6.47628e-05)
(0.121463 8.07358e-05 -9.46136e-05)
(0.12073 3.8994e-05 -0.000125762)
(0.117652 -9.48822e-06 -0.000137533)
(0.110948 -6.59425e-05 -0.000140071)
(0.0969851 -8.30868e-05 -8.48154e-05)
(0.0643131 -7.1437e-05 -8.82716e-05)
(0.0607679 8.1432e-05 3.61176e-05)
(0.092072 0.000109693 1.11052e-05)