/*--------------------------------*- C++ -*----------------------------------*\
| =========                 |                                                 |
| \\      /  F ield         | OpenFOAM: The Open Source CFD Toolbox           |
|  \\    /   O peration     | Version:  2212                                  |
|   \\  /    A nd           | Website:  www.openfoam.com                      |
|    \\/     M anipulation  |                                                 |
\*---------------------------------------------------------------------------*/
FoamFile
{
    version     2.0;
    format      ascii;
    arch        "LSB;label=32;scalar=64";
    class       volScalarField;
    location    "1.25";
    object      epsilon;
}
// * * * * * * * * * * * * * * * * * * * * * * * * * * * * * * * * * * * * * //

dimensions      [0 2 -3 0 0 0 0];

internalField   nonuniform List<scalar> 
6840
(
90.5034
12.1248
4.38869
2.46658
1.63315
1.18306
0.902008
0.720655
0.594574
0.502483
0.432647
0.379239
0.336249
0.29976
0.270018
0.245884
0.226166
0.210218
0.199382
0.188472
58.5856
14.5696
6.08947
3.33295
2.08217
1.40267
0.998649
0.740282
0.565897
0.44392
0.356017
0.290926
0.24141
0.203013
0.173132
0.149888
0.131514
0.116966
0.106025
0.0984338
45.0226
13.4729
5.73075
3.07323
1.86023
1.227
0.873582
0.649787
0.497024
0.389502
0.311317
0.253015
0.209034
0.175294
0.148942
0.12807
0.111404
0.0980127
0.0872983
0.0792343
38.7028
13.0541
5.74337
3.08734
1.88067
1.22751
0.869487
0.645397
0.492609
0.384803
0.307056
0.249087
0.205037
0.17107
0.144516
0.123499
0.106672
0.0930646
0.0819904
0.0731232
36.0571
12.8529
5.76645
3.10212
1.89476
1.2267
0.866512
0.643997
0.492269
0.38399
0.305832
0.247968
0.203986
0.170037
0.143457
0.122379
0.105458
0.0917283
0.0805499
0.072106
36.0571
12.8529
5.76645
3.10212
1.89476
1.22669
0.866503
0.643987
0.492256
0.383972
0.305805
0.247932
0.203936
0.169966
0.143357
0.122237
0.105257
0.0914479
0.0802034
0.0720464
38.7028
13.0541
5.74336
3.08733
1.88066
1.2275
0.869469
0.645373
0.492578
0.384762
0.306996
0.249006
0.204924
0.17091
0.14429
0.12317
0.106189
0.0923556
0.0810055
0.0724657
45.0226
13.4729
5.73075
3.07322
1.86022
1.22698
0.873565
0.649765
0.496994
0.389451
0.311251
0.252925
0.208911
0.175118
0.14868
0.127681
0.110818
0.0971186
0.0859556
0.0772438
58.5856
14.5696
6.08947
3.33295
2.08217
1.40266
0.998644
0.740275
0.565888
0.443901
0.355988
0.290879
0.241336
0.202865
0.172917
0.149551
0.13093
0.115872
0.103922
0.0947026
90.5034
12.1248
4.38869
2.46658
1.63315
1.18306
0.902008
0.720656
0.594574
0.502484
0.432645
0.379242
0.336244
0.299766
0.270015
0.245882
0.226166
0.210218
0.199384
0.188485
58.5856
14.5696
6.08947
3.33295
2.08217
1.40266
0.998644
0.740275
0.565888
0.443901
0.355987
0.290879
0.241336
0.202862
0.172918
0.149551
0.130929
0.11587
0.103918
0.0946858
16.5373
9.49239
5.0127
2.8606
1.75746
1.14759
0.786932
0.562051
0.415368
0.315948
0.246333
0.196223
0.15922
0.131248
0.109775
0.0931928
0.0801437
0.0696291
0.0606374
0.0564919
13.6679
8.73671
5.07741
3.05388
1.92224
1.2661
0.869294
0.618637
0.453967
0.342044
0.263663
0.207328
0.165923
0.134872
0.111171
0.0927162
0.0781962
0.0666516
0.0571671
0.0502524
12.9054
8.33993
5.07879
3.15547
2.02775
1.35121
0.933544
0.666466
0.489556
0.368608
0.28362
0.222406
0.17735
0.143553
0.11777
0.0977976
0.0821132
0.0696459
0.059616
0.0513565
12.6882
8.1544
5.07113
3.20039
2.07939
1.39506
0.967834
0.692725
0.509642
0.384021
0.295509
0.231654
0.1846
0.149268
0.122291
0.101389
0.0849705
0.0719155
0.061424
0.0529551
12.6882
8.1544
5.07113
3.20038
2.07939
1.39506
0.96783
0.69272
0.509635
0.384013
0.295499
0.231641
0.184583
0.149248
0.122268
0.10136
0.0849351
0.0718751
0.0613801
0.0528983
12.9054
8.33993
5.07879
3.15547
2.02774
1.3512
0.933534
0.666455
0.489542
0.36859
0.283598
0.222378
0.177316
0.143513
0.117722
0.0977382
0.0820444
0.0695719
0.0595421
0.0513209
13.6679
8.73671
5.07741
3.05388
1.92223
1.26609
0.869288
0.61863
0.453958
0.342032
0.263648
0.207308
0.165899
0.134844
0.111134
0.0926725
0.07815
0.0666118
0.0571566
0.0497676
16.5373
9.49239
5.0127
2.8606
1.75746
1.14759
0.786932
0.562051
0.415368
0.315948
0.246333
0.196223
0.15922
0.131252
0.109771
0.0931911
0.0801427
0.0696285
0.0606364
0.0564913
58.5856
14.5696
6.08947
3.33295
2.08217
1.40267
0.998649
0.740282
0.565897
0.44392
0.356017
0.290926
0.24141
0.203014
0.173131
0.149887
0.131513
0.116964
0.106021
0.0984244
45.0226
13.4729
5.73075
3.07322
1.86022
1.22698
0.873565
0.649765
0.496994
0.389451
0.311251
0.252925
0.20891
0.175118
0.148681
0.127681
0.110818
0.0971181
0.0859547
0.0772424
13.6679
8.73671
5.07741
3.05388
1.92223
1.26609
0.869288
0.61863
0.453958
0.342032
0.263648
0.207308
0.165898
0.134841
0.111137
0.0926737
0.07815
0.0666111
0.0571563
0.0497674
11.8601
7.76395
4.99734
3.24076
2.14419
1.45499
1.0141
0.725637
0.532158
0.399152
0.305549
0.238226
0.18883
0.151922
0.123884
0.10225
0.0853347
0.0719452
0.0612075
0.0526265
11.6229
7.60535
5.01031
3.34209
2.26848
1.57142
1.11236
0.804591
0.594209
0.447523
0.343218
0.267642
0.21191
0.170132
0.138339
0.113802
0.094621
0.0794503
0.0673205
0.0575453
11.5726
7.56718
5.02065
3.38344
2.32103
1.62326
1.15828
0.843156
0.625692
0.47285
0.363486
0.283855
0.224908
0.180591
0.14679
0.120667
0.100225
0.0840457
0.0711051
0.0606427
11.5726
7.56718
5.02065
3.38344
2.32103
1.62326
1.15828
0.843153
0.625687
0.472845
0.363478
0.283846
0.224897
0.180579
0.146776
0.120648
0.100203
0.0840202
0.0710787
0.0606114
11.6229
7.60535
5.0103
3.34209
2.26848
1.57142
1.11236
0.804586
0.594202
0.447514
0.343206
0.267628
0.211893
0.170112
0.138313
0.11377
0.0945833
0.0794073
0.0672745
0.0574985
11.8601
7.76395
4.99734
3.24076
2.14419
1.45499
1.0141
0.725637
0.532158
0.399152
0.305549
0.238226
0.188831
0.151923
0.123882
0.102249
0.0853343
0.0719449
0.0612073
0.0526264
13.6679
8.73671
5.07741
3.05388
1.92224
1.2661
0.869294
0.618637
0.453967
0.342044
0.263663
0.207328
0.165922
0.134872
0.111171
0.0927156
0.0781955
0.0666509
0.0571661
0.0502524
45.0226
13.4729
5.73075
3.07323
1.86023
1.227
0.873582
0.649787
0.497024
0.389502
0.311317
0.253015
0.209034
0.175293
0.148941
0.128069
0.111404
0.0980119
0.0872969
0.0792324
38.7028
13.0541
5.74336
3.08733
1.88066
1.2275
0.869469
0.645373
0.492578
0.384762
0.306996
0.249006
0.204924
0.170911
0.144289
0.12317
0.106189
0.0923549
0.0810045
0.0724635
12.9054
8.33993
5.07879
3.15547
2.02774
1.3512
0.933534
0.666455
0.489542
0.36859
0.283598
0.222378
0.177315
0.143511
0.117724
0.0977387
0.0820441
0.069571
0.0595408
0.0513204
11.6229
7.60535
5.0103
3.34209
2.26848
1.57142
1.11236
0.804586
0.594201
0.447514
0.343206
0.267628
0.211892
0.170111
0.138314
0.11377
0.0945832
0.0794068
0.0672737
0.0574969
11.4933
7.5119
5.02843
3.434
2.3892
1.6928
1.22111
0.896487
0.669456
0.508123
0.391657
0.306287
0.242786
0.19489
0.158284
0.129958
0.107784
0.0902363
0.0762025
0.0648262
11.4757
7.50136
5.04297
3.47002
2.43665
1.74299
1.26863
0.938712
0.705584
0.538336
0.416594
0.326729
0.259501
0.208559
0.169487
0.139172
0.115394
0.0965498
0.0814535
0.0691336
11.4757
7.50136
5.04297
3.47002
2.43665
1.74299
1.26863
0.938711
0.705582
0.538334
0.416592
0.326727
0.259498
0.208556
0.169484
0.139168
0.115389
0.0965442
0.0814486
0.069131
11.4933
7.5119
5.02843
3.434
2.3892
1.6928
1.22111
0.896487
0.669457
0.508123
0.391657
0.306287
0.242786
0.19489
0.158284
0.129958
0.107784
0.0902363
0.0762025
0.0648269
11.6229
7.60535
5.01031
3.34209
2.26848
1.57142
1.11236
0.804591
0.594209
0.447523
0.343218
0.267642
0.21191
0.170132
0.138339
0.113802
0.0946207
0.0794498
0.0673198
0.0575452
12.9054
8.33993
5.07879
3.15547
2.02775
1.35121
0.933544
0.666466
0.489556
0.368607
0.283619
0.222406
0.177349
0.143551
0.117771
0.0977982
0.0821133
0.0696458
0.0596158
0.0513565
38.7028
13.0541
5.74337
3.08734
1.88067
1.22751
0.869487
0.645397
0.492609
0.384802
0.307056
0.249087
0.205036
0.171069
0.144517
0.123499
0.106672
0.0930646
0.0819902
0.0731244
36.0571
12.8529
5.76645
3.10212
1.89476
1.22669
0.866503
0.643987
0.492256
0.383971
0.305805
0.247932
0.203936
0.169967
0.143357
0.122237
0.105257
0.0914477
0.080203
0.0720467
12.6882
8.1544
5.07113
3.20038
2.07939
1.39506
0.967829
0.69272
0.509635
0.384013
0.295499
0.231641
0.184582
0.149247
0.122268
0.101359
0.0849343
0.071874
0.0613786
0.0528966
11.5726
7.56718
5.02065
3.38344
2.32103
1.62326
1.15828
0.843153
0.625687
0.472845
0.363478
0.283846
0.224897
0.180578
0.146775
0.120648
0.100202
0.0840194
0.0710775
0.0606104
11.4757
7.50136
5.04297
3.47002
2.43665
1.74299
1.26863
0.938711
0.705582
0.538334
0.416592
0.326727
0.259498
0.208556
0.169483
0.139168
0.115389
0.0965438
0.0814483
0.0691307
11.4647
7.49683
5.0577
3.50272
2.48038
1.79068
1.31522
0.981305
0.742924
0.57021
0.44335
0.348968
0.277889
0.223737
0.182022
0.149547
0.124011
0.103735
0.0874599
0.074118
11.4647
7.49683
5.0577
3.50272
2.48038
1.79068
1.31522
0.981305
0.742924
0.57021
0.44335
0.348968
0.277889
0.223737
0.182022
0.149547
0.124011
0.103735
0.08746
0.0741181
11.4757
7.50136
5.04297
3.47002
2.43665
1.74299
1.26863
0.938712
0.705584
0.538336
0.416594
0.326729
0.2595
0.208559
0.169487
0.139172
0.115394
0.0965496
0.0814532
0.0691334
11.5726
7.56718
5.02065
3.38344
2.32103
1.62326
1.15828
0.843156
0.625691
0.47285
0.363485
0.283855
0.224907
0.18059
0.146791
0.120667
0.100225
0.0840452
0.0711043
0.0606422
12.6882
8.1544
5.07113
3.20039
2.07939
1.39506
0.967834
0.692725
0.509642
0.384021
0.295509
0.231654
0.184599
0.149266
0.122294
0.101391
0.0849712
0.0719159
0.0614243
0.0529556
36.0571
12.8529
5.76645
3.10212
1.89476
1.2267
0.866511
0.643997
0.492269
0.38399
0.305832
0.247967
0.203985
0.170035
0.14346
0.122381
0.105459
0.0917293
0.0805509
0.0721064
36.0571
12.8529
5.76645
3.10212
1.89476
1.2267
0.866511
0.643997
0.492269
0.38399
0.305832
0.247968
0.203986
0.170037
0.143457
0.122379
0.105458
0.0917285
0.0805504
0.0721061
12.6882
8.1544
5.07113
3.20039
2.07939
1.39506
0.967834
0.692725
0.509642
0.384021
0.295509
0.231654
0.184599
0.149268
0.122291
0.101389
0.0849702
0.0719151
0.0614234
0.0529545
11.5726
7.56718
5.02065
3.38344
2.32103
1.62326
1.15828
0.843156
0.625692
0.47285
0.363486
0.283855
0.224908
0.180591
0.14679
0.120667
0.100225
0.0840454
0.0711048
0.0606426
11.4757
7.50136
5.04297
3.47002
2.43665
1.74299
1.26863
0.938712
0.705584
0.538336
0.416594
0.326729
0.259501
0.208559
0.169487
0.139172
0.115394
0.0965499
0.0814536
0.069134
11.4647
7.49683
5.0577
3.50272
2.48038
1.79068
1.31522
0.981305
0.742924
0.57021
0.44335
0.348968
0.277889
0.223737
0.182022
0.149547
0.124011
0.103735
0.0874601
0.0741183
11.4647
7.49683
5.0577
3.50272
2.48038
1.79068
1.31522
0.981305
0.742924
0.57021
0.44335
0.348968
0.277889
0.223737
0.182022
0.149547
0.124011
0.103735
0.0874601
0.0741181
11.4757
7.50136
5.04297
3.47002
2.43665
1.74299
1.26863
0.938711
0.705582
0.538334
0.416592
0.326727
0.259498
0.208556
0.169483
0.139168
0.115389
0.096544
0.0814486
0.0691312
11.5726
7.56718
5.02065
3.38344
2.32103
1.62326
1.15828
0.843153
0.625687
0.472845
0.363478
0.283846
0.224897
0.180578
0.146775
0.120648
0.100202
0.08402
0.0710786
0.0606119
12.6882
8.1544
5.07113
3.20038
2.07939
1.39506
0.96783
0.692719
0.509635
0.384013
0.295499
0.231641
0.184583
0.149247
0.122269
0.10136
0.0849354
0.0718753
0.0613804
0.0528987
36.0571
12.8529
5.76645
3.10212
1.89476
1.22669
0.866503
0.643987
0.492255
0.383971
0.305805
0.247931
0.203935
0.169965
0.14336
0.12224
0.105258
0.0914494
0.080205
0.0720494
38.7028
13.0541
5.74337
3.08734
1.88067
1.22751
0.869487
0.645397
0.492609
0.384802
0.307056
0.249087
0.205036
0.17107
0.144516
0.123499
0.106672
0.0930651
0.0819916
0.0731268
12.9054
8.33993
5.07879
3.15547
2.02775
1.35121
0.933544
0.666466
0.489556
0.368608
0.28362
0.222406
0.17735
0.143553
0.11777
0.0977978
0.0821136
0.0696465
0.0596168
0.0513575
11.6229
7.60535
5.01031
3.34209
2.26848
1.57143
1.11236
0.804591
0.594209
0.447523
0.343218
0.267643
0.21191
0.170133
0.138339
0.113802
0.0946216
0.0794511
0.0673216
0.0575472
11.4933
7.5119
5.02843
3.434
2.3892
1.6928
1.22111
0.896487
0.669457
0.508123
0.391657
0.306287
0.242786
0.19489
0.158284
0.129959
0.107785
0.090237
0.0762033
0.0648279
11.4757
7.50136
5.04297
3.47002
2.43665
1.74299
1.26863
0.938711
0.705582
0.538334
0.416592
0.326727
0.259498
0.208556
0.169484
0.139168
0.115389
0.0965442
0.0814488
0.0691312
11.4757
7.50136
5.04297
3.47002
2.43665
1.74299
1.26863
0.938712
0.705584
0.538336
0.416594
0.326729
0.259501
0.208559
0.169487
0.139172
0.115394
0.0965497
0.0814534
0.0691337
11.4933
7.5119
5.02843
3.434
2.3892
1.6928
1.22111
0.896487
0.669456
0.508123
0.391657
0.306287
0.242786
0.19489
0.158284
0.129958
0.107784
0.0902366
0.0762028
0.0648275
11.6229
7.60535
5.0103
3.34209
2.26848
1.57142
1.11236
0.804586
0.594201
0.447514
0.343206
0.267628
0.211893
0.170112
0.138313
0.11377
0.0945835
0.0794076
0.0672749
0.0574985
12.9054
8.33993
5.07879
3.15547
2.02774
1.3512
0.933535
0.666455
0.489542
0.36859
0.283598
0.222378
0.177316
0.143513
0.117722
0.0977382
0.0820443
0.0695718
0.0595419
0.0513215
38.7028
13.0541
5.74336
3.08733
1.88066
1.2275
0.869469
0.645373
0.492578
0.384762
0.306996
0.249006
0.204924
0.170911
0.14429
0.123171
0.10619
0.0923564
0.0810069
0.0724669
45.0226
13.4729
5.73075
3.07323
1.86023
1.227
0.873582
0.649787
0.497024
0.389502
0.311317
0.253015
0.209034
0.175293
0.148942
0.128069
0.111404
0.098013
0.0872992
0.0792376
13.6679
8.73671
5.07741
3.05388
1.92224
1.2661
0.869294
0.618637
0.453967
0.342044
0.263664
0.207328
0.165923
0.134872
0.111171
0.0927169
0.0781973
0.0666534
0.0571687
0.0502556
11.8601
7.76395
4.99734
3.24076
2.14419
1.45499
1.0141
0.725637
0.532158
0.399152
0.30555
0.238227
0.188831
0.151922
0.123884
0.102251
0.0853359
0.0719468
0.0612095
0.0526288
11.6229
7.60535
5.0103
3.34209
2.26848
1.57142
1.11236
0.804586
0.594202
0.447514
0.343206
0.267628
0.211892
0.170112
0.138315
0.113771
0.0945839
0.0794078
0.0672749
0.0574981
11.5726
7.56718
5.02065
3.38344
2.32103
1.62326
1.15828
0.843153
0.625687
0.472845
0.363478
0.283846
0.224897
0.180578
0.146776
0.120648
0.100202
0.0840196
0.0710779
0.0606106
11.5726
7.56718
5.02065
3.38344
2.32103
1.62326
1.15828
0.843156
0.625692
0.47285
0.363486
0.283855
0.224908
0.18059
0.14679
0.120667
0.100224
0.084045
0.0711042
0.0606419
11.6229
7.60535
5.01031
3.34209
2.26848
1.57142
1.11236
0.804591
0.594209
0.447523
0.343218
0.267642
0.21191
0.170132
0.138339
0.113802
0.0946211
0.0794505
0.0673207
0.0575454
11.8601
7.76395
4.99734
3.24076
2.14419
1.45499
1.0141
0.725637
0.532158
0.399152
0.305549
0.238227
0.188831
0.151923
0.123882
0.10225
0.085335
0.071946
0.0612085
0.0526275
13.6679
8.73671
5.07741
3.05388
1.92223
1.26609
0.869288
0.618629
0.453958
0.342032
0.263648
0.207308
0.165898
0.134844
0.111134
0.0926725
0.0781498
0.0666115
0.0571563
0.0497682
45.0226
13.4729
5.73075
3.07322
1.86022
1.22698
0.873565
0.649764
0.496994
0.389451
0.311251
0.252925
0.20891
0.175118
0.14868
0.127681
0.110818
0.0971186
0.0859558
0.0772455
58.5856
14.5696
6.08947
3.33295
2.08217
1.40267
0.998648
0.740281
0.565897
0.44392
0.356017
0.290926
0.24141
0.203012
0.173131
0.149888
0.131515
0.116968
0.106028
0.0984372
16.5373
9.49239
5.0127
2.8606
1.75746
1.14759
0.786932
0.562051
0.415368
0.315948
0.246333
0.196223
0.15922
0.131248
0.109775
0.0931932
0.0801444
0.0696298
0.0606386
0.0564931
13.6679
8.73671
5.07741
3.05388
1.92223
1.26609
0.869288
0.61863
0.453958
0.342032
0.263648
0.207308
0.165898
0.134841
0.111137
0.0926739
0.0781502
0.0666113
0.0571566
0.0497676
12.9054
8.33993
5.07879
3.15547
2.02774
1.3512
0.933534
0.666455
0.489542
0.36859
0.283598
0.222378
0.177315
0.143511
0.117724
0.0977387
0.0820439
0.0695708
0.0595406
0.0513199
12.6882
8.1544
5.07113
3.20038
2.07939
1.39506
0.967829
0.692719
0.509634
0.384013
0.295499
0.231641
0.184582
0.149247
0.122268
0.101359
0.0849341
0.0718738
0.0613785
0.0528965
12.6882
8.1544
5.07113
3.20039
2.07939
1.39506
0.967834
0.692726
0.509642
0.384021
0.295509
0.231654
0.184599
0.149267
0.122291
0.101389
0.0849702
0.0719151
0.0614235
0.0529547
12.9054
8.33993
5.07879
3.15547
2.02775
1.35121
0.933544
0.666466
0.489556
0.368608
0.28362
0.222406
0.17735
0.143551
0.117771
0.0977984
0.0821139
0.0696467
0.0596169
0.0513576
13.6679
8.73671
5.07741
3.05388
1.92224
1.2661
0.869295
0.618637
0.453967
0.342044
0.263664
0.207328
0.165923
0.134873
0.111171
0.0927167
0.0781971
0.0666531
0.0571682
0.0502538
16.5373
9.49239
5.0127
2.8606
1.75746
1.14759
0.786933
0.56205
0.415368
0.315948
0.246333
0.196223
0.15922
0.131252
0.109771
0.0931913
0.0801432
0.0696287
0.0606374
0.0564919
58.5856
14.5696
6.08947
3.33295
2.08217
1.40266
0.998644
0.740274
0.565888
0.443901
0.355988
0.290879
0.241336
0.202865
0.172917
0.14955
0.13093
0.115872
0.103922
0.0946887
90.5034
12.1248
4.38869
2.46658
1.63315
1.18306
0.902007
0.720655
0.594574
0.502483
0.432647
0.379238
0.336248
0.29976
0.270018
0.245883
0.226167
0.210219
0.199387
0.188484
58.5856
14.5696
6.08947
3.33295
2.08217
1.40266
0.998644
0.740275
0.565888
0.443901
0.355987
0.290879
0.241336
0.202862
0.172918
0.149551
0.130929
0.115869
0.103918
0.0946974
45.0226
13.4729
5.73075
3.07322
1.86022
1.22698
0.873564
0.649764
0.496994
0.38945
0.311251
0.252925
0.20891
0.175117
0.14868
0.12768
0.110817
0.0971167
0.0859532
0.0772415
38.7028
13.0541
5.74336
3.08733
1.88066
1.22749
0.869469
0.645373
0.492577
0.384762
0.306996
0.249006
0.204924
0.170911
0.144289
0.123169
0.106188
0.0923541
0.081004
0.0724622
36.0571
12.8529
5.76645
3.10212
1.89476
1.22669
0.866503
0.643987
0.492255
0.383971
0.305805
0.247932
0.203936
0.169967
0.143357
0.122237
0.105256
0.0914477
0.0802031
0.0720469
36.0571
12.8529
5.76645
3.10212
1.89476
1.2267
0.866511
0.643997
0.492269
0.38399
0.305832
0.247968
0.203986
0.170037
0.143457
0.122379
0.105458
0.0917291
0.0805513
0.0721079
38.7028
13.0541
5.74337
3.08734
1.88067
1.22751
0.869487
0.645397
0.492609
0.384803
0.307056
0.249087
0.205036
0.171069
0.144517
0.123499
0.106672
0.0930657
0.0819922
0.0731255
45.0226
13.4729
5.73075
3.07323
1.86023
1.227
0.873582
0.649787
0.497024
0.389502
0.311317
0.253015
0.209034
0.175293
0.148941
0.128069
0.111405
0.0980133
0.087299
0.079235
58.5856
14.5696
6.08947
3.33295
2.08217
1.40267
0.998649
0.740281
0.565897
0.44392
0.356017
0.290926
0.24141
0.203014
0.173131
0.149888
0.131515
0.116968
0.106029
0.0984375
90.5034
12.1248
4.38869
2.46658
1.63315
1.18306
0.902008
0.720655
0.594573
0.502483
0.432645
0.379241
0.336244
0.299766
0.270015
0.245882
0.226167
0.21022
0.199391
0.188483
0.298073
0.246351
0.204743
0.181812
0.168454
0.159437
0.152633
0.146805
0.141778
0.13754
0.133712
0.130126
0.126612
0.123128
0.119884
0.116768
0.113852
0.111073
0.108479
0.106038
0.103649
0.10142
0.0993705
0.0974856
0.095591
0.0938382
0.092135
0.090498
0.0889731
0.0876386
0.0861199
0.0847915
0.0834882
0.0823287
0.0816047
0.0802386
0.0794239
0.0785334
0.0778212
0.0768393
0.104131
0.091061
0.0811779
0.074433
0.0696368
0.0657673
0.062561
0.0597229
0.0571537
0.0549324
0.0529469
0.0511385
0.0494709
0.0478857
0.0463454
0.0448677
0.0435337
0.0422843
0.0411369
0.0400743
0.0390475
0.0380974
0.0372154
0.0364526
0.0357177
0.0350074
0.0343358
0.0336973
0.0330621
0.0325396
0.0319917
0.0314507
0.0309598
0.0304705
0.0301495
0.0297684
0.02937
0.0290284
0.0287336
0.028421
0.0829743
0.0713804
0.0640302
0.0583704
0.0537407
0.0500007
0.0468957
0.0442628
0.0419745
0.0399378
0.0381326
0.0365122
0.0351032
0.0338824
0.0325883
0.0314029
0.0303597
0.0294018
0.0285298
0.0277072
0.0269082
0.0261232
0.025408
0.0247996
0.024234
0.0236894
0.0231726
0.0226853
0.0222283
0.0218382
0.0214092
0.0210148
0.020659
0.0203534
0.0201541
0.0198101
0.019525
0.0192667
0.0190377
0.0188265
0.0759297
0.0645737
0.0570026
0.0516317
0.0473565
0.0438394
0.0408461
0.0382586
0.0359929
0.0339897
0.0322052
0.0306034
0.0291494
0.027852
0.0266885
0.025626
0.024654
0.0237729
0.022957
0.0221313
0.0213779
0.0207133
0.020056
0.0194981
0.0189569
0.018462
0.0180007
0.0175736
0.0171369
0.0167855
0.0164288
0.0160995
0.0158013
0.0155312
0.0152859
0.0150971
0.0148722
0.0146612
0.0144737
0.0143044
0.0707209
0.0613366
0.054563
0.0492652
0.0449589
0.0413703
0.0383414
0.0357408
0.0334553
0.0314293
0.0296217
0.0279991
0.026531
0.0252325
0.0240569
0.0229904
0.022032
0.021155
0.0203484
0.0196107
0.018937
0.018319
0.0176736
0.0171283
0.0166134
0.0161383
0.0157011
0.0152987
0.0148881
0.0145748
0.014255
0.0139634
0.0136937
0.0134392
0.0132141
0.0130625
0.0128289
0.0126307
0.0124521
0.0122958
0.0665972
0.0596094
0.0537194
0.048738
0.0445036
0.0408725
0.0377505
0.0350528
0.0326799
0.0305699
0.0286927
0.0270159
0.0255028
0.0241709
0.0229715
0.021889
0.0209103
0.0200266
0.0192337
0.0185126
0.0178552
0.0172543
0.016694
0.0162117
0.0156899
0.0151883
0.0147419
0.0143483
0.0139502
0.0136617
0.0133669
0.0130717
0.0127835
0.0125178
0.0122883
0.0120979
0.0119487
0.0117681
0.0115999
0.0114473
0.0698852
0.0622945
0.0558887
0.0504498
0.0458349
0.041878
0.038478
0.0355447
0.0329956
0.0307719
0.0288263
0.0271113
0.0255869
0.0242494
0.0230528
0.0219775
0.0210087
0.0201342
0.0193442
0.0186339
0.0179917
0.0173923
0.0168309
0.0163281
0.0157938
0.015304
0.014871
0.0144744
0.014074
0.0137648
0.0134533
0.0131377
0.0128515
0.0125942
0.01236
0.0121746
0.0120386
0.0118261
0.0116347
0.011463
0.0795814
0.0689362
0.0604542
0.0537601
0.0484936
0.0440653
0.0403558
0.0372528
0.0346314
0.03239
0.0304645
0.0287637
0.0272503
0.0259103
0.0247103
0.0236277
0.0226591
0.0217815
0.020982
0.0202504
0.0196006
0.0189433
0.0183175
0.0177735
0.017264
0.0167795
0.0163403
0.015907
0.0154775
0.015112
0.0147887
0.0144699
0.0141693
0.0138847
0.0136173
0.0133912
0.0132378
0.0129914
0.0127725
0.0125773
0.0959634
0.0806506
0.069064
0.0602653
0.0537654
0.0490255
0.0453021
0.0422205
0.0396192
0.0373918
0.0354522
0.033749
0.0322421
0.0308734
0.0296606
0.0284309
0.0273214
0.0263602
0.0254643
0.0246433
0.0238736
0.0231581
0.0224659
0.0218347
0.0212461
0.0206932
0.0201863
0.019707
0.0192525
0.0188537
0.0184544
0.0180723
0.0177221
0.0173896
0.0170686
0.016815
0.0166076
0.0163446
0.0161007
0.0158795
0.128704
0.10855
0.0916841
0.0797681
0.0716397
0.0659594
0.0616961
0.0582069
0.055288
0.0528505
0.0507031
0.0488664
0.0470303
0.0452022
0.0435916
0.0420726
0.0406644
0.0393667
0.0381599
0.0370417
0.0359928
0.0350345
0.0341583
0.0333714
0.0326219
0.031903
0.0312278
0.0305851
0.0299496
0.0294043
0.0288505
0.0283203
0.0278313
0.0273723
0.026909
0.0266633
0.0262876
0.0259111
0.025608
0.0252831
0.298133
0.246416
0.204823
0.181988
0.168545
0.159708
0.152882
0.146984
0.141886
0.137578
0.133746
0.130118
0.126552
0.123089
0.119845
0.116758
0.113833
0.111066
0.108469
0.106017
0.103637
0.101397
0.0993741
0.0974789
0.0955926
0.0938334
0.0921336
0.0904988
0.0889768
0.0876403
0.0861106
0.0847886
0.0834897
0.082291
0.0812495
0.0805788
0.0794525
0.0785617
0.0777946
0.0767247
0.128729
0.108483
0.0916022
0.0796898
0.0715976
0.0658013
0.0615572
0.0581174
0.0552344
0.0528279
0.050677
0.0488592
0.0470748
0.0452385
0.0436246
0.0420767
0.0406837
0.0393725
0.0381718
0.0370581
0.0360042
0.0350516
0.0341722
0.0333904
0.032636
0.0319184
0.031244
0.030602
0.0299661
0.0294283
0.0288753
0.0283446
0.0278557
0.0273855
0.027048
0.0266856
0.0262775
0.0259263
0.0256368
0.02533
0.061172
0.0518697
0.0446287
0.0390665
0.0351874
0.0322161
0.0299712
0.0280635
0.0264282
0.0250267
0.0237354
0.022631
0.0215277
0.0205802
0.0195939
0.0187913
0.0179834
0.0173038
0.0166531
0.016084
0.0155138
0.0149843
0.0145067
0.014278
0.0138989
0.0135291
0.0131826
0.0128883
0.0125976
0.0126371
0.0122963
0.0119233
0.0116574
0.011488
0.0117327
0.0113883
0.0110724
0.0108846
0.0107576
0.0106492
0.049068
0.0419302
0.0363424
0.0316399
0.0284238
0.0259146
0.0237709
0.0219455
0.0203915
0.0190291
0.0177761
0.0168029
0.0155811
0.0149551
0.0139864
0.0134635
0.0126856
0.0122473
0.0116367
0.0112455
0.0108269
0.0103383
0.0100112
0.00972957
0.00947946
0.00920245
0.00889148
0.00870637
0.00845021
0.00849078
0.00826725
0.00806152
0.00777014
0.00762669
0.00759132
0.00772335
0.0075069
0.00729933
0.00708633
0.00695363
0.0469156
0.040433
0.0352454
0.0310025
0.0273746
0.024367
0.0221904
0.0203587
0.0187533
0.0173434
0.0161009
0.0150097
0.0140393
0.0131688
0.0123886
0.0117
0.0110898
0.0105222
0.010068
0.00951968
0.00919648
0.00869049
0.0083987
0.00810207
0.00790336
0.00755862
0.00740427
0.00711872
0.00697457
0.00695936
0.00678402
0.00662708
0.00636338
0.00628254
0.00612661
0.00628925
0.00613218
0.00600905
0.00578329
0.00571931
0.0464563
0.0403861
0.0353324
0.0311386
0.0276379
0.0246874
0.0220059
0.0197926
0.0181782
0.0167578
0.0154954
0.0143782
0.0133899
0.0125008
0.0117083
0.0110009
0.0103687
0.00980219
0.00929451
0.0088366
0.00842854
0.00806462
0.00773829
0.00747829
0.00717285
0.00692266
0.00668373
0.00647699
0.00623203
0.00621621
0.00608151
0.00595111
0.00571737
0.00563479
0.00548812
0.00562867
0.00548977
0.00538109
0.00518195
0.00510783
0.0456377
0.0400496
0.0352302
0.0311264
0.027644
0.0247
0.0220647
0.0197382
0.0179213
0.0165189
0.0152554
0.0141277
0.0131242
0.0122239
0.0114206
0.0107049
0.0100664
0.0094956
0.00898473
0.00852677
0.00811674
0.0077519
0.007443
0.00718777
0.00689755
0.00662656
0.00639463
0.00620244
0.00596166
0.00594466
0.00580985
0.00565427
0.00549277
0.00537247
0.00524515
0.0053701
0.00526036
0.00505137
0.00499145
0.00480773
0.0465128
0.0404481
0.0353548
0.0310897
0.0274999
0.0244459
0.0217339
0.0195039
0.0178524
0.0164284
0.0151601
0.0140403
0.0130532
0.0121651
0.0113752
0.0106711
0.0100426
0.00948
0.00897684
0.00852594
0.00812124
0.00776149
0.00745091
0.00721634
0.00691024
0.00668014
0.00640628
0.00624505
0.00597477
0.00598979
0.00584553
0.00572477
0.00547361
0.00539255
0.00524306
0.00542318
0.00530229
0.00509114
0.00503313
0.00483823
0.0504079
0.0421331
0.0359116
0.0310817
0.0271181
0.0239081
0.0215411
0.0197056
0.018104
0.0167054
0.01548
0.0144068
0.0134604
0.0125988
0.0118292
0.0111353
0.0105197
0.00995454
0.00946311
0.00901335
0.0085938
0.00825013
0.00787498
0.00770093
0.00730557
0.00713279
0.00680586
0.00667546
0.0064283
0.00647424
0.0062776
0.00612756
0.00584288
0.00576484
0.00555929
0.00557137
0.0057541
0.00557897
0.00544034
0.00518912
0.0538328
0.0436379
0.0365837
0.0313099
0.0277415
0.0251579
0.0230023
0.0211752
0.0196076
0.0182482
0.0170591
0.0160287
0.0150558
0.0141865
0.0134348
0.0126321
0.0121119
0.0113493
0.0109605
0.0103581
0.0100423
0.00952992
0.0092109
0.00892834
0.00864958
0.00843491
0.008077
0.00793542
0.00765717
0.00771603
0.00747462
0.00728149
0.00697143
0.0068886
0.00667912
0.00669961
0.00689534
0.00665975
0.00647405
0.00624223
0.0611877
0.0518869
0.0446419
0.0391054
0.0350688
0.0322073
0.0299854
0.0280779
0.0264385
0.0250343
0.0237315
0.0226743
0.0215377
0.0205655
0.0196029
0.0187784
0.017984
0.0172983
0.0166476
0.0160843
0.0154918
0.0150049
0.0144919
0.014316
0.0138519
0.0135323
0.0131805
0.0128822
0.0125928
0.012633
0.0122905
0.0119141
0.0116525
0.0114621
0.0112662
0.0112681
0.0114755
0.0111288
0.0108239
0.010648
0.104108
0.0910983
0.0812191
0.074549
0.0697658
0.0659581
0.0627181
0.0598291
0.0572244
0.0549675
0.0529854
0.0511494
0.0494495
0.0478661
0.0463267
0.0448634
0.0435307
0.0422835
0.0411431
0.0400693
0.0390551
0.038097
0.0372184
0.0364533
0.0357221
0.0350123
0.034341
0.0337032
0.0330682
0.0325475
0.0319974
0.0314534
0.0309569
0.0304987
0.0300425
0.029803
0.0294451
0.0290598
0.0287299
0.028381
0.0959558
0.0806089
0.0689752
0.0603143
0.0537512
0.0489813
0.0452524
0.0421925
0.0396068
0.0373897
0.035453
0.0337559
0.0322594
0.0308836
0.0296799
0.0284302
0.0273499
0.0263662
0.025484
0.0246628
0.023886
0.0231743
0.0224775
0.021855
0.0212639
0.0207127
0.0202051
0.0197261
0.0192721
0.0188752
0.0184744
0.0180915
0.017741
0.0174106
0.0171009
0.0168652
0.016648
0.0163713
0.0161276
0.0159096
0.0538372
0.0436089
0.0364897
0.0313581
0.0277606
0.0251579
0.0229952
0.0211663
0.0196001
0.0182421
0.0170532
0.016031
0.015022
0.014262
0.0133271
0.0127677
0.0119159
0.0114844
0.0108366
0.0104007
0.0100518
0.00951941
0.0092083
0.00891072
0.00867063
0.00841165
0.00806058
0.00791413
0.007646
0.00771538
0.00746766
0.00726299
0.00695483
0.00683011
0.00681032
0.00696877
0.00674613
0.00648445
0.00628692
0.00616669
0.0455223
0.0396108
0.0344385
0.0301117
0.0264693
0.023522
0.0210896
0.0190557
0.017333
0.0158556
0.0145719
0.0134544
0.0124623
0.0115967
0.0108057
0.0101248
0.00940826
0.00883767
0.00840371
0.00801852
0.00761602
0.00722401
0.00688786
0.00661497
0.00635266
0.00615452
0.00587344
0.00572828
0.00551292
0.00554802
0.00539741
0.00525139
0.00500159
0.00491092
0.00477414
0.00493984
0.00481508
0.00470013
0.00446986
0.00439214
0.0478406
0.0414336
0.0360792
0.0315914
0.0278224
0.024652
0.022003
0.0197578
0.0178386
0.016186
0.0147542
0.0135032
0.0124174
0.0114523
0.0105973
0.00984087
0.00915925
0.00854883
0.00801492
0.00753428
0.0071153
0.00666227
0.00632143
0.00611684
0.00587001
0.00561753
0.00541852
0.00517189
0.00501168
0.00500003
0.00485308
0.00472045
0.00454646
0.00444019
0.00429627
0.00442294
0.00431636
0.00423052
0.00403202
0.00395636
0.0493662
0.0428955
0.0374499
0.0328575
0.028974
0.0256801
0.0228625
0.0204511
0.0184031
0.0166461
0.0151235
0.0137945
0.012644
0.0116235
0.0107221
0.00992363
0.00921348
0.00857952
0.00801303
0.00750624
0.00705329
0.00664672
0.00624904
0.00594004
0.00564865
0.00542748
0.00523082
0.00505006
0.00485589
0.00481822
0.00469123
0.00455328
0.00442498
0.00431666
0.00418602
0.00428528
0.00417432
0.00406669
0.00397151
0.00385065
0.050279
0.0436237
0.0380517
0.0333648
0.029405
0.0260458
0.0231727
0.0207023
0.0185904
0.0167875
0.015232
0.0138772
0.0127056
0.0116674
0.0107512
0.00994006
0.00921959
0.00857639
0.0080023
0.00749
0.00703033
0.00662473
0.00622677
0.00594623
0.00562652
0.00536465
0.00520304
0.00492233
0.00482458
0.00481263
0.00466252
0.00451925
0.00438647
0.00427971
0.0041693
0.00425941
0.00414641
0.00403733
0.003941
0.00382111
0.0501925
0.0433215
0.03765
0.0329239
0.0289568
0.0256065
0.0227564
0.0203298
0.0182684
0.0165026
0.0149794
0.0136565
0.0125158
0.0115036
0.0106103
0.00981989
0.00911624
0.00848938
0.00793068
0.00743216
0.00698213
0.00658612
0.00618945
0.00591389
0.00559451
0.00536484
0.00515712
0.0049975
0.00481121
0.0047903
0.00466619