/*--------------------------------*- C++ -*----------------------------------*\
| =========                 |                                                 |
| \\      /  F ield         | OpenFOAM: The Open Source CFD Toolbox           |
|  \\    /   O peration     | Version:  2212                                  |
|   \\  /    A nd           | Website:  www.openfoam.com                      |
|    \\/     M anipulation  |                                                 |
\*---------------------------------------------------------------------------*/
FoamFile
{
    version     2.0;
    format      ascii;
    arch        "LSB;label=32;scalar=64";
    class       volScalarField;
    location    "1.25";
    object      k;
}
// * * * * * * * * * * * * * * * * * * * * * * * * * * * * * * * * * * * * * //

dimensions      [0 2 -2 0 0 0 0];

internalField   nonuniform List<scalar> 
6840
(
0.213564
0.055916
0.0283994
0.0193412
0.0146927
0.0118511
0.00989065
0.00851601
0.00749126
0.00669623
0.00606043
0.00555076
0.00512285
0.00474506
0.00442556
0.00415742
0.0039315
0.00374314
0.00360995
0.00347048
0.264759
0.104702
0.0585298
0.039163
0.0286199
0.0219934
0.0175361
0.0143633
0.0120083
0.0102139
0.00881659
0.00770619
0.00680483
0.00606258
0.00545193
0.00495214
0.00453834
0.00419631
0.00392829
0.00373416
0.283364
0.126774
0.071702
0.0473282
0.0338663
0.0256617
0.0204609
0.0167972
0.0140489
0.0119416
0.0102847
0.00895679
0.00788616
0.00701288
0.00629112
0.00568864
0.00518364
0.0047592
0.00440518
0.00412772
0.292299
0.141633
0.0819302
0.0541654
0.0389231
0.0292875
0.0232724
0.0190788
0.0159344
0.0135153
0.0116273
0.0101135
0.00888292
0.0078726
0.00703531
0.00633554
0.00574617
0.00524656
0.00482172
0.00446733
0.295943
0.148782
0.0871941
0.057675
0.0415194
0.0310723
0.0246451
0.0202211
0.0169051
0.0143251
0.0123085
0.0107024
0.00939627
0.00832253
0.00743103
0.00668423
0.00605319
0.00551605
0.00505886
0.0047011
0.295943
0.148782
0.0871941
0.0576749
0.0415194
0.0310722
0.024645
0.0202209
0.0169048
0.0143246
0.0123078
0.0107014
0.00939476
0.00832027
0.00742764
0.00667918
0.0060457
0.00550521
0.00504495
0.00469769
0.292299
0.141633
0.0819301
0.0541653
0.038923
0.0292873
0.0232721
0.0190783
0.0159337
0.0135143
0.0116258
0.0101113
0.00887969
0.00786774
0.00702802
0.00632443
0.00572913
0.0052205
0.00478447
0.00444676
0.283364
0.126774
0.0717019
0.0473281
0.0338662
0.0256615
0.0204607
0.0167968
0.0140483
0.0119406
0.0102832
0.00895468
0.00788305
0.00700818
0.00628372
0.00567709
0.0051654
0.00473011
0.00435932
0.00405535
0.264759
0.104702
0.0585298
0.039163
0.0286199
0.0219934
0.017536
0.0143632
0.0120082
0.0102136
0.00881611
0.00770537
0.00680344
0.00605961
0.00544736
0.0049446
0.0045247
0.00416996
0.00387622
0.00364038
0.213564
0.055916
0.0283994
0.0193412
0.0146927
0.0118511
0.00989065
0.00851601
0.00749125
0.00669624
0.00606041
0.00555079
0.0051228
0.00474512
0.00442552
0.00415741
0.0039315
0.00374315
0.00360999
0.00347053
0.264759
0.104702
0.0585298
0.039163
0.0286199
0.0219934
0.017536
0.0143632
0.0120082
0.0102136
0.00881611
0.00770537
0.00680345
0.00605957
0.00544737
0.00494461
0.00452468
0.0041699
0.00387611
0.00364016
0.311746
0.197541
0.130357
0.0911456
0.0668022
0.0508111
0.0397944
0.0319121
0.0260942
0.0216872
0.0182764
0.0155883
0.0134407
0.0116977
0.0102664
0.00907847
0.00808281
0.00724142
0.006539
0.00590569
0.31754
0.217754
0.151085
0.108549
0.0807156
0.0618726
0.0486774
0.0391419
0.0320588
0.0266717
0.0224904
0.0191878
0.0165396
0.0143878
0.012619
0.0111513
0.00992317
0.00888718
0.00801165
0.00726845
0.319723
0.227073
0.162232
0.118772
0.0893612
0.0689929
0.0545308
0.0439847
0.0361002
0.0300753
0.025383
0.0216664
0.0186794
0.0162477
0.0142456
0.0125806
0.0111837
0.0100024
0.00899563
0.00813383
0.320484
0.23086
0.167176
0.123531
0.093516
0.0724826
0.0574408
0.0464214
0.038154
0.0318176
0.0268713
0.0229473
0.0197889
0.0172141
0.0150913
0.0133236
0.011838
0.0105789
0.00950304
0.00857933
0.320484
0.23086
0.167176
0.123531
0.0935158
0.0724824
0.0574405
0.046421
0.0381535
0.0318168
0.0268702
0.0229457
0.0197866
0.0172107
0.0150864
0.0133167
0.0118283
0.0105652
0.00948388
0.00855232
0.319723
0.227073
0.162232
0.118772
0.0893609
0.0689925
0.0545302
0.0439839
0.0360991
0.0300737
0.0253807
0.0216631
0.0186746
0.0162408
0.0142356
0.012566
0.0111625
0.00997158
0.00895056
0.00804698
0.31754
0.217754
0.151085
0.108549
0.0807154
0.0618724
0.048677
0.0391413
0.0320579
0.0266705
0.0224886
0.0191852
0.0165359
0.0143824
0.0126111
0.0111397
0.00990578
0.00886066
0.00797041
0.00719322
0.311746
0.197541
0.130357
0.0911456
0.0668022
0.0508111
0.0397944
0.0319121
0.0260942
0.0216872
0.0182765
0.0155884
0.0134407
0.0116977
0.0102663
0.00907846
0.00808283
0.00724146
0.0065391
0.00590577
0.264759
0.104702
0.0585298
0.0391631
0.0286199
0.0219934
0.0175361
0.0143633
0.0120083
0.0102139
0.0088166
0.00770619
0.00680482
0.00606262
0.00545191
0.00495211
0.0045383
0.00419626
0.00392821
0.00373393
0.283364
0.126774
0.0717019
0.0473281
0.0338662
0.0256615
0.0204607
0.0167968
0.0140483
0.0119406
0.0102832
0.00895467
0.00788304
0.00700819
0.00628374
0.00567709
0.00516539
0.00473009
0.00435929
0.00405529
0.31754
0.217754
0.151085
0.108549
0.0807154
0.0618724
0.048677
0.0391413
0.0320579
0.0266705
0.0224886
0.0191852
0.0165359
0.0143824
0.0126111
0.0111397
0.00990573
0.00886057
0.00797024
0.00719306
0.322005
0.239026
0.177588
0.133616
0.102323
0.0798668
0.0635104
0.0513819
0.0422214
0.0351791
0.0296754
0.0253089
0.0217975
0.0189389
0.0165859
0.0146295
0.0129883
0.0115998
0.0104152
0.00938899
0.323293
0.245617
0.187499
0.144537
0.112864
0.089404
0.0718633
0.0585866
0.0483997
0.0404745
0.0342251
0.0292338
0.0251999
0.0219038
0.0191835
0.0169174
0.0150137
0.0134011
0.0120219
0.0108191
0.323714
0.247819
0.191099
0.14881
0.117249
0.0935708
0.0756574
0.0619606
0.0513628
0.0430614
0.0364794
0.0311998
0.026918
0.02341
0.0205084
0.0180872
0.0160501
0.0143219
0.0128405
0.0115412
0.323714
0.247819
0.191099
0.14881
0.117249
0.0935707
0.0756572
0.0619604
0.0513625
0.0430609
0.0364788
0.0311989
0.0269168
0.0234082
0.020506
0.018084
0.0160457
0.0143156
0.01283
0.0115121
0.323293
0.245617
0.187499
0.144536
0.112864
0.0894038
0.0718631
0.0585862
0.0483992
0.0404738
0.034224
0.0292324
0.0251979
0.021901
0.0191795
0.0169119
0.015006
0.0133902
0.0120048
0.0107762
0.322005
0.239026
0.177588
0.133616
0.102323
0.0798668
0.0635104
0.0513819
0.0422214
0.0351792
0.0296754
0.0253089
0.0217976
0.0189389
0.0165858
0.0146294
0.0129883
0.0115999
0.0104154
0.00938927
0.31754
0.217754
0.151085
0.108549
0.0807156
0.0618726
0.0486774
0.0391419
0.0320588
0.0266717
0.0224904
0.0191878
0.0165396
0.0143879
0.0126189
0.0111513
0.00992315
0.00888717
0.00801164
0.00726845
0.283364
0.126774
0.071702
0.0473282
0.0338663
0.0256617
0.0204609
0.0167972
0.0140489
0.0119416
0.0102847
0.00895679
0.00788616
0.00701288
0.00629109
0.00568861
0.00518362
0.00475917
0.00440514
0.00412766
0.292299
0.141633
0.0819301
0.0541653
0.038923
0.0292873
0.0232721
0.0190783
0.0159337
0.0135143
0.0116258
0.0101113
0.0088797
0.00786778
0.00702799
0.00632441
0.00572911
0.00522047
0.00478442
0.00444666
0.319723
0.227073
0.162232
0.118772
0.0893609
0.0689925
0.0545302
0.0439839
0.0360991
0.0300737
0.0253807
0.0216631
0.0186746
0.0162408
0.0142355
0.012566
0.0111625
0.00997149
0.00895043
0.00804656
0.323293
0.245617
0.187499
0.144536
0.112864
0.0894038
0.0718631
0.0585862
0.0483992
0.0404737
0.034224
0.0292323
0.0251978
0.021901
0.0191795
0.0169119
0.015006
0.0133902
0.0120046
0.0107759
0.324288
0.250862
0.19613
0.154888
0.123591
0.09968
0.0812741
0.0669838
0.0557848
0.0469223
0.0398395
0.0341237
0.0294674
0.02564
0.022467
0.0198151
0.0175813
0.0156846
0.0140566
0.0126251
0.32459
0.252403
0.19891
0.158543
0.12769
0.103871
0.0853201
0.0707499
0.05921
0.0499927
0.0425685
0.0365384
0.0316006
0.0275251
0.0241354
0.0212954
0.0188985
0.0168597
0.015106
0.0135594
0.32459
0.252403
0.19891
0.158543
0.12769
0.103871
0.08532
0.0707498
0.0592099
0.0499926
0.0425683
0.0365382
0.0316003
0.0275246
0.0241348
0.0212946
0.0188973
0.0168579
0.0151018
0.0135427
0.324288
0.250862
0.19613
0.154888
0.123591
0.09968
0.0812741
0.0669838
0.0557848
0.0469223
0.0398395
0.0341237
0.0294674
0.02564
0.022467
0.0198151
0.0175813
0.0156847
0.0140567
0.0126253
0.323293
0.245617
0.187499
0.144537
0.112864
0.089404
0.0718633
0.0585866
0.0483997
0.0404745
0.0342251
0.0292338
0.0251999
0.0219038
0.0191835
0.0169174
0.0150137
0.0134011
0.012022
0.0108192
0.319723
0.227073
0.162232
0.118772
0.0893612
0.0689929
0.0545308
0.0439847
0.0361002
0.0300753
0.025383
0.0216664
0.0186794
0.0162477
0.0142456
0.0125806
0.0111837
0.0100024
0.00899556
0.00813379
0.292299
0.141633
0.0819302
0.0541654
0.0389231
0.0292875
0.0232724
0.0190788
0.0159344
0.0135153
0.0116273
0.0101135
0.0088829
0.00787258
0.00703533
0.00633555
0.00574617
0.00524656
0.0048217
0.00446734
0.295943
0.148782
0.0871941
0.0576749
0.0415194
0.0310722
0.024645
0.0202209
0.0169048
0.0143246
0.0123078
0.0107014
0.00939476
0.00832028
0.00742764
0.00667918
0.0060457
0.0055052
0.00504494
0.00469771
0.320484
0.23086
0.167176
0.123531
0.0935158
0.0724824
0.0574405
0.046421
0.0381535
0.0318168
0.0268702
0.0229457
0.0197866
0.0172107
0.0150864
0.0133167
0.0118283
0.0105652
0.00948387
0.00855234
0.323714
0.247819
0.191099
0.14881
0.117249
0.0935707
0.0756572
0.0619604
0.0513625
0.0430609
0.0364788
0.0311989
0.0269168
0.0234082
0.020506
0.018084
0.0160457
0.0143156
0.0128301
0.011512
0.32459
0.252403
0.19891
0.158543
0.12769
0.103871
0.08532
0.0707498
0.0592099
0.0499926
0.0425683
0.0365382
0.0316003
0.0275246
0.0241348
0.0212945
0.0188973
0.0168579
0.0151018
0.0135426
0.324844
0.253685
0.20131
0.161836
0.131535
0.107943
0.0893701
0.0746126
0.0627921
0.0532535
0.0455015
0.0391575
0.0339304
0.0295946
0.0259743
0.0229317
0.0203575
0.0181627
0.0162672
0.0145731
0.324844
0.253685
0.20131
0.161836
0.131535
0.107943
0.0893701
0.0746126
0.0627921
0.0532535
0.0455015
0.0391575
0.0339304
0.0295946
0.0259743
0.0229317
0.0203575
0.0181627
0.0162673
0.0145731
0.32459
0.252403
0.19891
0.158543
0.12769
0.103871
0.0853201
0.0707499
0.05921
0.0499927
0.0425685
0.0365384
0.0316006
0.0275251
0.0241354
0.0212954
0.0188985
0.0168597
0.0151061
0.0135595
0.323714
0.247819
0.191099
0.14881
0.117249
0.0935708
0.0756574
0.0619606
0.0513628
0.0430614
0.0364794
0.0311997
0.026918
0.0234099
0.0205084
0.0180872
0.0160501
0.0143219
0.0128404
0.0115412
0.320484
0.23086
0.167176
0.123531
0.093516
0.0724826
0.0574408
0.0464214
0.038154
0.0318175
0.0268713
0.0229473
0.0197888
0.017214
0.0150914
0.0133237
0.011838
0.0105789
0.00950297
0.00857933
0.295943
0.148782
0.0871941
0.057675
0.0415194
0.0310723
0.0246451
0.0202211
0.0169051
0.014325
0.0123085
0.0107024
0.00939623
0.00832248
0.00743112
0.00668429
0.00605323
0.00551609
0.00505889
0.00470107
0.295943
0.148782
0.0871941
0.057675
0.0415194
0.0310723
0.0246451
0.0202211
0.0169051
0.014325
0.0123085
0.0107024
0.00939627
0.00832253
0.00743103
0.00668423
0.00605319
0.00551606
0.00505888
0.00470109
0.320484
0.23086
0.167176
0.123531
0.093516
0.0724826
0.0574408
0.0464214
0.038154
0.0318176
0.0268713
0.0229473
0.0197889
0.0172141
0.0150913
0.0133236
0.011838
0.0105789
0.00950313
0.00857957
0.323714
0.247819
0.191099
0.14881
0.117249
0.0935708
0.0756574
0.0619606
0.0513628
0.0430614
0.0364794
0.0311998
0.026918
0.02341
0.0205084
0.0180872
0.0160501
0.0143219
0.0128406
0.0115414
0.32459
0.252403
0.19891
0.158543
0.12769
0.103871
0.0853201
0.0707499
0.05921
0.0499927
0.0425685
0.0365384
0.0316006
0.0275251
0.0241354
0.0212954
0.0188985
0.0168597
0.0151061
0.0135596
0.324844
0.253685
0.20131
0.161836
0.131535
0.107943
0.0893701
0.0746126
0.0627921
0.0532535
0.0455014
0.0391575
0.0339304
0.0295946
0.0259743
0.0229317
0.0203575
0.0181627
0.0162673
0.0145732
0.324844
0.253685
0.20131
0.161836
0.131535
0.107943
0.0893701
0.0746126
0.0627921
0.0532535
0.0455014
0.0391575
0.0339304
0.0295946
0.0259743
0.0229317
0.0203575
0.0181627
0.0162673
0.014573
0.32459
0.252403
0.19891
0.158543
0.12769
0.103871
0.08532
0.0707498
0.0592099
0.0499926
0.0425683
0.0365382
0.0316003
0.0275246
0.0241348
0.0212945
0.0188973
0.0168579
0.0151018
0.0135425
0.323714
0.247819
0.191099
0.14881
0.117249
0.0935707
0.0756572
0.0619604
0.0513625
0.0430609
0.0364788
0.0311988
0.0269168
0.0234082
0.020506
0.018084
0.0160456
0.0143156
0.0128299
0.0115119
0.320484
0.23086
0.167176
0.123531
0.0935158
0.0724824
0.0574405
0.046421
0.0381535
0.0318168
0.0268702
0.0229457
0.0197865
0.0172107
0.0150865
0.0133168
0.0118283
0.0105652
0.00948382
0.00855227
0.295943
0.148782
0.0871941
0.0576749
0.0415194
0.0310722
0.024645
0.0202209
0.0169048
0.0143246
0.0123078
0.0107014
0.00939472
0.00832022
0.00742775
0.00667926
0.00604577
0.00550527
0.00504501
0.00469781
0.292299
0.141633
0.0819302
0.0541654
0.0389231
0.0292875
0.0232724
0.0190788
0.0159344
0.0135153
0.0116273
0.0101135
0.00888291
0.0078726
0.0070353
0.00633553
0.00574618
0.00524658
0.00482175
0.00446745
0.319723
0.227073
0.162232
0.118772
0.0893612
0.0689929
0.0545308
0.0439847
0.0361002
0.0300753
0.025383
0.0216664
0.0186794
0.0162477
0.0142455
0.0125806
0.0111837
0.0100025
0.00899575
0.00813409
0.323293
0.245617
0.187499
0.144537
0.112864
0.089404
0.0718633
0.0585866
0.0483997
0.0404745
0.0342251
0.0292338
0.0251999
0.0219038
0.0191835
0.0169174
0.0150137
0.0134011
0.012022
0.0108193
0.324288
0.250862
0.19613
0.154888
0.123591
0.09968
0.0812741
0.0669838
0.0557848
0.0469223
0.0398395
0.0341237
0.0294674
0.02564
0.022467
0.0198151
0.0175813
0.0156846
0.0140567
0.0126253
0.32459
0.252403
0.19891
0.158543
0.12769
0.103871
0.08532
0.0707498
0.0592099
0.0499926
0.0425683
0.0365382
0.0316003
0.0275246
0.0241348
0.0212945
0.0188973
0.0168579
0.0151019
0.0135426
0.32459
0.252403
0.19891
0.158543
0.12769
0.103871
0.0853201
0.0707499
0.05921
0.0499927
0.0425685
0.0365384
0.0316006
0.0275251
0.0241354
0.0212954
0.0188985
0.0168597
0.0151061
0.0135594
0.324288
0.250862
0.19613
0.154888
0.123591
0.09968
0.0812741
0.0669838
0.0557848
0.0469223
0.0398395
0.0341237
0.0294674
0.02564
0.022467
0.019815
0.0175813
0.0156846
0.0140566
0.0126252
0.323293
0.245617
0.187499
0.144536
0.112864
0.0894038
0.0718631
0.0585862
0.0483992
0.0404737
0.034224
0.0292323
0.0251979
0.021901
0.0191795
0.0169119
0.0150059
0.0133902
0.0120046
0.0107759
0.319723
0.227073
0.162232
0.118772
0.0893609
0.0689925
0.0545302
0.0439839
0.0360991
0.0300737
0.0253807
0.0216631
0.0186746
0.0162408
0.0142356
0.012566
0.0111625
0.00997157
0.00895059
0.00804672
0.292299
0.141633
0.0819301
0.0541653
0.038923
0.0292873
0.0232721
0.0190783
0.0159337
0.0135143
0.0116258
0.0101113
0.00887969
0.00786775
0.00702803
0.00632445
0.00572916
0.00522053
0.00478452
0.00444683
0.283364
0.126774
0.071702
0.0473282
0.0338663
0.0256617
0.0204609
0.0167972
0.0140489
0.0119416
0.0102847
0.00895678
0.00788615
0.00701287
0.00629111
0.00568863
0.00518364
0.00475921
0.00440522
0.00412784
0.31754
0.217754
0.151085
0.108549
0.0807156
0.0618726
0.0486774
0.0391419
0.0320588
0.0266717
0.0224904
0.0191877
0.0165396
0.0143878
0.012619
0.0111513
0.00992321
0.00888725
0.00801176
0.0072686
0.322005
0.239026
0.177588
0.133616
0.102323
0.0798668
0.0635104
0.0513819
0.0422214
0.0351791
0.0296754
0.0253089
0.0217975
0.0189389
0.0165859
0.0146295
0.0129883
0.0115999
0.0104152
0.00938913
0.323293
0.245617
0.187499
0.144536
0.112864
0.0894038
0.0718631
0.0585862
0.0483992
0.0404737
0.034224
0.0292323
0.0251978
0.021901
0.0191795
0.0169119
0.015006
0.0133902
0.0120046
0.0107759
0.323714
0.247819
0.191099
0.14881
0.117249
0.0935707
0.0756572
0.0619604
0.0513625
0.0430609
0.0364788
0.0311989
0.0269168
0.0234082
0.020506
0.0180839
0.0160456
0.0143156
0.0128299
0.0115118
0.323714
0.247819
0.191099
0.14881
0.117249
0.0935708
0.0756574
0.0619606
0.0513628
0.0430614
0.0364794
0.0311997
0.026918
0.0234099
0.0205083
0.0180872
0.0160501
0.0143218
0.0128404
0.0115412
0.323293
0.245617
0.187499
0.144537
0.112864
0.089404
0.0718633
0.0585866
0.0483997
0.0404745
0.0342251
0.0292338
0.0251999
0.0219038
0.0191834
0.0169174
0.0150137
0.013401
0.012022
0.0108193
0.322005
0.239026
0.177588
0.133616
0.102323
0.0798668
0.0635104
0.0513819
0.0422214
0.0351791
0.0296754
0.0253089
0.0217975
0.0189389
0.0165858
0.0146294
0.0129882
0.0115999
0.0104153
0.00938913
0.31754
0.217754
0.151085
0.108549
0.0807154
0.0618724
0.048677
0.0391413
0.0320579
0.0266705
0.0224886
0.0191852
0.0165359
0.0143824
0.0126111
0.0111397
0.00990576
0.00886064
0.00797035
0.00719328
0.283364
0.126774
0.0717019
0.0473281
0.0338662
0.0256615
0.0204607
0.0167968
0.0140483
0.0119406
0.0102832
0.00895468
0.00788305
0.00700818
0.00628372
0.00567709
0.0051654
0.00473012
0.00435935
0.00405541
0.264759
0.104702
0.0585298
0.039163
0.0286199
0.0219934
0.0175361
0.0143633
0.0120083
0.0102139
0.00881659
0.00770619
0.00680483
0.00606258
0.00545192
0.00495214
0.00453836
0.00419636
0.00392838
0.00373425
0.311746
0.197541
0.130357
0.0911456
0.0668022
0.050811
0.0397944
0.0319121
0.0260942
0.0216872
0.0182764
0.0155883
0.0134407
0.0116977
0.0102664
0.00907848
0.00808284
0.00724146
0.00653907
0.00590584
0.31754
0.217754
0.151085
0.108549
0.0807154
0.0618723
0.048677
0.0391413
0.0320579
0.0266705
0.0224886
0.0191852
0.0165359
0.0143824
0.0126111
0.0111397
0.00990573
0.00886057
0.00797024
0.00719317
0.319723
0.227073
0.162232
0.118772
0.0893609
0.0689925
0.0545302
0.0439839
0.0360991
0.0300737
0.0253807
0.0216631
0.0186746
0.0162408
0.0142355
0.012566
0.0111624
0.00997145
0.00895045
0.00804648
0.320484
0.23086
0.167176
0.123531
0.0935158
0.0724824
0.0574405
0.046421
0.0381535
0.0318168
0.0268702
0.0229457
0.0197866
0.0172107
0.0150864
0.0133167
0.0118282
0.0105651
0.00948373
0.00855209
0.320484
0.23086
0.167176
0.123531
0.093516
0.0724826
0.0574408
0.0464214
0.038154
0.0318175
0.0268713
0.0229473
0.0197889
0.0172141
0.0150912
0.0133236
0.011838
0.0105789
0.00950301
0.00857945
0.319723
0.227073
0.162232
0.118772
0.0893612
0.0689929
0.0545308
0.0439847
0.0361002
0.0300753
0.025383
0.0216664
0.0186794
0.0162477
0.0142456
0.0125806
0.0111837
0.0100024
0.00899567
0.0081339
0.31754
0.217754
0.151085
0.108549
0.0807156
0.0618726
0.0486774
0.0391419
0.0320588
0.0266717
0.0224904
0.0191877
0.0165396
0.0143879
0.0126189
0.0111513
0.00992318
0.00888722
0.00801171
0.00726859
0.311746
0.197541
0.130357
0.0911456
0.0668022
0.0508111
0.0397944
0.0319121
0.0260942
0.0216872
0.0182764
0.0155883
0.0134407
0.0116977
0.0102663
0.00907846
0.00808283
0.00724147
0.0065391
0.00590586
0.264759
0.104702
0.0585298
0.039163
0.0286199
0.0219934
0.017536
0.0143632
0.0120082
0.0102136
0.00881611
0.00770536
0.00680343
0.00605961
0.00544736
0.0049446
0.00452468
0.00416994
0.00387621
0.00364025
0.213564
0.055916
0.0283994
0.0193412
0.0146927
0.0118511
0.00989065
0.00851601
0.00749125
0.00669622
0.00606043
0.00555075
0.00512285
0.00474505
0.00442555
0.00415741
0.0039315
0.00374315
0.00361001
0.00347051
0.264759
0.104702
0.0585298
0.039163
0.0286199
0.0219934
0.017536
0.0143632
0.0120082
0.0102136
0.0088161
0.00770536
0.00680344
0.00605956
0.00544737
0.0049446
0.00452466
0.00416987
0.00387609
0.00364025
0.283364
0.126774
0.0717019
0.0473281
0.0338662
0.0256615
0.0204607
0.0167968
0.0140483
0.0119405
0.0102832
0.00895466
0.00788303
0.00700817
0.00628372
0.00567707
0.00516535
0.00473004
0.00435924
0.00405524
0.292299
0.141633
0.0819301
0.0541653
0.038923
0.0292873
0.0232721
0.0190783
0.0159337
0.0135143
0.0116258
0.0101113
0.00887969
0.00786777
0.00702797
0.00632439
0.00572909
0.00522044
0.00478439
0.0044466
0.295943
0.148782
0.0871941
0.0576749
0.0415194
0.0310722
0.024645
0.0202209
0.0169048
0.0143246
0.0123078
0.0107014
0.00939476
0.00832028
0.00742763
0.00667917
0.00604569
0.0055052
0.00504494
0.00469773
0.295943
0.148782
0.0871941
0.057675
0.0415194
0.0310723
0.0246451
0.0202211
0.0169051
0.014325
0.0123085
0.0107024
0.00939627
0.00832253
0.00743102
0.00668423
0.0060532
0.00551608
0.00505892
0.00470117
0.292299
0.141633
0.0819302
0.0541654
0.0389231
0.0292875
0.0232724
0.0190788
0.0159344
0.0135153
0.0116273
0.0101135
0.0088829
0.00787258
0.00703532
0.00633555
0.00574619
0.0052466
0.00482177
0.00446736
0.283364
0.126774
0.071702
0.0473282
0.0338663
0.0256617
0.0204609
0.0167972
0.0140489
0.0119416
0.0102847
0.00895679
0.00788616
0.00701288
0.0062911
0.00568863
0.00518364
0.00475921
0.00440521
0.00412776
0.264759
0.104702
0.0585298
0.039163
0.0286199
0.0219934
0.0175361
0.0143633
0.0120083
0.0102139
0.00881659
0.00770619
0.00680482
0.00606262
0.00545192
0.00495213
0.00453835
0.00419635
0.00392839
0.00373426
0.213564
0.055916
0.0283994
0.0193412
0.0146927
0.0118511
0.00989066
0.00851601
0.00749125
0.00669623
0.00606041
0.00555078
0.00512279
0.00474512
0.00442552
0.0041574
0.0039315
0.00374318
0.00361006
0.00347059
0.0040939
0.00362529
0.00322346
0.00298936
0.00284709
0.00274793
0.00267064
0.00260286
0.00254333
0.00249261
0.00244651
0.00240258
0.00235934
0.00231602
0.00227531
0.00223557
0.00219825
0.00216213
0.0021282
0.00209599
0.00206411
0.00203402
0.002006
0.00197983
0.00195375
0.0019292
0.00190514
0.00188171
0.00185969
0.00183991
0.00181794
0.00179835
0.00177894
0.00176134
0.00174952
0.00172927
0.00171668
0.00170297
0.00169191
0.00167632
0.00341037
0.00313088
0.00290723
0.00274977
0.00263307
0.00253673
0.00245411
0.00237922
0.00230999
0.00224946
0.00219508
0.00214462
0.00209768
0.00205282
0.00200866
0.00196567
0.00192639
0.00188925
0.00185472
0.00182246
0.00179099
0.00176147
0.00173381
0.00170931
0.00168575
0.00166287
0.00164103
0.00162003
0.00159904
0.00158119
0.00156253
0.00154415
0.00152731
0.00151046
0.00149876
0.00148515
0.00147104
0.00145886
0.00144817
0.00143664
0.00384993
0.00345839
0.00320336
0.00301026
0.00285006
0.00271643
0.00260307
0.00250484
0.00241775
0.00233874
0.00226747
0.00220267
0.00214524
0.00209528
0.00204163
0.00199172
0.0019472
0.00190589
0.00186777
0.00183144
0.00179597
0.00176044
0.00172782
0.00169929
0.00167301
0.00164739
0.00162285
0.00159948
0.00157733
0.00155786
0.00153673
0.00151699
0.001499
0.00148335
0.00147262
0.00145531
0.00144054
0.00142677
0.00141437
0.00140302
0.00412423
0.00371658
0.00342616
0.00320726
0.00302727
0.00287505
0.00274228
0.00262491
0.00251995
0.00242532
0.00233945
0.00226099
0.00218851
0.00212298
0.00206327
0.00200798
0.0019567
0.00190967
0.00186536
0.0018201
0.00177836
0.00174099
0.00170376
0.00167128
0.00163973
0.00161057
0.00158311
0.00155746
0.00153124
0.00150913
0.00148686
0.0014659
0.00144702
0.00142963
0.00141403
0.00140149
0.00138684
0.00137263
0.00135984
0.00134832
0.00422961
0.00387168
0.00358837
0.0033548
0.00315729
0.00298713
0.00283932
0.00270912
0.002592
0.00248591
0.00238932
0.00230089
0.00221932
0.00214605
0.00207863
0.00201651
0.00195995
0.00190734
0.00185832
0.00181284
0.00177091
0.00173168
0.0016905
0.00165479
0.00162105
0.00158956
0.00156023
0.00153298
0.00150516
0.00148288
0.00146023
0.0014393
0.00141978
0.00140154
0.00138518
0.00137376
0.00135653
0.0013415
0.00132776
0.0013157
0.00419403
0.00390119
0.00364246
0.0034146
0.00321409
0.00303666
0.00287964
0.00274033
0.00261478
0.00250053
0.00239665
0.00230192
0.00221473
0.0021366
0.00206503
0.00199938
0.00193908
0.00188385
0.00183362
0.00178724
0.00174442
0.00170486
0.00166734
0.0016342
0.00159862
0.00156411
0.00153286
0.001505
0.00147683
0.00145544
0.00143344
0.00141164
0.00138945
0.00137012
0.00135233
0.00133795
0.0013259
0.00131131
0.00129773
0.00128531
0.00425177
0.00393292
0.00365573
0.00341264
0.00320008
0.00301217
0.00284612
0.00269903
0.00256791
0.00245075
0.00234592
0.00225157
0.00216603
0.00208959
0.00202001
0.0019565
0.00189841
0.00184519
0.0017965
0.00175204
0.00171139
0.00167294
0.00163618
0.00160322
0.00156782
0.00153474
0.00150512
0.00147779
0.00145017
0.00142796
0.00140545
0.00138255
0.00136163
0.00134268
0.00132549
0.00131142
0.00130038
0.00128406
0.0012692
0.00125569
0.00427299
0.00388379
0.00355943
0.00329099
0.00307326
0.00288285
0.00271882
0.00257774
0.00245525
0.0023479
0.00225366
0.00216884
0.00209191
0.00202261
0.00195955
0.00190182
0.00184938
0.0018012
0.00175675
0.00171552
0.00167861
0.00164039
0.00160413
0.00157172
0.00154111
0.00151163
0.00148465
0.00145779
0.00143103
0.00140758
0.00138649
0.00136577
0.00134603
0.00132719
0.00130934
0.00129388
0.0012826
0.00126579
0.00125063
0.00123686
0.00416804
0.0037194
0.00335817
0.00306732
0.00284747
0.00268033
0.00254331
0.00242683
0.00232595
0.00223774
0.00215956
0.00208968
0.00202695
0.00196908
0.00191717
0.00186379
0.00181489
0.00177203
0.00173157
0.00169403
0.00165849
0.00162488
0.00159238
0.00156182
0.00153312
0.00150588
0.00148066
0.0014566
0.00143369
0.00141304
0.0013922
0.00137205
0.00135343
0.00133554
0.00131828
0.00130445
0.00129261
0.00127796
0.00126436
0.00125191
0.00392795
0.00351267
0.00314555
0.0028729
0.00267909
0.00253951
0.00243036
0.00233811
0.00225888
0.00219182
0.00213226
0.0020805
0.00202843
0.00197525
0.00192799
0.00188298
0.00184073
0.00180133
0.00176425
0.00172953
0.00169656
0.001666
0.00163777
0.00161193
0.00158722
0.00156337
0.00154074
0.00151894
0.00149724
0.00147806
0.00145856
0.0014399
0.00142253
0.00140602
0.00138926
0.00137966
0.00136561
0.00135163
0.00134036
0.001328
0.00409443
0.00362584
0.00322429
0.00299108
0.00284802
0.00275125
0.00267393
0.00260536
0.00254487
0.00249319
0.00244699
0.00240261
0.00235854
0.00231534
0.00227455
0.00223531
0.00219785
0.00216197
0.00212806
0.00209566
0.00206397
0.00203366
0.00200603
0.00197968
0.00195377
0.00192911
0.00190511
0.00188173
0.00185974
0.00183992
0.00181782
0.00179832
0.001779
0.00176091
0.00174497
0.00173404
0.00171702
0.00170328
0.00169142
0.00167455
0.00392852
0.00351127
0.00314356
0.00287133
0.00267867
0.00253554
0.00242628
0.00233523
0.00225704
0.00219097
0.00213147
0.0020801
0.00202936
0.00197645
0.0019293
0.0018833
0.00184148
0.00180162
0.00176464
0.00173004
0.00169692
0.00166654
0.00163824
0.00161256
0.00158769
0.00156387
0.00154127
0.00151949
0.00149776
0.00147881
0.00145935
0.0014407
0.00142333
0.00140641
0.00139381
0.00138012
0.00136506
0.00135224
0.00134148
0.00132974
0.00418135
0.00378084
0.00346735
0.00323143
0.00303044
0.00285083
0.00267932
0.00251704
0.00236933
0.00224517
0.00212643
0.0020172
0.00191345
0.00180682
0.0017164
0.00162753
0.0015527
0.00148052
0.0014162
0.00135659
0.001293
0.00123746
0.00119363
0.00115069
0.0011087
0.00106925
0.00103301
0.00099809
0.00096496
0.000928858
0.000893404
0.000864033
0.000838808
0.000815219
0.000791836
0.000763122
0.000742161
0.000725653
0.000712273
0.000702202
0.0060276
0.00539215
0.00487722
0.00445798
0.00410511
0.00380129
0.00353478
0.00329871
0.0030874
0.00289631
0.00272558
0.0025672
0.00243004
0.00229875
0.00218561
0.00207494
0.00197966
0.00188779
0.00180582
0.00172838
0.00165247
0.00158558
0.00152037
0.00145974
0.00139996
0.00134403
0.00129377
0.0012452
0.00119874
0.00115154
0.00110446
0.00105812
0.00102163
0.000986549
0.000948276
0.000913684
0.000876828
0.000841713
0.000810359
0.000784135
0.00686774
0.00620421
0.00563884
0.00515546
0.00474074
0.00438206
0.00406473
0.00378242
0.00352983
0.00330282
0.00309888
0.00291477
0.00274801
0.00259707
0.00246
0.00233478
0.00221988
0.00211524
0.00201731
0.00192993
0.00184547
0.0017706
0.00169626
0.00162974
0.00156411
0.00150677
0.00144991
0.00139833
0.00134607
0.00129614
0.00124615
0.00119639
0.00115517
0.00111453
0.00107206
0.001035
0.000995781
0.000955339
0.000922149
0.000881906
0.00727823
0.00661623
0.00603674
0.00552952
0.0050845
0.00469249
0.00434898
0.00404686
0.0037754
0.00353034
0.00330922
0.00310916
0.00292922
0.00276517
0.00261608
0.00248015
0.00235596
0.0022422
0.00213763
0.00204105
0.00195303
0.00186394
0.00178083
0.00171186
0.00164955
0.00158922
0.00153198
0.00147391
0.00141875
0.00136821
0.00131773
0.00126756
0.00122276
0.00117817
0.00113175
0.00109123
0.00104818
0.00100699
0.000963833
0.000923951
0.00743939
0.00676751
0.00617431
0.00565291
0.00519505
0.0047918
0.00443771
0.00412771
0.00385251
0.00360394
0.00337931
0.00317584
0.00299318
0.00282631
0.00267454
0.00253603
0.00240923
0.00229285
0.00218577
0.00208688
0.00199552
0.00191023
0.00183033
0.00174662
0.00166947
0.00160577
0.0015496
0.00149631
0.00144539
0.00139658
0.00135011
0.00129837
0.00124636
0.00119728
0.00114599
0.00110275
0.00105625
0.00101297
0.000972325
0.000922948
0.00732236
0.00662103
0.00601551
0.00549347
0.00504247
0.00465112
0.00431213
0.00401596
0.00375153
0.00351373
0.00329965
0.00310584
0.00293129
0.0027717
0.00262609
0.00249279
0.00237031
0.00225748
0.00215314
0.00205636
0.00196654
0.00188227
0.00180396
0.00172523
0.0016567
0.00158889
0.00152647
0.00146616
0.00140881
0.00135429
0.00129892
0.00124278
0.00119374
0.00114558
0.00109489
0.00105214
0.00100417
0.000959606
0.000917464
0.000866748
0.00671171
0.00602652
0.00546251
0.00499262
0.0045976
0.00426124
0.00396722
0.00370487
0.00346959
0.00325765
0.00306604
0.00289094
0.00273109
0.00258497
0.00245058
0.00232712
0.00221248
0.00210704
0.00200862
0.00191692
0.00183172
0.00175025
0.00167543
0.0015998
0.00153237
0.00146419
0.00140451
0.00134479
0.00128715
0.00123039
0.00117367
0.00111559
0.00106819
0.00102029
0.000975095
0.000924907
0.000885469
0.000841715
0.000802458
0.000757669
0.00561041
0.00501853
0.00456789
0.00421226
0.00391549
0.00365442
0.00341845
0.00320208
0.00300729
0.00282861
0.00266536
0.00251008
0.0023696
0.00223973
0.00211814
0.00200965
0.00190318
0.00181253
0.00172146
0.00164197
0.00156224
0.00148979
0.0014229
0.00135768
0.00129865
0.00123877
0.00118839
0.00113734
0.00108909
0.00103965
0.000990738
0.000942157
0.000905409
0.000865755
0.000825966
0.00079465
0.000766913
0.000731897
0.000702499
0.000679776
0.00418261
0.00378454
0.00346841
0.00323545
0.003045
0.00286618
0.002691
0.00252442
0.00237349
0.00224692
0.0021295
0.00201766
0.00190952
0.00180366
0.00171254
0.00162711
0.00155107
0.00148018
0.00141604
0.00135594
0.00129365
0.00123652
0.00119331
0.00114884
0.00110852
0.00106879
0.00103251
0.000997615
0.000964537
0.00092829
0.000892756
0.000863332
0.000837834
0.000813845
0.000791887
0.000770232
0.00074809
0.000723992
0.000709095
0.00069936
0.00341009
0.0031316
0.00290809
0.00275192
0.00263601
0.00254164