/*--------------------------------*- C++ -*----------------------------------*\
| =========                 |                                                 |
| \\      /  F ield         | OpenFOAM: The Open Source CFD Toolbox           |
|  \\    /   O peration     | Version:  2212                                  |
|   \\  /    A nd           | Website:  www.openfoam.com                      |
|    \\/     M anipulation  |                                                 |
\*---------------------------------------------------------------------------*/
FoamFile
{
    version     2.0;
    format      ascii;
    arch        "LSB;label=32;scalar=64";
    class       volVectorField;
    location    "1.25";
    object      U;
}
// * * * * * * * * * * * * * * * * * * * * * * * * * * * * * * * * * * * * * //

dimensions      [0 1 -1 0 0 0 0];

internalField   nonuniform List<vector> 
6840
(
(0.0956456 -0.00836004 -0.00836005)
(0.0904939 0.00152207 0.00152198)
(0.0790683 0.00242983 0.00242966)
(0.0713012 0.00148792 0.00148755)
(0.0661794 0.000830811 0.0008301)
(0.0623225 0.000564194 0.000563036)
(0.0592207 0.000427465 0.000424895)
(0.0566846 0.000325916 0.000321471)
(0.0545494 0.000256309 0.000249014)
(0.0526967 0.000208016 0.000196029)
(0.0510582 0.000175539 0.000155173)
(0.0495966 0.00015544 0.000121579)
(0.0482796 0.000144088 9.03119e-05)
(0.0470786 0.000140846 5.72239e-05)
(0.0459824 0.000147423 1.92216e-05)
(0.0449974 0.000169354 -1.27325e-05)
(0.0441456 0.000220505 -0.000100023)
(0.0435047 0.000295258 -0.000265538)
(0.0434375 0.000367327 -0.000551065)
(0.0423115 -0.00101918 -0.00270984)
(0.0999088 0.001297 0.000712545)
(0.0969668 0.00365598 0.00274719)
(0.0935346 0.00264035 0.00211801)
(0.0895893 0.00182069 0.00162035)
(0.0858321 0.00152932 0.00139022)
(0.08259 0.00135212 0.00116051)
(0.0798651 0.00118091 0.000896017)
(0.0775669 0.00104322 0.000690451)
(0.0755577 0.000947442 0.000557701)
(0.073751 0.00087367 0.000475131)
(0.0721018 0.000806668 0.000423682)
(0.070582 0.000742238 0.000389745)
(0.069173 0.000687913 0.000367543)
(0.0678611 0.000649866 0.000355827)
(0.0666396 0.00062719 0.000342885)
(0.0655239 0.00061591 0.000299601)
(0.0645716 0.000604975 0.000216749)
(0.0639171 0.0005504 -8.14969e-06)
(0.063984 0.000557015 -0.000290273)
(0.0619207 0.00021384 -0.000798598)
(0.099413 0.000345247 0.000270225)
(0.0988664 0.00201912 0.00187483)
(0.0979217 0.00257329 0.00218881)
(0.0963663 0.00238015 0.00190806)
(0.0946342 0.00211459 0.00162618)
(0.0929737 0.00192757 0.0014179)
(0.0913668 0.00180276 0.00127)
(0.0898585 0.00170758 0.00115803)
(0.0884625 0.00160844 0.00106671)
(0.0871713 0.00150029 0.000993125)
(0.0859791 0.00139348 0.000942345)
(0.0848738 0.00129504 0.000910046)
(0.0838403 0.00120467 0.000890334)
(0.0828722 0.00111824 0.000876851)
(0.0819724 0.00103078 0.000862408)
(0.0811605 0.000932184 0.000831873)
(0.0804819 0.000802556 0.00077192)
(0.0799976 0.000601152 0.000624949)
(0.0797809 0.000204838 0.0003692)
(0.0790943 -0.000979243 -0.000201558)
(0.0995405 0.000245034 0.000321897)
(0.0992576 0.00105557 0.00154091)
(0.0988491 0.00150226 0.00211437)
(0.0981253 0.00157927 0.00209148)
(0.0973379 0.00151445 0.00188593)
(0.0965868 0.00144563 0.00166558)
(0.0958687 0.00140866 0.00149765)
(0.0952032 0.00137645 0.00137101)
(0.0945783 0.00132882 0.00128386)
(0.0939392 0.00125478 0.00122743)
(0.0933205 0.00116043 0.00118871)
(0.0927224 0.001057 0.0011631)
(0.0921392 0.000951609 0.00114798)
(0.0915692 0.000844238 0.00114009)
(0.0910132 0.000729935 0.00113341)
(0.0904738 0.000586607 0.00112001)
(0.0899576 0.000393661 0.0010916)
(0.0894753 0.00011042 0.00104125)
(0.0890347 -0.000307197 0.000978621)
(0.0884862 -0.00091633 0.000979233)
(0.0993801 3.37561e-05 5.89468e-05)
(0.0992678 0.000274284 0.00120001)
(0.0989805 0.000432133 0.00188842)
(0.098475 0.000483023 0.00200633)
(0.0979962 0.000478047 0.00191441)
(0.0975722 0.000464049 0.00173428)
(0.0971833 0.000450152 0.00154661)
(0.0968348 0.000437622 0.00138749)
(0.0965368 0.000428093 0.00126827)
(0.0962856 0.000414671 0.00119661)
(0.0960167 0.000388417 0.00116777)
(0.0957314 0.000349837 0.00116343)
(0.0954301 0.00030087 0.00116907)
(0.095103 0.000240313 0.00118094)
(0.0947446 0.00016783 0.00120244)
(0.0943515 7.05367e-05 0.00123514)
(0.0939207 -7.15453e-05 0.00127984)
(0.0934393 -0.000281201 0.00133661)
(0.0928768 -0.000572992 0.00140985)
(0.0922426 -0.00101786 0.00153968)
(0.0993802 -3.37919e-05 5.90031e-05)
(0.0992677 -0.000274466 0.00120005)
(0.0989805 -0.000432526 0.00188844)
(0.0984748 -0.000483715 0.00200639)
(0.0979957 -0.00047925 0.00191459)
(0.0975711 -0.000466195 0.00173467)
(0.0971814 -0.000454002 0.00154718)
(0.0968315 -0.000444271 0.00138847)
(0.0965311 -0.000439416 0.00127014)
(0.0962759 -0.000433711 0.00120001)
(0.0960002 -0.000420129 0.00117358)
(0.0957034 -0.000402164 0.00117317)
(0.0953824 -0.000387058 0.00118539)
(0.0950223 -0.000381727 0.00120849)
(0.0946108 -0.000396963 0.00125085)
(0.0941361 -0.000441625 0.00131801)
(0.0935804 -0.000538067 0.00141377)
(0.0929255 -0.000686125 0.00155386)
(0.0921013 -0.000931673 0.00173505)
(0.0911447 -0.00152696 0.0018289)
(0.0995405 -0.000245048 0.000321897)
(0.0992576 -0.00105564 0.00154091)
(0.0988489 -0.00150239 0.00211448)
(0.0981247 -0.0015795 0.00209169)
(0.0973365 -0.001515 0.00188625)
(0.0965843 -0.00144678 0.00166608)
(0.0958641 -0.00141073 0.00149825)
(0.0951954 -0.00137989 0.00137203)
(0.0945646 -0.0013349 0.00128617)
(0.0939157 -0.00126458 0.00123258)
(0.0932807 -0.00117586 0.00119866)
(0.092655 -0.00108159 0.00118157)
(0.0920261 -0.000992959 0.00117857)
(0.0913805 -0.000915123 0.00119068)
(0.0907004 -0.000849321 0.00122202)
(0.0899597 -0.000795015 0.00128124)
(0.0891132 -0.000761837 0.0013854)
(0.088098 -0.000761384 0.00155987)
(0.0868151 -0.000828884 0.00182968)
(0.0854574 -0.00109834 0.00216235)
(0.099413 -0.000345229 0.000270232)
(0.0988664 -0.00201903 0.00187491)
(0.0979214 -0.0025731 0.00218906)
(0.0963656 -0.00237982 0.00190848)
(0.0946329 -0.00211407 0.00162678)
(0.0929713 -0.00192672 0.00141875)
(0.0913623 -0.0018015 0.0012714)
(0.0898508 -0.00170553 0.0011604)
(0.088449 -0.00160499 0.00107054)
(0.0871485 -0.00149458 0.000999459)
(0.0859406 -0.00138404 0.00095236)
(0.0848081 -0.00127991 0.000927506)
(0.0837293 -0.00118154 0.00092074)
(0.0826852 -0.00108466 0.000929191)
(0.0816571 -0.000984685 0.000953923)
(0.0806212 -0.000875876 0.00100148)
(0.0795387 -0.000750235 0.00108665)
(0.0783258 -0.00059133 0.00123317)
(0.076896 -0.000374888 0.00142698)
(0.0754762 -0.000322208 0.0024752)
(0.0999088 -0.00129699 0.000712564)
(0.0969668 -0.00365583 0.00274729)
(0.0935345 -0.00264013 0.00211821)
(0.089589 -0.00182029 0.00162075)
(0.0858316 -0.00152847 0.00139079)
(0.0825891 -0.00135079 0.00116155)
(0.0798635 -0.00117846 0.000897758)
(0.0775639 -0.001039 0.000693267)
(0.0755522 -0.000940157 0.000562416)
(0.0737414 -0.000861061 0.000483115)
(0.0720842 -0.000784878 0.000439136)
(0.0705498 -0.000705875 0.000416648)
(0.0691156 -0.000629134 0.000406592)
(0.0677628 -0.000553808 0.000404694)
(0.0664739 -0.00046369 0.000413316)
(0.065237 -0.000327932 0.000433231)
(0.0640426 -0.000147981 0.000478285)
(0.0628704 0.000130439 0.000536873)
(0.061726 0.000666617 0.00058507)
(0.0604929 0.00227982 0.000419097)
(0.0956456 0.00836005 -0.00836004)
(0.0904939 -0.00152198 0.00152206)
(0.0790683 -0.00242966 0.00242983)
(0.0713012 -0.00148756 0.00148791)
(0.0661794 -0.000830113 0.0008308)
(0.0623225 -0.000563052 0.000564179)
(0.0592207 -0.00042492 0.000427443)
(0.0566846 -0.000321502 0.000325886)
(0.0545494 -0.00024905 0.000256274)
(0.0526967 -0.00019607 0.000207972)
(0.0510582 -0.000155223 0.000175487)
(0.0495966 -0.000121638 0.000155377)
(0.0482796 -9.03702e-05 0.000144004)
(0.0470786 -5.73037e-05 0.000140759)
(0.0459823 -1.92956e-05 0.000147331)
(0.0449973 1.26197e-05 0.000169239)
(0.0441454 9.98855e-05 0.000220368)
(0.0435042 0.000265377 0.000295085)
(0.0434367 0.000550923 0.000367281)
(0.0423099 0.00270933 -0.00101937)
(0.0999088 0.000712564 0.00129699)
(0.0969668 0.00274729 0.00365583)
(0.0935345 0.00211821 0.00264012)
(0.089589 0.00162075 0.00182028)
(0.0858316 0.0013908 0.00152845)
(0.0825891 0.00116156 0.00135077)
(0.0798635 0.00089777 0.00117843)
(0.0775639 0.000693282 0.00103897)
(0.0755522 0.000562436 0.000940115)
(0.0737414 0.00048314 0.000861009)
(0.0720842 0.000439169 0.000784813)
(0.0705498 0.000416695 0.000705798)
(0.0691156 0.000406643 0.00062905)
(0.0677629 0.000404754 0.000553713)
(0.0664739 0.000413392 0.000463533)
(0.065237 0.000433313 0.000327725)
(0.0640427 0.000478356 0.000147704)
(0.0628707 0.000536938 -0.000130828)
(0.0617266 0.000585064 -0.000667301)
(0.0604946 0.000418754 -0.00228118)
(0.100226 0.000720832 0.000720799)
(0.09996 0.00198281 0.00198266)
(0.0997822 0.00245206 0.0024517)
(0.098788 0.00242001 0.00241938)
(0.0972753 0.00220142 0.00220043)
(0.0957744 0.00181246 0.0018107)
(0.0943922 0.00138397 0.00138107)
(0.0931627 0.0010728 0.00106791)
(0.0920749 0.000858547 0.000850144)
(0.0911115 0.00070954 0.000694968)
(0.090257 0.000603447 0.000577106)
(0.0894874 0.000527648 0.000484155)
(0.0887834 0.000477839 0.000410696)
(0.0881426 0.000447867 0.000345856)
(0.0875653 0.000435126 0.000270968)
(0.0870476 0.000443326 0.000164927)
(0.0865873 0.000475306 9.05332e-06)
(0.0861705 0.000518088 -0.000250136)
(0.0857282 0.000477311 -0.000749668)
(0.0855603 4.93095e-05 -0.00171386)
(0.10014 0.00077504 0.000869226)
(0.100454 0.00196247 0.00196347)
(0.100911 0.00242767 0.00233428)
(0.100978 0.00252687 0.00244089)
(0.100694 0.00242673 0.0023362)
(0.100225 0.00219827 0.00211172)
(0.0997096 0.00191793 0.00182208)
(0.099185 0.0016677 0.00157349)
(0.0986913 0.00146599 0.00138644)
(0.098246 0.00130154 0.00124458)
(0.0978563 0.00116702 0.00113786)
(0.0975198 0.00105818 0.00105798)
(0.0972334 0.000970259 0.000993942)
(0.0969957 0.000898654 0.000935994)
(0.096808 0.000838774 0.000876713)
(0.0966715 0.000783449 0.000802981)
(0.096586 0.000722039 0.000691069)
(0.096543 0.000644422 0.000515252)
(0.0964897 0.000509155 0.000249893)
(0.0965874 0.000206215 -9.0403e-05)
(0.100093 0.000445933 0.000763191)
(0.100504 0.0011945 0.00174899)
(0.101105 0.00158683 0.00212947)
(0.101635 0.00174044 0.00223443)
(0.10198 0.00178228 0.0022866)
(0.102173 0.00172906 0.00223526)
(0.102254 0.00160812 0.00211496)
(0.10228 0.00146031 0.00196325)
(0.102283 0.00130515 0.00180031)
(0.102279 0.0011563 0.00164997)
(0.102277 0.00102768 0.00153922)
(0.102285 0.000917322 0.00145935)
(0.102304 0.00081955 0.00140005)
(0.102337 0.000727636 0.0013546)
(0.102385 0.000632372 0.00131685)
(0.102453 0.00052787 0.0012794)
(0.102537 0.000403485 0.00123345)
(0.102633 0.00024625 0.00117199)
(0.102728 4.26323e-05 0.00110019)
(0.102929 -0.00020002 0.00106716)
(0.100087 0.000144364 0.000707008)
(0.100477 0.000390426 0.00161776)
(0.101066 0.000540994 0.00203462)
(0.101694 0.000609934 0.00211754)
(0.102269 0.000635579 0.00214991)
(0.102743 0.000626012 0.00217934)
(0.103125 0.00059346 0.00213348)
(0.10343 0.000547064 0.00204348)
(0.103683 0.000500034 0.00193411)
(0.103903 0.000454311 0.00182827)
(0.104102 0.000405994 0.00173012)
(0.104294 0.000354915 0.00164373)
(0.10448 0.000303255 0.00158408)
(0.104655 0.000247757 0.00155345)
(0.104819 0.000180536 0.00154218)
(0.104977 9.66833e-05 0.00154261)
(0.105124 -1.05385e-05 0.00155672)
(0.105259 -0.000150605 0.00158658)
(0.105385 -0.000330392 0.00163358)
(0.105612 -0.000528265 0.00171633)
(0.100087 -0.000144426 0.000707014)
(0.100477 -0.000390611 0.00161777)
(0.101066 -0.000541315 0.00203461)
(0.101694 -0.000610505 0.00211762)
(0.102269 -0.000636653 0.00215024)
(0.102742 -0.000627923 0.00217997)
(0.103123 -0.000596616 0.00213447)
(0.103427 -0.000552277 0.00204503)
(0.103678 -0.000508946 0.00193647)
(0.103895 -0.000469829 0.0018321)
(0.10409 -0.000432491 0.00173642)
(0.104275 -0.000398809 0.00165478)
(0.104448 -0.000372941 0.00160369)
(0.104601 -0.000357054 0.00158649)
(0.104732 -0.000353445 0.00159415)
(0.104844 -0.000368074 0.00162326)
(0.104932 -0.000407132 0.00168735)
(0.104992 -0.000476851 0.00179013)
(0.105035 -0.000581887 0.00192124)
(0.105236 -0.00070985 0.00201279)
(0.100093 -0.000445938 0.000763204)
(0.100504 -0.00119452 0.00174903)
(0.101105 -0.00158687 0.00212963)
(0.101634 -0.00174056 0.00223499)
(0.101979 -0.00178251 0.00228769)
(0.10217 -0.00172943 0.00223687)
(0.102251 -0.00160886 0.00211738)
(0.102273 -0.00146164 0.00196696)
(0.102273 -0.00130723 0.00180586)
(0.102263 -0.00116037 0.00165887)
(0.10225 -0.00103483 0.00155482)
(0.102238 -0.000928878 0.00148596)
(0.102226 -0.00083555 0.00144481)
(0.102212 -0.000752907 0.00142939)
(0.10219 -0.000676762 0.00144203)
(0.10215 -0.000604923 0.0014893)
(0.102081 -0.000538719 0.00158052)
(0.101973 -0.000479237 0.0017309)
(0.101833 -0.000419664 0.00192938)
(0.101972 -0.00035457 0.00208038)
(0.10014 -0.000775003 0.000869272)
(0.100454 -0.00196237 0.00196368)
(0.100911 -0.00242746 0.00233477)
(0.100978 -0.00252643 0.0024417)
(0.100693 -0.00242597 0.00233739)
(0.100223 -0.00219695 0.00211331)
(0.099707 -0.00191587 0.00182458)
(0.0991804 -0.0016646 0.00157793)
(0.0986834 -0.00146064 0.00139405)
(0.0982321 -0.00129214 0.00125731)
(0.0978323 -0.0011517 0.00115929)
(0.0974791 -0.00103264 0.00109358)
(0.0971673 -0.000927698 0.00105279)
(0.0968908 -0.000827538 0.00103221)
(0.0966416 -0.00072455 0.00103424)
(0.0964083 -0.000610428 0.00106591)
(0.0961776 -0.000471599 0.00113554)
(0.0959272 -0.000290724 0.00125644)
(0.0956343 -4.20643e-05 0.0014146)
(0.0956836 0.000235168 0.00155454)
(0.100226 -0.0007208 0.000720832)
(0.09996 -0.00198266 0.0019828)
(0.0997822 -0.00245171 0.00245206)
(0.098788 -0.00241939 0.00242)
(0.0972753 -0.00220044 0.00220141)
(0.0957744 -0.00181072 0.00181245)
(0.0943922 -0.0013811 0.00138395)
(0.0931627 -0.00106794 0.00107277)
(0.0920749 -0.000850183 0.000858514)
(0.0911115 -0.000695017 0.000709498)
(0.090257 -0.00057717 0.000603393)
(0.0894874 -0.000484233 0.000527581)
(0.0887833 -0.00041075 0.000477724)
(0.0881425 -0.000345949 0.000447768)
(0.0875652 -0.000271164 0.000435057)
(0.0870474 -0.000165157 0.000443226)
(0.086587 -9.36242e-06 0.000475215)
(0.08617 0.000249663 0.000518063)
(0.0857272 0.00074899 0.000477369)
(0.0855589 0.00171277 4.92847e-05)
(0.0999088 -0.000712544 0.001297)
(0.0969668 -0.00274719 0.00365597)
(0.0935346 -0.00211801 0.00264035)
(0.0895893 -0.00162035 0.00182068)
(0.0858321 -0.00139023 0.0015293)
(0.08259 -0.00116052 0.0013521)
(0.0798651 -0.000896033 0.00118088)
(0.0775669 -0.000690469 0.00104319)
(0.0755577 -0.000557723 0.0009474)
(0.073751 -0.000475158 0.000873618)
(0.0721017 -0.000423719 0.000806605)
(0.070582 -0.000389787 0.000742161)
(0.069173 -0.000367593 0.000687814)
(0.067861 -0.000355856 0.000649729)
(0.0666395 -0.000342931 0.000627029)
(0.0655238 -0.00029968 0.000615736)
(0.0645713 -0.00021688 0.000604816)
(0.0639165 7.94265e-06 0.000550239)
(0.0639828 0.000290051 0.00055682)
(0.0619195 0.000797989 0.000213839)
(0.099413 0.000270232 0.000345228)
(0.0988664 0.00187491 0.00201903)
(0.0979214 0.00218906 0.0025731)
(0.0963656 0.00190848 0.00237981)
(0.0946329 0.00162678 0.00211405)
(0.0929713 0.00141876 0.0019267)
(0.0913623 0.00127141 0.00180148)
(0.0898508 0.00116041 0.0017055)
(0.088449 0.00107056 0.00160495)
(0.0871485 0.000999486 0.00149454)
(0.0859406 0.000952393 0.00138398)
(0.084808 0.000927548 0.00127984)
(0.0837293 0.000920788 0.00118145)
(0.0826852 0.000929257 0.00108455)
(0.0816571 0.000954013 0.000984553)
(0.0806211 0.00100156 0.000875698)
(0.0795387 0.0010867 0.000749987)
(0.0783259 0.00123313 0.00059093)
(0.0768963 0.00142675 0.000374214)
(0.0754772 0.00247488 0.000321052)
(0.10014 0.000869273 0.000775002)
(0.100454 0.00196368 0.00196236)
(0.100911 0.00233477 0.00242745)
(0.100978 0.00244171 0.00252642)
(0.100693 0.00233741 0.00242596)
(0.100223 0.00211332 0.00219693)
(0.099707 0.00182459 0.00191584)
(0.0991804 0.00157795 0.00166457)
(0.0986834 0.00139408 0.0014606)
(0.0982321 0.00125734 0.00129208)
(0.0978323 0.00115934 0.00115164)
(0.0974791 0.00109364 0.00103256)
(0.0971673 0.00105287 0.000927612)
(0.0968908 0.00103228 0.000827394)
(0.0966416 0.00103429 0.000724346)
(0.0964083 0.00106597 0.000610174)
(0.0961777 0.00113555 0.000471237)
(0.0959274 0.00125632 0.000290163)
(0.0956345 0.00141424 4.11824e-05)
(0.0956837 0.00155386 -0.000236464)
(0.10006 0.000641439 0.000641375)
(0.100501 0.00164519 0.00164498)
(0.101149 0.00221271 0.0022123)
(0.101738 0.00244051 0.00243981)
(0.102205 0.00244277 0.00244164)
(0.102501 0.00231476 0.00231301)
(0.102645 0.00209459 0.00209168)
(0.102714 0.00187233 0.00186768)
(0.102739 0.00167646 0.00166884)
(0.102752 0.00151357 0.00150107)
(0.102771 0.00138069 0.00136028)
(0.102805 0.00127444 0.00124139)
(0.102857 0.00119217 0.0011389)
(0.102931 0.00113157 0.00104613)
(0.103028 0.0010914 0.000955632)
(0.103145 0.00107181 0.000858523)
(0.103283 0.00107356 0.000745069)
(0.10344 0.0010937 0.000607816)
(0.103615 0.00111541 0.000439721)
(0.103927 0.00109497 0.000300961)
(0.100046 0.00039574 0.000540223)
(0.10048 0.00104493 0.00138403)
(0.101154 0.00147549 0.00192284)
(0.101913 0.00170544 0.00219233)
(0.102632 0.00178044 0.00229368)
(0.103302 0.00174542 0.00227763)
(0.103894 0.00163516 0.00218466)
(0.104391 0.00149305 0.00205101)
(0.104819 0.00134744 0.0019027)
(0.105198 0.0012134 0.00176224)
(0.105543 0.00109583 0.00163797)
(0.105867 0.000995214 0.00153124)
(0.106181 0.000909231 0.00144065)
(0.106491 0.000834791 0.00136323)
(0.106803 0.000769133 0.00129516)
(0.107121 0.000710336 0.0012312)
(0.107448 0.000654386 0.00116701)
(0.107786 0.000595946 0.00110076)
(0.10814 0.000522999 0.00103737)
(0.108575 0.00042754 0.00101361)
(0.100039 0.000131321 0.000478758)
(0.100448 0.000350466 0.00123475)
(0.101114 0.000505026 0.00174642)
(0.101909 0.000597102 0.00202671)
(0.102729 0.000638432 0.00215188)
(0.10353 0.000638001 0.00218609)
(0.104298 0.000604083 0.00215276)
(0.105008 0.000558521 0.00207867)
(0.105645 0.000508882 0.00197982)
(0.106219 0.000459833 0.00187237)
(0.106742 0.00041389 0.00176808)
(0.107226 0.000371467 0.00167458)
(0.107679 0.000331797 0.00159744)
(0.108113 0.000292789 0.00153864)
(0.108535 0.000251427 0.00149633)
(0.108946 0.000206257 0.00146912)
(0.109349 0.000154258 0.00145601)
(0.109746 9.17863e-05 0.00145687)
(0.110147 1.50908e-05 0.00146975)
(0.110625 -6.16738e-05 0.00149541)
(0.100039 -0.000131363 0.000478779)
(0.100448 -0.000350576 0.00123481)
(0.101114 -0.000505221 0.00174654)
(0.101909 -0.000597428 0.00202694)
(0.102728 -0.000638991 0.00215233)
(0.103529 -0.000638916 0.00218683)
(0.104297 -0.000605641 0.0021539)
(0.105006 -0.000561059 0.00208038)
(0.105641 -0.000513095 0.00198248)
(0.106214 -0.000466905 0.00187666)
(0.106735 -0.000425584 0.00177523)
(0.107214 -0.000390206 0.00168664)
(0.107661 -0.000360764 0.00161767)
(0.108087 -0.000336994 0.00157152)
(0.108497 -0.000318848 0.00154726)
(0.108891 -0.000308756 0.00154466)
(0.10927 -0.000308123 0.00156737)
(0.109638 -0.000315278 0.00161632)
(0.110012 -0.000328341 0.00168065)
(0.110491 -0.000338932 0.00173145)
(0.100046 -0.00039572 0.000540279)
(0.10048 -0.00104487 0.00138421)
(0.101154 -0.00147538 0.00192318)
(0.101913 -0.00170531 0.00219295)
(0.102631 -0.00178017 0.00229473)
(0.103301 -0.00174495 0.00227934)
(0.103893 -0.00163436 0.00218733)
(0.104388 -0.00149179 0.00205539)
(0.104814 -0.00134539 0.00190949)
(0.10519 -0.0012104 0.0017729)
(0.10553 -0.00109141 0.00165532)
(0.105847 -0.000988378 0.00155945)
(0.10615 -0.000897708 0.00148698)
(0.106443 -0.000815957 0.00143836)
(0.106731 -0.000741255 0.00141444)
(0.107014 -0.000671004 0.00141816)
(0.107296 -0.000599987 0.00145337)
(0.107579 -0.000525021 0.00152002)
(0.107881 -0.000440178 0.00160753)
(0.108317 -0.000361801 0.00166672)
(0.10006 -0.000641376 0.000641438)
(0.100501 -0.00164499 0.00164519)
(0.101149 -0.00221231 0.0022127)
(0.101738 -0.00243982 0.0024405)
(0.102205 -0.00244166 0.00244276)
(0.102501 -0.00231303 0.00231475)
(0.102645 -0.00209171 0.00209457)
(0.102714 -0.00186771 0.0018723)
(0.102739 -0.00166888 0.00167643)
(0.102752 -0.00150112 0.00151354)
(0.102771 -0.00136035 0.00138065)
(0.102805 -0.00124147 0.00127439)
(0.102857 -0.001139 0.00119211)
(0.102931 -0.00104626 0.00113151)
(0.103028 -0.000955823 0.00109135)
(0.103145 -0.000858781 0.00107178)
(0.103283 -0.00074543 0.00107357)
(0.10344 -0.000608316 0.00109378)
(0.103615 -0.000440327 0.00111552)
(0.103927 -0.000301297 0.00109469)
(0.10014 -0.000869227 0.000775038)
(0.100454 -0.00196347 0.00196247)
(0.100911 -0.00233429 0.00242766)
(0.100978 -0.0024409 0.00252686)
(0.100694 -0.00233622 0.00242671)
(0.100225 -0.00211173 0.00219825)
(0.0997096 -0.0018221 0.00191791)
(0.099185 -0.00157352 0.00166767)
(0.0986913 -0.00138648 0.00146596)
(0.098246 -0.00124462 0.0013015)
(0.0978563 -0.00113791 0.00116697)
(0.0975198 -0.00105805 0.00105812)
(0.0972333 -0.000994032 0.000970189)
(0.0969956 -0.00093611 0.000898572)
(0.0968079 -0.000876863 0.00083869)
(0.0966713 -0.0008032 0.000783383)
(0.0965858 -0.000691391 0.000722013)
(0.0965427 -0.000515734 0.000644484)
(0.0964893 -0.000250534 0.000509321)
(0.0965872 8.9949e-05 0.000206166)
(0.099413 -0.000270225 0.000345246)
(0.0988664 -0.00187484 0.00201912)
(0.0979217 -0.00218881 0.00257328)
(0.0963663 -0.00190807 0.00238014)
(0.0946342 -0.00162619 0.00211457)
(0.0929737 -0.00141791 0.00192755)
(0.0913667 -0.00127001 0.00180273)
(0.0898585 -0.00115805 0.00170755)
(0.0884625 -0.00106673 0.0016084)
(0.0871713 -0.000993153 0.00150025)
(0.0859791 -0.000942378 0.00139342)
(0.0848737 -0.000910088 0.00129497)
(0.0838402 -0.000890391 0.0012046)
(0.0828721 -0.000876912 0.00111815)
(0.0819722 -0.000862469 0.00103066)
(0.0811603 -0.000831967 0.000932063)
(0.0804815 -0.000772075 0.000802448)
(0.0799971 -0.000625222 0.000601088)
(0.07978 -0.000369665 0.000204995)
(0.0790931 0.000200761 -0.000978496)
(0.0995405 0.000321897 0.000245047)
(0.0992576 0.00154091 0.00105564)
(0.0988489 0.00211448 0.00150238)
(0.0981247 0.00209169 0.00157949)
(0.0973365 0.00188626 0.00151499)
(0.0965843 0.00166609 0.00144676)
(0.0958641 0.00149826 0.0014107)
(0.0951954 0.00137204 0.00137986)
(0.0945646 0.00128618 0.00133486)
(0.0939157 0.0012326 0.00126453)
(0.0932806 0.00119868 0.0011758)
(0.092655 0.00118159 0.00108151)
(0.0920261 0.0011786 0.000992859)
(0.0913804 0.00119072 0.000915004)
(0.0907003 0.00122206 0.000849178)
(0.0899596 0.00128126 0.000794822)
(0.0891131 0.00138538 0.000761567)
(0.0880979 0.0015598 0.000761015)
(0.086815 0.00182939 0.000828378)
(0.0854576 0.00216183 0.00109757)
(0.100093 0.000763205 0.000445936)
(0.100504 0.00174903 0.00119451)
(0.101105 0.00212963 0.00158686)
(0.101634 0.00223499 0.00174054)
(0.101979 0.0022877 0.00178249)
(0.10217 0.00223688 0.00172941)
(0.102251 0.0021174 0.00160883)
(0.102273 0.00196697 0.0014616)
(0.102273 0.00180588 0.00130719)
(0.102263 0.00165889 0.00116032)
(0.10225 0.00155485 0.00103476)
(0.102238 0.001486 0.000928798)
(0.102226 0.00144486 0.000835454)
(0.102212 0.00142942 0.000752768)
(0.10219 0.00144206 0.000676573)
(0.10215 0.00148932 0.000604691)
(0.102081 0.00158049 0.00053841)
(0.101973 0.00173076 0.000478806)
(0.101833 0.00192899 0.000419034)
(0.101972 0.0020795 0.000353609)
(0.100046 0.00054028 0.000395719)
(0.10048 0.00138421 0.00104487)
(0.101154 0.00192319 0.00147537)
(0.101913 0.00219296 0.0017053)
(0.102631 0.00229474 0.00178015)
(0.103301 0.00227935 0.00174493)
(0.103893 0.00218735 0.00163433)
(0.104388 0.00205541 0.00149175)
(0.104814 0.00190951 0.00134535)
(0.10519 0.00177294 0.00121035)
(0.10553 0.00165536 0.00109134)
(0.105847 0.00155949 0.000988296)
(0.10615 0.00148703 0.000897603)
(0.106443 0.00143841 0.000815816)
(0.106731 0.00141448 0.000741071)
(0.107014 0.00141819 0.000670776)
(0.107296 0.00145337 0.000599706)
(0.107579 0.00151999 0.000524678)
(0.10788 0.00160746 0.000439796)
(0.108316 0.00166669 0.00036149)
(0.100036 0.000323175 0.00032313)
(0.100429 0.000868765 0.000868634)
(0.10108 0.00126256 0.00126232)
(0.101891 0.00150466 0.00150424)
(0.102756 0.00162204 0.00162136)
(0.103616 0.00164346 0.00164241)
(0.104446 0.00160574 0.00160415)
(0.105223 0.00152804 0.00152557)
(0.105938 0.00142947 0.00142564)
(0.106593 0.00132611 0.00132012)
(0.107197 0.00122873 0.0012193)
(0.10776 0.00114278 0.00112787)
(0.10829 0.00107044 0.0010469)
(0.108797 0.00101241 0.000975649)
(0.109286 0.000968783 0.000912604)
(0.109766 0.000939337 0.000856145)
(0.110243 0.000923808 0.000803795)
(0.110723 0.000920652 0.000751998)
(0.111222 0.000921159 0.000702456)
(0.111785 0.000905016 0.000668983)
(0.100031 0.000107083 0.000281373)
(0.100395 0.000293068 0.000768605)
(0.101024 0.000434122 0.00113302)
(0.101844 0.000526302 0.00136912)
(0.102751 0.000576472 0.00150131)
(0.103689 0.000591942 0.00155405)
(0.104618 0.000582643 0.00154901)
(0.105516 0.000558124 0.00150802)
(0.106367 0.000524603 0.00144427)
(0.107164 0.00048762 0.00136799)
(0.107908 0.000451478 0.0012878)
(0.108601 0.000418616 0.00121027)
(0.109252 0.000390075 0.00113988)
(0.109869 0.000365791 0.00107928)
(0.110461 0.000344608 0.00103009)
(0.111034 0.000324761 0.000993221)
(0.111596 0.00030504 0.000967855)
(0.112154 0.000283773 0.000951597)
(0.112723 0.000259903 0.000940418)
(0.113337 0.000231159 0.000933785)
(0.100031 -0.000107086 0.000281394)
(0.100395 -0.000293066 0.000768668)
(0.101024 -0.000434113 0.00113315)
(0.101843 -0.000526284 0.00136936)
(0.102751 -0.000576434 0.00150171)
(0.103688 -0.000591864 0.00155465)
(0.104617 -0.000582514 0.00154987)
(0.105515 -0.000558011 0.00150927)
(0.106366 -0.000524593 0.00144618)
(0.107163 -0.000487789 0.00137095)
(0.107905 -0.000451838 0.00129245)
(0.108597 -0.000419027 0.00121754)
(0.109247 -0.000390127 0.0011512)
(0.109862 -0.000364932 0.00109681)
(0.110452 -0.000342726 0.0010571)
(0.111021 -0.000323417 0.00103342)
(0.111578 -0.000307236 0.00102563)
(0.112127 -0.000293973 0.00103123)
(0.112687 -0.000283044 0.00104178)
(0.113304 -0.000275574 0.00104152)
(0.100036 -0.000323132 0.000323173)
(0.100429 -0.000868639 0.000868761)
(0.10108 -0.00126233 0.00126256)
(0.101891 -0.00150425 0.00150465)
(0.102756 -0.00162137 0.00162202)
(0.103616 -0.00164243 0.00164344)
(0.104446 -0.00160418 0.00160572)
(0.105223 -0.0015256 0.00152802)
(0.105938 -0.00142568 0.00142944)
(0.106593 -0.00132017 0.00132607)
(0.107197 -0.00121936 0.00122869)
(0.10776 -0.00112794 0.00114273)
(0.10829 -0.001047 0.00107039)
(0.108797 -0.000975774 0.00101234)
(0.109286 -0.000912759 0.00096871)
(0.109766 -0.000856332 0.000939247)
(0.110243 -0.000804013 0.000923693)
(0.110723 -0.000752242 0.000920496)
(0.111222 -0.000702697 0.000920921)
(0.111786 -0.000669142 0.000904597)
(0.100046 -0.000540224 0.000395738)
(0.10048 -0.00138404 0.00104493)
(0.101154 -0.00192285 0.00147548)
(0.101913 -0.00219234 0.00170544)
(0.102632 -0.00229369 0.00178043)
(0.103302 -0.00227765 0.00174541)
(0.103894 -0.00218468 0.00163514)
(0.104391 -0.00205104 0.00149303)
(0.104819 -0.00190274 0.00134741)
(0.105198 -0.00176228 0.00121336)
(0.105543 -0.00163803 0.00109579)
(0.105867 -0.00153131 0.000995163)
(0.106181 -0.00144074 0.000909171)
(0.106491 -0.00136336 0.000834727)
(0.106803 -0.00129533 0.000769066)
(0.107121 -0.00123142 0.000710266)
(0.107448 -0.0011673 0.000654308)
(0.107786 -0.00110114 0.000595855)
(0.10814 -0.00103783 0.000522853)
(0.108575 -0.00101405 0.000427204)
(0.100093 -0.000763192 0.000445931)
(0.100504 -0.00174899 0.0011945)
(0.101105 -0.00212947 0.00158682)
(0.101635 -0.00223444 0.00174043)
(0.10198 -0.00228661 0.00178227)
(0.102173 -0.00223528 0.00172905)
(0.102254 -0.00211498 0.0016081)
(0.10228 -0.00196328 0.00146029)
(0.102283 -0.00180034 0.00130512)
(0.102279 -0.00165 0.00115627)
(0.102277 -0.00153927 0.00102764)
(0.102285 -0.00145941 0.000917269)
(0.102304 -0.00140013 0.000819491)
(0.102336 -0.00135469 0.000727571)
(0.102385 -0.00131698 0.000632302)
(0.102452 -0.00127959 0.000527804)
(0.102537 -0.00123372 0.00040343)
(0.102633 -0.0011724 0.000246221)
(0.102728 -0.00110078 4.26472e-05)
(0.102929 -0.00106788 -0.000200012)
(0.0995405 -0.000321897 0.000245033)
(0.0992576 -0.00154091 0.00105557)
(0.0988491 -0.00211437 0.00150225)
(0.0981252 -0.00209149 0.00157926)
(0.0973379 -0.00188593 0.00151443)
(0.0965868 -0.00166559 0.00144561)
(0.0958687 -0.00149766 0.00140863)
(0.0952032 -0.00137102 0.00137642)
(0.0945783 -0.00128388 0.00132878)
(0.0939392 -0.00122745 0.00125473)
(0.0933205 -0.00118873 0.00116038)
(0.0927223 -0.00116313 0.00105694)
(0.0921391 -0.00114802 0.000951537)
(0.0915691 -0.00114014 0.000844156)
(0.0910129 -0.00113348 0.000729839)
(0.0904735 -0.00112012 0.000586505)
(0.0899572 -0.00109177 0.000393565)
(0.0894748 -0.00104153 0.000110345)
(0.0890339 -0.000979042 -0.000307227)
(0.0884852 -0.000979908 -0.000916253)
(0.0993802 5.90011e-05 3.37915e-05)
(0.0992677 0.00120005 0.000274463)
(0.0989805 0.00188845 0.000432523)
(0.0984747 0.0020064 0.000483708)
(0.0979957 0.00191459 0.00047924)
(0.0975711 0.00173467 0.00046618)
(0.0971814 0.00154719 0.000453983)
(0.0968315 0.00138848 0.000444246)
(0.0965311 0.00127015 0.000439385)
(0.0962759 0.00120002 0.00043367)
(0.0960001 0.00117358 0.000420077)
(0.0957033 0.00117317 0.000402099)
(0.0953823 0.0011854 0.000386976)
(0.0950222 0.0012085 0.00038163)
(0.0946107 0.00125086 0.000396844)
(0.0941359 0.001318 0.000441477)
(0.0935803 0.00141373 0.000537875)
(0.0929253 0.00155378 0.000685871)
(0.0921011 0.00173487 0.00093137)
(0.0911447 0.00182847 0.00152648)
(0.100087 0.000707015 0.000144424)
(0.100477 0.00161778 0.000390607)
(0.101066 0.00203462 0.000541308)
(0.101694 0.00211762 0.000610494)
(0.102269 0.00215025 0.000636637)
(0.102742 0.00217998 0.000627902)
(0.103123 0.00213448 0.00059659)
(0.103427 0.00204505 0.000552244)
(0.103678 0.00193649 0.000508907)
(0.103895 0.00183212 0.000469779)
(0.10409 0.00173644 0.00043243)
(0.104275 0.0016548 0.000398733)
(0.104448 0.00160372 0.000372848)
(0.104601 0.00158651 0.000356935)
(0.104732 0.00159417 0.000353291)
(0.104844 0.00162327 0.000367889)
(0.104932 0.00168734 0.000406908)
(0.104992 0.00179006 0.000476585)
(0.105035 0.00192104 0.000581579)
(0.105236 0.00201222 0.000709508)
(0.100039 0.00047878 0.000131361)
(0.100448 0.00123481 0.000350571)