/*--------------------------------*- C++ -*----------------------------------*\
| =========                 |                                                 |
| \\      /  F ield         | OpenFOAM: The Open Source CFD Toolbox           |
|  \\    /   O peration     | Version:  2212                                  |
|   \\  /    A nd           | Website:  www.openfoam.com                      |
|    \\/     M anipulation  |                                                 |
\*---------------------------------------------------------------------------*/
FoamFile
{
    version     2.0;
    format      ascii;
    arch        "LSB;label=32;scalar=64";
    class       surfaceVectorField;
    location    "1.25";
    object      Uf;
}
// * * * * * * * * * * * * * * * * * * * * * * * * * * * * * * * * * * * * * //

dimensions      [0 1 -1 0 0 0 0];

internalField   nonuniform List<vector> 
19019
(
(0.0993441 -0.00341899 -0.00341904)
(0.0973536 0.00106248 -0.00148428)
(0.0973536 -0.00148427 0.00106247)
(0.0834792 0.00197595 0.00197582)
(0.0930872 0.00326905 0.00253343)
(0.0930872 0.00253352 0.00326893)
(0.0745171 0.00195888 0.0019586)
(0.084864 0.00163595 0.00179228)
(0.084864 0.00179246 0.00163573)
(0.0685477 0.00115937 0.00115883)
(0.0786281 0.00107372 0.00122123)
(0.078628 0.0012216 0.00107331)
(0.064236 0.000697502 0.000696568)
(0.074053 0.000785759 0.0008649)
(0.0740528 0.000865524 0.000784927)
(0.0607564 0.00049583 0.000493966)
(0.0704425 0.000651204 0.000668962)
(0.0704421 0.00067002 0.000649867)
(0.0579368 0.00037669 0.000373183)
(0.0674917 0.000548079 0.000507875)
(0.067491 0.000510011 0.000545364)
(0.0556131 0.000291112 0.000285242)
(0.0650509 0.000471195 0.000386371)
(0.0650497 0.000389956 0.000466461)
(0.0536232 0.000232162 0.000222521)
(0.0629661 0.000419136 0.000306118)
(0.0629639 0.000311973 0.000411117)
(0.0518773 0.000191777 0.000175601)
(0.0611319 0.00037927 0.000252156)
(0.061128 0.000261788 0.00036571)
(0.050326 0.000165489 0.000138376)
(0.0594891 0.000345592 0.000214427)
(0.0594821 0.000231598 0.000322504)
(0.0489369 0.000149764 0.000105945)
(0.0580042 0.000317687 0.000186505)
(0.0579913 0.000215466 0.000279141)
(0.0476792 0.000142467 7.37679e-05)
(0.0566503 0.000298972 0.00016462)
(0.0566273 0.000208377 0.000236066)
(0.0465305 0.000144134 3.82227e-05)
(0.0554049 0.000292 0.000146055)
(0.0553656 0.000207498 0.000189171)
(0.0454904 0.000158388 3.24457e-06)
(0.0542585 0.000296958 0.000123987)
(0.0541921 0.000213837 0.000128441)
(0.044567 0.000194929 -5.63777e-05)
(0.0532211 0.000315492 9.32768e-05)
(0.0531062 0.00023094 4.79869e-05)
(0.0437927 0.000257882 -0.000182781)
(0.0523291 0.000365568 2.16531e-05)
(0.0521172 0.000278992 -7.75727e-05)
(0.0433369 0.000331292 -0.000408302)
(0.0516827 0.00045493 -0.000128891)
(0.0512634 0.000338048 -0.000304162)
(0.043624 -0.000325929 -0.00163045)
(0.0516692 0.000627082 -0.000339343)
(0.0507648 0.000337696 -0.000797889)
(0.0501678 -9.44164e-05 -0.00169274)
(0.0495964 -0.000854933 -0.00324382)
(0.0984572 0.00247649 0.00172987)
(0.0996871 0.000439246 0.000345476)
(0.100049 0.00105639 0.000750958)
(0.0958348 0.00314817 0.0024326)
(0.0978161 0.00273288 0.00228224)
(0.0982936 0.00280928 0.00216141)
(0.09145 0.00223052 0.00186918)
(0.095496 0.00300184 0.00230301)
(0.0963039 0.00244278 0.00199769)
(0.0875952 0.00167501 0.00150528)
(0.0926193 0.0022996 0.0018386)
(0.0936668 0.00198096 0.0017268)
(0.0841476 0.00144072 0.00127536)
(0.0897675 0.00189234 0.00153542)
(0.0909045 0.00172013 0.00149759)
(0.0811877 0.00126652 0.00102826)
(0.0872326 0.0016572 0.00129431)
(0.0884342 0.00145517 0.00121129)
(0.0787012 0.00111207 0.000793234)
(0.0850075 0.00149321 0.00107665)
(0.0863045 0.00118452 0.000907957)
(0.0765567 0.000995333 0.000624076)
(0.0830625 0.0013735 0.000912527)
(0.08448 0.000984823 0.00068968)
(0.0746512 0.000910556 0.000516416)
(0.0813274 0.00128175 0.000800467)
(0.0828792 0.000848309 0.000546935)
(0.0729239 0.000840169 0.000449407)
(0.0797512 0.00119932 0.000724543)
(0.0814463 0.000749818 0.000452469)
(0.0713393 0.000774453 0.000406714)
(0.0783063 0.00112083 0.000675868)
(0.0801494 0.000671522 0.000385762)
(0.0698759 0.000715075 0.000378644)
(0.0769719 0.00104644 0.000644716)
(0.0789622 0.000606101 0.000335183)
(0.0685166 0.000668889 0.000361685)
(0.0757308 0.000978011 0.000624415)
(0.0778656 0.000556534 0.000296738)
(0.0672491 0.000638528 0.000349356)
(0.0745726 0.000917274 0.000611495)
(0.0768512 0.000523865 0.000265702)
(0.0660745 0.00062155 0.000321243)
(0.0734949 0.000865069 0.000597661)
(0.0759152 0.000506587 0.000227637)
(0.0650265 0.000610443 0.000258175)
(0.0725151 0.000819219 0.000561828)
(0.0750647 0.000504596 0.000158074)
(0.064183 0.000577688 0.0001043)
(0.0716851 0.00075901 0.0004907)
(0.0743304 0.00051115 3.925e-05)
(0.0638097 0.000553708 -0.000149211)
(0.0711067 0.000614515 0.000291135)
(0.0737813 0.000493588 -0.000215288)
(0.0644479 0.000385428 -0.000544436)
(0.0710468 0.000317724 -2.74771e-05)
(0.0736224 0.000408686 -0.000759517)
(0.069599 -0.000724322 -0.000690199)
(0.0723993 -0.000358723 -0.00237872)
(0.0993753 0.00118218 0.00107253)
(0.099473 0.00034977 0.000307055)
(0.0997475 0.000611 0.000779864)
(0.0984949 0.0022962 0.00203182)
(0.0990504 0.00157687 0.00172043)
(0.0995971 0.00201839 0.0020028)
(0.0971415 0.00247672 0.00204843)
(0.0983579 0.00213123 0.00216876)
(0.0992973 0.00246169 0.00210225)
(0.0954398 0.00224737 0.00176712)
(0.0971936 0.00203601 0.00200223)
(0.0984885 0.00237477 0.00190234)
(0.0937515 0.00202108 0.00152204)
(0.0959059 0.00185594 0.00175408)
(0.0974226 0.00218134 0.00168828)
(0.0921395 0.00186517 0.00134395)
(0.0946732 0.00173315 0.00154222)
(0.0963102 0.00198546 0.00150765)
(0.0906038 0.00175517 0.00121401)
(0.0934843 0.00165337 0.0013858)
(0.0952057 0.00180278 0.00134169)
(0.0891553 0.00165801 0.00111237)
(0.0923724 0.00157783 0.00126451)
(0.09415 0.00164649 0.00120208)
(0.0878108 0.00155437 0.00102992)
(0.0913391 0.00148294 0.00117031)
(0.0931692 0.0015078 0.00109306)
(0.0865722 0.00144689 0.000967735)
(0.0903546 0.00137337 0.00110056)
(0.0922673 0.00137995 0.0010094)
(0.0854254 0.00134426 0.000926195)
(0.0894322 0.00126332 0.00105324)
(0.0914443 0.00126532 0.000949845)
(0.0843558 0.00124985 0.00090019)
(0.0885655 0.00115659 0.00102265)
(0.0906928 0.00116583 0.000908534)
(0.0833538 0.00116146 0.000883593)
(0.0877437 0.00105458 0.00100398)
(0.090003 0.00107945 0.000878259)
(0.0824185 0.00107451 0.00086963)
(0.0869629 0.000954987 0.000992332)
(0.089371 0.00100218 0.000852381)
(0.0815602 0.000981483 0.000847141)
(0.0862248 0.000850804 0.000980544)
(0.0887989 0.000929265 0.000823669)
(0.0808124 0.00086737 0.000801896)
(0.0855411 0.000722361 0.000955935)
(0.0882978 0.00085155 0.000776603)
(0.0802307 0.000701854 0.000698434)
(0.0849388 0.000545584 0.000906607)
(0.0878921 0.000752288 0.000689219)
(0.0798735 0.000402995 0.000497074)
(0.0844555 0.00028093 0.000799079)
(0.0876108 0.000603444 0.000513829)
(0.0798246 -0.000387202 8.3821e-05)
(0.0841335 -0.000117091 0.000636182)
(0.0874693 0.000319086 0.000225562)
(0.0835118 -0.00101317 0.000338431)
(0.0871436 -0.000481634 -0.000315179)
(0.0996493 0.000650304 0.000931405)
(0.0994625 0.000129368 0.000192497)
(0.0997993 0.000375131 0.000741355)
(0.0990855 0.00127892 0.00182764)
(0.0992626 0.000636844 0.0013706)
(0.099841 0.00115039 0.00181419)
(0.0984495 0.00154077 0.00210292)
(0.098913 0.000973344 0.00200349)
(0.0999049 0.00153652 0.00209005)
(0.0977082 0.00154686 0.0019887)
(0.0982954 0.0010499 0.00205051)
(0.0997677 0.00163172 0.00202278)
(0.0969406 0.00148004 0.00177575)
(0.0976581 0.00100721 0.00189942)
(0.0995102 0.0016096 0.00189525)
(0.0962099 0.00142715 0.00158161)
(0.0970661 0.000959508 0.00169799)
(0.0992009 0.00154759 0.00175106)
(0.0955259 0.00139255 0.00143433)
(0.0965081 0.000932148 0.00152027)
(0.0988571 0.00147463 0.00162495)
(0.0948788 0.00135263 0.00132744)
(0.0959969 0.000914813 0.00137845)
(0.0985149 0.00139291 0.00151368)
(0.0942482 0.0012918 0.00125565)
(0.0955309 0.00089885 0.00127722)
(0.0981842 0.00129943 0.00141747)
(0.0936279 0.0012076 0.00120807)
(0.0950805 0.000863553 0.00121446)
(0.0978421 0.00119417 0.00133947)
(0.093022 0.00110872 0.0011759)
(0.0946319 0.000801555 0.00118046)
(0.0975121 0.00108664 0.00128389)
(0.092431 0.00100431 0.00115554)
(0.094186 0.000727034 0.00116489)
(0.0971975 0.000982038 0.00124511)
(0.0918535 0.000897924 0.00114403)
(0.0937399 0.000648102 0.00115975)
(0.0968964 0.000881689 0.00121804)
(0.0912901 0.000787087 0.00113675)
(0.0932881 0.000563272 0.00116144)
(0.0966083 0.000782679 0.00119922)
(0.0907423 0.000658271 0.00112671)
(0.0928281 0.000468621 0.00116839)
(0.0963351 0.000678247 0.00118367)
(0.0902157 0.000490134 0.0011058)
(0.0923599 0.000346414 0.00117727)
(0.0960797 0.000553933 0.001164)
(0.0897192 0.000252041 0.00106642)
(0.0918853 0.000177408 0.00118433)
(0.0958447 0.000393767 0.00113147)
(0.089258 -9.83882e-05 0.00100994)
(0.0914035 -6.6339e-05 0.00118651)
(0.0956331 0.000169955 0.00107863)
(0.0888167 -0.000611764 0.000978927)
(0.0909035 -0.000397868 0.00119286)
(0.0954432 -0.000147495 0.00101181)
(0.0903133 -0.000882995 0.00126145)
(0.0952454 -0.000586427 0.000988949)
(0.0996725 0.00015402 0.000629476)
(0.0993802 -1.84892e-08 5.89749e-05)
(0.0997132 0.000103905 0.000687942)
(0.0991592 0.000353209 0.00154421)
(0.0992678 -8.91243e-08 0.00120003)
(0.0998377 0.00034157 0.00162227)
(0.0986639 0.000457578 0.00194738)
(0.0989805 -2.09098e-07 0.00188843)
(0.0999632 0.000485328 0.00199134)
(0.0982128 0.000480535 0.00196037)
(0.0984749 -3.76749e-07 0.00200636)
(0.0999921 0.000539362 0.0019965)
(0.0977774 0.000471048 0.00182434)
(0.097996 -6.49407e-07 0.0019145)
(0.10001 0.000545895 0.00191071)
(0.0973647 0.000457101 0.00164044)
(0.0975717 -1.13864e-06 0.00173447)
(0.100009 0.000532555 0.00180368)
(0.0969979 0.000443887 0.00146705)
(0.0971823 -2.01672e-06 0.00154689)
(0.0999833 0.000509818 0.00168194)
(0.0966797 0.000432858 0.00132788)
(0.0968332 -3.4605e-06 0.00138798)
(0.0999426 0.000482202 0.00157107)
(0.0964027 0.000421382 0.00123244)
(0.096534 -5.89334e-06 0.0012692)
(0.0999044 0.000456249 0.0014789)
(0.0961425 0.000401544 0.00118219)
(0.0962808 -9.90665e-06 0.00119831)
(0.0998751 0.000428906 0.00141447)
(0.0958727 0.000369127 0.0011656)
(0.0960084 -1.65096e-05 0.00117067)
(0.0998268 0.000393396 0.00137345)
(0.0955828 0.000325353 0.00116625)
(0.0957174 -2.73334e-05 0.0011683)
(0.0997664 0.000349711 0.00134454)
(0.0952682 0.000270592 0.001175)
(0.0954063 -4.51839e-05 0.00117723)
(0.0996948 0.000299906 0.00132716)
(0.0949248 0.000204071 0.00119169)
(0.0950627 -7.41434e-05 0.00119471)
(0.0996041 0.000241976 0.00132335)
(0.0945494 0.000119183 0.00121879)
(0.0946777 -0.000119657 0.00122664)
(0.0994921 0.000172179 0.00133313)
(0.0941363 -5.04267e-07 0.00125749)
(0.0942438 -0.000192552 0.00127657)
(0.0993586 8.13941e-05 0.00135375)
(0.0936801 -0.000176373 0.00130822)
(0.0937506 -0.000313198 0.0013468)
(0.0992001 -4.41161e-05 0.00138663)
(0.0931655 -0.000427096 0.00137323)
(0.0931824 -0.000493008 0.00144523)
(0.0990093 -0.000220865 0.00143275)
(0.0925825 -0.000795426 0.00147477)
(0.092489 -0.00075429 0.00157245)
(0.0987711 -0.000459849 0.0014941)
(0.0916937 -0.00124568 0.00168429)
(0.0985431 -0.000788067 0.00160635)
(0.0996725 -0.000154129 0.000629524)
(0.0994625 -0.000129407 0.000192526)
(0.0997132 -0.000103951 0.000687946)
(0.0991591 -0.000353496 0.00154424)
(0.0992625 -0.00063699 0.00137062)
(0.0998377 -0.000341753 0.00162229)
(0.0986637 -0.000458121 0.00194742)
(0.0989129 -0.000973616 0.00200356)
(0.0999631 -0.000485687 0.00199134)
(0.0982124 -0.000481483 0.00196049)
(0.0982949 -0.00105037 0.00205065)
(0.0999919 -0.000539995 0.00199655)
(0.0977766 -0.000472722 0.00182463)
(0.0976572 -0.00100809 0.00189967)
(0.100009 -0.000547034 0.00191092)
(0.0973632 -0.000460098 0.00164092)
(0.0970643 -0.000961158 0.00169844)
(0.100008 -0.000534587 0.00180412)
(0.0969954 -0.000449136 0.00146783)
(0.0965049 -0.000935157 0.00152086)
(0.0999815 -0.000513335 0.0016826)
(0.0966752 -0.000441844 0.00132931)
(0.0959912 -0.000920029 0.00137947)
(0.0999395 -0.000488166 0.00157217)
(0.0963952 -0.000436563 0.00123508)
(0.0955211 -0.000907894 0.00127937)
(0.0998992 -0.000466427 0.00148083)
(0.0961296 -0.00042692 0.00118679)
(0.0950637 -0.000878543 0.00121884)
(0.0998665 -0.000446268 0.00141776)
(0.0958508 -0.000411147 0.00117337)
(0.0946035 -0.000826022 0.00118852)
(0.0998126 -0.000422613 0.00137883)
(0.0955454 -0.000394611 0.00117928)
(0.0941378 -0.000766839 0.00117931)
(0.0997427 -0.000397993 0.00135363)
(0.0952049 -0.000384393 0.00119694)
(0.0936587 -0.000713817 0.0011837)
(0.0996546 -0.000378201 0.00134293)
(0.0948191 -0.000389345 0.00122967)
(0.0931519 -0.000672491 0.0012013)
(0.0995363 -0.000368082 0.00135038)
(0.0943764 -0.000419294 0.00128443)
(0.0926025 -0.000648595 0.00123829)
(0.0993802 -0.000374596 0.00137924)
(0.093861 -0.000489846 0.00136589)
(0.0919911 -0.000647502 0.00130196)
(0.0991822 -0.000405247 0.00143101)
(0.093251 -0.000612096 0.00148381)
(0.0912861 -0.000687338 0.00140319)
(0.0989298 -0.000474755 0.0015138)
(0.0925185 -0.000808899 0.00164446)
(0.0904461 -0.00077834 0.00156317)
(0.0986119 -0.000586027 0.00163863)
(0.091655 -0.00122932 0.00178198)
(0.0893863 -0.000967875 0.00179399)
(0.0981964 -0.000765439 0.00179765)
(0.0882238 -0.00144916 0.0020167)
(0.0977853 -0.00114111 0.00190127)
(0.0996493 -0.000650344 0.000931405)
(0.099473 -0.000349764 0.000307059)
(0.0997993 -0.000375139 0.000741352)
(0.0990854 -0.00127901 0.0018277)
(0.0990504 -0.00157684 0.00172047)
(0.0998409 -0.00115043 0.00181419)
(0.0984491 -0.00154095 0.00210309)
(0.0983576 -0.00213118 0.00216894)
(0.0999046 -0.0015366 0.00209014)
(0.0977073 -0.00154725 0.00198897)
(0.097193 -0.00203592 0.00200254)
(0.0997671 -0.00163189 0.00202309)
(0.0969387 -0.00148089 0.00177617)
(0.0959046 -0.00185592 0.00175455)
(0.099509 -0.00160999 0.00189586)
(0.0962065 -0.00142875 0.00158217)
(0.0946707 -0.0017333 0.00154292)
(0.0991986 -0.00154836 0.00175199)
(0.0955199 -0.00139531 0.00143514)
(0.0934798 -0.00165377 0.00138685)
(0.098853 -0.00147605 0.00162628)
(0.0948682 -0.0013574 0.0013291)
(0.0923647 -0.00157843 0.00126626)
(0.0985078 -0.00139534 0.00151582)
(0.0942299 -0.00129974 0.00125938)
(0.0913255 -0.001484 0.00117343)
(0.0981722 -0.0013036 0.00142108)
(0.0935967 -0.00122022 0.00121562)
(0.0903315 -0.00137504 0.00110635)
(0.097822 -0.00120117 0.0013457)
(0.0929692 -0.00112873 0.00119012)
(0.089393 -0.00126593 0.00106331)
(0.0974782 -0.00109791 0.00129482)
(0.0923422 -0.00103728 0.00118007)
(0.0884989 -0.00116087 0.00104076)
(0.0971399 -0.00100004 0.0012645)
(0.0917053 -0.000954041 0.00118463)
(0.0876318 -0.00106294 0.00103476)
(0.0967997 -0.000910564 0.00125165)
(0.0910439 -0.000882222 0.00120635)
(0.0867751 -0.000972252 0.00104426)
(0.0964497 -0.000831534 0.00125711)
(0.0903352 -0.000822168 0.00125163)
(0.0859107 -0.000885273 0.00107136)
(0.0960776 -0.000761703 0.00128449)
(0.0895439 -0.000778426 0.00133332)
(0.0850136 -0.000795856 0.00112289)
(0.0956648 -0.000699909 0.00134235)
(0.0886154 -0.00076161 0.00147264)
(0.0840421 -0.000705664 0.00121504)
(0.0951819 -0.000652231 0.00144609)
(0.0874737 -0.000795134 0.00169478)
(0.0829222 -0.000613444 0.0013728)
(0.0945913 -0.00062581 0.00161907)
(0.0860195 -0.000963612 0.00199602)
(0.0815615 -0.000542199 0.00160518)
(0.0938435 -0.000636372 0.00187044)
(0.0801709 -0.000703821 0.00233206)
(0.0931863 -0.000755964 0.00215766)
(0.0993753 -0.00118213 0.00107257)
(0.0996871 -0.000439222 0.000345487)
(0.0997475 -0.000610972 0.000779887)
(0.0984947 -0.00229607 0.00203198)
(0.0978161 -0.00273274 0.00228232)
(0.099597 -0.00201829 0.00200293)
(0.097141 -0.00247646 0.00204877)
(0.0954959 -0.00300162 0.00230322)
(0.0992971 -0.00246148 0.00210257)
(0.0954389 -0.00224694 0.00176763)
(0.0926188 -0.00229921 0.001839)
(0.0984879 -0.00237438 0.0019029)
(0.0937496 -0.00202039 0.00152276)
(0.0897667 -0.0018916 0.00153599)
(0.0974215 -0.0021807 0.00168912)
(0.0921361 -0.00186411 0.00134508)
(0.087231 -0.00165596 0.00129522)
(0.0963082 -0.00198439 0.00150884)
(0.0905978 -0.00175352 0.0012159)
(0.0850047 -0.00149109 0.00107816)
(0.0952021 -0.00180115 0.00134359)
(0.0891449 -0.00165526 0.00111547)
(0.0830574 -0.00136998 0.000915034)
(0.0941437 -0.00164394 0.00120535)
(0.087793 -0.00154979 0.001035)
(0.0813183 -0.00127581 0.000804642)
(0.0931583 -0.00150343 0.00109844)
(0.086542 -0.00143931 0.000975909)
(0.0797357 -0.0011892 0.000731557)
(0.0922485 -0.00137245 0.00101835)
(0.0853742 -0.00133198 0.000939933)
(0.0782794 -0.00110333 0.000688407)
(0.0914124 -0.00125309 0.000964837)
(0.0842693 -0.00123073 0.000924123)
(0.0769247 -0.00101758 0.000666616)
(0.0906385 -0.00114589 0.000934247)
(0.0832081 -0.0011331 0.000924965)
(0.0756494 -0.000933086 0.000658783)
(0.0899127 -0.00104744 0.00092196)
(0.0821729 -0.00103467 0.000941557)
(0.0744346 -0.000848486 0.000661654)
(0.0892218 -0.000951519 0.000925551)
(0.0811432 -0.000930281 0.000977701)
(0.0732624 -0.00075608 0.00067831)
(0.0885521 -0.000852428 0.000947656)
(0.0800871 -0.000813056 0.00104407)
(0.0721152 -0.000639618 0.000713422)
(0.0878855 -0.000743606 0.000996269)
(0.078955 -0.000670782 0.00115991)
(0.0709709 -0.000487431 0.000777776)
(0.0871949 -0.000615227 0.00108576)
(0.077651 -0.000483109 0.00133008)
(0.0697805 -0.000258137 0.000873992)
(0.0864249 -0.000451859 0.00123992)
(0.0760012 -0.000348548 0.00195109)
(0.0685085 0.000137664 0.00098628)
(0.0855183 -0.000231635 0.00145533)
(0.0671919 0.000870228 0.00143483)
(0.0847745 -9.4196e-05 0.00214953)
(0.0984572 -0.00247641 0.00172993)
(0.0973536 -0.00106247 -0.00148427)
(0.100049 -0.00105637 0.000750984)
(0.0958348 -0.00314798 0.00243275)
(0.0930872 -0.00326893 0.00253352)
(0.0982936 -0.00280915 0.00216155)
(0.0914498 -0.00223021 0.00186948)
(0.084864 -0.00163574 0.00179246)
(0.0963039 -0.0024425 0.00199797)
(0.0875948 -0.00167438 0.00150577)
(0.078628 -0.00107332 0.0012216)
(0.0936666 -0.00198046 0.00172731)
(0.0841469 -0.00143963 0.00127617)
(0.0740528 -0.000784942 0.000865515)
(0.0909042 -0.00171924 0.00149838)
(0.0811865 -0.00126462 0.00102966)
(0.0704421 -0.000649886 0.000670008)
(0.0884337 -0.00145369 0.00121274)
(0.078699 -0.00110873 0.000795513)
(0.067491 -0.00054539 0.000509992)
(0.0863036 -0.00118196 0.000910369)
(0.0765526 -0.00098958 0.000627842)
(0.0650497 -0.000466494 0.000389932)
(0.0844783 -0.000980449 0.0006937)
(0.0746438 -0.000900609 0.000522766)
(0.0629639 -0.000411157 0.000311944)
(0.0828761 -0.000840764 0.000553785)
(0.0729107 -0.00082297 0.000461125)
(0.061128 -0.000365757 0.000261753)
(0.081441 -0.000736765 0.000464303)
(0.0713153 -0.000745377 0.000427892)
(0.059482 -0.000322561 0.000231554)
(0.0801396 -0.000648466 0.000407717)
(0.0698325 -0.000667504 0.00041162)
(0.0579913 -0.000279209 0.00021541)
(0.0789442 -0.000567923 0.000372491)
(0.0684407 -0.000591471 0.000405643)
(0.0566273 -0.000236133 0.000208306)
(0.0778337 -0.000496593 0.000354117)
(0.0671203 -0.000508749 0.000409005)
(0.0553655 -0.00018926 0.000207424)
(0.0767965 -0.000430169 0.000349741)
(0.0658541 -0.000395811 0.000423273)
(0.0541921 -0.000128562 0.000213759)
(0.075823 -0.000352297 0.000361715)
(0.0646399 -0.000237956 0.000455758)
(0.0531061 -4.81421e-05 0.000230841)
(0.0749048 -0.000238225 0.000396399)
(0.0634641 -8.77122e-06 0.000507579)
(0.052117 7.73713e-05 0.000278886)
(0.0740358 -8.08895e-05 0.000463652)
(0.0623226 0.000398528 0.000560972)
(0.0512631 0.000303863 0.000337946)
(0.0731983 0.000171832 0.000555461)
(0.061252 0.00147322 0.000502084)
(0.0507641 0.000797492 0.000337693)
(0.0723649 0.000674575 0.00060445)
(0.0495947 0.00324304 -0.000854944)
(0.0716038 0.00196773 0.00039793)
(0.0993441 0.00341904 -0.00341899)
(0.0973536 0.00148428 0.00106248)
(0.0834792 -0.00197582 0.00197595)
(0.0930872 -0.00253343 0.00326904)
(0.0745171 -0.00195861 0.00195887)
(0.084864 -0.00179229 0.00163594)
(0.0685477 -0.00115884 0.00115936)
(0.0786281 -0.00122124 0.00107371)
(0.064236 -0.000696583 0.000697489)
(0.074053 -0.000864911 0.000785745)
(0.0607564 -0.000493986 0.000495811)
(0.0704425 -0.000668976 0.000651186)
(0.0579368 -0.000373211 0.000376664)
(0.0674917 -0.000507895 0.000548054)
(0.0556131 -0.000285276 0.00029108)
(0.0650509 -0.000386396 0.000471163)
(0.0536232 -0.00022256 0.000232123)
(0.0629661 -0.000306149 0.000419098)
(0.0518773 -0.000175646 0.00019173)
(0.0611319 -0.000252192 0.000379225)
(0.050326 -0.00013843 0.000165432)
(0.0594891 -0.000214473 0.000345539)
(0.0489368 -0.000106004 0.000149691)
(0.0580042 -0.000186562 0.000317627)
(0.0476792 -7.3837e-05 0.000142382)
(0.0566503 -0.00016468 0.000298891)
(0.0465305 -3.82997e-05 0.000144045)
(0.0554048 -0.000146121 0.000291904)
(0.0454903 -3.33795e-06 0.000158285)
(0.0542584 -0.000124061 0.000296857)
(0.0445668 5.62526e-05 0.000194804)
(0.053221 -9.33812e-05 0.000315362)
(0.0437923 0.000182631 0.000257727)
(0.0523288 -2.17859e-05 0.000365419)
(0.0433363 0.00040815 0.000331183)
(0.0516822 0.000128724 0.000454738)
(0.0436229 0.00163013 -0.000326042)
(0.0516683 0.000339225 0.000626882)
(0.0501663 0.00169237 -9.48381e-05)
(0.0984572 0.00172993 0.00247641)
(0.100049 0.000750984 0.00105637)
(0.0996871 0.000345488 0.000439221)
(0.0958348 0.00243275 0.00314798)
(0.0982936 0.00216155 0.00280914)
(0.0978161 0.00228232 0.00273273)
(0.0914498 0.00186948 0.0022302)
(0.0963039 0.00199797 0.00244249)
(0.0954958 0.00230323 0.00300161)
(0.0875948 0.00150578 0.00167437)
(0.0936666 0.00172732 0.00198045)
(0.0926188 0.001839 0.0022992)
(0.0841469 0.00127618 0.00143961)
(0.0909042 0.00149839 0.00171922)
(0.0897667 0.00153599 0.00189159)
(0.0811865 0.00102967 0.0012646)
(0.0884337 0.00121275 0.00145367)
(0.087231 0.00129523 0.00165594)
(0.078699 0.000795526 0.0011087)
(0.0863036 0.000910384 0.00118194)
(0.0850046 0.00107817 0.00149107)
(0.0765526 0.000627859 0.000989542)
(0.0844783 0.000693719 0.000980416)
(0.0830573 0.000915052 0.00136995)
(0.0746438 0.000522788 0.000900562)
(0.0828761 0.000553809 0.000840723)
(0.0813183 0.000804665 0.00127578)
(0.0729107 0.000461155 0.000822911)
(0.081441 0.000464332 0.000736713)
(0.0797357 0.000731586 0.00118916)
(0.0713153 0.000427932 0.000745305)
(0.0801396 0.000407753 0.000648398)
(0.0782794 0.000688444 0.00110328)
(0.0698325 0.000411669 0.000667424)
(0.0789442 0.000372536 0.000567841)
(0.0769247 0.000666666 0.00101751)
(0.0684407 0.000405698 0.000591381)
(0.0778337 0.000354181 0.000496516)
(0.0756494 0.000658836 0.000933005)
(0.0671203 0.000409073 0.000508623)
(0.0767965 0.000349803 0.000430069)
(0.0744346 0.000661722 0.000848395)
(0.0658541 0.000423353 0.000395629)
(0.075823 0.000361778 0.000352119)
(0.0732623 0.000678404 0.000755963)
(0.06464 0.000455835 0.000237715)
(0.0749049 0.000396481 0.000238005)
(0.0721152 0.000713516 0.000639452)
(0.0634643 0.000507647 8.43812e-06)
(0.074036 0.000463736 8.06002e-05)
(0.070971 0.000777847 0.000487194)
(0.062323 0.000561001 -0.000399064)
(0.0731987 0.000555539 -0.000172245)
(0.0697807 0.00087402 0.000257773)
(0.061253 0.000501909 -0.00147424)
(0.0723657 0.000604473 -0.000675234)
(0.068509 0.000986164 -0.000138376)
(0.0716054 0.000397898 -0.00196891)
(0.0671933 0.00143452 -0.000871431)
(0.10008 0.00135182 0.00135173)
(0.100186 0.000798786 0.000804933)
(0.100186 0.000804971 0.000798747)
(0.100264 0.00221743 0.00221718)
(0.10019 0.00231195 0.00207139)
(0.100189 0.00207157 0.00231179)
(0.0993827 0.00243604 0.00243554)
(0.100306 0.00263391 0.0024529)
(0.100306 0.00245331 0.00263359)
(0.0979838 0.00231072 0.0023099)
(0.0998049 0.00256077 0.00245565)
(0.0998047 0.00245637 0.0025602)
(0.0964945 0.00200694 0.00200556)
(0.0988626 0.00236505 0.00228049)
(0.0988622 0.00228157 0.00236414)
(0.0950718 0.00159822 0.00159588)
(0.0978406 0.00205012 0.00196733)
(0.0978399 0.00196901 0.0020485)
(0.093774 0.00122838 0.00122449)
(0.0968609 0.001693 0.00160345)
(0.0968597 0.00160613 0.00169036)
(0.0926155 0.000965672 0.000959028)
(0.0959587 0.0014075 0.00131951)
(0.0959566 0.00132412 0.00140317)
(0.0915902 0.000784043 0.000772556)
(0.0951467 0.00119658 0.00111528)
(0.095143 0.00112318 0.00118905)
(0.090682 0.000656493 0.000636037)
(0.0944239 0.00104024 0.000966245)
(0.0944174 0.000979736 0.00102721)
(0.0898702 0.000565548 0.000530631)
(0.0937852 0.000922868 0.000854106)
(0.093774 0.000877855 0.000900446)
(0.0891343 0.000502744 0.000447426)
(0.0932166 0.000834581 0.00076805)
(0.0931977 0.000807398 0.000797635)
(0.0884626 0.000462853 0.000378276)
(0.0927065 0.000769511 0.000699665)
(0.0926758 0.000762118 0.000710708)
(0.0878531 0.000441496 0.000308412)
(0.0922528 0.000722052 0.000638556)
(0.0922041 0.000736366 0.000628974)
(0.0873055 0.000439226 0.000217948)
(0.0918564 0.000689111 0.0005714)
(0.0917791 0.000729957 0.000539218)
(0.0868162 0.000459316 8.69903e-05)
(0.0915157 0.000668892 0.000480669)
(0.0913935 0.000747916 0.000425446)
(0.0863896 0.000496697 -0.000120541)
(0.0912294 0.000658522 0.000345496)
(0.0910398 0.000795675 0.000271607)
(0.085984 0.0004977 -0.000499902)
(0.0909862 0.000646294 0.00012527)
(0.0907003 0.000873689 4.53052e-05)
(0.0854673 0.00026331 -0.00123176)
(0.0907244 0.000578571 -0.000260662)
(0.0903274 0.00093153 -0.000315823)
(0.0906799 0.000255406 -0.000921709)
(0.0902603 0.00081285 -0.000802488)
(0.100171 0.00136876 0.00141635)
(0.100118 0.00057744 0.000811283)
(0.100102 0.000699801 0.000700661)
(0.100759 0.00219507 0.00214887)
(0.100478 0.00158296 0.00185868)
(0.100477 0.00182267 0.00186455)
(0.100996 0.00247727 0.00238759)
(0.101004 0.00205895 0.00224232)
(0.101024 0.00234705 0.00238274)
(0.100838 0.0024768 0.00238855)
(0.101292 0.00220382 0.00235167)
(0.101337 0.00250644 0.00254337)
(0.100458 0.0023125 0.00222396)
(0.101309 0.0021679 0.00232136)
(0.101408 0.0024513 0.00247176)
(0.0999676 0.0020581 0.0019669)
(0.101157 0.00201168 0.00217764)
(0.101301 0.00226579 0.00226963)
(0.0994434 0.00179281 0.00169779)
(0.100927 0.00179503 0.00196676)
(0.101098 0.00201094 0.00199733)
(0.0989338 0.00156684 0.00147997)
(0.100666 0.00158544 0.00176303)
(0.100854 0.001773 0.00175562)
(0.0984654 0.00138377 0.00131551)
(0.10041 0.00139835 0.00158613)
(0.100606 0.00157353 0.00156036)
(0.0980495 0.00123428 0.00119122)
(0.100176 0.00123383 0.00143886)
(0.100377 0.00140941 0.00140416)
(0.0976869 0.0011126 0.00109792)
(0.0999714 0.00109568 0.00132906)
(0.100181 0.0012753 0.00127951)
(0.0973754 0.00101422 0.00102596)
(0.0997996 0.000980974 0.00124826)
(0.100019 0.00116736 0.00117954)
(0.0971133 0.000934457 0.000964968)
(0.0996596 0.000884506 0.0011858)
(0.0998931 0.00108183 0.00109587)
(0.0969006 0.000868714 0.000906353)
(0.0995511 0.000800072 0.00113327)
(0.0998029 0.00101512 0.0010199)
(0.0967388 0.000811112 0.000839847)
(0.0994764 0.000720096 0.00108372)
(0.0997495 0.000964143 0.00094377)
(0.0966282 0.000752744 0.000747025)
(0.0994375 0.000637696 0.00102671)
(0.0997332 0.000925174 0.000856232)
(0.0965676 0.00068323 0.000603161)
(0.0994333 0.000542111 0.000945635)
(0.0997533 0.000893222 0.000741523)
(0.0965299 0.000576788 0.000382573)
(0.0994569 0.000421058 0.000823575)
(0.0998048 0.000862036 0.000584935)
(0.0964439 0.000357685 7.97451e-05)
(0.0994746 0.000243924 0.000649182)
(0.0998593 0.000803375 0.000377512)
(0.0996217 -3.40943e-05 0.000455193)
(0.100058 0.000643175 0.000178623)
(0.100242 0.000820218 0.00125609)
(0.10009 0.000294338 0.000735337)
(0.100071 0.000415702 0.000602749)
(0.100828 0.00139067 0.00193923)
(0.100491 0.000791998 0.00168397)
(0.100493 0.0011245 0.00158691)
(0.101392 0.00166363 0.00218195)
(0.101086 0.00107775 0.00208328)
(0.101129 0.00154099 0.00209391)
(0.101816 0.00176136 0.00226051)
(0.101664 0.00120435 0.0021787)
(0.101768 0.00173295 0.00229379)
(0.102081 0.00175567 0.00226093)
(0.102121 0.00123971 0.0022213)
(0.102291 0.00179028 0.00236645)
(0.102216 0.00166859 0.00217511)
(0.102452 0.00120184 0.002209)
(0.102712 0.00174444 0.00232066)
(0.102267 0.00153422 0.00203911)
(0.102681 0.00111823 0.00212464)
(0.103037 0.00162706 0.00220013)
(0.102279 0.00138273 0.00188178)
(0.102843 0.00101701 0.0020029)
(0.103288 0.00148075 0.00204653)
(0.102278 0.00123073 0.00172514)
(0.102969 0.000915918 0.00186628)
(0.103494 0.00132958 0.0018857)
(0.102276 0.00109199 0.0015946)
(0.103074 0.000820219 0.00173797)
(0.103673 0.00118765 0.00173878)
(0.10228 0.000972502 0.00149929)
(0.103171 0.000732644 0.00163354)
(0.103836 0.00106426 0.00162113)
(0.102294 0.000868436 0.0014297)
(0.103269 0.000652036 0.00155054)
(0.103995 0.000958511 0.00152814)
(0.10232 0.000773593 0.00137732)
(0.10337 0.000576796 0.00149106)
(0.104155 0.00086636 0.00145383)
(0.10236 0.000680004 0.00133572)
(0.103472 0.000502228 0.00145282)
(0.10432 0.000782772 0.00139297)
(0.102418 0.000580121 0.00129813)
(0.103577 0.000419888 0.00142798)
(0.104494 0.000701567 0.00134009)
(0.102495 0.000465677 0.00125642)
(0.103689 0.000323789 0.00140893)
(0.104682 0.000618745 0.00128876)
(0.102587 0.000324868 0.00120272)
(0.103804 0.000205088 0.00139216)
(0.104882 0.000526874 0.00123273)
(0.102684 0.000144441 0.00113609)
(0.103919 5.39944e-05 0.00137524)
(0.105093 0.000416745 0.00116844)
(0.102762 -7.8694e-05 0.00108368)
(0.104029 -0.000139001 0.00136153)
(0.105312 0.000275797 0.00110308)
(0.104243 -0.000362078 0.001385)
(0.105625 0.000104705 0.00108553)
(0.100243 0.000267395 0.00116238)
(0.100087 -3.35512e-08 0.000707011)
(0.100064 0.000135807 0.000537316)
(0.100782 0.00046571 0.00182619)
(0.100477 -9.70021e-08 0.00161777)
(0.100463 0.000370885 0.00142409)
(0.101401 0.000575464 0.00207608)
(0.101066 -1.67644e-07 0.00203462)
(0.101089 0.000525167 0.0019335)
(0.101988 0.000622756 0.00213372)
(0.101694 -3.10443e-07 0.00211758)
(0.101798 0.000605864 0.00212845)
(0.102507 0.000630796 0.00216463)
(0.102269 -5.80322e-07 0.00215008)
(0.10249 0.000639234 0.00221068)
(0.102935 0.000609736 0.00215641)
(0.102742 -1.01979e-06 0.00217965)
(0.10312 0.000633997 0.0022411)
(0.103279 0.000570262 0.00208848)
(0.103124 -1.68422e-06 0.00213397)
(0.103688 0.000600593 0.00219609)
(0.103557 0.000523549 0.0019888)
(0.103428 -2.7624e-06 0.00204426)
(0.104186 0.000554264 0.00210501)
(0.103792 0.000477173 0.00188119)
(0.103681 -4.65252e-06 0.00193529)