/*--------------------------------*- C++ -*----------------------------------*\
| =========                 |                                                 |
| \\      /  F ield         | OpenFOAM: The Open Source CFD Toolbox           |
|  \\    /   O peration     | Version:  2212                                  |
|   \\  /    A nd           | Website:  www.openfoam.com                      |
|    \\/     M anipulation  |                                                 |
\*---------------------------------------------------------------------------*/
FoamFile
{
    version     2.0;
    format      ascii;
    arch        "LSB;label=32;scalar=64";
    class       volScalarField;
    location    "0.85";
    object      epsilon;
}
// * * * * * * * * * * * * * * * * * * * * * * * * * * * * * * * * * * * * * //

dimensions      [0 2 -3 0 0 0 0];

internalField   nonuniform List<scalar> 
690
(
0.0705952
0.060351
0.0534179
0.0456913
0.0399753
0.0350531
0.0497703
0.0430984
0.0375395
0.070445
0.0598645
0.0529885
0.0476581
0.0433873
0.0398771
0.0369545
0.0344895
0.0323398
0.0304472
0.028781
0.0273145
0.0463309
0.0403715
0.0353633
0.0311748
0.027654
0.0247002
0.0221325
0.0197344
0.0180095
0.0166635
0.0154525
0.0143981
0.0503109
0.0436457
0.0380765
0.0333983
0.0294479
0.0260987
0.0232399
0.0207807
0.0186931
0.0169177
0.0153928
0.0140652
0.0720416
0.0609037
0.0539385
0.0487186
0.0445256
0.0410619
0.0381676
0.0356891
0.0335258
0.0316314
0.0299673
0.0285033
0.0464267
0.0403375
0.0353196
0.0311592
0.0276717
0.0247378
0.0220248
0.0198849
0.0183217
0.016929
0.0157015
0.0146433
0.0496294
0.0430681
0.0375648
0.0329418
0.0290424
0.0257434
0.0229254
0.020527
0.0184979
0.0167609
0.0152629
0.013954
0.0560547
0.0483142
0.0419502
0.0366575
0.032217
0.0284656
0.0252793
0.0225584
0.0202256
0.0182206
0.0164919
0.0149949
0.0601862
0.0520209
0.0451995
0.0394855
0.0346775
0.0306113
0.027155
0.0242027
0.0216698
0.0194883
0.0176032
0.0159733
0.0623531
0.0536386
0.0464901
0.0405581
0.035591
0.0314009
0.0278437
0.0248068
0.0222015
0.0199573
0.0180173
0.0163412
0.0601864
0.052021
0.0451997
0.0394857
0.0346777
0.0306115
0.027155
0.0242024
0.0216693
0.0194877
0.0176024
0.0159742
0.0559757
0.0482812
0.0419332
0.0366432
0.0322013
0.0284477
0.0252585
0.0225368
0.0202064
0.0182033
0.0164748
0.0149933
0.0497693
0.043102
0.0375409
0.0328785
0.0289537
0.0256345
0.0228094
0.0204034
0.0183686
0.0166321
0.0151349
0.0457142
0.0399916
0.0350651
0.0308936
0.0273855
0.0244203
0.0217501
0.0195232
0.0179653
0.016605
0.0154187
0.0705947
0.0603496
0.0534164
0.0481493
0.0438762
0.0403283
0.037354
0.034816
0.0326007
0.0306639
0.0289671
0.0703875
0.0634051
0.0574109
0.0523749
0.0481552
0.0445819
0.041515
0.038878
0.0365961
0.0346147
0.0328877
0.0313797
0.0468503
0.0406689
0.0355321
0.0312677
0.0275269
0.0245332
0.0224249
0.0205747
0.0189662
0.0175649
0.016343
0.0152999
0.0477974
0.0414617
0.036144
0.0316676
0.0278909
0.0247213
0.0220793
0.0198422
0.0179348
0.0162981
0.0148889
0.0136482
0.0522552
0.0451945
0.0393032
0.034366
0.030214
0.0267055
0.023733
0.0212082
0.0190523
0.0172026
0.0156088
0.0142227
0.0559759
0.0482797
0.0419304
0.0366394
0.0321965
0.0284418
0.0252515
0.0225284
0.020196
0.0181905
0.0164597
0.0149604
0.056904
0.0492134
0.0427996
0.0374266
0.0329019
0.0290714
0.0258115
0.0230234
0.0206308
0.0185715
0.0167932
0.015254
0.0560562
0.0483156
0.0419502
0.036656
0.0322141
0.0284611
0.0252728
0.0225496
0.0202146
0.0182069
0.0164751
0.0149761
0.0522558
0.0451954
0.0393054
0.0343689
0.0302172
0.0267085
0.0237357
0.0212109
0.019055
0.0172056
0.0156105
0.014239
0.0477948
0.0413882
0.0360043
0.0314685
0.027669
0.0244802
0.0218182
0.0195898
0.0177055
0.0161
0.0147063
0.0475482
0.0407461
0.0352381
0.0307364
0.027049
0.023862
0.0215628
0.0198055
0.018261
0.0169133
0.0157593
0.0705129
0.0631288
0.0566218
0.0511005
0.0465019
0.042713
0.039535
0.0368345
0.0345204
0.0325246
0.0307962
0.0880673
0.076808
0.0677048
0.0609596
0.0559656
0.0518246
0.0483526
0.0454616
0.0430347
0.0409477
0.0391521
0.0375917
0.0537445
0.0440661
0.0374886
0.0321747
0.0288748
0.0262849
0.0240929
0.0222477
0.0206627
0.0193073
0.0180425
0.0170845
0.0466046
0.040294
0.0348663
0.030277
0.0265798
0.0236196
0.0211883
0.0191634
0.017453
0.0159933
0.0147369
0.013626
0.047793
0.0413838
0.0359987
0.0314633
0.0276645
0.0244757
0.0218134
0.0195844
0.0176992
0.0160915
0.0147089
0.0134936
0.0497674
0.0431001
0.0375386
0.0328752
0.028949
0.0256282
0.0228015
0.0203933
0.018355
0.0166146
0.01512
0.013821
0.0503133
0.0436471
0.0380761
0.0333935
0.0294394
0.026087
0.0232251
0.0207615
0.0186689
0.0168897
0.0153599
0.014028
0.0496301
0.0430663
0.0375634
0.0329406
0.0290409
0.0257408
0.0229207
0.0205196
0.0184895
0.0167512
0.0152509
0.0139417
0.0477961
0.0414583
0.0361441
0.0316699
0.027894
0.0247231
0.0220808
0.0198436
0.0179358
0.0162991
0.014887
0.0136631
0.0466034
0.040302
0.0348782
0.030286
0.0265864
0.0236254
0.0211931
0.0191671
0.0174566
0.0159987
0.0147213
0.0542104
0.043875
0.0369601
0.0314723
0.0277023
0.0252367
0.0231388
0.0213441
0.0198033
0.018479
0.0173584
0.0915324
0.0773453
0.06651
0.058341
0.0526621
0.0483501
0.0449245
0.0421172
0.0397356
0.0376863
0.0359275
0.135437
0.112458
0.0940674
0.082082
0.074594
0.0693904
0.0653033
0.0618738
0.0589685
0.0565555
0.054465
0.0526678
0.0638424
0.0553606
0.0469831
0.0401087
0.0358827
0.032927
0.0305773
0.0285633
0.0268615
0.0254212
0.0241653
0.023039
0.05421
0.0438673
0.0369485
0.0314626
0.0276957
0.0252296
0.0231323
0.0213387
0.0197975
0.0184704
0.0173295
0.0163589
0.0475482
0.0407536
0.0352437
0.0307403
0.0270518
0.0238625
0.0215602
0.0198014
0.0182554
0.0169035
0.0157253
0.0147207
0.0457141
0.0400023
0.0350743
0.0308992
0.0273874
0.0244192
0.0217481
0.0195183
0.0179512
0.0165848
0.0153709
0.0143274
0.0463337
0.0403763
0.0353677
0.0311717
0.0276467
0.0246899
0.0221181
0.01972
0.0179899
0.0166388
0.0154234
0.0143654
0.0464272
0.0403368
0.0353188
0.0311576
0.0276691
0.0247343
0.0220197
0.0198791
0.0183144
0.0169203
0.0156921
0.0146353
0.0468497
0.0406675
0.0355309
0.0312664
0.0275264
0.0245312
0.0224212
0.0205709
0.0189623
0.0175606
0.0163414
0.0153026
0.0537449
0.0440662
0.0374899
0.0321739
0.0288724
0.0262826
0.0240903
0.0222425
0.0206641
0.0192905
0.0180732
0.0638426
0.0553609
0.0469859
0.040109
0.0358818
0.0329255
0.0305754
0.0285602
0.0268616
0.0254157
0.0241354
0.141311
0.116695
0.0950668
0.0808732
0.0721527
0.0664164
0.0621729
0.058728
0.0559323
0.0535156
0.0516056
0.386153
0.302091
0.235754
0.200644
0.180396
0.168016
0.159065
0.151869
0.146068
0.141399
0.137513
0.134092
0.141312
0.116696
0.0950684
0.0808771
0.072158
0.066423
0.0621808
0.0587376
0.0559376
0.0535396
0.0515981
0.0499591
0.0915332
0.077347
0.0665119
0.0583447
0.0526672
0.048357
0.0449336
0.0421288
0.0397487
0.0377036
0.0359437
0.0344397
0.0705137
0.0631296
0.0566226
0.051102
0.0465045
0.0427173
0.0395415
0.0368438
0.0345326
0.0325405
0.0308167
0.0293193
0.0705953
0.0603505
0.0534184
0.0481524
0.0438808
0.0403346
0.0373618
0.0348266
0.0326147
0.0306814
0.0289895
0.0275092
0.0704458
0.0598651
0.0529893
0.0476616
0.0433931
0.039885
0.0369648
0.0345026
0.0323563
0.0304671
0.0288039
0.0273385
0.0720423
0.0609045
0.0539394
0.0487202
0.0445283
0.041066
0.0381735
0.0356971
0.0335362
0.0316443
0.0299828
0.0285209
0.0703877
0.0634051
0.0574108
0.052375
0.0481556
0.0445832
0.0415176
0.0388821
0.0366019
0.034622
0.0328974
0.0313901
0.0880675
0.076808
0.0677041
0.060958
0.0559647
0.0518243
0.0483533
0.0454639
0.0430379
0.0409554
0.0391523
0.135437
0.112458
0.0940668
0.0820791
0.0745906
0.069387
0.0653002
0.0618709
0.0589719
0.0565407
0.0544818
0.386151
0.302089
0.23575
0.200637
0.180387
0.168006
0.159054
0.151854
0.146061
0.14136
0.13753
)
;

boundaryField
{
    inlet
    {
        type            fixedValue;
        value           nonuniform List<scalar> 0();
    }
    ami1
    {
        type            cyclicAMI;
        value           nonuniform List<scalar> 0();
    }
    walls
    {
        type            epsilonWallFunction;
        blending        stepwise;
        value           nonuniform List<scalar> 
259
(
0.0705947
0.0705129
0.0915324
0.141311
0.386151
0.0603496
0.0631288
0.0773453
0.116695
0.302089
0.0534164
0.0566218
0.06651
0.0950668
0.23575
0.0481493
0.0511005
0.058341
0.0808732
0.200637
0.0438762
0.0465019
0.0526621
0.0721527
0.180387
0.0403283
0.042713
0.0483501
0.0664164
0.168006
0.037354
0.039535
0.0449245
0.0621729
0.159054
0.034816
0.0368345
0.0421172
0.058728
0.151854
0.0326007
0.0345204
0.0397356
0.0559323
0.146061
0.0306639
0.0325246
0.0376863
0.0535156
0.14136
0.0289671
0.0307962
0.0359275
0.0516056
0.13753
0.386153
0.141312
0.0915332
0.0705137
0.0705953
0.0704458
0.0720423
0.0703877
0.0880675
0.135437
0.386151
0.302091
0.116696
0.077347
0.0631296
0.0603505
0.0598651
0.0609045
0.0634051
0.076808
0.112458
0.302089
0.235754
0.0950684
0.0665119
0.0566226
0.0534184
0.0529893
0.0539394
0.0574108
0.0677041
0.0940668
0.23575
0.200644
0.0808771
0.0583447
0.051102
0.0481524
0.0476616
0.0487202
0.052375
0.060958
0.0820791
0.200637
0.180396
0.072158
0.0526672
0.0465045
0.0438808
0.0433931
0.0445283
0.0481556
0.0559647
0.0745906
0.180387
0.168016
0.066423
0.048357
0.0427173
0.0403346
0.039885
0.041066
0.0445832
0.0518243
0.069387
0.168006
0.159065
0.0621808
0.0449336
0.0395415
0.0373618
0.0369648
0.0381735
0.0415176
0.0483533
0.0653002
0.159054
0.151869
0.0587376
0.0421288
0.0368438
0.0348266
0.0345026
0.0356971
0.0388821
0.0454639
0.0618709
0.151854
0.146068
0.0559376
0.0397487
0.0345326
0.0326147
0.0323563
0.0335362
0.0366019
0.0430379
0.0589719
0.146061
0.141399
0.0535396
0.0377036
0.0325405
0.0306814
0.0304671
0.0316443
0.034622
0.0409554
0.0565407
0.14136
0.137513
0.0515981
0.0359437
0.0308167
0.0289895
0.0288039
0.0299828
0.0328974
0.0391523
0.0544818
0.13753
0.134092
0.0499591
0.0344397
0.0293193
0.0275092
0.0273385
0.0285209
0.0313901
0.0705952
0.070445
0.0720416
0.0703875
0.0880673
0.135437
0.386153
0.060351
0.0598645
0.0609037
0.0634051
0.076808
0.112458
0.302091
0.0534179
0.0529885
0.0539385
0.0574109
0.0677048
0.0940674
0.235754
0.0476581
0.0487186
0.0523749
0.0609596
0.082082
0.200644
0.0433873
0.0445256
0.0481552
0.0559656
0.074594
0.180396
0.0398771
0.0410619
0.0445819
0.0518246
0.0693904
0.168016
0.0369545
0.0381676
0.041515
0.0483526
0.0653033
0.159065
0.0344895
0.0356891
0.038878
0.0454616
0.0618738
0.151869
0.0323398
0.0335258
0.0365961
0.0430347
0.0589685
0.146068
0.0304472
0.0316314
0.0346147
0.0409477
0.0565555
0.141399
0.028781
0.0299673
0.0328877
0.0391521
0.054465
0.137513
0.0273145
0.0285033
0.0313797
0.0375917
0.0526678
0.134092
)
;
    }
    ami2
    {
        type            cyclicAMI;
        value           nonuniform List<scalar> 
61
(
0.0756536
0.0484749
0.0537991
0.0819761
0.0492235
0.0543329
0.0826697
0.0487932
0.0535217
0.0608385
0.0650675
0.0677461
0.0650678
0.0607034
0.0537987
0.0484867
0.0756536
0.0770902
0.0495383
0.0515812
0.0564918
0.0607033
0.0615209
0.0608395
0.0564924
0.0516009
0.0512594
0.0737852
0.0822605
0.0591734
0.049844
0.0516
0.0537976
0.0543342
0.0535225
0.0515807
0.0498433
0.0599229
0.0822821
0.104158
0.0675707
0.0599228
0.0512595
0.0484866
0.0492254
0.0487938
0.0495381
0.0591735
0.0675707
0.106399
0.228755
0.106399
0.0822827
0.0737859
0.0756542
0.0819773
0.0826707
0.0770906
0.0822607
0.104158
0.228754
)
;
    }
    outlet
    {
        type            zeroGradient;
    }
    procBoundary1to0
    {
        type            processor;
        value           nonuniform List<scalar> 
138
(
0.0481485
0.0481485
0.0438741
0.0403253
0.0373503
0.0348133
0.0325993
0.030664
0.0289702
0.0274888
0.0309056
0.0309056
0.0273923
0.0244261
0.0217584
0.0195261
0.0179622
0.0165985
0.015387
0.0143451
0.0559736
0.0482793
0.032882
0.0419318
0.032882
0.0289572
0.0256373
0.0228112
0.0204044
0.0183673
0.0166276
0.0151344
0.0138357
0.0569037
0.0492147
0.0428026
0.0374316
0.032909
0.0290807
0.025823
0.0230378
0.0206487
0.0185933
0.0168191
0.0152838
0.0569037
0.0492147
0.0428026
0.0374316
0.032909
0.0290807
0.025823
0.0230378
0.0206487
0.0185933
0.0168191
0.0152838
0.0623527
0.053639
0.0464905
0.0405585
0.0355914
0.0314014
0.0278442
0.0248073
0.0222021
0.0199578
0.0180177
0.0163406
0.0637097
0.0549994
0.047737
0.0416637
0.0365606
0.0322495
0.0285876
0.025461
0.0227785
0.0204672
0.0184686
0.0167423
0.0623533
0.0536389
0.0464905
0.0405584
0.0355914
0.0314013
0.027844
0.024807
0.0222016
0.0199572
0.0180171
0.0163421
0.0569079
0.0492178
0.042804
0.0374311
0.0329069
0.0290773
0.0258186
0.023032
0.0206413
0.0185844
0.0168087
0.0152871
0.0503108
0.043645
0.0380761
0.0333957
0.0294437
0.0260933
0.0232335
0.0207724
0.0186833
0.0169081
0.0153778
0.0463502
0.0403927
0.0353778
0.0311779
0.0276518
0.0246956
0.0221248
0.019728
0.0180062
0.0166623
0.0154734
0.0704449
0.0598615
0.0529844
0.0476556
0.043386
0.0398769
0.0369557
0.0344914
0.032342
0.0304493
0.0287823
)
;
    }
    procBoundary1to2
    {
        type            processor;
        value           nonuniform List<scalar> 9(0.0705123 0.0631274 0.0566202 0.0475535 0.0407562 0.0352501 0.0477936 0.0413955 0.0360117);
    }
    procBoundary1to8
    {
        type            processor;
        value           nonuniform List<scalar> 
33
(
0.0260209
0.0134882
0.0129729
0.0272104
0.0137441
0.012887
0.0137421
0.0145961
0.0149293
0.0300522
0.0144127
0.0126483
0.01308
0.013711
0.0139756
0.0362351
0.0159807
0.0127339
0.0125147
0.0127656
0.0129475
0.0510955
0.0221142
0.0154057
0.0138697
0.0134439
0.013469
0.130936
0.0483344
0.0331216
0.028005
0.0262073
0.0260425
)
;
    }
    procBoundary1to9
    {
        type            processor;
        value           nonuniform List<scalar> 
30
(
0.0146074
0.0137424
0.013903
0.013903
0.0143962
0.0274774
0.0137368
0.0130968
0.0135688
0.0135688
0.0147761
0.0292844
0.0128856
0.0126618
0.0136939
0.0136939
0.0163576
0.0344091
0.0137499
0.0144223
0.0170739
0.0170739
0.0231166
0.0499531
0.0272276
0.0300641
0.0375983
0.0375983
0.0526706
0.134064
)
;
    }
}


// ************************************************************************* //
