/*--------------------------------*- C++ -*----------------------------------*\
| =========                 |                                                 |
| \\      /  F ield         | OpenFOAM: The Open Source CFD Toolbox           |
|  \\    /   O peration     | Version:  2212                                  |
|   \\  /    A nd           | Website:  www.openfoam.com                      |
|    \\/     M anipulation  |                                                 |
\*---------------------------------------------------------------------------*/
FoamFile
{
    version     2.0;
    format      ascii;
    arch        "LSB;label=32;scalar=64";
    class       volScalarField;
    location    "0.85";
    object      k;
}
// * * * * * * * * * * * * * * * * * * * * * * * * * * * * * * * * * * * * * //

dimensions      [0 2 -2 0 0 0 0];

internalField   nonuniform List<scalar> 
690
(
0.00422793
0.00383221
0.00353916
0.00725271
0.00660918
0.00603337
0.00971321
0.00880551
0.0080234
0.00436032
0.0039109
0.00360448
0.00335793
0.00315353
0.0029803
0.00283161
0.00270295
0.00258826
0.00248491
0.00239179
0.00230815
0.00756212
0.0068497
0.00623566
0.00570374
0.00524078
0.00483535
0.00447981
0.00417183
0.00389862
0.00365239
0.003431
0.00323166
0.00993796
0.00904154
0.00825324
0.00755932
0.00694708
0.00640571
0.00592583
0.00549987
0.00512151
0.00478399
0.00448173
0.00421111
0.00431445
0.00385443
0.00355416
0.00332115
0.00312765
0.00296285
0.00282122
0.00269705
0.00258605
0.00248654
0.0023972
0.00231709
0.00727552
0.00662981
0.00605153
0.00554196
0.00509515
0.00470286
0.00436177
0.0040629
0.00379513
0.0035549
0.00333952
0.00314629
0.00970728
0.00881071
0.00803197
0.00735133
0.00675366
0.00622676
0.00576068
0.00534775
0.00498067
0.00465291
0.0043593
0.0040962
0.0114739
0.0104083
0.00948825
0.00868534
0.00797977
0.00735661
0.00680404
0.00631253
0.00587416
0.00548213
0.00513078
0.0048161
0.0124791
0.0113709
0.0103875
0.00951806
0.00874888
0.00806697
0.00746083
0.00692057
0.00643782
0.00600549
0.00561766
0.00527018
0.0129558
0.0117532
0.0107162
0.00981097
0.0090148
0.00831072
0.00768542
0.00712818
0.00663016
0.00618401
0.0057837
0.00542506
0.0124791
0.0113709
0.0103875
0.00951802
0.00874882
0.00806689
0.00746072
0.00692044
0.00643767
0.00600532
0.00561752
0.00527025
0.0114447
0.0103956
0.00948285
0.00868318
0.0079791
0.00735673
0.00680475
0.00631377
0.00587593
0.00548446
0.00513383
0.00482051
0.00971313
0.00880522
0.00802285
0.0073416
0.00674479
0.00621966
0.00575594
0.00534559
0.00498144
0.00465658
0.00436626
0.00725256
0.00660873
0.00603275
0.00552635
0.00508371
0.0046967
0.00436063
0.00406821
0.00380623
0.00357061
0.00335843
0.00422783
0.00383199
0.003539
0.00330263
0.00310339
0.00293245
0.00278478
0.00265561
0.00254015
0.00243683
0.00234443
0.00394112
0.00366645
0.00342847
0.00322425
0.00304856
0.00289602
0.00276163
0.00264317
0.00253821
0.00244495
0.00236187
0.00228792
0.00685502
0.00615422
0.0055769
0.00509287
0.00468523
0.00433599
0.00402782
0.00375512
0.00351231
0.00329576
0.00310223
0.00292872
0.00877084
0.00800478
0.00731438
0.00670236
0.00616328
0.00568919
0.00527103
0.00490033
0.00457037
0.0042753
0.0040105
0.00377311
0.0104365
0.00948091
0.00864817
0.00791862
0.0072771
0.00671122
0.00621059
0.00576615
0.00537026
0.00501653
0.00469956
0.00441566
0.0114446
0.0103955
0.00948274
0.00868306
0.00797898
0.00735661
0.00680462
0.00631362
0.00587575
0.00548425
0.00513343
0.00481934
0.0117251
0.0106779
0.00975261
0.0089357
0.00821347
0.00757341
0.00700467
0.00649803
0.00604578
0.00564117
0.00527848
0.00495378
0.0114739
0.0104084
0.00948819
0.00868518
0.00797952
0.00735626
0.0068036
0.00631201
0.00587356
0.00548146
0.00513006
0.00481552
0.0104365
0.00948096
0.00864816
0.00791853
0.00727694
0.006711
0.00621032
0.00576584
0.00536994
0.00501616
0.00469928
0.00441603
0.00871501
0.00796407
0.00728075
0.0066732
0.0061383
0.00566806
0.00525418
0.00488808
0.00456241
0.00427125
0.00401051
0.0068135
0.00610423
0.00552534
0.00504481
0.00464148
0.00430213
0.00400757
0.00374603
0.00351199
0.00330188
0.00311237
0.00396125
0.00367581
0.00341722
0.00318836
0.00299121
0.00282387
0.0026799
0.00255453
0.00244458
0.00234757
0.00226181
0.00391629
0.00358917
0.00330832
0.00308766
0.00291855
0.00277275
0.00264772
0.00254137
0.00244959
0.00236907
0.00229831
0.00223565
0.00555519
0.00506041
0.00462971
0.00427471
0.00396476
0.00369294
0.00345199
0.00323716
0.0030436
0.00286891
0.00271171
0.00257037
0.00757345
0.00680731
0.00617246
0.00564156
0.00519302
0.0048066
0.00446782
0.00416749
0.00389931
0.00365854
0.00344131
0.00324598
0.00871502
0.00796407
0.0072808
0.00667332
0.00613849
0.00566832
0.00525451
0.00488849
0.0045629
0.00427194
0.0040109
0.00377688
0.00971312
0.00880515
0.0080227
0.00734143
0.00674462
0.00621952
0.00575584
0.00534553
0.00498144
0.00465671
0.00436599
0.00410574
0.00993791
0.00904146
0.00825302
0.00755881
0.00694647
0.00640509
0.00592523
0.00549931
0.00512103
0.00478358
0.00448141
0.00421095
0.0097073
0.00881076
0.00803198
0.00735124
0.00675347
0.00622651
0.00576042
0.00534752
0.00498051
0.00465283
0.00435936
0.00409652
0.00877091
0.00800495
0.00731442
0.00670226
0.00616306
0.00568889
0.0052707
0.00489999
0.00457004
0.00427499
0.00401032
0.00377338
0.00757349
0.0068073
0.00617228
0.00564123
0.00519259
0.00480611
0.00446729
0.00416692
0.00389874
0.00365772
0.00344095
0.00543011
0.00495336
0.00451636
0.00416541
0.00387845
0.00362806
0.00340107
0.00319585
0.00300896
0.00283753
0.00268031
0.00409315
0.00365363
0.0033067
0.00301815
0.00281334
0.00265599
0.00252725
0.00241903
0.00232573
0.00224351
0.00217141
0.00407485
0.00360246
0.00320255
0.00292509
0.00274665
0.00261923
0.0025164
0.00242756
0.00235137
0.00228642
0.00222884
0.00217811
0.00422629
0.00375292
0.00335818
0.00311575
0.0029571
0.00280111
0.00264352
0.00248864
0.00235563
0.0022359
0.00212317
0.00202405
0.00543013
0.00495345
0.00451666
0.00416583
0.00387897
0.0036287
0.00340184
0.00319674
0.00300997
0.00283898
0.00268194
0.00253926
0.00681354
0.00610421
0.00552536
0.00504489
0.00464165
0.00430241
0.00400799
0.00374665
0.00351285
0.00330311
0.00311443
0.00294417
0.00725265
0.00660873
0.00603266
0.00552626
0.00508369
0.00469682
0.00436086
0.0040686
0.00380697
0.00357175
0.00336062
0.00317068
0.00756213
0.00684958
0.00623542
0.00570334
0.00524048
0.00483528
0.00448002
0.0041723
0.00389944
0.00365362
0.00343268
0.00323402
0.00727557
0.00662981
0.0060515
0.00554192
0.00509512
0.0047029
0.00436195
0.00406325
0.00379571
0.00355577
0.00334074
0.00314782
0.00685507
0.00615424
0.00557691
0.00509287
0.00468517
0.00433594
0.00402783
0.00375523
0.00351255
0.00329613
0.00310282
0.00292949
0.00555517
0.00506037
0.00462954
0.00427447
0.00396451
0.0036927
0.00345178
0.00323702
0.00304352
0.00286893
0.00271171
0.00422624
0.00375286
0.00335807
0.00311537
0.00295672
0.00280072
0.0026431
0.00248825
0.00235553
0.00223435
0.00212415
0.00423673
0.00372791
0.00325321
0.00291549
0.00269888
0.00255268
0.00244158
0.00234885
0.00227334
0.00220571
0.00215087
0.00495259
0.00420706
0.00356483
0.00320097
0.00298125
0.00284388
0.00274202
0.00265792
0.0025892
0.00253255
0.0024847
0.0024417
0.00423674
0.00372795
0.00325325
0.00291561
0.00269903
0.00255286
0.0024418
0.00234912
0.0022735
0.00220635
0.00215085
0.00210361
0.00409316
0.00365367
0.00330674
0.00301827
0.00281352
0.00265623
0.00252756
0.00241946
0.00232622
0.00224415
0.00217196
0.00210951
0.00396126
0.00367585
0.00341728
0.00318845
0.00299134
0.00282407
0.00268019
0.00255493
0.00244511
0.00234827
0.00226262
0.00218681
0.00422785
0.00383203
0.00353909
0.00330278
0.0031036
0.00293272
0.00278512
0.00265605
0.00254076
0.00243763
0.00234534
0.00226301
0.00436037
0.00391089
0.00360447
0.00335807
0.00315376
0.0029806
0.00283201
0.00270344
0.00258889
0.0024857
0.00239274
0.00230922
0.00431452
0.00385445
0.00355417
0.0033212
0.00312775
0.00296301
0.00282146
0.00269738
0.00258649
0.0024871
0.00239789
0.00231793
0.00394114
0.00366642
0.00342847
0.00322427
0.00304859
0.00289609
0.00276174
0.00264333
0.00253844
0.00244524
0.00236226
0.00228848
0.00391628
0.00358914
0.00330828
0.00308761
0.00291852
0.00277273
0.00264773
0.00254142
0.00244968
0.00236929
0.00229825
0.00407481
0.00360242
0.00320253
0.002925
0.00274656
0.00261913
0.0025163
0.00242745
0.00235144
0.00228605
0.0022289
0.00495255
0.00420704
0.00356479
0.00320089
0.00298115
0.00284374
0.00274186
0.00265772
0.00258908
0.00253208
0.00248476
)
;

boundaryField
{
    inlet
    {
        type            fixedValue;
        value           nonuniform List<scalar> 0();
    }
    ami1
    {
        type            cyclicAMI;
        value           nonuniform List<scalar> 0();
    }
    walls
    {
        type            kqRWallFunction;
        value           nonuniform List<scalar> 
259
(
0.00422783
0.00396125
0.00409315
0.00423673
0.00495255
0.00383199
0.00367581
0.00365363
0.00372791
0.00420704
0.003539
0.00341722
0.0033067
0.00325321
0.00356479
0.00330263
0.00318836
0.00301815
0.00291549
0.00320089
0.00310339
0.00299121
0.00281334
0.00269888
0.00298115
0.00293245
0.00282387
0.00265599
0.00255268
0.00284374
0.00278478
0.0026799
0.00252725
0.00244158
0.00274186
0.00265561
0.00255453
0.00241903
0.00234885
0.00265772
0.00254015
0.00244458
0.00232573
0.00227334
0.00258908
0.00243683
0.00234757
0.00224351
0.00220571
0.00253208
0.00234443
0.00226181
0.00217141
0.00215087
0.00248476
0.00495259
0.00423674
0.00409316
0.00396126
0.00422785
0.00436037
0.00431452
0.00394114
0.00391628
0.00407481
0.00495255
0.00420706
0.00372795
0.00365367
0.00367585
0.00383203
0.00391089
0.00385445
0.00366642
0.00358914
0.00360242
0.00420704
0.00356483
0.00325325
0.00330674
0.00341728
0.00353909
0.00360447
0.00355417
0.00342847
0.00330828
0.00320253
0.00356479
0.00320097
0.00291561
0.00301827
0.00318845
0.00330278
0.00335807
0.0033212
0.00322427
0.00308761
0.002925
0.00320089
0.00298125
0.00269903
0.00281352
0.00299134
0.0031036
0.00315376
0.00312775
0.00304859
0.00291852
0.00274656
0.00298115
0.00284388
0.00255286
0.00265623
0.00282407
0.00293272
0.0029806
0.00296301
0.00289609
0.00277273
0.00261913
0.00284374
0.00274202
0.0024418
0.00252756
0.00268019
0.00278512
0.00283201
0.00282146
0.00276174
0.00264773
0.0025163
0.00274186
0.00265792
0.00234912
0.00241946
0.00255493
0.00265605
0.00270344
0.00269738
0.00264333
0.00254142
0.00242745
0.00265772
0.0025892
0.0022735
0.00232622
0.00244511
0.00254076
0.00258889
0.00258649
0.00253844
0.00244968
0.00235144
0.00258908
0.00253255
0.00220635
0.00224415
0.00234827
0.00243763
0.0024857
0.0024871
0.00244524
0.00236929
0.00228605
0.00253208
0.0024847
0.00215085
0.00217196
0.00226262
0.00234534
0.00239274
0.00239789
0.00236226
0.00229825
0.0022289
0.00248476
0.0024417
0.00210361
0.00210951
0.00218681
0.00226301
0.00230922
0.00231793
0.00228848
0.00422793
0.00436032
0.00431445
0.00394112
0.00391629
0.00407485
0.00495259
0.00383221
0.0039109
0.00385443
0.00366645
0.00358917
0.00360246
0.00420706
0.00353916
0.00360448
0.00355416
0.00342847
0.00330832
0.00320255
0.00356483
0.00335793
0.00332115
0.00322425
0.00308766
0.00292509
0.00320097
0.00315353
0.00312765
0.00304856
0.00291855
0.00274665
0.00298125
0.0029803
0.00296285
0.00289602
0.00277275
0.00261923
0.00284388
0.00283161
0.00282122
0.00276163
0.00264772
0.0025164
0.00274202
0.00270295
0.00269705
0.00264317
0.00254137
0.00242756
0.00265792
0.00258826
0.00258605
0.00253821
0.00244959
0.00235137
0.0025892
0.00248491
0.00248654
0.00244495
0.00236907
0.00228642
0.00253255
0.00239179
0.0023972
0.00236187
0.00229831
0.00222884
0.0024847
0.00230815
0.00231709
0.00228792
0.00223565
0.00217811
0.0024417
)
;
    }
    ami2
    {
        type            cyclicAMI;
        value           nonuniform List<scalar> 
61
(
0.00447008
0.00759429
0.01025
0.00467449
0.00797151
0.0104474
0.00461458
0.00761512
0.0102283
0.0121016
0.0130951
0.0136676
0.0130951
0.0120539
0.0102499
0.00759421
0.00447006
0.0040841
0.00726985
0.00917927
0.0109895
0.0120539
0.0123134
0.0121017
0.0109895
0.00910678
0.00722718
0.00410073
0.00409144
0.00577778
0.00803678
0.0091068
0.0102499
0.0104473
0.0102283
0.00917931
0.0080368
0.00565167
0.00428997
0.00429306
0.00444084
0.00565169
0.00722721
0.00759427
0.00797153
0.00761515
0.00726988
0.00577777
0.0044408
0.00444233
0.00480116
0.00444235
0.00428998
0.00410074
0.00447007
0.00467454
0.00461463
0.00408412
0.00409143
0.00429303
0.00480113
)
;
    }
    outlet
    {
        type            zeroGradient;
    }
    procBoundary1to0
    {
        type            processor;
        value           nonuniform List<scalar> 
138
(
0.00330211
0.00330211
0.00310324
0.00293238
0.00278469
0.00265554
0.00254014
0.00243689
0.0023445
0.00226206
0.0055275
0.0055275
0.00508433
0.00469702
0.00436068
0.00406816
0.00380627
0.00357076
0.00335935
0.003169
0.0114448
0.0103958
0.00734281
0.00948311
0.00734281
0.00674554
0.00622016
0.0057563
0.00534584
0.00498164
0.00465685
0.00436607
0.0041058
0.0117251
0.010678
0.00975276
0.00893597
0.00821385
0.00757389
0.00700524
0.00649871
0.00604655
0.00564203
0.00527943
0.0049547
0.0117251
0.010678
0.00975276
0.00893597
0.00821385
0.00757389
0.00700524
0.00649871
0.00604655
0.00564203
0.00527943
0.0049547
0.0129558
0.0117533
0.0107162
0.00981103
0.00901488
0.00831081
0.00768552
0.0071283
0.00663029
0.00618415
0.00578382
0.00542503
0.0132663
0.0120807
0.0110318
0.0101062
0.00928832
0.00856356
0.0079193
0.00734485
0.00683123
0.00637091
0.00595773
0.00558745
0.0129558
0.0117533
0.0107162
0.00981098
0.00901481
0.00831071
0.0076854
0.00712815
0.00663013
0.00618398
0.00578369
0.00542512
0.0117252
0.0106781
0.00975275
0.00893588
0.00821367
0.00757364
0.00700493
0.00649834
0.00604613
0.00564157
0.0052791
0.00495504
0.00993791
0.00904151
0.00825319
0.00755905
0.00694675
0.00640538
0.0059255
0.00549957
0.00512124
0.00478371
0.00448197
0.00756198
0.0068495
0.00623539
0.00570332
0.00524043
0.00483512
0.00447975
0.00417191
0.00389874
0.00365259
0.00343061
0.00436024
0.00391069
0.00360423
0.00335779
0.00315345
0.00298025
0.00283162
0.00270297
0.00258828
0.00248493
0.00239189
)
;
    }
    procBoundary1to2
    {
        type            processor;
        value           nonuniform List<scalar> 9(0.00396115 0.00367568 0.00341692 0.00681364 0.00610442 0.00552537 0.00871538 0.00796453 0.00728138);
    }
    procBoundary1to8
    {
        type            processor;
        value           nonuniform List<scalar> 
33
(
0.00223304
0.00305282
0.00396839
0.00224498
0.00297216
0.00385985
0.0045337
0.00495816
0.00510339
0.00222164
0.0027717
0.00355929
0.004161
0.00453774
0.0046631
0.00218038
0.00244224
0.00306876
0.00356621
0.00387211
0.00396874
0.00213358
0.00193457
0.00240807
0.00278864
0.00299863
0.00305504
0.00240183
0.00205533
0.00205335
0.00211902
0.0021891
0.0022338
)
;
    }
    procBoundary1to9
    {
        type            processor;
        value           nonuniform List<scalar> 
30
(
0.00495894
0.00453872
0.00410659
0.00410659
0.0031674
0.00226166
0.00453406
0.00416134
0.0037767
0.0037767
0.00294025
0.00218541
0.0038612
0.00355962
0.00324495
0.00324495
0.00253536
0.00210851
0.00297444
0.00277235
0.00256928
0.00256928
0.00202378
0.00210368
0.00224595
0.00222214
0.00223604
0.00223604
0.00217841
0.00244147
)
;
    }
}


// ************************************************************************* //
