/*--------------------------------*- C++ -*----------------------------------*\
| =========                 |                                                 |
| \\      /  F ield         | OpenFOAM: The Open Source CFD Toolbox           |
|  \\    /   O peration     | Version:  2212                                  |
|   \\  /    A nd           | Website:  www.openfoam.com                      |
|    \\/     M anipulation  |                                                 |
\*---------------------------------------------------------------------------*/
FoamFile
{
    version     2.0;
    format      ascii;
    arch        "LSB;label=32;scalar=64";
    class       volScalarField;
    location    "0.5";
    object      epsilon;
}
// * * * * * * * * * * * * * * * * * * * * * * * * * * * * * * * * * * * * * //

dimensions      [0 2 -3 0 0 0 0];

internalField   nonuniform List<scalar> 
6840
(
90.5034
12.1248
4.38868
2.46659
1.63313
1.18307
0.902044
0.720664
0.594721
0.502625
0.43306
0.379892
0.33689
0.30205
0.273348
0.250348
0.232437
0.21807
0.209062
0.203658
58.5856
14.5696
6.08946
3.33294
2.08218
1.40271
0.998737
0.740462
0.566183
0.444417
0.35675
0.291986
0.243013
0.205325
0.176012
0.153477
0.135973
0.122452
0.111612
0.103885
45.0226
13.4729
5.73074
3.07322
1.86022
1.227
0.873614
0.649864
0.497164
0.389775
0.311744
0.253634
0.209893
0.17649
0.150644
0.130327
0.114243
0.101448
0.0913231
0.0839737
38.7028
13.0541
5.74335
3.08732
1.88065
1.22751
0.869518
0.64547
0.492745
0.385027
0.307514
0.249716
0.205905
0.172252
0.146082
0.12551
0.109176
0.0960741
0.0854954
0.0775389
36.0571
12.8529
5.76644
3.10211
1.89475
1.2267
0.866546
0.644074
0.492408
0.384222
0.306294
0.248593
0.204842
0.171196
0.145002
0.124383
0.107995
0.0948589
0.0843432
0.0768817
36.0571
12.8529
5.76644
3.10211
1.89475
1.22671
0.866554
0.644084
0.492421
0.38424
0.30632
0.248628
0.20489
0.171263
0.145097
0.124523
0.108198
0.0951528
0.0847669
0.0775072
38.7028
13.0541
5.74336
3.08733
1.88066
1.22753
0.869536
0.645494
0.492776
0.385067
0.307573
0.249795
0.206014
0.172407
0.146305
0.125834
0.109656
0.0967996
0.0865677
0.0787856
45.0226
13.4729
5.73075
3.07323
1.86023
1.22702
0.873631
0.649886
0.497193
0.389825
0.311808
0.253721
0.210013
0.176659
0.150894
0.130699
0.114809
0.102312
0.0926398
0.0857655
58.5856
14.5696
6.08946
3.33295
2.08219
1.40271
0.998742
0.740469
0.566192
0.444435
0.356778
0.292028
0.24308
0.205461
0.176209
0.153787
0.136509
0.123473
0.113694
0.1074
90.5034
12.1248
4.38868
2.46659
1.63313
1.18307
0.902044
0.720664
0.594722
0.502625
0.43306
0.379893
0.336891
0.30205
0.273348
0.25035
0.232441
0.218074
0.209068
0.203669
58.5856
14.5696
6.08946
3.33295
2.08219
1.40271
0.998742
0.740468
0.566192
0.444435
0.356777
0.292027
0.243079
0.205461
0.176209
0.153785
0.136506
0.123469
0.113689
0.107394
16.5373
9.49238
5.0127
2.8606
1.75746
1.14761
0.786962
0.562109
0.415473
0.316119
0.246602
0.196627
0.159807
0.132128
0.111017
0.094841
0.0822613
0.0716476
0.0645772
0.0607255
13.6679
8.73671
5.0774
3.05388
1.92223
1.2661
0.86931
0.618673
0.454034
0.342161
0.263848
0.207609
0.166335
0.135463
0.111949
0.0937432
0.0795645
0.0682683
0.0594697
0.0526016
12.9054
8.33993
5.07879
3.15547
2.02774
1.35121
0.933553
0.666492
0.489607
0.368699
0.283772
0.222638
0.17769
0.14404
0.118448
0.0987012
0.0832965
0.0711563
0.061526
0.0537608
12.6882
8.1544
5.07113
3.20038
2.07939
1.39506
0.967847
0.692755
0.509695
0.384113
0.295662
0.231885
0.184935
0.149747
0.122957
0.102272
0.0861203
0.0733863
0.0632748
0.0552463
12.6882
8.1544
5.07113
3.20038
2.07939
1.39507
0.967852
0.692761
0.509703
0.384123
0.295674
0.2319
0.184956
0.149775
0.122992
0.102311
0.0861651
0.0734364
0.0633244
0.055306
12.9054
8.33993
5.07879
3.15547
2.02775
1.35122
0.933564
0.666506
0.489624
0.368719
0.283798
0.222671
0.177734
0.144095
0.118508
0.0987763
0.0833857
0.0712558
0.0615939
0.0538464
13.6679
8.73671
5.07741
3.05388
1.92224
1.26611
0.869317
0.618682
0.454045
0.342176
0.263867
0.207633
0.166368
0.135505
0.111995
0.0937987
0.079629
0.0683339
0.0595266
0.0535494
16.5373
9.49239
5.0127
2.8606
1.75746
1.14761
0.786962
0.56211
0.415473
0.316119
0.246602
0.196627
0.159808
0.132131
0.111018
0.0948399
0.0822603
0.0716466
0.0645772
0.0607247
58.5856
14.5696
6.08946
3.33294
2.08218
1.40271
0.998737
0.740462
0.566183
0.444417
0.356751
0.291986
0.243013
0.205324
0.176011
0.153477
0.135974
0.122454
0.111615
0.103889
45.0226
13.4729
5.73075
3.07323
1.86023
1.22702
0.873631
0.649885
0.497193
0.389825
0.311808
0.25372
0.210012
0.176659
0.150894
0.130698
0.114807
0.10231
0.0926369
0.0857617
13.6679
8.73671
5.07741
3.05388
1.92224
1.26611
0.869317
0.618682
0.454045
0.342175
0.263866
0.207632
0.166365
0.135501
0.111997
0.0938009
0.0796309
0.0683354
0.0595275
0.0535536
11.8601
7.76395
4.99734
3.24076
2.1442
1.455
1.01412
0.725666
0.532209
0.399236
0.305683
0.23843
0.189133
0.152362
0.124493
0.103062
0.0863959
0.0732828
0.0629375
0.0548175
11.6229
7.60535
5.0103
3.34209
2.26848
1.57143
1.11237
0.804608
0.594239
0.447577
0.343308
0.267785
0.212129
0.170462
0.138809
0.114435
0.09546
0.0805404
0.0687228
0.0593208
11.5726
7.56718
5.02065
3.38345
2.32103
1.62327
1.15829
0.843173
0.625721
0.472901
0.363569
0.283988
0.225111
0.180898
0.147231
0.121259
0.101011
0.0850725
0.0724259
0.0623113
11.5726
7.56718
5.02065
3.38345
2.32103
1.62327
1.1583
0.843178
0.625727
0.472908
0.363578
0.283999
0.225127
0.18092
0.147255
0.121286
0.101041
0.0851064
0.0724637
0.0623789
11.6229
7.60535
5.01031
3.34209
2.26849
1.57143
1.11237
0.804615
0.594248
0.447588
0.343323
0.267806
0.21216
0.170497
0.138838
0.114473
0.0955067
0.0805955
0.0687843
0.0594114
11.8601
7.76395
4.99734
3.24076
2.1442
1.455
1.01412
0.725666
0.532209
0.399237
0.305684
0.238433
0.18914
0.152368
0.124488
0.103057
0.0863914
0.0732794
0.0629346
0.0548101
13.6679
8.73671
5.0774
3.05388
1.92223
1.2661
0.86931
0.618673
0.454034
0.342161
0.263849
0.20761
0.166338
0.135467
0.111947
0.0937397
0.0795613
0.0682657
0.059468
0.0525961
45.0226
13.4729
5.73074
3.07322
1.86022
1.227
0.873614
0.649863
0.497164
0.389775
0.311744
0.253634
0.209892
0.176489
0.150643
0.130327
0.114244
0.10145
0.0913251
0.0839763
38.7028
13.0541
5.74336
3.08733
1.88066
1.22752
0.869536
0.645493
0.492775
0.385067
0.307573
0.249794
0.206014
0.172406
0.146303
0.125833
0.109655
0.0967979
0.0865662
0.0787841
12.9054
8.33993
5.07879
3.15547
2.02775
1.35122
0.933564
0.666506
0.489623
0.368719
0.283797
0.22267
0.177731
0.144091
0.118511
0.0987781
0.0833871
0.0712568
0.0615944
0.0538476
11.6229
7.60535
5.01031
3.34209
2.26849
1.57143
1.11237
0.804615
0.594248
0.447588
0.343322
0.267803
0.212152
0.17049
0.138843
0.114477
0.09551
0.0805981
0.068787
0.0594192
11.4933
7.5119
5.02843
3.434
2.38921
1.69281
1.22112
0.896499
0.669477
0.508159
0.391719
0.306388
0.242948
0.195143
0.158654
0.130465
0.108466
0.091138
0.0773774
0.0663516
11.4757
7.50136
5.04297
3.47002
2.43665
1.74299
1.26863
0.938718
0.705595
0.538359
0.416636
0.326804
0.259627
0.208766
0.169798
0.139603
0.115984
0.0973408
0.0824972
0.0705017
11.4757
7.50136
5.04297
3.47002
2.43665
1.74299
1.26863
0.938719
0.705597
0.538361
0.416639
0.326808
0.259634
0.208776
0.169806
0.139611
0.115991
0.0973487
0.0825051
0.0705081
11.4933
7.5119
5.02843
3.434
2.38921
1.69281
1.22112
0.896499
0.669478
0.50816
0.39172
0.306392
0.242958
0.195149
0.158648
0.130459
0.108462
0.0911345
0.077373
0.0663387
11.6229
7.60535
5.0103
3.34209
2.26848
1.57143
1.11237
0.804608
0.59424
0.447577
0.343309
0.267788
0.212137
0.170468
0.138801
0.114428
0.0954543
0.0805358
0.0687183
0.0593092
12.9054
8.33993
5.07879
3.15547
2.02774
1.35121
0.933553
0.666493
0.489608
0.368699
0.283772
0.222639
0.177693
0.144045
0.118443
0.0986965
0.0832923
0.071153
0.0615234
0.0537574
38.7028
13.0541
5.74335
3.08732
1.88065
1.22751
0.869518
0.64547
0.492745
0.385027
0.307515
0.249716
0.205904
0.172251
0.146082
0.125511
0.109177
0.0960754
0.0854971
0.0775413
36.0571
12.8529
5.76644
3.10211
1.89475
1.22671
0.866554
0.644084
0.492421
0.38424
0.30632
0.248627
0.204889
0.171263
0.145098
0.124523
0.108199
0.0951532
0.0847671
0.0775072
12.6882
8.1544
5.07113
3.20038
2.07939
1.39507
0.967852
0.692761
0.509703
0.384123
0.295674
0.2319
0.184954
0.149771
0.122987
0.102309
0.0861644
0.0734363
0.0633246
0.0553066
11.5726
7.56718
5.02065
3.38345
2.32103
1.62327
1.1583
0.843178
0.625726
0.472908
0.363578
0.283998
0.225125
0.180914
0.147251
0.121284
0.101041
0.0851066
0.0724648
0.0623831
11.4757
7.50136
5.04297
3.47002
2.43665
1.74299
1.26863
0.938719
0.705597
0.538361
0.416639
0.326807
0.259631
0.20877
0.169803
0.13961
0.115991
0.0973495
0.0825078
0.0705191
11.4647
7.49683
5.0577
3.50272
2.48038
1.79068
1.31522
0.981303
0.742925
0.570217
0.443372
0.349015
0.27798
0.223897
0.182273
0.149905
0.124511
0.104418
0.088373
0.0753283
11.4647
7.49683
5.0577
3.50272
2.48038
1.79068
1.31522
0.981303
0.742925
0.570217
0.443372
0.349016
0.277982
0.223901
0.182275
0.149906
0.124511
0.104417
0.0883716
0.0753234
11.4757
7.50136
5.04297
3.47002
2.43665
1.74299
1.26863
0.938718
0.705596
0.538359
0.416638
0.326808
0.259636
0.208771
0.16979
0.139597
0.115979
0.0973373
0.0824941
0.0704963
11.5726
7.56718
5.02065
3.38345
2.32103
1.62327
1.15829
0.843174
0.625721
0.472901
0.36357
0.283991
0.225119
0.180902
0.147222
0.121251
0.101005
0.0850676
0.0724217
0.0623036
12.6882
8.1544
5.07113
3.20038
2.07939
1.39506
0.967847
0.692755
0.509695
0.384113
0.295662
0.231886
0.184939
0.149752
0.122952
0.102266
0.0861155
0.0733825
0.0632719
0.0552429
36.0571
12.8529
5.76644
3.10211
1.89475
1.2267
0.866546
0.644074
0.492408
0.384222
0.306294
0.248593
0.204841
0.171195
0.145001
0.124383
0.107996
0.0948602
0.0843447
0.0768828
36.0571
12.8529
5.76644
3.10211
1.89475
1.2267
0.866546
0.644074
0.492407
0.384222
0.306293
0.248593
0.204842
0.171196
0.145002
0.124384
0.107995
0.0948594
0.0843436
0.0768816
12.6882
8.1544
5.07113
3.20038
2.07939
1.39506
0.967847
0.692754
0.509695
0.384113
0.295662
0.231885
0.184935
0.149746
0.122956
0.102271
0.08612
0.0733863
0.0632749
0.0552464
11.5726
7.56718
5.02065
3.38345
2.32103
1.62327
1.15829
0.843173
0.625721
0.472901
0.363569
0.283987
0.225111
0.180897
0.14723
0.121259
0.101011
0.0850726
0.0724259
0.0623094
11.4757
7.50136
5.04297
3.47002
2.43665
1.74299
1.26863
0.938718
0.705595
0.538359
0.416636
0.326804
0.259627
0.208766
0.169797
0.139603
0.115984
0.0973412
0.082498
0.070504
11.4647
7.49683
5.0577
3.50272
2.48038
1.79068
1.31522
0.981303
0.742925
0.570217
0.443372
0.349015
0.27798
0.223898
0.182273
0.149906
0.124512
0.104418
0.0883735
0.0753288
11.4647
7.49683
5.0577
3.50272
2.48038
1.79068
1.31522
0.981303
0.742925
0.570218
0.443372
0.349016
0.277982
0.223902
0.182275
0.149906
0.124511
0.104418
0.0883731
0.0753284
11.4757
7.50136
5.04297
3.47002
2.43665
1.74299
1.26863
0.93872
0.705597
0.538361
0.41664
0.326811
0.25964
0.208776
0.169796
0.139605
0.115987
0.0973465
0.0825048
0.0705122
11.5726
7.56718
5.02065
3.38345
2.32103
1.62327
1.1583
0.843178
0.625727
0.472908
0.363579
0.284002
0.225133
0.18092
0.147243
0.121277
0.101035
0.0851021
0.072461
0.0623773
12.6882
8.1544
5.07113
3.20038
2.07939
1.39507
0.967853
0.692761
0.509704
0.384123
0.295675
0.231901
0.184958
0.149776
0.122982
0.102304
0.0861601
0.0734327
0.0633216
0.0553029
36.0571
12.8529
5.76644
3.10211
1.89475
1.22671
0.866554
0.644084
0.492421
0.38424
0.30632
0.248628
0.204889
0.171263
0.145098
0.124523
0.108199
0.0951542
0.0847684
0.0775087
38.7028
13.0541
5.74335
3.08732
1.88065
1.22751
0.869518
0.64547
0.492745
0.385027
0.307514
0.249716
0.205905
0.172252
0.146082
0.125511
0.109177
0.0960746
0.085496
0.07754
12.9054
8.33993
5.07879
3.15547
2.02774
1.35121
0.933553
0.666493
0.489607
0.368699
0.283772
0.222638
0.17769
0.14404
0.118448
0.0987012
0.0832966
0.0711565
0.0615262
0.0537603
11.6229
7.60535
5.0103
3.34209
2.26848
1.57143
1.11237
0.804608
0.594239
0.447577
0.343308
0.267786
0.21213
0.170462
0.138809
0.114436
0.0954605
0.0805408
0.0687223
0.0593135
11.4933
7.5119
5.02843
3.434
2.38921
1.69281
1.22112
0.896499
0.669477
0.508159
0.391719
0.306389
0.242949
0.195144
0.158655
0.130466
0.108467
0.0911386
0.0773765
0.0663427
11.4757
7.50136
5.04297
3.47002
2.43665
1.74299
1.26863
0.93872
0.705597
0.538361
0.416639
0.326808
0.259632
0.208772
0.169805
0.139612
0.115993
0.0973504
0.0825072
0.0705116
11.4757
7.50136
5.04297
3.47002
2.43665
1.74299
1.26863
0.938718
0.705595
0.538359
0.416637
0.326806
0.25963
0.208772
0.169802
0.139605
0.115985
0.0973416
0.082498
0.070503
11.4933
7.5119
5.02843
3.434
2.38921
1.69281
1.22112
0.896499
0.669477
0.50816
0.39172
0.306392
0.242958
0.19515
0.158649
0.13046
0.108463
0.0911356
0.0773751
0.0663459
11.6229
7.60535
5.01031
3.34209
2.26849
1.57143
1.11237
0.804615
0.594248
0.447588
0.343323
0.267807
0.21216
0.170496
0.138836
0.114471
0.0955049
0.080594
0.0687836
0.0594145
12.9054
8.33993
5.07879
3.15547
2.02775
1.35122
0.933564
0.666506
0.489623
0.368719
0.283798
0.222672
0.177735
0.144096
0.118507
0.0987738
0.0833831
0.0712533
0.0615915
0.0538442
38.7028
13.0541
5.74336
3.08733
1.88066
1.22753
0.869537
0.645494
0.492776
0.385067
0.307574
0.249795
0.206014
0.172406
0.146303
0.125833
0.109656
0.0967994
0.0865681
0.0787863
45.0226
13.4729
5.73074
3.07322
1.86022
1.227
0.873615
0.649864
0.497164
0.389775
0.311744
0.253635
0.209893
0.17649
0.150644
0.130327
0.114244
0.101449
0.091324
0.083975
13.6679
8.73671
5.0774
3.05388
1.92223
1.2661
0.86931
0.618673
0.454034
0.342161
0.263848
0.207609
0.166336
0.135463
0.11195
0.0937432
0.0795645
0.0682682
0.0594695
0.0525985
11.8601
7.76395
4.99734
3.24076
2.1442
1.455
1.01412
0.725666
0.532209
0.399237
0.305683
0.238431
0.189134
0.152362
0.124494
0.103062
0.086396
0.0732828
0.0629369
0.0548121
11.6229
7.60535
5.01031
3.34209
2.26849
1.57143
1.11237
0.804615
0.594248
0.447588
0.343322
0.267804
0.212152
0.170491
0.138844
0.114478
0.0955106
0.0805982
0.0687861
0.0594124
11.5726
7.56718
5.02065
3.38345
2.32103
1.62327
1.1583
0.843178
0.625727
0.472908
0.363578
0.283999
0.225126
0.180916
0.147253
0.121286
0.101042
0.0851071
0.0724642
0.0623783
11.5726
7.56718
5.02065
3.38345
2.32103
1.62327
1.15829
0.843173
0.625721
0.472901
0.36357
0.283989
0.225114
0.180904
0.147235
0.121261
0.101012
0.0850724
0.0724252
0.0623067
11.6229
7.60535
5.0103
3.34209
2.26848
1.57143
1.11237
0.804607
0.594239
0.447577
0.343309
0.267788
0.212138
0.17047
0.138804
0.114431
0.0954568
0.0805377
0.0687199
0.0593119
11.8601
7.76395
4.99734
3.24076
2.1442
1.455
1.01412
0.725665
0.532208
0.399237
0.305684
0.238433
0.18914
0.152369
0.124488
0.103057
0.086391
0.0732787
0.0629338
0.0548107
13.6679
8.73671
5.07741
3.05388
1.92224
1.26611
0.869317
0.618681
0.454045
0.342176
0.263867
0.207633
0.166367
0.135505
0.111994
0.0937971
0.0796272
0.0683321
0.0595249
0.0535526
45.0226
13.4729
5.73075
3.07323
1.86023
1.22702
0.873631
0.649886
0.497193
0.389825
0.311808
0.253721
0.210012
0.176658
0.150893
0.130698
0.114809
0.102312
0.0926401
0.0857657
58.5856
14.5696
6.08946
3.33294
2.08218
1.40271
0.998737
0.740462
0.566184
0.444417
0.356751
0.291986
0.243013
0.205326
0.176012
0.153477
0.135974
0.122453
0.111614
0.103888
16.5373
9.49238
5.0127
2.8606
1.75746
1.14761
0.786963
0.56211
0.415473
0.316119
0.246602
0.196627
0.159807
0.132129
0.111018
0.094841
0.0822612
0.0716475
0.0645769
0.0607249
13.6679
8.73671
5.07741
3.05388
1.92224
1.26611
0.869317
0.618682
0.454045
0.342176
0.263867
0.207632
0.166365
0.135501
0.111998
0.0938004
0.0796301
0.0683345
0.0595267
0.0535487
12.9054
8.33993
5.07879
3.15547
2.02775
1.35122
0.933565
0.666506
0.489624
0.368719
0.283798
0.222671
0.177731
0.144091
0.118511
0.0987777
0.0833862
0.0712556
0.0615933
0.053845
12.6882
8.1544
5.07113
3.20038
2.07939
1.39507
0.967852
0.692762
0.509704
0.384123
0.295674
0.2319
0.184955
0.149772
0.122988
0.102309
0.0861637
0.0734351
0.0633232
0.0553039
12.6882
8.1544
5.07113
3.20038
2.07939
1.39506
0.967847
0.692754
0.509695
0.384113
0.295662
0.231885
0.184937
0.149751
0.122961
0.102272
0.0861193
0.0733848
0.0632732
0.0552437
12.9054
8.33993
5.07879
3.15547
2.02775
1.35121
0.933553
0.666492
0.489607
0.368699
0.283772
0.222639
0.177693
0.144044
0.118444
0.098698
0.0832936
0.0711539
0.0615239
0.0537576
13.6679
8.73671
5.0774
3.05388
1.92223
1.2661
0.86931
0.618673
0.454034
0.342161
0.263849
0.20761
0.166338
0.135467
0.111947
0.0937397
0.0795611
0.0682653
0.0594674
0.0525967
16.5373
9.49239
5.0127
2.8606
1.75746
1.14761
0.786963
0.562109
0.415473
0.316119
0.246602
0.196627
0.159808
0.13213
0.111017
0.0948391
0.0822596
0.071646
0.0645771
0.060725
58.5856
14.5696
6.08946
3.33295
2.08219
1.40271
0.998742
0.740469
0.566192
0.444436
0.356778
0.292029
0.24308
0.20546
0.176209
0.153786
0.136509
0.123473
0.113694
0.107401
90.5034
12.1248
4.38868
2.46659
1.63313
1.18307
0.902044
0.720664
0.594721
0.502625
0.43306
0.379892
0.33689
0.302051
0.273349
0.25035
0.23244
0.218074
0.209067
0.203667
58.5856
14.5696
6.08946
3.33295
2.08219
1.40271
0.998742
0.740469
0.566192
0.444435
0.356778
0.292028
0.24308
0.205461
0.17621
0.153786
0.136508
0.123471
0.113692
0.107398
45.0226
13.4729
5.73075
3.07323
1.86023
1.22702
0.873631
0.649886
0.497193
0.389825
0.311808
0.25372
0.210013
0.176659
0.150894
0.130698
0.114808
0.102311
0.0926386
0.0857644
38.7028
13.0541
5.74336
3.08733
1.88066
1.22753
0.869536
0.645494
0.492776
0.385067
0.307573
0.249795
0.206014
0.172407
0.146304
0.125833
0.109655
0.0967985
0.0865669
0.0787852
36.0571
12.8529
5.76644
3.10211
1.89475
1.22671
0.866554
0.644085
0.492421
0.38424
0.30632
0.248628
0.20489
0.171264
0.145098
0.124523
0.108198
0.0951532
0.0847672
0.0775075
36.0571
12.8529
5.76644
3.10211
1.89475
1.2267
0.866547
0.644075
0.492408
0.384222
0.306294
0.248593
0.204842
0.171196
0.145001
0.124383
0.107995
0.0948589
0.0843435
0.0768818
38.7028
13.0541
5.74335
3.08732
1.88065
1.22751
0.869518
0.645471
0.492746
0.385027
0.307515
0.249716
0.205905
0.172253
0.146083
0.125512
0.109178
0.096076
0.0854975
0.0775415
45.0226
13.4729
5.73074
3.07322
1.86022
1.227
0.873615
0.649864
0.497164
0.389776
0.311745
0.253635
0.209893
0.17649
0.150644
0.130328
0.114246
0.101451
0.0913262
0.0839772
58.5856
14.5696
6.08946
3.33294
2.08218
1.40271
0.998738
0.740462
0.566184
0.444417
0.356751
0.291987
0.243014
0.205325
0.176012
0.153478
0.135976
0.122456
0.111616
0.103891
90.5034
12.1248
4.38868
2.46659
1.63313
1.18307
0.902044
0.720664
0.594722
0.502625
0.43306
0.379893
0.336891
0.302051
0.273349
0.25035
0.232442
0.218075
0.209069
0.203671
0.359877
0.290283
0.240125
0.214697
0.202622
0.196551
0.192896
0.190431
0.188695
0.187468
0.186562
0.185867
0.185349
0.184969
0.18469
0.184492
0.184361
0.18429
0.184255
0.184253
0.184273
0.184309
0.184356
0.184401
0.18444
0.184468
0.184486
0.184503
0.184525
0.184544
0.184559
0.184561
0.184554
0.184562
0.184524
0.184543
0.184558
0.184563
0.184565
0.18456
0.146233
0.121243
0.106329
0.096513
0.0913828
0.0883049
0.0861609
0.0846166
0.0834666
0.082603
0.0819493
0.081451
0.0810714
0.0807846
0.0805732
0.0804238
0.080327
0.0802712
0.0802475
0.0802458
0.0802581
0.0802784
0.0802985
0.0803129
0.080326
0.0803406
0.0803572
0.0803747
0.0803875
0.0803925
0.0803954
0.080399
0.0804043
0.0804066
0.0803875
0.080393
0.0803991
0.0804076
0.0804192
0.0804332
0.105852
0.0896197
0.0799676
0.0742
0.0697571
0.0666857
0.0644993
0.0628802
0.0616689
0.0607554
0.0600575
0.0595229
0.0591123
0.0587999
0.0585682
0.0584029
0.0582879
0.0582142
0.0581667
0.0581488
0.0581454
0.0581502
0.0581553
0.0581567
0.0581623
0.0581726
0.0581868
0.0582016
0.0582109
0.0582135
0.0582165
0.0582223
0.0582307
0.05824
0.058247
0.0582433
0.0582441
0.0582495
0.0582589
0.0582709
0.0845169
0.0758869
0.0695316
0.0646962
0.0609618
0.0580834
0.0558705
0.0541742
0.052876
0.0518855
0.0511304
0.0505502
0.0501027
0.0497614
0.0495064
0.0493226
0.0491941
0.0491049
0.0490561
0.049017
0.0490071
0.0490035
0.0489986
0.0489913
0.0489917
0.0489995
0.0490125
0.0490264
0.0490332
0.049034
0.0490369
0.0490441
0.0490545
0.0490653
0.0490694
0.04907
0.0490716
0.0490774
0.0490872
0.0490991
0.0743237
0.0685191
0.0637038
0.0597638
0.0565304
0.0539215
0.0518436
0.0502049
0.0489227
0.0479263
0.0471551
0.0465547
0.0460871
0.0457313
0.045465
0.0452697
0.0451308
0.0450366
0.0449773
0.0449426
0.0449247
0.0449148
0.0449039
0.0448909
0.0448886
0.0448961
0.0449088
0.0449224
0.0449284
0.0449287
0.0449322
0.0449403
0.0449516
0.0449628
0.0449667
0.044967
0.0449686
0.0449756
0.0449855
0.0449967
0.0755315
0.0680267
0.0625343
0.0583536
0.0550679
0.0524814
0.0504476
0.0488519
0.0476033
0.0466295
0.0458722
0.0452799
0.044816
0.0444615
0.0441946
0.0439977
0.0438569
0.043761
0.0437
0.0436644
0.0436457
0.043635
0.0436232
0.0436107
0.0436094
0.0436175
0.0436315
0.0436456
0.0436514
0.0436512
0.0436547
0.0436629
0.0436741
0.0436845
0.0436867
0.0436868
0.0436897
0.043694
0.0437031
0.0437142
0.0802341
0.0704892
0.0638865
0.0592173
0.0557763
0.0531696
0.0511712
0.0496302
0.0484379
0.0475151
0.0468
0.0462405
0.0458018
0.0454659
0.0452134
0.0450283
0.0448974
0.0448087
0.0447537
0.0447227
0.0447075
0.0446999
0.0446911
0.0446808
0.044681
0.0446902
0.0447035
0.0447167
0.0447213
0.04472
0.0447228
0.0447302
0.0447407
0.0447498
0.0447507
0.044749
0.0447498
0.0447528
0.0447616
0.044773
0.085374
0.0726117
0.0658694
0.061636
0.0584615
0.0560491
0.05421
0.052807
0.05173
0.050902
0.0502601
0.0497569
0.0493603
0.0490556
0.048828
0.0486627
0.0485499
0.0484748
0.0484294
0.0484073
0.0483988
0.0483981
0.0483963
0.048392
0.0483952
0.0484047
0.0484186
0.0484322
0.0484376
0.0484357
0.0484382
0.0484444
0.0484539
0.0484627
0.0484647
0.0484587
0.0484537
0.0484543
0.0484623
0.0484749
0.0866104
0.0791321
0.0733714
0.0689325
0.065772
0.0635536
0.0619707
0.0607972
0.0598828
0.0591672
0.0586081
0.0581734
0.0578252
0.0575544
0.0573513
0.0572076
0.0571101
0.0570484
0.0570091
0.0570007
0.0570033
0.0570129
0.0570223
0.0570268
0.057035
0.0570469
0.0570618
0.0570767
0.0570853
0.0570859
0.0570876
0.057092
0.0570986
0.0571046
0.0571026
0.0570832
0.0570703
0.0570713
0.0570839
0.0571017
0.125301
0.107691
0.0958031
0.0894233
0.086169
0.0841773
0.0828752
0.0819261
0.0811647
0.0805534
0.0800606
0.0796691
0.0793572
0.0791151
0.0789351
0.0788086
0.0787294
0.0786858
0.0786712
0.0786759
0.078693
0.0787174
0.0787414
0.0787587
0.078774
0.0787897
0.0788065
0.0788239
0.0788368
0.0788409
0.0788423
0.0788443
0.0788478
0.0788517
0.0788509
0.0788393
0.0788161
0.0788094
0.0788175
0.0788353
0.359886
0.290283
0.240151
0.214673
0.202595
0.196544
0.192912
0.19046
0.188732
0.187507
0.186595
0.185897
0.185374
0.184986
0.184705
0.184506
0.184376
0.184307
0.184274
0.184274
0.184295
0.18433
0.184378
0.184423
0.184462
0.184489
0.184506
0.184523
0.184544
0.184562
0.184575
0.184575
0.184568
0.184562
0.184574
0.184577
0.184557
0.184539
0.18453
0.184526
0.125298
0.107692
0.0957923
0.0894368
0.0861715
0.0841652
0.082852
0.0818984
0.0811356
0.0805264
0.0800396
0.0796502
0.0793435
0.0791055
0.0789262
0.0787989
0.0787187
0.078674
0.0786586
0.078663
0.0786802
0.0787048
0.0787291
0.078747
0.0787624
0.0787784
0.0787958
0.078814
0.0788276
0.0788326
0.0788351
0.0788374
0.0788405
0.0788394
0.0788108
0.0788127
0.078816
0.0788242
0.078837
0.0788524
0.0666558
0.0580321
0.0507967
0.0463504
0.0437827
0.0421022
0.0409096
0.040027
0.0393279
0.0388048
0.0383818
0.0380696
0.0377699
0.0375941
0.037451
0.037337
0.0372551
0.0371982
0.0371649
0.0371438
0.0371423
0.0371493
0.0371658
0.0371877
0.0372149
0.0372126
0.0372101
0.0372166
0.037233
0.0372481
0.0372677
0.0372643
0.0372545
0.0372701
0.0374305
0.0372913
0.0372906
0.0372821
0.0372596
0.0372523
0.0587446
0.0488498
0.0417628
0.0379388
0.0352982
0.0333636
0.0317918
0.0307331
0.0297334
0.0291122
0.028529
0.0281341
0.027799
0.0275649
0.0273886
0.0272345
0.0271228
0.0270379
0.0269801
0.0269394
0.0269278
0.0269328
0.0269849
0.0270637
0.0270481
0.0270087
0.0269899
0.0269987
0.0270447
0.0271223
0.0271021
0.0270545
0.0270424
0.0270308
0.0270969
0.0271742
0.0271396
0.0270799
0.0270599
0.027028
0.0542862
0.046375
0.0404852
0.0359335
0.0333132
0.0311963
0.0295017
0.0281548
0.0270749
0.0262308
0.0255663
0.0250585
0.0246608
0.0243853
0.0241268
0.0239095
0.0237882
0.0236424
0.0235719
0.023514
0.0234716
0.0234819
0.02356
0.023667
0.0236294
0.0235806
0.0235476
0.0235446
0.0236128
0.0237165
0.023674
0.0236194
0.0235852
0.0235676
0.0236455
0.0237297
0.0236848
0.0236426
0.0236107
0.0235602
0.0495422
0.0441937
0.0396488
0.0354462
0.0325559
0.0304853
0.028748
0.0273173
0.0261548
0.0252208
0.0244875
0.023974
0.0236207
0.0232208
0.0229054
0.022667
0.0224882
0.0223617
0.0222445
0.022188
0.0221147
0.0221286
0.0222317
0.0223531
0.0222904
0.0222308
0.0221836
0.0221691
0.0222453
0.022359
0.0223058
0.0222563
0.022212
0.0221992
0.0222752
0.0223799
0.0223282
0.0222781
0.0222343
0.0221774
0.0493367
0.0439138
0.0394242
0.0353591
0.0323656
0.030305
0.0285475
0.027085
0.0258923
0.024934
0.0241821
0.0236574
0.0232927
0.0228845
0.0225579
0.0223046
0.0221167
0.0219791
0.0218749
0.0218023
0.0217326
0.021739
0.0218438
0.0219643
0.0218975
0.0218374
0.0217943
0.0217618
0.0218544
0.0219734
0.0219171
0.0218639
0.0218227
0.0218074
0.0218904
0.0220094
0.0219496
0.0218909
0.0218404
0.0218042
0.049781
0.0441687
0.0394484
0.0352794
0.0325285
0.0304433
0.0287046
0.0272828
0.0261343
0.0252155
0.0244965
0.0239867
0.0236253
0.0232309
0.0229232
0.0226915
0.0225116
0.0223888
0.0222709
0.0222144
0.0221516
0.0221631
0.0222582
0.02238
0.0223322
0.0222815
0.0222419
0.0222369
0.0223231
0.0224416
0.0223857
0.0223322
0.0222898
0.0222643
0.0223572
0.0224834
0.0224166
0.0223569
0.0223121
0.0222768
0.0489917
0.0442606
0.0391673
0.0353949
0.0329046
0.0308822
0.0292621
0.0279744
0.0269496
0.0261481
0.0255371
0.0250481
0.0247263
0.0244304
0.0241599
0.0239804
0.0237913
0.0237024
0.0236091
0.0235452
0.0235299
0.0235386
0.0236214
0.0237315
0.0236959
0.0236479
0.0236203
0.0236215
0.0236972
0.0238039
0.0237604
0.0237003
0.0236647
0.0236424
0.023672
0.0237448
0.0237792
0.0237468
0.0237031
0.0236619
0.0537554
0.0458768
0.040386
0.0371556
0.0347486
0.0329205
0.0314748
0.0304018
0.0295467
0.0288938
0.0284045
0.0279764
0.0277131
0.0274899
0.0273114
0.0271674
0.0270574
0.0269787
0.0269231
0.026888
0.0268809
0.0268888
0.0269413
0.0270218
0.0270041
0.0269717
0.0269563
0.0269655
0.0270135
0.0270903
0.0270669
0.0270213
0.0270059
0.027002
0.027027
0.0271273
0.0271191
0.0270935
0.0270342
0.026994
0.0666575
0.0580305
0.0507845
0.0463925
0.0437681
0.0420891
0.0409094
0.0400277
0.039337
0.038811
0.0384035
0.0380356
0.037799
0.0376063
0.0374524
0.037336
0.0372533
0.0371976
0.0371642
0.0371439
0.037142
0.03715
0.0371659
0.0371903
0.0372152
0.0372135
0.037213
0.0372192
0.0372365
0.0372506
0.0372672
0.0372658
0.0372495
0.0372512
0.0372591
0.0372484
0.0373102
0.0372904
0.0372574
0.0372418
0.146234
0.121238
0.10633
0.0964994
0.0913747
0.0883101
0.0861752
0.0846356
0.0834871
0.0826226
0.0819639
0.0814615
0.0810776
0.080789
0.080579
0.0804323
0.0803375
0.0802835
0.0802615
0.0802606
0.0802732
0.0802935
0.0803137
0.080328
0.0803413
0.0803559
0.0803724
0.0803894
0.0804016
0.0804057
0.0804071
0.0804096
0.0804138
0.0804182
0.0804172
0.0804063
0.0803874
0.0803828
0.0803926
0.0804114
0.0866059
0.0791258
0.0733567
0.0689035
0.0657361
0.0635154
0.0619328
0.0607617
0.0598507
0.0591393
0.0585852
0.0581509
0.0578092
0.0575441
0.0573448
0.0572025
0.057105
0.0570431
0.0570035
0.0569954
0.0569985
0.0570085
0.0570184
0.057024
0.0570327
0.0570451
0.0570604
0.0570755
0.0570846
0.0570859
0.0570873
0.0570906
0.0570958
0.0570978
0.0570905
0.0570736
0.0570677
0.0570747
0.0570896
0.057108
0.0537591
0.0458762
0.0404275
0.0372642
0.0348175
0.0329582
0.0314893
0.0304106
0.0295446
0.0288991
0.0284026
0.0280096
0.0276977
0.0274816
0.0273138
0.0271699
0.0270638
0.0269841
0.0269297
0.0268913
0.0268827
0.0268895
0.0269408
0.0270189
0.0270061
0.0269693
0.0269541
0.0269647
0.0270087
0.0270841
0.0270666
0.0270215
0.0270097
0.0270123
0.0270828
0.02722
0.0271461
0.0270656
0.0270204
0.0269901
0.0485564
0.0429049
0.0380608
0.0343354
0.03142
0.0291621
0.0273999
0.0260187
0.0248232
0.0241195
0.0235504
0.023004
0.0226402
0.0223672
0.0221237
0.0219266
0.0217727
0.0216538
0.0215637
0.0215003
0.0214669
0.021485
0.0215635
0.0216858
0.0216642
0.0216002
0.0215867
0.0215862
0.0216449
0.0217646
0.0217392
0.0216656
0.0216383
0.0216349
0.0216636
0.0217811
0.0217739
0.0216955
0.0216506
0.0215908
0.0506364
0.0446425
0.0396164
0.0355014
0.0322347
0.0296289
0.0275447
0.0258666
0.024514
0.0234588
0.0226207
0.0219857
0.0216551
0.0212597
0.0209348
0.0206783
0.0204805
0.0203231
0.0202023
0.0201079
0.0200491
0.0200735
0.0202028
0.0203487
0.0202849
0.020224
0.0201676
0.0201675
0.0202841
0.0204254
0.0203516
0.0202818
0.0202238
0.0202233
0.0203403
0.0204764
0.0203933
0.0203096
0.0202317
0.0201626
0.0525507
0.0461183
0.0408973
0.0366081
0.0331574
0.0303838
0.0281369
0.0263137
0.0248366
0.0236446
0.022686
0.0219554
0.0215
0.0210243
0.0206449
0.0204018
0.020196
0.0200274
0.0198935
0.0197928
0.0197353
0.0197461
0.0199015
0.0200457
0.0199433
0.0198488
0.019779
0.0197436
0.0198936
0.0200459
0.0199621
0.0198806
0.0198201
0.0198181
0.0199601
0.0201123
0.0200168
0.0199172
0.0198243
0.0197559
0.0525524
0.0463482
0.0412133
0.0369506
0.0334734
0.0306596
0.0283692
0.0265034
0.0249865
0.0237583
0.0227733
0.0220263
0.0215394
0.0210612
0.0206592
0.0203362
0.0201522
0.0199849
0.0198479
0.0197435
0.0196818
0.0196917
0.0198579
0.0200084
0.0198981
0.0197974
0.0197208
0.0197106
0.0198501
0.0200054
0.0199153
0.0198295
0.0197669
0.0197699
0.0199291
0.0200891
0.0199859
0.0198763
0.0197758
0.0197013
0.0516233
0.045608
0.040597
0.0364414
0.0330641
0.0303237
0.0280982
0.0262948
0.0248349
0.0236598
0.0227164
0.0220029
0.0215292
0.0210456
0.0206742
0.0204225
0.0202043
0.0200262
0.0198848
0.0197804
0.0197196
0.0197275
0.0198769
0.020038
0.0199627
0.0198882
0.0198305
0.0198288
0.0199669
0.0201213
0.0200361
0.0199541
0.0198967
0.0199129
0.0201066
0.0202479
0.0201213
0.0200056
0.0199066
0.0198338
0.0501399
0.0441557
0.0392242
0.0352328
0.0320502
0.0295121
0.0274843
0.0258429
0.0245147
0.0234804
0.0226592
0.0220888
0.0217852
0.0213633
0.021022
0.0207557
0.0205342
0.0203698
0.0202235
0.0201394
0.0200842
0.020114
0.0202454
0.0203977