/*--------------------------------*- C++ -*----------------------------------*\
| =========                 |                                                 |
| \\      /  F ield         | OpenFOAM: The Open Source CFD Toolbox           |
|  \\    /   O peration     | Version:  2212                                  |
|   \\  /    A nd           | Website:  www.openfoam.com                      |
|    \\/     M anipulation  |                                                 |
\*---------------------------------------------------------------------------*/
FoamFile
{
    version     2.0;
    format      ascii;
    arch        "LSB;label=32;scalar=64";
    class       volScalarField;
    location    "0.5";
    object      k;
}
// * * * * * * * * * * * * * * * * * * * * * * * * * * * * * * * * * * * * * //

dimensions      [0 2 -2 0 0 0 0];

internalField   nonuniform List<scalar> 
6840
(
0.213564
0.055916
0.0283993
0.0193412
0.0146927
0.011851
0.00989087
0.00851602
0.00749212
0.00669708
0.00606261
0.00555594
0.00512679
0.00476142
0.00445158
0.00419461
0.00398459
0.00381691
0.00371017
0.00363449
0.264759
0.104702
0.0585297
0.039163
0.0286199
0.0219937
0.0175366
0.0143647
0.0120107
0.0102186
0.00882415
0.00771761
0.0068243
0.00609176
0.0054904
0.00500347
0.00460534
0.00428479
0.00402191
0.00383147
0.283364
0.126774
0.0717019
0.0473281
0.0338662
0.0256617
0.0204611
0.0167978
0.0140502
0.0119446
0.01029
0.00896528
0.00789866
0.00703216
0.00632058
0.00573033
0.00523884
0.00482886
0.00449043
0.00423258
0.292299
0.141633
0.0819301
0.0541653
0.0389229
0.0292874
0.0232726
0.0190794
0.0159358
0.0135181
0.0116339
0.0101233
0.00889771
0.00789432
0.00706607
0.00637752
0.00580125
0.00531566
0.00490517
0.00458273
0.295943
0.148782
0.087194
0.0576748
0.0415192
0.0310722
0.0246453
0.0202218
0.0169067
0.0143282
0.0123157
0.0107131
0.00941214
0.00834569
0.00746412
0.00672999
0.00611462
0.00559596
0.00516026
0.00483238
0.295943
0.148782
0.087194
0.0576748
0.0415193
0.0310723
0.0246455
0.020222
0.016907
0.0143286
0.0123164
0.0107141
0.0094136
0.00834787
0.00746744
0.0067351
0.00612248
0.00560795
0.0051789
0.00486649
0.292299
0.141633
0.0819301
0.0541654
0.038923
0.0292876
0.0232729
0.0190799
0.0159364
0.013519
0.0116353
0.0101255
0.00890081
0.00789899
0.00707318
0.00638845
0.00581824
0.00534246
0.00494641
0.004636
0.283364
0.126774
0.071702
0.0473282
0.0338663
0.0256618
0.0204614
0.0167982
0.0140508
0.0119456
0.0102914
0.00896728
0.00790161
0.00703655
0.00632745
0.0057411
0.00525577
0.00485562
0.0045326
0.00429326
0.264759
0.104702
0.0585297
0.039163
0.02862
0.0219937
0.0175367
0.0143648
0.0120108
0.0102188
0.00882461
0.00771835
0.00682554
0.00609442
0.00549447
0.00501015
0.00461719
0.00430784
0.00406934
0.0039098
0.213564
0.055916
0.0283993
0.0193412
0.0146927
0.011851
0.00989087
0.00851602
0.00749212
0.00669709
0.00606261
0.00555595
0.0051268
0.00476142
0.00445159
0.00419463
0.00398464
0.00381698
0.00371024
0.00363463
0.264759
0.104702
0.0585297
0.039163
0.02862
0.0219937
0.0175367
0.0143648
0.0120108
0.0102188
0.0088246
0.00771834
0.00682553
0.00609444
0.00549448
0.00501012
0.00461713
0.00430775
0.00406923
0.00390967
0.311746
0.197541
0.130357
0.0911456
0.0668024
0.0508117
0.039796
0.0319155
0.0261005
0.021698
0.0182941
0.0156161
0.0134825
0.01176
0.0103553
0.00920137
0.00824879
0.00747267
0.00681668
0.00618587
0.31754
0.217754
0.151085
0.108549
0.0807156
0.061873
0.0486785
0.0391444
0.0320637
0.0266806
0.0225053
0.0192116
0.0165763
0.0144422
0.0126971
0.0112598
0.0100681
0.00907701
0.00824942
0.00754443
0.319723
0.227073
0.162232
0.118772
0.089361
0.0689931
0.0545317
0.0439869
0.0361047
0.0300835
0.0253969
0.0216887
0.0187137
0.0162984
0.0143179
0.0126806
0.0113174
0.0101757
0.00921364
0.00838987
0.320484
0.23086
0.167175
0.123531
0.0935159
0.0724829
0.0574418
0.0464238
0.0381587
0.031826
0.0268857
0.0229702
0.019824
0.0172663
0.0151662
0.0134276
0.0119784
0.0107629
0.00973613
0.008839
0.320484
0.23086
0.167175
0.123531
0.093516
0.0724831
0.0574421
0.0464242
0.0381592
0.0318268
0.0268868
0.0229717
0.0198263
0.0172696
0.0151709
0.0134344
0.0119883
0.0107774
0.00975841
0.00889633
0.319723
0.227073
0.162232
0.118772
0.0893613
0.0689935
0.0545322
0.0439877
0.0361057
0.0300851
0.0253992
0.021692
0.0187184
0.0163051
0.0143276
0.0126948
0.0113384
0.0102067
0.00926006
0.00846706
0.31754
0.217754
0.151085
0.108549
0.0807158
0.0618733
0.0486789
0.039145
0.0320646
0.0266818
0.0225069
0.019214
0.0165798
0.0144472
0.0127045
0.0112709
0.0100847
0.00910239
0.00828937
0.00759705
0.311746
0.197541
0.130357
0.0911456
0.0668024
0.0508118
0.039796
0.0319155
0.0261005
0.021698
0.0182941
0.0156161
0.0134825
0.0117599
0.0103553
0.0092014
0.00824888
0.00747281
0.00681683
0.00618607
0.264759
0.104702
0.0585297
0.039163
0.0286199
0.0219937
0.0175366
0.0143647
0.0120107
0.0102186
0.00882416
0.00771761
0.0068243
0.00609173
0.00549038
0.00500348
0.00460539
0.00428486
0.004022
0.00383159
0.283364
0.126774
0.071702
0.0473282
0.0338663
0.0256618
0.0204614
0.0167982
0.0140508
0.0119456
0.0102914
0.00896727
0.0079016
0.00703656
0.00632743
0.00574105
0.00525571
0.00485554
0.00453251
0.00429314
0.31754
0.217754
0.151085
0.108549
0.0807158
0.0618733
0.0486789
0.0391449
0.0320645
0.0266818
0.0225069
0.019214
0.0165798
0.0144473
0.0127045
0.0112708
0.0100846
0.00910227
0.00828925
0.0075969
0.322005
0.239026
0.177588
0.133616
0.102323
0.0798675
0.0635119
0.0513848
0.0422267
0.0351884
0.0296908
0.0253337
0.0218359
0.0189964
0.0166691
0.0147468
0.0131493
0.0118154
0.0106944
0.00972167
0.323293
0.245617
0.187499
0.144537
0.112864
0.0894044
0.0718645
0.0585889
0.048404
0.0404822
0.0342382
0.0292553
0.0252336
0.0219549
0.0192582
0.0170234
0.0151599
0.0135971
0.0122757
0.0111287
0.323714
0.247819
0.191099
0.14881
0.117249
0.0935713
0.0756585
0.0619629
0.0513671
0.0430689
0.0364922
0.0312206
0.0269508
0.0234598
0.0205815
0.0181912
0.0161941
0.0145155
0.0130917
0.0118462
0.323714
0.247819
0.191099
0.14881
0.117249
0.0935715
0.0756587
0.0619632
0.0513674
0.0430694
0.0364929
0.0312215
0.0269521
0.0234616
0.0205839
0.0181945
0.0161986
0.0145219
0.0131021
0.0118714
0.323293
0.245617
0.187499
0.144537
0.112864
0.0894046
0.0718648
0.0585893
0.0484046
0.040483
0.0342393
0.0292568
0.0252358
0.0219578
0.0192621
0.0170289
0.0151676
0.013608
0.0122921
0.0111601
0.322005
0.239026
0.177588
0.133616
0.102323
0.0798675
0.0635119
0.0513848
0.0422267
0.0351884
0.0296908
0.0253338
0.021836
0.0189963
0.016669
0.0147468
0.0131493
0.0118154
0.0106944
0.00972163
0.31754
0.217754
0.151085
0.108549
0.0807156
0.061873
0.0486785
0.0391444
0.0320637
0.0266806
0.0225053
0.0192116
0.0165763
0.0144421
0.012697
0.0112598
0.0100681
0.00907713
0.00824956
0.00754462
0.283364
0.126774
0.0717019
0.0473281
0.0338662
0.0256617
0.0204611
0.0167978
0.0140502
0.0119446
0.01029
0.00896528
0.00789864
0.00703212
0.00632056
0.00573034
0.00523889
0.00482893
0.00449051
0.0042327
0.292299
0.141633
0.0819301
0.0541654
0.038923
0.0292876
0.0232729
0.0190798
0.0159364
0.013519
0.0116353
0.0101254
0.00890081
0.00789899
0.00707315
0.00638841
0.00581819
0.0053424
0.00494635
0.00463595
0.319723
0.227073
0.162232
0.118772
0.0893613
0.0689935
0.0545322
0.0439877
0.0361057
0.0300851
0.0253991
0.021692
0.0187184
0.0163051
0.0143276
0.0126947
0.0113383
0.0102066
0.00926
0.00846702
0.323293
0.245617
0.187499
0.144537
0.112864
0.0894046
0.0718647
0.0585893
0.0484046
0.040483
0.0342393
0.0292567
0.0252357
0.0219578
0.0192622
0.017029
0.0151676
0.013608
0.0122921
0.0111603
0.324288
0.250862
0.19613
0.154888
0.123591
0.0996806
0.0812753
0.066986
0.0557889
0.0469296
0.0398518
0.0341438
0.0294994
0.025689
0.0225394
0.0199189
0.0177262
0.0158813
0.0143157
0.0129564
0.32459
0.252403
0.19891
0.158543
0.12769
0.103871
0.0853211
0.0707518
0.0592135
0.0499991
0.0425795
0.0365567
0.03163
0.0275706
0.0242033
0.0213933
0.019036
0.0170471
0.0153525
0.0138666
0.32459
0.252403
0.19891
0.158543
0.12769
0.103872
0.0853211
0.0707519
0.0592136
0.0499992
0.0425797
0.036557
0.0316304
0.0275712
0.024204
0.0213942
0.0190371
0.0170485
0.0153544
0.0138684
0.324288
0.250862
0.19613
0.154888
0.123591
0.0996806
0.0812753
0.0669861
0.0557889
0.0469296
0.0398518
0.0341439
0.0294996
0.0256891
0.0225393
0.0199188
0.0177262
0.0158812
0.0143155
0.012956
0.323293
0.245617
0.187499
0.144537
0.112864
0.0894044
0.0718645
0.0585889
0.0484041
0.0404823
0.0342383
0.0292554
0.0252337
0.0219549
0.019258
0.0170233
0.0151599
0.0135971
0.0122757
0.0111285
0.319723
0.227073
0.162232
0.118772
0.089361
0.0689931
0.0545317
0.0439869
0.0361047
0.0300835
0.0253969
0.0216888
0.0187137
0.0162984
0.0143179
0.0126806
0.0113175
0.0101758
0.00921376
0.00838997
0.292299
0.141633
0.0819301
0.0541653
0.0389229
0.0292874
0.0232726
0.0190794
0.0159358
0.0135181
0.0116339
0.0101233
0.00889769
0.00789428
0.00706605
0.00637754
0.00580129
0.00531572
0.00490524
0.00458283
0.295943
0.148782
0.087194
0.0576748
0.0415193
0.0310723
0.0246455
0.020222
0.016907
0.0143286
0.0123164
0.0107141
0.00941359
0.00834788
0.00746747
0.00673513
0.0061225
0.00560797
0.0051789
0.00486649
0.320484
0.23086
0.167175
0.123531
0.093516
0.0724831
0.0574421
0.0464242
0.0381592
0.0318267
0.0268867
0.0229717
0.0198262
0.0172696
0.015171
0.0134345
0.0119883
0.0107774
0.00975844
0.00889635
0.323714
0.247819
0.191099
0.14881
0.117249
0.0935715
0.0756587
0.0619632
0.0513674
0.0430694
0.0364928
0.0312215
0.0269521
0.0234615
0.0205839
0.0181945
0.0161986
0.014522
0.0131022
0.0118716
0.32459
0.252403
0.19891
0.158543
0.12769
0.103871
0.0853211
0.0707519
0.0592136
0.0499992
0.0425796
0.0365569
0.0316303
0.027571
0.0242039
0.0213942
0.0190371
0.0170486
0.0153546
0.0138689
0.324844
0.253685
0.20131
0.161837
0.131535
0.107944
0.0893709
0.0746142
0.0627951
0.0532591
0.0455112
0.0391741
0.0339575
0.0296372
0.0260386
0.0230252
0.0204897
0.0183445
0.0165105
0.0148953
0.324844
0.253685
0.20131
0.161837
0.131535
0.107944
0.0893709
0.0746142
0.0627951
0.0532591
0.0455113
0.0391741
0.0339576
0.0296373
0.0260386
0.0230251
0.0204897
0.0183444
0.0165104
0.0148951
0.32459
0.252403
0.19891
0.158543
0.12769
0.103871
0.0853211
0.0707519
0.0592135
0.0499991
0.0425795
0.0365568
0.0316302
0.0275706
0.0242031
0.0213932
0.0190359
0.017047
0.0153523
0.0138664
0.323714
0.247819
0.191099
0.14881
0.117249
0.0935713
0.0756585
0.0619629
0.0513671
0.0430689
0.0364922
0.0312207
0.0269509
0.0234598
0.0205813
0.0181911
0.016194
0.0145155
0.0130917
0.0118461
0.320484
0.23086
0.167175
0.123531
0.0935159
0.0724829
0.0574418
0.0464238
0.0381587
0.031826
0.0268857
0.0229702
0.019824
0.0172663
0.0151661
0.0134276
0.0119784
0.010763
0.00973624
0.00883908
0.295943
0.148782
0.087194
0.0576748
0.0415192
0.0310722
0.0246454
0.0202218
0.0169067
0.0143282
0.0123157
0.0107131
0.00941212
0.00834565
0.00746412
0.00673001
0.00611466
0.00559602
0.00516032
0.00483243
0.295943
0.148782
0.087194
0.0576748
0.0415192
0.0310722
0.0246453
0.0202218
0.0169067
0.0143282
0.0123157
0.0107131
0.00941213
0.00834569
0.00746413
0.00673
0.00611463
0.00559598
0.00516027
0.00483238
0.320484
0.23086
0.167175
0.123531
0.0935159
0.0724829
0.0574418
0.0464238
0.0381587
0.031826
0.0268857
0.0229702
0.019824
0.0172663
0.0151662
0.0134276
0.0119784
0.0107629
0.00973615
0.00883901
0.323714
0.247819
0.191099
0.14881
0.117249
0.0935713
0.0756585
0.0619629
0.0513671
0.0430689
0.0364922
0.0312206
0.0269508
0.0234598
0.0205815
0.0181912
0.0161941
0.0145155
0.0130917
0.0118462
0.32459
0.252403
0.19891
0.158543
0.12769
0.103871
0.0853211
0.0707518
0.0592135
0.0499991
0.0425795
0.0365567
0.0316299
0.0275706
0.0242033
0.0213933
0.019036
0.0170471
0.0153525
0.0138667
0.324844
0.253685
0.20131
0.161837
0.131535
0.107944
0.0893709
0.0746142
0.0627951
0.0532591
0.0455112
0.0391741
0.0339575
0.0296372
0.0260386
0.0230252
0.0204897
0.0183445
0.0165105
0.0148953
0.324844
0.253685
0.20131
0.161837
0.131535
0.107944
0.0893709
0.0746142
0.0627951
0.0532591
0.0455113
0.0391742
0.0339576
0.0296373
0.0260386
0.0230251
0.0204897
0.0183444
0.0165105
0.0148952
0.32459
0.252403
0.19891
0.158543
0.12769
0.103872
0.0853212
0.0707519
0.0592137
0.0499993
0.0425797
0.0365571
0.0316305
0.0275711
0.0242038
0.0213941
0.019037
0.0170485
0.0153544
0.0138685
0.323714
0.247819
0.191099
0.14881
0.117249
0.0935715
0.0756587
0.0619632
0.0513674
0.0430694
0.0364929
0.0312216
0.0269522
0.0234615
0.0205837
0.0181944
0.0161986
0.0145219
0.0131021
0.0118714
0.320484
0.23086
0.167175
0.123531
0.093516
0.0724831
0.0574421
0.0464242
0.0381593
0.0318268
0.0268868
0.0229718
0.0198263
0.0172695
0.0151709
0.0134345
0.0119883
0.0107775
0.00975852
0.00889643
0.295943
0.148782
0.087194
0.0576748
0.0415193
0.0310723
0.0246455
0.020222
0.016907
0.0143286
0.0123164
0.0107141
0.00941358
0.00834785
0.00746746
0.00673514
0.00612253
0.00560801
0.00517896
0.00486656
0.292299
0.141633
0.0819301
0.0541653
0.0389229
0.0292874
0.0232726
0.0190794
0.0159358
0.0135181
0.0116339
0.0101233
0.00889771
0.00789432
0.00706607
0.00637753
0.00580126
0.00531568
0.00490519
0.00458277
0.319723
0.227073
0.162232
0.118772
0.089361
0.0689931
0.0545317
0.0439869
0.0361047
0.0300835
0.0253969
0.0216887
0.0187137
0.0162984
0.0143179
0.0126806
0.0113174
0.0101757
0.00921365
0.00838986
0.323293
0.245617
0.187499
0.144537
0.112864
0.0894044
0.0718645
0.0585889
0.048404
0.0404822
0.0342382
0.0292553
0.0252336
0.0219549
0.0192582
0.0170234
0.0151599
0.0135971
0.0122757
0.0111285
0.324288
0.250862
0.19613
0.154888
0.123591
0.0996806
0.0812753
0.0669861
0.0557889
0.0469296
0.0398518
0.0341438
0.0294994
0.025689
0.0225395
0.0199189
0.0177262
0.0158812
0.0143156
0.0129561
0.32459
0.252403
0.19891
0.158543
0.12769
0.103872
0.0853212
0.0707519
0.0592136
0.0499992
0.0425797
0.036557
0.0316303
0.0275711
0.024204
0.0213942
0.0190371
0.0170485
0.0153544
0.0138685
0.32459
0.252403
0.19891
0.158543
0.12769
0.103871
0.0853211
0.0707519
0.0592135
0.0499991
0.0425795
0.0365568
0.0316301
0.0275707
0.0242033
0.0213933
0.0190359
0.017047
0.0153524
0.0138665
0.324288
0.250862
0.19613
0.154888
0.123591
0.0996806
0.0812753
0.0669861
0.0557889
0.0469296
0.0398519
0.0341439
0.0294996
0.0256891
0.0225393
0.0199188
0.0177261
0.0158811
0.0143155
0.0129561
0.323293
0.245617
0.187499
0.144537
0.112864
0.0894047
0.0718648
0.0585893
0.0484046
0.040483
0.0342393
0.0292569
0.0252358
0.0219577
0.019262
0.0170289
0.0151676
0.0136079
0.0122921
0.0111602
0.319723
0.227073
0.162232
0.118772
0.0893613
0.0689935
0.0545322
0.0439877
0.0361058
0.0300851
0.0253992
0.021692
0.0187184
0.0163051
0.0143276
0.0126947
0.0113384
0.0102067
0.00926011
0.00846713
0.292299
0.141633
0.0819301
0.0541654
0.038923
0.0292876
0.0232729
0.0190799
0.0159364
0.013519
0.0116353
0.0101255
0.00890081
0.00789895
0.00707315
0.00638843
0.00581823
0.00534246
0.00494643
0.00463603
0.283364
0.126774
0.0717019
0.0473281
0.0338662
0.0256617
0.0204611
0.0167978
0.0140502
0.0119446
0.01029
0.00896528
0.00789866
0.00703217
0.00632058
0.00573034
0.00523886
0.00482889
0.00449046
0.00423264
0.31754
0.217754
0.151085
0.108549
0.0807156
0.061873
0.0486785
0.0391444
0.0320637
0.0266806
0.0225053
0.0192116
0.0165763
0.0144422
0.0126971
0.0112598
0.0100681
0.00907703
0.00824944
0.00754449
0.322005
0.239026
0.177588
0.133616
0.102323
0.0798675
0.0635119
0.0513848
0.0422267
0.0351884
0.0296908
0.0253337
0.0218359
0.0189964
0.0166691
0.0147468
0.0131493
0.0118154
0.0106943
0.00972156
0.323293
0.245617
0.187499
0.144537
0.112864
0.0894046
0.0718648
0.0585893
0.0484046
0.040483
0.0342393
0.0292568
0.0252357
0.0219578
0.0192622
0.0170289
0.0151676
0.0136079
0.012292
0.01116
0.323714
0.247819
0.191099
0.14881
0.117249
0.0935715
0.0756587
0.0619632
0.0513674
0.0430694
0.0364929
0.0312215
0.0269521
0.0234616
0.0205839
0.0181945
0.0161986
0.0145219
0.013102
0.0118713
0.323714
0.247819
0.191099
0.14881
0.117249
0.0935713
0.0756585
0.0619629
0.0513671
0.0430689
0.0364922
0.0312206
0.0269509
0.0234599
0.0205815
0.0181911
0.016194
0.0145154
0.0130916
0.011846
0.323293
0.245617
0.187499
0.144537
0.112864
0.0894044
0.0718645
0.0585889
0.0484041
0.0404823
0.0342383
0.0292554
0.0252337
0.0219549
0.019258
0.0170233
0.0151598
0.013597
0.0122756
0.0111285
0.322005
0.239026
0.177588
0.133616
0.102323
0.0798675
0.0635119
0.0513848
0.0422268
0.0351884
0.0296908
0.0253338
0.021836
0.0189963
0.016669
0.0147467
0.0131493
0.0118154
0.0106944
0.00972164
0.31754
0.217754
0.151085
0.108549
0.0807158
0.0618733
0.0486789
0.039145
0.0320646
0.0266818
0.022507
0.019214
0.0165798
0.0144472
0.0127045
0.0112708
0.0100847
0.00910239
0.00828941
0.00759706
0.283364
0.126774
0.071702
0.0473282
0.0338663
0.0256618
0.0204614
0.0167982
0.0140508
0.0119456
0.0102914
0.00896728
0.0079016
0.00703653
0.00632743
0.00574108
0.00525576
0.00485562
0.00453261
0.00429326
0.264759
0.104702
0.0585297
0.039163
0.0286199
0.0219937
0.0175366
0.0143647
0.0120107
0.0102186
0.00882416
0.00771761
0.00682431
0.00609178
0.00549041
0.00500349
0.00460537
0.00428483
0.00402197
0.00383156
0.311746
0.197541
0.130357
0.0911456
0.0668024
0.0508118
0.039796
0.0319155
0.0261005
0.021698
0.0182941
0.0156161
0.0134825
0.01176
0.0103553
0.00920139
0.00824883
0.00747272
0.00681674
0.00618598
0.31754
0.217754
0.151085
0.108549
0.0807158
0.0618733
0.0486789
0.039145
0.0320646
0.0266818
0.0225069
0.019214
0.0165798
0.0144473
0.0127046
0.0112708
0.0100846
0.00910231
0.00828929
0.00759698
0.319723
0.227073
0.162232
0.118772
0.0893613
0.0689935
0.0545322
0.0439877
0.0361057
0.0300851
0.0253992
0.021692
0.0187184
0.0163052
0.0143277
0.0126948
0.0113383
0.0102066
0.00926001
0.00846702
0.320484
0.23086
0.167175
0.123531
0.093516
0.0724831
0.0574421
0.0464242
0.0381593
0.0318268
0.0268868
0.0229717
0.0198263
0.0172696
0.015171
0.0134345
0.0119883
0.0107774
0.0097584
0.00889631
0.320484
0.23086
0.167175
0.123531
0.0935159
0.0724829
0.0574418
0.0464238
0.0381587
0.031826
0.0268857
0.0229702
0.0198241
0.0172663
0.0151662
0.0134275
0.0119783
0.0107629
0.00973611
0.00883897
0.319723
0.227073
0.162232
0.118772
0.089361
0.0689931
0.0545317
0.0439869
0.0361047
0.0300835
0.0253969
0.0216888
0.0187137
0.0162984
0.0143179
0.0126805
0.0113175
0.0101758
0.0092137
0.00838991
0.31754
0.217754
0.151085
0.108549
0.0807156
0.061873
0.0486785
0.0391444
0.0320637
0.0266806
0.0225053
0.0192116
0.0165763
0.0144421
0.0126971
0.0112598
0.0100681
0.00907714
0.00824957
0.00754462
0.311746
0.197541
0.130357
0.0911456
0.0668024
0.0508118
0.039796
0.0319155
0.0261005
0.021698
0.0182941
0.0156162
0.0134825
0.0117599
0.0103553
0.00920141
0.00824891
0.00747284
0.00681688
0.00618609
0.264759
0.104702
0.0585297
0.039163
0.02862
0.0219937
0.0175367
0.0143648
0.0120108
0.0102188
0.00882461
0.00771836
0.00682555
0.00609442
0.00549447
0.00501015
0.0046172
0.00430785
0.00406935
0.00390981
0.213564
0.055916
0.0283993
0.0193412
0.0146927
0.011851
0.00989087
0.00851603
0.00749212
0.00669709
0.00606262
0.00555595
0.00512679
0.00476143
0.0044516
0.00419463
0.00398463
0.00381697
0.00371023
0.00363462
0.264759
0.104702
0.0585297
0.039163
0.02862
0.0219937
0.0175367
0.0143648
0.0120108
0.0102188
0.0088246
0.00771835
0.00682554
0.00609445
0.00549449
0.00501014
0.00461717
0.0043078
0.0040693
0.00390977
0.283364
0.126774
0.071702
0.0473282
0.0338663
0.0256618
0.0204614
0.0167982
0.0140508
0.0119456
0.0102914
0.00896728
0.00790162
0.00703657
0.00632745
0.00574108
0.00525574
0.00485558
0.00453256
0.00429324
0.292299
0.141633
0.0819301
0.0541654
0.038923
0.0292876
0.0232729
0.0190799
0.0159364
0.013519
0.0116353
0.0101254
0.00890082
0.007899
0.00707317
0.00638842
0.0058182
0.00534243
0.00494638
0.00463599
0.295943
0.148782
0.087194
0.0576748
0.0415193
0.0310723
0.0246455
0.020222
0.016907
0.0143286
0.0123164
0.0107141
0.0094136
0.00834789
0.00746747
0.00673512
0.00612249
0.00560797
0.00517891
0.0048665
0.295943
0.148782
0.087194
0.0576748
0.0415192
0.0310722
0.0246454
0.0202218
0.0169067
0.0143282
0.0123157
0.0107131
0.00941214
0.00834567
0.00746409
0.00672996
0.0061146
0.00559596
0.00516027
0.00483239
0.292299
0.141633
0.0819301
0.0541653
0.0389229
0.0292874
0.0232726
0.0190794
0.0159358
0.0135181
0.0116339
0.0101234
0.0088977
0.00789431
0.00706608
0.00637755
0.00580129
0.00531572
0.00490524
0.00458283
0.283364
0.126774
0.0717019
0.0473281
0.0338662
0.0256617
0.0204611
0.0167978
0.0140502
0.0119446
0.01029
0.00896529
0.00789865
0.00703214
0.00632058
0.00573036
0.00523891
0.00482895
0.00449053
0.00423271
0.264759
0.104702
0.0585297
0.039163
0.0286199
0.0219937
0.0175366
0.0143647
0.0120107
0.0102186
0.00882417
0.00771762
0.00682431
0.00609175
0.0054904
0.00500351
0.00460541
0.00428488
0.00402203
0.00383162
0.213564
0.055916
0.0283993
0.0193412
0.0146927
0.011851
0.00989087
0.00851602
0.00749212
0.00669709
0.00606262
0.00555595
0.0051268
0.00476143
0.00445159
0.00419464
0.00398464
0.00381698
0.00371025
0.00363464
0.0047537
0.00410645
0.00359913
0.00331992
0.00317468
0.00310065
0.00305446
0.00302345
0.0030016
0.00298564
0.00297319
0.00296339
0.00295596
0.00295029
0.00294595
0.00294268
0.00294033
0.00293876
0.00293776
0.00293723
0.00293702
0.00293709
0.00293738
0.00293774
0.00293803
0.00293819
0.00293826
0.00293835
0.00293855
0.00293877
0.00293892
0.00293889
0.00293874
0.00293878
0.00293842
0.00293864
0.00293881
0.00293885
0.00293882
0.00293867
0.00429296
0.00378321
0.00344191
0.00322028
0.00307084
0.00299389
0.00293714
0.0028942
0.00286162
0.00283669
0.0028175
0.00280258
0.00279105
0.00278202
0.00277509
0.00276993
0.00276625
0.00276377
0.00276222
0.00276141
0.00276107
0.00276107
0.00276115
0.00276117
0.00276119
0.00276132
0.00276154
0.00276185
0.00276207
0.00276215
0.00276216
0.0027622
0.0027623
0.00276236
0.00276195
0.00276199
0.0027621
0.0027623
0.00276259
0.00276296
0.00441698
0.00396267
0.00363339
0.00344753
0.00329903
0.0031868
0.00310532
0.00304423
0.00299724
0.00296106
0.0029329
0.00291085
0.00289358
0.00288007
0.00286971
0.00286195
0.0028563
0.00285233
0.00284969
0.00284808
0.00284685
0.00284638
0.00284603
0.00284545
0.00284526
0.00284533
0.00284562
0.00284597
0.00284614
0.00284603
0.00284613
0.0028463
0.00284662
0.00284697
0.00284717
0.00284688
0.00284692
0.00284713
0.00284752
0.002848
0.00436223
0.00405517
0.00381644
0.00362732
0.00347511
0.00335322
0.00325638
0.0031799
0.00311977
0.0030727
0.00303599
0.00300721
0.00298446
0.00296683
0.0029533
0.00294308
0.00293561
0.00293018
0.0029265
0.002924
0.00292239
0.00292138
0.00292041
0.0029194
0.00291891
0.00291891
0.00291924
0.00291965
0.00291977
0.00291952
0.00291964
0.00291994
0.00292039
0.00292089
0.00292105
0.00292099
0.00292105
0.00292129
0.00292174
0.00292227
0.00433157
0.00408812
0.0038796
0.00370645
0.00356034
0.00343878
0.00333903
0.00325811
0.00319312
0.00314134
0.00310032
0.00306767
0.00304162
0.00302144
0.00300595
0.00299419
0.00298541
0.00297906
0.00297458
0.00297164
0.00296975
0.00296834
0.00296696
0.00296561
0.00296496
0.00296493
0.00296534
0.00296579
0.00296589
0.00296558
0.00296574
0.0029661
0.00296662
0.00296718
0.00296728
0.00296717
0.00296726
0.00296758
0.00296815
0.00296873
0.00450778
0.00417576
0.00392646
0.00373462
0.00358016
0.00345505
0.00335393
0.00327254
0.00320731
0.0031553
0.00311394
0.00308084
0.0030543
0.00303367
0.00301778
0.00300566
0.00299658
0.00298996
0.00298528
0.00298222
0.00298023
0.00297875
0.00297727
0.00297585
0.00297522
0.00297524
0.00297565
0.00297614
0.00297625
0.00297603
0.00297609
0.00297644
0.00297697
0.00297751
0.00297755
0.00297748
0.00297766
0.00297785
0.00297831
0.00297888
0.00455215
0.00415455
0.00387805
0.00367541
0.00351975
0.00339754
0.00330087
0.00322429
0.00316356
0.00311545
0.00307737
0.00304694
0.00302256
0.00300359
0.00298896
0.00297785
0.00296957
0.00296361
0.00295944
0.00295674
0.00295501
0.00295372
0.00295244
0.00295115
0.00295059
0.00295061
0.00295104
0.00295147
0.0029515
0.00295122
0.00295124
0.00295155
0.00295204
0.00295249
0.00295246
0.00295231
0.0029524
0.00295253
0.00295295
0.00295352
0.0043584
0.00391815
0.00366415
0.00349495
0.00336176
0.00325703
0.00317501
0.00311071
0.00306014
0.00302031
0.00298894
0.00296384
0.00294366
0.00292786
0.00291571
0.00290659
0.00289987
0.00289513
0.00289191
0.00288986
0.00288871
0.00288756
0.0028868
0.00288589
0.00288551
0.00288558
0.00288596
0.00288636
0.00288643
0.00288615
0.00288615
0.00288639
0.0028868
0.00288724
0.00288734
0.00288707
0.00288682
0.0028868
0.00288712
0.00288767
0.00384492
0.00361011
0.00341757
0.00326717
0.00315155
0.00306799
0.00300644
0.00296004
0.0029234
0.00289428
0.00287115
0.00285279
0.00283789
0.00282603
0.00281685
0.00280998
0.002805
0.00280155
0.00279937
0.00279777
0.00279714
0.00279679
0.00279654
0.00279613
0.00279601
0.00279612
0.00279642
0.00279678
0.00279694
0.00279677
0.0027968
0.0027969
0.00279715
0.00279739
0.00279736
0.00279672
0.00279615
0.00279612
0.00279654
0.00279718
0.00389214
0.00349991
0.00321874
0.00303482
0.00294614
0.00288933
0.00285038
0.00282128
0.00279815
0.00277949
0.00276434
0.00275224
0.00274237
0.00273449
0.0027284
0.00272385
0.00272065
0.00271851
0.00271723
0.00271659
0.00271643
0.00271654
0.00271673
0.00271685
0.00271692
0.00271707
0.0027173
0.0027176
0.00271783
0.00271789
0.00271786
0.00271786
0.00271791
0.002718
0.00271799
0.0027178
0.00271717
0.00271695
0.00271707
0.00271745
0.0047538
0.00410648
0.00359938
0.00331978
0.00317452
0.00310068
0.00305472
0.00302385
0.00300207
0.00298611
0.00297359
0.0029638
0.00295628
0.00295052
0.00294613
0.00294285
0.00294052
0.00293898
0.00293801
0.00293751
0.00293732
0.00293739
0.00293769
0.00293805
0.00293835
0.0029385
0.00293854
0.00293861
0.0029388
0.00293902
0.00293914
0.00293909
0.00293893
0.00293881
0.00293894
0.00293911
0.00293889
0.00293863
0.00293841
0.00293823
0.00389205
0.00349988
0.00321848
0.00303482
0.00294592
0.00288884
0.00284966
0.00282049
0.00279737
0.00277876
0.00276377
0.00275163
0.00274201
0.00273425
0.00272818
0.00272361
0.00272036
0.00271819
0.00271688
0.00271623
0.00271606
0.00271618
0.00271637
0.00271651
0.00271659
0.00271676
0.00271701
0.00271733
0.00271758
0.00271767
0.00271767
0.00271767
0.00271771
0.00271767
0.00271708
0.00271705
0.00271706
0.00271724
0.00271754
0.00271793
0.00434034
0.00405928
0.00386677
0.00374616
0.00365755
0.00358795
0.00353007
0.00348049
0.00343677
0.00339869
0.00336672
0.00333966
0.00331801
0.00329939
0.00328447
0.00327313
0.00326515
0.0032598
0.0032566
0.00325489
0.00325433
0.00325412
0.00325373
0.0032527
0.00325189
0.00325201
0.00325268
0.00325367
0.00325399
0.0032536
0.00325315
0.00325327
0.00325383
0.00325396
0.00325161
0.00325122
0.00325144
0.00325229
0.00325388
0.00325599
0.00576173
0.00533951
0.00502079
0.00477479
0.00458147
0.00442893
0.00430911
0.00421247
0.00413391
0.00406817
0.00401519
0.00397162
0.00393565
0.00390627
0.00388292
0.00386508
0.00385182
0.00384246
0.00383603
0.0038321
0.00382957
0.00382745
0.00382545
0.00382266
0.003821
0.00382109
0.00382183
0.00382284
0.0038227
0.00382163
0.00382142
0.00382196
0.00382295
0.00382415
0.00382393
0.00382272
0.00382262
0.00382343
0.00382493
0.00382717
0.00704894
0.00643922
0.00597411
0.00561664
0.00532622
0.00509099
0.00490186
0.00475042
0.00462924
0.00453218
0.00445492
0.00439222
0.00434081
0.00429991
0.00426815
0.00424389
0.0042254
0.00421212
0.00420267
0.00419624
0.00419223
0.00418874
0.00418489
0.0041808
0.00417863
0.00417868
0.00417947
0.00418054
0.00418042
0.00417934
0.00417903
0.0041797
0.00418095
0.00418248
0.00418254
0.00418193
0.00418186
0.00418264
0.00418412
0.00418638
0.00769664
0.00706863
0.0065527
0.00614016
0.00580244
0.00552231
0.00529262
0.00510597
0.00495538
0.00483461
0.00473821
0.00466048
0.00459707
0.00454741
0.00450882
0.0044791
0.00445651
0.00443979
0.00442787
0.00441958
0.00441427
0.00440984
0.00440487
0.00440042
0.00439803
0.00439803
0.00439882
0.00439997
0.00439993
0.00439889
0.00439862
0.00439928
0.00440064
0.00440215
0.00440237
0.00440171
0.00440157
0.00440242
0.00440401
0.00440634
0.00785604
0.00726667
0.00676368
0.00634726
0.00599986
0.00570726
0.00546478
0.00526619
0.00510495
0.00497494
0.00487065
0.00478644
0.00471785
0.00466404
0.00462233
0.00459005
0.00456548
0.00454719
0.00453399
0.00452486
0.00451883
0.00451399
0.00450878
0.00450413
0.00450177
0.00450173
0.0045024
0.00450356
0.00450353
0.00450259
0.00450224
0.00450288
0.00450418
0.00450561
0.00450574
0.00450523
0.00450507
0.00450588
0.00450743
0.00450947
0.00780214
0.0071745
0.00666496
0.00625264
0.00591
0.00562517
0.00539121
0.00520071
0.00504666
0.00492279
0.00482362
0.00474355
0.00467835
0.00462716
0.00458732
0.00455663
0.00453351
0.00451637
0.00450422
0.0044958
0.00449022
0.00448568
0.00448078
0.0044763
0.00447387
0.00447371
0.00447431
0.00447516
0.004475
0.00447396
0.00447362
0.00447422
0.00447539
0.00447671
0.00447661
0.00447607
0.00447584
0.00447664
0.00447811
0.00448005
0.00714147
0.00662012
0.00617487
0.00580725
0.00550309
0.00525541
0.0050556
0.00489521
0.00476676
0.0046639
0.00458174
0.0045149
0.00445995
0.00441683
0.00438366
0.00435825
0.00433957
0.00432583
0.00431627
0.00430995
0.00430544
0.0043018
0.00429805
0.00429396
0.00429187
0.0042918
0.00429244
0.0042933
0.00429309
0.00429195
0.00429157
0.00429217
0.00429334
0.00429468
0.00429465
0.00429418
0.00429377
0.00429397
0.00429504
0.00429693
0.00627224
0.00570141
0.00529443
0.00499493
0.00476971
0.00459613
0.00445977
0.00435094
0.00426292
0.00419077
0.00413222
0.00408487
0.00404548
0.00401385
0.00398912
0.00397039
0.00395662
0.00394689
0.00394024
0.00393614
0.00393346
0.00393129
0.00392921
0.00392626
0.00392501
0.00392492
0.00392555
0.00392644
0.00392626
0.00392528
0.00392469
0.00392523
0.00392618
0.0039272
0.00392706
0.0039256
0.00392402
0.00392414
0.00392556
0.00392807
0.00434028
0.00405909
0.0038672
0.00374611
0.00365874
0.00358971
0.00353225
0.00348257
0.00343862
0.00340034
0.0033676
0.00334112
0.00331818
0.00329939
0.00328474
0.00327376
0.00326605
0.00326088
0.0032578
0.00325609
0.00325554
0.00325531
0.00325491
0.00325374
0.00325291
0.00325296
0.00325354
0.00325447
0.00325474
0.00325428
0.0032537
0.00325375
0.00325432
0.00325497
0.00325481
0.00325353
0.00325098
0.00325087
0.00325213
0.00325465
0.00429297
0.00378317
0.00344195
0.00322013
0.00307089
0.00299419
0.00293759
0.00289472
0.00286215
0.0028372
0.00281787
0.00280295
0.00279121