/*--------------------------------*- C++ -*----------------------------------*\
| =========                 |                                                 |
| \\      /  F ield         | OpenFOAM: The Open Source CFD Toolbox           |
|  \\    /   O peration     | Version:  2212                                  |
|   \\  /    A nd           | Website:  www.openfoam.com                      |
|    \\/     M anipulation  |                                                 |
\*---------------------------------------------------------------------------*/
FoamFile
{
    version     2.0;
    format      ascii;
    arch        "LSB;label=32;scalar=64";
    class       volScalarField;
    location    "0.5";
    object      nut;
}
// * * * * * * * * * * * * * * * * * * * * * * * * * * * * * * * * * * * * * //

dimensions      [0 2 -1 0 0 0 0];

internalField   nonuniform List<scalar> 
6840
(
4.5356e-05
2.3208e-05
1.65396e-05
1.36493e-05
1.18966e-05
1.06843e-05
9.76077e-06
9.05698e-06
8.49451e-06
8.03101e-06
7.6386e-06
7.31305e-06
7.02174e-06
6.75518e-06
6.52462e-06
6.3253e-06
6.14758e-06
6.01272e-06
5.9259e-06
5.83753e-06
0.000107685
6.77183e-05
5.06311e-05
4.14158e-05
3.54047e-05
3.10364e-05
2.7713e-05
2.50803e-05
2.2931e-05
2.11461e-05
1.96437e-05
1.83589e-05
1.72476e-05
1.62662e-05
1.54138e-05
1.46806e-05
1.40383e-05
1.34938e-05
1.30436e-05
1.2718e-05
0.000160509
0.00010736
8.07408e-05
6.55975e-05
5.54895e-05
4.83022e-05
4.31302e-05
3.90775e-05
3.57363e-05
3.29438e-05
3.05687e-05
2.85208e-05
2.67517e-05
2.52174e-05
2.38674e-05
2.2676e-05
2.16213e-05
2.06865e-05
1.98718e-05
1.92004e-05
0.000198681
0.0001383
0.000105187
8.55268e-05
7.2501e-05
6.28896e-05
5.60599e-05
5.07569e-05
4.6384e-05
4.27149e-05
3.96118e-05
3.69356e-05
3.46045e-05
3.25617e-05
3.0761e-05
2.91653e-05
2.77432e-05
2.64698e-05
2.53284e-05
2.43765e-05
0.000218609
0.000155003
0.000118661
9.65067e-05
8.18821e-05
7.08349e-05
6.30842e-05
5.7141e-05
5.2244e-05
4.80888e-05
4.45682e-05
4.15512e-05
3.89225e-05
3.66162e-05
3.45802e-05
3.27725e-05
3.11586e-05
2.97108e-05
2.84142e-05
2.73365e-05
0.000218609
0.000155003
0.000118661
9.65068e-05
8.18822e-05
7.0835e-05
6.30844e-05
5.71412e-05
5.22444e-05
4.80895e-05
4.45694e-05
4.15531e-05
3.89255e-05
3.6621e-05
3.45881e-05
3.27856e-05
3.11801e-05
2.97461e-05
2.84768e-05
2.75e-05
0.000198681
0.0001383
0.000105187
8.55269e-05
7.25012e-05
6.28898e-05
5.60602e-05
5.07575e-05
4.63849e-05
4.27163e-05
3.96142e-05
3.69393e-05
3.46103e-05
3.25709e-05
3.07761e-05
2.919e-05
2.77838e-05
2.6537e-05
2.5437e-05
2.45517e-05
0.000160509
0.00010736
8.07409e-05
6.55975e-05
5.54896e-05
4.83023e-05
4.31304e-05
3.90779e-05
3.5737e-05
3.29451e-05
3.05706e-05
2.85239e-05
2.67564e-05
2.52247e-05
2.38796e-05
2.26965e-05
2.1654e-05
2.07398e-05
1.9959e-05
1.93422e-05
0.000107685
6.77183e-05
5.06311e-05
4.14159e-05
3.54047e-05
3.10364e-05
2.77131e-05
2.50804e-05
2.29311e-05
2.11464e-05
1.96442e-05
1.83598e-05
1.72492e-05
1.62697e-05
1.54194e-05
1.46901e-05
1.40552e-05
1.35266e-05
1.31085e-05
1.281e-05
4.5356e-05
2.3208e-05
1.65396e-05
1.36493e-05
1.18966e-05
1.06843e-05
9.76077e-06
9.05698e-06
8.4945e-06
8.03102e-06
7.63861e-06
7.31305e-06
7.02175e-06
6.75519e-06
6.52464e-06
6.32533e-06
6.14763e-06
6.0128e-06
5.92597e-06
5.83765e-06
0.000107685
6.77183e-05
5.06311e-05
4.14159e-05
3.54047e-05
3.10364e-05
2.77131e-05
2.50804e-05
2.29311e-05
2.11464e-05
1.96442e-05
1.83597e-05
1.72492e-05
1.62698e-05
1.54194e-05
1.46901e-05
1.40551e-05
1.35265e-05
1.31083e-05
1.28097e-05
0.000528907
0.000369984
0.000305096
0.000261371
0.000228528
0.000202478
0.000181121
0.000163089
0.00014757
0.000134039
0.000122143
0.000111621
0.000102373
9.42015e-05
8.69317e-05
8.03436e-05
7.44436e-05
7.01443e-05
6.47604e-05
5.67117e-05
0.000663952
0.000488458
0.000404618
0.000347248
0.000305036
0.00027213
0.000245325
0.000222905
0.00020379
0.000187242
0.000172765
0.000160001
0.000148673
0.000138576
0.000129607
0.00012172
0.000114661
0.00010862
0.00010299
9.73858e-05
0.00071288
0.000556432
0.000466396
0.000402354
0.000354426
0.000317053
0.000286682
0.000261273
0.000239619
0.000220916
0.000204567
0.000190157
0.000177378
0.000165978
0.000155768
0.000146621
0.000138392
0.000130967
0.000124179
0.000117839
0.000728543
0.000588231
0.000496001
0.000429131
0.00037851
0.000338937
0.000306826
0.000279991
0.00025711
0.000237327
0.000220033
0.000204785
0.000191252
0.000179177
0.000168361
0.000158666
0.000149945
0.000142065
0.000134829
0.000127276
0.000728543
0.000588231
0.000496001
0.000429131
0.00037851
0.000338938
0.000306827
0.000279993
0.000257113
0.000237332
0.000220042
0.000204799
0.000191275
0.000179211
0.000168419
0.000158767
0.000150115
0.00014235
0.000135341
0.000128793
0.00071288
0.000556432
0.000466397
0.000402355
0.000354427
0.000317054
0.000286685
0.000261277
0.000239625
0.000220927
0.000204584
0.000190186
0.000177422
0.000166052
0.000155899
0.000146839
0.000138756
0.00013158
0.000125295
0.000119826
0.000663952
0.000488458
0.000404619
0.000347248
0.000305037
0.000272131
0.000245328
0.000222909
0.000203795
0.00018725
0.000172779
0.000160023
0.000148707
0.00013863
0.000129706
0.000121888
0.000114947
0.000109123
0.00010389
9.70013e-05
0.000528907
0.000369984
0.000305096
0.000261371
0.000228528
0.000202478
0.000181121
0.000163089
0.00014757
0.000134039
0.000122143
0.000111621
0.000102372
9.41988e-05
8.69309e-05
8.0345e-05
7.44462e-05
7.01478e-05
6.47631e-05
5.67162e-05
0.000107685
6.77183e-05
5.06311e-05
4.14158e-05
3.54047e-05
3.10364e-05
2.7713e-05
2.50803e-05
2.2931e-05
2.11461e-05
1.96437e-05
1.83589e-05
1.72476e-05
1.62661e-05
1.54137e-05
1.46806e-05
1.40384e-05
1.3494e-05
1.30438e-05
1.27183e-05
0.000160509
0.00010736
8.07409e-05
6.55975e-05
5.54896e-05
4.83023e-05
4.31304e-05
3.90779e-05
3.5737e-05
3.29451e-05
3.05706e-05
2.85238e-05
2.67565e-05
2.52248e-05
2.38796e-05
2.26964e-05
2.16539e-05
2.07396e-05
1.99588e-05
1.93419e-05
0.000663952
0.000488458
0.000404619
0.000347248
0.000305037
0.000272131
0.000245328
0.000222909
0.000203795
0.00018725
0.000172779
0.000160023
0.000148709
0.000138635
0.000129704
0.000121884
0.000114942
0.000109118
0.000103886
9.69901e-05
0.000786827
0.000662293
0.000567974
0.000495806
0.000439465
0.000394566
0.000357984
0.000327473
0.000301534
0.000279133
0.000259547
0.000242258
0.000226891
0.000213161
0.000200872
0.000189906
0.000180117
0.000171449
0.000163547
0.000155169
0.000809324
0.000713906
0.000631505
0.000562574
0.000505379
0.00045779
0.000417852
0.000383962
0.00035485
0.000329537
0.000307313
0.00028765
0.000270147
0.000254495
0.000240467
0.000227917
0.000216678
0.000206595
0.000197349
0.000187899
0.000814958
0.000730426
0.000654634
0.000589044
0.000533069
0.000485443
0.000444774
0.000409816
0.000379517
0.000353021
0.000329652
0.000308905
0.000290395
0.000273815
0.00025894
0.000245612
0.000233661
0.000222904
0.000212981
0.00020269
0.000814958
0.000730426
0.000654634
0.000589044
0.000533069
0.000485444
0.000444775
0.000409818
0.000379519
0.000353023
0.000329656
0.000308911
0.000290403
0.000273825
0.000258958
0.000245648
0.000233722
0.000223012
0.000213208
0.000203334
0.000809324
0.000713906
0.000631505
0.000562574
0.000505379
0.000457791
0.000417853
0.000383964
0.000354852
0.000329541
0.000307319
0.000287659
0.000270155
0.000254509
0.000240514
0.000227989
0.000216792
0.000206784
0.000197699
0.000188672
0.000786827
0.000662293
0.000567974
0.000495806
0.000439465
0.000394566
0.000357984
0.000327473
0.000301534
0.000279133
0.000259547
0.000242257
0.000226884
0.000213152
0.00020088
0.000189916
0.000180127
0.000171459
0.000163556
0.000155189
0.000663952
0.000488458
0.000404618
0.000347248
0.000305036
0.00027213
0.000245325
0.000222905
0.00020379
0.000187242
0.000172765
0.000160001
0.000148671
0.00013857
0.00012961
0.000121725
0.000114667
0.000108627
0.000102996
9.7401e-05
0.000160509
0.00010736
8.07408e-05
6.55975e-05
5.54895e-05
4.83022e-05
4.31302e-05
3.90775e-05
3.57363e-05
3.29438e-05
3.05687e-05
2.85208e-05
2.67517e-05
2.52172e-05
2.38674e-05
2.26762e-05
2.16215e-05
2.06867e-05
1.98721e-05
1.92008e-05
0.000198681
0.0001383
0.000105187
8.55269e-05
7.25012e-05
6.28898e-05
5.60602e-05
5.07575e-05
4.63849e-05
4.27163e-05
3.96142e-05
3.69392e-05
3.46103e-05
3.25711e-05
3.07762e-05
2.919e-05
2.77838e-05
2.65369e-05
2.54369e-05
2.45517e-05
0.00071288
0.000556432
0.000466397
0.000402355
0.000354427
0.000317054
0.000286685
0.000261277
0.000239625
0.000220927
0.000204584
0.000190186
0.000177425
0.000166056
0.000155896
0.000146835
0.000138753
0.000131577
0.000125292
0.000119822
0.000809324
0.000713906
0.000631505
0.000562574
0.000505379
0.000457791
0.000417853
0.000383964
0.000354852
0.000329541
0.000307319
0.00028766
0.000270163
0.00025452
0.000240508
0.000227982
0.000216785
0.000206778
0.000197693
0.000188655
0.000823497
0.000753987
0.000688491
0.000628749
0.000575389
0.000528271
0.000486857
0.000450465
0.00041841
0.000390064
0.000364891
0.000342448
0.000322369
0.000304358
0.000288189
0.000273704
0.000260725
0.000249065
0.000238371
0.000227698
0.000826292
0.000764347
0.000706102
0.000651937
0.000602232
0.000557108
0.000516439
0.000479936
0.000447228
0.000417922
0.000391639
0.000368035
0.000346809
0.000327698
0.000310499
0.000295055
0.000281188
0.000268687
0.000257134
0.000245461
0.000826292
0.000764347
0.000706103
0.000651937
0.000602233
0.000557109
0.000516439
0.000479936
0.000447228
0.000417923
0.00039164
0.000368036
0.00034681
0.000327697
0.000310501
0.000295063
0.000281203
0.000268711
0.000257174
0.000245504
0.000823497
0.000753987
0.000688491
0.000628749
0.000575389
0.000528271
0.000486857
0.000450465
0.00041841
0.000390064
0.000364891
0.000342446
0.000322362
0.000304349
0.000288197
0.000273712
0.000260733
0.000249072
0.000238379
0.000227728
0.000809324
0.000713906
0.000631505
0.000562574
0.000505379
0.00045779
0.000417852
0.000383962
0.00035485
0.000329537
0.000307313
0.000287649
0.000270139
0.000254486
0.000240477
0.000227929
0.00021669
0.000206607
0.000197361
0.000187929
0.00071288
0.000556432
0.000466396
0.000402354
0.000354426
0.000317053
0.000286682
0.000261273
0.000239619
0.000220916
0.000204567
0.000190157
0.000177375
0.000165972
0.000155772
0.000146628
0.000138401
0.000130975
0.000124187
0.000117849
0.000198681
0.0001383
0.000105187
8.55268e-05
7.2501e-05
6.28896e-05
5.60599e-05
5.0757e-05
4.6384e-05
4.27149e-05
3.96118e-05
3.69356e-05
3.46044e-05
3.25615e-05
3.0761e-05
2.91654e-05
2.77434e-05
2.647e-05
2.53286e-05
2.43768e-05
0.000218609
0.000155003
0.000118661
9.65068e-05
8.18822e-05
7.0835e-05
6.30844e-05
5.71412e-05
5.22444e-05
4.80895e-05
4.45694e-05
4.1553e-05
3.89255e-05
3.6621e-05
3.45882e-05
3.27856e-05
3.11801e-05
2.97461e-05
2.84768e-05
2.75e-05
0.000728543
0.000588231
0.000496001
0.000429131
0.00037851
0.000338938
0.000306827
0.000279993
0.000257113
0.000237332
0.000220042
0.000204799
0.000191275
0.000179217
0.000168427
0.000158771
0.000150117
0.000142351
0.000135341
0.000128792
0.000814958
0.000730426
0.000654634
0.000589044
0.000533069
0.000485443
0.000444775
0.000409818
0.000379519
0.000353023
0.000329655
0.000308911
0.000290405
0.000273831
0.000258965
0.000245652
0.000233724
0.000223013
0.000213207
0.000203327
0.000826292
0.000764347
0.000706103
0.000651937
0.000602232
0.000557109
0.000516439
0.000479936
0.000447228
0.000417923
0.00039164
0.000368037
0.000346811
0.000327703
0.000310506
0.000295066
0.000281204
0.000268712
0.000257172
0.000245481
0.000828382
0.0007726
0.000721138
0.000672961
0.000627784
0.000585625
0.000546558
0.000510602
0.000477694
0.000447702
0.000420447
0.000395728
0.000373338
0.000353077
0.000334776
0.000318296
0.000303464
0.000290054
0.000277616
0.000265083
0.000828382
0.0007726
0.000721138
0.000672961
0.000627784
0.000585625
0.000546558
0.000510602
0.000477694
0.000447702
0.000420447
0.000395727
0.000373336
0.000353073
0.000334773
0.000318295
0.000303463
0.000290054
0.000277617
0.000265092
0.000826292
0.000764347
0.000706102
0.000651937
0.000602232
0.000557109
0.000516439
0.000479936
0.000447228
0.000417922
0.000391639
0.000368033
0.000346801
0.000327692
0.000310507
0.000295064
0.000281197
0.000268694
0.000257139
0.000245472
0.000814958
0.000730426
0.000654634
0.000589044
0.000533069
0.000485443
0.000444774
0.000409817
0.000379517
0.000353021
0.000329652
0.000308904
0.000290387
0.000273808
0.000258951
0.000245625
0.000233674
0.000222916
0.000212992
0.000202711
0.000728543
0.000588231
0.000496001
0.000429131
0.00037851
0.000338937
0.000306826
0.000279991
0.00025711
0.000237327
0.000220033
0.000204785
0.000191249
0.000179171
0.000168368
0.000158674
0.000149955
0.000142075
0.000134839
0.000127286
0.000218609
0.000155003
0.000118661
9.65067e-05
8.18821e-05
7.08349e-05
6.30842e-05
5.7141e-05
5.2244e-05
4.80888e-05
4.45682e-05
4.15512e-05
3.89224e-05
3.6616e-05
3.45802e-05
3.27726e-05
3.11588e-05
2.9711e-05
2.84144e-05
2.73367e-05
0.000218609
0.000155003
0.000118661
9.65067e-05
8.18821e-05
7.08349e-05
6.30842e-05
5.7141e-05
5.2244e-05
4.80888e-05
4.45682e-05
4.15512e-05
3.89225e-05
3.66162e-05
3.45802e-05
3.27725e-05
3.11586e-05
2.97108e-05
2.84142e-05
2.73365e-05
0.000728543
0.000588231
0.000496001
0.000429131
0.00037851
0.000338937
0.000306826
0.000279991
0.00025711
0.000237327
0.000220033
0.000204785
0.000191252
0.000179178
0.000168363
0.000158667
0.000149946
0.000142066
0.00013483
0.000127276
0.000814958
0.000730426
0.000654634
0.000589044
0.000533069
0.000485443
0.000444774
0.000409816
0.000379517
0.00035302
0.000329652
0.000308905
0.000290395
0.000273816
0.000258941
0.000245613
0.000233661
0.000222904
0.000212981
0.000202696
0.000826292
0.000764347
0.000706102
0.000651937
0.000602232
0.000557108
0.000516439
0.000479936
0.000447228
0.000417922
0.000391639
0.000368035
0.000346809
0.000327699
0.000310499
0.000295055
0.000281188
0.000268686
0.000257132
0.000245456
0.000828382
0.0007726
0.000721138
0.000672961
0.000627784
0.000585625
0.000546558
0.000510602
0.000477694
0.000447702
0.000420447
0.000395728
0.000373337
0.000353076
0.000334776
0.000318295
0.000303462
0.000290052
0.000277614
0.000265081
0.000828382
0.0007726
0.000721138
0.000672961
0.000627784
0.000585625
0.000546558
0.000510602
0.000477694
0.000447702
0.000420447
0.000395727
0.000373336
0.000353072
0.000334772
0.000318293
0.000303462
0.000290052
0.000277614
0.000265079
0.000826292
0.000764347
0.000706103
0.000651937
0.000602233
0.000557109
0.000516439
0.000479936
0.000447228
0.000417923
0.00039164
0.000368035
0.000346804
0.000327695
0.000310513
0.000295073
0.00028121
0.000268716
0.000257176
0.000245493
0.000814958
0.000730426
0.000654634
0.000589044
0.000533069
0.000485444
0.000444775
0.000409818
0.000379519
0.000353023
0.000329655
0.000308909
0.000290396
0.000273822
0.000258974
0.000245663
0.000233735
0.000223023
0.000213216
0.00020334
0.000728543
0.000588231
0.000496001
0.000429131
0.00037851
0.000338938
0.000306827
0.000279993
0.000257113
0.000237332
0.000220042
0.000204799
0.000191272
0.000179209
0.000168431
0.000158778
0.000150125
0.00014236
0.00013535
0.000128803
0.000218609
0.000155003
0.000118661
9.65068e-05
8.18822e-05
7.0835e-05
6.30844e-05
5.71412e-05
5.22444e-05
4.80895e-05
4.45694e-05
4.1553e-05
3.89254e-05
3.66209e-05
3.45882e-05
3.27857e-05
3.11803e-05
2.97463e-05
2.8477e-05
2.75002e-05
0.000198681
0.0001383
0.000105187
8.55268e-05
7.2501e-05
6.28896e-05
5.60599e-05
5.0757e-05
4.6384e-05
4.27149e-05
3.96118e-05
3.69356e-05
3.46045e-05
3.25617e-05
3.0761e-05
2.91653e-05
2.77432e-05
2.64698e-05
2.53284e-05
2.43766e-05
0.00071288
0.000556432
0.000466396
0.000402354
0.000354426
0.000317053
0.000286682
0.000261273
0.000239619
0.000220916
0.000204567
0.000190157
0.000177378
0.000165978
0.000155768
0.000146621
0.000138392
0.000130966
0.000124178
0.000117839
0.000809324
0.000713906
0.000631505
0.000562574
0.000505379
0.00045779
0.000417852
0.000383962
0.00035485
0.000329537
0.000307313
0.00028765
0.000270147
0.000254495
0.000240467
0.000227916
0.000216676
0.000206593
0.000197349
0.000187915
0.000823497
0.000753987
0.000688491
0.000628749
0.000575389
0.000528271
0.000486857
0.000450465
0.00041841
0.000390064
0.000364891
0.000342448
0.000322369
0.000304357
0.000288188
0.000273701
0.000260721
0.000249061
0.000238369
0.000227717
0.000826292
0.000764347
0.000706103
0.000651937
0.000602233
0.000557109
0.000516439
0.000479936
0.000447228
0.000417923
0.00039164
0.000368036
0.000346811
0.000327701
0.000310503
0.000295062
0.000281199
0.000268706
0.000257168
0.000245494
0.000826292
0.000764347
0.000706102
0.000651937
0.000602232
0.000557109
0.000516439
0.000479936
0.000447228
0.000417922
0.000391639
0.000368034
0.000346806
0.000327692
0.000310493
0.00029505
0.000281183
0.000268682
0.000257128
0.000245453
0.000823497
0.000753987
0.000688491
0.000628749
0.000575389
0.000528271
0.000486857
0.000450465
0.00041841
0.000390064
0.000364891
0.000342446
0.000322361
0.000304348
0.000288195
0.000273709
0.000260729
0.000249068
0.000238373
0.000227708
0.000809324
0.000713906
0.000631505
0.000562574
0.000505379
0.000457791
0.000417853
0.000383964
0.000354853
0.000329541
0.000307319
0.000287658
0.000270154
0.000254509
0.000240516
0.000227991
0.000216794
0.000206787
0.000197701
0.000188665
0.00071288
0.000556432
0.000466397
0.000402355
0.000354427
0.000317054
0.000286685
0.000261277
0.000239626
0.000220927
0.000204584
0.000190185
0.000177422
0.000166048
0.000155899
0.000146841
0.000138761
0.000131585
0.000125301
0.000119833
0.000198681
0.0001383
0.000105187
8.55269e-05
7.25012e-05
6.28898e-05
5.60602e-05
5.07575e-05
4.63849e-05
4.27163e-05
3.96142e-05
3.69393e-05
3.46103e-05
3.25709e-05
3.07762e-05
2.91901e-05
2.77839e-05
2.65371e-05
2.54371e-05
2.45519e-05
0.000160509
0.00010736
8.07408e-05
6.55975e-05
5.54895e-05
4.83022e-05
4.31302e-05
3.90775e-05
3.57363e-05
3.29438e-05
3.05687e-05
2.85208e-05
2.67517e-05
2.52174e-05
2.38674e-05
2.26761e-05
2.16214e-05
2.06866e-05
1.98719e-05
1.92006e-05
0.000663952
0.000488458
0.000404618
0.000347248
0.000305036
0.00027213
0.000245325
0.000222905
0.00020379
0.000187242
0.000172765
0.000160001
0.000148673
0.000138576
0.000129607
0.00012172
0.000114661
0.00010862
0.00010299
9.73932e-05
0.000786827
0.000662293
0.000567974
0.000495806
0.000439465
0.000394566
0.000357984
0.000327473
0.000301534
0.000279133
0.000259547
0.000242258
0.00022689
0.000213161
0.000200871
0.000189905
0.000180116
0.000171449
0.000163547
0.000155181
0.000809324
0.000713906
0.000631505
0.000562574
0.000505379
0.000457791
0.000417853
0.000383964
0.000354852
0.000329541
0.000307319
0.00028766
0.000270162
0.000254519
0.000240506
0.00022798
0.000216782
0.000206776
0.000197692
0.000188667
0.000814958
0.000730426
0.000654634
0.000589044
0.000533069
0.000485444
0.000444775
0.000409818
0.000379519
0.000353023
0.000329655
0.000308911
0.000290404
0.000273829
0.000258961
0.000245647
0.000233719
0.000223009
0.000213204
0.000203333
0.000814958
0.000730426
0.000654634
0.000589044
0.000533069
0.000485443
0.000444774
0.000409817
0.000379517
0.000353021
0.000329652
0.000308905
0.000290393
0.000273808
0.000258932
0.000245607
0.000233657
0.000222901
0.000212979
0.000202699
0.000809324
0.000713906
0.000631505
0.000562574
0.000505379
0.00045779
0.000417852
0.000383962
0.00035485
0.000329537
0.000307313
0.000287649
0.000270139
0.000254482
0.000240472
0.000227922
0.000216682
0.0002066
0.000197355
0.000187919
0.000786827
0.000662293
0.000567974
0.000495806
0.000439465
0.000394566
0.000357984
0.000327473
0.000301534
0.000279133
0.000259547
0.000242257
0.000226883
0.00021315
0.000200878
0.000189914
0.000180126
0.000171459
0.000163557
0.000155187
0.000663952
0.000488458
0.000404619
0.000347248
0.000305037
0.000272131
0.000245328
0.000222909
0.000203795
0.000187251
0.000172779
0.000160023
0.000148707
0.000138629
0.000129706
0.000121889
0.000114949
0.000109126
0.000103894
9.69959e-05
0.000160509
0.00010736
8.07409e-05
6.55975e-05
5.54896e-05
4.83023e-05
4.31304e-05
3.90779e-05
3.5737e-05
3.29451e-05
3.05706e-05
2.85239e-05
2.67564e-05
2.52247e-05
2.38796e-05
2.26965e-05
2.1654e-05
2.07398e-05
1.99591e-05
1.93421e-05
0.000107685
6.77183e-05
5.06311e-05
4.14158e-05
3.54047e-05
3.10364e-05
2.7713e-05
2.50803e-05
2.2931e-05
2.11461e-05
1.96437e-05
1.83589e-05
1.72476e-05
1.62662e-05
1.54138e-05
1.46806e-05
1.40384e-05
1.34939e-05
1.30438e-05
1.27183e-05
0.000528907
0.000369984
0.000305096
0.000261371
0.000228528
0.000202478
0.000181121
0.000163089
0.00014757
0.000134039
0.000122143
0.000111621
0.000102373
9.42016e-05
8.69316e-05
8.0344e-05
7.44444e-05
7.01454e-05
6.47618e-05
5.67144e-05
0.000663952
0.000488458
0.000404619
0.000347248
0.000305037
0.000272131
0.000245328
0.000222909
0.000203795
0.00018725
0.000172779
0.000160023
0.000148709
0.000138635
0.000129704
0.000121885
0.000114943
0.00010912
0.000103888
9.70008e-05
0.00071288
0.000556432
0.000466397
0.000402355
0.000354427
0.000317054
0.000286685
0.000261277
0.000239625
0.000220927
0.000204584
0.000190186
0.000177425
0.000166056
0.000155895
0.000146836
0.000138754
0.000131579
0.000125294
0.000119828
0.000728543
0.000588231
0.000496001
0.000429131
0.00037851
0.000338938
0.000306827
0.000279993
0.000257113
0.000237332
0.000220042
0.000204799
0.000191275
0.000179216
0.000168425
0.000158771
0.000150118
0.000142352
0.000135343
0.000128797
0.000728543
0.000588231
0.000496001
0.000429131
0.00037851
0.000338937
0.000306826
0.000279991
0.00025711
0.000237327
0.000220034
0.000204785
0.000191252
0.000179173
0.000168355
0.000158663
0.000149945
0.000142067
0.000134832
0.000127281
0.00071288
0.000556432
0.000466396
0.000402354
0.000354426
0.000317053
0.000286682
0.000261273
0.000239619
0.000220917
0.000204567
0.000190157
0.000177375
0.000165973
0.000155771
0.000146626
0.000138398
0.000130972
0.000124184
0.000117847
0.000663952
0.000488458
0.000404618
0.000347248
0.000305036
0.00027213
0.000245325
0.000222905
0.00020379
0.000187242
0.000172765
0.000160001
0.000148671
0.000138571
0.00012961
0.000121725
0.000114668
0.000108628
0.000102997
9.73999e-05
0.000528907
0.000369984
0.000305096
0.000261371
0.000228528
0.000202478
0.000181121
0.000163089
0.00014757
0.000134039
0.000122143
0.000111621
0.000102372
9.41991e-05
8.69316e-05
8.03459e-05
7.44472e-05
7.01492e-05
6.47643e-05
5.67163e-05
0.000107685
6.77183e-05
5.06311e-05
4.14159e-05
3.54047e-05
3.10364e-05
2.77131e-05
2.50804e-05
2.29311e-05
2.11464e-05
1.96442e-05
1.83598e-05
1.72492e-05
1.62697e-05
1.54194e-05
1.46901e-05
1.40552e-05
1.35267e-05
1.31085e-05
1.281e-05
4.5356e-05
2.3208e-05
1.65396e-05
1.36493e-05
1.18966e-05
1.06843e-05
9.76077e-06
9.05698e-06
8.49451e-06
8.03101e-06
7.63861e-06
7.31306e-06
7.02175e-06
6.7552e-06
6.52465e-06
6.32533e-06
6.14762e-06
6.01279e-06
5.92596e-06
5.83766e-06
0.000107685
6.77183e-05
5.06311e-05
4.14159e-05
3.54047e-05
3.10364e-05
2.77131e-05
2.50804e-05
2.29311e-05
2.11464e-05
1.96442e-05
1.83598e-05
1.72492e-05
1.62698e-05
1.54194e-05
1.46901e-05
1.40552e-05
1.35266e-05
1.31085e-05
1.281e-05
0.000160509
0.00010736
8.07409e-05
6.55975e-05
5.54896e-05
4.83023e-05
4.31304e-05
3.90779e-05
3.5737e-05
3.29451e-05
3.05706e-05
2.85239e-05
2.67565e-05
2.52249e-05
2.38796e-05
2.26965e-05
2.1654e-05
2.07397e-05
1.9959e-05
1.93421e-05
0.000198681
0.0001383
0.000105187
8.55269e-05
7.25012e-05
6.28898e-05
5.60602e-05
5.07575e-05
4.63849e-05
4.27163e-05
3.96142e-05
3.69393e-05
3.46103e-05
3.25711e-05
3.07762e-05
2.919e-05
2.77838e-05
2.6537e-05
2.5437e-05
2.45518e-05
0.000218609
0.000155003
0.000118661
9.65068e-05
8.18822e-05
7.0835e-05
6.30844e-05
5.71413e-05
5.22444e-05
4.80895e-05
4.45694e-05
4.15531e-05
3.89255e-05
3.6621e-05
3.45882e-05
3.27856e-05
3.11801e-05
2.97461e-05
2.84768e-05
2.75e-05
0.000218609
0.000155003
0.000118661
9.65068e-05
8.18821e-05
7.08349e-05
6.30842e-05
5.7141e-05
5.2244e-05
4.80888e-05
4.45682e-05
4.15512e-05
3.89225e-05
3.66161e-05
3.45801e-05
3.27724e-05
3.11585e-05
2.97107e-05
2.84142e-05
2.73365e-05
0.000198681
0.0001383
0.000105187
8.55268e-05
7.2501e-05
6.28896e-05
5.60599e-05
5.0757e-05
4.6384e-05
4.27149e-05
3.96118e-05
3.69356e-05
3.46044e-05
3.25614e-05
3.07609e-05
2.91652e-05
2.77432e-05
2.64698e-05
2.53285e-05
2.43767e-05
0.000160509
0.00010736
8.07408e-05
6.55975e-05
5.54895e-05
4.83022e-05
4.31302e-05
3.90775e-05
3.57363e-05
3.29438e-05
3.05687e-05
2.85208e-05
2.67516e-05
2.52172e-05
2.38673e-05
2.26761e-05
2.16214e-05
2.06867e-05
1.9872e-05
1.92008e-05
0.000107685
6.77183e-05
5.06311e-05
4.14158e-05
3.54047e-05
3.10364e-05
2.7713e-05
2.50803e-05
2.2931e-05
2.11461e-05
1.96437e-05
1.83589e-05
1.72476e-05
1.62661e-05
1.54137e-05
1.46806e-05
1.40384e-05
1.3494e-05
1.30439e-05
1.27183e-05
4.5356e-05
2.3208e-05
1.65396e-05
1.36493e-05
1.18966e-05
1.06843e-05
9.76077e-06
9.05698e-06
8.4945e-06
8.03102e-06
7.63861e-06
7.31305e-06
7.02175e-06
6.75518e-06
6.52463e-06
6.32533e-06
6.14762e-06
6.01279e-06
5.92595e-06
5.83762e-06
5.65136e-06
5.2282e-06
4.85513e-06
4.6203e-06
4.47667e-06
4.40223e-06
4.353e-06
4.32026e-06
4.29724e-06
4.27946e-06
4.26447e-06
4.25224e-06
4.24276e-06
4.23519e-06
4.22913e-06
4.22427e-06
4.22051e-06
4.21763e-06
4.21555e-06
4.21408e-06
4.21303e-06
4.21241e-06
4.21218e-06
4.21216e-06
4.21211e-06
4.21195e-06
4.21172e-06
4.21158e-06
4.21167e-06
4.21186e-06
4.21195e-06
4.21181e-06
4.21154e-06
4.21148e-06
4.21132e-06
4.2115e-06
4.21167e-06
4.21164e-06
4.21151e-06
4.21121e-06
1.13426e-05
1.06245e-05
1.00274e-05
9.67039e-06
9.28737e-06
9.13546e-06
9.01117e-06
8.90932e-06
8.82986e-06
8.76742e-06
8.71819e-06
8.67883e-06
8.64789e-06
8.62251e-06
8.60215e-06
8.5861e-06
8.57363e-06
8.56418e-06
8.55715e-06
8.55225e-06
8.54888e-06
8.54668e-06
8.54506e-06
8.54365e-06
8.54239e-06
8.54161e-06
8.54126e-06
8.54127e-06
8.54129e-06
8.54125e-06
8.541e-06
8.54087e-06
8.54092e-06
8.54103e-06
8.54056e-06
8.54021e-06
8.54024e-06
8.54054e-06
8.54115e-06
8.54191e-06
1.6588e-05
1.57694e-05
1.48577e-05
1.44164e-05
1.40419e-05
1.37063e-05
1.34555e-05
1.32643e-05
1.31105e-05
1.29883e-05
1.28905e-05
1.28115e-05
1.27478e-05
1.26961e-05
1.26548e-05
1.26221e-05
1.25971e-05
1.2578e-05
1.2565e-05
1.25546e-05
1.25446e-05
1.25394e-05
1.25352e-05
1.25298e-05
1.25269e-05
1.25254e-05
1.25248e-05
1.25247e-05
1.25242e-05
1.25227e-05
1.25229e-05
1.25232e-05
1.25241e-05
1.25252e-05
1.25255e-05
1.25238e-05
1.25239e-05
1.25246e-05
1.25261e-05
1.25276e-05
2.02636e-05
1.95027e-05
1.88529e-05
1.83035e-05
1.78288e-05
1.74226e-05
1.70816e-05
1.67987e-05
1.65664e-05
1.63771e-05
1.62242e-05
1.61008e-05
1.59998e-05
1.59197e-05
1.58561e-05
1.58053e-05
1.57661e-05
1.57364e-05
1.57126e-05
1.56983e-05
1.56841e-05
1.56744e-05
1.56656e-05
1.56571e-05
1.56517e-05
1.56492e-05
1.56485e-05
1.56486e-05
1.56476e-05
1.56447e-05
1.56451e-05
1.5646e-05
1.56475e-05
1.56494e-05
1.56498e-05
1.5649e-05
1.56491e-05
1.56499e-05
1.56515e-05
1.56535e-05
2.27199e-05
2.19522e-05
2.12643e-05
2.06881e-05
2.01811e-05
1.97374e-05
1.93548e-05
1.90296e-05
1.8757e-05
1.8531e-05
1.83454e-05
1.81926e-05
1.80664e-05
1.79662e-05
1.78867e-05
1.78235e-05
1.77737e-05
1.77351e-05
1.77051e-05
1.76839e-05
1.76684e-05
1.76555e-05
1.76434e-05
1.76324e-05
1.76256e-05
1.76223e-05
1.76222e-05
1.76223e-05
1.76211e-05
1.76173e-05
1.76178e-05
1.76189e-05
1.76206e-05
1.76229e-05
1.76226e-05
1.76211e-05
1.76215e-05
1.76226e-05
1.76255e-05
1.7628e-05
2.42125e-05
2.30693e-05
2.21884e-05
2.15113e-05
2.09483e-05
2.04713e-05
2.00683e-05
1.97302e-05
1.94485e-05
1.9216e-05
1.90245e-05
1.88658e-05
1.87341e-05
1.86292e-05
1.85459e-05
1.84796e-05
1.84271e-05
1.83859e-05
1.83541e-05
1.83313e-05
1.83148e-05
1.8301e-05
1.82878e-05
1.82756e-05
1.82684e-05
1.82652e-05
1.82644e-05
1.82646e-05
1.82635e-05
1.82608e-05
1.82601e-05
1.8261e-05
1.82628e-05
1.82652e-05
1.82647e-05
1.82638e-05
1.82648e-05
1.82653e-05
1.82671e-05
1.82695e-05
2.32443e-05
2.20378e-05
2.11865e-05
2.05307e-05
1.99902e-05
1.95392e-05
1.91635e-05
1.88523e-05
1.85956e-05
1.83845e-05
1.82119e-05
1.80696e-05
1.79519e-05
1.78582e-05
1.77835e-05
1.7724e-05
1.7677e-05
1.7641e-05
1.7613e-05
1.7593e-05
1.75784e-05
1.75661e-05
1.75544e-05
1.75431e-05
1.75362e-05
1.75329e-05
1.75328e-05
1.75327e-05
1.75313e-05
1.75284e-05
1.75276e-05
1.75284e-05
1.753e-05
1.75319e-05
1.75311e-05
1.75301e-05
1.75308e-05
1.75311e-05
1.75327e-05
1.7535e-05
2.00249e-05
1.90282e-05
1.83445e-05
1.78357e-05
1.73982e-05
1.7034e-05
1.6736e-05
1.64919e-05
1.62923e-05
1.61291e-05
1.59975e-05
1.58891e-05
1.57994e-05
1.57273e-05
1.56697e-05
1.56248e-05
1.55888e-05
1.55619e-05
1.55419e-05
1.55269e-05
1.55172e-05
1.55052e-05
1.54976e-05
1.54892e-05
1.54841e-05
1.54818e-05
1.54814e-05
1.54814e-05
1.54804e-05
1.5478e-05
1.54773e-05
1.54778e-05
1.54792e-05
1.54811e-05
1.54815e-05
1.54805e-05
1.54794e-05
1.5479e-05
1.54798e-05
1.54818e-05
1.5362e-05
1.48228e-05
1.43268e-05
1.39368e-05
1.3591e-05
1.33294e-05
1.31269e-05
1.29704e-05
1.28445e-05
1.27422e-05
1.2659e-05
1.2591e-05
1.25348e-05
1.24887e-05
1.24516e-05
1.24221e-05
1.23993e-05
1.23822e-05
1.23714e-05
1.23591e-05
1.23529e-05
1.23478e-05
1.23435e-05
1.23389e-05
1.23361e-05
1.23345e-05
1.23339e-05
1.23339e-05
1.23335e-05
1.23318e-05
1.23317e-05
1.23317e-05
1.23325e-05
1.23333e-05
1.23334e-05
1.23319e-05
1.23298e-05
1.23293e-05
1.23302e-05
1.2332e-05
1.08809e-05
1.02371e-05
9.73276e-06
9.26954e-06
9.06562e-06
8.92568e-06
8.82314e-06
8.74403e-06
8.68197e-06
8.63157e-06
8.59023e-06
8.5571e-06
8.52918e-06
8.50622e-06
8.48765e-06
8.47294e-06
8.46154e-06
8.45294e-06
8.44659e-06
8.44209e-06
8.43925e-06
8.43733e-06
8.43593e-06
8.43479e-06
8.43363e-06
8.43288e-06
8.43248e-06
8.43246e-06
8.4325e-06
8.4325e-06
8.43213e-06
8.43189e-06
8.43184e-06
8.43197e-06
8.43205e-06
8.43208e-06
8.43064e-06
8.43e-06
8.4299e-06
8.43035e-06
5.65144e-06
5.22829e-06
4.85526e-06
4.62046e-06
4.47683e-06
4.40248e-06
4.3534e-06
4.32073e-06
4.29773e-06
4.27994e-06
4.26485e-06
4.25273e-06
4.24311e-06
4.23545e-06
4.22931e-06
4.22443e-06
4.22071e-06
4.21787e-06
4.21585e-06
4.21441e-06
4.21339e-06
4.21278e-06
4.21256e-06
4.21255e-06
4.21252e-06
4.21235e-06
4.21208e-06
4.2119e-06
4.21195e-06
4.21214e-06
4.21222e-06
4.21206e-06
4.21176e-06
4.21158e-06
4.21167e-06
4.21209e-06
4.21192e-06
4.21156e-06
4.21115e-06
4.21071e-06
1.08807e-05
1.02369e-05
9.73228e-06
9.26815e-06
9.06404e-06
8.92394e-06
8.82118e-06