/*--------------------------------*- C++ -*----------------------------------*\
| =========                 |                                                 |
| \\      /  F ield         | OpenFOAM: The Open Source CFD Toolbox           |
|  \\    /   O peration     | Version:  2212                                  |
|   \\  /    A nd           | Website:  www.openfoam.com                      |
|    \\/     M anipulation  |                                                 |
\*---------------------------------------------------------------------------*/
FoamFile
{
    version     2.0;
    format      ascii;
    arch        "LSB;label=32;scalar=64";
    class       volScalarField;
    location    "0.5";
    object      p;
}
// * * * * * * * * * * * * * * * * * * * * * * * * * * * * * * * * * * * * * //

dimensions      [0 2 -2 0 0 0 0];

internalField   nonuniform List<scalar> 
6840
(
0.0181437
0.0110293
0.00873789
0.00820008
0.00792576
0.00770363
0.00751699
0.00735056
0.00718938
0.00702979
0.00687147
0.00671454
0.00655807
0.00640025
0.00624042
0.00607867
0.0059139
0.00573847
0.00550719
0.00505862
0.0109649
0.0102311
0.00913822
0.00847229
0.00806976
0.00779609
0.00758497
0.0073988
0.00722446
0.00705715
0.0068942
0.00673403
0.0065754
0.0064176
0.0062606
0.00610421
0.00594505
0.00577951
0.00558672
0.00530184
0.0106167
0.00976525
0.00900099
0.00844188
0.0080658
0.00779786
0.00758227
0.00738943
0.00721116
0.00704295
0.0068801
0.00672038
0.00656351
0.00640975
0.00625925
0.00611215
0.0059695
0.00583443
0.00571646
0.00563611
0.0102075
0.00944479
0.00882606
0.00837476
0.00803085
0.00776193
0.00754241
0.00735367
0.00718596
0.00702881
0.00687369
0.00671939
0.00656712
0.00641844
0.0062754
0.00614137
0.00602184
0.0059255
0.0058707
0.00588434
0.0100733
0.00933213
0.00874399
0.0083359
0.00801399
0.00774735
0.00752594
0.00733537
0.00716462
0.00700793
0.00685821
0.0067088
0.00655927
0.00641225
0.00627053
0.00613738
0.00601794
0.00591936
0.00585361
0.00584142
0.0100733
0.00933211
0.00874395
0.00833585
0.00801391
0.00774722
0.00752572
0.00733499
0.00716398
0.00700687
0.00685646
0.00670588
0.00655434
0.00640394
0.00625659
0.00611377
0.00597803
0.00585144
0.00573729
0.00564682
0.0102074
0.00944473
0.00882597
0.00837465
0.00803068
0.00776164
0.0075419
0.00735277
0.00718444
0.0070263
0.00686956
0.00671261
0.006556
0.00640016
0.00624499
0.00609018
0.00593578
0.00578259
0.005634
0.00549656
0.0106167
0.00976519
0.00900092
0.00844179
0.00806563
0.00779755
0.00758175
0.00738855
0.00720972
0.00704056
0.00687612
0.00671388
0.00655297
0.00639254
0.00623103
0.00606607
0.00589342
0.00570855
0.00550528
0.00526029
0.0109649
0.0102311
0.00913819
0.00847224
0.00806968
0.00779595
0.00758472
0.00739837
0.00722372
0.00705591
0.00689218
0.00673073
0.00656997
0.00640831
0.00624486
0.00607862
0.0059039
0.00570776
0.00544389
0.0049989
0.0181437
0.0110293
0.00873787
0.00820007
0.00792575
0.00770362
0.00751698
0.00735055
0.00718937
0.00702978
0.00687146
0.00671453
0.00655806
0.00640022
0.00624037
0.00607858
0.00591379
0.0057383
0.00550693
0.00505824
0.0109649
0.0102311
0.0091382
0.00847225
0.00806969
0.00779596
0.00758473
0.00739838
0.00722373
0.00705592
0.00689218
0.00673074
0.00656999
0.00640834
0.00624492
0.00607871
0.00590402
0.00570793
0.00544414
0.00499927
0.0102484
0.0102167
0.00948845
0.00877797
0.00833166
0.00801571
0.00775673
0.00752888
0.00732399
0.00713502
0.00695616
0.00678378
0.0066148
0.00644695
0.006279
0.00610945
0.00593527
0.00575361
0.00557847
0.00546987
0.00932295
0.00944917
0.00914631
0.00873009
0.00836299
0.00804438
0.0077658
0.00752529
0.00731259
0.00711784
0.00693427
0.00675855
0.00658876
0.00642346
0.00626137
0.00610151
0.00594269
0.00578156
0.00562296
0.00548364
0.00890463
0.00894817
0.00878267
0.00851978
0.00823941
0.00796806
0.00771701
0.00749061
0.00728763
0.00710122
0.00692457
0.00675467
0.00659012
0.00643055
0.00627659
0.00612921
0.00598964
0.00585913
0.00574162
0.00564152
0.00868865
0.00871051
0.00858336
0.00836593
0.00813357
0.00790441
0.00768157
0.00746846
0.00726772
0.00708049
0.00690439
0.00673612
0.00657423
0.00641848
0.00626877
0.00612544
0.00599048
0.00586638
0.0057581
0.00566706
0.00868861
0.00871046
0.0085833
0.00836581
0.0081334
0.00790417
0.00768122
0.00746791
0.00726689
0.00707912
0.00690213
0.00673239
0.00656821
0.00640891
0.00625375
0.00610269
0.0059563
0.00581532
0.00568252
0.00555719
0.00890453
0.00894807
0.00878253
0.00851959
0.00823913
0.00796768
0.00771643
0.00748966
0.00728603
0.00709839
0.00691968
0.00674675
0.00657816
0.00641258
0.00624874
0.00608575
0.00592305
0.00576048
0.00560077
0.00544026
0.0093229
0.0094491
0.00914621
0.00872998
0.00836284
0.00804415
0.0077654
0.00752458
0.00731136
0.00711585
0.00693117
0.00675379
0.0065814
0.0064118
0.00624302
0.0060733
0.00590082
0.00572247
0.00554652
0.00538705
0.0102484
0.0102167
0.00948843
0.00877795
0.00833165
0.0080157
0.00775671
0.00752886
0.00732397
0.007135
0.00695614
0.00678375
0.00661476
0.00644689
0.00627891
0.00610934
0.00593512
0.0057534
0.00557816
0.00546942
0.0109649
0.0102311
0.00913821
0.00847227
0.00806975
0.00779608
0.00758496
0.00739879
0.00722444
0.00705713
0.00689418
0.00673401
0.00657538
0.00641755
0.00626053
0.00610411
0.00594492
0.00577933
0.00558646
0.00530147
0.0106167
0.0097652
0.00900093
0.0084418
0.00806564
0.00779757
0.00758176
0.00738857
0.00720974
0.00704058
0.00687614
0.00671391
0.00655301
0.0063926
0.00623111
0.00606616
0.00589353
0.0057087
0.00550549
0.00526057
0.00932291
0.00944912
0.00914623
0.00873
0.00836286
0.00804417
0.00776542
0.0075246
0.00731138
0.00711588
0.0069312
0.00675383
0.00658146
0.00641188
0.00624311
0.00607341
0.00590096
0.00572267
0.0055468
0.00538741
0.0087534
0.0088544
0.00874285
0.00851736
0.00826159
0.00800315
0.0077446
0.00750274
0.00728447
0.00708372
0.0068954
0.00671638
0.00654415
0.00637664
0.00621241
0.00605038
0.00588951
0.00572921
0.00557567
0.00542863
0.0083854
0.00845347
0.00840112
0.00825418
0.00806931
0.00786415
0.00765342
0.00744645
0.00724536
0.00705309
0.00687077
0.00669671
0.00652903
0.00636657
0.00620863
0.00605496
0.00590532
0.00575929
0.00561787
0.00547344
0.00820231
0.00826676
0.00823729
0.00811244
0.00795342
0.00777969
0.00759335
0.00740537
0.00721934
0.00703601
0.0068572
0.0066843
0.00651761
0.00635638
0.00620027
0.00604978
0.00590414
0.00576198
0.00562304
0.00547876
0.00820228
0.00826673
0.00823725
0.00811234
0.00795323
0.00777943
0.00759306
0.00740498
0.00721872
0.00703498
0.00685556
0.00668187
0.00651422
0.00635161
0.00619326
0.00603935
0.00588906
0.00574082
0.00559541
0.00544678
0.00838533
0.00845341
0.00840102
0.00825402
0.00806907
0.00786385
0.00765303
0.00744587
0.00724446
0.00705163
0.00686841
0.00669306
0.0065236
0.00635851
0.00619662
0.00603706
0.00587876
0.00572105
0.00556539
0.00540594
0.00875338
0.00885439
0.00874284
0.00851734
0.00826158
0.00800313
0.00774459
0.00750272
0.00728445
0.00708369
0.00689537
0.00671635
0.0065441
0.00637659
0.00621236
0.00605031
0.00588941
0.00572907
0.00557549
0.00542841
0.00932294
0.00944915
0.00914629
0.00873008
0.00836298
0.00804437
0.00776579
0.00752527
0.00731257
0.00711782
0.00693425
0.00675853
0.00658873
0.00642341
0.0062613
0.00610142
0.00594257
0.00578139
0.00562271
0.00548328
0.0106167
0.00976524
0.00900098
0.00844187
0.00806578
0.00779784
0.00758226
0.00738942
0.00721115
0.00704294
0.00688008
0.00672037
0.0065635
0.00640972
0.0062592
0.00611208
0.0059694
0.0058343
0.00571627
0.00563586
0.0102075
0.00944474
0.00882599
0.00837467
0.0080307
0.00776166
0.00754193
0.0073528
0.00718447
0.00702633
0.00686959
0.00671265
0.00655605
0.00640023
0.00624507
0.00609026
0.00593588
0.0057827
0.00563413
0.00549671
0.00890455
0.00894808
0.00878255
0.00851961
0.00823915
0.0079677
0.00771645
0.00748969
0.00728606
0.00709843
0.00691972
0.0067468
0.00657822
0.00641265
0.00624882
0.00608584
0.00592316
0.00576061
0.00560092
0.00544045
0.00838535
0.00845342
0.00840103
0.00825403
0.00806909
0.00786387
0.00765305
0.00744589
0.00724448
0.00705166
0.00686844
0.0066931
0.00652365
0.00635855
0.00619667
0.00603712
0.00587883
0.00572113
0.00556547
0.005406
0.00808743
0.00814658
0.00813465
0.00803924
0.00789955
0.00773393
0.00755364
0.00736906
0.00718503
0.00700464
0.00682952
0.0066596
0.0064943
0.00633305
0.0061753
0.00602047
0.00586781
0.00571682
0.00556838
0.00541399
0.0079363
0.0079992
0.00800296
0.00792929
0.00780914
0.00766268
0.00749967
0.00732816
0.00715404
0.00698062
0.00680974
0.00664248
0.00647914
0.00631956
0.00616352
0.00601078
0.00586052
0.00571235
0.00556706
0.0054144
0.00793628
0.00799918
0.00800293
0.00792926
0.00780909
0.0076626
0.00749956
0.00732801
0.00715383
0.0069803
0.00680925
0.00664176
0.00647821
0.00631832
0.00616178
0.00600832
0.00585747
0.00570883
0.00556368
0.00541316
0.00808742
0.00814657
0.00813464
0.00803922
0.00789954
0.00773392
0.00755363
0.00736905
0.00718502
0.00700463
0.00682951
0.00665957
0.00649428
0.00633303
0.00617529
0.00602046
0.0058678
0.00571682
0.00556841
0.00541409
0.00838539
0.00845346
0.00840111
0.00825417
0.00806929
0.00786414
0.0076534
0.00744644
0.00724535
0.00705307
0.00687075
0.00669669
0.006529
0.00636655
0.00620861
0.00605494
0.00590529
0.00575925
0.00561784
0.00547345
0.00890462
0.00894816
0.00878266
0.00851977
0.00823939
0.00796805
0.00771701
0.0074906
0.00728762
0.00710121
0.00692456
0.00675466
0.00659011
0.00643053
0.00627656
0.00612917
0.00598958
0.00585905
0.00574152
0.00564139
0.0102075
0.00944478
0.00882604
0.00837475
0.00803084
0.00776192
0.00754241
0.00735367
0.00718596
0.0070288
0.00687369
0.00671939
0.00656712
0.00641843
0.00627538
0.00614134
0.0060218
0.00592544
0.00587062
0.00588424
0.0100733
0.00933212
0.00874396
0.00833586
0.00801393
0.00774724
0.00752574
0.00733502
0.00716401
0.0070069
0.00685649
0.00670591
0.00655438
0.00640398
0.00625665
0.00611383
0.00597809
0.00585149
0.00573735
0.00564687
0.00868862
0.00871048
0.00858332
0.00836583
0.00813342
0.0079042
0.00768124
0.00746794
0.00726692
0.00707915
0.00690216
0.00673243
0.00656826
0.00640896
0.00625381
0.00610274
0.00595636
0.00581538
0.00568259
0.00555725
0.00820229
0.00826674
0.00823726
0.00811235
0.00795324
0.00777945
0.00759308
0.007405
0.00721874
0.00703501
0.00685559
0.0066819
0.00651426
0.00635164
0.00619329
0.00603938
0.00588909
0.00574086
0.00559545
0.00544681
0.00793629
0.00799919
0.00800294
0.00792926
0.0078091
0.00766261
0.00749957
0.00732802
0.00715384
0.00698031
0.00680927
0.00664178
0.00647822
0.00631834
0.00616179
0.00600833
0.00585748
0.00570883
0.00556367
0.00541311
0.00779347
0.00786298
0.0078851
0.00783253
0.00773125
0.00760029
0.00745036
0.0072894
0.00712302
0.00695492
0.00678752
0.00662233
0.00646013
0.0063011
0.00614517
0.005992
0.00584085
0.00569108
0.00554239
0.00539142
0.00779346
0.00786298
0.00788509
0.00783252
0.00773125
0.00760028
0.00745035
0.0072894
0.00712302
0.00695492
0.00678751
0.00662233
0.00646012
0.0063011
0.00614517
0.00599201
0.00584086
0.0056911
0.00554242
0.00539147
0.0079363
0.0079992
0.00800295
0.00792928
0.00780913
0.00766267
0.00749966
0.00732816
0.00715403
0.00698061
0.00680974
0.00664247
0.00647913
0.00631956
0.00616353
0.00601079
0.00586053
0.00571238
0.00556711
0.0054145
0.0082023
0.00826675
0.00823728
0.00811243
0.00795341
0.00777968
0.00759334
0.00740536
0.00721933
0.007036
0.00685719
0.00668429
0.0065176
0.00635638
0.00620029
0.00604979
0.00590416
0.005762
0.00562308
0.00547885
0.00868864
0.0087105
0.00858335
0.00836592
0.00813356
0.0079044
0.00768157
0.00746845
0.00726772
0.00708048
0.00690439
0.00673611
0.00657422
0.00641848
0.00626877
0.00612544
0.00599048
0.00586638
0.0057581
0.00566705
0.0100733
0.00933212
0.00874398
0.00833589
0.00801399
0.00774735
0.00752593
0.00733537
0.00716462
0.00700794
0.00685822
0.00670881
0.00655928
0.00641225
0.00627052
0.00613738
0.00601794
0.00591936
0.00585362
0.00584143
0.0100733
0.00933214
0.008744
0.00833592
0.00801401
0.00774737
0.00752595
0.00733539
0.00716464
0.00700795
0.00685823
0.00670882
0.00655929
0.00641227
0.00627054
0.00613739
0.00601794
0.00591935
0.00585359
0.00584139
0.00868866
0.00871052
0.00858337
0.00836594
0.00813358
0.00790442
0.00768159
0.00746847
0.00726774
0.0070805
0.00690441
0.00673613
0.00657424
0.00641849
0.00626878
0.00612545
0.00599047
0.00586637
0.00575808
0.00566702
0.00820232
0.00826676
0.00823729
0.00811244
0.00795343
0.0077797
0.00759336
0.00740538
0.00721935
0.00703602
0.00685721
0.00668431
0.00651762
0.00635638
0.00620028
0.00604978
0.00590415
0.00576199
0.00562308
0.00547884
0.0079363
0.0079992
0.00800296
0.00792929
0.00780914
0.00766268
0.00749967
0.00732816
0.00715404
0.00698062
0.00680974
0.00664248
0.00647914
0.00631956
0.00616352
0.00601078
0.00586053
0.00571237
0.0055671
0.00541448
0.00779346
0.00786298
0.00788509
0.00783252
0.00773124
0.00760028
0.00745035
0.0072894
0.00712302
0.00695492
0.00678751
0.00662233
0.00646012
0.0063011
0.00614517
0.005992
0.00584086
0.0056911
0.00554242
0.00539146
0.00779345
0.00786297
0.00788509
0.00783252
0.00773124
0.00760028
0.00745035
0.00728939
0.00712301
0.00695491
0.00678751
0.00662233
0.00646012
0.0063011
0.00614517
0.00599201
0.00584086
0.0056911
0.00554242
0.00539146
0.00793627
0.00799917
0.00800292
0.00792925
0.00780908
0.00766259
0.00749955
0.007328
0.00715382
0.00698029
0.00680925
0.00664175
0.0064782
0.00631833
0.00616179
0.00600833
0.00585748
0.00570884
0.0055637
0.00541318
0.00820227
0.00826672
0.00823724
0.00811233
0.00795322
0.00777942
0.00759305
0.00740497
0.00721872
0.00703498
0.00685556
0.00668187
0.00651422
0.00635162
0.00619328
0.00603937
0.00588908
0.00574085
0.00559545
0.00544683
0.0086886
0.00871045
0.00858329
0.0083658
0.00813339
0.00790417
0.00768121
0.00746791
0.00726689
0.00707912
0.00690213
0.00673239
0.00656822
0.00640892
0.00625377
0.00610271
0.00595633
0.00581536
0.00568257
0.00555724
0.0100733
0.0093321
0.00874394
0.00833584
0.0080139
0.00774721
0.00752571
0.00733499
0.00716398
0.00700688
0.00685647
0.00670589
0.00655435
0.00640394
0.0062566
0.00611379
0.00597806
0.00585148
0.00573735
0.00564689
0.0102075
0.0094448
0.00882606
0.00837477
0.00803086
0.00776194
0.00754242
0.00735368
0.00718597
0.00702881
0.00687369
0.00671939
0.00656711
0.00641843
0.00627538
0.00614134
0.00602179
0.00592543
0.0058706
0.00588421
0.00890463
0.00894817
0.00878267
0.00851978
0.00823941
0.00796806
0.00771702
0.00749061
0.00728763
0.00710122
0.00692456
0.00675466
0.00659011
0.00643053
0.00627655
0.00612915
0.00598957
0.00585903
0.0057415
0.00564136
0.00838539
0.00845347
0.00840111
0.00825417
0.0080693
0.00786414
0.00765341
0.00744644
0.00724535
0.00705307
0.00687075
0.00669669
0.00652901
0.00636654
0.00620859
0.00605492
0.00590528
0.00575925
0.00561784
0.00547345
0.00808742
0.00814657
0.00813463
0.00803922
0.00789954
0.00773392
0.00755362
0.00736904
0.00718501
0.00700462
0.0068295
0.00665957
0.00649428
0.00633302
0.00617527
0.00602045
0.0058678
0.00571682
0.00556843
0.00541412
0.00793627
0.00799917
0.00800292
0.00792924
0.00780907
0.00766259
0.00749954
0.00732799
0.00715381
0.00698028
0.00680924
0.00664175
0.00647819
0.00631831
0.00616177
0.00600831
0.00585747
0.00570884
0.00556371
0.0054132
0.00793628
0.00799918
0.00800294
0.00792927
0.00780912
0.00766266
0.00749965
0.00732814
0.00715402
0.0069806
0.00680972
0.00664246
0.00647911
0.00631954
0.00616351
0.00601077
0.00586052
0.00571237
0.00556711
0.00541449
0.00808741
0.00814656
0.00813462
0.00803921
0.00789953
0.00773391
0.00755361
0.00736904
0.007185
0.00700462
0.00682949
0.00665956
0.00649427
0.00633302
0.00617528
0.00602046
0.00586781
0.00571683
0.00556842
0.00541409
0.00838532
0.00845339
0.00840101
0.008254
0.00806906
0.00786384
0.00765302
0.00744586
0.00724445
0.00705162
0.0068684
0.00669305
0.0065236
0.00635851
0.00619664
0.00603708
0.00587879
0.00572109
0.00556544
0.00540599
0.00890452
0.00894806
0.00878252
0.00851958
0.00823912
0.00796767
0.00771642
0.00748966
0.00728602
0.00709839
0.00691968
0.00674675
0.00657816
0.00641259
0.00624876
0.00608578
0.00592309
0.00576054
0.00560084
0.00544036
0.0102074
0.00944471
0.00882596
0.00837464
0.00803067
0.00776163
0.0075419
0.00735277
0.00718444
0.0070263
0.00686956
0.00671261
0.00655601
0.00640017
0.006245
0.00609019
0.00593582
0.00578264
0.00563407
0.00549666
0.0106167
0.00976525
0.00900099
0.00844188
0.0080658
0.00779786
0.00758227
0.00738943
0.00721116
0.00704294
0.00688008
0.00672037
0.00656349
0.00640971
0.0062592
0.00611207
0.00596939
0.00583429
0.00571626
0.00563584
0.00932294
0.00944916
0.0091463
0.00873009
0.00836298
0.00804437
0.00776579
0.00752528
0.00731257
0.00711782
0.00693424
0.00675851
0.00658872
0.00642341
0.0062613
0.00610141
0.00594255
0.00578137
0.00562269
0.00548327
0.00875338
0.00885438
0.00874283
0.00851733
0.00826157
0.00800313
0.00774458
0.00750271
0.00728444
0.00708368
0.00689536
0.00671634
0.00654409
0.00637657
0.00621233
0.00605029
0.00588939
0.00572906
0.00557548
0.0054284
0.00838531
0.00845339
0.008401
0.008254
0.00806905
0.00786383
0.00765301
0.00744585
0.00724444
0.00705161
0.00686839
0.00669305
0.00652359
0.00635848
0.0061966
0.00603704
0.00587875
0.00572105
0.00556541
0.00540597
0.00820225
0.0082667
0.00823722
0.00811231
0.0079532
0.0077794
0.00759303
0.00740495
0.0072187
0.00703496
0.00685554
0.00668185
0.0065142
0.00635159
0.00619324
0.00603933
0.00588905
0.00574082
0.00559543
0.00544682
0.00820228
0.00826673
0.00823726
0.00811241
0.00795339
0.00777966
0.00759332
0.00740534
0.00721931
0.00703598
0.00685717
0.00668426
0.00651758
0.00635634
0.00620025
0.00604976
0.00590413
0.00576198
0.00562307
0.00547884
0.00838537
0.00845344
0.00840109
0.00825415
0.00806927
0.00786411
0.00765338
0.00744642
0.00724533
0.00705305
0.00687073
0.00669666
0.00652898
0.00636653
0.00620859
0.00605492
0.00590528
0.00575925
0.00561785
0.00547347
0.00875337
0.00885437
0.00874282
0.00851732
0.00826156
0.00800312
0.00774457
0.0075027
0.00728444
0.00708368
0.00689536
0.00671633
0.00654409
0.00637658
0.00621235
0.00605032
0.00588943
0.00572911
0.00557554
0.00542848
0.00932288
0.00944909
0.0091462
0.00872997
0.00836283
0.00804414
0.00776539
0.00752457
0.00731135
0.00711584
0.00693116
0.00675378
0.0065814
0.0064118
0.00624302
0.00607331
0.00590085
0.00572253
0.0055466
0.00538717
0.0106167
0.00976518
0.00900091
0.00844177
0.00806562
0.00779754
0.00758174
0.00738854
0.00720971
0.00704055
0.0068761
0.00671387
0.00655296
0.00639253
0.00623103
0.00606608
0.00589344
0.00570859
0.00550537
0.00526041
0.0109649
0.0102311
0.00913821
0.00847228
0.00806975
0.00779608
0.00758496
0.00739879
0.00722444
0.00705713
0.00689418
0.006734
0.00657536
0.00641754
0.00626053
0.00610411
0.00594492
0.00577933
0.00558646
0.00530148
0.0102483
0.0102167
0.00948842
0.00877794
0.00833164
0.00801569
0.0077567
0.00752885
0.00732396
0.00713499
0.00695612
0.00678373
0.00661474
0.00644687
0.0062789
0.00610932
0.0059351
0.00575337
0.00557814
0.0054694
0.00932288
0.00944908
0.00914619
0.00872996
0.00836282
0.00804412
0.00776538
0.00752455
0.00731134
0.00711582
0.00693115
0.00675377
0.00658139
0.00641179
0.00624301
0.00607328
0.00590079
0.00572245
0.0055465
0.00538703
0.0089045
0.00894804
0.0087825
0.00851956
0.0082391
0.00796765
0.0077164
0.00748963
0.007286
0.00709837
0.00691966
0.00674673
0.00657815
0.00641256
0.00624873
0.00608573
0.00592303
0.00576046
0.00560074
0.00544024
0.00868857
0.00871043
0.00858327
0.00836578
0.00813336
0.00790414
0.00768118
0.00746788
0.00726686
0.00707909
0.0069021
0.00673236
0.00656819
0.00640888
0.00625373
0.00610266
0.00595627
0.00581528
0.00568249
0.00555715
0.00868861
0.00871047
0.00858333
0.00836589
0.00813353
0.00790437
0.00768154
0.00746842
0.00726769
0.00708045
0.00690436
0.00673608
0.00657419
0.00641844
0.00626872
0.00612539
0.00599042
0.00586632
0.00575803
0.00566698
0.0089046
0.00894813
0.00878263
0.00851974
0.00823937
0.00796802
0.00771698
0.00749057
0.0072876
0.00710118
0.00692453
0.00675463
0.00659007
0.0064305
0.00627653
0.00612913
0.00598955
0.00585902
0.00574149
0.00564137
0.00932292
0.00944913
0.00914627
0.00873006
0.00836296
0.00804435
0.00776577
0.00752525
0.00731255
0.0071178
0.00693423
0.0067585
0.00658871
0.00642339
0.00626129
0.00610141
0.00594256
0.00578139
0.00562273
0.00548332
0.0102483
0.0102166
0.00948842
0.00877794
0.00833163
0.00801568
0.0077567
0.00752885
0.00732396
0.00713499
0.00695612
0.00678373
0.00661474
0.00644687
0.0062789
0.00610933
0.00593513
0.00575343
0.00557822
0.0054695
0.0109649
0.0102311
0.00913817
0.00847223
0.00806966
0.00779593
0.00758471
0.00739836
0.00722371
0.00705589
0.00689215
0.00673071
0.00656995
0.00640828
0.00624483
0.00607861
0.00590391
0.00570779
0.00544396
0.004999
0.0181437
0.0110293
0.00873787
0.00820006
0.00792574
0.00770361
0.00751697
0.00735053
0.00718936
0.00702976
0.00687144
0.00671451
0.00655803
0.00640019
0.00624035
0.00607856
0.00591376
0.00573828
0.00550692
0.00505824
0.0109649
0.0102311
0.00913817
0.00847222
0.00806965
0.00779592
0.0075847
0.00739834
0.00722369
0.00705588
0.00689214
0.00673069
0.00656993
0.00640827
0.00624483
0.00607859
0.00590386
0.00570772
0.00544385
0.00499885
0.0106167
0.00976516
0.00900089
0.00844175
0.0080656
0.00779752
0.00758171
0.00738852
0.00720969
0.00704052
0.00687608
0.00671385
0.00655293
0.00639252
0.00623101
0.00606604
0.00589338
0.00570851
0.00550524
0.00526024
0.0102074
0.00944469
0.00882594
0.00837461
0.00803064
0.00776161
0.00754187
0.00735274
0.00718441
0.00702627
0.00686953
0.00671258
0.00655598
0.00640014
0.00624497
0.00609015
0.00593575
0.00578255
0.00563395
0.00549649
0.0100732
0.00933207
0.00874391
0.00833581
0.00801387
0.00774718
0.00752568
0.00733496
0.00716395
0.00700685
0.00685643
0.00670585
0.00655432
0.00640391
0.00625657
0.00611374
0.00597799
0.00585139
0.00573724
0.00564675
0.0100733
0.00933209
0.00874395
0.00833587
0.00801396
0.00774732
0.0075259
0.00733534
0.00716459
0.0070079
0.00685818
0.00670877
0.00655924
0.00641221
0.00627048
0.00613732
0.00601788
0.00591929
0.00585353
0.00584132
0.0102075
0.00944476
0.00882602
0.00837473
0.00803082
0.0077619
0.00754238
0.00735364
0.00718593
0.00702878
0.00687366
0.00671935
0.00656708
0.00641839
0.00627534
0.0061413
0.00602176
0.0059254
0.00587057
0.00588419
0.0106167
0.00976522
0.00900096
0.00844185
0.00806577
0.00779783
0.00758224
0.0073894
0.00721113
0.00704292
0.00688006
0.00672035
0.00656347
0.00640969
0.00625917
0.00611206
0.00596939
0.00583429
0.00571627
0.00563586
0.0109649
0.0102311
0.0091382
0.00847226
0.00806974
0.00779607
0.00758495
0.00739878
0.00722443
0.00705712
0.00689417
0.00673399
0.00657536
0.00641754
0.00626052
0.0061041
0.00594493
0.00577935
0.0055865
0.00530153
0.0181437
0.0110293
0.00873786
0.00820006
0.00792574
0.00770361
0.00751697
0.00735054
0.00718936
0.00702976
0.00687144
0.00671451
0.00655804
0.0064002
0.00624035
0.00607858
0.00591379
0.00573833
0.00550699
0.00505833
0.00584153
0.00519252
0.0047737
0.00464164
0.00453138
0.00440557
0.00427969
0.00415434
0.00402802
0.00390052
0.00377253
0.00364432
0.003516
0.00338744
0.00325864
0.00312994
0.00300151
0.00287344
0.00274565
0.00261818
0.00249099
0.0023639
0.0022366
0.00210871
0.00198035
0.00185212
0.00172436
0.001597
0.00146963
0.00134166
0.00121329
0.00108516
0.000957584
0.000830514
0.000702917
0.0005744
0.000445814
0.00031758
0.000190021
6.31422e-05
0.00597804
0.00530238
0.00481039
0.00462284
0.00450451
0.00438147
0.00425851
0.00413717
0.00401474
0.00389035
0.00376478
0.00363847
0.00351163
0.00338422
0.0032563
0.00312827
0.00300034
0.00287263
0.00274509
0.0026178
0.00249072
0.0023637
0.00223643
0.00210855
0.00198022
0.00185199
0.00172423
0.00159686
0.00146948
0.00134151
0.00121315
0.00108503
0.000957455
0.000830411
0.000702778
0.000574293
0.000445849
0.000317744
0.000190174
6.32403e-05
0.0057442
0.005332
0.00496064
0.00473985
0.00457918
0.00443012
0.00428969
0.00415751
0.00402858
0.00389998
0.00377158
0.0036433
0.00351502
0.00338653
0.00325795
0.0031295
0.00300129
0.00287335
0.00274565
0.00261822
0.00249102
0.00236387
0.00223653
0.00210849
0.00198004
0.00185189
0.0017242
0.00159687
0.00146949
0.00134139
0.00121296
0.00108491
0.000957307
0.000830125
0.000702668
0.000574388
0.000445934
0.00031789
0.000190361
6.33684e-05
0.00550355
0.00525601
0.00499776
0.00479262
0.00462275
0.00446715
0.00431978
0.00417975
0.00404444
0.00391148
0.00378
0.00364957
0.0035195
0.00338961
0.00326021
0.00313119
0.00300256
0.00287431
0.00274633
0.00261868
0.00249135
0.00236416
0.0022367
0.00210845
0.00197984
0.00185167
0.00172405
0.00159681
0.00146945
0.00134131
0.00121285
0.00108481
0.000957218
0.000829971
0.00070258
0.000574505
0.000446129
0.000318079
0.000190518
6.34293e-05
0.00531771
0.00516303
0.0049822
0.004807
0.00464551
0.00449209
0.00434395
0.00420043
0.00406086
0.00392432
0.00379007
0.00365737
0.00352533
0.00339388
0.00326336
0.00313359
0.00300437
0.00287564
0.0027473
0.00261938
0.00249191
0.00236464
0.00223704
0.00210858
0.00197983
0.00185161
0.00172402
0.00159685
0.00146948
0.00134132
0.00121284
0.00108481
0.00095726
0.000830063
0.000702714
0.000574578
0.000446114
0.000318031
0.000190495
6.34338e-05
0.00519308
0.00510373
0.00496531
0.00480795
0.00465304
0.00450249
0.00435514
0.00421097
0.00407005
0.00393205
0.0037964
0.00366239
0.00352916
0.00339671
0.00326543
0.00313513
0.00300554
0.00287651
0.00274794
0.00261986
0.00249231
0.00236499
0.00223732
0.00210875
0.00197992
0.0018517
0.00172412
0.00159694
0.00146957
0.00134136
0.00121283
0.00108481
0.000957314
0.000830177
0.000702849
0.000574641
0.000446079
0.000317996
0.000190464
6.34006e-05
0.00511783
0.00506394
0.00495241
0.0048031
0.00465119
0.00450327
0.00435749
0.00421394
0.00407304
0.0039348
0.00379882
0.00366443
0.00353081
0.00339801
0.00326641
0.00313585
0.00300604
0.00287687
0.00274824
0.00262014
0.00249257
0.00236524
0.00223758
0.00210903
0.00198016
0.00185188
0.00172429
0.00159715
0.00146977
0.00134149
0.0012129
0.00108486
0.000957406
0.000830317
0.00070301
0.000574748
0.00044605
0.000317875
0.000190321
6.33275e-05
0.00521532
0.00512189
0.00496332
0.00479345
0.00463985
0.00449431
0.0043506
0.00420871
0.00406916
0.0039319
0.0037966
0.00366285
0.00352977
0.00339732
0.00326585
0.00313537
0.00300565
0.00287652
0.00274802
0.00262007
0.00249254
0.00236521
0.00223764
0.00210921
0.0019804
0.00185209
0.00172444
0.00159725
0.00146988
0.00134161
0.00121296
0.00108484
0.000957308
0.00083019
0.000702993
0.000574998
0.000446315
0.000317876
0.00019017
6.32325e-05
0.00543688
0.00520566
0.00494822
0.00476256
0.00461376
0.00447134
0.00433133
0.00419397
0.0040584
0.00392385
0.00379044
0.00365816
0.00352644
0.00339504
0.00326422
0.0031341
0.00300465
0.0028758
0.0027475
0.00261967
0.00249219
0.00236491
0.00223746
0.00210927
0.00198061
0.00185231
0.00172455
0.00159723
0.00146985
0.0013417
0.00121313
0.00108496
0.000957373
0.000830285
0.000703267
0.000575353
0.00044634
0.000317526
0.000189819
6.30833e-05
0.00574597
0.00521271
0.00484572
0.00469905
0.00457604
0.00444072
0.00430647
0.00417518
0.00404435
0.00391324
0.00378227
0.00365182
0.00352163
0.00339139
0.00326142
0.00313191
0.00300292
0.00287444
0.0027464
0.00261875
0.00249143
0.00236427
0.00223694
0.002109
0.00198055
0.00185223
0.00172442
0.00159704
0.00146967
0.0013417
0.00121326
0.00108505
0.000957418
0.000830263
0.000703184
0.000575448
0.000446603
0.00031765
0.000189769
6.2989e-05
0.00584138
0.00519225
0.00477339
0.00464121
0.0045312
0.0044057
0.00428001
0.00415473
0.00402839
0.00390086
0.00377275
0.00364448
0.003516
0.00338715
0.00325829
0.00312966
0.00300135
0.00287337
0.00274568
0.00261825
0.00249109
0.00236403
0.00223677
0.00210889
0.00198048
0.0018522
0.0017244
0.00159702
0.00146966
0.00134171
0.0012133
0.00108511
0.000957466
0.000830273
0.000703141
0.000575295
0.000446398
0.000317518
0.000189738
6.30098e-05
0.00574626
0.00521315
0.00484625
0.00469958
0.00457632
0.0044407
0.0043062
0.00417478
0.00404392
0.00391278
0.00378188
0.00365138
0.00352127
0.00339133
0.00326148
0.00313195
0.0030029
0.00287437
0.00274627
0.0026186
0.00249127
0.00236411
0.00223677
0.00210885
0.00198048
0.00185227
0.00172453
0.00159719
0.00146981
0.00134181
0.00121344
0.00108533
0.000957827
0.00083089
0.000703179
0.000574339
0.000445599
0.000317335
0.000189797
6.30382e-05
0.00562886
0.00523909
0.00491955
0.00472161
0.00456944
0.00442492
0.00428763
0.00415706
0.0040287
0.00390025
0.00377182
0.00364348
0.00351515
0.00338658
0.00325787
0.0031293
0.00300099
0.00287299
0.00274527
0.00261788
0.00249075
0.00236371
0.00223652
0.00210852
0.00198004
0.00185194
0.00172433
0.00159709
0.00146981
0.00134164
0.0012131
0.00108504
0.000957512
0.000830473
0.000703254
0.00057474
0.000445665
0.00031735
0.000189875
6.3108e-05
0.00549986
0.00524813
0.00501102
0.00480697
0.00463122
0.00447008
0.00431963
0.00417811
0.00404203
0.00390861
0.00377684
0.00364653
0.00351672
0.0033871
0.00325806
0.00312942
0.00300112
0.00287314
0.00274542
0.002618
0.00249079
0.00236365
0.00223629
0.00210813
0.00197968
0.00185173
0.00172419
0.00159694
0.00146955
0.00134131
0.00121283
0.00108488
0.00095731
0.000829923
0.00070261
0.00057455
0.00044597
0.000317934
0.000190444
6.33879e-05
0.00536907
0.0051882
0.00500251
0.00481762
0.00464768
0.00448934
0.00433788
0.00419195
0.00405146
0.00391514
0.00378159
0.0036499
0.00351898
0.0033887
0.00325924
0.00313038
0.0030019
0.00287369
0.00274576
0.00261807
0.00249061
0.00236323
0.00223557
0.00210745
0.00197929
0.00185147
0.00172396
0.00159657
0.00146898
0.00134094
0.00121283
0.00108504
0.000957533
0.000830071
0.000702429
0.000574345
0.000446144
0.000318306
0.000190827
6.35509e-05
0.00525593
0.00509717
0.0049463
0.00478505
0.00462698
0.0044768
0.00433185
0.00419036
0.00405207
0.00391662
0.00378323
0.0036513
0.00352047
0.00339038
0.00326081
0.0031317
0.00300296
0.00287453
0.00274641
0.0026185
0.00249072
0.00236297
0.0022351
0.0021071
0.00197922
0.00185152
0.00172395
0.00159637
0.00146864
0.00134077
0.00121292
0.00108523
0.000957697
0.000830128
0.000702336
0.000574306
0.000446292
0.000318559
0.00019104
6.36326e-05
0.00513188
0.00499087
0.00487792
0.0047406
0.00459626
0.00445592
0.00431847
0.00418235
0.00404758
0.00391429
0.00378221
0.00365108
0.00352072
0.00339088
0.00326144
0.00313234
0.00300352
0.002875
0.00274681
0.00261886
0.00249098
0.00236314
0.0022352
0.00210721
0.0019793
0.00185159
0.00172399