/*--------------------------------*- C++ -*----------------------------------*\
| =========                 |                                                 |
| \\      /  F ield         | OpenFOAM: The Open Source CFD Toolbox           |
|  \\    /   O peration     | Version:  2212                                  |
|   \\  /    A nd           | Website:  www.openfoam.com                      |
|    \\/     M anipulation  |                                                 |
\*---------------------------------------------------------------------------*/
FoamFile
{
    version     2.0;
    format      ascii;
    arch        "LSB;label=32;scalar=64";
    class       surfaceScalarField;
    location    "0.5";
    object      phi;
}
// * * * * * * * * * * * * * * * * * * * * * * * * * * * * * * * * * * * * * //

dimensions      [0 3 -1 0 0 0 0];

oriented        oriented;

internalField   nonuniform List<scalar> 
19019
(
3.32249e-07
1.09687e-09
1.09687e-09
2.7919e-07
2.65294e-08
2.65297e-08
2.49217e-07
1.49863e-08
1.49869e-08
2.29252e-07
9.98181e-09
9.98282e-09
2.14832e-07
7.20899e-09
7.21147e-09
2.03197e-07
5.81545e-09
5.81927e-09
1.9377e-07
4.70931e-09
4.71727e-09
1.86006e-07
3.87502e-09
3.8895e-09
1.79364e-07
3.30838e-09
3.33355e-09
1.7355e-07
2.88518e-09
2.9284e-09
1.68396e-07
2.54148e-09
2.61298e-09
1.63796e-07
2.24083e-09
2.35814e-09
1.59672e-07
1.96559e-09
2.15873e-09
1.55972e-07
1.68406e-09
2.01574e-09
1.527e-07
1.35742e-09
1.91324e-09
1.49915e-07
9.5495e-10
1.83034e-09
1.47827e-07
3.81332e-10
1.7063e-09
1.47326e-07
-8.93308e-10
1.39383e-09
1.50567e-07
-3.88827e-09
6.4711e-10
-2.63196e-08
-1.26207e-08
6.3138e-07
3.58741e-09
7.40301e-09
6.14563e-07
2.2645e-08
2.07014e-08
5.86443e-07
2.43752e-08
1.87314e-08
5.61722e-07
1.88531e-08
1.58499e-08
5.39613e-07
1.55653e-08
1.37524e-08
5.20633e-07
1.35019e-08
1.12936e-08
5.04691e-07
1.19366e-08
8.71398e-09
4.90948e-07
1.07724e-08
6.84544e-09
4.78748e-07
9.89868e-09
5.61036e-09
4.67702e-07
9.15111e-09
4.77993e-09
4.57575e-07
8.46719e-09
4.20101e-09
4.48233e-07
7.81267e-09
3.76987e-09
4.39579e-07
7.16166e-09
3.45733e-09
4.31534e-07
6.48636e-09
3.24245e-09
4.24068e-07
5.72489e-09
3.09841e-09
4.17287e-07
4.75949e-09
2.97573e-09
4.11409e-07
3.41646e-09
2.84267e-09
4.0726e-07
1.16247e-09
2.09351e-09
4.08216e-07
-3.71607e-09
-1.12919e-09
-1.61475e-08
-1.57023e-08
8.90374e-07
2.8525e-09
6.3326e-09
8.82484e-07
1.34081e-08
1.71274e-08
8.70353e-07
1.78665e-08
1.86392e-08
8.55102e-07
1.6953e-08
1.71514e-08
8.39967e-07
1.53355e-08
1.5365e-08
8.25514e-07
1.41615e-08
1.37933e-08
8.11743e-07
1.3365e-08
1.23422e-08
7.9875e-07
1.2651e-08
1.11147e-08
7.86689e-07
1.18405e-08
1.01187e-08
7.75571e-07
1.09612e-08
9.30761e-09
7.65267e-07
1.01001e-08
8.67151e-09
7.55625e-07
9.26683e-09
8.1871e-09
7.46515e-07
8.45455e-09
7.81712e-09
7.37836e-07
7.63546e-09
7.52965e-09
7.29498e-07
6.7439e-09
7.31784e-09
7.21351e-07
5.69404e-09
7.21217e-09
7.1312e-07
4.38219e-09
7.26577e-09
7.0416e-07
2.58376e-09
7.53796e-09
6.92758e-07
-7.9762e-11
7.76611e-09
-2.43288e-10
1.18383e-08
1.07431e-06
1.06491e-09
5.56919e-09
1.06823e-06
5.58694e-09
1.39015e-08
1.06137e-06
8.46475e-09
1.62647e-08
1.05337e-06
9.04058e-09
1.59135e-08
1.04508e-06
8.61881e-09
1.50071e-08
1.03718e-06
8.1225e-09
1.39364e-08
1.02978e-06
7.78953e-09
1.2976e-08
1.02277e-06
7.55777e-09
1.21032e-08
1.01593e-06
7.37057e-09
1.13103e-08
1.00918e-06
7.08811e-09
1.0626e-08
1.00254e-06
6.65487e-09
1.00863e-08
9.95962e-07
6.17245e-09
9.66907e-09
9.89354e-07
5.71423e-09
9.34831e-09
9.82561e-07
5.29746e-09
9.13079e-09
9.75325e-07
4.92963e-09
9.04989e-09
9.67168e-07
4.65253e-09
9.19828e-09
9.572e-07
4.57819e-09
9.77211e-09
9.43914e-07
4.75778e-09
1.11122e-08
9.24973e-07
5.4853e-09
1.33752e-08
1.0105e-08
2.13407e-08
1.16914e-06
1.35052e-13
4.907e-09
1.16312e-06
6.62342e-13
1.16103e-08
1.1573e-06
1.55253e-12
1.42786e-08
1.152e-06
2.75498e-12
1.43375e-08
1.14688e-06
4.7202e-12
1.37351e-08
1.14203e-06
8.24751e-12
1.29719e-08
1.1377e-06
1.45827e-11
1.20969e-08
1.13394e-06
2.50632e-11
1.12925e-08
1.13066e-06
4.2737e-11
1.06125e-08
1.12756e-06
7.1874e-11
1.01187e-08
1.12431e-06
1.19773e-10
9.77962e-09
1.12077e-06
1.98079e-10
9.51498e-09
1.11684e-06
3.27581e-10
9.31975e-09
1.11238e-06
5.42995e-10
9.21558e-09
1.10716e-06
9.00258e-10
9.24215e-09
1.10085e-06
1.49481e-09
9.47499e-09
1.09285e-06
2.53183e-09
1.00475e-08
1.08225e-06
4.16126e-09
1.11902e-08
1.06779e-06
6.96206e-09
1.29844e-08
1.28854e-08
1.65174e-08
1.16914e-06
-1.06459e-09
4.90696e-09
1.16312e-06
-5.58583e-09
1.16101e-08
1.15731e-06
-8.46267e-09
1.42785e-08
1.15201e-06
-9.0371e-09
1.43369e-08
1.14689e-06
-8.61229e-09
1.37331e-08
1.14204e-06
-8.1103e-09
1.29679e-08
1.13773e-06
-7.76754e-09
1.20906e-08
1.134e-06
-7.51995e-09
1.12821e-08
1.13075e-06
-7.30532e-09
1.0595e-08
1.12771e-06
-6.9802e-09
1.00897e-08
1.12458e-06
-6.47868e-09
9.73297e-09
1.12123e-06
-5.88651e-09
9.43655e-09
1.11762e-06
-5.2475e-09
9.18213e-09
1.11372e-06
-4.53234e-09
8.97276e-09
1.10948e-06
-3.67194e-09
8.8162e-09
1.10474e-06
-2.51531e-09
8.74617e-09
1.09938e-06
-9.02228e-10
8.79769e-09
1.09315e-06
1.37629e-09
9.01464e-09
1.0861e-06
4.61344e-09
9.39464e-09
9.43957e-09
1.00322e-08
1.07432e-06
-2.85251e-09
5.56919e-09
1.06824e-06
-1.34081e-08
1.39015e-08
1.06138e-06
-1.78664e-08
1.62639e-08
1.05338e-06
-1.69529e-08
1.5911e-08
1.0451e-06
-1.53347e-08
1.50022e-08
1.03722e-06
-1.41592e-08
1.39289e-08
1.02985e-06
-1.33607e-08
1.29652e-08
1.02289e-06
-1.26449e-08
1.2086e-08
1.01613e-06
-1.18306e-08
1.12813e-08
1.00952e-06
-1.09457e-08
1.0576e-08
1.00312e-06
-1.00768e-08
1.00004e-08
9.96943e-07
-9.22988e-09
9.51821e-09
9.90999e-07
-8.39155e-09
9.0884e-09
9.85312e-07
-7.52334e-09
8.67768e-09
9.79936e-07
-6.54565e-09
8.24899e-09
9.74936e-07
-5.26716e-09
7.75148e-09
9.704e-07
-3.51136e-09
7.14562e-09
9.66291e-07
-9.18227e-10
6.4032e-09
9.62017e-07
3.3861e-09
5.50168e-09
1.14946e-08
4.21456e-09
8.90374e-07
-3.5875e-09
6.3325e-09
8.82485e-07
-2.26456e-08
1.71267e-08
8.70357e-07
-2.43759e-08
1.86374e-08
8.5511e-07
-1.88544e-08
1.71484e-08
8.39983e-07
-1.55684e-08
1.53606e-08
8.25544e-07
-1.35071e-08
1.37873e-08
8.11796e-07
-1.19459e-08
1.23327e-08
7.98841e-07
-1.07883e-08
1.10982e-08
7.86844e-07
-9.92564e-09
1.00921e-08
7.75832e-07
-9.19748e-09
9.26402e-09
7.65703e-07
-8.54698e-09
8.59868e-09
7.56356e-07
-7.94345e-09
8.05999e-09
7.4774e-07
-7.36856e-09
7.59352e-09
7.39883e-07
-6.81062e-09
7.14375e-09
7.32933e-07
-6.23775e-09
6.64178e-09
7.2724e-07
-5.54782e-09
5.97301e-09
7.23251e-07
-4.51035e-09
4.98807e-09
7.21606e-07
-2.48905e-09
3.21612e-09
7.23267e-07
1.50371e-09
2.21228e-10
1.34097e-08
-6.68429e-09
6.3138e-07
-1.09686e-09
7.40292e-09
6.14563e-07
-2.65297e-08
2.07008e-08
5.86444e-07
-1.49868e-08
1.87305e-08
5.61724e-07
-9.98275e-09
1.58481e-08
5.39617e-07
-7.21139e-09
1.37499e-08
5.2064e-07
-5.8192e-09
1.12886e-08
5.04706e-07
-4.71717e-09
8.70594e-09
4.90974e-07
-3.88937e-09
6.83233e-09
4.78794e-07
-3.33336e-09
5.5882e-09
4.67782e-07
-2.92818e-09
4.7421e-09
4.57715e-07
-2.61275e-09
4.13262e-09
4.48479e-07
-2.3579e-09
3.6503e-09
4.40009e-07
-2.1585e-09
3.25951e-09
4.32259e-07
-2.01556e-09
2.95509e-09
4.25277e-07
-1.91301e-09
2.65723e-09
4.19337e-07
-1.82982e-09
2.22152e-09
4.15046e-07
-1.70543e-09
1.4857e-09
4.14353e-07
-1.39259e-09
-4.03983e-10
4.21576e-07
-6.45714e-10
-5.07396e-09
1.26217e-08
-2.18207e-08
3.32249e-07
1.09688e-09
2.7919e-07
2.65294e-08
2.49217e-07
1.49864e-08
2.29252e-07
9.98187e-09
2.14832e-07
7.20907e-09
2.03197e-07
5.81552e-09
1.93771e-07
4.70943e-09
1.86006e-07
3.87516e-09
1.79364e-07
3.30856e-09
1.7355e-07
2.88538e-09
1.68396e-07
2.54168e-09
1.63797e-07
2.24097e-09
1.59673e-07
1.96566e-09
1.55973e-07
1.68418e-09
1.52702e-07
1.35763e-09
1.49917e-07
9.55171e-10
1.4783e-07
3.81385e-10
1.47331e-07
-8.93454e-10
1.50574e-07
-3.88883e-09
-2.63242e-08
6.3138e-07
7.40291e-09
3.58751e-09
6.14563e-07
2.07008e-08
2.26456e-08
5.86444e-07
1.87305e-08
2.4376e-08
5.61724e-07
1.58481e-08
1.88545e-08
5.39617e-07
1.37499e-08
1.55685e-08
5.2064e-07
1.12886e-08
1.35073e-08
5.04705e-07
8.70597e-09
1.19461e-08
4.90974e-07
6.83239e-09
1.07885e-08
4.78793e-07
5.58828e-09
9.92592e-09
4.67782e-07
4.74221e-09
9.19782e-09
4.57714e-07
4.13278e-09
8.54738e-09
4.48478e-07
3.65063e-09
7.94391e-09
4.40007e-07
3.26002e-09
7.3691e-09
4.32256e-07
2.95549e-09
6.81136e-09
4.25273e-07
2.65733e-09
6.23902e-09
4.19331e-07
2.22169e-09
5.54992e-09
4.15038e-07
1.48608e-09
4.51323e-09
4.14342e-07
-4.03106e-10
2.49302e-09
4.2156e-07
-5.07317e-09
-1.49776e-09
-2.18179e-08
-1.34009e-08
9.23616e-07
7.03388e-09
7.03405e-09
9.25317e-07
1.98503e-08
1.9851e-08
9.17182e-07
2.27979e-08
2.27992e-08
9.04272e-07
2.23029e-08
2.23053e-08
8.9053e-07
2.06202e-08
2.06242e-08
8.77407e-07
1.78488e-08
1.78563e-08
8.65443e-07
1.46854e-08
1.46979e-08
8.54776e-07
1.21625e-08
1.21828e-08
8.45348e-07
1.02955e-08
1.03311e-08
8.37023e-07
8.89269e-09
8.95397e-09
8.29642e-07
7.80625e-09
7.90839e-09
8.23045e-07
6.92557e-09
7.09218e-09
8.17141e-07
6.17863e-09
6.44274e-09
8.11951e-07
5.48831e-09
5.89923e-09
8.07542e-07
4.75962e-09
5.4049e-09
8.03947e-07
3.88852e-09
4.90378e-09
8.01205e-07
2.75865e-09
4.3125e-09
7.98996e-07
8.1967e-10
3.07896e-09
7.94443e-07
-2.24175e-09
5.92709e-10
-7.36463e-09
-4.59425e-09
1.1589e-06
5.28139e-09
6.1033e-09
1.16569e-06
1.39991e-08
1.61854e-08
1.16844e-06
1.79786e-08
2.07111e-08
1.16661e-06
1.91793e-08
2.21108e-08
1.1622e-06
1.88749e-08
2.15124e-08
1.15653e-06
1.75386e-08
1.97756e-08
1.15046e-06
1.56688e-08
1.74281e-08
1.14456e-06
1.38558e-08
1.53262e-08
1.13912e-06
1.22359e-08
1.36156e-08
1.13428e-06
1.08076e-08
1.22378e-08
1.13002e-06
9.5997e-09
1.11317e-08
1.12631e-06
8.57168e-09
1.02475e-08
1.12312e-06
7.65735e-09
9.53785e-09
1.12038e-06
6.79728e-09
8.95949e-09
1.11804e-06
5.92419e-09
8.48992e-09
1.11605e-06
4.95998e-09
8.1281e-09
1.11441e-06
3.81544e-09
7.85566e-09
1.11291e-06
2.30866e-09
7.54255e-09
1.11103e-06
3.65239e-10
7.04084e-09
-1.6997e-09
6.72342e-09
1.32762e-06
2.71845e-09
4.93206e-09
1.33539e-06
7.12145e-09
1.30116e-08
1.34286e-06
9.55443e-09
1.72205e-08
1.34847e-06
1.05797e-08
1.89068e-08
1.35196e-06
1.08768e-08
1.95091e-08
1.35374e-06
1.05802e-08
1.91193e-08
1.3544e-06
9.88618e-09
1.80973e-08
1.35453e-06
9.03379e-09
1.67942e-08
1.35447e-06
8.17731e-09
1.54279e-08
1.35436e-06
7.37677e-09
1.41713e-08
1.35423e-06
6.6602e-09
1.31473e-08
1.35412e-06
6.02794e-09
1.23273e-08
1.35399e-06
5.45835e-09
1.16751e-08
1.35379e-06
4.94681e-09
1.11811e-08
1.35341e-06
4.48989e-09
1.0866e-08
1.35271e-06
4.08034e-09
1.07803e-08
1.35157e-06
3.72864e-09
1.1002e-08
1.34993e-06
3.4262e-09
1.16302e-08
1.34782e-06
3.19324e-09
1.26532e-08
3.46879e-09
1.40371e-08
1.41518e-06
2.67649e-13
4.19393e-09
1.42279e-06
7.75388e-13
1.11189e-08
1.43152e-06
1.32688e-12
1.51029e-08
1.4398e-06
2.44085e-12
1.66349e-08
1.44712e-06
4.55165e-12
1.72823e-08
1.45315e-06
8.00176e-12
1.75126e-08
1.45798e-06
1.32829e-11
1.71432e-08
1.46188e-06
2.18373e-11
1.64076e-08
1.46514e-06
3.69302e-11
1.54885e-08
1.46801e-06
6.35006e-11
1.456e-08
1.47066e-06
1.06489e-10
1.36874e-08
1.47312e-06
1.7562e-10
1.29071e-08
1.47534e-06
2.79761e-10
1.22789e-08
1.47722e-06
4.4329e-10
1.18395e-08
1.47864e-06
7.05608e-10
1.16009e-08
1.4795e-06
1.11534e-09
1.158e-08
1.47972e-06
1.7368e-09
1.18226e-08
1.47922e-06
2.66708e-09
1.24494e-08
1.47793e-06
4.01852e-09
1.34537e-08
5.8527e-09
1.46128e-08
1.41518e-06
-2.71813e-09
4.19379e-09
1.42279e-06
-7.12058e-09
1.11185e-08
1.43152e-06
-9.55288e-09
1.51023e-08
1.4398e-06
-1.05768e-08
1.66335e-08
1.44713e-06
-1.08713e-08
1.72791e-08
1.45317e-06
-1.05706e-08
1.75068e-08
1.45801e-06
-9.87025e-09
1.71337e-08
1.46193e-06
-9.00728e-09
1.63927e-08
1.46523e-06
-8.1325e-09
1.54657e-08
1.46816e-06
-7.29703e-09
1.45234e-08
1.47089e-06
-6.52376e-09
1.36294e-08
1.47349e-06
-5.80217e-09
1.28094e-08
1.47596e-06
-5.11484e-09
1.21112e-08
1.47824e-06
-4.41514e-09
1.15502e-08
1.48028e-06
-3.63424e-09
1.11142e-08
1.48204e-06
-2.69101e-09
1.07939e-08
1.48349e-06
-1.50179e-09
1.05902e-08
1.48458e-06
5.89368e-11
1.05262e-08
1.48528e-06
2.12281e-09
1.05958e-08
4.69275e-09
1.06959e-08
1.32762e-06
-5.28151e-09
4.93178e-09
1.33539e-06
-1.39993e-08
1.30108e-08
1.34287e-06
-1.79789e-08
1.72186e-08
1.34848e-06
-1.91798e-08
1.89023e-08
1.35198e-06
-1.88756e-08
1.95007e-08
1.35378e-06
-1.75403e-08
1.9106e-08
1.35446e-06
-1.56712e-08
1.80777e-08
1.35464e-06
-1.38582e-08
1.67636e-08
1.35465e-06
-1.22417e-08
1.538e-08
1.35465e-06
-1.0819e-08
1.40934e-08
1.35473e-06
-9.6192e-09
1.30138e-08
1.35495e-06
-8.60406e-09
1.21036e-08
1.35533e-06
-7.71271e-09
1.13067e-08
1.3559e-06
-6.88616e-09
1.05764e-08
1.3567e-06
-6.0512e-09
9.86946e-09
1.35774e-06
-5.12138e-09
9.14503e-09
1.35901e-06
-3.9872e-09
8.35694e-09
1.36042e-06
-2.39367e-09
7.44898e-09
1.36181e-06
-1.72496e-10
6.40261e-09
3.1938e-09
5.2392e-09
1.1589e-06
-7.03405e-09
6.10297e-09
1.1657e-06
-1.9851e-08
1.61841e-08
1.16845e-06
-2.27992e-08
2.07082e-08
1.16661e-06
-2.23052e-08
2.2106e-08
1.16222e-06
-2.06241e-08
2.15052e-08
1.15655e-06
-1.78563e-08
1.97654e-08
1.1505e-06
-1.46979e-08
1.74115e-08
1.14463e-06
-1.21827e-08
1.52976e-08
1.13924e-06
-1.0331e-08
1.3567e-08
1.13448e-06
-8.95377e-09
1.2158e-08
1.13037e-06
-7.90807e-09
1.10004e-08
1.12688e-06
-7.09161e-09
1.00335e-08
1.12402e-06
-6.44183e-09
9.18758e-09
1.12179e-06
-5.89833e-09
8.38925e-09
1.12022e-06
-5.40412e-09
7.56516e-09
1.11934e-06
-4.90255e-09
6.6272e-09
1.1192e-06
-4.31036e-09
5.45156e-09
1.11935e-06
-3.07561e-09
3.74699e-09
1.1186e-06
-5.87938e-10
1.38771e-09
4.60201e-09
-1.46784e-09
9.23616e-07
-7.40301e-09
7.03387e-09
9.25317e-07
-2.07013e-08
1.98504e-08
9.17182e-07
-1.87315e-08
2.2798e-08
9.04272e-07
-1.58499e-08
2.23029e-08
8.9053e-07
-1.37524e-08
2.06202e-08
8.77407e-07
-1.12936e-08
1.78488e-08
8.65444e-07
-8.71407e-09
1.46854e-08
8.54776e-07
-6.84556e-09
1.21625e-08
8.45348e-07
-5.61049e-09
1.02956e-08
8.37024e-07
-4.78007e-09
8.89266e-09
8.29643e-07
-4.20115e-09
7.80611e-09
8.23047e-07
-3.76988e-09
6.92517e-09
8.17144e-07
-3.45719e-09
6.17786e-09
8.11955e-07
-3.24248e-09
5.48758e-09
8.07548e-07
-3.09868e-09
4.75913e-09
8.03955e-07
-2.97587e-09
3.88774e-09
8.01216e-07
-2.84251e-09
2.75711e-09
7.99012e-07
-2.09319e-09
8.17018e-10
7.94466e-07
1.12982e-09
-2.24553e-09
1.57058e-08
-7.37177e-09
6.3138e-07
3.5874e-09
6.14563e-07
2.2645e-08
5.86443e-07
2.43752e-08
5.61722e-07
1.88531e-08
5.39613e-07
1.55654e-08
5.20633e-07
1.35019e-08
5.04692e-07
1.19366e-08
4.90949e-07
1.07724e-08
4.78748e-07
9.89868e-09
4.67702e-07
9.1511e-09
4.57576e-07
8.46716e-09
4.48234e-07
7.81255e-09
4.39581e-07
7.16145e-09
4.31537e-07
6.486e-09
4.24071e-07
5.72426e-09
4.17292e-07
4.75836e-09
4.11416e-07
3.41465e-09
4.0727e-07
1.1599e-09
4.0823e-07
-3.71996e-09
-1.61545e-08
8.90374e-07
6.3325e-09
2.85252e-09
8.82485e-07
1.71267e-08
1.34081e-08
8.70357e-07
1.86374e-08
1.78665e-08
8.5511e-07
1.71484e-08
1.69531e-08
8.39983e-07
1.53606e-08
1.53349e-08
8.25544e-07
1.37873e-08
1.41595e-08
8.11796e-07
1.23327e-08
1.3361e-08
7.98841e-07
1.10982e-08
1.26453e-08
7.86844e-07
1.00922e-08
1.18311e-08
7.75831e-07
9.26409e-09
1.09463e-08
7.65702e-07
8.59882e-09
1.00776e-08
7.56355e-07
8.06025e-09
9.2309e-09
7.47737e-07
7.59388e-09
8.39288e-09
7.39879e-07
7.14405e-09
7.52522e-09
7.32928e-07
6.64224e-09
6.54834e-09
7.27233e-07
5.974e-09
5.27087e-09
7.23241e-07
4.98954e-09
3.51618e-09
7.21591e-07
3.2184e-09
9.244e-10
7.23246e-07
2.24119e-10
-3.37715e-09
-6.68123e-09
-1.14833e-08
1.1589e-06
6.10297e-09
5.28152e-09
1.1657e-06
1.61841e-08
1.39993e-08
1.16845e-06
2.07082e-08
1.79789e-08
1.16661e-06
2.2106e-08
1.91799e-08
1.16222e-06
2.15052e-08
1.88757e-08
1.15655e-06
1.97654e-08
1.75405e-08
1.1505e-06
1.74115e-08
1.56714e-08
1.14463e-06
1.52976e-08
1.38585e-08
1.13924e-06
1.35671e-08
1.2242e-08
1.13448e-06
1.21581e-08
1.08195e-08
1.13037e-06
1.10007e-08
9.61989e-09
1.12688e-06
1.00341e-08
8.60509e-09
1.12402e-06
9.18846e-09
7.71417e-09
1.12178e-06
8.39002e-09
6.8878e-09
1.12021e-06
7.56594e-09
6.05312e-09
1.11933e-06
6.62867e-09
5.12415e-09
1.11919e-06
5.454e-09
3.99117e-09
1.11934e-06
3.75082e-09
2.39942e-09
1.11858e-06
1.39275e-09
1.79125e-10
-1.46266e-09
-3.18467e-09
1.37712e-06
4.57766e-09
4.57797e-09
1.38565e-06
1.19181e-08
1.1919e-08
1.39417e-06
1.64481e-08
1.64499e-08
1.40127e-06
1.85611e-08
1.8564e-08
1.40642e-06
1.89281e-08
1.89328e-08
1.40953e-06
1.82147e-08
1.82219e-08
1.41096e-06
1.66985e-08
1.6711e-08
1.41155e-06
1.5007e-08
1.50273e-08
1.41183e-06
1.34346e-08
1.34671e-08
1.41207e-06
1.20509e-08
1.21026e-08
1.41244e-06
1.084e-08
1.09229e-08
1.41303e-06
9.7784e-09
9.91087e-09
1.41389e-06
8.82543e-09
9.03926e-09
1.41504e-06
7.93247e-09
8.27357e-09
1.41646e-06
7.04951e-09
7.58323e-09
1.41815e-06
6.12335e-09
6.94252e-09
1.42006e-06
5.08328e-09
6.31526e-09
1.4219e-06
3.83469e-09
5.62143e-09
1.42313e-06
2.38572e-09
4.8209e-09
1.11234e-09
4.07709e-09
1.53312e-06
2.3664e-09
3.65011e-09
1.54218e-06
6.23978e-09
9.63606e-09
1.55328e-06
8.87482e-09
1.36951e-08
1.56446e-06
1.0349e-08
1.59408e-08
1.57508e-06
1.09011e-08
1.69154e-08
1.58471e-06
1.07545e-08
1.69462e-08
1.59299e-06
1.01407e-08
1.63707e-08
1.60004e-06
9.32368e-09
1.54271e-08
1.60615e-06
8.44632e-09
1.43073e-08
1.61157e-06
7.61508e-09
1.31866e-08
1.61653e-06
6.87238e-09
1.21592e-08
1.62116e-06
6.21985e-09
1.12537e-08
1.62555e-06
5.63433e-09
1.04783e-08
1.62973e-06
5.0972e-09
9.83203e-09
1.63374e-06
4.5931e-09
9.31712e-09
1.63759e-06
4.11194e-09
8.94453e-09
1.6413e-06
3.64123e-09
8.73101e-09
1.64493e-06
3.16441e-09
8.67151e-09
1.64856e-06
2.6929e-09
8.71254e-09
2.34708e-09
8.76766e-09
1.61424e-06
2.05354e-13
3.09353e-09
1.62332e-06
4.94956e-13
8.27583e-09
1.63534e-06
8.65522e-13
1.19595e-08
1.6482e-06
1.5475e-12
1.41164e-08
1.66118e-06
2.79371e-12
1.52001e-08
1.67387e-06
4.57554e-12
1.55771e-08
1.68573e-06
7.45186e-12
1.54135e-08
1.69653e-06
1.1533e-11
1.49256e-08
1.70622e-06
1.90936e-11
1.42256e-08
1.71495e-06
3.20106e-11
1.3409e-08
1.72289e-06
5.29699e-11
1.25663e-08
1.73016e-06
8.51839e-11
1.17712e-08
1.73688e-06
1.33216e-10
1.10623e-08
1.74315e-06
2.0386e-10
1.04663e-08
1.74902e-06
3.1209e-10
1.00063e-08
1.75453e-06
4.75302e-10
9.71033e-09
1.7597e-06
7.08193e-10
9.58645e-09
1.76465e-06
1.03337e-09
9.62415e-09
1.76958e-06
1.46223e-09
9.7553e-09
1.96798e-09
9.84578e-09
1.61424e-06
-2.36623e-09
3.09335e-09
1.62332e-06
-6.2394e-09
8.2753e-09
1.63534e-06
-8.87416e-09
1.19585e-08
1.64821e-06
-1.03478e-08
1.41144e-08
1.66119e-06
-1.08993e-08
1.51962e-08
1.67389e-06
-1.07516e-08
1.5571e-08
1.68576e-06
-1.01363e-08
1.54048e-08
1.69657e-06
-9.31697e-09
1.49126e-08
1.70628e-06
-8.43479e-09
1.42049e-08
1.71506e-06
-7.59411e-09
1.33749e-08
1.72306e-06
-6.83569e-09
1.25116e-08
1.73043e-06
-6.15829e-09
1.16845e-08
1.73729e-06
-5.53884e-09
1.09273e-08
1.74374e-06
-4.95098e-09
1.02509e-08
1.74987e-06
-4.36651e-09
9.6654e-09
1.75571e-06
-3.75366e-09
9.17904e-09
1.76131e-06
-3.08647e-09
8.7892e-09
1.76673e-06
-2.3094e-09
8.45053e-09
1.77203e-06
-1.38367e-09
8.13947e-09
-3.29119e-10
7.84192e-09
1.53313e-06
-4.57796e-09
3.64969e-09
1.54218e-06
-1.1919e-08
9.63484e-09
1.55328e-06
-1.64498e-08
1.36927e-08
1.56446e-06
-1.8564e-08
1.59365e-08
1.57509e-06
-1.89328e-08
1.69081e-08
1.58473e-06
-1.82218e-08
1.69343e-08
1.59303e-06
-1.67109e-08
1.63531e-08
1.60011e-06
-1.50271e-08
1.53998e-08
1.60625e-06
-1.34669e-08
1.42645e-08
1.61174e-06
-1.21023e-08
1.3119e-08
1.61679e-06
-1.09223e-08
1.20502e-08
1.62156e-06
-9.90995e-09
1.1079e-08
1.62617e-06
-9.03799e-09
1.01959e-08
1.63069e-06
-8.27234e-09
9.38043e-09
1.63517e-06
-7.58186e-09
8.6068e-09
1.63965e-06
-6.94045e-09
7.84513e-09
1.64418e-06
-6.31223e-09
7.05439e-09
1.64874e-06
-5.61721e-09
6.20179e-09
1.65329e-06
-4.81583e-09
5.2861e-09
-4.0724e-09
4.44046e-09
1.37712e-06
-6.10329e-09
4.57765e-09
1.38565e-06
-1.61854e-08
1.19181e-08
1.39417e-06
-2.07111e-08
1.64481e-08
1.40127e-06
-2.21108e-08
1.85612e-08
1.40642e-06
-2.15124e-08
1.89281e-08
1.40953e-06
-1.97755e-08
1.82147e-08
1.41096e-06
-1.74281e-08
1.66985e-08
1.41155e-06
-1.53262e-08
1.5007e-08
1.41183e-06
-1.36155e-08
1.34344e-08
1.41207e-06
-1.22377e-08
1.20507e-08
1.41244e-06
-1.11314e-08
1.08396e-08
1.41303e-06
-1.02469e-08
9.77766e-09
1.4139e-06
-9.53693e-09
8.8244e-09
1.41504e-06
-8.95869e-09
7.93149e-09
1.41646e-06
-8.48915e-09
7.04833e-09
1.41816e-06
-8.12671e-09
6.12139e-09
1.42007e-06
-7.85338e-09
5.08029e-09
1.42191e-06
-7.53911e-09
3.8304e-09
1.42313e-06
-7.03635e-09
2.3804e-09
-6.71788e-09
1.10724e-09
1.1589e-06
-6.33259e-09
5.28138e-09
1.16569e-06
-1.71274e-08
1.39991e-08
1.16844e-06
-1.86392e-08
1.79786e-08
1.16661e-06
-1.71514e-08
1.91794e-08
1.1622e-06
-1.5365e-08
1.88749e-08
1.15653e-06
-1.37933e-08
1.75386e-08
1.15046e-06
-1.23423e-08
1.56688e-08
1.14456e-06
-1.11147e-08
1.38558e-08
1.13912e-06
-1.01187e-08
1.22359e-08
1.13428e-06
-9.30765e-09
1.08075e-08
1.13002e-06
-8.6715e-09
9.59947e-09
1.12632e-06
-8.18698e-09
8.57118e-09
1.12312e-06
-7.81688e-09
7.65645e-09
1.12038e-06
-7.52947e-09
6.79635e-09
1.11804e-06
-7.31761e-09
5.92318e-09
1.11606e-06
-7.21153e-09
4.95834e-09
1.11441e-06
-7.26473e-09
3.81279e-09
1.11292e-06
-7.53655e-09
2.3045e-09
1.11105e-06
-7.76458e-09
3.59833e-10
-1.1836e-08
-1.70846e-09
8.90374e-07
2.85249e-09
8.82484e-07
1.3408e-08
8.70353e-07
1.78665e-08
8.55102e-07
1.6953e-08
8.39967e-07
1.53355e-08
8.25514e-07
1.41615e-08
8.11743e-07
1.33649e-08
7.9875e-07
1.26509e-08
7.8669e-07
1.18405e-08
7.75572e-07
1.09611e-08
7.65268e-07
1.01e-08
7.55627e-07
9.2666e-09
7.46517e-07
8.45417e-09
7.37839e-07
7.63473e-09
7.29503e-07
6.74264e-09
7.21358e-07
5.69213e-09
7.13128e-07
4.37939e-09
7.04172e-07
2.57977e-09
6.92773e-07
-8.55249e-11
-2.51369e-10
1.07432e-06
5.56919e-09
1.06461e-09
1.06824e-06
1.39015e-08
5.58591e-09
1.06138e-06
1.62639e-08
8.46281e-09
1.05338e-06
1.5911e-08
9.03728e-09
1.0451e-06
1.50023e-08
8.61254e-09
1.03722e-06
1.39289e-08
8.11063e-09
1.02985e-06
1.29653e-08
7.76796e-09
1.02289e-06
1.20861e-08
7.52049e-09
1.01613e-06
1.12814e-08
7.30599e-09
1.00952e-06
1.05762e-08
6.98104e-09
1.00312e-06
1.00006e-08
6.47975e-09
9.96942e-07
9.51862e-09
5.88789e-09
9.90997e-07
9.089e-09
5.24936e-09
9.85309e-07
8.67847e-09
4.53487e-09
9.79932e-07
8.25009e-09
3.67524e-09
9.7493e-07
7.75305e-09
2.51951e-09
9.70392e-07
7.14766e-09
9.07527e-10
9.6628e-07
6.40582e-09
-1.36969e-09
9.62003e-07
5.50507e-09
-4.605e-09
4.21818e-09
-9.42853e-09
1.32762e-06
4.93178e-09
2.71815e-09
1.33539e-06
1.30108e-08
7.12064e-09
1.34287e-06
1.72186e-08
9.55297e-09
1.34848e-06
1.89023e-08
1.05769e-08
1.35198e-06
1.95007e-08
1.08714e-08
1.35378e-06
1.91061e-08
1.05708e-08
1.35446e-06
1.80778e-08
9.87055e-09
1.35464e-06
1.67638e-08
9.00768e-09
1.35465e-06
1.53802e-08
8.13302e-09
1.35465e-06
1.40936e-08
7.29771e-09
1.35473e-06
1.30142e-08
6.52469e-09
1.35495e-06
1.21043e-08
5.80346e-09
1.35533e-06
1.13076e-08
5.11657e-09
1.3559e-06
1.05774e-08
4.41728e-09
1.3567e-06
9.87075e-09
3.63695e-09
1.35773e-06
9.147e-09
2.69458e-09
1.359e-06
8.35968e-09
1.50644e-09
1.36041e-06
7.45261e-09
-5.25374e-11
1.3618e-06
6.40705e-09
-2.11523e-09
5.24392e-09
-4.68371e-09
1.53313e-06
3.64969e-09
2.36625e-09
1.54218e-06
9.63484e-09
6.23946e-09
1.55328e-06
1.36928e-08
8.87422e-09
1.56446e-06
1.59365e-08
1.03479e-08
1.57509e-06
1.69081e-08
1.08994e-08
1.58473e-06
1.69344e-08
1.07517e-08
1.59303e-06
1.63532e-08
1.01365e-08
1.6001e-06
1.53999e-08
9.31722e-09
1.60625e-06
1.42647e-08
8.43515e-09
1.61173e-06
1.31194e-08
7.59462e-09
1.61678e-06
1.20507e-08
6.83643e-09
1.62156e-06
1.10798e-08
6.15937e-09
1.62617e-06
1.01969e-08
5.54024e-09
1.63069e-06
9.38146e-09
4.95253e-09
1.63517e-06
8.6081e-09
4.36832e-09
1.63965e-06
7.84706e-09
3.75604e-09
1.64418e-06
7.05703e-09
3.0895e-09
1.64874e-06
6.20514e-09
2.313e-09
1.65329e-06
5.28975e-09
1.38729e-09
4.44336e-09
3.31457e-10
1.68027e-06
1.89123e-09
1.89139e-09
1.68934e-06
5.09972e-09
5.10024e-09
1.7018e-06
7.46444e-09
7.46543e-09
1.71579e-06
8.94535e-09
8.94701e-09
1.73023e-06
9.69003e-09
9.69277e-09
1.7444e-06
9.85341e-09
9.85787e-09
1.75784e-06
9.63729e-09
9.64427e-09
1.77031e-06
9.17191e-09
9.18228e-09
1.78173e-06
8.56689e-09
8.58219e-09
1.79219e-06
7.91282e-09
7.93594e-09
1.80182e-06
7.27096e-09
7.30671e-09
1.81076e-06
6.66877e-09
6.72446e-09
1.81913e-06
6.11289e-09
6.1995e-09
1.82701e-06
5.59884e-09
5.73445e-09
1.83449e-06
5.1167e-09
5.32638e-09
1.84166e-06
4.65413e-09
4.96702e-09
1.84861e-06
4.1936e-09
4.64261e-09
1.85542e-06
3.72416e-09
4.34145e-09
1.86215e-06
3.24911e-09
4.02224e-09
2.8588e-09
3.64324e-09
1.7569e-06
5.07202e-14
1.6135e-09
1.76589e-06
6.33604e-14
4.38477e-09
1.77878e-06
5.53835e-14
6.53241e-09
1.79389e-06
5.13992e-14
7.95093e-09
1.81003e-06
3.2827e-14
8.75352e-09
1.82638e-06
-3.07075e-14
9.07938e-09
1.84237e-06
-1.03612e-13
9.05867e-09
1.85766e-06
1.83524e-13
8.81124e-09
1.87203e-06
9.67299e-13
8.42061e-09
1.8854e-06
2.33041e-12
7.95055e-09
1.89778e-06
4.40913e-12
7.45126e-09
1.90925e-06
7.31589e-12
6.96168e-09
1.91991e-06
1.08093e-11
6.50633e-09
1.92986e-06
1.39803e-11
6.10015e-09
1.93921e-06
1.76461e-11
5.7535e-09
1.94808e-06
2.52121e-11
5.47676e-09
1.95654e-06
4.36783e-11
5.27061e-09
1.96471e-06
7.00946e-11
5.11469e-09
1.97265e-06
1.11719e-10
4.94553e-09
1.8358e-10
4.79584e-09
1.7569e-06
-1.89137e-09
1.61337e-09
1.76589e-06
-5.10019e-09
4.38436e-09
1.77878e-06
-7.46538e-09
6.53162e-09
1.7939e-06
-8.94696e-09
7.94954e-09
1.81003e-06
-9.6927e-09
8.75124e-09
1.82639e-06
-9.85778e-09
9.07586e-09
1.84238e-06
-9.64415e-09
9.05359e-09
1.85767e-06
-9.1821e-09
8.8037e-09
1.87205e-06
-8.58192e-09
8.4091e-09
1.88543e-06
-7.93556e-09
7.93238e-09
1.89783e-06
-7.30615e-09
7.42279e-09
1.90933e-06
-6.72366e-09
6.91774e-09
1.92003e-06
-6.1985e-09
6.44022e-09
1.93002e-06
-5.73342e-09
6.00073e-09
1.93943e-06
-5.32532e-09
5.60421e-09
1.94834e-06
-4.96577e-09
5.25379e-09
1.95687e-06
-4.6412e-09
4.94873e-09
1.96506e-06
-4.34018e-09
4.66867e-09
1.97296e-06
-4.02178e-09
4.3785e-09
-3.64477e-09
4.17028e-09
1.68027e-06
-3.65009e-09
1.89123e-09
1.68934e-06
-9.63602e-09
5.09972e-09
1.7018e-06
-1.36951e-08
7.46443e-09
1.71579e-06
-1.59407e-08
8.94534e-09
1.73023e-06
-1.69154e-08
9.69001e-09
1.7444e-06
-1.69462e-08
9.85337e-09
1.75784e-06
-1.63706e-08
9.63722e-09
1.77031e-06
-1.5427e-08
9.1718e-09
1.78173e-06
-1.43072e-08
8.56671e-09
1.79219e-06
-1.31863e-08
7.91254e-09
1.80182e-06
-1.21587e-08
7.27054e-09
1.81076e-06
-1.1253e-08
6.66816e-09
1.81913e-06
-1.04774e-08
6.1121e-09
1.82701e-06
-9.83122e-09
5.59799e-09
1.83449e-06
-9.31623e-09
5.11569e-09
1.84166e-06
-8.94321e-09
4.65279e-09
1.84861e-06
-8.72913e-09
4.19197e-09
1.85542e-06
-8.66906e-09
3.72239e-09
1.86214e-06
-8.71e-09
3.24777e-09
-8.76615e-09
2.85892e-09
1.53312e-06
-4.93204e-09
2.36639e-09
1.54218e-06
-1.30116e-08
6.23977e-09
1.55328e-06
-1.72205e-08
8.87481e-09
1.56446e-06
-1.89068e-08
1.0349e-08
1.57508e-06
-1.95091e-08
1.09011e-08
1.58471e-06
-1.91193e-08
1.07545e-08
1.59299e-06
-1.80973e-08
1.01407e-08
1.60004e-06
-1.67942e-08
9.3236e-09
1.60615e-06
-1.54279e-08
8.44618e-09
1.61157e-06
-1.41712e-08
7.61484e-09
1.61653e-06
-1.31471e-08
6.87197e-09
1.62116e-06
-1.23269e-08
6.2192e-09
1.62555e-06
-1.16744e-08
5.63345e-09
1.62974e-06
-1.11805e-08
5.09625e-09
1.63374e-06
-1.08654e-08
4.59191e-09
1.63759e-06
-1.07791e-08
4.11021e-09
1.6413e-06
-1.10002e-08
3.63885e-09
1.64493e-06
-1.16275e-08
3.16137e-09
1.64856e-06
-1.26496e-08
2.6896e-09
-1.40331e-08
2.34457e-09
1.32762e-06
-5.56918e-09
2.71844e-09
1.33539e-06
-1.39015e-08
7.12144e-09
1.34286e-06
-1.62646e-08
9.55442e-09
1.34847e-06
-1.59134e-08
1.05797e-08
1.35196e-06
-1.5007e-08
1.08768e-08
1.35374e-06
-1.39364e-08
1.05801e-08
1.3544e-06
-1.2976e-08
9.88614e-09
1.35453e-06
-1.21032e-08
9.03373e-09
1.35447e-06
-1.13103e-08
8.1772e-09
1.35436e-06
-1.06261e-08
7.37658e-09
1.35424e-06
-1.00863e-08
6.65989e-09
1.35412e-06
-9.66901e-09
6.02742e-09
1.35399e-06
-9.34812e-09
5.45752e-09
1.3538e-06
-9.13054e-09
4.94584e-09
1.35341e-06
-9.04949e-09
4.48864e-09
1.35271e-06
-9.19752e-09
4.07847e-09
1.35157e-06
-9.77102e-09
3.72593e-09
1.34994e-06
-1.11107e-08
3.42237e-09
1.34783e-06
-1.33734e-08
3.18819e-09
-2.13386e-08
3.46278e-09
1.07431e-06
1.0649e-09
1.06823e-06
5.58692e-09
1.06137e-06
8.46472e-09
1.05337e-06
9.04055e-09
1.04508e-06
8.61876e-09
1.03718e-06
8.12244e-09
1.02978e-06
7.78944e-09
1.02277e-06
7.55766e-09
1.01593e-06
7.37042e-09
1.00918e-06
7.0879e-09
1.00254e-06
6.6546e-09
9.95964e-07
6.17208e-09
9.89357e-07
5.7137e-09
9.82564e-07
5.29658e-09
9.75329e-07
4.92823e-09
9.67174e-07
4.65048e-09
9.57207e-07
4.57533e-09
9.43922e-07
4.75393e-09
9.24983e-07
5.48014e-09
1.00977e-08
1.16914e-06
4.90695e-09
-1.20101e-13
1.16312e-06
1.16101e-08
-5.82729e-13
1.15731e-06
1.42785e-08
-1.39529e-12
1.15201e-06
1.43369e-08
-2.55861e-12
1.14689e-06
1.37331e-08
-4.46483e-12
1.14204e-06
1.29679e-08
-7.91766e-12
1.13773e-06
1.20907e-08
-1.4164e-11
1.134e-06
1.12823e-08
-2.45357e-11
1.13075e-06
1.05952e-08
-4.20775e-11
1.12771e-06
1.00899e-08
-7.10437e-11
1.12458e-06
9.73324e-09
-1.18722e-10
1.12123e-06
9.43691e-09
-1.96738e-10
1.11762e-06
9.18267e-09
-3.25861e-10
1.11372e-06
8.97354e-09
-5.40727e-10
1.10948e-06
8.81716e-09
-8.97252e-10
1.10474e-06
8.74731e-09
-1.49089e-09
1.09937e-06
8.79898e-09
-2.52679e-09
1.09314e-06
9.01613e-09
-4.1551e-09
1.0861e-06
9.39645e-09
-6.95426e-09
1.00343e-08
-1.2875e-08
1.41518e-06
4.1938e-09
-2.38184e-13
1.42279e-06
1.11185e-08
-6.97767e-13
1.43152e-06
1.51023e-08
-1.22692e-12
1.4398e-06
1.66335e-08
-2.30854e-12
1.44713e-06
1.72791e-08
-4.37126e-12
1.45317e-06
1.75069e-08
-7.75549e-12
1.45801e-06
1.71338e-08
-1.29577e-11
1.46193e-06
1.63928e-08
-2.14109e-11
1.46523e-06
1.54659e-08
-3.63691e-11
1.46816e-06
1.45237e-08
-6.27582e-11
1.47089e-06
1.36298e-08
-1.05498e-10
1.47349e-06
1.28099e-08
-1.74293e-10
1.47596e-06
1.2112e-08
-2.78003e-10
1.47824e-06
1.15513e-08
-4.41001e-10
1.48028e-06
1.11154e-08
-7.02686e-10
1.48204e-06
1.07953e-08
-1.11162e-09
1.48349e-06
1.05919e-08
-1.73208e-09
1.48458e-06
1.05282e-08
-2.66107e-09
1.48528e-06
1.05979e-08
-4.01118e-09
1.0698e-08
-5.84421e-09
1.61424e-06
3.09336e-09
-1.71582e-13
1.62332e-06
8.27531e-09
-4.32187e-13
1.63534e-06
1.19585e-08
-7.91397e-13
1.64821e-06
1.41144e-08
-1.45216e-12
1.66119e-06
1.51962e-08
-2.66219e-12