/*--------------------------------*- C++ -*----------------------------------*\
| =========                 |                                                 |
| \\      /  F ield         | OpenFOAM: The Open Source CFD Toolbox           |
|  \\    /   O peration     | Version:  2212                                  |
|   \\  /    A nd           | Website:  www.openfoam.com                      |
|    \\/     M anipulation  |                                                 |
\*---------------------------------------------------------------------------*/
FoamFile
{
    version     2.0;
    format      ascii;
    arch        "LSB;label=32;scalar=64";
    class       volVectorField;
    location    "0.5";
    object      U;
}
// * * * * * * * * * * * * * * * * * * * * * * * * * * * * * * * * * * * * * //

dimensions      [0 1 -1 0 0 0 0];

internalField   nonuniform List<vector> 
6840
(
(0.0956456 -0.00836003 -0.00836002)
(0.0904938 0.00152196 0.00152205)
(0.0790681 0.00242963 0.00242981)
(0.071301 0.00148759 0.00148796)
(0.0661792 0.000830217 0.00083092)
(0.0623225 0.000562939 0.00056409)
(0.0592214 0.000425017 0.000427567)
(0.0566868 0.000321593 0.000326041)
(0.0545544 0.000249041 0.000256359)
(0.0527074 0.000195626 0.000207547)
(0.0510769 0.000154512 0.000173908)
(0.0496273 0.000119981 0.000151941)
(0.0483284 8.72104e-05 0.000139211)
(0.0471587 5.22685e-05 0.000134648)
(0.0461138 1.60329e-05 0.000137264)
(0.0452039 -1.83883e-05 0.000152747)
(0.0444664 -0.000102184 0.000181675)
(0.0440506 -0.000273141 0.000219862)
(0.0444612 -0.000525727 0.000189136)
(0.0435021 -0.00318462 -0.00174617)
(0.0999088 0.00129698 0.000712592)
(0.0969668 0.00365575 0.00274741)
(0.0935344 0.00264007 0.00211845)
(0.0895888 0.00182009 0.00162103)
(0.0858316 0.00152809 0.00139108)
(0.0825894 0.00135006 0.00116183)
(0.0798648 0.00117735 0.00089773)
(0.0775675 0.00103729 0.000692416)
(0.0755604 0.000937463 0.000560078)
(0.0737578 0.000856538 0.000478865)
(0.0721129 0.000780455 0.000431313)
(0.0705984 0.000700872 0.000404818)
(0.0691981 0.000618425 0.000391117)
(0.0678976 0.000532941 0.000385107)
(0.0666894 0.000429357 0.000388005)
(0.0655769 0.000278266 0.000397323)
(0.0645781 6.31766e-05 0.00041651)
(0.0638013 -0.000293363 0.000413351)
(0.0634286 -0.00105654 0.000250294)
(0.0622893 -0.00365127 -0.00101491)
(0.099413 0.000345198 0.00027025)
(0.0988663 0.00201888 0.00187508)
(0.0979211 0.00257291 0.00218939)
(0.0963652 0.00237938 0.0019089)
(0.0946325 0.00211326 0.00162723)
(0.0929709 0.0019253 0.00141908)
(0.0913627 0.00179901 0.00127104)
(0.089853 0.00170153 0.00115856)
(0.088455 0.00159857 0.00106599)
(0.0871621 0.00148397 0.000990482)
(0.0859675 0.00136575 0.000935212)
(0.084857 0.0012491 0.000898751)
(0.0838136 0.00113193 0.000876154)
(0.0828234 0.00100674 0.000864126)
(0.0818762 0.00086311 0.000862714)
(0.080959 0.0006887 0.000878496)
(0.0800513 0.000457471 0.000922621)
(0.0790998 8.95245e-05 0.00102182)
(0.0780139 -0.000565806 0.00113156)
(0.0766465 -0.00131682 0.00219498)
(0.0995405 0.00024502 0.000321927)
(0.0992575 0.0010555 0.00154111)
(0.0988486 0.0015021 0.00211491)
(0.098124 0.00157899 0.00209219)
(0.0973356 0.00151405 0.00188677)
(0.096583 0.0014453 0.00166651)
(0.0958626 0.00140843 0.0014984)
(0.0951941 0.00137634 0.0013708)
(0.094566 0.00132791 0.00128059)
(0.0939221 0.00125292 0.00122019)
(0.0932958 0.00115761 0.00117626)
(0.0926838 0.00105341 0.00114524)
(0.0920749 0.00094893 0.00112307)
(0.0914563 0.000845175 0.00111039)
(0.0908107 0.000737294 0.00111205)
(0.0901073 0.00061981 0.00114012)
(0.089287 0.000486891 0.00122314)
(0.0882267 0.000337395 0.00141276)
(0.0867895 0.000144175 0.0017102)
(0.0851301 0.000647305 0.00288428)
(0.0993802 3.37811e-05 5.89962e-05)
(0.0992676 0.000274414 0.00120024)
(0.0989801 0.000432421 0.00188892)
(0.0984739 0.000483528 0.002007)
(0.0979942 0.000478952 0.0019151)
(0.0975689 0.00046567 0.0017348)
(0.0971785 0.000453045 0.00154693)
(0.096828 0.00044262 0.00138714)
(0.0965272 0.000436882 0.00126616)
(0.0962723 0.000430165 0.00119107)
(0.0959982 0.000415116 0.00115669)
(0.0957038 0.000394997 0.00114492)
(0.0953864 0.000376732 0.00114159)
(0.0950324 0.000366034 0.00114302)
(0.0946244 0.000369102 0.00115381)
(0.0941382 0.000396963 0.00118455)
(0.0935411 0.000476009 0.00125546)
(0.0927598 0.000603033 0.00139798)
(0.091709 0.000863908 0.001617)
(0.0907831 0.00157886 0.00212124)
(0.0993801 -3.37431e-05 5.89416e-05)
(0.0992676 -0.000274224 0.00120019)
(0.0989801 -0.000432011 0.0018889)
(0.0984741 -0.000482818 0.00200693)
(0.0979947 -0.000477725 0.00191492)
(0.09757 -0.000463486 0.00173441)
(0.0971805 -0.000449135 0.00154634)
(0.0968314 -0.000435868 0.00138616)
(0.096533 -0.000425391 0.00126435)
(0.0962823 -0.000410879 0.00118784)
(0.0960154 -0.000383044 0.00115121)
(0.0957329 -0.000342219 0.00113564)
(0.0954363 -0.000290099 0.00112556)
(0.0951181 -0.000223411 0.00111485)
(0.0947729 -0.000133425 0.00110458)
(0.0943914 -6.93207e-06 0.00110274)
(0.0939667 0.000184014 0.00111707)
(0.0934732 0.000473265 0.00115277)
(0.0928819 0.00092086 0.001217)
(0.0923643 0.0016564 0.00133758)
(0.0995405 -0.000245004 0.000321926)
(0.0992576 -0.00105542 0.00154111)
(0.0988488 -0.00150195 0.0021148)
(0.0981246 -0.00157874 0.00209198)
(0.0973369 -0.00151347 0.00188643)
(0.0965856 -0.00144413 0.001666)
(0.0958673 -0.00140633 0.0014978)
(0.095202 -0.00137292 0.00136984)
(0.0945799 -0.00132202 0.00127835)
(0.093946 -0.00124364 0.00121514)
(0.0933364 -0.00114318 0.00116687)
(0.0927528 -0.00103094 0.00112773)
(0.0921911 -0.000912474 0.00109374)
(0.0916514 -0.000785646 0.00106058)
(0.0911367 -0.000642354 0.00102307)
(0.0906533 -0.000451874 0.000975947)
(0.0902072 -0.000191509 0.000916914)
(0.0898039 0.000180593 0.000851694)
(0.0894353 0.000724817 0.00078597)
(0.0889881 0.00154558 0.000650951)
(0.099413 -0.000345212 0.000270242)
(0.0988664 -0.00201895 0.00187501)
(0.0979214 -0.00257307 0.00218914)
(0.0963659 -0.00237969 0.00190848)
(0.0946338 -0.00211376 0.00162664)
(0.0929734 -0.00192613 0.00141822)
(0.0913671 -0.00180026 0.00126964)
(0.0898606 -0.00170364 0.00115622)
(0.0884682 -0.00160221 0.00106222)
(0.0871842 -0.00149009 0.000984253)
(0.0860044 -0.00137596 0.000925506)
(0.0849192 -0.00126575 0.000882019)
(0.083918 -0.00115843 0.000847081)
(0.0829979 -0.00104762 0.00081388)
(0.0821669 -0.000924133 0.000774272)
(0.0814525 -0.000773806 0.0007144)
(0.0808981 -0.000578381 0.000623159)
(0.0805682 -0.000264662 0.000437515)
(0.080589 0.000341563 0.000133118)
(0.0800146 0.00178526 -0.00070052)
(0.0999088 -0.00129699 0.000712572)
(0.0969669 -0.00365589 0.00274732)
(0.0935345 -0.00264027 0.00211825)
(0.0895891 -0.00182047 0.00162064)
(0.0858321 -0.0015289 0.00139053)
(0.0825903 -0.00135134 0.0011608)
(0.0798664 -0.00117975 0.000896013)
(0.0775705 -0.00104145 0.000689643)
(0.0755657 -0.000944648 0.000555402)
(0.0737671 -0.000869003 0.000470976)
(0.0721291 -0.000801881 0.000417267)
(0.0706271 -0.000736862 0.000380155)
(0.0692489 -0.000677182 0.000350609)
(0.067984 -0.000626963 0.000329217)
(0.0668319 -0.000586238 0.000305573)
(0.0658202 -0.000543328 0.00025593)
(0.0650069 -0.000466529 0.000171288)
(0.0645985 -0.000344355 -5.68209e-05)
(0.0650158 -0.000175116 -0.000403789)
(0.0629305 0.000304156 -0.00113535)
(0.0956456 0.00836002 -0.00836003)
(0.0904938 -0.00152204 0.00152197)
(0.0790681 -0.0024298 0.00242965)
(0.071301 -0.00148794 0.00148762)
(0.0661792 -0.000830896 0.00083025)
(0.0623225 -0.000564058 0.000562978)
(0.0592214 -0.000427518 0.000425081)
(0.0566868 -0.000325981 0.000321671)
(0.0545545 -0.000256291 0.000249128)
(0.0527075 -0.00020747 0.000195719)
(0.051077 -0.000173824 0.000154614)
(0.0496274 -0.000151849 0.000120091)
(0.0483286 -0.000139113 8.73274e-05)
(0.047159 -0.000134555 5.2399e-05)
(0.0461142 -0.000137179 1.61406e-05)
(0.0452044 -0.000152645 -1.82675e-05)
(0.0444671 -0.000181538 -0.000102085)
(0.0440517 -0.000219723 -0.000273078)
(0.0444627 -0.000189039 -0.000525696)
(0.043504 0.00174625 -0.00318452)
(0.0999088 0.000712571 0.001297)
(0.0969669 0.00274731 0.0036559)
(0.0935345 0.00211824 0.00264029)
(0.0895891 0.00162063 0.0018205)
(0.085832 0.00139051 0.00152893)
(0.0825903 0.00116078 0.00135139)
(0.0798664 0.000895988 0.0011798)
(0.0775705 0.000689616 0.00104152)
(0.0755657 0.000555374 0.000944733)
(0.073767 0.000470943 0.000869104)
(0.072129 0.000417226 0.000801996)
(0.0706269 0.000380109 0.000737001)
(0.0692486 0.000350552 0.000677339)
(0.0679837 0.000329147 0.000627142)
(0.0668314 0.000305477 0.000586461)
(0.0658195 0.000255855 0.000543638)
(0.0650058 0.000171225 0.000466938)
(0.0645971 -5.68523e-05 0.000344835)
(0.0650137 -0.00040384 0.000175722)
(0.0629283 -0.00113498 -0.000303273)
(0.100226 0.000720801 0.000720833)
(0.09996 0.00198275 0.0019829)
(0.0997822 0.00245191 0.00245227)
(0.0987881 0.00241955 0.00242018)
(0.0972755 0.00220057 0.00220155)
(0.0957749 0.0018108 0.00181254)
(0.0943937 0.00138087 0.00138374)
(0.0931663 0.00106732 0.00107217)
(0.0920819 0.000849162 0.000857465)
(0.0911227 0.000693809 0.000708031)
(0.0902757 0.000577596 0.000602613)
(0.0895228 0.000484647 0.000526443)
(0.0888453 0.000407976 0.000474991)
(0.0882419 0.000341086 0.000442115)
(0.0877211 0.000267484 0.000425397)
(0.0872895 0.000168003 0.000426669)
(0.0869424 2.49467e-05 0.000444882)
(0.0866624 -0.000275504 0.000398029)
(0.0863695 -0.000876175 0.000144617)
(0.0862509 -0.00223295 -0.00081474)
(0.10014 0.000774999 0.000869336)
(0.100454 0.00196238 0.00196392)
(0.100911 0.0024275 0.00233522)
(0.100978 0.00252635 0.00244222)
(0.100694 0.00242566 0.00233795)
(0.100224 0.00219598 0.00211362)
(0.0997083 0.00191384 0.00182419)
(0.0991831 0.00166104 0.00157619)
(0.0986885 0.00145525 0.00138973)
(0.098241 0.0012837 0.001249)
(0.0978477 0.00113834 0.00114425)
(0.0975043 0.00101158 0.00106905)
(0.0972066 0.00089615 0.00101676)
(0.096951 0.000781059 0.000982479)
(0.0967329 0.000655442 0.000966866)
(0.0965477 0.000506727 0.000976265)
(0.0963925 0.000314747 0.00101821)
(0.0962494 4.59666e-05 0.0010898)
(0.0961141 -0.00032676 0.00118064)
(0.0962244 -0.00075525 0.00132012)
(0.100093 0.000445915 0.000763294)
(0.100504 0.00119444 0.0017493)
(0.101105 0.00158671 0.00213011)
(0.101634 0.00174032 0.00223576)
(0.101978 0.00178192 0.00228832)
(0.102171 0.00172803 0.00223665)
(0.102251 0.00160596 0.00211569)
(0.102275 0.00145664 0.00196276)
(0.102277 0.00130013 0.00179792)
(0.102267 0.00114991 0.00164561)
(0.102256 0.00101812 0.00153211)
(0.102247 0.000903813 0.0014501)
(0.102238 0.000797971 0.00139148)
(0.102226 0.000697219 0.0013544)
(0.102207 0.000596639 0.00134283)
(0.102168 0.000487742 0.00136807)
(0.102101 0.00036474 0.00144826)
(0.101992 0.000215148 0.00161178)
(0.101853 3.69882e-05 0.00186911)
(0.101995 -7.14001e-05 0.00221011)
(0.100087 0.000144413 0.000707125)
(0.100477 0.000390572 0.00161811)
(0.101065 0.000541232 0.00203512)
(0.101694 0.000610382 0.00211825)
(0.102268 0.000636459 0.00215116)
(0.102741 0.000627479 0.00218029)
(0.103122 0.000595485 0.00213275)
(0.103425 0.00055022 0.00204018)
(0.103675 0.000505413 0.00192663)
(0.103891 0.000464469 0.00181518)
(0.104084 0.00042462 0.00171072)
(0.104264 0.000387543 0.00161576)
(0.104431 0.000356696 0.00154314)
(0.104578 0.000334039 0.00149851)
(0.104697 0.000321545 0.00148264)
(0.104778 0.000322605 0.00149877)
(0.104817 0.000343387 0.00155577)
(0.104805 0.000389309 0.00167886)
(0.104752 0.000472306 0.00186856)
(0.104985 0.000621796 0.00208974)
(0.100087 -0.000144349 0.000707119)
(0.100477 -0.00039038 0.0016181)
(0.101066 -0.000540902 0.00203513)
(0.101694 -0.000609799 0.00211817)
(0.102269 -0.000635366 0.00215083)
(0.102742 -0.000625532 0.00217965)
(0.103124 -0.000592251 0.00213171)
(0.103428 -0.000544875 0.00203855)
(0.10368 -0.000496269 0.00192421)
(0.103899 -0.000448654 0.00181145)
(0.104096 -0.000398021 0.00170505)
(0.104284 -0.000343834 0.00160605)
(0.104464 -0.000287731 0.00152537)
(0.104634 -0.000225705 0.00146669)
(0.104787 -0.00014961 0.00142694)
(0.104922 -4.97737e-05 0.00140511)
(0.105036 8.28158e-05 0.00140127)
(0.105124 0.000264941 0.00142464)
(0.105196 0.000509609 0.00147268)
(0.105434 0.000804248 0.00152743)
(0.100093 -0.000445906 0.000763282)
(0.100504 -0.00119442 0.00174926)
(0.101105 -0.00158666 0.00212995)
(0.101635 -0.00174019 0.0022352)
(0.10198 -0.00178166 0.0022872)
(0.102173 -0.00172763 0.00223502)
(0.102255 -0.00160523 0.00211332)
(0.102281 -0.00145537 0.00195913)
(0.102287 -0.0012982 0.00179242)
(0.102284 -0.00114624 0.00163684)
(0.102284 -0.00101191 0.0015168)
(0.102295 -0.000893476 0.00142395)
(0.102317 -0.000784349 0.00134716)
(0.102352 -0.000676809 0.00127928)
(0.102403 -0.000561608 0.00121502)
(0.102472 -0.000427947 0.00115049)
(0.102559 -0.000263022 0.00108028)
(0.10266 -4.65835e-05 0.000997677)
(0.102781 0.000235287 0.000900094)
(0.102982 0.000578176 0.000783728)
(0.10014 -0.000775032 0.000869291)
(0.100454 -0.00196248 0.00196372)
(0.100911 -0.0024277 0.00233474)
(0.100978 -0.00252678 0.00244142)
(0.100694 -0.00242639 0.00233677)
(0.100225 -0.00219727 0.00211203)
(0.0997109 -0.0019159 0.00182171)
(0.0991876 -0.00166419 0.00157181)
(0.0986963 -0.00146076 0.00138224)
(0.0982545 -0.00129331 0.00123656)
(0.0978704 -0.00115381 0.00112345)
(0.0975424 -0.00103674 0.00103457)
(0.0972679 -0.000936137 0.000959396)
(0.097047 -0.000846967 0.000887701)
(0.0968818 -0.000761982 0.000810615)
(0.0967761 -0.000671837 0.00071677)
(0.0967328 -0.000564111 0.000586114)
(0.0967335 -0.000404093 0.000370905)
(0.0967492 -0.00015074 3.75783e-05)
(0.0968256 0.000282687 -0.000471715)
(0.100226 -0.000720833 0.000720803)
(0.09996 -0.00198289 0.00198276)
(0.0997822 -0.00245226 0.00245192)
(0.0987881 -0.00242017 0.00241957)
(0.0972755 -0.00220153 0.0022006)
(0.0957749 -0.00181252 0.00181083)
(0.0943938 -0.00138371 0.00138091)
(0.0931664 -0.00107214 0.00106736)
(0.092082 -0.000857431 0.000849208)
(0.0911227 -0.000707987 0.00069386)
(0.0902758 -0.000602552 0.000577649)
(0.089523 -0.000526345 0.000484685)
(0.0888456 -0.000474845 0.000407986)
(0.0882423 -0.000441976 0.000341117)
(0.0877217 -0.000425305 0.000267582)
(0.0872902 -0.000426566 0.000168107)
(0.0869434 -0.000444705 2.49885e-05)
(0.0866638 -0.000397774 -0.000275557)
(0.0863715 -0.000144289 -0.000876349)
(0.0862545 0.000815718 -0.00223424)
(0.0999088 -0.00071259 0.00129698)
(0.0969669 -0.00274741 0.00365576)
(0.0935344 -0.00211844 0.00264008)
(0.0895888 -0.00162102 0.00182012)
(0.0858316 -0.00139108 0.00152811)
(0.0825894 -0.00116183 0.00135009)
(0.0798648 -0.000897726 0.00117739)
(0.0775676 -0.000692415 0.00103734)
(0.0755604 -0.000560077 0.000937524)
(0.0737578 -0.000478865 0.000856612)
(0.072113 -0.00043131 0.000780542)
(0.0705986 -0.0004048 0.000700958)
(0.0691983 -0.000391088 0.00061851)
(0.0678979 -0.000385083 0.000533027)
(0.0666899 -0.000387993 0.000429452)
(0.0655776 -0.000397296 0.00027832)
(0.0645791 -0.000416471 6.3157e-05)
(0.0638026 -0.000413334 -0.000293467)
(0.0634304 -0.000250281 -0.00105682)
(0.0622919 0.00101505 -0.00365207)
(0.099413 0.000270241 0.000345214)
(0.0988664 0.001875 0.00201897)
(0.0979214 0.00218914 0.00257309)
(0.0963659 0.00190847 0.00237972)
(0.0946338 0.00162662 0.00211379)
(0.0929734 0.0014182 0.00192617)
(0.0913671 0.00126961 0.00180031)
(0.0898606 0.00115619 0.0017037)
(0.0884682 0.00106219 0.00160228)
(0.0871842 0.00098422 0.00149018)
(0.0860043 0.000925471 0.00137607)
(0.0849191 0.000881981 0.00126589)
(0.0839178 0.000847037 0.0011586)
(0.0829976 0.000813839 0.00104784)
(0.0821664 0.000774266 0.000924458)
(0.0814518 0.000714448 0.000774267)
(0.0808971 0.000623237 0.000578976)
(0.0805668 0.000437654 0.000265546)
(0.080587 0.000133324 -0.000340385)
(0.080012 -0.000700217 -0.0017839)
(0.10014 0.00086929 0.000775035)
(0.100454 0.00196371 0.00196249)
(0.100911 0.00233473 0.00242771)
(0.100978 0.0024414 0.00252679)
(0.100694 0.00233675 0.00242641)
(0.100225 0.00211201 0.0021973)
(0.0997109 0.00182169 0.00191593)
(0.0991876 0.00157179 0.00166423)
(0.0986963 0.00138222 0.0014608)
(0.0982545 0.00123654 0.00129337)
(0.0978703 0.00112344 0.00115389)
(0.0975423 0.00103457 0.00103686)
(0.0972677 0.000959425 0.000936309)
(0.0970468 0.000887691 0.000847146)
(0.0968814 0.000810579 0.000762182)
(0.0967756 0.000716798 0.000672136)
(0.0967321 0.000586233 0.000564548)
(0.0967325 0.000371154 0.000404734)
(0.0967478 3.79029e-05 0.000151578)
(0.096824 -0.000471377 -0.000281711)
(0.10006 0.000641435 0.000641497)
(0.100502 0.00164516 0.00164536)
(0.101149 0.00221254 0.00221294)
(0.101738 0.00244007 0.00244076)
(0.102205 0.00244174 0.00244286)
(0.102502 0.00231274 0.0023145)
(0.102647 0.00209054 0.00209347)
(0.102716 0.00186473 0.00186938)
(0.102743 0.00166296 0.00167055)
(0.102757 0.0014906 0.00150299)
(0.102777 0.00134302 0.00136314)
(0.10281 0.00121429 0.00124668)
(0.102863 0.00109818 0.00115005)
(0.102935 0.000987323 0.00107013)
(0.103029 0.000873288 0.00100447)
(0.103143 0.000745619 0.000951323)
(0.103274 0.000592456 0.000906515)
(0.103412 0.0003948 0.000859006)
(0.10355 0.000148901 0.000796926)
(0.103806 -8.17932e-05 0.000756799)
(0.100046 0.000395744 0.000540372)
(0.10048 0.00104493 0.00138446)
(0.101154 0.00147545 0.00192353)
(0.101913 0.0017053 0.00219325)
(0.102632 0.00177995 0.0022947)
(0.103302 0.00174424 0.00227848)
(0.103894 0.00163279 0.00218494)
(0.104389 0.00148871 0.00204998)
(0.104815 0.00134031 0.00189996)
(0.105189 0.00120185 0.00175692)
(0.105526 0.00107715 0.00162978)
(0.105837 0.0009663 0.00152028)
(0.106131 0.000865018 0.0014296)
(0.106411 0.000769061 0.00135807)
(0.106678 0.000674418 0.00130732)
(0.106934 0.000577934 0.0012806)
(0.107181 0.000474011 0.0012828)
(0.107419 0.00035756 0.00131633)
(0.107665 0.000231847 0.00137595)
(0.108023 0.000127309 0.00145398)
(0.100039 0.000131367 0.00047889)
(0.100449 0.000350582 0.00123511)
(0.101114 0.000505215 0.00174695)
(0.10191 0.000597376 0.0020273)
(0.102729 0.000638816 0.00215236)
(0.10353 0.000638517 0.00218598)
(0.104298 0.000604943 0.00215132)
(0.105007 0.000559909 0.00207514)
(0.10564 0.000511123 0.00197284)
(0.106209 0.000463445 0.00185971)
(0.106725 0.000419812 0.00174757)
(0.107196 0.000381456 0.001645)
(0.107629 0.000348201 0.00155583)
(0.10803 0.000319493 0.00148429)
(0.108406 0.000295503 0.00143403)
(0.10876 0.000277054 0.00140853)
(0.10909 0.000265542 0.00140973)
(0.109401 0.000260714 0.00144064)
(0.109715 0.000264177 0.00149612)
(0.110131 0.000279172 0.00155594)
(0.100039 -0.000131321 0.00047887)
(0.100449 -0.000350464 0.00123504)
(0.101114 -0.000505009 0.00174682)
(0.10191 -0.00059703 0.00202706)
(0.102729 -0.00063822 0.0021519)
(0.103531 -0.000637534 0.00218521)
(0.1043 -0.000603266 0.00215015)
(0.105009 -0.000557271 0.00207336)
(0.105643 -0.000506764 0.00197005)
(0.106214 -0.000456187 0.00185509)
(0.106733 -0.000407803 0.00174016)
(0.107209 -0.000362032 0.00163295)
(0.107649 -0.000317536 0.00153648)
(0.10806 -0.000272206 0.00145198)
(0.10845 -0.000222988 0.00138125)
(0.108822 -0.00016663 0.00132493)
(0.109176 -0.00010073 0.00128347)
(0.109514 -1.96529e-05 0.00125152)
(0.109856 7.91021e-05 0.00122794)
(0.110262 0.000189012 0.00120673)
(0.100046 -0.00039576 0.000540317)
(0.10048 -0.00104498 0.00138428)
(0.101154 -0.00147554 0.00192319)
(0.101913 -0.00170542 0.00219263)
(0.102633 -0.00178017 0.00229361)
(0.103303 -0.00174459 0.00227664)
(0.103896 -0.00163357 0.0021822)
(0.104392 -0.00149006 0.00204568)
(0.10482 -0.00134239 0.00189317)
(0.105197 -0.00120479 0.00174618)
(0.105539 -0.00108155 0.00161224)
(0.105858 -0.000973053 0.00149184)
(0.106163 -0.000876578 0.00138287)
(0.10646 -0.000788069 0.00128222)
(0.106754 -0.000703712 0.00118607)
(0.107046 -0.000620021 0.00108954)
(0.10734 -0.000533603 0.000987456)
(0.107636 -0.000436109 0.000874876)
(0.107944 -0.000323157 0.000751249)
(0.108317 -0.000194552 0.000634816)
(0.10006 -0.000641495 0.000641435)
(0.100502 -0.00164535 0.00164516)
(0.101149 -0.00221293 0.00221254)
(0.101738 -0.00244075 0.00244007)
(0.102205 -0.00244285 0.00244175)
(0.102502 -0.00231449 0.00231275)
(0.102647 -0.00209346 0.00209055)
(0.102716 -0.00186936 0.00186473)
(0.102743 -0.00167053 0.00166296)
(0.102757 -0.00150296 0.00149059)
(0.102777 -0.00136308 0.00134298)
(0.10281 -0.00124658 0.00121422)
(0.102863 -0.00114991 0.00109808)
(0.102935 -0.00107 0.000987232)
(0.103029 -0.00100433 0.00087318)
(0.103143 -0.000951093 0.000745416)
(0.103275 -0.000906171 0.000592127)
(0.103413 -0.000858519 0.000394302)
(0.10355 -0.000796325 0.000148257)
(0.103807 -0.000756238 -8.24154e-05)
(0.10014 -0.000869333 0.000775)
(0.100454 -0.00196392 0.00196239)
(0.100911 -0.00233521 0.0024275)
(0.100978 -0.00244222 0.00252636)
(0.100694 -0.00233795 0.00242567)
(0.100224 -0.00211361 0.00219599)
(0.0997084 -0.00182419 0.00191385)
(0.0991832 -0.00157618 0.00166105)
(0.0986886 -0.00138971 0.00145526)
(0.0982411 -0.00124898 0.00128371)
(0.0978478 -0.00114422 0.00113833)
(0.0975044 -0.00106899 0.00101155)
(0.0972068 -0.00101666 0.000896068)
(0.0969513 -0.000982406 0.000780985)
(0.0967333 -0.000966828 0.000655369)
(0.0965482 -0.000976176 0.000506575)
(0.0963932 -0.00101804 0.000314476)
(0.0962503 -0.00108955 4.55152e-05)
(0.0961153 -0.00118035 -0.000327427)
(0.096226 -0.00131968 -0.000756295)
(0.099413 -0.000270248 0.000345198)
(0.0988664 -0.00187508 0.00201888)
(0.0979211 -0.00218938 0.00257291)
(0.0963653 -0.0019089 0.00237939)
(0.0946325 -0.00162722 0.00211327)
(0.092971 -0.00141907 0.00192532)
(0.0913628 -0.00127103 0.00179902)
(0.089853 -0.00115855 0.00170154)
(0.0884551 -0.00106598 0.00159859)
(0.0871622 -0.000990474 0.00148399)
(0.0859676 -0.000935203 0.00136576)
(0.0848571 -0.000898738 0.0012491)
(0.0838139 -0.000876136 0.00113193)
(0.0828237 -0.000864095 0.0010067)
(0.0818767 -0.00086266 0.000863014)
(0.0809596 -0.000878408 0.000688514)
(0.0800521 -0.000922515 0.000457142)
(0.079101 -0.00102171 8.90127e-05)
(0.0780153 -0.00113147 -0.000566572)
(0.0766485 -0.00219485 -0.00131798)
(0.0995405 0.000321926 0.000245006)
(0.0992576 0.0015411 0.00105543)
(0.0988488 0.00211479 0.00150197)
(0.0981246 0.00209197 0.00157877)
(0.0973369 0.00188643 0.00151351)
(0.0965856 0.00166599 0.00144418)
(0.0958673 0.00149779 0.0014064)
(0.095202 0.00136983 0.001373)
(0.0945799 0.00127834 0.00132212)
(0.093946 0.00121514 0.00124376)
(0.0933363 0.00116688 0.00114333)
(0.0927527 0.00112775 0.00103113)
(0.0921909 0.00109377 0.000912731)
(0.0916512 0.00106064 0.000785997)
(0.0911363 0.00102317 0.000642826)
(0.0906529 0.00097609 0.000452489)
(0.0902066 0.000917093 0.000192291)
(0.089803 0.000851906 -0.000179614)
(0.0894342 0.000786251 -0.000723554)
(0.0889866 0.000651259 -0.00154391)
(0.100093 0.000763281 0.000445909)
(0.100504 0.00174926 0.00119443)
(0.101105 0.00212994 0.00158668)
(0.101635 0.0022352 0.00174021)
(0.10198 0.0022872 0.00178168)
(0.102173 0.00223502 0.00172766)
(0.102255 0.00211332 0.00160527)
(0.102281 0.00195913 0.00145542)
(0.102287 0.00179243 0.00129826)
(0.102284 0.00163685 0.00114632)
(0.102284 0.00151682 0.00101202)
(0.102294 0.001424 0.000893637)
(0.102317 0.00134723 0.000784564)
(0.102352 0.00127935 0.000677067)
(0.102403 0.00121512 0.000561934)
(0.102471 0.00115066 0.000428389)
(0.102558 0.00108053 0.000263614)
(0.102659 0.000998017 4.73761e-05)
(0.10278 0.000900529 -0.000234253)
(0.102981 0.000784185 -0.000576927)
(0.100046 0.000540317 0.000395763)
(0.10048 0.00138428 0.00104499)
(0.101154 0.00192319 0.00147555)
(0.101913 0.00219263 0.00170543)
(0.102633 0.00229361 0.00178018)
(0.103303 0.00227664 0.0017446)
(0.103896 0.00218221 0.00163359)
(0.104392 0.00204569 0.00149008)
(0.10482 0.00189319 0.00134242)
(0.105197 0.00174622 0.00120485)
(0.105539 0.00161229 0.00108163)
(0.105858 0.00149193 0.000973177)
(0.106163 0.00138298 0.00087674)
(0.10646 0.00128233 0.000788238)
(0.106754 0.00118622 0.000703905)
(0.107046 0.00108977 0.000620287)
(0.10734 0.000987785 0.000533963)
(0.107636 0.000875309 0.000436575)
(0.107944 0.000751753 0.00032367)
(0.108317 0.000635282 0.000194945)
(0.100036 0.000323165 0.000323207)
(0.100429 0.000868717 0.000868842)
(0.10108 0.00126239 0.00126263)
(0.101891 0.0015042 0.00150461)
(0.102756 0.00162101 0.00162167)
(0.103616 0.00164142 0.00164247)
(0.104446 0.00160198 0.00160359)
(0.105222 0.00152143 0.00152391)
(0.105935 0.00141843 0.00142229)
(0.106586 0.00130827 0.00131434)
(0.107183 0.0012007 0.00121033)
(0.107735 0.00110001 0.0011152)
(0.10825 0.00100685 0.0010307)
(0.108733 0.000920106 0.000957189)
(0.10919 0.000837854 0.000894628)
(0.109625 0.000757979 0.00084293)
(0.110045 0.000676319 0.000801996)
(0.110453 0.00059098 0.000769375)
(0.110867 0.000503362 0.000738486)
(0.111332 0.000428743 0.000699632)
(0.100031 0.000107092 0.000281432)
(0.100395 0.000293076 0.000768749)
(0.101024 0.000434102 0.00113319)
(0.101844 0.000526201 0.00136922)
(0.102751 0.000576193 0.00150114)
(0.103688 0.000591332 0.00155331)
(0.104617 0.000581522 0.00154726)
(0.105513 0.000556255 0.00150463)
(0.106361 0.000521589 0.00143833)
(0.107153 0.000482934 0.00135815)
(0.107887 0.000444403 0.00127272)
(0.108566 0.000407972 0.00118909)
(0.109195 0.0003744 0.00111175)
(0.109781 0.000343624 0.00104335)
(0.11033 0.000315159 0.00098593)
(0.110849 0.000288278 0.000941993)
(0.111341 0.000262664 0.000912534)
(0.111813 0.000237813 0.000894979)
(0.112283 0.000213597 0.000882576)
(0.112795 0.000195942 0.000864377)
(0.100031 -0.000107087 0.000281411)
(0.100395 -0.000293071 0.000768686)
(0.101024 -0.000434103 0.00113307)
(0.101844 -0.000526208 0.00136898)
(0.102752 -0.000576215 0.00150074)
(0.103689 -0.000591389 0.0015527)
(0.104617 -0.000581625 0.00154641)
(0.105514 -0.00055633 0.00150337)
(0.106362 -0.000521537 0.00143635)
(0.107155 -0.000482671 0.00135495)
(0.107889 -0.000443826 0.00126764)
(0.108569 -0.00040696 0.00118119)
(0.109201 -0.000372826 0.00109974)
(0.109789 -0.000341685 0.00102513)
(0.110341 -0.00031297 0.000958282)
(0.110862 -0.000285217 0.000900119)
(0.111358 -0.000256093 0.000850623)
(0.111833 -0.000225766 0.000806721)
(0.112302 -0.000191767 0.000766503)
(0.112806 -0.000154469 0.000730447)
(0.100036 -0.000323205 0.000323165)
(0.100429 -0.000868837 0.000868716)
(0.10108 -0.00126263 0.00126239)
(0.101891 -0.0015046 0.0015042)
(0.102756 -0.00162167 0.00162101)
(0.103616 -0.00164246 0.00164141)
(0.104446 -0.00160358 0.00160198)
(0.105222 -0.0015239 0.00152142)
(0.105935 -0.00142227 0.00141841)
(0.106586 -0.00131431 0.00130824)
(0.107183 -0.00121027 0.00120065)
(0.107735 -0.00111511 0.00109992)
(0.10825 -0.00103059 0.00100674)
(0.108733 -0.000957081 0.000919992)
(0.10919 -0.000894516 0.000837712)
(0.109625 -0.000842786 0.00075778)
(0.110045 -0.000801815 0.000676058)
(0.110453 -0.00076917 0.000590672)
(0.110866 -0.00073833 0.000503071)
(0.111332 -0.000699663 0.000428595)
(0.100046 -0.000540369 0.000395744)
(0.10048 -0.00138445 0.00104493)
(0.101154 -0.00192352 0.00147545)
(0.101913 -0.00219325 0.0017053)
(0.102632 -0.0022947 0.00177995)
(0.103302 -0.00227848 0.00174424)
(0.103894 -0.00218493 0.00163279)
(0.104389 -0.00204998 0.00148871)
(0.104815 -0.00189995 0.0013403)
(0.105189 -0.0017569 0.00120182)
(0.105526 -0.00162974 0.0010771)
(0.105837 -0.00152021 0.00096622)
(0.106131 -0.0014295 0.000864908)
(0.106411 -0.00135799 0.000768945)
(0.106678 -0.00130723 0.000674271)
(0.106935 -0.00128045 0.000577707)
(0.107181 -0.00128256 0.000473683)
(0.107419 -0.00131599 0.000357114)
(0.107665 -0.00137556 0.00023133)
(0.108023 -0.00145365 0.000126875)
(0.100093 -0.000763292 0.000445914)
(0.100504 -0.0017493 0.00119444)
(0.101105 -0.0021301 0.00158671)
(0.101634 -0.00223576 0.00174032)
(0.101978 -0.00228831 0.00178192)
(0.102171 -0.00223665 0.00172803)
(0.102251 -0.00211569 0.00160597)
(0.102275 -0.00196276 0.00145664)
(0.102277 -0.00179792 0.00130012)
(0.102267 -0.00164561 0.0011499)
(0.102256 -0.0015321 0.00101809)
(0.102247 -0.00145007 0.000903754)
(0.102238 -0.00139142 0.00079787)
(0.102227 -0.00135436 0.000697106)
(0.102207 -0.0013428 0.000596496)
(0.102169 -0.00136798 0.000487519)
(0.102101 -0.00144811 0.000364397)
(0.101992 -0.00161153 0.00021463)
(0.101853 -0.00186878 3.62653e-05)
(0.101996 -0.00220971 -7.22654e-05)
(0.0995405 -0.000321926 0.00024502)
(0.0992575 -0.0015411 0.0010555)
(0.0988486 -0.00211491 0.0015021)
(0.0981241 -0.00209218 0.00157899)
(0.0973356 -0.00188676 0.00151405)
(0.096583 -0.00166651 0.0014453)
(0.0958627 -0.00149839 0.00140842)
(0.0951941 -0.0013708 0.00137633)
(0.0945661 -0.0012806 0.00132789)
(0.0939222 -0.00122019 0.0012529)
(0.0932959 -0.00117626 0.00115759)
(0.0926839 -0.00114524 0.00105338)
(0.0920751 -0.00112306 0.000948873)
(0.0914566 -0.00111036 0.000845069)
(0.090811 -0.00111198 0.000737114)
(0.0901077 -0.00114003 0.000619537)
(0.0892875 -0.00122303 0.000486511)
(0.0882274 -0.00141262 0.000336842)
(0.0867903 -0.00171009 0.000143388)
(0.085131 -0.00288407 0.000646681)
(0.0993801 5.89405e-05 3.37454e-05)
(0.0992676 0.00120019 0.000274235)
(0.0989801 0.0018889 0.000432032)
(0.0984741 0.00200692 0.000482845)
(0.0979947 0.00191492 0.000477761)
(0.09757 0.00173441 0.000463533)
(0.0971805 0.00154635 0.000449194)
(0.0968314 0.00138616 0.000435941)
(0.096533 0.00126436 0.000425483)
(0.0962823 0.00118786 0.000410994)
(0.0960154 0.00115124 0.00038319)
(0.0957329 0.00113567 0.000342405)
(0.0954362 0.00112561 0.000290342)
(0.0951181 0.00111493 0.000223737)
(0.0947729 0.00110468 0.000133851)
(0.0943913 0.00110286 7.48205e-06)
(0.0939665 0.00111721 -0.00018332)
(0.093473 0.00115293 -0.000472394)
(0.0928816 0.00121719 -0.000919751)
(0.0923639 0.00133781 -0.0016549)
(0.100087 0.000707119 0.000144353)
(0.100477 0.0016181 0.00039039)
(0.101066 0.00203513 0.000540915)
(0.101694 0.00211817 0.000609817)
(0.102269 0.00215083 0.00063539)
(0.102742 0.00217965 0.000625564)
(0.103124 0.00213172 0.000592294)
(0.103428 0.00203857 0.000544931)
(0.10368 0.00192423 0.000496341)
(0.103899 0.00181148 0.00044875)
(0.104096 0.00170509 0.000398149)
(0.104284 0.00160611 0.000344006)
(0.104464 0.00152546 0.000287962)
(0.104634 0.00146682 0.000226004)
(0.104787 0.00142708 0.000149985)
(0.104922 0.00140527 5.02444e-05)
(0.105036 0.00140145 -8.22192e-05)
(0.105124 0.00142485 -0.000264177)
(0.105196 0.00147292 -0.000508663)
(0.105434 0.0015277 -0.000803143)
(0.100039 0.00047887 0.000131325)