/*--------------------------------*- C++ -*----------------------------------*\
| =========                 |                                                 |
| \\      /  F ield         | OpenFOAM: The Open Source CFD Toolbox           |
|  \\    /   O peration     | Version:  2212                                  |
|   \\  /    A nd           | Website:  www.openfoam.com                      |
|    \\/     M anipulation  |                                                 |
\*---------------------------------------------------------------------------*/
FoamFile
{
    version     2.0;
    format      ascii;
    arch        "LSB;label=32;scalar=64";
    class       surfaceVectorField;
    location    "0.5";
    object      Uf;
}
// * * * * * * * * * * * * * * * * * * * * * * * * * * * * * * * * * * * * * //

dimensions      [0 1 -1 0 0 0 0];

internalField   nonuniform List<vector> 
19019
(
(0.0993441 -0.00341903 -0.00341899)
(0.0973536 0.00106247 -0.00148425)
(0.0973536 -0.00148427 0.00106247)
(0.0834792 0.0019758 0.00197593)
(0.0930872 0.0032689 0.00253356)
(0.0930872 0.00253347 0.00326902)
(0.074517 0.00195861 0.00195889)
(0.0848639 0.00163571 0.00179255)
(0.0848639 0.00179237 0.00163592)
(0.0685475 0.00115891 0.00115944)
(0.0786278 0.00107327 0.00122174)
(0.0786279 0.00122137 0.00107366)
(0.0642357 0.000696578 0.000697505)
(0.0740527 0.000784845 0.0008657)
(0.0740529 0.000865077 0.000785653)
(0.0607569 0.000493978 0.000495828)
(0.0704422 0.00064961 0.000670115)
(0.0704426 0.000669053 0.000650915)
(0.0579382 0.000373305 0.000376804)
(0.067492 0.000545057 0.000510086)
(0.0674926 0.000507953 0.000547726)
(0.0556166 0.000285317 0.0002912)
(0.0650524 0.000465983 0.000389756)
(0.0650536 0.00038616 0.000470673)
(0.0536306 0.000222333 0.000231953)
(0.0629702 0.000410398 0.000311249)
(0.0629724 0.000305354 0.000418341)
(0.0518923 0.000175069 0.000190728)
(0.061141 0.000364436 0.000260237)
(0.0611447 0.000250604 0.000377791)
(0.050351 0.000137247 0.000162925)
(0.0595047 0.000321621 0.000228208)
(0.0595112 0.000212078 0.000343829)
(0.0489759 0.000103596 0.000145576)
(0.0580291 0.000278483 0.000209937)
(0.0580406 0.000182762 0.000315335)
(0.0477426 6.97394e-05 0.000136929)
(0.0566896 0.000234071 0.000201639)
(0.0567099 0.000157469 0.00029441)
(0.0466362 3.41507e-05 0.000135956)
(0.0554675 0.000184708 0.000199897)
(0.055502 0.000134256 0.000282368)
(0.0456581 -1.17769e-06 0.000145005)
(0.0543572 0.000123857 0.000204007)
(0.0544141 0.000109409 0.000278527)
(0.0448252 -6.0286e-05 0.000167211)
(0.0533661 4.38469e-05 0.000217694)
(0.0534633 7.61603e-05 0.000283095)
(0.0442009 -0.000187662 0.000200769)
(0.0525239 -7.82699e-05 0.000251053)
(0.0526953 9.56923e-06 0.000299758)
(0.0440512 -0.000399434 0.000204499)
(0.0519635 -0.000320152 0.000274675)
(0.0522823 -0.000148037 0.000335818)
(0.0450203 -0.00185517 -0.000778516)
(0.0520603 -0.000799628 0.000177902)
(0.0526953 -0.000385326 0.000340669)
(0.051029 -0.0037373 -0.00166662)
(0.051285 -0.0022377 -0.000952601)
(0.0984572 0.00247637 0.00173)
(0.0996872 0.000439194 0.000345507)
(0.100049 0.00105637 0.000750998)
(0.0958348 0.00314791 0.00243293)
(0.0978161 0.00273259 0.00228245)
(0.0982936 0.00280914 0.00216166)
(0.0914497 0.00223008 0.00186974)
(0.0954957 0.00300145 0.00230349)
(0.0963038 0.00244255 0.00199819)
(0.0875947 0.00167409 0.00150606)
(0.0926186 0.00229889 0.00183933)
(0.0936666 0.00198043 0.00172755)
(0.084147 0.00143907 0.00127646)
(0.0897665 0.00189103 0.00153635)
(0.0909043 0.00171909 0.00149862)
(0.0811873 0.0012637 0.00102978)
(0.087231 0.00165489 0.00129551)
(0.0884341 0.00145334 0.00121297)
(0.0787014 0.00110732 0.000795073)
(0.0850055 0.00148941 0.001078)
(0.086305 0.00118131 0.000910418)
(0.0765583 0.000987375 0.000626247)
(0.0830603 0.0013673 0.000913767)
(0.0844819 0.000979381 0.000693339)
(0.0746557 0.000897001 0.000519472)
(0.0813256 0.00127142 0.000801303)
(0.0828838 0.00083912 0.000552741)
(0.0729332 0.000818496 0.000455089)
(0.0797509 0.00118157 0.000725041)
(0.081455 0.000734303 0.000462677)
(0.0713541 0.000740663 0.000418066)
(0.0783073 0.0010913 0.000675863)
(0.0801638 0.000647371 0.000405788)
(0.0698973 0.000659648 0.000397968)
(0.0769734 0.000998139 0.000646086)
(0.078987 0.000567261 0.000369959)
(0.0685478 0.000575683 0.000388112)
(0.0757327 0.00090072 0.000628623)
(0.077907 0.000492324 0.00035116)
(0.0672933 0.000481149 0.000386556)
(0.0745709 0.000796177 0.000619411)
(0.0769156 0.000420824 0.000346737)
(0.066129 0.000353811 0.000392664)
(0.0734795 0.000673959 0.000620095)
(0.0760121 0.000338042 0.000358598)
(0.0650716 0.000170721 0.000406917)
(0.0724543 0.000514282 0.000633025)
(0.0752014 0.000220239 0.000388823)
(0.064155 -0.000115093 0.00041493)
(0.0714961 0.00028793 0.000661776)
(0.0744914 5.06216e-05 0.000439408)
(0.0635079 -0.000674952 0.000331822)
(0.0706413 -8.76072e-05 0.000698936)
(0.0739348 -0.00026587 0.000452576)
(0.0636571 -0.00235391 -0.000382308)
(0.0699497 -0.000846136 0.000640783)
(0.0735975 -0.000966172 0.000227939)
(0.0687084 -0.00273162 0.000371628)
(0.0729106 -0.00314292 -0.00120906)
(0.0993752 0.00118204 0.00107267)
(0.099473 0.000349736 0.000307082)
(0.0997475 0.000610953 0.000779924)
(0.0984946 0.00229589 0.00203224)
(0.0990503 0.0015767 0.00172065)
(0.099597 0.00201821 0.00200314)
(0.0971407 0.00247614 0.00204915)
(0.0983573 0.00213092 0.00216932)
(0.0992969 0.00246139 0.00210296)
(0.0954385 0.00224632 0.00176807)
(0.0971925 0.0020354 0.00200299)
(0.0984877 0.0023741 0.00190337)
(0.0937492 0.00201928 0.00152315)
(0.0959039 0.001855 0.00175502)
(0.0974215 0.00218013 0.00168965)
(0.0921361 0.00186216 0.00134506)
(0.0946699 0.00173175 0.00154327)
(0.0963083 0.0019832 0.00150922)
(0.0905992 0.00175027 0.0012148)
(0.0934793 0.00165127 0.0013867)
(0.0952029 0.00179892 0.00134338)
(0.089149 0.00165005 0.00111227)
(0.0923652 0.00157466 0.00126472)
(0.0941462 0.00164024 0.0012039)
(0.0878029 0.00154127 0.00102824)
(0.0913293 0.00147749 0.00116844)
(0.0931639 0.00149769 0.00109472)
(0.086562 0.00142486 0.000962847)
(0.0903417 0.00136433 0.00109587)
(0.09226 0.00136326 0.00101115)
(0.0854119 0.00130742 0.000916981)
(0.0894144 0.00124885 0.00104398)
(0.0914341 0.00123787 0.000951408)
(0.0843358 0.00119051 0.000887453)
(0.0885384 0.00113342 0.00100896)
(0.0906765 0.00112093 0.000912143)
(0.083319 0.00106933 0.00087014)
(0.0876994 0.00101829 0.000985608)
(0.0899763 0.00100835 0.000888915)
(0.0823503 0.000934923 0.00086342)
(0.0868839 0.00089968 0.000972425)
(0.0893241 0.000891508 0.000879398)
(0.0814198 0.000775905 0.000870605)
(0.0860786 0.000767409 0.000971132)
(0.0887124 0.000760252 0.000885507)
(0.0805105 0.000573086 0.000900559)
(0.0852619 0.000606816 0.000989556)
(0.088132 0.000602599 0.000915333)
(0.0795917 0.000273498 0.000972219)
(0.0843953 0.000397995 0.00104619)
(0.0875705 0.000396641 0.000983273)
(0.0785918 -0.000238141 0.00107669)
(0.0833927 9.82152e-05 0.00117954)
(0.0869911 8.72644e-05 0.00111431)
(0.0773191 -0.000941311 0.00166327)
(0.0821415 -0.000345556 0.00137616)
(0.0863425 -0.000414972 0.00129471)
(0.0806369 -0.000632932 0.00246101)
(0.0856551 -0.000976732 0.00207359)
(0.0996492 0.000650261 0.000931516)
(0.0994625 0.000129381 0.000192537)
(0.0997993 0.000375113 0.000741405)
(0.0990852 0.0012788 0.00182801)
(0.0992624 0.000636884 0.00137081)
(0.0998408 0.00115032 0.0018144)
(0.0984487 0.00154054 0.00210355)
(0.0989126 0.000973409 0.00200401)
(0.0999045 0.00153636 0.00209056)
(0.0977065 0.00154652 0.00198948)
(0.0982942 0.00104998 0.0020512)
(0.0997667 0.0016315 0.00202368)
(0.0969375 0.00147968 0.00177664)
(0.0976559 0.00100743 0.00190018)
(0.0995084 0.00160921 0.00189644)
(0.096205 0.00142687 0.00158246)
(0.0970626 0.000960107 0.00169872)
(0.099198 0.00154694 0.00175224)
(0.0955185 0.00139238 0.0014346)
(0.0965027 0.000933329 0.0015208)
(0.0988524 0.00147353 0.00162587)
(0.0948683 0.00135212 0.0013257)
(0.0959888 0.000916878 0.00137813)
(0.0985079 0.00139118 0.00151366)
(0.0942338 0.00129041 0.00125039)
(0.0955199 0.000902245 0.00127447)
(0.0981746 0.00129667 0.00141508)
(0.0936074 0.00120527 0.00119822)
(0.0950653 0.000869717 0.001208)
(0.0978275 0.0011903 0.0013342)
(0.0929914 0.00110551 0.00116075)
(0.0946103 0.000812556 0.00116861)
(0.0974891 0.0010808 0.00127474)
(0.0923816 0.00100117 0.00113415)
(0.0941528 0.000746365 0.00114662)
(0.0971593 0.000974015 0.00123252)
(0.0917686 0.000897052 0.00111673)
(0.0936856 0.000682597 0.00113347)
(0.0968309 0.000870656 0.00120367)
(0.0911385 0.000791234 0.00111122)
(0.0931957 0.000623886 0.00112763)
(0.0964967 0.000769953 0.00118929)
(0.0904673 0.000678552 0.00112608)
(0.0926657 0.00057075 0.00113382)
(0.096144 0.000667225 0.00119501)
(0.0897107 0.00055335 0.00118163)
(0.0920679 0.0005278 0.00116363)
(0.0957518 0.000556053 0.00123529)
(0.0887861 0.000412143 0.00131795)
(0.0913562 0.000508109 0.00124194)
(0.0952837 0.000431559 0.00133932)
(0.0875537 0.000240785 0.00156148)
(0.0904317 0.00051405 0.00141108)
(0.0946688 0.000288876 0.0015572)
(0.0857969 0.00039574 0.00229724)
(0.0891824 0.000586986 0.00167564)
(0.093839 0.000115874 0.0019136)
(0.0878798 0.00114736 0.00251859)
(0.093023 0.000387227 0.00301894)
(0.0996724 0.000154098 0.000629616)
(0.0993802 1.89786e-08 5.89689e-05)
(0.0997132 0.000103941 0.000688008)
(0.0991589 0.000353417 0.00154458)
(0.0992676 9.30778e-08 0.00120021)
(0.0998376 0.000341707 0.00162253)
(0.0986631 0.000457975 0.00194796)
(0.0989801 2.18174e-07 0.00188891)
(0.0999628 0.00048559 0.00199179)
(0.0982113 0.00048124 0.00196105)
(0.098474 3.87153e-07 0.00200696)
(0.0999913 0.000539835 0.00199709)
(0.0977747 0.000472311 0.00182495)
(0.0979945 6.63322e-07 0.00191501)
(0.100008 0.000546781 0.00191154)
(0.0973606 0.000459357 0.00164086)
(0.0975695 1.15901e-06 0.0017346)
(0.100006 0.0005341 0.00180434)
(0.0969921 0.000447832 0.00146703)
(0.0971795 2.04928e-06 0.00154664)
(0.0999794 0.000512306 0.00168184)
(0.0966716 0.000439751 0.00132665)
(0.0968297 3.52209e-06 0.00138665)
(0.0999367 0.000486344 0.00156954)
(0.0963916 0.000433523 0.00122861)
(0.0965301 6.00575e-06 0.00126525)
(0.0998957 0.000463455 0.00147468)
(0.0961271 0.000422641 0.00117388)
(0.0962773 1.01003e-05 0.00118945)
(0.0998625 0.000441923 0.00140606)
(0.0958505 0.000405057 0.0011508)
(0.0960068 1.68314e-05 0.00115395)
(0.0998084 0.000416351 0.00135954)
(0.0955486 0.000385865 0.00114325)
(0.0957184 2.78357e-05 0.00114028)
(0.0997377 0.000389081 0.00132365)
(0.0952133 0.000371383 0.0011423)
(0.0954114 4.60343e-05 0.00113357)
(0.0996485 0.000365427 0.00129736)
(0.094833 0.000367568 0.00114841)
(0.0950752 7.63061e-05 0.00112894)
(0.0995307 0.000349452 0.00128352)
(0.0943885 0.000383032 0.00116918)
(0.0946987 0.000126512 0.00112919)
(0.0993709 0.000345506 0.0012875)
(0.09385 0.000436486 0.00122)
(0.0942648 0.000210062 0.00114364)
(0.0991521 0.000361194 0.00131955)
(0.0931678 0.000539521 0.00132672)
(0.0937539 0.000355794 0.00118626)
(0.0988549 0.000413546 0.00139758)
(0.0922647 0.00073347 0.00150749)
(0.0931165 0.000584775 0.00127537)
(0.0984361 0.000503642 0.00155412)
(0.0910318 0.00122138 0.00186912)
(0.0922954 0.000978366 0.001417)
(0.0978553 0.000682838 0.00179782)
(0.0915737 0.00181076 0.00172941)
(0.0974757 0.00113708 0.00227205)
(0.0996724 -0.000153984 0.000629566)
(0.0994625 -0.00012934 0.000192509)
(0.0997132 -0.000103892 0.000688005)
(0.0991589 -0.000353118 0.00154455)
(0.0992625 -0.000636729 0.00137078)
(0.0998376 -0.000341517 0.00162252)
(0.0986632 -0.000457414 0.00194791)
(0.0989127 -0.000973121 0.00200394)
(0.0999629 -0.000485218 0.0019918)
(0.0982116 -0.000480271 0.00196093)
(0.0982946 -0.0010495 0.00205105)
(0.0999916 -0.000539186 0.00199705)
(0.0977755 -0.000470606 0.00182466)
(0.0976569 -0.00100653 0.00189992)
(0.100009 -0.000545619 0.00191133)
(0.0973621 -0.000456311 0.00164038)
(0.0970644 -0.000958422 0.00169826)
(0.100007 -0.000532032 0.00180388)
(0.0969947 -0.000442502 0.00146625)
(0.096506 -0.000930266 0.00152019)
(0.0999812 -0.000508721 0.00168115)
(0.0966761 -0.00043063 0.00132525)
(0.0959945 -0.000911605 0.00137713)
(0.0999399 -0.000480264 0.00156842)
(0.0963993 -0.000418135 0.00122609)
(0.0955299 -0.000893189 0.00127239)
(0.0999011 -0.000453081 0.00147279)
(0.0961404 -0.000396962 0.00116953)
(0.0950824 -0.000854833 0.00120375)
(0.0998714 -0.000424292 0.00140294)
(0.0958731 -0.000362632 0.00114342)
(0.0946395 -0.000788334 0.00116099)
(0.0998235 -0.000386893 0.00135459)
(0.0955873 -0.000316159 0.0011306)
(0.0942024 -0.000707215 0.00113289)
(0.0997627 -0.000340637 0.00131526)
(0.0952798 -0.000256755 0.00112021)
(0.0937696 -0.000618784 0.00111027)
(0.0996907 -0.000287217 0.00128226)
(0.0949476 -0.000178418 0.00110971)
(0.0933376 -0.000519479 0.00108783)
(0.0996022 -0.000223131 0.00125622)
(0.0945857 -7.01785e-05 0.00110366)
(0.0929054 -0.000399723 0.00106329)
(0.0994919 -0.000140062 0.00123872)
(0.094182 8.85411e-05 0.0011099)
(0.0924715 -0.000237853 0.0010379)
(0.0993539 -2.65588e-05 0.00123514)
(0.0937247 0.000328639 0.00113492)
(0.0920359 -1.07068e-05 0.00101449)
(0.0991828 0.000136298 0.00125149)
(0.0931936 0.000697062 0.00118488)
(0.0915887 0.000312229 0.000999385)
(0.0989635 0.000374284 0.00129542)
(0.0925929 0.00128863 0.00127729)
(0.0911118 0.000773716 0.00100102)
(0.0986848 0.000725323 0.00136871)
(0.0906303 0.00146144 0.00100097)
(0.0985231 0.00125143 0.00148815)
(0.0996493 -0.000650214 0.000931516)
(0.099473 -0.000349738 0.000307079)
(0.0997993 -0.000375102 0.000741408)
(0.0990854 -0.00127869 0.00182795)
(0.0990504 -0.00157671 0.00172061)
(0.0998409 -0.00115027 0.0018144)
(0.0984491 -0.00154034 0.00210339)
(0.0983576 -0.00213095 0.00216913)
(0.0999047 -0.00153627 0.00209046)
(0.0977075 -0.00154611 0.00198921)
(0.0971931 -0.00203547 0.00200268)
(0.0997673 -0.00163131 0.00202336)
(0.0969394 -0.0014788 0.00177621)
(0.0959052 -0.00185499 0.00175455)
(0.0995096 -0.00160879 0.00189582)
(0.0962085 -0.00142523 0.0015819)
(0.0946724 -0.00173159 0.00154256)
(0.0992003 -0.00154614 0.0017513)
(0.0955247 -0.00138963 0.00143382)
(0.0934838 -0.00165088 0.00138566)
(0.0988566 -0.00147209 0.00162455)
(0.094879 -0.00134747 0.00132409)
(0.092373 -0.00157417 0.00126302)
(0.0985151 -0.0013888 0.00151159)
(0.0942523 -0.00128283 0.00124674)
(0.0913429 -0.00147674 0.00116541)
(0.0981867 -0.00129268 0.00141156)
(0.0936392 -0.00119341 0.00119101)
(0.0903647 -0.00136337 0.00109024)
(0.0978481 -0.00118375 0.00132808)
(0.0930453 -0.00108706 0.0011473)
(0.089453 -0.00124768 0.00103448)
(0.0975238 -0.00107046 0.00126407)
(0.0924725 -0.000971705 0.00111073)
(0.0886038 -0.00113205 0.000991953)
(0.0972183 -0.000957648 0.00121349)
(0.0919211 -0.00084906 0.00107716)
(0.0878093 -0.00101596 0.000956601)
(0.0969298 -0.000845404 0.00117038)
(0.0913936 -0.000714 0.00104182)
(0.0870681 -0.00089504 0.000922798)
(0.0966592 -0.00072925 0.0011307)
(0.090895 -0.000547114 0.000999509)
(0.0863859 -0.000759191 0.000883438)
(0.0964092 -0.000600771 0.00109051)
(0.0904313 -0.000321692 0.000946431)
(0.0857802 -0.000582565 0.000827765)
(0.0961843 -0.000438715 0.00104605)
(0.0900105 -5.45772e-06 0.000884304)
(0.0852767 -0.000340836 0.000747852)
(0.0959877 -0.000225195 0.000994661)
(0.0896294 0.000452705 0.000818832)
(0.0849123 1.27789e-05 0.000615835)
(0.0958204 7.12983e-05 0.000937587)
(0.0892329 0.0011352 0.000718461)
(0.0847499 0.000605375 0.000419932)
(0.0956809 0.000489162 0.000878082)
(0.0842353 0.00169248 -6.96858e-05)
(0.0955371 0.00107946 0.000792058)
(0.0993753 -0.00118208 0.00107262)
(0.0996871 -0.000439212 0.000345495)
(0.0997475 -0.000610977 0.000779902)
(0.0984947 -0.00229601 0.00203207)
(0.0978161 -0.00273272 0.00228237)
(0.0995971 -0.0020183 0.00200301)
(0.0971411 -0.00247638 0.00204881)
(0.0954959 -0.00300165 0.00230327)
(0.0992972 -0.00246158 0.00210263)
(0.0954394 -0.00224672 0.00176756)
(0.092619 -0.00229925 0.00183894)
(0.0984883 -0.00237448 0.00190281)
(0.0937511 -0.00201994 0.00152243)
(0.0897673 -0.00189173 0.00153579)
(0.0974225 -0.00218074 0.00168881)
(0.0921395 -0.00186319 0.00134393)
(0.0872326 -0.00165609 0.0012946)
(0.0963103 -0.00198423 0.00150803)
(0.0906051 -0.00175195 0.00121293)
(0.0850084 -0.0014915 0.0010765)
(0.0952065 -0.00180054 0.00134148)
(0.0891592 -0.00165292 0.00110922)
(0.0830654 -0.00137081 0.00091129)
(0.0941524 -0.00164284 0.00120065)
(0.0878202 -0.00154615 0.00102324)
(0.0813344 -0.00127736 0.000797165)
(0.0931746 -0.00150223 0.00108939)
(0.0865911 -0.00143303 0.000954879)
(0.0797659 -0.00119171 0.000718098)
(0.0922781 -0.00137105 0.0010023)
(0.0854606 -0.00132086 0.000903762)
(0.0783328 -0.00110867 0.000664133)
(0.0914645 -0.00125053 0.000936716)
(0.0844174 -0.00121209 0.00086455)
(0.0770171 -0.00102711 0.000625604)
(0.0907277 -0.00114142 0.000886973)
(0.0834557 -0.00110303 0.000830481)
(0.0758074 -0.000947365 0.000594132)
(0.0900609 -0.00104073 0.000845701)
(0.0825788 -0.000985877 0.000794076)
(0.0746967 -0.00086867 0.000566918)
(0.0894625 -0.000943148 0.00080605)
(0.0818031 -0.000848969 0.000744336)
(0.0736882 -0.000789241 0.00053547)
(0.0889378 -0.000840509 0.000759977)
(0.0811677 -0.000676093 0.000668779)
(0.0728094 -0.000699761 0.000481824)
(0.0885035 -0.000720559 0.000693714)
(0.0807225 -0.000421521 0.000530337)
(0.0721118 -0.000568186 0.00039355)
(0.0881843 -0.000566967 0.000589425)
(0.0805389 3.84505e-05 0.000285317)
(0.0717386 -0.000330906 0.000172886)
(0.0880065 -0.000324493 0.00039197)
(0.0807242 0.00106341 -0.000283701)
(0.0719786 0.000160616 -0.000204759)
(0.088025 0.000121005 6.86024e-05)
(0.0705688 0.00167091 -0.00121691)
(0.08775 0.00112 -0.000685204)
(0.0984572 -0.00247644 0.00172994)
(0.0973536 -0.00106247 -0.00148427)
(0.100049 -0.00105639 0.000750975)
(0.0958348 -0.00314808 0.00243278)
(0.0930872 -0.00326901 0.00253348)
(0.0982936 -0.00280927 0.00216152)
(0.0914498 -0.00223037 0.00186944)
(0.0848639 -0.00163591 0.00179238)
(0.0963039 -0.00244282 0.00199793)
(0.087595 -0.00167468 0.00150558)
(0.0786279 -0.00107364 0.00122139)
(0.0936667 -0.00198091 0.00172705)
(0.0841477 -0.00144012 0.00127566)
(0.0740529 -0.000785625 0.000865103)
(0.0909046 -0.00171995 0.00149784)
(0.0811885 -0.00126555 0.00102841)
(0.0704426 -0.000650882 0.000669087)
(0.0884346 -0.00145478 0.00121155)
(0.0787036 -0.0011106 0.000792828)
(0.0674926 -0.000547679 0.000508004)
(0.0863059 -0.00118384 0.000908041)
(0.0765624 -0.000993049 0.000622522)
(0.0650536 -0.000470614 0.00038622)
(0.0844836 -0.000983708 0.000689372)
(0.0746629 -0.000906825 0.000513189)
(0.0629724 -0.00041827 0.000305419)
(0.0828868 -0.000846572 0.000545977)
(0.0729458 -0.000835442 0.000444122)
(0.0611448 -0.00037771 0.000250677)
(0.0814603 -0.000747136 0.000451084)
(0.0713759 -0.000769371 0.000398711)
(0.0595113 -0.000343741 0.00021216)
(0.080173 -0.000669647 0.000385222)
(0.0699357 -0.000707022 0.000365382)
(0.0580407 -0.000315237 0.000182854)
(0.079003 -0.000604507 0.000334725)
(0.0686149 -0.000652072 0.000339913)
(0.0567101 -0.000294308 0.000157574)
(0.0779354 -0.000552389 0.00029353)
(0.0674063 -0.0006066 0.000317395)
(0.0555023 -0.000282266 0.000134377)
(0.0769638 -0.000513565 0.000260685)
(0.0663175 -0.000564783 0.000280751)
(0.0544145 -0.000278416 0.000109529)
(0.0760916 -0.000487194 0.000223605)
(0.0653913 -0.000504928 0.000213609)
(0.0534639 -0.000282934 7.62769e-05)
(0.0753372 -0.000467829 0.000161193)
(0.0647221 -0.000405442 5.72334e-05)
(0.0526962 -0.000299543 9.67173e-06)
(0.0747306 -0.000435281 5.57258e-05)
(0.0646141 -0.000259736 -0.000230305)
(0.0522836 -0.000335561 -0.000147976)
(0.0743793 -0.00034343 -0.000211612)
(0.0657405 6.45198e-05 -0.000769568)
(0.0526971 -0.000340389 -0.000385275)
(0.0744821 -6.12429e-05 -0.000848805)
(0.051287 0.000952799 -0.00223767)
(0.0732692 0.00113969 -0.00305341)
(0.0993441 0.00341899 -0.00341903)
(0.0973536 0.00148425 0.00106247)
(0.0834792 -0.00197592 0.00197581)
(0.0930872 -0.00253356 0.00326891)
(0.074517 -0.00195887 0.00195863)
(0.0848639 -0.00179254 0.00163573)
(0.0685475 -0.00115942 0.00115893)
(0.0786278 -0.00122172 0.00107329)
(0.0642357 -0.000697477 0.000696614)
(0.0740527 -0.000865682 0.000784871)
(0.0607569 -0.000495788 0.000494029)
(0.0704422 -0.000670091 0.000649638)
(0.0579383 -0.000376749 0.000373376)
(0.067492 -0.000510048 0.0005451)
(0.0556166 -0.000291136 0.000285399)
(0.0650525 -0.00038971 0.000466034)
(0.0536306 -0.000231881 0.000222423)
(0.0629703 -0.000311199 0.000410459)
(0.0518923 -0.000190647 0.000175166)
(0.0611411 -0.000260181 0.000364504)
(0.0503511 -0.000162837 0.000137353)
(0.0595048 -0.000228144 0.000321695)
(0.048976 -0.000145481 0.000103709)
(0.0580293 -0.000209857 0.000278553)
(0.0477428 -0.000136834 6.98632e-05)
(0.0566899 -0.000201546 0.000234137)
(0.0466366 -0.000135867 3.42698e-05)
(0.0554678 -0.000199809 0.000184781)
(0.0456586 -0.000144912 -1.0634e-06)
(0.0543576 -0.000203937 0.000123935)
(0.0448259 -0.000167092 -6.0176e-05)
(0.0533667 -0.000217616 4.39316e-05)
(0.0442019 -0.000200631 -0.000187581)
(0.0525248 -0.000250962 -7.82072e-05)
(0.0440526 -0.000204381 -0.000399387)
(0.0519647 -0.000274598 -0.000320134)
(0.0450222 0.000778605 -0.00185511)
(0.0520619 -0.000177853 -0.000799698)
(0.0510312 0.00166695 -0.00373793)
(0.0984572 0.00172994 0.00247645)
(0.100049 0.000750973 0.00105639)
(0.0996871 0.000345494 0.000439215)
(0.0958348 0.00243277 0.00314809)
(0.0982936 0.00216152 0.00280928)
(0.0978161 0.00228237 0.00273272)
(0.0914498 0.00186943 0.00223039)
(0.0963039 0.00199792 0.00244283)
(0.0954959 0.00230326 0.00300167)
(0.087595 0.00150557 0.00167471)
(0.0936667 0.00172705 0.00198093)
(0.092619 0.00183893 0.00229927)
(0.0841477 0.00127565 0.00144016)
(0.0909045 0.00149783 0.00171998)
(0.0897673 0.00153577 0.00189175)
(0.0811885 0.00102838 0.00126559)
(0.0884346 0.00121154 0.00145481)
(0.0872326 0.00129458 0.00165612)
(0.0787036 0.000792802 0.00111066)
(0.0863059 0.000908026 0.00118388)
(0.0850084 0.00107647 0.00149153)
(0.0765623 0.000622495 0.000993125)
(0.0844836 0.000689357 0.000983765)
(0.0830654 0.000911256 0.00137085)
(0.0746629 0.000513158 0.000906918)
(0.0828868 0.000545959 0.000846643)
(0.0813344 0.000797127 0.00127742)
(0.0729457 0.000444085 0.00083555)
(0.0814602 0.000451065 0.000747221)
(0.0797658 0.000718054 0.00119178)
(0.0713758 0.000398668 0.000769498)
(0.0801729 0.000385204 0.00066975)
(0.0783327 0.000664083 0.00110876)
(0.0699355 0.00036533 0.00070717)
(0.0790029 0.00033472 0.000604644)
(0.077017 0.000625545 0.0010272)
(0.0686146 0.000339849 0.000652241)
(0.0779352 0.00029354 0.000552561)
(0.0758072 0.000594062 0.00094748)
(0.0674059 0.000317312 0.000606801)
(0.0769635 0.000260675 0.000513744)
(0.0746964 0.000566841 0.000868818)
(0.0663169 0.000280666 0.00056505)
(0.0760911 0.000223546 0.000487376)
(0.0736877 0.0005354 0.000789473)
(0.0653904 0.00021354 0.000505288)
(0.0753364 0.000161125 0.000468056)
(0.0728087 0.000481792 0.00070011)
(0.0647209 5.71862e-05 0.000405887)
(0.0747296 5.56607e-05 0.000435582)
(0.0721108 0.00039354 0.000568651)
(0.0646124 -0.000230346 0.000260279)
(0.0743779 -0.000211628 0.000343801)
(0.0717371 0.000172916 0.00033153)
(0.0657379 -0.000769408 -6.37756e-05)
(0.07448 -0.000848863 6.16801e-05)
(0.0719765 -0.000204673 -0.000159698)
(0.0732664 -0.00305323 -0.00113902)
(0.0705664 -0.00121652 -0.00166967)
(0.10008 0.00135178 0.00135187)
(0.100186 0.000798746 0.000805001)
(0.100186 0.000804963 0.000798783)
(0.100264 0.00221733 0.00221758)
(0.100189 0.00231185 0.00207173)
(0.10019 0.00207156 0.002312)
(0.0993828 0.00243573 0.00243622)
(0.100306 0.00263372 0.00245363)
(0.100306 0.00245321 0.00263402)
(0.0979839 0.00231006 0.00231086)
(0.0998048 0.00256027 0.0024567)
(0.099805 0.00245599 0.00256083)
(0.0964948 0.00200569 0.00200705)
(0.0988624 0.00236407 0.00228189)
(0.0988628 0.00228082 0.00236496)
(0.0950728 0.00159583 0.00159814)
(0.0978404 0.00204807 0.00196918)
(0.0978411 0.00196751 0.00204965)
(0.0937765 0.0012241 0.00122795)
(0.0968611 0.00168923 0.0016058)
(0.0968623 0.00160313 0.00169184)
(0.0926206 0.000958244 0.000964816)
(0.0959597 0.00140104 0.00132292)
(0.0959618 0.00131835 0.00140534)
(0.091599 0.000771486 0.000782748)
(0.0951492 0.00118579 0.00112051)
(0.0951528 0.0011127 0.00119326)
(0.090697 0.000635703 0.000655322)
(0.0944275 0.00102218 0.000974903)
(0.0944337 0.0009617 0.00103497)
(0.0898972 0.000531121 0.000564528)
(0.0937912 0.000893196 0.000870019)
(0.0938017 0.000847218 0.000914742)
(0.0891824 0.000446312 0.000500717)
(0.0932284 0.000785851 0.000794673)
(0.093246 0.000756638 0.000821239)
(0.0885426 0.000374531 0.000458553)
(0.0927272 0.000691317 0.000742869)
(0.0927556 0.000680933 0.000747889)
(0.0879803 0.000304285 0.000433756)
(0.0922853 0.000599983 0.000708745)
(0.0923297 0.000611604 0.000688224)
(0.0875026 0.000217743 0.000426033)
(0.091905 0.000498193 0.000691376)
(0.0919739 0.000535747 0.000637651)
(0.087113 9.64747e-05 0.000435775)
(0.0915878 0.000369588 0.000694614)
(0.0916936 0.000437742 0.00059247)
(0.0868159 -0.000125279 0.000421456)
(0.0913298 0.000196194 0.000721644)
(0.0914874 0.000298652 0.000545923)
(0.0865766 -0.000575839 0.000271323)
(0.0911134 -9.02753e-05 0.000729573)
(0.0913377 3.61664e-05 0.000440832)
(0.0860832 -0.00155456 -0.000335061)
(0.0908936 -0.000517594 0.000655462)
(0.0911878 -0.00043334 0.000211845)
(0.0908813 -0.00116226 0.000287345)
(0.0911596 -0.00133469 -0.000288425)
(0.100171 0.00136869 0.00141663)
(0.100118 0.000577401 0.000811388)
(0.100102 0.000699779 0.000700782)
(0.100758 0.00219494 0.00214957)
(0.100478 0.00158287 0.00185906)
(0.100477 0.00182261 0.00186498)
(0.100996 0.00247692 0.00238872)
(0.101004 0.00205877 0.00224311)
(0.101024 0.00234688 0.00238355)
(0.100837 0.002476 0.00239009)
(0.101292 0.00220345 0.00235299)
(0.101337 0.00250597 0.00254454)
(0.100457 0.00231082 0.00222579)
(0.101308 0.00216713 0.00232309)
(0.101409 0.00245025 0.00247328)
(0.0999665 0.00205491 0.00196891)
(0.101155 0.00200999 0.00217929)
(0.101301 0.00226364 0.00227137)
(0.0994419 0.00178744 0.00170019)
(0.100925 0.00179188 0.00196822)
(0.101098 0.00200689 0.00199939)
(0.0989315 0.00155814 0.00148296)
(0.100663 0.00158028 0.00176421)
(0.100854 0.00176593 0.00175804)
(0.0984615 0.00136948 0.00131936)
(0.100405 0.00139037 0.00158671)
(0.100606 0.00156156 0.00156325)
(0.0980427 0.00121102 0.00119662)
(0.100167 0.00122132 0.00143906)
(0.100377 0.00138924 0.0014079)
(0.097675 0.00107496 0.00110665)
(0.0999569 0.00107572 0.00132891)
(0.100179 0.00124249 0.00128485)
(0.0973546 0.000953867 0.00104291)
(0.0997735 0.000949236 0.00124943)
(0.100014 0.0011145 0.0011886)
(0.0970781 0.000838604 0.00099962)
(0.0996137 0.000834117 0.00119334)
(0.0998815 0.000998475 0.00111399)
(0.0968414 0.00071825 0.000974673)
(0.0994751 0.00072285 0.00115718)
(0.0997812 0.000885144 0.0010569)
(0.0966394 0.000581084 0.000971566)
(0.099352 0.000605869 0.0011429)
(0.0997104 0.00076472 0.00101618)
(0.0964676 0.000410737 0.000997236)
(0.099237 0.000470967 0.00115894)
(0.0996666 0.000625562 0.000994004)
(0.0963252 0.000180357 0.001054)
(0.0991236 0.0003037 0.00121769)
(0.0996471 0.000451183 0.000991097)
(0.0961961 -0.000140396 0.00113522)
(0.098997 7.7106e-05 0.0013306)
(0.0996369 0.000213804 0.000995087)
(0.0960335 -0.000541005 0.00125038)
(0.0988598 -0.000219084 0.00149813)
(0.0996306 -0.000103811 0.000989039)
(0.0989856 -0.000542637 0.00172537)
(0.0998101 -0.000444823 0.00101298)
(0.100242 0.000820177 0.0012563)
(0.10009 0.000294356 0.000735448)
(0.100071 0.000415697 0.00060289)
(0.100828 0.00139057 0.0019397)
(0.100491 0.00079204 0.0016843)
(0.100492 0.00112447 0.00158731)
(0.101392 0.00166352 0.00218293)
(0.101085 0.00107782 0.00208386)
(0.101128 0.00154092 0.00209463)
(0.101815 0.00176112 0.00226204)
(0.101663 0.00120451 0.00217973)
(0.101767 0.00173283 0.00229499)
(0.102079 0.00175497 0.00226248)
(0.10212 0.0012399 0.00222278)
(0.102291 0.00178986 0.00236789)
(0.102213 0.001667 0.00217617)
(0.10245 0.00120194 0.00221016)
(0.102711 0.00174334 0.00232181)
(0.102263 0.0015313 0.00203922)
(0.102678 0.00111797 0.00212464)
(0.103035 0.0016248 0.00220066)
(0.102273 0.00137838 0.00188034)
(0.102838 0.00101644 0.002001)
(0.103284 0.00147676 0.0020458)
(0.102269 0.00122502 0.00172177)
(0.102962 0.000915744 0.00186138)
(0.103489 0.00132356 0.0018832)
(0.10226 0.00108402 0.00158886)
(0.103062 0.000821764 0.00172932)
(0.103662 0.00117881 0.00173409)
(0.102251 0.000960966 0.00149111)
(0.103151 0.000736838 0.00162041)
(0.103817 0.00105037 0.00161382)
(0.102242 0.000850892 0.00142079)
(0.103235 0.00066123 0.00153213)
(0.103961 0.000937713 0.00151864)
(0.102233 0.000747595 0.00137294)
(0.103312 0.000591904 0.00146663)
(0.104096 0.000834031 0.00144456)
(0.102217 0.000646929 0.00134862)
(0.103378 0.000528095 0.00142574)
(0.104224 0.000735537 0.00139077)
(0.102189 0.000542191 0.00135545)
(0.103426 0.000469138 0.00141193)
(0.104341 0.000637796 0.00136052)
(0.102136 0.000426241 0.00140817)
(0.103447 0.000413435 0.00143265)
(0.104444 0.000534848 0.00136116)
(0.102049 0.000289944 0.00153002)
(0.103431 0.000361192 0.00150152)
(0.104526 0.000420903 0.00140366)
(0.101926 0.000126068 0.00174044)
(0.10337 0.000308957 0.00164537)
(0.104583 0.000286791 0.00150216)
(0.101767 -1.7206e-05 0.00203961)
(0.103273 0.000258929 0.00186959)
(0.104628 0.000132514 0.00165512)
(0.10346 0.000270871 0.00215139)
(0.104873 2.36301e-05 0.00185046)
(0.100243 0.000267493 0.00116262)
(0.100087 3.47825e-08 0.000707122)
(0.100064 0.000135855 0.000537459)
(0.100782 0.000465902 0.00182662)
(0.100477 1.00766e-07 0.00161811)
(0.100463 0.000371017 0.00142448)
(0.101401 0.000575807 0.00207669)
(0.101065 1.72435e-07 0.00203512)
(0.101089 0.000525384 0.00193408)
(0.101987 0.000623421 0.0021347)
(0.101694 3.17202e-07 0.00211821)
(0.101797 0.000606233 0.00212921)
(0.102506 0.000631969 0.00216572)
(0.102269 5.91512e-07 0.00215099)
(0.102489 0.000639881 0.0022117)
(0.102933 0.000611482 0.00215652)
(0.102741 1.03987e-06 0.00217997)
(0.103119 0.000635014 0.00224168)
(0.103275 0.000572853 0.00208646)
(0.103123 1.72619e-06 0.00213223)
(0.103686 0.000602064 0.00219514)
(0.103551 0.000527817 0.00198341)
(0.103426 2.83787e-06 0.00203936)
(0.104183 0.000556577 0.0021017)
(0.103782 0.000484941 0.00187091)
(0.103678 4.79928e-06 0.00192542)