/*--------------------------------*- C++ -*----------------------------------*\
| =========                 |                                                 |
| \\      /  F ield         | OpenFOAM: The Open Source CFD Toolbox           |
|  \\    /   O peration     | Version:  2212                                  |
|   \\  /    A nd           | Website:  www.openfoam.com                      |
|    \\/     M anipulation  |                                                 |
\*---------------------------------------------------------------------------*/
FoamFile
{
    version     2.0;
    format      ascii;
    arch        "LSB;label=32;scalar=64";
    class       volScalarField;
    location    "1.1";
    object      k;
}
// * * * * * * * * * * * * * * * * * * * * * * * * * * * * * * * * * * * * * //

dimensions      [0 2 -2 0 0 0 0];

internalField   nonuniform List<scalar> 
690
(
0.00413611
0.00384912
0.00358936
0.00732229
0.00662502
0.00602175
0.00969888
0.00878803
0.00800368
0.00425921
0.00390643
0.00362141
0.003383
0.00318024
0.00300463
0.00285101
0.00271563
0.00259413
0.00248373
0.00238335
0.00229188
0.00745182
0.00677997
0.00618678
0.00566581
0.00520834
0.00480534
0.00445059
0.00414024
0.00386494
0.00361607
0.00339097
0.00318698
0.00993411
0.00903326
0.00824193
0.00754609
0.00693231
0.00638936
0.00590749
0.00547875
0.00509651
0.00475432
0.00444643
0.00416835
0.00432264
0.00387562
0.00356913
0.00332979
0.00313192
0.00296355
0.00281847
0.00269123
0.00257694
0.00247341
0.0023792
0.00229323
0.00737532
0.00667401
0.00607263
0.00555273
0.00510045
0.00470386
0.00435773
0.00405424
0.00378201
0.00353649
0.00331493
0.00311475
0.00964229
0.00878441
0.00802239
0.00734842
0.00675262
0.00622506
0.00575668
0.00534003
0.00496829
0.00463495
0.00433469
0.00406319
0.0114626
0.0104051
0.00948725
0.00868422
0.00797744
0.00735238
0.00679729
0.0063025
0.00585998
0.00546283
0.00510513
0.00478197
0.0125046
0.0113778
0.0103872
0.00951453
0.00874339
0.00805966
0.00745137
0.00690835
0.00642202
0.00598508
0.0055913
0.00523546
0.0129296
0.0117428
0.0107106
0.0098062
0.00900922
0.00830357
0.00767613
0.00711612
0.00661454
0.00616383
0.00575759
0.00539045
0.0125045
0.0113776
0.010387
0.00951439
0.00874327
0.00805956
0.00745126
0.00690824
0.0064219
0.00598496
0.00559118
0.00523538
0.0113754
0.0103588
0.009461
0.00866793
0.00796632
0.00734416
0.00679094
0.00629758
0.00585628
0.00546023
0.00510364
0.00478172
0.00969952
0.00878778
0.00800313
0.00732053
0.00672261
0.00619622
0.00573078
0.00531798
0.00495056
0.00462171
0.00432596
0.00732066
0.00662289
0.00601999
0.00550009
0.00505057
0.00465968
0.00432093
0.00402556
0.00376184
0.00352442
0.00330981
0.00413915
0.00385023
0.00359068
0.00336067
0.00315718
0.00297687
0.00281723
0.00267592
0.00254977
0.00243683
0.00233528
0.00418768
0.00368904
0.00340417
0.00319178
0.0030151
0.00286474
0.00273318
0.00261684
0.00251291
0.00241929
0.00233443
0.00225713
0.00675937
0.00615631
0.00561344
0.00513877
0.00472829
0.00437187
0.00405595
0.0037749
0.00352352
0.00329772
0.00309476
0.002912
0.00897869
0.00811478
0.00738026
0.00674669
0.00619538
0.00571259
0.00528714
0.00490964
0.00457269
0.00427035
0.00399735
0.00375019
0.0103922
0.00946294
0.00864134
0.00791608
0.00727548
0.0067086
0.00620567
0.00575794
0.00535778
0.00499874
0.0046753
0.00438294
0.0113762
0.0103589
0.00946092
0.00866788
0.00796634
0.00734423
0.00679105
0.00629772
0.00585643
0.00546038
0.00510375
0.00478164
0.0118157
0.0107187
0.00976918
0.00893999
0.00821099
0.00756659
0.00699439
0.00648429
0.00602801
0.00561854
0.00524983
0.00491685
0.0114638
0.010406
0.00948785
0.00868452
0.00797752
0.00735231
0.00679711
0.00630226
0.0058597
0.00546252
0.00510482
0.00478169
0.0103922
0.00946234
0.00864064
0.00791542
0.00727485
0.00670797
0.00620505
0.00575732
0.00535719
0.00499818
0.0046748
0.00438254
0.00869792
0.00793817
0.00725685
0.00665297
0.00612024
0.00565059
0.00523579
0.00486767
0.00453897
0.00424379
0.00397749
0.00668723
0.00600817
0.00544972
0.00498406
0.00459007
0.00425469
0.00396237
0.00370209
0.00346868
0.00325829
0.0030672
0.00421761
0.0038391
0.00352983
0.00327248
0.003054
0.00286766
0.0027059
0.00256704
0.00244705
0.00234259
0.00224946
0.00367014
0.00341082
0.00319066
0.00301571
0.00285834
0.00272094
0.00260384
0.00250399
0.0024161
0.00233735
0.00226665
0.00220308
0.00601662
0.00533175
0.00480692
0.00439976
0.00405916
0.00376482
0.00350533
0.0032748
0.00306766
0.00288094
0.00271072
0.00256076
0.00748233
0.00680123
0.00619639
0.00567279
0.00522175
0.0048297
0.00448483
0.00417843
0.00390348
0.00365509
0.00342918
0.00322402
0.00869802
0.00793848
0.00725755
0.00665395
0.00612141
0.00565186
0.00523707
0.00486889
0.0045401
0.00424484
0.00397835
0.00373696
0.00969955
0.00878813
0.00800335
0.00732063
0.00672266
0.00619628
0.00573088
0.00531811
0.0049507
0.00462186
0.00432604
0.00405885
0.00993507
0.00903398
0.00824236
0.00754602
0.006932
0.00638893
0.005907
0.00547824
0.005096
0.00475384
0.00444599
0.00416795
0.00964273
0.00878526
0.00802307
0.00734879
0.00675272
0.00622497
0.00575647
0.00533976
0.004968
0.00463467
0.00433445
0.00406298
0.00897911
0.00811443
0.00737978
0.00674617
0.0061948
0.00571196
0.00528649
0.004909
0.00457209
0.00426978
0.0039969
0.0037496
0.00748212
0.00679941
0.00619401
0.00567037
0.00521949
0.00482765
0.00448299
0.00417684
0.00390212
0.00365382
0.00342854
0.00547853
0.00493518
0.00450405
0.00415726
0.00386559
0.00361021
0.00338188
0.00317617
0.00298814
0.00281434
0.00265333
0.00424188
0.00376425
0.00338715
0.00309396
0.00285072
0.00267393
0.00253676
0.00242184
0.00232267
0.00223583
0.00215823
0.00363327
0.00327312
0.00298727
0.00279277
0.00265361
0.00254693
0.00246049
0.00238335
0.00231461
0.00225388
0.00219767
0.00214797
0.00410094
0.003742
0.0034047
0.00317059
0.00297991
0.00280373
0.00264624
0.00249368
0.00235678
0.00223499
0.00211422
0.00201253
0.00547897
0.0049363
0.00450576
0.00415979
0.00386844
0.00361315
0.00338446
0.0031783
0.00298997
0.00281597
0.00265435
0.00250542
0.00668738
0.00600899
0.00545072
0.00498536
0.0045917
0.00425646
0.00396404
0.00370359
0.00347002
0.00325947
0.00306864
0.00289453
0.00732117
0.00662258
0.00601932
0.00549933
0.0050499
0.00465917
0.00432057
0.00402529
0.00376167
0.00352429
0.00331025
0.00311622
0.00745161
0.00677998
0.00618644
0.00566488
0.00520694
0.0048037
0.00444888
0.0041386
0.00386347
0.00361479
0.0033899
0.00318608
0.00737546
0.00667427
0.00607267
0.00555251
0.00509997
0.0047032
0.00435697
0.00405347
0.00378129
0.00353586
0.00331442
0.00311429
0.00675949
0.00615625
0.0056135
0.00513886
0.00472826
0.00437173
0.00405573
0.00377464
0.00352325
0.00329743
0.00309464
0.00291152
0.00601641
0.00533082
0.00480622
0.00439936
0.00405899
0.00376473
0.00350525
0.0032747
0.00306762
0.00288045
0.00271206
0.00410053
0.00374315
0.00340626
0.00317136
0.00298009
0.00280357
0.00264601
0.00249341
0.00235662
0.00223434
0.00211477
0.00413636
0.00366653
0.00323983
0.0029263
0.00270175
0.00254631
0.00243357
0.0023404
0.00226264
0.00219544
0.0021342
0.00454717
0.00392639
0.00338857
0.00308072
0.00289535
0.00277846
0.00269193
0.00261789
0.00255487
0.00250092
0.00245229
0.00240768
0.00413632
0.00366444
0.0032376
0.00292475
0.00270096
0.00254597
0.00243346
0.00234042
0.00226266
0.00219566
0.0021342
0.00208347
0.00424177
0.00376291
0.00338593
0.00309304
0.00285098
0.00267453
0.00253733
0.00242234
0.00232313
0.00223627
0.0021586
0.00209
0.0042176
0.00383896
0.00352985
0.00327271
0.00305446
0.00286823
0.0027065
0.00256759
0.00244753
0.00234304
0.00224993
0.0021664
0.00413823
0.00385088
0.00359132
0.00336114
0.00315756
0.00297721
0.00281754
0.00267622
0.00255008
0.00243713
0.00233572
0.00224443
0.0042596
0.00390692
0.00362171
0.00338366
0.00318082
0.00300503
0.00285123
0.00271572
0.00259416
0.00248373
0.00238333
0.00229187
0.00432268
0.00387519
0.00356871
0.0033295
0.00313171
0.00296336
0.00281827
0.00269103
0.00257675
0.00247324
0.00237906
0.00229313
0.00418724
0.00368883
0.00340404
0.00319173
0.0030151
0.00286477
0.00273322
0.00261687
0.00251293
0.0024193
0.00233444
0.00225718
0.0036703
0.00341205
0.00319196
0.00301676
0.00285911
0.00272152
0.00260431
0.00250436
0.00241637
0.00233756
0.0022669
0.00363371
0.00327397
0.00298817
0.00279358
0.00265419
0.00254738
0.00246076
0.00238348
0.00231474
0.00225383
0.00219773
0.00454767
0.00392683
0.0033893
0.00308135
0.00289581
0.00277872
0.00269201
0.00261788
0.00255484
0.00250075
0.0024523
)
;

boundaryField
{
    inlet
    {
        type            fixedValue;
        value           nonuniform List<scalar> 0();
    }
    ami1
    {
        type            cyclicAMI;
        value           nonuniform List<scalar> 0();
    }
    walls
    {
        type            kqRWallFunction;
        value           nonuniform List<scalar> 
259
(
0.00413915
0.00421761
0.00424188
0.00413636
0.00454767
0.00385023
0.0038391
0.00376425
0.00366653
0.00392683
0.00359068
0.00352983
0.00338715
0.00323983
0.0033893
0.00336067
0.00327248
0.00309396
0.0029263
0.00308135
0.00315718
0.003054
0.00285072
0.00270175
0.00289581
0.00297687
0.00286766
0.00267393
0.00254631
0.00277872
0.00281723
0.0027059
0.00253676
0.00243357
0.00269201
0.00267592
0.00256704
0.00242184
0.0023404
0.00261788
0.00254977
0.00244705
0.00232267
0.00226264
0.00255484
0.00243683
0.00234259
0.00223583
0.00219544
0.00250075
0.00233528
0.00224946
0.00215823
0.0021342
0.0024523
0.00454717
0.00413632
0.00424177
0.0042176
0.00413823
0.0042596
0.00432268
0.00418724
0.0036703
0.00363371
0.00454767
0.00392639
0.00366444
0.00376291
0.00383896
0.00385088
0.00390692
0.00387519
0.00368883
0.00341205
0.00327397
0.00392683
0.00338857
0.0032376
0.00338593
0.00352985
0.00359132
0.00362171
0.00356871
0.00340404
0.00319196
0.00298817
0.0033893
0.00308072
0.00292475
0.00309304
0.00327271
0.00336114
0.00338366
0.0033295
0.00319173
0.00301676
0.00279358
0.00308135
0.00289535
0.00270096
0.00285098
0.00305446
0.00315756
0.00318082
0.00313171
0.0030151
0.00285911
0.00265419
0.00289581
0.00277846
0.00254597
0.00267453
0.00286823
0.00297721
0.00300503
0.00296336
0.00286477
0.00272152
0.00254738
0.00277872
0.00269193
0.00243346
0.00253733
0.0027065
0.00281754
0.00285123
0.00281827
0.00273322
0.00260431
0.00246076
0.00269201
0.00261789
0.00234042
0.00242234
0.00256759
0.00267622
0.00271572
0.00269103
0.00261687
0.00250436
0.00238348
0.00261788
0.00255487
0.00226266
0.00232313
0.00244753
0.00255008
0.00259416
0.00257675
0.00251293
0.00241637
0.00231474
0.00255484
0.00250092
0.00219566
0.00223627
0.00234304
0.00243713
0.00248373
0.00247324
0.0024193
0.00233756
0.00225383
0.00250075
0.00245229
0.0021342
0.0021586
0.00224993
0.00233572
0.00238333
0.00237906
0.00233444
0.0022669
0.00219773
0.0024523
0.00240768
0.00208347
0.00209
0.0021664
0.00224443
0.00229187
0.00229313
0.00225718
0.00413611
0.00425921
0.00432264
0.00418768
0.00367014
0.00363327
0.00454717
0.00384912
0.00390643
0.00387562
0.00368904
0.00341082
0.00327312
0.00392639
0.00358936
0.00362141
0.00356913
0.00340417
0.00319066
0.00298727
0.00338857
0.003383
0.00332979
0.00319178
0.00301571
0.00279277
0.00308072
0.00318024
0.00313192
0.0030151
0.00285834
0.00265361
0.00289535
0.00300463
0.00296355
0.00286474
0.00272094
0.00254693
0.00277846
0.00285101
0.00281847
0.00273318
0.00260384
0.00246049
0.00269193
0.00271563
0.00269123
0.00261684
0.00250399
0.00238335
0.00261789
0.00259413
0.00257694
0.00251291
0.0024161
0.00231461
0.00255487
0.00248373
0.00247341
0.00241929
0.00233735
0.00225388
0.00250092
0.00238335
0.0023792
0.00233443
0.00226665
0.00219767
0.00245229
0.00229188
0.00229323
0.00225713
0.00220308
0.00214797
0.00240768
)
;
    }
    ami2
    {
        type            cyclicAMI;
        value           nonuniform List<scalar> 
61
(
0.00428511
0.00772015
0.0102384
0.00447835
0.00782691
0.0104458
0.00459232
0.00778126
0.0101181
0.0120798
0.013145
0.0136181
0.013145
0.0119504
0.0102387
0.00771935
0.00428671
0.00449319
0.00705712
0.00950186
0.0109128
0.0119509
0.0124579
0.0120804
0.0109128
0.00911482
0.00705598
0.00442458
0.00378948
0.00639138
0.00784052
0.00911491
0.0102388
0.0104463
0.0101184
0.00950214
0.00784043
0.00574273
0.00446274
0.00381355
0.00425589
0.00574297
0.00705609
0.00771966
0.00782691
0.00778143
0.00705725
0.00639131
0.00425564
0.00434735
0.00441805
0.00434737
0.00446267
0.00442453
0.00428622
0.0044786
0.00459239
0.00449302
0.00378957
0.00381376
0.00441826
)
;
    }
    outlet
    {
        type            zeroGradient;
    }
    procBoundary1to0
    {
        type            processor;
        value           nonuniform List<scalar> 
138
(
0.00335631
0.00335631
0.00315557
0.00297669
0.00281768
0.00267654
0.00255039
0.0024374
0.00233593
0.00224456
0.00550193
0.00550193
0.00505249
0.00466149
0.00432254
0.00402686
0.00376285
0.00352516
0.00331088
0.00311669
0.0113768
0.0103592
0.00732231
0.00946108
0.00732231
0.00672374
0.006197
0.00573138
0.00531846
0.00495093
0.00462201
0.00432612
0.00405891
0.0118156
0.0107187
0.00976916
0.00894001
0.00821107
0.00756674
0.00699458
0.00648453
0.00602829
0.00561883
0.00525013
0.00491714
0.0118156
0.0107187
0.00976916
0.00894001
0.00821107
0.00756674
0.00699458
0.00648453
0.00602829
0.00561883
0.00525013
0.00491714
0.012929
0.0117427
0.0107106
0.00980626
0.00900928
0.00830361
0.00767618
0.00711617
0.00661459
0.00616388
0.00575763
0.00539048
0.0132536
0.0120703
0.0110239
0.0100996
0.00928175
0.00855605
0.00791007
0.00733312
0.00681613
0.00635139
0.00593237
0.00555359
0.0129289
0.0117423
0.0107102
0.00980593
0.00900904
0.00830344
0.00767604
0.00711605
0.00661448
0.00616378
0.00575754
0.00539043
0.0118157
0.0107188
0.00976924
0.00894006
0.00821106
0.00756667
0.00699447
0.00648438
0.00602811
0.00561865
0.00524997
0.00491714
0.00993601
0.00903533
0.00824358
0.00754704
0.00693286
0.00638967
0.00590765
0.00547883
0.00509653
0.00475432
0.00444649
0.00745099
0.00677937
0.0061866
0.00566567
0.00520809
0.00480499
0.00445019
0.00413983
0.00386456
0.00361576
0.00339032
0.00425875
0.00390578
0.00362079
0.00338289
0.00318016
0.00300447
0.00285077
0.00271533
0.00259381
0.0024834
0.00238291
)
;
    }
    procBoundary1to2
    {
        type            processor;
        value           nonuniform List<scalar> 9(0.00421724 0.00383935 0.00353016 0.00668746 0.00600959 0.0054512 0.00870036 0.00793988 0.00725821);
    }
    procBoundary1to8
    {
        type            processor;
        value           nonuniform List<scalar> 
33
(
0.00220798
0.00300358
0.00391672
0.00221447
0.00293443
0.00381713
0.00448906
0.00491293
0.00505774
0.00218639
0.00274582
0.00352491
0.0041176
0.00448991
0.0046154
0.00214607
0.0024148
0.00303418
0.00351723
0.00381716
0.00391665
0.00209951
0.00190038
0.00236359
0.00273603
0.00294211
0.00300353
0.00236281
0.00202946
0.00202756
0.00209089
0.00216181
0.00220801
)
;
    }
    procBoundary1to9
    {
        type            processor;
        value           nonuniform List<scalar> 
30
(
0.00491295
0.00448984
0.00405937
0.00405937
0.00311759
0.0022435
0.00448899
0.00411729
0.00373625
0.00373625
0.00289436
0.00216572
0.00381716
0.0035246
0.00322177
0.00322177
0.00250266
0.00208944
0.00293455
0.00274577
0.00255671
0.00255671
0.00201045
0.00208332
0.00221447
0.00218641
0.00220328
0.00220328
0.00214816
0.00240769
)
;
    }
}


// ************************************************************************* //
