/*--------------------------------*- C++ -*----------------------------------*\
| =========                 |                                                 |
| \\      /  F ield         | OpenFOAM: The Open Source CFD Toolbox           |
|  \\    /   O peration     | Version:  2212                                  |
|   \\  /    A nd           | Website:  www.openfoam.com                      |
|    \\/     M anipulation  |                                                 |
\*---------------------------------------------------------------------------*/
FoamFile
{
    version     2.0;
    format      ascii;
    arch        "LSB;label=32;scalar=64";
    class       volScalarField;
    location    "1.1";
    object      epsilon;
}
// * * * * * * * * * * * * * * * * * * * * * * * * * * * * * * * * * * * * * //

dimensions      [0 2 -3 0 0 0 0];

internalField   nonuniform List<scalar> 
689
(
0.172998
0.162306
0.154637
0.148207
0.142843
0.138302
0.134273
0.130601
0.070652
0.0663266
0.0629419
0.0599786
0.0573981
0.0551463
0.0530928
0.0512944
0.0586882
0.0540925
0.0501992
0.0469779
0.0442956
0.0419807
0.039946
0.0381487
0.0365592
0.0763696
0.0636382
0.0565752
0.0513653
0.047157
0.0436724
0.0406994
0.0381297
0.0358827
0.0338986
0.0321337
0.0305545
0.0719697
0.0611192
0.0540483
0.0487066
0.0444367
0.0409095
0.0379503
0.0354169
0.0331917
0.0312181
0.029458
0.027883
0.0687135
0.0598924
0.0533206
0.0481046
0.0438332
0.0402532
0.037211
0.0345983
0.0323109
0.0302792
0.028471
0.0268561
0.0674116
0.0604604
0.0544452
0.0493014
0.0449031
0.0411259
0.0378789
0.0350837
0.0326485
0.0305169
0.028643
0.0269908
0.0773568
0.0674141
0.0595371
0.0531862
0.0479634
0.0436562
0.0400333
0.0370076
0.0344564
0.0322844
0.0303851
0.0287149
0.0976427
0.0816428
0.0696398
0.0607694
0.0537033
0.0487931
0.0451032
0.0420847
0.0395361
0.0373462
0.0354229
0.138333
0.115237
0.0953939
0.0816687
0.0723222
0.0661829
0.0618477
0.0583229
0.0554434
0.0529863
0.0507837
0.345901
0.276626
0.220583
0.190392
0.17293
0.162361
0.15469
0.148244
0.142866
0.138305
0.134279
0.0722945
0.0661435
0.061818
0.0583047
0.0554335
0.0529852
0.0507825
0.0489852
0.0353433
0.0324031
0.0301412
0.0281873
0.0265314
0.0250984
0.0238101
0.022666
0.0317423
0.0284966
0.0259699
0.0238151
0.0219832
0.0204263
0.0190415
0.0178566
0.0166695
0.0461417
0.0402041
0.0351995
0.0310008
0.0273797
0.0243707
0.0222003
0.0203687
0.0187641
0.0173554
0.0161162
0.015026
0.0465489
0.0403865
0.0353078
0.031109
0.0276094
0.0246847
0.0219881
0.019772
0.0181655
0.0167541
0.0154987
0.01439
0.0460467
0.040206
0.0352634
0.0311124
0.0276135
0.0246689
0.0220678
0.0197152
0.0178894
0.0165034
0.0152515
0.0141354
0.0458928
0.040141
0.0351755
0.0309691
0.0274162
0.0244214
0.0216991
0.0194668
0.0178216
0.0164178
0.0151641
0.0140583
0.0501223
0.041946
0.0357936
0.0310002
0.027106
0.0238821
0.0215091
0.0196965
0.0181088
0.0167187
0.0155
0.0144346
0.0542371
0.0438889
0.0367672
0.0313663
0.0276966
0.0251417
0.0230046
0.0211865
0.0196241
0.0182667
0.0170898
0.0621251
0.0536112
0.0457123
0.0395975
0.0352981
0.0323986
0.0301458
0.0281922
0.0265351
0.0251012
0.0238023
0.114738
0.0978328
0.0849096
0.0764428
0.0706188
0.0663608
0.0629742
0.0600012
0.057414
0.0551532
0.0530957
0.0607505
0.0536915
0.0487845
0.0450977
0.0420829
0.0395376
0.0373499
0.0354278
0.0337598
0.031399
0.0277131
0.0251443
0.0230016
0.021182
0.0196197
0.0182628
0.0170838
0.0160183
0.0301618
0.0264894
0.0235309
0.0210949
0.0190602
0.0173383
0.0158604
0.014583
0.0134555
0.047804
0.0414042
0.0360684
0.0315904
0.0278244
0.0246541
0.0220055
0.0197607
0.0178421
0.0161905
0.0147601
0.0135103
0.0493085
0.042883
0.0374515
0.0328626
0.0289791
0.0256857
0.0228671
0.0204553
0.0184078
0.016652
0.015131
0.0138034
0.0502632
0.0436217
0.0380522
0.0333658
0.0294065
0.0260481
0.0231779
0.0207075
0.0185957
0.0167942
0.0152408
0.0138879
0.0501498
0.0432835
0.0376227
0.0329059
0.0289465
0.0256035
0.0227573
0.0203331
0.0182737
0.0165103
0.01499
0.0136697
0.0478565
0.041464
0.0360474
0.0314808
0.0276518
0.0244431
0.0217605
0.0195111
0.0176049
0.0159751
0.0145675
0.0133409
0.0459918
0.0399312
0.0346467
0.0301369
0.0264785
0.0235278
0.0210956
0.0190623
0.0173409
0.0158632
0.0145818
0.0511043
0.0426435
0.03671
0.0316561
0.0284504
0.0259503
0.0238078
0.0219799
0.0204277
0.0190379
0.0178943
0.0785022
0.0704635
0.0638132
0.058652
0.0541094
0.0502269
0.0470034
0.0443159
0.0419952
0.0399566
0.0381531
0.0531075
0.0479487
0.0436608
0.0400413
0.0370152
0.0344631
0.032291
0.0303914
0.0287207
0.0309351
0.0270549
0.0238693
0.0215137
0.019699
0.0181098
0.0167187
0.015499
0.0144296
0.0314626
0.0276385
0.0244349
0.021756
0.0195085
0.0176032
0.0159738
0.014567
0.0133364
0.0521677
0.0451401
0.0392643
0.0343326
0.0301791
0.0266667
0.023685
0.0211489
0.0189792
0.0171126
0.0154984
0.0140937
0.0559471
0.0482528
0.0419072
0.0366203
0.0321794
0.0284236
0.0252296
0.0224984
0.0201515
0.0181275
0.0163763
0.0148536
0.0572059
0.0493463
0.0428515
0.0374377
0.0328907
0.0290461
0.0257749
0.022976
0.0205704
0.0184949
0.016697
0.0151339
0.0557405
0.0481698
0.0418721
0.0366006
0.0321624
0.0284054
0.0252084
0.0224757
0.0201305
0.018109
0.0163588
0.0148373
0.0521707
0.0451431
0.0392687
0.0343371
0.0301833
0.0266701
0.0236876
0.0211509
0.0189808
0.0171141
0.0154993
0.0140985
0.0477871
0.0413888
0.0360605
0.0315866
0.0278229
0.024654
0.0220065
0.0197623
0.0178439
0.0161926
0.0147594
0.0460842
0.0401469
0.0351638
0.0309807
0.0273647
0.0243646
0.0221997
0.0203685
0.0187643
0.0173565
0.0161239
0.0763863
0.0636513
0.056591
0.0513822
0.0471743
0.0436879
0.040712
0.0381395
0.0358898
0.0339035
0.0321369
0.0492381
0.0448869
0.041129
0.0378884
0.0350934
0.0326567
0.0305234
0.0286482
0.026995
0.0309256
0.0273949
0.0244123
0.0216958
0.0194695
0.0178244
0.0164203
0.0151666
0.0140605
0.0328847
0.0289349
0.0255976
0.022755
0.0203331
0.0182748
0.0165122
0.0149924
0.013672
0.0557324
0.0481558
0.04186
0.0365917
0.0321565
0.0284019
0.0252065
0.022475
0.0201305
0.0181095
0.0163597
0.0148381
0.0602316
0.0520195
0.0451815
0.0394606
0.0346479
0.0305764
0.0271129
0.0241511
0.0216059
0.0194087
0.0175039
0.0158467
0.0622898
0.0536126
0.0464731
0.0405401
0.0355683
0.0313718
0.0278066
0.0247599
0.0221424
0.0198828
0.0179236
0.0162193
0.0602342
0.052023
0.045185
0.0394636
0.0346502
0.0305781
0.0271142
0.0241521
0.0216067
0.0194094
0.0175046
0.015848
0.0559478
0.0482571
0.0419118
0.0366242
0.0321826
0.0284262
0.0252319
0.0225005
0.0201535
0.0181297
0.0163788
0.0148603
0.049304
0.0428788
0.0374484
0.0328608
0.0289784
0.0256857
0.0228679
0.0204564
0.0184092
0.016654
0.0151321
0.0465428
0.040377
0.0352995
0.031103
0.0276054
0.0246815
0.0219871
0.0197722
0.0181659
0.0167554
0.0155055
0.0719695
0.0611173
0.0540494
0.0487096
0.0444403
0.040913
0.0379532
0.0354188
0.0331927
0.0312182
0.0294564
0.0572096
0.0493479
0.0428524
0.0374386
0.032892
0.0290479
0.0257775
0.0229795
0.0205749
0.0185005
0.0167041
0.0151423
0.0622879
0.0536121
0.0464731
0.0405404
0.0355689
0.0313726
0.0278077
0.0247614
0.0221443
0.0198852
0.0179267
0.0162229
0.0636833
0.0549762
0.0477167
0.0416436
0.0365381
0.0322224
0.028554
0.0254187
0.0227252
0.0203999
0.0183837
0.0166298
0.0622883
0.0536094
0.0464707
0.0405389
0.0355682
0.0313724
0.0278077
0.0247614
0.0221443
0.0198852
0.0179267
0.0162234
0.0572111
0.0493492
0.0428534
0.0374393
0.0328924
0.0290479
0.025777
0.0229787
0.0205736
0.0184988
0.0167018
0.0151433
0.0502545
0.0436249
0.0380562
0.0333689
0.0294087
0.0260499
0.0231797
0.02071
0.0185984
0.0167976
0.015244
0.0460282
0.0401918
0.0352547
0.0311072
0.0276106
0.0246669
0.0220685
0.0197163
0.0178907
0.0165067
0.0152608
0.0687049
0.0598856
0.0533143
0.0480977
0.043826
0.0402464
0.0372048
0.0345925
0.0323058
0.0302744
0.028465
)
;

boundaryField
{
    inlet
    {
        type            fixedValue;
        value           nonuniform List<scalar> 0();
    }
    ami1
    {
        type            cyclicAMI;
        value           nonuniform List<scalar> 0();
    }
    walls
    {
        type            epsilonWallFunction;
        blending        stepwise;
        value           nonuniform List<scalar> 
227
(
0.0763696
0.0719697
0.0687135
0.0674116
0.0773568
0.0976427
0.138333
0.345901
0.0636382
0.0611192
0.0598924
0.0604604
0.0674141
0.0816428
0.115237
0.276626
0.0565752
0.0540483
0.0533206
0.0544452
0.0595371
0.0696398
0.0953939
0.220583
0.0586882
0.0513653
0.0487066
0.0481046
0.0493014
0.0531862
0.0607694
0.0816687
0.190392
0.172998
0.070652
0.0540925
0.047157
0.0444367
0.0438332
0.0449031
0.0479634
0.0537033
0.0723222
0.17293
0.162306
0.0663266
0.0501992
0.0436724
0.0409095
0.0402532
0.0411259
0.0436562
0.0487931
0.0661829
0.162361
0.154637
0.0629419
0.0469779
0.0406994
0.0379503
0.037211
0.0378789
0.0400333
0.0451032
0.0618477
0.15469
0.148207
0.0599786
0.0442956
0.0381297
0.0354169
0.0345983
0.0350837
0.0370076
0.0420847
0.0583229
0.148244
0.142843
0.0573981
0.0419807
0.0358827
0.0331917
0.0323109
0.0326485
0.0344564
0.0395361
0.0554434
0.142866
0.138302
0.0551463
0.039946
0.0338986
0.0312181
0.0302792
0.0305169
0.0322844
0.0373462
0.0529863
0.138305
0.134273
0.0530928
0.0381487
0.0321337
0.029458
0.028471
0.028643
0.0303851
0.0354229
0.0507837
0.134279
0.130601
0.0512944
0.0365592
0.0305545
0.027883
0.0268561
0.0269908
0.0287149
0.345901
0.114738
0.0785022
0.0763863
0.0719695
0.0687049
0.276626
0.0978328
0.0704635
0.0636513
0.0611173
0.0598856
0.220583
0.0849096
0.0638132
0.056591
0.0540494
0.0533143
0.190392
0.0764428
0.058652
0.0513822
0.0487096
0.0480977
0.17293
0.0706188
0.0541094
0.0471743
0.0444403
0.043826
0.162361
0.0663608
0.0502269
0.0436879
0.040913
0.0402464
0.15469
0.0629742
0.0470034
0.040712
0.0379532
0.0372048
0.148244
0.0600012
0.0443159
0.0381395
0.0354188
0.0345925
0.142866
0.057414
0.0419952
0.0358898
0.0331927
0.0323058
0.138305
0.0551532
0.0399566
0.0339035
0.0312182
0.0302744
0.134279
0.0530957
0.0381531
0.0321369
0.0294564
0.028465
0.0607505
0.0531075
0.0492381
0.172998
0.0722945
0.0536915
0.0479487
0.0448869
0.162306
0.0661435
0.0487845
0.0436608
0.041129
0.154637
0.061818
0.0450977
0.0400413
0.0378884
0.148207
0.0583047
0.0420829
0.0370152
0.0350934
0.142843
0.0554335
0.0395376
0.0344631
0.0326567
0.138302
0.0529852
0.0373499
0.032291
0.0305234
0.134273
0.0507825
0.0354278
0.0303914
0.0286482
0.130601
0.0489852
0.0337598
0.0287207
0.026995
)
;
    }
    ami2
    {
        type            cyclicAMI;
        value           nonuniform List<scalar> 
48
(
0.0898053
0.0773185
0.0722056
0.0707386
0.0748937
0.084671
0.1051
0.210275
0.0488237
0.0491571
0.0489121
0.0495731
0.0543153
0.0594422
0.067615
0.0984715
0.0516672
0.0531528
0.054223
0.0544033
0.0516798
0.0488837
0.0537004
0.0891691
0.056218
0.0606028
0.0621602
0.0602904
0.0562197
0.051659
0.0487954
0.0898156
0.0602863
0.065264
0.0675406
0.0652655
0.0606034
0.0531508
0.0491542
0.0773202
0.062162
0.0675396
0.0689068
0.0675399
0.0621629
0.0542186
0.0489029
0.0722023
)
;
    }
    outlet
    {
        type            zeroGradient;
    }
    procBoundary0to1
    {
        type            processor;
        value           nonuniform List<scalar> 
138
(
0.0544306
0.0480995
0.0438272
0.0402488
0.0372086
0.0345973
0.0323106
0.0302793
0.0284711
0.0268562
0.0351683
0.0311103
0.0276109
0.0246674
0.0220689
0.0197179
0.0178929
0.0165082
0.0152572
0.0141419
0.0501519
0.0432828
0.0376202
0.0376202
0.0333681
0.0294082
0.0260503
0.023181
0.0207116
0.0186009
0.0168005
0.0152484
0.0138968
0.0502552
0.0436246
0.0380578
0.0333681
0.0294082
0.0260503
0.023181
0.0207116
0.0186009
0.0168005
0.0152484
0.0138968
0.0559365
0.0482481
0.041905
0.0366195
0.0321795
0.0284245
0.0252313
0.0225009
0.0201548
0.0181318
0.0163818
0.0148603
0.0602353
0.0520233
0.0451843
0.0394626
0.0346494
0.0305777
0.0271143
0.0241528
0.021608
0.0194113
0.0175072
0.0158509
0.0622908
0.0536105
0.0464712
0.040539
0.035568
0.0313721
0.0278074
0.0247611
0.0221441
0.019885
0.0179264
0.0162229
0.060235
0.0520239
0.0451855
0.0394639
0.0346506
0.0305786
0.027115
0.0241532
0.0216082
0.0194114
0.0175071
0.0158512
0.0557328
0.0481597
0.0418634
0.0365943
0.0321585
0.0284035
0.025208
0.0224766
0.0201324
0.0181119
0.0163626
0.0148456
0.0501543
0.0432781
0.0376153
0.0328997
0.0289421
0.0256009
0.0227563
0.0203335
0.0182747
0.0165125
0.0149915
0.0459098
0.040158
0.0351871
0.0309758
0.0274193
0.0244225
0.0217009
0.0194677
0.0178218
0.0164195
0.0151726
0.0674317
0.0604706
0.0544476
0.0493006
0.0449009
0.0411236
0.0378768
0.0350815
0.0326462
0.0305143
0.0286387
)
;
    }
    procBoundary0to2
    {
        type            processor;
        value           nonuniform List<scalar> 
28
(
0.190324
0.0764198
0.0764198
0.07841
0.0704091
0.0637867
0.0637867
0.0816231
0.0816231
0.0395839
0.0395839
0.0395839
0.0511204
0.0426631
0.0366969
0.0366969
0.0696383
0.0367089
0.0459845
0.0398971
0.034606
0.034606
0.0595323
0.0357826
0.0478513
0.0414426
0.0360246
0.0360246
)
;
    }
    procBoundary0to8
    {
        type            processor;
        value           nonuniform List<scalar> 
29
(
0.126963
0.0495684
0.0351474
0.0291355
0.0264689
0.0470777
0.0216368
0.0159642
0.0140745
0.0134151
0.0322609
0.015155
0.0124988
0.012432
0.0126605
0.0272376
0.0134938
0.0122781
0.0128798
0.0135376
0.025526
0.0130876
0.0125379
0.0135215
0.0144083
0.0147422
0.0137887
0.0147426
0.0151068
)
;
    }
    procBoundary0to9
    {
        type            processor;
        value           nonuniform List<scalar> 
40
(
0.0254049
0.0255227
0.0272317
0.0337525
0.0337525
0.0489904
0.130613
0.0131464
0.0130861
0.0134957
0.016035
0.016035
0.0226584
0.0513142
0.0127234
0.0125358
0.012282
0.0134676
0.0134676
0.0166173
0.0365709
0.0137836
0.013521
0.0128847
0.0135257
0.0135257
0.0150372
0.0305566
0.0144116
0.0135427
0.0138194
0.0138194
0.0144001
0.0278772
0.0147453
0.0137904
0.0139062
0.0139062
0.0141461
0.0268436
)
;
    }
}


// ************************************************************************* //
