/*--------------------------------*- C++ -*----------------------------------*\
| =========                 |                                                 |
| \\      /  F ield         | OpenFOAM: The Open Source CFD Toolbox           |
|  \\    /   O peration     | Version:  2212                                  |
|   \\  /    A nd           | Website:  www.openfoam.com                      |
|    \\/     M anipulation  |                                                 |
\*---------------------------------------------------------------------------*/
FoamFile
{
    version     2.0;
    format      ascii;
    arch        "LSB;label=32;scalar=64";
    class       volScalarField;
    location    "1.1";
    object      nut;
}
// * * * * * * * * * * * * * * * * * * * * * * * * * * * * * * * * * * * * * //

dimensions      [0 2 -1 0 0 0 0];

internalField   nonuniform List<scalar> 
689
(
4.36491e-06
4.27842e-06
4.21461e-06
4.15929e-06
4.11083e-06
4.06907e-06
4.03009e-06
3.99417e-06
8.97601e-06
8.79512e-06
8.64871e-06
8.51719e-06
8.39588e-06
8.28751e-06
8.18498e-06
8.09382e-06
1.39557e-05
1.3589e-05
1.32664e-05
1.29817e-05
1.27332e-05
1.251e-05
1.23054e-05
1.21184e-05
1.19466e-05
2.06663e-05
1.92314e-05
1.84232e-05
1.78401e-05
1.73414e-05
1.69048e-05
1.6513e-05
1.61583e-05
1.58344e-05
1.55365e-05
1.5261e-05
1.50052e-05
2.3364e-05
2.21292e-05
2.12187e-05
2.04887e-05
1.98647e-05
1.93181e-05
1.88347e-05
1.84008e-05
1.80024e-05
1.7634e-05
1.72918e-05
1.69728e-05
2.37622e-05
2.29294e-05
2.21337e-05
2.14172e-05
2.07725e-05
2.01899e-05
1.96629e-05
1.91856e-05
1.87458e-05
1.83367e-05
1.79566e-05
1.76027e-05
2.28628e-05
2.20597e-05
2.13099e-05
2.06178e-05
1.99805e-05
1.93953e-05
1.88599e-05
1.83712e-05
1.79243e-05
1.75154e-05
1.71406e-05
1.67952e-05
2.06965e-05
1.96816e-05
1.88406e-05
1.81261e-05
1.75049e-05
1.69548e-05
1.64608e-05
1.60253e-05
1.56401e-05
1.52975e-05
1.49884e-05
1.47046e-05
1.65853e-05
1.56172e-05
1.48245e-05
1.41745e-05
1.36165e-05
1.31841e-05
1.28367e-05
1.25396e-05
1.22777e-05
1.20444e-05
1.18321e-05
1.11302e-05
1.04967e-05
9.89926e-06
9.43168e-06
9.07839e-06
8.81191e-06
8.61411e-06
8.44961e-06
8.30805e-06
8.18546e-06
8.06945e-06
5.38062e-06
5.01741e-06
4.68628e-06
4.48722e-06
4.36306e-06
4.27904e-06
4.21557e-06
4.16008e-06
4.11139e-06
4.0694e-06
4.03027e-06
9.07752e-06
8.80817e-06
8.61097e-06
8.44733e-06
8.30661e-06
8.18454e-06
8.06933e-06
7.97345e-06
2.24778e-05
2.17264e-05
2.08381e-05
1.98057e-05
1.88097e-05
1.78882e-05
1.68785e-05
1.60711e-05
5.45987e-05
5.18685e-05
4.90186e-05
4.63713e-05
4.38635e-05
4.1436e-05
3.9211e-05
3.70239e-05
3.53973e-05
8.90157e-05
8.47638e-05
8.05022e-05
7.6625e-05
7.34666e-05
7.05742e-05
6.669e-05
6.29682e-05
5.95558e-05
5.64037e-05
5.34966e-05
5.08006e-05
0.000105161
9.92412e-05
9.39793e-05
8.91875e-05
8.47949e-05
8.06715e-05
7.77306e-05
7.48244e-05
7.08741e-05
6.71936e-05
6.38221e-05
6.06887e-05
0.000108524
0.000102859
9.76567e-05
9.28311e-05
8.83832e-05
8.42122e-05
8.07507e-05
7.82202e-05
7.51215e-05
7.12827e-05
6.78329e-05
6.46503e-05
0.000105109
9.83703e-05
9.2748e-05
8.79289e-05
8.37449e-05
8.00184e-05
7.74349e-05
7.49139e-05
7.14568e-05
6.80817e-05
6.50263e-05
6.21561e-05
8.03005e-05
7.74611e-05
7.46882e-05
7.21278e-05
6.99587e-05
6.82188e-05
6.56905e-05
6.26179e-05
5.97885e-05
5.71396e-05
5.46286e-05
5.21873e-05
4.98163e-05
4.99656e-05
4.96673e-05
4.95871e-05
4.8544e-05
4.66401e-05
4.4726e-05
4.28351e-05
4.0932e-05
3.90088e-05
3.70537e-05
2.4362e-05
2.34982e-05
2.28096e-05
2.28283e-05
2.26144e-05
2.18132e-05
2.08851e-05
1.98319e-05
1.88237e-05
1.78917e-05
1.68887e-05
1.03563e-05
9.85058e-06
9.45382e-06
9.1805e-06
8.97298e-06
8.7976e-06
8.6518e-06
8.51957e-06
8.39765e-06
8.28884e-06
8.18499e-06
1.41744e-05
1.36114e-05
1.31811e-05
1.28347e-05
1.25381e-05
1.22769e-05
1.20441e-05
1.18322e-05
1.16414e-05
4.94772e-05
4.8474e-05
4.66165e-05
4.47255e-05
4.28491e-05
4.09542e-05
3.90354e-05
3.7084e-05
3.52439e-05
9.59233e-05
9.25444e-05
8.9134e-05
8.57448e-05
8.2385e-05
7.90487e-05
7.57744e-05
7.25466e-05
6.95045e-05
0.000151816
0.000143136
0.000135893
0.000129659
0.000124137
0.000119121
0.000114324
0.000109784
0.000105476
0.000101375
9.74383e-05
9.36977e-05
0.000169713
0.000161983
0.000154692
0.000147911
0.000141631
0.000135796
0.000130442
0.000125477
0.000120696
0.00011612
0.000111772
0.000107657
0.000176735
0.000168399
0.000160701
0.000153612
0.000147081
0.000141043
0.000135495
0.00013044
0.000125689
0.000121109
0.000116727
0.000112577
0.000168839
0.000160588
0.000153228
0.000146573
0.000140505
0.00013494
0.000129859
0.000125153
0.000120677
0.000116408
0.000112326
0.00010843
0.000142281
0.000136789
0.000131484
0.000126532
0.000121899
0.000117543
0.000113358
0.000109272
0.0001053
0.000101441
9.77168e-05
9.41384e-05
0.000109558
0.000104193
9.96413e-05
9.60009e-05
9.25812e-05
8.9139e-05
8.5729e-05
8.23575e-05
7.90152e-05
7.57363e-05
7.25376e-05
6.37537e-05
5.99781e-05
5.66373e-05
5.5038e-05
5.21345e-05
4.91731e-05
4.64617e-05
4.3921e-05
4.14635e-05
3.92424e-05
3.69507e-05
1.54421e-05
1.48534e-05
1.43567e-05
1.39579e-05
1.35941e-05
1.32713e-05
1.29868e-05
1.27375e-05
1.25134e-05
1.2308e-05
1.21207e-05
1.8106e-05
1.74914e-05
1.69519e-05
1.64613e-05
1.60264e-05
1.56413e-05
1.52984e-05
1.49894e-05
1.47057e-05
7.23792e-05
7.01884e-05
6.83434e-05
6.57471e-05
6.26674e-05
5.98337e-05
5.71822e-05
5.46699e-05
5.2247e-05
0.00012663
0.000122002
0.000117638
0.00011344
0.000109345
0.000105365
0.000101501
9.77675e-05
9.42257e-05
0.000186298
0.000178536
0.000171162
0.000164268
0.000157854
0.00015189
0.000146332
0.000141085
0.000136122
0.000131414
0.000126932
0.000122673
0.000211404
0.000201947
0.000193305
0.000185348
0.000177991
0.000171169
0.000164819
0.000158898
0.000153365
0.000148161
0.000143229
0.000138553
0.00021964
0.00020955
0.000200454
0.000192144
0.00018449
0.000177404
0.000170823
0.000164698
0.000158979
0.000153613
0.000148553
0.000143766
0.000208959
0.000200502
0.000192399
0.000184749
0.000177581
0.000170884
0.000164636
0.000158795
0.000153316
0.000148157
0.000143283
0.000138666
0.000186313
0.000178514
0.000171116
0.000164213
0.000157796
0.000151834
0.000146279
0.000141036
0.000136075
0.000131369
0.000126893
0.000122597
0.000151832
0.000143142
0.000135897
0.00012966
0.000124133
0.000119111
0.000114308
0.000109763
0.000105452
0.000101347
9.74339e-05
8.92271e-05
8.50213e-05
8.07235e-05
7.67839e-05
7.35911e-05
7.06557e-05
6.67381e-05
6.30024e-05
5.95792e-05
5.64171e-05
5.34841e-05
2.06614e-05
1.92447e-05
1.84322e-05
1.78465e-05
1.73461e-05
1.69087e-05
1.65164e-05
1.61612e-05
1.58368e-05
1.55384e-05
1.52625e-05
2.05905e-05
1.99654e-05
1.93893e-05
1.88591e-05
1.83724e-05
1.79261e-05
1.75172e-05
1.71421e-05
1.67966e-05
8.80956e-05
8.38656e-05
8.01095e-05
7.75077e-05
7.49584e-05
7.14929e-05
6.81115e-05
6.50493e-05
6.21767e-05
0.000146739
0.000140619
0.000135023
0.000129922
0.000125202
0.000120716
0.000116439
0.000112349
0.00010845
0.000209016
0.00020056
0.000192453
0.000184796
0.000177622
0.00017092
0.000164668
0.000158824
0.000153341
0.000148179
0.0001433
0.000138682
0.000233621
0.000223955
0.000214911
0.000206462
0.000198571
0.000191199
0.000184304
0.000177848
0.000171794
0.000166103
0.00016074
0.000155668
0.000241536
0.000231487
0.000222167
0.000213485
0.00020538
0.000197803
0.000190711
0.000184066
0.000177832
0.000171971
0.00016645
0.000161229
0.000233618
0.00022394
0.00021489
0.000206441
0.000198551
0.00019118
0.000184286
0.000177831
0.000171777
0.000166087
0.000160723
0.000155646
0.000211401
0.000201919
0.00019327
0.000185313
0.000177958
0.000171139
0.000164791
0.000158871
0.000153338
0.000148132
0.000143199
0.000138486
0.000169726
0.000162014
0.00015472
0.000147931
0.000141644
0.000135802
0.000130443
0.000125475
0.000120691
0.000116109
0.00011177
0.000105182
9.92921e-05
9.40362e-05
8.92387e-05
8.48372e-05
8.07077e-05
7.77555e-05
7.48407e-05
7.08853e-05
6.71986e-05
6.37918e-05
2.3365e-05
2.21262e-05
2.12164e-05
2.04873e-05
1.98641e-05
1.9318e-05
1.88349e-05
1.8401e-05
1.80026e-05
1.76341e-05
1.72912e-05
0.000219625
0.000209534
0.000200439
0.000192132
0.000184481
0.000177396
0.000170815
0.000164687
0.000158962
0.000153585
0.000148511
0.000143706
0.000241527
0.000231481
0.000222163
0.000213482
0.000205377
0.0001978
0.000190707
0.00018406
0.000177822
0.000171957
0.00016643
0.000161201
0.000248249
0.000238507
0.000229216
0.000220447
0.000212205
0.000204471
0.000197213
0.0001904
0.000183997
0.000177972
0.000172292
0.000166918
0.000241525
0.000231477
0.000222157
0.000213475
0.00020537
0.000197793
0.000190701
0.000184054
0.000177816
0.000171952
0.000166425
0.000161193
0.000219625
0.000209532
0.000200437
0.00019213
0.000184479
0.000177393
0.000170812
0.000164685
0.000158963
0.00015359
0.000148523
0.000143696
0.000176804
0.000168421
0.000160712
0.000153622
0.000147093
0.000141057
0.000135508
0.000130448
0.000125695
0.000121108
0.000116729
0.000108554
0.000102916
9.77078e-05
9.28719e-05
8.84145e-05
8.42392e-05
8.07656e-05
7.82315e-05
7.51304e-05
7.12825e-05
6.77868e-05
2.37585e-05
2.29264e-05
2.21312e-05
2.14138e-05
2.07687e-05
2.01861e-05
1.96593e-05
1.91825e-05
1.8743e-05
1.83342e-05
1.79534e-05
)
;

boundaryField
{
    inlet
    {
        type            calculated;
        value           nonuniform List<scalar> 0();
    }
    ami1
    {
        type            cyclicAMI;
        value           nonuniform List<scalar> 0();
    }
    walls
    {
        type            nutkWallFunction;
        blending        stepwise;
        value           uniform 0;
    }
    ami2
    {
        type            cyclicAMI;
        value           nonuniform List<scalar> 
48
(
2.67879e-05
3.00082e-05
2.83809e-05
2.3577e-05
2.36866e-05
2.20607e-05
1.85905e-05
1.38443e-05
9.29748e-05
0.00011192
0.000113112
0.000109844
8.81689e-05
5.55413e-05
2.43716e-05
1.40726e-05
0.00015773
0.000173565
0.00018125
0.000173915
0.000145282
0.000113227
7.34643e-05
1.60317e-05
0.000190769
0.000216881
0.000224893
0.000213387
0.000190774
0.000157736
9.30793e-05
2.67867e-05
0.000213417
0.000238465
0.000247299
0.000238462
0.000216878
0.000173572
0.000111932
3.00099e-05
0.000224886
0.000247295
0.000253225
0.000247293
0.000224886
0.000181285
0.000113128
2.83797e-05
)
;
    }
    outlet
    {
        type            calculated;
        value           nonuniform List<scalar> 0();
    }
    procBoundary0to1
    {
        type            processor;
        value           nonuniform List<scalar> 
138
(
2.13026e-05
2.14144e-05
2.07691e-05
2.01869e-05
1.96605e-05
1.91841e-05
1.87448e-05
1.83361e-05
1.79562e-05
1.76028e-05
9.27974e-05
9.28672e-05
8.84221e-05
8.42492e-05
8.07789e-05
7.82404e-05
7.51357e-05
7.12881e-05
6.78289e-05
6.46388e-05
0.00016881
0.000160587
0.00015325
0.00015325
0.000153587
0.000147072
0.000141041
0.000135493
0.000130434
0.000125677
0.000121087
0.000116692
0.000112527
0.000176734
0.000168345
0.000160641
0.000153587
0.000147072
0.000141041
0.000135493
0.000130434
0.000125677
0.000121087
0.000116692
0.000112527
0.000211405
0.000201955
0.000193311
0.00018535
0.000177988
0.000171161
0.000164807
0.00015888
0.00015334
0.000148128
0.000143184
0.000138493
0.000233631
0.000223956
0.000214908
0.000206458
0.000198567
0.000191193
0.000184296
0.000177838
0.00017178
0.000166084
0.000160713
0.000155631
0.000241541
0.000231493
0.000222171
0.000213487
0.00020538
0.000197801
0.000190707
0.00018406
0.000177822
0.000171956
0.000166429
0.0001612
0.000233627
0.000223944
0.000214895
0.000206445
0.000198555
0.000191182
0.000184286
0.000177829
0.000171771
0.000166076
0.000160707
0.000155623
0.000208959
0.000200531
0.000192434
0.000184782
0.000177608
0.000170905
0.00016465
0.000158803
0.000153317
0.00014815
0.000143268
0.000138616
0.000168824
0.000160595
0.000153249
0.000146601
0.000140537
0.000134971
0.000129888
0.000125177
0.000120698
0.000116422
0.000112347
0.00010506
9.83028e-05
9.26939e-05
8.78939e-05
8.37275e-05
8.00137e-05
7.74321e-05
7.49171e-05
7.14648e-05
6.80861e-05
6.49815e-05
2.28665e-05
2.20633e-05
2.13116e-05
2.06178e-05
1.99796e-05
1.93942e-05
1.88588e-05
1.837e-05
1.79231e-05
1.75141e-05
1.71383e-05
)
;
    }
    procBoundary0to2
    {
        type            processor;
        value           nonuniform List<scalar> 
28
(
4.48566e-06
9.17953e-06
9.17953e-06
1.54288e-05
1.4842e-05
1.43513e-05
1.43513e-05
9.42593e-06
9.42593e-06
2.27678e-05
2.27678e-05
2.27678e-05
6.36953e-05
5.99054e-05
5.66602e-05
5.66602e-05
1.48186e-05
4.97854e-05
0.000109517
0.000104285
9.9801e-05
9.9801e-05
1.88399e-05
7.47402e-05
0.000142371
0.000136906
0.000131614
0.000131614
)
;
    }
    procBoundary0to8
    {
        type            processor;
        value           nonuniform List<scalar> 
29
(
3.9569e-06
8.00219e-06
1.17926e-05
1.47665e-05
1.66742e-05
7.87146e-06
1.50115e-05
3.28723e-05
4.82189e-05
5.77848e-05
1.1466e-05
3.31582e-05
6.62805e-05
8.9955e-05
0.000103594
1.44441e-05
4.99205e-05
9.06708e-05
0.000118475
0.000133978
1.64776e-05
5.95276e-05
0.000104592
0.000134184
0.000150768
0.00015617
0.000139044
0.000156162
0.00016173
)
;
    }
    procBoundary0to9
    {
        type            processor;
        value           nonuniform List<scalar> 
40
(
1.72704e-05
1.64764e-05
1.44429e-05
1.16403e-05
1.16403e-05
7.97378e-06
3.9949e-06
6.17608e-05
5.95153e-05
4.9886e-05
3.51644e-05
3.51644e-05
1.60775e-05
8.09586e-06
0.000108509
0.000104584
9.06043e-05
6.93704e-05
6.93704e-05
3.54817e-05
1.19484e-05
0.000139093
0.000134171
0.000118404
9.3542e-05
9.3542e-05
5.07326e-05
1.50052e-05
0.000150729
0.000133913
0.000107539
0.000107539
6.06598e-05
1.69697e-05
0.000156134
0.000139023
0.000112481
0.000112481
6.46543e-05
1.75962e-05
)
;
    }
}


// ************************************************************************* //
