/*--------------------------------*- C++ -*----------------------------------*\
| =========                 |                                                 |
| \\      /  F ield         | OpenFOAM: The Open Source CFD Toolbox           |
|  \\    /   O peration     | Version:  2212                                  |
|   \\  /    A nd           | Website:  www.openfoam.com                      |
|    \\/     M anipulation  |                                                 |
\*---------------------------------------------------------------------------*/
FoamFile
{
    version     2.0;
    format      ascii;
    arch        "LSB;label=32;scalar=64";
    class       volScalarField;
    location    "1.15";
    object      epsilon;
}
// * * * * * * * * * * * * * * * * * * * * * * * * * * * * * * * * * * * * * //

dimensions      [0 2 -3 0 0 0 0];

internalField   nonuniform List<scalar> 
680
(
0.27018
0.246142
0.226579
0.210955
0.200996
0.192225
0.173173
0.14995
0.131609
0.117133
0.106361
0.0991313
0.148943
0.128074
0.111415
0.0980355
0.0873587
0.0793638
0.144495
0.12347
0.106633
0.0930135
0.0819196
0.0730574
0.143415
0.122321
0.105376
0.0916145
0.0804153
0.0721464
0.14332
0.122181
0.105172
0.0913195
0.0800006
0.0716694
0.170908
0.144284
0.12316
0.106173
0.0923264
0.0809637
0.0724357
0.175136
0.148708
0.127723
0.110882
0.097217
0.0861151
0.0777864
0.202913
0.172989
0.149661
0.131108
0.116187
0.104538
0.0958662
0.299866
0.270176
0.24614
0.226578
0.210954
0.200997
0.192209
0.17299
0.149662
0.131109
0.116187
0.104538
0.0958732
0.109775
0.0931928
0.0801437
0.0696291
0.0606374
0.0564919
0.111171
0.0927162
0.0781962
0.0666516
0.0571671
0.0502524
0.11777
0.0977976
0.0821132
0.0696459
0.059616
0.0513565
0.122291
0.101389
0.0849705
0.0719155
0.061424
0.0529551
0.122268
0.10136
0.0849351
0.0718751
0.0613801
0.0528983
0.143513
0.117722
0.0977382
0.0820444
0.0695719
0.0595421
0.0513209
0.134844
0.111134
0.0926725
0.07815
0.0666118
0.0571566
0.0497676
0.131252
0.109771
0.0931911
0.0801427
0.0696285
0.0606364
0.0564913
0.203042
0.173172
0.149949
0.131607
0.11713
0.106357
0.0991244
0.148709
0.127724
0.110883
0.0972168
0.0861146
0.0777855
0.111137
0.0926737
0.07815
0.0666111
0.0571563
0.0497674
0.123884
0.10225
0.0853347
0.0719452
0.0612075
0.0526265
0.138339
0.113802
0.094621
0.0794503
0.0673205
0.0575453
0.14679
0.120667
0.100225
0.0840457
0.0711051
0.0606427
0.146776
0.120648
0.100203
0.0840202
0.0710787
0.0606114
0.170112
0.138313
0.11377
0.0945833
0.0794073
0.0672745
0.0574985
0.151923
0.123882
0.102249
0.0853343
0.0719449
0.0612073
0.0526264
0.134872
0.111171
0.0927156
0.0781955
0.0666509
0.0571661
0.0502524
0.175295
0.148944
0.128074
0.111414
0.0980348
0.0873578
0.0793632
0.144285
0.123161
0.106173
0.092326
0.0809628
0.0724325
0.117724
0.0977387
0.0820441
0.069571
0.0595408
0.0513204
0.138314
0.11377
0.0945832
0.0794068
0.0672737
0.0574969
0.158284
0.129958
0.107784
0.0902363
0.0762025
0.0648262
0.169487
0.139172
0.115394
0.0965498
0.0814535
0.0691336
0.169484
0.139168
0.115389
0.0965442
0.0814486
0.069131
0.19489
0.158284
0.129958
0.107784
0.0902363
0.0762025
0.0648269
0.170132
0.138339
0.113802
0.0946207
0.0794498
0.0673198
0.0575452
0.143551
0.117771
0.0977982
0.0821133
0.0696458
0.0596158
0.0513565
0.171054
0.144496
0.123471
0.106633
0.0930137
0.08192
0.0730611
0.14332
0.122181
0.105172
0.0913191
0.0799996
0.0716681
0.122268
0.101359
0.0849343
0.071874
0.0613786
0.0528966
0.146775
0.120648
0.100202
0.0840194
0.0710775
0.0606104
0.169483
0.139168
0.115389
0.0965438
0.0814483
0.0691307
0.182022
0.149547
0.124011
0.103735
0.0874599
0.074118
0.182022
0.149547
0.124011
0.103735
0.08746
0.0741181
0.208559
0.169487
0.139172
0.115394
0.0965496
0.0814532
0.0691334
0.18059
0.146791
0.120667
0.100225
0.0840452
0.0711043
0.0606422
0.149266
0.122294
0.101391
0.0849712
0.0719159
0.0614243
0.0529556
0.170005
0.143418
0.122322
0.105377
0.0916155
0.0804163
0.0721483
0.143415
0.122321
0.105376
0.0916145
0.080415
0.0721472
0.122291
0.101389
0.0849702
0.0719151
0.0614234
0.0529545
0.14679
0.120667
0.100225
0.0840454
0.0711048
0.0606426
0.169487
0.139172
0.115394
0.0965499
0.0814536
0.069134
0.182022
0.149547
0.124011
0.103735
0.0874601
0.0741183
0.182022
0.149547
0.124011
0.103735
0.0874601
0.0741181
0.208556
0.169483
0.139168
0.115389
0.096544
0.0814486
0.0691312
0.180578
0.146775
0.120648
0.100202
0.08402
0.0710786
0.0606119
0.149247
0.122269
0.10136
0.0849354
0.0718753
0.0613804
0.0528987
0.169939
0.143322
0.122183
0.105174
0.0913205
0.0800015
0.071671
0.144494
0.12347
0.106633
0.0930137
0.0819205
0.0730618
0.11777
0.0977978
0.0821136
0.0696465
0.0596168
0.0513575
0.138339
0.113802
0.0946216
0.0794511
0.0673216
0.0575472
0.158284
0.129959
0.107785
0.090237
0.0762033
0.0648279
0.169484
0.139168
0.115389
0.0965442
0.0814488
0.0691312
0.169487
0.139172
0.115394
0.0965497
0.0814534
0.0691337
0.19489
0.158284
0.129958
0.107784
0.0902366
0.0762028
0.0648275
0.170112
0.138313
0.11377
0.0945835
0.0794076
0.0672749
0.0574985
0.143513
0.117722
0.0977382
0.0820443
0.0695718
0.0595419
0.0513215
0.170908
0.144285
0.123161
0.106173
0.0923267
0.0809639
0.0724352
0.148943
0.128074
0.111415
0.0980359
0.0873598
0.0793672
0.111171
0.0927169
0.0781973
0.0666534
0.0571687
0.0502556
0.123884
0.102251
0.0853359
0.0719468
0.0612095
0.0526288
0.138315
0.113771
0.0945839
0.0794078
0.0672749
0.0574981
0.146776
0.120648
0.100202
0.0840196
0.0710779
0.0606106
0.14679
0.120667
0.100224
0.084045
0.0711042
0.0606419
0.170132
0.138339
0.113802
0.0946211
0.0794505
0.0673207
0.0575454
0.151923
0.123882
0.10225
0.085335
0.071946
0.0612085
0.0526275
0.134844
0.111134
0.0926725
0.0781498
0.0666115
0.0571563
0.0497682
0.175136
0.148708
0.127723
0.110882
0.0972167
0.0861144
0.0777865
0.173172
0.149951
0.13161
0.117135
0.106364
0.0991339
0.109775
0.0931932
0.0801444
0.0696298
0.0606386
0.0564931
0.111137
0.0926739
0.0781502
0.0666113
0.0571566
0.0497676
0.117724
0.0977387
0.0820439
0.0695708
0.0595406
0.0513199
0.122268
0.101359
0.0849341
0.0718738
0.0613785
0.0528965
0.122291
0.101389
0.0849702
0.0719151
0.0614235
0.0529547
0.143551
0.117771
0.0977984
0.0821139
0.0696467
0.0596169
0.0513576
0.134873
0.111171
0.0927167
0.0781971
0.0666531
0.0571682
0.0502538
0.131252
0.109771
0.0931913
0.0801432
0.0696287
0.0606374
0.0564919
0.202913
0.172989
0.149661
0.131108
0.116187
0.10454
0.0958752
0.27018
0.246143
0.22658
0.210957
0.201
0.192226
0.172991
0.149663
0.131109
0.116187
0.104539
0.0958755
0.148709
0.127724
0.110882
0.0972159
0.0861133
0.0777843
0.144285
0.123161
0.106172
0.0923252
0.0809615
0.0724303
0.143319
0.122181
0.105172
0.0913189
0.0799992
0.0716679
0.143414
0.12232
0.105376
0.0916149
0.0804158
0.0721489
0.171053
0.144496
0.123471
0.106634
0.0930146
0.0819216
0.0730644
0.175295
0.148944
0.128075
0.111415
0.0980364
0.0873602
0.0793663
0.203042
0.173173
0.14995
0.13161
0.117135
0.106364
0.0991346
0.299866
0.270176
0.246141
0.226579
0.210957
0.201003
0.192231
0.330933
0.266696
0.215101
0.187213
0.110839
0.0950156
0.0832173
0.0754996
0.0786305
0.070263
0.0635986
0.135498
0.113185
0.0942767
0.0811008
0.061172
0.0518697
0.0446287
0.0390665
0.049068
0.0419302
0.0363424
0.0975967
0.0814759
0.0695627
0.0538372
0.0436089
0.0364897
0.0455223
0.0396108
0.0344385
0.0786246
0.0681141
0.0599493
0.0503823
0.0420942
0.0358803
0.047943
0.0414667
0.036023
)
;

boundaryField
{
    inlet
    {
        type            fixedValue;
        value           nonuniform List<scalar> 0();
    }
    ami1
    {
        type            cyclicAMI;
        value           nonuniform List<scalar> 
100
(
0.13531
0.0864854
0.0739854
0.0704934
0.0727037
0.0772509
0.0875684
0.102944
0.0936941
0.135278
0.0937325
0.0617204
0.0513401
0.0489593
0.0506188
0.0510992
0.0493054
0.0489695
0.0617292
0.0864795
0.102956
0.0489656
0.0501798
0.0536107
0.0562903
0.0561627
0.0535888
0.0501966
0.051344
0.0739865
0.0875674
0.0493108
0.0535801
0.0600267
0.0637721
0.0636795
0.0600332
0.0536162
0.0489649
0.0705157
0.077252
0.0510989
0.0561621
0.0636821
0.0681111
0.0681113
0.0637723
0.0562925
0.05063
0.0727163
0.0727146
0.0506291
0.0562926
0.0637732
0.0681129
0.0681104
0.0636817
0.0561641
0.051101
0.0772541
0.070517
0.0489666
0.0536175
0.060034
0.0636813
0.0637715
0.0600334
0.0535822
0.0493126
0.0875686
0.0739922
0.0513435
0.0501818
0.0535795
0.0561601
0.0562912
0.0536116
0.0501794
0.0489659
0.102964
0.0864858
0.0617186
0.0489673
0.0493089
0.051099
0.0506375
0.0489465
0.0513352
0.0617194
0.0937367
0.135308
0.0937392
0.102967
0.0875696
0.0772543
0.0727175
0.0705231
0.07398
0.0864861
0.135313
)
;
    }
    walls
    {
        type            epsilonWallFunction;
        blending        stepwise;
        value           nonuniform List<scalar> 
283
(
0.299866
0.203042
0.175295
0.171054
0.170005
0.169939
0.170908
0.175136
0.202913
0.299866
0.270176
0.173172
0.148944
0.144496
0.143418
0.143322
0.144285
0.148708
0.172989
0.270176
0.24614
0.149949
0.128074
0.123471
0.122322
0.122183
0.123161
0.127723
0.149661
0.246141
0.226578
0.131607
0.111414
0.106633
0.105377
0.105174
0.106173
0.110882
0.131108
0.226579
0.210954
0.11713
0.0980348
0.0930137
0.0916155
0.0913205
0.0923267
0.0972167
0.116187
0.210957
0.200997
0.106357
0.0873578
0.08192
0.0804163
0.0800015
0.0809639
0.0861144
0.10454
0.201003
0.192209
0.0991244
0.0793632
0.0730611
0.0721483
0.071671
0.0724352
0.0777865
0.0958752
0.192231
0.170908
0.175136
0.202913
0.299866
0.27018
0.173173
0.148943
0.144495
0.143415
0.14332
0.144284
0.148708
0.172989
0.270176
0.246142
0.14995
0.128074
0.12347
0.122321
0.122181
0.12316
0.127723
0.149661
0.24614
0.226579
0.131609
0.111415
0.106633
0.105376
0.105172
0.106173
0.110882
0.131108
0.226578
0.210955
0.117133
0.0980355
0.0930135
0.0916145
0.0913195
0.0923264
0.097217
0.116187
0.210954
0.200996
0.106361
0.0873587
0.0819196
0.0804153
0.0800006
0.0809637
0.0861151
0.104538
0.200997
0.192225
0.0991313
0.0793638
0.0730574
0.0721464
0.0716694
0.0724357
0.0777864
0.0958662
0.192209
0.27018
0.17299
0.148709
0.144285
0.14332
0.143415
0.144494
0.148943
0.173172
0.27018
0.246142
0.149662
0.127724
0.123161
0.122181
0.122321
0.12347
0.128074
0.149951
0.246143
0.226579
0.131109
0.110883
0.106173
0.105172
0.105376
0.106633
0.111415
0.13161
0.22658
0.210955
0.116187
0.0972168
0.092326
0.0913191
0.0916145
0.0930137
0.0980359
0.117135
0.210957
0.200996
0.104538
0.0861146
0.0809628
0.0799996
0.080415
0.0819205
0.0873598
0.106364
0.201
0.192225
0.0958732
0.0777855
0.0724325
0.0716681
0.0721472
0.0730618
0.0793672
0.0991339
0.192226
0.171053
0.175295
0.203042
0.299866
0.27018
0.172991
0.148709
0.144285
0.143319
0.143414
0.144496
0.148944
0.173173
0.270176
0.246143
0.149663
0.127724
0.123161
0.122181
0.12232
0.123471
0.128075
0.14995
0.246141
0.22658
0.131109
0.110882
0.106172
0.105172
0.105376
0.106634
0.111415
0.13161
0.226579
0.210957
0.116187
0.0972159
0.0923252
0.0913189
0.0916149
0.0930146
0.0980364
0.117135
0.210957
0.201
0.104539
0.0861133
0.0809615
0.0799992
0.0804158
0.0819216
0.0873602
0.106364
0.201003
0.192226
0.0958755
0.0777843
0.0724303
0.0716679
0.0721489
0.0730644
0.0793663
0.0991346
0.192231
0.330933
0.110839
0.0786305
0.266696
0.0950156
0.070263
0.215101
0.0832173
0.0635986
0.187213
0.0754996
0.330933
0.135498
0.0975967
0.0786246
0.266696
0.113185
0.0814759
0.0681141
0.215101
0.0942767
0.0695627
0.0599493
0.187213
0.0811008
)
;
    }
    ami2
    {
        type            cyclicAMI;
        value           nonuniform List<scalar> 
12
(
0.203821
0.0986044
0.0940372
0.103915
0.0675047
0.0515986
0.0846726
0.0589562
0.0485406
0.0754097
0.0544766
0.0517666
)
;
    }
    outlet
    {
        type            zeroGradient;
    }
    procBoundary2to0
    {
        type            processor;
        value           nonuniform List<scalar> 
28
(
0.171354
0.0701796
0.0583937
0.0778289
0.063996
0.0583937
0.0565647
0.0721585
0.0607692
0.0351874
0.0316399
0.0313581
0.0469156
0.040433
0.0316399
0.0352454
0.0607692
0.0313581
0.0478406
0.0414336
0.0301117
0.0360792
0.0533734
0.0310116
0.0519407
0.0450289
0.0314591
0.0392087
)
;
    }
    procBoundary2to1
    {
        type            processor;
        value           nonuniform List<scalar> 9(0.0678699 0.0609066 0.0548355 0.0464817 0.0404369 0.0353585 0.0501896 0.0433182 0.0376455);
    }
    procBoundary2to3
    {
        type            processor;
        value           nonuniform List<scalar> 
110
(
0.29986
0.203041
0.175295
0.171055
0.170007
0.16994
0.16994
0.204922
0.208923
0.241367
0.336301
0.20291
0.131248
0.134872
0.143553
0.149268
0.149248
0.149248
0.177316
0.165899
0.15922
0.241434
0.175136
0.134841
0.151922
0.170132
0.180591
0.180579
0.180579
0.211893
0.188831
0.165922
0.209035
0.170908
0.143511
0.170111
0.19489
0.208559
0.208556
0.208556
0.242786
0.21191
0.177349
0.205025
0.16994
0.149247
0.180578
0.208556
0.223737
0.223737
0.223737
0.2595
0.224907
0.184599
0.203963
0.170007
0.149268
0.180591
0.208559
0.223737
0.223737
0.223737
0.259498
0.224897
0.184583
0.203916
0.171055
0.143553
0.170133
0.19489
0.208556
0.208559
0.208559
0.242786
0.211893
0.177316
0.204922
0.175295
0.134872
0.151922
0.170112
0.180578
0.18059
0.18059
0.21191
0.188831
0.165898
0.208923
0.203041
0.131248
0.134841
0.143511
0.149247
0.149267
0.149267
0.17735
0.165923
0.15922
0.241367
0.29986
0.20291
0.175136
0.170908
0.16994
0.170006
0.170006
0.205026
0.209036
0.241435
0.336301
)
;
    }
}


// ************************************************************************* //
