/*--------------------------------*- C++ -*----------------------------------*\
| =========                 |                                                 |
| \\      /  F ield         | OpenFOAM: The Open Source CFD Toolbox           |
|  \\    /   O peration     | Version:  2212                                  |
|   \\  /    A nd           | Website:  www.openfoam.com                      |
|    \\/     M anipulation  |                                                 |
\*---------------------------------------------------------------------------*/
FoamFile
{
    version     2.0;
    format      ascii;
    arch        "LSB;label=32;scalar=64";
    class       volScalarField;
    location    "2.85";
    object      nut;
}
// * * * * * * * * * * * * * * * * * * * * * * * * * * * * * * * * * * * * * //

dimensions      [0 2 -1 0 0 0 0];

internalField   nonuniform List<scalar> 
690
(
3.95768e-06
3.9205e-06
3.88603e-06
3.85185e-06
3.82053e-06
3.78951e-06
3.76032e-06
3.73227e-06
3.70367e-06
3.67606e-06
3.65009e-06
8.00608e-06
7.91861e-06
7.83229e-06
7.74775e-06
7.67015e-06
7.59703e-06
7.52803e-06
7.46343e-06
7.39946e-06
7.33707e-06
7.27812e-06
1.17863e-05
1.16482e-05
1.14983e-05
1.13557e-05
1.12272e-05
1.11069e-05
1.09947e-05
1.08864e-05
1.07829e-05
1.06747e-05
1.05743e-05
1.47757e-05
1.45518e-05
1.43436e-05
1.41479e-05
1.39644e-05
1.37937e-05
1.3631e-05
1.34637e-05
1.33077e-05
1.3166e-05
1.30283e-05
1.67045e-05
1.64217e-05
1.61576e-05
1.59108e-05
1.56843e-05
1.54697e-05
1.52673e-05
1.50773e-05
1.48983e-05
1.47337e-05
1.45605e-05
7.88734e-06
7.77547e-06
7.67959e-06
7.58706e-06
7.5034e-06
7.42355e-06
7.34889e-06
7.27833e-06
7.21006e-06
7.14423e-06
7.08376e-06
1.53373e-05
1.44384e-05
1.37713e-05
1.29708e-05
1.24008e-05
1.17727e-05
1.12449e-05
1.07484e-05
1.01502e-05
9.62146e-06
9.29035e-06
3.35934e-05
3.14728e-05
3.05012e-05
2.86301e-05
2.77426e-05
2.61808e-05
2.53258e-05
2.40822e-05
2.30094e-05
2.22712e-05
2.12566e-05
4.78593e-05
4.56988e-05
4.36698e-05
4.1713e-05
3.99174e-05
3.82591e-05
3.6598e-05
3.53989e-05
3.36572e-05
3.29836e-05
3.14506e-05
5.72478e-05
5.47646e-05
5.2437e-05
5.02604e-05
4.82292e-05
4.6331e-05
4.45533e-05
4.28886e-05
4.13558e-05
3.97227e-05
3.80816e-05
1.14635e-05
1.12958e-05
1.11451e-05
1.09841e-05
1.08424e-05
1.07105e-05
1.05919e-05
1.04768e-05
1.03691e-05
1.02649e-05
1.01686e-05
3.32983e-05
3.14365e-05
3.0266e-05
2.82788e-05
2.74768e-05
2.57136e-05
2.49269e-05
2.3449e-05
2.24407e-05
2.14774e-05
2.04142e-05
6.62372e-05
6.33998e-05
6.07123e-05
5.81716e-05
5.59837e-05
5.375e-05
5.14517e-05
4.89522e-05
4.67516e-05
4.49407e-05
4.2988e-05
8.99681e-05
8.65686e-05
8.3321e-05
8.023e-05
7.72737e-05
7.45059e-05
7.18232e-05
6.92504e-05
6.67274e-05
6.4416e-05
6.2351e-05
0.000103556
9.98479e-05
9.63272e-05
9.29795e-05
8.97915e-05
8.67589e-05
8.38708e-05
8.11141e-05
7.8495e-05
7.58936e-05
7.35393e-05
1.44442e-05
1.41998e-05
1.39739e-05
1.3764e-05
1.3571e-05
1.33917e-05
1.32254e-05
1.30698e-05
1.2928e-05
1.27866e-05
1.265e-05
4.96261e-05
4.75399e-05
4.55629e-05
4.36526e-05
4.18798e-05
4.01788e-05
3.85763e-05
3.704e-05
3.55901e-05
3.42277e-05
3.27683e-05
9.0629e-05
8.74053e-05
8.43019e-05
8.13324e-05
7.84947e-05
7.58283e-05
7.32479e-05
7.07143e-05
6.82621e-05
6.58953e-05
6.37158e-05
0.000118755
0.000114863
0.000111146
0.000107588
0.000104173
0.000100915
9.77886e-05
9.47945e-05
9.19229e-05
8.91186e-05
8.65797e-05
0.00013435
0.000130111
0.000126081
0.000122239
0.000118567
0.000115054
0.000111687
0.000108454
0.00010535
0.000102317
9.95346e-05
1.65e-05
1.62004e-05
1.59232e-05
1.56665e-05
1.54287e-05
1.52085e-05
1.5005e-05
1.48167e-05
1.46432e-05
1.44771e-05
1.43214e-05
5.90618e-05
5.6729e-05
5.45275e-05
5.24453e-05
5.04809e-05
4.86185e-05
4.68545e-05
4.51793e-05
4.35868e-05
4.20549e-05
4.05905e-05
0.000104519
0.000100994
9.76223e-05
9.44025e-05
9.1319e-05
8.83773e-05
8.55697e-05
8.28761e-05
8.02957e-05
7.7788e-05
7.54955e-05
0.000134523
0.000130356
0.00012639
0.000122615
0.000119017
0.00011558
0.000112289
0.00010912
0.000106068
0.000103099
0.000100353
0.00015125
0.0001467
0.000142384
0.000138278
0.000134362
0.000130618
0.000127031
0.000123587
0.000120274
0.000117068
0.000114082
0.000156697
0.000152023
0.000147592
0.000143376
0.000139354
0.000135508
0.000131821
0.000128279
0.000124868
0.000121562
0.000118482
1.73104e-05
1.69963e-05
1.67036e-05
1.6431e-05
1.61771e-05
1.5942e-05
1.57252e-05
1.55225e-05
1.53335e-05
1.51564e-05
1.49881e-05
6.1171e-05
5.86502e-05
5.63035e-05
5.41028e-05
5.20387e-05
5.00987e-05
4.82726e-05
4.65473e-05
4.49228e-05
4.33587e-05
4.18934e-05
0.00010839
0.00010466
0.000101126
9.77692e-05
9.45839e-05
9.15543e-05
8.86621e-05
8.5895e-05
8.32507e-05
8.06726e-05
7.83149e-05
0.000139444
0.000135129
0.000131034
0.000127139
0.000123426
0.000119879
0.000116485
0.00011323
0.000110105
0.000107073
0.000104262
0.00015669
0.000152021
0.000147597
0.000143392
0.000139385
0.000135557
0.000131892
0.000128375
0.000124995
0.000121725
0.000118667
0.000162298
0.000157503
0.000152961
0.000148645
0.000144531
0.0001406
0.000136835
0.000133221
0.000129744
0.00012638
0.000123229
1.67036e-05
1.64209e-05
1.61568e-05
1.59102e-05
1.56834e-05
1.54689e-05
1.52664e-05
1.50764e-05
1.48974e-05
1.47322e-05
1.45587e-05
5.72204e-05
5.47309e-05
5.24026e-05
5.02271e-05
4.82018e-05
4.63067e-05
4.45359e-05
4.28761e-05
4.13442e-05
3.97215e-05
3.80831e-05
0.000103514
9.97998e-05
9.62779e-05
9.2934e-05
8.97549e-05
8.67335e-05
8.38607e-05
8.11204e-05
7.85203e-05
7.59517e-05
7.35949e-05
0.000134325
0.000130084
0.000126056
0.000122221
0.000118559
0.000115062
0.000111715
0.000108507
0.000105429
0.000102432
9.96676e-05
0.000151236
0.000146688
0.000142374
0.000138271
0.000134359
0.000130621
0.000127044
0.00012361
0.000120311
0.000117122
0.00011415
0.000156687
0.000152017
0.00014759
0.000143381
0.000139368
0.000135532
0.000131859
0.000128333
0.000124943
0.00012166
0.000118597
1.47746e-05
1.45506e-05
1.43423e-05
1.41466e-05
1.3963e-05
1.37927e-05
1.36293e-05
1.34619e-05
1.33059e-05
1.31643e-05
1.30258e-05
1.28955e-05
4.78228e-05
4.56256e-05
4.36088e-05
4.16292e-05
3.98678e-05
3.8168e-05
3.65809e-05
3.53076e-05
3.35993e-05
3.29191e-05
3.12594e-05
3.06202e-05
8.99224e-05
8.6502e-05
8.32441e-05
8.01405e-05
7.71912e-05
7.44156e-05
7.17579e-05
6.9186e-05
6.66772e-05
6.43687e-05
6.23097e-05
0.000118741
0.000114837
0.00011111
0.000107547
0.000104129
0.000100877
9.77576e-05
9.47739e-05
9.19121e-05
8.91182e-05
8.65888e-05
0.000134529
0.000130357
0.000126386
0.000122606
0.000119004
0.000115567
0.000112277
0.000109109
0.00010606
0.000103094
0.000100353
0.000139457
0.000135142
0.000131043
0.00012714
0.000123418
0.000119861
0.000116457
0.000113189
0.00011005
0.000107
0.000104186
1.17852e-05
1.1646e-05
1.14955e-05
1.13532e-05
1.12249e-05
1.11045e-05
1.09925e-05
1.08838e-05
1.07799e-05
1.06716e-05
1.05708e-05
1.04794e-05
3.35648e-05
3.13828e-05
3.03998e-05
2.8502e-05
2.76248e-05
2.60394e-05
2.52234e-05
2.39136e-05
2.30324e-05
2.20464e-05
2.09843e-05
2.03972e-05
6.6236e-05
6.33258e-05
6.06345e-05
5.80151e-05
5.58583e-05
5.35797e-05
5.13369e-05
4.8792e-05
4.66661e-05
4.47869e-05
4.28269e-05
9.06341e-05
8.7391e-05
8.42675e-05
8.12866e-05
7.844e-05
7.57723e-05
7.3195e-05
7.06635e-05
6.82185e-05
6.58514e-05
6.36659e-05
0.00010452
0.000100991
9.76141e-05
9.43896e-05
9.13034e-05
8.836e-05
8.55522e-05
8.286e-05
8.02815e-05
7.77747e-05
7.54838e-05
0.000108385
0.000104662
0.000101128
9.77677e-05
9.45776e-05
9.1545e-05
8.8649e-05
8.58769e-05
8.32287e-05
8.06391e-05
7.82829e-05
8.00604e-06
7.91724e-06
7.8301e-06
7.74547e-06
7.66786e-06
7.59455e-06
7.52558e-06
7.46078e-06
7.39665e-06
7.33504e-06
7.27587e-06
7.22143e-06
1.5332e-05
1.44216e-05
1.37183e-05
1.29352e-05
1.23471e-05
1.17202e-05
1.11892e-05
1.06904e-05
1.00964e-05
9.59585e-06
9.19878e-06
8.87918e-06
3.34137e-05
3.1476e-05
3.02893e-05
2.82887e-05
2.74755e-05
2.57065e-05
2.49061e-05
2.34475e-05
2.23881e-05
2.147e-05
2.03939e-05
4.96697e-05
4.75727e-05
4.5591e-05
4.36768e-05
4.19022e-05
4.0198e-05
3.85934e-05
3.70564e-05
3.56075e-05
3.4245e-05
3.28311e-05
5.90508e-05
5.6722e-05
5.4524e-05
5.24444e-05
5.04821e-05
4.86213e-05
4.68581e-05
4.51847e-05
4.35959e-05
4.20666e-05
4.0609e-05
6.11389e-05
5.86238e-05
5.62814e-05
5.4084e-05
5.20222e-05
5.0084e-05
4.82602e-05
4.65348e-05
4.49114e-05
4.33471e-05
4.18791e-05
3.95737e-06
3.91981e-06
3.88519e-06
3.851e-06
3.81962e-06
3.78852e-06
3.75937e-06
3.73121e-06
3.70267e-06
3.6756e-06
3.64953e-06
3.62485e-06
7.89063e-06
7.77483e-06
7.67883e-06
7.58623e-06
7.50241e-06
7.42228e-06
7.34756e-06
7.2771e-06
7.20857e-06
7.14341e-06
7.08324e-06
7.02574e-06
1.14698e-05
1.13e-05
1.11477e-05
1.09861e-05
1.08444e-05
1.07123e-05
1.05934e-05
1.04787e-05
1.03709e-05
1.0267e-05
1.01706e-05
1.44491e-05
1.42036e-05
1.39769e-05
1.37667e-05
1.35735e-05
1.3394e-05
1.32277e-05
1.30724e-05
1.2931e-05
1.27894e-05
1.26529e-05
1.65019e-05
1.62018e-05
1.59243e-05
1.56674e-05
1.54296e-05
1.52094e-05
1.5006e-05
1.48181e-05
1.46446e-05
1.44798e-05
1.43211e-05
1.73114e-05
1.69969e-05
1.67039e-05
1.6431e-05
1.61769e-05
1.59417e-05
1.57248e-05
1.55223e-05
1.53334e-05
1.51569e-05
1.49879e-05
)
;

boundaryField
{
    inlet
    {
        type            calculated;
        value           nonuniform List<scalar> 0();
    }
    ami1
    {
        type            cyclicAMI;
        value           nonuniform List<scalar> 0();
    }
    walls
    {
        type            nutkWallFunction;
        blending        stepwise;
        value           uniform 0;
    }
    ami2
    {
        type            cyclicAMI;
        value           nonuniform List<scalar> 0();
    }
    outlet
    {
        type            calculated;
        value           nonuniform List<scalar> 0();
    }
    procBoundary8to0
    {
        type            processor;
        value           nonuniform List<scalar> 
29
(
3.99445e-06
8.09804e-06
1.19441e-05
1.50242e-05
1.70169e-05
7.97516e-06
1.68305e-05
3.5224e-05
5.044e-05
6.005e-05
1.16368e-05
3.54383e-05
6.95487e-05
9.36392e-05
0.000107403
1.47112e-05
5.20459e-05
9.41575e-05
0.000122841
0.000138753
1.683e-05
6.16471e-05
0.000108231
0.000138872
0.000156006
0.000161587
0.000143948
0.000161586
0.000167332
)
;
    }
    procBoundary8to1
    {
        type            processor;
        value           nonuniform List<scalar> 
33
(
1.76562e-05
6.39352e-05
0.000112261
1.7016e-05
6.00182e-05
0.000107378
0.000138746
0.000156006
0.00016159
1.50241e-05
5.03898e-05
9.35897e-05
0.000122822
0.00013887
0.00014394
1.19466e-05
3.51507e-05
6.95115e-05
9.41503e-05
0.000108204
0.000112227
8.1016e-06
1.68636e-05
3.55927e-05
5.21381e-05
6.1649e-05
6.39202e-05
3.99521e-06
7.97972e-06
1.16467e-05
1.47194e-05
1.68328e-05
1.76574e-05
)
;
    }
    procBoundary8to7
    {
        type            processor;
        value           nonuniform List<scalar> 
68
(
3.62345e-06
7.22132e-06
1.0482e-05
1.28971e-05
1.43994e-05
7.02219e-06
8.64817e-06
2.0436e-05
3.06906e-05
3.67345e-05
1.00703e-05
1.93845e-05
4.14941e-05
6.08742e-05
7.11144e-05
1.25192e-05
3.15551e-05
6.13069e-05
8.38827e-05
9.65222e-05
1.4182e-05
3.90246e-05
7.29837e-05
9.73939e-05
0.000110844
0.000115126
1.48439e-05
4.02027e-05
7.57953e-05
0.000101248
0.000115368
0.000119806
1.43978e-05
1.43978e-05
3.66879e-05
3.66879e-05
7.12403e-05
9.67273e-05
0.000110951
0.000115274
1.27715e-05
2.89727e-05
6.08261e-05
6.08261e-05
8.39419e-05
9.74071e-05
0.000101131
1.03966e-05
1.92049e-05
4.1424e-05
4.1424e-05
6.13249e-05
7.29904e-05
7.57406e-05
7.16862e-06
8.28135e-06
1.93572e-05
1.93572e-05
3.15387e-05
3.90458e-05
4.01871e-05
3.59947e-06
6.96757e-06
1.00707e-05
1.00707e-05
1.25223e-05
1.41841e-05
1.48434e-05
)
;
    }
    procBoundary8to9
    {
        type            processor;
        value           nonuniform List<scalar> 
132
(
1.73129e-05
1.6998e-05
1.67047e-05
1.64317e-05
1.61776e-05
1.59424e-05
1.57257e-05
1.55231e-05
1.53342e-05
1.51575e-05
1.49899e-05
6.11768e-05
5.86557e-05
5.63058e-05
5.41021e-05
5.2034e-05
5.00902e-05
4.82597e-05
4.65282e-05
4.48978e-05
4.33272e-05
4.1848e-05
0.000108396
0.000104673
0.000101136
9.77723e-05
9.45769e-05
9.15362e-05
8.86306e-05
8.58458e-05
8.31828e-05
8.05752e-05
7.82102e-05
0.000139452
0.000135136
0.000131034
0.000127127
0.000123397
0.00011983
0.000116411
0.000113125
0.000109965
0.000106888
0.000104055
0.000139452
0.000135136
0.000131034
0.000127127
0.000123397
0.00011983
0.000116411
0.000113125
0.000109965
0.000106888
0.000104055
0.000151243
0.00014669
0.00014237
0.00013826
0.000134338
0.000130587
0.000126993
0.00012354
0.000120217
0.000116999
0.000114008
0.000156691
0.000152018
0.000147589
0.000143378
0.000139362
0.000135523
0.000131845
0.000128313
0.000124914
0.000121622
0.000118549
0.000151238
0.000146685
0.000142366
0.000138256
0.000134335
0.000130586
0.000126993
0.000123542
0.000120221
0.000117004
0.000114017
0.000134347
0.000130102
0.000126067
0.000122222
0.00011855
0.000115039
0.000111676
0.000108447
0.000105348
0.000102321
9.95473e-05
0.000103535
9.98189e-05
9.629e-05
9.29389e-05
8.97519e-05
8.67244e-05
8.38427e-05
8.10913e-05
7.84833e-05
7.5881e-05
7.35477e-05
5.71989e-05
5.47122e-05
5.23815e-05
5.02077e-05
4.81799e-05
4.62858e-05
4.45186e-05
4.28452e-05
4.13359e-05
3.96638e-05
3.81035e-05
1.67028e-05
1.64197e-05
1.61553e-05
1.59087e-05
1.56818e-05
1.54673e-05
1.52648e-05
1.50751e-05
1.4896e-05
1.47313e-05
1.45576e-05
)
;
    }
}


// ************************************************************************* //
