/*--------------------------------*- C++ -*----------------------------------*\
| =========                 |                                                 |
| \\      /  F ield         | OpenFOAM: The Open Source CFD Toolbox           |
|  \\    /   O peration     | Version:  2212                                  |
|   \\  /    A nd           | Website:  www.openfoam.com                      |
|    \\/     M anipulation  |                                                 |
\*---------------------------------------------------------------------------*/
FoamFile
{
    version     2.0;
    format      ascii;
    arch        "LSB;label=32;scalar=64";
    class       volScalarField;
    location    "2.95";
    object      k;
}
// * * * * * * * * * * * * * * * * * * * * * * * * * * * * * * * * * * * * * //

dimensions      [0 2 -2 0 0 0 0];

internalField   nonuniform List<scalar> 
689
(
0.00280683
0.00272566
0.00265865
0.00259651
0.00253908
0.00249043
0.00244515
0.00240416
0.00261704
0.0025312
0.00245529
0.00238258
0.00231178
0.00225077
0.00219507
0.00214798
0.0029913
0.00284032
0.00271314
0.00260253
0.00250548
0.00241913
0.00233975
0.00226785
0.00220251
0.00403036
0.00369928
0.00343772
0.0032243
0.00304376
0.00289036
0.00275583
0.00263629
0.00252913
0.00243254
0.00234495
0.00226488
0.00412435
0.00383951
0.00358972
0.00337095
0.00317881
0.0030094
0.00286034
0.00272755
0.00260757
0.00249875
0.0023997
0.00230897
0.00423678
0.00394171
0.00368063
0.00345004
0.00324602
0.00306488
0.00290411
0.0027614
0.00263251
0.00251521
0.0024085
0.00231117
0.00430587
0.00397457
0.00368864
0.00344159
0.00322418
0.00303198
0.00286264
0.00271279
0.00257927
0.00245981
0.00235271
0.00225636
0.00422884
0.00385821
0.00354278
0.00329204
0.00307183
0.00288139
0.00271872
0.00257854
0.00245664
0.00234905
0.00225358
0.002168
0.00401539
0.00363045
0.00328357
0.00302988
0.00282943
0.00266668
0.00253287
0.00242169
0.00232332
0.00223558
0.00215749
0.00370202
0.00334836
0.0030325
0.00280284
0.0026386
0.00251821
0.00242244
0.00233752
0.00225892
0.00219079
0.00213364
0.00372261
0.00338577
0.00310132
0.00292264
0.00280798
0.00272979
0.00266416
0.0026017
0.00254317
0.00249133
0.00244709
0.00263804
0.00251376
0.00241613
0.00233075
0.00225319
0.00218832
0.00213023
0.00208198
0.00303148
0.00286013
0.00270098
0.00254008
0.00238602
0.00226149
0.00214243
0.00204739
0.00442321
0.00408223
0.00378472
0.00352148
0.00328746
0.00307919
0.00289031
0.0027212
0.00256625
0.00682486
0.00616861
0.00561009
0.00513337
0.00472351
0.00436721
0.00405173
0.00377028
0.00351818
0.00329191
0.00308864
0.00290574
0.00729732
0.00662006
0.0060326
0.00552137
0.00507457
0.00468192
0.00433935
0.00403706
0.00376513
0.00351983
0.00329886
0.00309944
0.00748061
0.00678786
0.00618346
0.00565608
0.00519485
0.00478971
0.00443406
0.00412367
0.00384754
0.00359794
0.0033725
0.00316888
0.00728391
0.00660369
0.00601166
0.00549724
0.00504934
0.00465783
0.00431752
0.00401982
0.00375362
0.0035139
0.00329799
0.00310318
0.00671255
0.00605173
0.00549691
0.0050296
0.00462957
0.00428497
0.00398485
0.0037181
0.003479
0.00326365
0.00306949
0.00289239
0.00577786
0.00515043
0.00466429
0.00427453
0.00395357
0.00367964
0.00343969
0.0032207
0.00302073
0.00283833
0.00267418
0.00449696
0.00387991
0.00350368
0.00325007
0.00305202
0.00287964
0.00271961
0.00255819
0.00239827
0.00226553
0.00215715
0.003382
0.003075
0.00286914
0.0027262
0.00262053
0.00253591
0.0024605
0.00238791
0.00231644
0.00225237
0.00219901
0.00303598
0.00283206
0.00266657
0.00253134
0.0024191
0.00232132
0.00223461
0.00215706
0.00208771
0.00426541
0.00394667
0.00367427
0.00343486
0.00321598
0.00301815
0.00283736
0.00267182
0.00252204
0.00570835
0.0052574
0.0048631
0.00451473
0.004204
0.00392467
0.00367234
0.00344331
0.00323571
0.00886071
0.0080681
0.00736606
0.00674775
0.00620306
0.00572243
0.00529691
0.00491827
0.00457969
0.00427542
0.00400064
0.00375186
0.00974515
0.00884242
0.00805489
0.00736606
0.00676134
0.0062283
0.0057565
0.0053377
0.00496437
0.00462978
0.0043284
0.00405598
0.010018
0.00908376
0.00827148
0.00756179
0.00693901
0.00639014
0.00590439
0.00547317
0.00508931
0.00474592
0.00443708
0.00415817
0.00967167
0.00878231
0.00800546
0.00732481
0.00672662
0.00619912
0.00573231
0.00531806
0.00494915
0.00461887
0.00432175
0.0040533
0.00881844
0.00801097
0.00730529
0.00668885
0.00614919
0.00567488
0.00525616
0.00488442
0.00455233
0.00425392
0.00398487
0.00374057
0.0075368
0.00684158
0.00623638
0.00571432
0.00526212
0.00486676
0.00451765
0.00420636
0.00392651
0.00367335
0.00344505
0.00588356
0.00530149
0.00481991
0.00442342
0.0040831
0.00378585
0.00352316
0.00328951
0.00308152
0.00289231
0.00272558
0.00386516
0.00347056
0.00318852
0.00299281
0.00284047
0.00271253
0.00260206
0.00250568
0.0024198
0.00234098
0.00226792
0.00329416
0.00307431
0.00288289
0.00271905
0.00257816
0.00245595
0.00234851
0.00225347
0.00216863
0.00502884
0.00462886
0.00428439
0.00398445
0.00371766
0.00347876
0.00326394
0.00306969
0.00289455
0.00668163
0.00614445
0.00567163
0.00525389
0.00488288
0.00455137
0.00425349
0.00398466
0.00374138
0.0104208
0.00947651
0.00864972
0.0079232
0.00728253
0.0067157
0.0062125
0.00576417
0.00536317
0.00500311
0.00467859
0.0043851
0.011459
0.0104088
0.00949239
0.00868863
0.00798059
0.00735429
0.00679815
0.00630255
0.00585936
0.0054616
0.00510334
0.00477959
0.0117943
0.0107126
0.00976836
0.00894034
0.00821095
0.00756571
0.00699268
0.0064819
0.00602511
0.00561522
0.00524615
0.00491276
0.011443
0.0103923
0.00947763
0.00867632
0.00797066
0.00734645
0.0067921
0.00629802
0.00585613
0.00545954
0.00510236
0.00477961
0.0104228
0.00947983
0.00865326
0.00792627
0.00728497
0.00671753
0.00621382
0.00576508
0.00536376
0.00500344
0.00467875
0.00438493
0.0088634
0.00807318
0.00737066
0.00675116
0.00620553
0.00572418
0.00529816
0.00491915
0.00458031
0.0042758
0.00400101
0.00682592
0.00616893
0.00560998
0.00513298
0.00472291
0.00436671
0.00405138
0.00377005
0.00351807
0.0032918
0.00308898
0.00402921
0.00369779
0.00343669
0.00322325
0.00304331
0.00289009
0.00275573
0.00263631
0.00252922
0.00243257
0.0023447
0.00344044
0.00322311
0.00303113
0.00286207
0.00271239
0.00257888
0.00245946
0.00235249
0.00225637
0.00549662
0.00504846
0.00465691
0.00431706
0.00401971
0.00375366
0.00351413
0.00329834
0.00310389
0.00732009
0.00672387
0.00619745
0.00573129
0.00531751
0.00494895
0.00461895
0.00432203
0.00405384
0.0114416
0.0103919
0.00947734
0.00867603
0.00797038
0.0073462
0.00679191
0.0062979
0.00585611
0.00545962
0.00510253
0.00477988
0.0125053
0.0113736
0.0103819
0.00950951
0.00873902
0.00805595
0.00744819
0.00690557
0.00641953
0.00598275
0.00558903
0.00523311
0.0128566
0.0116984
0.0106827
0.00978801
0.0089969
0.00829482
0.00766961
0.00711101
0.00661035
0.00616023
0.00575434
0.00538738
0.0125053
0.0113735
0.0103816
0.00950917
0.00873868
0.00805564
0.00744791
0.00690534
0.00641932
0.00598256
0.00558886
0.00523295
0.0114594
0.0104093
0.00949267
0.00868876
0.00798062
0.00735427
0.00679811
0.0063025
0.00585931
0.00546155
0.00510328
0.00477958
0.00974585
0.00884294
0.00805533
0.00736636
0.00676152
0.00622835
0.0057565
0.00533769
0.00496433
0.0046297
0.00432829
0.00729738
0.00662033
0.00603282
0.00552141
0.0050744
0.00468157
0.00433892
0.00403656
0.00376458
0.00351925
0.00329818
0.0041242
0.00383954
0.00358969
0.00337082
0.00317857
0.00300909
0.00285999
0.00272718
0.00260719
0.00249833
0.00239889
0.0117945
0.010713
0.00976871
0.00894053
0.00821102
0.00756575
0.00699272
0.00648199
0.00602527
0.00561544
0.00524641
0.00491305
0.0128574
0.0116992
0.0106833
0.00978851
0.00899729
0.00829514
0.00766987
0.00711124
0.00661056
0.00616043
0.00575454
0.00538756
0.0132135
0.0120317
0.0109927
0.0100761
0.00926455
0.00854352
0.00790084
0.00732617
0.00681075
0.00634708
0.00592877
0.00555044
0.0128573
0.0116992
0.0106832
0.00978818
0.00899686
0.00829467
0.00766943
0.00711084
0.00661021
0.00616013
0.00575429
0.00538736
0.0117935
0.0107115
0.00976719
0.00893918
0.0082099
0.00756483
0.00699197
0.00648136
0.00602473
0.00561497
0.00524599
0.00491276
0.0100167
0.0090819
0.00826956
0.00756005
0.00693753
0.00638894
0.00590346
0.00547248
0.0050888
0.00474554
0.00443678
0.0074803
0.00678714
0.00618246
0.00565492
0.00519362
0.00478852
0.00443301
0.00412271
0.0038466
0.00359704
0.0033715
0.0042366
0.00394132
0.00368004
0.00344931
0.00324525
0.00306412
0.00290338
0.0027607
0.00263179
0.00251445
0.00240742
)
;

boundaryField
{
    inlet
    {
        type            fixedValue;
        value           nonuniform List<scalar> 0();
    }
    ami1
    {
        type            cyclicAMI;
        value           nonuniform List<scalar> 0();
    }
    walls
    {
        type            kqRWallFunction;
        value           nonuniform List<scalar> 
227
(
0.00403036
0.00412435
0.00423678
0.00430587
0.00422884
0.00401539
0.00370202
0.00372261
0.00369928
0.00383951
0.00394171
0.00397457
0.00385821
0.00363045
0.00334836
0.00338577
0.00343772
0.00358972
0.00368063
0.00368864
0.00354278
0.00328357
0.0030325
0.00310132
0.0029913
0.0032243
0.00337095
0.00345004
0.00344159
0.00329204
0.00302988
0.00280284
0.00292264
0.00280683
0.00261704
0.00284032
0.00304376
0.00317881
0.00324602
0.00322418
0.00307183
0.00282943
0.0026386
0.00280798
0.00272566
0.0025312
0.00271314
0.00289036
0.0030094
0.00306488
0.00303198
0.00288139
0.00266668
0.00251821
0.00272979
0.00265865
0.00245529
0.00260253
0.00275583
0.00286034
0.00290411
0.00286264
0.00271872
0.00253287
0.00242244
0.00266416
0.00259651
0.00238258
0.00250548
0.00263629
0.00272755
0.0027614
0.00271279
0.00257854
0.00242169
0.00233752
0.0026017
0.00253908
0.00231178
0.00241913
0.00252913
0.00260757
0.00263251
0.00257927
0.00245664
0.00232332
0.00225892
0.00254317
0.00249043
0.00225077
0.00233975
0.00243254
0.00249875
0.00251521
0.00245981
0.00234905
0.00223558
0.00219079
0.00249133
0.00244515
0.00219507
0.00226785
0.00234495
0.0023997
0.0024085
0.00235271
0.00225358
0.00215749
0.00213364
0.00244709
0.00240416
0.00214798
0.00220251
0.00226488
0.00230897
0.00231117
0.00225636
0.002168
0.00372261
0.003382
0.00386516
0.00402921
0.0041242
0.0042366
0.00338577
0.003075
0.00347056
0.00369779
0.00383954
0.00394132
0.00310132
0.00286914
0.00318852
0.00343669
0.00358969
0.00368004
0.00292264
0.0027262
0.00299281
0.00322325
0.00337082
0.00344931
0.00280798
0.00262053
0.00284047
0.00304331
0.00317857
0.00324525
0.00272979
0.00253591
0.00271253
0.00289009
0.00300909
0.00306412
0.00266416
0.0024605
0.00260206
0.00275573
0.00285999
0.00290338
0.0026017
0.00238791
0.00250568
0.00263631
0.00272718
0.0027607
0.00254317
0.00231644
0.0024198
0.00252922
0.00260719
0.00263179
0.00249133
0.00225237
0.00234098
0.00243257
0.00249833
0.00251445
0.00244709
0.00219901
0.00226792
0.0023447
0.00239889
0.00240742
0.00303598
0.00329416
0.00344044
0.00280683
0.00263804
0.00283206
0.00307431
0.00322311
0.00272566
0.00251376
0.00266657
0.00288289
0.00303113
0.00265865
0.00241613
0.00253134
0.00271905
0.00286207
0.00259651
0.00233075
0.0024191
0.00257816
0.00271239
0.00253908
0.00225319
0.00232132
0.00245595
0.00257888
0.00249043
0.00218832
0.00223461
0.00234851
0.00245946
0.00244515
0.00213023
0.00215706
0.00225347
0.00235249
0.00240416
0.00208198
0.00208771
0.00216863
0.00225637
)
;
    }
    ami2
    {
        type            cyclicAMI;
        value           nonuniform List<scalar> 
48
(
0.00423077
0.00428192
0.00440071
0.00450007
0.00443761
0.0042106
0.00385452
0.00366198
0.0071937
0.00768575
0.0078743
0.00766095
0.00707159
0.00610822
0.00478539
0.00353468
0.00929951
0.0102644
0.0105629
0.0101815
0.00927482
0.00792504
0.00619946
0.00407523
0.0109623
0.0120652
0.012417
0.0120518
0.0109635
0.00930095
0.00719413
0.00423014
0.012051
0.0131543
0.0135185
0.0131543
0.0120656
0.0102648
0.00768573
0.00428181
0.0124171
0.013519
0.0138872
0.013519
0.0124167
0.0105622
0.00787412
0.00440056
)
;
    }
    outlet
    {
        type            zeroGradient;
    }
    procBoundary0to1
    {
        type            processor;
        value           nonuniform List<scalar> 
138
(
0.00368968
0.00345033
0.0032459
0.00306454
0.00290369
0.00276094
0.002632
0.00251467
0.00240796
0.00231064
0.00601328
0.00565655
0.00519496
0.0047896
0.00443399
0.00412361
0.00384739
0.00359776
0.00337233
0.00316877
0.00966724
0.0087786
0.00800214
0.00800214
0.00756153
0.00693858
0.00638974
0.00590411
0.00547303
0.0050893
0.00474602
0.00443725
0.00415841
0.0100186
0.00908449
0.00827193
0.00756153
0.00693858
0.00638974
0.00590411
0.00547303
0.0050893
0.00474602
0.00443725
0.00415841
0.0114609
0.0104098
0.00949292
0.00868901
0.00798088
0.00735454
0.00679837
0.00630276
0.00585956
0.0054618
0.00510353
0.00477975
0.0125063
0.0113743
0.0103824
0.00950991
0.00873935
0.00805624
0.00744844
0.00690581
0.00641975
0.00598296
0.00558923
0.00523328
0.0128572
0.0116996
0.0106838
0.00978895
0.00899761
0.00829535
0.00767001
0.00711133
0.00661062
0.00616047
0.00575456
0.00538757
0.0125065
0.0113741
0.010382
0.00950935
0.00873877
0.0080557
0.00744797
0.00690541
0.0064194
0.00598266
0.00558896
0.00523305
0.0114445
0.0103931
0.00947787
0.00867619
0.00797032
0.00734604
0.0067917
0.00629769
0.00585589
0.00545938
0.00510228
0.00477957
0.00967126
0.00878196
0.00800514
0.00732442
0.00672615
0.00619861
0.00573183
0.00531767
0.00494888
0.00461869
0.00432165
0.00728293
0.00660271
0.00601065
0.00549628
0.00504846
0.00465698
0.00431691
0.00401936
0.00375321
0.00351352
0.00329776
0.00430478
0.00397321
0.00368728
0.00344043
0.00322329
0.00303131
0.00286219
0.00271246
0.002579
0.00245955
0.00235229
)
;
    }
    procBoundary0to2
    {
        type            processor;
        value           nonuniform List<scalar> 
28
(
0.00292345
0.00272677
0.00272677
0.00386674
0.00347149
0.00318877
0.00318877
0.00280464
0.00280464
0.00325816
0.00325816
0.00325816
0.00588702
0.00530293
0.00481987
0.00481987
0.00327996
0.00467292
0.00753808
0.00684223
0.00623613
0.00623613
0.00354047
0.00549795
0.00881444
0.00800847
0.00730287
0.00730287
)
;
    }
    procBoundary0to8
    {
        type            processor;
        value           nonuniform List<scalar> 
29
(
0.00236037
0.00209943
0.00214377
0.00219037
0.0022249
0.00203367
0.00193318
0.00242621
0.00273897
0.00291925
0.00202533
0.0023773
0.0030433
0.00352542
0.00380945
0.00209109
0.00273207
0.00351905
0.0041186
0.0044864
0.00216921
0.00292724
0.0038105
0.00448747
0.00491065
0.00505502
0.00461112
0.00505503
0.00520765
)
;
    }
    procBoundary0to9
    {
        type            processor;
        value           nonuniform List<scalar> 
40
(
0.00222161
0.00216903
0.00209017
0.0020865
0.0020865
0.00208111
0.0024026
0.00298512
0.00292634
0.00272949
0.00251432
0.00251432
0.00203906
0.00214726
0.00390595
0.00380982
0.00351778
0.00323335
0.00323335
0.00256006
0.00220173
0.00461103
0.00448714
0.00411816
0.00375153
0.00375153
0.0029045
0.00226323
0.00491056
0.00448623
0.00405628
0.00405628
0.00309892
0.00230694
0.00505497
0.00461095
0.00415846
0.00415846
0.00316835
0.00230914
)
;
    }
}


// ************************************************************************* //
