/*--------------------------------*- C++ -*----------------------------------*\
| =========                 |                                                 |
| \\      /  F ield         | OpenFOAM: The Open Source CFD Toolbox           |
|  \\    /   O peration     | Version:  2212                                  |
|   \\  /    A nd           | Website:  www.openfoam.com                      |
|    \\/     M anipulation  |                                                 |
\*---------------------------------------------------------------------------*/
FoamFile
{
    version     2.0;
    format      ascii;
    arch        "LSB;label=32;scalar=64";
    class       volScalarField;
    location    "2.95";
    object      p;
}
// * * * * * * * * * * * * * * * * * * * * * * * * * * * * * * * * * * * * * //

dimensions      [0 2 -2 0 0 0 0];

internalField   nonuniform List<scalar> 
689
(
0.00430527
0.00416989
0.00403452
0.003901
0.00376612
0.00363059
0.00349575
0.00336335
0.00434054
0.00419922
0.00405875
0.0039198
0.00377996
0.00364016
0.00350147
0.00336587
0.00448989
0.00434907
0.00420576
0.00406046
0.0039162
0.00377358
0.00363269
0.00349378
0.00335658
0.00496455
0.00483088
0.00465827
0.00450076
0.00435579
0.00421168
0.00406724
0.00392394
0.00378213
0.00364175
0.00350306
0.00336615
0.00496464
0.00482241
0.00466206
0.00450273
0.00435009
0.00420166
0.00405612
0.00391407
0.00377468
0.00363661
0.00349968
0.00336424
0.00499845
0.00483501
0.00466611
0.00450217
0.00434638
0.00419672
0.00405102
0.00390932
0.00377108
0.00363442
0.00349851
0.00336357
0.00506541
0.00487746
0.00468171
0.00450647
0.00434681
0.0041945
0.00404716
0.00390485
0.00376636
0.00362957
0.0034939
0.00335955
0.00516194
0.00493681
0.00469749
0.00450145
0.00433417
0.00417971
0.004033
0.00389212
0.00375485
0.00361941
0.00348552
0.00335294
0.00527984
0.00496747
0.00466575
0.00445882
0.00429451
0.00414466
0.00400352
0.00386851
0.00373653
0.00360552
0.0034755
0.00537381
0.00491746
0.00455587
0.00438591
0.00426327
0.00413483
0.00400602
0.00387874
0.00374997
0.00361893
0.00348959
0.00534848
0.00485998
0.00455517
0.0044215
0.00430367
0.00417068
0.00403568
0.00390199
0.00376725
0.00363103
0.00349745
0.00426544
0.00413425
0.00400475
0.0038775
0.0037486
0.00361821
0.00348753
0.00335876
0.00431584
0.00417713
0.00404198
0.00390835
0.00377464
0.0036407
0.00350724
0.00337462
0.00446354
0.00431716
0.00417711
0.00403806
0.00390003
0.00376381
0.00362872
0.00349435
0.00335995
0.00490781
0.00475838
0.00461603
0.0044684
0.00432443
0.00418369
0.00404437
0.00390679
0.00377055
0.00363508
0.00350027
0.00336633
0.00495559
0.00479148
0.00463765
0.00448846
0.00434181
0.00419758
0.00405532
0.00391494
0.00377635
0.0036394
0.00350389
0.00336961
0.00497237
0.00481176
0.00466369
0.0045141
0.00436439
0.00421734
0.00407281
0.00392983
0.00378841
0.0036492
0.00351209
0.00337655
0.00499239
0.00484166
0.00469832
0.00454355
0.00438793
0.0042359
0.0040868
0.00393999
0.00379587
0.00365451
0.00351536
0.00337797
0.00502925
0.0048829
0.00472755
0.00455913
0.00439476
0.00423597
0.00408135
0.00393138
0.0037861
0.00364456
0.00350525
0.00336791
0.00506065
0.00488101
0.00469835
0.0045238
0.00435976
0.00420288
0.00405188
0.00390582
0.00376435
0.00362716
0.00349147
0.00510453
0.00483522
0.00461426
0.00445739
0.00431661
0.00417813
0.00404276
0.00390889
0.00377514
0.00364118
0.00350844
0.00519013
0.004848
0.00460171
0.00446646
0.00433893
0.00420038
0.00406027
0.00392101
0.00378114
0.0036406
0.00350321
0.00445953
0.00429431
0.00414362
0.0040024
0.00386761
0.00373588
0.00360513
0.0034748
0.00334522
0.00452236
0.00435779
0.00420208
0.00405158
0.00390578
0.00376456
0.0036272
0.0034923
0.00335803
0.00448339
0.00432322
0.00416964
0.00402103
0.00387633
0.0037354
0.00359762
0.0034619
0.00332732
0.00484467
0.00470239
0.0045866
0.00444755
0.00430029
0.00415485
0.00401159
0.0038705
0.00373172
0.00359495
0.00345974
0.00332577
0.00488728
0.00472987
0.00458968
0.00444538
0.00429915
0.004155
0.00401279
0.00387151
0.00373181
0.00359439
0.00345899
0.00332516
0.00491191
0.00474874
0.00460358
0.00445772
0.00431067
0.00416587
0.00402338
0.00388167
0.00374063
0.00360159
0.00346495
0.00333009
0.00491122
0.00475773
0.00462456
0.00447868
0.00432833
0.00418067
0.0040351
0.00389046
0.0037472
0.00360654
0.00346838
0.00333227
0.00491083
0.0047688
0.0046464
0.00449642
0.00433946
0.00418629
0.00403625
0.00388843
0.00374386
0.0036033
0.00346508
0.0033289
0.00489933
0.00475811
0.00463813
0.00448468
0.00432384
0.00416973
0.00402114
0.00387629
0.00373501
0.00359695
0.00345995
0.00493996
0.00476639
0.00461668
0.00446467
0.00431894
0.00417774
0.00403825
0.00389999
0.00376347
0.00362847
0.00349315
0.00503765
0.00485743
0.0046504
0.00448965
0.00434946
0.00420655
0.0040612
0.0039167
0.00377391
0.00363292
0.00349462
0.00450161
0.00433421
0.00417936
0.00403241
0.00389151
0.00375432
0.00361898
0.00348504
0.00335265
0.00455864
0.00439446
0.00423585
0.0040811
0.00393113
0.00378595
0.00364451
0.0035056
0.0033682
0.00449587
0.00433911
0.0041862
0.00403617
0.0038884
0.00374404
0.00360368
0.00346587
0.00332954
0.00485499
0.00470665
0.00458501
0.00444558
0.0042985
0.00415312
0.00400979
0.00386786
0.00372771
0.00358982
0.00345366
0.00331899
0.00485475
0.0046995
0.00456628
0.00442598
0.00428175
0.00413882
0.00399755
0.00385736
0.0037185
0.00358136
0.00344587
0.00331193
0.00485747
0.00469994
0.00456459
0.00442451
0.0042812
0.00413894
0.00399823
0.00385852
0.00371984
0.00358259
0.00344697
0.00331286
0.00486364
0.00470731
0.00457504
0.00443463
0.00428964
0.00414607
0.00400426
0.00386352
0.00372391
0.00358592
0.00344966
0.00331507
0.00485503
0.00470676
0.00458528
0.00444582
0.00429859
0.00415312
0.00400975
0.00386776
0.0037275
0.00358951
0.0034532
0.00331857
0.00484452
0.00470219
0.00458689
0.00444795
0.00430056
0.00415507
0.00401178
0.00387054
0.00373153
0.00359454
0.00345888
0.00490781
0.00475829
0.00461614
0.00446864
0.00432468
0.00418398
0.00404476
0.0039071
0.00377064
0.00363495
0.00349945
0.00496454
0.0048311
0.0046583
0.00450063
0.00435566
0.00421173
0.0040675
0.00392431
0.00378251
0.00364207
0.00350342
0.00450683
0.00434682
0.00419419
0.00404673
0.00390448
0.00376604
0.00362929
0.00349365
0.00335936
0.00454337
0.00438776
0.00423579
0.00408666
0.00393982
0.00379574
0.00365447
0.00351542
0.00337806
0.00447816
0.00432815
0.00418074
0.00403523
0.00389056
0.00374731
0.00360673
0.00346868
0.00333258
0.00486356
0.00470712
0.00457483
0.00443449
0.00428963
0.00414615
0.00400437
0.00386363
0.00372406
0.00358611
0.0034499
0.00331531
0.00483223
0.0046788
0.00454985
0.00441219
0.00426978
0.00412829
0.00398817
0.00384891
0.00371063
0.00357363
0.00343806
0.00330394
0.00482191
0.00466871
0.00454174
0.00440523
0.00426384
0.00412344
0.00398406
0.00384536
0.00370757
0.00357096
0.00343565
0.00330169
0.00483228
0.00467888
0.00454995
0.00441227
0.00426983
0.0041283
0.00398814
0.00384885
0.00371054
0.00357352
0.00343792
0.00330378
0.00485486
0.00469961
0.00456641
0.00442609
0.00428183
0.00413885
0.00399754
0.00385729
0.00371838
0.00358118
0.00344565
0.00331169
0.00488733
0.0047299
0.00458978
0.00444551
0.00429928
0.00415511
0.00401285
0.00387149
0.00373168
0.00359416
0.00345865
0.00495562
0.00479141
0.00463767
0.00448853
0.00434195
0.00419779
0.00405552
0.00391507
0.00377636
0.00363928
0.00350356
0.00496464
0.00482249
0.00466213
0.00450278
0.00435017
0.00420183
0.00405634
0.00391427
0.00377482
0.00363667
0.00349973
0.00485749
0.00469992
0.00456456
0.0044245
0.00428122
0.00413899
0.00399829
0.00385857
0.00371988
0.00358264
0.00344701
0.0033129
0.00482192
0.00466871
0.00454174
0.00440523
0.00426384
0.00412345
0.00398408
0.00384539
0.0037076
0.00357099
0.00343568
0.00330171
0.00481138
0.00465848
0.00453349
0.00439759
0.00425645
0.00411686
0.00397838
0.00384033
0.00370301
0.00356677
0.0034318
0.00329816
0.00482192
0.00466872
0.00454177
0.00440526
0.00426386
0.00412345
0.00398406
0.00384535
0.00370755
0.00357092
0.0034356
0.00330162
0.00485749
0.00469994
0.00456461
0.00442456
0.00428126
0.004139
0.00399826
0.00385851
0.00371979
0.00358251
0.00344687
0.00331274
0.00491196
0.00474873
0.00460357
0.00445774
0.00431072
0.00416593
0.00402339
0.00388162
0.00374053
0.00360145
0.00346479
0.00497245
0.00481182
0.00466374
0.00451415
0.00436445
0.00421741
0.00407284
0.00392982
0.00378834
0.00364906
0.00351187
0.00499852
0.00483514
0.00466623
0.00450224
0.00434642
0.00419675
0.00405107
0.00390938
0.00377111
0.00363439
0.00349841
)
;

boundaryField
{
    inlet
    {
        type            zeroGradient;
    }
    ami1
    {
        type            cyclicAMI;
        value           nonuniform List<scalar> 0();
    }
    walls
    {
        type            zeroGradient;
    }
    ami2
    {
        type            cyclicAMI;
        value           nonuniform List<scalar> 
48
(
0.00499643
0.00502963
0.00507761
0.00512764
0.00519181
0.00527191
0.00533606
0.00529551
0.00501613
0.00504435
0.00506944
0.00509848
0.00513497
0.00516605
0.00519235
0.00518207
0.00498602
0.00498931
0.00500887
0.00502741
0.00504758
0.00506057
0.00509523
0.00504529
0.00498423
0.00496655
0.00496674
0.00497712
0.00498428
0.00498601
0.00501618
0.00499635
0.0049771
0.00494967
0.00494251
0.00494971
0.00496664
0.00498939
0.00504444
0.00502958
0.00496679
0.00494252
0.00493532
0.00494252
0.00496678
0.00500894
0.00506954
0.00507765
)
;
    }
    outlet
    {
        type            fixedValue;
        value           nonuniform List<scalar> 0();
    }
    procBoundary0to1
    {
        type            processor;
        value           nonuniform List<scalar> 
138
(
0.0046822
0.00450226
0.00434635
0.00419662
0.00405093
0.0039093
0.00377106
0.00363438
0.00349846
0.00336352
0.00469817
0.00451399
0.00436434
0.00421735
0.00407282
0.00392981
0.0037884
0.00364922
0.00351214
0.00337662
0.00491125
0.00475726
0.00462388
0.00462388
0.00445759
0.00431064
0.00416593
0.00402344
0.00388169
0.00374065
0.00360164
0.00346502
0.00333016
0.00491201
0.00474869
0.00460344
0.00445759
0.00431064
0.00416593
0.00402344
0.00388169
0.00374065
0.00360164
0.00346502
0.00333016
0.00485492
0.00469967
0.00456644
0.00442611
0.00428187
0.00413892
0.00399764
0.00385741
0.00371851
0.00358131
0.00344578
0.00331179
0.00483232
0.00467891
0.00454995
0.00441228
0.00426986
0.00412836
0.00398821
0.00384893
0.00371062
0.00357359
0.00343799
0.00330384
0.00482195
0.00466875
0.0045418
0.00440528
0.00426388
0.00412347
0.00398408
0.00384538
0.00370757
0.00357095
0.00343562
0.00330164
0.00483231
0.0046789
0.00454997
0.00441229
0.00426985
0.00412832
0.00398817
0.00384887
0.00371055
0.00357351
0.00343791
0.00330376
0.00486369
0.00470737
0.00457507
0.00443464
0.00428966
0.0041461
0.00400429
0.00386353
0.00372389
0.00358588
0.00344961
0.003315
0.00491132
0.00475782
0.00462458
0.00447868
0.00432834
0.00418069
0.00403511
0.00389041
0.00374711
0.00360643
0.00346826
0.00499248
0.00484172
0.00469835
0.00454359
0.00438797
0.00423593
0.0040868
0.00393994
0.00379578
0.00365438
0.00351516
0.00506552
0.00487756
0.00468177
0.00450649
0.00434681
0.00419447
0.00404714
0.00390485
0.00376634
0.0036295
0.00349378
)
;
    }
    procBoundary0to2
    {
        type            processor;
        value           nonuniform List<scalar> 
28
(
0.00442334
0.00446827
0.00446827
0.00503759
0.00485727
0.00465063
0.00465063
0.00438815
0.00438815
0.00445779
0.00445779
0.00445779
0.00493977
0.00476624
0.00461682
0.00461682
0.00466641
0.00469836
0.00489952
0.00475818
0.00463723
0.00463723
0.00469765
0.00472732
0.00491089
0.00476864
0.00464593
0.00464593
)
;
    }
    procBoundary0to8
    {
        type            processor;
        value           nonuniform List<scalar> 
29
(
0.00323222
0.00323166
0.00322071
0.00323092
0.00323014
0.00323064
0.0032426
0.00322634
0.00323349
0.00323664
0.0032156
0.00322453
0.00319427
0.00319343
0.00319282
0.00322108
0.00323259
0.00319524
0.00318599
0.00317945
0.0032263
0.00324237
0.00319832
0.00318231
0.00317134
0.00316915
0.00318022
0.00316917
0.0031659
)
;
    }
    procBoundary0to9
    {
        type            processor;
        value           nonuniform List<scalar> 
40
(
0.00322982
0.00322634
0.00322095
0.00334524
0.00334524
0.00336027
0.00336465
0.00324236
0.00324227
0.00323265
0.00335705
0.00335705
0.00337514
0.0033669
0.00319674
0.00319805
0.00319501
0.00332596
0.00332596
0.00335864
0.00335647
0.0031802
0.00318208
0.00318569
0.00332523
0.00332523
0.00336574
0.00336613
0.00317118
0.00317919
0.00332489
0.00332489
0.00336934
0.00336409
0.00316907
0.00318004
0.00332996
0.00332996
0.00337635
0.00336333
)
;
    }
}


// ************************************************************************* //
