/*--------------------------------*- C++ -*----------------------------------*\
| =========                 |                                                 |
| \\      /  F ield         | OpenFOAM: The Open Source CFD Toolbox           |
|  \\    /   O peration     | Version:  2212                                  |
|   \\  /    A nd           | Website:  www.openfoam.com                      |
|    \\/     M anipulation  |                                                 |
\*---------------------------------------------------------------------------*/
FoamFile
{
    version     2.0;
    format      ascii;
    arch        "LSB;label=32;scalar=64";
    class       volScalarField;
    location    "2.65";
    object      k;
}
// * * * * * * * * * * * * * * * * * * * * * * * * * * * * * * * * * * * * * //

dimensions      [0 2 -2 0 0 0 0];

internalField   nonuniform List<scalar> 
678
(
0.00183883
0.0018186
0.00179942
0.00178065
0.00176195
0.0015757
0.00155721
0.0015391
0.00152148
0.00150458
0.00154898
0.00152776
0.00150744
0.00148784
0.00146913
0.00150395
0.00148055
0.00145795
0.0014367
0.0014164
0.00139773
0.00148028
0.00145624
0.00143313
0.00141162
0.00139076
0.00137144
0.00145707
0.00143412
0.00141241
0.00139145
0.00136854
0.00135071
0.00133078
0.00143491
0.0014127
0.00139161
0.00137109
0.00135034
0.00133267
0.00131568
0.00141779
0.00139702
0.00137811
0.00135973
0.00134184
0.00132453
0.00130778
0.00142286
0.00140467
0.00138715
0.00137008
0.00135368
0.00133779
0.00132231
0.00148754
0.00147058
0.00145397
0.00143784
0.00142212
0.00140653
0.00184133
0.00182103
0.00180187
0.00178298
0.00176429
0.00174611
0.0014852
0.00146828
0.00145168
0.00143549
0.00141992
0.00140502
0.000959777
0.00093779
0.000915812
0.000894269
0.000872648
0.0011879
0.00115307
0.00112063
0.00108752
0.00105806
0.00103046
0.00132961
0.00128847
0.00125036
0.0012117
0.00117781
0.00114531
0.00139956
0.00135475
0.00131438
0.00127389
0.0012369
0.00120084
0.00142754
0.00138398
0.00134393
0.00130279
0.00126064
0.0012207
0.00139775
0.00135176
0.0013079
0.00126458
0.00122499
0.00118669
0.00128152
0.00123843
0.00119682
0.0011546
0.00111831
0.00108332
0.00104936
0.00108758
0.00105531
0.00102346
0.000990677
0.000962808
0.000935958
0.000908019
0.000964325
0.000942295
0.000920357
0.000898634
0.000878388
0.000858992
0.000837917
0.0015776
0.00155909
0.00154097
0.00152339
0.00150638
0.00148984
0.00142057
0.00140247
0.001385
0.00136797
0.00135163
0.00133572
0.00132065
0.00108166
0.00104979
0.00101806
0.00098548
0.000957457
0.000928962
0.00134226
0.00129319
0.00124739
0.00120156
0.00116023
0.00112082
0.00154415
0.00148576
0.00143023
0.00137627
0.00132602
0.00127897
0.00166762
0.00160315
0.00154212
0.00148411
0.00142865
0.00137661
0.00171711
0.00165093
0.00158811
0.00152826
0.00147084
0.00141646
0.0016847
0.00161931
0.00155709
0.0014975
0.00144089
0.0013865
0.00155299
0.00149263
0.00143528
0.00137906
0.00132719
0.00127809
0.00134579
0.00129632
0.00125035
0.00120414
0.001163
0.00112384
0.00119149
0.00115644
0.00112396
0.0010906
0.00106191
0.00103386
0.0010061
0.0015505
0.00152931
0.00150899
0.0014894
0.0014707
0.0014529
0.00141559
0.00139496
0.00137622
0.00135785
0.00134004
0.00132274
0.00130611
0.00127548
0.00123217
0.00119104
0.00114936
0.00111349
0.00107732
0.00104393
0.00155014
0.00149025
0.00143306
0.00137752
0.00132519
0.00127566
0.00178311
0.00171246
0.00164532
0.00158118
0.00152038
0.00146261
0.00192976
0.00185315
0.00178035
0.00171095
0.00164523
0.00158262
0.00198331
0.00190465
0.00182992
0.00175861
0.00169145
0.00162692
0.00193687
0.00186008
0.00178705
0.00171738
0.00165191
0.00178461
0.00171401
0.00164694
0.00158274
0.0015222
0.001464
0.00154666
0.00148835
0.00143301
0.00137873
0.00132905
0.00128149
0.00133271
0.00129207
0.0012539
0.00121522
0.00118138
0.00114834
0.00150531
0.00148222
0.00145962
0.00143849
0.00141805
0.00139939
0.00143338
0.00141112
0.00139045
0.00136871
0.00134954
0.00133109
0.00139427
0.00134799
0.00130407
0.0012613
0.00122173
0.00118246
0.0016836
0.00161811
0.00155588
0.00149625
0.00143985
0.00193662
0.00185982
0.00178669
0.00171725
0.00165136
0.00209971
0.00201608
0.00193659
0.00186115
0.00178963
0.00215715
0.00207114
0.00198949
0.00191193
0.00183884
0.00210001
0.00201641
0.00193698
0.00186142
0.00179031
0.00193114
0.0018546
0.00178187
0.00171257
0.00164749
0.00167004
0.00160573
0.00154498
0.00148658
0.00143237
0.00140304
0.00135916
0.00131812
0.00127745
0.00124057
0.00148142
0.00145787
0.00143467
0.00141315
0.00139241
0.00137274
0.00145627
0.00143336
0.00141163
0.00139048
0.00136788
0.00134979
0.00142671
0.00138313
0.00134256
0.00130146
0.00125852
0.00121856
0.00171734
0.00165099
0.00158794
0.00152834
0.00198401
0.00190524
0.00183032
0.00175982
0.00215752
0.0020714
0.0019897
0.00191268
0.00221825
0.00212967
0.00204562
0.001966
0.00189075
0.00215762
0.00207163
0.00198999
0.00191246
0.00183945
0.00198462
0.00190605
0.00183135
0.00176028
0.00169349
0.00171926
0.00165321
0.0015906
0.00153071
0.00147425
0.00142977
0.00138664
0.00134636
0.00130596
0.00126416
0.00145803
0.00143518
0.00141363
0.00139276
0.00137008
0.00150465
0.00147999
0.00145599
0.00143358
0.0014111
0.00139081
0.00144642
0.0013996
0.0013559
0.00131334
0.00127459
0.00123677
0.0017362
0.00166818
0.00160389
0.00154276
0.00148456
0.00142992
0.00201141
0.00193065
0.00185416
0.0017814
0.00171253
0.001647
0.00218864
0.00210013
0.00201645
0.00193701
0.00186182
0.00179047
0.00215755
0.00207145
0.00198977
0.0019123
0.00183935
0.00210032
0.00201672
0.00193729
0.00186181
0.00179079
0.00193784
0.00186114
0.00178821
0.00171874
0.00165344
0.00168642
0.00162119
0.0015593
0.00149961
0.00144388
0.00139985
0.00135429
0.0013106
0.00126804
0.00122804
0.00143572
0.00141357
0.00139272
0.00137222
0.00135159
0.00152806
0.00150422
0.00148088
0.00145866
0.00143679
0.0014171
0.00137371
0.00133138
0.00128893
0.00125077
0.00121256
0.00117927
0.00160733
0.00154558
0.00148696
0.00143077
0.00137776
0.00132848
0.00185854
0.00178425
0.00171389
0.00164691
0.0015831
0.0015233
0.00201792
0.00193702
0.00186041
0.00178762
0.00171841
0.00165322
0.00198396
0.00190542
0.00183082
0.00175989
0.00169323
0.00193089
0.00185443
0.0017818
0.00171265
0.00164775
0.00178507
0.00171461
0.00164772
0.00158366
0.00152374
0.00155439
0.00149415
0.00143725
0.00138074
0.00133029
0.00128336
0.00124045
0.00119924
0.00115794
0.00112049
0.00141851
0.00139779
0.00137893
0.00136072
0.00134299
0.0015717
0.00154982
0.00152862
0.0015082
0.00148859
0.00146995
0.00122651
0.00118993
0.00115539
0.00112056
0.00109011
0.00105967
0.00139559
0.00134374
0.00129563
0.0012475
0.00120439
0.00116291
0.0016148
0.00155141
0.00149163
0.00143345
0.00137932
0.0013282
0.00175254
0.00168373
0.00161856
0.00155667
0.00149723
0.00144179
0.00171746
0.00165134
0.00158877
0.00152893
0.0014727
0.001669
0.00160473
0.00154408
0.00148573
0.00143175
0.0015465
0.00148832
0.00143322
0.00137875
0.00133025
0.0013467
0.00129747
0.0012515
0.00120535
0.00116517
0.00108879
0.00105665
0.0010249
0.000993688
0.000962383
0.00142343
0.00140529
0.00138784
0.00137097
0.00135459
0.00159594
0.001577
0.00155835
0.00154018
0.0015225
0.00150555
0.000985668
0.000962138
0.00093903
0.000916327
0.000895593
0.000873777
0.00111881
0.00108365
0.00105054
0.00101642
0.000987631
0.000956798
0.00132186
0.00127606
0.00123298
0.00118956
0.00115197
0.00111398
0.0014427
0.00139383
0.00134765
0.00130365
0.00126189
0.00122203
0.00142722
0.00138368
0.00134318
0.0013025
0.00126085
0.00140122
0.00135721
0.00131624
0.00127552
0.00123879
0.00133186
0.00129135
0.00125326
0.00121462
0.00118134
0.00119131
0.00115744
0.00112358
0.00109214
0.00106187
0.000964386
0.000942568
0.000920324
0.000899488
0.000877841
0.00148795
0.00147103
0.00145449
0.0014385
0.001423
0.00186091
0.00184021
0.00182044
0.00180088
0.00178198
0.00176305
0.00150406
0.00148656
0.00146941
0.00145275
0.0014367
0.00142096
0.00144051
0.00142127
0.00140297
0.00138536
0.00143868
0.00141586
0.00139507
0.00137623
0.00135837
0.001457
0.0014333
0.00141112
0.0013901
0.00136946
0.00145644
0.00143348
0.00141203
0.00139012
0.00136994
0.00148021
0.001457
0.0014334
0.00141224
0.0013916
0.00150457
0.00148171
0.00145916
0.00143816
0.00141781
0.00155032
0.00152928
0.001509
0.00148953
0.00147097
0.00157765
0.00155926
0.00154123
0.00152376
0.00150703
0.0018417
0.00182159
0.00180248
0.00178402
0.00176541
)
;

boundaryField
{
    inlet
    {
        type            fixedValue;
        value           nonuniform List<scalar> 0();
    }
    ami1
    {
        type            cyclicAMI;
        value           nonuniform List<scalar> 0();
    }
    walls
    {
        type            kqRWallFunction;
        value           nonuniform List<scalar> 
250
(
0.00183883
0.0015757
0.00154898
0.00150395
0.00148028
0.00145707
0.00143491
0.00141779
0.00142286
0.00148754
0.00184133
0.0018186
0.00155721
0.00152776
0.00148055
0.00145624
0.00143412
0.0014127
0.00139702
0.00140467
0.00147058
0.00182103
0.00179942
0.0015391
0.00150744
0.00145795
0.00143313
0.00141241
0.00139161
0.00137811
0.00138715
0.00145397
0.00180187
0.00178065
0.00152148
0.00148784
0.0014367
0.00141162
0.00139145
0.00137109
0.00135973
0.00137008
0.00143784
0.00178298
0.00176195
0.00150458
0.00146913
0.0014164
0.00139076
0.00136854
0.00135034
0.00134184
0.00135368
0.00142212
0.00176429
0.00139773
0.00137144
0.00135071
0.00133267
0.00132453
0.00133779
0.00140653
0.00174611
0.00133078
0.00131568
0.00130778
0.00132231
0.00184133
0.0015776
0.0015505
0.00150531
0.00148142
0.00145803
0.00143572
0.00141851
0.00142343
0.00148795
0.0018417
0.00182103
0.00155909
0.00152931
0.00148222
0.00145787
0.00143518
0.00141357
0.00139779
0.00140529
0.00147103
0.00182159
0.00180187
0.00154097
0.00150899
0.00145962
0.00143467
0.00141363
0.00139272
0.00137893
0.00138784
0.00145449
0.00180248
0.00178298
0.00152339
0.0014894
0.00143849
0.00141315
0.00139276
0.00137222
0.00136072
0.00137097
0.0014385
0.00178402
0.00176429
0.00150638
0.0014707
0.00141805
0.00139241
0.00137008
0.00135159
0.00134299
0.00135459
0.001423
0.00176541
0.00174611
0.00148984
0.0014529
0.00139939
0.00137274
0.00186091
0.00150406
0.00144051
0.00143868
0.001457
0.00184021
0.00148656
0.00142127
0.00141586
0.0014333
0.00145644
0.00148021
0.00150457
0.00155032
0.00157765
0.0018417
0.00182044
0.00146941
0.00140297
0.00139507
0.00141112
0.00143348
0.001457
0.00148171
0.00152928
0.00155926
0.00182159
0.00180088
0.00145275
0.00138536
0.00137623
0.0013901
0.00141203
0.0014334
0.00145916
0.001509
0.00154123
0.00180248
0.00178198
0.0014367
0.00135837
0.00136946
0.00139012
0.00141224
0.00143816
0.00148953
0.00152376
0.00178402
0.00176305
0.00142096
0.00136994
0.0013916
0.00141781
0.00147097
0.00150703
0.00176541
0.00150465
0.00152806
0.0015717
0.00159594
0.00186091
0.00183883
0.0014852
0.00142057
0.00141559
0.00143338
0.00145627
0.00147999
0.00150422
0.00154982
0.001577
0.00184021
0.0018186
0.00146828
0.00140247
0.00139496
0.00141112
0.00143336
0.00145599
0.00148088
0.00152862
0.00155835
0.00182044
0.00179942
0.00145168
0.001385
0.00137622
0.00139045
0.00141163
0.00143358
0.00145866
0.0015082
0.00154018
0.00180088
0.00178065
0.00143549
0.00136797
0.00135785
0.00136871
0.00139048
0.0014111
0.00143679
0.00148859
0.0015225
0.00178198
0.00176195
0.00141992
0.00135163
0.00134004
0.00134954
0.00136788
0.00139081
0.0014171
0.00146995
0.00150555
0.00176305
0.00140502
0.00133572
0.00132274
0.00133109
0.00134979
0.00132065
0.00130611
)
;
    }
    ami2
    {
        type            cyclicAMI;
        value           nonuniform List<scalar> 0();
    }
    outlet
    {
        type            zeroGradient;
    }
    procBoundary5to6
    {
        type            processor;
        value           nonuniform List<scalar> 
177
(
0.00174449
0.00174449
0.00148821
0.00145125
0.00145125
0.00145125
0.00137939
0.00135233
0.00135233
0.00131442
0.00118133
0.00129944
0.00114985
0.00129159
0.00130726
0.00139155
0.00139155
0.00139155
0.0017284
0.00139026
0.000857854
0.00139026
0.000857854
0.000857854
0.000857854
0.00100456
0.00111268
0.00116458
0.00118133
0.00114985
0.00114985
0.00101587
0.00122958
0.000883602
0.0010847
0.000824032
0.001474
0.001474
0.00130581
0.00090583
0.00090583
0.00090583
0.00108255
0.00123205
0.00132468
0.00136214
0.00133322
0.00158739
0.00122958
0.0010847
0.0010847
0.000980332
0.00143579
0.00111492
0.00143579
0.00129008
0.00131492
0.0010106
0.00122734
0.00114587
0.00122734
0.00138493
0.00140525
0.00158651
0.00152042
0.00171939
0.00156276
0.00158739
0.00176701
0.00158739
0.00158739
0.00140631
0.00158311
0.00123379
0.00137866
0.00111492
0.00120385
0.00138104
0.00131492
0.00114587
0.00138493
0.00138493
0.00147003
0.00158651
0.00169071
0.00171939
0.00183764
0.00176701
0.00172042
0.00158311
0.00137866
0.00120385
0.00120385
0.0013541
0.00135319
0.00132988
0.00137107
0.00147003
0.00117999
0.0014131
0.00119946
0.00147003
0.00147003
0.00169071
0.00169071
0.00183764
0.00183764
0.00183764
0.00181691
0.00176776
0.00162752
0.0014185
0.00122412
0.00135319
0.00137107
0.00119946
0.00137594
0.00158217
0.00172041
0.00176772
0.00172098
0.00158904
0.00138926
0.00119046
0.00133464
0.00139784
0.00114604
0.00127973
0.00146406
0.00158902
0.00162744
0.00158355
0.00146443
0.00128048
0.0010867
0.00132617
0.00145218
0.00103327
0.00112317
0.00127835
0.00138771
0.00141723
0.00137827
0.00128181
0.00112579
0.000938672
0.00133925
0.00148926
0.000858964
0.00136917
0.000933274
0.00135284
0.00108095
0.0013412
0.00118526
0.00134946
0.00122083
0.00120221
0.00114845
0.00103577
0.000863271
0.00140841
0.00174599
0.00136917
0.00140617
0.00135284
0.00136917
0.00136917
0.0013412
0.00134946
0.00134946
0.00134891
0.0013719
0.00139937
0.00145335
0.00149091
0.00174835
)
;
    }
    procBoundary5to7
    {
        type            processor;
        value           nonuniform List<scalar> 
131
(
0.00185835
0.00159437
0.00157064
0.00152749
0.00150455
0.00148084
0.0014578
0.00144034
0.0014416
0.00150436
0.00186092
0.0015019
0.000978871
0.00122234
0.00137344
0.00144607
0.00147247
0.0014436
0.00132361
0.00111821
0.000983806
0.00159625
0.00143913
0.00111161
0.00139172
0.0016058
0.00173544
0.00178631
0.00175277
0.00161452
0.00139554
0.00122631
0.00157215
0.00143799
0.00131835
0.00161187
0.00185697
0.00201038
0.00206612
0.00201752
0.00185853
0.00160843
0.0013763
0.00152879
0.0014561
0.00144087
0.00175179
0.00201722
0.00218819
0.00224826
0.00218846
0.00201173
0.00173774
0.00144876
0.00150565
0.00147992
0.00147992
0.00147192
0.00147192
0.00178679
0.00178679
0.0020669
0.0020669
0.00224874
0.00224874
0.00231221
0.00224872
0.00206741
0.00178838
0.00147464
0.00148172
0.00153065
0.00149781
0.00180789
0.00209674
0.00228255
0.00224881
0.00224881
0.00218878
0.00201848
0.0017544
0.00144525
0.00145847
0.00155298
0.00142149
0.00167348
0.00193679
0.00210335
0.00206691
0.00206691
0.00201147
0.00185895
0.00161585
0.00132529
0.00144095
0.00159427
0.00126571
0.00145037
0.00168109
0.00182437
0.00178685
0.00178685
0.00173669
0.00160809
0.00139639
0.00111929
0.00144205
0.001615
0.00100696
0.00115364
0.00136927
0.0014935
0.00147186
0.00147186
0.00144707
0.00137538
0.00122644
0.000983939
0.00150464
0.00188084
0.00152127
0.00146027
0.00146289
0.00148125
0.00148018
0.00148018
0.00150433
0.00152798
0.00157192
0.00159624
0.00186123
)
;
    }
}


// ************************************************************************* //
