/*--------------------------------*- C++ -*----------------------------------*\
| =========                 |                                                 |
| \\      /  F ield         | OpenFOAM: The Open Source CFD Toolbox           |
|  \\    /   O peration     | Version:  2212                                  |
|   \\  /    A nd           | Website:  www.openfoam.com                      |
|    \\/     M anipulation  |                                                 |
\*---------------------------------------------------------------------------*/
FoamFile
{
    version     2.0;
    format      ascii;
    arch        "LSB;label=32;scalar=64";
    class       volScalarField;
    location    "0.05";
    object      epsilon;
}
// * * * * * * * * * * * * * * * * * * * * * * * * * * * * * * * * * * * * * //

dimensions      [0 2 -3 0 0 0 0];

internalField   nonuniform List<scalar> 
693
(
2.139
2.13587
2.13253
2.13105
2.13193
2.13732
2.89653
2.88863
2.8833
2.88163
2.88328
2.89267
2.37232
2.37142
2.37047
2.36993
2.3701
2.37116
2.30923
2.30855
2.30796
2.30762
2.30758
2.30789
2.28266
2.28178
2.28124
2.28095
2.28083
2.28081
2.28444
2.28419
2.284
2.28388
2.28382
2.2838
2.29067
2.29059
2.2905
2.29045
2.29043
2.29045
2.32762
2.32737
2.32707
2.32691
2.32698
2.32735
2.42173
2.42093
2.42005
2.41959
2.41989
2.4211
2.92858
2.92054
2.91499
2.91326
2.91499
2.92475
2.13889
2.13579
2.13248
2.13103
2.13192
2.13731
2.9287
2.92063
2.91504
2.91328
2.915
2.92476
1.72523
1.73244
1.73403
1.73421
1.73297
1.72569
1.64645
1.64774
1.64842
1.64855
1.6481
1.64663
1.66375
1.66402
1.66415
1.66418
1.66414
1.66391
1.69393
1.69464
1.69485
1.6949
1.69493
1.69497
1.70528
1.7054
1.70544
1.70545
1.70546
1.70548
1.69444
1.69439
1.69435
1.69434
1.69436
1.69444
1.66509
1.66527
1.66542
1.66547
1.66539
1.66516
1.65203
1.65339
1.6541
1.65425
1.65381
1.65232
1.72514
1.73238
1.73399
1.73418
1.73296
1.72568
2.89623
2.88842
2.88317
2.88157
2.88325
2.89264
2.42172
2.42091
2.42003
2.41958
2.41987
2.4211
1.65205
1.6534
1.6541
1.65425
1.65381
1.65232
1.64655
1.64684
1.6471
1.64719
1.64705
1.64666
1.70154
1.70163
1.70173
1.70177
1.70173
1.70163
1.7423
1.74243
1.74251
1.74254
1.74256
1.74257
1.75685
1.75688
1.75689
1.75689
1.7569
1.75693
1.74206
1.74206
1.74206
1.74206
1.74206
1.74208
1.70087
1.70093
1.70102
1.70106
1.70101
1.70091
1.64653
1.64682
1.64708
1.64718
1.64705
1.64666
1.64632
1.64764
1.64835
1.64851
1.64807
1.64661
2.37167
2.371
2.37023
2.36981
2.37003
2.37112
2.32753
2.32729
2.32701
2.32687
2.32696
2.32734
1.66507
1.66525
1.6654
1.66546
1.66537
1.66515
1.70087
1.70093
1.70101
1.70105
1.70101
1.70091
1.76538
1.76536
1.76537
1.76538
1.76538
1.76539
1.80908
1.80905
1.80903
1.80902
1.80904
1.80909
1.82386
1.8238
1.82374
1.82372
1.82373
1.82379
1.80902
1.80898
1.80894
1.80892
1.80893
1.80897
1.76539
1.76537
1.76537
1.76537
1.76537
1.76537
1.70159
1.70165
1.70173
1.70177
1.70173
1.70162
1.66382
1.66401
1.66411
1.66415
1.66411
1.6639
2.30806
2.30783
2.30757
2.30743
2.30749
2.30785
2.29041
2.29038
2.29035
2.29036
2.29039
2.29046
1.69445
1.69438
1.69433
1.69431
1.69433
1.69441
1.74207
1.74205
1.74204
1.74204
1.74205
1.74207
1.80897
1.80895
1.80892
1.80891
1.80894
1.809
1.85146
1.85141
1.85136
1.85134
1.85137
1.85146
1.86552
1.86543
1.86534
1.86531
1.86533
1.86541
1.85152
1.85144
1.85137
1.85134
1.85136
1.85143
1.80911
1.80907
1.80903
1.80902
1.80903
1.80908
1.74258
1.74256
1.74256
1.74256
1.74256
1.74257
1.69498
1.69495
1.69491
1.6949
1.69492
1.69496
2.2808
2.28077
2.28074
2.28072
2.28072
2.28076
2.28359
2.28358
2.28362
2.28369
2.28381
2.28396
1.70557
1.70551
1.70545
1.70541
1.70536
1.70528
1.75693
1.75691
1.75688
1.75687
1.75687
1.7569
1.82378
1.82375
1.82371
1.82371
1.82375
1.82384
1.86542
1.86537
1.86532
1.86531
1.86537
1.86549
1.87909
1.879
1.87893
1.8789
1.87893
1.87904
1.86549
1.8654
1.86533
1.8653
1.86532
1.86541
1.82381
1.82377
1.82372
1.82371
1.82372
1.82378
1.75694
1.75692
1.7569
1.75689
1.7569
1.75693
1.70549
1.70547
1.70546
1.70545
1.70546
1.70548
2.28379
2.28378
2.28377
2.28376
2.28376
2.28377
2.28012
2.2803
2.2805
2.2807
2.28107
1.69588
1.69516
1.69492
1.69481
1.69454
1.74254
1.74248
1.74246
1.74246
1.74245
1.80907
1.80903
1.809
1.80901
1.80908
1.85144
1.85139
1.85136
1.85137
1.85147
1.86546
1.86539
1.86533
1.86532
1.86536
1.86547
1.85148
1.85141
1.85135
1.85134
1.85136
1.85144
1.80899
1.80895
1.80892
1.80891
1.80892
1.80897
1.74207
1.74205
1.74205
1.74205
1.74205
1.74207
1.69446
1.69439
1.69434
1.69433
1.69435
1.69444
2.29048
2.29045
2.29042
2.2904
2.29041
2.29045
2.30952
2.30857
2.30806
2.30827
1.66233
1.66346
1.66381
1.66372
1.70115
1.70119
1.70139
1.7015
1.7015
1.76536
1.76529
1.76528
1.76529
1.76533
1.80899
1.80895
1.80891
1.80892
1.80897
1.82379
1.82375
1.82372
1.82372
1.82375
1.82382
1.80905
1.80903
1.80901
1.80901
1.80904
1.80909
1.76537
1.76535
1.76536
1.76537
1.76537
1.76537
1.70087
1.70093
1.70101
1.70105
1.70101
1.7009
1.66508
1.66526
1.66541
1.66547
1.66538
1.66516
2.32756
2.32733
2.32704
2.3269
2.32698
2.32735
2.37303
2.37193
2.37123
2.37178
1.64564
1.64724
1.64769
1.64654
1.64703
1.64663
1.64671
1.64674
1.6465
1.70107
1.70093
1.70092
1.7009
1.70083
1.74209
1.74206
1.74203
1.74201
1.74197
1.75683
1.75685
1.75687
1.75687
1.75688
1.7569
1.74227
1.74241
1.74249
1.74253
1.74255
1.74256
1.70153
1.70161
1.70171
1.70176
1.70172
1.70162
1.64654
1.64682
1.64708
1.64718
1.64704
1.64665
1.65205
1.6534
1.6541
1.65425
1.65381
1.65231
2.42173
2.42093
2.42005
2.41959
2.41988
2.4211
2.89836
2.88951
2.88614
2.89377
1.72369
1.73187
1.7329
1.72581
1.65724
1.65328
1.65349
1.65353
1.65225
1.66592
1.66548
1.66534
1.66527
1.66506
1.69434
1.69438
1.69435
1.69428
1.69404
1.70524
1.70537
1.70543
1.70543
1.7054
1.70531
1.69391
1.69462
1.69483
1.69489
1.69491
1.69493
1.66373
1.664
1.66413
1.66417
1.66413
1.6639
1.64643
1.64772
1.6484
1.64853
1.64808
1.64661
1.72521
1.73243
1.73402
1.73419
1.73296
1.72567
2.92869
2.92062
2.91503
2.91327
2.91499
2.92474
2.1403
2.13615
2.13356
2.13768
2.92962
2.92097
2.91779
2.92581
2.41713
2.41913
2.41982
2.42023
2.4214
2.32687
2.32709
2.32704
2.32712
2.32756
2.29055
2.29048
2.29046
2.29053
2.29082
2.28441
2.28416
2.28398
2.28391
2.28395
2.28407
2.28264
2.28176
2.28123
2.28095
2.28085
2.28087
2.30921
2.30853
2.30794
2.30761
2.30758
2.3079
2.37228
2.37138
2.37044
2.3699
2.37007
2.37113
2.89651
2.8886
2.88327
2.8816
2.88325
2.89264
2.13899
2.13586
2.13252
2.13104
2.13192
2.13731
)
;

boundaryField
{
    inlet
    {
        type            fixedValue;
        value           nonuniform List<scalar> 0();
    }
    ami1
    {
        type            cyclicAMI;
        value           nonuniform List<scalar> 0();
    }
    walls
    {
        type            epsilonWallFunction;
        blending        stepwise;
        value           nonuniform List<scalar> 
248
(
2.139
2.89653
2.37232
2.30923
2.28266
2.28444
2.29067
2.32762
2.42173
2.92858
2.13889
2.13587
2.88863
2.37142
2.30855
2.28178
2.28419
2.29059
2.32737
2.42093
2.92054
2.13579
2.13253
2.8833
2.37047
2.30796
2.28124
2.284
2.2905
2.32707
2.42005
2.91499
2.13248
2.13105
2.88163
2.36993
2.30762
2.28095
2.28388
2.29045
2.32691
2.41959
2.91326
2.13103
2.13193
2.88328
2.3701
2.30758
2.28083
2.28382
2.29043
2.32698
2.41989
2.91499
2.13192
2.13732
2.89267
2.37116
2.30789
2.28081
2.2838
2.29045
2.32735
2.4211
2.92475
2.13731
2.13889
2.89623
2.37167
2.30806
2.2808
2.28379
2.29048
2.32756
2.42173
2.92869
2.13899
2.13579
2.88842
2.371
2.30783
2.28077
2.28378
2.29045
2.32733
2.42093
2.92062
2.13586
2.13248
2.88317
2.37023
2.30757
2.28074
2.28377
2.29042
2.32704
2.42005
2.91503
2.13252
2.13103
2.88157
2.36981
2.30743
2.28072
2.28376
2.2904
2.3269
2.41959
2.91327
2.13104
2.13192
2.88325
2.37003
2.30749
2.28072
2.28376
2.29041
2.32698
2.41988
2.91499
2.13192
2.13731
2.89264
2.37112
2.30785
2.28076
2.28377
2.29045
2.32735
2.4211
2.92474
2.13731
2.41713
2.32687
2.29055
2.28441
2.28264
2.30921
2.37228
2.89651
2.13899
2.1403
2.92962
2.41913
2.32709
2.29048
2.28416
2.28176
2.30853
2.37138
2.8886
2.13586
2.13615
2.92097
2.41982
2.32704
2.29046
2.28398
2.28123
2.30794
2.37044
2.88327
2.13252
2.13356
2.91779
2.42023
2.32712
2.29053
2.28391
2.28095
2.30761
2.3699
2.8816
2.13104
2.13768
2.92581
2.4214
2.32756
2.29082
2.28395
2.28085
2.30758
2.37007
2.88325
2.13192
2.28407
2.28087
2.3079
2.37113
2.89264
2.13731
2.139
2.9287
2.42172
2.32753
2.29041
2.28359
2.28012
2.13587
2.92063
2.42091
2.32729
2.29038
2.28358
2.2803
2.30952
2.37303
2.89836
2.1403
2.13253
2.91504
2.42003
2.32701
2.29035
2.28362
2.2805
2.30857
2.37193
2.88951
2.13615
2.13105
2.91328
2.41958
2.32687
2.29036
2.28369
2.2807
2.30806
2.37123
2.88614
2.13356
2.13193
2.915
2.41987
2.32696
2.29039
2.28381
2.28107
2.30827
2.37178
2.89377
2.13768
2.13732
2.92476
2.4211
2.32734
2.29046
2.28396
)
;
    }
    ami2
    {
        type            cyclicAMI;
        value           nonuniform List<scalar> 0();
    }
    outlet
    {
        type            zeroGradient;
    }
    procBoundary7to5
    {
        type            processor;
        value           nonuniform List<scalar> 
131
(
2.13894
2.89631
2.37174
2.30809
2.28081
2.28379
2.29047
2.32756
2.42174
2.92861
2.13892
2.92865
1.72518
1.64634
1.66383
1.69499
1.70549
1.69446
1.66508
1.65204
1.72516
2.89627
2.42175
1.65205
1.64653
1.70159
1.74258
1.75694
1.74208
1.70086
1.64652
1.64633
2.37171
2.32757
1.66508
1.70087
1.76539
1.80911
1.82381
1.80899
1.76536
1.70158
1.66382
2.30807
2.2905
1.69444
1.74208
1.80902
1.85148
1.86544
1.85145
1.80909
1.74257
1.69498
2.28079
2.28398
2.28178
1.70535
1.69317
1.75692
1.74237
1.82386
1.80911
1.86551
1.85153
1.87907
1.86543
1.8238
1.75694
1.70549
2.28378
2.28178
1.69317
1.74237
1.80911
1.85153
1.85153
1.86548
1.85146
1.80898
1.74207
1.69446
2.29047
2.30859
1.66363
1.70151
1.76535
1.809
1.809
1.82383
1.8091
1.76536
1.70085
1.66507
2.32757
2.37215
1.64635
1.64645
1.70082
1.74188
1.74188
1.75691
1.74257
1.70157
1.64651
1.65203
2.42176
2.89676
1.72527
1.65204
1.66494
1.69274
1.69274
1.70537
1.69496
1.66382
1.64632
1.72516
2.92864
2.1392
2.92907
2.422
2.32793
2.29148
2.29148
2.28405
2.28088
2.3081
2.37172
2.89629
2.13893
)
;
    }
    procBoundary7to8
    {
        type            processor;
        value           nonuniform List<scalar> 
68
(
2.13738
2.89289
2.37183
2.30945
2.28367
2.92476
1.72571
1.64674
1.66367
1.69211
2.421
1.65232
1.6467
1.70156
1.74207
2.3273
1.66516
1.70092
1.76537
1.80903
2.2904
1.69442
1.74206
1.80895
1.85141
1.86549
2.28367
1.70549
1.75691
1.82375
1.86537
1.87905
2.28048
2.31001
1.69503
1.66022
1.74255
1.80906
1.8514
1.86542
2.31001
1.66022
1.66022
1.70159
1.76541
1.80896
1.82375
2.37255
1.64524
1.64524
1.64721
1.70115
1.74208
1.75675
2.89846
1.71918
1.71918
1.65444
1.66565
1.69432
1.70504
2.14006
2.92935
2.92935
2.41843
2.3267
2.29059
2.28463
)
;
    }
    procBoundary7to9
    {
        type            processor;
        value           nonuniform List<scalar> 
59
(
2.28466
2.29069
2.32739
2.42101
2.92459
2.13724
1.70507
1.69438
1.66516
1.6523
1.7256
2.89247
1.75677
1.74204
1.70092
1.64667
1.64658
2.371
1.82384
1.809
1.76539
1.70164
1.66389
2.30782
1.85149
1.80909
1.74258
1.69496
2.28076
1.86545
1.82378
1.75692
1.70548
2.28378
1.85145
1.80897
1.74207
1.69444
2.29045
1.809
1.76536
1.70092
1.66517
2.32732
1.74205
1.70155
1.64669
1.65232
2.42101
1.6921
1.66365
1.64672
1.72569
2.92474
2.28365
2.30943
2.3718
2.89285
2.13737
)
;
    }
}


// ************************************************************************* //
