/*--------------------------------*- C++ -*----------------------------------*\
| =========                 |                                                 |
| \\      /  F ield         | OpenFOAM: The Open Source CFD Toolbox           |
|  \\    /   O peration     | Version:  2212                                  |
|   \\  /    A nd           | Website:  www.openfoam.com                      |
|    \\/     M anipulation  |                                                 |
\*---------------------------------------------------------------------------*/
FoamFile
{
    version     2.0;
    format      ascii;
    arch        "LSB;label=32;scalar=64";
    class       volScalarField;
    location    "1.1";
    object      epsilon;
}
// * * * * * * * * * * * * * * * * * * * * * * * * * * * * * * * * * * * * * //

dimensions      [0 2 -3 0 0 0 0];

internalField   nonuniform List<scalar> 
6840
(
90.5034
12.1248
4.38869
2.46659
1.63315
1.18307
0.902016
0.720666
0.594591
0.502508
0.432685
0.379298
0.336333
0.299912
0.270263
0.24627
0.22677
0.211275
0.201695
0.193777
58.5856
14.5696
6.08947
3.33295
2.08217
1.40267
0.998655
0.74029
0.565908
0.443934
0.356036
0.290952
0.241447
0.203055
0.173193
0.149977
0.131645
0.117185
0.106472
0.0992853
45.0226
13.4729
5.73075
3.07323
1.86023
1.227
0.873583
0.649788
0.497026
0.389502
0.311317
0.253015
0.209033
0.175292
0.148938
0.128067
0.111405
0.0980226
0.0873366
0.0793614
38.7028
13.0541
5.74337
3.08734
1.88067
1.22751
0.869485
0.645394
0.492604
0.384796
0.307047
0.249074
0.205018
0.171044
0.14448
0.123449
0.106603
0.0929726
0.0818731
0.0731225
36.0571
12.8529
5.76645
3.10212
1.89476
1.22669
0.866506
0.64399
0.49226
0.383977
0.305814
0.247943
0.203952
0.169991
0.143394
0.122289
0.105331
0.0915495
0.0803321
0.0721449
36.0571
12.8529
5.76645
3.10212
1.89476
1.22669
0.866499
0.643981
0.492248
0.383961
0.305791
0.247912
0.203909
0.16993
0.143307
0.122161
0.10514
0.0912675
0.0799037
0.0713808
38.7028
13.0541
5.74336
3.08733
1.88066
1.2275
0.869469
0.645373
0.492578
0.384762
0.306996
0.249006
0.204925
0.170912
0.144291
0.12317
0.106187
0.0923475
0.0809878
0.0723839
45.0226
13.4729
5.73075
3.07322
1.86022
1.22699
0.873568
0.649769
0.497
0.389459
0.311263
0.252942
0.208933
0.175152
0.14873
0.127757
0.110935
0.097294
0.0861948
0.0778157
58.5856
14.5696
6.08947
3.33295
2.08217
1.40267
0.998651
0.740284
0.565901
0.443919
0.356012
0.290914
0.241387
0.202945
0.173033
0.149727
0.131212
0.116369
0.104908
0.0966066
90.5034
12.1248
4.38869
2.46659
1.63315
1.18307
0.902016
0.720666
0.594591
0.502508
0.432685
0.379298
0.336332
0.299916
0.27026
0.24627
0.226769
0.211275
0.201697
0.193768
58.5856
14.5696
6.08947
3.33295
2.08217
1.40267
0.998651
0.740284
0.565901
0.443919
0.356012
0.290914
0.241388
0.202941
0.173036
0.149727
0.131212
0.116369
0.104908
0.0966097
16.5373
9.49239
5.0127
2.8606
1.75746
1.1476
0.786934
0.562053
0.415371
0.315952
0.246338
0.19623
0.15923
0.131262
0.109791
0.0932181
0.0801778
0.0696614
0.060699
0.0565459
13.6679
8.73671
5.07741
3.05388
1.92224
1.2661
0.869295
0.618638
0.453968
0.342046
0.263665
0.20733
0.165925
0.134874
0.111173
0.0927182
0.0781984
0.066653
0.0571648
0.0502858
12.9054
8.33993
5.07879
3.15547
2.02775
1.35121
0.933543
0.666465
0.489554
0.368606
0.283617
0.222403
0.177346
0.143548
0.117765
0.097791
0.0821053
0.0696373
0.0596084
0.0513722
12.6882
8.1544
5.07113
3.20038
2.07939
1.39506
0.967833
0.692723
0.509639
0.384018
0.295506
0.231649
0.184593
0.149261
0.122283
0.101379
0.0849586
0.0719026
0.0614109
0.0529502
12.6882
8.1544
5.07113
3.20038
2.07939
1.39506
0.967829
0.692719
0.509634
0.384011
0.295497
0.231639
0.184581
0.149246
0.122267
0.101358
0.084934
0.0718765
0.0613859
0.0529065
12.9054
8.33993
5.07879
3.15547
2.02775
1.3512
0.933536
0.666457
0.489544
0.368592
0.283601
0.222382
0.177321
0.143519
0.11773
0.0977485
0.0820574
0.0695877
0.0595611
0.0513427
13.6679
8.73671
5.07741
3.05388
1.92223
1.26609
0.86929
0.618632
0.453961
0.342036
0.263653
0.207316
0.165907
0.134854
0.111148
0.0926903
0.0781718
0.0666375
0.0571873
0.0497968
16.5373
9.49239
5.0127
2.8606
1.75746
1.1476
0.786934
0.562053
0.415371
0.315952
0.246338
0.19623
0.15923
0.131263
0.109789
0.0932174
0.0801773
0.0696609
0.0606985
0.0565464
58.5856
14.5696
6.08947
3.33295
2.08217
1.40267
0.998655
0.74029
0.565908
0.443934
0.356036
0.290952
0.241447
0.203056
0.173192
0.149977
0.131644
0.117184
0.106469
0.0992806
45.0226
13.4729
5.73075
3.07322
1.86022
1.22699
0.873568
0.649769
0.497
0.389459
0.311263
0.252942
0.208933
0.175151
0.148732
0.127758
0.110935
0.0972939
0.0861951
0.0778146
13.6679
8.73671
5.07741
3.05388
1.92223
1.26609
0.86929
0.618632
0.453961
0.342036
0.263653
0.207315
0.165907
0.134852
0.11115
0.0926911
0.0781721
0.0666375
0.0571875
0.0497985
11.8601
7.76395
4.99734
3.24076
2.1442
1.45499
1.0141
0.725638
0.53216
0.399155
0.305552
0.23823
0.188835
0.151927
0.123889
0.102257
0.0853436
0.0719555
0.0612201
0.0526415
11.6229
7.60535
5.01031
3.34209
2.26848
1.57142
1.11236
0.804591
0.594209
0.447523
0.343218
0.267642
0.21191
0.170132
0.138338
0.113801
0.0946199
0.079449
0.0673196
0.0575551
11.5726
7.56718
5.02065
3.38344
2.32103
1.62326
1.15828
0.843155
0.62569
0.472849
0.363484
0.283853
0.224905
0.180587
0.146786
0.120662
0.100219
0.0840389
0.0710981
0.0606402
11.5726
7.56718
5.02065
3.38344
2.32103
1.62326
1.15828
0.843153
0.625687
0.472844
0.363478
0.283846
0.224897
0.180578
0.146776
0.120648
0.100203
0.0840203
0.0710781
0.0606126
11.6229
7.60535
5.0103
3.34209
2.26848
1.57142
1.11236
0.804587
0.594203
0.447516
0.343209
0.267631
0.211896
0.170116
0.138318
0.113776
0.094591
0.0794166
0.0672859
0.0575081
11.8601
7.76395
4.99734
3.24076
2.1442
1.45499
1.0141
0.725638
0.53216
0.399155
0.305552
0.23823
0.188835
0.151927
0.123888
0.102257
0.0853432
0.0719551
0.0612196
0.0526409
13.6679
8.73671
5.07741
3.05388
1.92224
1.2661
0.869295
0.618638
0.453968
0.342045
0.263665
0.20733
0.165924
0.134873
0.111173
0.092718
0.0781981
0.0666526
0.0571643
0.0502861
45.0226
13.4729
5.73075
3.07323
1.86023
1.227
0.873583
0.649788
0.497026
0.389501
0.311317
0.253014
0.209033
0.175292
0.148939
0.128067
0.111405
0.0980222
0.087336
0.0793607
38.7028
13.0541
5.74336
3.08733
1.88066
1.2275
0.869469
0.645373
0.492578
0.384762
0.306996
0.249006
0.204924
0.170912
0.144292
0.12317
0.106187
0.0923473
0.0809874
0.0723824
12.9054
8.33993
5.07879
3.15547
2.02775
1.3512
0.933536
0.666457
0.489544
0.368592
0.283601
0.222382
0.17732
0.143518
0.117731
0.097749
0.0820574
0.0695874
0.0595607
0.0513437
11.6229
7.60535
5.0103
3.34209
2.26848
1.57142
1.11236
0.804587
0.594203
0.447516
0.343209
0.267631
0.211896
0.170116
0.138319
0.113777
0.0945911
0.0794165
0.0672857
0.0575073
11.4933
7.5119
5.02843
3.434
2.3892
1.6928
1.22111
0.896487
0.669457
0.508124
0.391658
0.306288
0.242787
0.194891
0.158286
0.12996
0.107787
0.0902393
0.0762059
0.0648265
11.4757
7.50136
5.04297
3.47002
2.43665
1.74299
1.26863
0.938712
0.705583
0.538335
0.416593
0.326729
0.2595
0.208558
0.169486
0.139171
0.115394
0.0965493
0.0814526
0.0691173
11.4757
7.50136
5.04297
3.47002
2.43665
1.74299
1.26863
0.938711
0.705582
0.538334
0.416592
0.326727
0.259498
0.208556
0.169484
0.139168
0.11539
0.0965457
0.0814509
0.0691381
11.4933
7.5119
5.02843
3.434
2.3892
1.6928
1.22111
0.896487
0.669457
0.508124
0.391658
0.306288
0.242787
0.194891
0.158285
0.12996
0.107786
0.0902391
0.0762058
0.0648267
11.6229
7.60535
5.01031
3.34209
2.26848
1.57142
1.11236
0.804591
0.594209
0.447523
0.343218
0.267642
0.211909
0.170131
0.138338
0.113801
0.0946196
0.0794485
0.067319
0.0575548
12.9054
8.33993
5.07879
3.15547
2.02775
1.35121
0.933543
0.666465
0.489554
0.368606
0.283617
0.222403
0.177346
0.143547
0.117766
0.0977915
0.0821055
0.0696373
0.0596084
0.0513721
38.7028
13.0541
5.74337
3.08734
1.88067
1.22751
0.869485
0.645394
0.492604
0.384796
0.307046
0.249074
0.205018
0.171043
0.144482
0.12345
0.106603
0.0929728
0.0818734
0.0731227
36.0571
12.8529
5.76645
3.10212
1.89476
1.22669
0.866499
0.643981
0.492248
0.383961
0.305791
0.247912
0.203909
0.16993
0.143307
0.122161
0.10514
0.0912673
0.0799031
0.0713797
12.6882
8.1544
5.07113
3.20038
2.07939
1.39506
0.967829
0.692719
0.509634
0.384011
0.295497
0.231639
0.18458
0.149245
0.122267
0.101358
0.0849335
0.0718757
0.061385
0.0529058
11.5726
7.56718
5.02065
3.38344
2.32103
1.62326
1.15828
0.843153
0.625687
0.472844
0.363478
0.283846
0.224896
0.180577
0.146776
0.120648
0.100202
0.0840197
0.0710774
0.0606118
11.4757
7.50136
5.04297
3.47002
2.43665
1.74299
1.26863
0.938711
0.705582
0.538334
0.416592
0.326727
0.259498
0.208556
0.169484
0.139168
0.11539
0.0965455
0.0814507
0.0691378
11.4647
7.49683
5.0577
3.50272
2.48038
1.79068
1.31522
0.981304
0.742924
0.57021
0.44335
0.348968
0.277889
0.223737
0.182022
0.149548
0.124012
0.103737
0.0874632
0.0741302
11.4647
7.49683
5.0577
3.50272
2.48038
1.79068
1.31522
0.981304
0.742924
0.57021
0.44335
0.348968
0.277889
0.223737
0.182022
0.149548
0.124012
0.103737
0.0874632
0.0741303
11.4757
7.50136
5.04297
3.47002
2.43665
1.74299
1.26863
0.938712
0.705583
0.538335
0.416593
0.326729
0.2595
0.208558
0.169486
0.139171
0.115393
0.0965491
0.0814524
0.0691172
11.5726
7.56718
5.02065
3.38344
2.32103
1.62326
1.15828
0.843155
0.62569
0.472849
0.363484
0.283853
0.224904
0.180587
0.146787
0.120662
0.100219
0.0840386
0.0710977
0.06064
12.6882
8.1544
5.07113
3.20038
2.07939
1.39506
0.967833
0.692723
0.509639
0.384018
0.295506
0.231649
0.184593
0.149259
0.122285
0.10138
0.084959
0.0719028
0.0614112
0.0529505
36.0571
12.8529
5.76645
3.10212
1.89476
1.22669
0.866506
0.64399
0.49226
0.383977
0.305814
0.247943
0.203952
0.16999
0.143396
0.122291
0.105332
0.0915501
0.0803328
0.0721458
36.0571
12.8529
5.76645
3.10212
1.89476
1.22669
0.866506
0.64399
0.49226
0.383977
0.305814
0.247943
0.203952
0.169991
0.143394
0.122289
0.105331
0.0915494
0.0803318
0.0721449
12.6882
8.1544
5.07113
3.20038
2.07939
1.39506
0.967833
0.692723
0.509639
0.384018
0.295505
0.231649
0.184593
0.14926
0.122283
0.101379
0.0849583
0.0719021
0.0614103
0.0529495
11.5726
7.56718
5.02065
3.38344
2.32103
1.62326
1.15828
0.843155
0.62569
0.472849
0.363484
0.283853
0.224905
0.180587
0.146786
0.120662
0.100219
0.0840386
0.0710978
0.0606399
11.4757
7.50136
5.04297
3.47002
2.43665
1.74299
1.26863
0.938712
0.705583
0.538335
0.416593
0.326729
0.2595
0.208558
0.169486
0.139171
0.115394
0.0965493
0.0814527
0.0691176
11.4647
7.49683
5.0577
3.50272
2.48038
1.79068
1.31522
0.981304
0.742924
0.57021
0.44335
0.348968
0.277889
0.223737
0.182022
0.149548
0.124012
0.103737
0.0874633
0.0741306
11.4647
7.49683
5.0577
3.50272
2.48038
1.79068
1.31522
0.981304
0.742924
0.57021
0.44335
0.348968
0.277889
0.223737
0.182022
0.149548
0.124012
0.103737
0.0874633
0.0741304
11.4757
7.50136
5.04297
3.47002
2.43665
1.74299
1.26863
0.938711
0.705582
0.538334
0.416592
0.326727
0.259498
0.208556
0.169484
0.139168
0.11539
0.0965457
0.081451
0.0691385
11.5726
7.56718
5.02065
3.38344
2.32103
1.62326
1.15828
0.843153
0.625687
0.472844
0.363478
0.283846
0.224897
0.180578
0.146775
0.120648
0.100202
0.0840203
0.0710782
0.0606131
12.6882
8.1544
5.07113
3.20038
2.07939
1.39506
0.967829
0.692719
0.509634
0.384011
0.295497
0.231639
0.18458
0.149245
0.122267
0.101358
0.0849341
0.0718765
0.0613859
0.0529069
36.0571
12.8529
5.76645
3.10212
1.89476
1.22669
0.866499
0.643981
0.492248
0.383961
0.305791
0.247912
0.203909
0.169929
0.143308
0.122161
0.105141
0.0912679
0.0799041
0.0713814
38.7028
13.0541
5.74337
3.08734
1.88067
1.22751
0.869485
0.645394
0.492604
0.384796
0.307047
0.249074
0.205018
0.171044
0.14448
0.123449
0.106603
0.0929726
0.0818733
0.0731225
12.9054
8.33993
5.07879
3.15547
2.02775
1.35121
0.933543
0.666465
0.489554
0.368606
0.283617
0.222403
0.177346
0.143548
0.117765
0.0977911
0.0821055
0.0696375
0.0596086
0.0513724
11.6229
7.60535
5.01031
3.34209
2.26848
1.57142
1.11236
0.804591
0.594209
0.447523
0.343218
0.267642
0.21191
0.170132
0.138338
0.113801
0.0946202
0.0794494
0.0673202
0.0575562
11.4933
7.5119
5.02843
3.434
2.3892
1.6928
1.22111
0.896487
0.669457
0.508124
0.391658
0.306288
0.242787
0.194891
0.158286
0.12996
0.107787
0.0902398
0.0762066
0.0648276
11.4757
7.50136
5.04297
3.47002
2.43665
1.74299
1.26863
0.938711
0.705582
0.538334
0.416592
0.326727
0.259498
0.208556
0.169484
0.139168
0.11539
0.0965458
0.0814511
0.0691385
11.4757
7.50136
5.04297
3.47002
2.43665
1.74299
1.26863
0.938712
0.705583
0.538335
0.416593
0.326729
0.2595
0.208558
0.169486
0.139171
0.115393
0.0965492
0.0814526
0.0691175
11.4933
7.5119
5.02843
3.434
2.3892
1.6928
1.22111
0.896487
0.669457
0.508124
0.391658
0.306288
0.242787
0.194891
0.158285
0.12996
0.107787
0.0902394
0.0762062
0.0648274
11.6229
7.60535
5.0103
3.34209
2.26848
1.57142
1.11236
0.804587
0.594203
0.447516
0.343209
0.267631
0.211896
0.170116
0.138318
0.113777
0.0945912
0.0794169
0.0672864
0.0575083
12.9054
8.33993
5.07879
3.15547
2.02775
1.3512
0.933536
0.666456
0.489543
0.368592
0.283601
0.222382
0.177321
0.143519
0.11773
0.0977484
0.0820572
0.0695875
0.0595609
0.0513436
38.7028
13.0541
5.74336
3.08733
1.88066
1.22749
0.869469
0.645373
0.492578
0.384762
0.306996
0.249006
0.204925
0.170913
0.144291
0.12317
0.106187
0.0923475
0.0809877
0.072383
45.0226
13.4729
5.73075
3.07323
1.86023
1.227
0.873583
0.649788
0.497026
0.389501
0.311317
0.253015
0.209033
0.175292
0.148938
0.128067
0.111405
0.0980227
0.0873371
0.0793623
13.6679
8.73671
5.07741
3.05388
1.92224
1.2661
0.869295
0.618638
0.453968
0.342046
0.263665
0.20733
0.165925
0.134874
0.111173
0.0927186
0.078199
0.0666538
0.0571657
0.0502878
11.8601
7.76395
4.99734
3.24076
2.1442
1.45499
1.0141
0.725638
0.53216
0.399155
0.305552
0.23823
0.188835
0.151927
0.123889
0.102258
0.0853444
0.0719565
0.0612212
0.052643
11.6229
7.60535
5.0103
3.34209
2.26848
1.57142
1.11236
0.804587
0.594203
0.447516
0.343209
0.267631
0.211896
0.170116
0.138319
0.113777
0.0945917
0.0794172
0.0672865
0.0575082
11.5726
7.56718
5.02065
3.38344
2.32103
1.62326
1.15828
0.843153
0.625687
0.472844
0.363478
0.283846
0.224896
0.180578
0.146776
0.120648
0.100202
0.08402
0.0710778
0.0606122
11.5726
7.56718
5.02065
3.38344
2.32103
1.62326
1.15828
0.843155
0.62569
0.472849
0.363484
0.283853
0.224905
0.180587
0.146786
0.120662
0.100219
0.0840384
0.0710975
0.0606398
11.6229
7.60535
5.01031
3.34209
2.26848
1.57142
1.11236
0.804591
0.594209
0.447523
0.343218
0.267642
0.211909
0.170131
0.138338
0.113801
0.0946199
0.079449
0.0673196
0.057555
11.8601
7.76395
4.99734
3.24076
2.1442
1.45499
1.0141
0.725638
0.53216
0.399155
0.305552
0.23823
0.188835
0.151927
0.123888
0.102257
0.0853437
0.0719558
0.0612203
0.0526417
13.6679
8.73671
5.07741
3.05388
1.92223
1.26609
0.869291
0.618632
0.453961
0.342036
0.263653
0.207316
0.165907
0.134854
0.111148
0.0926902
0.0781717
0.0666373
0.057187
0.049798
45.0226
13.4729
5.73075
3.07322
1.86022
1.22699
0.873568
0.649769
0.497
0.389459
0.311263
0.252942
0.208933
0.175152
0.14873
0.127757
0.110935
0.0972935
0.0861942
0.0778139
58.5856
14.5696
6.08947
3.33295
2.08217
1.40267
0.998655
0.74029
0.565908
0.443934
0.356036
0.290952
0.241447
0.203054
0.173193
0.149977
0.131646
0.117186
0.106473
0.0992862
16.5373
9.49239
5.0127
2.8606
1.75746
1.1476
0.786934
0.562053
0.415371
0.315952
0.246339
0.19623
0.15923
0.131262
0.109791
0.0932184
0.0801782
0.0696617
0.0606996
0.0565467
13.6679
8.73671
5.07741
3.05388
1.92223
1.26609
0.86929
0.618632
0.453961
0.342036
0.263653
0.207316
0.165907
0.134852
0.11115
0.0926912
0.0781723
0.0666377
0.0571877
0.0497987
12.9054
8.33993
5.07879
3.15547
2.02775
1.3512
0.933536
0.666457
0.489544
0.368592
0.283601
0.222382
0.17732
0.143517
0.117731
0.097749
0.0820573
0.0695874
0.0595606
0.0513435
12.6882
8.1544
5.07113
3.20038
2.07939
1.39506
0.967829
0.692719
0.509634
0.384011
0.295497
0.231639
0.18458
0.149245
0.122267
0.101358
0.0849334
0.0718756
0.0613848
0.0529056
12.6882
8.1544
5.07113
3.20038
2.07939
1.39506
0.967832
0.692723
0.509639
0.384018
0.295505
0.231649
0.184593
0.14926
0.122283
0.101379
0.0849582
0.0719021
0.0614103
0.0529495
12.9054
8.33993
5.07879
3.15547
2.02775
1.35121
0.933543
0.666465
0.489554
0.368606
0.283617
0.222403
0.177346
0.143547
0.117766
0.0977916
0.0821057
0.0696376
0.0596087
0.0513724
13.6679
8.73671
5.07741
3.05388
1.92224
1.2661
0.869295
0.618638
0.453968
0.342046
0.263665
0.20733
0.165925
0.134874
0.111173
0.0927186
0.0781989
0.0666536
0.0571653
0.0502862
16.5373
9.49239
5.0127
2.8606
1.75746
1.1476
0.786934
0.562053
0.415371
0.315952
0.246338
0.19623
0.15923
0.131263
0.10979
0.0932176
0.0801775
0.0696611
0.0606988
0.0565459
58.5856
14.5696
6.08947
3.33295
2.08217
1.40267
0.998651
0.740284
0.565901
0.443919
0.356012
0.290914
0.241387
0.202944
0.173033
0.149727
0.131212
0.116369
0.104909
0.0966098
90.5034
12.1248
4.38869
2.46659
1.63315
1.18307
0.902016
0.720666
0.594591
0.502508
0.432685
0.379298
0.336333
0.299912
0.270263
0.24627
0.22677
0.211276
0.201697
0.193777
58.5856
14.5696
6.08947
3.33295
2.08217
1.40267
0.998651
0.740284
0.565901
0.443919
0.356012
0.290914
0.241388
0.202941
0.173036
0.149728
0.131212
0.116369
0.104909
0.0966106
45.0226
13.4729
5.73075
3.07322
1.86022
1.22699
0.873568
0.649769
0.497
0.389459
0.311263
0.252941
0.208933
0.17515
0.148732
0.127758
0.110935
0.0972932
0.086194
0.0778131
38.7028
13.0541
5.74336
3.08733
1.88066
1.22749
0.869469
0.645373
0.492578
0.384761
0.306996
0.249006
0.204924
0.170912
0.144292
0.12317
0.106186
0.0923466
0.0809863
0.0723804
36.0571
12.8529
5.76645
3.10211
1.89476
1.22669
0.866499
0.643981
0.492248
0.383961
0.305791
0.247912
0.203909
0.16993
0.143306
0.12216
0.10514
0.091267
0.0799028
0.0713794
36.0571
12.8529
5.76645
3.10212
1.89476
1.22669
0.866506
0.64399
0.49226
0.383977
0.305814
0.247943
0.203952
0.169991
0.143393
0.122289
0.105331
0.0915497
0.0803323
0.0721459
38.7028
13.0541
5.74337
3.08734
1.88067
1.22751
0.869485
0.645394
0.492604
0.384796
0.307047
0.249074
0.205018
0.171043
0.144481
0.12345
0.106603
0.0929732
0.0818741
0.0731235
45.0226
13.4729
5.73075
3.07323
1.86023
1.227
0.873583
0.649788
0.497026
0.389502
0.311317
0.253015
0.209033
0.175292
0.148939
0.128068
0.111406
0.0980231
0.0873377
0.0793628
58.5856
14.5696
6.08947
3.33295
2.08217
1.40267
0.998655
0.74029
0.565908
0.443934
0.356036
0.290952
0.241447
0.203056
0.173192
0.149977
0.131645
0.117186
0.106473
0.099287
90.5034
12.1248
4.38869
2.46659
1.63315
1.18307
0.902016
0.720666
0.594591
0.502508
0.432685
0.379298
0.336331
0.299916
0.27026
0.246269
0.226769
0.211276
0.201699
0.19378
0.345845
0.276594
0.22055
0.190324
0.172998
0.162306
0.154637
0.148207
0.142843
0.138302
0.134273
0.130601
0.126963
0.123504
0.120257
0.117214
0.114368
0.111728
0.109291
0.107018
0.104864
0.10293
0.101204
0.0996356
0.0980695
0.0966327
0.0952812
0.0939985
0.0928462
0.0918858
0.09082
0.0898665
0.0889664
0.088175
0.087742
0.0869128
0.0864265
0.0859365
0.0855139
0.0849209
0.114729
0.0978251
0.0849025
0.0764198
0.070652
0.0663266
0.0629419
0.0599786
0.0573981
0.0551463
0.0530928
0.0512944
0.0495684
0.0479862
0.046434
0.0450092
0.0436967
0.0425061
0.0414102
0.040414
0.0394701
0.0386277
0.0378753
0.0372703
0.0366205
0.0360364
0.0354937
0.0349862
0.0344769
0.0341234
0.0336587
0.0332767
0.0329345
0.0325872
0.0324377
0.0321149
0.0318794
0.0316902
0.0315288
0.0313597
0.07841
0.0704091
0.0637867
0.0586882
0.0540925
0.0501992
0.0469779
0.0442956
0.0419807
0.039946
0.0381487
0.0365592
0.0351474
0.0339153
0.0326239
0.0314866
0.030465
0.0295461
0.0287208
0.0279533
0.0271988
0.0264846
0.0258687
0.0253858
0.0248644
0.0243942
0.0239616
0.0235661
0.023202
0.0229276
0.0225572
0.0222542
0.0219908
0.0217821
0.0217056
0.0214256
0.0212246
0.0210641
0.0209329
0.0208183
0.0763696
0.0636382
0.0565752
0.0513653
0.047157
0.0436724
0.0406994
0.0381297
0.0358827
0.0338986
0.0321337
0.0305545
0.0291355
0.0278499
0.0267073
0.0256698
0.0247257
0.0238632
0.0231108
0.0223261
0.0216179
0.0210002
0.0204023
0.0199347
0.0194432
0.0190138
0.0186276
0.0182861
0.0179204
0.0177079
0.017371
0.0171119
0.0168876
0.0166954
0.016526
0.0164606
0.0162555
0.016108
0.0159888
0.0158867
0.0719697
0.0611192
0.0540483
0.0487066
0.0444367
0.0409095
0.0379503
0.0354169
0.0331917
0.0312181
0.029458
0.027883
0.0264689
0.0251978
0.0240509
0.0230136
0.0220751
0.0212313
0.0204591
0.0197554
0.0191163
0.01857
0.0179703
0.0175137
0.0170346
0.0166193
0.0162465
0.0159218
0.0155678
0.0153786
0.015062
0.0148334
0.0146366
0.0144627
0.0143069
0.0142531
0.0140495
0.0139038
0.013791
0.0136989
0.0687135
0.0598924
0.0533206
0.0481046
0.0438332
0.0402532
0.037211
0.0345983
0.0323109
0.0302792
0.028471
0.0268561
0.0254049
0.0241114
0.0229475
0.0218992
0.020956
0.020106
0.0193387
0.0186521
0.0180319
0.0174746
0.0169747
0.0165645
0.0160653
0.0156251
0.0152423
0.0149187
0.014578
0.0143848
0.0140988
0.0138657
0.0136562
0.0134645
0.0132958
0.0131672
0.0131192
0.0129516
0.0128388
0.0127475
0.0674116
0.0604604
0.0544452
0.0493014
0.0449031
0.0411259
0.0378789
0.0350837
0.0326485
0.0305169
0.028643
0.0269908
0.0255227
0.0242218
0.0230574
0.0220117
0.0210711
0.0202245
0.0194622
0.0187764
0.0181646
0.0176149
0.0171098
0.0166797
0.016181
0.0157494
0.0153697
0.0150403
0.0146913
0.0144788
0.0141781
0.0139348
0.0137155
0.0135286
0.013358
0.0132397
0.0131782
0.0130076
0.012883
0.0127851
0.0773568
0.0674141
0.0595371
0.0531862
0.0479634
0.0436562
0.0400333
0.0370076
0.0344564
0.0322844
0.0303851
0.0287149
0.0272317
0.0259131
0.0247354
0.0236725
0.0227225
0.0218725
0.0211048
0.0204081
0.0197744
0.0192078
0.0186153
0.0181577
0.0176825
0.0172669
0.0168813
0.0165187
0.0161675
0.0159174
0.0156092
0.0153538
0.0151239
0.014922
0.0147439
0.0146005
0.0145393
0.0143383
0.0141939
0.0140797
0.0976427
0.0816428
0.0696398
0.0607694
0.0537033
0.0487931
0.0451032
0.0420847
0.0395361
0.0373462
0.0354229
0.0337525
0.032256
0.0308875
0.0297009
0.0284752
0.0274116
0.0264602
0.0256147
0.024824
0.0241051
0.0234448
0.0228143
0.022301
0.021759
0.0212878
0.0208523
0.02046
0.0200799
0.0198134
0.019453
0.0191657
0.0189116
0.0186908
0.018493
0.0183433
0.0182487
0.0180279
0.0178687
0.0177398
0.138333
0.115237
0.0953939
0.0816687
0.0723222
0.0661829
0.0618477
0.0583229
0.0554434
0.0529863
0.0507837
0.0489904
0.047069
0.0452609
0.0436588
0.0421627
0.0407902
0.039534
0.0383863
0.0373314
0.0363652
0.0355162
0.0347468
0.0340907
0.033414
0.0328147
0.032261
0.0317501
0.031238
0.0308596
0.030403
0.03003
0.0296948
0.0293942
0.0290823
0.0290265
0.0286943
0.0284711
0.028298
0.0281149
0.345901
0.276626
0.220583
0.190392
0.17293
0.162361
0.15469
0.148244
0.142866
0.138305
0.134279
0.130613
0.126931
0.123475
0.120239
0.117198
0.114355
0.111713
0.109276
0.107
0.104852
0.102927
0.101202
0.0996378
0.0980634
0.0966322
0.0952817
0.094004
0.0928583
0.0918998
0.090819
0.089877
0.0889903
0.0881919
0.0875304
0.0871863
0.0865095
0.0859719
0.0854931
0.0848028
0.138363
0.115188
0.0953597
0.0816231
0.0722945
0.0661435
0.061818
0.0583047
0.0554335
0.0529852
0.0507825
0.0489852
0.0470777
0.0452771
0.0436651
0.042177
0.0408005
0.0395518
0.0384026
0.0373483
0.0363838
0.0355302
0.0347616
0.0341105
0.0334345
0.0328363
0.0322838
0.0317737
0.0312593
0.0308899
0.0304297
0.0300572
0.0297207
0.0293946
0.0292254
0.0289851
0.0286863
0.0284928
0.0283345
0.0281637
0.0621212
0.0536072
0.0457219
0.0395839
0.0353433
0.0324031
0.0301412
0.0281873
0.0265314
0.0250984
0.0238101
0.022666
0.0216368
0.0205787
0.019718
0.0188581
0.0181316
0.0174427
0.0168634
0.0163045
0.0157692
0.0153535
0.0148839
0.0146813
0.0143921
0.0140459
0.0137647
0.0135114
0.013284
0.0132981
0.0130402
0.0127505
0.0125673
0.0124487
0.0126176
0.0123728
0.0121731
0.0120551
0.011984
0.0119237
0.0511204
0.0426631
0.0366969
0.0317423
0.0284966
0.0259699
0.0238151
0.0219832
0.0204263
0.0190415
0.0178566
0.0166695
0.0159642
0.0148114
0.0142282
0.0133562
0.0128878
0.0122111
0.011818
0.0113128
0.0108983
0.0105904
0.0101569
0.00997597
0.00970817
0.00941158
0.00923238
0.00899245
0.00881607
0.00884139
0.00867951
0.00840301
0.00828566
0.00810958
0.00812689
0.00823748
0.0080837
0.0078606
0.00776945
0.00767269
0.0461417
0.0402041
0.0351995
0.0310008
0.0273797
0.0243707
0.0222003
0.0203687
0.0187641
0.0173554
0.0161162
0.015026
0.0140745
0.0131993
0.0124258
0.0117408
0.0111328
0.0106045
0.0100621
0.00970699
0.00916514
0.00889916
0.00848516
0.00836251
0.00798929
0.00782614
0.00753991
0.00741555
0.00720975
0.00723688
0.00709028
0.0068563
0.0067655
0.00658048
0.0065477
0.00665254
0.006553
0.00635442
0.00631461
0.00618748
0.0465489
0.0403865
0.0353078
0.031109
0.0276094
0.0246847
0.0219881
0.019772
0.0181655
0.0167541
0.0154987
0.01439
0.0134151
0.012529
0.0117411
0.0110392
0.0104133
0.00985448
0.00935411
0.00890816
0.00851006
0.00816012
0.00785319
0.00758017
0.00733113
0.00708342
0.00686929
0.00668387
0.00652521
0.00651793
0.0063584
0.00617549
0.00607698
0.00589194
0.00585203
0.00594363
0.00584268
0.00569778
0.0056412
0.00551473
0.0460467
0.040206
0.0352634
0.0311124
0.0276135
0.0246689
0.0220678
0.0197152
0.0178894
0.0165034
0.0152515
0.0141354
0.0131464
0.0122504
0.0114525
0.0107433
0.0101119
0.00954888
0.00904623
0.00859818
0.00819943
0.00784736
0.00755391
0.00731175
0.00703552
0.00678832
0.00658288
0.00639695
0.00624201
0.00623614
0.00607088
0.00591508
0.00578229
0.00566251
0.00558363
0.00569372
0.00557213
0.00549721
0.00532796
0.00528373
0.0458928
0.040141
0.0351755
0.0309691
0.0274162
0.0244214
0.0216991
0.0194668
0.0178216
0.0164178
0.0151641
0.0140583
0.0130861
0.0122022
0.0114175
0.0107196
0.0100976
0.00954351
0.00904972
0.00860995
0.00821882
0.0078702
0.00758189
0.00732208
0.00708154
0.00681651
0.0066351
0.00644619
0.0063155
0.00630636
0.00614601
0.00596259
0.00586937
0.00567251
0.00564333
0.00576331
0.00564182
0.00556581
0.00539851
0.00535678
0.0501223
0.041946
0.0357936
0.0310002
0.027106
0.0238821
0.0215091
0.0196965
0.0181088
0.0167187
0.0155
0.0144346
0.0134957
0.012637
0.0118711
0.0111901
0.0105723
0.0100318
0.00954207
0.00910375
0.00873615
0.00833457
0.00803903
0.00774554
0.00757463
0.00725652
0.00713521
0.00686416
0.00675782
0.00675981
0.00661852
0.00637551
0.00629174
0.00609689
0.00603789
0.00605459
0.00619773
0.00608291
0.00587423
0.00580209
0.0542371
0.0438889
0.0367672
0.0313663
0.0276966
0.0251417
0.0230046
0.0211865
0.0196241
0.0182667
0.0170898
0.016035
0.0150947
0.0142322
0.0134149
0.012818
0.0120147
0.0115781
0.0109364
0.0106105
0.0100852
0.00981552
0.00938079
0.00919518
0.00895237
0.00863514
0.00849271
0.00820782
0.00808479
0.00809221
0.00792656
0.0076471
0.00754577
0.0073636
0.00731293
0.0073372
0.00747544
0.00732726
0.0070963
0.00701459
0.0621251
0.0536112
0.0457123
0.0395975
0.0352981
0.0323986
0.0301458
0.0281922
0.0265351
0.0251012
0.0238023
0.0226584
0.021633
0.0205921
0.0197018
0.0188553
0.0181242
0.0174393
0.016859
0.0162937
0.0157755
0.0153265
0.0148946
0.014661
0.0144062
0.0140441
0.0137579
0.0135062
0.0132789
0.0132934
0.0130324
0.0127443
0.0125614
0.0124249
0.0123036
0.0123087
0.0124643
0.0122379
0.0120337
0.0119249
0.114738
0.0978328
0.0849096
0.0764428
0.0706188
0.0663608
0.0629742
0.0600012
0.057414
0.0551532
0.0530957
0.0513142
0.0495634
0.0479791
0.0464308
0.0450035
0.0436934
0.0425008
0.0414059
0.0404116
0.039467
0.0386327
0.0378793
0.0372798
0.0366275
0.0360426
0.0355004
0.0349945
0.034486
0.0341379
0.0336697
0.0332837
0.0329395
0.0326333
0.0323237
0.0322573
0.0319463
0.031714
0.0315245
0.0313275
0.0976466
0.0816044
0.0696383
0.0607505
0.0536915
0.0487845
0.0450977
0.0420829
0.0395376
0.0373499
0.0354278
0.0337598
0.0322609
0.0308985
0.0297007
0.0284922
0.0274164
0.026481
0.0256297
0.0248396
0.0241235
0.0234625
0.0228334
0.0223194
0.0217801
0.0213085
0.0208756
0.0204843
0.0201075
0.0198445
0.0194826
0.0191929
0.018938
0.0187162
0.0185201
0.0184161
0.0182847
0.0180666
0.0179129
0.0177878
0.0542405
0.0438702
0.0367089
0.031399
0.0277131
0.0251443
0.0230016
0.021182
0.0196197
0.0182628
0.0170838
0.0160183
0.015155
0.0141788
0.0135486
0.0126278
0.012152
0.0114294
0.0110171
0.010597
0.0100738
0.00981511
0.00937399
0.00921083
0.00892607
0.00863929
0.00848205
0.00820201
0.00807064
0.00809553
0.00791776
0.00764273
0.00752765
0.00735511
0.00739193
0.00752775
0.00733856
0.00717277
0.00703593
0.00694307
0.0459845
0.0398971
0.034606
0.0301618
0.0264894
0.0235309
0.0210949
0.0190602
0.0173383
0.0158604
0.014583
0.0134555
0.0124988
0.0116113
0.0108435
0.0101353
0.0094466
0.00888684
0.00849678
0.00807733
0.00769689
0.00733905
0.00697394
0.00674837
0.00653489
0.00626891
0.00612385
0.00589464
0.00575545
0.0057896
0.00566959
0.00545805
0.00535074
0.00517962
0.00511884
0.00530288
0.00520615
0.00500794
0.0049383
0.00480374
0.047804
0.0414042
0.0360684
0.0315904
0.0278244
0.0246541
0.0220055
0.0197607
0.0178421
0.0161905
0.0147601
0.0135103
0.012432
0.0114696
0.0106182
0.00986625
0.00918655
0.00858623
0.00805733
0.00759085
0.00716927
0.00671478
0.006423
0.00623948
0.00599625
0.00577416
0.00554821
0.00538505
0.00519362
0.00522149
0.00507514
0.00493918
0.00482952
0.00465517
0.00457629
0.00473305
0.00463213
0.00449166
0.00442536
0.00427602
0.0493085
0.042883
0.0374515
0.0328626
0.0289791
0.0256857
0.0228671
0.0204553
0.0184078
0.016652
0.015131
0.0138034
0.0126605
0.0116434
0.010746
0.00995186
0.00924626
0.0086178
0.0080569
0.00755756
0.00711062
0.00671235
0.00631177
0.00602367
0.00581076
0.00559365
0.00539895
0.0052297
0.0050826
0.00507805
0.00492437
0.00478393
0.00466146
0.00454701
0.00444467
0.00456603
0.00446114
0.00436941
0.00426607
0.00417378
0.0502632
0.0436217
0.0380522
0.0333658
0.0294065
0.0260481
0.0231779
0.0207075
0.0185957
0.0167942
0.0152408
0.0138879
0.0127234
0.011689
0.0107769
0.00997021
0.00925446
0.00861621
0.00804809
0.00754223
0.00708987
0.00669262
0.00629692
0.0060158
0.00573248
0.00557591
0.00535177
0.00509104
0.00501344
0.0050218
0.00487569
0.00473915
0.00461522
0.004516
0.00442062
0.00453635
0.00443208
0.00433665
0.0042393
0.00414839
0.0501498
0.0432835
0.0376227
0.0329059
0.0289465
0.0256035
0.0227573
0.0203331
0.0182737
0.0165103
0.01499
0.0136697
0.0125358
0.0115267
0.0106374
0.00985064
0.00915115
0.00852947
0.00797754
0.00748495
0.00704356
0.00665347
0.00625688
0.00597126
0.00573354
0.00553829
0.00534124
0.00518587
0.00505482
0.00505457
0.00490527
0.0047679
0.00465101