/*--------------------------------*- C++ -*----------------------------------*\
| =========                 |                                                 |
| \\      /  F ield         | OpenFOAM: The Open Source CFD Toolbox           |
|  \\    /   O peration     | Version:  2212                                  |
|   \\  /    A nd           | Website:  www.openfoam.com                      |
|    \\/     M anipulation  |                                                 |
\*---------------------------------------------------------------------------*/
FoamFile
{
    version     2.0;
    format      ascii;
    arch        "LSB;label=32;scalar=64";
    class       volScalarField;
    location    "1.1";
    object      nut;
}
// * * * * * * * * * * * * * * * * * * * * * * * * * * * * * * * * * * * * * //

dimensions      [0 2 -1 0 0 0 0];

internalField   nonuniform List<scalar> 
6840
(
4.5356e-05
2.3208e-05
1.65396e-05
1.36493e-05
1.18966e-05
1.06844e-05
9.76076e-06
9.05712e-06
8.49474e-06
8.03137e-06
7.64061e-06
7.31239e-06
7.02502e-06
6.76126e-06
6.53015e-06
6.33002e-06
6.15705e-06
6.01091e-06
5.9114e-06
5.81548e-06
0.000107685
6.77183e-05
5.06311e-05
4.14159e-05
3.54049e-05
3.10367e-05
2.77137e-05
2.50817e-05
2.29335e-05
2.11508e-05
1.96509e-05
1.8372e-05
1.72643e-05
1.62958e-05
1.54538e-05
1.47294e-05
1.41022e-05
1.35644e-05
1.31329e-05
1.28257e-05
0.000160509
0.00010736
8.07409e-05
6.55976e-05
5.54896e-05
4.83026e-05
4.31311e-05
3.90793e-05
3.57396e-05
3.29504e-05
3.05791e-05
2.85369e-05
2.67772e-05
2.52513e-05
2.39167e-05
2.27433e-05
2.17114e-05
2.08056e-05
2.00232e-05
1.93939e-05
0.000198681
0.0001383
0.000105187
8.55269e-05
7.25013e-05
6.28902e-05
5.60612e-05
5.07595e-05
4.63884e-05
4.27223e-05
3.9626e-05
3.69566e-05
3.46352e-05
3.26059e-05
3.08229e-05
2.92497e-05
2.78558e-05
2.6617e-05
2.55144e-05
2.45387e-05
0.000218609
0.000155003
0.000118661
9.65069e-05
8.18824e-05
7.08356e-05
6.30856e-05
5.71434e-05
5.22483e-05
4.80962e-05
4.45825e-05
4.15719e-05
3.89522e-05
3.66584e-05
3.46383e-05
3.28504e-05
3.12594e-05
2.98376e-05
2.85724e-05
2.75559e-05
0.000218609
0.000155003
0.000118661
9.65068e-05
8.18823e-05
7.08354e-05
6.30854e-05
5.71431e-05
5.22478e-05
4.80954e-05
4.45811e-05
4.15697e-05
3.89488e-05
3.66531e-05
3.46299e-05
3.28368e-05
3.12376e-05
2.98034e-05
2.85229e-05
2.75213e-05
0.000198681
0.0001383
0.000105187
8.55269e-05
7.25011e-05
6.289e-05
5.60608e-05
5.07588e-05
4.63873e-05
4.27207e-05
3.96233e-05
3.69524e-05
3.46286e-05
3.25955e-05
3.08063e-05
2.92224e-05
2.78111e-05
2.65442e-05
2.54056e-05
2.44848e-05
0.000160509
0.00010736
8.07408e-05
6.55975e-05
5.54895e-05
4.83024e-05
4.31308e-05
3.90788e-05
3.57388e-05
3.29488e-05
3.05769e-05
2.85334e-05
2.67718e-05
2.52426e-05
2.39026e-05
2.27197e-05
2.16721e-05
2.07401e-05
1.99179e-05
1.92639e-05
0.000107685
6.77183e-05
5.06311e-05
4.14159e-05
3.54048e-05
3.10367e-05
2.77137e-05
2.50816e-05
2.29334e-05
2.11505e-05
1.96504e-05
1.8371e-05
1.72625e-05
1.62919e-05
1.54476e-05
1.47184e-05
1.40816e-05
1.35223e-05
1.30462e-05
1.26576e-05
4.5356e-05
2.3208e-05
1.65396e-05
1.36493e-05
1.18966e-05
1.06844e-05
9.76076e-06
9.05712e-06
8.49474e-06
8.03137e-06
7.64061e-06
7.3124e-06
7.02494e-06
6.76136e-06
6.53009e-06
6.32998e-06
6.15703e-06
6.01089e-06
5.9114e-06
5.81521e-06
0.000107685
6.77183e-05
5.06311e-05
4.14159e-05
3.54048e-05
3.10367e-05
2.77137e-05
2.50816e-05
2.29334e-05
2.11505e-05
1.96504e-05
1.8371e-05
1.72625e-05
1.62918e-05
1.54475e-05
1.47186e-05
1.40816e-05
1.35223e-05
1.30462e-05
1.26582e-05
0.000528907
0.000369984
0.000305097
0.000261371
0.000228528
0.000202475
0.000181113
0.000163072
0.000147537
0.00013398
0.000122044
0.000111458
0.000102122
9.38418e-05
8.64338e-05
7.96243e-05
7.34148e-05
6.78736e-05
6.36348e-05
5.51864e-05
0.000663952
0.000488459
0.000404619
0.000347248
0.000305036
0.000272128
0.000245319
0.00022289
0.000203758
0.000187183
0.00017266
0.000159823
0.000148387
0.000138141
0.000128919
0.000120719
0.00011335
0.000106684
0.000101129
9.45074e-05
0.00071288
0.000556432
0.000466397
0.000402355
0.000354426
0.000317051
0.000286676
0.000261257
0.000239584
0.000220849
0.000204448
0.000189958
0.000177058
0.000165491
0.000155056
0.000145611
0.000137028
0.000129196
0.000122032
0.000115705
0.000728543
0.000588231
0.000496002
0.000429132
0.00037851
0.000338934
0.000306818
0.000279973
0.000257071
0.000237253
0.000219904
0.000204567
0.000190899
0.000178629
0.000167549
0.000157486
0.000148294
0.00013984
0.000131997
0.000124582
0.000728543
0.000588231
0.000496002
0.000429131
0.000378509
0.000338934
0.000306816
0.00027997
0.000257067
0.000237246
0.000219893
0.00020455
0.000190871
0.000178584
0.000167474
0.000157368
0.000148104
0.000139535
0.000131504
0.000123562
0.00071288
0.000556432
0.000466397
0.000402354
0.000354425
0.000317049
0.000286673
0.000261252
0.000239576
0.000220836
0.000204427
0.000189924
0.000177002
0.000165401
0.000154912
0.000145375
0.00013664
0.000128561
0.000121024
0.00011405
0.000663952
0.000488458
0.000404619
0.000347248
0.000305035
0.000272127
0.000245317
0.000222886
0.000203751
0.000187173
0.000172643
0.000159797
0.000148346
0.000138075
0.000128814
0.000120545
0.000113056
0.000106174
0.000100197
9.42532e-05
0.000528907
0.000369984
0.000305097
0.000261371
0.000228528
0.000202475
0.000181113
0.000163072
0.000147537
0.00013398
0.000122044
0.000111458
0.000102122
9.38416e-05
8.64335e-05
7.96242e-05
7.34148e-05
6.78735e-05
6.36344e-05
5.51831e-05
0.000107685
6.77183e-05
5.06311e-05
4.14159e-05
3.54049e-05
3.10367e-05
2.77137e-05
2.50817e-05
2.29335e-05
2.11508e-05
1.96509e-05
1.8372e-05
1.72643e-05
1.62959e-05
1.54538e-05
1.47292e-05
1.4102e-05
1.35642e-05
1.31326e-05
1.28252e-05
0.000160509
0.00010736
8.07408e-05
6.55975e-05
5.54895e-05
4.83024e-05
4.31308e-05
3.90788e-05
3.57388e-05
3.29488e-05
3.05769e-05
2.85334e-05
2.67717e-05
2.52427e-05
2.39026e-05
2.27199e-05
2.16722e-05
2.07401e-05
1.99178e-05
1.92637e-05
0.000663952
0.000488458
0.000404619
0.000347248
0.000305035
0.000272127
0.000245317
0.000222886
0.000203751
0.000187173
0.000172643
0.000159797
0.000148346
0.000138076
0.000128814
0.000120545
0.000113055
0.000106174
0.000100195
9.42447e-05
0.000786828
0.000662293
0.000567974
0.000495805
0.000439463
0.000394562
0.000357974
0.000327451
0.000301489
0.000279048
0.000259395
0.000241998
0.000226466
0.000212502
0.000199873
0.000188413
0.000177966
0.000168394
0.000159573
0.000150422
0.000809324
0.000713906
0.000631505
0.000562574
0.000505377
0.000457786
0.000417842
0.00038394
0.000354805
0.000329451
0.000307159
0.000287383
0.000269707
0.000253805
0.000239419
0.000226345
0.000214407
0.000203439
0.000193208
0.000182956
0.000814958
0.000730426
0.000654634
0.000589044
0.000533067
0.000485439
0.000444764
0.000409794
0.000379471
0.000352933
0.000329494
0.000308632
0.000289944
0.000273105
0.000257855
0.000243978
0.000231285
0.000219587
0.000208592
0.000197478
0.000814958
0.000730426
0.000654634
0.000589043
0.000533067
0.000485438
0.000444763
0.000409792
0.000379469
0.000352929
0.000329488
0.000308624
0.000289931
0.000273084
0.000257823
0.000243928
0.000231209
0.000219465
0.000208355
0.000196679
0.000809324
0.000713906
0.000631504
0.000562574
0.000505377
0.000457785
0.00041784
0.000383938
0.000354801
0.000329446
0.00030715
0.00028737
0.000269686
0.000253771
0.000239367
0.000226264
0.000214282
0.000203241
0.000192874
0.00018228
0.000786828
0.000662293
0.000567974
0.000495805
0.000439463
0.000394562
0.000357974
0.000327451
0.000301489
0.000279048
0.000259395
0.000241998
0.000226466
0.000212501
0.000199873
0.000188413
0.000177967
0.000168395
0.000159574
0.000150423
0.000663952
0.000488459
0.000404619
0.000347248
0.000305036
0.000272128
0.000245319
0.00022289
0.000203758
0.000187183
0.00017266
0.000159823
0.000148387
0.000138141
0.000128919
0.000120719
0.00011335
0.000106684
0.000101128
9.45043e-05
0.000160509
0.00010736
8.07409e-05
6.55976e-05
5.54896e-05
4.83026e-05
4.31311e-05
3.90793e-05
3.57396e-05
3.29504e-05
3.05791e-05
2.85369e-05
2.67772e-05
2.52512e-05
2.39168e-05
2.27433e-05
2.17113e-05
2.08055e-05
2.0023e-05
1.93939e-05
0.000198681
0.0001383
0.000105187
8.55269e-05
7.25011e-05
6.289e-05
5.60608e-05
5.07588e-05
4.63873e-05
4.27207e-05
3.96233e-05
3.69523e-05
3.46285e-05
3.25955e-05
3.08064e-05
2.92225e-05
2.78111e-05
2.65441e-05
2.54055e-05
2.44852e-05
0.00071288
0.000556432
0.000466397
0.000402354
0.000354425
0.000317049
0.000286673
0.000261252
0.000239576
0.000220836
0.000204427
0.000189924
0.000177003
0.000165402
0.000154911
0.000145375
0.00013664
0.00012856
0.000121021
0.000114039
0.000809324
0.000713906
0.000631504
0.000562574
0.000505377
0.000457785
0.00041784
0.000383938
0.000354801
0.000329446
0.00030715
0.00028737
0.000269686
0.000253772
0.000239366
0.000226264
0.000214281
0.000203239
0.000192869
0.000182275
0.000823497
0.000753987
0.000688491
0.000628748
0.000575387
0.000528266
0.000486845
0.000450441
0.000418362
0.000389972
0.000364725
0.000342158
0.000321888
0.000303596
0.000287015
0.000271921
0.000258112
0.000245375
0.000233373
0.000221288
0.000826292
0.000764347
0.000706102
0.000651937
0.00060223
0.000557104
0.000516428
0.000479912
0.000447181
0.000417833
0.000391476
0.00036775
0.000346333
0.00032694
0.000309323
0.000293262
0.000278551
0.000264951
0.000252063
0.000238963
0.000826292
0.000764347
0.000706102
0.000651936
0.00060223
0.000557103
0.000516428
0.000479912
0.00044718
0.000417831
0.000391474
0.000367748
0.000346329
0.000326934
0.000309314
0.00029325
0.000278532
0.000264923
0.000252014
0.000238785
0.000823497
0.000753987
0.000688491
0.000628748
0.000575387
0.000528266
0.000486845
0.000450441
0.000418362
0.000389972
0.000364725
0.000342158
0.000321888
0.000303596
0.000287015
0.000271921
0.000258113
0.000245376
0.000233375
0.00022129
0.000809324
0.000713906
0.000631505
0.000562574
0.000505377
0.000457786
0.000417842
0.00038394
0.000354805
0.000329451
0.000307159
0.000287383
0.000269707
0.000253805
0.000239419
0.000226345
0.000214407
0.000203439
0.000193208
0.000182957
0.00071288
0.000556432
0.000466397
0.000402355
0.000354426
0.000317051
0.000286676
0.000261257
0.000239584
0.000220849
0.000204448
0.000189958
0.000177057
0.000165491
0.000155057
0.00014561
0.000137027
0.000129195
0.00012203
0.000115705
0.000198681
0.0001383
0.000105187
8.55269e-05
7.25013e-05
6.28902e-05
5.60612e-05
5.07595e-05
4.63883e-05
4.27223e-05
3.9626e-05
3.69565e-05
3.46351e-05
3.26058e-05
3.08231e-05
2.92498e-05
2.78559e-05
2.6617e-05
2.55144e-05
2.45397e-05
0.000218609
0.000155003
0.000118661
9.65068e-05
8.18823e-05
7.08354e-05
6.30854e-05
5.71431e-05
5.22478e-05
4.80954e-05
4.45811e-05
4.15697e-05
3.89488e-05
3.66531e-05
3.46299e-05
3.28368e-05
3.12376e-05
2.98033e-05
2.85227e-05
2.75211e-05
0.000728543
0.000588231
0.000496002
0.000429131
0.000378509
0.000338934
0.000306816
0.00027997
0.000257067
0.000237246
0.000219893
0.00020455
0.000190871
0.000178584
0.000167475
0.000157368
0.000148104
0.000139535
0.000131503
0.000123557
0.000814958
0.000730426
0.000654634
0.000589043
0.000533067
0.000485438
0.000444763
0.000409792
0.000379469
0.000352929
0.000329488
0.000308624
0.000289931
0.000273085
0.000257823
0.000243929
0.000231209
0.000219465
0.000208354
0.000196676
0.000826292
0.000764347
0.000706102
0.000651936
0.00060223
0.000557103
0.000516428
0.000479912
0.00044718
0.000417831
0.000391474
0.000367748
0.000346329
0.000326934
0.000309314
0.00029325
0.000278532
0.000264923
0.000252014
0.000238785
0.000828382
0.0007726
0.000721138
0.00067296
0.000627782
0.00058562
0.000546547
0.000510579
0.000477648
0.000447614
0.000420286
0.000395445
0.000372863
0.000352315
0.000333587
0.000316476
0.000300776
0.00028623
0.000272386
0.000258201
0.000828382
0.0007726
0.000721138
0.00067296
0.000627782
0.00058562
0.000546547
0.000510579
0.000477648
0.000447614
0.000420286
0.000395445
0.000372863
0.000352315
0.000333587
0.000316476
0.000300776
0.00028623
0.000272388
0.000258201
0.000826292
0.000764347
0.000706102
0.000651937
0.00060223
0.000557104
0.000516428
0.000479912
0.000447181
0.000417833
0.000391476
0.00036775
0.000346333
0.00032694
0.000309323
0.000293263
0.000278551
0.000264951
0.000252064
0.000238962
0.000814958
0.000730426
0.000654634
0.000589044
0.000533067
0.000485439
0.000444764
0.000409794
0.000379471
0.000352933
0.000329494
0.000308632
0.000289944
0.000273106
0.000257855
0.000243977
0.000231284
0.000219586
0.00020859
0.000197477
0.000728543
0.000588231
0.000496002
0.000429132
0.00037851
0.000338934
0.000306818
0.000279972
0.000257071
0.000237253
0.000219904
0.000204567
0.000190898
0.00017863
0.00016755
0.000157487
0.000148293
0.000139839
0.000131995
0.000124581
0.000218609
0.000155003
0.000118661
9.65069e-05
8.18824e-05
7.08356e-05
6.30856e-05
5.71434e-05
5.22483e-05
4.80962e-05
4.45825e-05
4.15719e-05
3.89521e-05
3.66582e-05
3.46387e-05
3.28507e-05
3.12596e-05
2.98378e-05
2.85726e-05
2.75563e-05
0.000218609
0.000155003
0.000118661
9.65069e-05
8.18824e-05
7.08356e-05
6.30856e-05
5.71434e-05
5.22483e-05
4.80962e-05
4.45825e-05
4.15719e-05
3.89522e-05
3.66584e-05
3.46383e-05
3.28504e-05
3.12594e-05
2.98376e-05
2.85723e-05
2.7556e-05
0.000728543
0.000588231
0.000496002
0.000429132
0.00037851
0.000338934
0.000306818
0.000279972
0.000257071
0.000237253
0.000219904
0.000204567
0.000190899
0.000178629
0.000167549
0.000157487
0.000148294
0.000139841
0.000131998
0.000124586
0.000814958
0.000730426
0.000654634
0.000589044
0.000533067
0.000485439
0.000444764
0.000409794
0.000379471
0.000352933
0.000329494
0.000308632
0.000289944
0.000273105
0.000257856
0.000243978
0.000231285
0.000219588
0.000208595
0.000197481
0.000826292
0.000764347
0.000706102
0.000651937
0.00060223
0.000557104
0.000516428
0.000479912
0.000447181
0.000417833
0.000391476
0.00036775
0.000346333
0.00032694
0.000309323
0.000293263
0.000278551
0.000264952
0.000252065
0.000238963
0.000828382
0.0007726
0.000721138
0.00067296
0.000627782
0.00058562
0.000546547
0.000510579
0.000477648
0.000447614
0.000420286
0.000395445
0.000372863
0.000352315
0.000333587
0.000316476
0.000300776
0.00028623
0.000272386
0.000258201
0.000828382
0.0007726
0.000721138
0.00067296
0.000627782
0.00058562
0.000546547
0.000510579
0.000477648
0.000447614
0.000420286
0.000395445
0.000372863
0.000352315
0.000333587
0.000316476
0.000300776
0.00028623
0.000272387
0.0002582
0.000826292
0.000764347
0.000706102
0.000651936
0.00060223
0.000557103
0.000516428
0.000479912
0.00044718
0.000417831
0.000391474
0.000367747
0.000346329
0.000326934
0.000309314
0.00029325
0.000278532
0.000264922
0.000252012
0.000238782
0.000814958
0.000730426
0.000654634
0.000589043
0.000533067
0.000485438
0.000444763
0.000409792
0.000379469
0.000352929
0.000329488
0.000308624
0.00028993
0.000273084
0.000257823
0.000243929
0.000231209
0.000219464
0.000208353
0.000196673
0.000728543
0.000588231
0.000496002
0.000429131
0.000378509
0.000338934
0.000306816
0.00027997
0.000257067
0.000237246
0.000219893
0.00020455
0.00019087
0.000178584
0.000167476
0.000157369
0.000148104
0.000139535
0.000131506
0.000123558
0.000218609
0.000155003
0.000118661
9.65068e-05
8.18823e-05
7.08354e-05
6.30854e-05
5.71431e-05
5.22478e-05
4.80954e-05
4.45811e-05
4.15697e-05
3.89487e-05
3.6653e-05
3.46302e-05
3.2837e-05
3.12378e-05
2.98036e-05
2.8523e-05
2.75216e-05
0.000198681
0.0001383
0.000105187
8.55269e-05
7.25013e-05
6.28902e-05
5.60612e-05
5.07595e-05
4.63883e-05
4.27223e-05
3.9626e-05
3.69566e-05
3.46352e-05
3.26059e-05
3.08229e-05
2.92497e-05
2.78558e-05
2.6617e-05
2.55145e-05
2.45398e-05
0.00071288
0.000556432
0.000466397
0.000402355
0.000354426
0.000317051
0.000286676
0.000261257
0.000239584
0.000220849
0.000204448
0.000189958
0.000177058
0.000165491
0.000155056
0.000145611
0.000137028
0.000129196
0.000122034
0.000115711
0.000809324
0.000713906
0.000631505
0.000562574
0.000505377
0.000457786
0.000417842
0.00038394
0.000354805
0.000329451
0.000307159
0.000287383
0.000269707
0.000253805
0.000239419
0.000226345
0.000214407
0.000203439
0.00019321
0.000182959
0.000823497
0.000753987
0.000688491
0.000628748
0.000575387
0.000528266
0.000486845
0.000450441
0.000418362
0.000389972
0.000364725
0.000342158
0.000321888
0.000303596
0.000287015
0.000271921
0.000258112
0.000245375
0.000233373
0.000221289
0.000826292
0.000764347
0.000706102
0.000651936
0.00060223
0.000557103
0.000516428
0.000479912
0.00044718
0.000417831
0.000391474
0.000367748
0.000346329
0.000326934
0.000309314
0.000293249
0.000278532
0.000264922
0.000252012
0.000238783
0.000826292
0.000764347
0.000706102
0.000651937
0.00060223
0.000557104
0.000516428
0.000479912
0.000447181
0.000417833
0.000391476
0.00036775
0.000346333
0.00032694
0.000309323
0.000293262
0.000278551
0.000264952
0.000252064
0.000238961
0.000823497
0.000753987
0.000688491
0.000628748
0.000575387
0.000528266
0.000486845
0.000450441
0.000418362
0.000389972
0.000364725
0.000342158
0.000321888
0.000303596
0.000287015
0.000271921
0.000258112
0.000245375
0.000233374
0.000221289
0.000809324
0.000713906
0.000631504
0.000562574
0.000505377
0.000457785
0.00041784
0.000383938
0.000354801
0.000329446
0.00030715
0.00028737
0.000269686
0.000253771
0.000239367
0.000226264
0.000214281
0.000203239
0.000192871
0.000182276
0.00071288
0.000556432
0.000466397
0.000402354
0.000354425
0.000317049
0.000286672
0.000261252
0.000239576
0.000220836
0.000204427
0.000189924
0.000177002
0.000165401
0.000154912
0.000145375
0.000136641
0.000128561
0.000121023
0.000114045
0.000198681
0.0001383
0.000105187
8.55269e-05
7.25011e-05
6.289e-05
5.60608e-05
5.07588e-05
4.63873e-05
4.27207e-05
3.96233e-05
3.69524e-05
3.46286e-05
3.25955e-05
3.08063e-05
2.92225e-05
2.78112e-05
2.65442e-05
2.54057e-05
2.44856e-05
0.000160509
0.00010736
8.07409e-05
6.55976e-05
5.54896e-05
4.83026e-05
4.31311e-05
3.90793e-05
3.57396e-05
3.29504e-05
3.05791e-05
2.85369e-05
2.67772e-05
2.52513e-05
2.39167e-05
2.27433e-05
2.17114e-05
2.08057e-05
2.00233e-05
1.93944e-05
0.000663952
0.000488459
0.000404619
0.000347248
0.000305036
0.000272128
0.000245319
0.00022289
0.000203758
0.000187183
0.00017266
0.000159823
0.000148387
0.000138141
0.000128919
0.000120719
0.00011335
0.000106685
0.00010113
9.45086e-05
0.000786828
0.000662293
0.000567974
0.000495805
0.000439463
0.000394562
0.000357974
0.000327451
0.000301489
0.000279048
0.000259394
0.000241998
0.000226466
0.000212501
0.000199873
0.000188413
0.000177966
0.000168394
0.000159574
0.000150424
0.000809324
0.000713906
0.000631504
0.000562574
0.000505377
0.000457785
0.00041784
0.000383938
0.000354801
0.000329446
0.00030715
0.000287369
0.000269686
0.000253772
0.000239366
0.000226263
0.000214281
0.000203238
0.000192868
0.000182277
0.000814958
0.000730426
0.000654634
0.000589043
0.000533067
0.000485438
0.000444763
0.000409792
0.000379469
0.000352929
0.000329488
0.000308624
0.000289931
0.000273085
0.000257823
0.000243928
0.000231209
0.000219464
0.000208353
0.000196673
0.000814958
0.000730426
0.000654634
0.000589044
0.000533067
0.000485439
0.000444764
0.000409794
0.000379471
0.000352933
0.000329494
0.000308632
0.000289944
0.000273105
0.000257856
0.000243978
0.000231284
0.000219586
0.000208592
0.000197476
0.000809324
0.000713906
0.000631505
0.000562574
0.000505377
0.000457786
0.000417842
0.00038394
0.000354805
0.000329451
0.000307159
0.000287383
0.000269707
0.000253805
0.000239419
0.000226344
0.000214407
0.000203438
0.000193208
0.000182959
0.000786828
0.000662293
0.000567974
0.000495805
0.000439463
0.000394562
0.000357974
0.000327451
0.000301489
0.000279048
0.000259395
0.000241998
0.000226466
0.000212501
0.000199873
0.000188413
0.000177966
0.000168394
0.000159574
0.000150424
0.000663952
0.000488458
0.000404619
0.000347248
0.000305035
0.000272127
0.000245317
0.000222886
0.000203751
0.000187173
0.000172643
0.000159797
0.000148346
0.000138075
0.000128814
0.000120545
0.000113056
0.000106175
0.000100197
9.42477e-05
0.000160509
0.00010736
8.07408e-05
6.55975e-05
5.54895e-05
4.83024e-05
4.31308e-05
3.90788e-05
3.57388e-05
3.29488e-05
3.05769e-05
2.85334e-05
2.67718e-05
2.52426e-05
2.39026e-05
2.27197e-05
2.16721e-05
2.07401e-05
1.99177e-05
1.92639e-05
0.000107685
6.77183e-05
5.06311e-05
4.14159e-05
3.54049e-05
3.10367e-05
2.77137e-05
2.50817e-05
2.29335e-05
2.11508e-05
1.96509e-05
1.8372e-05
1.72644e-05
1.62958e-05
1.54538e-05
1.47294e-05
1.41022e-05
1.35645e-05
1.31331e-05
1.28259e-05
0.000528907
0.000369984
0.000305097
0.000261371
0.000228528
0.000202475
0.000181113
0.000163072
0.000147537
0.00013398
0.000122044
0.000111458
0.000102122
9.38419e-05
8.64337e-05
7.96245e-05
7.34152e-05
6.78744e-05
6.36359e-05
5.51888e-05
0.000663952
0.000488458
0.000404619
0.000347248
0.000305035
0.000272127
0.000245317
0.000222886
0.000203751
0.000187173
0.000172643
0.000159797
0.000148346
0.000138076
0.000128814
0.000120545
0.000113056
0.000106174
0.000100197
9.42473e-05
0.00071288
0.000556432
0.000466397
0.000402354
0.000354425
0.000317049
0.000286673
0.000261252
0.000239576
0.000220836
0.000204427
0.000189924
0.000177003
0.000165402
0.000154911
0.000145374
0.00013664
0.00012856
0.000121022
0.000114042
0.000728543
0.000588231
0.000496002
0.000429131
0.000378509
0.000338934
0.000306816
0.00027997
0.000257067
0.000237246
0.000219893
0.00020455
0.000190871
0.000178584
0.000167475
0.000157368
0.000148104
0.000139535
0.000131505
0.000123556
0.000728543
0.000588231
0.000496002
0.000429132
0.00037851
0.000338934
0.000306818
0.000279972
0.000257071
0.000237253
0.000219904
0.000204567
0.000190898
0.000178629
0.000167549
0.000157486
0.000148293
0.00013984
0.000131996
0.000124582
0.00071288
0.000556432
0.000466397
0.000402355
0.000354426
0.000317051
0.000286676
0.000261257
0.000239584
0.000220849
0.000204448
0.000189958
0.000177057
0.000165491
0.000155056
0.00014561
0.000137027
0.000129195
0.000122032
0.000115708
0.000663952
0.000488459
0.000404619
0.000347248
0.000305036
0.000272128
0.000245319
0.00022289
0.000203758
0.000187183
0.00017266
0.000159823
0.000148387
0.000138141
0.000128919
0.000120718
0.00011335
0.000106684
0.000101129
9.45097e-05
0.000528907
0.000369984
0.000305097
0.000261371
0.000228528
0.000202475
0.000181113
0.000163072
0.000147537
0.00013398
0.000122044
0.000111458
0.000102122
9.38416e-05
8.64336e-05
7.96244e-05
7.34152e-05
6.78742e-05
6.36351e-05
5.51875e-05
0.000107685
6.77183e-05
5.06311e-05
4.14159e-05
3.54048e-05
3.10367e-05
2.77137e-05
2.50816e-05
2.29334e-05
2.11505e-05
1.96504e-05
1.8371e-05
1.72625e-05
1.62919e-05
1.54476e-05
1.47184e-05
1.40816e-05
1.35223e-05
1.30463e-05
1.26583e-05
4.5356e-05
2.3208e-05
1.65396e-05
1.36493e-05
1.18966e-05
1.06844e-05
9.76076e-06
9.05712e-06
8.49474e-06
8.03137e-06
7.64061e-06
7.31239e-06
7.02502e-06
6.76126e-06
6.53015e-06
6.33002e-06
6.15707e-06
6.01094e-06
5.91147e-06
5.81549e-06
0.000107685
6.77183e-05
5.06311e-05
4.14159e-05
3.54048e-05
3.10367e-05
2.77137e-05
2.50816e-05
2.29334e-05
2.11505e-05
1.96504e-05
1.8371e-05
1.72626e-05
1.62918e-05
1.54476e-05
1.47186e-05
1.40816e-05
1.35223e-05
1.30463e-05
1.26583e-05
0.000160509
0.00010736
8.07408e-05
6.55975e-05
5.54895e-05
4.83024e-05
4.31308e-05
3.90788e-05
3.57388e-05
3.29488e-05
3.05769e-05
2.85334e-05
2.67717e-05
2.52427e-05
2.39026e-05
2.27199e-05
2.16721e-05
2.074e-05
1.99175e-05
1.92636e-05
0.000198681
0.0001383
0.000105187
8.55269e-05
7.25011e-05
6.289e-05
5.60608e-05
5.07588e-05
4.63873e-05
4.27206e-05
3.96233e-05
3.69523e-05
3.46285e-05
3.25954e-05
3.08064e-05
2.92225e-05
2.78111e-05
2.65439e-05
2.54053e-05
2.44846e-05
0.000218609
0.000155003
0.000118661
9.65068e-05
8.18823e-05
7.08354e-05
6.30853e-05
5.71431e-05
5.22478e-05
4.80954e-05
4.45811e-05
4.15697e-05
3.89488e-05
3.66531e-05
3.46299e-05
3.28368e-05
3.12375e-05
2.98033e-05
2.85226e-05
2.75209e-05
0.000218609
0.000155003
0.000118661
9.65069e-05
8.18824e-05
7.08356e-05
6.30855e-05
5.71434e-05
5.22483e-05
4.80962e-05
4.45825e-05
4.15719e-05
3.89522e-05
3.66584e-05
3.46383e-05
3.28504e-05
3.12595e-05
2.98377e-05
2.85725e-05
2.75564e-05
0.000198681
0.0001383
0.000105187
8.55269e-05
7.25013e-05
6.28902e-05
5.60612e-05
5.07595e-05
4.63884e-05
4.27223e-05
3.9626e-05
3.69566e-05
3.46351e-05
3.26058e-05
3.08231e-05
2.92498e-05
2.78559e-05
2.66172e-05
2.55147e-05
2.45406e-05
0.000160509
0.00010736
8.07409e-05
6.55976e-05
5.54896e-05
4.83026e-05
4.31311e-05
3.90793e-05
3.57396e-05
3.29504e-05
3.05791e-05
2.85369e-05
2.67772e-05
2.52512e-05
2.39168e-05
2.27434e-05
2.17115e-05
2.08058e-05
2.00233e-05
1.93943e-05
0.000107685
6.77183e-05
5.06311e-05
4.14159e-05
3.54049e-05
3.10367e-05
2.77137e-05
2.50817e-05
2.29335e-05
2.11508e-05
1.96509e-05
1.8372e-05
1.72643e-05
1.62959e-05
1.54538e-05
1.47293e-05
1.41022e-05
1.35645e-05
1.31331e-05
1.28259e-05
4.5356e-05
2.3208e-05
1.65396e-05
1.36493e-05
1.18966e-05
1.06844e-05
9.76076e-06
9.05711e-06
8.49473e-06
8.03136e-06
7.64061e-06
7.3124e-06
7.02493e-06
6.76135e-06
6.53009e-06
6.32998e-06
6.15705e-06
6.01094e-06
5.91151e-06
5.81558e-06
5.38009e-06
5.01665e-06
4.68548e-06
4.48566e-06
4.36491e-06
4.27842e-06
4.21461e-06
4.15929e-06
4.11083e-06
4.06907e-06
4.03009e-06
3.99417e-06
3.9569e-06
3.92052e-06
3.88444e-06
3.85101e-06
3.81772e-06
3.78672e-06
3.75665e-06
3.72825e-06
3.70021e-06
3.67373e-06
3.64986e-06
3.62928e-06
3.60439e-06
3.58296e-06
3.56229e-06
3.54254e-06
3.52369e-06
3.51041e-06
3.4888e-06
3.47211e-06
3.45638e-06
3.44262e-06
3.43991e-06
3.41719e-06
3.40588e-06
3.39585e-06
3.38763e-06
3.37599e-06
1.03551e-05
9.84796e-06
9.45219e-06
9.17953e-06
8.97601e-06
8.79512e-06
8.64871e-06
8.51719e-06
8.39588e-06
8.28751e-06
8.18498e-06
8.09382e-06
8.00219e-06
7.91663e-06
7.82773e-06
7.74576e-06
7.66619e-06
7.59309e-06
7.523e-06
7.45724e-06
7.39385e-06
7.33298e-06
7.2763e-06
7.23406e-06
7.18555e-06
7.13656e-06
7.09199e-06
7.05054e-06
7.00631e-06
6.97946e-06
6.94452e-06
6.90216e-06
6.86825e-06
6.83447e-06
6.82376e-06
6.80156e-06
6.76564e-06
6.74099e-06
6.72197e-06
6.70278e-06
1.54288e-05
1.4842e-05
1.43513e-05
1.39557e-05
1.3589e-05
1.32664e-05
1.29817e-05
1.27332e-05
1.251e-05
1.23054e-05
1.21184e-05
1.19466e-05
1.17926e-05
1.16512e-05
1.14979e-05
1.13603e-05
1.12319e-05
1.11132e-05
1.10024e-05
1.08953e-05
1.07902e-05
1.06825e-05
1.05879e-05
1.0514e-05
1.04338e-05
1.0353e-05
1.02781e-05
1.02088e-05
1.01437e-05
1.01046e-05
1.00434e-05
9.9759e-06
9.92007e-06
9.87888e-06
9.87373e-06
9.81397e-06
9.77374e-06
9.72747e-06
9.69214e-06
9.65998e-06
2.06663e-05
1.92314e-05
1.84232e-05
1.78401e-05
1.73414e-05
1.69048e-05
1.6513e-05
1.61583e-05
1.58344e-05
1.55365e-05
1.5261e-05
1.50052e-05
1.47665e-05
1.45441e-05
1.43386e-05
1.41459e-05
1.39659e-05
1.37962e-05
1.36368e-05
1.34718e-05
1.33168e-05
1.31813e-05
1.30274e-05
1.29246e-05
1.28137e-05
1.26926e-05
1.25844e-05
1.24859e-05
1.2371e-05
1.23095e-05
1.22828e-05
1.21623e-05
1.20872e-05
1.20229e-05
1.19442e-05
1.19277e-05
1.19133e-05
1.18399e-05
1.17901e-05
1.17472e-05
2.3364e-05
2.21292e-05
2.12187e-05
2.04887e-05
1.98647e-05
1.93181e-05
1.88347e-05
1.84008e-05
1.80024e-05
1.7634e-05
1.72918e-05
1.69728e-05
1.66742e-05
1.6399e-05
1.61412e-05
1.58999e-05
1.56761e-05
1.54665e-05
1.52684e-05
1.50832e-05
1.49044e-05
1.47461e-05
1.45661e-05
1.44222e-05
1.42907e-05
1.4144e-05
1.40107e-05
1.38905e-05
1.37508e-05
1.36835e-05
1.36631e-05
1.35126e-05
1.34251e-05
1.33476e-05
1.326e-05
1.32513e-05
1.32046e-05
1.31374e-05
1.30741e-05
1.30213e-05
2.37622e-05
2.29294e-05
2.21337e-05
2.14172e-05
2.07725e-05
2.01899e-05
1.96629e-05
1.91856e-05
1.87458e-05
1.83367e-05
1.79566e-05
1.76027e-05
1.72704e-05
1.69665e-05
1.66825e-05
1.64174e-05
1.617e-05
1.59396e-05
1.57259e-05
1.55288e-05
1.53427e-05
1.5168e-05
1.501e-05
1.48507e-05
1.47207e-05
1.45472e-05
1.43978e-05
1.42711e-05
1.41219e-05
1.40645e-05
1.40083e-05
1.38775e-05
1.37654e-05
1.36713e-05
1.35926e-05
1.35154e-05
1.35098e-05
1.34812e-05
1.33954e-05
1.33407e-05
2.28628e-05
2.20597e-05
2.13099e-05
2.06178e-05
1.99805e-05
1.93953e-05
1.88599e-05
1.83712e-05
1.79243e-05
1.75154e-05
1.71406e-05
1.67952e-05
1.64764e-05
1.61857e-05
1.59158e-05
1.56648e-05
1.54313e-05
1.52143e-05
1.50122e-05
1.48267e-05
1.46526e-05
1.44892e-05
1.43364e-05
1.41818e-05
1.40486e-05
1.38914e-05
1.37552e-05
1.36306e-05
1.34926e-05
1.3429e-05
1.33694e-05
1.32452e-05
1.31326e-05
1.30456e-05
1.29791e-05
1.29245e-05
1.29086e-05
1.28495e-05
1.27736e-05
1.27132e-05
2.06965e-05
1.96816e-05
1.88406e-05
1.81261e-05
1.75049e-05
1.69548e-05
1.64608e-05
1.60253e-05
1.56401e-05
1.52975e-05
1.49884e-05
1.47046e-05
1.44429e-05
1.42019e-05
1.39788e-05
1.37708e-05
1.35803e-05
1.34016e-05
1.3235e-05
1.30792e-05
1.29342e-05
1.27882e-05
1.26373e-05
1.25321e-05
1.24148e-05
1.22899e-05
1.21789e-05
1.20663e-05
1.19632e-05
1.19015e-05
1.18296e-05
1.17344e-05
1.16493e-05
1.1575e-05
1.15083e-05
1.14591e-05
1.14525e-05
1.13872e-05
1.13135e-05
1.12545e-05
1.65853e-05
1.56172e-05
1.48245e-05
1.41745e-05
1.36165e-05
1.31841e-05
1.28367e-05
1.25396e-05
1.22777e-05
1.20444e-05
1.18321e-05
1.16403e-05
1.14658e-05
1.12993e-05
1.11485e-05
1.09891e-05
1.08474e-05
1.07135e-05
1.05927e-05
1.04742e-05
1.03645e-05
1.02594e-05
1.01465e-05
1.00691e-05
9.98302e-06
9.88656e-06
9.80564e-06
9.73014e-06
9.65545e-06
9.5985e-06
9.55802e-06
9.47721e-06
9.41593e-06
9.36219e-06
9.31444e-06
9.27018e-06
9.25228e-06
9.22099e-06
9.16102e-06
9.12135e-06
1.11302e-05
1.04967e-05
9.89926e-06
9.43168e-06
9.07839e-06
8.81191e-06
8.61411e-06
8.44961e-06
8.30805e-06
8.18546e-06
8.06945e-06
7.97378e-06
7.87311e-06
7.76792e-06
7.67227e-06
7.58077e-06
7.49429e-06
7.41249e-06
7.3349e-06
7.26174e-06
7.19205e-06
7.12761e-06
7.06773e-06
7.02011e-06
6.96592e-06
6.91363e-06
6.8654e-06
6.82061e-06
6.77398e-06
6.74396e-06
6.70331e-06
6.6598e-06
6.62331e-06
6.59079e-06
6.55433e-06
6.55648e-06
6.53282e-06
6.49146e-06
6.46618e-06
6.44328e-06
5.38062e-06
5.01741e-06
4.68628e-06
4.48722e-06
4.36306e-06
4.27904e-06
4.21557e-06
4.16008e-06
4.11139e-06
4.0694e-06
4.03027e-06
3.9949e-06
3.95684e-06
3.92015e-06
3.88464e-06
3.85086e-06
3.81785e-06
3.78658e-06
3.75646e-06
3.72815e-06
3.69991e-06
3.67389e-06
3.64979e-06
3.62939e-06
3.60438e-06
3.58312e-06
3.56242e-06
3.54265e-06
3.524e-06
3.51084e-06
3.48896e-06
3.47231e-06
3.45655e-06
3.44215e-06
3.42946e-06
3.42636e-06
3.40905e-06
3.39696e-06
3.38769e-06
3.37483e-06
1.11306e-05
1.04939e-05
9.89507e-06