/*--------------------------------*- C++ -*----------------------------------*\
| =========                 |                                                 |
| \\      /  F ield         | OpenFOAM: The Open Source CFD Toolbox           |
|  \\    /   O peration     | Version:  2212                                  |
|   \\  /    A nd           | Website:  www.openfoam.com                      |
|    \\/     M anipulation  |                                                 |
\*---------------------------------------------------------------------------*/
FoamFile
{
    version     2.0;
    format      ascii;
    arch        "LSB;label=32;scalar=64";
    class       volScalarField;
    location    "1.1";
    object      p;
}
// * * * * * * * * * * * * * * * * * * * * * * * * * * * * * * * * * * * * * //

dimensions      [0 2 -2 0 0 0 0];

internalField   nonuniform List<scalar> 
6840
(
0.0177953
0.0106808
0.0083894
0.00785158
0.00757722
0.00735501
0.00716836
0.0070019
0.00684071
0.0066812
0.00652347
0.00636725
0.00621124
0.0060543
0.00589635
0.00573635
0.00557409
0.00540348
0.00518396
0.00477211
0.0106165
0.00988261
0.00878971
0.00812373
0.00772112
0.00744734
0.00723609
0.00704975
0.00687513
0.00670745
0.00654415
0.00638327
0.00622281
0.0060615
0.00589896
0.00573368
0.00556027
0.0053636
0.00510051
0.00466765
0.0102682
0.00941667
0.00865239
0.00809324
0.00771704
0.00744894
0.00723316
0.00704004
0.0068613
0.00669222
0.00652778
0.00636563
0.00620494
0.00604473
0.00588322
0.00571784
0.00554402
0.00535616
0.00514893
0.0049087
0.0098589
0.00909617
0.00847739
0.00802605
0.00768205
0.00741297
0.00719325
0.00700427
0.00683616
0.00667826
0.00652184
0.00636532
0.00620919
0.00605361
0.00589819
0.0057423
0.00558529
0.00542741
0.00527118
0.00512487
0.00972471
0.00898353
0.00839534
0.00798722
0.00766526
0.00739851
0.00717694
0.00698622
0.00681535
0.00665846
0.0065083
0.00635795
0.00620657
0.00605591
0.00590767
0.00576313
0.00562412
0.00549127
0.00536448
0.00524967
0.00972473
0.00898355
0.00839539
0.00798728
0.00766536
0.00739866
0.00717718
0.00698663
0.00681604
0.0066596
0.00651019
0.00636108
0.00621174
0.00606437
0.00592176
0.00578694
0.0056635
0.00555565
0.00546801
0.00540968
0.00985897
0.00909624
0.00847749
0.00802619
0.00768225
0.0074133
0.00719381
0.00700524
0.00683779
0.00668095
0.00652624
0.00637252
0.00622092
0.00607282
0.00593016
0.00579629
0.00567641
0.00557811
0.00551895
0.00552527
0.0102682
0.00941674
0.00865247
0.00809335
0.00771724
0.00744929
0.00723375
0.00704102
0.0068629
0.00669487
0.0065322
0.00637285
0.00621665
0.00606382
0.00591462
0.00576974
0.00563086
0.00550309
0.00540411
0.00536238
0.0106165
0.00988264
0.00878975
0.00812379
0.00772122
0.00744752
0.00723639
0.00705026
0.00687599
0.0067089
0.00654651
0.00638717
0.00622948
0.0060731
0.00591844
0.00576566
0.00561252
0.00545571
0.00528536
0.00506701
0.0177953
0.0106808
0.00838941
0.00785159
0.00757722
0.00735501
0.00716836
0.00700191
0.00684072
0.00668121
0.00652347
0.00636726
0.00621125
0.00605432
0.00589638
0.00573639
0.00557414
0.00540355
0.00518409
0.00477238
0.0106165
0.00988264
0.00878975
0.00812379
0.00772122
0.00744751
0.00723639
0.00705025
0.00687598
0.00670889
0.00654651
0.00638716
0.00622947
0.00607308
0.00591841
0.00576563
0.00561246
0.00545562
0.00528521
0.00506671
0.00989989
0.00986818
0.00913996
0.00842946
0.0079831
0.00766715
0.00740824
0.00718056
0.00697594
0.0067875
0.00660971
0.00643869
0.00627123
0.00610559
0.00594079
0.00577507
0.00560575
0.00543024
0.00526116
0.00516186
0.0089744
0.00910058
0.00879768
0.00838145
0.00801429
0.00769561
0.00741697
0.00717636
0.0069635
0.0067685
0.00658452
0.00640809
0.00623695
0.00606885
0.0059017
0.00573355
0.00556276
0.0053888
0.00521699
0.005069
0.00855601
0.00859951
0.00843393
0.00817097
0.00789056
0.00761918
0.00736811
0.00714162
0.00693835
0.00675135
0.00657357
0.00640188
0.00623485
0.00607093
0.00590862
0.00574686
0.00558515
0.00542416
0.00526623
0.00511619
0.00834006
0.00836189
0.00823469
0.00801716
0.00778473
0.00755557
0.00733275
0.0071196
0.00691886
0.00673161
0.00655532
0.00638672
0.00622417
0.00606605
0.0059114
0.00576097
0.00561547
0.00547521
0.00534193
0.00521524
0.00834011
0.00836194
0.00823475
0.00801728
0.0077849
0.00755581
0.00733312
0.00712016
0.00691972
0.00673303
0.00655772
0.00639072
0.00623053
0.00607555
0.00592567
0.005783
0.00564872
0.00552341
0.00540978
0.00530268
0.00855611
0.00859962
0.00843407
0.00817117
0.00789085
0.00761959
0.00736873
0.00714261
0.00694002
0.00675426
0.00657857
0.00640995
0.00624696
0.006089
0.00593665
0.00579082
0.0056524
0.00552231
0.00540169
0.00528804
0.00897445
0.00910064
0.00879778
0.00838157
0.00801445
0.00769587
0.00741741
0.00717713
0.00696481
0.00677064
0.00658787
0.00641332
0.0062452
0.006082
0.0059224
0.00576557
0.00561106
0.00545872
0.00531378
0.00518587
0.00989989
0.00986818
0.00913996
0.00842946
0.00798311
0.00766715
0.00740824
0.00718057
0.00697595
0.00678751
0.00660972
0.0064387
0.00627124
0.00610561
0.00594082
0.00577511
0.00560581
0.00543032
0.00526127
0.00516207
0.0106165
0.00988262
0.00878972
0.00812374
0.00772112
0.00744735
0.0072361
0.00704975
0.00687514
0.00670746
0.00654416
0.00638328
0.00622282
0.00606152
0.00589899
0.00573372
0.00556032
0.00536367
0.00510061
0.00466779
0.0102682
0.00941673
0.00865247
0.00809335
0.00771723
0.00744928
0.00723374
0.00704101
0.00686289
0.00669487
0.00653219
0.00637284
0.00621664
0.0060638
0.00591459
0.0057697
0.00563081
0.00550301
0.00540398
0.00536215
0.00897445
0.00910064
0.00879777
0.00838157
0.00801445
0.00769586
0.00741741
0.00717712
0.00696481
0.00677064
0.00658786
0.00641331
0.00624518
0.00608198
0.00592236
0.00576552
0.00561101
0.00545866
0.00531372
0.00518584
0.00840494
0.00850591
0.00839435
0.00816888
0.00791314
0.00765475
0.00739637
0.00715477
0.0069369
0.00673666
0.00654906
0.00637092
0.00619955
0.00603287
0.00586946
0.00570816
0.00554826
0.00539097
0.00524124
0.00509752
0.00803692
0.00810499
0.0080526
0.00790561
0.00772071
0.00751557
0.00730491
0.00709798
0.0068968
0.00670425
0.00652142
0.00634646
0.00617732
0.00601256
0.00585101
0.00569164
0.00553341
0.00537618
0.00522126
0.00506517
0.00785389
0.00791832
0.00788886
0.007764
0.00760497
0.0074313
0.00724505
0.00705706
0.00687093
0.00668749
0.00650826
0.0063342
0.0061657
0.0060026
0.00584476
0.00569145
0.005541
0.00539241
0.00524671
0.00509828
0.00785392
0.00791836
0.0078889
0.0077641
0.00760515
0.00743155
0.00724536
0.00705749
0.00687158
0.00668848
0.00650976
0.00633644
0.00616894
0.00600741
0.00585198
0.00570213
0.00555607
0.0054125
0.00527286
0.00512787
0.00803699
0.00810505
0.0080527
0.00790576
0.00772095
0.00751587
0.0073053
0.00709858
0.00689771
0.00670569
0.00652376
0.00635008
0.00618275
0.00602063
0.00586308
0.00570936
0.00555878
0.00541114
0.0052668
0.00511568
0.00840494
0.00850592
0.00839436
0.00816889
0.00791314
0.00765475
0.00739637
0.00715477
0.00693691
0.00673666
0.00654907
0.00637093
0.00619957
0.00603289
0.00586949
0.00570819
0.00554828
0.00539098
0.00524122
0.00509742
0.0089744
0.00910058
0.00879769
0.00838146
0.00801429
0.00769561
0.00741698
0.00717637
0.00696351
0.00676851
0.00658453
0.0064081
0.00623696
0.00606887
0.00590173
0.00573359
0.0055628
0.00538884
0.00521704
0.00506905
0.0102682
0.00941667
0.0086524
0.00809324
0.00771705
0.00744894
0.00723317
0.00704005
0.00686131
0.00669223
0.00652779
0.00636564
0.00620495
0.00604475
0.00588325
0.00571788
0.00554406
0.00535621
0.005149
0.00490879
0.00985897
0.00909624
0.00847748
0.00802618
0.00768225
0.00741329
0.00719381
0.00700524
0.00683778
0.00668094
0.00652624
0.00637251
0.00622091
0.0060728
0.00593013
0.00579625
0.00567636
0.00557804
0.00551887
0.00552515
0.00855611
0.00859962
0.00843407
0.00817117
0.00789085
0.00761959
0.00736873
0.00714261
0.00694002
0.00675425
0.00657856
0.00640994
0.00624694
0.00608897
0.00593662
0.00579079
0.00565237
0.00552228
0.00540168
0.00528811
0.00803699
0.00810505
0.00805269
0.00790576
0.00772094
0.00751587
0.0073053
0.00709857
0.00689771
0.00670569
0.00652375
0.00635007
0.00618274
0.00602062
0.00586306
0.00570935
0.00555877
0.00541115
0.00526686
0.00511582
0.00773906
0.00779821
0.00778627
0.00769088
0.00755127
0.0073858
0.00720562
0.00702117
0.00683722
0.00665688
0.00648179
0.00631178
0.00614623
0.00598455
0.00582613
0.00567016
0.00551566
0.00536219
0.00521024
0.0050522
0.00758795
0.00765084
0.0076546
0.00758095
0.00746083
0.00731445
0.00715156
0.00698014
0.006806
0.00663242
0.00646123
0.00629331
0.00612896
0.00596814
0.00581064
0.00565583
0.00550269
0.00535093
0.0052016
0.00504689
0.00758797
0.00765086
0.00765462
0.00758098
0.00746088
0.00731452
0.00715167
0.00698031
0.00680622
0.00663273
0.00646166
0.00629391
0.00612983
0.00596944
0.00581256
0.00565848
0.00550606
0.00535503
0.00520646
0.00505089
0.00773906
0.00779821
0.00778627
0.00769089
0.00755127
0.0073858
0.00720563
0.00702118
0.00683723
0.00665689
0.00648179
0.00631178
0.00614624
0.00598456
0.00582614
0.00567017
0.00551566
0.00536218
0.00521021
0.00505215
0.00803693
0.00810499
0.00805261
0.00790561
0.00772072
0.00751558
0.00730491
0.00709799
0.00689681
0.00670425
0.00652143
0.00634647
0.00617734
0.00601257
0.00585103
0.00569165
0.00553342
0.00537618
0.00522123
0.00506509
0.00855601
0.00859951
0.00843393
0.00817098
0.00789057
0.00761919
0.00736812
0.00714162
0.00693836
0.00675136
0.00657358
0.00640189
0.00623486
0.00607094
0.00590865
0.00574689
0.00558518
0.0054242
0.00526626
0.00511622
0.0098589
0.00909617
0.0084774
0.00802606
0.00768205
0.00741297
0.00719326
0.00700428
0.00683617
0.00667827
0.00652184
0.00636533
0.0062092
0.00605363
0.00589822
0.00574233
0.00558533
0.00542747
0.00527126
0.00512499
0.00972473
0.00898355
0.00839539
0.00798728
0.00766535
0.00739866
0.00717718
0.00698663
0.00681603
0.0066596
0.00651018
0.00636107
0.00621172
0.00606435
0.00592174
0.00578691
0.00566346
0.00555561
0.00546795
0.00540962
0.00834011
0.00836194
0.00823475
0.00801728
0.0077849
0.00755581
0.00733312
0.00712016
0.00691972
0.00673303
0.00655771
0.00639071
0.00623052
0.00607553
0.00592564
0.00578298
0.0056487
0.00552339
0.00540977
0.0053027
0.00785392
0.00791836
0.0078889
0.0077641
0.00760515
0.00743155
0.00724536
0.00705749
0.00687158
0.00668848
0.00650975
0.00633643
0.00616893
0.0060074
0.00585197
0.00570212
0.00555606
0.0054125
0.00527288
0.00512791
0.00758797
0.00765086
0.00765462
0.00758098
0.00746088
0.00731452
0.00715167
0.0069803
0.00680622
0.00663272
0.00646165
0.0062939
0.00612982
0.00596944
0.00581255
0.00565847
0.00550606
0.00535503
0.00520646
0.0050509
0.00744516
0.00751467
0.0075368
0.00748425
0.00738301
0.00725208
0.00710217
0.00694118
0.00677468
0.00660633
0.0064385
0.00627262
0.00610944
0.00594928
0.00579212
0.00563737
0.00548408
0.00533192
0.00518182
0.00502494
0.00744516
0.00751467
0.0075368
0.00748425
0.00738301
0.00725208
0.00710217
0.00694118
0.00677468
0.00660633
0.0064385
0.00627262
0.00610944
0.00594929
0.00579212
0.00563738
0.00548409
0.00533192
0.00518182
0.00502494
0.00758795
0.00765084
0.0076546
0.00758095
0.00746083
0.00731445
0.00715156
0.00698015
0.006806
0.00663242
0.00646123
0.00629332
0.00612897
0.00596815
0.00581065
0.00565584
0.0055027
0.00535093
0.00520159
0.00504688
0.00785389
0.00791833
0.00788886
0.007764
0.00760498
0.0074313
0.00724505
0.00705706
0.00687093
0.0066875
0.00650827
0.00633421
0.00616572
0.00600262
0.00584478
0.00569146
0.00554101
0.00539242
0.0052467
0.00509823
0.00834006
0.00836189
0.00823469
0.00801716
0.00778473
0.00755557
0.00733275
0.0071196
0.00691887
0.00673162
0.00655533
0.00638673
0.00622419
0.00606607
0.00591142
0.005761
0.00561549
0.00547524
0.00534196
0.00521526
0.00972472
0.00898353
0.00839535
0.00798722
0.00766526
0.00739852
0.00717694
0.00698623
0.00681535
0.00665847
0.0065083
0.00635796
0.00620658
0.00605592
0.00590769
0.00576316
0.00562415
0.00549132
0.00536454
0.00524975
0.00972472
0.00898353
0.00839535
0.00798722
0.00766526
0.00739851
0.00717694
0.00698622
0.00681534
0.00665846
0.00650829
0.00635794
0.00620656
0.00605589
0.00590765
0.00576312
0.0056241
0.00549126
0.00536446
0.00524965
0.00834006
0.00836189
0.00823469
0.00801716
0.00778473
0.00755557
0.00733275
0.0071196
0.00691886
0.00673161
0.00655532
0.00638671
0.00622417
0.00606604
0.00591139
0.00576096
0.00561546
0.00547519
0.00534191
0.00521521
0.00785389
0.00791833
0.00788886
0.007764
0.00760497
0.0074313
0.00724505
0.00705706
0.00687093
0.00668749
0.00650826
0.0063342
0.0061657
0.0060026
0.00584476
0.00569144
0.00554099
0.0053924
0.00524669
0.00509823
0.00758795
0.00765084
0.0076546
0.00758095
0.00746083
0.00731445
0.00715156
0.00698014
0.006806
0.00663242
0.00646123
0.00629331
0.00612896
0.00596814
0.00581064
0.00565583
0.00550269
0.00535092
0.00520159
0.00504688
0.00744516
0.00751467
0.0075368
0.00748425
0.00738301
0.00725208
0.00710217
0.00694119
0.00677468
0.00660633
0.0064385
0.00627262
0.00610944
0.00594929
0.00579212
0.00563738
0.00548409
0.00533192
0.00518182
0.00502494
0.00744516
0.00751467
0.0075368
0.00748425
0.00738301
0.00725208
0.00710217
0.00694119
0.00677468
0.00660633
0.00643851
0.00627262
0.00610945
0.00594929
0.00579213
0.00563738
0.00548409
0.00533192
0.00518182
0.00502494
0.00758797
0.00765086
0.00765462
0.00758098
0.00746088
0.00731452
0.00715168
0.00698031
0.00680623
0.00663273
0.00646166
0.00629391
0.00612983
0.00596945
0.00581257
0.00565849
0.00550607
0.00535505
0.00520647
0.0050509
0.00785392
0.00791836
0.0078889
0.0077641
0.00760515
0.00743156
0.00724537
0.0070575
0.00687158
0.00668849
0.00650977
0.00633644
0.00616895
0.00600742
0.00585199
0.00570215
0.00555609
0.00541252
0.00527289
0.0051279
0.00834011
0.00836194
0.00823475
0.00801728
0.0077849
0.00755581
0.00733312
0.00712017
0.00691973
0.00673304
0.00655773
0.00639073
0.00623054
0.00607556
0.00592568
0.00578302
0.00564875
0.00552344
0.00540982
0.00530275
0.00972474
0.00898355
0.00839539
0.00798729
0.00766536
0.00739867
0.00717719
0.00698664
0.00681604
0.00665961
0.0065102
0.00636109
0.00621175
0.00606438
0.00592178
0.00578696
0.00566352
0.00555568
0.00546804
0.00540973
0.0098589
0.00909617
0.0084774
0.00802606
0.00768205
0.00741297
0.00719325
0.00700428
0.00683616
0.00667827
0.00652184
0.00636532
0.00620919
0.00605361
0.00589819
0.0057423
0.00558529
0.00542743
0.00527122
0.00512494
0.00855601
0.00859952
0.00843393
0.00817098
0.00789057
0.00761919
0.00736811
0.00714162
0.00693835
0.00675135
0.00657357
0.00640188
0.00623485
0.00607093
0.00590863
0.00574686
0.00558516
0.00542418
0.00526625
0.00511621
0.00803693
0.00810499
0.00805261
0.00790561
0.00772072
0.00751558
0.00730491
0.00709799
0.00689681
0.00670425
0.00652143
0.00634646
0.00617733
0.00601256
0.00585102
0.00569164
0.00553341
0.00537619
0.00522125
0.00506513
0.00773907
0.00779821
0.00778628
0.00769089
0.00755128
0.0073858
0.00720563
0.00702118
0.00683723
0.00665689
0.0064818
0.00631179
0.00614624
0.00598456
0.00582614
0.00567018
0.00551567
0.0053622
0.00521024
0.00505219
0.00758797
0.00765086
0.00765463
0.00758098
0.00746088
0.00731452
0.00715168
0.00698031
0.00680623
0.00663273
0.00646166
0.00629391
0.00612983
0.00596945
0.00581256
0.00565849
0.00550608
0.00535505
0.00520648
0.00505091
0.00758795
0.00765084
0.0076546
0.00758095
0.00746083
0.00731445
0.00715157
0.00698015
0.00680601
0.00663242
0.00646124
0.00629332
0.00612897
0.00596816
0.00581066
0.00565585
0.00550271
0.00535095
0.00520161
0.0050469
0.00773906
0.00779821
0.00778627
0.00769089
0.00755128
0.0073858
0.00720563
0.00702118
0.00683723
0.00665689
0.0064818
0.00631179
0.00614625
0.00598457
0.00582616
0.00567019
0.00551568
0.00536221
0.00521026
0.00505222
0.00803699
0.00810506
0.0080527
0.00790576
0.00772095
0.00751588
0.00730531
0.00709858
0.00689772
0.0067057
0.00652376
0.00635009
0.00618276
0.00602064
0.00586309
0.00570938
0.00555881
0.00541119
0.0052669
0.00511585
0.00855611
0.00859962
0.00843407
0.00817117
0.00789085
0.00761959
0.00736874
0.00714261
0.00694003
0.00675426
0.00657858
0.00640996
0.00624697
0.00608901
0.00593666
0.00579084
0.00565242
0.00552234
0.00540175
0.00528818
0.00985897
0.00909624
0.00847749
0.00802619
0.00768225
0.0074133
0.00719382
0.00700525
0.00683779
0.00668096
0.00652625
0.00637253
0.00622093
0.00607283
0.00593017
0.0057963
0.00567642
0.00557811
0.00551894
0.00552525
0.0102682
0.00941667
0.0086524
0.00809324
0.00771705
0.00744895
0.00723317
0.00704005
0.00686131
0.00669223
0.00652779
0.00636563
0.00620494
0.00604473
0.00588323
0.00571785
0.00554403
0.00535618
0.00514897
0.00490877
0.0089744
0.00910058
0.00879769
0.00838146
0.0080143
0.00769562
0.00741698
0.00717637
0.00696351
0.00676851
0.00658453
0.0064081
0.00623696
0.00606886
0.00590172
0.00573357
0.00556278
0.00538883
0.00521704
0.00506906
0.00840494
0.00850592
0.00839436
0.00816889
0.00791314
0.00765476
0.00739638
0.00715478
0.00693691
0.00673667
0.00654907
0.00637094
0.00619957
0.00603289
0.00586948
0.00570819
0.00554829
0.005391
0.00524127
0.00509755
0.00803699
0.00810506
0.0080527
0.00790577
0.00772095
0.00751588
0.00730531
0.00709858
0.00689772
0.0067057
0.00652376
0.00635009
0.00618275
0.00602064
0.00586308
0.00570937
0.0055588
0.00541118
0.00526688
0.00511583
0.00785393
0.00791836
0.00788891
0.0077641
0.00760516
0.00743156
0.00724537
0.0070575
0.00687159
0.00668849
0.00650977
0.00633645
0.00616895
0.00600742
0.00585199
0.00570215
0.0055561
0.00541253
0.0052729
0.00512792
0.00785389
0.00791833
0.00788886
0.007764
0.00760498
0.00743131
0.00724506
0.00705707
0.00687094
0.0066875
0.00650827
0.00633422
0.00616572
0.00600262
0.00584479
0.00569147
0.00554102
0.00539243
0.00524672
0.00509826
0.00803693
0.00810499
0.00805261
0.00790561
0.00772072
0.00751558
0.00730492
0.00709799
0.00689681
0.00670426
0.00652144
0.00634648
0.00617735
0.00601258
0.00585104
0.00569167
0.00553344
0.00537622
0.00522129
0.00506519
0.00840494
0.00850592
0.00839436
0.00816889
0.00791314
0.00765475
0.00739637
0.00715478
0.00693691
0.00673667
0.00654907
0.00637094
0.00619958
0.0060329
0.0058695
0.0057082
0.0055483
0.00539101
0.00524129
0.00509757
0.00897445
0.00910064
0.00879778
0.00838157
0.00801445
0.00769587
0.00741741
0.00717713
0.00696482
0.00677065
0.00658788
0.00641333
0.0062452
0.00608201
0.0059224
0.00576557
0.00561105
0.00545871
0.00531378
0.0051859
0.0102682
0.00941674
0.00865247
0.00809335
0.00771724
0.00744929
0.00723375
0.00704102
0.0068629
0.00669488
0.00653221
0.00637286
0.00621666
0.00606383
0.00591462
0.00576974
0.00563085
0.00550307
0.00540405
0.00536223
0.0106165
0.00988262
0.00878972
0.00812374
0.00772113
0.00744735
0.0072361
0.00704976
0.00687514
0.00670746
0.00654416
0.00638328
0.00622282
0.00606151
0.00589898
0.0057337
0.00556029
0.00536362
0.00510055
0.0046677
0.00989989
0.00986819
0.00913997
0.00842946
0.00798311
0.00766716
0.00740825
0.00718057
0.00697595
0.00678751
0.00660972
0.0064387
0.00627124
0.00610561
0.00594081
0.00577509
0.00560578
0.00543028
0.0052612
0.00516193
0.00897446
0.00910065
0.00879778
0.00838158
0.00801446
0.00769587
0.00741742
0.00717713
0.00696482
0.00677065
0.00658788
0.00641332
0.0062452
0.006082
0.00592239
0.00576556
0.00561104
0.0054587
0.00531378
0.00518591
0.00855611
0.00859962
0.00843408
0.00817118
0.00789086
0.0076196
0.00736874
0.00714262
0.00694003
0.00675427
0.00657858
0.00640996
0.00624697
0.006089
0.00593666
0.00579083
0.00565241
0.00552233
0.00540174
0.00528817
0.00834012
0.00836195
0.00823476
0.00801728
0.00778491
0.00755582
0.00733313
0.00712017
0.00691973
0.00673304
0.00655773
0.00639074
0.00623055
0.00607556
0.00592568
0.00578302
0.00564875
0.00552345
0.00540982
0.00530275
0.00834007
0.00836189
0.00823469
0.00801717
0.00778473
0.00755558
0.00733276
0.00711961
0.00691887
0.00673163
0.00655534
0.00638674
0.00622419
0.00606608
0.00591142
0.005761
0.0056155
0.00547524
0.00534197
0.00521527
0.00855601
0.00859951
0.00843393
0.00817098
0.00789057
0.00761919
0.00736812
0.00714162
0.00693836
0.00675136
0.00657359
0.0064019
0.00623487
0.00607095
0.00590866
0.0057469
0.00558519
0.00542421
0.00526628
0.00511624
0.0089744
0.00910058
0.00879769
0.00838146
0.00801429
0.00769561
0.00741698
0.00717637
0.00696351
0.00676852
0.00658453
0.00640811
0.00623697
0.00606887
0.00590174
0.00573359
0.0055628
0.00538884
0.00521704
0.00506904
0.00989989
0.00986818
0.00913996
0.00842946
0.00798311
0.00766715
0.00740825
0.00718057
0.00697595
0.00678751
0.00660973
0.00643871
0.00627125
0.00610562
0.00594082
0.0057751
0.00560579
0.00543028
0.00526119
0.00516188
0.0106165
0.00988264
0.00878975
0.00812379
0.00772122
0.00744752
0.00723639
0.00705026
0.006876
0.00670891
0.00654652
0.00638718
0.00622949
0.00607311
0.00591844
0.00576566
0.0056125
0.00545566
0.00528525
0.00506675
0.0177953
0.0106809
0.00838941
0.00785159
0.00757723
0.00735502
0.00716837
0.00700191
0.00684072
0.00668121
0.00652348
0.00636726
0.00621125
0.00605431
0.00589637
0.00573637
0.00557411
0.00540351
0.005184
0.00477218
0.0106165
0.00988265
0.00878976
0.0081238
0.00772123
0.00744752
0.0072364
0.00705026
0.006876
0.00670891
0.00654652
0.00638717
0.00622949
0.0060731
0.00591843
0.00576565
0.00561249
0.00545565
0.00528526
0.00506678
0.0102682
0.00941674
0.00865248
0.00809336
0.00771724
0.00744929
0.00723375
0.00704102
0.0068629
0.00669488
0.0065322
0.00637286
0.00621666
0.00606382
0.00591462
0.00576973
0.00563084
0.00550306
0.00540404
0.00536223
0.00985898
0.00909625
0.00847749
0.00802619
0.00768226
0.0074133
0.00719382
0.00700526
0.0068378
0.00668096
0.00652626
0.00637253
0.00622093
0.00607283
0.00593017
0.00579629
0.00567641
0.00557811
0.00551894
0.00552525
0.00972474
0.00898356
0.00839539
0.00798729
0.00766536
0.00739867
0.00717719
0.00698664
0.00681605
0.00665962
0.0065102
0.0063611
0.00621175
0.00606439
0.00592178
0.00578696
0.00566352
0.00555568
0.00546805
0.00540974
0.00972472
0.00898353
0.00839535
0.00798722
0.00766526
0.00739852
0.00717695
0.00698623
0.00681536
0.00665847
0.00650831
0.00635797
0.00620658
0.00605593
0.0059077
0.00576317
0.00562416
0.00549133
0.00536455
0.00524976
0.0098589
0.00909617
0.0084774
0.00802606
0.00768205
0.00741297
0.00719326
0.00700428
0.00683617
0.00667828
0.00652185
0.00636533
0.00620921
0.00605363
0.00589823
0.00574234
0.00558534
0.00542747
0.00527127
0.005125
0.0102682
0.00941667
0.00865239
0.00809324
0.00771704
0.00744894
0.00723317
0.00704005
0.00686131
0.00669223
0.00652779
0.00636564
0.00620496
0.00604475
0.00588325
0.00571788
0.00554406
0.0053562
0.00514898
0.00490876
0.0106165
0.00988261
0.00878971
0.00812373
0.00772112
0.00744734
0.0072361
0.00704975
0.00687514
0.00670746
0.00654416
0.00638329
0.00622283
0.00606152
0.00589899
0.00573371
0.0055603
0.00536363
0.00510054
0.00466766
0.0177953
0.0106808
0.00838941
0.00785158
0.00757722
0.00735501
0.00716836
0.00700191
0.00684072
0.00668121
0.00652348
0.00636727
0.00621125
0.00605432
0.00589638
0.00573638
0.00557412
0.00540351
0.00518399
0.00477213
0.00550509
0.00483184
0.00442565
0.00430094
0.00420064
0.00407227
0.00394013
0.00381
0.0036793
0.00354858
0.00341782
0.00328791
0.00315852
0.00302955
0.00290121
0.00277339
0.002647
0.00252203
0.00239888
0.0022766
0.00215561
0.00203521
0.00191648
0.00180085
0.00168556
0.00157031
0.00145635
0.00134353
0.00123212
0.00112212
0.00101115
0.000899738
0.000790265
0.00068236
0.000576818
0.000472049
0.000366045
0.000259825
0.000155374
4.98402e-05
0.00545835
0.00488724
0.00449865
0.00435086
0.00423375
0.0041006
0.00396538
0.00383143
0.00369669
0.00356166
0.00342688
0.00329346
0.00316071
0.00302863
0.0028978
0.00276823
0.00264066
0.00251493
0.0023912
0.00226873
0.00214765
0.00202722
0.00190882
0.00179386
0.0016793
0.00156446
0.00145068
0.00133804
0.00122688
0.00111694
0.0010061
0.000895071
0.000785984
0.00067865
0.000573414
0.000468807
0.000363157
0.000257515
0.00015367
4.94442e-05
0.00510861
0.00486995
0.00460557
0.00441875
0.00427402
0.00413232
0.00398876
0.0038464
0.00370569
0.00356653
0.00342861
0.00329286
0.00315793
0.00302439
0.00289317
0.00276373
0.00263618
0.00251027
0.00238625
0.00226332
0.00214213
0.00202219
0.00190404
0.0017884
0.00167324
0.00155845
0.00144484
0.0013325
0.00122146
0.00111151
0.00100097
0.000890586
0.000782061
0.000675288
0.000569919
0.000465457
0.000360586
0.00025542
0.000152298
4.88151e-05
0.00490701
0.0048058
0.00464061
0.00446711
0.00431005
0.0041608
0.00401323
0.00386755
0.0037241
0.00358283
0.0034433
0.00330601
0.00317081
0.00303743
0.0029059
0.00277609
0.00264796
0.00252124
0.00239628
0.00227252
0.00215037
0.00203
0.00191079
0.00179229
0.00167477
0.00155896
0.00144494
0.00133272
0.0012215
0.00111118
0.00100049
0.000890342
0.000782003
0.000675463
0.000569849
0.000464994
0.00036023
0.00025534
0.000152227
4.84406e-05
0.00480219
0.00474087
0.00461733
0.00446305
0.00430913
0.00415787
0.00400913
0.00386356
0.00372096
0.00358028
0.00344184
0.00330567
0.00317148
0.00303923
0.00290856
0.00277937
0.00265165
0.00252535
0.00240052
0.0022771
0.00215535
0.00203511
0.00191562
0.00179709
0.00167993
0.00156425
0.00145028
0.00133789
0.0012266
0.00111581
0.00100482
0.000894681
0.00078613
0.000679275
0.000573643
0.000468474
0.000363053
0.000257589
0.000153629
4.8767e-05
0.00487813
0.00477321
0.00462014
0.00445809
0.00430037
0.00414713
0.00399723
0.00385185
0.00371136
0.0035738
0.00343776
0.00330309
0.00317006
0.00303866
0.00290866
0.00278009
0.00265287
0.00252703
0.00240261
0.00227961
0.0021581
0.00203808
0.00191944
0.0018018
0.00168471
0.00156843
0.0014537
0.00134074
0.00122937
0.00111857
0.00100771
0.000897867
0.000789574
0.000682737
0.000576914
0.000471336
0.000365517
0.000259338
0.000154579
4.92311e-05
0.00498401
0.00482192
0.00463282
0.00445445
0.0042901
0.00413427
0.00398394
0.00383979
0.00370077
0.00356465
0.00343027
0.00329737
0.00316581
0.00303504
0.00290556
0.00277769
0.00265126
0.00252618
0.00240243
0.00228005
0.00215894
0.00203923
0.00192082
0.00180361
0.00168707
0.00157133
0.00145694
0.00134419
0.00123286
0.00112199
0.0010108
0.000900246
0.000791127
0.000683846
0.000578191
0.000472816
0.000367168
0.000260637
0.000155327
4.97085e-05
0.00515327
0.00491331
0.00465436
0.00444529
0.00426996
0.00411172
0.00396345
0.00382186
0.0036848
0.00355077
0.00341868
0.00328795
0.00315763
0.00302746
0.00289848
0.00277127
0.00264572
0.00252153
0.00239848
0.0022767
0.00215592
0.00203646
0.00191844
0.00180232
0.00168683
0.00157208
0.00145864
0.00134633
0.00123545
0.00112496
0.00101364
0.000902674
0.000793356
0.000685634
0.000579987
0.000474459
0.000368934
0.000262761
0.000156821
5.05661e-05
0.00536474
0.00497377
0.00461588
0.00438812
0.00421592
0.00406393
0.00392325
0.00378972
0.00365986
0.00353141
0.00340347
0.00327589
0.00314863
0.00302214
0.00289677
0.00277094
0.00264576
0.00252193
0.00239917
0.00227752
0.00215672
0.0020371
0.00191876
0.00180277
0.0016872
0.00157257
0.00145946
0.00134723
0.00123623
0.00112578
0.00101436
0.000902987
0.000793486
0.000685635
0.000579852
0.000474214
0.000368749
0.0002627
0.000156505
5.03603e-05
0.00554204
0.00491396
0.00446198
0.00428366
0.00416594
0.00403769
0.00390908
0.0037842
0.00365938
0.00353388
0.00340763
0.00328162
0.00315616
0.00303106
0.00290626
0.00278051
0.00265499
0.00253071
0.00240764
0.00228585
0.00216474
0.0020441
0.00192526
0.00180912
0.00169314
0.00157728
0.00146304
0.00135004
0.00123858
0.00112812
0.0010165
0.000904606
0.000794724
0.000686639
0.000580359
0.000475422
0.000370665
0.000264112
0.000157492
5.07797e-05
0.00550489
0.00483169
0.00442545
0.00430076
0.00420068
0.00407255
0.00394053
0.00381029
0.00367948
0.00354865
0.0034177
0.00328765
0.00315853
0.00302957
0.00290145
0.00277368
0.00264711
0.00252218
0.00239871
0.00227671
0.0021556
0.00203508
0.00191659
0.00180116
0.00168606
0.00157061
0.0014566
0.00134375
0.00123234
0.00112229
0.00101128
0.000899796
0.000790309
0.000682571
0.000576265
0.0004721
0.000368099
0.000261542
0.000155923
4.97826e-05
0.00554212
0.00491404
0.00446218
0.00428403
0.00416594
0.00403727
0.00390864
0.0037839
0.00365919
0.00353379
0.00340766
0.00328175
0.00315602
0.00303093
0.00290586
0.00278006
0.00265474
0.00253041
0.00240772
0.00228562
0.00216462
0.0020441
0.00192505
0.00180872
0.00169264
0.00157701
0.00146284
0.00134987
0.00123842
0.00112805
0.00101657
0.00090481
0.000795019
0.000687192
0.000580901
0.000474977
0.000368819
0.000262308
0.000156758
5.06578e-05
0.00524019
0.00486316
0.00456299
0.00437261
0.00422041
0.00407772
0.00394295
0.00381272
0.00368333
0.00355368
0.00342373
0.00329462
0.00316509
0.00303609
0.0029079
0.00278052
0.00265451
0.00252981
0.00240698
0.00228431
0.00216333
0.00204341
0.00192484
0.00180842
0.00169197
0.00157637
0.00146195
0.00134875
0.00123753
0.00112709
0.00101516
0.000903353
0.000793565
0.000686097
0.00058036
0.000474854
0.000368413
0.000261304
0.000156192
5.05554e-05
0.00503642
0.00481511
0.00459041
0.00439652
0.00423606
0.00409096
0.00395155
0.00381544
0.00368158
0.00354876
0.00341667
0.00328513
0.00315449
0.00302495
0.00289649
0.00276916
0.00264307
0.0025186
0.00239524
0.00227243
0.00215086
0.0020314
0.0019134
0.00179593
0.00167931
0.0015642
0.00145035
0.00133777
0.00122642
0.00111571
0.00100488
0.00089486
0.000786086
0.000678844
0.000573022
0.000468184
0.000363151
0.000257948
0.000154474
5.01089e-05
0.00477793
0.0046324
0.00452142
0.00437931
0.00423453
0.00409653
0.0039603
0.00382468
0.00369035
0.00355683
0.00342422
0.00329215
0.00316133
0.0030315
0.00290235
0.00277431
0.00264746
0.00252206
0.00239775
0.00227483
0.00215285
0.00203257
0.00191389
0.00179585
0.00167896
0.00156336
0.0014491
0.00133598
0.00122404
0.00111268
0.00100201
0.000892579
0.000784021
0.000676722
0.000570995
0.000465892
0.000361035
0.000257048
0.000154047
5.03283e-05
0.00478471
0.00463057
0.00451721
0.00438379
0.0042423
0.00410439
0.00396736
0.00383058
0.00369484
0.00356045
0.00342735
0.00329527
0.00316409
0.00303394
0.00290478
0.00277674
0.0026499
0.00252443
0.00240006
0.00227697
0.00215494
0.00203388
0.0019145
0.00179688
0.00168043
0.0015649
0.00145031
0.00133679
0.00122464
0.00111294
0.00100203
0.000892571
0.000784356
0.00067719
0.000571069
0.000465547
0.000360619
0.000256719
0.000153862
5.05232e-05
0.00485108
0.00469589
0.0045628
0.00441938
0.00427202
0.00412771
0.00398581
0.00384518
0.00370608
0.00356892
0.00343377
0.00330033
0.00316839
0.00303759
0.00290799
0.00277964
0.00265252
0.00252672
0.00240217
0.00227883