/*--------------------------------*- C++ -*----------------------------------*\
| =========                 |                                                 |
| \\      /  F ield         | OpenFOAM: The Open Source CFD Toolbox           |
|  \\    /   O peration     | Version:  2212                                  |
|   \\  /    A nd           | Website:  www.openfoam.com                      |
|    \\/     M anipulation  |                                                 |
\*---------------------------------------------------------------------------*/
FoamFile
{
    version     2.0;
    format      ascii;
    arch        "LSB;label=32;scalar=64";
    class       surfaceScalarField;
    location    "1.1";
    object      phi;
}
// * * * * * * * * * * * * * * * * * * * * * * * * * * * * * * * * * * * * * //

dimensions      [0 3 -1 0 0 0 0];

oriented        oriented;

internalField   nonuniform List<scalar> 
19019
(
3.3225e-07
1.09685e-09
1.09679e-09
2.79191e-07
2.65297e-08
2.65293e-08
2.49218e-07
1.49867e-08
1.49859e-08
2.29254e-07
9.98254e-09
9.98129e-09
2.14834e-07
7.21123e-09
7.20844e-09
2.03198e-07
5.82017e-09
5.81584e-09
1.9377e-07
4.71843e-09
4.70983e-09
1.86001e-07
3.8921e-09
3.87673e-09
1.7935e-07
3.33866e-09
3.31208e-09
1.73518e-07
2.93871e-09
2.89328e-09
1.68342e-07
2.62532e-09
2.55095e-09
1.63715e-07
2.37471e-09
2.252e-09
1.5954e-07
2.19473e-09
1.98114e-09
1.55749e-07
2.08873e-09
1.7025e-09
1.52363e-07
2.02047e-09
1.36523e-09
1.49418e-07
1.9939e-09
9.51042e-10
1.47075e-07
1.96965e-09
3.73939e-10
1.46265e-07
1.79564e-09
-9.86165e-10
1.49091e-07
1.24128e-09
-4.06686e-09
-1.08004e-08
-2.66495e-08
6.3138e-07
3.58761e-09
7.40283e-09
6.14564e-07
2.2646e-08
2.07001e-08
5.86446e-07
2.4376e-08
1.87288e-08
5.61727e-07
1.88549e-08
1.58463e-08
5.3962e-07
1.55697e-08
1.37483e-08
5.20641e-07
1.35107e-08
1.1288e-08
5.047e-07
1.19527e-08
8.70748e-09
4.90954e-07
1.08008e-08
6.83733e-09
4.78745e-07
9.9487e-09
5.59892e-09
4.67685e-07
9.24021e-09
4.75846e-09
4.5755e-07
8.61751e-09
4.14279e-09
4.48209e-07
8.05427e-09
3.66169e-09
4.39558e-07
7.54253e-09
3.30248e-09
4.31538e-07
7.07661e-09
3.03264e-09
4.24197e-07
6.62129e-09
2.73988e-09
4.17764e-07
6.1066e-09
2.32118e-09
4.12868e-07
5.29478e-09
1.57089e-09
4.11582e-07
3.32896e-09
-2.47381e-10
4.18322e-07
-6.51278e-10
-4.84707e-09
-1.18583e-08
-1.94776e-08
8.90375e-07
2.85261e-09
6.33228e-09
8.82487e-07
1.34084e-08
1.71255e-08
8.70361e-07
1.78668e-08
1.86351e-08
8.55116e-07
1.69542e-08
1.71458e-08
8.39989e-07
1.53378e-08
1.53584e-08
8.25547e-07
1.41651e-08
1.37877e-08
8.1179e-07
1.33706e-08
1.23394e-08
7.98814e-07
1.266e-08
1.11164e-08
7.86772e-07
1.18606e-08
1.013e-08
7.75682e-07
1.09973e-08
9.33298e-09
7.65418e-07
1.01592e-08
8.72275e-09
7.55849e-07
9.35798e-09
8.26459e-09
7.46895e-07
8.58894e-09
7.90803e-09
7.38552e-07
7.81809e-09
7.60205e-09
7.30922e-07
6.96643e-09
7.2843e-09
7.24352e-07
5.8526e-09
6.82427e-09
7.1935e-07
4.26814e-09
6.02859e-09
7.16509e-07
1.77079e-09
4.39941e-09
7.16717e-07
-2.4361e-09
1.57638e-09
-1.06043e-08
-4.37963e-09
1.07432e-06
1.06468e-09
5.56886e-09
1.06824e-06
5.58607e-09
1.39001e-08
1.06138e-06
8.46306e-09
1.62614e-08
1.05339e-06
9.03814e-09
1.59078e-08
1.04511e-06
8.61455e-09
1.50002e-08
1.03723e-06
8.11419e-09
1.39307e-08
1.02985e-06
7.77496e-09
1.29738e-08
1.02287e-06
7.53396e-09
1.21101e-08
1.01606e-06
7.33354e-09
1.13382e-08
1.00935e-06
7.02427e-09
1.0681e-08
1.00279e-06
6.54435e-09
1.01792e-08
9.96361e-07
5.98033e-09
9.80273e-09
9.90052e-07
5.37661e-09
9.52188e-09
9.83843e-07
4.7133e-09
9.31307e-09
9.7773e-07
3.93925e-09
9.14023e-09
9.71746e-07
2.89443e-09
8.94227e-09
9.65953e-07
1.40937e-09
8.65188e-09
9.60265e-07
-7.59637e-10
8.2186e-09
9.53993e-07
-3.85213e-09
7.68786e-09
-8.71765e-09
7.5144e-09
1.16914e-06
-1.50887e-13
4.90651e-09
1.16312e-06
-7.07835e-13
1.16083e-08
1.15731e-06
-1.6049e-12
1.42754e-08
1.15202e-06
-2.84298e-12
1.43336e-08
1.14691e-06
-4.84338e-12
1.37304e-08
1.14206e-06
-8.38488e-12
1.29694e-08
1.13775e-06
-1.4655e-11
1.21012e-08
1.134e-06
-2.49785e-11
1.13093e-08
1.13072e-06
-4.23481e-11
1.06527e-08
1.12762e-06
-7.11053e-11
1.01957e-08
1.12438e-06
-1.18715e-10
9.90605e-09
1.12085e-06
-1.97276e-10
9.70873e-09
1.11694e-06
-3.27414e-10
9.61034e-09
1.11256e-06
-5.44006e-10
9.63514e-09
1.10762e-06
-9.073e-10
9.78756e-09
1.10194e-06
-1.50085e-09
1.00812e-08
1.09528e-06
-2.51145e-09
1.05729e-08
1.08729e-06
-4.06956e-09
1.13045e-08
1.07799e-06
-6.78812e-09
1.22348e-08
-1.1766e-08
1.33034e-08
1.16914e-06
-1.065e-09
4.90656e-09
1.16312e-06
-5.5872e-09
1.16085e-08
1.15731e-06
-8.4652e-09
1.42756e-08
1.15201e-06
-9.04177e-09
1.43342e-08
1.1469e-06
-8.62121e-09
1.37322e-08
1.14204e-06
-8.12639e-09
1.29732e-08
1.13772e-06
-7.79662e-09
1.2107e-08
1.13395e-06
-7.57101e-09
1.1319e-08
1.13063e-06
-7.39715e-09
1.06693e-08
1.12747e-06
-7.12959e-09
1.02237e-08
1.12411e-06
-6.71664e-09
9.95175e-09
1.12039e-06
-6.26152e-09
9.78539e-09
1.11616e-06
-5.84071e-09
9.74506e-09
1.11123e-06
-5.48839e-09
9.87787e-09
1.10533e-06
-5.23122e-09
1.02162e-08
1.09808e-06
-5.07478e-09
1.08278e-08
1.08889e-06
-5.17631e-09
1.1852e-08
1.07692e-06
-5.57223e-09
1.34764e-08
1.06105e-06
-6.67102e-09
1.57556e-08
-1.06095e-08
1.86567e-08
1.07432e-06
-2.85258e-09
5.56886e-09
1.06824e-06
-1.34084e-08
1.39002e-08
1.06138e-06
-1.78668e-08
1.62621e-08
1.05338e-06
-1.69543e-08
1.59101e-08
1.04509e-06
-1.53385e-08
1.50046e-08
1.03719e-06
-1.41672e-08
1.39376e-08
1.02979e-06
-1.33747e-08
1.29841e-08
1.02276e-06
-1.26661e-08
1.21267e-08
1.01586e-06
-1.1871e-08
1.1366e-08
1.00902e-06
-1.10143e-08
1.0729e-08
1.00223e-06
-1.01864e-08
1.02623e-08
9.9542e-07
-9.40273e-09
9.94883e-09
9.88469e-07
-8.66642e-09
9.77656e-09
9.81176e-07
-7.95635e-09
9.76037e-09
9.73225e-07
-7.21507e-09
9.93572e-09
9.64116e-07
-6.35259e-09
1.03863e-08
9.52987e-07
-5.34167e-09
1.12948e-08
9.38306e-07
-3.89215e-09
1.30008e-08
9.17918e-07
-1.80384e-09
1.55212e-08
-1.46965e-09
2.29344e-08
8.90375e-07
-3.58747e-09
6.33238e-09
8.82485e-07
-2.26453e-08
1.71261e-08
8.70357e-07
-2.43751e-08
1.86367e-08
8.55107e-07
-1.88533e-08
1.71486e-08
8.39973e-07
-1.55665e-08
1.53625e-08
8.25518e-07
-1.35052e-08
1.37932e-08
8.11738e-07
-1.19431e-08
1.23483e-08
7.98724e-07
-1.07847e-08
1.1132e-08
7.8662e-07
-9.9216e-09
1.01552e-08
7.75425e-07
-9.19418e-09
9.37488e-09
7.64984e-07
-8.5397e-09
8.79395e-09
7.55122e-07
-7.92908e-09
8.38812e-09
7.45682e-07
-7.34537e-09
8.11885e-09
7.36526e-07
-6.75689e-09
7.95704e-09
7.27509e-07
-6.10752e-09
7.90997e-09
7.18458e-07
-5.29572e-09
7.99396e-09
7.09044e-07
-4.20139e-09
8.27358e-09
6.98383e-07
-2.01293e-09
8.78173e-09
6.84344e-07
2.45805e-09
9.77772e-09
1.48711e-08
1.36795e-08
6.3138e-07
-1.0968e-09
7.40293e-09
6.14563e-07
-2.65293e-08
2.07006e-08
5.86444e-07
-1.4986e-08
1.87297e-08
5.61724e-07
-9.98131e-09
1.58481e-08
5.39616e-07
-7.20846e-09
1.37508e-08
5.20633e-07
-5.81587e-09
1.12929e-08
5.04685e-07
-4.70987e-09
8.71525e-09
4.90927e-07
-3.87678e-09
6.84991e-09
4.78698e-07
-3.31214e-09
5.61999e-09
4.67602e-07
-2.89335e-09
4.79453e-09
4.57402e-07
-2.55103e-09
4.2116e-09
4.47945e-07
-2.25207e-09
3.77956e-09
4.39109e-07
-1.98117e-09
3.47239e-09
4.30802e-07
-1.70257e-09
3.25284e-09
4.22965e-07
-1.36537e-09
3.09532e-09
4.15653e-07
-9.51221e-10
2.9672e-09
4.09004e-07
-3.74144e-10
2.82211e-09
4.03837e-07
9.85655e-10
2.16793e-09
4.0269e-07
4.06603e-09
-4.59812e-10
2.66502e-08
-1.33849e-08
3.3225e-07
1.09685e-09
2.79191e-07
2.65297e-08
2.49218e-07
1.49867e-08
2.29254e-07
9.98253e-09
2.14834e-07
7.21122e-09
2.03198e-07
5.82015e-09
1.9377e-07
4.7184e-09
1.86001e-07
3.89206e-09
1.7935e-07
3.33861e-09
1.73518e-07
2.93865e-09
1.68342e-07
2.62526e-09
1.63715e-07
2.37465e-09
1.5954e-07
2.19459e-09
1.55748e-07
2.08867e-09
1.52363e-07
2.02048e-09
1.49418e-07
1.99383e-09
1.47074e-07
1.96971e-09
1.46264e-07
1.79605e-09
1.49087e-07
1.24277e-09
-1.07955e-08
6.3138e-07
7.40293e-09
3.58747e-09
6.14563e-07
2.07006e-08
2.26453e-08
5.86444e-07
1.87298e-08
2.43751e-08
5.61724e-07
1.58481e-08
1.88533e-08
5.39616e-07
1.37508e-08
1.55664e-08
5.20633e-07
1.12929e-08
1.35051e-08
5.04685e-07
8.71526e-09
1.1943e-08
4.90927e-07
6.84993e-09
1.07847e-08
4.78698e-07
5.62e-09
9.92152e-09
4.67602e-07
4.79455e-09
9.19408e-09
4.57402e-07
4.21161e-09
8.53958e-09
4.47945e-07
3.77959e-09
7.92898e-09
4.39109e-07
3.4724e-09
7.34518e-09
4.30802e-07
3.25282e-09
6.75672e-09
4.22965e-07
3.0952e-09
6.1073e-09
4.15654e-07
2.96687e-09
5.29522e-09
4.09006e-07
2.82149e-09
4.2006e-09
4.03842e-07
2.16647e-09
2.01103e-09
4.027e-07
-4.62833e-10
-2.46182e-09
-1.3387e-08
-1.48739e-08
9.23616e-07
7.03394e-09
7.03374e-09
9.25318e-07
1.98501e-08
1.98493e-08
9.17183e-07
2.27972e-08
2.27959e-08
9.04274e-07
2.23031e-08
2.23007e-08
8.90532e-07
2.06226e-08
2.06186e-08
8.77406e-07
1.78571e-08
1.78497e-08
8.65434e-07
1.47032e-08
1.4691e-08
8.54754e-07
1.21938e-08
1.21743e-08
8.4531e-07
1.03484e-08
1.03144e-08
8.36958e-07
8.9815e-09
8.92305e-09
8.29513e-07
7.94883e-09
7.8505e-09
8.22796e-07
7.15923e-09
6.999e-09
8.16723e-07
6.55124e-09
6.29717e-09
8.11297e-07
6.05727e-09
5.65344e-09
8.06559e-07
5.60978e-09
4.96427e-09
8.02572e-07
5.13837e-09
4.13665e-09
7.99459e-07
4.50746e-09
2.99763e-09
7.96683e-07
3.44061e-09
1.25477e-09
7.91714e-07
1.20412e-09
-1.54499e-09
-3.02728e-09
-5.79788e-09
1.1589e-06
5.28139e-09
6.10237e-09
1.1657e-06
1.39987e-08
1.61821e-08
1.16845e-06
1.79779e-08
2.07049e-08
1.16661e-06
1.91788e-08
2.21021e-08
1.16222e-06
1.88759e-08
2.15021e-08
1.15655e-06
1.7545e-08
1.97652e-08
1.15049e-06
1.56835e-08
1.74179e-08
1.1446e-06
1.38813e-08
1.53172e-08
1.1392e-06
1.22756e-08
1.36094e-08
1.13441e-06
1.08696e-08
1.22363e-08
1.13024e-06
9.69863e-09
1.1136e-08
1.12669e-06
8.7277e-09
1.02524e-08
1.12373e-06
7.89872e-09
9.51803e-09
1.12138e-06
7.14379e-09
8.86378e-09
1.11967e-06
6.38056e-09
8.22138e-09
1.11863e-06
5.52041e-09
7.48791e-09
1.11822e-06
4.42637e-09
6.51736e-09
1.11802e-06
2.92178e-09
5.12237e-09
1.11678e-06
7.98098e-10
3.21579e-09
-2.31393e-09
1.30874e-09
1.32763e-06
2.71809e-09
4.93094e-09
1.3354e-06
7.12044e-09
1.30085e-08
1.34287e-06
9.55265e-09
1.7215e-08
1.34848e-06
1.05765e-08
1.88978e-08
1.35198e-06
1.08723e-08
1.94991e-08
1.35377e-06
1.05752e-08
1.91127e-08
1.35445e-06
9.88273e-09
1.80975e-08
1.3546e-06
9.03062e-09
1.68071e-08
1.35459e-06
8.16771e-09
1.54586e-08
1.35457e-06
7.34838e-09
1.42258e-08
1.35461e-06
6.59948e-09
1.32349e-08
1.35478e-06
5.90959e-09
1.2452e-08
1.35511e-06
5.26265e-09
1.18307e-08
1.35563e-06
4.60762e-09
1.13289e-08
1.35638e-06
3.86971e-09
1.09007e-08
1.35735e-06
2.98646e-09
1.04984e-08
1.3585e-06
1.85348e-09
1.00772e-08
1.35966e-06
3.61896e-10
9.61547e-09
1.36058e-06
-1.59012e-09
9.16516e-09
-3.80731e-09
9.16604e-09
1.41518e-06
-2.77373e-13
4.19279e-09
1.42279e-06
-7.94952e-13
1.11158e-08
1.43152e-06
-1.36969e-12
1.50984e-08
1.4398e-06
-2.48571e-12
1.66293e-08
1.44714e-06
-4.55886e-12
1.72756e-08
1.45318e-06
-7.91346e-12
1.75107e-08
1.45802e-06
-1.30305e-11
1.71548e-08
1.46194e-06
-2.13495e-11
1.64405e-08
1.46524e-06
-3.58217e-11
1.55569e-08
1.46816e-06
-6.12269e-11
1.46818e-08
1.47089e-06
-1.03097e-10
1.38798e-08
1.47348e-06
-1.71462e-10
1.31992e-08
1.47591e-06
-2.75978e-10
1.27238e-08
1.47813e-06
-4.35889e-10
1.24583e-08
1.48013e-06
-6.90397e-10
1.2346e-08
1.4819e-06
-1.07894e-09
1.23802e-08
1.48337e-06
-1.66233e-09
1.26138e-08
1.48444e-06
-2.50668e-09
1.31058e-08
1.48492e-06
-3.68183e-09
1.3846e-08
-5.04759e-09
1.47901e-08
1.41518e-06
-2.71841e-09
4.19294e-09
1.42279e-06
-7.12132e-09
1.11162e-08
1.43152e-06
-9.55424e-09
1.5099e-08
1.4398e-06
-1.05794e-08
1.66306e-08
1.44713e-06
-1.08778e-08
1.72787e-08
1.45316e-06
-1.05846e-08
1.7516e-08
1.45799e-06
-9.89829e-09
1.71635e-08
1.46189e-06
-9.0565e-09
1.6454e-08
1.46516e-06
-8.21126e-09
1.55779e-08
1.46803e-06
-7.42513e-09
1.47165e-08
1.47067e-06
-6.73044e-09
1.39378e-08
1.47311e-06
-6.12511e-09
1.33e-08
1.47527e-06
-5.59427e-09
1.28979e-08
1.4771e-06
-5.12606e-09
1.27405e-08
1.47855e-06
-4.70837e-09
1.27817e-08
1.47955e-06
-4.34118e-09
1.30893e-08
1.48e-06
-4.01736e-09
1.37621e-08
1.47979e-06
-3.72138e-09
1.48962e-08
1.47887e-06
-3.41307e-09
1.64108e-08
-3.21962e-09
1.78979e-08
1.32762e-06
-5.28126e-09
4.93123e-09
1.33539e-06
-1.39985e-08
1.30093e-08
1.34286e-06
-1.79776e-08
1.72168e-08
1.34847e-06
-1.91783e-08
1.89021e-08
1.35196e-06
-1.88752e-08
1.95068e-08
1.35374e-06
-1.75433e-08
1.91244e-08
1.35439e-06
-1.56813e-08
1.81157e-08
1.3545e-06
-1.38792e-08
1.68361e-08
1.35442e-06
-1.22709e-08
1.55035e-08
1.35429e-06
-1.08603e-08
1.4299e-08
1.35414e-06
-9.68314e-09
1.33606e-08
1.354e-06
-8.69983e-09
1.26623e-08
1.35385e-06
-7.84324e-09
1.21755e-08
1.35364e-06
-7.04503e-09
1.18918e-08
1.35328e-06
-6.24164e-09
1.18246e-08
1.35268e-06
-5.37093e-09
1.20162e-08
1.35176e-06
-4.34168e-09
1.25478e-08
1.35057e-06
-3.044e-09
1.35074e-08
1.34925e-06
-1.38675e-09
1.48207e-08
6.87767e-10
1.60934e-08
1.1589e-06
-7.03375e-09
6.10271e-09
1.1657e-06
-1.98493e-08
1.61834e-08
1.16844e-06
-2.27959e-08
2.07076e-08
1.16661e-06
-2.23007e-08
2.21066e-08
1.1622e-06
-2.06186e-08
2.15088e-08
1.15653e-06
-1.78497e-08
1.97747e-08
1.15045e-06
-1.46911e-08
1.74335e-08
1.14454e-06
-1.21743e-08
1.53442e-08
1.13908e-06
-1.03145e-08
1.36552e-08
1.13421e-06
-8.92314e-09
1.2312e-08
1.12991e-06
-7.85061e-09
1.12609e-08
1.12614e-06
-6.99912e-09
1.04558e-08
1.12286e-06
-6.29727e-09
9.84713e-09
1.12004e-06
-5.65368e-09
9.39153e-09
1.1176e-06
-4.96479e-09
9.07055e-09
1.1155e-06
-4.13745e-09
8.86422e-09
1.11367e-06
-2.99896e-09
8.75363e-09
1.11198e-06
-1.25719e-09
8.69298e-09
1.11029e-06
1.54126e-09
8.5373e-09
5.79613e-09
7.98141e-09
9.23616e-07
-7.40283e-09
7.03394e-09
9.25318e-07
-2.07001e-08
1.985e-08
9.17183e-07
-1.87288e-08
2.27971e-08
9.04274e-07
-1.58463e-08
2.23031e-08
8.90532e-07
-1.37483e-08
2.06225e-08
8.77406e-07
-1.1288e-08
1.78571e-08
8.65434e-07
-8.70749e-09
1.47031e-08
8.54754e-07
-6.83734e-09
1.21938e-08
8.4531e-07
-5.59894e-09
1.03484e-08
8.36958e-07
-4.75848e-09
8.98142e-09
8.29513e-07
-4.14281e-09
7.94875e-09
8.22796e-07
-3.66171e-09
7.15914e-09
8.16722e-07
-3.30244e-09
6.55113e-09
8.11297e-07
-3.03262e-09
6.05722e-09
8.06558e-07
-2.74e-09
5.60989e-09
8.0257e-07
-2.32143e-09
5.13876e-09
7.99457e-07
-1.57135e-09
4.50835e-09
7.96678e-07
2.46463e-10
3.44246e-09
7.91707e-07
4.84531e-09
1.20756e-09
1.94763e-08
-3.02305e-09
6.3138e-07
3.58761e-09
6.14564e-07
2.2646e-08
5.86446e-07
2.4376e-08
5.61727e-07
1.88549e-08
5.3962e-07
1.55697e-08
5.20641e-07
1.35107e-08
5.047e-07
1.19526e-08
4.90954e-07
1.08007e-08
4.78745e-07
9.94864e-09
4.67685e-07
9.24015e-09
4.5755e-07
8.61744e-09
4.48208e-07
8.05419e-09
4.39558e-07
7.54249e-09
4.31538e-07
7.07655e-09
4.24197e-07
6.62121e-09
4.17763e-07
6.10664e-09
4.12866e-07
5.29509e-09
4.11579e-07
3.3298e-09
4.18316e-07
-6.49385e-10
-1.18538e-08
8.90375e-07
6.33238e-09
2.85258e-09
8.82485e-07
1.71261e-08
1.34084e-08
8.70357e-07
1.86367e-08
1.78668e-08
8.55107e-07
1.71486e-08
1.69543e-08
8.39973e-07
1.53625e-08
1.53385e-08
8.25518e-07
1.37932e-08
1.41672e-08
8.11738e-07
1.23483e-08
1.33746e-08
7.98724e-07
1.1132e-08
1.2666e-08
7.86619e-07
1.01553e-08
1.18709e-08
7.75425e-07
9.37492e-09
1.10141e-08
7.64984e-07
8.79399e-09
1.01862e-08
7.55122e-07
8.38816e-09
9.4025e-09
7.45682e-07
8.11886e-09
8.66611e-09
7.36526e-07
7.95703e-09
7.95601e-09
7.27509e-07
7.90985e-09
7.21464e-09
7.18459e-07
7.99351e-09
6.35183e-09
7.09046e-07
8.27252e-09
5.34043e-09
6.98388e-07
8.77934e-09
3.88964e-09
6.84354e-07
9.7732e-09
1.79974e-09
1.36776e-08
1.46449e-09
1.1589e-06
6.10271e-09
5.28126e-09
1.1657e-06
1.61834e-08
1.39985e-08
1.16844e-06
2.07076e-08
1.79776e-08
1.16661e-06
2.21066e-08
1.91783e-08
1.1622e-06
2.15088e-08
1.88751e-08
1.15653e-06
1.97748e-08
1.75432e-08
1.15045e-06
1.74335e-08
1.56812e-08
1.14454e-06
1.53442e-08
1.38791e-08
1.13908e-06
1.36553e-08
1.22707e-08
1.13421e-06
1.2312e-08
1.08601e-08
1.12991e-06
1.1261e-08
9.68296e-09
1.12614e-06
1.04558e-08
8.69962e-09
1.12286e-06
9.84722e-09
7.843e-09
1.12004e-06
9.39151e-09
7.04462e-09
1.1176e-06
9.07029e-09
6.24096e-09
1.1155e-06
8.86362e-09
5.36996e-09
1.11367e-06
8.75245e-09
4.34019e-09
1.11198e-06
8.69081e-09
3.04161e-09
1.11029e-06
8.53413e-09
1.38338e-09
7.98307e-09
-6.87383e-10
1.37712e-06
4.57741e-09
4.57709e-09
1.38565e-06
1.19173e-08
1.19164e-08
1.39417e-06
1.64473e-08
1.64456e-08
1.40126e-06
1.85611e-08
1.85583e-08
1.40641e-06
1.8931e-08
1.89264e-08
1.40951e-06
1.82231e-08
1.82161e-08
1.41094e-06
1.67177e-08
1.67061e-08
1.41153e-06
1.50455e-08
1.50272e-08
1.41182e-06
1.35036e-08
1.34738e-08
1.41208e-06
1.21692e-08
1.21213e-08
1.41248e-06
1.1035e-08
1.09579e-08
1.41314e-06
1.00853e-08
9.96171e-09
1.41412e-06
9.2929e-09
9.09415e-09
1.41544e-06
8.62339e-09
8.30766e-09
1.41713e-06
8.04788e-09
7.56074e-09
1.41915e-06
7.53077e-09
6.79623e-09
1.42144e-06
7.03195e-09
5.9515e-09
1.42377e-06
6.50797e-09
4.97366e-09
1.42575e-06
5.89737e-09
3.87637e-09
5.22554e-09
3.03703e-09
1.53312e-06
2.36595e-09
3.64911e-09
1.54218e-06
6.23861e-09
9.63328e-09
1.55328e-06
8.87298e-09
1.36907e-08
1.56445e-06
1.03465e-08
1.5935e-08
1.57508e-06
1.08989e-08
1.69092e-08
1.58472e-06
1.07536e-08
1.69419e-08
1.59302e-06
1.01418e-08
1.63718e-08
1.6001e-06
9.32865e-09
1.54393e-08
1.60627e-06
8.45568e-09
1.43349e-08
1.6118e-06
7.63128e-09
1.32368e-08
1.61693e-06
6.89973e-09
1.22388e-08
1.62184e-06
6.25982e-09
1.13666e-08
1.62666e-06
5.69027e-09
1.06156e-08
1.63148e-06
5.16071e-09
9.96833e-09
1.63639e-06
4.64476e-09
9.3999e-09
1.64143e-06
4.10921e-09
8.88072e-09
1.64663e-06
3.52176e-09
8.38602e-09
1.652e-06
2.84415e-09
7.9057e-09
1.65755e-06
2.04698e-09
7.46695e-09
1.1947e-09
7.29095e-09
1.61424e-06
-2.04931e-13
3.09275e-09
1.62332e-06
-4.99171e-13
8.27378e-09
1.63533e-06
-8.75816e-13
1.19567e-08
1.6482e-06
-1.53947e-12
1.41138e-08
1.66118e-06
-2.7052e-12
1.51992e-08
1.67386e-06
-4.3963e-12
1.55816e-08
1.68574e-06
-7.20835e-12
1.54285e-08
1.69656e-06
-1.1473e-11
1.49571e-08
1.70631e-06
-1.87504e-11
1.4284e-08
1.71514e-06
-3.0888e-11
1.35115e-08
1.72324e-06
-5.00755e-11
1.27302e-08
1.73077e-06
-7.93392e-11
1.20089e-08
1.73791e-06
-1.21807e-10
1.13973e-08
1.74479e-06
-1.84596e-10
1.09218e-08
1.75147e-06
-2.79426e-10
1.05924e-08
1.75798e-06
-4.29369e-10
1.04045e-08
1.7644e-06
-6.44521e-10
1.03593e-08
1.77083e-06
-9.33064e-10
1.04557e-08
1.77735e-06
-1.28835e-09
1.06639e-08
-1.61762e-09
1.09536e-08
1.61424e-06
-2.3661e-09
3.09294e-09
1.62332e-06
-6.23897e-09
8.2743e-09
1.63533e-06
-8.87362e-09
1.19577e-08
1.64819e-06
-1.03477e-08
1.41157e-08
1.66117e-06
-1.09006e-08
1.52028e-08
1.67385e-06
-1.07561e-08
1.55872e-08
1.68571e-06
-1.0146e-08
1.54366e-08
1.69652e-06
-9.33569e-09
1.49692e-08
1.70625e-06
-8.46734e-09
1.43029e-08
1.71504e-06
-7.652e-09
1.35419e-08
1.72309e-06
-6.93566e-09
1.27794e-08
1.73054e-06
-6.31874e-09
1.20889e-08
1.73757e-06
-5.77938e-09
1.1526e-08
1.74429e-06
-5.2923e-09
1.11246e-08
1.75073e-06
-4.84755e-09
1.09052e-08
1.75694e-06
-4.43407e-09
1.08838e-08
1.76302e-06
-4.03829e-09
1.10787e-08
1.76913e-06
-3.63934e-09
1.14916e-08
1.77543e-06
-3.21241e-09
1.20329e-08
-2.80898e-09
1.24842e-08
1.53312e-06
-4.57709e-09
3.64952e-09
1.54218e-06
-1.19164e-08
9.63444e-09
1.55327e-06
-1.64457e-08
1.36929e-08
1.56445e-06
-1.85584e-08
1.5939e-08
1.57506e-06
-1.89265e-08
1.69158e-08
1.5847e-06
-1.82161e-08
1.69522e-08
1.59298e-06
-1.67061e-08
1.63877e-08
1.60005e-06
-1.50273e-08
1.54648e-08
1.60618e-06
-1.34739e-08
1.43743e-08
1.61165e-06
-1.21215e-08
1.32987e-08
1.6167e-06
-1.09581e-08
1.23384e-08
1.62147e-06
-9.96194e-09
1.15265e-08
1.62609e-06
-9.09445e-09
1.08738e-08
1.63062e-06
-8.30809e-09
1.03807e-08
1.63511e-06
-7.56136e-09
1.00455e-08
1.63962e-06
-6.79709e-09
9.87384e-09
1.6442e-06
-5.9527e-09
9.87709e-09
1.64899e-06
-4.97529e-09
1.00512e-08
1.65417e-06
-3.87819e-09
1.03099e-08
-3.03756e-09
1.0439e-08
1.37712e-06
-6.10237e-09
4.57741e-09
1.38565e-06
-1.61821e-08
1.19173e-08
1.39417e-06
-2.07049e-08
1.64473e-08
1.40126e-06
-2.21022e-08
1.8561e-08
1.40641e-06
-2.15021e-08
1.89309e-08
1.40951e-06
-1.97652e-08
1.82231e-08
1.41094e-06
-1.74179e-08
1.67176e-08
1.41153e-06
-1.53172e-08
1.50454e-08
1.41182e-06
-1.36095e-08
1.35035e-08
1.41208e-06
-1.22364e-08
1.21692e-08
1.41248e-06
-1.11361e-08
1.10349e-08
1.41314e-06
-1.02526e-08
1.00852e-08
1.41412e-06
-9.51826e-09
9.2928e-09
1.41544e-06
-8.86413e-09
8.62335e-09
1.41713e-06
-8.22191e-09
8.04799e-09
1.41915e-06
-7.48881e-09
7.53107e-09
1.42144e-06
-6.51887e-09
7.03253e-09
1.42377e-06
-5.12478e-09
6.50887e-09
1.42575e-06
-3.21943e-09
5.89832e-09
-1.3127e-09
5.22486e-09
1.1589e-06
-6.33228e-09
5.28139e-09
1.1657e-06
-1.71255e-08
1.39987e-08
1.16845e-06
-1.86351e-08
1.79779e-08
1.16661e-06
-1.71458e-08
1.91787e-08
1.16222e-06
-1.53585e-08
1.88759e-08
1.15655e-06
-1.37878e-08
1.7545e-08
1.15049e-06
-1.23395e-08
1.56835e-08
1.1446e-06
-1.11165e-08
1.38812e-08
1.1392e-06
-1.013e-08
1.22756e-08
1.13441e-06
-9.33303e-09
1.08695e-08
1.13024e-06
-8.7228e-09
9.69853e-09
1.12669e-06
-8.26466e-09
8.72759e-09
1.12373e-06
-7.90815e-09
7.89862e-09
1.12138e-06
-7.60221e-09
7.1437e-09
1.11967e-06
-7.28452e-09
6.38054e-09
1.11863e-06
-6.82473e-09
5.5206e-09
1.11822e-06
-6.02948e-09
4.42693e-09
1.11801e-06
-4.40104e-09
2.9229e-09
1.11678e-06
-1.5791e-09
7.99876e-10
4.37468e-09
-2.31275e-09
8.90375e-07
2.85261e-09
8.82487e-07
1.34084e-08
8.70361e-07
1.78668e-08
8.55116e-07
1.69542e-08
8.39989e-07
1.53377e-08
8.25547e-07
1.41651e-08
8.1179e-07
1.33705e-08
7.98814e-07
1.26599e-08
7.86772e-07
1.18606e-08
7.75682e-07
1.09972e-08
7.65417e-07
1.01591e-08
7.55849e-07
9.35787e-09
7.46895e-07
8.58883e-09
7.38551e-07
7.81798e-09
7.30921e-07
6.96631e-09
7.24351e-07
5.85254e-09
7.19348e-07
4.26822e-09
7.16505e-07
1.77118e-09
7.16712e-07
-2.43517e-09
-1.06019e-08
1.07432e-06
5.56886e-09
1.065e-09
1.06824e-06
1.39002e-08
5.58719e-09
1.06138e-06
1.62622e-08
8.46518e-09
1.05338e-06
1.59101e-08
9.04173e-09
1.04509e-06
1.50046e-08
8.62116e-09
1.03719e-06
1.39376e-08
8.12632e-09
1.02979e-06
1.29841e-08
7.79652e-09
1.02276e-06
1.21268e-08
7.57089e-09
1.01586e-06
1.13661e-08
7.397e-09
1.00902e-06
1.0729e-08
7.1294e-09
1.00223e-06
1.02624e-08
6.7164e-09
9.95419e-07
9.94884e-09
6.26123e-09
9.88469e-07
9.77655e-09
5.84034e-09
9.81176e-07
9.76032e-09
5.48793e-09
9.73225e-07
9.93553e-09
5.23063e-09
9.64117e-07
1.03858e-08
5.07395e-09
9.52988e-07
1.12937e-08
5.17509e-09
9.38309e-07
1.29988e-08
5.57032e-09
9.17923e-07
1.55174e-08
6.6681e-09
2.293e-08
1.06052e-08
1.32762e-06
4.93123e-09
2.7184e-09
1.33539e-06
1.30094e-08
7.1213e-09
1.34286e-06
1.72168e-08
9.55422e-09
1.34847e-06
1.89021e-08
1.05794e-08
1.35196e-06
1.95068e-08
1.08777e-08
1.35374e-06
1.91244e-08
1.05845e-08
1.35439e-06
1.81157e-08
9.8982e-09
1.3545e-06
1.68361e-08
9.05638e-09
1.35442e-06
1.55035e-08
8.21112e-09
1.35429e-06
1.42991e-08
7.42495e-09
1.35414e-06
1.33606e-08
6.73021e-09
1.354e-06
1.26623e-08
6.12484e-09
1.35385e-06
1.21755e-08
5.59395e-09
1.35364e-06
1.18917e-08
5.12561e-09
1.35328e-06
1.18243e-08
4.70774e-09
1.35268e-06
1.20157e-08
4.34039e-09
1.35175e-06
1.25469e-08
4.01638e-09
1.35057e-06
1.35059e-08
3.72018e-09
1.34924e-06
1.48186e-08
3.41187e-09
1.60928e-08
3.22001e-09
1.53312e-06
3.64952e-09
2.36609e-09
1.54218e-06
9.63445e-09
6.23895e-09
1.55327e-06
1.36929e-08
8.87359e-09
1.56445e-06
1.5939e-08
1.03476e-08
1.57506e-06
1.69158e-08
1.09005e-08
1.5847e-06
1.69523e-08
1.0756e-08
1.59298e-06
1.63877e-08
1.01459e-08
1.60005e-06
1.54648e-08
9.33559e-09
1.60618e-06
1.43744e-08
8.46722e-09
1.61165e-06
1.32988e-08
7.65185e-09
1.6167e-06
1.23385e-08
6.93547e-09
1.62147e-06
1.15266e-08
6.31851e-09
1.62609e-06
1.08738e-08
5.77909e-09
1.63062e-06
1.03807e-08
5.29192e-09
1.63511e-06
1.00454e-08
4.84707e-09
1.63962e-06
9.87365e-09
4.43356e-09
1.6442e-06
9.87681e-09
4.03781e-09
1.64899e-06
1.00509e-08
3.63904e-09
1.65416e-06
1.03099e-08
3.21272e-09
1.04404e-08
2.81076e-09
1.68027e-06
1.89111e-09
1.89096e-09
1.68934e-06
5.09953e-09
5.09906e-09
1.7018e-06
7.46461e-09
7.46372e-09
1.71578e-06
8.94668e-09
8.94519e-09
1.73022e-06
9.694e-09
9.69157e-09
1.74439e-06
9.86268e-09
9.85877e-09
1.75784e-06
9.6552e-09
9.64916e-09
1.77035e-06
9.2038e-09
9.19467e-09
1.78183e-06
8.62065e-09
8.60708e-09
1.79239e-06
7.99995e-09
7.97952e-09
1.80218e-06
7.4076e-09
7.37589e-09
1.81137e-06
6.87727e-09
6.82673e-09
1.8201e-06
6.42148e-09
6.33954e-09
1.8285e-06
6.04014e-09
5.9088e-09
1.8367e-06
5.72393e-09
5.52275e-09
1.84482e-06
5.46426e-09
5.17279e-09
1.85297e-06
5.25377e-09
4.85234e-09
1.8613e-06
5.0778e-09
4.55462e-09
1.8699e-06
4.89529e-09
4.28221e-09
4.6478e-09
4.12508e-09
1.7569e-06
-4.39154e-14
1.61314e-09
1.76589e-06
-6.05851e-14
4.38387e-09
1.77878e-06
-7.1022e-14
6.53135e-09
1.79389e-06
-9.03231e-14
7.95039e-09
1.81003e-06
-1.05863e-13
8.75473e-09
1.82639e-06
-1.07513e-13
9.08441e-09
1.8424e-06
-1.51133e-13
9.07062e-09
1.85773e-06
-5.18748e-13
8.83426e-09
1.87217e-06
-1.32166e-12
8.46034e-09
1.88567e-06
-2.54286e-12
8.01495e-09
1.89827e-06
-3.98893e-12
7.54947e-09
1.91006e-06
-5.22313e-12
7.10133e-09
1.92118e-06
-5.5076e-12
6.69579e-09
1.9318e-06
-4.87059e-12
6.34931e-09
1.94205e-06
-6.70869e-12
6.0744e-09
1.95206e-06
-1.68154e-11
5.87553e-09
1.96196e-06
-3.77128e-11
5.75041e-09
1.97187e-06
-7.04119e-11
5.69067e-09
1.98187e-06
-1.17967e-10
5.68007e-09
-1.79833e-10
5.70742e-09
1.7569e-06
-1.89096e-09
1.61327e-09
1.76589e-06
-5.09908e-09
4.38425e-09
1.77878e-06
-7.46374e-09
6.53207e-09
1.79389e-06
-8.94522e-09
7.95165e-09
1.81003e-06
-9.69161e-09
8.75677e-09
1.82638e-06
-9.85883e-09
9.08755e-09
1.84239e-06
-9.64923e-09
9.07523e-09
1.85772e-06
-9.19476e-09
8.84112e-09
1.87215e-06
-8.60719e-09
8.47069e-09
1.88564e-06
-7.97966e-09
8.03078e-09
1.89822e-06
-7.37606e-09
7.57391e-09
1.90999e-06
-6.82695e-09
7.13927e-09
1.9211e-06
-6.33981e-09
6.75477e-09
1.93169e-06
-5.90912e-09
6.44061e-09
1.94189e-06
-5.52311e-09
6.21412e-09
1.95185e-06
-5.17315e-09
6.08206e-09
1.9617e-06
-4.85263e-09
6.04251e-09
1.9716e-06
-4.55473e-09
6.07927e-09
1.98164e-06
-4.28192e-09
6.15192e-09
-4.1241e-09
6.16978e-09
1.68027e-06
-3.64911e-09
1.89111e-09
1.68934e-06
-9.6333e-09
5.09952e-09
1.7018e-06
-1.36908e-08
7.46459e-09
1.71578e-06
-1.5935e-08
8.94665e-09
1.73022e-06
-1.69093e-08
9.69396e-09
1.74439e-06
-1.69419e-08
9.86264e-09
1.75784e-06
-1.63719e-08
9.65514e-09
1.77035e-06
-1.54394e-08
9.20374e-09
1.78183e-06
-1.4335e-08
8.62059e-09
1.79239e-06
-1.3237e-08
7.99988e-09
1.80218e-06
-1.2239e-08
7.40752e-09
1.81137e-06
-1.13668e-08
6.87719e-09
1.8201e-06
-1.06159e-08
6.42139e-09
1.8285e-06
-9.96871e-09
6.04006e-09
1.8367e-06
-9.40039e-09
5.72386e-09
1.84482e-06
-8.88135e-09
5.46418e-09
1.85297e-06
-8.38683e-09
5.25362e-09
1.8613e-06
-7.90667e-09
5.0775e-09
1.8699e-06
-7.46785e-09
4.89466e-09
-7.29119e-09
4.64664e-09
1.53312e-06
-4.93095e-09
2.36594e-09
1.54218e-06
-1.30085e-08
6.2386e-09
1.55328e-06
-1.7215e-08
8.87296e-09
1.56445e-06
-1.88978e-08
1.03465e-08
1.57508e-06
-1.94992e-08
1.08989e-08
1.58472e-06
-1.91127e-08
1.07536e-08
1.59302e-06
-1.80975e-08
1.01418e-08
1.6001e-06
-1.68071e-08
9.32859e-09
1.60627e-06
-1.54586e-08
8.45561e-09
1.6118e-06
-1.42259e-08
7.63121e-09
1.61693e-06
-1.3235e-08
6.89965e-09
1.62184e-06
-1.24522e-08
6.25973e-09
1.62666e-06
-1.1831e-08
5.69018e-09
1.63148e-06
-1.13292e-08
5.16064e-09
1.63639e-06
-1.09012e-08
4.64471e-09
1.64143e-06
-1.04992e-08
4.10922e-09
1.64663e-06
-1.00785e-08
3.52178e-09
1.65201e-06
-9.61739e-09
2.84411e-09
1.65756e-06
-9.16774e-09
2.04668e-09
-9.16727e-09
1.19376e-09
1.32763e-06
-5.56886e-09
2.71809e-09
1.3354e-06
-1.39001e-08
7.12043e-09
1.34287e-06
-1.62614e-08
9.55263e-09
1.34848e-06
-1.59078e-08
1.05764e-08
1.35198e-06
-1.50002e-08
1.08722e-08
1.35377e-06
-1.39307e-08
1.05752e-08
1.35445e-06
-1.29738e-08
9.88268e-09
1.3546e-06
-1.21101e-08
9.03056e-09
1.35459e-06
-1.13382e-08
8.16764e-09
1.35457e-06
-1.0681e-08
7.34831e-09
1.35461e-06
-1.01793e-08
6.59941e-09
1.35478e-06
-9.80281e-09
5.90951e-09
1.35511e-06
-9.522e-09
5.26258e-09
1.35563e-06
-9.31328e-09
4.60757e-09
1.35638e-06
-9.14054e-09
3.86969e-09
1.35735e-06
-8.94282e-09
2.98654e-09
1.3585e-06
-8.65289e-09
1.85372e-09
1.35966e-06
-8.2204e-09
3.62316e-10
1.36058e-06
-7.69082e-09
-1.58964e-09
-7.51858e-09
-3.80815e-09
1.07432e-06
1.06468e-09
1.06824e-06
5.58607e-09
1.06138e-06
8.46305e-09
1.05339e-06
9.03812e-09
1.04511e-06
8.61451e-09
1.03723e-06
8.11415e-09
1.02985e-06
7.77491e-09
1.02287e-06
7.53391e-09
1.01606e-06
7.33348e-09
1.00935e-06
7.0242e-09
1.00279e-06
6.54428e-09
9.9636e-07
5.98024e-09
9.90051e-07
5.37652e-09
9.83842e-07
4.71325e-09
9.77728e-07
3.93924e-09
9.71744e-07
2.89451e-09
9.65949e-07
1.40964e-09
9.60259e-07
-7.59028e-10
9.53984e-07
-3.85091e-09
-8.71473e-09
1.16914e-06
4.90656e-09
1.45212e-13
1.16312e-06
1.16085e-08
6.9169e-13
1.15731e-06
1.42756e-08
1.58028e-12
1.15201e-06
1.43342e-08
2.80152e-12
1.1469e-06
1.37322e-08
4.78564e-12
1.14204e-06
1.29732e-08
8.30989e-12
1.13772e-06
1.21071e-08
1.45604e-11
1.13395e-06
1.1319e-08
2.486e-11
1.13063e-06
1.06693e-08
4.22002e-11
1.12747e-06
1.02238e-08
7.09207e-11
1.12411e-06
9.95176e-09
1.18483e-10
1.12039e-06
9.78539e-09
1.96979e-10
1.11616e-06
9.74503e-09
3.27034e-10
1.11122e-06
9.87781e-09
5.43524e-10
1.10533e-06
1.02161e-08
9.06688e-10
1.09808e-06
1.08275e-08
1.50004e-09
1.08889e-06
1.18514e-08
2.51032e-09
1.07692e-06
1.34755e-08
4.06798e-09
1.06105e-06
1.5754e-08
6.78588e-09
1.86537e-08
1.17625e-08
1.41518e-06
4.19294e-09
2.70866e-13
1.42279e-06
1.11162e-08
7.79394e-13
1.43152e-06
1.5099e-08
1.34134e-12
1.4398e-06
1.66306e-08
2.44415e-12
1.44713e-06
1.72787e-08
4.50318e-12
1.45316e-06
1.7516e-08
7.84194e-12
1.45799e-06
1.71635e-08
1.29413e-11
1.46189e-06
1.64541e-08
2.12391e-11
1.46515e-06
1.5578e-08
3.56854e-11
1.46803e-06
1.47166e-08
6.10572e-11
1.47067e-06
1.39378e-08
1.02884e-10
1.47311e-06
1.33e-08
1.71195e-10
1.47527e-06
1.28979e-08
2.75647e-10
1.4771e-06
1.27405e-08
4.35466e-10
1.47855e-06
1.27816e-08
6.89853e-10
1.47955e-06
1.3089e-08
1.07828e-09
1.48e-06
1.37617e-08
1.66159e-09
1.47979e-06
1.48955e-08
2.50596e-09
1.47886e-06
1.64098e-08
3.68146e-09
1.78964e-08
5.04856e-09
1.61424e-06
3.09294e-09
1.97486e-13
1.62332e-06
8.27431e-09
4.81842e-13
1.63533e-06
1.19577e-08
8.478e-13
1.64819e-06
1.41158e-08
1.50044e-12
1.66117e-06