/*--------------------------------*- C++ -*----------------------------------*\
| =========                 |                                                 |
| \\      /  F ield         | OpenFOAM: The Open Source CFD Toolbox           |
|  \\    /   O peration     | Version:  2212                                  |
|   \\  /    A nd           | Website:  www.openfoam.com                      |
|    \\/     M anipulation  |                                                 |
\*---------------------------------------------------------------------------*/
FoamFile
{
    version     2.0;
    format      ascii;
    arch        "LSB;label=32;scalar=64";
    class       volScalarField;
    location    "1.25";
    object      p;
}
// * * * * * * * * * * * * * * * * * * * * * * * * * * * * * * * * * * * * * //

dimensions      [0 2 -2 0 0 0 0];

internalField   nonuniform List<scalar> 
680
(
0.017815
0.0107006
0.00840918
0.00787136
0.00759702
0.00737483
0.00718823
0.0106362
0.00990239
0.00880949
0.00814352
0.00774093
0.00746719
0.00725599
0.0102879
0.00943644
0.00867217
0.00811302
0.00773684
0.00746875
0.00725299
0.00987866
0.00911592
0.00849715
0.00804581
0.0077018
0.00743271
0.00721297
0.00974445
0.00900327
0.00841508
0.00800695
0.00768497
0.00741819
0.00719655
0.00974447
0.00900329
0.00841512
0.008007
0.00768505
0.00741832
0.00719677
0.00987872
0.00911599
0.00849723
0.00804593
0.00770198
0.007433
0.00721347
0.010288
0.0094365
0.00867224
0.00811312
0.00773701
0.00746906
0.00725352
0.0106363
0.00990241
0.00880953
0.00814357
0.00774101
0.00746734
0.00725625
0.017815
0.0107006
0.00840919
0.00787137
0.00759702
0.00737484
0.00718824
0.0106363
0.00990241
0.00880952
0.00814357
0.00774101
0.00746733
0.00725625
0.00991966
0.00988796
0.00915975
0.00844926
0.00800294
0.00768703
0.00742818
0.00899418
0.00912036
0.00881748
0.00840126
0.00803412
0.00771547
0.00743688
0.00857577
0.00861928
0.0084537
0.00819075
0.00791035
0.00763898
0.0073879
0.00835981
0.00838163
0.00825443
0.00803689
0.00780444
0.00757526
0.00735239
0.00835985
0.00838168
0.00825449
0.008037
0.00780461
0.00757548
0.00735274
0.00857587
0.00861938
0.00845383
0.00819094
0.00791062
0.00763935
0.00738848
0.00899423
0.00912042
0.00881757
0.00840138
0.00803427
0.00771571
0.0074373
0.00991967
0.00988797
0.00915976
0.00844927
0.00800294
0.00768703
0.00742819
0.0106362
0.00990239
0.0088095
0.00814353
0.00774093
0.0074672
0.007256
0.010288
0.0094365
0.00867224
0.00811312
0.00773701
0.00746906
0.00725352
0.00899422
0.00912042
0.00881756
0.00840137
0.00803427
0.00771571
0.00743729
0.00842471
0.00852569
0.00841414
0.00818869
0.00793297
0.0076746
0.00741628
0.00805669
0.00812475
0.00807237
0.00792538
0.0077405
0.00753539
0.00732474
0.00787363
0.00793806
0.00790859
0.00778373
0.00762469
0.007451
0.00726472
0.00787366
0.00793809
0.00790863
0.00778383
0.00762487
0.00745125
0.00726503
0.00805675
0.00812482
0.00807246
0.00792554
0.00774074
0.00753568
0.00732512
0.00842472
0.0085257
0.00841414
0.00818869
0.00793297
0.00767461
0.00741628
0.00899418
0.00912037
0.00881748
0.00840127
0.00803413
0.00771548
0.00743689
0.010288
0.00943644
0.00867218
0.00811303
0.00773685
0.00746876
0.007253
0.00987872
0.00911599
0.00849724
0.00804593
0.00770198
0.007433
0.00721347
0.00857587
0.00861938
0.00845384
0.00819094
0.00791062
0.00763935
0.00738848
0.00805675
0.00812481
0.00807246
0.00792554
0.00774074
0.00753568
0.00732512
0.00775882
0.00781797
0.00780604
0.00771066
0.00757105
0.00740559
0.00722543
0.00760769
0.00767059
0.00767435
0.0076007
0.00748057
0.00733418
0.00717128
0.00760771
0.00767061
0.00767437
0.00760073
0.00748062
0.00733425
0.00717139
0.00775883
0.00781797
0.00780604
0.00771066
0.00757105
0.00740559
0.00722544
0.00805669
0.00812476
0.00807237
0.00792539
0.00774051
0.00753539
0.00732475
0.00857578
0.00861929
0.00845371
0.00819076
0.00791036
0.00763898
0.00738791
0.00987866
0.00911593
0.00849716
0.00804582
0.00770181
0.00743272
0.00721298
0.00974447
0.00900329
0.00841512
0.00800701
0.00768506
0.00741832
0.00719677
0.00835985
0.00838168
0.00825449
0.00803701
0.00780461
0.00757549
0.00735274
0.00787366
0.00793809
0.00790864
0.00778383
0.00762488
0.00745126
0.00726503
0.00760771
0.00767061
0.00767437
0.00760073
0.00748062
0.00733425
0.00717139
0.0074649
0.00753441
0.00755654
0.00750399
0.00740274
0.00727181
0.00712189
0.0074649
0.00753441
0.00755654
0.00750399
0.00740274
0.00727181
0.00712189
0.0076077
0.00767059
0.00767435
0.0076007
0.00748058
0.00733418
0.00717128
0.00787363
0.00793807
0.0079086
0.00778374
0.0076247
0.00745101
0.00726473
0.00835981
0.00838164
0.00825443
0.0080369
0.00780445
0.00757526
0.0073524
0.00974446
0.00900327
0.00841509
0.00800695
0.00768498
0.0074182
0.00719656
0.00974446
0.00900327
0.00841509
0.00800695
0.00768497
0.00741819
0.00719656
0.00835981
0.00838164
0.00825443
0.0080369
0.00780445
0.00757526
0.0073524
0.00787363
0.00793807
0.0079086
0.00778374
0.0076247
0.00745101
0.00726472
0.0076077
0.00767059
0.00767435
0.0076007
0.00748058
0.00733418
0.00717128
0.0074649
0.00753442
0.00755654
0.007504
0.00740275
0.00727181
0.00712189
0.0074649
0.00753442
0.00755654
0.007504
0.00740275
0.00727181
0.00712189
0.00760772
0.00767061
0.00767438
0.00760073
0.00748062
0.00733426
0.0071714
0.00787366
0.0079381
0.00790864
0.00778383
0.00762488
0.00745126
0.00726504
0.00835986
0.00838169
0.00825449
0.00803701
0.00780462
0.00757549
0.00735275
0.00974447
0.00900329
0.00841513
0.00800701
0.00768506
0.00741833
0.00719678
0.00987866
0.00911593
0.00849716
0.00804582
0.00770181
0.00743272
0.00721298
0.00857578
0.00861929
0.00845371
0.00819076
0.00791036
0.00763899
0.00738791
0.0080567
0.00812476
0.00807238
0.00792539
0.00774051
0.0075354
0.00732475
0.00775883
0.00781798
0.00780605
0.00771066
0.00757106
0.0074056
0.00722544
0.00760772
0.00767061
0.00767438
0.00760074
0.00748063
0.00733426
0.0071714
0.0076077
0.0076706
0.00767435
0.0076007
0.00748058
0.00733419
0.00775883
0.00781797
0.00780604
0.00771066
0.00757106
0.00740559
0.00805676
0.00812482
0.00807246
0.00792554
0.00774074
0.00753569
0.00857587
0.00861939
0.00845384
0.00819095
0.00791063
0.00763936
0.00987872
0.009116
0.00849724
0.00804593
0.00770199
0.00743301
0.010288
0.00943645
0.00867218
0.00811304
0.00773685
0.00746876
0.007253
0.00899419
0.00912037
0.00881749
0.00840128
0.00803413
0.00771548
0.00743689
0.00842472
0.0085257
0.00841415
0.0081887
0.00793298
0.00767462
0.00741629
0.00805676
0.00812482
0.00807247
0.00792555
0.00774075
0.00753569
0.00732513
0.00787367
0.0079381
0.00790864
0.00778384
0.00762488
0.00745127
0.00726504
0.00787363
0.00793807
0.0079086
0.00778374
0.0076247
0.00745101
0.0080567
0.00812476
0.00807238
0.00792539
0.00774051
0.0075354
0.00842472
0.0085257
0.00841415
0.0081887
0.00793297
0.00767461
0.00899423
0.00912043
0.00881757
0.00840138
0.00803428
0.00771572
0.010288
0.0094365
0.00867224
0.00811313
0.00773701
0.00746907
0.0106363
0.0099024
0.00880951
0.00814354
0.00774094
0.0074672
0.00725601
0.00991968
0.00988798
0.00915976
0.00844928
0.00800295
0.00768704
0.0074282
0.00899423
0.00912043
0.00881758
0.00840139
0.00803428
0.00771572
0.00743731
0.00857588
0.00861939
0.00845385
0.00819095
0.00791063
0.00763937
0.00738849
0.00835986
0.00838169
0.0082545
0.00803702
0.00780462
0.0075755
0.00735276
0.00835982
0.00838165
0.00825444
0.0080369
0.00780446
0.00757527
0.00857578
0.00861929
0.00845371
0.00819076
0.00791036
0.00763899
0.00899418
0.00912037
0.00881749
0.00840127
0.00803413
0.00771548
0.00991967
0.00988797
0.00915976
0.00844927
0.00800294
0.00768703
0.0106363
0.00990242
0.00880953
0.00814358
0.00774102
0.00746734
0.017815
0.0107006
0.0084092
0.00787138
0.00759703
0.00737485
0.00718825
0.0106363
0.00990242
0.00880954
0.00814358
0.00774103
0.00746735
0.00725627
0.010288
0.00943651
0.00867225
0.00811314
0.00773702
0.00746908
0.00725354
0.00987873
0.009116
0.00849725
0.00804594
0.00770199
0.00743302
0.00721349
0.00974448
0.0090033
0.00841513
0.00800702
0.00768507
0.00741834
0.00719679
0.00974446
0.00900328
0.00841509
0.00800696
0.00768498
0.0074182
0.00987866
0.00911593
0.00849716
0.00804582
0.00770181
0.00743272
0.010288
0.00943644
0.00867217
0.00811303
0.00773684
0.00746876
0.0106362
0.00990239
0.0088095
0.00814353
0.00774093
0.0074672
0.017815
0.0107006
0.00840919
0.00787137
0.00759702
0.00737484
)
;

boundaryField
{
    inlet
    {
        type            zeroGradient;
    }
    ami1
    {
        type            cyclicAMI;
        value           nonuniform List<scalar> 0();
    }
    walls
    {
        type            zeroGradient;
    }
    ami2
    {
        type            cyclicAMI;
        value           nonuniform List<scalar> 0();
    }
    outlet
    {
        type            fixedValue;
        value           nonuniform List<scalar> 0();
    }
    procBoundary4to3
    {
        type            processor;
        value           nonuniform List<scalar> 
109
(
0.00702185
0.00706972
0.0070599
0.00702394
0.00700573
0.00700609
0.00702483
0.00706079
0.00707017
0.00702186
0.00707017
0.00720061
0.00719635
0.00716141
0.00713916
0.00713968
0.00716232
0.00719709
0.00720061
0.00706973
0.00706079
0.00719708
0.00717477
0.00711785
0.00707669
0.0070771
0.00711841
0.00717478
0.00719636
0.00705991
0.00702483
0.00716232
0.00711841
0.00704101
0.00699984
0.007
0.00704101
0.00711786
0.00716142
0.00702396
0.00700609
0.00713968
0.00707711
0.007
0.0069609
0.0069609
0.00699984
0.0070767
0.00713917
0.00700574
0.00700573
0.00713917
0.0070767
0.00699984
0.0069609
0.0069609
0.00717128
0.00700001
0.00722544
0.00707711
0.00732513
0.00713969
0.00738849
0.0070061
0.00721348
0.00702395
0.00716142
0.00711786
0.00704102
0.00700001
0.00717128
0.00717128
0.00722544
0.00732513
0.00738849
0.00721348
0.00705991
0.00719637
0.00717479
0.00711842
0.00707712
0.00726473
0.00726473
0.00732475
0.00741629
0.0074373
0.00725353
0.00706974
0.00720062
0.0071971
0.00716234
0.0071397
0.0073524
0.0073524
0.00738791
0.00743689
0.0074282
0.00725626
0.00702187
0.00707018
0.00706081
0.00702484
0.00700611
0.00719657
0.00719657
0.00721298
0.007253
0.007256
0.00718824
)
;
    }
}


// ************************************************************************* //
