/*--------------------------------*- C++ -*----------------------------------*\
| =========                 |                                                 |
| \\      /  F ield         | OpenFOAM: The Open Source CFD Toolbox           |
|  \\    /   O peration     | Version:  2212                                  |
|   \\  /    A nd           | Website:  www.openfoam.com                      |
|    \\/     M anipulation  |                                                 |
\*---------------------------------------------------------------------------*/
FoamFile
{
    version     2.0;
    format      ascii;
    arch        "LSB;label=32;scalar=64";
    class       volScalarField;
    location    "2";
    object      epsilon;
}
// * * * * * * * * * * * * * * * * * * * * * * * * * * * * * * * * * * * * * //

dimensions      [0 2 -3 0 0 0 0];

internalField   nonuniform List<scalar> 
6840
(
90.5034
12.1248
4.38869
2.46658
1.63315
1.18306
0.902007
0.720653
0.594572
0.502482
0.432645
0.379239
0.33624
0.299765
0.270013
0.245887
0.226193
0.210311
0.199872
0.189426
58.5856
14.5696
6.08946
3.33295
2.08216
1.40266
0.998641
0.740271
0.565885
0.443899
0.355985
0.290877
0.241337
0.202871
0.172925
0.149567
0.130965
0.115934
0.104109
0.0952409
45.0226
13.4729
5.73075
3.07322
1.86022
1.22698
0.87356
0.64976
0.496989
0.389446
0.311247
0.252921
0.208906
0.175114
0.14868
0.127686
0.110833
0.0971522
0.0860213
0.0775214
38.7028
13.0541
5.74336
3.08733
1.88066
1.22749
0.869465
0.645369
0.492574
0.384758
0.306994
0.249005
0.204926
0.17092
0.144309
0.123199
0.106236
0.0924295
0.081116
0.0725368
36.0571
12.8529
5.76645
3.10211
1.89476
1.22669
0.866501
0.643986
0.492255
0.383972
0.305809
0.247938
0.203948
0.169991
0.143401
0.122295
0.105337
0.091564
0.0803788
0.072372
36.0571
12.8529
5.76645
3.10212
1.89476
1.2267
0.866511
0.643998
0.492271
0.383993
0.305838
0.247977
0.204
0.170062
0.143498
0.122431
0.105528
0.0918242
0.080693
0.0724333
38.7028
13.0541
5.74337
3.08734
1.88067
1.22751
0.869487
0.645398
0.492611
0.384806
0.307062
0.249095
0.205047
0.171086
0.14454
0.123528
0.106707
0.0931073
0.0820497
0.0733056
45.0226
13.4729
5.73075
3.07323
1.86023
1.227
0.873581
0.649787
0.497025
0.389505
0.311322
0.253021
0.209041
0.175301
0.148952
0.128081
0.111412
0.0980108
0.0872725
0.0791868
58.5856
14.5696
6.08947
3.33295
2.08217
1.40266
0.998646
0.740278
0.565895
0.443919
0.356016
0.290925
0.241412
0.203017
0.173139
0.149899
0.131523
0.116956
0.106048
0.0987592
90.5034
12.1248
4.38869
2.46658
1.63315
1.18306
0.902007
0.720653
0.594572
0.502481
0.432646
0.379236
0.336244
0.299758
0.270016
0.245889
0.226194
0.210311
0.199869
0.189435
58.5856
14.5696
6.08947
3.33295
2.08217
1.40266
0.998646
0.740278
0.565895
0.443919
0.356016
0.290925
0.241411
0.203022
0.173138
0.149897
0.131524
0.116958
0.106052
0.0987664
16.5373
9.49238
5.0127
2.8606
1.75746
1.14759
0.786927
0.562044
0.41536
0.315937
0.246319
0.196203
0.159193
0.131212
0.109725
0.0931167
0.0800351
0.0695543
0.0603109
0.0549371
13.6679
8.73671
5.07741
3.05388
1.92223
1.26609
0.869289
0.618631
0.453959
0.342034
0.26365
0.207311
0.165901
0.134846
0.111145
0.092683
0.0781567
0.0666216
0.0571491
0.0497571
12.9054
8.33993
5.07879
3.15547
2.02775
1.35121
0.933541
0.666464
0.489552
0.368603
0.283614
0.222399
0.177342
0.143544
0.117765
0.0977869
0.0820983
0.069628
0.0595916
0.051388
12.6882
8.1544
5.07113
3.20039
2.0794
1.39506
0.967837
0.692729
0.509646
0.384027
0.295517
0.231664
0.184612
0.149284
0.122313
0.101415
0.0849998
0.0719481
0.0614568
0.0529569
12.6882
8.1544
5.07113
3.20039
2.0794
1.39506
0.967835
0.692726
0.509644
0.384024
0.295513
0.231659
0.184606
0.149274
0.122297
0.101399
0.0849819
0.0719269
0.0614319
0.0529215
12.9054
8.33993
5.07879
3.15547
2.02775
1.3512
0.933538
0.666459
0.489548
0.368598
0.283607
0.22239
0.177328
0.14352
0.117735
0.0977553
0.0820614
0.0695838
0.0595351
0.0512274
13.6679
8.73671
5.0774
3.05388
1.92223
1.26609
0.869287
0.618628
0.453956
0.34203
0.263645
0.207305
0.165892
0.134831
0.11112
0.0926576
0.078128
0.0665896
0.0570959
0.049761
16.5373
9.49238
5.0127
2.8606
1.75746
1.14759
0.786927
0.562044
0.41536
0.315937
0.246319
0.196203
0.159193
0.131216
0.109721
0.093116
0.0800359
0.0695556
0.0603134
0.0549435
58.5856
14.5696
6.08946
3.33295
2.08216
1.40266
0.998641
0.740271
0.565885
0.443899
0.355985
0.290877
0.241337
0.202868
0.172926
0.149569
0.130967
0.115937
0.104113
0.0952484
45.0226
13.4729
5.73075
3.07323
1.86023
1.227
0.873581
0.649787
0.497025
0.389506
0.311322
0.253021
0.209042
0.175302
0.148951
0.128081
0.111413
0.0980131
0.0872756
0.0791921
13.6679
8.73671
5.0774
3.05388
1.92223
1.26609
0.869287
0.618628
0.453956
0.34203
0.263645
0.207304
0.165892
0.134832
0.111118
0.0926563
0.0781259
0.0665859
0.0570972
0.0497584
11.8601
7.76395
4.99734
3.24076
2.14419
1.45499
1.0141
0.725633
0.532153
0.399146
0.305541
0.238216
0.188818
0.151907
0.123866
0.102227
0.0853069
0.0719136
0.0611639
0.0525595
11.6229
7.60535
5.0103
3.34209
2.26848
1.57142
1.11236
0.804589
0.594205
0.447519
0.343212
0.267636
0.211902
0.170124
0.13833
0.113789
0.0946039
0.079429
0.0672916
0.0574975
11.5726
7.56718
5.02065
3.38345
2.32103
1.62326
1.15829
0.843158
0.625693
0.472852
0.363488
0.283858
0.224911
0.180595
0.146797
0.120673
0.100232
0.0840527
0.0711094
0.0606322
11.5726
7.56718
5.02065
3.38344
2.32103
1.62326
1.15828
0.843155
0.625691
0.47285
0.363485
0.283854
0.224906
0.180587
0.146785
0.120662
0.100219
0.084038
0.0710954
0.0606409
11.6229
7.60535
5.0103
3.34209
2.26848
1.57142
1.11236
0.804586
0.594202
0.447514
0.343207
0.267629
0.211893
0.17011
0.138312
0.11377
0.0945824
0.0794047
0.0672673
0.0575065
11.8601
7.76395
4.99734
3.24076
2.14419
1.45499
1.0141
0.725633
0.532153
0.399146
0.305542
0.238217
0.18882
0.151908
0.123864
0.102227
0.085308
0.0719154
0.0611668
0.052566
13.6679
8.73671
5.07741
3.05388
1.92223
1.26609
0.869289
0.618631
0.453959
0.342034
0.26365
0.207311
0.165902
0.134851
0.11114
0.0926809
0.0781559
0.0666214
0.0571491
0.0497606
45.0226
13.4729
5.73075
3.07322
1.86022
1.22698
0.87356
0.64976
0.496989
0.389446
0.311247
0.252921
0.208906
0.175115
0.14868
0.127686
0.110834
0.0971537
0.0860238
0.0775252
38.7028
13.0541
5.74337
3.08734
1.88067
1.22751
0.869487
0.645398
0.492611
0.384806
0.307062
0.249095
0.205048
0.171086
0.144539
0.123529
0.106708
0.0931091
0.0820527
0.0733107
12.9054
8.33993
5.07879
3.15547
2.02775
1.3512
0.933539
0.666459
0.489548
0.368598
0.283607
0.22239
0.177329
0.143525
0.117731
0.0977531
0.0820598
0.069582
0.0595336
0.0512251
11.6229
7.60535
5.0103
3.34209
2.26848
1.57142
1.11236
0.804586
0.594202
0.447514
0.343207
0.267629
0.211893
0.170111
0.138311
0.113769
0.0945812
0.0794031
0.0672652
0.0575039
11.4933
7.5119
5.02843
3.434
2.3892
1.6928
1.22111
0.896486
0.669455
0.50812
0.391654
0.306283
0.242781
0.194884
0.158277
0.129949
0.107772
0.0902203
0.0761807
0.0647747
11.4757
7.50136
5.04297
3.47002
2.43665
1.74299
1.26863
0.938712
0.705583
0.538335
0.416593
0.326727
0.259498
0.208556
0.169484
0.139166
0.115386
0.0965394
0.0814431
0.0691292
11.4757
7.50136
5.04297
3.47002
2.43665
1.74299
1.26863
0.938711
0.705582
0.538334
0.416592
0.326726
0.259496
0.208554
0.169481
0.139163
0.115382
0.0965354
0.0814382
0.0691235
11.4933
7.5119
5.02843
3.434
2.3892
1.6928
1.22111
0.896486
0.669455
0.508121
0.391654
0.306283
0.242782
0.194885
0.158276
0.129948
0.107772
0.090221
0.0761817
0.0647762
11.6229
7.60535
5.0103
3.34209
2.26848
1.57142
1.11236
0.804589
0.594205
0.447519
0.343213
0.267636
0.211903
0.170125
0.138328
0.113788
0.0946041
0.0794296
0.0672927
0.0574993
12.9054
8.33993
5.07879
3.15547
2.02775
1.35121
0.933541
0.666464
0.489552
0.368603
0.283614
0.222399
0.177342
0.143547
0.117762
0.0977853
0.0820974
0.0696273
0.0595909
0.0513865
38.7028
13.0541
5.74336
3.08733
1.88066
1.22749
0.869465
0.645369
0.492574
0.384758
0.306994
0.249006
0.204928
0.170921
0.144307
0.123198
0.106235
0.0924291
0.0811159
0.0725405
36.0571
12.8529
5.76645
3.10212
1.89476
1.2267
0.866511
0.643998
0.492271
0.383993
0.305838
0.247977
0.204001
0.170062
0.143498
0.122432
0.105528
0.0918255
0.0806948
0.0724364
12.6882
8.1544
5.07113
3.20039
2.0794
1.39506
0.967836
0.692726
0.509644
0.384024
0.295514
0.231659
0.184606
0.149276
0.122297
0.101399
0.084982
0.0719271
0.0614322
0.0529214
11.5726
7.56718
5.02065
3.38344
2.32103
1.62326
1.15828
0.843155
0.625691
0.47285
0.363485
0.283854
0.224906
0.180588
0.146785
0.120661
0.100219
0.0840378
0.0710951
0.0606414
11.4757
7.50136
5.04297
3.47002
2.43665
1.74299
1.26863
0.938711
0.705582
0.538334
0.416591
0.326726
0.259496
0.208554
0.16948
0.139163
0.115382
0.0965352
0.0814382
0.0691249
11.4647
7.49683
5.0577
3.50272
2.48038
1.79068
1.31522
0.981304
0.742923
0.570208
0.443348
0.348965
0.277885
0.223733
0.182016
0.149538
0.123999
0.103719
0.0874401
0.0740666
11.4647
7.49683
5.0577
3.50272
2.48038
1.79068
1.31522
0.981304
0.742923
0.570208
0.443348
0.348965
0.277885
0.223733
0.182016
0.149538
0.123999
0.10372
0.0874402
0.0740658
11.4757
7.50136
5.04297
3.47002
2.43665
1.74299
1.26863
0.938712
0.705583
0.538335
0.416593
0.326727
0.259498
0.208557
0.169483
0.139166
0.115386
0.0965392
0.0814431
0.0691298
11.5726
7.56718
5.02065
3.38345
2.32103
1.62326
1.15829
0.843158
0.625693
0.472852
0.363488
0.283858
0.224911
0.180595
0.146797
0.120673
0.100232
0.0840522
0.0711088
0.0606318
12.6882
8.1544
5.07113
3.20039
2.0794
1.39506
0.967837
0.692729
0.509646
0.384027
0.295516
0.231663
0.184611
0.149283
0.122315
0.101416
0.085
0.0719479
0.0614565
0.0529564
36.0571
12.8529
5.76645
3.10211
1.89476
1.22669
0.866501
0.643986
0.492255
0.383972
0.305809
0.247939
0.20395
0.169994
0.143398
0.122292
0.105335
0.0915624
0.0803778
0.0723728
36.0571
12.8529
5.76645
3.10212
1.89476
1.22669
0.866501
0.643986
0.492255
0.383972
0.305809
0.247938
0.203948
0.169991
0.143401
0.122295
0.105337
0.091564
0.0803785
0.0723723
12.6882
8.1544
5.07113
3.20039
2.0794
1.39506
0.967837
0.692729
0.509646
0.384027
0.295517
0.231664
0.184612
0.149285
0.122313
0.101416
0.0850011
0.07195
0.0614593
0.0529598
11.5726
7.56718
5.02065
3.38345
2.32103
1.62326
1.15829
0.843158
0.625693
0.472853
0.363488
0.283858
0.224912
0.180596
0.146796
0.120674
0.100233
0.084054
0.0711111
0.0606349
11.4757
7.50136
5.04297
3.47002
2.43665
1.74299
1.26863
0.938712
0.705583
0.538335
0.416593
0.326727
0.259498
0.208556
0.169484
0.139166
0.115386
0.0965398
0.0814437
0.0691314
11.4647
7.49683
5.0577
3.50272
2.48038
1.79068
1.31522
0.981304
0.742923
0.570208
0.443348
0.348965
0.277885
0.223732
0.182016
0.149538
0.123999
0.103719
0.0874403
0.0740666
11.4647
7.49683
5.0577
3.50272
2.48038
1.79068
1.31522
0.981304
0.742923
0.570208
0.443348
0.348965
0.277885
0.223733
0.182016
0.149538
0.123999
0.103719
0.0874401
0.0740656
11.4757
7.50136
5.04297
3.47002
2.43665
1.74299
1.26863
0.938711
0.705582
0.538334
0.416591
0.326726
0.259496
0.208554
0.16948
0.139162
0.115382
0.0965346
0.0814375
0.0691236
11.5726
7.56718
5.02065
3.38344
2.32103
1.62326
1.15828
0.843155
0.625691
0.472849
0.363484
0.283853
0.224904
0.180586
0.146787
0.120662
0.100218
0.0840366
0.0710936
0.0606397
12.6882
8.1544
5.07113
3.20039
2.07939
1.39506
0.967835
0.692726
0.509644
0.384024
0.295513
0.231659
0.184604
0.149271
0.122303
0.101402
0.084983
0.0719274
0.0614321
0.0529214
36.0571
12.8529
5.76645
3.10212
1.89476
1.2267
0.866511
0.643998
0.492271
0.383993
0.305838
0.247977
0.204001
0.170064
0.143496
0.12243
0.105526
0.0918228
0.0806917
0.0724315
38.7028
13.0541
5.74336
3.08733
1.88066
1.22749
0.869465
0.64537
0.492574
0.384758
0.306994
0.249005
0.204926
0.17092
0.144309
0.123199
0.106235
0.0924285
0.0811144
0.0725333
12.9054
8.33993
5.07879
3.15547
2.02775
1.35121
0.933541
0.666464
0.489552
0.368603
0.283614
0.2224
0.177342
0.143545
0.117765
0.0977877
0.0820997
0.0696299
0.0595938
0.0513904
11.6229
7.60535
5.0103
3.34209
2.26848
1.57142
1.11236
0.804589
0.594205
0.447519
0.343213
0.267636
0.211902
0.170124
0.13833
0.113789
0.0946051
0.0794306
0.0672936
0.0575011
11.4933
7.5119
5.02843
3.434
2.3892
1.6928
1.22111
0.896486
0.669455
0.508121
0.391654
0.306283
0.242781
0.194884
0.158278
0.129949
0.107772
0.0902206
0.0761812
0.0647755
11.4757
7.50136
5.04297
3.47002
2.43665
1.74299
1.26863
0.938711
0.705582
0.538334
0.416591
0.326726
0.259496
0.208554
0.169481
0.139163
0.115382
0.0965346
0.0814374
0.0691227
11.4757
7.50136
5.04297
3.47002
2.43665
1.74299
1.26863
0.938712
0.705583
0.538335
0.416592
0.326727
0.259498
0.208556
0.169484
0.139166
0.115386
0.096539
0.0814427
0.0691294
11.4933
7.5119
5.02843
3.434
2.3892
1.6928
1.22111
0.896485
0.669454
0.50812
0.391654
0.306283
0.242782
0.194885
0.158276
0.129948
0.107771
0.0902203
0.076181
0.0647755
11.6229
7.60535
5.0103
3.34209
2.26848
1.57142
1.11236
0.804586
0.594202
0.447514
0.343207
0.267628
0.211892
0.17011
0.138312
0.113769
0.0945813
0.0794033
0.0672656
0.0575047
12.9054
8.33993
5.07879
3.15547
2.02775
1.3512
0.933537
0.66646
0.489548
0.368598
0.283607
0.22239
0.177328
0.14352
0.117736
0.0977558
0.0820617
0.069584
0.0595352
0.0512275
38.7028
13.0541
5.74337
3.08734
1.88067
1.22751
0.869488
0.645398
0.492611
0.384806
0.307062
0.249095
0.205047
0.171086
0.144539
0.123528
0.106707
0.0931069
0.0820495
0.0733058
45.0226
13.4729
5.73075
3.07322
1.86022
1.22698
0.873561
0.64976
0.496989
0.389446
0.311247
0.252921
0.208906
0.175114
0.14868
0.127685
0.110832
0.0971503
0.086019
0.0775139
13.6679
8.73671
5.07741
3.05388
1.92223
1.26609
0.869289
0.618631
0.453959
0.342034
0.26365
0.207311
0.165901
0.134846
0.111145
0.0926836
0.0781576
0.0666235
0.0571453
0.0497607
11.8601
7.76395
4.99734
3.24076
2.14419
1.45499
1.0141
0.725633
0.532153
0.399146
0.305541
0.238216
0.188818
0.151907
0.123866
0.102228
0.0853074
0.071914
0.0611645
0.0525635
11.6229
7.60535
5.0103
3.34209
2.26848
1.57142
1.11236
0.804586
0.594202
0.447514
0.343207
0.267628
0.211892
0.17011
0.138311
0.113769
0.0945808
0.0794023
0.0672644
0.0575017
11.5726
7.56718
5.02065
3.38344
2.32103
1.62326
1.15828
0.843155
0.625691
0.472849
0.363484
0.283853
0.224905
0.180587
0.146785
0.120661
0.100217
0.0840361
0.071093
0.060638
11.5726
7.56718
5.02065
3.38345
2.32103
1.62326
1.15829
0.843158
0.625693
0.472852
0.363488
0.283858
0.224911
0.180596
0.146796
0.120673
0.100232
0.0840525
0.0711094
0.060633
11.6229
7.60535
5.0103
3.34209
2.26848
1.57142
1.11236
0.804589
0.594205
0.447519
0.343213
0.267636
0.211903
0.170125
0.138328
0.113788
0.0946043
0.07943
0.0672931
0.0574993
11.8601
7.76395
4.99734
3.24076
2.14419
1.45499
1.0141
0.725632
0.532153
0.399146
0.305541
0.238217
0.188819
0.151908
0.123864
0.102227
0.0853073
0.0719146
0.0611646
0.0525605
13.6679
8.73671
5.0774
3.05388
1.92223
1.26609
0.869287
0.618628
0.453956
0.34203
0.263645
0.207305
0.165892
0.134831
0.11112
0.0926575
0.0781277
0.066589
0.057095
0.0497612
45.0226
13.4729
5.73075
3.07323
1.86023
1.227
0.873581
0.649787
0.497025
0.389505
0.311322
0.253021
0.209041
0.175301
0.148952
0.128081
0.111413
0.0980114
0.0872737
0.0791883
58.5856
14.5696
6.08946
3.33295
2.08216
1.40266
0.998641
0.740271
0.565886
0.443899
0.355986
0.290878
0.241337
0.202872
0.172925
0.149566
0.130963
0.11593
0.104104
0.0952323
16.5373
9.49238
5.0127
2.8606
1.75746
1.14759
0.786927
0.562044
0.41536
0.315937
0.246318
0.196203
0.159192
0.131211
0.109724
0.0931158
0.0800339
0.0695525
0.0603089
0.0549388
13.6679
8.73671
5.0774
3.05388
1.92223
1.26609
0.869287
0.618628
0.453956
0.34203
0.263645
0.207304
0.165891
0.134831
0.111118
0.0926555
0.0781248
0.0665846
0.0570958
0.049756
12.9054
8.33993
5.07879
3.15547
2.02775
1.3512
0.933538
0.666458
0.489547
0.368598
0.283607
0.222389
0.177329
0.143525
0.117731
0.0977525
0.0820591
0.0695813
0.0595328
0.0512241
12.6882
8.1544
5.07113
3.20039
2.07939
1.39506
0.967835
0.692726
0.509644
0.384024
0.295513
0.231659
0.184606
0.149276
0.122296
0.101399
0.0849817
0.071927
0.061432
0.0529211
12.6882
8.1544
5.07113
3.20039
2.0794
1.39506
0.967837
0.692729
0.509646
0.384027
0.295517
0.231664
0.184612
0.149286
0.122313
0.101415
0.085001
0.0719499
0.0614593
0.0529595
12.9054
8.33993
5.07879
3.15547
2.02775
1.35121
0.933542
0.666463
0.489552
0.368603
0.283614
0.222399
0.177343
0.143547
0.117762
0.0977863
0.082099
0.0696294
0.0595933
0.0513893
13.6679
8.73671
5.07741
3.05388
1.92223
1.26609
0.869289
0.61863
0.453959
0.342034
0.26365
0.207311
0.165902
0.134851
0.11114
0.0926812
0.0781564
0.0666227
0.0571446
0.04976
16.5373
9.49238
5.0127
2.8606
1.75746
1.14759
0.786927
0.562044
0.415359
0.315937
0.246318
0.196203
0.159193
0.131215
0.10972
0.0931152
0.0800348
0.0695541
0.0603116
0.0549441
58.5856
14.5696
6.08947
3.33295
2.08217
1.40266
0.998646
0.740279
0.565895
0.443919
0.356016
0.290925
0.241412
0.203017
0.173138
0.149899
0.131524
0.116956
0.106048
0.0987604
90.5034
12.1248
4.38869
2.46658
1.63315
1.18306
0.902007
0.720653
0.594572
0.502482
0.432645
0.379239
0.33624
0.299765
0.270013
0.245886
0.226191
0.210307
0.199862
0.189416
58.5856
14.5696
6.08947
3.33295
2.08217
1.40266
0.998647
0.740279
0.565895
0.443919
0.356017
0.290926
0.241412
0.203022
0.173137
0.149897
0.131523
0.116957
0.10605
0.0987621
45.0226
13.4729
5.73075
3.07323
1.86023
1.227
0.873582
0.649787
0.497026
0.389506
0.311323
0.253022
0.209043
0.175302
0.148951
0.128081
0.111414
0.0980135
0.0872751
0.0791846
38.7028
13.0541
5.74337
3.08734
1.88067
1.22751
0.869488
0.645399
0.492611
0.384806
0.307062
0.249096
0.205048
0.171086
0.14454
0.123529
0.106709
0.0931098
0.0820528
0.0733043
36.0571
12.8529
5.76645
3.10212
1.89476
1.2267
0.866511
0.643998
0.492271
0.383993
0.305839
0.247977
0.204001
0.170062
0.143499
0.122433
0.105529
0.0918259
0.0806951
0.0724356
36.0571
12.8529
5.76645
3.10212
1.89476
1.22669
0.866502
0.643986
0.492255
0.383972
0.305809
0.247938
0.203949
0.169992
0.143402
0.122295
0.105337
0.0915639
0.0803781
0.0723707
38.7028
13.0541
5.74336
3.08733
1.88066
1.22749
0.869465
0.645369
0.492574
0.384758
0.306994
0.249006
0.204927
0.170922
0.144307
0.123198
0.106235
0.0924276
0.081113
0.0725325
45.0226
13.4729
5.73075
3.07322
1.86022
1.22698
0.87356
0.64976
0.496989
0.389446
0.311247
0.252921
0.208906
0.175114
0.148679
0.127685
0.110832
0.0971506
0.0860197
0.0775169
58.5856
14.5696
6.08946
3.33295
2.08216
1.40266
0.99864
0.740271
0.565885
0.443899
0.355985
0.290877
0.241337
0.202868
0.172925
0.149567
0.130964
0.115932
0.104105
0.0952351
90.5034
12.1248
4.38869
2.46658
1.63315
1.18306
0.902006
0.720653
0.594572
0.502481
0.432646
0.379236
0.336245
0.299758
0.270015
0.245888
0.226193
0.210307
0.199862
0.189417
0.319341
0.261316
0.21763
0.192801
0.177752
0.168251
0.160945
0.154337
0.148483
0.142986
0.13835
0.13408
0.130023
0.12604
0.122436
0.119
0.115866
0.112851
0.110063
0.107448
0.104911
0.102527
0.100256
0.0981829
0.0962292
0.094348
0.0925493
0.090784
0.0890908
0.087456
0.0859275
0.0844337
0.0829776
0.0815282
0.080092
0.0788876
0.0777067
0.0765125
0.0754859
0.0736184
0.133704
0.112206
0.0966753
0.0855852
0.0779787
0.0724041
0.0679362
0.064171
0.0609031
0.0578627
0.0554053
0.0531712
0.0511509
0.0492131
0.0474475
0.045799
0.0443243
0.0429629
0.0417133
0.0405578
0.039462
0.0384294
0.0374722
0.0365955
0.0357908
0.035034
0.0343085
0.033607
0.0329322
0.0322776
0.0316514
0.0310502
0.0304759
0.0299219
0.0293779
0.0288603
0.0283806
0.0279157
0.0274769
0.0269687
0.0992129
0.0840898
0.0730269
0.0648215
0.0590609
0.0542958
0.0503106
0.0469852
0.0441759
0.0417831
0.0396816
0.037808
0.0361923
0.0346199
0.0331985
0.0319303
0.0307986
0.029777
0.0288154
0.0279202
0.0270831
0.0262529
0.0254782
0.0247862
0.0241599
0.023578
0.0230166
0.0224762
0.0219615
0.0214671
0.020993
0.0205337
0.020099
0.0196844
0.0192866
0.0189112
0.0185441
0.018188
0.0178425
0.0174946
0.0800438
0.070068
0.0622966
0.056157
0.051159
0.0469955
0.0434264
0.0403534
0.0376886
0.0353633
0.0333285
0.031529
0.02993
0.0284935
0.0272044
0.0260494
0.0249992
0.0240733
0.023124
0.0222585
0.021496
0.0207848
0.0201091
0.0194824
0.0188997
0.0183613
0.0178578
0.017384
0.0169401
0.0165175
0.0161104
0.0157181
0.0153441
0.0150041
0.0146708
0.0143621
0.0140571
0.0137696
0.0134939
0.0132175
0.0690173
0.0620206
0.0560126
0.0508791
0.0464938
0.0427479
0.0395239
0.036728
0.0342753
0.0321137
0.0302
0.0285006
0.0269943
0.0256214
0.0243919
0.0232857
0.0222783
0.0213552
0.0205156
0.0197355
0.0190657
0.0183576
0.0176964
0.0170995
0.0165567
0.0160498
0.0155842
0.0151457
0.0147403
0.0143566
0.0139894
0.0136367
0.0133031
0.0129949
0.0126864
0.0124023
0.0121272
0.0118697
0.0116277
0.0113998
0.0667831
0.0593182
0.0532936
0.0482994
0.0441006
0.0405449
0.0375082
0.0348863
0.0325832
0.030542
0.0287247
0.0271033
0.0256609
0.0243363
0.0231417
0.0220601
0.0210776
0.0201887
0.0193812
0.0186403
0.017962
0.0173352
0.0167683
0.0162299
0.0156771
0.0151595
0.0146944
0.0142724
0.0138931
0.0135316
0.013198
0.0128823
0.0125444
0.0122667
0.0119333
0.0116869
0.0114178
0.0111845
0.0109562
0.0107391
0.071766
0.0610726
0.0538992
0.0484459
0.0440781
0.040492
0.037481
0.0348928
0.0326194
0.030609
0.0288193
0.0272198
0.02579
0.0244801
0.0232949
0.0222193
0.0212409
0.0203521
0.0195449
0.018816
0.018149
0.0175357
0.0169577
0.0164334
0.0158781
0.0153717
0.014921
0.0145068
0.0141293
0.0137601
0.0134177
0.0130932
0.0127504
0.0124681
0.0121719
0.0119163
0.0116559
0.0114087
0.0111678
0.0109362
0.076786
0.0637928
0.0560314
0.0504933
0.046097
0.0425218
0.0394998
0.0368872
0.0345961
0.0325643
0.0307497
0.0291277
0.0276697
0.0263328
0.0251195
0.024017
0.0230149
0.0221093
0.0212812
0.0205244
0.0198371
0.0191945
0.0185561
0.0179661
0.0174432
0.0169455
0.0164882
0.0160539
0.015632
0.0152153
0.0148339
0.0144875
0.0141729
0.0138641
0.0135649
0.0132701
0.0129736
0.0126929
0.0124219
0.0121591
0.0797337
0.0703814
0.0623007
0.0564331
0.0519113
0.0481959
0.0450832
0.0424098
0.0400576
0.037959
0.0360774
0.0344373
0.0329401
0.0315398
0.0302604
0.029062
0.0278602
0.0268334
0.0258889
0.0250367
0.0242317
0.0234933
0.0227991
0.0221296
0.0215303
0.0209547
0.0204266
0.0199277
0.0194674
0.0190291
0.018617
0.0182213
0.0178503
0.0174928
0.0171466
0.0167896
0.0164361
0.0161111
0.0158051
0.0154876
0.110785
0.0957758
0.0840348
0.0759254
0.0701877
0.0659395
0.0625038
0.0594831
0.0567292
0.0541707
0.051973
0.050115
0.0483409
0.0463695
0.0446172
0.0430138
0.0415119
0.0401334
0.0388535
0.0376804
0.0365806
0.0355662
0.0346468
0.0338017
0.03303
0.0322946
0.0315995
0.0309376
0.0303147
0.0297122
0.0291435
0.0286038
0.0280909
0.0275916
0.0271067
0.0266029
0.0261492
0.0257199
0.0253388
0.0248764
0.319237
0.261246
0.21748
0.192697
0.177577
0.167703
0.160155
0.153577
0.147717
0.142433
0.137862
0.133807
0.129869
0.125966
0.122367
0.118989
0.115853
0.112865
0.110083
0.107453
0.10494
0.102525
0.100284
0.0981889
0.0962559
0.0943534
0.092553
0.0907767
0.0890757
0.0874379
0.085911
0.0844206
0.0829721
0.0815363
0.0801481
0.0788354
0.0776323
0.0764056
0.0753547
0.0733888
0.110783
0.0958858
0.0841586
0.0760028
0.0703267
0.0662985
0.0630275
0.0598848
0.0571439
0.0544701
0.0522627
0.0502561
0.0484289
0.0464177
0.0446701
0.0430202
0.0415301
0.0401298
0.0388523
0.0376796
0.0365736
0.0355622
0.0346405
0.0337981
0.0330245
0.0322923
0.0316012
0.0309432
0.0303245
0.0297244
0.0291578
0.0286185
0.0281059
0.0275998
0.027089
0.0266065
0.0261833
0.025776
0.025405
0.0249593
0.055855
0.0498469
0.0437505
0.0394298
0.0354843
0.0330086
0.0307319
0.0287976
0.0270403
0.0254284
0.0240245
0.0229004
0.0216076
0.020745
0.0197103
0.0189289
0.0180711
0.017385
0.0166981
0.0161065
0.0155286
0.0149493
0.014501
0.0139959
0.0136168
0.0132536
0.0128717
0.0125186
0.012139
0.01177
0.0115187
0.0111972
0.0108669
0.0105333
0.0103224
0.0100389
0.00969661
0.00940645
0.00915311
0.0088807
0.0483356
0.041635
0.0363526
0.0317692
0.0287807
0.0262375
0.0240612
0.0221926
0.0205896
0.0192035
0.01793
0.0169327
0.0156455
0.0150116
0.014029
0.0134968
0.0126948
0.0122495
0.0116127
0.0112053
0.010766
0.0102666
0.00994785
0.00951125
0.00926905
0.00893767
0.00863376
0.00840998
0.0080789
0.00790579
0.00773269
0.00754498
0.00723997
0.00707429
0.00685952
0.00682729
0.00662444
0.00641386
0.00612833
0.00590086
0.0465311
0.0404272
0.0353781
0.03117
0.0275185
0.0246088
0.0224598
0.0205678
0.0189169
0.0174735
0.0162031
0.0150798
0.0140533
0.0131872
0.0124008
0.0116983
0.0110733
0.0105049
0.0100226
0.00948341
0.00913903
0.00861038
0.00832031
0.00791552
0.00770903
0.00735521
0.00717471
0.00686389
0.00666232
0.00645799
0.00632611
0.00619556
0.00593336
0.00581795
0.00561726
0.00563204
0.00547659
0.00533384
0.00506431
0.00492272
0.0467448
0.0405367
0.0355137
0.0313635
0.0278476
0.0247374
0.0221831
0.0200605
0.0183852
0.0169053
0.0156007
0.0144442
0.013398
0.0125054
0.011705
0.0109875
0.0103442
0.00976594
0.00924529
0.00877324
0.00834924
0.00796306
0.00761878
0.00731678
0.00700358
0.00674446
0.00645683
0.00623431
0.00602098
0.00582898
0.00566431
0.00555045
0.00533834
0.00522953
0.00504375
0.00506158
0.00491981
0.00479533
0.00455683
0.00441734
0.0468213
0.0406945
0.0356615
0.0314647
0.0279378
0.0248401
0.0221649
0.0198986
0.0181428
0.0166678
0.0153551
0.0141856
0.013129
0.0122192
0.0114052
0.0106781
0.010028
0.00944565
0.00892276
0.00845227
0.00802841
0.00764682
0.00731197
0.00702139
0.00671786
0.0064446
0.00617924
0.0059546
0.00574246
0.00556056
0.00541497
0.00527224
0.00511493
0.00499139
0.0048046
0.00481674
0.00468679
0.00450188
0.00439504
0.00414307
0.0465099
0.0407017
0.0356164
0.0313201
0.0277161
0.0245457
0.0218286
0.019651
0.0180013
0.0165321
0.0152277
0.0140727
0.0130394
0.0121424
0.0113416
0.0106261
0.00998698
0.0094136
0.00889868
0.00843466
0.00801623
0.00763838
0.00730504
0.00702523
0.00672316
0.0064778
0.00616381
0.00597594
0.00570343
0.0055649
0.00542146
0.00528211
0.00506874
0.00494592
0.00475125
0.00478478
0.00464411
0.00445657
0.00434441
0.00407074
0.0457556
0.0409824
0.0355441
0.0310483
0.0272839
0.0240496
0.0217197
0.01986
0.0182263
0.0167945
0.0155386
0.0144285
0.0134395
0.012579
0.011804
0.0111038
0.0104773
0.00990053
0.00938902
0.00891908
0.00850036
0.00812021
0.00774611
0.00751847
0.0070925
0.00689172
0.00654773
0.00638832
0.00606564
0.00595188
0.00579856
0.00565048
0.00536076
0.00523206
0.00501376
0.00486355
0.00492014
0.00473352
0.00457443
0.00423302
0.046472
0.0419901
0.0362861
0.0314167
0.0280827
0.0255443
0.0233659
0.0214883
0.0198545
0.0184266
0.0171797
0.0160573
0.0150893
0.0142279
0.013445
0.012669
0.01212
0.0113437
0.0109285
0.0103053
0.00996606
0.00943201
0.00913019
0.00869849
0.00839211
0.00817817
0.00780275
0.00761772
0.00727942
0.0071018
0.00691603
0.00673175
0.00640659
0.00625386
0.00600636
0.00583232
0.00582722
0.00557305
0.00537161
0.00502895
0.0558803
0.0497814
0.0437312
0.039346
0.0360042
0.0331804
0.0309056
0.0289137
0.0271412
0.0254885
0.0241185
0.022809
0.0216844
0.0207627
0.0197645
0.0189276
0.0181071
0.0173959
0.0167128
0.0161227
0.0155229
0.0149728
0.014496
0.0140174
0.0135958
0.0132763
0.0128772
0.0125306
0.0121491
0.0117738
0.0115226
0.0112
0.0108673
0.0105678
0.0102978
0.00999936
0.00983413
0.0095184
0.00915919
0.00884291
0.13369
0.112184
0.096585
0.0855612
0.0778197
0.0720972
0.067576
0.063826
0.0605197
0.0575862
0.0551287
0.0530147
0.0510525
0.0491565
0.0474087
0.0457843
0.0443195
0.0429626
0.0417261
0.0405615
0.0394782
0.0384402
0.0374863
0.0366039
0.0357998
0.035042
0.0343137
0.0336109
0.0329345
0.032279
0.0316536
0.0310538
0.0304813
0.0299301
0.0294011
0.0288703
0.0283806
0.0279061
0.0274573
0.0269323
0.0797558
0.0704566
0.0623916
0.0564563
0.0519968
0.0483202
0.0452229
0.0425425
0.0401858
0.0380682
0.0361693
0.0344759
0.0329778
0.0315571
0.0302797
0.0290515
0.0278732
0.0268201
0.0258919
0.0250356
0.0242269
0.0234921
0.0227882
0.0221286
0.0215256
0.0209543
0.020428
0.0199319
0.0194742
0.0190383
0.018629
0.0182361
0.0178674
0.0175112
0.0171635
0.0168003
0.0164485
0.0161331
0.0158415
0.0155369
0.0464551
0.0419604
0.0363015
0.0312943
0.0280373
0.0255191
0.0233455
0.0214746
0.0198459
0.0184246
0.0171827
0.0161165
0.0150493
0.0142717
0.0133748
0.0127982
0.0119334
0.0114802
0.0107876
0.0103735
0.0099566
0.00945376
0.00914664
0.0086751
0.00842956
0.00814839
0.00781132
0.00761982
0.00727922
0.00709895
0.00690999
0.00672746
0.00640365
0.0062519
0.0060351
0.00597082
0.00573511
0.00548198
0.00523379
0.00504527
0.0452535
0.0394686
0.0344189
0.0300792
0.02655
0.0236421
0.0212142
0.0191692
0.0174283
0.015933
0.0146322
0.0135087
0.0124683
0.0116033
0.0108077
0.0101179
0.00942291
0.00881429
0.00833098
0.00793955
0.00754278
0.00714563
0.0068193
0.00648114
0.00616522
0.00594
0.00565343
0.00549024
0.00520387
0.00510757
0.00499039
0.00485478
0.0046087
0.00449568
0.00431381
0.00434415
0.00421434
0.00410065
0.00385196
0.00371814
0.0476439
0.0413071
0.0360076
0.0315685
0.0278257
0.0246744
0.0220338
0.0197877
0.0178642
0.016206
0.0147681
0.0135133
0.0124072
0.0114393
0.0105805
0.00981732
0.00913422
0.00851546
0.00796928
0.0074795
0.00704329
0.00664674
0.00620955
0.00592452
0.00567433
0.00542357
0.00522578
0.00493258
0.00474476
0.00457372
0.00446096
0.00434374
0.00418465
0.00407684
0.00390096
0.00392919
0.00381327
0.00370531
0.00355235
0.00342161
0.0498793
0.0431252
0.037551
0.0329048
0.0289979
0.0256839
0.0228654
0.0204595
0.0184112
0.0166492
0.0151211
0.0137878
0.0126228
0.0115971
0.0106908
0.00988689
0.00917127
0.00853125
0.00795809
0.00744332
0.00698025
0.00656743
0.00616589
0.00585511
0.0055412
0.00522043
0.00497014
0.0047835
0.00461312
0.00448656
0.00433687
0.00419679
0.0040632
0.0039529
0.00381135
0.00382998
0.00370974
0.00359054
0.00347437
0.00336105
0.0507644
0.0438968
0.0382024
0.0334496
0.0294544
0.0260683
0.0231789
0.020705
0.0185954
0.0167887
0.0152274
0.0138673
0.0126811
0.0116372
0.0107155
0.00989883
0.00917234
0.00852317
0.00794219
0.0074219
0.00695374
0.00653671
0.00613808
0.00582907
0.00551285
0.00521518
0.00496316
0.00470984
0.00450897
0.00443873
0.00429627
0.00415904
0.00402544
0.00391094
0.00378945
0.00380502
0.00368462
0.00356463
0.00344762
0.00332997
0.0499336
0.0432651
0.0376641
0.0329572
0.0289913
0.02563
0.022773
0.0203442
0.0182801
0.0165084
0.0149789
0.0136502
0.0124915
0.0114752
0.0105772
0.00978141
0.00907301
0.00843995
0.00787335
0.00736609
0.0069078
0.00649969
0.00610719
0.00579808
0.00548411
0.00520553
0.00492282
0.00471426
0.00454016