/*--------------------------------*- C++ -*----------------------------------*\
| =========                 |                                                 |
| \\      /  F ield         | OpenFOAM: The Open Source CFD Toolbox           |
|  \\    /   O peration     | Version:  2212                                  |
|   \\  /    A nd           | Website:  www.openfoam.com                      |
|    \\/     M anipulation  |                                                 |
\*---------------------------------------------------------------------------*/
FoamFile
{
    version     2.0;
    format      ascii;
    arch        "LSB;label=32;scalar=64";
    class       volScalarField;
    location    "2";
    object      nut;
}
// * * * * * * * * * * * * * * * * * * * * * * * * * * * * * * * * * * * * * //

dimensions      [0 2 -1 0 0 0 0];

internalField   nonuniform List<scalar> 
6840
(
4.5356e-05
2.3208e-05
1.65396e-05
1.36493e-05
1.18966e-05
1.06844e-05
9.76076e-06
9.05711e-06
8.49474e-06
8.03139e-06
7.64066e-06
7.31248e-06
7.02513e-06
6.76167e-06
6.53064e-06
6.33097e-06
6.15895e-06
6.01484e-06
5.9227e-06
5.83626e-06
0.000107685
6.77183e-05
5.06311e-05
4.14159e-05
3.54048e-05
3.10367e-05
2.77137e-05
2.50816e-05
2.29334e-05
2.11505e-05
1.96505e-05
1.83711e-05
1.72629e-05
1.62924e-05
1.54483e-05
1.47201e-05
1.4085e-05
1.35292e-05
1.30669e-05
1.2711e-05
0.000160509
0.00010736
8.07408e-05
6.55975e-05
5.54895e-05
4.83024e-05
4.31308e-05
3.90787e-05
3.57387e-05
3.29486e-05
3.05767e-05
2.85331e-05
2.67714e-05
2.52422e-05
2.39021e-05
2.27197e-05
2.16732e-05
2.07437e-05
1.99238e-05
1.92684e-05
0.000198681
0.0001383
0.000105187
8.55268e-05
7.25011e-05
6.28899e-05
5.60607e-05
5.07587e-05
4.63871e-05
4.27204e-05
3.9623e-05
3.6952e-05
3.46281e-05
3.25951e-05
3.08061e-05
2.92226e-05
2.78119e-05
2.65455e-05
2.54023e-05
2.44058e-05
0.000218609
0.000155003
0.000118661
9.65068e-05
8.18822e-05
7.08353e-05
6.30852e-05
5.7143e-05
5.22476e-05
4.80952e-05
4.45809e-05
4.15696e-05
3.89488e-05
3.66537e-05
3.46317e-05
3.28392e-05
3.12412e-05
2.98091e-05
2.85318e-05
2.75303e-05
0.000218609
0.000155003
0.000118661
9.65068e-05
8.18823e-05
7.08355e-05
6.30855e-05
5.71434e-05
5.22483e-05
4.80962e-05
4.45825e-05
4.15721e-05
3.89527e-05
3.66598e-05
3.46412e-05
3.28542e-05
3.12647e-05
2.98457e-05
2.85871e-05
2.76133e-05
0.000198681
0.0001383
0.000105187
8.55269e-05
7.25013e-05
6.28902e-05
5.60612e-05
5.07595e-05
4.63884e-05
4.27224e-05
3.96263e-05
3.6957e-05
3.46359e-05
3.26073e-05
3.08253e-05
2.92528e-05
2.786e-05
2.66229e-05
2.55256e-05
2.45924e-05
0.000160509
0.00010736
8.07409e-05
6.55976e-05
5.54896e-05
4.83026e-05
4.31311e-05
3.90793e-05
3.57396e-05
3.29505e-05
3.05794e-05
2.85373e-05
2.67778e-05
2.52523e-05
2.39184e-05
2.27455e-05
2.17143e-05
2.0809e-05
2.00259e-05
1.9399e-05
0.000107685
6.77183e-05
5.06311e-05
4.14159e-05
3.54048e-05
3.10367e-05
2.77137e-05
2.50817e-05
2.29335e-05
2.11509e-05
1.96511e-05
1.83722e-05
1.72648e-05
1.62966e-05
1.5455e-05
1.47313e-05
1.41051e-05
1.35686e-05
1.31437e-05
1.28572e-05
4.5356e-05
2.3208e-05
1.65396e-05
1.36493e-05
1.18966e-05
1.06844e-05
9.76076e-06
9.05711e-06
8.49474e-06
8.03138e-06
7.64067e-06
7.31245e-06
7.02517e-06
6.7616e-06
6.53065e-06
6.33097e-06
6.15893e-06
6.01481e-06
5.92265e-06
5.83592e-06
0.000107685
6.77183e-05
5.06311e-05
4.14159e-05
3.54048e-05
3.10367e-05
2.77137e-05
2.50817e-05
2.29335e-05
2.11509e-05
1.96511e-05
1.83722e-05
1.72648e-05
1.62967e-05
1.5455e-05
1.47312e-05
1.41051e-05
1.35688e-05
1.3144e-05
1.28579e-05
0.000528907
0.000369984
0.000305097
0.000261371
0.000228528
0.000202475
0.000181113
0.000163072
0.000147538
0.000133983
0.000122048
0.000111466
0.000102136
9.38649e-05
8.64619e-05
7.9681e-05
7.35085e-05
6.78977e-05
6.38819e-05
5.71051e-05
0.000663952
0.000488458
0.000404618
0.000347247
0.000305034
0.000272126
0.000245315
0.000222884
0.000203748
0.000187168
0.000172637
0.000159789
0.000148335
0.000138059
0.000128783
0.000120505
0.000113006
0.000106094
0.000100122
9.38673e-05
0.00071288
0.000556432
0.000466396
0.000402354
0.000354424
0.000317047
0.00028667
0.000261247
0.00023957
0.000220828
0.000204416
0.000189908
0.000176983
0.000165379
0.000154882
0.000145344
0.000136616
0.000128562
0.000121078
0.000113891
0.000728543
0.000588231
0.000496001
0.000429131
0.000378508
0.000338932
0.000306814
0.000279967
0.000257063
0.000237241
0.000219888
0.000204544
0.000190867
0.000178589
0.000167497
0.000157407
0.000148184
0.000139694
0.000131804
0.000124244
0.000728543
0.000588231
0.000496002
0.000429131
0.000378509
0.000338934
0.000306818
0.000279974
0.000257073
0.000237256
0.00021991
0.000204579
0.000190921
0.000178674
0.000167631
0.000157601
0.000148468
0.000140112
0.000132416
0.000125337
0.00071288
0.000556432
0.000466397
0.000402355
0.000354426
0.000317052
0.000286677
0.00026126
0.000239589
0.000220857
0.000204463
0.000189981
0.000177096
0.00016556
0.000155153
0.000145747
0.00013722
0.000129466
0.00012242
0.000116491
0.000663952
0.000488458
0.000404619
0.000347248
0.000305036
0.000272129
0.000245321
0.000222893
0.000203762
0.00018719
0.000172672
0.000159843
0.000148418
0.00013819
0.000128989
0.00012081
0.000113468
0.000106795
0.000101202
9.56777e-05
0.000528907
0.000369984
0.000305097
0.000261371
0.000228528
0.000202475
0.000181113
0.000163072
0.000147538
0.000133983
0.000122048
0.000111466
0.000102135
9.38606e-05
8.64658e-05
7.96825e-05
7.35081e-05
6.78959e-05
6.38784e-05
5.70957e-05
0.000107685
6.77183e-05
5.06311e-05
4.14159e-05
3.54048e-05
3.10367e-05
2.77137e-05
2.50816e-05
2.29334e-05
2.11505e-05
1.96504e-05
1.83711e-05
1.72629e-05
1.62922e-05
1.54483e-05
1.47202e-05
1.40851e-05
1.35292e-05
1.3067e-05
1.2711e-05
0.000160509
0.00010736
8.07409e-05
6.55976e-05
5.54896e-05
4.83026e-05
4.31311e-05
3.90793e-05
3.57396e-05
3.29506e-05
3.05794e-05
2.85374e-05
2.67779e-05
2.52523e-05
2.39184e-05
2.27456e-05
2.17144e-05
2.08092e-05
2.00262e-05
1.93994e-05
0.000663952
0.000488458
0.000404619
0.000347248
0.000305036
0.000272129
0.000245321
0.000222893
0.000203762
0.000187191
0.000172672
0.000159843
0.000148419
0.000138189
0.00012899
0.000120812
0.000113472
0.000106804
0.000101204
9.56772e-05
0.000786827
0.000662293
0.000567974
0.000495805
0.000439463
0.000394562
0.000357974
0.000327451
0.000301489
0.000279049
0.000259397
0.000242002
0.000226472
0.000212508
0.000199878
0.000188423
0.00017798
0.000168404
0.000159611
0.00015074
0.000809324
0.000713905
0.000631504
0.000562573
0.000505376
0.000457784
0.000417839
0.000383936
0.000354799
0.000329442
0.000307144
0.000287361
0.000269673
0.000253752
0.000239336
0.000226224
0.000214229
0.000203175
0.000192809
0.000182257
0.000814958
0.000730426
0.000654634
0.000589043
0.000533066
0.000485437
0.000444762
0.000409791
0.000379467
0.000352927
0.000329485
0.000308619
0.000289925
0.000273079
0.000257818
0.000243923
0.000231205
0.000219467
0.000208356
0.000196541
0.000814958
0.000730426
0.000654634
0.000589044
0.000533067
0.000485439
0.000444765
0.000409796
0.000379474
0.000352937
0.0003295
0.000308642
0.000289959
0.00027313
0.000257897
0.000244034
0.000231364
0.000219702
0.000208755
0.000197644
0.000809324
0.000713906
0.000631505
0.000562574
0.000505378
0.000457787
0.000417843
0.000383943
0.000354809
0.000329458
0.000307168
0.000287397
0.000269728
0.000253839
0.000239467
0.000226413
0.000214502
0.00020357
0.000193404
0.000183317
0.000786827
0.000662293
0.000567974
0.000495805
0.000439463
0.000394562
0.000357974
0.000327451
0.000301489
0.000279049
0.000259397
0.000242001
0.000226469
0.000212504
0.000199881
0.000188424
0.000177978
0.000168399
0.000159603
0.000150723
0.000663952
0.000488458
0.000404618
0.000347247
0.000305034
0.000272126
0.000245315
0.000222883
0.000203748
0.000187168
0.000172637
0.000159789
0.000148334
0.000138053
0.000128789
0.000120508
0.000113008
0.000106096
0.000100125
9.38609e-05
0.000160509
0.00010736
8.07408e-05
6.55975e-05
5.54895e-05
4.83024e-05
4.31308e-05
3.90787e-05
3.57387e-05
3.29487e-05
3.05767e-05
2.85331e-05
2.67714e-05
2.52422e-05
2.39022e-05
2.27198e-05
2.16733e-05
2.07439e-05
1.9924e-05
1.92689e-05
0.000198681
0.0001383
0.000105187
8.55269e-05
7.25013e-05
6.28902e-05
5.60612e-05
5.07595e-05
4.63884e-05
4.27224e-05
3.96263e-05
3.6957e-05
3.46359e-05
3.26073e-05
3.08253e-05
2.92529e-05
2.78602e-05
2.66231e-05
2.5526e-05
2.4593e-05
0.00071288
0.000556432
0.000466397
0.000402355
0.000354426
0.000317052
0.000286677
0.00026126
0.000239589
0.000220858
0.000204463
0.000189982
0.000177096
0.000165552
0.000155158
0.000145751
0.000137225
0.000129473
0.000122429
0.000116503
0.000809324
0.000713906
0.000631505
0.000562574
0.000505378
0.000457787
0.000417843
0.000383943
0.000354809
0.000329458
0.000307169
0.000287398
0.00026973
0.000253838
0.000239469
0.000226415
0.000214505
0.000203576
0.000193413
0.000183326
0.000823497
0.000753987
0.000688491
0.000628748
0.000575387
0.000528266
0.000486846
0.000450442
0.000418363
0.000389975
0.000364729
0.000342164
0.000321895
0.000303603
0.000287023
0.000271936
0.000258135
0.00024541
0.000233446
0.00022159
0.000826292
0.000764347
0.000706102
0.000651937
0.000602231
0.000557104
0.000516428
0.000479913
0.000447182
0.000417834
0.000391477
0.000367752
0.000346334
0.00032694
0.000309322
0.000293262
0.000278549
0.000264943
0.000252026
0.000238751
0.000826292
0.000764347
0.000706102
0.000651937
0.000602231
0.000557104
0.000516429
0.000479914
0.000447184
0.000417837
0.000391482
0.000367758
0.000346343
0.000326953
0.000309342
0.00029329
0.00027859
0.000265007
0.000252154
0.000239168
0.000823497
0.000753987
0.000688491
0.000628748
0.000575387
0.000528266
0.000486846
0.000450442
0.000418363
0.000389975
0.000364728
0.000342163
0.000321893
0.000303602
0.000287025
0.000271936
0.000258133
0.000245408
0.000233445
0.000221592
0.000809324
0.000713905
0.000631504
0.000562573
0.000505376
0.000457784
0.000417839
0.000383936
0.000354799
0.000329442
0.000307144
0.00028736
0.000269672
0.000253749
0.000239338
0.000226225
0.000214229
0.000203175
0.000192808
0.000182254
0.00071288
0.000556432
0.000466396
0.000402354
0.000354424
0.000317047
0.00028667
0.000261247
0.00023957
0.000220828
0.000204416
0.000189909
0.000176984
0.000165377
0.000154885
0.000145346
0.000136618
0.000128564
0.000121081
0.000113902
0.000198681
0.0001383
0.000105187
8.55268e-05
7.25011e-05
6.28899e-05
5.60607e-05
5.07587e-05
4.63871e-05
4.27204e-05
3.9623e-05
3.6952e-05
3.46282e-05
3.25951e-05
3.08061e-05
2.92226e-05
2.78119e-05
2.65456e-05
2.54031e-05
2.44199e-05
0.000218609
0.000155003
0.000118661
9.65068e-05
8.18823e-05
7.08355e-05
6.30855e-05
5.71434e-05
5.22483e-05
4.80962e-05
4.45826e-05
4.15721e-05
3.89527e-05
3.66598e-05
3.46412e-05
3.28542e-05
3.12648e-05
2.98459e-05
2.85873e-05
2.76136e-05
0.000728543
0.000588231
0.000496002
0.000429131
0.000378509
0.000338934
0.000306818
0.000279974
0.000257073
0.000237256
0.00021991
0.000204579
0.000190921
0.000178672
0.000167632
0.000157602
0.00014847
0.000140114
0.00013242
0.000125345
0.000814958
0.000730426
0.000654634
0.000589044
0.000533067
0.000485439
0.000444765
0.000409796
0.000379474
0.000352937
0.0003295
0.000308642
0.000289959
0.000273131
0.000257898
0.000244035
0.000231366
0.000219704
0.000208759
0.000197643
0.000826292
0.000764347
0.000706102
0.000651937
0.000602231
0.000557104
0.000516429
0.000479914
0.000447184
0.000417837
0.000391482
0.000367758
0.000346344
0.000326954
0.000309343
0.000293291
0.000278591
0.000265008
0.000252155
0.000239158
0.000828382
0.0007726
0.000721138
0.000672961
0.000627782
0.000585621
0.000546548
0.000510581
0.000477651
0.000447619
0.000420293
0.000395453
0.000372873
0.000352326
0.000333599
0.000316494
0.000300797
0.000286245
0.000272359
0.000258088
0.000828382
0.0007726
0.000721138
0.000672961
0.000627782
0.000585621
0.000546548
0.000510581
0.000477651
0.000447619
0.000420292
0.000395453
0.000372873
0.000352325
0.000333599
0.000316494
0.000300797
0.000286244
0.000272358
0.000258094
0.000826292
0.000764347
0.000706102
0.000651937
0.000602231
0.000557104
0.000516428
0.000479913
0.000447182
0.000417834
0.000391477
0.000367752
0.000346334
0.000326939
0.000309323
0.000293262
0.000278549
0.000264944
0.000252025
0.000238753
0.000814958
0.000730426
0.000654634
0.000589043
0.000533066
0.000485437
0.000444762
0.000409791
0.000379467
0.000352927
0.000329485
0.00030862
0.000289927
0.00027308
0.000257817
0.000243923
0.000231206
0.00021947
0.00020836
0.000196545
0.000728543
0.000588231
0.000496001
0.000429131
0.000378508
0.000338932
0.000306815
0.000279967
0.000257063
0.000237242
0.000219888
0.000204545
0.00019087
0.000178593
0.000167492
0.000157404
0.000148182
0.000139695
0.000131808
0.000124255
0.000218609
0.000155003
0.000118661
9.65068e-05
8.18822e-05
7.08353e-05
6.30852e-05
5.7143e-05
5.22476e-05
4.80952e-05
4.45809e-05
4.15696e-05
3.89489e-05
3.66539e-05
3.46314e-05
3.28389e-05
3.1241e-05
2.98089e-05
2.85318e-05
2.7531e-05
0.000218609
0.000155003
0.000118661
9.65068e-05
8.18822e-05
7.08353e-05
6.30852e-05
5.7143e-05
5.22476e-05
4.80952e-05
4.45809e-05
4.15696e-05
3.89488e-05
3.66537e-05
3.46317e-05
3.28392e-05
3.12412e-05
2.9809e-05
2.85317e-05
2.75303e-05
0.000728543
0.000588231
0.000496001
0.000429131
0.000378508
0.000338932
0.000306815
0.000279967
0.000257063
0.000237241
0.000219888
0.000204544
0.000190866
0.000178588
0.000167498
0.000157407
0.000148182
0.000139691
0.000131801
0.00012424
0.000814958
0.000730426
0.000654634
0.000589043
0.000533067
0.000485437
0.000444762
0.000409791
0.000379467
0.000352927
0.000329485
0.000308619
0.000289924
0.000273079
0.000257819
0.000243922
0.000231204
0.000219465
0.000208352
0.00019653
0.000826292
0.000764347
0.000706102
0.000651937
0.000602231
0.000557104
0.000516428
0.000479913
0.000447182
0.000417834
0.000391477
0.000367752
0.000346334
0.00032694
0.000309322
0.000293261
0.000278548
0.000264942
0.000252024
0.00023874
0.000828382
0.0007726
0.000721138
0.000672961
0.000627782
0.000585621
0.000546548
0.000510581
0.000477651
0.000447619
0.000420293
0.000395453
0.000372873
0.000352326
0.000333599
0.000316494
0.000300797
0.000286244
0.000272357
0.000258089
0.000828382
0.0007726
0.000721138
0.000672961
0.000627782
0.000585621
0.000546548
0.000510581
0.000477651
0.000447619
0.000420293
0.000395453
0.000372873
0.000352326
0.000333599
0.000316494
0.000300797
0.000286244
0.000272357
0.000258094
0.000826292
0.000764347
0.000706102
0.000651937
0.000602231
0.000557104
0.000516429
0.000479914
0.000447184
0.000417837
0.000391482
0.000367758
0.000346344
0.000326954
0.000309343
0.000293292
0.000278592
0.00026501
0.000252156
0.000239166
0.000814958
0.000730426
0.000654634
0.000589044
0.000533067
0.000485439
0.000444765
0.000409796
0.000379474
0.000352937
0.0003295
0.000308642
0.000289962
0.000273134
0.000257894
0.000244034
0.000231367
0.000219707
0.000208765
0.000197651
0.000728543
0.000588231
0.000496002
0.000429131
0.000378509
0.000338934
0.000306818
0.000279974
0.000257073
0.000237256
0.00021991
0.00020458
0.000190924
0.000178681
0.000167622
0.000157596
0.000148465
0.000140111
0.000132418
0.000125341
0.000218609
0.000155003
0.000118661
9.65068e-05
8.18823e-05
7.08355e-05
6.30855e-05
5.71434e-05
5.22483e-05
4.80962e-05
4.45825e-05
4.15721e-05
3.89528e-05
3.666e-05
3.4641e-05
3.28539e-05
3.12645e-05
2.98455e-05
2.85869e-05
2.76132e-05
0.000198681
0.0001383
0.000105187
8.55268e-05
7.25011e-05
6.28899e-05
5.60607e-05
5.07587e-05
4.63871e-05
4.27204e-05
3.9623e-05
3.6952e-05
3.46281e-05
3.25951e-05
3.08061e-05
2.92226e-05
2.78118e-05
2.65454e-05
2.54021e-05
2.44058e-05
0.00071288
0.000556432
0.000466396
0.000402354
0.000354424
0.000317047
0.00028667
0.000261247
0.00023957
0.000220828
0.000204416
0.000189908
0.000176982
0.000165378
0.000154882
0.000145343
0.000136612
0.000128555
0.000121069
0.000113877
0.000809324
0.000713905
0.000631504
0.000562573
0.000505376
0.000457784
0.000417839
0.000383936
0.000354799
0.000329442
0.000307144
0.00028736
0.000269672
0.000253751
0.000239335
0.000226222
0.000214225
0.000203169
0.000192798
0.000182237
0.000823497
0.000753987
0.000688491
0.000628748
0.000575387
0.000528266
0.000486846
0.000450442
0.000418363
0.000389975
0.000364729
0.000342164
0.000321895
0.000303603
0.000287022
0.000271934
0.000258133
0.000245407
0.000233442
0.000221585
0.000826292
0.000764347
0.000706102
0.000651937
0.000602231
0.000557104
0.000516429
0.000479914
0.000447184
0.000417837
0.000391482
0.000367759
0.000346344
0.000326955
0.000309342
0.000293291
0.000278592
0.000265009
0.000252155
0.000239167
0.000826292
0.000764347
0.000706102
0.000651937
0.000602231
0.000557104
0.000516428
0.000479913
0.000447182
0.000417834
0.000391477
0.000367752
0.000346334
0.00032694
0.000309322
0.000293262
0.00027855
0.000264945
0.000252028
0.000238754
0.000823497
0.000753987
0.000688491
0.000628748
0.000575387
0.000528266
0.000486846
0.000450442
0.000418363
0.000389975
0.000364729
0.000342163
0.000321894
0.000303602
0.000287026
0.000271937
0.000258135
0.000245411
0.000233447
0.000221589
0.000809324
0.000713906
0.000631505
0.000562574
0.000505378
0.000457787
0.000417843
0.000383943
0.000354809
0.000329458
0.000307169
0.000287398
0.00026973
0.000253839
0.000239468
0.000226414
0.000214505
0.000203575
0.00019341
0.000183322
0.00071288
0.000556432
0.000466397
0.000402355
0.000354426
0.000317052
0.000286678
0.00026126
0.000239589
0.000220857
0.000204463
0.000189981
0.000177097
0.000165559
0.000155151
0.000145746
0.00013722
0.000129466
0.000122421
0.000116489
0.000198681
0.0001383
0.000105187
8.55269e-05
7.25013e-05
6.28902e-05
5.60612e-05
5.07595e-05
4.63884e-05
4.27224e-05
3.96263e-05
3.6957e-05
3.46359e-05
3.26073e-05
3.08252e-05
2.92528e-05
2.786e-05
2.66228e-05
2.55256e-05
2.45924e-05
0.000160509
0.00010736
8.07408e-05
6.55975e-05
5.54895e-05
4.83024e-05
4.31308e-05
3.90787e-05
3.57387e-05
3.29487e-05
3.05767e-05
2.85332e-05
2.67714e-05
2.52422e-05
2.39021e-05
2.27197e-05
2.16731e-05
2.07435e-05
1.99236e-05
1.92678e-05
0.000663952
0.000488458
0.000404618
0.000347247
0.000305034
0.000272126
0.000245315
0.000222884
0.000203748
0.000187168
0.000172637
0.000159789
0.000148335
0.000138059
0.000128782
0.000120503
0.000113002
0.000106086
0.000100122
9.38469e-05
0.000786827
0.000662293
0.000567974
0.000495805
0.000439463
0.000394562
0.000357974
0.000327451
0.000301489
0.000279049
0.000259397
0.000242002
0.000226472
0.000212508
0.000199876
0.000188421
0.000177977
0.000168399
0.000159603
0.000150722
0.000809324
0.000713906
0.000631505
0.000562574
0.000505378
0.000457787
0.000417843
0.000383943
0.000354809
0.000329458
0.000307169
0.000287399
0.000269731
0.000253839
0.000239468
0.000226414
0.000214506
0.000203576
0.000193414
0.000183336
0.000814958
0.000730426
0.000654634
0.000589044
0.000533067
0.000485439
0.000444765
0.000409796
0.000379474
0.000352937
0.0003295
0.000308643
0.00028996
0.000273132
0.000257898
0.000244037
0.000231369
0.00021971
0.000208768
0.000197661
0.000814958
0.000730426
0.000654634
0.000589043
0.000533067
0.000485438
0.000444762
0.000409791
0.000379467
0.000352927
0.000329485
0.000308619
0.000289925
0.000273079
0.00025782
0.000243925
0.000231208
0.000219471
0.000208362
0.000196545
0.000809324
0.000713905
0.000631504
0.000562573
0.000505376
0.000457784
0.000417839
0.000383936
0.000354799
0.000329442
0.000307144
0.00028736
0.000269672
0.00025375
0.000239339
0.000226226
0.00021423
0.000203174
0.000192806
0.000182252
0.000786827
0.000662293
0.000567974
0.000495805
0.000439463
0.000394562
0.000357974
0.000327451
0.000301489
0.00027905
0.000259397
0.000242001
0.00022647
0.000212505
0.000199882
0.000188425
0.000177979
0.000168401
0.000159606
0.000150733
0.000663952
0.000488458
0.000404619
0.000347248
0.000305036
0.000272129
0.000245321
0.000222893
0.000203762
0.00018719
0.000172672
0.000159843
0.000148418
0.00013819
0.00012899
0.00012081
0.000113468
0.000106796
0.000101205
9.56637e-05
0.000160509
0.00010736
8.07409e-05
6.55976e-05
5.54896e-05
4.83026e-05
4.31311e-05
3.90793e-05
3.57396e-05
3.29505e-05
3.05794e-05
2.85373e-05
2.67779e-05
2.52523e-05
2.39184e-05
2.27455e-05
2.17143e-05
2.08091e-05
2.0026e-05
1.9399e-05
0.000107685
6.77183e-05
5.06311e-05
4.14159e-05
3.54048e-05
3.10367e-05
2.77137e-05
2.50816e-05
2.29334e-05
2.11505e-05
1.96505e-05
1.83711e-05
1.72629e-05
1.62924e-05
1.54483e-05
1.47201e-05
1.40849e-05
1.35291e-05
1.30667e-05
1.27107e-05
0.000528907
0.000369984
0.000305097
0.000261371
0.000228528
0.000202475
0.000181113
0.000163073
0.000147538
0.000133983
0.000122048
0.000111467
0.000102137
9.38656e-05
8.64618e-05
7.9681e-05
7.35083e-05
6.78969e-05
6.38805e-05
5.70969e-05
0.000663952
0.000488458
0.000404619
0.000347248
0.000305036
0.000272129
0.000245321
0.000222893
0.000203763
0.000187191
0.000172673
0.000159844
0.00014842
0.00013819
0.00012899
0.000120812
0.000113473
0.000106805
0.000101204
9.56764e-05
0.00071288
0.000556432
0.000466397
0.000402355
0.000354427
0.000317052
0.000286678
0.00026126
0.000239589
0.000220858
0.000204464
0.000189982
0.000177097
0.000165553
0.000155159
0.000145752
0.000137227
0.000129475
0.000122431
0.000116508
0.000728543
0.000588231
0.000496002
0.000429131
0.000378509
0.000338934
0.000306818
0.000279974
0.000257073
0.000237256
0.000219911
0.000204579
0.000190921
0.000178673
0.000167633
0.000157604
0.000148472
0.000140116
0.000132424
0.000125349
0.000728543
0.000588231
0.000496001
0.000429131
0.000378508
0.000338932
0.000306815
0.000279967
0.000257063
0.000237241
0.000219888
0.000204544
0.000190867
0.000178588
0.000167499
0.000157408
0.000148183
0.000139693
0.000131804
0.000124243
0.00071288
0.000556432
0.000466396
0.000402354
0.000354424
0.000317047
0.00028667
0.000261248
0.00023957
0.000220828
0.000204416
0.000189908
0.000176983
0.000165378
0.000154885
0.000145345
0.000136615
0.000128558
0.000121072
0.000113885
0.000663952
0.000488458
0.000404618
0.000347247
0.000305034
0.000272126
0.000245315
0.000222884
0.000203748
0.000187168
0.000172637
0.000159789
0.000148334
0.000138053
0.000128789
0.000120507
0.000113006
0.00010609
0.000100128
9.38546e-05
0.000528907
0.000369984
0.000305097
0.000261371
0.000228528
0.000202475
0.000181113
0.000163073
0.000147538
0.000133983
0.000122048
0.000111466
0.000102136
9.38607e-05
8.6466e-05
7.96829e-05
7.35085e-05
6.7896e-05
6.38793e-05
5.70912e-05
0.000107685
6.77183e-05
5.06311e-05
4.14159e-05
3.54048e-05
3.10367e-05
2.77137e-05
2.50817e-05
2.29335e-05
2.11509e-05
1.96511e-05
1.83722e-05
1.72648e-05
1.62966e-05
1.5455e-05
1.47313e-05
1.41051e-05
1.35687e-05
1.31439e-05
1.28576e-05
4.5356e-05
2.3208e-05
1.65396e-05
1.36493e-05
1.18966e-05
1.06844e-05
9.76076e-06
9.05711e-06
8.49474e-06
8.03139e-06
7.64067e-06
7.31248e-06
7.02513e-06
6.76167e-06
6.53064e-06
6.33097e-06
6.15894e-06
6.01482e-06
5.92263e-06
5.83614e-06
0.000107685
6.77183e-05
5.06311e-05
4.14159e-05
3.54048e-05
3.10367e-05
2.77137e-05
2.50817e-05
2.29335e-05
2.11509e-05
1.96511e-05
1.83722e-05
1.72648e-05
1.62968e-05
1.5455e-05
1.47313e-05
1.41052e-05
1.35688e-05
1.31441e-05
1.28579e-05
0.000160509
0.00010736
8.07409e-05
6.55976e-05
5.54896e-05
4.83026e-05
4.31312e-05
3.90793e-05
3.57396e-05
3.29506e-05
3.05795e-05
2.85374e-05
2.67779e-05
2.52523e-05
2.39184e-05
2.27456e-05
2.17144e-05
2.08093e-05
2.00262e-05
1.93991e-05
0.000198681
0.0001383
0.000105187
8.55269e-05
7.25013e-05
6.28902e-05
5.60612e-05
5.07595e-05
4.63884e-05
4.27224e-05
3.96263e-05
3.6957e-05
3.4636e-05
3.26073e-05
3.08254e-05
2.9253e-05
2.78603e-05
2.66232e-05
2.55261e-05
2.45936e-05
0.000218609
0.000155003
0.000118661
9.65069e-05
8.18823e-05
7.08355e-05
6.30855e-05
5.71434e-05
5.22483e-05
4.80962e-05
4.45826e-05
4.15721e-05
3.89527e-05
3.66598e-05
3.46413e-05
3.28543e-05
3.12648e-05
2.98459e-05
2.85873e-05
2.76135e-05
0.000218609
0.000155003
0.000118661
9.65068e-05
8.18822e-05
7.08353e-05
6.30853e-05
5.7143e-05
5.22476e-05
4.80952e-05
4.45809e-05
4.15696e-05
3.89488e-05
3.66537e-05
3.46317e-05
3.28392e-05
3.12412e-05
2.9809e-05
2.85316e-05
2.75299e-05
0.000198681
0.0001383
0.000105187
8.55268e-05
7.25011e-05
6.28899e-05
5.60607e-05
5.07587e-05
4.63871e-05
4.27204e-05
3.9623e-05
3.6952e-05
3.46282e-05
3.25952e-05
3.08061e-05
2.92225e-05
2.78118e-05
2.65453e-05
2.54019e-05
2.44054e-05
0.000160509
0.00010736
8.07408e-05
6.55975e-05
5.54895e-05
4.83024e-05
4.31308e-05
3.90787e-05
3.57387e-05
3.29487e-05
3.05767e-05
2.85331e-05
2.67714e-05
2.52422e-05
2.39022e-05
2.27198e-05
2.16732e-05
2.07436e-05
1.99237e-05
1.92681e-05
0.000107685
6.77183e-05
5.06311e-05
4.14159e-05
3.54048e-05
3.10367e-05
2.77137e-05
2.50816e-05
2.29334e-05
2.11505e-05
1.96504e-05
1.83711e-05
1.72629e-05
1.62922e-05
1.54483e-05
1.47201e-05
1.4085e-05
1.35291e-05
1.30668e-05
1.27107e-05
4.5356e-05
2.3208e-05
1.65396e-05
1.36493e-05
1.18966e-05
1.06844e-05
9.76076e-06
9.05711e-06
8.49475e-06
8.03138e-06
7.64068e-06
7.31245e-06
7.02518e-06
6.76161e-06
6.53066e-06
6.33098e-06
6.15895e-06
6.01481e-06
5.92261e-06
5.83605e-06
5.5662e-06
5.1671e-06
4.81539e-06
4.59407e-06
4.45249e-06
4.35915e-06
4.28841e-06
4.22719e-06
4.17152e-06
4.12105e-06
4.07696e-06
4.0362e-06
3.99687e-06
3.95599e-06
3.9178e-06
3.88069e-06
3.84599e-06
3.81205e-06
3.78004e-06
3.74956e-06
3.71965e-06
3.69093e-06
3.66318e-06
3.63757e-06
3.61317e-06
3.58942e-06
3.5665e-06
3.54379e-06
3.52183e-06
3.50053e-06
3.48034e-06
3.4606e-06
3.44128e-06
3.42207e-06
3.40331e-06
3.38696e-06
3.37131e-06
3.35543e-06
3.34178e-06
3.31543e-06
1.13003e-05
1.06307e-05
1.01014e-05
9.66041e-06
9.33609e-06
9.09421e-06
8.89635e-06
8.7261e-06
8.57057e-06
8.4292e-06
8.30978e-06
8.19954e-06
8.10058e-06
7.99874e-06
7.90245e-06
7.8097e-06
7.7244e-06
7.64369e-06
7.56811e-06
7.49687e-06
7.42841e-06
7.36243e-06
7.30025e-06
7.24254e-06
7.18896e-06
7.13786e-06
7.08829e-06
7.03975e-06
6.99249e-06
6.9463e-06
6.9016e-06
6.85818e-06
6.81651e-06
6.77597e-06
6.73645e-06
6.6985e-06
6.66301e-06
6.62868e-06
6.59611e-06
6.55742e-06
1.67224e-05
1.58312e-05
1.51422e-05
1.44902e-05
1.40358e-05
1.36433e-05
1.32979e-05
1.29952e-05
1.27294e-05
1.24962e-05
1.22852e-05
1.20882e-05
1.19181e-05
1.17426e-05
1.15803e-05
1.14309e-05
1.1294e-05
1.11676e-05
1.1046e-05
1.09303e-05
1.08196e-05
1.07082e-05
1.0602e-05
1.05053e-05
1.04165e-05
1.03325e-05
1.02501e-05
1.01695e-05
1.00915e-05
1.00157e-05
9.94173e-06
9.86874e-06
9.79976e-06
9.73193e-06
9.66745e-06
9.60526e-06
9.54476e-06
9.48367e-06
9.42477e-06
9.36516e-06
2.05834e-05
1.97318e-05
1.89839e-05
1.83461e-05
1.77895e-05
1.72959e-05
1.68489e-05
1.64443e-05
1.60768e-05
1.57416e-05
1.54364e-05
1.51562e-05
1.49007e-05
1.46599e-05
1.44357e-05
1.42286e-05
1.40351e-05
1.38611e-05
1.36767e-05
1.3504e-05
1.33487e-05
1.32009e-05
1.30568e-05
1.29205e-05
1.2791e-05
1.26689e-05
1.25525e-05
1.24409e-05
1.23342e-05
1.22314e-05
1.2132e-05
1.20264e-05
1.19424e-05
1.18407e-05
1.1767e-05
1.16724e-05
1.1601e-05
1.15193e-05
1.14456e-05
1.13687e-05
2.27435e-05
2.19898e-05
2.12853e-05
2.06335e-05
2.00369e-05
1.94945e-05
1.90003e-05
1.85489e-05
1.81332e-05
1.77497e-05
1.73952e-05
1.70678e-05
1.67681e-05
1.64815e-05
1.6215e-05
1.59689e-05
1.57376e-05
1.5519e-05
1.53146e-05
1.51194e-05
1.49489e-05
1.47639e-05
1.45846e-05
1.44195e-05
1.4266e-05
1.41194e-05
1.3982e-05
1.38498e-05
1.37251e-05
1.36054e-05
1.34891e-05
1.33717e-05
1.32725e-05
1.31511e-05
1.30699e-05
1.29576e-05
1.28702e-05
1.27793e-05
1.26941e-05
1.26132e-05
2.40145e-05
2.29609e-05
2.2087e-05
2.13424e-05
2.06912e-05
2.0115e-05
1.96004e-05
1.9136e-05
1.87098e-05
1.83157e-05
1.79504e-05
1.76118e-05
1.73001e-05
1.70027e-05
1.67247e-05
1.6464e-05
1.62193e-05
1.59898e-05
1.57764e-05
1.55752e-05
1.53858e-05
1.52063e-05
1.50389e-05
1.48784e-05
1.47082e-05
1.45443e-05
1.43937e-05
1.42544e-05
1.41267e-05
1.4003e-05
1.38882e-05
1.37661e-05
1.36897e-05
1.34899e-05
1.34895e-05
1.33188e-05
1.32563e-05
1.31575e-05
1.30671e-05
1.29828e-05
2.3381e-05
2.20808e-05
2.11121e-05
2.03615e-05
1.97243e-05
1.91711e-05
1.86828e-05
1.82433e-05
1.78399e-05
1.74689e-05
1.7126e-05
1.68087e-05
1.65162e-05
1.62371e-05
1.59757e-05
1.57302e-05
1.54992e-05
1.52826e-05
1.50792e-05
1.48913e-05
1.47144e-05
1.45478e-05
1.43866e-05
1.42381e-05
1.40759e-05
1.39236e-05
1.37854e-05
1.3656e-05
1.35361e-05
1.34169e-05
1.33062e-05
1.31827e-05
1.31138e-05
1.29528e-05
1.28987e-05
1.27949e-05
1.27069e-05
1.26194e-05
1.25333e-05
1.24507e-05
2.05385e-05
1.91381e-05
1.8315e-05
1.77124e-05
1.71863e-05
1.67256e-05
1.6315e-05
1.59444e-05
1.56074e-05
1.52983e-05
1.50134e-05
1.47517e-05
1.45099e-05
1.42783e-05
1.40608e-05
1.38562e-05
1.36634e-05
1.34845e-05
1.33157e-05
1.31571e-05
1.30085e-05
1.28677e-05
1.27234e-05
1.25863e-05
1.24622e-05
1.23418e-05
1.22291e-05
1.21201e-05
1.20133e-05
1.19052e-05
1.18048e-05
1.17128e-05
1.16289e-05
1.1545e-05
1.14638e-05
1.13835e-05
1.13032e-05
1.12251e-05
1.11497e-05
1.10761e-05
1.53217e-05
1.48062e-05
1.43179e-05
1.38394e-05
1.34349e-05
1.3089e-05
1.27898e-05
1.25269e-05
1.22895e-05
1.20748e-05
1.18775e-05
1.17022e-05
1.15386e-05
1.13801e-05
1.12285e-05
1.1083e-05
1.09309e-05
1.0796e-05
1.06685e-05
1.05505e-05
1.04361e-05
1.03289e-05
1.02259e-05
1.0124e-05
1.00309e-05
9.94003e-06
9.85528e-06
9.77402e-06
9.69807e-06
9.62492e-06
9.5555e-06
9.48819e-06
9.42471e-06
9.36323e-06
9.30311e-06
9.24195e-06
9.18199e-06
9.12558e-06
9.07242e-06
9.01619e-06
1.07254e-05
1.01715e-05
9.67132e-06
9.28876e-06
9.01336e-06
8.80452e-06
8.63309e-06
8.49222e-06
8.353e-06
8.23384e-06
8.12382e-06
8.03311e-06
7.94471e-06
7.83976e-06
7.741e-06
7.64858e-06
7.5593e-06
7.4749e-06
7.3946e-06
7.31898e-06
7.24681e-06
7.17861e-06
7.11531e-06
7.05605e-06
7.00147e-06
6.94882e-06
6.89843e-06
6.84993e-06
6.80378e-06
6.75891e-06
6.71618e-06
6.67537e-06
6.63653e-06
6.59869e-06
6.56211e-06
6.52496e-06
6.49079e-06
6.45884e-06
6.43088e-06
6.39538e-06
5.56579e-06
5.16689e-06
4.81415e-06
4.59211e-06
4.45205e-06
4.35683e-06
4.28255e-06
4.22074e-06
4.16351e-06
4.11456e-06
4.0703e-06
4.03224e-06
3.99369e-06
3.95355e-06
3.91574e-06
3.8795e-06
3.84506e-06
3.81164e-06
3.77994e-06
3.74941e-06
3.71993e-06
3.69092e-06
3.66357e-06
3.63768e-06
3.61355e-06
3.58954e-06
3.56658e-06
3.54371e-06
3.52162e-06
3.50021e-06
3.47999e-06
3.46023e-06
3.44093e-06
3.42175e-06
3.40329e-06
3.38604e-06
3.36988e-06
3.35351e-06
3.33949e-06
3.31164e-06
1.07251e-05
1.01736e-05
9.6768e-06
9.29269e-06