/*--------------------------------*- C++ -*----------------------------------*\
| =========                 |                                                 |
| \\      /  F ield         | OpenFOAM: The Open Source CFD Toolbox           |
|  \\    /   O peration     | Version:  2212                                  |
|   \\  /    A nd           | Website:  www.openfoam.com                      |
|    \\/     M anipulation  |                                                 |
\*---------------------------------------------------------------------------*/
FoamFile
{
    version     2.0;
    format      ascii;
    arch        "LSB;label=32;scalar=64";
    class       volScalarField;
    location    "2";
    object      p;
}
// * * * * * * * * * * * * * * * * * * * * * * * * * * * * * * * * * * * * * //

dimensions      [0 2 -2 0 0 0 0];

internalField   nonuniform List<scalar> 
6840
(
0.0179081
0.0107937
0.00850223
0.00796439
0.00769002
0.00746781
0.00728116
0.0071147
0.0069535
0.00679397
0.00663618
0.00647988
0.00632391
0.00616705
0.00600881
0.00584879
0.00568647
0.00551461
0.00529432
0.00487622
0.0107293
0.00999547
0.00890257
0.0082366
0.00783403
0.00756033
0.0073492
0.00716306
0.00698878
0.00682168
0.00665925
0.00649986
0.00634217
0.00618579
0.00603111
0.00587859
0.00572556
0.00556639
0.00539133
0.00516245
0.0103811
0.00952957
0.0087653
0.00820618
0.00783006
0.00756211
0.00734656
0.00715382
0.00697569
0.00680766
0.00664502
0.0064857
0.00632953
0.00617678
0.00602778
0.0058831
0.00574422
0.0056142
0.00550453
0.00543506
0.00997181
0.00920908
0.00859032
0.00813902
0.00779508
0.00752612
0.00730662
0.00711803
0.00695053
0.00679363
0.00663884
0.00648496
0.00633312
0.00618463
0.00604121
0.0059059
0.00578416
0.00568396
0.00562099
0.00562938
0.00983757
0.00909639
0.00850822
0.00810011
0.00777818
0.00751148
0.00728998
0.0070994
0.00692874
0.0067722
0.00662258
0.00647315
0.00632332
0.00617528
0.00603122
0.00589374
0.00576632
0.00565318
0.00555943
0.00549763
0.00983755
0.00909637
0.00850818
0.00810005
0.00777808
0.00751133
0.00728975
0.007099
0.00692808
0.0067711
0.00662078
0.00647016
0.00631838
0.00616716
0.00601792
0.0058718
0.00573015
0.00559403
0.00546367
0.0053448
0.00997174
0.00920901
0.00859023
0.00813889
0.00779489
0.0075258
0.00730607
0.00711708
0.00694893
0.00679099
0.00663449
0.00647787
0.0063216
0.00616588
0.00601029
0.0058543
0.00569749
0.00554038
0.00538551
0.0052349
0.010381
0.0095295
0.00876522
0.00820607
0.00782987
0.00756177
0.00734598
0.00715286
0.00697411
0.00680503
0.00664063
0.00647852
0.00631789
0.00615783
0.0059967
0.00583187
0.0056592
0.00547301
0.00526813
0.00502795
0.0107293
0.00999544
0.00890253
0.00823655
0.00783393
0.00756016
0.00734892
0.00716257
0.00698795
0.00682028
0.00665697
0.00649611
0.00633581
0.00617479
0.00601231
0.00584738
0.00567484
0.0054799
0.00522091
0.00479935
0.0179081
0.0107937
0.00850222
0.00796439
0.00769002
0.00746781
0.00728116
0.0071147
0.0069535
0.00679398
0.00663618
0.00647989
0.00632393
0.00616706
0.00600882
0.00584882
0.0056865
0.00551463
0.00529431
0.00487612
0.0107293
0.00999544
0.00890253
0.00823655
0.00783393
0.00756016
0.00734891
0.00716256
0.00698794
0.00682027
0.00665695
0.00649609
0.00633579
0.00617477
0.00601229
0.00584734
0.00567478
0.00547981
0.00522073
0.0047989
0.0100127
0.00998101
0.00925279
0.00854228
0.00809593
0.00777998
0.00752108
0.0072934
0.0070888
0.00690038
0.00672258
0.00655159
0.00638432
0.00621888
0.00605426
0.00588883
0.00572043
0.0055465
0.00538069
0.00527392
0.00908728
0.00921348
0.00891061
0.00849441
0.00812729
0.0078087
0.00753024
0.00728996
0.00707766
0.00688353
0.0067008
0.00652632
0.0063583
0.00619528
0.00603615
0.00587995
0.0057263
0.00557533
0.00543239
0.00531371
0.00866894
0.00871245
0.00854691
0.00828402
0.00800369
0.00773242
0.00748155
0.00725539
0.00705273
0.00686691
0.00669125
0.0065226
0.00635947
0.00620141
0.00604897
0.00590301
0.00576473
0.00563619
0.00551954
0.0054155
0.00845294
0.00847477
0.00834758
0.00813011
0.00789773
0.00766862
0.00744591
0.00723291
0.00703238
0.00684552
0.00666994
0.00650242
0.00634157
0.00618628
0.00603555
0.0058904
0.00575278
0.00562433
0.00550737
0.00540069
0.00845289
0.00847472
0.00834752
0.00812999
0.00789756
0.00766839
0.00744555
0.00723236
0.00703156
0.00684418
0.00666766
0.00649862
0.00633551
0.00617683
0.00602119
0.00586897
0.00572088
0.00557721
0.00543998
0.00530803
0.00866884
0.00871235
0.00854677
0.00828382
0.00800341
0.00773202
0.00748094
0.00725443
0.00705112
0.00686405
0.0066862
0.00651439
0.0063472
0.00618317
0.00602079
0.00585901
0.00569719
0.00553573
0.00537695
0.00521704
0.00908723
0.00921342
0.00891052
0.00849429
0.00812713
0.00780845
0.0075298
0.0072892
0.00707634
0.00688136
0.0066974
0.00652103
0.00635001
0.00618211
0.00601533
0.00584769
0.00567778
0.00550553
0.00533699
0.00517881
0.0100127
0.00998101
0.00925278
0.00854228
0.00809593
0.00777998
0.00752108
0.0072934
0.0070888
0.00690038
0.00672258
0.0065516
0.00638433
0.00621888
0.00605427
0.00588885
0.00572045
0.0055465
0.00538068
0.00527396
0.0107293
0.00999546
0.00890257
0.0082366
0.00783402
0.00756032
0.00734919
0.00716305
0.00698877
0.00682167
0.00665925
0.00649986
0.00634217
0.00618578
0.0060311
0.00587858
0.00572553
0.00556632
0.00539119
0.00516207
0.010381
0.0095295
0.00876522
0.00820607
0.00782987
0.00756176
0.00734598
0.00715285
0.0069741
0.00680502
0.00664061
0.0064785
0.00631787
0.0061578
0.00599667
0.00583181
0.00565912
0.00547289
0.00526795
0.00502765
0.00908723
0.00921341
0.00891052
0.00849429
0.00812713
0.00780844
0.0075298
0.0072892
0.00707634
0.00688135
0.00669739
0.00652103
0.00635
0.00618209
0.0060153
0.00584767
0.00567776
0.0055055
0.00533697
0.00517876
0.00851776
0.00861874
0.00850718
0.00828172
0.00802597
0.00776757
0.00750918
0.00726758
0.00704973
0.0068495
0.00666191
0.00648381
0.00631257
0.00614613
0.00598312
0.00582247
0.00566352
0.00550747
0.00535945
0.00521765
0.00814981
0.00821787
0.00816552
0.00801859
0.00783377
0.00762869
0.0074181
0.00721134
0.00701045
0.00681842
0.0066365
0.00646285
0.00629555
0.00613346
0.00597591
0.00582195
0.00567143
0.00552517
0.00538285
0.00523502
0.00796673
0.00803116
0.00800171
0.0078769
0.00771795
0.00754432
0.00735809
0.00717015
0.00698416
0.006801
0.00662225
0.00644898
0.00628162
0.00611984
0.00596348
0.00581212
0.00566512
0.00552235
0.00538512
0.00524526
0.0079667
0.00803113
0.00800167
0.0078768
0.00771777
0.00754407
0.00735777
0.00716973
0.00698354
0.00680004
0.00662079
0.00644679
0.00627843
0.00611507
0.0059562
0.00580161
0.00565044
0.00550172
0.0053562
0.00520773
0.00814975
0.00821781
0.00816542
0.00801843
0.00783354
0.00762839
0.00741771
0.00721076
0.00700957
0.00681701
0.00663419
0.00645925
0.00629018
0.00612546
0.00596397
0.00580473
0.00564678
0.00548986
0.00533525
0.00517574
0.00851776
0.00861874
0.00850718
0.00828172
0.00802597
0.00776757
0.00750918
0.00726758
0.00704973
0.0068495
0.00666191
0.00648381
0.00631258
0.00614613
0.00598312
0.00582247
0.0056635
0.00550743
0.00535934
0.00521744
0.00908728
0.00921347
0.00891061
0.00849441
0.00812728
0.00780869
0.00753023
0.00728996
0.00707766
0.00688352
0.0067008
0.00652632
0.0063583
0.00619527
0.00603614
0.00587993
0.00572627
0.00557527
0.0054323
0.00531361
0.0103811
0.00952956
0.0087653
0.00820617
0.00783005
0.0075621
0.00734655
0.00715381
0.00697568
0.00680766
0.00664501
0.00648569
0.00632952
0.00617676
0.00602775
0.00588306
0.00574415
0.00561409
0.00550433
0.00543466
0.00997173
0.009209
0.00859022
0.00813888
0.00779488
0.00752579
0.00730606
0.00711707
0.00694892
0.00679098
0.00663448
0.00647786
0.00632158
0.00616585
0.00601026
0.00585426
0.00569744
0.0055403
0.00538542
0.0052348
0.00866884
0.00871234
0.00854676
0.00828381
0.0080034
0.00773202
0.00748093
0.00725442
0.00705112
0.00686404
0.00668619
0.00651437
0.00634719
0.00618315
0.00602078
0.00585899
0.00569717
0.00553571
0.00537697
0.00521715
0.00814974
0.00821781
0.00816542
0.00801843
0.00783353
0.00762839
0.0074177
0.00721076
0.00700956
0.006817
0.00663418
0.00645925
0.00629017
0.00612545
0.00596398
0.00580474
0.00564679
0.00548989
0.00533533
0.0051759
0.00785188
0.00791102
0.00789909
0.0078037
0.00766408
0.00749859
0.0073184
0.00713393
0.00694995
0.00676959
0.00659446
0.00642441
0.00625881
0.00609705
0.0059385
0.00578241
0.00562798
0.00547455
0.00532234
0.00516365
0.00770077
0.00776367
0.00776743
0.00769378
0.00757366
0.00742728
0.00726439
0.00709296
0.00691881
0.00674525
0.00657413
0.00640632
0.00624217
0.0060816
0.00592438
0.00576995
0.00561746
0.00546655
0.00531839
0.005164
0.00770075
0.00776365
0.0077674
0.00769375
0.00757361
0.0074272
0.00726428
0.0070928
0.00691859
0.00674494
0.00657369
0.0064057
0.00624125
0.00608019
0.00592219
0.00576683
0.00561329
0.00546106
0.00531086
0.0051555
0.00785188
0.00791102
0.00789909
0.0078037
0.00766408
0.00749859
0.0073184
0.00713393
0.00694995
0.00676959
0.00659446
0.00642441
0.00625881
0.00609705
0.0059385
0.00578241
0.00562798
0.00547456
0.00532236
0.00516366
0.00814981
0.00821787
0.00816551
0.00801858
0.00783377
0.00762869
0.00741809
0.00721134
0.00701045
0.00681842
0.0066365
0.00646285
0.00629555
0.00613346
0.00597591
0.00582196
0.00567144
0.0055252
0.00538292
0.00523516
0.00866894
0.00871245
0.00854691
0.00828401
0.00800368
0.00773242
0.00748154
0.00725538
0.00705272
0.0068669
0.00669124
0.00652259
0.00635946
0.00620141
0.00604896
0.00590299
0.00576471
0.00563617
0.00551956
0.00541562
0.0099718
0.00920907
0.00859031
0.00813901
0.00779507
0.00752611
0.00730661
0.00711802
0.00695052
0.00679362
0.00663882
0.00648494
0.0063331
0.00618461
0.00604118
0.00590586
0.00578409
0.00568386
0.00562081
0.0056291
0.00983754
0.00909636
0.00850817
0.00810004
0.00777807
0.00751132
0.00728974
0.00709899
0.00692807
0.00677109
0.00662076
0.00647015
0.00631837
0.00616714
0.0060179
0.00587177
0.00573011
0.00559398
0.0054636
0.00534472
0.00845289
0.00847471
0.00834751
0.00812998
0.00789755
0.00766838
0.00744554
0.00723235
0.00703155
0.00684417
0.00666765
0.0064986
0.0063355
0.00617681
0.00602117
0.00586895
0.00572084
0.00557717
0.00543994
0.00530799
0.00796669
0.00803113
0.00800166
0.0078768
0.00771776
0.00754406
0.00735776
0.00716972
0.00698353
0.00680003
0.00662078
0.00644677
0.00627842
0.00611506
0.00595619
0.0058016
0.00565043
0.00550171
0.00535619
0.00520773
0.00770075
0.00776364
0.0077674
0.00769374
0.00757361
0.0074272
0.00726427
0.0070928
0.00691858
0.00674493
0.00657368
0.00640569
0.00624124
0.00608018
0.00592218
0.00576682
0.00561328
0.00546104
0.00531083
0.00515548
0.00755795
0.00762747
0.00764959
0.00759704
0.00749577
0.00736482
0.00721487
0.00705384
0.00688728
0.00671888
0.00655098
0.00638502
0.00622172
0.00606134
0.00590382
0.00574876
0.00559538
0.00544341
0.0052937
0.00513759
0.00755795
0.00762747
0.00764959
0.00759704
0.00749578
0.00736482
0.00721487
0.00705384
0.00688728
0.00671888
0.00655099
0.00638502
0.00622172
0.00606134
0.00590382
0.00574877
0.00559539
0.00544342
0.00529372
0.00513763
0.00770077
0.00776366
0.00776743
0.00769378
0.00757366
0.00742727
0.00726439
0.00709296
0.00691881
0.00674525
0.00657412
0.00640632
0.00624216
0.0060816
0.00592438
0.00576995
0.00561747
0.00546658
0.00531844
0.00516409
0.00796672
0.00803116
0.0080017
0.00787689
0.00771794
0.00754432
0.00735808
0.00717014
0.00698415
0.00680099
0.00662225
0.00644898
0.00628161
0.00611984
0.00596348
0.00581214
0.00566515
0.00552242
0.00538525
0.00524549
0.00845293
0.00847476
0.00834758
0.0081301
0.00789772
0.00766862
0.0074459
0.0072329
0.00703237
0.00684551
0.00666993
0.00650241
0.00634156
0.00618626
0.00603554
0.00589039
0.00575277
0.00562433
0.00550742
0.00540082
0.00983756
0.00909638
0.00850821
0.0081001
0.00777817
0.00751147
0.00728997
0.00709939
0.00692873
0.00677219
0.00662257
0.00647313
0.00632331
0.00617526
0.0060312
0.0058937
0.00576626
0.00565309
0.0055593
0.00549745
0.00983756
0.00909638
0.00850821
0.0081001
0.00777817
0.00751147
0.00728997
0.00709939
0.00692873
0.00677219
0.00662257
0.00647314
0.00632331
0.00617526
0.00603121
0.00589372
0.0057663
0.00565315
0.00555939
0.00549757
0.00845293
0.00847476
0.00834757
0.0081301
0.00789772
0.00766861
0.0074459
0.0072329
0.00703236
0.00684551
0.00666993
0.00650241
0.00634156
0.00618626
0.00603554
0.00589037
0.00575275
0.00562429
0.00550732
0.00540062
0.00796672
0.00803116
0.0080017
0.00787689
0.00771794
0.00754431
0.00735808
0.00717014
0.00698415
0.00680098
0.00662224
0.00644897
0.0062816
0.00611983
0.00596346
0.0058121
0.00566509
0.00552232
0.00538508
0.0052452
0.00770076
0.00776366
0.00776742
0.00769377
0.00757365
0.00742727
0.00726438
0.00709296
0.00691881
0.00674524
0.00657412
0.00640632
0.00624215
0.00608159
0.00592437
0.00576993
0.00561744
0.00546652
0.00531837
0.00516398
0.00755794
0.00762746
0.00764959
0.00759703
0.00749577
0.00736482
0.00721487
0.00705384
0.00688728
0.00671887
0.00655098
0.00638502
0.00622171
0.00606133
0.00590382
0.00574876
0.00559537
0.0054434
0.00529369
0.00513759
0.00755795
0.00762746
0.00764959
0.00759704
0.00749577
0.00736482
0.00721487
0.00705384
0.00688728
0.00671887
0.00655098
0.00638502
0.00622172
0.00606133
0.00590382
0.00574876
0.00559538
0.00544342
0.00529371
0.00513763
0.00770075
0.00776364
0.0077674
0.00769374
0.00757361
0.0074272
0.00726427
0.0070928
0.00691858
0.00674493
0.00657368
0.00640569
0.00624125
0.00608018
0.00592219
0.00576683
0.0056133
0.00546108
0.00531089
0.00515556
0.00796669
0.00803113
0.00800166
0.0078768
0.00771776
0.00754406
0.00735776
0.00716972
0.00698353
0.00680003
0.00662078
0.00644678
0.00627842
0.00611506
0.00595619
0.00580161
0.00565047
0.00550177
0.00535628
0.00520788
0.00845289
0.00847472
0.00834751
0.00812998
0.00789755
0.00766838
0.00744554
0.00723235
0.00703155
0.00684417
0.00666765
0.0064986
0.0063355
0.00617681
0.00602117
0.00586895
0.00572086
0.0055772
0.00544
0.0053081
0.00983754
0.00909636
0.00850817
0.00810004
0.00777807
0.00751132
0.00728973
0.00709899
0.00692806
0.00677109
0.00662076
0.00647015
0.00631836
0.00616714
0.0060179
0.00587176
0.00573008
0.00559394
0.00546354
0.0053446
0.00997179
0.00920907
0.00859031
0.00813901
0.00779507
0.0075261
0.00730661
0.00711802
0.00695052
0.00679362
0.00663882
0.00648494
0.0063331
0.00618462
0.00604119
0.00590588
0.00578414
0.00568394
0.00562094
0.00562933
0.00866893
0.00871244
0.0085469
0.008284
0.00800368
0.00773241
0.00748153
0.00725538
0.00705271
0.00686689
0.00669124
0.00652258
0.00635945
0.0062014
0.00604895
0.00590298
0.0057647
0.00563615
0.00551948
0.0054154
0.0081498
0.00821786
0.0081655
0.00801858
0.00783376
0.00762868
0.00741808
0.00721133
0.00701044
0.00681841
0.00663649
0.00646284
0.00629553
0.00613344
0.00597588
0.00582192
0.00567139
0.00552511
0.00538278
0.00523491
0.00785187
0.00791101
0.00789908
0.00780369
0.00766407
0.00749858
0.00731839
0.00713392
0.00694994
0.00676958
0.00659445
0.0064244
0.0062588
0.00609703
0.00593848
0.00578239
0.00562795
0.00547452
0.00532231
0.00516362
0.00770074
0.00776364
0.0077674
0.00769374
0.00757361
0.00742719
0.00726426
0.00709279
0.00691858
0.00674493
0.00657367
0.00640569
0.00624124
0.00608018
0.00592218
0.00576682
0.00561328
0.00546104
0.00531084
0.00515549
0.00770076
0.00776366
0.00776742
0.00769377
0.00757365
0.00742727
0.00726438
0.00709295
0.0069188
0.00674524
0.00657412
0.00640632
0.00624216
0.00608159
0.00592437
0.00576994
0.00561745
0.00546655
0.0053184
0.00516404
0.00785187
0.00791102
0.00789908
0.00780369
0.00766407
0.00749859
0.0073184
0.00713392
0.00694995
0.00676958
0.00659445
0.0064244
0.00625881
0.00609704
0.00593849
0.00578241
0.00562798
0.00547456
0.00532236
0.00516368
0.00814974
0.0082178
0.00816542
0.00801842
0.00783353
0.00762839
0.0074177
0.00721076
0.00700956
0.006817
0.00663418
0.00645925
0.00629017
0.00612545
0.00596397
0.00580474
0.0056468
0.0054899
0.00533535
0.00517593
0.00866883
0.00871234
0.00854676
0.00828381
0.0080034
0.00773202
0.00748093
0.00725442
0.00705111
0.00686404
0.00668619
0.00651437
0.00634719
0.00618316
0.00602078
0.005859
0.00569718
0.00553573
0.005377
0.0052172
0.00997173
0.009209
0.00859022
0.00813888
0.00779488
0.00752579
0.00730606
0.00711707
0.00694892
0.00679098
0.00663448
0.00647785
0.00632158
0.00616585
0.00601026
0.00585426
0.00569744
0.0055403
0.00538541
0.00523475
0.0103811
0.00952955
0.00876529
0.00820617
0.00783005
0.00756209
0.00734655
0.00715381
0.00697567
0.00680765
0.00664501
0.00648569
0.00632952
0.00617676
0.00602776
0.00588309
0.0057442
0.00561419
0.00550452
0.00543504
0.00908727
0.00921347
0.0089106
0.0084944
0.00812728
0.00780868
0.00753022
0.00728995
0.00707765
0.00688351
0.00670079
0.00652631
0.00635829
0.00619526
0.00603613
0.00587994
0.00572628
0.0055753
0.00543235
0.00531364
0.00851775
0.00861873
0.00850717
0.0082817
0.00802596
0.00776755
0.00750917
0.00726757
0.00704971
0.00684948
0.00666189
0.00648379
0.00631256
0.00614611
0.0059831
0.00582245
0.00566349
0.00550742
0.00535939
0.00521755
0.00814973
0.0082178
0.00816541
0.00801842
0.00783352
0.00762838
0.00741769
0.00721075
0.00700955
0.00681699
0.00663417
0.00645924
0.00629016
0.00612544
0.00596396
0.00580472
0.00564677
0.00548985
0.00533527
0.00517579
0.00796668
0.00803112
0.00800165
0.00787679
0.00771775
0.00754405
0.00735776
0.00716971
0.00698352
0.00680002
0.00662077
0.00644677
0.00627841
0.00611505
0.00595618
0.00580159
0.00565042
0.0055017
0.00535619
0.00520774
0.00796672
0.00803115
0.0080017
0.00787689
0.00771793
0.00754431
0.00735807
0.00717014
0.00698414
0.00680098
0.00662224
0.00644897
0.0062816
0.00611983
0.00596346
0.00581211
0.00566511
0.00552235
0.00538514
0.00524532
0.0081498
0.00821787
0.00816551
0.00801858
0.00783376
0.00762868
0.00741809
0.00721133
0.00701044
0.00681841
0.00663649
0.00646284
0.00629554
0.00613345
0.00597589
0.00582194
0.00567141
0.00552515
0.00538284
0.00523503
0.00851776
0.00861873
0.00850718
0.00828171
0.00802596
0.00776756
0.00750917
0.00726758
0.00704972
0.00684949
0.0066619
0.0064838
0.00631257
0.00614612
0.00598311
0.00582246
0.0056635
0.00550744
0.00535942
0.00521761
0.00908722
0.00921341
0.00891052
0.00849429
0.00812712
0.00780844
0.0075298
0.00728919
0.00707633
0.00688135
0.00669739
0.00652102
0.00635
0.00618209
0.00601531
0.00584767
0.00567776
0.0055055
0.00533697
0.00517877
0.010381
0.00952949
0.00876522
0.00820606
0.00782987
0.00756176
0.00734597
0.00715285
0.00697409
0.00680502
0.00664061
0.00647851
0.00631787
0.0061578
0.00599667
0.00583182
0.00565914
0.00547291
0.00526798
0.00502769
0.0107293
0.00999545
0.00890256
0.00823659
0.00783401
0.00756031
0.00734918
0.00716304
0.00698876
0.00682166
0.00665924
0.00649985
0.00634216
0.00618578
0.0060311
0.00587859
0.00572555
0.00556639
0.00539134
0.00516247
0.0100127
0.009981
0.00925277
0.00854227
0.00809592
0.00777997
0.00752106
0.00729339
0.00708879
0.00690036
0.00672257
0.00655158
0.00638431
0.00621887
0.00605425
0.00588883
0.00572043
0.0055465
0.00538071
0.00527395
0.00908722
0.0092134
0.00891051
0.00849428
0.00812711
0.00780843
0.00752979
0.00728918
0.00707632
0.00688134
0.00669738
0.00652101
0.00634999
0.00618208
0.00601529
0.00584766
0.00567775
0.00550549
0.00533696
0.00517873
0.00866883
0.00871234
0.00854675
0.0082838
0.00800339
0.00773201
0.00748092
0.00725441
0.0070511
0.00686403
0.00668618
0.00651436
0.00634717
0.00618314
0.00602076
0.00585898
0.00569715
0.00553569
0.00537695
0.0052171
0.00845288
0.00847471
0.0083475
0.00812998
0.00789754
0.00766837
0.00744553
0.00723234
0.00703154
0.00684415
0.00666764
0.00649859
0.00633548
0.0061768
0.00602115
0.00586894
0.00572083
0.00557716
0.00543993
0.00530798
0.00845293
0.00847476
0.00834757
0.00813009
0.00789771
0.00766861
0.00744589
0.00723289
0.00703236
0.0068455
0.00666992
0.0065024
0.00634155
0.00618625
0.00603552
0.00589036
0.00575274
0.00562428
0.00550733
0.00540068
0.00866893
0.00871244
0.0085469
0.00828401
0.00800368
0.00773241
0.00748153
0.00725538
0.00705271
0.00686689
0.00669123
0.00652258
0.00635945
0.00620139
0.00604895
0.00590297
0.00576469
0.00563613
0.00551948
0.00541545
0.00908727
0.00921347
0.0089106
0.0084944
0.00812728
0.00780869
0.00753023
0.00728995
0.00707765
0.00688352
0.00670079
0.00652631
0.00635829
0.00619527
0.00603613
0.00587993
0.00572626
0.00557527
0.0054323
0.00531359
0.0100127
0.00998101
0.00925278
0.00854228
0.00809593
0.00777998
0.00752107
0.0072934
0.00708879
0.00690037
0.00672257
0.00655159
0.00638432
0.00621887
0.00605425
0.00588883
0.00572042
0.00554647
0.00538066
0.00527388
0.0107293
0.00999544
0.00890253
0.00823654
0.00783393
0.00756015
0.00734891
0.00716256
0.00698794
0.00682026
0.00665695
0.00649609
0.0063358
0.00617477
0.00601229
0.00584735
0.00567479
0.00547982
0.00522077
0.004799
0.0179081
0.0107937
0.00850221
0.00796438
0.00769001
0.00746779
0.00728115
0.00711469
0.00695348
0.00679396
0.00663616
0.00647987
0.0063239
0.00616705
0.00600881
0.00584879
0.00568647
0.00551461
0.00529434
0.00487627
0.0107293
0.00999543
0.00890252
0.00823653
0.00783392
0.00756014
0.0073489
0.00716255
0.00698793
0.00682025
0.00665694
0.00649608
0.00633578
0.00617476
0.00601229
0.00584734
0.00567478
0.00547982
0.00522076
0.00479894
0.010381
0.00952949
0.00876521
0.00820605
0.00782986
0.00756175
0.00734596
0.00715284
0.00697408
0.006805
0.0066406
0.00647849
0.00631786
0.00615779
0.00599666
0.00583181
0.00565912
0.0054729
0.00526797
0.00502771
0.00997172
0.00920899
0.00859021
0.00813887
0.00779487
0.00752578
0.00730605
0.00711706
0.00694891
0.00679097
0.00663447
0.00647784
0.00632157
0.00616584
0.00601025
0.00585425
0.00569743
0.0055403
0.00538543
0.00523481
0.00983754
0.00909635
0.00850817
0.00810003
0.00777807
0.00751131
0.00728973
0.00709898
0.00692805
0.00677108
0.00662075
0.00647014
0.00631835
0.00616713
0.00601788
0.00587175
0.00573009
0.00559395
0.00546357
0.00534466
0.00983756
0.00909638
0.00850821
0.0081001
0.00777816
0.00751146
0.00728997
0.00709938
0.00692872
0.00677218
0.00662256
0.00647312
0.0063233
0.00617525
0.00603119
0.0058937
0.00576626
0.0056531
0.00555932
0.00549748
0.0099718
0.00920907
0.00859031
0.00813901
0.00779507
0.0075261
0.00730661
0.00711801
0.00695051
0.00679361
0.00663882
0.00648494
0.00633309
0.0061846
0.00604117
0.00590585
0.0057841
0.00568388
0.00562085
0.00562919
0.0103811
0.00952956
0.00876529
0.00820617
0.00783005
0.0075621
0.00734655
0.00715381
0.00697567
0.00680765
0.00664501
0.00648569
0.00632952
0.00617675
0.00602774
0.00588306
0.00574416
0.00561412
0.0055044
0.00543485
0.0107293
0.00999546
0.00890256
0.0082366
0.00783402
0.00756032
0.00734919
0.00716305
0.00698877
0.00682167
0.00665924
0.00649985
0.00634217
0.00618577
0.00603108
0.00587857
0.00572553
0.00556633
0.00539125
0.00516228
0.0179081
0.0107937
0.00850222
0.00796438
0.00769002
0.0074678
0.00728115
0.00711469
0.00695349
0.00679397
0.00663617
0.00647988
0.00632391
0.00616705
0.0060088
0.0058488
0.00568646
0.00551459
0.00529429
0.00487617
0.00555751
0.00494966
0.00456978
0.00442974
0.00431118
0.00418445
0.00405694
0.00392881
0.0037978
0.00366486
0.00353197
0.00339954
0.00326868
0.00313899
0.00300951
0.0028804
0.00275145
0.00262397
0.00249749
0.00237278
0.00224865
0.00212558
0.0020038
0.00188326
0.00176424
0.00164565
0.00152799
0.00141115
0.00129538
0.00118135
0.00106781
0.000953532
0.000839738
0.000727637
0.000616531
0.000504934
0.000392116
0.000278605
0.000167721
5.08424e-05
0.00567443
0.00504145
0.00458344
0.00439761
0.00427458
0.00415117
0.00402684
0.00390238
0.00377508
0.003645
0.00351419
0.00338322
0.00325338
0.00312431
0.00299485
0.0028656
0.00273689
0.00260978
0.00248377
0.00235941
0.00223581
0.00211364
0.0019932
0.00187407
0.00175588
0.0016377
0.00152024
0.00140361
0.00128814
0.0011745
0.0010615
0.000947875
0.000834618
0.000722931
0.000612154
0.000500807
0.000388424
0.000275777
0.000165016
5.0117e-05
0.00547774
0.00508584
0.00473096
0.00451291
0.00434961
0.00419713
0.00405083
0.00391036
0.00377449
0.00364085
0.00350857
0.00337608
0.00324499
0.0031152
0.0029857
0.00285682
0.00272873
0.00260201
0.00247629
0.00235201
0.00222816
0.00210579
0.0019852
0.00186607
0.00174789
0.00162984
0.00151283
0.00139664
0.00128184
0.00116884
0.00105661
0.000943795
0.00083129
0.000720158
0.00061002
0.0004996
0.000387817
0.000275593
0.000165383
5.04113e-05
0.00528173
0.00503786
0.00477843
0.00457043
0.00439698
0.00423836
0.00408783
0.00394319
0.00380302
0.00366555
0.00352998
0.00339563
0.00326275
0.00313132
0.0030008
0.00287114
0.00274249
0.00261505
0.00248849
0.00236316
0.0022385
0.00211452
0.0019913
0.00186936
0.00174919
0.00163038
0.00151284
0.00139639
0.00128156
0.00116795
0.00105505
0.000941699
0.000829064
0.000718056
0.000608298
0.000498381
0.00038696
0.000274825
0.000164966
5.00846e-05
0.00512203
0.00495489
0.00476608
0.00458592
0.00441941
0.00426173
0.00411
0.00396355
0.00382106
0.00368116
0.00354312
0.00340705
0.00327282
0.00314016
0.00300871
0.00287848
0.00274947
0.00262166
0.002495
0.00236955
0.00224538
0.00212228
0.00199975
0.00187783
0.00175713
0.0016378
0.00152006
0.0014039
0.00128875
0.00117418
0.00105982
0.000945541
0.000832479
0.0007209
0.000610547
0.000499981
0.000387971
0.00027568
0.000165732
5.03357e-05
0.00500964
0.00489969
0.00474953
0.00458552
0.0044247
0.00426947
0.00411908
0.00397351
0.00383153
0.00369148
0.00355303
0.00341635
0.00328151
0.0031482
0.00301614
0.00288535
0.00275588
0.00262771
0.00250081
0.00237514
0.00225074
0.00212757
0.00200568
0.0018846
0.00176385
0.00164371
0.00152509
0.00140834
0.0012931
0.00117901
0.00106542
0.000952227
0.00083981
0.000727994
0.000616953
0.000505477
0.000392373
0.000279411
0.000168335
5.11517e-05
0.00492143
0.0048597
0.00473527
0.00457801
0.00442181
0.0042706
0.00412268
0.00397828
0.0038368
0.00369679
0.00355819
0.00342123
0.00328597
0.00315215
0.00301951
0.00288823
0.00275847
0.00263014
0.00250312
0.00237741
0.00225301
0.00212983
0.00200798
0.00188694
0.00176622
0.00164598
0.00152751
0.00141089
0.00129588
0.00118231
0.0010688
0.00095501
0.000841978
0.000730469
0.000620364
0.000509884
0.000397116
0.000283505
0.000170951
5.25346e-05
0.00500327
0.0049049
0.00474157
0.00457024
0.00441437
0.0042661
0.00412081
0.00397757
0.00383607
0.00369611
0.00355773
0.00342098
0.00328588
0.00315183
0.00301829
0.00288609
0.00275585
0.00262744
0.00250059
0.00237511
0.00225098
0.00212797
0.00200651
0.00188558
0.00176574
0.00164758
0.00153082
0.00141484
0.00129997
0.00118664
0.00107295
0.000958347
0.000844772
0.000733227
0.000622545
0.000512536
0.000400533
0.000285944
0.000171836
5.31957e-05
0.00513546
0.00495633
0.00472714
0.00454453
0.00439206
0.00424529
0.00410122
0.0039601
0.00382052
0.00368225
0.00354541
0.00341047
0.00327745
0.00314552
0.00301485
0.0028858
0.00275676
0.00262874
0.00250226
0.00237681
0.00225252
0.00212918
0.00200733
0.00188639
0.00176736
0.00164958
0.00153279
0.00141648
0.00130093
0.001187
0.00107303
0.000958068
0.000844028
0.000731884
0.00062073
0.000510554
0.000398126
0.000283185
0.0001692
5.21372e-05
0.0054413
0.00497546
0.00465118
0.00450405
0.00437543
0.00423621
0.00409674
0.00395881
0.00382134
0.00368455
0.00354864
0.00341474
0.00328378
0.00315346
0.00302393
0.00289562
0.00276684
0.00263865
0.00251183
0.00238627
0.00226185
0.00213823
0.00201539
0.00189351
0.00177351
0.00165464
0.00153652
0.00141932
0.0013031
0.00118867
0.00107458
0.000959552
0.000845139
0.000732454
0.000620855
0.000510315
0.000398074
0.000283159
0.000169219
5.20647e-05
0.00555779
0.00495025
0.00457075
0.00443129
0.00431223
0.00418417
0.00405669
0.00392865
0.00379694
0.0036638
0.00353041
0.00339835
0.00326881
0.00313925
0.00300942
0.00288042
0.00275166
0.00262393
0.00249767
0.00237262
0.0022487
0.00212585
0.00200424
0.00188372
0.00176452
0.00164608
0.00152823
0.00141136
0.00129553
0.00118149
0.00106795
0.000953629
0.000839813
0.000727594
0.00061635
0.000506064
0.000394225
0.000279938
0.000168188
5.04741e-05
0.00544092
0.00497477
0.00465014
0.00450181
0.00437337
0.00423615
0.00409753
0.00395977
0.00382254
0.00368577
0.00355037
0.00341604
0.00328368
0.00315309
0.00302396
0.00289551
0.00276658
0.00263864
0.00251163
0.00238644
0.00226179
0.00213793
0.00201486
0.00189294
0.00177307
0.00165406
0.00153612
0.00141896
0.00130283
0.00118843
0.00107434
0.000959409
0.000845056
0.000732575
0.000621108
0.000508973
0.000395396
0.000281194
0.000168513
5.23051e-05
0.00533082
0.00498098
0.00468543
0.00450066
0.00435608
0.00421401
0.00407544
0.00394052
0.00380723
0.00367432
0.00354198
0.00340926
0.0032781
0.00314839
0.00301929
0.0028902
0.00276157
0.00263435
0.00250809
0.00238365
0.00225921
0.00213599
0.00201401
0.00189306
0.00177363
0.00165436
0.00153626
0.00141896
0.0013029
0.00118875
0.00107477
0.000959637
0.000845191
0.000732683
0.000621678
0.00051032
0.000396726
0.00028236
0.000170308
5.32023e-05
0.00523561
0.00499823
0.00476817
0.00457032
0.00439764
0.00423689
0.00408548
0.00394067
0.00380022
0.00366302
0.00352798
0.00339428
0.00326164
0.0031305
0.00300099
0.00287245
0.00274495
0.0026186
0.00249341
0.00236882
0.00224482
0.00212172
0.00199992
0.00187938
0.00176015
0.00164208
0.00152498
0.00140879
0.00129407
0.00118035
0.00106668
0.000952635
0.000839448
0.000727345
0.000616555
0.000506058
0.000394178
0.000281397
0.000170733
5.38928e-05
0.00514022
0.00496167
0.0047795
0.0045965
0.00442576
0.00426515
0.00411077
0.0039622
0.00381842
0.00367851
0.00354144
0.00340689
0.00327343
0.00314121
0.00301059
0.00288122
0.00275301
0.00262572
0.00249966
0.00237442
0.00225049
0.00212707
0.00200455
0.00188354
0.00176366
0.00164515
0.00152735
0.00141073
0.00129523
0.00117999
0.00106491
0.000950671
0.000837624
0.000725206
0.000613684
0.000502397
0.000390806
0.000279277
0.000169098
5.375e-05
0.00506629
0.00489819
0.00473945
0.00457645
0.00441727
0.00426391
0.00411453
0.00396846
0.00382576
0.00368618
0.00354907
0.00341407
0.00328049
0.00314808
0.00301702
0.00288723
0.0027586
0.00263104
0.00250469
0.00237931
0.00225486
0.00213117
0.00200872
0.00188764
0.00176751
0.00164869
0.00153118
0.00141465
0.00129882
0.00118326
0.0010678
0.00095348
0.000840238
0.000727338
0.000614566
0.000501431
0.000388586
0.000277066
0.000167047
5.36779e-05
0.00497198
0.00482099
0.00468948
0.00454425
0.0043956
0.00425036
0.0041077
0.00396665
0.00382741
0.00369007
0.00355423
0.00341971
0.00328627
0.0031538
0.00302242
0.00289217
0.00276308
0.00263517
0.00250838
0.00238264
0.0022579
0.00213411
0.00201145
0.00188999