/*--------------------------------*- C++ -*----------------------------------*\
| =========                 |                                                 |
| \\      /  F ield         | OpenFOAM: The Open Source CFD Toolbox           |
|  \\    /   O peration     | Version:  2212                                  |
|   \\  /    A nd           | Website:  www.openfoam.com                      |
|    \\/     M anipulation  |                                                 |
\*---------------------------------------------------------------------------*/
FoamFile
{
    version     2.0;
    format      ascii;
    arch        "LSB;label=32;scalar=64";
    class       surfaceScalarField;
    location    "2";
    object      phi;
}
// * * * * * * * * * * * * * * * * * * * * * * * * * * * * * * * * * * * * * //

dimensions      [0 3 -1 0 0 0 0];

oriented        oriented;

internalField   nonuniform List<scalar> 
19019
(
3.32249e-07
1.09681e-09
1.09687e-09
2.7919e-07
2.65293e-08
2.65298e-08
2.49217e-07
1.49861e-08
1.49869e-08
2.29253e-07
9.98151e-09
9.98279e-09
2.14833e-07
7.20872e-09
7.2116e-09
2.03196e-07
5.81628e-09
5.82069e-09
1.93767e-07
4.71033e-09
4.71914e-09
1.85996e-07
3.87756e-09
3.89322e-09
1.79342e-07
3.31347e-09
3.3405e-09
1.73505e-07
2.8952e-09
2.94142e-09
1.68321e-07
2.55438e-09
2.63011e-09
1.6368e-07
2.2581e-09
2.38289e-09
1.59485e-07
1.99145e-09
2.20368e-09
1.55667e-07
1.72264e-09
2.0946e-09
1.52227e-07
1.40066e-09
2.03947e-09
1.4921e-07
1.0004e-09
2.01654e-09
1.46784e-07
4.24407e-10
2.00181e-09
1.4574e-07
-7.68683e-10
1.81239e-09
1.48046e-07
-3.78054e-09
1.4746e-09
-2.3969e-08
-1.01903e-08
6.3138e-07
3.58749e-09
7.40296e-09
6.14563e-07
2.26453e-08
2.07009e-08
5.86444e-07
2.43754e-08
1.87302e-08
5.61723e-07
1.88538e-08
1.58489e-08
5.39612e-07
1.55673e-08
1.37518e-08
5.20628e-07
1.35066e-08
1.12938e-08
5.04677e-07
1.19453e-08
8.71633e-09
4.90914e-07
1.07887e-08
6.85174e-09
4.78676e-07
9.92844e-09
5.62281e-09
4.67568e-07
9.20493e-09
4.79892e-09
4.57345e-07
8.55688e-09
4.22035e-09
4.47852e-07
7.95754e-09
3.79381e-09
4.38957e-07
7.39189e-09
3.49395e-09
4.30551e-07
6.83641e-09
3.29237e-09
4.22546e-07
6.2447e-09
3.16099e-09
4.15004e-07
5.49498e-09
3.04723e-09
4.08058e-07
4.45781e-09
2.91257e-09
4.02248e-07
2.65564e-09
2.38506e-09
3.99836e-07
-1.30234e-09
-6.62275e-11
-8.7888e-09
-1.06022e-08
8.90374e-07
2.85258e-09
6.33245e-09
8.82485e-07
1.34085e-08
1.71264e-08
8.70356e-07
1.78672e-08
1.86373e-08
8.55105e-07
1.69551e-08
1.71494e-08
8.39969e-07
1.53399e-08
1.53635e-08
8.25512e-07
1.41696e-08
1.3794e-08
8.11729e-07
1.33791e-08
1.23491e-08
7.98711e-07
1.26741e-08
1.1133e-08
7.86598e-07
1.18848e-08
1.01562e-08
7.7539e-07
1.10379e-08
9.37511e-09
7.6493e-07
1.0226e-08
8.79121e-09
7.55037e-07
9.46865e-09
8.3814e-09
7.45544e-07
8.77543e-09
8.10925e-09
7.36298e-07
8.13606e-09
7.94638e-09
7.27144e-07
7.51033e-09
7.88909e-09
7.1785e-07
6.8228e-09
7.9656e-09
7.08084e-07
6.00233e-09
8.22132e-09
6.97129e-07
4.91767e-09
8.69354e-09
6.83351e-07
3.19726e-09
9.27741e-09
4.43549e-09
1.52733e-08
1.07432e-06
1.06501e-09
5.56894e-09
1.06824e-06
5.58731e-09
1.39005e-08
1.06138e-06
8.46554e-09
1.62626e-08
1.05338e-06
9.04239e-09
1.59108e-08
1.04509e-06
8.62238e-09
1.50052e-08
1.03719e-06
8.12857e-09
1.39378e-08
1.02979e-06
7.80066e-09
1.29838e-08
1.02276e-06
7.57808e-09
1.21255e-08
1.01587e-06
7.40941e-09
1.13629e-08
1.00904e-06
7.15116e-09
1.07218e-08
1.00226e-06
6.75324e-09
1.02493e-08
9.95479e-07
6.32339e-09
9.92529e-09
9.88578e-07
5.94373e-09
9.73254e-09
9.81387e-07
5.64872e-09
9.67883e-09
9.73635e-07
5.47266e-09
9.78932e-09
9.64867e-07
5.46202e-09
1.01286e-08
9.54286e-07
5.726e-09
1.08572e-08
9.40535e-07
6.44104e-09
1.22282e-08
9.21183e-07
8.07071e-09
1.44782e-08
1.32077e-08
2.02675e-08
1.16914e-06
1.42948e-13
4.90666e-09
1.16312e-06
6.75352e-13
1.16089e-08
1.15731e-06
1.55618e-12
1.42761e-08
1.15201e-06
2.79068e-12
1.43346e-08
1.1469e-06
4.79711e-12
1.37323e-08
1.14205e-06
8.37452e-12
1.29726e-08
1.13773e-06
1.47409e-11
1.21053e-08
1.13397e-06
2.51851e-11
1.13152e-08
1.13067e-06
4.27415e-11
1.06615e-08
1.12754e-06
7.17192e-11
1.02084e-08
1.12425e-06
1.19451e-10
9.92467e-09
1.12064e-06
1.98002e-10
9.73883e-09
1.11659e-06
3.28121e-10
9.65908e-09
1.11199e-06
5.43367e-10
9.71142e-09
1.10665e-06
8.86428e-10
9.92226e-09
1.10035e-06
1.44824e-09
1.03182e-08
1.09273e-06
2.36959e-09
1.09755e-08
1.0833e-06
3.84938e-09
1.20219e-08
1.07164e-06
6.24478e-09
1.34894e-08
1.08979e-08
1.56303e-08
1.16914e-06
-1.0647e-09
4.90661e-09
1.16312e-06
-5.58622e-09
1.16087e-08
1.15731e-06
-8.46347e-09
1.42759e-08
1.15202e-06
-9.03886e-09
1.4334e-08
1.14691e-06
-8.61576e-09
1.37304e-08
1.14206e-06
-8.11626e-09
1.29687e-08
1.13776e-06
-7.77854e-09
1.20993e-08
1.13402e-06
-7.53994e-09
1.13052e-08
1.13076e-06
-7.34331e-09
1.06442e-08
1.12769e-06
-7.0411e-09
1.01791e-08
1.12451e-06
-6.57301e-09
9.87657e-09
1.12108e-06
-6.02946e-09
9.65803e-09
1.11735e-06
-5.45934e-09
9.51999e-09
1.11326e-06
-4.84231e-09
9.47338e-09
1.10876e-06
-4.13866e-09
9.52179e-09
1.10379e-06
-3.22725e-09
9.64539e-09
1.09828e-06
-1.95427e-09
9.84152e-09
1.0921e-06
-9.67623e-11
1.01238e-08
1.08542e-06
2.44298e-09
1.04775e-08
6.1503e-09
1.08654e-08
1.07432e-06
-2.85262e-09
5.56893e-09
1.06824e-06
-1.34086e-08
1.39004e-08
1.06138e-06
-1.78673e-08
1.62618e-08
1.05339e-06
-1.69551e-08
1.59083e-08
1.04511e-06
-1.53393e-08
1.50005e-08
1.03723e-06
-1.41675e-08
1.39305e-08
1.02985e-06
-1.33748e-08
1.29729e-08
1.02287e-06
-1.26673e-08
1.21078e-08
1.01607e-06
-1.18727e-08
1.13333e-08
1.00938e-06
-1.10177e-08
1.0671e-08
1.00284e-06
-1.01935e-08
1.01616e-08
9.96448e-07
-9.4149e-09
9.7726e-09
9.90199e-07
-8.68045e-09
9.47043e-09
9.8409e-07
-7.96182e-09
9.22795e-09
9.7814e-07
-7.19243e-09
9.00359e-09
9.7239e-07
-6.21398e-09
8.73732e-09
9.66895e-07
-4.81263e-09
8.35299e-09
9.61646e-07
-2.61697e-09
7.76937e-09
9.56337e-07
7.54145e-10
6.99826e-09
8.16803e-09
5.79766e-09
8.90375e-07
-3.58763e-09
6.33235e-09
8.82486e-07
-2.2646e-08
1.71257e-08
8.7036e-07
-2.43763e-08
1.86356e-08
8.55114e-07
-1.88554e-08
1.71465e-08
8.39986e-07
-1.55707e-08
1.53591e-08
8.25543e-07
-1.35124e-08
1.37882e-08
8.11784e-07
-1.19553e-08
1.23397e-08
7.98805e-07
-1.08052e-08
1.11164e-08
7.8676e-07
-9.95618e-09
1.01293e-08
7.75663e-07
-9.25223e-09
9.33079e-09
7.65391e-07
-8.63757e-09
8.71673e-09
7.55812e-07
-8.08824e-09
8.25226e-09
7.46841e-07
-7.59578e-09
7.88568e-09
7.3847e-07
-7.15452e-09
7.56444e-09
7.30798e-07
-6.74807e-09
7.22737e-09
7.24119e-07
-6.29014e-09
6.75475e-09
7.18947e-07
-5.58767e-09
5.9468e-09
7.15796e-07
-3.83316e-09
4.36762e-09
7.15392e-07
-4.8649e-10
1.64437e-09
9.97953e-09
-4.75054e-09
6.3138e-07
-1.09686e-09
7.40286e-09
6.14563e-07
-2.65298e-08
2.07003e-08
5.86445e-07
-1.49868e-08
1.87292e-08
5.61725e-07
-9.98273e-09
1.5847e-08
5.39617e-07
-7.21152e-09
1.37492e-08
5.20636e-07
-5.8206e-09
1.12886e-08
5.04692e-07
-4.71903e-09
8.70814e-09
4.90942e-07
-3.8931e-09
6.83847e-09
4.78725e-07
-3.34035e-09
5.60057e-09
4.67653e-07
-2.94124e-09
4.76078e-09
4.57499e-07
-2.62992e-09
4.14709e-09
4.48126e-07
-2.38268e-09
3.6673e-09
4.39434e-07
-2.2034e-09
3.2996e-09
4.31356e-07
-2.09428e-09
3.01714e-09
4.23899e-07
-2.03901e-09
2.74788e-09
4.17312e-07
-2.01577e-09
2.31327e-09
4.12166e-07
-2.00081e-09
1.55855e-09
4.10386e-07
-1.81033e-09
-2.43169e-10
4.15817e-07
-1.46918e-09
-4.44864e-09
1.01963e-08
-1.96693e-08
3.32249e-07
1.09683e-09
2.7919e-07
2.65294e-08
2.49217e-07
1.49861e-08
2.29253e-07
9.98157e-09
2.14833e-07
7.20879e-09
2.03196e-07
5.81636e-09
1.93767e-07
4.71044e-09
1.85996e-07
3.87769e-09
1.79342e-07
3.31363e-09
1.73505e-07
2.89539e-09
1.68321e-07
2.5546e-09
1.6368e-07
2.25834e-09
1.59485e-07
1.9917e-09
1.55667e-07
1.72308e-09
1.52227e-07
1.40126e-09
1.4921e-07
1.00113e-09
1.46784e-07
4.25482e-10
1.4574e-07
-7.66534e-10
1.48048e-07
-3.77783e-09
-2.39754e-08
6.3138e-07
7.40286e-09
3.58764e-09
6.14563e-07
2.07003e-08
2.26461e-08
5.86445e-07
1.87292e-08
2.43764e-08
5.61725e-07
1.5847e-08
1.88555e-08
5.39617e-07
1.37492e-08
1.55708e-08
5.20636e-07
1.12886e-08
1.35124e-08
5.04692e-07
8.7081e-09
1.19554e-08
4.90942e-07
6.83842e-09
1.08053e-08
4.78725e-07
5.60051e-09
9.95633e-09
4.67654e-07
4.76071e-09
9.25239e-09
4.57499e-07
4.147e-09
8.63774e-09
4.48126e-07
3.66723e-09
8.08838e-09
4.39434e-07
3.29968e-09
7.5959e-09
4.31357e-07
3.01702e-09
7.15497e-09
4.239e-07
2.74739e-09
6.74883e-09
4.17313e-07
2.31281e-09
6.29084e-09
4.12169e-07
1.55779e-09
5.58814e-09
4.10393e-07
-2.447e-10
3.83337e-09
4.15832e-07
-4.45078e-09
4.85471e-10
-1.96698e-08
-9.98023e-09
9.23616e-07
7.03381e-09
7.03401e-09
9.25317e-07
1.98498e-08
1.98505e-08
9.17182e-07
2.27966e-08
2.2798e-08
9.04271e-07
2.23019e-08
2.23045e-08
8.90528e-07
2.06202e-08
2.06244e-08
8.77399e-07
1.78516e-08
1.78594e-08
8.65423e-07
1.46939e-08
1.47067e-08
8.54734e-07
1.21794e-08
1.21999e-08
8.45276e-07
1.03229e-08
1.03586e-08
8.36902e-07
8.93608e-09
8.99787e-09
8.29424e-07
7.87009e-09
7.97501e-09
8.22658e-07
7.0273e-09
7.19935e-09
8.16501e-07
6.33883e-09
6.61217e-09
8.10941e-07
5.71887e-09
6.15019e-09
8.0601e-07
5.07854e-09
5.76051e-09
8.01701e-07
4.29709e-09
5.37262e-09
7.98045e-07
3.24265e-09
4.88305e-09
7.94448e-07
1.66913e-09
4.06885e-09
7.88335e-07
-8.5847e-10
2.45393e-09
-4.87369e-09
-1.85012e-09
1.1589e-06
5.28136e-09
6.10289e-09
1.16569e-06
1.39989e-08
1.6184e-08
1.16844e-06
1.79784e-08
2.07088e-08
1.1666e-06
1.91797e-08
2.21084e-08
1.1622e-06
1.88771e-08
2.15108e-08
1.15652e-06
1.75462e-08
1.97771e-08
1.15044e-06
1.56863e-08
1.7437e-08
1.14452e-06
1.3888e-08
1.53493e-08
1.13905e-06
1.22856e-08
1.36627e-08
1.13415e-06
1.08843e-08
1.23227e-08
1.12982e-06
9.721e-09
1.1275e-08
1.12599e-06
8.75717e-09
1.04747e-08
1.12263e-06
7.93495e-09
9.87637e-09
1.11966e-06
7.19909e-09
9.44005e-09
1.11699e-06
6.4869e-09
9.14727e-09
1.11451e-06
5.74269e-09
8.99981e-09
1.11208e-06
4.90202e-09
8.98866e-09
1.10945e-06
3.90479e-09
9.08894e-09
1.10602e-06
2.6636e-09
9.19305e-09
1.73297e-09
9.75467e-09
1.32762e-06
2.71849e-09
4.93142e-09
1.33539e-06
7.12162e-09
1.30099e-08
1.34286e-06
9.55483e-09
1.72178e-08
1.34847e-06
1.05805e-08
1.89035e-08
1.35196e-06
1.08794e-08
1.95084e-08
1.35373e-06
1.05872e-08
1.91261e-08
1.35438e-06
9.90252e-09
1.81174e-08
1.3545e-06
9.06333e-09
1.68374e-08
1.35442e-06
8.22216e-09
1.55035e-08
1.35428e-06
7.44407e-09
1.42964e-08
1.35414e-06
6.76622e-09
1.3353e-08
1.35399e-06
6.18479e-09
1.26451e-08
1.35383e-06
5.68755e-09
1.21419e-08
1.35359e-06
5.27611e-09
1.1834e-08
1.35319e-06
4.94879e-09
1.17347e-08
1.35246e-06
4.71385e-09
1.18852e-08
1.35127e-06
4.59419e-09
1.23508e-08
1.34956e-06
4.63907e-09
1.32027e-08
1.3474e-06
4.86092e-09
1.44435e-08
5.53069e-09
1.59266e-08
1.41518e-06
2.67458e-13
4.19314e-09
1.42279e-06
7.66793e-13
1.11167e-08
1.43152e-06
1.32412e-12
1.50999e-08
1.4398e-06
2.43574e-12
1.66316e-08
1.44713e-06
4.51892e-12
1.72797e-08
1.45316e-06
7.89031e-12
1.75165e-08
1.45799e-06
1.29836e-11
1.7163e-08
1.4619e-06
2.12444e-11
1.64516e-08
1.46518e-06
3.56515e-11
1.55708e-08
1.46807e-06
6.15646e-11
1.46998e-08
1.47075e-06
1.05064e-10
1.39047e-08
1.47326e-06
1.75292e-10
1.32357e-08
1.47555e-06
2.81168e-10
1.27786e-08
1.47754e-06
4.44848e-10
1.25527e-08
1.47919e-06
7.02596e-10
1.25179e-08
1.48046e-06
1.09965e-09
1.26606e-08
1.48128e-06
1.69441e-09
1.30602e-08
1.4816e-06
2.56783e-09
1.37666e-08
1.4814e-06
3.80401e-09
1.47513e-08
5.4387e-09
1.58745e-08
1.41518e-06
-2.71818e-09
4.19299e-09
1.42279e-06
-7.12078e-09
1.11163e-08
1.43152e-06
-9.55331e-09
1.50993e-08
1.43981e-06
-1.05776e-08
1.66302e-08
1.44714e-06
-1.0874e-08
1.72765e-08
1.45318e-06
-1.05779e-08
1.7511e-08
1.45803e-06
-9.88694e-09
1.71541e-08
1.46195e-06
-9.03736e-09
1.64378e-08
1.46526e-06
-8.17826e-09
1.55497e-08
1.4682e-06
-7.36465e-09
1.46652e-08
1.47096e-06
-6.62732e-09
1.38465e-08
1.47362e-06
-5.95505e-09
1.31348e-08
1.47615e-06
-5.3358e-09
1.26053e-08
1.47853e-06
-4.73111e-09
1.2266e-08
1.48076e-06
-4.06829e-09
1.2065e-08
1.48283e-06
-3.29102e-09
1.19644e-08
1.48472e-06
-2.32378e-09
1.19669e-08
1.48641e-06
-1.07557e-09
1.20863e-08
1.48782e-06
5.48983e-10
1.23159e-08
2.63381e-09
1.26148e-08
1.32763e-06
-5.28151e-09
4.93112e-09
1.33539e-06
-1.39992e-08
1.3009e-08
1.34287e-06
-1.79788e-08
1.72158e-08
1.34848e-06
-1.91802e-08
1.8899e-08
1.35198e-06
-1.8878e-08
1.95004e-08
1.35377e-06
-1.75483e-08
1.91137e-08
1.35445e-06
-1.56888e-08
1.80982e-08
1.3546e-06
-1.38899e-08
1.6807e-08
1.35459e-06
-1.22898e-08
1.54567e-08
1.35457e-06
-1.08925e-08
1.42199e-08
1.35462e-06
-9.73526e-09
1.32212e-08
1.35479e-06
-8.78441e-09
1.24245e-08
1.35513e-06
-7.98597e-09
1.17811e-08
1.35566e-06
-7.28108e-09
1.12467e-08
1.35642e-06
-6.5998e-09
1.07745e-08
1.35743e-06
-5.86947e-09
1.03124e-08
1.35864e-06
-4.9834e-09
9.80413e-09
1.35995e-06
-3.81509e-09
9.19588e-09
1.36122e-06
-2.19293e-09
8.47181e-09
5.05125e-10
7.58537e-09
1.1589e-06
-7.03401e-09
6.10254e-09
1.1657e-06
-1.98505e-08
1.61827e-08
1.16844e-06
-2.2798e-08
2.07059e-08
1.16661e-06
-2.23044e-08
2.21036e-08
1.16221e-06
-2.06244e-08
2.15037e-08
1.15655e-06
-1.78594e-08
1.97671e-08
1.15048e-06
-1.47067e-08
1.74205e-08
1.14459e-06
-1.21999e-08
1.53208e-08
1.13917e-06
-1.03585e-08
1.36143e-08
1.13437e-06
-8.99773e-09
1.22425e-08
1.13018e-06
-7.97482e-09
1.11427e-08
1.12659e-06
-7.19908e-09
1.02589e-08
1.12357e-06
-6.61173e-09
9.52438e-09
1.12114e-06
-6.14998e-09
8.86923e-09
1.1193e-06
-5.76027e-09
8.22575e-09
1.11806e-06
-5.37169e-09
7.50025e-09
1.11735e-06
-4.88135e-09
6.55393e-09
1.11673e-06
-4.06632e-09
5.23442e-09
1.11522e-06
-2.44808e-09
3.4144e-09
1.87587e-09
8.93421e-10
9.23616e-07
-7.40296e-09
7.03382e-09
9.25317e-07
-2.07009e-08
1.98498e-08
9.17182e-07
-1.87302e-08
2.27967e-08
9.04271e-07
-1.58488e-08
2.2302e-08
8.90528e-07
-1.37518e-08
2.06203e-08
8.77399e-07
-1.12937e-08
1.78517e-08
8.65423e-07
-8.71629e-09
1.4694e-08
8.54734e-07
-6.85171e-09
1.21795e-08
8.45276e-07
-5.62278e-09
1.03231e-08
8.36901e-07
-4.79888e-09
8.93628e-09
8.29424e-07
-4.2203e-09
7.87031e-09
8.22658e-07
-3.79371e-09
7.02747e-09
8.16501e-07
-3.49369e-09
6.33879e-09
8.10941e-07
-3.29228e-09
5.71937e-09
8.0601e-07
-3.16094e-09
5.07947e-09
8.01701e-07
-3.04653e-09
4.29752e-09
7.98046e-07
-2.91102e-09
3.24272e-09
7.9445e-07
-2.38262e-09
1.66859e-09
7.88342e-07
7.33967e-11
-8.61524e-10
1.06266e-08
-4.883e-09
6.3138e-07
3.58751e-09
6.14563e-07
2.26454e-08
5.86444e-07
2.43754e-08
5.61723e-07
1.88539e-08
5.39612e-07
1.55674e-08
5.20628e-07
1.35067e-08
5.04677e-07
1.19455e-08
4.90914e-07
1.07888e-08
4.78676e-07
9.92864e-09
4.67568e-07
9.20517e-09
4.57345e-07
8.55716e-09
4.47852e-07
7.95789e-09
4.38957e-07
7.39225e-09
4.30552e-07
6.8366e-09
4.22547e-07
6.24487e-09
4.15006e-07
5.49539e-09
4.08062e-07
4.45841e-09
4.02257e-07
2.6565e-09
3.99856e-07
-1.30392e-09
-8.79541e-09
8.90375e-07
6.33235e-09
2.85262e-09
8.82486e-07
1.71257e-08
1.34086e-08
8.7036e-07
1.86355e-08
1.78673e-08
8.55114e-07
1.71464e-08
1.69552e-08
8.39986e-07
1.53591e-08
1.53393e-08
8.25543e-07
1.37882e-08
1.41676e-08
8.11784e-07
1.23397e-08
1.33749e-08
7.98806e-07
1.11163e-08
1.26674e-08
7.8676e-07
1.01292e-08
1.18728e-08
7.75664e-07
9.33067e-09
1.10178e-08
7.65392e-07
8.71657e-09
1.01937e-08
7.55813e-07
8.25203e-09
9.41505e-09
7.46843e-07
7.88525e-09
8.68061e-09
7.38472e-07
7.56396e-09
7.9621e-09
7.30801e-07
7.22679e-09
7.19271e-09
7.24125e-07
6.75355e-09
6.21388e-09
7.18956e-07
5.94474e-09
4.81176e-09
7.15811e-07
4.36395e-09
2.61474e-09
7.15416e-07
1.63922e-09
-7.58865e-10
-4.74557e-09
-8.17852e-09
1.1589e-06
6.10253e-09
5.28151e-09
1.1657e-06
1.61826e-08
1.39992e-08
1.16844e-06
2.07059e-08
1.79788e-08
1.16661e-06
2.21036e-08
1.91803e-08
1.16221e-06
2.15037e-08
1.88781e-08
1.15655e-06
1.9767e-08
1.75483e-08
1.15048e-06
1.74204e-08
1.56888e-08
1.14459e-06
1.53207e-08
1.389e-08
1.13917e-06
1.36141e-08
1.22899e-08
1.13437e-06
1.22422e-08
1.08926e-08
1.13018e-06
1.11424e-08
9.73543e-09
1.12659e-06
1.02586e-08
8.78462e-09
1.12358e-06
9.52393e-09
7.98613e-09
1.12114e-06
8.86851e-09
7.28127e-09
1.1193e-06
8.22492e-09
6.60012e-09
1.11806e-06
7.4994e-09
5.86987e-09
1.11735e-06
6.55314e-09
4.98393e-09
1.11673e-06
5.23364e-09
3.81562e-09
1.11522e-06
3.4159e-09
2.1949e-09
9.15662e-10
-4.87558e-10
1.37712e-06
4.57727e-09
4.57762e-09
1.38565e-06
1.1917e-08
1.1918e-08
1.39417e-06
1.64468e-08
1.64486e-08
1.40126e-06
1.85602e-08
1.85632e-08
1.40641e-06
1.89289e-08
1.89338e-08
1.40951e-06
1.82194e-08
1.82269e-08
1.41093e-06
1.67112e-08
1.67235e-08
1.41151e-06
1.5035e-08
1.50544e-08
1.41179e-06
1.34855e-08
1.35171e-08
1.41202e-06
1.21389e-08
1.21894e-08
1.41239e-06
1.09838e-08
1.10648e-08
1.413e-06
9.99964e-09
1.01295e-08
1.41389e-06
9.15064e-09
9.36004e-09
1.41507e-06
8.39287e-09
8.72728e-09
1.41656e-06
7.68521e-09
8.20535e-09
1.41829e-06
6.98434e-09
7.77803e-09
1.42019e-06
6.22776e-09
7.42178e-09
1.42201e-06
5.38219e-09
7.11152e-09
1.42338e-06
4.44334e-09
6.80106e-09
3.64219e-09
6.47358e-09
1.53312e-06
2.36625e-09
3.64972e-09
1.54218e-06
6.23942e-09
9.63507e-09
1.55327e-06
8.87445e-09
1.3694e-08
1.56445e-06
1.03491e-08
1.59406e-08
1.57506e-06
1.09027e-08
1.69182e-08
1.58469e-06
1.07593e-08
1.69554e-08
1.59298e-06
1.01509e-08
1.63916e-08
1.60004e-06
9.34329e-09
1.54697e-08
1.60617e-06
8.47915e-09
1.43807e-08
1.61163e-06
7.67037e-09
1.33065e-08
1.61665e-06
6.9642e-09
1.2347e-08
1.6214e-06
6.36151e-09
1.15359e-08
1.62597e-06
5.84239e-09
1.08848e-08
1.63041e-06
5.3899e-09
1.03953e-08
1.63477e-06
4.99231e-09
1.00683e-08
1.63908e-06
4.64653e-09
9.9094e-09
1.64338e-06
4.34577e-09
9.93495e-09
1.64774e-06
4.08039e-09
1.01474e-08
1.65231e-06
3.82374e-09
1.04891e-08
3.6201e-09
1.07747e-08
1.61424e-06
1.90368e-13
3.09311e-09
1.62332e-06
4.59245e-13
8.27481e-09
1.63533e-06
8.10494e-13
1.19585e-08
1.6482e-06
1.4441e-12
1.41169e-08
1.66117e-06
2.5729e-12
1.52043e-08
1.67385e-06
4.22009e-12
1.55889e-08
1.68572e-06
6.95333e-12
1.54381e-08
1.69654e-06
1.11273e-11
1.497e-08
1.70627e-06
1.83504e-11
1.43021e-08
1.71507e-06
3.07259e-11
1.35376e-08
1.72312e-06
5.06678e-11
1.27683e-08
1.73057e-06
8.11186e-11
1.20654e-08
1.73758e-06
1.25271e-10
1.14815e-08
1.74429e-06
1.9142e-10
1.10469e-08
1.75073e-06
2.94334e-10
1.07744e-08
1.75692e-06
4.48342e-10
1.06695e-08
1.76291e-06
6.74327e-10
1.07446e-08
1.76877e-06
9.83838e-10
1.10004e-08
1.77457e-06
1.39793e-09
1.13729e-08
1.89112e-09
1.16968e-08
1.61424e-06
-2.36612e-09
3.09292e-09
1.62332e-06
-6.23913e-09
8.27427e-09
1.63534e-06
-8.87391e-09
1.19575e-08
1.6482e-06
-1.03481e-08
1.41149e-08
1.66118e-06
-1.09013e-08
1.52006e-08
1.67387e-06
-1.07572e-08
1.55831e-08
1.68575e-06
-1.01472e-08
1.54297e-08
1.69658e-06
-9.3369e-09
1.49576e-08
1.70633e-06
-8.46827e-09
1.42829e-08
1.71517e-06
-7.65008e-09
1.3507e-08
1.72328e-06
-6.92764e-09
1.27188e-08
1.73081e-06
-6.3006e-09
1.19849e-08
1.73794e-06
-5.74996e-09
1.13515e-08
1.74481e-06
-5.25297e-09
1.08398e-08
1.7515e-06
-4.77999e-09
1.04503e-08
1.75804e-06
-4.31243e-09
1.01842e-08
1.76447e-06
-3.81992e-09
1.00291e-08
1.77085e-06
-3.27535e-09
9.96843e-09
1.77723e-06
-2.63044e-09
9.96241e-09
-1.8519e-09
9.94638e-09
1.53312e-06
-4.57761e-09
3.64929e-09
1.54218e-06
-1.1918e-08
9.63385e-09
1.55328e-06
-1.64486e-08
1.36917e-08
1.56446e-06
-1.85632e-08
1.59365e-08
1.57508e-06
-1.89338e-08
1.69113e-08
1.58472e-06
-1.82269e-08
1.69445e-08
1.59302e-06
-1.67235e-08
1.6375e-08
1.6001e-06
-1.50543e-08
1.54431e-08
1.60626e-06
-1.3517e-08
1.43394e-08
1.61178e-06
-1.21893e-08
1.3242e-08
1.61689e-06
-1.10646e-08
1.22436e-08
1.62178e-06
-1.01292e-08
1.13698e-08
1.62655e-06
-9.35978e-09
1.06156e-08
1.63131e-06
-8.72712e-09
9.96343e-09
1.63612e-06
-8.20514e-09
9.39057e-09
1.64103e-06
-7.77741e-09
8.86778e-09
1.64607e-06
-7.42059e-09
8.36449e-09
1.65125e-06
-7.1093e-09
7.8451e-09
1.65658e-06
-6.7961e-09
7.31272e-09
-6.46065e-09
6.81817e-09
1.37712e-06
-6.10289e-09
4.57729e-09
1.38565e-06
-1.6184e-08
1.19171e-08
1.39417e-06
-2.07088e-08
1.64469e-08
1.40126e-06
-2.21084e-08
1.85603e-08
1.40641e-06
-2.15108e-08
1.8929e-08
1.40951e-06
-1.97771e-08
1.82195e-08
1.41093e-06
-1.74369e-08
1.67114e-08
1.41151e-06
-1.53493e-08
1.50352e-08
1.41179e-06
-1.36626e-08
1.34858e-08
1.41202e-06
-1.23225e-08
1.21392e-08
1.41239e-06
-1.12748e-08
1.09841e-08
1.413e-06
-1.04744e-08
9.99995e-09
1.41389e-06
-9.8759e-09
9.15098e-09
1.41507e-06
-9.43979e-09
8.39335e-09
1.41656e-06
-9.14692e-09
7.68555e-09
1.41829e-06
-8.99861e-09
6.98412e-09
1.42019e-06
-8.9864e-09
6.22658e-09
1.42202e-06
-9.0849e-09
5.37926e-09
1.42339e-06
-9.18565e-09
4.43642e-09
-9.74216e-09
3.62555e-09
1.1589e-06
-6.33245e-09
5.28137e-09
1.16569e-06
-1.71264e-08
1.39989e-08
1.16844e-06
-1.86373e-08
1.79785e-08
1.1666e-06
-1.71494e-08
1.91798e-08
1.1622e-06
-1.53634e-08
1.88772e-08
1.15652e-06
-1.3794e-08
1.75464e-08
1.15044e-06
-1.23491e-08
1.56865e-08
1.14452e-06
-1.11329e-08
1.38882e-08
1.13905e-06
-1.01562e-08
1.22858e-08
1.13415e-06
-9.37503e-09
1.08846e-08
1.12982e-06
-8.7911e-09
9.72129e-09
1.12599e-06
-8.38125e-09
8.75743e-09
1.12263e-06
-8.109e-09
7.93507e-09
1.11966e-06
-7.94599e-09
7.19937e-09
1.11699e-06
-7.88841e-09
6.4872e-09
1.11451e-06
-7.96434e-09
5.74238e-09
1.11209e-06
-8.21894e-09
4.90064e-09
1.10946e-06
-8.6888e-09
3.90158e-09
1.10602e-06
-9.26754e-09
2.65707e-09
-1.52599e-08
1.72364e-09
8.90374e-07
2.85259e-09
8.82485e-07
1.34085e-08
8.70356e-07
1.78673e-08
8.55105e-07
1.69552e-08
8.39969e-07
1.53401e-08
8.25512e-07
1.41698e-08
8.11729e-07
1.33793e-08
7.98711e-07
1.26743e-08
7.86598e-07
1.18851e-08
7.7539e-07
1.10382e-08
7.6493e-07
1.02263e-08
7.55038e-07
9.469e-09
7.45545e-07
8.77573e-09
7.363e-07
8.13605e-09
7.27146e-07
7.50997e-09
7.17855e-07
6.82223e-09
7.08093e-07
6.00119e-09
6.97146e-07
4.91534e-09
6.83383e-07
3.19158e-09
4.42877e-09
1.07432e-06
5.56893e-09
1.06471e-09
1.06824e-06
1.39004e-08
5.58623e-09
1.06138e-06
1.62618e-08
8.46349e-09
1.05339e-06
1.59083e-08
9.03889e-09
1.04511e-06
1.50004e-08
8.6158e-09
1.03723e-06
1.39305e-08
8.1163e-09
1.02986e-06
1.29728e-08
7.7786e-09
1.02287e-06
1.21077e-08
7.54001e-09
1.01607e-06
1.13332e-08
7.34339e-09
1.00938e-06
1.06708e-08
7.0412e-09
1.00284e-06
1.01614e-08
6.57313e-09
9.96449e-07
9.77232e-09
6.0296e-09
9.90201e-07
9.46997e-09
5.45951e-09
9.84093e-07
9.22735e-09
4.84244e-09
9.78144e-07
9.00273e-09
4.13871e-09
9.72396e-07
8.73583e-09
3.22707e-09
9.66903e-07
8.3506e-09
1.9536e-09
9.61657e-07
7.76556e-09
9.5181e-11
9.56352e-07
6.99257e-09
-2.44555e-09
5.79121e-09
-6.15509e-09
1.32763e-06
4.93111e-09
2.71819e-09
1.33539e-06
1.3009e-08
7.12079e-09
1.34287e-06
1.72158e-08
9.55333e-09
1.34848e-06
1.88989e-08
1.05776e-08
1.35198e-06
1.95003e-08
1.0874e-08
1.35377e-06
1.91136e-08
1.0578e-08
1.35445e-06
1.80981e-08
9.88699e-09
1.3546e-06
1.68068e-08
9.03741e-09
1.35459e-06
1.54565e-08
8.17832e-09
1.35457e-06
1.42196e-08
7.36472e-09
1.35462e-06
1.32209e-08
6.62742e-09
1.35479e-06
1.24241e-08
5.95516e-09
1.35513e-06
1.17804e-08
5.33589e-09
1.35567e-06
1.1246e-08
4.7313e-09
1.35643e-06
1.07737e-08
4.06866e-09
1.35743e-06
1.03113e-08
3.2914e-09
1.35864e-06
9.8027e-09
2.32429e-09
1.35995e-06
9.19427e-09
1.07642e-09
1.36121e-06
8.47114e-09
-5.4676e-10
7.59076e-09
-2.62627e-09
1.53312e-06
3.64928e-09
2.36612e-09
1.54218e-06
9.63381e-09
6.23914e-09
1.55328e-06
1.36916e-08
8.87392e-09
1.56446e-06
1.59364e-08
1.03481e-08
1.57508e-06
1.69112e-08
1.09013e-08
1.58472e-06
1.69443e-08
1.07572e-08
1.59302e-06
1.63748e-08
1.01473e-08
1.6001e-06
1.54428e-08
9.33692e-09
1.60626e-06
1.43391e-08
8.46829e-09
1.61178e-06
1.32417e-08
7.65012e-09
1.6169e-06
1.22432e-08
6.9277e-09
1.62178e-06
1.13693e-08
6.30069e-09
1.62655e-06
1.06151e-08
5.75008e-09
1.63131e-06
9.96284e-09
5.25317e-09
1.63612e-06
9.39006e-09
4.78032e-09
1.64103e-06
8.86747e-09
4.31298e-09
1.64607e-06
8.36455e-09
3.82087e-09
1.65125e-06
7.84611e-09
3.27705e-09
1.65657e-06
7.31597e-09
2.63376e-09
6.82665e-09
1.85859e-09
1.68027e-06
1.8911e-09
1.89128e-09
1.68934e-06
5.09947e-09
5.10003e-09
1.7018e-06
7.46443e-09
7.46546e-09
1.71578e-06
8.94631e-09
8.94802e-09
1.73022e-06
9.69327e-09
9.69602e-09
1.74439e-06
9.86113e-09
9.86553e-09
1.75785e-06
9.6524e-09
9.65912e-09
1.77035e-06
9.19917e-09
9.20923e-09
1.78183e-06
8.61335e-09
8.62811e-09
1.79238e-06
7.98811e-09
8.01002e-09
1.80216e-06
7.38735e-09
7.42092e-09
1.81133e-06
6.8419e-09
6.89493e-09
1.82002e-06
6.35988e-09
6.44566e-09
1.82837e-06
5.93727e-09
6.07544e-09
1.83648e-06
5.56474e-09
5.77975e-09
1.84448e-06
5.23454e-09
5.54808e-09
1.85247e-06
4.9391e-09
5.3729e-09
1.86057e-06
4.65318e-09
5.24028e-09
1.86889e-06
4.37071e-09
5.11286e-09
4.12858e-09
4.90946e-09
1.7569e-06
2.75751e-14
1.61343e-09
1.76589e-06
1.35174e-14
4.38467e-09
1.77878e-06
-7.56061e-15
6.53276e-09
1.79389e-06
-2.87424e-14
7.95264e-09
1.81003e-06
-6.85441e-14
8.7581e-09
1.82639e-06
-1.39784e-13
9.08921e-09
1.84241e-06
-1.80413e-13
9.07714e-09
1.85773e-06
9.65945e-14
8.84314e-09
1.87217e-06
8.32467e-13
8.47266e-09
1.88566e-06
2.10612e-12
8.03247e-09
1.89824e-06
3.75506e-12
7.57487e-09
1.91e-06
5.35724e-12
7.13865e-09
1.92109e-06
6.10919e-12
6.75073e-09
1.93164e-06
5.73739e-12
6.42894e-09
1.94179e-06
6.33433e-12
6.18563e-09
1.95165e-06
1.45507e-11
6.02732e-09
1.96134e-06
3.69335e-11
5.95187e-09
1.97097e-06
7.85267e-11
5.94531e-09
1.98061e-06
1.41368e-10
5.96416e-09
2.28707e-10
5.9044e-09
1.7569e-06
-1.89128e-09
1.61329e-09
1.76589e-06
-5.10002e-09
4.38427e-09
1.77878e-06
-7.46546e-09
6.532e-09
1.79389e-06
-8.94802e-09
7.95132e-09
1.81003e-06
-9.69603e-09
8.75595e-09
1.8264e-06
-9.86554e-09
9.08589e-09
1.84241e-06
-9.65914e-09
9.07227e-09
1.85774e-06
-9.20925e-09
8.83598e-09
1.87219e-06
-8.62814e-09
8.46195e-09
1.8857e-06
-8.01005e-09
8.01615e-09
1.89829e-06
-7.42095e-09
7.54967e-09
1.91008e-06
-6.89496e-09
7.09942e-09
1.92119e-06
-6.44568e-09
6.68947e-09
1.93178e-06
-6.07549e-09
6.33339e-09
1.94198e-06
-5.77983e-09
6.03816e-09
1.95192e-06
-5.54821e-09
5.80849e-09
1.96171e-06
-5.37314e-09
5.64021e-09
1.97148e-06
-5.24075e-09
5.51841e-09
1.98129e-06
-5.11383e-09
5.41573e-09
-4.91153e-09
5.30891e-09
1.68027e-06
-3.64972e-09
1.89112e-09
1.68934e-06
-9.63506e-09
5.09952e-09
1.7018e-06
-1.3694e-08
7.46451e-09
1.71578e-06
-1.59406e-08
8.94643e-09
1.73022e-06
-1.69182e-08
9.69342e-09
1.74439e-06
-1.69554e-08
9.86133e-09
1.75785e-06
-1.63916e-08
9.65265e-09
1.77035e-06
-1.54697e-08
9.19948e-09
1.78183e-06
-1.43806e-08
8.61371e-09
1.79238e-06
-1.33064e-08
7.98853e-09
1.80216e-06
-1.23469e-08
7.38784e-09
1.81133e-06
-1.15357e-08
6.84244e-09
1.82002e-06
-1.08847e-08
6.36049e-09
1.82837e-06
-1.03952e-08
5.93794e-09
1.83648e-06
-1.00682e-08
5.56539e-09
1.84448e-06
-9.90914e-09
5.23506e-09
1.85246e-06
-9.93455e-09
4.93945e-09
1.86056e-06
-1.0147e-08
4.65312e-09
1.86888e-06
-1.04892e-08
4.36998e-09
-1.07772e-08
4.1269e-09
1.53312e-06
-4.93141e-09
2.36627e-09
1.54218e-06
-1.30099e-08
6.23947e-09
1.55327e-06
-1.72177e-08
8.87452e-09
1.56445e-06
-1.89035e-08
1.03492e-08
1.57506e-06
-1.95084e-08
1.09029e-08
1.58469e-06
-1.91261e-08
1.07595e-08
1.59298e-06
-1.81174e-08
1.01511e-08
1.60004e-06
-1.68373e-08
9.34355e-09
1.60617e-06
-1.55035e-08
8.47946e-09
1.61163e-06
-1.42963e-08
7.67073e-09
1.61665e-06
-1.33528e-08
6.96459e-09
1.6214e-06
-1.26448e-08
6.36192e-09
1.62596e-06
-1.21415e-08
5.8428e-09
1.63041e-06
-1.18335e-08
5.39034e-09
1.63476e-06
-1.17338e-08
4.99268e-09
1.63908e-06
-1.18836e-08
4.64653e-09
1.64337e-06
-1.23482e-08
4.34527e-09
1.64772e-06
-1.31985e-08
4.07906e-09
1.65229e-06
-1.44379e-08
3.82135e-09
-1.59223e-08
3.61726e-09
1.32762e-06
-5.56893e-09
2.71851e-09
1.33539e-06
-1.39005e-08
7.12166e-09
1.34286e-06
-1.62626e-08
9.5549e-09
1.34847e-06
-1.59108e-08
1.05806e-08
1.35196e-06
-1.50052e-08
1.08796e-08
1.35373e-06
-1.39378e-08
1.05874e-08
1.35438e-06
-1.29837e-08
9.90272e-09
1.3545e-06
-1.21255e-08
9.06357e-09
1.35442e-06
-1.13629e-08
8.22244e-09
1.35428e-06
-1.07217e-08
7.44439e-09
1.35413e-06
-1.02491e-08
6.76657e-09
1.35399e-06
-9.92509e-09
6.18515e-09
1.35383e-06
-9.73219e-09
5.68784e-09
1.35359e-06
-9.67812e-09
5.27634e-09
1.35319e-06
-9.78804e-09
4.94893e-09
1.35246e-06
-1.01264e-08
4.71367e-09
1.35127e-06
-1.08534e-08
4.59327e-09
1.34956e-06
-1.22213e-08
4.63714e-09
1.34739e-06
-1.44664e-08
4.85781e-09
-2.02518e-08
5.52732e-09
1.07432e-06
1.06502e-09
1.06824e-06
5.58735e-09
1.06138e-06
8.46562e-09
1.05338e-06
9.04251e-09
1.04509e-06
8.62253e-09
1.03719e-06
8.12876e-09
1.02979e-06
7.80088e-09
1.02276e-06
7.57833e-09
1.01587e-06
7.4097e-09
1.00904e-06
7.15149e-09
1.00226e-06
6.75359e-09
9.95479e-07
6.32376e-09
9.88579e-07
5.94407e-09
9.81388e-07
5.64883e-09
9.73638e-07
5.47242e-09
9.64872e-07
5.46145e-09
9.54295e-07
5.72485e-09
9.40551e-07
6.43862e-09
9.2121e-07
8.06592e-09
1.31999e-08
1.16914e-06
4.90661e-09
-1.38892e-13
1.16312e-06
1.16087e-08
-6.6901e-13
1.15731e-06
1.42759e-08
-1.5539e-12
1.15202e-06
1.4334e-08
-2.78262e-12
1.14691e-06
1.37303e-08
-4.78316e-12
1.14207e-06
1.29686e-08
-8.35517e-12
1.13776e-06
1.20992e-08
-1.47166e-11
1.13402e-06
1.13051e-08
-2.51571e-11
1.13076e-06
1.06441e-08
-4.27118e-11
1.1277e-06
1.0179e-08
-7.16897e-11
1.12451e-06
9.87639e-09
-1.19425e-10
1.12108e-06
9.6578e-09
-1.97981e-10
1.11735e-06
9.51968e-09
-3.28114e-10
1.11326e-06
9.47293e-09
-5.43408e-10
1.10877e-06
9.52114e-09
-8.86562e-10
1.1038e-06
9.64445e-09
-1.44854e-09
1.09828e-06
9.84017e-09
-2.37015e-09
1.09211e-06
1.01219e-08
-3.85034e-09
1.08543e-06
1.0475e-08
-6.24596e-09
1.08629e-08
-1.08991e-08
1.41518e-06
4.19298e-09
-2.64713e-13
1.42279e-06
1.11163e-08
-7.64598e-13
1.43152e-06
1.50992e-08
-1.31933e-12
1.43981e-06
1.66302e-08
-2.42715e-12
1.44714e-06
1.72764e-08
-4.50748e-12
1.45318e-06
1.75108e-08
-7.87741e-12
1.45803e-06
1.7154e-08
-1.29708e-11
1.46195e-06
1.64376e-08
-2.12333e-11
1.46526e-06
1.55494e-08
-3.56424e-11
1.4682e-06
1.46649e-08
-6.15605e-11
1.47096e-06
1.38461e-08
-1.05062e-10
1.47362e-06
1.31344e-08
-1.7529e-10
1.47615e-06
1.26048e-08
-2.81168e-10
1.47853e-06
1.22653e-08
-4.44823e-10
1.48076e-06
1.20641e-08
-7.02503e-10
1.48283e-06
1.19634e-08
-1.09949e-09
1.48473e-06
1.19656e-08
-1.69411e-09
1.48641e-06
1.20847e-08
-2.56721e-09
1.48783e-06
1.23145e-08
-3.80258e-09
1.26147e-08
-5.43574e-09
1.61424e-06
3.09291e-09
-1.87497e-13
1.62332e-06
8.27423e-09
-4.57298e-13
1.63534e-06
1.19574e-08
-8.08816e-13
1.6482e-06
1.41148e-08
-1.44248e-12