/*--------------------------------*- C++ -*----------------------------------*\
| =========                 |                                                 |
| \\      /  F ield         | OpenFOAM: The Open Source CFD Toolbox           |
|  \\    /   O peration     | Version:  2212                                  |
|   \\  /    A nd           | Website:  www.openfoam.com                      |
|    \\/     M anipulation  |                                                 |
\*---------------------------------------------------------------------------*/
FoamFile
{
    version     2.0;
    format      ascii;
    arch        "LSB;label=32;scalar=64";
    class       volVectorField;
    location    "2";
    object      U;
}
// * * * * * * * * * * * * * * * * * * * * * * * * * * * * * * * * * * * * * //

dimensions      [0 1 -1 0 0 0 0];

internalField   nonuniform List<vector> 
6840
(
(0.0956456 -0.00836006 -0.00836005)
(0.0904939 0.00152198 0.00152208)
(0.0790683 0.00242963 0.00242982)
(0.0713012 0.00148754 0.00148793)
(0.0661794 0.000830087 0.000830814)
(0.0623226 0.000563 0.000564177)
(0.0592208 0.00042487 0.000427425)
(0.056685 0.000321439 0.000325806)
(0.05455 0.000248964 0.000256096)
(0.0526979 0.000195924 0.00020761)
(0.0510603 0.000155 0.000174793)
(0.0495998 0.000121373 0.000154196)
(0.048285 8.97769e-05 0.000142259)
(0.0470895 5.59602e-05 0.000138112)
(0.0460019 1.6809e-05 0.000142178)
(0.0450325 -1.41771e-05 0.000158857)
(0.0442143 -0.00010108 0.000198949)
(0.0436615 -0.000268762 0.000249662)
(0.0438702 -0.000541318 0.000262336)
(0.0427215 -0.00296838 -0.00147371)
(0.0999088 0.00129699 0.000712571)
(0.0969668 0.0036558 0.0027473)
(0.0935345 0.00264009 0.00211825)
(0.089589 0.00182022 0.0016208)
(0.0858316 0.00152836 0.00139086)
(0.0825892 0.00135062 0.00116164)
(0.0798637 0.00117819 0.000897867)
(0.0775642 0.00103858 0.000693379)
(0.0755528 0.000939518 0.00056251)
(0.0737426 0.000860058 0.000483185)
(0.0720863 0.000783536 0.000439104)
(0.0705537 0.000703882 0.000416388)
(0.069123 0.000625462 0.00040605)
(0.0677772 0.000546887 0.000404049)
(0.0665008 0.000454414 0.000411227)
(0.0652904 0.00031302 0.000425487)
(0.0641585 0.000114362 0.000450888)
(0.0631366 -0.000208442 0.000455092)
(0.0624368 -0.0008948 0.000333569)
(0.0611144 -0.00300883 -0.000496078)
(0.099413 0.000345217 0.000270237)
(0.0988664 0.00201898 0.00187495)
(0.0979213 0.00257303 0.00218912)
(0.0963656 0.0023797 0.00190856)
(0.0946328 0.00211388 0.00162689)
(0.0929711 0.00192643 0.0014189)
(0.0913621 0.00180103 0.00127157)
(0.0898505 0.00170479 0.00116059)
(0.0884487 0.00160381 0.00107075)
(0.0871483 0.00149268 0.000999631)
(0.0859404 0.00138088 0.000952295)
(0.0848084 0.00127464 0.000927011)
(0.0837309 0.00117283 0.000919537)
(0.0826891 0.00106989 0.000926825)
(0.0816662 0.000958184 0.000948765)
(0.0806425 0.000826643 0.000989842)
(0.0795868 0.00065582 0.00106072)
(0.0784348 0.000403563 0.00116766)
(0.0771085 -7.66537e-05 0.00130089)
(0.0755832 -0.000363969 0.00270199)
(0.0995405 0.000245037 0.000321903)
(0.0992576 0.00105559 0.00154095)
(0.0988488 0.00150231 0.00211456)
(0.0981245 0.0015794 0.0020918)
(0.0973363 0.00151484 0.00188639)
(0.0965838 0.00144653 0.00166626)
(0.0958635 0.00141033 0.00149848)
(0.0951944 0.00137928 0.00137232)
(0.0945631 0.00133392 0.00128646)
(0.0939136 0.00126305 0.0012328)
(0.0932776 0.0011734 0.00119879)
(0.0926505 0.00107762 0.00118152)
(0.0920192 0.000986307 0.00117825)
(0.0913692 0.000903616 0.00118968)
(0.0906811 0.000828982 0.0012195)
(0.0899239 0.00075868 0.00127608)
(0.0890468 0.000693398 0.00138083)
(0.0879368 0.000633393 0.00156833)
(0.0864363 0.000602343 0.00185556)
(0.0847251 0.000970268 0.0025216)
(0.0993802 3.37878e-05 5.89947e-05)
(0.0992677 0.00027445 0.00120008)
(0.0989804 0.000432504 0.00188853)
(0.0984746 0.000483682 0.00200651)
(0.0979954 0.000479203 0.00191474)
(0.0975705 0.000466123 0.00173485)
(0.0971804 0.000453879 0.00154742)
(0.0968301 0.000444063 0.00138878)
(0.096529 0.000439072 0.00127053)
(0.0962728 0.000433174 0.00120047)
(0.0959955 0.000419321 0.00117411)
(0.0956966 0.000401016 0.00117382)
(0.0953722 0.000385545 0.00118627)
(0.0950068 0.000379832 0.00120912)
(0.0945858 0.000393329 0.00124879)
(0.0940943 0.000437338 0.00131234)
(0.0935088 0.000528207 0.0014051)
(0.0927935 0.000691918 0.00154678)
(0.0918767 0.000997494 0.00173799)
(0.091047 0.00177246 0.00201934)
(0.0993801 -3.37502e-05 5.89351e-05)
(0.0992677 -0.000274259 0.00120003)
(0.0989804 -0.000432094 0.0018885)
(0.0984748 -0.000482962 0.00200644)
(0.0979959 -0.000477955 0.00191456)
(0.0975716 -0.000463909 0.00173447)
(0.0971824 -0.000449937 0.00154684)
(0.0968335 -0.00043729 0.0013878)
(0.0965348 -0.000427579 0.00126869)
(0.0962826 -0.000413887 0.00119716)
(0.0960122 -0.000387223 0.0011685)
(0.0957249 -0.000348017 0.00116448)
(0.0954204 -0.00029815 0.0011705)
(0.0950892 -0.000235408 0.0011821)
(0.0947242 -0.000157618 0.00120244)
(0.0943218 -5.14405e-05 0.00123319)
(0.0938773 0.000105912 0.0012738)
(0.0933839 0.000342497 0.00132641)
(0.0928076 0.000689966 0.00139469)
(0.0921977 0.00122263 0.0014648)
(0.0995405 -0.000245022 0.000321902)
(0.0992576 -0.00105552 0.00154095)
(0.098849 -0.00150218 0.00211444)
(0.0981251 -0.00157915 0.00209159)
(0.0973377 -0.00151427 0.00188606)
(0.0965865 -0.00144535 0.00166575)
(0.0958681 -0.00140823 0.00149786)
(0.0952024 -0.00137578 0.00137127)
(0.0945771 -0.00132778 0.00128417)
(0.0939375 -0.00125315 0.00122775)
(0.093318 -0.00115789 0.00118906)
(0.0927188 -0.00105307 0.0011635)
(0.0921339 -0.00094545 0.00114841)
(0.0915611 -0.000834177 0.00114059)
(0.0910012 -0.000712837 0.0011339)
(0.090457 -0.000560462 0.00112131)
(0.0899318 -0.000352496 0.00109422)
(0.0894309 -4.47936e-05 0.00104643)
(0.0889616 0.000405977 0.000989163)
(0.0883613 0.00108116 0.000871576)
(0.099413 -0.000345237 0.000270229)
(0.0988664 -0.00201908 0.00187486)
(0.0979216 -0.00257323 0.00218887)
(0.0963662 -0.00238005 0.00190814)
(0.0946341 -0.00211442 0.0016263)
(0.0929736 -0.00192731 0.00141805)
(0.0913667 -0.00180232 0.00127018)
(0.0898584 -0.00170687 0.00115825)
(0.0884624 -0.00160728 0.00106697)
(0.0871713 -0.00149841 0.00099341)
(0.0859793 -0.0013904 0.000942494)
(0.0848743 -0.00129009 0.000910023)
(0.0838414 -0.00119693 0.000890065)
(0.0828742 -0.001106 0.000876164)
(0.0819761 -0.0010106 0.000860741)
(0.0811665 -0.00089881 0.000829427)
(0.0804911 -0.000746654 0.000764711)
(0.0800112 -0.000501107 0.000603045)
(0.0798245 -6.69446e-06 0.000320036)
(0.0790549 0.00132303 -0.000464713)
(0.0999088 -0.00129701 0.000712553)
(0.0969668 -0.00365595 0.0027472)
(0.0935346 -0.00264034 0.00211804)
(0.0895893 -0.00182065 0.0016204)
(0.0858321 -0.00152926 0.0013903)
(0.0825901 -0.00135203 0.00116061)
(0.0798653 -0.00118076 0.000896141)
(0.0775673 -0.001043 0.000690612)
(0.0755584 -0.000947088 0.00055791)
(0.0737524 -0.00087306 0.000475444)
(0.072104 -0.000805906 0.000424176)
(0.0705856 -0.000741123 0.000390523)
(0.0691794 -0.000685472 0.000367859)
(0.0678733 -0.000644011 0.000354492)
(0.066661 -0.00061732 0.00034247)
(0.0655612 -0.000596738 0.000299644)
(0.064639 -0.000568872 0.000215019)
(0.0640495 -0.000468203 -2.51838e-05)
(0.0642826 -0.000367986 -0.000359434)
(0.0620455 6.01765e-06 -0.00102307)
(0.0956456 0.00836005 -0.00836006)
(0.0904939 -0.00152208 0.00152199)
(0.0790683 -0.00242981 0.00242963)
(0.0713012 -0.00148792 0.00148755)
(0.0661794 -0.0008308 0.0008301)
(0.0623226 -0.000564159 0.000563018)
(0.0592208 -0.000427398 0.000424897)
(0.0566849 -0.000325772 0.000321473)
(0.05455 -0.000256057 0.000249005)
(0.0526979 -0.000207564 0.000195974)
(0.0510602 -0.000174738 0.000155061)
(0.0495998 -0.000154132 0.000121453)
(0.048285 -0.000142178 8.98713e-05)
(0.0470894 -0.000138026 5.60966e-05)
(0.0460019 -0.000142067 1.69468e-05)
(0.0450325 -0.000158662 -1.39891e-05)
(0.0442143 -0.000198665 -0.000100802)
(0.0436615 -0.0002492 -0.000268359)
(0.0438701 -0.000261533 -0.000540531)
(0.0427214 0.0014749 -0.00296495)
(0.0999088 0.000712552 0.00129701)
(0.0969668 0.0027472 0.00365596)
(0.0935346 0.00211804 0.00264035)
(0.0895893 0.0016204 0.00182067)
(0.0858321 0.00139029 0.00152928)
(0.0825901 0.0011606 0.00135205)
(0.0798654 0.000896129 0.00118079)
(0.0775673 0.000690596 0.00104304)
(0.0755585 0.000557889 0.00094713)
(0.0737524 0.000475416 0.000873111)
(0.0721041 0.000424134 0.000805968)
(0.0705857 0.000390466 0.000741199)
(0.0691795 0.000367791 0.00068557)
(0.0678735 0.000354426 0.000644157)
(0.0666611 0.000342346 0.000617524)
(0.0655614 0.000299445 0.000597012)
(0.0646393 0.000214727 0.000569175)
(0.0640502 -2.56553e-05 0.000468708)
(0.0642843 -0.000360058 0.000368888)
(0.0620466 -0.00102359 -4.61143e-06)
(0.100226 0.000720796 0.000720831)
(0.09996 0.00198269 0.00198284)
(0.0997822 0.00245172 0.0024521)
(0.0987881 0.00241941 0.00242005)
(0.0972754 0.00220046 0.00220148)
(0.0957746 0.00181076 0.00181255)
(0.0943924 0.00138116 0.00138408)
(0.0931632 0.00106805 0.00107294)
(0.0920758 0.000850367 0.000858737)
(0.0911129 0.000695351 0.000709789)
(0.0902594 0.000577883 0.000603857)
(0.0894919 0.000485252 0.000528096)
(0.0887918 0.000411581 0.000478078)
(0.0881563 0.000346184 0.000447329)
(0.0875882 0.000273083 0.000432375)
(0.0870889 0.000167674 0.000433868)
(0.0866554 7.77435e-06 0.00044709)
(0.0862646 -0.000264073 0.000448276)
(0.0857974 -0.000787788 0.000320564)
(0.0854207 -0.00193486 -0.000383688)
(0.10014 0.000774999 0.000869287)
(0.100454 0.00196236 0.00196372)
(0.100911 0.00242745 0.00233485)
(0.100978 0.0025264 0.00244181)
(0.100693 0.00242591 0.00233754)
(0.100223 0.00219685 0.0021135)
(0.0997072 0.0019157 0.00182483)
(0.0991807 0.00166434 0.00157826)
(0.098684 0.00146024 0.00139446)
(0.0982331 0.00129149 0.00125778)
(0.0978342 0.00115058 0.00115971)
(0.0974824 0.00103063 0.00109381)
(0.0971731 0.000924355 0.0010528)
(0.0969007 0.000821959 0.00103184)
(0.0966589 0.000714049 0.00103175)
(0.0964389 0.000590503 0.00105865)
(0.0962294 0.00043355 0.00111777)
(0.0960108 0.000222506 0.00121695)
(0.0957555 -6.00455e-05 0.00135059)
(0.0957657 -0.000328242 0.00159291)
(0.100093 0.000445928 0.000763224)
(0.100504 0.00119449 0.00174909)
(0.101105 0.00158683 0.00212973)
(0.101634 0.00174051 0.00223516)
(0.101979 0.00178243 0.00228794)
(0.10217 0.00172929 0.00223717)
(0.102251 0.0016086 0.00211776)
(0.102273 0.00146121 0.00196743)
(0.102273 0.00130651 0.00180643)
(0.102262 0.00115922 0.00165953)
(0.10225 0.00103302 0.00155556)
(0.102238 0.000925971 0.0014867)
(0.102226 0.000830827 0.00144553)
(0.102213 0.000744908 0.00143007)
(0.102191 0.000663597 0.00144284)
(0.102151 0.000581984 0.00149153)
(0.102079 0.000498133 0.00159045)
(0.101971 0.000413424 0.00176072)
(0.101823 0.000324068 0.00201523)
(0.10198 0.000291861 0.00234235)
(0.100087 0.000144421 0.000707036)
(0.100477 0.0003906 0.00161784)
(0.101066 0.000541298 0.00203472)
(0.101694 0.000610483 0.00211778)
(0.102269 0.000636617 0.00215054)
(0.102742 0.000627862 0.0021804)
(0.103123 0.000596503 0.00213499)
(0.103426 0.000552079 0.00204569)
(0.103678 0.000508591 0.00193725)
(0.103894 0.00046923 0.00183293)
(0.104088 0.00043157 0.00173714)
(0.104272 0.000397495 0.00165532)
(0.104444 0.000371066 0.00160391)
(0.104596 0.000354342 0.00158658)
(0.104724 0.000349029 0.00159628)
(0.104828 0.000360937 0.00162933)
(0.104904 0.000396288 0.00169972)
(0.104943 0.000462714 0.00181714)
(0.104955 0.000569703 0.00198153)
(0.105228 0.000739347 0.00217631)
(0.100087 -0.000144358 0.000707029)
(0.100477 -0.000390411 0.00161783)
(0.101066 -0.00054097 0.00203472)
(0.101694 -0.0006099 0.0021177)
(0.102269 -0.000635531 0.00215021)
(0.102742 -0.000625942 0.00217977)
(0.103125 -0.000593346 0.00213403)
(0.103429 -0.000546882 0.00204419)
(0.103682 -0.000499749 0.00193498)
(0.103901 -0.000453849 0.00182927)
(0.1041 -0.000405262 0.00173112)
(0.104291 -0.000353806 0.00164476)
(0.104476 -0.000301612 0.0015852)
(0.10465 -0.000245198 0.00155482)
(0.104812 -0.000176379 0.00154536)
(0.104965 -8.90428e-05 0.00154875)
(0.105106 2.44024e-05 0.00156626)
(0.105231 0.000175566 0.00160126)
(0.105348 0.000375801 0.00165383)
(0.105605 0.000616394 0.00171974)
(0.100093 -0.000445923 0.000763209)
(0.100504 -0.00119448 0.00174904)
(0.101105 -0.00158679 0.00212956)
(0.101635 -0.00174039 0.0022346)
(0.10198 -0.0017822 0.00228686)
(0.102172 -0.00172892 0.0022356)
(0.102254 -0.00160788 0.0021154)
(0.102279 -0.00145992 0.00196382)
(0.102283 -0.00130448 0.00180101)
(0.102278 -0.00115521 0.00165084)
(0.102276 -0.00102598 0.00154038)
(0.102284 -0.000914659 0.00146087)
(0.102303 -0.000815372 0.00140208)
(0.102336 -0.000721311 0.00135727)
(0.102383 -0.000622412 0.0013206)
(0.10245 -0.000512265 0.00128513)
(0.102533 -0.000379806 0.00124261)
(0.102629 -0.000211747 0.00118422)
(0.102741 3.2026e-06 0.00110837)
(0.10291 0.000279056 0.000998236)
(0.10014 -0.000775038 0.000869239)
(0.100454 -0.00196247 0.00196351)
(0.100911 -0.00242767 0.00233437)
(0.100978 -0.00252685 0.00244101)
(0.100694 -0.00242669 0.00233636)
(0.100225 -0.00219819 0.00211191)
(0.0997098 -0.00191779 0.00182235)
(0.0991853 -0.00166746 0.00157388)
(0.0986918 -0.00146558 0.00138699)
(0.0982469 -0.00130082 0.00124532)
(0.0978577 -0.00116577 0.00113882)
(0.0975221 -0.00105597 0.00105921)
(0.097237 -0.000966311 0.000995589)
(0.0970012 -0.000891527 0.000938131)
(0.0968161 -0.000826263 0.000878582)
(0.0966828 -0.000761432 0.00080383)
(0.0965993 -0.000684275 0.000688775)
(0.0965501 -0.000578693 0.00050023)
(0.0964917 -0.000414892 0.000209392)
(0.0964937 -6.81478e-05 -0.000268607)
(0.100226 -0.00072083 0.000720796)
(0.09996 -0.00198284 0.0019827)
(0.0997822 -0.00245209 0.00245173)
(0.0987881 -0.00242004 0.00241942)
(0.0972754 -0.00220147 0.00220048)
(0.0957745 -0.00181254 0.00181078)
(0.0943924 -0.00138406 0.00138119)
(0.0931632 -0.00107292 0.00106808)
(0.0920757 -0.000858706 0.000850404)
(0.0911129 -0.000709749 0.000695398)
(0.0902594 -0.000603803 0.000577943)
(0.0894919 -0.000528018 0.000485317)
(0.0887918 -0.00047795 0.000411627)
(0.0881563 -0.000447252 0.000346329)
(0.0875881 -0.000432286 0.00027333)
(0.0870889 -0.000433594 0.000167887)
(0.0866554 -0.000446621 8.01825e-06)
(0.0862647 -0.000447589 -0.000263743)
(0.0857977 -0.00031929 -0.000787503)
(0.0854229 0.000386985 -0.0019359)
(0.0999088 -0.000712572 0.001297)
(0.0969668 -0.00274729 0.0036558)
(0.0935345 -0.00211825 0.00264011)
(0.089589 -0.00162079 0.00182023)
(0.0858316 -0.00139086 0.00152838)
(0.0825892 -0.00116163 0.00135065)
(0.0798636 -0.000897855 0.00117822)
(0.0775642 -0.000693365 0.00103862)
(0.0755528 -0.000562494 0.000939567)
(0.0737426 -0.000483165 0.00086012)
(0.0720863 -0.000439079 0.000783613)
(0.0705537 -0.000416354 0.000703976)
(0.0691231 -0.000406011 0.000625565)
(0.0677772 -0.000403994 0.00054701)
(0.066501 -0.000411151 0.00045461)
(0.0652907 -0.000425354 0.000313287)
(0.0641589 -0.000450643 0.000114723)
(0.0631375 -0.000454715 -0.000207828)
(0.0624388 -0.000332686 -0.000894153)
(0.0611185 0.000498529 -0.00300837)
(0.099413 0.000270229 0.000345239)
(0.0988664 0.00187486 0.00201908)
(0.0979216 0.00218886 0.00257324)
(0.0963662 0.00190814 0.00238006)
(0.0946341 0.00162629 0.00211443)
(0.0929736 0.00141804 0.00192733)
(0.0913667 0.00127017 0.00180234)
(0.0898585 0.00115823 0.00170689)
(0.0884625 0.00106695 0.00160731)
(0.0871714 0.000993378 0.00149845)
(0.0859794 0.000942453 0.00139044)
(0.0848744 0.000909965 0.00129013)
(0.0838416 0.000889979 0.00119697)
(0.0828744 0.000876061 0.00110608)
(0.0819764 0.000860611 0.00101072)
(0.081167 0.000829208 0.000898925)
(0.0804919 0.000764358 0.000746743)
(0.0800125 0.000602437 0.000501105)
(0.0798267 0.00031902 6.47169e-06)
(0.0790574 -0.000466183 -0.00132364)
(0.10014 0.000869238 0.000775039)
(0.100454 0.00196351 0.00196247)
(0.100911 0.00233436 0.00242767)
(0.100978 0.002441 0.00252686)
(0.100694 0.00233635 0.0024267)
(0.100225 0.0021119 0.0021982)
(0.0997098 0.00182233 0.0019178)
(0.0991853 0.00157386 0.00166748)
(0.0986918 0.00138695 0.0014656)
(0.0982469 0.00124528 0.00130085)
(0.0978578 0.00113877 0.00116581)
(0.0975222 0.00105914 0.00105602)
(0.0972371 0.000995482 0.000966365)
(0.0970013 0.000937988 0.000891598)
(0.0968163 0.000878416 0.000826368)
(0.096683 0.00080361 0.000761574)
(0.0965994 0.000688482 0.000684483)
(0.0965502 0.000499795 0.000578984)
(0.0964919 0.000209031 0.000415529)
(0.096493 -0.000265791 7.17156e-05)
(0.10006 0.000641381 0.000641447)
(0.100502 0.00164501 0.00164522)
(0.101149 0.00221234 0.00221274)
(0.101738 0.00243987 0.00244056)
(0.102205 0.00244172 0.00244283)
(0.102501 0.0023131 0.00231483)
(0.102645 0.0020918 0.00209467)
(0.102714 0.00186783 0.0018724)
(0.10274 0.00166901 0.00167648)
(0.102754 0.00150122 0.00151345)
(0.102773 0.00136033 0.00138024)
(0.102807 0.00124115 0.00127334)
(0.102861 0.0011381 0.00118985)
(0.102936 0.00104429 0.00112707)
(0.103034 0.000951874 0.00108298)
(0.103151 0.000851299 0.00105651)
(0.103284 0.00073115 0.0010468)
(0.103422 0.000583989 0.00104969)
(0.103559 0.000403095 0.00105627)
(0.103839 0.000226973 0.0010697)
(0.100046 0.000395718 0.000540297)
(0.10048 0.00104487 0.00138426)
(0.101154 0.00147538 0.00192327)
(0.101913 0.00170531 0.00219308)
(0.102631 0.00178016 0.00229491)
(0.103301 0.00174493 0.00227956)
(0.103893 0.00163432 0.00218761)
(0.104388 0.00149171 0.00205572)
(0.104815 0.00134523 0.00190986)
(0.105191 0.00121012 0.00177326)
(0.105531 0.0010909 0.00165554)
(0.105848 0.00098746 0.00155932)
(0.106151 0.000896106 0.00148621)
(0.106445 0.000813172 0.00143664)
(0.106732 0.000736209 0.00141149)
(0.107014 0.000662738 0.00141363)
(0.107295 0.000588002 0.00144783)
(0.107577 0.000510505 0.00151479)
(0.107876 0.000430158 0.00161014)
(0.108308 0.000364743 0.00171191)
(0.100039 0.000131361 0.000478804)
(0.100448 0.000350572 0.00123488)
(0.101114 0.000505216 0.00174666)
(0.101909 0.000597422 0.00202711)
(0.102728 0.000638979 0.00215257)
(0.103529 0.000638893 0.00218716)
(0.104297 0.000605597 0.00215433)
(0.105007 0.000560986 0.00208093)
(0.105642 0.000512973 0.00198316)
(0.106214 0.000466707 0.00187745)
(0.106735 0.000425272 0.00177603)
(0.107214 0.000389713 0.00168726)
(0.107661 0.000359977 0.00161784)
(0.108085 0.000335812 0.00157138)
(0.108493 0.000317139 0.00154773)
(0.108885 0.000306137 0.00154673)
(0.109261 0.000304854 0.00157224)
(0.109627 0.000311871 0.00162673)
(0.11 0.000327171 0.00170296)
(0.110497 0.000352452 0.00178223)
(0.100039 -0.00013132 0.000478782)
(0.100448 -0.000350465 0.00123481)
(0.101114 -0.000505024 0.00174653)
(0.101909 -0.000597099 0.00202688)
(0.102729 -0.000638428 0.00215213)
(0.10353 -0.00063799 0.00218644)
(0.104299 -0.000604062 0.00215322)
(0.105009 -0.000558483 0.00207926)
(0.105645 -0.000508812 0.00198057)
(0.106219 -0.000459702 0.00187329)
(0.106743 -0.000413642 0.00176912)
(0.107226 -0.000371006 0.00167563)
(0.107679 -0.000330981 0.00159839)
(0.108111 -0.000291583 0.00153966)
(0.108531 -0.00024941 0.00149772)
(0.108942 -0.000202885 0.00147157)
(0.109344 -0.000148803 0.00145965)
(0.109739 -8.37555e-05 0.00146144)
(0.110144 -4.56474e-06 0.0014726)
(0.110633 8.25807e-05 0.00148484)
(0.100046 -0.000395739 0.00054024)
(0.10048 -0.00104493 0.00138409)
(0.101154 -0.00147549 0.00192293)
(0.101913 -0.00170545 0.00219247)
(0.102632 -0.00178044 0.00229387)
(0.103302 -0.0017454 0.00227789)
(0.103895 -0.00163511 0.00218499)
(0.104391 -0.00149295 0.00205145)
(0.10482 -0.00134723 0.00190324)
(0.105199 -0.001213 0.00176287)
(0.105543 -0.00109511 0.00163868)
(0.105868 -0.000993925 0.00153196)
(0.106182 -0.000907033 0.00144131)
(0.106492 -0.000831243 0.00136375)
(0.106804 -0.000763297 0.00129549)
(0.107121 -0.000701536 0.00123114)
(0.107445 -0.000642379 0.00116576)
(0.107778 -0.000582541 0.00109554)
(0.108133 -0.000515186 0.00101974)
(0.108569 -0.000432193 0.000947684)
(0.10006 -0.000641446 0.000641383)
(0.100502 -0.00164521 0.00164501)
(0.101149 -0.00221274 0.00221235)
(0.101738 -0.00244056 0.00243988)
(0.102205 -0.00244282 0.00244173)
(0.102501 -0.00231482 0.00231312)
(0.102645 -0.00209466 0.00209182)
(0.102714 -0.00187238 0.00186786)
(0.10274 -0.00167646 0.00166905)
(0.102754 -0.00151343 0.00150126)
(0.102773 -0.00138021 0.00136037)
(0.102807 -0.00127329 0.0012412)
(0.102861 -0.00118979 0.00113816)
(0.102936 -0.00112702 0.00104439)
(0.103033 -0.00108292 0.000951972)
(0.103151 -0.00105638 0.000851359)
(0.103284 -0.00104657 0.000731121)
(0.103422 -0.00104932 0.000583791)
(0.103559 -0.00105552 0.000402367)
(0.103839 -0.00106781 0.000224521)
(0.10014 -0.000869286 0.000775)
(0.100454 -0.00196372 0.00196236)
(0.100911 -0.00233485 0.00242746)
(0.100978 -0.00244181 0.00252641)
(0.100693 -0.00233753 0.00242593)
(0.100223 -0.00211349 0.00219687)
(0.0997072 -0.00182481 0.00191572)
(0.0991807 -0.00157824 0.00166437)
(0.0986839 -0.00139444 0.00146027)
(0.0982331 -0.00125775 0.00129154)
(0.0978342 -0.00115967 0.00115063)
(0.0974824 -0.00109375 0.00103068)
(0.0971731 -0.00105271 0.000924398)
(0.0969007 -0.00103177 0.000822052)
(0.0966589 -0.00103166 0.000714171)
(0.096439 -0.00105842 0.00059057)
(0.0962296 -0.00111737 0.000433551)
(0.0960111 -0.00121625 0.000222358)
(0.0957559 -0.0013494 -6.05795e-05)
(0.0957665 -0.00159141 -0.000329156)
(0.099413 -0.000270237 0.000345219)
(0.0988664 -0.00187494 0.00201899)
(0.0979213 -0.00218911 0.00257305)
(0.0963656 -0.00190856 0.00237972)
(0.0946328 -0.00162688 0.0021139)
(0.0929711 -0.00141889 0.00192646)
(0.0913621 -0.00127156 0.00180107)
(0.0898505 -0.00116058 0.00170483)
(0.0884487 -0.00107073 0.00160386)
(0.0871483 -0.000999604 0.00149273)
(0.0859404 -0.000952264 0.00138095)
(0.0848084 -0.000926975 0.00127472)
(0.083731 -0.000919493 0.00117292)
(0.0826892 -0.000926737 0.00106996)
(0.0816664 -0.000948616 0.000958228)
(0.0806429 -0.00098963 0.000826705)
(0.0795875 -0.00106037 0.000655906)
(0.0784361 -0.00116699 0.000403676)
(0.0771111 -0.00129962 -7.6933e-05)
(0.0755875 -0.00270072 -0.000364275)
(0.0995405 0.000321902 0.000245023)
(0.0992576 0.00154094 0.00105553)
(0.098849 0.00211444 0.00150218)
(0.0981252 0.00209158 0.00157915)
(0.0973377 0.00188605 0.00151428)
(0.0965865 0.00166574 0.00144536)
(0.0958682 0.00149785 0.00140824)
(0.0952025 0.00137125 0.0013758)
(0.0945771 0.00128416 0.0013278)
(0.0939375 0.00122772 0.00125318)
(0.0933181 0.00118903 0.00115792)
(0.0927189 0.00116346 0.0010531)
(0.092134 0.00114835 0.000945493)
(0.0915613 0.0011405 0.000834232)
(0.0910015 0.00113376 0.000712891)
(0.0904575 0.00112109 0.000560478)
(0.0899324 0.00109387 0.000352428)
(0.0894317 0.00104589 4.45783e-05)
(0.0889628 0.000988343 -0.000406469)
(0.0883628 0.000870308 -0.00108232)
(0.100093 0.000763208 0.000445924)
(0.100504 0.00174904 0.00119448)
(0.101105 0.00212956 0.00158679)
(0.101635 0.00223459 0.00174039)
(0.10198 0.00228685 0.00178221)
(0.102172 0.00223559 0.00172893)
(0.102254 0.00211538 0.00160789)
(0.102279 0.00196379 0.00145993)
(0.102283 0.00180098 0.0013045)
(0.102279 0.00165081 0.00115523)
(0.102277 0.00154033 0.00102601)
(0.102284 0.0014608 0.000914689)
(0.102304 0.00140198 0.0008154)
(0.102336 0.00135716 0.00072136)
(0.102383 0.00132048 0.000622488)
(0.10245 0.00128493 0.000512342)
(0.102533 0.00124231 0.000379895)
(0.102629 0.00118379 0.00021186)
(0.102741 0.00110786 -2.95155e-06)
(0.10291 0.000998281 -0.000278072)
(0.100046 0.000540238 0.00039574)
(0.10048 0.00138408 0.00104493)
(0.101154 0.00192292 0.0014755)
(0.101913 0.00219246 0.00170545)
(0.102632 0.00229386 0.00178044)
(0.103302 0.00227787 0.00174541)
(0.103895 0.00218497 0.00163512)
(0.104391 0.00205142 0.00149295)
(0.10482 0.0019032 0.00134724)
(0.105199 0.00176283 0.00121301)
(0.105543 0.00163863 0.00109512)
(0.105868 0.0015319 0.00099395)
(0.106182 0.00144124 0.000907063)
(0.106492 0.00136366 0.000831276)
(0.106804 0.0012954 0.000763342)
(0.107121 0.00123105 0.000701608)
(0.107445 0.0011657 0.000642498)
(0.107778 0.00109557 0.000582748)
(0.108132 0.00102006 0.000515604)
(0.108568 0.000948854 0.000433117)
(0.100036 0.000323139 0.000323184)
(0.100429 0.000868662 0.000868793)
(0.10108 0.00126237 0.00126261)
(0.101891 0.00150431 0.00150472)
(0.102756 0.00162145 0.00162211)
(0.103616 0.00164253 0.00164356)
(0.104446 0.00160432 0.00160585)
(0.105224 0.00152577 0.00152816)
(0.105938 0.00142587 0.00142957)
(0.106594 0.00132038 0.00132614)
(0.107198 0.00121954 0.00122863)
(0.107761 0.00112806 0.00114242)
(0.108291 0.00104697 0.00106965)
(0.108798 0.000975488 0.00101096)
(0.109287 0.000912064 0.000966412)
(0.109766 0.0008551 0.000935706)
(0.110241 0.000802517 0.000918661)
(0.110718 0.000749422 0.000914694)
(0.111215 0.000697457 0.000915814)
(0.11178 0.000654085 0.000905733)
(0.100031 0.000107086 0.000281411)
(0.100395 0.000293071 0.000768716)
(0.101024 0.000434123 0.00113323)
(0.101844 0.000526298 0.00136947)
(0.102751 0.000576456 0.00150185)
(0.103689 0.000591893 0.00155485)
(0.104618 0.000582551 0.00155011)
(0.105516 0.000558054 0.00150957)
(0.106367 0.000524635 0.00144654)
(0.107164 0.000487818 0.00137139)
(0.107906 0.000451835 0.00129298)
(0.108599 0.000418968 0.0012182)
(0.109248 0.000390007 0.00115202)
(0.109863 0.000364788 0.00109775)
(0.110452 0.000342663 0.00105799)
(0.111021 0.000323389 0.00103444)
(0.111576 0.000307204 0.00102715)
(0.112125 0.000293719 0.00103427)
(0.112685 0.00028226 0.00104792)
(0.113306 0.000273646 0.00104987)
(0.100031 -0.000107086 0.00028139)
(0.100395 -0.000293078 0.000768654)
(0.101024 -0.000434139 0.0011331)
(0.101844 -0.000526325 0.00136924)
(0.102751 -0.000576501 0.00150147)
(0.103689 -0.000591976 0.00155427)
(0.104618 -0.000582679 0.00154929)
(0.105516 -0.00055816 0.00150837)
(0.106368 -0.000524627 0.00144471)
(0.107165 -0.000487605 0.00136854)
(0.107908 -0.00045137 0.00128849)
(0.108602 -0.000418331 0.00121115)
(0.109253 -0.000389511 0.00114102)
(0.10987 -0.000364898 0.00108065)
(0.110461 -0.000343512 0.00103154)
(0.111033 -0.000323441 0.000994887)
(0.111594 -0.00030354 0.00097)
(0.11215 -0.000282244 0.000954332)
(0.112716 -0.000259064 0.000943065)
(0.113334 -0.000231737 0.000931365)
(0.100036 -0.000323183 0.000323141)
(0.100429 -0.000868792 0.000868668)
(0.10108 -0.00126261 0.00126238)
(0.101891 -0.00150472 0.00150432)
(0.102756 -0.00162211 0.00162147)
(0.103616 -0.00164355 0.00164256)
(0.104446 -0.00160585 0.00160435)
(0.105224 -0.00152816 0.0015258)
(0.105938 -0.00142957 0.00142591)
(0.106594 -0.00132614 0.00132043)
(0.107198 -0.00122863 0.0012196)
(0.107761 -0.00114242 0.00112812)
(0.108291 -0.00106965 0.00104704)
(0.108798 -0.00101096 0.000975557)
(0.109287 -0.00096642 0.000912119)
(0.109766 -0.000935723 0.000855118)
(0.11024 -0.000918694 0.000802491)
(0.110717 -0.00091477 0.000749287)
(0.111215 -0.000915992 0.000697123)
(0.111779 -0.000906111 0.00065341)
(0.100046 -0.000540296 0.00039572)
(0.10048 -0.00138426 0.00104488)
(0.101154 -0.00192327 0.00147539)
(0.101913 -0.00219308 0.00170532)
(0.102631 -0.0022949 0.00178018)
(0.103301 -0.00227956 0.00174495)
(0.103893 -0.0021876 0.00163434)
(0.104388 -0.00205571 0.00149174)
(0.104815 -0.00190985 0.00134527)
(0.105191 -0.00177324 0.00121017)
(0.105531 -0.00165552 0.00109094)
(0.105848 -0.00155929 0.00098751)
(0.106151 -0.00148617 0.000896155)
(0.106445 -0.0014366 0.000813224)
(0.106732 -0.00141143 0.000736237)
(0.107014 -0.00141352 0.000662696)
(0.107295 -0.00144767 0.000587846)
(0.107577 -0.00151458 0.000510164)
(0.107875 -0.00160995 0.000429539)
(0.108306 -0.00171208 0.000363854)
(0.100093 -0.000763223 0.00044593)
(0.100504 -0.00174909 0.0011945)
(0.101105 -0.00212972 0.00158684)
(0.101634 -0.00223516 0.00174052)
(0.101979 -0.00228794 0.00178245)
(0.10217 -0.00223717 0.00172931)
(0.102251 -0.00211775 0.00160863)
(0.102273 -0.00196741 0.00146124)
(0.102273 -0.00180641 0.00130655)
(0.102262 -0.00165951 0.00115927)
(0.10225 -0.00155552 0.00103308)
(0.102238 -0.00148666 0.000926024)
(0.102226 -0.00144545 0.000830869)
(0.102213 -0.00142996 0.000744948)
(0.102191 -0.00144267 0.000663633)
(0.102151 -0.00149123 0.00058198)
(0.102079 -0.00158996 0.000497998)
(0.10197 -0.00175992 0.000413109)
(0.101822 -0.00201405 0.000323519)
(0.101978 -0.00234101 0.000291229)
(0.0995405 -0.000321903 0.000245039)
(0.0992576 -0.00154095 0.0010556)
(0.0988488 -0.00211456 0.00150233)
(0.0981245 -0.0020918 0.00157941)
(0.0973363 -0.00188639 0.00151486)
(0.0965838 -0.00166625 0.00144656)
(0.0958635 -0.00149847 0.00141037)
(0.0951944 -0.00137231 0.00137932)
(0.0945631 -0.00128645 0.00133397)
(0.0939136 -0.00123278 0.0012631)
(0.0932777 -0.00119876 0.00117346)
(0.0926506 -0.00118149 0.00107768)
(0.0920192 -0.0011782 0.000986369)
(0.0913693 -0.00118958 0.00090364)
(0.0906813 -0.00121932 0.000828962)
(0.0899242 -0.00127578 0.000758633)
(0.0890474 -0.0013803 0.000693274)
(0.0879379 -0.00156741 0.000633099)
(0.0864382 -0.00185396 0.000601784)
(0.0847276 -0.00252036 0.000969814)
(0.0993801 5.89365e-05 3.37506e-05)
(0.0992677 0.00120003 0.000274261)
(0.0989805 0.0018885 0.000432095)
(0.0984748 0.00200643 0.000482965)
(0.0979959 0.00191455 0.000477959)
(0.0975717 0.00173446 0.000463914)
(0.0971824 0.00154683 0.000449943)
(0.0968336 0.00138779 0.000437298)
(0.0965349 0.00126867 0.000427588)
(0.0962827 0.00119714 0.000413898)
(0.0960123 0.00116848 0.000387235)
(0.095725 0.00116446 0.000348032)
(0.0954206 0.00117047 0.000298169)
(0.0950894 0.00118205 0.000235421)
(0.0947245 0.00120236 0.00015762)
(0.0943222 0.00123308 5.14195e-05)
(0.0938778 0.00127363 -0.000105974)
(0.0933845 0.00132614 -0.00034262)
(0.0928083 0.00139432 -0.000690149)
(0.0921985 0.00146441 -0.00122291)
(0.100087 0.000707028 0.000144358)
(0.100477 0.00161782 0.000390412)
(0.101066 0.00203472 0.000540971)
(0.101694 0.00211769 0.000609903)
(0.102269 0.00215019 0.000635534)
(0.102743 0.00217976 0.000625947)
(0.103125 0.00213401 0.000593351)
(0.103429 0.00204416 0.000546888)
(0.103682 0.00193496 0.000499754)
(0.103901 0.00182923 0.000453855)
(0.1041 0.00173108 0.000405269)
(0.104291 0.00164472 0.000353817)
(0.104476 0.00158513 0.000301625)
(0.10465 0.00155474 0.000245217)
(0.104812 0.00154525 0.000176413)
(0.104965 0.00154861 8.90904e-05)
(0.105106 0.00156606 -2.43301e-05)
(0.105231 0.001601 -0.000175434)
(0.105348 0.00165353 -0.000375518)
(0.105605 0.0017195 -0.00061579)
(0.100039 0.00047878 0.00013132)