/*--------------------------------*- C++ -*----------------------------------*\
| =========                 |                                                 |
| \\      /  F ield         | OpenFOAM: The Open Source CFD Toolbox           |
|  \\    /   O peration     | Version:  2212                                  |
|   \\  /    A nd           | Website:  www.openfoam.com                      |
|    \\/     M anipulation  |                                                 |
\*---------------------------------------------------------------------------*/
FoamFile
{
    version     2.0;
    format      ascii;
    arch        "LSB;label=32;scalar=64";
    class       surfaceVectorField;
    location    "2";
    object      Uf;
}
// * * * * * * * * * * * * * * * * * * * * * * * * * * * * * * * * * * * * * //

dimensions      [0 1 -1 0 0 0 0];

internalField   nonuniform List<vector> 
19019
(
(0.0993441 -0.00341904 -0.00341898)
(0.0973536 0.00106247 -0.00148427)
(0.0973536 -0.00148428 0.00106248)
(0.0834792 0.00197581 0.00197595)
(0.0930872 0.00326892 0.00253353)
(0.0930872 0.00253344 0.00326905)
(0.0745171 0.00195859 0.00195887)
(0.084864 0.00163571 0.00179247)
(0.0848641 0.00179229 0.00163596)
(0.0685477 0.00115882 0.00115937)
(0.078628 0.00107328 0.00122163)
(0.0786281 0.00122125 0.00107373)
(0.064236 0.000696544 0.000697496)
(0.0740529 0.000784884 0.000865552)
(0.0740531 0.000864931 0.000785763)
(0.0607565 0.000493935 0.000495801)
(0.0704422 0.000649799 0.000670048)
(0.0704426 0.000668998 0.000651201)
(0.0579371 0.000373154 0.000376616)
(0.0674912 0.000545269 0.000510036)
(0.0674918 0.000507939 0.000548068)
(0.0556136 0.000285202 0.000290951)
(0.06505 0.000466324 0.000389951)
(0.0650513 0.00038647 0.000471158)
(0.053624 0.000222444 0.000231853)
(0.0629645 0.000410919 0.000311917)
(0.0629668 0.000306264 0.000419054)
(0.0518789 0.000175462 0.000191201)
(0.0611292 0.000365407 0.000261645)
(0.0611332 0.000252373 0.000379088)
(0.0503287 0.000138186 0.000164495)
(0.0594841 0.000322141 0.000231272)
(0.0594913 0.000214771 0.000345323)
(0.048941 0.000105575 0.000148227)
(0.0579948 0.0002787 0.00021486)
(0.0580076 0.000187086 0.000317239)
(0.0476866 7.28685e-05 0.000140185)
(0.0566336 0.00023523 0.000207581)
(0.0566562 0.00016504 0.000298036)
(0.0465452 3.63846e-05 0.000140145)
(0.0553778 0.000187631 0.000206716)
(0.0554164 0.000145733 0.000289782)
(0.0455166 1.31592e-06 0.000150517)
(0.0542146 0.000126964 0.00021194)
(0.0542788 0.000123908 0.000292653)
(0.0446145 -5.76285e-05 0.000178903)
(0.0531486 4.75865e-05 0.000225223)
(0.0532572 9.46722e-05 0.000305611)
(0.043889 -0.000184921 0.000224305)
(0.0522047 -7.76448e-05 0.00026319)
(0.0523974 2.37472e-05 0.000344367)
(0.0435769 -0.00040504 0.000255999)
(0.051464 -0.000309261 0.000294228)
(0.05183 -0.000133529 0.000402253)
(0.0442663 -0.00175485 -0.000605687)
(0.0513087 -0.000804781 0.000219769)
(0.0520489 -0.000367538 0.000478369)
(0.0500904 -0.00348678 -0.0013751)
(0.0504639 -0.00204157 -0.000632131)
(0.0984572 0.0024764 0.00172993)
(0.0996871 0.000439213 0.000345491)
(0.100049 0.00105637 0.000750989)
(0.0958348 0.00314795 0.00243277)
(0.0978161 0.00273269 0.00228234)
(0.0982936 0.00280914 0.00216158)
(0.0914498 0.00223015 0.00186952)
(0.0954958 0.00300156 0.00230327)
(0.0963039 0.00244249 0.00199802)
(0.0875948 0.00167429 0.00150583)
(0.0926188 0.0022991 0.00183906)
(0.0936667 0.00198044 0.00172738)
(0.084147 0.00143949 0.00127625)
(0.0897666 0.00189145 0.00153607)
(0.0909043 0.0017192 0.00149848)
(0.0811866 0.0012644 0.00102975)
(0.0872309 0.00165572 0.00129532)
(0.0884338 0.00145363 0.00121288)
(0.0786992 0.00110838 0.000795623)
(0.0850046 0.0014907 0.00107828)
(0.0863038 0.00118187 0.000910561)
(0.076553 0.00098905 0.000627945)
(0.0830574 0.00136936 0.000915162)
(0.0844787 0.000980315 0.000693963)
(0.0746446 0.000899788 0.000522848)
(0.0813185 0.00127483 0.00080475)
(0.0828769 0.000840577 0.00055414)
(0.0729124 0.000821797 0.000461144)
(0.0797363 0.00118762 0.000731602)
(0.0814423 0.000736504 0.000464821)
(0.0713182 0.000743709 0.000427746)
(0.0782805 0.00110082 0.000688221)
(0.0801418 0.0006483 0.00040853)
(0.0698378 0.000664672 0.000411219)
(0.076927 0.00101353 0.000666021)
(0.0789484 0.000567721 0.000373646)
(0.0684508 0.000586175 0.00040505)
(0.0756542 0.000926246 0.000657588)
(0.0778415 0.000495646 0.000355686)
(0.06714 0.00050065 0.000407638)
(0.0744443 0.000836486 0.000659626)
(0.0768106 0.000427596 0.00035195)
(0.0658917 0.000383717 0.000418357)
(0.0732813 0.000736204 0.000673713)
(0.0758481 0.00034984 0.000363727)
(0.0647156 0.000213691 0.000438187)
(0.0721543 0.000604969 0.000702217)
(0.074953 0.000233878 0.000394614)
(0.0636324 -4.70401e-05 0.00045299)
(0.0710565 0.000420659 0.000748694)
(0.0741306 6.51415e-05 0.000444565)
(0.0627265 -0.000551621 0.000394331)
(0.0699764 0.000114659 0.00079306)
(0.0733885 -0.000220912 0.000480723)
(0.0623503 -0.00195181 -8.12543e-05)
(0.0689965 -0.000511352 0.000772973)
(0.0727918 -0.000839457 0.000346392)
(0.0675834 -0.00178036 0.000951776)
(0.0718886 -0.00260316 -0.000611703)
(0.0993753 0.0011821 0.00107259)
(0.099473 0.000349752 0.000307064)
(0.0997475 0.000610964 0.000779898)
(0.0984947 0.00229601 0.00203203)
(0.0990504 0.00157679 0.0017205)
(0.099597 0.00201825 0.00200298)
(0.097141 0.00247637 0.00204884)
(0.0983576 0.0021311 0.00216901)
(0.0992971 0.00246144 0.00210265)
(0.0954388 0.00224679 0.00176773)
(0.0971929 0.0020358 0.00200264)
(0.0984879 0.0023743 0.00190301)
(0.0937495 0.00202016 0.00152289)
(0.0959044 0.00185574 0.00175468)
(0.0974215 0.00218058 0.00168928)
(0.0921359 0.00186373 0.00134523)
(0.0946704 0.00173301 0.00154308)
(0.0963082 0.0019842 0.00150905)
(0.0905976 0.00175291 0.00121608)
(0.0934794 0.00165329 0.00138703)
(0.0952021 0.00180084 0.00134387)
(0.0891446 0.0016543 0.00111567)
(0.092364 0.00157768 0.00126648)
(0.0941437 0.00164345 0.00120572)
(0.0877927 0.00154825 0.00103519)
(0.0913247 0.00148281 0.00117365)
(0.0931584 0.00150267 0.00109895)
(0.0865418 0.00143678 0.000975963)
(0.0903304 0.00137315 0.00110651)
(0.0922489 0.00137123 0.00101904)
(0.0853743 0.00132776 0.000939653)
(0.0893915 0.00126288 0.00106329)
(0.0914133 0.00125107 0.00096567)
(0.0842702 0.00122374 0.000923274)
(0.088497 0.00115582 0.00104038)
(0.0906403 0.00114246 0.000935264)
(0.0832107 0.00112136 0.000923181)
(0.0876294 0.00105433 0.00103376)
(0.0899162 0.00104179 0.000923365)
(0.0821787 0.00101404 0.000937795)
(0.0867719 0.000957228 0.00104211)
(0.0892285 0.000942029 0.000927724)
(0.081157 0.000892413 0.000969304)
(0.0859064 0.000858234 0.00106661)
(0.088565 0.000835146 0.000950115)
(0.0801197 0.000741231 0.00102528)
(0.085008 0.000744886 0.0011124)
(0.0879111 0.000711078 0.000997728)
(0.0790297 0.000529691 0.00111419)
(0.0840363 0.00060304 0.0011942)
(0.0872448 0.000552255 0.00108253)
(0.077807 0.000163455 0.00123427)
(0.0829041 0.00040854 0.00133111)
(0.0865222 0.000328553 0.00121892)
(0.0762693 -0.000220311 0.00200144)
(0.0814959 0.000104867 0.00152836)
(0.0856887 -4.25056e-05 0.00141499)
(0.0798831 3.82445e-05 0.0025625)
(0.08487 -0.000288998 0.00239312)
(0.0996493 0.000650315 0.000931427)
(0.0994625 0.000129397 0.000192525)
(0.0997993 0.000375129 0.000741366)
(0.0990854 0.00127895 0.00182776)
(0.0992625 0.000636955 0.00137065)
(0.0998409 0.0011504 0.00181424)
(0.098449 0.00154085 0.00210318)
(0.0989128 0.000973565 0.00200364)
(0.0999046 0.00153654 0.00209024)
(0.0977071 0.00154712 0.0019891)
(0.0982948 0.00105029 0.00205076)
(0.099767 0.00163181 0.00202324)
(0.0969384 0.00148068 0.00177633)
(0.0976569 0.00100798 0.00189982)
(0.0995088 0.00160987 0.00189606)
(0.0962059 0.00142843 0.00158237)
(0.0970638 0.000960985 0.00169862)
(0.0991983 0.00154816 0.00175224)
(0.095519 0.0013948 0.0014354)
(0.0965041 0.000934881 0.00152109)
(0.0988526 0.00147573 0.00162662)
(0.094867 0.0013566 0.00132939)
(0.09599 0.000919582 0.00137977)
(0.0985072 0.00139482 0.00151628)
(0.0942281 0.00129849 0.00125963)
(0.0955193 0.000907173 0.0012797)
(0.0981714 0.00130277 0.00142165)
(0.0935942 0.00121823 0.00121579)
(0.0950611 0.000877405 0.00121917)
(0.0978208 0.00119987 0.00134641)
(0.0929656 0.00112551 0.00119015)
(0.0945997 0.000824225 0.00118883)
(0.0974765 0.00109584 0.00129574)
(0.0923367 0.00103196 0.00117988)
(0.0941322 0.000764046 0.00117958)
(0.0971376 0.000996713 0.00126571)
(0.0916966 0.000944961 0.00118396)
(0.0936501 0.000709438 0.00118393)
(0.0967961 0.000905079 0.00125338)
(0.0910296 0.000866299 0.00120459)
(0.0931386 0.000665409 0.00120106)
(0.0964439 0.000822138 0.00125967)
(0.0903106 0.000793831 0.00124779)
(0.0925804 0.000636264 0.00123598)
(0.0960676 0.000745582 0.00128861)
(0.0894973 0.000726039 0.00132846)
(0.0919524 0.000627698 0.00129666)
(0.0956459 0.000671463 0.00135021)
(0.0885158 0.000663395 0.00147458)
(0.0912171 0.000653617 0.00139735)
(0.095146 0.000600097 0.00146761)
(0.0872403 0.000617868 0.00171195)
(0.0902991 0.000735865 0.00156645)
(0.0945046 0.000533611 0.00167704)
(0.0854453 0.000786305 0.00218858)
(0.0890826 0.000939197 0.00181518)
(0.0936371 0.00048568 0.00201036)
(0.0878001 0.00161411 0.00230677)
(0.0928001 0.000715548 0.00280819)
(0.0996725 0.000154119 0.000629535)
(0.0993802 2.00883e-08 5.89649e-05)
(0.0997132 0.000103948 0.00068796)
(0.0991591 0.000353477 0.0015443)
(0.0992677 9.4906e-08 0.00120005)
(0.0998376 0.00034174 0.00162234)
(0.0986636 0.000458093 0.00194752)
(0.0989804 2.18687e-07 0.00188852)
(0.099963 0.000485667 0.00199143)
(0.0982122 0.000481443 0.00196063)
(0.0984747 3.92169e-07 0.00200648)
(0.0999918 0.000539967 0.00199668)
(0.0977761 0.000472663 0.0018248)
(0.0979956 6.7413e-07 0.00191465)
(0.100009 0.000546993 0.00191113)
(0.0973625 0.000460001 0.00164113)
(0.0975711 1.17686e-06 0.00173466)
(0.100007 0.00053452 0.00180442)
(0.0969942 0.000448971 0.0014681)
(0.0971814 2.07151e-06 0.00154713)
(0.0999808 0.000513217 0.00168298)
(0.0966735 0.000441567 0.00132965)
(0.0968318 3.53923e-06 0.00138829)
(0.0999384 0.000487964 0.00157267)
(0.0963926 0.000436123 0.0012355)
(0.0965319 6.00639e-06 0.00126961)
(0.0998977 0.000466081 0.00148147)
(0.0961258 0.000426248 0.00118729)
(0.0962777 1.00786e-05 0.00119882)
(0.0998642 0.00044571 0.00141854)
(0.0958453 0.000410168 0.00117396)
(0.0960039 1.67863e-05 0.0011713)
(0.0998092 0.000421769 0.00137975)
(0.0955372 0.00039328 0.00118004)
(0.0957107 2.78249e-05 0.00116915)
(0.0997377 0.000396802 0.00135487)
(0.0951925 0.000382688 0.00119769)
(0.0953963 4.61103e-05 0.00117838)
(0.0996472 0.000376585 0.00134472)
(0.0947998 0.00038658 0.00122895)
(0.095048 7.63585e-05 0.00119561)
(0.0995257 0.000365911 0.00135271)
(0.0943449 0.000415333 0.00128056)
(0.094655 0.000124568 0.00122561)
(0.0993632 0.000370766 0.00138225)
(0.0938075 0.000482772 0.00135872)
(0.0942081 0.000203518 0.00127277)
(0.0991527 0.000399936 0.00143661)
(0.0931579 0.000610062 0.00147594)
(0.0936931 0.000332995 0.00133945)
(0.0988787 0.000465037 0.00152592)
(0.092354 0.000844706 0.00164238)
(0.0930887 0.000540947 0.00143659)
(0.0985188 0.000583522 0.00166726)
(0.0913597 0.00138498 0.00187867)
(0.0923422 0.000877568 0.00156634)
(0.0980399 0.000796466 0.00186289)
(0.0916223 0.00153146 0.00174207)
(0.0977297 0.00128812 0.00213821)
(0.0996725 -0.000154005 0.000629484)
(0.0994625 -0.000129356 0.000192494)
(0.0997132 -0.000103899 0.000687955)
(0.0991591 -0.000353176 0.00154427)
(0.0992625 -0.000636803 0.00137063)
(0.0998377 -0.000341551 0.00162232)
(0.0986637 -0.000457528 0.00194747)
(0.098913 -0.000973279 0.00200357)
(0.0999631 -0.000485296 0.00199143)
(0.0982125 -0.000480459 0.0019605)
(0.0982952 -0.00104981 0.00205062)
(0.099992 -0.000539314 0.00199663)
(0.0977769 -0.000470932 0.00182451)
(0.0976578 -0.00100706 0.00189956)
(0.10001 -0.000545823 0.00191092)
(0.097364 -0.000456923 0.00164066)
(0.0970657 -0.000959282 0.00169816)
(0.100008 -0.000532448 0.00180398)
(0.0969969 -0.000443613 0.00146732)
(0.0965074 -0.000931799 0.00152049)
(0.0999827 -0.00050965 0.00168233)
(0.096678 -0.000432435 0.00132825)
(0.0959958 -0.000914268 0.00137873)
(0.0999416 -0.000481942 0.00157159)
(0.0964003 -0.000420733 0.00123292)
(0.0955293 -0.000897999 0.00127758)
(0.099903 -0.000455846 0.00147959)
(0.0961388 -0.000400555 0.00118283)
(0.0950782 -0.000862219 0.00121488)
(0.0998729 -0.000428281 0.00141536)
(0.0958674 -0.00036762 0.00116649)
(0.0946285 -0.000799455 0.00118097)
(0.0998235 -0.000392434 0.00137458)
(0.0955749 -0.000323084 0.00116749)
(0.094181 -0.000723789 0.00116557)
(0.0997616 -0.000348257 0.00134615)
(0.0952567 -0.000266779 0.0011763)
(0.0937325 -0.000643122 0.00116061)
(0.0996878 -0.00029775 0.00132944)
(0.0949083 -0.000196513 0.00119227)
(0.0932772 -0.000555011 0.00116219)
(0.0995944 -0.000238263 0.00132616)
(0.0945249 -0.000104529 0.00121782)
(0.0928121 -0.000454003 0.00116855)
(0.0994778 -0.000164958 0.00133709)
(0.0941012 2.72359e-05 0.0012535)
(0.0923369 -0.000323152 0.00117693)
(0.0993372 -6.79389e-05 0.00135997)
(0.0936308 0.000224204 0.00130011)
(0.0918509 -0.000141057 0.00118291)
(0.0991685 6.84107e-05 0.0013953)
(0.0931042 0.000516231 0.00136055)
(0.0913537 0.000123871 0.0011849)
(0.0989666 0.000264378 0.00144613)
(0.0925351 0.000956296 0.00142975)
(0.0908323 0.000486736 0.00119308)
(0.0987173 0.000542208 0.00151162)
(0.0902274 0.00101305 0.00117603)
(0.0985158 0.00093675 0.00158843)
(0.0996493 -0.000650273 0.000931424)
(0.099473 -0.000349758 0.00030706)
(0.0997993 -0.000375121 0.000741367)
(0.0990855 -0.00127885 0.00182769)
(0.0990504 -0.00157682 0.00172046)
(0.0998409 -0.00115036 0.00181423)
(0.0984494 -0.00154066 0.00210302)
(0.0983578 -0.00213116 0.00216882)
(0.0999049 -0.00153646 0.00209013)
(0.0977081 -0.00154671 0.00198883)
(0.0971935 -0.00203588 0.00200232)
(0.0997676 -0.00163163 0.00202291)
(0.0969403 -0.00147981 0.0017759)
(0.0959057 -0.00185575 0.00175421)
(0.0995101 -0.00160947 0.00189545)
(0.0962095 -0.00142679 0.0015818)
(0.094673 -0.00173286 0.00154237)
(0.0992007 -0.00154738 0.00175132)
(0.0955253 -0.001392 0.00143456)
(0.093484 -0.0016529 0.00138599)
(0.0988568 -0.00147429 0.00162529)
(0.0948778 -0.00135178 0.00132772)
(0.092372 -0.00157708 0.00126474)
(0.0985144 -0.00139238 0.00151413)
(0.0942467 -0.00129046 0.00125596)
(0.0913385 -0.00148176 0.00117057)
(0.0981834 -0.00129858 0.00141808)
(0.0936258 -0.00120552 0.00120841)
(0.0903538 -0.00137151 0.00110083)
(0.097841 -0.00119283 0.00134026)
(0.093019 -0.00110548 0.00117628)
(0.0894311 -0.00126044 0.00105347)
(0.0975105 -0.00108455 0.00128498)
(0.0924266 -0.000999258 0.00115596)
(0.088564 -0.00115208 0.00102282)
(0.0971953 -0.000978805 0.00124668)
(0.0918469 -0.000889814 0.0011445)
(0.0877418 -0.00104742 0.00100401)
(0.0968932 -0.000876643 0.00122031)
(0.0912803 -0.000773507 0.00113725)
(0.0869602 -0.000943436 0.000992123)
(0.0966035 -0.000774671 0.00120254)
(0.0907285 -0.000636649 0.00112761)
(0.0862211 -0.000831989 0.000979875)
(0.096328 -0.000664998 0.00118869)
(0.0901951 -0.000456479 0.00110776)
(0.0855364 -0.00069245 0.000955269)
(0.0960696 -0.000533584 0.00117247)
(0.0896854 -0.000198645 0.00107032)
(0.0849316 -0.000496488 0.00090399)
(0.0958293 -0.000362275 0.00114595)
(0.0891985 0.000180592 0.00101779)
(0.0844418 -0.000197601 0.000790041)
(0.0956077 -0.000121482 0.00110239)
(0.088706 0.000743568 0.00093037)
(0.0841222 0.000261701 0.00061675)
(0.0954103 0.000216918 0.00104827)
(0.0834322 0.00125189 0.000153482)
(0.0951702 0.00070138 0.000956818)
(0.0993753 -0.00118216 0.00107255)
(0.0996871 -0.000439239 0.000345481)
(0.0997475 -0.000610994 0.000779874)
(0.0984949 -0.00229615 0.00203187)
(0.0978161 -0.00273284 0.00228225)
(0.0995971 -0.00201836 0.00200284)
(0.0971414 -0.00247664 0.00204851)
(0.095496 -0.0030018 0.00230305)
(0.0992973 -0.00246166 0.00210232)
(0.0954398 -0.00224723 0.00176722)
(0.0926193 -0.00229952 0.00183866)
(0.0984884 -0.00237471 0.00190245)
(0.0937514 -0.00202086 0.00152218)
(0.0897675 -0.00189222 0.00153551)
(0.0974226 -0.00218124 0.00168843)
(0.0921394 -0.00186481 0.00134412)
(0.0872326 -0.001657 0.00129442)
(0.0963102 -0.00198529 0.00150786)
(0.0906037 -0.00175459 0.00121422)
(0.0850076 -0.00149289 0.00107678)
(0.0952057 -0.00180249 0.00134196)
(0.0891552 -0.00165707 0.00111261)
(0.0830627 -0.00137297 0.000912681)
(0.0941501 -0.00164602 0.00120247)
(0.0878107 -0.00155285 0.00103019)
(0.0813278 -0.00128089 0.000800642)
(0.0931694 -0.00150704 0.00109361)
(0.0865723 -0.00144441 0.000967952)
(0.079752 -0.00119788 0.000724741)
(0.0922676 -0.00137869 0.00101017)
(0.0854257 -0.00134025 0.000926259)
(0.0783077 -0.00111853 0.000676009)
(0.0914451 -0.00126323 0.000950876)
(0.0843566 -0.00124351 0.000900044)
(0.0769741 -0.00104277 0.000644808)
(0.0906941 -0.0011624 0.000909949)
(0.0833554 -0.00115147 0.000883115)
(0.0757348 -0.000972048 0.000624019)
(0.0900053 -0.00107385 0.000880249)
(0.0824211 -0.0010583 0.000868452)
(0.0745802 -0.000906943 0.000609814)
(0.0893746 -0.000992937 0.000855189)
(0.0815648 -0.000954706 0.000845084)
(0.0735084 -0.00084747 0.000595464)
(0.0888046 -0.000913667 0.000827258)
(0.0808194 -0.000822732 0.000797069)
(0.0725384 -0.000788521 0.00055873)
(0.0883062 -0.000825104 0.000781532)
(0.0802422 -0.000623881 0.000683878)
(0.0717265 -0.000705601 0.000483209)
(0.0879031 -0.000707433 0.000693565)
(0.0798904 -0.000253901 0.000461541)
(0.071186 -0.000509632 0.000266163)
(0.0876214 -0.000523049 0.000508378)
(0.0798454 0.000658166 -7.23381e-05)
(0.0712314 -0.000113908 -9.18933e-05)
(0.0874938 -0.000173887 0.000198093)
(0.0696504 0.00120211 -0.0010113)
(0.0870792 0.000721833 -0.00050852)
(0.0984572 -0.00247648 0.00172987)
(0.0973536 -0.00106248 -0.00148428)
(0.100049 -0.0010564 0.000750961)
(0.0958348 -0.00314815 0.00243262)
(0.0930872 -0.00326905 0.00253344)
(0.0982936 -0.00280929 0.00216143)
(0.09145 -0.0022305 0.00186922)
(0.0848641 -0.00163595 0.00179229)
(0.096304 -0.00244278 0.00199773)
(0.0875952 -0.00167496 0.00150535)
(0.0786281 -0.00107371 0.00122126)
(0.0936668 -0.00198095 0.00172685)
(0.0841477 -0.00144064 0.00127545)
(0.0740531 -0.000785744 0.000864939)
(0.0909046 -0.00172012 0.00149766)
(0.0811879 -0.0012664 0.00102837)
(0.0704426 -0.000651178 0.00066901)
(0.0884343 -0.00145516 0.0012114)
(0.0787015 -0.00111188 0.000793376)
(0.0674918 -0.000548038 0.000507958)
(0.0863047 -0.0011845 0.000908113)
(0.0765573 -0.000995046 0.000624261)
(0.0650512 -0.000471121 0.000386495)
(0.0844804 -0.000984783 0.00068991)
(0.0746522 -0.000910074 0.000516677)
(0.0629668 -0.00041901 0.000306294)
(0.08288 -0.00084823 0.000547277)
(0.0729257 -0.000839483 0.00044981)
(0.0611331 -0.000379035 0.000252411)
(0.0814477 -0.000749659 0.000453039)
(0.0713422 -0.000773515 0.00040735)
(0.0594912 -0.000345259 0.000214822)
(0.0801517 -0.000671427 0.000386811)
(0.0698806 -0.000713298 0.000379191)
(0.0580075 -0.000317163 0.000187153)
(0.0789661 -0.000605957 0.000336865)
(0.0685252 -0.000664741 0.000361176)
(0.0566561 -0.00029794 0.000165119)
(0.0778729 -0.000555764 0.000298596)
(0.0672656 -0.000630666 0.000348481)
(0.0554162 -0.000289665 0.000145837)
(0.0768641 -0.000521305 0.000267455)
(0.0661027 -0.000607029 0.000321057)
(0.0542788 -0.000292496 0.000124035)
(0.0759373 -0.000501444 0.000232242)
(0.0650755 -0.000582805 0.000257331)
(0.0532571 -0.000305367 9.48544e-05)
(0.0751037 -0.000492273 0.000165672)
(0.0642731 -0.000518538 9.49176e-05)
(0.0523972 -0.000344035 2.40072e-05)
(0.0743981 -0.00048244 4.74757e-05)
(0.0639955 -0.000418095 -0.000192309)
(0.0518298 -0.000401668 -0.00013316)
(0.0738967 -0.000421673 -0.000218823)
(0.0648424 -0.000180984 -0.000691254)
(0.0520482 -0.000477117 -0.000367055)
(0.0738195 -0.000231292 -0.000819752)
(0.0504634 0.000634244 -0.0020398)
(0.0724079 0.00078271 -0.00285642)
(0.0993441 0.00341899 -0.00341903)
(0.0973536 0.00148427 0.00106247)
(0.0834792 -0.00197594 0.00197581)
(0.0930872 -0.00253353 0.00326892)
(0.0745171 -0.00195887 0.00195859)
(0.084864 -0.00179247 0.00163572)
(0.0685477 -0.00115936 0.00115883)
(0.078628 -0.00122162 0.00107329)
(0.064236 -0.000697479 0.000696559)
(0.0740529 -0.000865542 0.000784902)
(0.0607565 -0.000495778 0.000493957)
(0.0704422 -0.000670034 0.000649821)
(0.057937 -0.000376585 0.000373185)
(0.0674911 -0.000510016 0.0005453)
(0.0556136 -0.000290914 0.000285239)
(0.06505 -0.000389925 0.000466361)
(0.053624 -0.00023181 0.00022249)
(0.0629645 -0.000311887 0.000410964)
(0.0518788 -0.000191151 0.000175518)
(0.0611292 -0.000261609 0.000365461)
(0.0503286 -0.000164435 0.000138257)
(0.0594841 -0.000231227 0.000322206)
(0.0489409 -0.000148155 0.000105662)
(0.0579947 -0.000214803 0.000278777)
(0.0476866 -0.000140102 7.2984e-05)
(0.0566336 -0.000207511 0.000235316)
(0.0465452 -0.000140047 3.65217e-05)
(0.0553777 -0.000206639 0.000187755)
(0.0455165 -0.000150365 1.47884e-06)
(0.0542146 -0.000211844 0.000127128)
(0.0446144 -0.000178663 -5.73956e-05)
(0.0531487 -0.000225058 4.78141e-05)
(0.043889 -0.000223932 -0.00018458)
(0.0522049 -0.000262939 -7.73055e-05)
(0.0435768 -0.000255366 -0.000404445)
(0.0514644 -0.000293863 -0.000308664)
(0.0442671 0.000606685 -0.00175274)
(0.0513095 -0.000219039 -0.00080387)
(0.050092 0.00137784 -0.00348633)
(0.0984572 0.00172987 0.00247649)
(0.100049 0.000750961 0.0010564)
(0.0996871 0.00034548 0.000439242)
(0.0958348 0.00243262 0.00314816)
(0.0982936 0.00216142 0.00280929)
(0.0978162 0.00228225 0.00273284)
(0.09145 0.00186922 0.00223051)
(0.096304 0.00199773 0.00244279)
(0.095496 0.00230305 0.00300181)
(0.0875952 0.00150534 0.00167497)
(0.0936668 0.00172685 0.00198096)
(0.0926193 0.00183865 0.00229953)
(0.0841477 0.00127544 0.00144066)
(0.0909046 0.00149765 0.00172013)
(0.0897675 0.0015355 0.00189223)
(0.0811879 0.00102836 0.00126642)
(0.0884343 0.00121139 0.00145517)
(0.0872326 0.00129441 0.00165702)
(0.0787015 0.000793363 0.00111191)
(0.0863047 0.000908098 0.00118453)
(0.0850076 0.00107677 0.00149291)
(0.0765573 0.000624243 0.000995084)
(0.0844805 0.00068989 0.000984813)
(0.0830627 0.000912663 0.001373)
(0.0746523 0.000516653 0.000910121)
(0.08288 0.000547252 0.000848268)
(0.0813278 0.000800618 0.00128092)
(0.0729258 0.000449775 0.000839539)
(0.0814477 0.000453008 0.000749707)
(0.0797521 0.000724709 0.00119792)
(0.0713423 0.0004073 0.000773583)
(0.0801517 0.00038677 0.000671489)
(0.0783077 0.000675964 0.00111857)
(0.0698807 0.000379128 0.000713385)
(0.0789662 0.000336819 0.00060604)
(0.0769742 0.000644745 0.00104282)
(0.0685253 0.000361108 0.000664864)
(0.077873 0.000298557 0.000555884)
(0.0757349 0.000623935 0.000972101)
(0.0672657 0.000348386 0.000630841)
(0.0768642 0.000267381 0.000521433)
(0.0745804 0.000609728 0.000907049)
(0.0661029 0.000320895 0.000607268)
(0.0759374 0.000232093 0.00050161)
(0.0735086 0.000595339 0.000847641)
(0.0650757 0.000257086 0.000583094)
(0.0751038 0.000165479 0.000492552)
(0.0725387 0.000558519 0.000788717)
(0.0642735 9.45358e-05 0.000518941)
(0.0743983 4.71952e-05 0.000482813)
(0.071727 0.000482887 0.000705802)
(0.0639965 -0.000192856 0.000418798)
(0.0738971 -0.000219307 0.000422226)
(0.0711869 0.000265618 0.000509878)
(0.0648448 -0.000691825 0.000182138)
(0.0738203 -0.000820504 0.000232241)
(0.0712333 -9.2777e-05 0.000114091)
(0.0724075 -0.00285728 -0.000780903)
(0.0696521 -0.00101233 -0.00120182)
(0.10008 0.00135174 0.00135184)
(0.100186 0.000798744 0.000804977)
(0.100186 0.000804937 0.000798785)
(0.100264 0.00221721 0.00221747)
(0.10019 0.0023118 0.0020716)
(0.10019 0.00207143 0.00231196)
(0.0993828 0.00243557 0.00243607)
(0.100306 0.0026336 0.00245337)
(0.100306 0.00245295 0.00263392)
(0.0979838 0.00230994 0.00231077)
(0.0998047 0.00256021 0.00245644)
(0.099805 0.00245572 0.00256079)
(0.0964946 0.00200561 0.00200701)
(0.0988623 0.00236413 0.00228166)
(0.0988627 0.00228057 0.00236506)
(0.095072 0.00159596 0.00159832)
(0.09784 0.00204849 0.00196914)
(0.0978407 0.00196745 0.00205013)
(0.0937743 0.00122461 0.00122851)
(0.0968599 0.00169033 0.0016063)
(0.0968612 0.00160361 0.00169299)
(0.0926161 0.000959208 0.00096584)
(0.095957 0.00140311 0.00132434)
(0.0959591 0.00131975 0.00140745)
(0.0915913 0.000772859 0.000784263)
(0.0951438 0.00118896 0.00112345)
(0.0951474 0.00111563 0.00119645)
(0.0906838 0.000636617 0.000656823)
(0.0944186 0.00102706 0.000980048)
(0.094425 0.000966744 0.00103995)
(0.0898736 0.000531567 0.000565977)
(0.0937761 0.000900195 0.000878198)
(0.0937871 0.000854879 0.000922296)
(0.0891405 0.000448417 0.000503087)
(0.0932017 0.000797023 0.000807633)
(0.0932201 0.000769046 0.000833368)
(0.0884733 0.000378882 0.000462704)
(0.092683 0.000709252 0.000762094)
(0.0927127 0.000700626 0.000767041)
(0.0878709 0.000309633 0.000439852)
(0.0922161 0.000626002 0.000735696)
(0.0922628 0.000639238 0.000717036)
(0.0873366 0.000220379 0.000433122)
(0.0917995 0.00053465 0.00072704)
(0.0918725 0.00057254 0.000679159)
(0.0868696 8.77241e-05 0.000440479)
(0.0914298 0.000416634 0.000739119)
(0.0915432 0.000481001 0.000648709)
(0.0864735 -0.000128149 0.000447683)
(0.0911003 0.00025259 0.000772062)
(0.0912721 0.000341109 0.0006173)
(0.0860837 -0.00052593 0.00038442)
(0.0907894 8.54327e-06 0.000818619)
(0.0910399 0.00010688 0.00056552)
(0.0854214 -0.00136132 -3.1562e-05)
(0.0904206 -0.000363385 0.000823732)
(0.0907625 -0.00030137 0.000446572)
(0.0902236 -0.000892928 0.000619362)
(0.0905612 -0.00109722 4.52804e-05)
(0.100171 0.00136868 0.0014165)
(0.100118 0.000577407 0.000811329)
(0.100102 0.000699753 0.00070073)
(0.100759 0.0021949 0.00214929)
(0.100478 0.00158288 0.00185886)
(0.100477 0.00182252 0.00186481)
(0.100996 0.00247693 0.00238833)
(0.101004 0.00205882 0.00224274)
(0.101024 0.00234676 0.00238327)
(0.100837 0.00247616 0.00238968)
(0.101292 0.00220358 0.00235249)
(0.101337 0.0025059 0.00254423)
(0.100456 0.00231138 0.00222552)
(0.101308 0.0021675 0.0023227)
(0.101408 0.00245038 0.00247304)
(0.0999657 0.00205628 0.00196917)
(0.101155 0.002011 0.00217947)
(0.101301 0.00226427 0.00227146)
(0.0994402 0.00179002 0.00170154)
(0.100924 0.00179405 0.00196953)
(0.101097 0.00200847 0.00200029)
(0.098928 0.00156229 0.00148636)
(0.10066 0.0015841 0.00176751)
(0.100852 0.00176914 0.00176058)
(0.0984553 0.00137586 0.00132612)
(0.100401 0.001396 0.00159324)
(0.100602 0.00156706 0.00156865)
(0.0980321 0.00122103 0.00120875)
(0.100161 0.00122981 0.00145029)
(0.100371 0.00139842 0.00141775)
(0.0976574 0.0010906 0.00112676)
(0.0999468 0.00108888 0.00134813)
(0.10017 0.00125723 0.00130164)
(0.097327 0.000977492 0.00107331)
(0.0997579 0.000969187 0.00127975)
(0.100001 0.00113744 0.0012153)
(0.0970363 0.000873157 0.00104232)
(0.0995909 0.00086412 0.00123792)
(0.099863 0.00103261 0.00115378)
(0.0967792 0.000768004 0.0010318)
(0.0994422 0.000766748 0.00121908)
(0.099755 0.00093432 0.00111325)
(0.0965487 0.000652276 0.0010452)
(0.0993057 0.000668251 0.00122455)
(0.0996737 0.000833844 0.0010929)
(0.0963344 0.000512026 0.00108821)
(0.0991717 0.000559807 0.00126098)
(0.0996134 0.000721237 0.00109494)
(0.0961246 0.000328028 0.00116736)
(0.0990285 0.000430885 0.0013379)
(0.0995658 0.000581606 0.00112109)
(0.0958972 8.12301e-05 0.00128377)
(0.0988624 0.000270726 0.00146938)
(0.0995157 0.000400011 0.00117088)
(0.0956001 -0.000194144 0.00147175)
(0.0986585 6.68307e-05 0.00165837)
(0.0994461 0.000163106 0.00123216)
(0.0987388 -0.00011069 0.00193727)
(0.0995836 -6.38893e-05 0.00135441)
(0.100242 0.00082021 0.00125616)
(0.10009 0.000294368 0.000735368)
(0.100071 0.00041569 0.000602806)
(0.100828 0.00139066 0.00193941)
(0.100491 0.000792083 0.00168406)
(0.100492 0.00112447 0.00158708)
(0.101392 0.00166367 0.00218244)
(0.101086 0.00107791 0.00208347)
(0.101128 0.00154094 0.00209427)
(0.101815 0.00176147 0.00226155)
(0.101664 0.00120466 0.00217919)
(0.101767 0.00173292 0.00229454)
(0.102079 0.00175586 0.00226256)
(0.102121 0.00124029 0.00222229)
(0.10229 0.00179023 0.00236775)
(0.102213 0.00166894 0.00217747)
(0.10245 0.00120285 0.00221049)
(0.10271 0.00174432 0.0023226)
(0.102262 0.00153491 0.0020426)
(0.102678 0.00111993 0.00212681)
(0.103035 0.00162691 0.00220306)
(0.102271 0.00138386 0.00188693)
(0.102838 0.00101989 0.0020061)
(0.103283 0.00148058 0.00205106)
(0.102265 0.00123287 0.00173298)
(0.102961 0.000920823 0.00187094)
(0.103487 0.00132926 0.00189252)
(0.102255 0.00109612 0.00160754)
(0.103062 0.000829256 0.00174515)
(0.103661 0.00118767 0.00174958)
(0.102243 0.000979497 0.00152113)
(0.10315 0.000748638 0.00164537)
(0.103816 0.00106483 0.0016393)
(0.102232 0.000878399 0.00146612)
(0.103234 0.000678583 0.00157028)
(0.103962 0.000959586 0.00155805)
(0.10222 0.000787868 0.0014378)
(0.103313 0.000617114 0.00152409)
(0.1041 0.000866345 0.00150244)
(0.102202 0.000704252 0.00143645)
(0.10338 0.000564371 0.00150765)
(0.104233 0.000781955 0.00147159)
(0.102172 0.00062279 0.00146718)
(0.103431 0.000520309 0.00151893)
(0.104359 0.000702882 0.00146765)
(0.102117 0.000540058 0.00154099)
(0.103462 0.000485829 0.00156007)
(0.104473 0.000625435 0.00149652)
(0.102027 0.000455778 0.00167559)
(0.103463 0.000462725 0.00164522)
(0.10457 0.000546242 0.00156717)
(0.101898 0.000368746 0.00188798)
(0.103426 0.000456135 0.00178996)
(0.104648 0.000465086 0.00168906)
(0.101735 0.000307965 0.00217879)
(0.103357 0.000467145 0.00200069)
(0.104713 0.000379478 0.00186282)
(0.103571 0.000532673 0.00226289)
(0.105001 0.000329338 0.00206444)
(0.100243 0.000267511 0.00116244)
(0.100087 3.47576e-08 0.000707033)
(0.100064 0.000135856 0.000537356)
(0.100782 0.000465949 0.00182628)
(0.100477 9.9649e-08 0.00161783)
(0.100463 0.000371026 0.00142421)
(0.101401 0.00057589 0.00207625)
(0.101066 1.72077e-07 0.00203472)
(0.101089 0.000525417 0.00193368)
(0.101987 0.00062355 0.00213416)
(0.101694 3.16538e-07 0.00211774)
(0.101797 0.000606304 0.00212879)
(0.102506 0.000632239 0.00216547)
(0.102269 5.87259e-07 0.00215037)
(0.102489 0.000640037 0.00221135)
(0.102934 0.000612183 0.00215769)
(0.102742 1.02539e-06 0.00218009)
(0.103119 0.000635388 0.00224217)
(0.103276 0.000574291 0.00209034)
(0.103124 1.68729e-06 0.00213451)
(0.103686 0.000602905 0.00219767)
(0.103553 0.000530335 0.00199147)
(0.103428 2.76083e-06 0.00204494)
(0.104184 0.00055806 0.00210733)
(0.103785 0.000488911 0.00188509)
(0.10368 4.63311e-06 0.00193612)
(0.104619 0.000512063 0.00199513)
(0.10399 0.0004504 0.00178503)