/*--------------------------------*- C++ -*----------------------------------*\
| =========                 |                                                 |
| \\      /  F ield         | OpenFOAM: The Open Source CFD Toolbox           |
|  \\    /   O peration     | Version:  2212                                  |
|   \\  /    A nd           | Website:  www.openfoam.com                      |
|    \\/     M anipulation  |                                                 |
\*---------------------------------------------------------------------------*/
FoamFile
{
    version     2.0;
    format      ascii;
    arch        "LSB;label=32;scalar=64";
    class       surfaceVectorField;
    location    "1.85";
    object      Uf;
}
// * * * * * * * * * * * * * * * * * * * * * * * * * * * * * * * * * * * * * //

dimensions      [0 1 -1 0 0 0 0];

internalField   nonuniform List<vector> 
1812
(
(0.0324173 -2.93735e-05 1.77615e-05)
(0.0410853 -0.000608194 0.000183673)
(0.0393091 0.000176042 -6.76774e-05)
(0.0317491 -1.81319e-05 5.2968e-05)
(0.0401153 -0.0004616 0.00016898)
(0.0385695 0.000171748 -2.38412e-06)
(0.0311549 -1.10682e-05 8.02604e-05)
(0.0393444 -0.000360157 0.00017082)
(0.0379295 0.000142011 4.59499e-05)
(0.0305939 -3.82818e-06 9.65205e-05)
(0.0386323 -0.000276545 0.000172918)
(0.0373053 0.000104334 8.19559e-05)
(0.0300581 1.7964e-06 0.000102144)
(0.0379788 -0.000224501 0.000173803)
(0.0367138 8.17326e-05 0.000101082)
(0.0295483 4.29149e-06 0.000101135)
(0.0373538 -0.000194327 0.000169864)
(0.0361328 6.92604e-05 0.000107222)
(0.0290689 4.41741e-06 9.68879e-05)
(0.0367802 -0.000174535 0.000161263)
(0.0355925 6.13864e-05 0.000106115)
(0.0362284 -0.000161264 0.000150741)
(0.035068 5.44118e-05 0.00010229)
(0.0528833 -0.0010405 0.00018231)
(0.0622804 -0.00136611 6.87323e-05)
(0.0651719 -0.000872859 0.00011385)
(0.0517103 -0.000808533 0.000169601)
(0.0606948 -0.00113738 5.39107e-05)
(0.0641299 -0.000619206 9.60495e-05)
(0.0507374 -0.000634995 0.00017688)
(0.0594406 -0.000982119 8.1637e-05)
(0.0633087 -0.000458709 0.000111692)
(0.0498794 -0.000513197 0.000190087)
(0.0583769 -0.000861484 0.000121354)
(0.0625834 -0.000348151 0.00013497)
(0.0490889 -0.000444059 0.000200953)
(0.0574478 -0.000783378 0.000152211)
(0.0619239 -0.00027854 0.000155954)
(0.0483525 -0.000401582 0.000201688)
(0.0566025 -0.000728326 0.000161901)
(0.061302 -0.000235754 0.000167525)
(0.0476657 -0.000371837 0.00019461)
(0.0558418 -0.00068573 0.000156008)
(0.0607241 -0.000206713 0.000169994)
(0.0551146 -0.000652685 0.000144078)
(0.0601568 -0.000188963 0.000167419)
(0.0742696 -0.00206037 0.000359327)
(0.080419 -0.0023078 0.000664732)
(0.0847463 -0.00222393 0.000431641)
(0.0721859 -0.00173137 0.000176565)
(0.0783906 -0.00197872 0.000373674)
(0.0832478 -0.0018362 0.000228193)
(0.0704781 -0.00150198 9.99347e-05)
(0.0766827 -0.00172829 0.000188758)
(0.0820183 -0.00156019 0.000131253)
(0.0690761 -0.00133515 7.6785e-05)
(0.0752354 -0.00153369 6.83512e-05)
(0.0810097 -0.00135277 9.08131e-05)
(0.067908 -0.00121169 7.5746e-05)
(0.0739955 -0.00138172 -7.95261e-06)
(0.0801798 -0.00119437 8.21631e-05)
(0.0669067 -0.00112144 7.47679e-05)
(0.0729062 -0.00127198 -5.5075e-05)
(0.0794786 -0.00108229 8.25141e-05)
(0.0660181 -0.00105366 6.45536e-05)
(0.0719279 -0.00119181 -8.98928e-05)
(0.078872 -0.0010025 8.0439e-05)
(0.0652079 -0.00100009 4.63755e-05)
(0.0710362 -0.00113275 -0.000118867)
(0.0783347 -0.000941045 7.06599e-05)
(0.0701921 -0.00108384 -0.000147383)
(0.077839 -0.000899101 5.89509e-05)
(0.0898551 -0.00245843 0.00144792)
(0.0906161 -0.00191602 0.00118973)
(0.0956751 -0.00233523 0.00118971)
(0.0883962 -0.00265273 0.00130883)
(0.0896348 -0.00236577 0.00132621)
(0.0952178 -0.00271499 0.00118108)
(0.0867679 -0.00246818 0.000995333)
(0.0885878 -0.00233854 0.0011115)
(0.0946123 -0.00257033 0.000962186)
(0.0851364 -0.0022248 0.000680546)
(0.0873449 -0.00215866 0.000805715)
(0.0937716 -0.00233189 0.000711343)
(0.0836037 -0.0020025 0.0004164)
(0.0860641 -0.00197659 0.000515915)
(0.0928644 -0.00211054 0.000477936)
(0.0821979 -0.00181263 0.00021717)
(0.0848499 -0.00182301 0.000292912)
(0.0919999 -0.00191146 0.000287864)
(0.0809174 -0.00165401 6.86778e-05)
(0.0837125 -0.00169392 0.000125211)
(0.0912044 -0.00173954 0.000139288)
(0.079752 -0.00152699 -4.23535e-05)
(0.0826482 -0.00158904 -4.64846e-06)
(0.0904805 -0.00159785 2.39927e-05)
(0.078686 -0.00142947 -0.000124357)
(0.0816442 -0.00150851 -0.000104721)
(0.0898196 -0.00148813 -6.25083e-05)
(0.0776983 -0.00135575 -0.000184182)
(0.080693 -0.00144802 -0.000181701)
(0.0892155 -0.00140415 -0.000127293)
(0.0767701 -0.00129886 -0.000228849)
(0.0797841 -0.00140221 -0.000239435)
(0.0886579 -0.00133841 -0.000176391)
(0.0789033 -0.00136541 -0.000283341)
(0.0881355 -0.00128675 -0.000215019)
(0.0907923 -0.00178756 0.00102711)
(0.0893861 -0.0012939 0.000846512)
(0.0973049 -0.00176255 0.000765082)
(0.0900445 -0.00199097 0.00103995)
(0.0889078 -0.00156547 0.000978051)
(0.0970984 -0.00204366 0.000887887)
(0.0892164 -0.00198015 0.000849271)
(0.0884228 -0.00163729 0.000826143)
(0.0968488 -0.00206292 0.00080026)
(0.0883385 -0.00188383 0.000607321)
(0.0878447 -0.00161016 0.000599022)
(0.0965008 -0.00197937 0.000634478)
(0.0874284 -0.00178266 0.000376679)
(0.0871724 -0.00156801 0.000371687)
(0.0960758 -0.00188417 0.000445725)
(0.0865119 -0.00169331 0.000185341)
(0.0864447 -0.00152742 0.000177836)
(0.0956151 -0.0017938 0.000272374)
(0.0856031 -0.0016189 3.18665e-05)
(0.0856832 -0.0014923 1.66564e-05)
(0.0951392 -0.00171435 0.00012317)
(0.0847089 -0.00156151 -9.0462e-05)
(0.0849034 -0.00146813 -0.000117273)
(0.0946591 -0.00164388 -1.84693e-06)
(0.0838293 -0.00151921 -0.000187627)
(0.0841063 -0.00145329 -0.000224673)
(0.0941793 -0.00158655 -0.000104054)
(0.0829627 -0.00148787 -0.000263587)
(0.0832979 -0.00144397 -0.000310509)
(0.0937042 -0.0015421 -0.000186943)
(0.0821046 -0.00146316 -0.000321239)
(0.082481 -0.00143646 -0.00037065)
(0.0932335 -0.00150602 -0.000252033)
(0.081656 -0.00142868 -0.00041227)
(0.0927647 -0.00147663 -0.000301873)
(0.0875691 -0.0010563 0.000773243)
(0.0845366 -0.000446 0.000647847)
(0.095366 -0.00112699 0.000518203)
(0.0873228 -0.00119144 0.000727574)
(0.0844763 -0.000666063 0.000585668)
(0.0953364 -0.00130377 0.000575642)
(0.0870316 -0.00125082 0.000548309)
(0.0844206 -0.000817003 0.000417778)
(0.0952879 -0.00136069 0.000492094)
(0.0866502 -0.00128113 0.000341561)
(0.0842705 -0.00092778 0.000244999)
(0.0952212 -0.0013793 0.000351826)
(0.0861688 -0.00130262 0.000156467)
(0.0839675 -0.00102212 9.02905e-05)
(0.0950875 -0.00139199 0.00020603)
(0.0856028 -0.00131956 -7.02186e-07)
(0.0835313 -0.00110284 -4.64727e-05)
(0.0948788 -0.00140204 7.18734e-05)
(0.0849724 -0.00133748 -0.000137009)
(0.082996 -0.00116633 -0.000173978)
(0.0946104 -0.00141263 -4.99102e-05)
(0.0842925 -0.00135792 -0.000252468)
(0.0823875 -0.00121857 -0.000287383)
(0.0942981 -0.00142284 -0.000156901)
(0.0835708 -0.00137763 -0.000345973)
(0.0817149 -0.00126141 -0.000373317)
(0.0939496 -0.00143021 -0.000243866)
(0.0828147 -0.00139327 -0.000414133)
(0.0809939 -0.00129256 -0.000438833)
(0.0935717 -0.00143579 -0.000314597)
(0.0820319 -0.00140336 -0.00045726)
(0.0802371 -0.00131235 -0.000481238)
(0.0931701 -0.00144016 -0.000364211)
(0.0794544 -0.00132285 -0.000507336)
(0.0927493 -0.00144242 -0.00039811)
(0.0814896 -6.68245e-05 0.000463863)
(0.0771413 0.000619029 0.00040564)
(0.0906732 -0.000271439 0.000195394)
(0.0816764 -0.000302851 0.000286542)
(0.0775658 0.000283103 6.76048e-05)
(0.090856 -0.000495455 0.000107669)
(0.0817558 -0.000501987 0.000117869)
(0.0778206 -6.51115e-05 -0.000114531)
(0.0910158 -0.00063386 4.90806e-06)
(0.0816511 -0.000674231 -8.03071e-06)
(0.077834 -0.000351336 -0.000165027)
(0.0911318 -0.000756946 -7.13413e-05)
(0.0813795 -0.000826185 -0.00011595)
(0.0776013 -0.000577694 -0.0002111)
(0.0911345 -0.000874722 -0.000138023)
(0.0809726 -0.00095247 -0.000222631)
(0.0772079 -0.000757511 -0.000276922)
(0.0910261 -0.00098437 -0.000206247)
(0.0804581 -0.00104976 -0.000326019)
(0.0766948 -0.000884403 -0.000353385)
(0.0908337 -0.00107284 -0.000276702)
(0.0798563 -0.00112434 -0.000407864)
(0.0760916 -0.000973006 -0.000418195)
(0.0905773 -0.00113765 -0.000337007)
(0.079187 -0.0011787 -0.000464244)
(0.0754221 -0.00103525 -0.000460477)
(0.0902668 -0.001185 -0.000377958)
(0.0784653 -0.00121404 -0.000503212)
(0.0747065 -0.00107429 -0.000489253)
(0.0899145 -0.00121957 -0.000409058)
(0.0777078 -0.00123434 -0.000527842)
(0.0739582 -0.00109641 -0.000505781)
(0.0895306 -0.0012424 -0.000430505)
(0.0731895 -0.00110637 -0.000512808)
(0.0891237 -0.00125551 -0.000442744)
(0.0734193 0.00095879 -0.000184471)
(0.0687177 0.00147638 -0.000423813)
(0.084205 0.000731005 -0.00034822)
(0.0740737 0.000501049 -0.000380313)
(0.0691572 0.000867288 -0.000832396)
(0.0846141 0.000338064 -0.000600075)
(0.0742221 6.64939e-05 -0.000386889)
(0.0691757 0.000308919 -0.000618802)
(0.0848484 -1.76464e-05 -0.000619061)
(0.0740511 -0.000269681 -0.000350021)
(0.068846 -7.65785e-05 -0.000416306)
(0.0849254 -0.000293062 -0.000547543)
(0.073693 -0.000521281 -0.000350465)
(0.06832 -0.000341192 -0.000353021)
(0.0848325 -0.000509936 -0.000496963)
(0.0731985 -0.00070061 -0.000382273)
(0.0677308 -0.000519948 -0.00034703)
(0.0846344 -0.00067287 -0.000471064)
(0.0726009 -0.000818383 -0.000420068)
(0.067095 -0.000630298 -0.000358687)
(0.0843627 -0.000779969 -0.000455997)
(0.0719332 -0.00089435 -0.000449263)
(0.0664167 -0.00070047 -0.000375471)
(0.0840384 -0.000849364 -0.000444313)
(0.0712213 -0.000941158 -0.000468489)
(0.0657126 -0.000744782 -0.000389414)
(0.0836787 -0.000896933 -0.000435271)
(0.0704796 -0.000967002 -0.000478439)
(0.064993 -0.000768642 -0.000396176)
(0.0832949 -0.000926881 -0.000426553)
(0.069719 -0.000978766 -0.000480761)
(0.0642673 -0.000778161 -0.000396457)
(0.0828929 -0.000944201 -0.000418477)
(0.0824803 -0.000951542 -0.000409097)
(0.0651483 0.00135807 -0.000652984)
(0.0587268 0.00107432 -0.00139843)
(0.0768572 0.00110742 -0.000889034)
(0.0650586 0.00066382 -0.000733069)
(0.0581837 0.000556234 -0.00117774)
(0.0769846 0.000450904 -0.00125399)
(0.0644317 0.000159552 -0.000530333)
(0.0573318 0.000285542 -0.000499763)
(0.0768503 6.66589e-05 -0.00102726)
(0.0637421 -0.000155442 -0.000424213)
(0.0563004 7.3069e-05 -0.000246877)
(0.0764658 -0.000153201 -0.000802959)
(0.0630394 -0.000350736 -0.000398765)
(0.0554241 -9.6464e-05 -0.000192497)
(0.0759984 -0.000300945 -0.000669659)
(0.0623275 -0.000464678 -0.000396784)
(0.0546852 -0.000213939 -0.000186333)
(0.0755437 -0.000394214 -0.000577385)
(0.0616175 -0.000530737 -0.000401314)
(0.0539848 -0.000281485 -0.000201436)
(0.0751006 -0.00045058 -0.000511346)
(0.0609075 -0.000571521 -0.000406505)
(0.0532952 -0.000325332 -0.000222046)
(0.0746591 -0.000489202 -0.000470021)
(0.0601976 -0.000594433 -0.000407527)
(0.0526194 -0.000351149 -0.000236378)
(0.0742213 -0.000514849 -0.000437737)
(0.0594918 -0.000603085 -0.000402843)
(0.0519478 -0.000362008 -0.000242038)
(0.0737887 -0.000528083 -0.000410364)
(0.0513008 -0.000362274 -0.000240878)
(0.073361 -0.000531923 -0.000387277)
(0.053972 0.000343063 -0.00208509)
(0.049108 -0.000415426 -0.00313177)
(0.0657601 -0.000201663 -0.00284372)
(0.0520166 0.000201008 -0.00111974)
(0.0442155 0.000111535 -0.00138804)
(0.0655358 -0.000263659 -0.00237156)
(0.0505149 0.000199635 -0.000211805)
(0.0420185 0.000220032 -0.00020665)
(0.0646746 -7.43005e-05 -0.00127424)
(0.0494823 0.000124622 0.000109936)
(0.0403229 0.000153256 0.000122376)
(0.0635593 -2.92223e-05 -0.000645452)
(0.0486504 2.5527e-05 0.000166324)
(0.0392485 6.65348e-05 0.000180195)
(0.0626524 -5.3917e-05 -0.000370352)
(0.0479136 -5.02544e-05 0.000152806)
(0.0385038 5.36523e-07 0.000171853)
(0.0619355 -9.37017e-05 -0.000231409)
(0.0472297 -9.89959e-05 0.000113378)
(0.037862 -4.75466e-05 0.000139579)
(0.0612977 -0.000124626 -0.000159365)
(0.0465699 -0.000130673 7.31375e-05)
(0.0372457 -8.28392e-05 0.000101979)
(0.060699 -0.000149588 -0.000128735)
(0.0459273 -0.000146527 4.64899e-05)
(0.0366661 -0.000100628 8.23058e-05)
(0.0601325 -0.000160306 -0.000103466)
(0.0453062 -0.000150578 3.09738e-05)
(0.0361006 -0.000106441 7.06589e-05)
(0.0595814 -0.000161647 -8.35816e-05)
(0.0355707 -0.000105586 6.22586e-05)
(0.059057 -0.000157091 -7.01259e-05)
(0.0431852 -0.000352477 -0.00190967)
(0.0545378 -0.000709464 -0.00248771)
(0.0371572 0.000128759 -0.000631407)
(0.047939 -0.000174189 -0.00159507)
(0.0346822 0.000124118 -0.000123462)
(0.0448357 -0.000189828 -0.00108451)
(0.0332836 3.77111e-05 -4.62321e-05)
(0.0425064 -0.000211454 -0.000840395)
(0.0323779 -1.97249e-05 -2.89676e-05)
(0.0410283 -0.000189618 -0.000616093)
(0.0316966 -5.46118e-05 -1.89226e-05)
(0.0400514 -0.000173155 -0.00046495)
(0.0311036 -8.08511e-05 -1.20806e-05)
(0.039279 -0.000170451 -0.000356125)
(0.0305509 -9.61313e-05 -4.70166e-06)
(0.038574 -0.000170427 -0.00027062)
(0.0300254 -0.000101272 1.24537e-06)
(0.0379325 -0.000171587 -0.000221396)
(0.0295269 -0.000100195 3.93341e-06)
(0.0373225 -0.00016752 -0.000192055)
(0.0367589 -0.00015924 -0.00017272)
(0.0487372 0.000167356 -2.79117e-05)
(0.0626965 -0.000375176 5.44601e-05)
(0.0554935 -0.000172155 8.75058e-05)
(0.0480075 0.000151639 4.92157e-05)
(0.0619756 -0.000230277 9.09926e-05)
(0.0547544 -0.000183499 0.000210266)
(0.0473136 0.00011158 9.85176e-05)
(0.0613369 -0.000158105 0.000122704)
(0.0540518 -0.000209138 0.000281894)
(0.0466386 6.91076e-05 0.000130923)
(0.0607339 -0.000127795 0.000147703)
(0.053352 -0.000233749 0.000327691)
(0.0459786 4.03506e-05 0.000147553)
(0.0601609 -0.000104632 0.000159534)
(0.0526641 -0.000250564 0.000355314)
(0.0453401 2.50918e-05 0.0001515)
(0.0596002 -8.58857e-05 0.000161013)
(0.0519767 -0.000256063 0.000366555)
(0.0447299 1.63173e-05 0.000148942)
(0.0590689 -7.10156e-05 0.000155933)
(0.0513188 -0.000253903 0.000366576)
(0.0585397 -6.36354e-05 0.000151277)
(0.0506671 -0.000248556 0.000360482)
(0.0794664 -0.00078334 7.0244e-05)
(0.0868903 -0.00141584 0.000128413)
(0.0848755 -0.00101729 0.000186656)
(0.078845 -0.00053809 7.31275e-05)
(0.0863227 -0.00112474 0.000103642)
(0.0844435 -0.000770519 0.000198516)
(0.0783129 -0.000392489 9.90237e-05)
(0.0858412 -0.000926384 0.000109557)
(0.0840784 -0.000606029 0.000229381)
(0.0778319 -0.000301218 0.000126073)
(0.0854235 -0.000793279 0.000130818)
(0.0837544 -0.000503806 0.00026389)
(0.077385 -0.000239793 0.000145858)
(0.0850511 -0.000698611 0.000151101)
(0.0834549 -0.000432964 0.000290881)
(0.0769538 -0.000201896 0.000159217)
(0.0847171 -0.000636643 0.000167831)
(0.0831753 -0.000386681 0.000309825)
(0.0765293 -0.000178988 0.000166855)
(0.0844032 -0.00059218 0.000176839)
(0.082901 -0.000356349 0.000321623)
(0.084103 -0.000568373 0.000181024)
(0.0826249 -0.000336089 0.000328825)
(0.0953284 -0.00219901 0.000303544)
(0.0989261 -0.00243574 0.000466403)
(0.0987739 -0.00221971 0.000384489)
(0.0948892 -0.00184987 0.000191045)
(0.0986413 -0.00212803 0.000302309)
(0.0986365 -0.00192168 0.000294845)
(0.0944767 -0.00158137 0.000131188)
(0.0983359 -0.00186733 0.000183677)
(0.098481 -0.00167347 0.000247493)
(0.0941202 -0.00137497 0.00010482)
(0.0980512 -0.00165471 0.000100295)
(0.0983391 -0.00147383 0.000226874)
(0.093824 -0.00122034 9.6796e-05)
(0.097803 -0.00148709 4.40706e-05)
(0.098229 -0.00131843 0.000224391)
(0.0935815 -0.00111026 9.57711e-05)
(0.0975914 -0.00136122 4.62032e-06)
(0.0981526 -0.00120107 0.000228477)
(0.0933812 -0.00103021 9.46364e-05)
(0.097417 -0.00127091 -2.28849e-05)
(0.0981099 -0.00111682 0.000234591)
(0.0932142 -0.00097799 9.25147e-05)
(0.0972687 -0.00120016 -4.69354e-05)
(0.0980893 -0.00105223 0.000236163)
(0.0971486 -0.00115795 -6.47381e-05)
(0.0980948 -0.00101545 0.00023826)
(0.102061 -0.00244727 0.000897863)
(0.103054 -0.00204166 0.000767647)
(0.104359 -0.00208438 0.000735122)
(0.102445 -0.00263976 0.000801704)
(0.103445 -0.00237342 0.000785703)
(0.104792 -0.00240279 0.000682603)
(0.102597 -0.00255999 0.000647892)
(0.103704 -0.00241248 0.000695161)
(0.105116 -0.00243774 0.000586303)
(0.102569 -0.00237981 0.000485908)
(0.103824 -0.00230969 0.000557373)
(0.105339 -0.00233294 0.000475918)
(0.102442 -0.00217836 0.000334016)
(0.103834 -0.00217232 0.000409729)
(0.105467 -0.0021849 0.000365181)
(0.102278 -0.00198309 0.000199664)
(0.10378 -0.00202665 0.000268276)
(0.105532 -0.00202152 0.000261505)
(0.102109 -0.00181377 8.75307e-05)
(0.103699 -0.00189349 0.000141363)
(0.105572 -0.00186622 0.000171823)
(0.101953 -0.00167733 -1.02137e-06)
(0.10361 -0.00177553 3.42321e-05)
(0.105609 -0.00173236 9.80662e-05)
(0.101815 -0.00157217 -6.88165e-05)
(0.103522 -0.00167949 -5.18884e-05)
(0.105649 -0.00162644 4.0722e-05)
(0.101698 -0.00149086 -0.000122129)
(0.103442 -0.00160556 -0.000121272)
(0.1057 -0.00154221 -4.63295e-06)
(0.101598 -0.00142902 -0.000165006)
(0.10337 -0.00154642 -0.000177763)
(0.105763 -0.00147504 -4.15826e-05)
(0.103306 -0.00150283 -0.000221937)
(0.105838 -0.00142663 -7.13106e-05)
(0.10445 -0.00194167 0.000618296)
(0.104102 -0.00152832 0.000427372)
(0.106883 -0.00174456 0.000456547)
(0.104765 -0.00211192 0.00062717)
(0.104383 -0.00173928 0.000496472)
(0.107267 -0.00194859 0.000474295)
(0.105007 -0.00213213 0.000558501)
(0.104607 -0.0018219 0.00046855)
(0.107593 -0.00202815 0.00044026)
(0.105159 -0.0020806 0.000448196)
(0.104809 -0.0018253 0.000386034)
(0.1079 -0.00202155 0.000372304)
(0.105244 -0.00200636 0.000320932)
(0.104965 -0.00180256 0.000277883)
(0.108162 -0.00197934 0.000283674)
(0.10528 -0.00192839 0.00019289)
(0.105066 -0.00177134 0.000160403)
(0.108374 -0.00192068 0.000187176)
(0.105283 -0.00185057 7.44573e-05)
(0.105125 -0.00173979 4.59978e-05)
(0.108552 -0.00185865 9.37562e-05)
(0.105266 -0.00177546 -2.87204e-05)
(0.105155 -0.00170084 -5.46107e-05)
(0.108706 -0.00179283 9.56205e-06)
(0.105239 -0.00171233 -0.000115643)
(0.105166 -0.00166194 -0.000137757)
(0.108847 -0.00173342 -6.37294e-05)
(0.105207 -0.00166193 -0.000187404)
(0.105164 -0.0016309 -0.000207123)
(0.108979 -0.00168475 -0.000125228)
(0.105171 -0.00162189 -0.000244953)
(0.105152 -0.00160717 -0.000263553)
(0.109106 -0.00164497 -0.00017565)
(0.10513 -0.00158932 -0.000307133)
(0.109228 -0.0016141 -0.000215139)
(0.103966 -0.00132451 0.000314707)
(0.102425 -0.000902278 0.000103333)
(0.106863 -0.00127886 0.000112637)
(0.104188 -0.00144234 0.000331803)
(0.102657 -0.00103767 0.000131675)
(0.107158 -0.00137416 0.000152561)
(0.104416 -0.00150536 0.000280659)
(0.102839 -0.00114173 8.74936e-05)
(0.107422 -0.0014514 0.000130248)
(0.104617 -0.00153775 0.000198995)
(0.10306 -0.00121818 3.04078e-05)
(0.107717 -0.00149753 8.06191e-05)
(0.104781 -0.00155955 0.000102968)
(0.103261 -0.0012831 -3.50657e-05)
(0.108008 -0.00152792 1.60723e-05)
(0.104906 -0.00157688 3.34489e-06)
(0.103413 -0.00134262 -0.000107009)
(0.108271 -0.00155137 -5.61672e-05)
(0.104995 -0.00158635 -8.88e-05)
(0.103523 -0.00139071 -0.000173897)
(0.108505 -0.00156842 -0.000127306)
(0.105054 -0.00158526 -0.000166115)
(0.1036 -0.00141873 -0.000227876)
(0.108715 -0.00157567 -0.00018968)
(0.10509 -0.00157964 -0.000229416)
(0.103654 -0.00143286 -0.000270562)
(0.108906 -0.00157516 -0.000240846)
(0.105108 -0.00157619 -0.00028169)
(0.103686 -0.00144509 -0.000307313)
(0.109081 -0.00157302 -0.000283862)
(0.10511 -0.00157535 -0.000322891)
(0.103699 -0.00145591 -0.000336833)
(0.10924 -0.00157148 -0.000318907)
(0.103696 -0.00146343 -0.00035756)
(0.109388 -0.00156999 -0.000345227)
(0.101032 -0.000605012 -0.000144043)
(0.098827 -0.000188769 -0.000441223)
(0.104647 -0.000659166 -0.000335741)
(0.101277 -0.000732878 -0.000150773)
(0.0989857 -0.000338831 -0.000487155)
(0.104908 -0.000722922 -0.000309589)
(0.101525 -0.000855168 -0.00017927)
(0.0991201 -0.000521071 -0.000502079)
(0.10514 -0.000837673 -0.000335793)
(0.101739 -0.000966173 -0.00020949)
(0.0993089 -0.000675513 -0.000481296)
(0.105431 -0.000939473 -0.000362293)
(0.101916 -0.00106971 -0.000244876)
(0.0994721 -0.000809521 -0.000459301)
(0.105722 -0.00103217 -0.000386624)
(0.102053 -0.00116016 -0.000281305)
(0.0995864 -0.00092058 -0.000440592)
(0.105984 -0.00111822 -0.00041091)
(0.102154 -0.00122659 -0.000309414)
(0.0996684 -0.00100092 -0.000419573)
(0.106219 -0.00118904 -0.000429122)
(0.102226 -0.00126969 -0.000328268)
(0.0997283 -0.00105465 -0.000400575)
(0.106433 -0.00123937 -0.000438625)
(0.102274 -0.00130155 -0.000343923)
(0.0997683 -0.00109374 -0.000386397)
(0.106627 -0.00127511 -0.000443352)
(0.1023 -0.00132785 -0.000358039)
(0.0997908 -0.00112487 -0.000376956)
(0.106803 -0.00130378 -0.0004477)
(0.102309 -0.0013468 -0.000367632)
(0.0997976 -0.00114753 -0.000371194)
(0.106964 -0.00132504 -0.000449999)
(0.0997921 -0.00116103 -0.000364525)
(0.107113 -0.00133857 -0.000448729)
(0.0967494 6.43027e-05 -0.000796938)
(0.0937375 0.000249612 -0.00116714)
(0.100988 -0.000113489 -0.000988826)
(0.0968816 -0.000142085 -0.000824719)
(0.0937905 -1.07375e-05 -0.00130468)
(0.101162 -0.000218528 -0.00101594)
(0.0970476 -0.000356116 -0.000779063)
(0.0938546 -0.000218348 -0.00119958)
(0.101353 -0.00038264 -0.00100746)
(0.0971746 -0.000532018 -0.000707607)
(0.0938759 -0.000352648 -0.00100597)
(0.101605 -0.00051764 -0.00095531)
(0.0972645 -0.000672266 -0.000636317)
(0.093857 -0.000453972 -0.000831175)
(0.101844 -0.000633262 -0.000889658)
(0.0973274 -0.000772664 -0.000564827)
(0.0938188 -0.000535233 -0.000690054)
(0.102044 -0.000727886 -0.000818409)
(0.0973704 -0.000840126 -0.00050014)
(0.0937727 -0.000595539 -0.000579262)
(0.102221 -0.000797298 -0.000746199)
(0.0973996 -0.000889567 -0.000450624)
(0.093724 -0.000641863 -0.00050268)
(0.102384 -0.000850145 -0.000684719)
(0.097415 -0.000927514 -0.000414268)
(0.0936736 -0.000678473 -0.000445167)
(0.102534 -0.0008921 -0.000635671)
(0.0974179 -0.000954642 -0.000388241)
(0.0936223 -0.000705028 -0.000403606)
(0.102675 -0.000923143 -0.000596102)
(0.0974109 -0.00097158 -0.000369078)
(0.0935652 -0.000723096 -0.000375907)
(0.102808 -0.00094436 -0.000566251)
(0.102936 -0.000956211 -0.00054199)
(0.0909392 0.000162014 -0.00152027)
(0.0855078 -0.000313374 -0.0021006)
(0.0958439 -6.85914e-05 -0.00165024)
(0.0910011 -9.63352e-05 -0.00153707)
(0.086026 -0.000359554 -0.00225189)
(0.09607 -0.000231814 -0.00184179)
(0.0909818 -0.000225757 -0.00132902)
(0.085885 -0.000253162 -0.00184433)
(0.0962471 -0.000302434 -0.00173664)
(0.0908585 -0.000287785 -0.00108688)
(0.0854028 -0.000188473 -0.0013516)
(0.0963367 -0.000325614 -0.0015288)
(0.0907172 -0.000332585 -0.000879786)
(0.0849008 -0.000180565 -0.00100594)
(0.0963679 -0.000345476 -0.00132363)
(0.0905815 -0.000375424 -0.000719515)
(0.0844748 -0.0002018 -0.00077127)
(0.0963718 -0.000372865 -0.00114692)
(0.0904517 -0.000415362 -0.000607179)
(0.0841094 -0.000233185 -0.000606329)
(0.0963648 -0.000403993 -0.00100536)
(0.0903323 -0.000449246 -0.000529174)
(0.0837798 -0.000267282 -0.000504397)
(0.0963595 -0.00043519 -0.000902081)
(0.0902215 -0.000474876 -0.000470113)
(0.0834763 -0.000292968 -0.000433362)
(0.0963625 -0.000462363 -0.000820668)
(0.0901148 -0.000492832 -0.000427266)
(0.0831914 -0.000311311 -0.00038556)
(0.0963759 -0.000483165 -0.000759111)
(0.082914 -0.000324359 -0.000357346)
(0.0963938 -0.000498353 -0.000714902)
(0.081389 -0.000779196 -0.00311202)
(0.0733275 -0.00123742 -0.00419011)
(0.0874742 -0.000855731 -0.00287917)
(0.0816255 -0.000490774 -0.00258419)
(0.0707252 -0.000853673 -0.00316605)
(0.0882556 -0.000679298 -0.00298064)
(0.0809781 -0.000214434 -0.0017692)
(0.0686008 -0.000402539 -0.00202091)
(0.0881404 -0.000374922 -0.00241948)
(0.080204 -9.16611e-05 -0.00114875)
(0.0666024 -0.000191513 -0.00130924)
(0.0875595 -0.000191825 -0.00182236)
(0.0794894 -6.49857e-05 -0.000773822)
(0.0651328 -0.000115492 -0.000877368)
(0.0869201 -0.000122032 -0.00140843)
(0.0788697 -7.71292e-05 -0.000542329)
(0.0640924 -0.000100458 -0.00062256)
(0.0863575 -0.000105483 -0.00112872)
(0.0783329 -0.000103931 -0.00039828)
(0.0632725 -0.00011205 -0.000454563)
(0.0858751 -0.00011148 -0.000929079)
(0.0778464 -0.000130467 -0.000306965)
(0.0625501 -0.000134082 -0.000342768)
(0.0854518 -0.000132669 -0.000794391)
(0.0773962 -0.000149252 -0.000244046)
(0.0618974 -0.000154996 -0.000276027)
(0.0850752 -0.000151839 -0.000698356)
(0.0769634 -0.000162854 -0.000206083)
(0.0612843 -0.000166116 -0.000233541)
(0.0847363 -0.000168064 -0.000635425)
(0.0607129 -0.000169256 -0.000205852)
(0.084419 -0.000178211 -0.000592905)
(0.0663601 -0.00104564 -0.00275136)
(0.0747408 -0.00176185 -0.00312982)
(0.0603582 -0.000718509 -0.00247931)
(0.0704802 -0.00120008 -0.00301925)
(0.0566581 -0.000415085 -0.00192381)
(0.0672561 -0.000496995 -0.00228081)
(0.054369 -0.000260715 -0.00142738)
(0.0643861 -0.000189868 -0.00176615)
(0.0528016 -0.000191905 -0.00105505)
(0.0622141 -8.40882e-05 -0.00139162)
(0.0516205 -0.000170834 -0.000805339)
(0.0606266 -5.86484e-05 -0.00114357)
(0.0506578 -0.000172373 -0.000620979)
(0.0593752 -7.91873e-05 -0.000973673)
(0.0498152 -0.000184796 -0.000500608)
(0.0583215 -0.000115872 -0.000848006)
(0.0490404 -0.00019606 -0.000435964)
(0.0574047 -0.000144672 -0.000770958)
(0.04832 -0.000196799 -0.000395017)
(0.0565733 -0.000153879 -0.000716561)
(0.0558231 -0.0001482 -0.000674336)
(0.063772 -0.000399946 0.000141742)
(0.076475 -0.000789954 0.000143219)
(0.0688634 -0.000398771 6.60435e-05)
(0.0630771 -0.000383809 0.000340759)
(0.076004 -0.000656321 0.000290075)
(0.0683428 -0.000340044 0.000330172)
(0.0623681 -0.000398435 0.000462009)
(0.0755481 -0.000575141 0.00038977)
(0.0677549 -0.000345591 0.000514617)
(0.0616541 -0.000413859 0.000533557)
(0.0751037 -0.000518094 0.000450509)
(0.0671186 -0.000366897 0.000630875)
(0.0609362 -0.000423721 0.000577672)
(0.0746605 -0.000479852 0.000491604)
(0.0664369 -0.000388331 0.000704887)
(0.0602165 -0.000425926 0.000602225)
(0.0742199 -0.000449232 0.00051932)
(0.0657272 -0.000404351 0.000751468)
(0.0595004 -0.000420544 0.000611195)
(0.073785 -0.000421631 0.000533084)
(0.0650008 -0.000411242 0.000776244)
(0.0587928 -0.000409785 0.000608647)
(0.0733555 -0.000397243 0.00053654)
(0.0642686 -0.000410641 0.000785926)
(0.0729293 -0.000377674 0.000534505)
(0.0635326 -0.000403829 0.000784237)
(0.0908365 -0.00109107 0.000287562)
(0.0963199 -0.00153635 0.000329016)
(0.0938666 -0.00101198 0.000348522)
(0.0906846 -0.000881717 0.000329569)
(0.0963389 -0.00132876 0.000346453)
(0.0938367 -0.00083759 0.000450227)
(0.0905426 -0.000721588 0.00037235)
(0.096338 -0.00114906 0.000371336)
(0.0937942 -0.000693135 0.000532424)
(0.0904139 -0.000609501 0.000413161)
(0.0963288 -0.00100719 0.000402202)
(0.0937461 -0.000581475 0.000593899)
(0.0902988 -0.000531328 0.000448303)
(0.0963255 -0.000903033 0.000433776)
(0.0936991 -0.000504166 0.000641808)
(0.0901935 -0.000472442 0.000474835)
(0.0963323 -0.000821759 0.000461661)
(0.0936515 -0.000446938 0.000680035)
(0.0900942 -0.000428608 0.000492363)
(0.0963518 -0.000759983 0.000482682)
(0.0936051 -0.000404672 0.000707097)
(0.0899961 -0.000398252 0.000503942)
(0.0963762 -0.000713996 0.000496542)
(0.0935536 -0.000375546 0.000724591)
(0.0964091 -0.000683113 0.000505089)
(0.0934995 -0.000355854 0.000735114)
(0.102482 -0.00181003 0.000385795)
(0.10523 -0.00197604 0.000392664)
(0.104366 -0.00157129 0.000481856)
(0.102662 -0.00162433 0.000366398)
(0.105524 -0.00183108 0.00034367)
(0.104658 -0.00142859 0.000495157)
(0.102806 -0.00145364 0.000361186)
(0.105757 -0.00167979 0.000305011)
(0.104905 -0.0012871 0.000514765)
(0.102939 -0.00130972 0.000366145)
(0.105957 -0.00153972 0.000277886)
(0.105125 -0.00116234 0.000537343)
(0.103074 -0.00119347 0.000376833)
(0.106148 -0.00141884 0.000259016)
(0.105338 -0.00105793 0.000560386)
(0.103219 -0.00110215 0.000388828)
(0.10634 -0.00132155 0.000245935)
(0.105551 -0.000971832 0.000581903)
(0.103377 -0.00103263 0.000398307)
(0.106537 -0.00124321 0.000235793)
(0.105768 -0.000904057 0.000599262)
(0.103546 -0.000982659 0.000404616)
(0.106742 -0.00118208 0.000226797)
(0.105989 -0.000851898 0.000611007)
(0.106958 -0.00113913 0.000220191)
(0.106218 -0.000816237 0.000618139)
(0.107241 -0.00195099 0.000510513)
(0.108358 -0.00175005 0.000435616)
(0.10862 -0.0016205 0.000496274)
(0.107682 -0.00207185 0.000464907)
(0.108787 -0.00190358 0.000402434)
(0.10905 -0.00171515 0.000466082)
(0.108127 -0.0020779 0.000417966)
(0.109184 -0.00196406 0.000369322)
(0.109451 -0.00175401 0.000442462)
(0.108517 -0.00201109 0.000363714)
(0.109605 -0.00194991 0.000325308)
(0.109893 -0.00172605 0.000419226)
(0.10885 -0.00190881 0.000305089)
(0.109998 -0.00189464 0.000269455)
(0.110316 -0.00165723 0.000392089)
(0.109142 -0.00179323 0.000249162)
(0.110344 -0.00181832 0.000208659)
(0.110698 -0.00156883 0.000363483)
(0.109407 -0.00167924 0.000200349)
(0.110657 -0.00173474 0.00015124)
(0.111049 -0.00147471 0.000336375)
(0.109658 -0.00157976 0.000159731)
(0.11095 -0.0016531 0.000101212)
(0.111384 -0.00138469 0.000312689)
(0.109906 -0.00149737 0.000126208)
(0.111234 -0.00158399 5.8293e-05)
(0.111709 -0.00130836 0.00029162)
(0.110155 -0.00142842 9.83125e-05)
(0.111511 -0.00152434 2.22466e-05)
(0.11203 -0.00124253 0.000273038)
(0.110407 -0.00137426 7.55389e-05)
(0.111785 -0.00147517 -7.68294e-06)
(0.11235 -0.00118798 0.000256872)
(0.112061 -0.00143755 -3.12733e-05)
(0.11267 -0.00114571 0.000243059)
(0.109851 -0.001692 0.000310097)
(0.109877 -0.00145939 0.000124812)
(0.111112 -0.00143336 0.000281342)
(0.110288 -0.00178358 0.000287483)
(0.110279 -0.00153815 0.000121903)
(0.111567 -0.00150112 0.00025215)
(0.110733 -0.00182487 0.000258338)
(0.110653 -0.001597 0.000109842)
(0.111991 -0.0015501 0.000234615)
(0.111155 -0.00182481 0.000215855)
(0.111061 -0.00162497 8.24763e-05)
(0.112451 -0.00156342 0.000214445)
(0.11155 -0.00179845 0.000161327)
(0.111468 -0.00163068 4.10493e-05)
(0.11291 -0.00155022 0.00018529)
(0.111917 -0.00175701 0.00010233)
(0.111853 -0.00162236 -8.76371e-06)
(0.113348 -0.00152062 0.000149553)
(0.112262 -0.00170802 4.57165e-05)
(0.112218 -0.00160539 -5.92103e-05)
(0.113765 -0.00148153 0.00011283)
(0.112588 -0.00165803 -6.30434e-06)
(0.112565 -0.00158242 -0.00010554)
(0.114167 -0.00143683 7.81931e-05)
(0.112902 -0.00161239 -5.21953e-05)
(0.112898 -0.00155799 -0.000146127)
(0.114556 -0.00139293 4.62791e-05)
(0.113206 -0.0015731 -9.06372e-05)